/*--------------------------------*- C++ -*----------------------------------*\
| =========                 |                                                 |
| \\      /  F ield         | OpenFOAM: The Open Source CFD Toolbox           |
|  \\    /   O peration     | Version:  2312                                  |
|   \\  /    A nd           | Website:  www.openfoam.com                      |
|    \\/     M anipulation  |                                                 |
\*---------------------------------------------------------------------------*/
FoamFile
{
    version     2.0;
    format      ascii;
    arch        "LSB;label=32;scalar=64";
    class       volScalarField;
    location    "900";
    object      nut;
}
// * * * * * * * * * * * * * * * * * * * * * * * * * * * * * * * * * * * * * //

dimensions      [0 2 -1 0 0 0 0];

internalField   nonuniform List<scalar> 
76025
(
6.33925e-06
6.33647e-06
6.33308e-06
6.33015e-06
6.32897e-06
6.3285e-06
6.32852e-06
6.32791e-06
6.3264e-06
6.32537e-06
6.32522e-06
6.3255e-06
6.32544e-06
6.32453e-06
6.32334e-06
6.3218e-06
6.3203e-06
6.31842e-06
6.31568e-06
6.31162e-06
6.30611e-06
6.30246e-06
6.29956e-06
6.29738e-06
6.29535e-06
6.29384e-06
6.29226e-06
6.29028e-06
6.28916e-06
6.28811e-06
6.28763e-06
6.28636e-06
6.28577e-06
6.28411e-06
6.28174e-06
6.27749e-06
6.27217e-06
6.26589e-06
6.25717e-06
6.2457e-06
6.23217e-06
6.21705e-06
6.20003e-06
6.18095e-06
6.15979e-06
6.13795e-06
6.11535e-06
6.09166e-06
6.06723e-06
6.04284e-06
6.01804e-06
5.99246e-06
5.96653e-06
5.94061e-06
5.91244e-06
5.88429e-06
5.85432e-06
5.82115e-06
5.7843e-06
5.74322e-06
5.69691e-06
5.64712e-06
5.5949e-06
5.53693e-06
5.47357e-06
5.39949e-06
5.31714e-06
5.23429e-06
5.12852e-06
6.31349e-06
6.31192e-06
6.30959e-06
6.30659e-06
6.3035e-06
6.30064e-06
6.29826e-06
6.2961e-06
6.29397e-06
6.2916e-06
6.28926e-06
6.28715e-06
6.28541e-06
6.28361e-06
6.28157e-06
6.2794e-06
6.27706e-06
6.27467e-06
6.27222e-06
6.26951e-06
6.26617e-06
6.26253e-06
6.25862e-06
6.25463e-06
6.25059e-06
6.24639e-06
6.24218e-06
6.23747e-06
6.2324e-06
6.22697e-06
6.22125e-06
6.21525e-06
6.20962e-06
6.20393e-06
6.19591e-06
6.18598e-06
6.17515e-06
6.16358e-06
6.15125e-06
6.13816e-06
6.12433e-06
6.10977e-06
6.09467e-06
6.07902e-06
6.06285e-06
6.04611e-06
6.02876e-06
6.01083e-06
5.99225e-06
5.97287e-06
5.95259e-06
5.93126e-06
5.90849e-06
5.88391e-06
5.85772e-06
5.83087e-06
5.80083e-06
5.76685e-06
5.72866e-06
5.68601e-06
5.63889e-06
5.5871e-06
5.53019e-06
5.4674e-06
5.39572e-06
5.31858e-06
5.22678e-06
5.12535e-06
5.00507e-06
6.28628e-06
6.28523e-06
6.28366e-06
6.2815e-06
6.2788e-06
6.27576e-06
6.27257e-06
6.26932e-06
6.2661e-06
6.2628e-06
6.25938e-06
6.25588e-06
6.25246e-06
6.24916e-06
6.24586e-06
6.24253e-06
6.23914e-06
6.23571e-06
6.23228e-06
6.22884e-06
6.22531e-06
6.22155e-06
6.21746e-06
6.21304e-06
6.20829e-06
6.20321e-06
6.19782e-06
6.19206e-06
6.1859e-06
6.17932e-06
6.17234e-06
6.16491e-06
6.15702e-06
6.14864e-06
6.13971e-06
6.1302e-06
6.12009e-06
6.10937e-06
6.09806e-06
6.08614e-06
6.0736e-06
6.06041e-06
6.04656e-06
6.03204e-06
6.01682e-06
6.00084e-06
5.984e-06
5.96628e-06
5.94764e-06
5.92794e-06
5.90711e-06
5.88509e-06
5.8614e-06
5.8356e-06
5.80855e-06
5.77913e-06
5.74615e-06
5.7093e-06
5.66834e-06
5.62302e-06
5.57303e-06
5.51795e-06
5.45705e-06
5.3892e-06
5.31263e-06
5.22439e-06
5.11706e-06
4.99868e-06
4.85455e-06
6.26032e-06
6.25859e-06
6.25676e-06
6.25471e-06
6.25235e-06
6.24966e-06
6.24667e-06
6.24342e-06
6.23996e-06
6.23633e-06
6.23252e-06
6.2285e-06
6.22433e-06
6.22006e-06
6.21572e-06
6.21132e-06
6.20684e-06
6.2023e-06
6.19772e-06
6.19311e-06
6.18849e-06
6.18381e-06
6.17902e-06
6.17403e-06
6.16882e-06
6.16333e-06
6.15755e-06
6.15144e-06
6.14498e-06
6.13816e-06
6.13094e-06
6.12329e-06
6.11517e-06
6.10655e-06
6.0974e-06
6.08772e-06
6.07748e-06
6.06668e-06
6.05529e-06
6.04327e-06
6.03061e-06
6.01727e-06
6.00321e-06
5.9884e-06
5.97285e-06
5.95649e-06
5.93927e-06
5.92116e-06
5.90221e-06
5.88216e-06
5.86129e-06
5.8397e-06
5.81584e-06
5.78909e-06
5.75924e-06
5.72613e-06
5.68956e-06
5.64926e-06
5.60487e-06
5.55594e-06
5.50191e-06
5.44205e-06
5.37508e-06
5.29909e-06
5.21157e-06
5.10903e-06
4.98361e-06
4.8447e-06
4.68275e-06
6.23878e-06
6.23574e-06
6.23241e-06
6.22927e-06
6.22619e-06
6.22307e-06
6.21986e-06
6.2165e-06
6.21298e-06
6.20929e-06
6.20542e-06
6.20135e-06
6.19706e-06
6.19256e-06
6.18786e-06
6.18297e-06
6.17792e-06
6.1727e-06
6.16735e-06
6.16187e-06
6.1563e-06
6.15063e-06
6.14486e-06
6.13898e-06
6.13295e-06
6.12673e-06
6.12029e-06
6.11361e-06
6.10663e-06
6.09934e-06
6.0917e-06
6.08365e-06
6.07514e-06
6.06615e-06
6.05666e-06
6.04663e-06
6.03604e-06
6.02489e-06
6.01312e-06
6.00073e-06
5.9877e-06
5.974e-06
5.95963e-06
5.94461e-06
5.92899e-06
5.91266e-06
5.89545e-06
5.8777e-06
5.85961e-06
5.83991e-06
5.81796e-06
5.79346e-06
5.76624e-06
5.73614e-06
5.70299e-06
5.66658e-06
5.62661e-06
5.58268e-06
5.53432e-06
5.48089e-06
5.4215e-06
5.35494e-06
5.27938e-06
5.19223e-06
5.09043e-06
4.97035e-06
4.82546e-06
4.66453e-06
4.49172e-06
6.21569e-06
6.21304e-06
6.20899e-06
6.20501e-06
6.2011e-06
6.19722e-06
6.19334e-06
6.18943e-06
6.18545e-06
6.1814e-06
6.17724e-06
6.17297e-06
6.16855e-06
6.16395e-06
6.15916e-06
6.15416e-06
6.14894e-06
6.1435e-06
6.13786e-06
6.132e-06
6.12595e-06
6.11972e-06
6.1133e-06
6.10672e-06
6.09995e-06
6.09299e-06
6.08582e-06
6.07841e-06
6.07075e-06
6.0628e-06
6.05453e-06
6.04588e-06
6.03678e-06
6.02724e-06
6.01721e-06
6.00667e-06
5.9956e-06
5.98398e-06
5.97183e-06
5.95916e-06
5.94598e-06
5.93226e-06
5.91797e-06
5.90351e-06
5.88894e-06
5.87346e-06
5.85646e-06
5.8376e-06
5.81668e-06
5.79356e-06
5.76809e-06
5.74011e-06
5.70948e-06
5.67601e-06
5.63946e-06
5.5995e-06
5.5557e-06
5.5075e-06
5.45425e-06
5.39504e-06
5.32857e-06
5.2531e-06
5.1663e-06
5.06518e-06
4.94634e-06
4.80641e-06
4.6409e-06
4.45918e-06
4.29225e-06
6.18841e-06
6.18638e-06
6.18276e-06
6.1789e-06
6.17487e-06
6.17071e-06
6.16644e-06
6.16208e-06
6.15763e-06
6.1531e-06
6.14847e-06
6.14375e-06
6.13893e-06
6.13399e-06
6.12891e-06
6.12368e-06
6.11826e-06
6.11265e-06
6.10682e-06
6.10077e-06
6.0945e-06
6.08798e-06
6.08123e-06
6.07425e-06
6.06702e-06
6.05955e-06
6.05182e-06
6.04384e-06
6.03561e-06
6.02713e-06
6.01834e-06
6.00915e-06
5.99953e-06
5.98946e-06
5.97894e-06
5.96797e-06
5.95656e-06
5.94475e-06
5.93272e-06
5.92066e-06
5.90834e-06
5.89535e-06
5.88131e-06
5.86596e-06
5.84913e-06
5.83066e-06
5.8104e-06
5.78823e-06
5.76401e-06
5.73762e-06
5.70893e-06
5.67776e-06
5.6439e-06
5.60709e-06
5.56697e-06
5.52306e-06
5.47481e-06
5.42147e-06
5.3621e-06
5.2955e-06
5.21999e-06
5.13336e-06
5.03291e-06
4.91537e-06
4.77717e-06
4.61552e-06
4.42891e-06
4.23324e-06
4.10855e-06
6.15646e-06
6.15424e-06
6.15142e-06
6.14821e-06
6.14467e-06
6.14084e-06
6.13676e-06
6.13244e-06
6.12792e-06
6.1232e-06
6.11831e-06
6.11327e-06
6.10807e-06
6.10273e-06
6.09725e-06
6.09162e-06
6.08582e-06
6.07986e-06
6.0737e-06
6.06733e-06
6.06075e-06
6.05393e-06
6.04686e-06
6.03953e-06
6.03195e-06
6.02413e-06
6.01612e-06
6.00811e-06
6.00039e-06
5.9931e-06
5.98487e-06
5.97523e-06
5.96494e-06
5.95431e-06
5.94355e-06
5.93257e-06
5.92123e-06
5.90933e-06
5.8967e-06
5.8832e-06
5.86868e-06
5.85301e-06
5.83605e-06
5.81769e-06
5.7978e-06
5.77628e-06
5.75299e-06
5.72785e-06
5.7007e-06
5.67141e-06
5.63978e-06
5.60559e-06
5.56851e-06
5.52815e-06
5.48401e-06
5.4355e-06
5.38186e-06
5.32216e-06
5.25521e-06
5.1795e-06
5.093e-06
4.99307e-06
4.87655e-06
4.73997e-06
4.57991e-06
4.39524e-06
4.19107e-06
3.99877e-06
3.98627e-06
6.11866e-06
6.11676e-06
6.11453e-06
6.11193e-06
6.10899e-06
6.10571e-06
6.10209e-06
6.09816e-06
6.09393e-06
6.08941e-06
6.08463e-06
6.07958e-06
6.0743e-06
6.06879e-06
6.06307e-06
6.05713e-06
6.051e-06
6.04465e-06
6.03809e-06
6.03132e-06
6.02431e-06
6.01706e-06
6.00955e-06
6.00178e-06
5.99377e-06
5.98557e-06
5.97737e-06
5.96944e-06
5.96186e-06
5.95438e-06
5.94563e-06
5.93518e-06
5.92423e-06
5.91276e-06
5.90084e-06
5.88837e-06
5.87524e-06
5.86133e-06
5.84653e-06
5.83072e-06
5.81382e-06
5.79571e-06
5.77628e-06
5.75544e-06
5.73308e-06
5.70909e-06
5.68337e-06
5.65579e-06
5.62618e-06
5.59432e-06
5.55995e-06
5.52268e-06
5.48209e-06
5.43765e-06
5.38874e-06
5.33464e-06
5.27443e-06
5.20701e-06
5.13092e-06
5.04431e-06
4.94469e-06
4.82888e-06
4.69331e-06
4.53453e-06
4.3501e-06
4.1438e-06
3.93438e-06
3.78607e-06
4.02006e-06
6.07618e-06
6.07446e-06
6.07246e-06
6.07016e-06
6.06755e-06
6.06464e-06
6.0614e-06
6.05785e-06
6.05397e-06
6.04977e-06
6.04525e-06
6.04042e-06
6.03528e-06
6.02984e-06
6.02411e-06
6.0181e-06
6.01181e-06
6.00524e-06
5.9984e-06
5.99129e-06
5.98389e-06
5.97621e-06
5.96822e-06
5.95993e-06
5.95131e-06
5.94235e-06
5.93307e-06
5.92349e-06
5.91371e-06
5.90361e-06
5.89272e-06
5.88106e-06
5.86879e-06
5.8559e-06
5.84236e-06
5.82814e-06
5.81317e-06
5.79741e-06
5.78076e-06
5.76311e-06
5.74437e-06
5.72441e-06
5.70312e-06
5.68038e-06
5.65609e-06
5.63016e-06
5.60247e-06
5.57282e-06
5.54095e-06
5.5065e-06
5.46906e-06
5.42814e-06
5.38324e-06
5.33374e-06
5.27896e-06
5.21803e-06
5.1499e-06
5.0732e-06
4.98613e-06
4.88631e-06
4.7706e-06
4.63531e-06
4.4769e-06
4.29293e-06
4.08401e-06
3.86435e-06
3.68173e-06
3.66491e-06
4.41942e-06
6.03063e-06
6.02837e-06
6.02598e-06
6.02344e-06
6.0207e-06
6.01775e-06
6.01455e-06
6.01108e-06
6.00733e-06
6.00327e-06
5.99891e-06
5.99423e-06
5.98923e-06
5.98389e-06
5.97823e-06
5.97223e-06
5.9659e-06
5.95923e-06
5.95223e-06
5.94489e-06
5.9372e-06
5.92916e-06
5.92075e-06
5.91197e-06
5.9028e-06
5.89322e-06
5.88321e-06
5.87275e-06
5.86181e-06
5.85034e-06
5.83826e-06
5.82553e-06
5.81209e-06
5.7979e-06
5.78291e-06
5.76706e-06
5.75028e-06
5.73248e-06
5.71359e-06
5.69353e-06
5.67219e-06
5.64947e-06
5.62528e-06
5.59959e-06
5.57238e-06
5.54366e-06
5.51321e-06
5.48067e-06
5.44557e-06
5.40742e-06
5.36571e-06
5.31992e-06
5.26946e-06
5.21366e-06
5.1517e-06
5.08252e-06
5.00477e-06
4.91669e-06
4.81597e-06
4.69956e-06
4.56366e-06
4.40456e-06
4.21988e-06
4.00978e-06
3.78304e-06
3.57457e-06
3.49052e-06
3.7977e-06
5.66723e-06
5.9819e-06
5.97877e-06
5.9756e-06
5.97237e-06
5.96905e-06
5.96561e-06
5.962e-06
5.95821e-06
5.9542e-06
5.94995e-06
5.94543e-06
5.94063e-06
5.93552e-06
5.93009e-06
5.92433e-06
5.91822e-06
5.91176e-06
5.90493e-06
5.89773e-06
5.89013e-06
5.88214e-06
5.87373e-06
5.8649e-06
5.85563e-06
5.8459e-06
5.83568e-06
5.82495e-06
5.81369e-06
5.80186e-06
5.78939e-06
5.77621e-06
5.7623e-06
5.74759e-06
5.73203e-06
5.71556e-06
5.69811e-06
5.6796e-06
5.65996e-06
5.63907e-06
5.61684e-06
5.59316e-06
5.5679e-06
5.54092e-06
5.51212e-06
5.48139e-06
5.44871e-06
5.41401e-06
5.37698e-06
5.33707e-06
5.29374e-06
5.2464e-06
5.19443e-06
5.13714e-06
5.07367e-06
5.00296e-06
4.9236e-06
4.83379e-06
4.73124e-06
4.61302e-06
4.47552e-06
4.31474e-06
4.12839e-06
3.91673e-06
3.68616e-06
3.46332e-06
3.32412e-06
3.49296e-06
4.54201e-06
8.99662e-06
5.93049e-06
5.92626e-06
5.92202e-06
5.91777e-06
5.91349e-06
5.90915e-06
5.90472e-06
5.90018e-06
5.89548e-06
5.89061e-06
5.88553e-06
5.88021e-06
5.87463e-06
5.86876e-06
5.86259e-06
5.85608e-06
5.84921e-06
5.84198e-06
5.83435e-06
5.82632e-06
5.81785e-06
5.80893e-06
5.79953e-06
5.78964e-06
5.77922e-06
5.76826e-06
5.75671e-06
5.74455e-06
5.73172e-06
5.71815e-06
5.70379e-06
5.68858e-06
5.67248e-06
5.65543e-06
5.63735e-06
5.61817e-06
5.5978e-06
5.57615e-06
5.55311e-06
5.52856e-06
5.50239e-06
5.47442e-06
5.44451e-06
5.41246e-06
5.37805e-06
5.34107e-06
5.30126e-06
5.25834e-06
5.21204e-06
5.16199e-06
5.10756e-06
5.0479e-06
4.9821e-06
4.90905e-06
4.82726e-06
4.73478e-06
4.62929e-06
4.50798e-06
4.36752e-06
4.20409e-06
4.01497e-06
3.80141e-06
3.56886e-06
3.33865e-06
3.17184e-06
3.22408e-06
3.98147e-06
6.87999e-06
1.74866e-05
5.87563e-06
5.87033e-06
5.86499e-06
5.85961e-06
5.85421e-06
5.84876e-06
5.84324e-06
5.83764e-06
5.83193e-06
5.82609e-06
5.82007e-06
5.81386e-06
5.80743e-06
5.80075e-06
5.79379e-06
5.78652e-06
5.77892e-06
5.77095e-06
5.76259e-06
5.75381e-06
5.74458e-06
5.73488e-06
5.72467e-06
5.71393e-06
5.70261e-06
5.69068e-06
5.67811e-06
5.66486e-06
5.65084e-06
5.63599e-06
5.62027e-06
5.60361e-06
5.58595e-06
5.56723e-06
5.54736e-06
5.52625e-06
5.50381e-06
5.47992e-06
5.45448e-06
5.42732e-06
5.39831e-06
5.36726e-06
5.33397e-06
5.2982e-06
5.25968e-06
5.21809e-06
5.17306e-06
5.12413e-06
5.07079e-06
5.0124e-06
4.94827e-06
4.87767e-06
4.79997e-06
4.71388e-06
4.61712e-06
4.50705e-06
4.38096e-06
4.23583e-06
4.06843e-06
3.87591e-06
3.6598e-06
3.42653e-06
3.19452e-06
3.01427e-06
3.01213e-06
3.54185e-06
5.77153e-06
1.36946e-05
3.68976e-05
5.81453e-06
5.80844e-06
5.80222e-06
5.79591e-06
5.7895e-06
5.783e-06
5.7764e-06
5.7697e-06
5.76287e-06
5.7559e-06
5.74876e-06
5.74144e-06
5.73391e-06
5.72614e-06
5.71811e-06
5.70978e-06
5.70112e-06
5.6921e-06
5.68269e-06
5.67286e-06
5.66257e-06
5.65179e-06
5.64047e-06
5.62858e-06
5.61607e-06
5.60291e-06
5.58904e-06
5.57441e-06
5.55893e-06
5.54254e-06
5.52519e-06
5.50679e-06
5.48729e-06
5.46659e-06
5.4446e-06
5.42121e-06
5.3963e-06
5.36975e-06
5.34139e-06
5.31107e-06
5.27858e-06
5.2437e-06
5.20619e-06
5.16573e-06
5.12198e-06
5.07453e-06
5.02291e-06
4.96654e-06
4.90475e-06
4.83672e-06
4.76147e-06
4.6778e-06
4.58435e-06
4.47969e-06
4.36197e-06
4.22824e-06
4.07619e-06
3.9031e-06
3.7068e-06
3.48792e-06
3.25474e-06
3.02545e-06
2.84441e-06
2.81941e-06
3.23313e-06
4.99866e-06
1.14478e-05
3.15119e-05
6.94168e-05
5.74297e-06
5.73639e-06
5.7296e-06
5.72264e-06
5.7155e-06
5.7082e-06
5.70072e-06
5.69307e-06
5.68524e-06
5.67722e-06
5.669e-06
5.66055e-06
5.65187e-06
5.64291e-06
5.63368e-06
5.62412e-06
5.61422e-06
5.60394e-06
5.59326e-06
5.58212e-06
5.5705e-06
5.55835e-06
5.54562e-06
5.53228e-06
5.51828e-06
5.50355e-06
5.48804e-06
5.47167e-06
5.45436e-06
5.43605e-06
5.41666e-06
5.3961e-06
5.37428e-06
5.3511e-06
5.32643e-06
5.30014e-06
5.2721e-06
5.24212e-06
5.21003e-06
5.17561e-06
5.13861e-06
5.09875e-06
5.05571e-06
5.0091e-06
4.9585e-06
4.90337e-06
4.84311e-06
4.77701e-06
4.70419e-06
4.6236e-06
4.53396e-06
4.43368e-06
4.32084e-06
4.19325e-06
4.0487e-06
3.88532e-06
3.70412e-06
3.50316e-06
3.28253e-06
3.05059e-06
2.82752e-06
2.6571e-06
2.63721e-06
3.01649e-06
4.57207e-06
1.00964e-05
2.79426e-05
6.51104e-05
0.000106617
5.65631e-06
5.64938e-06
5.64219e-06
5.63475e-06
5.62708e-06
5.61917e-06
5.61102e-06
5.60262e-06
5.59397e-06
5.58505e-06
5.57586e-06
5.56639e-06
5.55661e-06
5.5465e-06
5.53605e-06
5.52524e-06
5.51402e-06
5.50237e-06
5.49025e-06
5.47763e-06
5.46446e-06
5.4507e-06
5.4363e-06
5.42121e-06
5.40537e-06
5.3887e-06
5.37115e-06
5.35262e-06
5.33302e-06
5.31227e-06
5.29028e-06
5.26694e-06
5.24213e-06
5.21573e-06
5.18759e-06
5.15754e-06
5.12539e-06
5.09095e-06
5.05396e-06
5.01417e-06
4.97125e-06
4.92486e-06
4.87458e-06
4.81993e-06
4.76037e-06
4.69522e-06
4.62372e-06
4.54492e-06
4.45768e-06
4.36058e-06
4.25191e-06
4.12971e-06
3.9918e-06
3.83619e-06
3.6622e-06
3.47004e-06
3.26235e-06
3.04001e-06
2.81293e-06
2.60134e-06
2.45328e-06
2.46637e-06
2.88576e-06
4.45542e-06
9.76605e-06
2.65078e-05
6.25694e-05
0.000105709
0.000132707
5.55007e-06
5.54267e-06
5.53498e-06
5.52703e-06
5.51879e-06
5.51027e-06
5.50146e-06
5.49233e-06
5.4829e-06
5.47313e-06
5.46301e-06
5.45254e-06
5.44169e-06
5.43043e-06
5.41875e-06
5.40662e-06
5.39401e-06
5.38087e-06
5.36719e-06
5.35291e-06
5.33798e-06
5.32236e-06
5.30599e-06
5.28881e-06
5.27074e-06
5.25172e-06
5.23165e-06
5.21043e-06
5.18796e-06
5.16414e-06
5.13886e-06
5.11198e-06
5.08335e-06
5.05282e-06
5.0202e-06
4.98527e-06
4.94782e-06
4.90757e-06
4.86423e-06
4.81746e-06
4.76687e-06
4.712e-06
4.65234e-06
4.58727e-06
4.51608e-06
4.4379e-06
4.35168e-06
4.25612e-06
4.14969e-06
4.03052e-06
3.89667e-06
3.7464e-06
3.57839e-06
3.39287e-06
3.19471e-06
2.98145e-06
2.75975e-06
2.54172e-06
2.35305e-06
2.24255e-06
2.32387e-06
2.86904e-06
4.70639e-06
1.06121e-05
2.80282e-05
6.37476e-05
0.000106953
0.000135668
0.000134957
5.41908e-06
5.41095e-06
5.40253e-06
5.39381e-06
5.38479e-06
5.37545e-06
5.36578e-06
5.35576e-06
5.34536e-06
5.33458e-06
5.32339e-06
5.31177e-06
5.2997e-06
5.28714e-06
5.27407e-06
5.26045e-06
5.24624e-06
5.23142e-06
5.21592e-06
5.19971e-06
5.18273e-06
5.16491e-06
5.14619e-06
5.12649e-06
5.10573e-06
5.08382e-06
5.06064e-06
5.03608e-06
5.01002e-06
4.98234e-06
4.95289e-06
4.92151e-06
4.88801e-06
4.8522e-06
4.81384e-06
4.77266e-06
4.72839e-06
4.68069e-06
4.62917e-06
4.57342e-06
4.51292e-06
4.4471e-06
4.37528e-06
4.29664e-06
4.21017e-06
4.11465e-06
4.00864e-06
3.89042e-06
3.75836e-06
3.61073e-06
3.4467e-06
3.26682e-06
3.07316e-06
2.86992e-06
2.65716e-06
2.44418e-06
2.24737e-06
2.09601e-06
2.0531e-06
2.24575e-06
3.04497e-06
5.5315e-06
1.31591e-05
3.34772e-05
7.02782e-05
0.00011231
0.000140753
0.000139768
0.000121409
5.2556e-06
5.24649e-06
5.23706e-06
5.22729e-06
5.21719e-06
5.20673e-06
5.19589e-06
5.18465e-06
5.17299e-06
5.16088e-06
5.14829e-06
5.1352e-06
5.12157e-06
5.10737e-06
5.09255e-06
5.07708e-06
5.06091e-06
5.04399e-06
5.02626e-06
5.00766e-06
4.98813e-06
4.96758e-06
4.94593e-06
4.92309e-06
4.89895e-06
4.87341e-06
4.84634e-06
4.81761e-06
4.78706e-06
4.75454e-06
4.71986e-06
4.68281e-06
4.64315e-06
4.60062e-06
4.55493e-06
4.50575e-06
4.45272e-06
4.39541e-06
4.33333e-06
4.26593e-06
4.19253e-06
4.11235e-06
4.02439e-06
3.9275e-06
3.82023e-06
3.70104e-06
3.56857e-06
3.42136e-06
3.25979e-06
3.08409e-06
2.89643e-06
2.70261e-06
2.50066e-06
2.29794e-06
2.1071e-06
1.94932e-06
1.8649e-06
1.92582e-06
2.33207e-06
3.60217e-06
7.41365e-06
1.85109e-05
4.41131e-05
8.29628e-05
0.000122556
0.000148036
0.000146174
0.000127493
0.000110355
5.04687e-06
5.03656e-06
5.02589e-06
5.01483e-06
5.00338e-06
4.99151e-06
4.97919e-06
4.96641e-06
4.95313e-06
4.93932e-06
4.92495e-06
4.90999e-06
4.89438e-06
4.87809e-06
4.86107e-06
4.84326e-06
4.82461e-06
4.80506e-06
4.78452e-06
4.76293e-06
4.74019e-06
4.71622e-06
4.6909e-06
4.66411e-06
4.63574e-06
4.60563e-06
4.57363e-06
4.53956e-06
4.50325e-06
4.46448e-06
4.42302e-06
4.3786e-06
4.33094e-06
4.27971e-06
4.22453e-06
4.16499e-06
4.1006e-06
4.03079e-06
3.95489e-06
3.87211e-06
3.78146e-06
3.68177e-06
3.57172e-06
3.45008e-06
3.31552e-06
3.1674e-06
3.00691e-06
2.83469e-06
2.65742e-06
2.47339e-06
2.28512e-06
2.09885e-06
1.92469e-06
1.7786e-06
1.69268e-06
1.71256e-06
1.96324e-06
2.73329e-06
4.92308e-06
1.13106e-05
2.82448e-05
6.04616e-05
0.00010081
0.000136659
0.000156279
0.000152788
0.000136605
0.000116454
0.000100859
4.77226e-06
4.76054e-06
4.74839e-06
4.73577e-06
4.72267e-06
4.70907e-06
4.69494e-06
4.68024e-06
4.66495e-06
4.64901e-06
4.6324e-06
4.61507e-06
4.59696e-06
4.57802e-06
4.55819e-06
4.53741e-06
4.51559e-06
4.49266e-06
4.46853e-06
4.4431e-06
4.41625e-06
4.38787e-06
4.35781e-06
4.32594e-06
4.29214e-06
4.25622e-06
4.21799e-06
4.17723e-06
4.13369e-06
4.08709e-06
4.03713e-06
3.98346e-06
3.9257e-06
3.86341e-06
3.7961e-06
3.72317e-06
3.64396e-06
3.55761e-06
3.46317e-06
3.35955e-06
3.24571e-06
3.12055e-06
2.9835e-06
2.83571e-06
2.67797e-06
2.51176e-06
2.34681e-06
2.17723e-06
2.0086e-06
1.84617e-06
1.6998e-06
1.58374e-06
1.5214e-06
1.5448e-06
1.75232e-06
2.32214e-06
3.78255e-06
7.74047e-06
1.85875e-05
4.30595e-05
8.04995e-05
0.000119988
0.000150395
0.000163663
0.00016046
0.000146303
0.000124994
0.000109306
9.63094e-05
4.39998e-06
4.38655e-06
4.3726e-06
4.3581e-06
4.34303e-06
4.32736e-06
4.31104e-06
4.29404e-06
4.27633e-06
4.25784e-06
4.23853e-06
4.21835e-06
4.19723e-06
4.1751e-06
4.15189e-06
4.12751e-06
4.10188e-06
4.07489e-06
4.04642e-06
4.01636e-06
3.98457e-06
3.95088e-06
3.91514e-06
3.87721e-06
3.83684e-06
3.7938e-06
3.74785e-06
3.69872e-06
3.64609e-06
3.58962e-06
3.52893e-06
3.46355e-06
3.39296e-06
3.31658e-06
3.23368e-06
3.14346e-06
3.04507e-06
2.9376e-06
2.82035e-06
2.69309e-06
2.55726e-06
2.41355e-06
2.26359e-06
2.11764e-06
1.96996e-06
1.82428e-06
1.68449e-06
1.55605e-06
1.44994e-06
1.37892e-06
1.35924e-06
1.42801e-06
1.65154e-06
2.16897e-06
3.32583e-06
6.07684e-06
1.3043e-05
2.97456e-05
6.03698e-05
9.87977e-05
0.000133752
0.000157215
0.000166363
0.000165574
0.000155163
0.000137681
0.000120712
0.000108352
9.78709e-05
3.88088e-06
3.86534e-06
3.84921e-06
3.83244e-06
3.81499e-06
3.79682e-06
3.7779e-06
3.75817e-06
3.73759e-06
3.7161e-06
3.69363e-06
3.67012e-06
3.64549e-06
3.61966e-06
3.59255e-06
3.56403e-06
3.53402e-06
3.50238e-06
3.46898e-06
3.43366e-06
3.39627e-06
3.35661e-06
3.31458e-06
3.26993e-06
3.22242e-06
3.17176e-06
3.11763e-06
3.05965e-06
2.99738e-06
2.93035e-06
2.858e-06
2.77974e-06
2.69494e-06
2.60301e-06
2.50335e-06
2.39555e-06
2.28028e-06
2.15872e-06
2.03205e-06
1.90297e-06
1.78164e-06
1.66135e-06
1.54561e-06
1.43672e-06
1.33983e-06
1.26302e-06
1.21381e-06
1.1959e-06
1.24255e-06
1.37884e-06
1.66197e-06
2.2086e-06
3.28103e-06
5.47453e-06
1.02088e-05
2.07016e-05
4.16586e-05
7.32805e-05
0.000107094
0.000134211
0.000151875
0.000161588
0.00016403
0.000158089
0.000145161
0.000130556
0.000120515
0.000112993
0.000105862
3.14928e-06
3.13186e-06
3.11379e-06
3.09502e-06
3.0755e-06
3.05521e-06
3.03409e-06
3.0121e-06
2.98917e-06
2.96525e-06
2.94028e-06
2.91417e-06
2.88685e-06
2.85823e-06
2.82821e-06
2.7967e-06
2.76356e-06
2.72868e-06
2.69191e-06
2.6531e-06
2.61208e-06
2.56863e-06
2.52244e-06
2.47319e-06
2.42056e-06
2.36419e-06
2.30372e-06
2.23879e-06
2.16903e-06
2.09412e-06
2.01385e-06
1.92815e-06
1.8372e-06
1.7417e-06
1.64283e-06
1.54238e-06
1.44757e-06
1.35852e-06
1.27419e-06
1.19629e-06
1.12954e-06
1.07744e-06
1.04342e-06
1.02627e-06
1.04263e-06
1.10984e-06
1.2383e-06
1.45438e-06
1.81261e-06
2.41888e-06
3.46916e-06
5.34671e-06
8.80289e-06
1.5174e-05
2.66932e-05
4.59716e-05
7.15818e-05
9.64168e-05
0.000117306
0.000134349
0.000146475
0.000152598
0.000151575
0.000143556
0.000131264
0.000126937
0.00012315
0.000119724
0.000114926
2.15414e-06
2.13695e-06
2.1192e-06
2.10081e-06
2.08178e-06
2.06204e-06
2.04158e-06
2.02035e-06
1.9983e-06
1.97538e-06
1.95154e-06
1.92672e-06
1.90087e-06
1.8739e-06
1.84575e-06
1.81633e-06
1.78556e-06
1.75333e-06
1.71956e-06
1.68414e-06
1.64651e-06
1.60647e-06
1.56385e-06
1.51857e-06
1.4706e-06
1.41997e-06
1.36679e-06
1.3113e-06
1.25385e-06
1.19498e-06
1.13544e-06
1.07616e-06
1.01839e-06
9.65908e-07
9.23407e-07
8.88189e-07
8.57359e-07
8.37617e-07
8.30584e-07
8.39594e-07
8.80373e-07
9.4833e-07
1.05033e-06
1.19339e-06
1.39074e-06
1.66471e-06
2.0548e-06
2.6323e-06
3.53966e-06
5.03803e-06
7.45083e-06
1.09674e-05
1.59329e-05
2.27554e-05
3.18009e-05
4.50727e-05
6.38456e-05
8.43406e-05
0.00010276
0.000117333
0.00012697
0.000130784
0.00012795
0.000119522
0.000118386
0.00012214
0.00012285
0.000121603
0.000117069
1.02879e-06
1.01837e-06
1.00767e-06
9.96695e-07
9.85437e-07
9.7388e-07
9.62008e-07
9.49798e-07
9.37232e-07
9.24286e-07
9.10937e-07
8.97161e-07
8.82931e-07
8.68221e-07
8.53012e-07
8.37293e-07
8.21055e-07
8.04288e-07
7.86977e-07
7.6917e-07
7.51232e-07
7.33359e-07
7.15776e-07
6.9872e-07
6.82469e-07
6.67351e-07
6.53744e-07
6.4209e-07
6.32905e-07
6.26957e-07
6.24956e-07
6.27671e-07
6.36182e-07
6.63143e-07
7.01431e-07
7.53465e-07
8.18309e-07
8.96939e-07
9.90393e-07
1.09997e-06
1.2274e-06
1.37272e-06
1.53695e-06
1.72658e-06
1.96502e-06
2.31076e-06
2.84676e-06
3.57733e-06
4.58281e-06
6.14026e-06
7.51178e-06
7.04211e-06
6.17064e-06
6.48818e-06
9.91453e-06
1.77953e-05
3.27256e-05
5.11636e-05
6.66694e-05
7.77252e-05
8.3292e-05
8.38392e-05
8.50748e-05
8.6297e-05
9.42696e-05
0.000104284
0.000107589
0.000106502
0.000100769
3.38169e-07
3.44698e-07
3.51388e-07
3.5813e-07
3.64886e-07
3.71638e-07
3.78379e-07
3.85102e-07
3.91804e-07
3.98485e-07
4.05147e-07
4.11795e-07
4.18439e-07
4.25105e-07
4.32068e-07
4.39838e-07
4.48675e-07
4.58748e-07
4.70236e-07
4.83298e-07
4.98099e-07
5.14813e-07
5.3363e-07
5.54749e-07
5.78372e-07
6.04687e-07
6.33853e-07
6.65962e-07
7.00999e-07
7.38782e-07
7.78884e-07
8.20545e-07
8.62588e-07
9.03487e-07
9.4083e-07
9.71931e-07
9.93879e-07
1.0042e-06
1.00201e-06
9.8913e-07
9.66934e-07
9.29384e-07
8.92704e-07
8.75152e-07
9.18051e-07
1.12291e-06
1.43452e-06
1.27634e-06
8.98649e-07
6.18371e-07
6.39352e-07
5.68719e-07
4.85774e-07
6.0709e-07
1.07014e-06
2.14638e-06
4.34274e-06
8.04531e-06
1.29739e-05
1.84304e-05
2.32154e-05
2.68215e-05
3.02271e-05
3.36008e-05
3.83152e-05
4.24781e-05
4.32545e-05
4.04192e-05
3.40158e-05
2.87308e-07
2.96044e-07
3.0492e-07
3.13918e-07
3.23001e-07
3.32128e-07
3.4126e-07
3.50356e-07
3.59374e-07
3.68265e-07
3.76978e-07
3.85452e-07
3.9362e-07
4.01385e-07
4.08359e-07
4.14003e-07
4.18108e-07
4.20614e-07
4.21463e-07
4.20594e-07
4.17931e-07
4.13376e-07
4.06808e-07
3.98086e-07
3.87058e-07
3.73566e-07
3.57464e-07
3.38635e-07
3.1702e-07
2.92649e-07
2.65676e-07
2.36419e-07
2.05399e-07
1.73365e-07
1.41296e-07
1.10378e-07
8.19369e-08
5.73411e-08
3.77843e-08
2.37231e-08
1.50342e-08
1.06317e-08
8.98708e-09
8.21973e-09
8.22357e-09
1.71273e-08
4.42746e-08
4.77443e-08
3.6741e-08
2.8222e-08
2.46235e-08
2.13732e-08
1.88602e-08
2.43998e-08
3.88288e-08
6.18527e-08
9.02899e-08
1.10409e-07
1.05824e-07
1.1046e-07
1.62286e-07
2.28699e-07
2.96889e-07
3.61282e-07
4.37465e-07
4.8818e-07
4.76789e-07
3.95547e-07
2.58402e-07
6.2001e-06
6.20179e-06
6.20012e-06
6.20192e-06
6.20339e-06
6.20353e-06
6.20546e-06
6.21201e-06
6.21647e-06
6.21651e-06
6.21751e-06
6.21898e-06
6.21714e-06
6.22126e-06
6.22835e-06
6.23202e-06
6.22757e-06
6.22988e-06
6.23839e-06
6.25136e-06
6.25669e-06
6.24466e-06
6.2335e-06
6.23162e-06
6.22756e-06
6.22887e-06
6.24455e-06
6.25689e-06
6.25678e-06
6.25752e-06
6.28249e-06
6.28405e-06
6.2935e-06
6.28501e-06
6.28081e-06
6.28187e-06
6.28206e-06
6.2865e-06
6.29649e-06
6.2988e-06
6.30079e-06
6.3087e-06
6.31176e-06
6.31317e-06
6.3095e-06
6.31185e-06
6.31901e-06
6.33266e-06
6.33571e-06
6.33369e-06
6.33068e-06
6.33049e-06
6.33572e-06
6.33915e-06
6.34236e-06
6.34446e-06
6.34452e-06
6.34292e-06
6.34081e-06
6.18004e-06
6.18164e-06
6.1828e-06
6.18513e-06
6.18701e-06
6.18909e-06
6.19238e-06
6.19651e-06
6.19866e-06
6.20011e-06
6.2019e-06
6.20303e-06
6.20478e-06
6.21026e-06
6.21543e-06
6.21596e-06
6.21428e-06
6.21878e-06
6.22882e-06
6.23998e-06
6.24177e-06
6.23053e-06
6.22123e-06
6.21972e-06
6.21606e-06
6.21805e-06
6.23281e-06
6.24483e-06
6.24585e-06
6.24627e-06
6.26782e-06
6.27826e-06
6.28564e-06
6.28361e-06
6.27822e-06
6.27542e-06
6.27518e-06
6.27886e-06
6.28445e-06
6.28816e-06
6.28751e-06
6.29137e-06
6.29559e-06
6.29849e-06
6.29789e-06
6.29679e-06
6.29826e-06
6.30905e-06
6.31828e-06
6.3215e-06
6.31791e-06
6.31459e-06
6.31368e-06
6.31365e-06
6.31424e-06
6.31505e-06
6.31556e-06
6.31536e-06
6.31431e-06
6.15877e-06
6.16092e-06
6.16329e-06
6.16605e-06
6.169e-06
6.17231e-06
6.17584e-06
6.1789e-06
6.18125e-06
6.18371e-06
6.18603e-06
6.18829e-06
6.192e-06
6.19694e-06
6.19985e-06
6.19965e-06
6.20073e-06
6.20737e-06
6.21818e-06
6.22699e-06
6.22583e-06
6.21553e-06
6.20828e-06
6.20695e-06
6.20373e-06
6.20626e-06
6.22008e-06
6.23182e-06
6.23383e-06
6.23433e-06
6.25233e-06
6.27061e-06
6.27646e-06
6.28074e-06
6.27768e-06
6.27214e-06
6.26824e-06
6.27031e-06
6.27276e-06
6.27591e-06
6.27431e-06
6.27485e-06
6.2778e-06
6.28099e-06
6.28259e-06
6.2821e-06
6.28147e-06
6.285e-06
6.29431e-06
6.302e-06
6.30481e-06
6.3029e-06
6.29828e-06
6.29486e-06
6.29238e-06
6.2906e-06
6.2893e-06
6.28813e-06
6.28689e-06
6.13659e-06
6.13956e-06
6.14294e-06
6.1465e-06
6.15026e-06
6.15405e-06
6.15764e-06
6.16088e-06
6.16398e-06
6.16706e-06
6.16996e-06
6.17316e-06
6.17718e-06
6.18082e-06
6.18243e-06
6.18315e-06
6.18684e-06
6.19528e-06
6.20584e-06
6.21198e-06
6.20872e-06
6.19966e-06
6.19429e-06
6.19304e-06
6.19029e-06
6.19324e-06
6.20618e-06
6.2176e-06
6.2205e-06
6.22126e-06
6.23608e-06
6.2548e-06
6.26162e-06
6.27058e-06
6.27183e-06
6.26573e-06
6.25854e-06
6.25693e-06
6.25697e-06
6.25832e-06
6.25742e-06
6.25702e-06
6.25864e-06
6.26129e-06
6.2637e-06
6.26462e-06
6.26427e-06
6.26466e-06
6.26806e-06
6.27306e-06
6.2785e-06
6.28107e-06
6.27985e-06
6.27622e-06
6.27275e-06
6.26956e-06
6.26669e-06
6.26406e-06
6.26169e-06
6.11425e-06
6.11811e-06
6.12233e-06
6.12656e-06
6.1308e-06
6.13492e-06
6.13883e-06
6.14254e-06
6.14611e-06
6.14947e-06
6.15269e-06
6.15612e-06
6.15963e-06
6.16228e-06
6.16388e-06
6.16638e-06
6.17239e-06
6.18192e-06
6.19129e-06
6.19482e-06
6.19036e-06
6.18281e-06
6.17898e-06
6.1778e-06
6.17551e-06
6.17879e-06
6.19089e-06
6.20195e-06
6.20565e-06
6.20677e-06
6.21885e-06
6.23593e-06
6.2442e-06
6.25187e-06
6.25544e-06
6.25206e-06
6.24605e-06
6.24244e-06
6.24014e-06
6.23914e-06
6.23804e-06
6.23726e-06
6.23778e-06
6.23954e-06
6.24182e-06
6.24356e-06
6.24417e-06
6.24417e-06
6.24488e-06
6.24671e-06
6.24933e-06
6.2514e-06
6.25192e-06
6.25088e-06
6.2489e-06
6.24639e-06
6.24361e-06
6.24066e-06
6.23783e-06
6.09205e-06
6.09659e-06
6.10136e-06
6.10602e-06
6.11056e-06
6.11493e-06
6.11908e-06
6.12299e-06
6.12662e-06
6.12997e-06
6.1332e-06
6.13645e-06
6.13947e-06
6.14194e-06
6.14455e-06
6.14912e-06
6.15691e-06
6.16661e-06
6.1742e-06
6.17551e-06
6.17068e-06
6.16472e-06
6.16212e-06
6.16101e-06
6.15917e-06
6.1627e-06
6.17402e-06
6.18467e-06
6.18907e-06
6.19062e-06
6.2004e-06
6.21566e-06
6.2249e-06
6.23172e-06
6.23558e-06
6.23456e-06
6.23054e-06
6.22678e-06
6.22341e-06
6.22063e-06
6.21831e-06
6.21651e-06
6.2157e-06
6.21612e-06
6.21752e-06
6.21919e-06
6.22038e-06
6.22086e-06
6.22104e-06
6.22145e-06
6.22225e-06
6.22307e-06
6.22341e-06
6.22302e-06
6.22191e-06
6.22019e-06
6.21802e-06
6.21548e-06
6.21342e-06
6.06951e-06
6.07437e-06
6.07939e-06
6.0842e-06
6.08882e-06
6.09321e-06
6.09731e-06
6.10109e-06
6.10455e-06
6.10778e-06
6.11094e-06
6.11409e-06
6.11713e-06
6.12028e-06
6.12448e-06
6.13095e-06
6.13976e-06
6.14878e-06
6.15435e-06
6.15406e-06
6.1495e-06
6.14511e-06
6.14345e-06
6.14243e-06
6.14103e-06
6.14474e-06
6.15531e-06
6.16552e-06
6.17051e-06
6.17252e-06
6.18047e-06
6.19382e-06
6.20354e-06
6.21009e-06
6.21392e-06
6.21419e-06
6.2118e-06
6.20873e-06
6.20535e-06
6.2018e-06
6.1984e-06
6.19538e-06
6.19307e-06
6.19182e-06
6.19169e-06
6.19237e-06
6.19327e-06
6.19391e-06
6.19417e-06
6.19422e-06
6.19425e-06
6.19424e-06
6.19405e-06
6.19353e-06
6.19259e-06
6.19123e-06
6.18948e-06
6.18733e-06
6.18521e-06
6.04542e-06
6.05027e-06
6.05522e-06
6.05993e-06
6.06439e-06
6.06857e-06
6.07244e-06
6.07601e-06
6.07935e-06
6.0826e-06
6.08591e-06
6.08935e-06
6.09305e-06
6.09745e-06
6.10334e-06
6.11118e-06
6.12018e-06
6.12792e-06
6.13163e-06
6.13041e-06
6.12657e-06
6.12361e-06
6.12267e-06
6.12177e-06
6.1208e-06
6.12463e-06
6.13449e-06
6.14423e-06
6.14969e-06
6.15218e-06
6.15869e-06
6.17016e-06
6.17991e-06
6.18649e-06