/*--------------------------------*- C++ -*----------------------------------*\
| =========                 |                                                 |
| \\      /  F ield         | OpenFOAM: The Open Source CFD Toolbox           |
|  \\    /   O peration     | Version:  2312                                  |
|   \\  /    A nd           | Website:  www.openfoam.com                      |
|    \\/     M anipulation  |                                                 |
\*---------------------------------------------------------------------------*/
FoamFile
{
    version     2.0;
    format      ascii;
    arch        "LSB;label=32;scalar=64";
    class       volScalarField;
    location    "900";
    object      nuTilda;
}
// * * * * * * * * * * * * * * * * * * * * * * * * * * * * * * * * * * * * * //

dimensions      [0 2 -1 0 0 0 0];

internalField   nonuniform List<scalar> 
76025
(
4.04982e-05
4.04932e-05
4.04871e-05
4.04817e-05
4.04796e-05
4.04788e-05
4.04788e-05
4.04777e-05
4.0475e-05
4.04731e-05
4.04728e-05
4.04733e-05
4.04732e-05
4.04716e-05
4.04694e-05
4.04666e-05
4.04639e-05
4.04605e-05
4.04555e-05
4.04482e-05
4.04382e-05
4.04315e-05
4.04263e-05
4.04223e-05
4.04186e-05
4.04159e-05
4.0413e-05
4.04094e-05
4.04074e-05
4.04055e-05
4.04046e-05
4.04023e-05
4.04012e-05
4.03982e-05
4.03939e-05
4.03861e-05
4.03764e-05
4.0365e-05
4.03491e-05
4.03282e-05
4.03034e-05
4.02758e-05
4.02446e-05
4.02095e-05
4.01706e-05
4.01303e-05
4.00885e-05
4.00446e-05
3.99992e-05
3.99538e-05
3.99075e-05
3.98597e-05
3.9811e-05
3.97622e-05
3.9709e-05
3.96558e-05
3.95989e-05
3.95357e-05
3.94652e-05
3.93863e-05
3.92969e-05
3.92003e-05
3.90984e-05
3.89846e-05
3.88593e-05
3.87117e-05
3.8546e-05
3.83777e-05
3.81603e-05
4.04515e-05
4.04487e-05
4.04445e-05
4.0439e-05
4.04334e-05
4.04282e-05
4.04239e-05
4.042e-05
4.04161e-05
4.04118e-05
4.04075e-05
4.04037e-05
4.04005e-05
4.03973e-05
4.03936e-05
4.03896e-05
4.03853e-05
4.0381e-05
4.03765e-05
4.03716e-05
4.03655e-05
4.03589e-05
4.03517e-05
4.03445e-05
4.03371e-05
4.03294e-05
4.03217e-05
4.03131e-05
4.03039e-05
4.02939e-05
4.02834e-05
4.02725e-05
4.02621e-05
4.02517e-05
4.0237e-05
4.02188e-05
4.01988e-05
4.01776e-05
4.01548e-05
4.01307e-05
4.01051e-05
4.00782e-05
4.00502e-05
4.00212e-05
3.99911e-05
3.99599e-05
3.99276e-05
3.98941e-05
3.98593e-05
3.98229e-05
3.97848e-05
3.97446e-05
3.97016e-05
3.9655e-05
3.96053e-05
3.95542e-05
3.94968e-05
3.94317e-05
3.93582e-05
3.92758e-05
3.91843e-05
3.90831e-05
3.89713e-05
3.88471e-05
3.87041e-05
3.85489e-05
3.83623e-05
3.81537e-05
3.79029e-05
4.04021e-05
4.04002e-05
4.03974e-05
4.03934e-05
4.03885e-05
4.0383e-05
4.03772e-05
4.03713e-05
4.03654e-05
4.03594e-05
4.03531e-05
4.03467e-05
4.03405e-05
4.03345e-05
4.03285e-05
4.03224e-05
4.03162e-05
4.03099e-05
4.03036e-05
4.02973e-05
4.02909e-05
4.0284e-05
4.02765e-05
4.02684e-05
4.02597e-05
4.02504e-05
4.02405e-05
4.02299e-05
4.02186e-05
4.02065e-05
4.01937e-05
4.018e-05
4.01655e-05
4.015e-05
4.01335e-05
4.0116e-05
4.00973e-05
4.00775e-05
4.00565e-05
4.00344e-05
4.00111e-05
3.99866e-05
3.99608e-05
3.99337e-05
3.99053e-05
3.98754e-05
3.98438e-05
3.98105e-05
3.97755e-05
3.97383e-05
3.9699e-05
3.96573e-05
3.96123e-05
3.95632e-05
3.95116e-05
3.94553e-05
3.93919e-05
3.93209e-05
3.92415e-05
3.91533e-05
3.90555e-05
3.89471e-05
3.88265e-05
3.8691e-05
3.85369e-05
3.83575e-05
3.81366e-05
3.78895e-05
3.75835e-05
4.03548e-05
4.03517e-05
4.03484e-05
4.03446e-05
4.03403e-05
4.03354e-05
4.03299e-05
4.0324e-05
4.03177e-05
4.0311e-05
4.03041e-05
4.02967e-05
4.02891e-05
4.02813e-05
4.02733e-05
4.02653e-05
4.02571e-05
4.02487e-05
4.02403e-05
4.02319e-05
4.02234e-05
4.02148e-05
4.0206e-05
4.01968e-05
4.01872e-05
4.01771e-05
4.01664e-05
4.01552e-05
4.01433e-05
4.01307e-05
4.01173e-05
4.01032e-05
4.00882e-05
4.00722e-05
4.00553e-05
4.00373e-05
4.00183e-05
3.99982e-05
3.9977e-05
3.99546e-05
3.9931e-05
3.99061e-05
3.98798e-05
3.98521e-05
3.98229e-05
3.97921e-05
3.97597e-05
3.97255e-05
3.96897e-05
3.96517e-05
3.96121e-05
3.9571e-05
3.95255e-05
3.94744e-05
3.94171e-05
3.93533e-05
3.92827e-05
3.92045e-05
3.91179e-05
3.9022e-05
3.89155e-05
3.87966e-05
3.86627e-05
3.85095e-05
3.83312e-05
3.81199e-05
3.78578e-05
3.75624e-05
3.7211e-05
4.03155e-05
4.031e-05
4.03039e-05
4.02981e-05
4.02925e-05
4.02868e-05
4.02809e-05
4.02748e-05
4.02683e-05
4.02615e-05
4.02544e-05
4.0247e-05
4.02391e-05
4.02309e-05
4.02222e-05
4.02132e-05
4.02039e-05
4.01943e-05
4.01845e-05
4.01744e-05
4.01641e-05
4.01537e-05
4.01431e-05
4.01322e-05
4.01211e-05
4.01096e-05
4.00977e-05
4.00853e-05
4.00724e-05
4.00589e-05
4.00447e-05
4.00298e-05
4.0014e-05
3.99973e-05
3.99796e-05
3.99609e-05
3.99412e-05
3.99203e-05
3.98983e-05
3.98752e-05
3.98507e-05
3.9825e-05
3.9798e-05
3.97698e-05
3.97403e-05
3.97095e-05
3.96769e-05
3.96433e-05
3.96089e-05
3.95714e-05
3.95296e-05
3.94827e-05
3.94305e-05
3.93726e-05
3.93087e-05
3.92381e-05
3.91604e-05
3.90745e-05
3.89794e-05
3.88738e-05
3.87557e-05
3.86222e-05
3.84695e-05
3.82916e-05
3.80813e-05
3.78298e-05
3.7521e-05
3.7171e-05
3.67863e-05
4.02733e-05
4.02684e-05
4.0261e-05
4.02537e-05
4.02465e-05
4.02394e-05
4.02323e-05
4.02251e-05
4.02178e-05
4.02103e-05
4.02027e-05
4.01948e-05
4.01867e-05
4.01782e-05
4.01694e-05
4.01602e-05
4.01506e-05
4.01406e-05
4.01301e-05
4.01193e-05
4.01081e-05
4.00966e-05
4.00847e-05
4.00725e-05
4.006e-05
4.00471e-05
4.00338e-05
4.002e-05
4.00058e-05
3.9991e-05
3.99756e-05
3.99595e-05
3.99425e-05
3.99247e-05
3.9906e-05
3.98863e-05
3.98655e-05
3.98438e-05
3.9821e-05
3.97971e-05
3.97723e-05
3.97465e-05
3.97195e-05
3.96922e-05
3.96646e-05
3.96352e-05
3.96029e-05
3.9567e-05
3.95271e-05
3.94829e-05
3.94341e-05
3.93803e-05
3.93212e-05
3.92564e-05
3.91854e-05
3.91074e-05
3.90215e-05
3.89265e-05
3.88209e-05
3.87027e-05
3.85691e-05
3.8416e-05
3.82383e-05
3.80287e-05
3.7779e-05
3.748e-05
3.71189e-05
3.67128e-05
3.633e-05
4.02232e-05
4.02195e-05
4.02128e-05
4.02057e-05
4.01983e-05
4.01907e-05
4.01828e-05
4.01748e-05
4.01666e-05
4.01582e-05
4.01497e-05
4.0141e-05
4.01321e-05
4.0123e-05
4.01136e-05
4.01039e-05
4.00939e-05
4.00835e-05
4.00727e-05
4.00615e-05
4.00499e-05
4.00378e-05
4.00253e-05
4.00123e-05
3.99989e-05
3.9985e-05
3.99706e-05
3.99557e-05
3.99403e-05
3.99245e-05
3.99081e-05
3.98909e-05
3.98729e-05
3.9854e-05
3.98343e-05
3.98137e-05
3.97922e-05
3.977e-05
3.97473e-05
3.97246e-05
3.97013e-05
3.96767e-05
3.96501e-05
3.9621e-05
3.9589e-05
3.95538e-05
3.95151e-05
3.94727e-05
3.94263e-05
3.93755e-05
3.93201e-05
3.92598e-05
3.9194e-05
3.91223e-05
3.90436e-05
3.89572e-05
3.88618e-05
3.87556e-05
3.86366e-05
3.85022e-05
3.83484e-05
3.81703e-05
3.79613e-05
3.77133e-05
3.74168e-05
3.70629e-05
3.66441e-05
3.61924e-05
3.58974e-05
4.01645e-05
4.01603e-05
4.01552e-05
4.01492e-05
4.01427e-05
4.01356e-05
4.01281e-05
4.01201e-05
4.01118e-05
4.0103e-05
4.0094e-05
4.00847e-05
4.0075e-05
4.00652e-05
4.0055e-05
4.00446e-05
4.00338e-05
4.00227e-05
4.00113e-05
3.99994e-05
3.99872e-05
3.99745e-05
3.99613e-05
3.99477e-05
3.99335e-05
3.99189e-05
3.9904e-05
3.9889e-05
3.98745e-05
3.98609e-05
3.98454e-05
3.98273e-05
3.9808e-05
3.9788e-05
3.97678e-05
3.97471e-05
3.97257e-05
3.97032e-05
3.96793e-05
3.96537e-05
3.96262e-05
3.95964e-05
3.95641e-05
3.95291e-05
3.9491e-05
3.94498e-05
3.94051e-05
3.93567e-05
3.93042e-05
3.92475e-05
3.9186e-05
3.91193e-05
3.90467e-05
3.89673e-05
3.888e-05
3.87836e-05
3.86763e-05
3.85561e-05
3.84203e-05
3.82654e-05
3.80867e-05
3.78777e-05
3.76306e-05
3.73361e-05
3.69838e-05
3.65673e-05
3.60933e-05
3.56327e-05
3.56023e-05
4.00946e-05
4.00911e-05
4.0087e-05
4.00822e-05
4.00768e-05
4.00707e-05
4.0064e-05
4.00567e-05
4.00488e-05
4.00405e-05
4.00316e-05
4.00222e-05
4.00124e-05
4.00022e-05
3.99915e-05
3.99805e-05
3.9969e-05
3.99572e-05
3.9945e-05
3.99323e-05
3.99193e-05
3.99057e-05
3.98917e-05
3.98771e-05
3.98621e-05
3.98467e-05
3.98314e-05
3.98165e-05
3.98022e-05
3.97882e-05
3.97717e-05
3.9752e-05
3.97313e-05
3.97097e-05
3.96871e-05
3.96635e-05
3.96386e-05
3.96122e-05
3.9584e-05
3.95539e-05
3.95217e-05
3.9487e-05
3.94498e-05
3.94098e-05
3.93667e-05
3.93205e-05
3.92707e-05
3.92172e-05
3.91595e-05
3.90973e-05
3.90299e-05
3.89565e-05
3.88762e-05
3.87879e-05
3.86901e-05
3.85813e-05
3.84594e-05
3.83219e-05
3.81653e-05
3.79852e-05
3.77755e-05
3.75284e-05
3.72342e-05
3.68825e-05
3.64638e-05
3.59814e-05
3.54753e-05
3.5106e-05
3.56844e-05
4.00159e-05
4.00127e-05
4.0009e-05
4.00047e-05
3.99999e-05
3.99944e-05
3.99884e-05
3.99818e-05
3.99746e-05
3.99667e-05
3.99583e-05
3.99493e-05
3.99397e-05
3.99296e-05
3.99189e-05
3.99076e-05
3.98959e-05
3.98836e-05
3.98708e-05
3.98575e-05
3.98436e-05
3.98292e-05
3.98142e-05
3.97986e-05
3.97824e-05
3.97655e-05
3.9748e-05
3.97299e-05
3.97114e-05
3.96924e-05
3.96717e-05
3.96496e-05
3.96264e-05
3.96019e-05
3.95761e-05
3.9549e-05
3.95204e-05
3.94903e-05
3.94584e-05
3.94245e-05
3.93885e-05
3.935e-05
3.93089e-05
3.92649e-05
3.92177e-05
3.91673e-05
3.91132e-05
3.90551e-05
3.89925e-05
3.89245e-05
3.88503e-05
3.87689e-05
3.86791e-05
3.85795e-05
3.84686e-05
3.83444e-05
3.82045e-05
3.80455e-05
3.78631e-05
3.76514e-05
3.74026e-05
3.71066e-05
3.67529e-05
3.63316e-05
3.58386e-05
3.53021e-05
3.48404e-05
3.47971e-05
3.66225e-05
3.99311e-05
3.99268e-05
3.99224e-05
3.99176e-05
3.99125e-05
3.9907e-05
3.9901e-05
3.98945e-05
3.98875e-05
3.98799e-05
3.98718e-05
3.9863e-05
3.98536e-05
3.98436e-05
3.9833e-05
3.98217e-05
3.98098e-05
3.97973e-05
3.97841e-05
3.97703e-05
3.97558e-05
3.97406e-05
3.97248e-05
3.97082e-05
3.96908e-05
3.96727e-05
3.96537e-05
3.96339e-05
3.96131e-05
3.95913e-05
3.95683e-05
3.9544e-05
3.95184e-05
3.94912e-05
3.94625e-05
3.94321e-05
3.93999e-05
3.93656e-05
3.93292e-05
3.92904e-05
3.9249e-05
3.92049e-05
3.91578e-05
3.91076e-05
3.90543e-05
3.89978e-05
3.89378e-05
3.88734e-05
3.88036e-05
3.87275e-05
3.86439e-05
3.85516e-05
3.84493e-05
3.83355e-05
3.82082e-05
3.80649e-05
3.79023e-05
3.77161e-05
3.75006e-05
3.72478e-05
3.69476e-05
3.65886e-05
3.61611e-05
3.56595e-05
3.50983e-05
3.45623e-05
3.43403e-05
3.51353e-05
3.92394e-05
3.98399e-05
3.9834e-05
3.9828e-05
3.9822e-05
3.98157e-05
3.98093e-05
3.98025e-05
3.97954e-05
3.97878e-05
3.97798e-05
3.97713e-05
3.97623e-05
3.97526e-05
3.97424e-05
3.97315e-05
3.972e-05
3.97078e-05
3.96949e-05
3.96812e-05
3.96668e-05
3.96517e-05
3.96357e-05
3.9619e-05
3.96013e-05
3.95828e-05
3.95634e-05
3.95429e-05
3.95214e-05
3.94988e-05
3.94749e-05
3.94497e-05
3.9423e-05
3.93947e-05
3.93647e-05
3.9333e-05
3.92992e-05
3.92634e-05
3.92253e-05
3.91846e-05
3.91413e-05
3.9095e-05
3.90455e-05
3.89924e-05
3.89356e-05
3.88748e-05
3.88099e-05
3.87407e-05
3.86665e-05
3.85862e-05
3.84986e-05
3.84024e-05
3.82961e-05
3.81781e-05
3.80464e-05
3.78985e-05
3.77308e-05
3.7539e-05
3.7317e-05
3.70573e-05
3.67497e-05
3.63822e-05
3.59447e-05
3.54318e-05
3.48518e-05
3.42677e-05
3.389e-05
3.43468e-05
3.68992e-05
4.48023e-05
3.97431e-05
3.97352e-05
3.97272e-05
3.97191e-05
3.9711e-05
3.97028e-05
3.96945e-05
3.96859e-05
3.9677e-05
3.96677e-05
3.96581e-05
3.9648e-05
3.96374e-05
3.96263e-05
3.96146e-05
3.96022e-05
3.95891e-05
3.95754e-05
3.95608e-05
3.95455e-05
3.95294e-05
3.95123e-05
3.94943e-05
3.94754e-05
3.94555e-05
3.94344e-05
3.94122e-05
3.93888e-05
3.93641e-05
3.9338e-05
3.93102e-05
3.92808e-05
3.92496e-05
3.92165e-05
3.91813e-05
3.91439e-05
3.91041e-05
3.90617e-05
3.90164e-05
3.89681e-05
3.89164e-05
3.8861e-05
3.88015e-05
3.87376e-05
3.86687e-05
3.85943e-05
3.85139e-05
3.84267e-05
3.83322e-05
3.82294e-05
3.81169e-05
3.79927e-05
3.78546e-05
3.76999e-05
3.75249e-05
3.73247e-05
3.70933e-05
3.68229e-05
3.65038e-05
3.61239e-05
3.56721e-05
3.51446e-05
3.45474e-05
3.39299e-05
3.34644e-05
3.36119e-05
3.55906e-05
4.1452e-05
5.50342e-05
3.96393e-05
3.96293e-05
3.96191e-05
3.96089e-05
3.95986e-05
3.95883e-05
3.95778e-05
3.95671e-05
3.95562e-05
3.95451e-05
3.95336e-05
3.95217e-05
3.95095e-05
3.94967e-05
3.94834e-05
3.94694e-05
3.94549e-05
3.94396e-05
3.94235e-05
3.94067e-05
3.93889e-05
3.93702e-05
3.93505e-05
3.93298e-05
3.93079e-05
3.92849e-05
3.92605e-05
3.92348e-05
3.92075e-05
3.91786e-05
3.9148e-05
3.91154e-05
3.90809e-05
3.90442e-05
3.90051e-05
3.89635e-05
3.89192e-05
3.88719e-05
3.88214e-05
3.87673e-05
3.87093e-05
3.8647e-05
3.858e-05
3.85077e-05
3.84294e-05
3.83446e-05
3.82522e-05
3.81512e-05
3.80404e-05
3.79183e-05
3.77831e-05
3.7633e-05
3.74661e-05
3.72792e-05
3.70664e-05
3.68208e-05
3.65346e-05
3.61985e-05
3.58012e-05
3.53308e-05
3.47839e-05
3.41689e-05
3.35287e-05
3.30093e-05
3.3003e-05
3.44763e-05
3.94407e-05
5.08884e-05
7.2113e-05
3.9523e-05
3.95114e-05
3.94995e-05
3.94874e-05
3.94751e-05
3.94627e-05
3.945e-05
3.94372e-05
3.94241e-05
3.94107e-05
3.93969e-05
3.93829e-05
3.93684e-05
3.93534e-05
3.93379e-05
3.93218e-05
3.9305e-05
3.92876e-05
3.92694e-05
3.92503e-05
3.92303e-05
3.92094e-05
3.91874e-05
3.91642e-05
3.91398e-05
3.91141e-05
3.90869e-05
3.90583e-05
3.90279e-05
3.89956e-05
3.89614e-05
3.89251e-05
3.88865e-05
3.88454e-05
3.88017e-05
3.87551e-05
3.87053e-05
3.8652e-05
3.85949e-05
3.85337e-05
3.84679e-05
3.83969e-05
3.83202e-05
3.82371e-05
3.81468e-05
3.80482e-05
3.79404e-05
3.78217e-05
3.76907e-05
3.75452e-05
3.73828e-05
3.72002e-05
3.69937e-05
3.67592e-05
3.64911e-05
3.61807e-05
3.58199e-05
3.53982e-05
3.49046e-05
3.43334e-05
3.36978e-05
3.30421e-05
3.25002e-05
3.24235e-05
3.36373e-05
3.78894e-05
4.81504e-05
6.77614e-05
9.68044e-05
3.93858e-05
3.93731e-05
3.93601e-05
3.93466e-05
3.93328e-05
3.93187e-05
3.93043e-05
3.92895e-05
3.92743e-05
3.92588e-05
3.92428e-05
3.92264e-05
3.92095e-05
3.91921e-05
3.91741e-05
3.91555e-05
3.91362e-05
3.91161e-05
3.90952e-05
3.90734e-05
3.90506e-05
3.90267e-05
3.90017e-05
3.89754e-05
3.89478e-05
3.89187e-05
3.8888e-05
3.88555e-05
3.88211e-05
3.87847e-05
3.8746e-05
3.87049e-05
3.86611e-05
3.86145e-05
3.85648e-05
3.85116e-05
3.84547e-05
3.83937e-05
3.83281e-05
3.82574e-05
3.81812e-05
3.80986e-05
3.8009e-05
3.79114e-05
3.78047e-05
3.76878e-05
3.7559e-05
3.74165e-05
3.7258e-05
3.70807e-05
3.68812e-05
3.66549e-05
3.63963e-05
3.60984e-05
3.57537e-05
3.53541e-05
3.48978e-05
3.43739e-05
3.37751e-05
3.31156e-05
3.24485e-05
3.19142e-05
3.18503e-05
3.30158e-05
3.69664e-05
4.6361e-05
6.47621e-05
9.35627e-05
0.000125789
3.92182e-05
3.92047e-05
3.91907e-05
3.91762e-05
3.91613e-05
3.91458e-05
3.91299e-05
3.91135e-05
3.90966e-05
3.90791e-05
3.90611e-05
3.90425e-05
3.90233e-05
3.90034e-05
3.89829e-05
3.89615e-05
3.89394e-05
3.89163e-05
3.88924e-05
3.88674e-05
3.88412e-05
3.88139e-05
3.87852e-05
3.87551e-05
3.87234e-05
3.869e-05
3.86548e-05
3.86176e-05
3.85781e-05
3.85361e-05
3.84916e-05
3.84442e-05
3.83937e-05
3.83397e-05
3.8282e-05
3.82202e-05
3.81538e-05
3.80824e-05
3.80053e-05
3.7922e-05
3.78317e-05
3.77335e-05
3.76264e-05
3.75091e-05
3.73804e-05
3.72384e-05
3.7081e-05
3.69057e-05
3.67094e-05
3.64879e-05
3.62361e-05
3.59479e-05
3.56158e-05
3.52318e-05
3.47901e-05
3.42857e-05
3.3719e-05
3.30847e-05
3.24036e-05
3.17343e-05
3.12435e-05
3.12877e-05
3.2626e-05
3.67043e-05
4.59035e-05
6.35223e-05
9.16547e-05
0.000125054
0.000147506
3.90104e-05
3.89959e-05
3.89807e-05
3.89651e-05
3.89488e-05
3.8932e-05
3.89145e-05
3.88965e-05
3.88778e-05
3.88584e-05
3.88383e-05
3.88175e-05
3.87959e-05
3.87735e-05
3.87502e-05
3.87259e-05
3.87007e-05
3.86743e-05
3.86469e-05
3.86181e-05
3.85881e-05
3.85565e-05
3.85234e-05
3.84886e-05
3.84519e-05
3.84132e-05
3.83723e-05
3.83289e-05
3.82828e-05
3.82338e-05
3.81817e-05
3.8126e-05
3.80666e-05
3.8003e-05
3.79347e-05
3.78613e-05
3.77822e-05
3.76967e-05
3.76042e-05
3.75038e-05
3.73945e-05
3.72751e-05
3.71442e-05
3.70002e-05
3.68411e-05
3.66645e-05
3.64674e-05
3.62459e-05
3.59954e-05
3.57098e-05
3.53823e-05
3.50056e-05
3.45723e-05
3.40778e-05
3.35292e-05
3.29125e-05
3.22387e-05
3.1539e-05
3.08995e-05
3.05083e-05
3.07975e-05
3.25753e-05
3.72628e-05
4.70587e-05
6.48354e-05
9.2539e-05
0.000126061
0.000150043
0.000149433
3.87508e-05
3.87346e-05
3.87177e-05
3.87003e-05
3.86822e-05
3.86635e-05
3.8644e-05
3.86239e-05
3.8603e-05
3.85812e-05
3.85586e-05
3.85351e-05
3.85107e-05
3.84852e-05
3.84587e-05
3.8431e-05
3.84021e-05
3.83718e-05
3.83401e-05
3.83069e-05
3.82721e-05
3.82354e-05
3.81968e-05
3.81561e-05
3.81131e-05
3.80676e-05
3.80193e-05
3.79679e-05
3.79133e-05
3.78551e-05
3.77929e-05
3.77264e-05
3.76551e-05
3.75785e-05
3.7496e-05
3.74071e-05
3.73108e-05
3.72065e-05
3.70931e-05
3.69693e-05
3.6834e-05
3.66854e-05
3.65216e-05
3.63402e-05
3.61383e-05
3.5912e-05
3.56567e-05
3.53668e-05
3.50359e-05
3.46568e-05
3.42232e-05
3.37314e-05
3.31812e-05
3.25779e-05
3.19144e-05
3.12126e-05
3.05257e-05
2.99685e-05
2.98054e-05
3.05198e-05
3.30992e-05
3.89739e-05
5.02587e-05
6.93701e-05
9.74545e-05
0.000130427
0.000154431
0.000153578
0.000137959
3.84211e-05
3.84026e-05
3.83833e-05
3.83634e-05
3.83427e-05
3.83213e-05
3.82991e-05
3.8276e-05
3.8252e-05
3.82271e-05
3.82011e-05
3.81741e-05
3.81459e-05
3.81165e-05
3.80857e-05
3.80535e-05
3.80198e-05
3.79845e-05
3.79474e-05
3.79084e-05
3.78673e-05
3.78239e-05
3.77782e-05
3.77297e-05
3.76784e-05
3.76239e-05
3.75659e-05
3.75041e-05
3.74382e-05
3.73677e-05
3.72922e-05
3.72112e-05
3.71239e-05
3.70298e-05
3.69281e-05
3.68179e-05
3.66981e-05
3.65677e-05
3.64251e-05
3.62688e-05
3.60967e-05
3.59065e-05
3.56949e-05
3.54583e-05
3.51919e-05
3.48899e-05
3.45466e-05
3.41549e-05
3.37119e-05
3.32129e-05
3.26582e-05
3.20591e-05
3.14027e-05
3.0706e-05
3.00102e-05
2.9401e-05
2.90609e-05
2.93074e-05
3.08262e-05
3.46345e-05
4.23493e-05
5.60785e-05
7.77306e-05
0.00010712
0.000138918
0.000160783
0.000159152
0.000143073
0.000128828
3.79905e-05
3.7969e-05
3.79466e-05
3.79234e-05
3.78994e-05
3.78744e-05
3.78484e-05
3.78215e-05
3.77934e-05
3.77642e-05
3.77337e-05
3.77019e-05
3.76686e-05
3.76339e-05
3.75975e-05
3.75593e-05
3.75192e-05
3.74771e-05
3.74327e-05
3.73859e-05
3.73365e-05
3.72843e-05
3.72289e-05
3.71701e-05
3.71076e-05
3.70409e-05
3.69698e-05
3.68938e-05
3.68123e-05
3.67248e-05
3.66307e-05
3.65292e-05
3.64196e-05
3.63009e-05
3.6172e-05
3.60316e-05
3.58784e-05
3.57104e-05
3.55256e-05
3.53214e-05
3.50944e-05
3.48405e-05
3.45548e-05
3.42322e-05
3.38663e-05
3.34518e-05
3.29876e-05
3.24704e-05
3.19152e-05
3.13113e-05
3.06606e-05
2.99792e-05
2.93029e-05
2.87018e-05
2.83319e-05
2.84186e-05
2.94562e-05
3.21559e-05
3.77297e-05
4.79742e-05
6.50206e-05
9.00734e-05
0.000121118
0.000150895
0.000168062
0.000164968
0.000150849
0.000133839
0.000121157
3.74062e-05
3.73808e-05
3.73544e-05
3.73269e-05
3.72984e-05
3.72687e-05
3.72377e-05
3.72055e-05
3.71719e-05
3.71368e-05
3.71002e-05
3.70619e-05
3.70217e-05
3.69796e-05
3.69354e-05
3.68889e-05
3.684e-05
3.67884e-05
3.67339e-05
3.66763e-05
3.66153e-05
3.65504e-05
3.64815e-05
3.64081e-05
3.63298e-05
3.62462e-05
3.61566e-05
3.60606e-05
3.59573e-05
3.5846e-05
3.57258e-05
3.55955e-05
3.54539e-05
3.52997e-05
3.51312e-05
3.49465e-05
3.4743e-05
3.45178e-05
3.42673e-05
3.39871e-05
3.36726e-05
3.3318e-05
3.29185e-05
3.24736e-05
3.19808e-05
3.14397e-05
3.08778e-05
3.02708e-05
2.96338e-05
2.89839e-05
2.8363e-05
2.78434e-05
2.75532e-05
2.76631e-05
2.859e-05
3.07914e-05
3.50971e-05
4.28796e-05
5.61555e-05
7.69211e-05
0.000105227
0.000136773
0.000162857
0.000174657
0.000171788
0.000159265
0.000140965
0.000127973
0.000117538
3.65781e-05
3.65474e-05
3.65155e-05
3.64822e-05
3.64475e-05
3.64113e-05
3.63736e-05
3.63342e-05
3.6293e-05
3.62499e-05
3.62048e-05
3.61575e-05
3.61078e-05
3.60556e-05
3.60006e-05
3.59426e-05
3.58814e-05
3.58167e-05
3.57482e-05
3.56755e-05
3.55982e-05
3.55158e-05
3.54279e-05
3.5334e-05
3.52335e-05
3.51255e-05
3.50093e-05
3.4884e-05
3.47485e-05
3.46017e-05
3.44422e-05
3.42683e-05
3.40781e-05
3.38692e-05
3.36389e-05
3.33836e-05
3.30995e-05
3.2782e-05
3.24264e-05
3.20289e-05
3.15902e-05
3.11083e-05
3.05838e-05
3.00498e-05
2.94826e-05
2.88933e-05
2.8296e-05
2.77155e-05
2.72099e-05
2.68566e-05
2.67565e-05
2.71021e-05
2.81501e-05
3.02404e-05
3.38947e-05
4.00171e-05
5.01204e-05
6.6291e-05
9.00045e-05
0.000119513
0.0001484
0.000168894
0.000177085
0.000176375
0.000167072
0.000151775
0.000137377
0.000127197
0.000118776
3.53431e-05
3.53045e-05
3.52644e-05
3.52225e-05
3.51787e-05
3.51331e-05
3.50854e-05
3.50355e-05
3.49832e-05
3.49284e-05
3.48709e-05
3.48105e-05
3.4747e-05
3.468e-05
3.46093e-05
3.45347e-05
3.44557e-05
3.43719e-05
3.42828e-05
3.41881e-05
3.40871e-05
3.39791e-05
3.38637e-05
3.37401e-05
3.36073e-05
3.34642e-05
3.33096e-05
3.3142e-05
3.29596e-05
3.27603e-05
3.25417e-05
3.23009e-05
3.20348e-05
3.17397e-05
3.14117e-05
3.10466e-05
3.06434e-05
3.02026e-05
2.97246e-05
2.92156e-05
2.87146e-05
2.81937e-05
2.76669e-05
2.71451e-05
2.66566e-05
2.62513e-05
2.59822e-05
2.58823e-05
2.61403e-05
2.68562e-05
2.81965e-05
3.03855e-05
3.37709e-05
3.88612e-05
4.65148e-05
5.82294e-05
7.58399e-05
9.97256e-05
0.000126176
0.000148793
0.000164162
0.000172797
0.000174987
0.000169672
0.000158267
0.000145672
0.000137212
0.000130988
0.000125179
3.34002e-05
3.33504e-05
3.32986e-05
3.32445e-05
3.3188e-05
3.31291e-05
3.30674e-05
3.30029e-05
3.29353e-05
3.28644e-05
3.279e-05
3.27117e-05
3.26293e-05
3.25424e-05
3.24506e-05
3.23535e-05
3.22506e-05
3.21414e-05
3.20252e-05
3.19014e-05
3.17692e-05
3.16276e-05
3.14752e-05
3.13106e-05
3.11322e-05
3.09382e-05
3.07265e-05
3.04948e-05
3.02406e-05
2.99613e-05
2.96542e-05
2.93167e-05
2.89469e-05
2.85445e-05
2.81112e-05
2.76518e-05
2.71983e-05
2.67528e-05
2.63113e-05
2.58845e-05
2.55028e-05
2.51934e-05
2.49856e-05
2.4879e-05
2.49807e-05
2.5387e-05
2.6117e-05
2.72316e-05
2.88447e-05
3.11265e-05
3.42833e-05
3.86057e-05
4.45166e-05
5.25655e-05
6.36837e-05
7.91519e-05
9.84395e-05
0.000117623
0.000134544
0.000148911
0.000159415
0.000164801
0.000163898
0.000156867
0.000146275
0.000142604
0.000139416
0.000136553
0.000132577
3.01857e-05
3.01219e-05
3.00556e-05
2.99866e-05
2.99146e-05
2.98396e-05
2.97613e-05
2.96794e-05
2.95937e-05
2.9504e-05
2.94099e-05
2.9311e-05
2.92071e-05
2.90977e-05
2.89822e-05
2.88603e-05
2.87312e-05
2.85943e-05
2.8449e-05
2.82944e-05
2.81277e-05
2.79473e-05
2.77517e-05
2.75398e-05
2.73103e-05
2.70623e-05
2.6795e-05
2.6508e-05
2.62017e-05
2.58772e-05
2.55372e-05
2.51857e-05
2.48296e-05
2.44932e-05
2.42111e-05
2.39701e-05
2.37534e-05
2.36117e-05
2.35606e-05
2.3626e-05
2.39157e-05
2.43776e-05
2.50282e-05
2.58682e-05
2.69163e-05
2.82087e-05
2.98119e-05
3.18345e-05
3.44705e-05
3.7972e-05
4.24103e-05
4.75285e-05
5.33943e-05
6.01603e-05
6.79997e-05
7.84655e-05
9.26127e-05
0.000108182
0.000122679
0.000134567
0.000142631
0.000145866
0.000143461
0.000136385
0.00013544
0.00013857
0.000139164
0.00013812
0.000134348
2.48948e-05
2.48294e-05
2.47619e-05
2.46921e-05
2.46199e-05
2.45452e-05
2.44677e-05
2.43874e-05
2.43039e-05
2.4217e-05
2.41265e-05
2.40321e-05
2.39335e-05
2.38304e-05
2.37224e-05
2.36093e-05
2.34909e-05
2.33668e-05
2.32367e-05
2.31007e-05
2.29614e-05
2.28202e-05
2.26788e-05
2.25392e-05
2.24039e-05
2.22759e-05
2.21588e-05
2.20572e-05
2.19761e-05
2.19232e-05
2.19053e-05
2.19296e-05
2.20051e-05
2.22399e-05
2.25616e-05
2.29789e-05
2.34707e-05
2.40306e-05
2.46517e-05
2.53285e-05
2.60573e-05
2.68252e-05
2.76263e-05
2.84794e-05
2.94632e-05
3.07513e-05
3.25074e-05
3.45696e-05
3.69902e-05
4.01346e-05
4.251e-05
4.1729e-05
4.01905e-05
4.07658e-05
4.61102e-05
5.53518e-05
6.8758e-05
8.3088e-05
9.47349e-05
0.000103105
0.000107374
0.000107796
0.00010875
0.000109696
0.000115927
0.000123905
0.000126577
0.000125696
0.000121085
1.87372e-05
1.88282e-05
1.89202e-05
1.90116e-05
1.91019e-05
1.9191e-05
1.92787e-05
1.9365e-05
1.945e-05
1.95337e-05
1.96161e-05
1.96974e-05
1.97776e-05
1.98572e-05
1.99393e-05
2.00298e-05
2.01314e-05
2.02454e-05
2.03732e-05
2.05157e-05
2.06738e-05
2.08483e-05
2.10399e-05
2.12491e-05
2.14763e-05
2.17216e-05
2.19845e-05
2.2264e-05
2.2558e-05
2.28633e-05
2.31752e-05
2.34871e-05
2.37905e-05
2.40756e-05
2.43278e-05
2.45325e-05
2.46741e-05
2.47399e-05
2.4726e-05
2.46436e-05
2.44999e-05
2.42513e-05
2.40014e-05
2.38791e-05
2.41749e-05
2.5464e-05
2.71342e-05
2.63228e-05
2.40424e-05
2.18461e-05
2.20331e-05
2.13843e-05
2.05424e-05
2.17436e-05
2.51492e-05
3.01569e-05
3.64468e-05
4.33622e-05
5.00378e-05
5.59974e-05
6.05831e-05
6.37952e-05
6.66944e-05
6.94704e-05
7.32323e-05
7.64731e-05
7.70712e-05
7.4878e-05
6.98064e-05
1.79796e-05
1.81164e-05
1.82524e-05
1.83873e-05
1.85206e-05
1.86518e-05
1.87805e-05
1.89061e-05
1.90283e-05
1.91466e-05
1.92606e-05
1.93695e-05
1.94729e-05
1.95697e-05
1.96555e-05
1.97241e-05
1.97736e-05
1.98037e-05
1.98138e-05
1.98034e-05
1.97715e-05
1.97165e-05
1.96365e-05
1.95287e-05
1.939e-05
1.92162e-05
1.90026e-05
1.87437e-05
1.84331e-05
1.80636e-05
1.76271e-05
1.71149e-05
1.65178e-05
1.58263e-05
1.50315e-05
1.41259e-05
1.31067e-05
1.19834e-05
1.07933e-05
9.60517e-06
8.5685e-06
7.85672e-06
7.53317e-06
7.36681e-06
7.36767e-06
8.85271e-06
1.12308e-05
1.14453e-05
1.07178e-05
1.00322e-05
9.69522e-06
9.35749e-06
9.06894e-06
9.67308e-06
1.08673e-05
1.22133e-05
1.34303e-05
1.41269e-05
1.3977e-05
1.41285e-05
1.55651e-05
1.6972e-05
1.81295e-05
1.90539e-05
2.00023e-05
2.05682e-05
2.0445e-05
1.9497e-05
1.75038e-05
4.02447e-05
4.02478e-05
4.02447e-05
4.0248e-05
4.02507e-05
4.0251e-05
4.02545e-05
4.02665e-05
4.02747e-05
4.02748e-05
4.02766e-05
4.02793e-05
4.02759e-05
4.02835e-05
4.02965e-05
4.03032e-05
4.0295e-05
4.02993e-05
4.03148e-05
4.03385e-05
4.03482e-05
4.03263e-05
4.03059e-05
4.03024e-05
4.0295e-05
4.02974e-05
4.03261e-05
4.03486e-05
4.03484e-05
4.03497e-05
4.03952e-05
4.03981e-05
4.04153e-05
4.03998e-05
4.03922e-05
4.03941e-05
4.03944e-05
4.04025e-05
4.04207e-05
4.04249e-05
4.04285e-05
4.04429e-05
4.04484e-05
4.0451e-05
4.04443e-05
4.04486e-05
4.04616e-05
4.04863e-05
4.04918e-05
4.04882e-05
4.04827e-05
4.04824e-05
4.04918e-05
4.0498e-05
4.05038e-05
4.05077e-05
4.05078e-05
4.05049e-05
4.0501e-05
4.02078e-05
4.02108e-05
4.02129e-05
4.02172e-05
4.02207e-05
4.02245e-05
4.02305e-05
4.02381e-05
4.0242e-05
4.02447e-05
4.0248e-05
4.02501e-05
4.02533e-05
4.02633e-05
4.02728e-05
4.02738e-05
4.02707e-05
4.02789e-05
4.02973e-05
4.03177e-05
4.0321e-05
4.03004e-05
4.02834e-05
4.02807e-05
4.02739e-05
4.02776e-05
4.03046e-05
4.03266e-05
4.03284e-05
4.03292e-05
4.03685e-05
4.03875e-05
4.0401e-05
4.03973e-05
4.03875e-05
4.03824e-05
4.03819e-05
4.03886e-05
4.03988e-05
4.04056e-05
4.04044e-05
4.04114e-05
4.04191e-05
4.04243e-05
4.04232e-05
4.04212e-05
4.04239e-05
4.04435e-05
4.04602e-05
4.04661e-05
4.04596e-05
4.04536e-05
4.04519e-05
4.04518e-05
4.04529e-05
4.04544e-05
4.04553e-05
4.04549e-05
4.0453e-05
4.01687e-05
4.01727e-05
4.0177e-05
4.01821e-05
4.01875e-05
4.01936e-05
4.02001e-05
4.02058e-05
4.02101e-05
4.02146e-05
4.02189e-05
4.0223e-05
4.02298e-05
4.02389e-05
4.02442e-05
4.02439e-05
4.02459e-05
4.0258e-05
4.02778e-05
4.0294e-05
4.02918e-05
4.0273e-05
4.02597e-05
4.02572e-05
4.02513e-05
4.0256e-05
4.02813e-05
4.03028e-05
4.03065e-05
4.03074e-05
4.03403e-05
4.03736e-05
4.03843e-05
4.0392e-05
4.03865e-05
4.03764e-05
4.03693e-05
4.0373e-05
4.03775e-05
4.03833e-05
4.03803e-05
4.03813e-05
4.03867e-05
4.03925e-05
4.03954e-05
4.03945e-05
4.03934e-05
4.03998e-05
4.04167e-05
4.04307e-05
4.04358e-05
4.04323e-05
4.04239e-05
4.04177e-05
4.04132e-05
4.041e-05
4.04076e-05
4.04055e-05
4.04032e-05
4.01278e-05
4.01333e-05
4.01395e-05
4.01461e-05
4.0153e-05
4.016e-05
4.01666e-05
4.01726e-05
4.01783e-05
4.0184e-05
4.01893e-05
4.01952e-05
4.02026e-05
4.02093e-05
4.02122e-05
4.02136e-05
4.02203e-05
4.02358e-05
4.02552e-05
4.02665e-05
4.02605e-05
4.02439e-05
4.0234e-05
4.02317e-05
4.02267e-05
4.02321e-05
4.02558e-05
4.02768e-05
4.02821e-05
4.02835e-05
4.03106e-05
4.03448e-05
4.03572e-05
4.03735e-05
4.03758e-05
4.03647e-05
4.03516e-05
4.03487e-05
4.03487e-05
4.03512e-05
4.03496e-05
4.03488e-05
4.03518e-05
4.03566e-05
4.0361e-05
4.03627e-05
4.0362e-05
4.03627e-05
4.03689e-05
4.03781e-05
4.0388e-05
4.03926e-05
4.03904e-05
4.03838e-05
4.03775e-05
4.03717e-05
4.03665e-05
4.03617e-05
4.03573e-05
4.00865e-05
4.00936e-05
4.01014e-05
4.01093e-05
4.01171e-05
4.01247e-05
4.01319e-05
4.01388e-05
4.01454e-05
4.01516e-05
4.01575e-05
4.01638e-05
4.01703e-05
4.01752e-05
4.01781e-05
4.01827e-05
4.01938e-05
4.02113e-05
4.02285e-05
4.0235e-05
4.02268e-05
4.02129e-05
4.02059e-05
4.02037e-05
4.01995e-05
4.02055e-05
4.02278e-05
4.02481e-05
4.02549e-05
4.02569e-05
4.02791e-05
4.03103e-05
4.03254e-05
4.03394e-05
4.03459e-05
4.03398e-05
4.03288e-05
4.03222e-05
4.0318e-05
4.03162e-05
4.03142e-05
4.03127e-05
4.03137e-05
4.03169e-05
4.03211e-05
4.03243e-05
4.03254e-05
4.03254e-05
4.03267e-05
4.033e-05
4.03348e-05
4.03386e-05
4.03395e-05
4.03376e-05
4.0334e-05
4.03294e-05
4.03244e-05
4.03189e-05
4.03138e-05
4.00454e-05
4.00538e-05
4.00626e-05
4.00712e-05
4.00797e-05
4.00877e-05
4.00954e-05
4.01027e-05
4.01094e-05
4.01156e-05
4.01215e-05
4.01275e-05
4.01331e-05
4.01377e-05
4.01425e-05
4.01509e-05
4.01653e-05
4.01831e-05
4.01971e-05
4.01995e-05
4.01906e-05
4.01797e-05
4.01749e-05
4.01728e-05
4.01694e-05
4.01759e-05
4.01968e-05
4.02164e-05
4.02244e-05
4.02273e-05
4.02452e-05
4.02732e-05
4.02901e-05
4.03026e-05
4.03097e-05
4.03078e-05
4.03004e-05
4.02936e-05
4.02874e-05
4.02823e-05
4.02781e-05
4.02748e-05
4.02733e-05
4.02741e-05
4.02766e-05
4.02797e-05
4.02819e-05
4.02827e-05
4.02831e-05
4.02838e-05
4.02853e-05
4.02868e-05
4.02874e-05
4.02867e-05
4.02847e-05
4.02815e-05
4.02775e-05
4.02729e-05
4.02691e-05
4.00035e-05
4.00125e-05
4.00219e-05
4.00308e-05
4.00394e-05
4.00475e-05
4.00551e-05
4.00621e-05
4.00685e-05
4.00745e-05
4.00804e-05
4.00862e-05
4.00918e-05
4.00976e-05
4.01054e-05
4.01174e-05
4.01336e-05
4.01503e-05
4.01606e-05
4.016e-05
4.01516e-05
4.01435e-05
4.01404e-05
4.01386e-05
4.0136e-05
4.01428e-05
4.01623e-05
4.01811e-05
4.01903e-05
4.0194e-05
4.02086e-05
4.02332e-05
4.0251e-05
4.0263e-05
4.027e-05
4.02705e-05
4.02661e-05
4.02605e-05
4.02543e-05
4.02478e-05
4.02416e-05
4.0236e-05
4.02318e-05
4.02295e-05
4.02292e-05
4.02305e-05
4.02322e-05
4.02333e-05
4.02338e-05
4.02339e-05
4.02339e-05
4.02339e-05
4.02336e-05
4.02326e-05
4.02309e-05
4.02284e-05
4.02252e-05
4.02212e-05
4.02174e-05
3.99587e-05
3.99677e-05
3.99769e-05
3.99857e-05
3.9994e-05
4.00018e-05
4.00089e-05
4.00156e-05
4.00218e-05
4.00278e-05
4.0034e-05
4.00403e-05
4.00472e-05
4.00554e-05
4.00663e-05
4.00808e-05
4.00975e-05
4.01118e-05
4.01186e-05
4.01164e-05
4.01093e-05
4.01038e-05
4.01021e-05
4.01004e-05
4.00986e-05
4.01057e-05
4.01239e-05
4.01419e-05
4.0152e-05
4.01566e-05
4.01686e-05
4.01897e-05