/*--------------------------------*- C++ -*----------------------------------*\
| =========                 |                                                 |
| \\      /  F ield         | OpenFOAM: The Open Source CFD Toolbox           |
|  \\    /   O peration     | Version:  2312                                  |
|   \\  /    A nd           | Website:  www.openfoam.com                      |
|    \\/     M anipulation  |                                                 |
\*---------------------------------------------------------------------------*/
FoamFile
{
    version     2.0;
    format      ascii;
    arch        "LSB;label=32;scalar=64";
    class       volScalarField;
    location    "900";
    object      p;
}
// * * * * * * * * * * * * * * * * * * * * * * * * * * * * * * * * * * * * * //

dimensions      [0 2 -2 0 0 0 0];

internalField   nonuniform List<scalar> 
76025
(
-8.54722e-05
-9.41426e-05
-0.000103188
-0.000112294
-0.000121308
-0.000130466
-0.000140003
-0.000149082
-0.000158453
-0.00016764
-0.000176908
-0.000186288
-0.000195821
-0.000205383
-0.000215122
-0.000224752
-0.000234231
-0.0002438
-0.000253452
-0.000262861
-0.000272196
-0.000281752
-0.000291228
-0.000300576
-0.000309933
-0.000319155
-0.000328714
-0.00033838
-0.000347381
-0.000356878
-0.00036569
-0.000374703
-0.000384392
-0.000394131
-0.00040352
-0.000412545
-0.00042123
-0.00043049
-0.00043983
-0.000449052
-0.000457771
-0.000466287
-0.000475553
-0.000485098
-0.000494045
-0.000502791
-0.000511796
-0.000521553
-0.000530605
-0.000539857
-0.000549354
-0.000558732
-0.000568771
-0.000579573
-0.000590482
-0.00060096
-0.000612579
-0.000624596
-0.000637305
-0.000650634
-0.000664588
-0.000680273
-0.000698048
-0.000716946
-0.00073744
-0.000760362
-0.000785319
-0.000815004
-0.000849748
-8.98784e-05
-9.91242e-05
-0.000108527
-0.00011801
-0.000127534
-0.000137124
-0.000146683
-0.000156262
-0.000165923
-0.000175631
-0.000185419
-0.000195254
-0.000205135
-0.000215029
-0.000224873
-0.000234636
-0.000244485
-0.000254244
-0.000264076
-0.000273752
-0.000283497
-0.000293171
-0.000302815
-0.000312419
-0.000322057
-0.000331741
-0.00034142
-0.000350886
-0.000360235
-0.000369545
-0.0003788
-0.00038835
-0.000397918
-0.000407303
-0.000416641
-0.000425826
-0.000435027
-0.000444198
-0.000453366
-0.000462557
-0.000471548
-0.000480546
-0.000489581
-0.000498593
-0.000507554
-0.00051653
-0.000525663
-0.000534963
-0.000544249
-0.000553682
-0.000563305
-0.000573042
-0.000583114
-0.000593563
-0.000604231
-0.000615233
-0.000626937
-0.000639168
-0.000651955
-0.000665462
-0.000680179
-0.0006966
-0.000714491
-0.00073407
-0.000755721
-0.000780098
-0.000807199
-0.000838145
-0.00087256
-9.41738e-05
-0.000103811
-0.00011361
-0.000123512
-0.000133453
-0.000143354
-0.000153261
-0.000163232
-0.000173266
-0.000183365
-0.000193504
-0.000203652
-0.000213795
-0.000223913
-0.000233984
-0.000244063
-0.000254137
-0.000264196
-0.000274222
-0.000284218
-0.000294175
-0.000304078
-0.000313953
-0.000323809
-0.000333644
-0.000343442
-0.000353136
-0.000362738
-0.000372291
-0.000381802
-0.000391339
-0.000400906
-0.000410404
-0.000419833
-0.000429226
-0.000438555
-0.000447824
-0.000457028
-0.000466224
-0.000475401
-0.000484492
-0.000493521
-0.000502535
-0.000511597
-0.000520693
-0.000529799
-0.00053895
-0.000548201
-0.000557538
-0.000566964
-0.000576539
-0.000586295
-0.000596319
-0.000606694
-0.000617434
-0.000628568
-0.000640219
-0.000652493
-0.000665483
-0.000679401
-0.000694534
-0.000711198
-0.000729566
-0.00074995
-0.000772695
-0.000798286
-0.000826965
-0.000859877
-0.000895959
-9.86226e-05
-0.00010866
-0.000118867
-0.000129169
-0.000139485
-0.000149775
-0.000160077
-0.000170429
-0.000180833
-0.000191275
-0.000201734
-0.000212192
-0.000222638
-0.000233069
-0.000243485
-0.000253889
-0.000264271
-0.000274625
-0.000284938
-0.000295207
-0.000305426
-0.000315597
-0.000325722
-0.000335798
-0.000345814
-0.000355765
-0.000365649
-0.000375476
-0.00038525
-0.000394978
-0.000404674
-0.000414336
-0.00042396
-0.000433538
-0.000443053
-0.000452491
-0.000461841
-0.000471116
-0.000480334
-0.000489498
-0.000498601
-0.000507657
-0.000516701
-0.000525758
-0.000534819
-0.000543882
-0.000552978
-0.000562152
-0.000571421
-0.000580804
-0.000590351
-0.000600106
-0.000610116
-0.000620443
-0.00063113
-0.000642231
-0.000653855
-0.000666143
-0.000679225
-0.000693296
-0.000708625
-0.000725529
-0.000744291
-0.000765256
-0.000788822
-0.000815536
-0.000845743
-0.000880562
-0.00091873
-0.000103766
-0.000114238
-0.000124876
-0.000135604
-0.000146338
-0.000157044
-0.000167752
-0.0001785
-0.000189293
-0.000200112
-0.000210937
-0.000221753
-0.000232554
-0.000243336
-0.000254097
-0.000264828
-0.000275522
-0.000286171
-0.000296768
-0.000307307
-0.000317785
-0.0003282
-0.000338547
-0.000348825
-0.00035903
-0.000369166
-0.000379232
-0.000389227
-0.000399153
-0.000409013
-0.000418816
-0.000428571
-0.000438278
-0.000447914
-0.000457461
-0.000466906
-0.00047625
-0.000485503
-0.000494684
-0.000503808
-0.000512887
-0.000521931
-0.000530955
-0.000539975
-0.000548997
-0.00055803
-0.000567098
-0.000576232
-0.000585458
-0.000594804
-0.000604305
-0.000613999
-0.000623929
-0.00063415
-0.000644724
-0.000655724
-0.000667256
-0.000679458
-0.000692488
-0.000706555
-0.000721929
-0.000738929
-0.000757901
-0.000779259
-0.000803471
-0.000831159
-0.000862758
-0.000899503
-0.00094045
-0.000109686
-0.000120616
-0.000131709
-0.000142889
-0.000154068
-0.000165208
-0.000176339
-0.0001875
-0.000198696
-0.000209908
-0.000221115
-0.000232303
-0.000243463
-0.000254593
-0.000265686
-0.000276734
-0.000287728
-0.000298661
-0.000309527
-0.000320319
-0.000331035
-0.00034167
-0.000352221
-0.000362688
-0.00037307
-0.000383366
-0.000393576
-0.0004037
-0.00041374
-0.000423703
-0.000433595
-0.000443425
-0.000453186
-0.000462856
-0.000472417
-0.000481866
-0.000491206
-0.000500453
-0.000509624
-0.000518735
-0.000527798
-0.000536825
-0.000545824
-0.000554808
-0.000563788
-0.000572772
-0.00058178
-0.000590838
-0.000599977
-0.000609225
-0.000618616
-0.000628186
-0.000637978
-0.000648042
-0.000658443
-0.000669259
-0.000680596
-0.000692593
-0.000705422
-0.000719305
-0.000734518
-0.000751401
-0.000770352
-0.000791853
-0.000816447
-0.000844859
-0.000877633
-0.000916167
-0.00095964
-0.000116369
-0.000127781
-0.000139353
-0.000151006
-0.000162648
-0.000174238
-0.000185806
-0.000197393
-0.000209005
-0.000220621
-0.000232219
-0.000243783
-0.000255307
-0.000266785
-0.000278209
-0.000289573
-0.000300867
-0.000312083
-0.000323214
-0.000334257
-0.000345205
-0.000356056
-0.000366808
-0.000377457
-0.000388004
-0.000398448
-0.00040879
-0.000419031
-0.000429176
-0.00043923
-0.000449201
-0.000459094
-0.000468896
-0.000478587
-0.000488153
-0.000497593
-0.000506915
-0.000516133
-0.000525265
-0.000534328
-0.000543336
-0.000552301
-0.000561233
-0.000570144
-0.000579042
-0.000587938
-0.000596849
-0.000605801
-0.000614823
-0.000623944
-0.000633193
-0.000642602
-0.000652208
-0.000662059
-0.000672215
-0.000682753
-0.000693781
-0.000705434
-0.000717893
-0.000731384
-0.0007462
-0.000762703
-0.000781341
-0.000802659
-0.000827295
-0.000856092
-0.000889737
-0.00092983
-0.000975637
-0.000123909
-0.00013583
-0.000147907
-0.000160056
-0.000172182
-0.000184241
-0.000196266
-0.000208298
-0.000220342
-0.000232378
-0.000244382
-0.000256337
-0.000268235
-0.00028007
-0.000291835
-0.000303521
-0.000315119
-0.000326621
-0.00033802
-0.000349311
-0.000360488
-0.000371549
-0.000382489
-0.000393309
-0.000404006
-0.000414581
-0.000425036
-0.000435375
-0.000445602
-0.000455722
-0.000465744
-0.000475669
-0.00048548
-0.000495158
-0.000504694
-0.000514088
-0.000523353
-0.000532506
-0.000541565
-0.000550549
-0.000559474
-0.000568354
-0.000577198
-0.000586016
-0.000594815
-0.000603606
-0.000612402
-0.000621228
-0.00063011
-0.000639073
-0.000648141
-0.000657341
-0.000666705
-0.000676273
-0.000686099
-0.000696257
-0.000706846
-0.000718
-0.000729895
-0.000742761
-0.0007569
-0.0007727
-0.000790649
-0.000811366
-0.000835591
-0.000864308
-0.000898392
-0.000939696
-0.000988008
-0.000132447
-0.000144907
-0.000157515
-0.000170186
-0.000182822
-0.000195375
-0.000207879
-0.000220377
-0.000232874
-0.000245348
-0.000257774
-0.000270133
-0.000282416
-0.000294617
-0.000306728
-0.00031874
-0.000330643
-0.000342429
-0.00035409
-0.000365619
-0.000377012
-0.000388266
-0.000399378
-0.000410346
-0.000421171
-0.000431853
-0.000442396
-0.000452803
-0.00046308
-0.000473234
-0.000483273
-0.000493193
-0.000502975
-0.000512604
-0.000522074
-0.000531391
-0.000540569
-0.000549628
-0.000558589
-0.000567472
-0.000576293
-0.000585066
-0.000593799
-0.0006025
-0.000611177
-0.000619836
-0.00062849
-0.000637161
-0.00064587
-0.000654638
-0.000663485
-0.000672429
-0.000681494
-0.000690712
-0.000700126
-0.0007098
-0.000719819
-0.000730305
-0.000741423
-0.000753399
-0.000766536
-0.000781239
-0.000798034
-0.000817614
-0.000840831
-0.000868835
-0.00090274
-0.000944695
-0.000994612
-0.000142121
-0.00015515
-0.00016832
-0.000181541
-0.000194713
-0.000207786
-0.000220793
-0.000233777
-0.000246746
-0.000259676
-0.000272538
-0.000285313
-0.00029799
-0.000310563
-0.000323023
-0.000335361
-0.000347566
-0.000359629
-0.000371541
-0.000383296
-0.00039489
-0.000406319
-0.000417582
-0.000428676
-0.000439603
-0.000450365
-0.000460965
-0.000471409
-0.000481705
-0.000491859
-0.000501879
-0.000511756
-0.000521472
-0.000531014
-0.000540383
-0.000549586
-0.000558644
-0.000567577
-0.000576409
-0.000585161
-0.000593848
-0.000602484
-0.000611077
-0.000619634
-0.00062816
-0.00063666
-0.000645147
-0.000653636
-0.000662145
-0.00067069
-0.000679282
-0.000687931
-0.00069665
-0.000705458
-0.000714383
-0.00072347
-0.000732785
-0.000742427
-0.00075254
-0.000763331
-0.000775091
-0.000788229
-0.0008033
-0.000821062
-0.000842483
-0.000868901
-0.000901745
-0.000943552
-0.000994809
-0.00015308
-0.000166714
-0.000180478
-0.00019428
-0.000208016
-0.000221634
-0.000235168
-0.000248662
-0.000262122
-0.000275523
-0.000288835
-0.000302037
-0.000315117
-0.000328068
-0.00034088
-0.000353542
-0.000366045
-0.000378376
-0.000390529
-0.000402497
-0.000414274
-0.000425859
-0.000437249
-0.000448443
-0.000459444
-0.000470253
-0.000480877
-0.000491323
-0.000501597
-0.000511712
-0.00052167
-0.000531459
-0.000541063
-0.000550473
-0.000559695
-0.000568743
-0.00057764
-0.000586408
-0.000595074
-0.000603659
-0.000612179
-0.000620648
-0.000629072
-0.000637457
-0.000645808
-0.000654127
-0.000662423
-0.00067071
-0.000678998
-0.000687297
-0.000695608
-0.000703932
-0.000712267
-0.000720616
-0.000728985
-0.000737395
-0.00074588
-0.000754505
-0.000763378
-0.000772667
-0.000782632
-0.000793664
-0.000806324
-0.000821417
-0.000840029
-0.000863693
-0.000894249
-0.000934535
-0.00098645
-0.000165505
-0.000179782
-0.000194175
-0.000208591
-0.000222923
-0.000237115
-0.0002512
-0.000265226
-0.000279197
-0.000293088
-0.000306866
-0.000320507
-0.000333998
-0.00034733
-0.000360495
-0.00037348
-0.000386274
-0.000398865
-0.000411245
-0.000423407
-0.000435346
-0.00044706
-0.000458548
-0.000469809
-0.000480847
-0.000491665
-0.00050227
-0.000512671
-0.000522879
-0.000532905
-0.000542748
-0.000552393
-0.000561829
-0.000571054
-0.000580079
-0.000588922
-0.000597611
-0.000606173
-0.000614633
-0.000623014
-0.000631334
-0.000639604
-0.000647831
-0.000656019
-0.000664171
-0.000672288
-0.000680375
-0.000688443
-0.000696496
-0.000704535
-0.000712551
-0.000720534
-0.000728464
-0.000736324
-0.000744093
-0.000751756
-0.000759308
-0.000766763
-0.00077417
-0.000781636
-0.000789359
-0.000797676
-0.00080712
-0.000818506
-0.000833036
-0.000852449
-0.000879141
-0.000916108
-0.000967631
-0.000179608
-0.000194568
-0.00020963
-0.000224696
-0.000239656
-0.000254452
-0.000269117
-0.000283699
-0.000298204
-0.000312604
-0.000326862
-0.000340953
-0.000354863
-0.000368581
-0.000382098
-0.000395401
-0.000408476
-0.000421312
-0.0004339
-0.000446233
-0.000458307
-0.000470118
-0.000481666
-0.000492953
-0.000503983
-0.000514761
-0.000525296
-0.0005356
-0.000545685
-0.000555562
-0.000565225
-0.000574662
-0.000583867
-0.000592845
-0.000601614
-0.000610199
-0.000618629
-0.000626935
-0.000635146
-0.000643285
-0.000651368
-0.000659406
-0.000667407
-0.000675372
-0.000683303
-0.000691199
-0.000699064
-0.000706903
-0.000714714
-0.000722491
-0.000730214
-0.000737858
-0.000745387
-0.000752757
-0.000759915
-0.000766802
-0.000773359
-0.000779532
-0.000785286
-0.000790634
-0.000795669
-0.00080062
-0.00080593
-0.000812368
-0.000821213
-0.000834431
-0.000855219
-0.000887241
-0.000937446
-0.00019563
-0.000211318
-0.000227091
-0.000242845
-0.000258471
-0.000273904
-0.000289178
-0.000304344
-0.000319405
-0.000334333
-0.000349087
-0.00036364
-0.000377976
-0.000392082
-0.000405948
-0.00041956
-0.000432903
-0.000445966
-0.000458738
-0.000471212
-0.000483384
-0.000495251
-0.000506815
-0.000518078
-0.000529045
-0.000539724
-0.000550127
-0.000560268
-0.000570162
-0.000579816
-0.000589224
-0.000598376
-0.000607275
-0.000615935
-0.000624381
-0.000632643
-0.000640757
-0.000648755
-0.000656668
-0.00066452
-0.000672327
-0.0006801
-0.000687844
-0.000695561
-0.000703251
-0.000710912
-0.000718546
-0.000726154
-0.000733729
-0.000741256
-0.000748706
-0.000756041
-0.000763203
-0.000770122
-0.000776708
-0.000782851
-0.000788421
-0.000793276
-0.000797271
-0.00080028
-0.000802234
-0.00080318
-0.000803379
-0.000803448
-0.00080463
-0.000809061
-0.000820851
-0.000845301
-0.000894357
-0.000213853
-0.000230318
-0.000246847
-0.000263334
-0.000279664
-0.00029577
-0.000311687
-0.000327464
-0.000343108
-0.000358584
-0.000373851
-0.000388878
-0.000403645
-0.00041814
-0.00043235
-0.00044626
-0.000459854
-0.00047312
-0.000486046
-0.000498624
-0.000510852
-0.000522727
-0.000534252
-0.000545429
-0.000556267
-0.000566777
-0.000576973
-0.000586872
-0.000596492
-0.000605835
-0.000614895
-0.000623673
-0.000632179
-0.000640437
-0.000648481
-0.000656347
-0.000664076
-0.000671705
-0.000679265
-0.000686779
-0.000694266
-0.000701735
-0.000709191
-0.000716634
-0.000724064
-0.000731478
-0.000738877
-0.000746259
-0.000753613
-0.000760919
-0.000768139
-0.000775222
-0.000782094
-0.000788656
-0.000794777
-0.00080029
-0.000804986
-0.000808613
-0.000810882
-0.000811479
-0.000810104
-0.000806521
-0.000800682
-0.000792891
-0.000784211
-0.000776822
-0.000775651
-0.000786652
-0.00082322
-0.000234603
-0.000251899
-0.000269234
-0.0002865
-0.000303579
-0.000320398
-0.000336991
-0.000353412
-0.000369664
-0.000385711
-0.000401508
-0.000417019
-0.000432222
-0.000447104
-0.000461649
-0.000475841
-0.000489663
-0.0005031
-0.000516142
-0.000528779
-0.000541008
-0.000552829
-0.000564245
-0.000575261
-0.000585888
-0.00059614
-0.000606035
-0.000615594
-0.000624834
-0.000633755
-0.000642358
-0.000650652
-0.000658662
-0.000666422
-0.000673972
-0.000681359
-0.000688628
-0.000695818
-0.000702963
-0.000710088
-0.000717208
-0.000724334
-0.00073147
-0.000738615
-0.000745767
-0.000752926
-0.000760093
-0.000767262
-0.000774424
-0.000781553
-0.000788611
-0.000795535
-0.00080224
-0.000808602
-0.000814453
-0.000819566
-0.000823647
-0.000826318
-0.000827115
-0.000825486
-0.000820811
-0.000812452
-0.000799879
-0.000782898
-0.00076225
-0.00074024
-0.000723017
-0.000718194
-0.000743683
-0.000258271
-0.000276458
-0.000294657
-0.000312755
-0.000330631
-0.000348207
-0.000365518
-0.000382617
-0.000399508
-0.000416151
-0.000432496
-0.000448504
-0.000464149
-0.000479414
-0.000494284
-0.000508739
-0.000522762
-0.000536336
-0.000549447
-0.000562089
-0.000574256
-0.000585951
-0.000597176
-0.000607941
-0.000618259
-0.000628149
-0.000637631
-0.000646733
-0.000655465
-0.000663832
-0.000671845
-0.000679528
-0.000686916
-0.000694057
-0.000701002
-0.000707806
-0.000714518
-0.000721184
-0.000727839
-0.000734508
-0.000741206
-0.000747943
-0.00075472
-0.000761538
-0.000768395
-0.00077529
-0.000782227
-0.000789202
-0.000796206
-0.000803219
-0.000810201
-0.000817092
-0.000823802
-0.000830191
-0.000836065
-0.000841148
-0.000845063
-0.000847305
-0.000847214
-0.000843952
-0.000836483
-0.00082361
-0.000804119
-0.000777121
-0.000742961
-0.000704344
-0.000669287
-0.000648474
-0.000663278
-0.0002853
-0.000304441
-0.000323566
-0.000342553
-0.000361279
-0.000379661
-0.000397731
-0.000415545
-0.000433104
-0.000450366
-0.000467275
-0.000483787
-0.000499873
-0.000515513
-0.000530688
-0.000545377
-0.00055956
-0.000573219
-0.000586338
-0.00059891
-0.000610931
-0.000622401
-0.000633328
-0.000643723
-0.000653602
-0.00066299
-0.000671914
-0.000680399
-0.000688458
-0.000696105
-0.000703366
-0.00071028
-0.000716901
-0.000723288
-0.000729504
-0.000735614
-0.000741674
-0.000747732
-0.000753826
-0.000759979
-0.000766206
-0.000772515
-0.000778906
-0.000785376
-0.000791925
-0.000798555
-0.00080527
-0.000812074
-0.000818964
-0.000825928
-0.000832941
-0.000839954
-0.000846882
-0.000853595
-0.00085989
-0.000865469
-0.0008699
-0.000872576
-0.000872644
-0.000868933
-0.000859889
-0.000843576
-0.00081787
-0.000781027
-0.000733112
-0.000677922
-0.000626298
-0.000592193
-0.000597459
-0.00031626
-0.000336435
-0.000356561
-0.00037651
-0.000396154
-0.000415403
-0.000434289
-0.000452867
-0.00047114
-0.000489058
-0.00050656
-0.000523597
-0.000540135
-0.000556149
-0.000571618
-0.000586519
-0.000600828
-0.000614524
-0.00062759
-0.000640018
-0.000651803
-0.000662948
-0.000673461
-0.000683356
-0.000692656
-0.000701389
-0.000709587
-0.000717274
-0.000724467
-0.000731197
-0.000737506
-0.000743456
-0.000749115
-0.000754561
-0.000759875
-0.000765129
-0.00077039
-0.000775711
-0.00078113
-0.000786672
-0.000792349
-0.000798164
-0.000804114
-0.000810194
-0.000816403
-0.000822745
-0.00082923
-0.000835869
-0.000842674
-0.000849651
-0.000856797
-0.000864089
-0.000871474
-0.000878854
-0.00088606
-0.000892824
-0.000898729
-0.00090312
-0.000904978
-0.000902775
-0.000894316
-0.0008767
-0.000846657
-0.000801599
-0.000741927
-0.000673648
-0.000610844
-0.000568735
-0.000567396
-0.000351679
-0.000372962
-0.000394156
-0.00041513
-0.000435747
-0.000455912
-0.000475656
-0.000495033
-0.000514044
-0.000532635
-0.000550737
-0.000568295
-0.000585268
-0.000601629
-0.00061735
-0.000632406
-0.000646769
-0.000660413
-0.000673322
-0.000685482
-0.00069689
-0.000707548
-0.000717467
-0.000726665
-0.000735169
-0.000743015
-0.000750236
-0.000756861
-0.000762925
-0.000768479
-0.000773592
-0.000778346
-0.000782836
-0.00078716
-0.000791412
-0.00079568
-0.000800039
-0.000804545
-0.000809237
-0.000814134
-0.000819242
-0.000824555
-0.000830062
-0.000835751
-0.000841618
-0.00084767
-0.000853925
-0.000860407
-0.000867149
-0.000874187
-0.000881554
-0.000889274
-0.000897353
-0.000905767
-0.000914448
-0.000923246
-0.000931853
-0.00093966
-0.000945544
-0.000947564
-0.000942675
-0.000926733
-0.000895287
-0.000845481
-0.00077897
-0.000704217
-0.000637296
-0.000593777
-0.000590477
-0.000392641
-0.000415155
-0.000437548
-0.00045967
-0.000481381
-0.000502576
-0.000523282
-0.000543556
-0.000563395
-0.000582738
-0.000601509
-0.000619644
-0.000637096
-0.00065383
-0.000669816
-0.000685021
-0.000699415
-0.000712967
-0.000725655
-0.000737465
-0.000748391
-0.000758436
-0.000767614
-0.000775946
-0.000783466
-0.00079021
-0.000796211
-0.000801505
-0.000806148
-0.000810216
-0.000813805
-0.00081703
-0.000820012
-0.000822878
-0.000825748
-0.00082873
-0.000831913
-0.000835364
-0.000839121
-0.0008432
-0.000847595
-0.000852285
-0.000857241
-0.000862438
-0.000867865
-0.00087353
-0.000879463
-0.00088571
-0.000892334
-0.000899412
-0.000907024
-0.000915258
-0.000924209
-0.00093398
-0.000944676
-0.00095636
-0.000968949
-0.000981983
-0.000994219
-0.00100311
-0.00100454
-0.000993239
-0.000964145
-0.000914832
-0.000848417
-0.000775605
-0.000713218
-0.000677252
-0.000679029
-0.000439076
-0.000462867
-0.000486478
-0.000509768
-0.000532587
-0.000554819
-0.00057649
-0.000597654
-0.000618307
-0.000638382
-0.00065779
-0.000676458
-0.000694329
-0.000711361
-0.000727518
-0.000742758
-0.000757044
-0.000770341
-0.000782618
-0.000793858
-0.000804051
-0.000813198
-0.000821313
-0.000828422
-0.000834565
-0.000839782
-0.000844119
-0.00084764
-0.000850434
-0.000852613
-0.000854314
-0.000855688
-0.000856894
-0.000858093
-0.000859434
-0.000861049
-0.00086304
-0.000865479
-0.000868398
-0.000871797
-0.000875641
-0.000879876
-0.000884439
-0.000889276
-0.000894358
-0.000899692
-0.000905329
-0.000911357
-0.00091789
-0.000925052
-0.000932978
-0.000941814
-0.000951745
-0.000963024
-0.000975969
-0.000990903
-0.00100803
-0.00102701
-0.00104636
-0.00106299
-0.00107209
-0.00106771
-0.00104448
-0.00100095
-0.000942517
-0.000881975
-0.000837619
-0.000821124
-0.000833104
-0.000494807
-0.000520128
-0.000545261
-0.000570003
-0.000594195
-0.000617715
-0.000640584
-0.000662856
-0.000684524
-0.000705512
-0.000725723
-0.00074507
-0.000763489
-0.000780927
-0.000797338
-0.000812676
-0.000826892
-0.000839943
-0.000851794
-0.000862418
-0.000871802
-0.000879946
-0.000886861
-0.00089257
-0.000897105
-0.000900499
-0.000902809
-0.00090412
-0.000904555
-0.000904268
-0.000903441
-0.000902278
-0.000900995
-0.000899806
-0.000898916
-0.0008985
-0.000898696
-0.000899591
-0.000901216
-0.000903544
-0.000906498
-0.000909969
-0.00091384
-0.00091802
-0.000922466
-0.0009272
-0.000932314
-0.000937948
-0.00094427
-0.000951453
-0.000959659
-0.000969011
-0.000979673
-0.000991983
-0.00100639
-0.00102335
-0.00104333
-0.00106635
-0.00109121
-0.00111467
-0.00113091
-0.00113313
-0.00111701
-0.00108374
-0.00104217
-0.00100838
-0.000996189
-0.00100636
-0.00103489
-0.000554081
-0.000580912
-0.000607419
-0.000633496
-0.000658972
-0.000683701
-0.000707693
-0.000730998
-0.000753603
-0.000775419
-0.000796334
-0.000816247
-0.000835077
-0.000852761
-0.00086924
-0.000884455
-0.000898344
-0.00091085
-0.000921925
-0.000931531
-0.000939644
-0.000946258
-0.000951385
-0.000955052
-0.000957292
-0.000958158
-0.000957739
-0.000956165
-0.000953606
-0.000950273
-0.000946412
-0.000942298
-0.000938224
-0.000934483
-0.000931353
-0.000929073
-0.000927824
-0.000927705
-0.000928717
-0.000930754
-0.000933622
-0.000937069
-0.00094085
-0.000944795
-0.000948869
-0.00095319
-0.00095797
-0.000963414
-0.000969685
-0.000976969
-0.000985458
-0.000995027
-0.00100544
-0.00101705
-0.00103045
-0.0010463
-0.00106629
-0.0010915
-0.00112014
-0.00114711
-0.00116547
-0.00117016
-0.0011605
-0.00114204
-0.00112689
-0.00112871
-0.00115293
-0.00119177
-0.00123888
-0.000634872
-0.000663507
-0.000691976
-0.0007199
-0.000747101
-0.000773445
-0.000798947
-0.000823656
-0.000847552
-0.00087054
-0.000892489
-0.00091328
-0.000932814
-0.000951013
-0.000967805
-0.000983117
-0.000996871
-0.00100899
-0.00101942
-0.00102809
-0.00103497
-0.00104002
-0.00104323
-0.0010446
-0.00104414
-0.00104193
-0.00103805
-0.00103268
-0.00102602
-0.00101836
-0.00101001
-0.00100134
-0.00099276
-0.000984709
-0.000977608
-0.000971846
-0.00096773
-0.000965433
-0.000964949
-0.000966058
-0.000968338
-0.000971229
-0.000974192
-0.000976892
-0.000979364
-0.000982022
-0.000985434
-0.000989826
-0.000995027
-0.00100106
-0.00100832
-0.00101609
-0.00102317
-0.00103082
-0.00104141
-0.00105615
-0.00107711
-0.00110347
-0.00113017
-0.00115175
-0.00116497
-0.00116906
-0.00116667
-0.00116567
-0.0011773
-0.00120986
-0.00126201
-0.00132138
-0.0013794
-0.000705134
-0.00073601
-0.000766217
-0.000795857
-0.000824737
-0.000852647
-0.000879577
-0.00090558
-0.000930638
-0.000954644
-0.000977453
-0.000998923
-0.00101894
-0.0010374
-0.00105421
-0.00106928
-0.00108251
-0.0010938
-0.00110307
-0.00111025
-0.00111528
-0.0011181
-0.0011187
-0.00111705
-0.00111319
-0.00110718
-0.00109917
-0.00108937
-0.00107806
-0.0010656
-0.00105241
-0.00103902
-0.00102598
-0.0010139
-0.00100344
-0.000995195
-0.000989687
-0.00098722
-0.000987778
-0.000990907
-0.000995666
-0.00100076
-0.00100495
-0.00100758
-0.00100881
-0.00100973
-0.00101166
-0.00101452
-0.00101681
-0.0010183
-0.00102086
-0.00102446
-0.00102758
-0.0010333
-0.00104499
-0.00106146
-0.00108005
-0.001099
-0.00111599
-0.00112858
-0.00113595
-0.0011394
-0.0011435
-0.00115587
-0.00118453
-0.00123346
-0.00129843
-0.00136647
-0.00142757
-0.00083005
-0.000862547
-0.00089521
-0.000927242
-0.000958371
-0.000988432
-0.00101741
-0.00104534
-0.00107218
-0.00109781
-0.00112205
-0.00114474
-0.00116574
-0.00118494
-0.00120222
-0.00121746
-0.0012305
-0.00124119
-0.00124938
-0.00125496
-0.00125778
-0.00125775
-0.00125478
-0.00124884
-0.00123993
-0.00122815
-0.00121363
-0.00119663
-0.00117746
-0.00115659
-0.00113458
-0.00111216
-0.00109016
-0.0010695
-0.00105121
-0.00103639
-0.00102604
-0.00102097
-0.00102144
-0.00102684
-0.00103526
-0.00104369
-0.0010493
-0.00105062
-0.00104804
-0.00104379
-0.00104104
-0.0010398
-0.00103698
-0.00103253
-0.00103055
-0.00103301
-0.00103848
-0.0010453
-0.00105353
-0.00106345
-0.00107397
-0.00108367
-0.00109092
-0.0010947
-0.00109557
-0.00109591
-0.00110057
-0.00111598
-0.00114814
-0.00119986
-0.00126684
-0.00133724
-0.00139947
-0.000909842
-0.000945496
-0.000979738
-0.00101351
-0.00104655
-0.00107848
-0.00110924
-0.00113888
-0.00116734
-0.00119445
-0.00122
-0.0012438
-0.00126569
-0.00128555
-0.00130328
-0.00131883
-0.00133203
-0.0013427
-0.00135062
-0.00135554
-0.00135725
-0.00135556
-0.00135029
-0.00134129
-0.00132846
-0.00131173
-0.00129115
-0.00126683
-0.00123903
-0.0012082
-0.00117501
-0.00114043
-0.00110575
-0.00107258
-0.00104277
-0.0010183
-0.00100114
-0.000992879
-0.000994285
-0.00100455
-0.0010203
-0.00103569
-0.00104608
-0.00104974
-0.00104765
-0.00104303
-0.00104036
-0.00104107
-0.00104373
-0.00104597
-0.00104731
-0.00104892
-0.00105146
-0.00105448
-0.00105804
-0.00106191
-0.00106526
-0.00106678
-0.00106534
-0.00106066
-0.00105387
-0.00104794
-0.00104797
-0.00106016
-0.00108968
-0.00113745
-0.00120007
-0.00126876
-0.00133156
-0.00110027
-0.00113917
-0.00117836
-0.00121623
-0.00125241
-0.00128707
-0.00132041
-0.00135248
-0.00138314
-0.00141218
-0.00143933
-0.00146434
-0.00148695
-0.00150691
-0.00152388
-0.00153757
-0.00154775
-0.0015543
-0.0015571
-0.00155609
-0.00155119
-0.00154226
-0.00152918
-0.00151177
-0.00148985
-0.00146329
-0.00143202
-0.00139611
-0.00135582
-0.00131169
-0.00126452
-0.00121549
-0.0011662
-0.00111868
-0.00107529
-0.00103857
-0.00101089
-0.000994193
-0.000989423
-0.000995911
-0.00101026
-0.00102636
-0.00103933
-0.00104751
-0.00105091
-0.00105072
-0.00104914
-0.00104863
-0.00104981
-0.00105156
-0.00105316
-0.00105465
-0.00105611
-0.00105727
-0.00105802
-0.00105808
-0.00105669
-0.00105287
-0.00104582
-0.0010353
-0.00102253
-0.0010114
-0.00100774
-0.00101583
-0.00103745
-0.00107606
-0.0011324
-0.001198
-0.00126192
0.000164815
0.00017033
0.000176049
0.000181991
0.000188187
0.000194688
0.000201443
0.000208289
0.000215222
0.000222368
0.00022972
0.000237126
0.000244434
0.000252274
0.000259422
0.000266303
0.000272323
0.00027866
0.000284209
0.000289336
0.000294117
0.000297238
0.000299409
0.000300376
0.000300305
0.000298902
0.000295734
0.000291439
0.00028593
0.000278941
0.000269957
0.000260123
0.000249308
0.000237472
0.000223886
0.000209709
0.000194996
0.000179631
0.000163952
0.000148236
0.000132241
0.000116122
0.000100591
8.56347e-05
7.01172e-05
5.56308e-05
4.1163e-05
2.77355e-05
1.47663e-05
2.53232e-06
-8.97722e-06
-1.98994e-05
-3.00603e-05
-3.94796e-05
-4.82926e-05
-5.6903e-05
-6.45843e-05
-7.17521e-05
-7.82568e-05
0.000168145
0.00017394
0.000179991
0.000186268
0.000192809
0.000199616
0.000206659
0.000213889
0.000221303
0.000228927
0.000236672
0.000244441
0.000252222
0.000260098
0.000267843
0.000275142
0.000282062
0.000288697
0.000294746
0.000300072
0.000304812
0.000308336
0.000310731
0.000312033
0.000312084
0.000310529
0.000307502
0.000302953
0.000297278
0.000289886
0.000280774
0.000270614
0.000259474
0.000246871
0.000233061
0.000218388
0.00020307
0.000187102
0.000170807
0.000154276
0.000137505
0.000120822
0.000104499
8.82736e-05
7.24842e-05
5.71426e-05
4.23479e-05
2.83284e-05
1.48789e-05
2.0706e-06
-9.99622e-06
-2.13548e-05
-3.20818e-05
-4.20846e-05
-5.15282e-05
-6.02252e-05
-6.81914e-05
-7.54915e-05
-8.21708e-05
0.000171179
0.000177316
0.000183711
0.000190382
0.000197322
0.000204527
0.000211977
0.000219652
0.000227543
0.00023563
0.000243838
0.000252079
0.00026033
0.000268579
0.000276724
0.000284645
0.000292253
0.000299365
0.000305801
0.000311534
0.000316428
0.000320335
0.000323028
0.000324506
0.000324628
0.000323067
0.000319984
0.000315372
0.000309347
0.000301715
0.000292429
0.000281888
0.000270077
0.000256922
0.000242605
0.000227389
0.000211403
0.000194793
0.000177757
0.00016047
0.000143026
0.000125558
0.000108274
9.13801e-05
7.49246e-05
5.90072e-05
4.36637e-05
2.89565e-05
1.49045e-05
1.54268e-06
-1.10679e-05
-2.29477e-05
-3.41131e-05
-4.45833e-05
-5.42899e-05
-6.32424e-05
-7.14955e-05
-7.90955e-05
-8.60888e-05
0.000173888
0.000180371
0.000187143
0.000194218
0.00020158
0.000209226
0.00021714
0.000225305
0.0002337
0.000242292
0.000251025
0.000259834
0.000268668
0.000277464
0.000286112
0.000294557
0.000302656
0.000310251
0.000317178
0.0003234
0.000328694
0.000332916
0.000335883
0.000337529
0.000337741
0.000336243
0.000333113
0.00032839
0.000322084
0.000314206
0.000304626
0.000293629
0.000281217
0.000267514
0.000252593
0.00023671
0.000220013
0.000202658
0.000184826
0.000166729
0.000148505
0.000130294
0.00011227
9.46574e-05
7.74822e-05
6.08546e-05
4.48335e-05
2.94679e-05
1.48075e-05
8.87003e-07
-1.22567e-05
-2.46171e-05
-3.61938e-05
-4.7002e-05
-5.70443e-05
-6.63498e-05
-7.49529e-05
-8.28991e-05
-9.0197e-05
0.000176642
0.000183495
0.000190655
0.000198136
0.000205926
0.000214019
0.000222404
0.000231064
0.000239972
0.000249094
0.000258379
0.000267767
0.000277194
0.00028657
0.000295791
0.00030477
0.000313379
0.000321481
0.00032893
0.00033563
0.000341355
0.000345923
0.00034918
0.000351028
0.000351357
0.000349932
0.000346783
0.000341937
0.0003354
0.000327238
0.000317305
0.000305837
0.000292878
0.000278571
0.000262994
0.000246376
0.000228907
0.000210755
0.000192103
0.000173163
0.000154115
0.000135125
0.000116344
9.79301e-05
7.99749e-05
6.25784e-05
4.5824e-05
2.97724e-05
1.44722e-05
-4.0971e-08
-1.37403e-05
-2.66158e-05
-3.86733e-05
-4.99281e-05
-6.04016e-05
-7.01167e-05
-7.90956e-05
-8.73832e-05
-9.49831e-05
0.000179491
0.000186742
0.000194317
0.000202232
0.000210475
0.000219041
0.000227919
0.000237091