/*--------------------------------*- C++ -*----------------------------------*\
| =========                 |                                                 |
| \\      /  F ield         | OpenFOAM: The Open Source CFD Toolbox           |
|  \\    /   O peration     | Version:  2312                                  |
|   \\  /    A nd           | Website:  www.openfoam.com                      |
|    \\/     M anipulation  |                                                 |
\*---------------------------------------------------------------------------*/
FoamFile
{
    version     2.0;
    format      ascii;
    arch        "LSB;label=32;scalar=64";
    class       surfaceScalarField;
    location    "900";
    object      phi;
}
// * * * * * * * * * * * * * * * * * * * * * * * * * * * * * * * * * * * * * //

dimensions      [0 3 -1 0 0 0 0];

oriented        oriented;

internalField   nonuniform List<scalar> 
116611
(
0.00132164
0.000407222
-0.00130563
-0.000423225
0.00133746
0.000402248
-0.000418064
0.00135314
0.000396962
-0.000412646
0.00136867
0.000391334
-0.000406865
0.00138402
0.000385284
-0.000400635
0.00139945
0.000378772
-0.0003942
0.00141404
0.000371833
-0.000386421
0.0014288
0.000364438
-0.000379199
0.00144322
0.00035659
-0.000371014
0.00145758
0.000348323
-0.000362686
0.00147162
0.000339511
-0.000353547
0.00148542
0.000330191
-0.000343985
0.00149889
0.000320332
-0.000333804
0.00151226
0.000309904
-0.000323275
0.00152534
0.000298963
-0.000312042
0.00153802
0.000287544
-0.000300225
0.00155046
0.000275378
-0.000287816
0.00156247
0.000262769
-0.000274779
0.00157395
0.000249341
-0.000260822
0.00158513
0.000235522
-0.000246706
0.0015961
0.000220827
-0.000231797
0.00160667
0.000205582
-0.000216146
0.00161686
0.000189637
-0.000199832
0.0016267
0.000173005
-0.000182848
0.00163601
0.000155648
-0.000164955
0.00164499
0.000137506
-0.000146484
0.00165356
0.000118519
-0.000127088
0.00166121
9.88632e-05
-0.000106518
0.0016687
7.83436e-05
-8.58348e-05
0.00167494
5.70133e-05
-6.32498e-05
0.00168117
3.51607e-05
-4.13861e-05
0.00168686
1.21284e-05
-1.78168e-05
0.00169181
-1.1746e-05
6.79473e-06
0.001696
-3.63188e-05
3.21217e-05
0.00169937
-6.19645e-05
5.85968e-05
0.001702
-8.83273e-05
8.56993e-05
0.00170409
-0.000115782
0.000113687
0.00170563
-0.000143962
0.000142423
0.00170649
-0.00017311
0.000172254
0.00170635
-0.000203437
0.00020358
0.00170546
-0.000234547
0.000235431
0.00170418
-0.000266721
0.000268005
0.0017025
-0.000299766
0.000301445
0.0016996
-0.000333961
0.000336856
0.00169616
-0.000369157
0.000372602
0.0016919
-0.000405384
0.000409647
0.0016875
-0.000442592
0.000446986
0.00168178
-0.000481077
0.000486803
0.00167548
-0.000520645
0.000526945
0.00166832
-0.000561289
0.000568445
0.00166034
-0.000603035
0.000611018
0.00165193
-0.000645781
0.000654192
0.00164293
-0.000689703
0.000698696
0.00163315
-0.000734921
0.000744707
0.00162254
-0.000781306
0.000791916
0.00161123
-0.000828994
0.000840304
0.00159946
-0.000877935
0.000889705
0.00158701
-0.000928257
0.000940703
0.00157394
-0.000979801
0.000992869
0.00156051
-0.00103238
0.00104581
0.00154719
-0.00108601
0.00109933
0.00153385
-0.00114138
0.00115472
0.00151993
-0.00119823
0.00121215
0.00150637
-0.00125619
0.00126976
0.0014932
-0.00131525
0.00132842
0.0014793
-0.00137601
0.00138991
0.00146757
-0.00143756
0.0014493
0.00145852
-0.00149915
0.0015082
-0.00156891
0.00144683
0.00158061
0.00130591
0.000391322
-0.00129001
0.00132164
0.000386513
0.00133722
0.000381381
0.00135267
0.000375889
0.00136798
0.00036997
0.00138309
0.00036367
0.00139796
0.000356962
0.00141259
0.000349805
0.00142697
0.000342207
0.00144117
0.000334123
0.00145513
0.000325554
0.00146883
0.000316492
0.00148225
0.000306914
0.00149536
0.000296794
0.00150815
0.000286168
0.00152073
0.000274966
0.0015329
0.000263204
0.00154482
0.000250848
0.00155626
0.000237905
0.00156745
0.000224335
0.00157816
0.000210115
0.00158849
0.000195255
0.0015984
0.000179722
0.00160791
0.000163495
0.001617
0.000146557
0.00162565
0.000128859
0.00163374
0.000110431
0.00164135
9.12503e-05
0.00164842
7.12787e-05
0.00165488
5.05465e-05
0.00166103
2.90096e-05
0.00166656
6.60361e-06
0.00167145
-1.66318e-05
0.00167579
-4.06623e-05
0.00167943
-6.56017e-05
0.00168251
-9.14158e-05
0.00168488
-0.000118145
0.00168665
-0.000145732
0.0016878
-0.000174265
0.00168817
-0.000203807
0.00168792
-0.000234298
0.00168695
-0.000265751
0.00168533
-0.000298139
0.00168294
-0.000331578
0.00167986
-0.000366074
0.00167607
-0.000401597
0.00167163
-0.000438146
0.00166636
-0.000475814
0.00166034
-0.00051462
0.00165355
-0.000554498
0.00164599
-0.000595479
0.00163778
-0.000637566
0.00162888
-0.000680807
0.00161925
-0.000725294
0.001609
-0.000771052
0.00159811
-0.000818106
0.00158661
-0.000866433
0.00157447
-0.000916112
0.00156177
-0.000967103
0.00154876
-0.00101938
0.00153572
-0.00107297
0.00152242
-0.00112809
0.00150893
-0.00118474
0.00149555
-0.00124282
0.0014826
-0.0013023
0.00146987
-0.00136328
0.001458
-0.00142569
0.00144723
-0.00148839
-0.00155779
0.0014361
0.00129096
0.000375502
-0.00127514
0.00130663
0.000370849
0.00132213
0.000365875
0.00133748
0.000360537
0.00135264
0.000354812
0.00136762
0.00034869
0.00138242
0.000342162
0.00139701
0.000335214
0.00141139
0.000327832
0.00142552
0.000319994
0.00143939
0.000311684
0.00145299
0.000302889
0.00146631
0.000293596
0.00147931
0.000283788
0.00149203
0.000273452
0.00150443
0.000262568
0.0015165
0.000251128
0.00152824
0.000239113
0.00153963
0.000226511
0.00155066
0.000213302
0.0015613
0.000199475
0.00157155
0.000185007
0.00158139
0.000169881
0.00159081
0.000154077
0.00159979
0.000137576
0.00160829
0.000120361
0.00161631
0.000102415
0.00162384
8.37198e-05
0.00163086
6.42609e-05
0.00163738
4.40236e-05
0.0016434
2.2989e-05
0.00164887
1.13409e-06
0.00165377
-2.15298e-05
0.00165811
-4.50052e-05
0.00166184
-6.93361e-05
0.00166497
-9.45421e-05
0.00166746
-0.000120632
0.00166934
-0.000147616
0.0016706
-0.000175522
0.00167117
-0.00020438
0.00167106
-0.000234192
0.00167027
-0.000264956
0.00166882
-0.000296689
0.00166668
-0.000329434
0.00166381
-0.000363205
0.00166021
-0.000398004
0.00165591
-0.000433845
0.00165087
-0.00047077
0.00164505
-0.000508803
0.00163849
-0.000547934
0.00163119
-0.000588184
0.00162321
-0.00062958
0.00161456
-0.000672158
0.00160524
-0.000715975
0.00159526
-0.00076107
0.00158462
-0.000807469
0.00157338
-0.000855193
0.00156156
-0.000904298
0.00154926
-0.000954795
0.00153658
-0.0010067
0.00152367
-0.00106006
0.00151057
-0.00111499
0.00149739
-0.00117156
0.00148431
-0.00122973
0.00147155
-0.00128954
0.00145923
-0.00135096
0.00144771
-0.00141417
0.00143728
-0.00147796
-0.00154805
0.00142754
0.00127677
0.000359808
-0.00126108
0.00129233
0.000355292
0.00130773
0.000350473
0.00132297
0.0003453
0.00133802
0.000339754
0.0013529
0.000333819
0.00136757
0.000327483
0.00138205
0.000320736
0.00139632
0.000313566
0.00141035
0.000305958
0.00142414
0.000297897
0.00143767
0.000289365
0.00145091
0.000280349
0.00146387
0.000270833
0.00147652
0.000260801
0.00148885
0.000250239
0.00150085
0.00023913
0.0015125
0.000227459
0.0015238
0.000215209
0.00153474
0.000202367
0.00154529
0.000188916
0.00155546
0.000174838
0.00156523
0.000160117
0.00157457
0.000144733
0.00158348
0.000128669
0.00159193
0.000111907
0.00159992
9.44258e-05
0.00160743
7.62099e-05
0.00161445
5.72432e-05
0.00162096
3.75079e-05
0.00162697
1.69865e-05
0.00163245
-4.34841e-06
0.00163737
-2.64493e-05
0.00164173
-4.93625e-05
0.0016455
-7.31102e-05
0.00164867
-9.77169e-05
0.00165124
-0.000123197
0.00165319
-0.000149566
0.00165451
-0.00017684
0.00165517
-0.000205042
0.00165516
-0.000234186
0.00165449
-0.000264281
0.00165314
-0.000295343
0.0016511
-0.000327396
0.00164836
-0.000360459
0.0016449
-0.00039455
0.00164074
-0.000429684
0.00163586
-0.000465888
0.00163025
-0.000503188
0.00162391
-0.000541597
0.00161686
-0.000581136
0.00160912
-0.000621836
0.00160069
-0.000663731
0.00159158
-0.000706867
0.0015818
-0.000751289
0.00157137
-0.000797036
0.00156032
-0.000844146
0.00154869
-0.00089267
0.00153655
-0.000942653
0.001524
-0.000994145
0.00151116
-0.00104722
0.00149812
-0.00110196
0.00148503
-0.00115846
0.00147205
-0.00121675
0.00145941
-0.0012769
0.00144733
-0.00133888
0.00143608
-0.00140292
0.0014259
-0.00146777
-0.00153909
0.00141694
0.00126352
0.000344292
-0.001248
0.00127892
0.000339894
0.00129418
0.000335213
0.00130928
0.000330196
0.00132422
0.000324819
0.00133897
0.000319068
0.00135352
0.000312928
0.00136787
0.000306387
0.00138201
0.000299432
0.00139591
0.00029205
0.00140958
0.000284227
0.001423
0.000275949
0.00143615
0.0002672
0.00144902
0.000257966
0.00146159
0.000248232
0.00147384
0.000237982
0.00148577
0.000227199
0.00149736
0.000215869
0.0015086
0.000203974
0.00151947
0.000191498
0.00152996
0.000178425
0.00154006
0.000164738
0.00154976
0.00015042
0.00155904
0.000135453
0.00156789
0.000119819
0.0015763
0.0001035
0.00158424
8.64775e-05
0.00159172
6.87343e-05
0.00159871
5.02528e-05
0.0016052
3.10146e-05
0.00161119
1.10005e-05
0.00161665
-9.81043e-06
0.00162156
-3.13581e-05
0.00162591
-5.37115e-05
0.00162969
-7.68881e-05
0.00163288
-0.000100909
0.00163547
-0.000125791
0.00163746
-0.00015155
0.00163882
-0.000178204
0.00163955
-0.00020577
0.00163963
-0.000234265
0.00163905
-0.000263704
0.00163781
-0.000294102
0.0016359
-0.00032548
0.00163329
-0.000357858
0.00163
-0.000391255
0.00162601
-0.00042569
0.0016213
-0.000461187
0.00161589
-0.00049777
0.00160975
-0.000535461
0.0016029
-0.000574286
0.00159534
-0.000614275
0.00158708
-0.000655468
0.00157812
-0.000697905
0.00156846
-0.000741636
0.00155814
-0.000786709
0.00154716
-0.000833175
0.00153559
-0.000881096
0.00152348
-0.000930542
0.00151092
-0.000981588
0.00149804
-0.00103433
0.00148495
-0.00108887
0.0014718
-0.00114531
0.0014588
-0.00120375
0.00144617
-0.00126427
0.00143416
-0.00132687
0.00142306
-0.00139183
0.00141313
-0.00145784
-0.00153086
0.0014049
0.0012512
0.000328936
-0.00123584
0.00126643
0.000324657
0.00128154
0.000320109
0.0012965
0.000315238
0.00131129
0.000310023
0.00132591
0.000304448
0.00134034
0.000298499
0.00135457
0.000292163
0.00136857
0.000285425
0.00138235
0.000278272
0.00139589
0.000270689
0.00140918
0.000262662
0.0014222
0.000254178
0.00143494
0.000245222
0.0014474
0.000235778
0.00145955
0.000225832
0.00147138
0.000215368
0.00148287
0.00020437
0.00149403
0.000192822
0.00150482
0.000180706
0.00151524
0.000168007
0.00152527
0.000154707
0.0015349
0.000140789
0.00154411
0.000126235
0.00155291
0.000111027
0.00156126
9.51478e-05
0.00156916
7.85786e-05
0.00157659
6.13016e-05
0.00158354
4.32984e-05
0.00159001
2.45503e-05
0.00159597
5.03762e-06
0.0016014
-1.52408e-05
0.0016063
-3.62527e-05
0.00161064
-5.80557e-05
0.00161443
-8.06728e-05
0.00161764
-0.000104121
0.00162027
-0.000128418
0.0016223
-0.000153581
0.00162372
-0.000179627
0.00162452
-0.000206572
0.00162469
-0.000234433
0.00162421
-0.000263227
0.00162308
-0.000292972
0.00162129
-0.000323685
0.00161882
-0.000355388
0.00161566
-0.000388099
0.00161181
-0.000421839
0.00160725
-0.000456632
0.00160199
-0.0004925
0.00159599
-0.000529471
0.00158928
-0.000567571
0.00158184
-0.000606834
0.00157367
-0.000647299
0.00156478
-0.000689011
0.00155516
-0.000732022
0.00154484
-0.000776389
0.00153385
-0.000822178
0.00152222
-0.000869467
0.00151002
-0.000918344
0.00149734
-0.000968911
0.0014843
-0.00102129
0.00147103
-0.0010756
0.0014577
-0.00113198
0.00144451
-0.00119057
0.00143172
-0.00125147
0.00141958
-0.00131474
0.00140843
-0.00138068
0.00139852
-0.00144793
-0.00152246
0.00139011
0.00123964
0.00031369
-0.00122439
0.00125475
0.000309543
0.00126973
0.000305135
0.00128455
0.000300414
0.00129921
0.00029536
0.0013137
0.000289958
0.00132801
0.000284196
0.00134211
0.000278061
0.001356
0.000271537
0.00136966
0.000264612
0.00138307
0.00025727
0.00139624
0.000249497
0.00140914
0.000241279
0.00142176
0.000232601
0.00143409
0.000223448
0.00144612
0.000213805
0.00145783
0.000203657
0.00146921
0.000192987
0.00148025
0.000181779
0.00149094
0.000170018
0.00150126
0.000157687
0.0015112
0.000144767
0.00152075
0.000131243
0.00152989
0.000117095
0.00153861
0.000102308
0.00154689
8.68612e-05
0.00155474
7.07381e-05
0.00156212
5.39196e-05
0.00156903
3.63873e-05
0.00157546
1.8122e-05
0.00158139
-8.97516e-07
0.00158679
-2.06425e-05
0.00159167
-4.11307e-05
0.00159601
-6.23957e-05
0.0015998
-8.44635e-05
0.00160303
-0.000107351
0.00160569
-0.000131075
0.00160776
-0.000155652
0.00160923
-0.0001811
0.0016101
-0.000207435
0.00161034
-0.000234674
0.00160994
-0.000262834
0.00160891
-0.000291934
0.00160721
-0.00032199
0.00160485
-0.000353023
0.0016018
-0.000385052
0.00159806
-0.000418098
0.00159361
-0.000452183
0.00158844
-0.000487332
0.00158254
-0.000523571
0.0015759
-0.00056093
0.00156851
-0.000599445
0.00156037
-0.000639156
0.00155147
-0.000680113
0.00154182
-0.000722374
0.00153143
-0.000766003
0.00152034
-0.000811081
0.00150857
-0.0008577
0.00149619
-0.000905967
0.00148329
-0.000956009
0.00146997
-0.00100797
0.00145638
-0.00106201
0.00144268
-0.00111829
0.00142911
-0.00117699
0.00141592
-0.00123828
0.00140343
-0.00130224
0.00139199
-0.00136924
0.00138186
-0.0014378
-0.00151363
0.00137304
0.00122873
0.000298523
-0.00121356
0.00124376
0.000294518
0.00125863
0.00029026
0.00127335
0.000285698
0.0012879
0.000280811
0.00130227
0.000275587
0.00131645
0.000270013
0.00133043
0.000264077
0.00134421
0.000257766
0.00135775
0.000251066
0.00137106
0.000243964
0.00138411
0.000236443
0.0013969
0.000228491
0.00140941
0.000220091
0.00142163
0.000211229
0.00143355
0.000201889
0.00144515
0.000192056
0.00145642
0.000181714
0.00146735
0.000170847
0.00147793
0.000159438
0.00148815
0.00014747
0.00149799
0.000134928
0.00150744
0.000121792
0.00151649
0.000108047
0.00152512
9.36734e-05
0.00153333
7.86536e-05
0.0015411
6.29694e-05
0.00154842
4.66023e-05
0.00155527
2.95335e-05
0.00156165
1.1744e-05
0.00156754
-6.78619e-06
0.0015729
-2.60096e-05
0.00157775
-4.5981e-05
0.00158208
-6.67194e-05
0.00158586
-8.82478e-05
0.0015891
-0.000110584
0.00159177
-0.000133745
0.00159386
-0.000157747
0.00159537
-0.000182607
0.00159627
-0.000208341
0.00159657
-0.000234966
0.00159623
-0.0002625
0.00159526
-0.000290959
0.00159363
-0.000320362
0.00159133
-0.000350726
0.00158835
-0.000382072
0.00158467
-0.000414419
0.00158028
-0.000447791
0.00157516
-0.00048221
0.0015693
-0.000517706
0.00156267
-0.000554309
0.00155529
-0.000592057
0.00154712
-0.000630992
0.00153818
-0.000671169
0.00152845
-0.000712649
0.00151796
-0.000755506
0.0015067
-0.000799829
0.00149473
-0.000845725
0.00148208
-0.00089332
0.00146883
-0.000942762
0.00145509
-0.000994225
0.00144099
-0.0010479
0.00142671
-0.00110401
0.00141249
-0.00116277
0.00139862
-0.00122441
0.00138547
-0.00128909
0.00137342
-0.00135719
0.00136279
-0.00142717
-0.00150439
0.00135355
0.00121847
0.000283434
-0.00120338
0.00123342
0.000279573
0.00124821
0.00027547
0.00126283
0.000271073
0.00127729
0.00026636
0.00129155
0.000261319
0.00130563
0.000255938
0.0013195
0.000250205
0.00133316
0.000244109
0.00134659
0.000237635
0.00135978
0.00023077
0.00137273
0.0002235
0.0013854
0.000215811
0.00139781
0.000207687
0.00140992
0.000199115
0.00142173
0.000190077
0.00143323
0.000180559
0.0014444
0.000170544
0.00145523
0.000160016
0.00146571
0.000148958
0.00147583
0.000137354
0.00148557
0.000125187
0.00149492
0.000112439
0.00150388
9.90922e-05
0.00151242
8.51292e-05
0.00152054
7.05318e-05
0.00152823
5.52816e-05
0.00153547
3.93601e-05
0.00154226
2.27487e-05
0.00154857
5.42805e-06
0.00155439
-1.26076e-05
0.00155971
-3.13282e-05
0.00156452
-5.07884e-05
0.00156881
-7.10083e-05
0.00157257
-9.20059e-05
0.00157578
-0.0001138
0.00157844
-0.000136405
0.00158054
-0.00015984
0.00158205
-0.000184119
0.00158297
-0.000209259
0.00158328
-0.000235276
0.00158296
-0.000262188
0.00158201
-0.00029001
0.00158041
-0.000318761
0.00157814
-0.000348458
0.00157519
-0.00037912
0.00157154
-0.000410767
0.00156717
-0.000443422
0.00156207
-0.000477108
0.00155622
-0.000511853
0.0015496
-0.000547689
0.00154219
-0.000584655
0.001534
-0.000622794
0.00152499
-0.000662162
0.00151516
-0.000702824
0.00150452
-0.00074486
0.00149306
-0.000788367
0.00148079
-0.000833463
0.00146777
-0.000880292
0.00145403
-0.000929028
0.00143968
-0.000979873
0.00142484
-0.00103307
0.00140971
-0.00108887
0.00139453
-0.00114759
0.00137965
-0.00120953
0.00136547
-0.00127492
0.00135235
-0.00134407
0.00134052
-0.00141534
-0.00149239
0.00132853
0.00120893
0.000268434
-0.00119393
0.00122379
0.000264715
0.00123849
0.000260768
0.00125303
0.000256536
0.00126739
0.000252
0.00128156
0.000247147
0.00129553
0.000241964
0.0013093
0.000236439
0.00132285
0.000230561
0.00133617
0.000224317
0.00134924
0.000217692
0.00136207
0.000210674
0.00137463
0.000203248
0.00138692
0.000195401
0.00139892
0.000187116
0.00141062
0.000178379
0.001422
0.000169173
0.00143306
0.000159484
0.00144378
0.000149293
0.00145416
0.000138585
0.00146417
0.000127343
0.00147381
0.000115549
0.00148306
0.000103186
0.00149192
9.02359e-05
0.00150036
7.66809e-05
0.00150839
6.25028e-05
0.00151599
4.76833e-05
0.00152315
3.22036e-05
0.00152985
1.60451e-05
0.00153609
-8.12968e-07
0.00154183
-1.83485e-05
0.00154708
-3.65783e-05
0.00155183
-5.55349e-05
0.00155606
-7.52418e-05
0.00155977
-9.57155e-05
0.00156295
-0.000116973
0.00156557
-0.00013903
0.00156764
-0.000161903
0.00156913
-0.000185608
0.00157003
-0.00021016
0.00157033
-0.000235576
0.00157001
-0.000261871
0.00156906
-0.000289063
0.00156747
-0.000317167
0.00156521
-0.000346201
0.00156228
-0.000376184
0.00155864
-0.000407134
0.00155429
-0.000439073
0.00154921
-0.000472024
0.00154337
-0.000506013
0.00153675
-0.000541073
0.00152934
-0.000577239
0.0015211
-0.000614557
0.00151202
-0.000653079
0.00150207
-0.000692873
0.00149123
-0.000734022
0.00147949
-0.000776629
0.00146685
-0.000820822
0.00145332
-0.000866761
0.00143894
-0.000914644
0.00142377
-0.000964709
0.00140795
-0.00101724
0.00139166
-0.00107258
0.00137518
-0.00113112
0.0013589
-0.00119324
0.00134325
-0.00125927
0.00132846
-0.00132928
0.00131425
-0.00140114
-0.00147545
0.00129731
0.00120018
0.000253528
-0.00118527
0.00121494
0.000249952
0.00122955
0.00024616
0.00124399
0.000242095
0.00125825
0.000237737
0.00127233
0.000233072
0.0012862
0.000228089
0.00129987
0.000222776
0.00131331
0.000217121
0.00132651
0.000211109
0.00133948
0.000204729
0.00135218
0.000197967
0.00136462
0.000190808
0.00137679
0.000183238
0.00138866
0.000175243
0.00140023
0.000166807
0.00141149
0.000157914
0.00142243
0.000148549
0.00143302
0.000138695
0.00144327
0.000128335
0.00145316
0.000117453
0.00146268
0.000106031
0.00147182
9.40503e-05
0.00148056
8.14944e-05
0.0014889
6.83448e-05
0.00149682
5.45831e-05
0.00150431
4.0191e-05
0.00151136
2.51497e-05
0.00151797
9.4407e-06
0.00152411
-6.95429e-06
0.00152976
-2.39978e-05
0.00153492
-4.17409e-05
0.00153959
-6.02019e-05
0.00154375
-7.9402e-05
0.00154739
-9.93583e-05
0.0015505
-0.000120087
0.00155308
-0.000141603
0.0015551
-0.000163923
0.00155655
-0.000187061
0.00155742
-0.000211034
0.0015577
-0.000235857
0.00155738
-0.000261545
0.00155643
-0.000288114
0.00155484
-0.000315579
0.0015526
-0.000343959
0.00154968
-0.000373268
0.00154607
-0.000403525
0.00154175
-0.00043475
0.00153669
-0.000466964
0.00153087
-0.000500191
0.00152426
-0.00053446
0.00151682
-0.000569805
0.00150853
-0.000606267
0.00149935
-0.000643899
0.00148924
-0.000682764
0.00147817
-0.000722946
0.00146609
-0.000764551
0.00145298
-0.000807714
0.00143883
-0.00085261
0.00142364
-0.000899457
0.00140746
-0.000948532
0.0013904
-0.00100018
0.00137264
-0.00105482
0.00135448
-0.00111296
0.00133635
-0.00117511
0.00131864
-0.00124157
0.00130124
-0.00131188
0.00128267
-0.00138257
-0.0014496
0.00125682
0.00119224
0.000238715
-0.00117743
0.00120691
0.000235283
0.00122143
0.000231647
0.00123577
0.000227751
0.00124993
0.000223572
0.00126391
0.000219098
0.00127768
0.000214317
0.00129124
0.000209218
0.00130457
0.000203787
0.00131767
0.000198012
0.00133052
0.00019188
0.00134311
0.000185377
0.00135543
0.000178489
0.00136746
0.000171201
0.00137921
0.000163498
0.00139065
0.000155367
0.00140177
0.000146789
0.00141257
0.000137751
0.00142303
0.000128235
0.00143314
0.000118224
0.00144289
0.000107702
0.00145227
9.66499e-05
0.00146127
8.50514e-05
0.00146988
7.2888e-05
0.00147808
6.01414e-05
0.00148587
4.67934e-05
0.00149324
3.28254e-05
0.00150017
1.82187e-05
0.00150666
2.95419e-06
0.00151267
-1.29695e-05
0.00151821
-2.95389e-05
0.00152327
-4.68e-05
0.00152784
-6.47725e-05
0.00153191
-8.34737e-05
0.00153548
-0.00010292
0.00153852
-0.000123128
0.00154103
-0.000144113
0.00154299
-0.000165889
0.0015444
-0.000188471
0.00154524
-0.000211874
0.0015455
-0.000236114
0.00154516
-0.000261205
0.00154421
-0.000287161
0.00154263
-0.000313997
0.0015404
-0.000341729
0.0015375
-0.000370371
0.00153391
-0.00039994
0.00152961
-0.000430451
0.00152458
-0.000461925
0.00151876
-0.00049438
0.00151215
-0.000527843
0.00150468
-0.000562342
0.00149633
-0.000597914
0.00148704
-0.000634606
0.00147675
-0.000672476
0.00146541
-0.000711605
0.00145295
-0.000752095
0.00143932
-0.000794084
0.00142447
-0.000837752
0.00140835
-0.000883337
0.00139097
-0.000931155
0.00137241
-0.000981621
0.00135286
-0.00103527
0.00133262
-0.00109273
0.00131208
-0.00115457
0.00129136
-0.00122085
0.00126947
-0.00128998
0.00124269
-0.00135579
-0.00140977
0.00120286
0.00118516
0.000223993
-0.00117044
0.00119974
0.000220707
0.00121415
0.00021723
0.0012284
0.000213503
0.00124247
0.000209506
0.00125634
0.000205225
0.00127001
0.000200649
0.00128346
0.000195766
0.00129668
0.000190563
0.00130967
0.000185028
0.0013224
0.000179147
0.00133487
0.000172906
0.00134707
0.000166292
0.00135898
0.00015929
0.00137059
0.000151885
0.0013819
0.000144061
0.00139289
0.000135803
0.00140354
0.000127094
0.00141386
0.000117919
0.00142382
0.00010826
0.00143343
9.80989e-05
0.00144266
8.74194e-05
0.00145151
7.6203e-05
0.00145996
6.44318e-05
0.00146802
5.20874e-05
0.00147566
3.91512e-05
0.00148288
2.56047e-05
0.00148967
1.1429e-05
0.00149602
-3.3942e-06
0.00150189
-1.88448e-05
0.0015073
-3.49508e-05
0.00151224
-5.17385e-05
0.0015167
-6.92296e-05
0.00152067
-8.74402e-05
0.00152413
-0.000106386
0.00152709
-0.000126083
0.00152952
-0.000146545
0.00153142
-0.000167787
0.00153277
-0.000189823
0.00153356
-0.000212668
0.00153378
-0.000236335
0.00153342
-0.000260839
0.00153245
-0.000286192
0.00153086
-0.000312408
0.00152863
-0.0003395
0.00152574
-0.000367481
0.00152217
-0.000396365
0.00151788
-0.000426165
0.00151285
-0.000456897
0.00150705
-0.000488575
0.00150042
-0.00052122
0.00149294
-0.000554854
0.00148453
-0.000589507
0.00147514
-0.000625215
0.00146469
-0.000662029
0.0014531
-0.000700017
0.00144028
-0.000739272
0.00142612
-0.000779921
0.00141051
-0.000822146
0.00139337
-0.0008662
0.00137466
-0.000912445
0.00135442
-0.000961381
0.00133281
-0.00101365
0.00131005
-0.00106996
0.00128618
-0.0011307
0.00126044
-0.00119511
0.00122978
-0.00125932
0.00118665
-0.00131266
-0.001342
0.00111887
0.00117898
0.000209365
-0.00116435
0.00119346
0.000206227
0.00120778
0.00020291
0.00122193
0.000199356
0.00123589
0.000195542
0.00124966
0.000191457
0.00126322
0.000187088
0.00127656
0.000182423
0.00128967
0.000177451
0.00130254
0.000172159
0.00131516
0.000166533
0.00132751
0.000160559
0.00133957
0.000154222
0.00135135
0.00014751
0.00136283
0.000140406
0.001374
0.000132894
0.00138484
0.000124959
0.00139535
0.000116585
0.00140552
0.000107754
0.00141533
9.84494e-05
0.00142477
8.86535e-05
0.00143385
7.83485e-05
0.00144253
6.75163e-05
0.00145083
5.61385e-05
0.00145872
4.41965e-05
0.0014662
3.16716e-05
0.00147326
1.85452e-05
0.00147989
4.798e-06
0.00148607
-9.57817e-06
0.00149179
-2.4568e-05
0.00149706
-4.02144e-05
0.00150186
-5.65368e-05
0.00150618
-7.35536e-05
0.00151002
-9.12815e-05
0.00151337
-0.000109735
0.00151622
-0.00012893
0.00151855
-0.000148879
0.00152036
-0.000169598
0.00152164
-0.000191098
0.00152236
-0.000213395
0.00152253
-0.0002365
0.00152212
-0.000260427
0.00152111
-0.000285188
0.0015195
-0.000310794
0.00151725
-0.000337256
0.00151436
-0.000364586
0.00151079
-0.000392794
0.00150651
-0.00042189
0.0015015
-0.000451885
0.00149571
-0.000482789
0.00148911
-0.000514614
0.00148163
-0.000547375
0.00147321
-0.00058109
0.00146378
-0.000615782
0.00145323
-0.000651485
0.00144146
-0.000688245
0.00142833
-0.000726135
0.00141367
-0.000765267
0.00139734
-0.000805816
0.0013792
-0.000848063
0.00135918
-0.000892422
0.00133727
-0.000939466
0.00131346
-0.00098985
0.00128755
-0.00104404
0.00125846
-0.00110162
0.00122307
-0.00115971
0.00117431
-0.00121057
0.00110025
-0.0012386
-0.00123538
0.000993629
0.00117379
0.000194834
-0.00115926
0.00118817
0.000191846
0.00120239
0.000188693
0.00121643
0.000185313
0.00123029
0.000181686
0.00124395
0.000177799
0.00125739
0.00017364
0.00127062
0.000169198
0.00128361
0.000164461
0.00129635
0.000159415
0.00130884
0.000154047
0.00132106
0.000148343
0.00133299
0.000142289
0.00134463
0.00013587
0.00135596
0.000129072
0.00136698
0.000121877
0.00137767
0.00011427
0.00138802
0.000106234
0.00139802
9.77517e-05
0.00140767
8.8806e-05
0.00141694
7.93787e-05
0.00142584
6.94517e-05
0.00143435
5.90064e-05
0.00144246
4.80241e-05
0.00145017
3.64859e-05
0.00145747
2.4373e-05
0.00146435
1.16662e-05
0.0014708
-1.65318e-06
0.0014768
-1.55746e-05
0.00148235
-3.01162e-05
0.00148744
-4.5308e-05
0.00149207
-6.11708e-05
0.00149624
-7.77206e-05
0.00149993
-9.49733e-05
0.00150314
-0.000112943
0.00150586
-0.000131645
0.00150807
-0.000151092
0.00150977
-0.000171297
0.00151094
-0.000192274
0.00151158
-0.000214034
0.00151167
-0.00023659
0.0015112
-0.000259954
0.00151015
-0.000284135
0.0015085
-0.000309145
0.00150623
-0.000334992
0.00150333
-0.000361686
0.00149977
-0.000389233
0.00149552
-0.00041764
0.00149055
-0.000446913
0.00148482
-0.000477056
0.00147827
-0.000508072
0.00147086
-0.000539966
0.00146251
-0.000572738
0.00145312
-0.000606391
0.00144257
-0.000640934
0.00143071
-0.000676385
0.00141737
-0.000712792
0.00140236
-0.000750256
0.0013855
-0.000788962
0.00136666
-0.000829223
0.00134572
-0.000871475
0.00132246
-0.000916211
0.00129633
-0.000963722
0.00126578
-0.00101349
0.00122715
-0.00106299
0.00117274
-0.0011053
0.00108881
-0.00112664
0.000957643
-0.00110743
-0.00104555
0.000767813
0.00116969
0.000180399
-0.00115526
0.00118397
0.000177565
0.00119809
0.000174579
0.00121202
0.000171379
0.00122576
0.000167942
0.00123931
0.000164258
0.00125263
0.000160314
0.00126573
0.000156098
0.00127859
0.0001516
0.0012912
0.000146805
0.00130355
0.0001417
0.00131562
0.000136272
0.0013274
0.000130505
0.00133889
0.000124386
0.00135006
0.000117898
0.00136091
0.000111025
0.00137143
0.000103751
0.00138161
9.60592e-05
0.00139143
8.79312e-05
0.00140088
7.93494e-05
0.00140997
7.02954e-05
0.00141867
6.07505e-05
0.00142698
5.06958e-05
0.00143489
4.01121e-05
0.0014424
2.898e-05
0.00144949
1.72803e-05
0.00145616
4.99322e-06
0.0014624
-7.89221e-06
0.00146819
-2.13641e-05
0.00147354
-3.54621e-05
0.00147844
-5.02061e-05
0.00148288
-6.56149e-05
0.00148686
-8.17047e-05
0.00149038
-9.84903e-05
0.00149342
-0.000115986
0.00149598
-0.000134205
0.00149805
-0.000153161
0.00149962
-0.000172865
0.00150068
-0.000193331
0.00150121
-0.000214569
0.00150121
-0.000236591
0.00150067
-0.000259408
0.00149956
-0.000283027
0.00149787
-0.000307459
0.00149559
-0.000332711
0.0014927
-0.000358789
0.00148916
-0.000385698
0.00148496
-0.00041344
0.00148006
-0.000442016
0.00147443
-0.000471423
0.00146801
-0.000501653
0.00146074
-0.000532695
0.00145253
-0.000564528
0.00144327
-0.000597131
0.00143282
-0.000630486
0.00142103
-0.000664592
0.00140773
-0.000699493
0.00139278
-0.000735304
0.00137604
-0.000772227
0.00135736
-0.000810538
0.00133635
-0.000850469
0.00131209
-0.000891943
0.00128239
-0.000934028
0.00124281
-0.000973911
0.00118499
-0.00100517
0.00109472
-0.00101503
0.00095292
-0.000984835
0.000747382
-0.000901891
-0.000798436
0.000500273
0.00116675
0.000166047
-0.0011524
0.00118094
0.000163375
0.00119496
0.000160562
0.00120879
0.000157547
0.00122243
0.000154308
0.00123585
0.000150832
0.00124906
0.000147109
0.00126203
0.000143126
0.00127475
0.000138873
0.00128722
0.000134336
0.00129942
0.000129502
0.00131134
0.000124356
0.00132296
0.000118884
0.00133428
0.00011307
0.00134527
0.0001069
0.00135594
0.000100357
0.00136627
9.34234e-05
0.00137625
8.60821e-05
0.00138586
7.83151e-05
0.00139511
7.01037e-05
0.00140397
6.14292e-05
0.00141245
5.22722e-05
0.00142054
4.2613e-05
0.00142822
3.2432e-05
0.00143549
2.17092e-05
0.00144234
1.04248e-05
0.00144878
-1.44025e-06
0.00145476
-1.38818e-05
0.00146032
-2.6916e-05
0.00146543
-4.05739e-05
0.0014701
-5.4876e-05
0.00147432
-6.98382e-05
0.00147809
-8.54765e-05
0.00148141
-0.000101805
0.00148426
-0.000118838
0.00148664
-0.000136587
0.00148855
-0.000155065
0.00148996
-0.000174284
0.00149089
-0.000194255
0.00149131
-0.000214988
0.00149121
-0.000236494
0.00149058
-0.000258782
0.00148942
-0.00028186
0.00148769
-0.000305737
0.0014854
-0.000330417
0.00148252
-0.000355905
0.00147902
-0.000382204
0.00147489
-0.000409312
0.0014701
-0.000437223
0.0014646
-0.000465924
0.00145834
-0.000495394
0.00145125
-0.000525604
0.00144324
-0.000556517
0.00143421
-0.000588101
0.00142407
-0.000620342
0.00141274
-0.000653263
0.00140019
-0.000686938
0.00138637
-0.000721484
0.00137113
-0.000756989
0.00135394
-0.000793345
0.0013334
-0.000829937
0.00130658
-0.000865124
0.00126797
-0.000895413
0.00120816
-0.000914105
0.00111249
-0.000909494
0.000961533
-0.000864075
0.000740158
-0.00076346
0.000460934
-0.000622667
-0.00052561
0.000188107
0.00116501
0.000151766
-0.00115073
0.00117913
0.000149261
0.00119306
0.000146629
0.0012068
0.000143806
0.00122034
0.000140771
0.00123366
0.000137512
0.00124675
0.000134018
0.0012596
0.000130278
0.00127219
0.000126279
0.00128452
0.000122008
0.00129657
0.000117453
0.00130832
0.000112598
0.00131978
0.00010743
0.00133092
0.000101933
0.00134173
9.60903e-05
0.0013522
8.9886e-05
0.00136232
8.33024e-05
0.00137208
7.63214e-05
0.00138147
6.89246e-05
0.00139048
6.10926e-05
0.0013991
5.28058e-05
0.00140733
4.40443e-05
0.00141516
3.47875e-05
0.00142257
2.50149e-05
0.00142958
1.47059e-05
0.00143616
3.83917e-06
0.00144232
-7.59557e-06
0.00144803
-1.95955e-05
0.00145331
-3.21968e-05
0.00145816
-4.54203e-05
0.00146257
-5.92854e-05
0.00146654
-7.38082e-05