/*--------------------------------*- C++ -*----------------------------------*\
| =========                 |                                                 |
| \\      /  F ield         | OpenFOAM: The Open Source CFD Toolbox           |
|  \\    /   O peration     | Version:  2312                                  |
|   \\  /    A nd           | Website:  www.openfoam.com                      |
|    \\/     M anipulation  |                                                 |
\*---------------------------------------------------------------------------*/
FoamFile
{
    version     2.0;
    format      ascii;
    arch        "LSB;label=32;scalar=64";
    class       volVectorField;
    location    "900";
    object      U;
}
// * * * * * * * * * * * * * * * * * * * * * * * * * * * * * * * * * * * * * //

dimensions      [0 1 -1 0 0 0 0];

internalField   nonuniform List<vector> 
76025
(
(0.0415471 -0.0118176 0)
(0.0417897 -0.0118373 2.8574e-22)
(0.0420365 -0.0118489 0)
(0.0422902 -0.0118571 0)
(0.042535 -0.0118569 -4.4781e-22)
(0.0427991 -0.0118505 -7.90397e-22)
(0.0430498 -0.0118399 1.31586e-21)
(0.0433013 -0.0118201 -5.42962e-22)
(0.0435572 -0.0117978 -1.48517e-22)
(0.0438168 -0.0117718 1.29453e-22)
(0.0440769 -0.0117383 2.48579e-25)
(0.0443392 -0.0116971 2.42426e-22)
(0.044602 -0.011652 -3.32093e-22)
(0.0448661 -0.0115972 0)
(0.0451434 -0.0115366 2.97237e-23)
(0.0454086 -0.0114745 0)
(0.0456826 -0.0114012 0)
(0.0459503 -0.0113258 0)
(0.0462208 -0.0112384 -4.48465e-23)
(0.0464838 -0.0111543 7.2136e-23)
(0.0467521 -0.0110566 9.28404e-23)
(0.0470273 -0.0109512 3.50511e-22)
(0.0473017 -0.0108412 -2.42773e-22)
(0.0475771 -0.010726 -4.88467e-22)
(0.047853 -0.0106057 -4.42382e-23)
(0.0481234 -0.0104859 -2.50294e-22)
(0.0484048 -0.0103456 6.78268e-22)
(0.0486787 -0.0102077 -7.24287e-22)
(0.0489498 -0.0100591 2.71458e-22)
(0.0492176 -0.00989632 -2.96834e-22)
(0.0494802 -0.00973608 -3.2578e-22)
(0.0497453 -0.00957142 7.40162e-22)
(0.0500157 -0.00938274 -1.14779e-21)
(0.0502801 -0.00920546 -2.3163e-22)
(0.0505377 -0.00901114 1.07705e-21)
(0.0507867 -0.0088253 1.44778e-23)
(0.0510337 -0.00862578 -2.32378e-22)
(0.0512863 -0.00839745 1.2172e-22)
(0.0515414 -0.00818353 7.84632e-25)
(0.0517916 -0.00795484 -1.9737e-22)
(0.0520344 -0.00773208 1.30702e-22)
(0.0522777 -0.00749495 -6.86412e-23)
(0.0525332 -0.00722827 1.40539e-22)
(0.0527915 -0.00697333 -2.91578e-22)
(0.0530435 -0.00670691 -3.04966e-22)
(0.0532951 -0.00644509 6.08044e-22)
(0.0535552 -0.00615624 6.41359e-22)
(0.0538249 -0.00587355 -1.93793e-21)
(0.0540901 -0.00558555 1.32777e-21)
(0.0543567 -0.00528953 3.01146e-23)
(0.0546273 -0.00498394 -3.47145e-21)
(0.0549035 -0.00466205 -1.43112e-21)
(0.0551909 -0.00432362 1.45602e-21)
(0.0554869 -0.0039698 0)
(0.0557915 -0.00360901 -1.54883e-21)
(0.0561002 -0.00325307 -1.57541e-21)
(0.056422 -0.00287202 2.44061e-23)
(0.0567594 -0.00247536 -1.64274e-21)
(0.0571034 -0.00205359 1.7814e-21)
(0.057462 -0.00160593 -5.38176e-21)
(0.0578406 -0.00112899 -3.71186e-21)
(0.0582581 -0.000629416 4.73296e-23)
(0.0586965 -9.17035e-05 0)
(0.0591488 0.00048951 1.08287e-20)
(0.0596394 0.00112855 -4.58439e-21)
(0.0601549 0.00178081 2.325e-21)
(0.0606797 0.00254229 -5.13908e-21)
(0.0612439 0.00344316 5.53066e-21)
(0.0620656 0.00431596 1.19492e-20)
(0.0415345 -0.0122474 3.16633e-22)
(0.0417905 -0.0122671 8.405e-22)
(0.0420487 -0.0122785 -1.12569e-21)
(0.0423094 -0.0122821 0)
(0.0425705 -0.0122825 1.11501e-21)
(0.0428365 -0.0122736 -7.71781e-23)
(0.0431039 -0.0122607 -7.99482e-22)
(0.0433701 -0.0122403 0)
(0.0436376 -0.0122133 2.05319e-25)
(0.0439061 -0.0121808 -1.31914e-22)
(0.0441773 -0.0121426 1.12084e-22)
(0.0444498 -0.0120978 2.74864e-24)
(0.0447226 -0.0120471 0)
(0.0449956 -0.0119904 0)
(0.0452699 -0.0119241 1.15589e-23)
(0.0455446 -0.0118551 -7.53788e-23)
(0.0458209 -0.0117765 1.45661e-23)
(0.0460972 -0.0116942 -1.26045e-22)
(0.046374 -0.0116026 9.05143e-23)
(0.0466494 -0.0115063 -7.34051e-23)
(0.0469256 -0.0114024 1.23537e-22)
(0.0472009 -0.0112916 -2.18561e-22)
(0.0474758 -0.0111743 3.06833e-22)
(0.0477506 -0.0110506 -4.99826e-22)
(0.0480256 -0.0109199 3.54458e-22)
(0.0483008 -0.0107839 6.57878e-22)
(0.0485753 -0.0106393 -4.52044e-22)
(0.0488472 -0.0104904 0)
(0.0491175 -0.0103341 0)
(0.0493856 -0.010171 -3.17947e-22)
(0.0496544 -0.00999872 0)
(0.0499258 -0.00982006 -3.75791e-22)
(0.050195 -0.00963635 4.15513e-22)
(0.0504619 -0.00944658 -6.21213e-22)
(0.0507264 -0.00925152 2.76199e-24)
(0.0509895 -0.00904877 -2.28566e-22)
(0.0512518 -0.00883727 0)
(0.0515129 -0.00861814 -5.02361e-22)
(0.0517745 -0.00839529 3.86026e-22)
(0.0520353 -0.00816835 -3.28153e-22)
(0.0522948 -0.00793319 2.03411e-22)
(0.0525544 -0.00768771 -2.79116e-24)
(0.0528151 -0.007435 7.81327e-23)
(0.053077 -0.00718213 -7.26109e-23)
(0.0533393 -0.00692098 6.14604e-22)
(0.0536034 -0.00665059 -3.12631e-22)
(0.0538707 -0.00636878 -3.25676e-22)
(0.0541418 -0.00608488 6.54177e-22)
(0.0544138 -0.00579234 2.02366e-21)
(0.0546879 -0.00548924 1.28991e-23)
(0.0549654 -0.00517597 2.10669e-21)
(0.0552476 -0.004851 -7.32861e-22)
(0.0555374 -0.00451651 -2.25258e-21)
(0.0558364 -0.00417586 1.47966e-21)
(0.0561449 -0.00382675 0)
(0.0564639 -0.00346411 4.79429e-21)
(0.0567945 -0.00308511 7.14122e-23)
(0.0571392 -0.00269441 -1.64681e-21)
(0.0574979 -0.00228865 -1.72321e-21)
(0.0578737 -0.00186051 0)
(0.0582739 -0.00140126 1.83095e-21)
(0.0587026 -0.00091214 5.8116e-21)
(0.0591597 -0.000398255 0)
(0.059643 0.000154767 -4.32204e-21)
(0.0601596 0.000758603 2.32478e-21)
(0.0607102 0.00141459 -4.86428e-21)
(0.0612997 0.00214354 2.49103e-21)
(0.0619006 0.00295448 -5.57883e-21)
(0.062672 0.00375653 -6.02668e-21)
(0.0415166 -0.0127137 -1.58534e-21)
(0.0417843 -0.0127328 9.5044e-22)
(0.0420545 -0.0127433 -2.85218e-22)
(0.042326 -0.012746 1.00068e-21)
(0.0425994 -0.0127429 -1.23665e-21)
(0.0428738 -0.0127333 -8.30514e-22)
(0.0431505 -0.0127174 1.025e-21)
(0.0434293 -0.0126949 0)
(0.0437098 -0.0126658 -1.55686e-24)
(0.0439911 -0.0126302 0)
(0.0442731 -0.0125883 -1.1204e-22)
(0.0445554 -0.0125398 9.05927e-23)
(0.044838 -0.0124847 3.05024e-22)
(0.0451206 -0.0124232 -2.355e-22)
(0.0454027 -0.0123549 2.75506e-23)
(0.0456855 -0.0122797 -2.79344e-24)
(0.0459685 -0.0121978 -5.45895e-24)
(0.0462517 -0.012109 3.61456e-23)
(0.0465349 -0.0120136 2.00037e-22)
(0.0468185 -0.0119107 -1.39385e-22)
(0.0471016 -0.0118013 -1.05454e-22)
(0.047384 -0.0116852 2.73183e-22)
(0.0476657 -0.0115625 -1.22623e-22)
(0.0479469 -0.0114332 -1.74957e-22)
(0.0482274 -0.0112974 0)
(0.0485067 -0.0111555 2.23729e-22)
(0.0487841 -0.0110078 2.65471e-22)
(0.04906 -0.0108539 -2.42787e-22)
(0.0493348 -0.0106933 0)
(0.0496086 -0.0105264 6.51342e-22)
(0.0498824 -0.0103524 -3.57969e-22)
(0.0501555 -0.0101736 -7.36084e-24)
(0.0504272 -0.00998938 0)
(0.0506983 -0.00979686 2.13872e-22)
(0.0509688 -0.00959737 -6.8671e-22)
(0.0512382 -0.00939052 4.55769e-22)
(0.0515065 -0.00917699 0)
(0.0517742 -0.00895625 3.84332e-22)
(0.0520422 -0.00872869 -3.8603e-22)
(0.05231 -0.00849505 -6.70936e-23)
(0.052577 -0.0082541 0)
(0.0528436 -0.00800618 -1.42596e-22)
(0.0531107 -0.00775116 -7.46395e-23)
(0.0533794 -0.00748943 7.6143e-23)
(0.0536492 -0.00722017 -4.57961e-22)
(0.0539199 -0.00694363 -3.15341e-22)
(0.0541922 -0.00666009 6.44673e-22)
(0.0544673 -0.00637064 -6.72246e-22)
(0.0547446 -0.00607448 6.74059e-22)
(0.0550247 -0.00577085 -6.77539e-22)
(0.0553088 -0.00545939 -7.07336e-22)
(0.0555988 -0.00513924 1.43665e-21)
(0.0558966 -0.0048102 0)
(0.0562038 -0.00447221 1.50008e-21)
(0.056521 -0.00412412 -4.05624e-23)
(0.0568494 -0.00376591 -1.61221e-21)
(0.0571907 -0.0033966 -1.66108e-21)
(0.0575476 -0.00301488 3.34813e-21)
(0.0579214 -0.00261692 5.31579e-23)
(0.058315 -0.00219831 1.76393e-21)
(0.058733 -0.00175597 -3.66036e-21)
(0.0591809 -0.00129004 -1.82305e-21)
(0.0596604 -0.000795203 1.3268e-22)
(0.0601722 -0.000262784 -2.064e-21)
(0.060722 0.000315659 -2.20035e-21)
(0.0613105 0.000944291 -7.106e-21)
(0.0619513 0.00164096 0)
(0.0625993 0.00241811 -2.94833e-21)
(0.0634375 0.00323659 2.89089e-21)
(0.0414981 -0.0132101 0)
(0.0417776 -0.0132277 3.13272e-22)
(0.0420598 -0.0132366 1.41916e-21)
(0.0423429 -0.0132378 -1.1229e-21)
(0.0426276 -0.0132323 -7.02157e-22)
(0.0429136 -0.0132204 1.16833e-21)
(0.043201 -0.0132017 -2.01401e-22)
(0.0434903 -0.0131763 1.80532e-22)
(0.0437812 -0.0131442 1.57663e-22)
(0.0440734 -0.0131055 5.01359e-22)
(0.0443663 -0.0130599 -4.98836e-22)
(0.0446597 -0.0130075 -3.24271e-22)
(0.0449534 -0.0129481 1.3534e-22)
(0.0452472 -0.0128818 1.91586e-22)
(0.0455409 -0.0128083 -9.69717e-23)
(0.0458344 -0.0127278 7.82436e-25)
(0.0461275 -0.0126402 2.17853e-23)
(0.0464201 -0.0125456 4.44532e-23)
(0.0467122 -0.012444 -2.11801e-22)
(0.0470037 -0.0123353 6.00464e-23)
(0.0472946 -0.0122197 1.06979e-22)
(0.0475848 -0.0120971 0)
(0.0478742 -0.0119678 3.43474e-22)
(0.0481626 -0.0118318 -1.60028e-22)
(0.0484498 -0.0116894 -4.34126e-22)
(0.0487357 -0.0115406 -5.09941e-22)
(0.0490202 -0.0113854 9.99876e-22)
(0.0493034 -0.0112237 -5.65391e-22)
(0.0495854 -0.0110555 0)
(0.0498661 -0.0108809 -6.75946e-22)
(0.0501458 -0.0107002 -1.79037e-23)
(0.0504243 -0.0105139 7.76918e-22)
(0.0507022 -0.0103199 -4.35484e-22)
(0.0509791 -0.0101181 1.10763e-21)
(0.0512549 -0.0099095 -2.1571e-22)
(0.0515295 -0.00969449 0)
(0.0518028 -0.00947321 0)
(0.0520753 -0.0092455 1.29673e-22)
(0.0523472 -0.00901168 1.32307e-22)
(0.0526185 -0.00877217 6.8841e-23)
(0.0528892 -0.00852672 -2.21091e-24)
(0.0531596 -0.00827504 7.21155e-23)
(0.0534305 -0.00801688 0)
(0.0537022 -0.00775263 -6.56228e-25)
(0.0539749 -0.00748249 0)
(0.0542489 -0.00720624 3.23823e-22)
(0.0545249 -0.00692352 1.17943e-23)
(0.0548036 -0.00663438 -9.91049e-22)
(0.0550855 -0.00633874 0)
(0.0553711 -0.0060359 -7.05816e-22)
(0.0556616 -0.00572536 6.95723e-22)
(0.0559583 -0.00540681 -1.45e-21)
(0.0562627 -0.0050802 0)
(0.0565761 -0.00474575 -4.5442e-21)
(0.0569 -0.00440338 -3.69846e-23)
(0.0572357 -0.00405248 1.54081e-21)
(0.0575853 -0.00369156 1.58276e-21)
(0.0579509 -0.00331925 0)
(0.0583351 -0.00293355 0)
(0.0587411 -0.0025318 -1.78025e-21)
(0.0591735 -0.00211093 3.69381e-21)
(0.059637 -0.00166781 3.85083e-21)
(0.0601355 -0.00119799 0)
(0.0606726 -0.000695171 -4.13561e-21)
(0.0612547 -0.000150457 0)
(0.0618822 0.00044423 7.32425e-21)
(0.0625719 0.00110424 -2.45994e-21)
(0.0632776 0.00184343 -2.94462e-21)
(0.0641823 0.00263041 -3.14446e-21)
(0.0414923 -0.0137336 0)
(0.0417822 -0.0137493 0)
(0.0420757 -0.0137557 3.03035e-22)
(0.0423704 -0.013754 -1.06475e-21)
(0.0426668 -0.0137456 1.31277e-21)
(0.0429646 -0.0137303 -2.29373e-22)
(0.0432637 -0.0137081 0)
(0.0435641 -0.0136789 -1.83411e-22)
(0.0438657 -0.0136429 0)
(0.0441684 -0.0135997 -2.50462e-22)
(0.044472 -0.0135494 4.89479e-23)
(0.0447762 -0.013492 2.03485e-22)
(0.0450808 -0.0134272 0)
(0.0453855 -0.0133552 -6.54697e-23)
(0.0456902 -0.0132759 1.26102e-22)
(0.0459946 -0.0131893 1.43568e-24)
(0.0462984 -0.0130954 -1.22404e-22)
(0.0466015 -0.0129943 2.82226e-23)
(0.0469036 -0.012886 -7.57435e-23)
(0.0472047 -0.0127706 9.14971e-23)
(0.0475047 -0.012648 1.3796e-22)
(0.0478034 -0.0125185 -4.08899e-22)
(0.0481009 -0.0123821 -3.34453e-22)
(0.0483969 -0.012239 0)
(0.0486915 -0.0120892 4.57753e-22)
(0.0489846 -0.0119329 2.87306e-22)
(0.0492761 -0.0117702 -7.75775e-22)
(0.0495659 -0.0116012 2.9073e-22)
(0.0498541 -0.011426 -6.71996e-22)
(0.0501408 -0.0112448 1.02379e-21)
(0.0504259 -0.0110579 -3.86134e-22)
(0.0507092 -0.0108655 2.08269e-22)
(0.050992 -0.0106646 0)
(0.0512732 -0.0104573 -2.24679e-22)
(0.0515529 -0.0102437 -2.3443e-22)
(0.0518312 -0.0100242 0)
(0.0521084 -0.00979877 2.55993e-22)
(0.0523845 -0.00956745 -3.99254e-22)
(0.0526599 -0.00933028 2.64645e-22)
(0.0529349 -0.00908729 -1.39342e-22)
(0.0532096 -0.00883832 -2.26233e-24)
(0.0534842 -0.0085832 -1.11072e-22)
(0.0537594 -0.00832189 3.68685e-23)
(0.0540353 -0.00805452 1.53623e-22)
(0.0543125 -0.00778113 -5.19714e-24)
(0.0545912 -0.00750157 9.58772e-22)
(0.0548722 -0.00721577 0)
(0.0551558 -0.00692384 6.70245e-22)
(0.0554429 -0.00662583 1.2882e-23)
(0.055734 -0.00632156 -6.84591e-22)
(0.05603 -0.00601089 0)
(0.0563323 -0.00569378 -7.34576e-22)
(0.056642 -0.0053702 7.24148e-22)
(0.0569606 -0.00504012 1.50999e-21)
(0.0572894 -0.0047033 0)
(0.0576302 -0.00435926 -3.16385e-21)
(0.057985 -0.00400722 3.19172e-21)
(0.0583563 -0.00364627 -3.26876e-21)
(0.0587474 -0.00327496 -6.70939e-24)
(0.059162 -0.00289117 0)
(0.0596051 -0.00249224 -1.83661e-21)
(0.0600819 -0.0020751 1.9063e-21)
(0.0605982 -0.00163528 1.91839e-21)
(0.0611593 -0.00116651 4.17264e-21)
(0.0617725 -0.000659746 -6.54274e-21)
(0.0624396 -0.000106049 4.69412e-21)
(0.0631791 0.000509328 -2.41161e-21)
(0.0639458 0.0012064 2.50784e-21)
(0.0649233 0.00193986 8.92536e-21)
(0.0414988 -0.0142853 -1.39667e-21)
(0.0417995 -0.0142992 9.76595e-23)
(0.0421041 -0.0143031 1.28733e-21)
(0.0424102 -0.0142985 0)
(0.0427183 -0.0142867 -2.5774e-22)
(0.0430281 -0.0142677 0)
(0.0433393 -0.0142414 3.93472e-22)
(0.0436516 -0.0142078 -4.74882e-23)
(0.0439649 -0.014167 -5.00146e-22)
(0.044279 -0.0141188 1.32523e-22)
(0.0445936 -0.0140632 1.12961e-22)
(0.0449085 -0.014 8.35007e-23)
(0.0452237 -0.0139294 0)
(0.0455388 -0.0138512 0)
(0.0458537 -0.0137655 -1.80982e-23)
(0.0461681 -0.0136723 5.56983e-24)
(0.0464819 -0.0135716 -8.97135e-23)
(0.0467948 -0.0134636 8.96925e-23)
(0.0471066 -0.0133482 1.62516e-22)
(0.0474171 -0.0132255 -2.3391e-22)
(0.0477262 -0.0130957 5.07316e-22)
(0.0480337 -0.0129588 3.88973e-23)
(0.0483396 -0.012815 -3.4232e-22)
(0.0486437 -0.0126644 -2.08998e-22)
(0.0489459 -0.0125072 -4.83016e-22)
(0.0492462 -0.0123435 4.85078e-22)
(0.0495446 -0.0121735 5.88801e-22)
(0.0498409 -0.0119973 -5.92114e-22)
(0.0501353 -0.0118152 0)
(0.0504278 -0.0116272 0)
(0.0507184 -0.0114336 1.00098e-21)
(0.0510068 -0.0112343 3.2671e-23)
(0.0512945 -0.0110266 -4.31706e-22)
(0.0515804 -0.0108126 -4.7808e-22)
(0.0518646 -0.0105925 4.70908e-22)
(0.0521474 -0.0103665 0)
(0.0524289 -0.0101347 -2.57706e-22)
(0.0527095 -0.00989702 -4.08486e-22)
(0.0529892 -0.00965362 2.69679e-22)
(0.0532685 -0.00940451 -7.19608e-25)
(0.0535475 -0.00914974 -2.34158e-23)
(0.0538265 -0.00888932 1.10747e-22)
(0.0541058 -0.0086233 7.64587e-23)
(0.054386 -0.00835176 1.58628e-22)
(0.0546673 -0.00807477 -7.97851e-22)
(0.0549504 -0.00779235 -5.22298e-24)
(0.0552355 -0.00750451 0)
(0.0555233 -0.0072113 -6.73269e-22)
(0.0558145 -0.00691273 2.06928e-21)
(0.0561098 -0.00660872 -1.38313e-21)
(0.0564098 -0.00629921 -7.20895e-22)
(0.0567158 -0.00598418 -6.77384e-24)
(0.0570287 -0.00566367 -7.61073e-22)
(0.0573499 -0.00533778 -4.54328e-23)
(0.0576809 -0.00500657 1.49225e-21)
(0.0580236 -0.00467001 -1.52205e-21)
(0.0583803 -0.00432785 -1.59725e-21)
(0.0587541 -0.0039796 3.20628e-21)
(0.0591487 -0.00362437 5.67684e-23)
(0.0595686 -0.00326074 1.72087e-21)
(0.0600192 -0.00288666 -1.69536e-21)
(0.060507 -0.00249919 1.83721e-21)
(0.0610388 -0.00209398 -3.84227e-21)
(0.0616215 -0.00166504 -2.05849e-21)
(0.0622641 -0.00120337 4.12754e-21)
(0.0629697 -0.000699254 -2.22382e-21)
(0.0637586 -0.00013778 -7.36431e-21)
(0.0645862 0.000505786 -2.91869e-21)
(0.0656331 0.00117395 0)
(0.0415106 -0.014866 0)
(0.0418244 -0.0148784 -3.43171e-22)
(0.0421415 -0.0148801 -8.53271e-26)
(0.04246 -0.0148727 0)
(0.0427806 -0.0148575 0)
(0.0431028 -0.0148347 -2.32694e-22)
(0.0434264 -0.0148041 5.99387e-22)
(0.0437512 -0.0147659 -7.3259e-22)
(0.044077 -0.0147201 3.45454e-22)
(0.0444035 -0.0146665 -1.34517e-22)
(0.0447301 -0.0146051 0)
(0.0450568 -0.0145358 -8.47361e-23)
(0.0453833 -0.0144587 5.19348e-23)
(0.0457094 -0.0143737 0)
(0.0460349 -0.014281 0)
(0.0463596 -0.0141805 3.6894e-23)
(0.0466833 -0.0140724 4.93104e-23)
(0.0470059 -0.0139567 -1.09231e-22)
(0.0473271 -0.0138334 -1.9714e-22)
(0.0476467 -0.0137028 2.07975e-22)
(0.0479647 -0.0135649 1.36183e-22)
(0.0482808 -0.0134198 6.90881e-22)
(0.0485949 -0.0132678 2.60933e-23)
(0.0489069 -0.013109 -2.47454e-22)
(0.0492168 -0.0129435 4.60815e-22)
(0.0495244 -0.0127715 -2.88461e-22)
(0.0498297 -0.0125933 5.67085e-22)
(0.0501327 -0.0124091 0)
(0.0504335 -0.0122189 0)
(0.050732 -0.0120231 0)
(0.0510283 -0.0118218 -2.03125e-22)
(0.0513225 -0.011614 -4.45744e-22)
(0.0516151 -0.0113986 4.44805e-22)
(0.0519059 -0.011177 4.90559e-22)
(0.0521948 -0.0109497 -4.8331e-22)
(0.0524822 -0.0107167 0)
(0.0527682 -0.0104783 2.71139e-22)
(0.053053 -0.0102345 -1.31524e-22)
(0.0533369 -0.00998541 0)
(0.0536203 -0.00973109 1.44163e-22)
(0.0539033 -0.00947161 -2.80095e-23)
(0.0541863 -0.009207 1.85471e-23)
(0.0544696 -0.00893726 -7.70303e-23)
(0.0547537 -0.00866243 0)
(0.0550389 -0.00838254 -3.26934e-22)
(0.0553257 -0.00809759 3.2231e-22)
(0.0556144 -0.0078076 0)
(0.0559056 -0.00751261 -9.51425e-24)
(0.0561998 -0.00721266 -1.17546e-23)
(0.0564976 -0.00690783 7.01817e-22)
(0.0567997 -0.00659826 0)
(0.0571071 -0.00628414 8.4207e-24)
(0.0574207 -0.00596578 -7.34678e-22)
(0.0577421 -0.00564352 -2.23031e-21)
(0.0580728 -0.00531776 -2.57106e-24)
(0.0584149 -0.00498882 1.53648e-21)
(0.058771 -0.00465692 0)
(0.0591447 -0.00432212 0)
(0.05954 -0.00398418 1.5542e-21)
(0.0599621 -0.00364239 0)
(0.0604172 -0.00329537 0)
(0.0609124 -0.00294078 1.06366e-22)
(0.061456 -0.00257477 -1.74213e-21)
(0.0620564 -0.00219176 -3.76344e-21)
(0.0627247 -0.00178286 3.84107e-21)
(0.0634658 -0.00133772 3.02367e-22)
(0.0643025 -0.000841298 2.32664e-21)
(0.065192 -0.000261376 2.44055e-21)
(0.0663037 0.000330494 0)
(0.0415237 -0.0154768 0)
(0.0418525 -0.0154875 3.48592e-22)
(0.0421844 -0.015487 -9.29703e-22)
(0.0425171 -0.0154766 3.19266e-22)
(0.0428514 -0.015458 0)
(0.0431872 -0.0154313 6.78769e-22)
(0.0435242 -0.0153963 -1.03801e-21)
(0.0438623 -0.0153532 5.22469e-23)
(0.0442013 -0.015302 7.69594e-22)
(0.0445408 -0.0152426 -1.57776e-22)
(0.0448805 -0.0151749 9.4811e-23)
(0.0452199 -0.0150991 6.83404e-23)
(0.0455589 -0.015015 -1.23304e-22)
(0.0458971 -0.0149227 8.96539e-23)
(0.0462343 -0.0148223 -1.91574e-23)
(0.0465704 -0.014714 -5.93892e-23)
(0.046905 -0.0145976 2.16271e-22)
(0.047238 -0.0144735 -4.69614e-23)
(0.0475692 -0.0143416 1.35744e-22)
(0.0478984 -0.0142021 -8.68354e-23)
(0.0482255 -0.0140553 5.04983e-23)
(0.0485503 -0.0139012 -1.08692e-21)
(0.0488728 -0.0137401 -2.51133e-22)
(0.0491928 -0.0135722 -5.08748e-23)
(0.0495102 -0.0133976 7.58764e-22)
(0.049825 -0.0132166 -2.79395e-22)
(0.0501372 -0.0130295 6.51956e-22)
(0.0504467 -0.0128364 -1.00353e-21)
(0.0507537 -0.0126375 0)
(0.0510581 -0.0124332 -4.12423e-22)
(0.0513596 -0.0122238 4.15534e-22)
(0.0516595 -0.0120068 6.3341e-24)
(0.051957 -0.0117834 -2.39197e-22)
(0.0522524 -0.0115542 -2.48423e-22)
(0.0525458 -0.0113195 7.78268e-22)
(0.0528374 -0.0110797 -5.13581e-22)
(0.0531274 -0.0108348 4.1348e-22)
(0.0534162 -0.0105848 -5.57336e-22)
(0.053704 -0.0103299 2.80402e-22)
(0.0539911 -0.0100701 -7.29408e-23)
(0.0542777 -0.00980539 0)
(0.0545642 -0.00953588 7.80594e-23)
(0.0548509 -0.00926157 -7.69583e-23)
(0.0551381 -0.00898248 -1.62248e-22)
(0.0554261 -0.00869865 4.90195e-22)
(0.0557154 -0.00841015 -3.20985e-22)
(0.0560063 -0.00811706 -3.31017e-22)
(0.0562992 -0.00781946 0)
(0.0565946 -0.00751754 -1.39172e-21)
(0.0568931 -0.00721148 1.40171e-21)
(0.0571954 -0.00690158 -7.12558e-22)
(0.0575024 -0.00658821 7.04157e-22)
(0.0578151 -0.00627187 7.01936e-22)
(0.058135 -0.00595314 1.46211e-21)
(0.0584637 -0.00563271 1.49392e-21)
(0.0588034 -0.00531132 0)
(0.0591571 -0.00498974 -1.47441e-21)
(0.0595282 -0.00466868 0)
(0.0599212 -0.00434868 -1.41802e-23)
(0.0603418 -0.00402994 -1.60843e-21)
(0.0607967 -0.00371204 1.55819e-21)
(0.061294 -0.00339359 1.68063e-21)
(0.0618435 -0.00307161 -1.59955e-21)
(0.0624555 -0.00274128 5.23163e-24)
(0.0631435 -0.00239404 -1.46427e-22)
(0.0639155 -0.0020192 6.0571e-21)
(0.0647972 -0.00160089 2.07014e-21)
(0.0657477 -0.00109872 2.6169e-21)
(0.0669152 -0.00060529 -2.55646e-21)
(0.041538 -0.0161197 0)
(0.0418831 -0.0161285 0)
(0.0422311 -0.0161253 -6.11853e-22)
(0.0425796 -0.0161117 9.00017e-22)
(0.0429294 -0.0160893 2.55762e-22)
(0.0432802 -0.0160582 0)
(0.0436319 -0.0160184 0)
(0.0439843 -0.01597 -1.6857e-22)
(0.0443374 -0.0159129 2.65193e-22)
(0.0446907 -0.0158472 -6.59068e-23)
(0.045044 -0.0157729 -4.60033e-22)
(0.0453968 -0.0156898 8.50905e-23)
(0.0457489 -0.0155982 -1.78066e-23)
(0.0461 -0.015498 4.69796e-23)
(0.0464498 -0.0153893 2.42714e-23)
(0.046798 -0.0152724 0)
(0.0471444 -0.0151472 0)
(0.0474887 -0.0150139 2.42703e-23)
(0.0478307 -0.0148727 -3.43861e-22)
(0.0481703 -0.0147237 1.39131e-22)
(0.0485072 -0.0145673 -1.80718e-22)
(0.0488413 -0.0144035 1.90781e-22)
(0.0491726 -0.0142326 2.41057e-22)
(0.0495008 -0.0140549 -2.16042e-22)
(0.0498261 -0.0138705 -2.69691e-22)
(0.0501482 -0.0136799 0)
(0.0504673 -0.0134831 0)
(0.0507833 -0.0132806 5.36041e-22)
(0.0510962 -0.0130725 0)
(0.0514063 -0.0128591 4.31184e-22)
(0.051713 -0.0126406 -4.33059e-22)
(0.0520179 -0.0124143 -2.30445e-22)
(0.05232 -0.0121824 2.4031e-22)
(0.0526197 -0.011945 5.05346e-22)
(0.0529171 -0.0117025 -2.58469e-22)
(0.0532125 -0.0114552 -2.75162e-22)
(0.0535061 -0.0112031 2.73659e-22)
(0.0537982 -0.0109463 0)
(0.0540891 -0.0106848 0)
(0.0543791 -0.0104188 7.51404e-23)
(0.0546684 -0.0101483 0)
(0.0549573 -0.00987336 0)
(0.0552462 -0.00959397 -2.41136e-22)
(0.0555353 -0.00931023 3.21401e-22)
(0.0558249 -0.00902218 -1.64833e-22)
(0.0561155 -0.00872992 3.33595e-22)
(0.0564073 -0.00843355 0)
(0.0567008 -0.00813321 1.03864e-21)
(0.0569964 -0.00782911 1.01928e-23)
(0.0572947 -0.00752156 0)
(0.0575964 -0.00721093 -1.41867e-21)
(0.0579023 -0.00689775 1.15355e-23)
(0.0582134 -0.00658272 -1.43833e-21)
(0.0585309 -0.0062667 -7.16608e-22)
(0.0588566 -0.00595072 -1.46605e-21)
(0.0591925 -0.00563602 1.4461e-21)
(0.0595414 -0.00532398 1.48916e-21)
(0.0599069 -0.00501611 0)
(0.0602936 -0.00471392 -1.48145e-21)
(0.0607074 -0.00441872 -6.19904e-23)
(0.0611556 -0.00413139 0)
(0.0616476 -0.00385192 0)
(0.0621947 -0.00357869 1.6174e-21)
(0.0628097 -0.0033081 0)
(0.063509 -0.00303234 0)
(0.0643056 -0.00274051 -1.66643e-21)
(0.065225 -0.00241549 -2.13571e-21)
(0.0662269 -0.00201294 -2.06734e-21)
(0.0674189 -0.00161936 0)
(0.0415555 -0.0167982 0)
(0.0419176 -0.0168045 0)
(0.0422827 -0.0167981 0)
(0.042648 -0.0167807 2.81117e-22)
(0.0430145 -0.0167539 2.22119e-22)
(0.0433816 -0.0167179 -5.78778e-23)
(0.0437493 -0.0166727 -4.18895e-22)
(0.0441173 -0.0166183 1.71008e-22)
(0.0444856 -0.0165548 -1.28026e-22)
(0.0448537 -0.0164822 -2.12023e-22)
(0.0452213 -0.0164004 0)
(0.0455881 -0.0163094 0)
(0.0459539 -0.0162095 -2.55323e-23)
(0.0463182 -0.0161006 -2.41165e-24)
(0.0466809 -0.0159829 -1.58595e-22)
(0.0470416 -0.0158565 -5.38461e-23)
(0.0474001 -0.0157217 1.45354e-22)
(0.047756 -0.0155784 1.04358e-22)
(0.0481092 -0.0154271 -1.8468e-23)
(0.0484595 -0.0152679 0)
(0.0488066 -0.0151009 3.84558e-22)
(0.0491504 -0.0149266 0)
(0.0494907 -0.0147451 4.89529e-22)
(0.0498276 -0.0145568 -8.28778e-22)
(0.0501608 -0.0143619 8.75356e-22)
(0.0504904 -0.0141608 3.33882e-22)
(0.0508164 -0.0139537 -5.45471e-22)
(0.0511388 -0.0137409 5.73799e-22)
(0.0514578 -0.0135229 -3.9529e-22)
(0.0517732 -0.0132998 0)
(0.0520852 -0.0130708 -4.7738e-22)
(0.0523946 -0.012835 -2.72032e-22)
(0.0527009 -0.0125937 4.89675e-22)
(0.0530043 -0.0123475 -5.20405e-22)
(0.0533051 -0.0120966 2.74156e-22)
(0.0536036 -0.0118412 -2.70323e-22)
(0.0539001 -0.0115813 -1.40574e-22)
(0.0541947 -0.0113172 1.46679e-22)
(0.0544879 -0.0110488 7.65444e-23)
(0.0547799 -0.0107763 -2.2507e-22)
(0.055071 -0.0104996 -1.95381e-23)
(0.0553616 -0.010219 0)
(0.0556518 -0.00993433 8.02927e-23)
(0.0559421 -0.00964573 -1.63399e-22)
(0.0562328 -0.00935324 1.66045e-22)
(0.0565242 -0.00905696 0)
(0.0568167 -0.00875699 0)
(0.0571106 -0.0084535 3.53883e-22)
(0.0574064 -0.00814675 -6.90404e-22)
(0.0577045 -0.00783707 -1.415e-21)
(0.0580056 -0.00752496 2.83784e-21)
(0.0583103 -0.00721109 -7.08339e-22)
(0.0586193 -0.00689632 7.09467e-22)
(0.0589338 -0.00658179 7.23333e-22)
(0.0592551 -0.00626892 -1.43774e-21)
(0.0595851 -0.00595946 1.41854e-21)
(0.0599263 -0.0056555 0)
(0.060282 -0.00535946 -1.36986e-21)
(0.0606569 -0.00507399 -5.00103e-23)
(0.0610571 -0.00480187 1.37846e-21)
(0.0614906 -0.00454563 0)
(0.0619677 -0.00430717 0)
(0.0625017 -0.00408689 0)
(0.0631089 -0.00388301 2.70733e-21)
(0.0638088 -0.00368932 1.40346e-21)
(0.0646215 -0.00349355 1.8393e-21)
(0.0655636 -0.0032802 -3.46183e-21)
(0.0666046 -0.00298435 3.54526e-22)
(0.0677243 -0.00272749 2.07166e-21)
(0.0415783 -0.0175154 0)
(0.0419583 -0.0175188 6.6571e-22)
(0.0423413 -0.0175087 -8.14829e-22)
(0.0427243 -0.0174868 3.79529e-22)
(0.0431083 -0.017455 -7.64291e-22)
(0.0434928 -0.0174135 -2.06428e-22)
(0.0438776 -0.0173621 -1.74533e-22)
(0.0442623 -0.017301 0)
(0.0446469 -0.0172303 2.41755e-22)
(0.0450309 -0.0171499 1.72857e-22)
(0.045414 -0.0170598 -1.53602e-22)
(0.0457957 -0.0169601 2.1751e-23)
(0.0461758 -0.0168509 3.33365e-23)
(0.046554 -0.0167324 4.15055e-23)
(0.04693 -0.0166046 -2.29713e-22)
(0.0473036 -0.0164679 -5.51506e-23)
(0.0476744 -0.0163223 -5.45252e-23)
(0.0480421 -0.0161682 2.41085e-22)
(0.0484066 -0.0160056 1.50989e-22)
(0.0487675 -0.015835 4.0122e-22)
(0.0491248 -0.0156566 -3.79753e-22)
(0.0494781 -0.0154707 0)
(0.0498275 -0.0152776 2.13199e-23)
(0.0501728 -0.0150777 0)
(0.0505138 -0.0148713 -3.10578e-22)
(0.0508507 -0.0146587 -3.37781e-22)
(0.0511834 -0.0144403 1.82705e-22)
(0.051512 -0.0142165 0)
(0.0518365 -0.0139876 2.20775e-22)
(0.0521567 -0.013754 4.74078e-22)
(0.0524738 -0.0135135 -4.694e-22)
(0.0527871 -0.0132675 2.4689e-22)
(0.053097 -0.0130164 -5.31534e-22)
(0.0534037 -0.0127608 1.06284e-21)
(0.0537074 -0.0125009 -2.70181e-22)
(0.0540085 -0.0122369 0)
(0.0543072 -0.011969 -1.46832e-22)
(0.0546039 -0.0116972 2.65739e-24)
(0.054899 -0.0114216 2.30133e-22)
(0.0551926 -0.0111423 -1.92041e-22)
(0.0554852 -0.0108594 3.86609e-23)
(0.0557771 -0.0105728 -1.22324e-22)
(0.0560687 -0.0102827 8.06936e-23)
(0.0563602 -0.00998902 0)
(0.0566521 -0.00969185 0)
(0.0569445 -0.00939125 0)
(0.0572378 -0.00908734 3.46284e-22)
(0.0575325 -0.00878027 3.49332e-22)
(0.0578287 -0.0084703 0)
(0.0581268 -0.00815779 7.02395e-22)
(0.0584272 -0.00784331 7.00847e-22)
(0.0587303 -0.0075276 7.09705e-22)
(0.0590366 -0.00721169 0)
(0.0593467 -0.00689698 0)
(0.0596618 -0.00658524 -1.41065e-21)
(0.0599832 -0.00627878 1.39225e-21)
(0.0603129 -0.00598044 0)
(0.0606542 -0.00569367 1.38452e-21)
(0.0610112 -0.00542251 -1.36281e-21)
(0.0613901 -0.00517146 -1.2212e-21)
(0.0617993 -0.00494522 1.23373e-21)
(0.0622503 -0.00474824 -1.21631e-21)
(0.0627586 -0.00458386 0)
(0.0633445 -0.00445293 -1.28748e-21)
(0.0640316 -0.00435191 -1.0958e-22)
(0.0648478 -0.00426536 -2.21025e-21)
(0.0657869 -0.00418233 -2.58626e-21)
(0.066829 -0.00399032 3.20203e-21)
(0.0676657 -0.00391559 -2.10065e-21)
(0.0416074 -0.0182745 1.85582e-22)
(0.0420065 -0.0182745 0)
(0.0424084 -0.0182601 1.55809e-22)
(0.0428102 -0.0182332 -6.43089e-22)
(0.0432128 -0.0181957 1.06873e-21)
(0.0436157 -0.0181479 -2.24638e-22)
(0.0440185 -0.0180896 1.76956e-22)
(0.0444211 -0.0180209 -2.39757e-22)
(0.0448231 -0.0179421 1.25141e-22)
(0.0452241 -0.017853 8.24241e-23)
(0.0456237 -0.0177537 2.80941e-23)
(0.0460214 -0.0176442 -1.47378e-23)
(0.0464169 -0.0175248 2.49798e-23)
(0.0468099 -0.0173955 1.85528e-22)
(0.0472001 -0.0172567 1.21931e-22)
(0.0475871 -0.0171084 5.63124e-23)
(0.0479707 -0.016951 -2.36437e-22)
(0.0483507 -0.0167846 0)
(0.0487266 -0.0166097 0)
(0.0490984 -0.0164265 -2.27368e-22)
(0.0494658 -0.0162354 -2.28473e-22)
(0.0498286 -0.0160368 -5.58925e-22)
(0.0501868 -0.0158309 2.78176e-22)
(0.0505402 -0.0156182 6.64454e-22)
(0.0508888 -0.0153992 -6.66288e-22)
(0.0512325 -0.0151741 1.92689e-22)
(0.0515715 -0.0149434 2.06159e-22)
(0.0519057 -0.0147075 0)
(0.0522353 -0.0144668 -2.23192e-22)
(0.0525599 -0.0142214 -4.96725e-22)
(0.0528812 -0.0139691 -2.54181e-23)
(0.0531981 -0.013712 5.08417e-22)
(0.0535112 -0.0134505 -2.73315e-22)
(0.0538206 -0.013185 0)
(0.0541268 -0.0129157 1.44036e-22)
(0.05443 -0.0126428 -1.47452e-22)
(0.0547306 -0.0123664 1.47585e-22)
(0.0550291 -0.0120866 -3.04857e-22)
(0.0553257 -0.0118035 0)
(0.0556208 -0.0115173 -3.99688e-23)
(0.0559148 -0.0112278 4.03759e-23)
(0.0562081 -0.0109351 -6.314e-23)
(0.0565009 -0.0106393 2.51183e-22)
(0.0567937 -0.0103404 -5.09362e-22)
(0.0570867 -0.0100383 3.38075e-22)
(0.0573802 -0.00973305 3.50319e-22)
(0.0576745 -0.0094248 -3.43706e-22)
(0.0579698 -0.00911363 7.13469e-22)
(0.0582663 -0.00879977 -7.02762e-22)
(0.058564 -0.00848356 -1.78782e-21)
(0.0588633 -0.00816557 -6.73148e-24)
(0.0591641 -0.00784659 -7.15964e-22)
(0.0594666 -0.00752776 0)
(0.0597711 -0.00721066 0)
(0.0600781 -0.00689741 -1.38784e-21)
(0.0603884 -0.00659082 2.05363e-21)
(0.0607034 -0.0062945 -1.34111e-21)
(0.0610257 -0.006013 0)
(0.0613587 -0.00575188 1.19496e-21)
(0.0617082 -0.0055177 2.38479e-21)
(0.0620827 -0.00531789 -1.17975e-21)
(0.0624947 -0.00516034 6.2384e-23)
(0.0629621 -0.00505246 9.84426e-22)
(0.0635108 -0.00499891 1.478e-22)
(0.0641677 -0.00499981 -1.69284e-21)
(0.0649639 -0.00503547 1.86149e-21)
(0.0658491 -0.0050991 1.13289e-21)
(0.0667784 -0.00501128 0)
(0.0669831 -0.00522367 0)
(0.0416434 -0.0190785 -1.88226e-22)
(0.0420628 -0.0190747 -7.82963e-22)
(0.042485 -0.0190555 6.19037e-22)
(0.0429069 -0.0190229 0)
(0.0433293 -0.018979 1.13456e-22)
(0.0437518 -0.0189241 3.29378e-22)
(0.0441739 -0.018858 -2.6128e-22)
(0.0445954 -0.018781 2.42729e-22)
(0.0450159 -0.0186931 -1.9269e-22)
(0.045435 -0.0185943 0)
(0.0458521 -0.0184847 -2.8801e-23)
(0.0462669 -0.0183644 0)
(0.0466788 -0.0182335 8.96087e-23)
(0.0470876 -0.0180923 -1.84232e-22)
(0.0474929 -0.0179411 0)
(0.0478943 -0.0177801 0)
(0.0482915 -0.0176095 0)
(0.0486843 -0.0174297 -3.03414e-22)
(0.0490723 -0.0172411 4.06254e-22)
(0.0494553 -0.0170441 2.30028e-22)
(0.0498331 -0.016839 0)
(0.0502056 -0.0166263 0)
(0.0505726 -0.0164063 0)
(0.0509341 -0.0161797 -9.05084e-22)
(0.05129 -0.0159468 1.11289e-21)
(0.0516403 -0.015708 -5.83891e-22)
(0.0519852 -0.015464 -4.29519e-22)
(0.0523246 -0.015215 4.68667e-22)
(0.0526586 -0.0149616 -4.71142e-22)
(0.0529878 -0.0147027 2.59444e-22)
(0.0533123 -0.0144382 -5.36789e-22)
(0.0536323 -0.0141693 2.53666e-22)
(0.0539478 -0.0138968 5.57809e-22)
(0.0542595 -0.0136207 2.90527e-22)
(0.0545675 -0.0133414 -1.44658e-22)