/*--------------------------------*- C++ -*----------------------------------*\
| =========                 |                                                 |
| \\      /  F ield         | OpenFOAM: The Open Source CFD Toolbox           |
|  \\    /   O peration     | Version:  2312                                  |
|   \\  /    A nd           | Website:  www.openfoam.com                      |
|    \\/     M anipulation  |                                                 |
\*---------------------------------------------------------------------------*/
FoamFile
{
    version     2.0;
    format      ascii;
    arch        "LSB;label=32;scalar=64";
    class       volScalarField;
    location    "1400";
    object      k;
}
// * * * * * * * * * * * * * * * * * * * * * * * * * * * * * * * * * * * * * //

dimensions      [0 2 -2 0 0 0 0];

internalField   nonuniform List<scalar> 
76025
(
4.91928e-06
4.91702e-06
4.915e-06
4.91305e-06
4.91084e-06
4.91043e-06
4.90941e-06
4.90829e-06
4.90671e-06
4.90653e-06
4.90674e-06
4.90705e-06
4.90877e-06
4.90875e-06
4.9113e-06
4.91312e-06
4.91715e-06
4.92168e-06
4.92693e-06
4.93263e-06
4.93968e-06
4.94805e-06
4.95657e-06
4.96633e-06
4.97885e-06
4.99005e-06
5.00616e-06
5.01945e-06
5.03804e-06
5.05438e-06
5.0747e-06
5.0936e-06
5.11649e-06
5.13929e-06
5.16474e-06
5.19084e-06
5.21957e-06
5.25047e-06
5.28361e-06
5.31864e-06
5.35595e-06
5.39836e-06
5.44399e-06
5.49544e-06
5.55224e-06
5.61896e-06
5.6915e-06
5.77532e-06
5.87422e-06
5.98561e-06
6.12048e-06
6.27289e-06
6.46615e-06
6.689e-06
7.00294e-06
7.35359e-06
7.84778e-06
8.51511e-06
9.46583e-06
1.08266e-05
1.25957e-05
1.50598e-05
1.81678e-05
2.19113e-05
2.62736e-05
3.08704e-05
3.59775e-05
4.13037e-05
4.64496e-05
5.00503e-06
5.00425e-06
5.00335e-06
5.00235e-06
5.00095e-06
5.00022e-06
4.9998e-06
4.99981e-06
4.99986e-06
5.00012e-06
5.00088e-06
5.00189e-06
5.00393e-06
5.00566e-06
5.0089e-06
5.01161e-06
5.01593e-06
5.02042e-06
5.02631e-06
5.03258e-06
5.04011e-06
5.04846e-06
5.05799e-06
5.06821e-06
5.08047e-06
5.09265e-06
5.1073e-06
5.12262e-06
5.13995e-06
5.15874e-06
5.17942e-06
5.2007e-06
5.2245e-06
5.24945e-06
5.27677e-06
5.30619e-06
5.33779e-06
5.37221e-06
5.40937e-06
5.4497e-06
5.49414e-06
5.54269e-06
5.59731e-06
5.65781e-06
5.72643e-06
5.80351e-06
5.89129e-06
5.99242e-06
6.10848e-06
6.24551e-06
6.40465e-06
6.59942e-06
6.83181e-06
7.13066e-06
7.5032e-06
8.00517e-06
8.68531e-06
9.62501e-06
1.09268e-05
1.26639e-05
1.49552e-05
1.77875e-05
2.11532e-05
2.50193e-05
2.93417e-05
3.41029e-05
3.92678e-05
4.41465e-05
4.91523e-05
5.10624e-06
5.10585e-06
5.10554e-06
5.10514e-06
5.10484e-06
5.10482e-06
5.1051e-06
5.10585e-06
5.10702e-06
5.10845e-06
5.11027e-06
5.11232e-06
5.11505e-06
5.11792e-06
5.12178e-06
5.12584e-06
5.13083e-06
5.13628e-06
5.14272e-06
5.14987e-06
5.15803e-06
5.16709e-06
5.17732e-06
5.18851e-06
5.20118e-06
5.21479e-06
5.22999e-06
5.24659e-06
5.26493e-06
5.28491e-06
5.30689e-06
5.33058e-06
5.35643e-06
5.38437e-06
5.41479e-06
5.44783e-06
5.48381e-06
5.52302e-06
5.56582e-06
5.61265e-06
5.66415e-06
5.72137e-06
5.78522e-06
5.85678e-06
5.93753e-06
6.02904e-06
6.13382e-06
6.25422e-06
6.39489e-06
6.5599e-06
6.75839e-06
6.99877e-06
7.30027e-06
7.68327e-06
8.18734e-06
8.86241e-06
9.77795e-06
1.102e-05
1.26672e-05
1.47941e-05
1.74193e-05
2.05464e-05
2.41557e-05
2.82068e-05
3.2677e-05
3.74279e-05
4.23843e-05
4.68171e-05
5.12539e-05
5.2286e-06
5.22918e-06
5.22986e-06
5.23058e-06
5.23129e-06
5.23213e-06
5.2332e-06
5.23458e-06
5.23638e-06
5.23855e-06
5.24118e-06
5.24415e-06
5.24768e-06
5.25159e-06
5.25615e-06
5.26125e-06
5.26707e-06
5.27358e-06
5.2809e-06
5.28907e-06
5.29821e-06
5.30836e-06
5.31964e-06
5.3321e-06
5.34585e-06
5.36099e-06
5.37773e-06
5.39611e-06
5.41635e-06
5.4385e-06
5.46278e-06
5.48927e-06
5.5182e-06
5.54972e-06
5.58413e-06
5.6217e-06
5.66281e-06
5.70781e-06
5.75721e-06
5.81158e-06
5.87159e-06
5.93856e-06
6.01358e-06
6.09812e-06
6.1939e-06
6.3033e-06
6.42915e-06
6.57563e-06
6.74798e-06
6.9543e-06
7.20524e-06
7.51774e-06
7.91509e-06
8.43258e-06
9.11823e-06
1.00349e-05
1.12566e-05
1.28546e-05
1.48857e-05
1.73743e-05
2.03194e-05
2.3703e-05
2.74904e-05
3.16423e-05
3.6109e-05
4.07494e-05
4.54122e-05
4.9203e-05
5.31921e-05
5.37138e-06
5.37311e-06
5.37505e-06
5.37718e-06
5.37941e-06
5.38172e-06
5.38419e-06
5.38685e-06
5.3898e-06
5.39307e-06
5.39676e-06
5.40084e-06
5.40543e-06
5.41049e-06
5.41612e-06
5.42236e-06
5.42928e-06
5.43695e-06
5.44546e-06
5.45487e-06
5.46529e-06
5.47679e-06
5.4895e-06
5.50348e-06
5.51889e-06
5.53591e-06
5.55468e-06
5.57533e-06
5.59804e-06
5.62297e-06
5.6503e-06
5.68023e-06
5.713e-06
5.74885e-06
5.78811e-06
5.83116e-06
5.87843e-06
5.93045e-06
5.98777e-06
6.05125e-06
6.12159e-06
6.20045e-06
6.28934e-06
6.3901e-06
6.50519e-06
6.63775e-06
6.79208e-06
6.97399e-06
7.19181e-06
7.45718e-06
7.7871e-06
8.20559e-06
8.74658e-06
9.45543e-06
1.0389e-05
1.1611e-05
1.31821e-05
1.51479e-05
1.75293e-05
2.03252e-05
2.35167e-05
2.70799e-05
3.09773e-05
3.51673e-05
3.95763e-05
4.40278e-05
4.82134e-05
5.11992e-05
5.46404e-05
5.53913e-06
5.5415e-06
5.54433e-06
5.54757e-06
5.55112e-06
5.55494e-06
5.559e-06
5.5633e-06
5.5679e-06
5.5728e-06
5.57808e-06
5.58375e-06
5.5899e-06
5.59654e-06
5.60375e-06
5.61157e-06
5.62009e-06
5.62937e-06
5.6395e-06
5.65059e-06
5.66273e-06
5.67602e-06
5.69062e-06
5.70657e-06
5.72416e-06
5.74354e-06
5.76488e-06
5.78835e-06
5.81415e-06
5.84249e-06
5.8736e-06
5.90775e-06
5.94523e-06
5.98637e-06
6.03158e-06
6.08136e-06
6.13623e-06
6.19693e-06
6.26412e-06
6.33902e-06
6.42244e-06
6.5166e-06
6.62355e-06
6.74592e-06
6.88719e-06
7.05205e-06
7.24694e-06
7.48082e-06
7.76627e-06
8.121e-06
8.56956e-06
9.14512e-06
9.89041e-06
1.08565e-05
1.2098e-05
1.36649e-05
1.55932e-05
1.7899e-05
2.05798e-05
2.36194e-05
2.69941e-05
3.06782e-05
3.46282e-05
3.87919e-05
4.30511e-05
4.71765e-05
5.06552e-05
5.26151e-05
5.55065e-05
5.73969e-06
5.74191e-06
5.74487e-06
5.74853e-06
5.75276e-06
5.75751e-06
5.76274e-06
5.76842e-06
5.77455e-06
5.78112e-06
5.78816e-06
5.79568e-06
5.80372e-06
5.81232e-06
5.82154e-06
5.83142e-06
5.84203e-06
5.85347e-06
5.8658e-06
5.87915e-06
5.8936e-06
5.90933e-06
5.92638e-06
5.94504e-06
5.9655e-06
5.98795e-06
6.0126e-06
6.03967e-06
6.06941e-06
6.10209e-06
6.138e-06
6.17749e-06
6.22093e-06
6.26878e-06
6.32156e-06
6.37993e-06
6.44457e-06
6.5165e-06
6.5966e-06
6.68656e-06
6.78756e-06
6.90252e-06
7.03449e-06
7.18739e-06
7.36652e-06
7.57908e-06
7.83498e-06
8.14789e-06
8.53647e-06
9.02576e-06
9.64819e-06
1.04436e-05
1.14571e-05
1.27348e-05
1.43163e-05
1.62288e-05
1.84832e-05
2.10756e-05
2.39914e-05
2.721e-05
3.07071e-05
3.44515e-05
3.83906e-05
4.24456e-05
4.64372e-05
5.00535e-05
5.20778e-05
5.28524e-05
5.56103e-05
5.98263e-06
5.98415e-06
5.98663e-06
5.99002e-06
5.99423e-06
5.9992e-06
6.0049e-06
6.01132e-06
6.01843e-06
6.02622e-06
6.03469e-06
6.04384e-06
6.05369e-06
6.06427e-06
6.07561e-06
6.08775e-06
6.10077e-06
6.11473e-06
6.12972e-06
6.14584e-06
6.16323e-06
6.18199e-06
6.20233e-06
6.22449e-06
6.24869e-06
6.27515e-06
6.30414e-06
6.33592e-06
6.37082e-06
6.40917e-06
6.45138e-06
6.49789e-06
6.54919e-06
6.60591e-06
6.66875e-06
6.73861e-06
6.81644e-06
6.90363e-06
7.00156e-06
7.11246e-06
7.23852e-06
7.38349e-06
7.55225e-06
7.75091e-06
7.98768e-06
8.27364e-06
8.62368e-06
9.05744e-06
9.60022e-06
1.02833e-05
1.11429e-05
1.22182e-05
1.35462e-05
1.51574e-05
1.70707e-05
1.92925e-05
2.18172e-05
2.46321e-05
2.77191e-05
3.10566e-05
3.46182e-05
3.83601e-05
4.22154e-05
4.60524e-05
4.96175e-05
5.22726e-05
5.30061e-05
5.34649e-05
5.55215e-05
6.27867e-06
6.2795e-06
6.28136e-06
6.28425e-06
6.28808e-06
6.29283e-06
6.29849e-06
6.30507e-06
6.31258e-06
6.32102e-06
6.3304e-06
6.34072e-06
6.352e-06
6.36425e-06
6.37752e-06
6.39185e-06
6.40728e-06
6.42391e-06
6.4418e-06
6.46109e-06
6.48186e-06
6.50431e-06
6.52869e-06
6.55524e-06
6.58419e-06
6.61582e-06
6.65046e-06
6.68845e-06
6.73019e-06
6.77613e-06
6.82681e-06
6.88283e-06
6.94486e-06
7.01376e-06
7.09055e-06
7.17645e-06
7.27295e-06
7.38197e-06
7.50586e-06
7.64768e-06
7.81144e-06
8.00225e-06
8.228e-06
8.49811e-06
8.82497e-06
9.22466e-06
9.71757e-06
1.03287e-05
1.10872e-05
1.20251e-05
1.31746e-05
1.45644e-05
1.62161e-05
1.8142e-05
2.03439e-05
2.28165e-05
2.5547e-05
2.85212e-05
3.17197e-05
3.51187e-05
3.86841e-05
4.23499e-05
4.60245e-05
4.94891e-05
5.2333e-05
5.30627e-05
5.31616e-05
5.31048e-05
5.54741e-05
6.64102e-06
6.6416e-06
6.64317e-06
6.64577e-06
6.64933e-06
6.65385e-06
6.65938e-06
6.66596e-06
6.67362e-06
6.68242e-06
6.69237e-06
6.70353e-06
6.71591e-06
6.72957e-06
6.74456e-06
6.76092e-06
6.77873e-06
6.79807e-06
6.81906e-06
6.8418e-06
6.86645e-06
6.8933e-06
6.92256e-06
6.95452e-06
6.98946e-06
7.02774e-06
7.06977e-06
7.11598e-06
7.16693e-06
7.22321e-06
7.28556e-06
7.35482e-06
7.43197e-06
7.51826e-06
7.61521e-06
7.72467e-06
7.84899e-06
7.99109e-06
8.15487e-06
8.34501e-06
8.56822e-06
8.83182e-06
9.14784e-06
9.52991e-06
9.99496e-06
1.05635e-05
1.12591e-05
1.21079e-05
1.31365e-05
1.437e-05
1.58289e-05
1.75274e-05
1.94719e-05
2.16622e-05
2.40912e-05
2.67501e-05
2.96234e-05
3.26986e-05
3.5951e-05
3.93512e-05
4.28488e-05
4.6342e-05
4.9692e-05
5.25449e-05
5.38431e-05
5.41875e-05
5.34e-05
5.34571e-05
5.56185e-05
7.0876e-06
7.08842e-06
7.09018e-06
7.09293e-06
7.09662e-06
7.10129e-06
7.107e-06
7.11382e-06
7.12185e-06
7.13115e-06
7.14181e-06
7.15388e-06
7.16745e-06
7.1826e-06
7.1994e-06
7.21796e-06
7.23837e-06
7.26077e-06
7.28526e-06
7.31207e-06
7.34146e-06
7.3737e-06
7.40907e-06
7.44793e-06
7.49067e-06
7.53776e-06
7.58973e-06
7.64722e-06
7.71097e-06
7.78188e-06
7.86098e-06
7.94954e-06
8.04911e-06
8.16161e-06
8.28944e-06
8.43557e-06
8.60377e-06
8.79879e-06
9.02667e-06
9.2949e-06
9.61307e-06
9.99255e-06
1.04477e-05
1.09964e-05
1.16583e-05
1.24543e-05
1.3406e-05
1.45342e-05
1.58566e-05
1.73867e-05
1.91326e-05
2.1097e-05
2.32775e-05
2.56682e-05
2.82595e-05
3.10429e-05
3.40001e-05
3.71199e-05
4.03641e-05
4.36932e-05
4.70284e-05
5.02054e-05
5.30001e-05
5.45758e-05
5.4831e-05
5.44938e-05
5.31978e-05
5.3159e-05
5.66938e-05
7.64324e-06
7.64466e-06
7.64701e-06
7.65039e-06
7.65473e-06
7.66008e-06
7.66654e-06
7.6742e-06
7.68318e-06
7.6936e-06
7.70555e-06
7.71916e-06
7.73455e-06
7.75184e-06
7.77118e-06
7.7927e-06
7.81658e-06
7.84296e-06
7.87217e-06
7.9045e-06
7.94024e-06
7.97977e-06
8.02349e-06
8.07191e-06
8.12559e-06
8.1852e-06
8.25155e-06
8.32559e-06
8.40844e-06
8.5015e-06
8.60643e-06
8.72522e-06
8.86043e-06
9.01515e-06
9.19325e-06
9.39948e-06
9.63973e-06
9.92118e-06
1.02526e-05
1.06443e-05
1.11087e-05
1.16596e-05
1.23125e-05
1.30837e-05
1.39927e-05
1.50549e-05
1.62849e-05
1.76947e-05
1.92918e-05
2.108e-05
2.30595e-05
2.52273e-05
2.75779e-05
3.01045e-05
3.27965e-05
3.56465e-05
3.86285e-05
4.17323e-05
4.48894e-05
4.80509e-05
5.10838e-05
5.36991e-05
5.52556e-05
5.53788e-05
5.51977e-05
5.45337e-05
5.23197e-05
5.31678e-05
5.76096e-05
8.34288e-06
8.34518e-06
8.34852e-06
8.35301e-06
8.35857e-06
8.36528e-06
8.37324e-06
8.38259e-06
8.39346e-06
8.40601e-06
8.42039e-06
8.43675e-06
8.45527e-06
8.47614e-06
8.49959e-06
8.52579e-06
8.55508e-06
8.5878e-06
8.62432e-06
8.66505e-06
8.71048e-06
8.76114e-06
8.81771e-06
8.88094e-06
8.95173e-06
9.03116e-06
9.12052e-06
9.22134e-06
9.33549e-06
9.46523e-06
9.61326e-06
9.78287e-06
9.9781e-06
1.02038e-05
1.04657e-05
1.07707e-05
1.1127e-05
1.15438e-05
1.20317e-05
1.26023e-05
1.32683e-05
1.40425e-05
1.49378e-05
1.59664e-05
1.71394e-05
1.84644e-05
1.99516e-05
2.16046e-05
2.34235e-05
2.54079e-05
2.75546e-05
2.9859e-05
3.2315e-05
3.49158e-05
3.76492e-05
4.05065e-05
4.34461e-05
4.64577e-05
4.94115e-05
5.22719e-05
5.47472e-05
5.61854e-05
5.62402e-05
5.61204e-05
5.49083e-05
5.30699e-05
5.10131e-05
5.31437e-05
5.88041e-05
9.23763e-06
9.24126e-06
9.24616e-06
9.25245e-06
9.26008e-06
9.26914e-06
9.27977e-06
9.29213e-06
9.30643e-06
9.32284e-06
9.3416e-06
9.36291e-06
9.38705e-06
9.41427e-06
9.44498e-06
9.47957e-06
9.51848e-06
9.56224e-06
9.61142e-06
9.66671e-06
9.7289e-06
9.79889e-06
9.87779e-06
9.96686e-06
1.00676e-05
1.01818e-05
1.03117e-05
1.04596e-05
1.06287e-05
1.08224e-05
1.10448e-05
1.13009e-05
1.15963e-05
1.19373e-05
1.23313e-05
1.27864e-05
1.33114e-05
1.39156e-05
1.46089e-05
1.54011e-05
1.63017e-05
1.73194e-05
1.84623e-05
1.97367e-05
2.11476e-05
2.26983e-05
2.43902e-05
2.62236e-05
2.81953e-05
3.0307e-05
3.25529e-05
3.49285e-05
3.74272e-05
4.00413e-05
4.27533e-05
4.55479e-05
4.83565e-05
5.11613e-05
5.37287e-05
5.6094e-05
5.72775e-05
5.70199e-05
5.69312e-05
5.57748e-05
5.47772e-05
5.07042e-05
4.99795e-05
5.35515e-05
5.96165e-05
1.0407e-05
1.0413e-05
1.04208e-05
1.04304e-05
1.04419e-05
1.04553e-05
1.0471e-05
1.04891e-05
1.05099e-05
1.05337e-05
1.05609e-05
1.05917e-05
1.06268e-05
1.06665e-05
1.07115e-05
1.07624e-05
1.082e-05
1.0885e-05
1.09586e-05
1.10418e-05
1.1136e-05
1.12428e-05
1.13638e-05
1.15012e-05
1.16574e-05
1.18352e-05
1.20376e-05
1.22684e-05
1.25317e-05
1.28321e-05
1.31747e-05
1.35652e-05
1.40098e-05
1.4515e-05
1.50879e-05
1.57354e-05
1.64647e-05
1.7283e-05
1.81967e-05
1.92123e-05
2.0335e-05
2.15696e-05
2.29199e-05
2.43885e-05
2.59772e-05
2.76866e-05
2.95163e-05
3.14647e-05
3.35288e-05
3.57042e-05
3.79814e-05
4.03626e-05
4.28396e-05
4.54002e-05
4.80144e-05
5.06493e-05
5.31929e-05
5.55833e-05
5.74985e-05
5.83558e-05
5.80991e-05
5.79432e-05
5.67614e-05
5.55967e-05
5.18244e-05
4.906e-05
4.97439e-05
5.42537e-05
6.14598e-05
1.19842e-05
1.19959e-05
1.20101e-05
1.20272e-05
1.20472e-05
1.20703e-05
1.20969e-05
1.21274e-05
1.21623e-05
1.22022e-05
1.22476e-05
1.22992e-05
1.23577e-05
1.2424e-05
1.2499e-05
1.25838e-05
1.26797e-05
1.27881e-05
1.29105e-05
1.30486e-05
1.32045e-05
1.33805e-05
1.35789e-05
1.38027e-05
1.40548e-05
1.43387e-05
1.4658e-05
1.50168e-05
1.54192e-05
1.58698e-05
1.63733e-05
1.69345e-05
1.75584e-05
1.825e-05
1.90143e-05
1.9856e-05
2.07797e-05
2.17897e-05
2.28899e-05
2.40838e-05
2.53744e-05
2.67639e-05
2.82544e-05
2.98469e-05
3.15419e-05
3.3339e-05
3.52365e-05
3.72318e-05
3.93209e-05
4.14957e-05
4.37449e-05
4.60629e-05
4.8447e-05
5.08701e-05
5.32803e-05
5.55949e-05
5.76299e-05
5.91633e-05
5.95035e-05
5.9452e-05
5.86711e-05
5.7751e-05
5.62428e-05
5.24392e-05
4.80191e-05
4.77612e-05
5.03284e-05
5.47514e-05
6.08702e-05
1.42167e-05
1.42436e-05
1.4275e-05
1.43112e-05
1.43526e-05
1.43996e-05
1.4453e-05
1.45134e-05
1.45816e-05
1.46585e-05
1.4745e-05
1.48422e-05
1.49511e-05
1.5073e-05
1.52093e-05
1.53613e-05
1.55308e-05
1.57195e-05
1.59292e-05
1.61621e-05
1.64203e-05
1.67061e-05
1.70221e-05
1.7371e-05
1.77555e-05
1.81786e-05
1.86433e-05
1.91528e-05
1.97103e-05
2.03191e-05
2.09825e-05
2.17038e-05
2.24866e-05
2.33341e-05
2.42497e-05
2.52365e-05
2.62976e-05
2.74359e-05
2.86539e-05
2.99541e-05
3.13383e-05
3.28083e-05
3.43649e-05
3.60086e-05
3.77387e-05
3.95542e-05
4.14511e-05
4.34257e-05
4.54713e-05
4.75712e-05
4.9717e-05
5.18891e-05
5.40923e-05
5.62513e-05
5.82932e-05
5.99236e-05
6.08386e-05
6.06655e-05
6.04112e-05
5.94869e-05
5.82389e-05
5.60025e-05
5.28391e-05
4.78702e-05
4.58943e-05
4.66099e-05
5.01675e-05
5.60099e-05
6.12883e-05
1.76362e-05
1.77044e-05
1.77803e-05
1.78645e-05
1.79574e-05
1.80599e-05
1.81727e-05
1.82967e-05
1.84329e-05
1.85823e-05
1.87458e-05
1.89247e-05
1.91201e-05
1.93331e-05
1.9565e-05
1.98172e-05
2.00911e-05
2.0388e-05
2.07096e-05
2.10575e-05
2.14333e-05
2.18387e-05
2.22757e-05
2.27461e-05
2.32519e-05
2.37953e-05
2.43783e-05
2.50033e-05
2.56725e-05
2.63885e-05
2.71537e-05
2.7971e-05
2.88429e-05
2.97723e-05
3.07619e-05
3.18145e-05
3.29325e-05
3.41185e-05
3.53746e-05
3.67027e-05
3.81042e-05
3.958e-05
4.11302e-05
4.2754e-05
4.44491e-05
4.62132e-05
4.80371e-05
4.99179e-05
5.18403e-05
5.37712e-05
5.57247e-05
5.76245e-05
5.95202e-05
6.11951e-05
6.20215e-05
6.22835e-05
6.18534e-05
6.14273e-05
6.02935e-05
5.82629e-05
5.53777e-05
5.1827e-05
4.74732e-05
4.49578e-05
4.494e-05
4.7153e-05
5.12381e-05
5.43277e-05
5.50305e-05
2.34201e-05
2.35575e-05
2.37048e-05
2.38622e-05
2.40301e-05
2.42091e-05
2.43997e-05
2.46027e-05
2.48188e-05
2.50488e-05
2.52935e-05
2.55537e-05
2.58301e-05
2.61236e-05
2.6435e-05
2.67653e-05
2.71153e-05
2.7486e-05
2.78786e-05
2.82941e-05
2.87339e-05
2.91993e-05
2.96918e-05
3.02127e-05
3.07639e-05
3.1347e-05
3.1964e-05
3.2617e-05
3.33082e-05
3.40402e-05
3.48154e-05
3.56366e-05
3.65066e-05
3.7428e-05
3.84037e-05
3.94361e-05
4.05277e-05
4.16805e-05
4.28962e-05
4.4176e-05
4.55204e-05
4.69293e-05
4.84008e-05
4.9932e-05
5.15176e-05
5.31537e-05
5.48171e-05
5.65212e-05
5.82103e-05
5.98442e-05
6.14933e-05
6.28929e-05
6.40283e-05
6.42172e-05
6.41295e-05
6.33256e-05
6.24684e-05
6.06724e-05
5.76379e-05
5.39715e-05
5.03359e-05
4.61007e-05
4.30987e-05
4.4059e-05
4.47562e-05
4.69759e-05
4.65944e-05
4.6207e-05
4.80165e-05
3.3077e-05
3.32468e-05
3.34244e-05
3.36093e-05
3.38015e-05
3.40011e-05
3.42086e-05
3.44242e-05
3.46506e-05
3.48877e-05
3.51361e-05
3.53959e-05
3.56677e-05
3.5952e-05
3.62493e-05
3.65603e-05
3.68859e-05
3.72273e-05
3.75857e-05
3.79622e-05
3.83582e-05
3.87748e-05
3.92135e-05
3.96755e-05
4.01628e-05
4.06774e-05
4.12215e-05
4.17976e-05
4.24083e-05
4.30563e-05
4.37446e-05
4.4476e-05
4.52536e-05
4.60799e-05
4.69575e-05
4.78885e-05
4.88747e-05
4.99173e-05
5.10171e-05
5.21746e-05
5.33881e-05
5.46556e-05
5.5971e-05
5.73279e-05
5.87175e-05
6.01296e-05
6.15117e-05
6.2952e-05
6.42135e-05
6.5401e-05
6.60776e-05
6.62711e-05
6.58e-05
6.53813e-05
6.43459e-05
6.26969e-05
6.02432e-05
5.61239e-05
5.16435e-05
4.77667e-05
4.41439e-05
4.09578e-05
4.15575e-05
4.04969e-05
3.99469e-05
3.81285e-05
3.82585e-05
4.00104e-05
4.46068e-05
4.70228e-05
4.7124e-05
4.72288e-05
4.73366e-05
4.74469e-05
4.75597e-05
4.76752e-05
4.77936e-05
4.79155e-05
4.80415e-05
4.81721e-05
4.8308e-05
4.84498e-05
4.85982e-05
4.87541e-05
4.89182e-05
4.90937e-05
4.92835e-05
4.94881e-05
4.97084e-05
4.99452e-05
5.01994e-05
5.04715e-05
5.0763e-05
5.10775e-05
5.14177e-05
5.17872e-05
5.21883e-05
5.26245e-05
5.30983e-05
5.36131e-05
5.41718e-05
5.47769e-05
5.54305e-05
5.61342e-05
5.68888e-05
5.76947e-05
5.85527e-05
5.94619e-05
6.04227e-05
6.14265e-05
6.24702e-05
6.3535e-05
6.46167e-05
6.57007e-05
6.67318e-05
6.76696e-05
6.85808e-05
6.87805e-05
6.87696e-05
6.81453e-05
6.74879e-05
6.63088e-05
6.45987e-05
6.18843e-05
5.82175e-05
5.35671e-05
4.82003e-05
4.42251e-05
4.0349e-05
3.90295e-05
3.83451e-05
3.63725e-05
3.24786e-05
3.04276e-05
3.16764e-05
3.47715e-05
3.89124e-05
4.45441e-05
6.42461e-05
6.41844e-05
6.41181e-05
6.40476e-05
6.39736e-05
6.38965e-05
6.38169e-05
6.37354e-05
6.36526e-05
6.35693e-05
6.34862e-05
6.34039e-05
6.33236e-05
6.32459e-05
6.31722e-05
6.31034e-05
6.30412e-05
6.29872e-05
6.2943e-05
6.29103e-05
6.28901e-05
6.28828e-05
6.28855e-05
6.29009e-05
6.29493e-05
6.30259e-05
6.31423e-05
6.32898e-05
6.34801e-05
6.3707e-05
6.39813e-05
6.43015e-05
6.46688e-05
6.50823e-05
6.55434e-05
6.60479e-05
6.65973e-05
6.71956e-05
6.78377e-05
6.85253e-05
6.92237e-05
6.99387e-05
7.06103e-05
7.12929e-05
7.1727e-05
7.17648e-05
7.15383e-05
7.12682e-05
7.06003e-05
6.95686e-05
6.82387e-05
6.61967e-05
6.32285e-05
5.93239e-05
5.45156e-05
4.9256e-05
4.37248e-05
3.91684e-05
3.56751e-05
3.45022e-05
3.24629e-05
2.74987e-05
2.17797e-05
2.25209e-05
2.56207e-05
3.00332e-05
3.45148e-05
3.9551e-05
4.51269e-05
8.30051e-05
8.26917e-05
8.2367e-05
8.2037e-05
8.17014e-05
8.13602e-05
8.10137e-05
8.06624e-05
8.03068e-05
7.99476e-05
7.95856e-05
7.92218e-05
7.8857e-05
7.84923e-05
7.8129e-05
7.77685e-05
7.74121e-05
7.70617e-05
7.67189e-05
7.6386e-05
7.60654e-05
7.57632e-05
7.54832e-05
7.52026e-05
7.49806e-05
7.47274e-05
7.46044e-05
7.44174e-05
7.43607e-05
7.42611e-05
7.42726e-05
7.43079e-05
7.43846e-05
7.44868e-05
7.4636e-05
7.47942e-05
7.50041e-05
7.5279e-05
7.55821e-05
7.59126e-05
7.61538e-05
7.5963e-05
7.58776e-05
7.52868e-05
7.47646e-05
7.39485e-05
7.28949e-05
7.1478e-05
6.96337e-05
6.70114e-05
6.35836e-05
5.93067e-05
5.41476e-05
4.86946e-05
4.28434e-05
3.74884e-05
3.25727e-05
2.96058e-05
2.7826e-05
2.35404e-05
1.62774e-05
1.41801e-05
1.59281e-05
2.02516e-05
2.52223e-05
3.03247e-05
3.54058e-05
4.03478e-05
4.56402e-05
0.00010128
0.000100712
0.000100133
9.95424e-05
9.89416e-05
9.83309e-05
9.77109e-05
9.70823e-05
9.64459e-05
9.58029e-05
9.51539e-05
9.45002e-05
9.38427e-05
9.31828e-05
9.25218e-05
9.18616e-05
9.1204e-05
9.05508e-05
8.99035e-05
8.92681e-05
8.86486e-05
8.80461e-05
8.74623e-05
8.68964e-05
8.63544e-05
8.58322e-05
8.53445e-05
8.48843e-05
8.4465e-05
8.40799e-05
8.37392e-05
8.3441e-05
8.31706e-05
8.27769e-05
8.25904e-05
8.21398e-05
8.1916e-05
8.15363e-05
8.10375e-05
8.03669e-05
7.95601e-05
7.86357e-05
7.75695e-05
7.6227e-05
7.46401e-05
7.25307e-05
6.98659e-05
6.641e-05
6.23699e-05
5.7388e-05
5.20743e-05
4.60898e-05
4.0259e-05
3.42893e-05
2.88946e-05
2.46053e-05
2.12595e-05
1.83405e-05
1.21047e-05
8.47719e-06
8.46083e-06
1.05576e-05
1.53005e-05
2.08347e-05
2.63252e-05
3.15027e-05
3.64817e-05
4.14865e-05
4.69827e-05
0.000116702
0.000115923
0.000115127
0.000114316
0.00011349
0.00011265
0.000111797
0.000110933
0.000110057
0.000109172
0.000108278
0.000107375
0.000106465
0.000105549
0.00010463
0.000103714
0.0001028
0.00010189
0.000100983
0.000100081
9.91846e-05
9.82961e-05
9.74167e-05
9.65473e-05
9.56925e-05
9.48568e-05
9.40371e-05
9.32278e-05
9.24231e-05
9.16151e-05
9.07945e-05
8.99488e-05
8.90617e-05
8.80856e-05
8.70938e-05
8.60445e-05
8.49335e-05
8.37192e-05
8.23694e-05
8.08277e-05
7.90542e-05
7.68748e-05
7.43149e-05
7.11611e-05
6.74807e-05
6.3135e-05
5.82112e-05
5.28088e-05
4.7068e-05
4.09456e-05
3.49766e-05
2.88417e-05
2.32007e-05
1.80099e-05
1.42076e-05
1.06767e-05
7.59893e-06
5.31871e-06
4.07605e-06
4.48461e-06
6.70644e-06
1.09772e-05
1.63533e-05
2.18765e-05
2.72291e-05
3.24158e-05
3.76341e-05
4.31423e-05
4.92055e-05
0.00012613
0.000125208
0.000124271
0.00012332
0.000122353
0.000121369
0.000120374
0.000119368
0.000118351
0.000117321
0.000116279
0.000115224
0.000114157
0.000113077
0.000111986
0.000110883
0.000109771
0.000108648
0.000107517
0.000106377
0.000105229
0.000104074
0.000102914
0.000101748
0.000100564
9.93567e-05
9.8125e-05
9.68646e-05
9.55687e-05
9.4227e-05
9.28263e-05
9.13496e-05
8.97764e-05
8.80861e-05
8.62283e-05
8.41569e-05
8.18493e-05
7.92283e-05
7.62985e-05
7.29287e-05
6.92114e-05
6.49128e-05
6.03427e-05
5.51085e-05
4.98164e-05
4.3971e-05
3.83697e-05
3.23936e-05
2.60566e-05
2.0101e-05
1.49476e-05
1.06063e-05
7.57354e-06
5.49136e-06
4.09351e-06
3.0542e-06
2.27257e-06
1.69288e-06
2.00337e-06
3.70055e-06
6.75194e-06
1.1196e-05
1.65446e-05
2.20395e-05
2.73976e-05
3.27894e-05
3.85197e-05
4.47952e-05
5.16733e-05
0.000123017
0.000122123
0.000121206
0.000120266
0.000119305
0.000118322
0.000117319
0.000116296
0.000115252
0.000114189
0.000113105
0.000112002
0.000110877
0.000109731
0.000108564
0.000107374
0.00010616
0.000104924
0.000103663
0.00010238
0.00010107
9.97411e-05
9.83655e-05
9.69291e-05
9.54304e-05
9.38536e-05
9.21658e-05
9.03408e-05
8.83503e-05
8.61652e-05
8.37594e-05
8.11056e-05
7.81925e-05
7.49995e-05
7.15463e-05
6.78167e-05
6.3872e-05
5.96874e-05
5.53401e-05
5.07941e-05
4.60631e-05
4.12081e-05
3.5981e-05
3.07301e-05
2.50367e-05
1.99201e-05
1.44467e-05
1.03051e-05
7.28572e-06
5.18292e-06
3.67117e-06
2.53122e-06
1.79028e-06
1.34144e-06
1.06801e-06
7.90427e-07
6.51645e-07
6.63475e-07
1.16577e-06
2.33031e-06
4.58479e-06
8.39046e-06
1.35137e-05
1.93453e-05
2.52818e-05
3.12074e-05
3.73977e-05
4.42134e-05
5.17485e-05
9.71313e-05
9.62919e-05
9.54306e-05
9.45488e-05
9.3645e-05
9.27179e-05
9.17667e-05
9.07904e-05
8.97885e-05
8.87589e-05
8.77029e-05
8.66153e-05
8.55012e-05
8.43497e-05
8.31728e-05
8.19509e-05
8.0703e-05
7.94068e-05
7.80759e-05
7.66983e-05
7.52592e-05
7.37161e-05
7.20849e-05
7.03606e-05
6.85343e-05
6.6598e-05
6.456e-05
6.24286e-05
6.02011e-05
5.78889e-05
5.54829e-05
5.29908e-05
5.03902e-05
4.76751e-05
4.48051e-05
4.17519e-05
3.84582e-05
3.48833e-05
3.09774e-05
2.67394e-05
2.22296e-05
1.75146e-05
1.29714e-05
9.07791e-06
6.16226e-06
4.12204e-06
2.70552e-06
1.76274e-06
1.17403e-06
7.9687e-07
5.28211e-07
3.58275e-07
2.85466e-07
2.56845e-07
2.11899e-07
1.5706e-07
1.31578e-07
1.56684e-07
2.83837e-07
6.00056e-07
1.31052e-06
2.81545e-06
5.76465e-06
1.03914e-05
1.62245e-05
2.25411e-05
2.88629e-05
3.60224e-05
4.44391e-05
4.81692e-05
4.87208e-05
4.92741e-05
4.9825e-05
5.03697e-05
5.09088e-05
5.14355e-05
5.19516e-05
5.24523e-05
5.29342e-05
5.33965e-05
5.3837e-05
5.4243e-05
5.46303e-05
5.49732e-05
5.52755e-05
5.55458e-05
5.57597e-05
5.59079e-05
5.59341e-05
5.5925e-05
5.58423e-05
5.56707e-05
5.53926e-05
5.49885e-05
5.44368e-05
5.37139e-05
5.27954e-05
5.16539e-05
5.02603e-05
4.85817e-05
4.65836e-05
4.42292e-05
4.14828e-05
3.83104e-05
3.46901e-05
3.06096e-05
2.61054e-05
2.12263e-05
1.61991e-05
1.11267e-05
6.4553e-06
2.9046e-06
9.72113e-07
3.9795e-07
3.38698e-07
3.21538e-07
2.92656e-07
2.58596e-07
2.24489e-07
1.84825e-07
1.54123e-07
1.26569e-07
9.54823e-08
6.36866e-08
4.13415e-08
3.03724e-08
3.2866e-08
6.88883e-08
1.86535e-07
4.52911e-07
9.09631e-07
1.5401e-06
2.28532e-06
3.11114e-06
4.06974e-06
5.40059e-06
7.01427e-06
8.30392e-06
5.15119e-06
5.14971e-06
5.14804e-06
5.14481e-06
5.14275e-06
5.13856e-06
5.13444e-06
5.12774e-06
5.12215e-06
5.1162e-06
5.10884e-06
5.10727e-06
5.10797e-06
5.10724e-06
5.09596e-06
5.08133e-06
5.07871e-06
5.07825e-06
5.07059e-06
5.05956e-06
5.05954e-06
5.0664e-06
5.05332e-06
5.04865e-06
5.03363e-06
5.02231e-06
5.02617e-06
5.02651e-06
5.02744e-06
5.02501e-06
5.01711e-06
5.01307e-06
5.01229e-06
5.00506e-06
5.00137e-06
4.99281e-06
4.99064e-06
4.98831e-06
4.98494e-06
4.98246e-06
4.97039e-06
4.96939e-06
4.96417e-06
4.95436e-06
4.95377e-06
4.94713e-06
4.93846e-06
4.93564e-06
4.93407e-06
4.93172e-06
4.92819e-06
4.92659e-06
4.92517e-06
4.92433e-06
4.92432e-06
4.92415e-06
4.9233e-06
4.92194e-06
4.92062e-06
5.26593e-06
5.26323e-06
5.25967e-06
5.25577e-06
5.2514e-06
5.24584e-06
5.24016e-06
5.23403e-06
5.22939e-06
5.22497e-06
5.22084e-06
5.21845e-06
5.21308e-06
5.20391e-06
5.18818e-06
5.182e-06
5.18201e-06
5.17517e-06
5.16398e-06
5.15819e-06
5.15993e-06
5.16017e-06
5.14297e-06
5.13817e-06
5.12083e-06
5.11288e-06
5.11551e-06
5.11653e-06
5.11373e-06
5.10866e-06
5.10293e-06
5.09855e-06
5.09587e-06
5.08779e-06
5.08436e-06
5.07747e-06
5.07204e-06
5.06971e-06
5.06733e-06
5.06385e-06
5.05647e-06
5.05164e-06
5.04676e-06
5.0389e-06
5.03442e-06
5.03022e-06
5.02417e-06
5.0184e-06
5.01596e-06
5.01405e-06
5.01215e-06
5.01031e-06
5.00871e-06
5.00724e-06
5.00641e-06
5.00597e-06
5.00564e-06
5.00538e-06
5.0053e-06
5.40132e-06
5.39697e-06
5.39229e-06
5.3874e-06
5.38201e-06
5.37643e-06
5.37106e-06
5.36587e-06
5.36117e-06
5.35587e-06
5.34979e-06
5.34221e-06
5.33146e-06
5.31962e-06
5.30854e-06
5.30632e-06
5.30092e-06
5.28945e-06
5.2791e-06
5.27727e-06
5.27814e-06
5.26968e-06
5.25161e-06
5.24533e-06
5.22723e-06
5.22132e-06
5.22287e-06
5.22357e-06
5.21746e-06
5.21055e-06
5.20621e-06
5.20079e-06
5.19643e-06
5.18808e-06
5.18392e-06
5.17798e-06
5.17145e-06
5.16721e-06
5.16503e-06
5.16195e-06
5.15699e-06
5.15144e-06
5.14589e-06
5.1398e-06
5.13308e-06
5.12859e-06
5.12396e-06
5.11867e-06
5.11472e-06
5.11202e-06
5.11038e-06
5.1093e-06
5.10837e-06
5.10738e-06
5.1067e-06
5.10633e-06
5.10619e-06
5.10611e-06
5.10625e-06
5.56295e-06
5.55766e-06
5.55233e-06
5.54683e-06
5.54109e-06
5.53524e-06
5.52922e-06
5.52283e-06
5.51579e-06
5.50745e-06
5.49772e-06
5.48647e-06
5.47447e-06
5.46396e-06
5.45589e-06
5.45095e-06
5.43948e-06
5.42699e-06
5.41958e-06
5.41872e-06
5.41487e-06
5.39959e-06
5.38182e-06
5.37327e-06
5.3551e-06
5.35071e-06
5.35112e-06
5.35018e-06
5.34124e-06
5.33304e-06
5.32897e-06
5.32226e-06
5.31658e-06
5.30817e-06
5.30289e-06
5.29713e-06
5.29051e-06
5.28477e-06
5.28147e-06
5.27855e-06
5.27458e-06
5.26976e-06
5.26452e-06
5.25908e-06
5.25297e-06
5.24719e-06
5.24217e-06
5.23742e-06
5.23307e-06
5.22972e-06
5.22739e-06
5.22632e-06
5.22581e-06
5.22533e-06
5.22514e-06
5.2254e-06
5.22598e-06
5.22655e-06
5.22744e-06
5.75813e-06
5.75184e-06
5.7455e-06
5.73885e-06
5.73177e-06
5.72419e-06
5.71592e-06
5.70678e-06
5.6966e-06
5.68528e-06
5.67313e-06
5.66073e-06
5.64912e-06
5.63906e-06
5.62975e-06
5.61959e-06
5.60523e-06
5.59431e-06
5.58861e-06
5.58497e-06
5.57446e-06
5.55471e-06
5.53739e-06
5.52626e-06
5.50854e-06
5.5049e-06
5.50366e-06
5.50027e-06
5.48886e-06
5.47961e-06
5.47493e-06
5.46683e-06
5.45991e-06
5.45115e-06
5.44483e-06
5.43882e-06
5.43191e-06
5.42537e-06
5.42083e-06
5.41757e-06
5.41411e-06
5.40973e-06
5.40495e-06
5.4002e-06
5.39507e-06
5.38965e-06
5.38436e-06
5.37943e-06
5.37492e-06
5.37108e-06
5.36798e-06
5.36634e-06
5.36575e-06
5.36516e-06
5.36509e-06
5.36562e-06
5.36667e-06
5.36775e-06
5.36931e-06
5.99265e-06
5.98465e-06
5.97641e-06
5.96765e-06
5.95819e-06
5.94795e-06
5.93687e-06
5.92491e-06
5.91218e-06
5.89888e-06
5.88544e-06
5.87233e-06
5.8599e-06
5.84779e-06
5.83499e-06
5.82099e-06
5.80651e-06
5.79689e-06
5.7898e-06
5.7806e-06
5.76353e-06
5.74121e-06
5.72387e-06
5.71012e-06
5.69309e-06
5.68929e-06
5.6857e-06
5.67931e-06
5.66569e-06
5.65533e-06
5.64943e-06
5.63978e-06
5.63148e-06
5.62207e-06
5.61471e-06
5.60808e-06
5.60074e-06
5.59357e-06
5.58802e-06
5.58408e-06
5.58069e-06
5.57673e-06
5.57225e-06
5.56777e-06
5.56321e-06
5.55872e-06
5.55426e-06
5.54988e-06
5.54564e-06
5.54173e-06
5.53821e-06
5.53534e-06
5.53371e-06
5.53305e-06
5.53245e-06
5.53257e-06
5.53355e-06
5.53469e-06
5.53662e-06
6.27357e-06
6.2632e-06
6.25245e-06
6.24106e-06
6.22889e-06
6.21591e-06
6.2022e-06
6.18784e-06
6.173e-06
6.15789e-06
6.14275e-06
6.1277e-06
6.11266e-06
6.09721e-06
6.08118e-06
6.06531e-06
6.05113e-06
6.04037e-06
6.02882e-06
6.01286e-06
5.9904e-06
5.96658e-06
5.94843e-06
5.93214e-06
5.91562e-06
5.9106e-06
5.90396e-06
5.89418e-06
5.87844e-06
5.86674e-06
5.85911e-06
5.84768e-06
5.83776e-06
5.82739e-06
5.81894e-06
5.81139e-06
5.80347e-06
5.79563e-06
5.7891e-06
5.7843e-06
5.78058e-06
5.77682e-06
5.77269e-06
5.76849e-06
5.76432e-06
5.76025e-06
5.75632e-06
5.75257e-06
5.74903e-06
5.74577e-06
5.74281e-06
5.7403e-06
5.73833e-06
5.73704e-06
5.73613e-06
5.73523e-06
5.73525e-06
5.73571e-06
5.73742e-06
6.61214e-06
6.59903e-06
6.5855e-06
6.57132e-06
6.55635e-06
6.54062e-06
6.52425e-06
6.50729e-06
6.4899e-06
6.47216e-06
6.45418e-06
6.43596e-06
6.41749e-06
6.39883e-06
6.38041e-06
6.36307e-06
6.34736e-06
6.33244e-06
6.31446e-06
6.29179e-06
6.26519e-06
6.2401e-06
6.2202e-06
6.20142e-06
6.1848e-06
6.17738e-06
6.16699e-06
6.15349e-06
6.13555e-06
6.12213e-06
6.11227e-06
6.09869e-06
6.0869e-06
6.07528e-06