/*--------------------------------*- C++ -*----------------------------------*\
| =========                 |                                                 |
| \\      /  F ield         | OpenFOAM: The Open Source CFD Toolbox           |
|  \\    /   O peration     | Version:  2312                                  |
|   \\  /    A nd           | Website:  www.openfoam.com                      |
|    \\/     M anipulation  |                                                 |
\*---------------------------------------------------------------------------*/
FoamFile
{
    version     2.0;
    format      ascii;
    arch        "LSB;label=32;scalar=64";
    class       volScalarField;
    location    "1400";
    object      nut;
}
// * * * * * * * * * * * * * * * * * * * * * * * * * * * * * * * * * * * * * //

dimensions      [0 2 -1 0 0 0 0];

internalField   nonuniform List<scalar> 
76025
(
0.000169411
0.000169413
0.000169433
0.000169438
0.000169444
0.000169471
0.00016949
0.000169504
0.000169526
0.000169575
0.000169634
0.000169686
0.000169805
0.000169866
0.000169978
0.000170041
0.000170156
0.000170286
0.000170435
0.000170592
0.000170774
0.000170978
0.000171188
0.000171417
0.000171696
0.000171952
0.000172297
0.000172591
0.000172975
0.000173321
0.000173733
0.000174118
0.000174569
0.000175022
0.000175524
0.000176039
0.000176594
0.000177192
0.000177827
0.000178493
0.000179196
0.000179982
0.000180821
0.000181755
0.000182772
0.000183949
0.000185215
0.000186667
0.000188334
0.000190201
0.000192444
0.000194941
0.000198039
0.000201567
0.000206524
0.000211997
0.000219656
0.000229831
0.000244
0.000263469
0.000287343
0.000317485
0.000350428
0.000383407
0.000411292
0.000430119
0.000438881
0.000423469
0.000409004
0.000170875
0.000170904
0.000170938
0.000170964
0.00017099
0.000171015
0.000171053
0.000171093
0.000171143
0.000171198
0.00017128
0.000171351
0.000171469
0.00017156
0.00017167
0.000171763
0.00017188
0.000172002
0.000172151
0.00017231
0.000172494
0.000172694
0.000172917
0.000173153
0.000173426
0.000173699
0.000174015
0.000174344
0.000174707
0.000175094
0.000175513
0.000175941
0.000176411
0.000176901
0.000177431
0.000177997
0.000178599
0.000179247
0.00017994
0.000180683
0.000181493
0.000182368
0.000183339
0.000184402
0.000185593
0.000186915
0.000188401
0.000190093
0.000192014
0.000194253
0.000196824
0.000199941
0.000203618
0.000208305
0.00021409
0.000221799
0.000232091
0.000245951
0.000264458
0.000287674
0.000315755
0.000346309
0.000376882
0.000404488
0.000424601
0.000436718
0.000435228
0.000410951
0.000388884
0.000172638
0.000172656
0.000172693
0.000172714
0.000172751
0.000172791
0.000172845
0.000172915
0.000172985
0.000173078
0.000173174
0.000173294
0.000173391
0.000173495
0.000173613
0.000173731
0.000173862
0.000174
0.000174155
0.000174324
0.000174513
0.000174718
0.000174947
0.000175193
0.000175468
0.000175759
0.00017608
0.000176426
0.000176801
0.000177205
0.000177643
0.000178109
0.00017861
0.000179146
0.000179723
0.000180342
0.000181008
0.000181726
0.000182501
0.00018334
0.000184252
0.000185253
0.000186357
0.000187581
0.000188946
0.000190476
0.000192209
0.000194178
0.000196454
0.000199096
0.000202242
0.000206011
0.000210697
0.000216595
0.000224274
0.000234406
0.00024783
0.000265373
0.000287373
0.000313493
0.000342331
0.000371577
0.000398788
0.000420897
0.000434007
0.000438208
0.000425923
0.000394161
0.000363756
0.000174781
0.000174824
0.000174888
0.000174929
0.000174992
0.000175043
0.000175116
0.000175193
0.000175273
0.000175381
0.000175474
0.000175582
0.000175695
0.000175812
0.000175939
0.000176072
0.000176216
0.000176371
0.000176538
0.00017672
0.000176919
0.000177137
0.000177375
0.000177635
0.000177919
0.000178228
0.000178566
0.000178933
0.000179331
0.000179763
0.00018023
0.000180734
0.000181278
0.000181864
0.000182496
0.000183178
0.000183916
0.000184715
0.000185583
0.000186528
0.00018756
0.000188699
0.000189962
0.000191369
0.000192947
0.00019473
0.000196761
0.0001991
0.000201825
0.000205056
0.00020895
0.000213757
0.000219816
0.000227623
0.000237807
0.000251098
0.000268159
0.000289264
0.000314071
0.000341352
0.00036935
0.000395569
0.000417751
0.000432861
0.000437833
0.00043354
0.000410419
0.000372262
0.00033534
0.000177203
0.000177283
0.000177371
0.000177475
0.000177568
0.000177659
0.000177753
0.000177841
0.000177939
0.000178046
0.000178158
0.000178277
0.000178402
0.000178535
0.000178676
0.000178825
0.000178985
0.000179156
0.000179339
0.000179537
0.000179752
0.000179985
0.00018024
0.000180517
0.000180819
0.000181149
0.00018151
0.000181903
0.000182331
0.000182796
0.000183302
0.000183849
0.000184442
0.000185085
0.000185781
0.000186536
0.000187357
0.000188252
0.000189228
0.000190298
0.000191472
0.000192776
0.000194231
0.000195864
0.00019771
0.000199817
0.000202246
0.000205084
0.000208452
0.000212521
0.00021754
0.00022385
0.000231915
0.000242307
0.000255648
0.000272451
0.000292888
0.000316582
0.000342497
0.000369032
0.000394244
0.000415764
0.000431599
0.000438814
0.000435464
0.000422361
0.000388817
0.000345804
0.000302941
0.000179946
0.000180042
0.00018014
0.000180252
0.000180371
0.000180492
0.000180615
0.000180741
0.000180871
0.000181006
0.000181146
0.000181292
0.000181445
0.000181604
0.000181771
0.000181947
0.000182132
0.000182329
0.000182538
0.000182761
0.000183001
0.000183259
0.000183539
0.000183841
0.000184171
0.000184531
0.000184923
0.00018535
0.000185816
0.000186324
0.000186876
0.000187477
0.00018813
0.000188841
0.000189615
0.000190459
0.000191381
0.000192392
0.000193501
0.000194726
0.000196079
0.000197592
0.000199295
0.000201225
0.000203434
0.000205989
0.000208984
0.00021255
0.00021687
0.000222196
0.00022887
0.000237326
0.000248076
0.000261627
0.000278357
0.000298317
0.000321095
0.000345754
0.000370895
0.000394811
0.000415574
0.000431071
0.000439517
0.000438261
0.000426492
0.000404253
0.000361326
0.000314685
0.000266368
0.000183131
0.000183214
0.000183315
0.000183428
0.000183552
0.000183685
0.000183826
0.000183974
0.00018413
0.000184293
0.000184463
0.00018464
0.000184825
0.000185018
0.000185219
0.00018543
0.00018565
0.000185882
0.000186127
0.000186387
0.000186663
0.000186958
0.000187274
0.000187615
0.000187985
0.000188386
0.000188823
0.000189298
0.000189815
0.000190379
0.000190993
0.000191664
0.000192395
0.000193194
0.000194067
0.000195026
0.000196078
0.000197239
0.000198522
0.000199951
0.000201542
0.000203338
0.000205381
0.00020773
0.00021046
0.000213675
0.000217518
0.000222183
0.000227931
0.000235095
0.000244079
0.00025532
0.000269214
0.000285994
0.000305603
0.000327577
0.000351053
0.000374793
0.000397298
0.000416913
0.000431817
0.000440211
0.000440485
0.000430516
0.000410388
0.000378916
0.000325503
0.000276762
0.000226369
0.000186922
0.000186987
0.000187073
0.000187177
0.000187293
0.000187423
0.000187565
0.000187719
0.000187885
0.000188063
0.000188252
0.000188452
0.000188662
0.000188884
0.000189118
0.000189363
0.00018962
0.000189891
0.000190177
0.00019048
0.000190801
0.000191142
0.000191506
0.000191899
0.000192322
0.00019278
0.000193276
0.000193815
0.000194403
0.000195042
0.000195741
0.000196504
0.00019734
0.000198257
0.000199264
0.000200375
0.000201604
0.000202969
0.00020449
0.0002062
0.000208129
0.00021033
0.000212874
0.000215847
0.000219367
0.000223589
0.000228721
0.000235024
0.000242818
0.000252462
0.000264307
0.00027863
0.000295527
0.00031483
0.000336042
0.000358339
0.000380636
0.000401604
0.000419798
0.000433676
0.000441579
0.00044206
0.000433692
0.000415107
0.000386763
0.000345117
0.000287216
0.000241056
0.000185868
0.000191449
0.000191496
0.00019157
0.000191664
0.00019177
0.00019189
0.000192024
0.000192173
0.000192338
0.000192519
0.000192714
0.000192925
0.000193151
0.000193393
0.000193651
0.000193924
0.000194214
0.000194522
0.000194848
0.000195195
0.000195564
0.000195957
0.000196379
0.000196833
0.000197322
0.000197852
0.000198425
0.000199049
0.000199728
0.000200469
0.000201281
0.00020217
0.000203148
0.000204225
0.000205417
0.00020674
0.000208215
0.00020987
0.000211736
0.000213858
0.000216292
0.00021911
0.000222423
0.000226362
0.000231098
0.000236842
0.000243852
0.000252417
0.000262834
0.000275356
0.000290131
0.000307134
0.000326094
0.000346496
0.00036756
0.000388306
0.000407595
0.000424127
0.000436581
0.00044354
0.000443587
0.000435633
0.000418508
0.000391684
0.000354836
0.000301011
0.000246492
0.000200922
0.00014774
0.000196803
0.000196855
0.000196926
0.000197024
0.000197136
0.000197255
0.000197387
0.000197532
0.000197694
0.000197874
0.000198071
0.000198287
0.000198522
0.000198777
0.000199052
0.000199348
0.000199666
0.000200007
0.000200372
0.000200763
0.000201182
0.000201633
0.000202119
0.000202644
0.000203213
0.00020383
0.000204501
0.000205232
0.000206032
0.000206909
0.000207872
0.000208934
0.000210108
0.000211412
0.000212866
0.000214496
0.000216335
0.000218424
0.000220816
0.000223577
0.0002268
0.000230586
0.000235096
0.000240508
0.000247031
0.0002549
0.000264356
0.000275611
0.000288811
0.000303982
0.000320982
0.000339478
0.000358928
0.000378625
0.000397668
0.000415074
0.000429719
0.000440392
0.000445943
0.000445074
0.000436737
0.000420161
0.000394527
0.000359871
0.000312122
0.000259723
0.000208185
0.0001652
0.000116203
0.000203215
0.000203275
0.000203355
0.000203466
0.000203589
0.000203717
0.000203853
0.000204002
0.000204167
0.00020435
0.000204552
0.000204775
0.00020502
0.000205289
0.000205582
0.000205901
0.000206247
0.000206623
0.000207028
0.000207468
0.000207944
0.000208462
0.000209024
0.000209635
0.000210302
0.00021103
0.000211827
0.000212702
0.000213664
0.000214726
0.000215902
0.000217209
0.000218669
0.000220308
0.000222158
0.000224261
0.000226668
0.000229444
0.000232672
0.00023645
0.000240906
0.000246183
0.000252453
0.000259915
0.000268763
0.000279164
0.000291236
0.000305012
0.000320407
0.000337195
0.000354995
0.00037328
0.000391378
0.000408525
0.000423794
0.000436284
0.000444883
0.000448559
0.000446328
0.00043704
0.000420191
0.000395147
0.00036151
0.000317576
0.000266209
0.000216727
0.000170314
0.000128201
9.66453e-05
0.000210943
0.000211011
0.0002111
0.000211228
0.000211369
0.000211511
0.000211661
0.000211823
0.000212001
0.000212197
0.000212414
0.000212654
0.000212919
0.000213211
0.000213531
0.000213883
0.000214268
0.000214688
0.000215148
0.000215652
0.000216203
0.000216807
0.00021747
0.000218197
0.000218997
0.000219878
0.000220851
0.000221929
0.000223128
0.000224465
0.000225963
0.000227648
0.000229557
0.000231729
0.000234218
0.000237086
0.000240411
0.000244288
0.000248824
0.000254147
0.000260395
0.000267712
0.00027624
0.000286091
0.000297379
0.00031011
0.00032422
0.000339541
0.00035579
0.000372567
0.000389372
0.000405595
0.000420539
0.000433449
0.000443416
0.000449681
0.000451098
0.000446979
0.000436401
0.000418518
0.000393474
0.000360314
0.000317421
0.000267613
0.000219548
0.000176246
0.000131945
9.89711e-05
8.20937e-05
0.00022031
0.000220391
0.000220515
0.000220657
0.000220806
0.000220963
0.000221132
0.000221316
0.000221518
0.000221741
0.000221988
0.000222261
0.000222563
0.000222896
0.000223264
0.00022367
0.000224117
0.000224611
0.000225156
0.000225758
0.000226423
0.000227159
0.000227973
0.000228877
0.000229881
0.000231
0.000232252
0.000233655
0.000235236
0.000237023
0.000239053
0.000241368
0.000244022
0.000247078
0.000250608
0.000254698
0.000259443
0.000264949
0.000271324
0.000278678
0.000287107
0.000296689
0.000307463
0.00031942
0.000332493
0.000346528
0.000361338
0.000376611
0.000391948
0.00040688
0.000420871
0.000433295
0.000443487
0.000450722
0.000454147
0.000453184
0.000446599
0.000434319
0.000415145
0.000389088
0.000356401
0.000314317
0.000265439
0.0002195
0.000174891
0.00013467
9.8359e-05
7.78985e-05
7.21783e-05
0.000231748
0.00023187
0.000232011
0.000232166
0.000232334
0.000232517
0.000232718
0.00023294
0.000233184
0.000233455
0.000233755
0.000234088
0.000234457
0.000234866
0.00023532
0.000235824
0.000236384
0.000237007
0.0002377
0.000238472
0.000239334
0.000240296
0.000241374
0.000242584
0.000243945
0.00024548
0.000247217
0.000249189
0.000251435
0.000253997
0.00025693
0.000260291
0.000264149
0.000268576
0.000273651
0.000279454
0.000286066
0.000293557
0.000301985
0.000311386
0.000321765
0.000333091
0.000345283
0.000358212
0.00037169
0.000385471
0.000399248
0.000412655
0.00042526
0.0004366
0.000446147
0.00045328
0.000457417
0.000457838
0.00045384
0.000444995
0.000430006
0.000409682
0.000382009
0.000349037
0.00030756
0.000258671
0.00021464
0.000172023
0.000135452
9.75222e-05
7.34117e-05
6.45386e-05
6.50972e-05
0.000245921
0.00024607
0.00024624
0.000246431
0.000246643
0.000246879
0.00024714
0.00024743
0.000247753
0.000248112
0.000248512
0.000248958
0.000249455
0.00025001
0.000250631
0.000251325
0.000252101
0.000252972
0.000253949
0.000255047
0.000256283
0.000257677
0.000259251
0.000261031
0.000263047
0.000265334
0.000267931
0.000270879
0.000274228
0.000278028
0.000282335
0.000287204
0.000292692
0.000298851
0.000305728
0.000313359
0.000321766
0.000330949
0.000340887
0.000351528
0.000362787
0.000374545
0.00038664
0.000398871
0.000410993
0.000422715
0.000433701
0.000443566
0.000451889
0.000458179
0.000461951
0.00046263
0.000459774
0.000452602
0.000440766
0.000423758
0.000400542
0.000372629
0.000337252
0.000295619
0.000249585
0.000206537
0.000166239
0.00013104
9.59552e-05
7.03877e-05
5.76739e-05
5.7303e-05
6.34367e-05
0.00026386
0.000264079
0.000264327
0.000264606
0.000264919
0.000265267
0.000265656
0.00026609
0.000266577
0.000267121
0.000267732
0.000268416
0.000269183
0.000270044
0.000271011
0.000272097
0.000273317
0.000274689
0.000276232
0.000277966
0.000279918
0.000282111
0.000284577
0.000287345
0.00029045
0.000293927
0.000297812
0.000302142
0.000306954
0.00031228
0.000318149
0.000324587
0.00033161
0.000339222
0.000347417
0.000356172
0.000365448
0.000375183
0.000385295
0.000395674
0.000406184
0.000416659
0.000426904
0.000436687
0.000445743
0.00045377
0.000460428
0.000465335
0.000468095
0.000468225
0.000465324
0.000458793
0.00044845
0.000433354
0.000413851
0.000388744
0.000358184
0.00032285
0.000279119
0.000237554
0.000194441
0.00015699
0.000124061
9.08559e-05
6.52934e-05
5.24027e-05
5.07607e-05
5.46633e-05
6.16441e-05
0.00028756
0.000287954
0.000288398
0.000288897
0.000289455
0.000290078
0.000290774
0.000291552
0.00029242
0.00029339
0.000294471
0.000295678
0.000297022
0.000298518
0.000300182
0.00030203
0.00030408
0.000306351
0.000308863
0.000311636
0.00031469
0.000318048
0.000321731
0.000325759
0.000330151
0.000334924
0.000340093
0.000345669
0.000351659
0.000358062
0.000364873
0.000372077
0.000379652
0.000387564
0.000395766
0.000404198
0.000412784
0.000421431
0.000430027
0.000438436
0.000446502
0.000454041
0.000460845
0.000466672
0.000471255
0.000474294
0.000475454
0.000474376
0.000470702
0.000463961
0.000453891
0.000439858
0.00042206
0.000399279
0.000372941
0.000339844
0.000302665
0.000259936
0.000218818
0.000180686
0.000143595
0.000113074
8.40627e-05
5.97233e-05
4.68948e-05
4.43916e-05
4.78883e-05
5.47168e-05
6.32697e-05
0.000321518
0.000322382
0.000323334
0.000324378
0.000325521
0.000326769
0.000328133
0.00032962
0.00033124
0.000333004
0.000334921
0.000337001
0.000339256
0.000341695
0.000344329
0.000347169
0.000350223
0.000353502
0.000357013
0.000360765
0.000364765
0.000369018
0.000373527
0.000378294
0.000383317
0.000388593
0.000394114
0.000399868
0.00040584
0.000412006
0.00041834
0.000424806
0.000431362
0.000437955
0.00044452
0.00045098
0.000457245
0.000463208
0.000468742
0.000473703
0.000477925
0.000481218
0.000483369
0.000484135
0.000483253
0.000480436
0.000475357
0.000467719
0.000457194
0.000443343
0.000426131
0.000404846
0.000380238
0.000350827
0.000316035
0.000276073
0.000237212
0.000198019
0.000163015
0.000128953
9.89645e-05
7.47277e-05
5.28423e-05
4.23855e-05
4.02259e-05
4.27651e-05
4.81598e-05
5.5516e-05
6.13913e-05
0.000375672
0.000377215
0.000378855
0.000380594
0.000382432
0.000384374
0.000386424
0.000388583
0.000390858
0.000393252
0.000395769
0.000398412
0.000401183
0.000404084
0.000407116
0.000410281
0.000413576
0.000417003
0.000420558
0.000424239
0.000428042
0.000431962
0.00043599
0.000440117
0.00044433
0.000448614
0.000452952
0.000457321
0.000461696
0.000466047
0.000470336
0.000474521
0.000478549
0.00048236
0.000485881
0.000489027
0.000491698
0.00049378
0.000495138
0.000495622
0.000495062
0.000493265
0.000490018
0.000485079
0.000478203
0.000469124
0.000457524
0.000443282
0.000425985
0.000405347
0.000381685
0.000354097
0.000322733
0.000286147
0.000249213
0.000210282
0.000176566
0.000141486
0.000112185
8.37694e-05
6.37419e-05
4.53746e-05
3.71936e-05
3.69503e-05
3.82934e-05
4.24426e-05
4.76481e-05
5.40679e-05
6.16288e-05
0.000455498
0.000457025
0.000458599
0.000460217
0.000461875
0.000463572
0.000465307
0.00046708
0.000468906
0.000470782
0.000472703
0.000474667
0.000476669
0.000478705
0.000480772
0.000482864
0.000484977
0.000487109
0.000489253
0.000491403
0.000493551
0.000495685
0.00049779
0.00049985
0.000501848
0.000503765
0.000505581
0.000507269
0.000508802
0.000510144
0.000511255
0.000512086
0.00051258
0.00051267
0.000512275
0.000511303
0.000509646
0.000507183
0.000503774
0.000499269
0.000493491
0.000486251
0.000477337
0.000466518
0.00045361
0.000438343
0.000420452
0.000400286
0.000376749
0.000350511
0.000319634
0.000286403
0.000249556
0.000216087
0.000181073
0.000149619
0.000119555
9.20866e-05
6.90645e-05
5.12588e-05
3.81487e-05
3.21894e-05
3.266e-05
3.27504e-05
3.52941e-05
4.03276e-05
4.87589e-05
5.83818e-05
6.77391e-05
0.000544624
0.000545043
0.000545455
0.000545851
0.000546225
0.000546572
0.000546888
0.00054717
0.000547417
0.000547626
0.000547795
0.000547921
0.000547998
0.000548024
0.000547992
0.000547899
0.00054775
0.000547548
0.000547282
0.000546939
0.000546503
0.000545953
0.000545261
0.000544404
0.000543379
0.000542166
0.000540753
0.000539106
0.000537199
0.000534987
0.00053243
0.000529473
0.000526053
0.00052209
0.000517497
0.000512169
0.000505992
0.000498844
0.000490586
0.000481077
0.000470126
0.000457563
0.000443178
0.000426801
0.000408382
0.000387448
0.000364285
0.000338858
0.000309
0.000277458
0.000243686
0.000211943
0.000179023
0.000150289
0.000120099
9.58069e-05
7.18345e-05
5.40858e-05
3.93985e-05
3.07882e-05
2.82223e-05
2.81232e-05
2.79056e-05
2.86866e-05
3.46823e-05
4.65784e-05
6.04803e-05
7.05586e-05
7.84e-05
0.000615103
0.000613963
0.000612735
0.000611422
0.000610023
0.00060854
0.000606969
0.000605311
0.000603561
0.000601718
0.000599777
0.000597736
0.000595589
0.000593332
0.000590959
0.000588465
0.000585843
0.000583088
0.000580191
0.00057714
0.000573913
0.000570455
0.000566709
0.000562664
0.000558466
0.000554016
0.000549375
0.000544398
0.000539137
0.000533457
0.00052738
0.000520812
0.000513677
0.000505873
0.000497316
0.00048787
0.000477442
0.00046594
0.000453227
0.000439181
0.000423558
0.000406262
0.00038707
0.000366138
0.000342547
0.000315674
0.000287459
0.000257959
0.000228401
0.000198125
0.000169458
0.000142084
0.0001152
9.22737e-05
7.03636e-05
5.36047e-05
3.9008e-05
2.91261e-05
2.41854e-05
2.31901e-05
2.22511e-05
2.03778e-05
2.02015e-05
2.97277e-05
4.56438e-05
6.30884e-05
7.5575e-05
8.33429e-05
8.905e-05
0.000644552
0.000641727
0.000638773
0.00063573
0.00063259
0.000629345
0.000625991
0.000622521
0.00061893
0.000615215
0.000611368
0.000607385
0.000603261
0.000598988
0.000594561
0.000589971
0.000585212
0.000580273
0.000575146
0.00056982
0.000564281
0.000558521
0.000552521
0.000546083
0.0005396
0.000532378
0.000525523
0.000517601
0.000509913
0.000501191
0.000492414
0.000482909
0.000472721
0.000461654
0.000449776
0.000436745
0.000422763
0.00040777
0.000391544
0.000373952
0.000354613
0.000331862
0.000308784
0.000282667
0.00025677
0.000229596
0.000202873
0.000175554
0.000150703
0.000125565
0.000103163
8.22413e-05
6.36679e-05
4.86978e-05
3.58304e-05
2.64847e-05
2.07999e-05
1.83134e-05
1.73997e-05
1.54024e-05
1.2109e-05
1.48673e-05
2.43874e-05
4.10954e-05
6.06927e-05
7.74096e-05
8.80441e-05
9.37121e-05
0.000100006
0.000620046
0.000616172
0.000612181
0.00060807
0.000603835
0.000599474
0.000594982
0.000590354
0.000585586
0.000580673
0.000575611
0.000570392
0.000565012
0.000559463
0.000553738
0.00054783
0.00054173
0.000535428
0.000528914
0.000522183
0.000515224
0.000508019
0.000500546
0.000492765
0.000484665
0.000476182
0.000467341
0.00045805
0.000448313
0.000438031
0.000427183
0.000415681
0.00040338
0.000389491
0.00037553
0.000359258
0.000342902
0.000324708
0.000305141
0.000283847
0.0002618
0.000238448
0.000215383
0.000191227
0.000168022
0.000144933
0.000122978
0.000102201
8.4118e-05
6.67761e-05
5.25623e-05
3.96182e-05
2.97565e-05
2.17184e-05
1.69542e-05
1.406e-05
1.22283e-05
1.09416e-05
7.76352e-06
7.12503e-06
1.02138e-05
1.73747e-05
3.25412e-05
5.29275e-05
7.30465e-05
8.85112e-05
9.82389e-05
0.000104662
0.000113135
0.000536256
0.00053212
0.000527863
0.000523482
0.000518975
0.000514339
0.000509571
0.000504668
0.000499626
0.00049444
0.000489106
0.000483619
0.00047797
0.000472155
0.000466169
0.000460011
0.00045367
0.000447132
0.000440384
0.000433414
0.000426205
0.000418739
0.000410993
0.000402929
0.000394512
0.000385705
0.000376436
0.000366621
0.000356179
0.000345019
0.000333057
0.000320199
0.000306366
0.000291375
0.00027553
0.000258676
0.000241047
0.000222415
0.000203446
0.000183475
0.000164182
0.000143737
0.000125291
0.000106081
8.96299e-05
7.37433e-05
5.98496e-05
4.81853e-05
3.77712e-05
2.86615e-05
2.12217e-05
1.56943e-05
1.20875e-05
9.4125e-06
7.52321e-06
5.85224e-06
4.4227e-06
3.80953e-06
4.16723e-06
5.89873e-06
1.06407e-05
2.11985e-05
3.80304e-05
5.86171e-05
7.79817e-05
9.40547e-05
0.00010582
0.000115704
0.000127588
0.000394949
0.000391414
0.000387791
0.000384077
0.000380267
0.000376358
0.000372354
0.000368251
0.000364044
0.000359727
0.000355294
0.000350738
0.000346053
0.00034123
0.000336265
0.000331147
0.000325871
0.000320426
0.0003148
0.000308989
0.000302964
0.000296707
0.000290173
0.000283275
0.000275877
0.000267918
0.000259353
0.000250136
0.000240223
0.000229571
0.00021816
0.000205965
0.000193036
0.000179368
0.000165134
0.000150275
0.000135341
0.000120054
0.000105496
9.08318e-05
7.78475e-05
6.49076e-05
5.44085e-05
4.39011e-05
3.60726e-05
2.82638e-05
2.25715e-05
1.73987e-05
1.23067e-05
9.06206e-06
6.77492e-06
4.91333e-06
3.63153e-06
2.78827e-06
2.31286e-06
2.11258e-06
2.17477e-06
2.01256e-06
2.75025e-06
5.33932e-06
1.02423e-05
1.90138e-05
3.32497e-05
5.22354e-05
7.15787e-05
8.88589e-05
0.000104113
0.00011837
0.000134532
0.000219474
0.00021735
0.000215173
0.000212942
0.000210656
0.000208313
0.000205911
0.000203448
0.000200923
0.000198331
0.000195671
0.000192935
0.000190125
0.000187225
0.000184246
0.00018116
0.000177986
0.00017469
0.00017128
0.00016777
0.000164036
0.000160099
0.000155717
0.00015079
0.000145326
0.000139309
0.000132712
0.000125546
0.000117839
0.000109645
0.000101056
9.21656e-05
8.31618e-05
7.41315e-05
6.5378e-05
5.69003e-05
4.90687e-05
4.17449e-05
3.52915e-05
2.94395e-05
2.4409e-05
1.99952e-05
1.61002e-05
1.28191e-05
9.78917e-06
7.43157e-06
5.16468e-06
3.70534e-06
2.71481e-06
2.0738e-06
1.59241e-06
1.23331e-06
1.05451e-06
9.96625e-07
1.08396e-06
1.03284e-06
9.09562e-07
8.203e-07
1.21642e-06
2.25437e-06
4.40585e-06
8.93422e-06
1.71039e-05
3.00262e-05
4.67926e-05
6.42122e-05
8.01039e-05
9.67544e-05
0.000116454
6.66116e-05
6.59041e-05
6.51792e-05
6.44378e-05
6.36793e-05
6.29028e-05
6.21078e-05
6.12925e-05
6.04576e-05
5.95987e-05
5.87203e-05
5.781e-05
5.68852e-05
5.59124e-05
5.49377e-05
5.38897e-05
5.28547e-05
5.17232e-05
5.06004e-05
4.93933e-05
4.78239e-05
4.58935e-05
4.36852e-05
4.12648e-05
3.86856e-05
3.60069e-05
3.32854e-05
3.05796e-05
2.79241e-05
2.53652e-05
2.29168e-05
2.06111e-05
1.84406e-05
1.64229e-05
1.45385e-05
1.27891e-05
1.11501e-05
9.61007e-06
8.15328e-06
6.75943e-06
5.45118e-06
4.19033e-06
3.08202e-06
2.17314e-06
1.50744e-06
1.05145e-06
7.5381e-07
5.64237e-07
4.59302e-07
3.86688e-07
3.18193e-07
2.56703e-07
2.27961e-07
2.18272e-07
1.90477e-07
1.4194e-07
1.08557e-07
1.06955e-07
1.56067e-07
2.93212e-07
6.08128e-07
1.321e-06
2.98698e-06
6.35902e-06
1.22881e-05
2.07073e-05
2.83902e-05
3.72608e-05
5.04695e-05
5.6557e-06
5.72527e-06
5.7957e-06
5.86661e-06
5.93756e-06
6.00866e-06
6.07921e-06
6.1494e-06
6.21875e-06
6.28689e-06
6.35373e-06
6.4191e-06
6.48156e-06
6.54284e-06
6.60023e-06
6.65396e-06
6.70506e-06
6.7509e-06
6.79065e-06
6.8172e-06
6.8406e-06
6.85644e-06
6.86291e-06
6.85788e-06
6.83896e-06
6.80342e-06
6.74824e-06
6.67018e-06
6.56554e-06
6.43023e-06
6.25954e-06
6.04828e-06
5.79065e-06
5.4806e-06
5.11179e-06
4.67885e-06
4.17707e-06
3.6076e-06
2.97305e-06
2.30074e-06
1.60299e-06
9.42777e-07
4.29184e-07
1.44909e-07
5.97084e-08
5.11126e-08
4.88023e-08
4.46754e-08
3.97038e-08
3.46652e-08
2.87037e-08
2.40711e-08
1.98785e-08
1.50793e-08
1.01129e-08
6.59985e-09
4.87412e-09
5.30116e-09
1.11657e-08
3.0372e-08
7.40454e-08
1.49243e-07
2.53464e-07
3.77129e-07
5.14621e-07
6.74384e-07
8.9568e-07
1.16365e-06
1.37757e-06
0.000172996
0.000172959
0.000172916
0.000172849
0.000172796
0.000172699
0.000172604
0.000172456
0.000172317
0.000172159
0.000171972
0.000171899
0.000171869
0.000171821
0.000171591
0.000171278
0.000171188
0.000171158
0.000171015
0.000170819
0.000170815
0.000170923
0.000170675
0.000170569
0.000170296
0.000170078
0.000170122
0.000170122
0.000170154
0.000170107
0.000169937
0.000169834
0.000169821
0.000169727
0.000169688
0.00016959
0.000169596
0.000169588
0.00016956
0.000169555
0.000169389
0.000169411
0.00016936
0.000169259
0.000169298
0.000169235
0.000169135
0.000169152
0.000169175
0.000169197
0.0001692
0.000169209
0.000169228
0.000169255
0.000169299
0.000169332
0.00016936
0.000169383
0.000169397
0.000174977
0.000174924
0.000174852
0.000174763
0.000174655
0.000174525
0.000174389
0.000174238
0.000174109
0.000173985
0.000173883
0.000173801
0.000173694
0.000173488
0.000173165
0.000173018
0.000173
0.00017286
0.00017266
0.000172551
0.000172576
0.000172573
0.000172251
0.000172148
0.00017184
0.000171676
0.000171706
0.000171718
0.000171688
0.000171597
0.000171465
0.000171359
0.000171315
0.000171205
0.000171172
0.000171099
0.000171049
0.000171047
0.000171036
0.000171005
0.000170934
0.00017088
0.000170836
0.000170764
0.000170737
0.000170708
0.000170668
0.000170623
0.000170632
0.00017065
0.000170681
0.000170695
0.000170704
0.000170723
0.000170739
0.000170763
0.000170787
0.000170817
0.000170847
0.000177231
0.000177143
0.000177045
0.000176933
0.000176809
0.000176681
0.000176552
0.000176425
0.000176309
0.000176192
0.000176064
0.000175896
0.000175683
0.000175427
0.000175198
0.000175136
0.000175035
0.00017482
0.000174639
0.000174599
0.00017461
0.000174452
0.000174121
0.000173999
0.000173679
0.000173552
0.000173568
0.000173576
0.000173492
0.000173369
0.000173262
0.000173143
0.000173072
0.000172956
0.000172913
0.000172849
0.00017279
0.000172752
0.000172753
0.000172725
0.000172679
0.000172633
0.000172577
0.000172527
0.000172466
0.000172423
0.000172399
0.000172371
0.000172354
0.000172356
0.000172382
0.000172416
0.000172439
0.000172464
0.000172488
0.000172517
0.000172545
0.000172574
0.000172604
0.000179843
0.000179737
0.000179629
0.000179514
0.000179394
0.00017927
0.000179139
0.000179003
0.000178859
0.000178696
0.000178501
0.000178271
0.00017803
0.000177811
0.000177652
0.000177559
0.00017736
0.000177132
0.000177007
0.000176983
0.000176909
0.000176637
0.000176318
0.000176162
0.000175844
0.000175745
0.000175746
0.000175728
0.000175598
0.000175455
0.000175354
0.000175218
0.000175127
0.000175008
0.000174949
0.000174884
0.000174822
0.000174772
0.000174758
0.000174734
0.000174691
0.00017465
0.00017461
0.00017457
0.000174534
0.000174471
0.00017442
0.000174393
0.000174372
0.000174365
0.000174374
0.000174411
0.00017445
0.000174482
0.000174519
0.000174564
0.000174613
0.000174661
0.000174711
0.00018295
0.000182831
0.000182711
0.000182584
0.000182449
0.000182302
0.000182141
0.000181965
0.000181773
0.000181559
0.000181323
0.00018108
0.000180856
0.000180664
0.0001805
0.000180329
0.000180083
0.000179888
0.000179794
0.000179718
0.000179534
0.000179194
0.000178889
0.000178694
0.000178387
0.000178305
0.000178282
0.000178226
0.000178056
0.000177897
0.00017779
0.000177635
0.000177526
0.0001774
0.000177327
0.000177259
0.000177185
0.000177128
0.000177104
0.000177084
0.000177045
0.000176997
0.000176957
0.00017693
0.000176908
0.000176881
0.000176831
0.000176789
0.000176756
0.000176736
0.000176727
0.000176752
0.000176796
0.000176828
0.000176868
0.000176923
0.000176989
0.000177052
0.000177115
0.000186623
0.000186479
0.000186331
0.000186172
0.000186001
0.000185814
0.000185612
0.000185395
0.000185164
0.000184921
0.000184673
0.000184432
0.000184211
0.000184003
0.00018379
0.000183559
0.000183313
0.000183146
0.000183028
0.000182862
0.000182577
0.000182202
0.000181903
0.000181671
0.000181379
0.000181299
0.000181241
0.00018114
0.000180937
0.000180762
0.000180638
0.000180464
0.000180335
0.000180199
0.000180111
0.000180036
0.00017995
0.000179881
0.00017985
0.000179834
0.000179798
0.000179755
0.000179708
0.000179672
0.000179649
0.000179638
0.000179628
0.000179611
0.000179586
0.000179562
0.00017954
0.000179527
0.000179542
0.000179576
0.000179603
0.000179646
0.00017971
0.000179774
0.000179851
0.000190914
0.000190735
0.00019055
0.000190353
0.000190142
0.000189917
0.000189679
0.000189431
0.000189175
0.000188913
0.000188651
0.000188396
0.000188147
0.000187896
0.000187637
0.00018738
0.000187143
0.000186964
0.000186775
0.000186506
0.000186145
0.000185752
0.000185449
0.000185182
0.000184903
0.00018481
0.000184706
0.000184557
0.000184323
0.000184129
0.000183983
0.000183786
0.000183634
0.000183485
0.000183384
0.000183296
0.000183201
0.000183116
0.000183069
0.000183051
0.000183023
0.000182986
0.000182945
0.000182908
0.000182875
0.000182855
0.000182847
0.000182845
0.000182848
0.000182849
0.000182849
0.00018285
0.000182856
0.000182874
0.000182893
0.000182904
0.000182937
0.000182979
0.000183046
0.000195938
0.000195722
0.0001955
0.000195266
0.00019502
0.000194762
0.000194493
0.000194215
0.000193931
0.000193641
0.00019335
0.000193059
0.000192768
0.000192476
0.000192187
0.000191912
0.000191659
0.000191422
0.000191136
0.000190774
0.000190357
0.000189952
0.000189632
0.000189332
0.000189059
0.000188935
0.000188778
0.000188576
0.000188313
0.000188096
0.000187921
0.000187698
0.000187521
0.000187358
0.000187237