/*--------------------------------*- C++ -*----------------------------------*\
| =========                 |                                                 |
| \\      /  F ield         | OpenFOAM: The Open Source CFD Toolbox           |
|  \\    /   O peration     | Version:  2312                                  |
|   \\  /    A nd           | Website:  www.openfoam.com                      |
|    \\/     M anipulation  |                                                 |
\*---------------------------------------------------------------------------*/
FoamFile
{
    version     2.0;
    format      ascii;
    arch        "LSB;label=32;scalar=64";
    class       volScalarField;
    location    "1400";
    object      omega;
}
// * * * * * * * * * * * * * * * * * * * * * * * * * * * * * * * * * * * * * //

dimensions      [0 0 -1 0 0 0 0];

internalField   nonuniform List<scalar> 
76025
(
0.0290375
0.0290238
0.0290085
0.0289962
0.0289821
0.028975
0.0289658
0.0289568
0.0289437
0.0289343
0.0289254
0.0289184
0.0289083
0.0288978
0.0288937
0.0288937
0.0288979
0.0289025
0.028908
0.0289148
0.0289252
0.0289397
0.0289539
0.0289722
0.028998
0.02902
0.0290553
0.0290829
0.0291257
0.0291619
0.0292097
0.0292538
0.0293093
0.0293637
0.0294248
0.0294868
0.0295568
0.0296315
0.0297121
0.0297975
0.0298887
0.0299939
0.0301071
0.0302354
0.030378
0.0305463
0.0307291
0.0309392
0.0311905
0.0314699
0.031804
0.0321785
0.0326509
0.033185
0.0339086
0.0346872
0.0357276
0.0370494
0.0387944
0.0410924
0.0438349
0.0474346
0.0518447
0.0571488
0.0638807
0.0717718
0.0819755
0.0975367
0.113568
0.0292906
0.029281
0.02927
0.0292598
0.0292471
0.0292385
0.0292296
0.0292227
0.0292145
0.0292067
0.0291972
0.0291908
0.0291826
0.0291774
0.0291775
0.0291775
0.0291826
0.0291881
0.029197
0.0292065
0.029219
0.0292335
0.029251
0.0292701
0.0292948
0.0293189
0.0293497
0.0293822
0.0294204
0.0294626
0.0295102
0.0295594
0.0296155
0.0296745
0.0297398
0.0298106
0.0298871
0.029971
0.0300621
0.0301616
0.0302719
0.0303929
0.0305298
0.0306818
0.0308548
0.031049
0.0312699
0.0315237
0.0318128
0.0321514
0.03254
0.0330068
0.0335521
0.0342318
0.0350469
0.036092
0.037422
0.0391339
0.0413179
0.0440219
0.0473632
0.0513632
0.056127
0.0618543
0.0691042
0.078089
0.0902236
0.107425
0.126393
0.0295777
0.0295723
0.0295643
0.0295584
0.0295503
0.0295434
0.0295357
0.0295281
0.029523
0.0295152
0.0295095
0.029501
0.0295001
0.0294989
0.0295012
0.0295045
0.0295109
0.0295188
0.0295295
0.0295419
0.0295568
0.0295738
0.0295937
0.0296159
0.0296419
0.02967
0.0297023
0.0297382
0.0297788
0.0298236
0.029874
0.0299288
0.0299895
0.0300558
0.0301286
0.0302084
0.030296
0.030392
0.0304974
0.0306134
0.0307414
0.0308841
0.0310437
0.0312227
0.0314245
0.0316525
0.0319123
0.0322087
0.0325516
0.0329485
0.0334174
0.0339727
0.0346482
0.035473
0.036506
0.0378079
0.0394543
0.0415264
0.0440794
0.0471913
0.0508844
0.0552952
0.0605729
0.067016
0.0752914
0.0854113
0.0995116
0.118777
0.140902
0.0299152
0.0299111
0.029904
0.0299011
0.0298945
0.0298905
0.0298841
0.0298789
0.0298755
0.0298696
0.0298686
0.0298672
0.0298682
0.0298704
0.0298749
0.0298812
0.0298898
0.0299005
0.0299137
0.0299291
0.0299471
0.0299676
0.029991
0.0300172
0.0300466
0.0300794
0.0301162
0.0301573
0.030203
0.0302537
0.03031
0.0303721
0.0304405
0.0305158
0.0305987
0.0306898
0.0307902
0.0309006
0.0310223
0.0311566
0.0313051
0.031471
0.0316568
0.0318657
0.0321016
0.0323694
0.032675
0.0330268
0.0334348
0.0339142
0.0344831
0.0351696
0.0360077
0.0370463
0.0383429
0.0399641
0.0419775
0.044439
0.0473959
0.0508985
0.055014
0.0599214
0.0658055
0.0731003
0.0824722
0.0939922
0.110648
0.132173
0.158621
0.030312
0.0303081
0.030304
0.0302983
0.0302949
0.0302924
0.0302903
0.0302903
0.0302902
0.0302903
0.030292
0.0302948
0.0302991
0.030305
0.0303126
0.0303221
0.0303338
0.0303477
0.030364
0.0303829
0.0304046
0.0304291
0.0304566
0.0304874
0.0305217
0.0305599
0.0306026
0.03065
0.0307026
0.0307608
0.0308252
0.0308962
0.0309745
0.0310607
0.0311556
0.0312602
0.0313755
0.0315027
0.0316432
0.0317988
0.0319711
0.032164
0.0323807
0.0326253
0.0329026
0.0332191
0.0335832
0.0340055
0.034501
0.0350891
0.0357962
0.0366567
0.0377146
0.0390225
0.0406378
0.042617
0.0450075
0.0478481
0.051181
0.0550771
0.05965
0.0651327
0.0717733
0.0801416
0.0908831
0.104242
0.124
0.148059
0.180366
0.0307822
0.030779
0.0307779
0.0307767
0.0307762
0.0307767
0.0307781
0.0307805
0.0307838
0.030788
0.0307932
0.0307997
0.0308077
0.0308173
0.0308286
0.0308418
0.0308571
0.0308748
0.030895
0.0309179
0.0309437
0.0309726
0.031005
0.0310407
0.0310807
0.0311252
0.0311745
0.0312292
0.0312898
0.0313566
0.0314305
0.0315119
0.0316017
0.0317006
0.0318097
0.03193
0.0320629
0.0322099
0.0323725
0.0325535
0.0327543
0.0329801
0.033235
0.0335243
0.0338547
0.0342352
0.034677
0.0351956
0.0358108
0.0365488
0.037443
0.038534
0.0398685
0.0414959
0.0434621
0.0458068
0.0485627
0.0517682
0.0554867
0.0598245
0.0649562
0.0711673
0.0787869
0.0885132
0.100942
0.1167
0.140193
0.167199
0.208383
0.031342
0.0313399
0.0313387
0.0313394
0.0313413
0.0313445
0.0313489
0.0313545
0.0313612
0.0313692
0.0313784
0.031389
0.0314011
0.0314149
0.0314305
0.0314481
0.0314679
0.0314902
0.031515
0.0315427
0.0315735
0.0316078
0.0316455
0.0316874
0.0317339
0.0317855
0.0318426
0.0319057
0.0319754
0.0320523
0.0321372
0.0322309
0.0323342
0.0324482
0.032574
0.0327133
0.0328673
0.0330385
0.0332285
0.033441
0.0336782
0.0339461
0.0342508
0.0345997
0.035002
0.0354701
0.03602
0.0366719
0.037452
0.0383919
0.039529
0.0409039
0.0425577
0.044528
0.0468459
0.0495419
0.0526508
0.0562325
0.0603864
0.0652655
0.0711115
0.0782614
0.0871555
0.0985924
0.113154
0.132097
0.159992
0.190967
0.245662
0.0320061
0.0320031
0.0320016
0.032002
0.0320045
0.0320089
0.032015
0.0320229
0.0320325
0.0320436
0.0320565
0.0320711
0.0320874
0.0321057
0.0321261
0.0321486
0.0321736
0.0322012
0.0322316
0.0322651
0.032302
0.0323425
0.0323871
0.0324363
0.0324908
0.0325509
0.0326173
0.0326905
0.0327713
0.0328604
0.0329588
0.0330674
0.0331874
0.03332
0.0334669
0.03363
0.0338111
0.0340133
0.0342391
0.034493
0.034779
0.0351043
0.0354776
0.0359093
0.0364125
0.0370038
0.037704
0.0385383
0.0395366
0.0407319
0.042159
0.0438509
0.0458374
0.0481448
0.0507992
0.0538386
0.0573179
0.0613342
0.0660296
0.0716124
0.0783963
0.0867759
0.0973398
0.110941
0.128289
0.151463
0.184551
0.221794
0.298714
0.0327956
0.0327917
0.0327889
0.0327879
0.0327897
0.032794
0.0328005
0.0328093
0.0328202
0.0328333
0.0328486
0.0328662
0.0328861
0.0329084
0.0329331
0.0329606
0.0329908
0.0330241
0.0330606
0.0331006
0.0331444
0.0331924
0.0332453
0.0333035
0.0333677
0.0334383
0.0335162
0.0336021
0.0336968
0.0338013
0.0339169
0.0340447
0.0341863
0.0343433
0.0345178
0.0347124
0.03493
0.0351741
0.0354491
0.0357605
0.0361152
0.0365216
0.0369926
0.037542
0.0381872
0.0389486
0.0398503
0.040919
0.0421833
0.0436712
0.0454091
0.0474205
0.0497283
0.0523584
0.0553485
0.0587591
0.0626773
0.067247
0.0726548
0.0791782
0.0872076
0.0972148
0.109973
0.12635
0.147485
0.176281
0.215672
0.264306
0.375485
0.0337444
0.0337385
0.0337343
0.0337307
0.0337297
0.0337322
0.0337378
0.0337461
0.0337573
0.0337711
0.0337877
0.0338072
0.0338295
0.0338549
0.0338834
0.0339151
0.0339503
0.0339892
0.034032
0.034079
0.0341306
0.0341874
0.0342499
0.0343188
0.0343948
0.0344785
0.0345708
0.0346728
0.0347855
0.0349101
0.0350483
0.0352016
0.0353721
0.0355622
0.0357747
0.0360131
0.0362816
0.0365853
0.0369306
0.037325
0.0377787
0.0383016
0.0389111
0.0396241
0.0404603
0.0414416
0.0425907
0.0439311
0.0454849
0.0472726
0.0493141
0.0516304
0.0542502
0.0572128
0.0605812
0.0644465
0.0689367
0.0742487
0.0806179
0.088415
0.0981113
0.110296
0.125953
0.14601
0.172507
0.208636
0.256503
0.323589
0.478634
0.0348773
0.034871
0.034866
0.0348606
0.0348575
0.0348587
0.0348634
0.0348713
0.0348825
0.0348968
0.0349144
0.0349353
0.0349597
0.0349877
0.0350196
0.0350555
0.0350956
0.0351403
0.0351897
0.0352444
0.0353049
0.035372
0.0354461
0.035528
0.0356186
0.0357189
0.0358298
0.0359528
0.0360893
0.036241
0.03641
0.0365986
0.0368095
0.0370464
0.0373132
0.0376149
0.0379576
0.0383483
0.0387958
0.0393102
0.0399038
0.04059
0.0413848
0.0423077
0.0433775
0.0446127
0.0460314
0.0476511
0.0494888
0.0515627
0.0538955
0.0565179
0.0594756
0.0628314
0.0666821
0.0711531
0.0764248
0.0827538
0.090436
0.0999751
0.111921
0.127055
0.146608
0.171851
0.205969
0.25144
0.312351
0.414655
0.586617
0.0362337
0.0362287
0.0362245
0.0362186
0.0362151
0.036216
0.0362208
0.0362293
0.0362413
0.0362568
0.036276
0.0362991
0.0363262
0.0363577
0.0363936
0.0364345
0.0364805
0.0365319
0.0365896
0.036654
0.0367258
0.0368058
0.0368947
0.0369937
0.0371037
0.0372261
0.0373625
0.0375146
0.0376844
0.0378746
0.0380879
0.0383276
0.038598
0.0389038
0.0392509
0.0396459
0.0400968
0.0406127
0.0412041
0.0418826
0.0426609
0.0435526
0.0445719
0.0457327
0.0470532
0.0485468
0.050228
0.0521136
0.0542224
0.0565803
0.0592223
0.0621983
0.0655777
0.0694533
0.0739631
0.0792706
0.0856321
0.0933653
0.102863
0.114812
0.129828
0.149034
0.174077
0.206936
0.251415
0.309418
0.396528
0.537205
0.701754
0.0378688
0.0378653
0.0378592
0.0378551
0.0378549
0.0378583
0.0378654
0.0378762
0.0378907
0.0379091
0.0379317
0.0379588
0.0379905
0.0380273
0.0380696
0.0381177
0.0381723
0.0382341
0.0383037
0.038382
0.0384699
0.0385683
0.0386787
0.0388023
0.0389407
0.0390959
0.03927
0.0394656
0.0396857
0.0399338
0.040214
0.0405309
0.0408901
0.0412978
0.0417612
0.0422884
0.0428881
0.04357
0.0443444
0.0452219
0.0462137
0.0473307
0.0485842
0.0499857
0.051548
0.0532841
0.0552158
0.0573658
0.0597617
0.0624455
0.0654703
0.0689114
0.0728656
0.0774663
0.082901
0.0893821
0.0972821
0.106967
0.119022
0.134344
0.153611
0.178754
0.211876
0.255673
0.313958
0.394075
0.518642
0.682217
0.814706
0.0398606
0.0398554
0.0398523
0.0398528
0.0398568
0.0398643
0.0398755
0.0398907
0.0399102
0.0399342
0.0399631
0.0399973
0.0400373
0.0400836
0.0401367
0.0401976
0.040267
0.0403458
0.0404351
0.040536
0.0406499
0.0407784
0.0409231
0.0410863
0.0412701
0.0414773
0.041711
0.0419746
0.0422722
0.0426082
0.0429878
0.0434165
0.0439005
0.0444467
0.0450623
0.0457549
0.0465325
0.0474035
0.0483764
0.0494599
0.0506632
0.0519962
0.05347
0.0550978
0.0568958
0.0588845
0.0610903
0.0635484
0.0663013
0.0694159
0.0729646
0.0770572
0.0818228
0.0874574
0.0942035
0.102356
0.112456
0.12488
0.140648
0.160711
0.186232
0.220434
0.26524
0.324229
0.404403
0.519925
0.680811
0.829759
0.915808
0.0423183
0.0423173
0.0423197
0.0423259
0.0423359
0.04235
0.0423686
0.0423921
0.0424208
0.0424554
0.0424964
0.0425443
0.0426
0.0426644
0.0427383
0.0428228
0.0429191
0.0430286
0.0431528
0.0432933
0.043452
0.0436312
0.0438332
0.0440607
0.0443168
0.0446047
0.0449281
0.0452911
0.0456981
0.0461538
0.0466633
0.0472319
0.0478653
0.0485694
0.0493506
0.0502151
0.0511699
0.0522224
0.0533806
0.0546536
0.0560521
0.0575889
0.0592796
0.0611438
0.0632059
0.0654972
0.0680569
0.0709358
0.0741969
0.0779262
0.0822195
0.087246
0.0931755
0.100309
0.108934
0.119524
0.132802
0.149165
0.170491
0.197402
0.232783
0.280547
0.341445
0.424272
0.54009
0.696997
0.862504
0.946788
0.968837
0.0454187
0.0454253
0.0454367
0.0454532
0.045475
0.0455024
0.0455359
0.0455763
0.0456242
0.0456804
0.0457458
0.0458213
0.045908
0.0460071
0.0461198
0.0462476
0.046392
0.0465548
0.0467378
0.0469431
0.0471729
0.0474297
0.0477162
0.0480352
0.0483898
0.0487832
0.0492191
0.049701
0.050233
0.0508193
0.0514641
0.0521723
0.052949
0.0537996
0.0547304
0.0557482
0.0568608
0.0580775
0.0594089
0.0608679
0.0624702
0.0642346
0.0661844
0.0683485
0.0707625
0.0734711
0.07653
0.0800108
0.084002
0.0886235
0.0940095
0.1004
0.108032
0.117387
0.128743
0.143011
0.160894
0.183253
0.213184
0.250267
0.301742
0.367864
0.453348
0.577169
0.735436
0.911427
0.991484
1.00161
0.987446
0.0494389
0.0494649
0.0494975
0.0495374
0.0495848
0.0496404
0.0497051
0.0497798
0.0498653
0.0499626
0.0500729
0.0501972
0.0503367
0.0504928
0.0506668
0.0508602
0.0510747
0.051312
0.0515738
0.0518621
0.0521791
0.0525269
0.0529079
0.0533247
0.0537801
0.0542768
0.0548183
0.0554079
0.0560495
0.0567474
0.0575063
0.0583316
0.0592296
0.0602073
0.0612729
0.0624361
0.0637079
0.0651016
0.0666328
0.0683202
0.0701863
0.0722583
0.0745693
0.0771603
0.0800812
0.083396
0.0871822
0.0915426
0.0966032
0.102533
0.109535
0.117968
0.128163
0.140882
0.156307
0.176327
0.20101
0.233387
0.27608
0.329228
0.405577
0.495271
0.628568
0.801532
0.978663
1.04997
1.0476
1.02363
0.968684
0.0548527
0.0549172
0.0549905
0.055073
0.0551652
0.0552679
0.055382
0.0555084
0.0556481
0.0558019
0.055971
0.0561563
0.0563589
0.0565799
0.0568207
0.0570824
0.0573665
0.0576745
0.0580081
0.0583689
0.0587591
0.0591806
0.0596361
0.0601282
0.0606598
0.0612344
0.061856
0.0625287
0.0632578
0.0640487
0.0649083
0.0658441
0.0668647
0.0679804
0.0692026
0.0705452
0.0720238
0.0736571
0.0754672
0.0774805
0.0797284
0.0822496
0.0850907
0.08831
0.0919788
0.0961902
0.101055
0.106726
0.113388
0.121286
0.130769
0.142337
0.156534
0.174431
0.196249
0.225605
0.260751
0.310209
0.369864
0.451814
0.559571
0.693545
0.898394
1.06069
1.11719
1.10261
1.06392
0.978596
0.896389
0.062342
0.0624512
0.0625695
0.0626973
0.0628349
0.0629831
0.0631424
0.0633138
0.0634982
0.0636965
0.0639097
0.0641388
0.0643848
0.064649
0.0649324
0.0652366
0.0655629
0.0659133
0.0662895
0.0666938
0.0671287
0.0675971
0.068102
0.0686471
0.0692366
0.0698751
0.0705682
0.0713219
0.0721432
0.0730403
0.0740225
0.0751003
0.076286
0.0775935
0.0790392
0.080642
0.0824239
0.0844112
0.0866348
0.0891323
0.0919488
0.09514
0.0987736
0.102936
0.107732
0.113304
0.119812
0.127506
0.136649
0.147637
0.16111
0.177615
0.198394
0.22442
0.257328
0.301147
0.353796
0.428823
0.513776
0.644286
0.789683
1.016
1.15877
1.19238
1.16877
1.10681
0.977886
0.854611
0.779124
0.0726171
0.0727462
0.0728837
0.0730292
0.0731832
0.073346
0.0735182
0.073701
0.0738966
0.074106
0.0743301
0.0745701
0.0748271
0.0751026
0.0753981
0.0757156
0.076057
0.0764251
0.0768227
0.0772527
0.0777188
0.0782248
0.0787751
0.0793749
0.0800299
0.0807467
0.0815329
0.0823972
0.0833492
0.0844003
0.0855632
0.0868527
0.0882859
0.0898822
0.0916646
0.0936597
0.0958992
0.0984208
0.10127
0.104502
0.108184
0.112402
0.117257
0.122885
0.129445
0.137175
0.146299
0.157268
0.170441
0.186587
0.206729
0.231391
0.263668
0.30257
0.355359
0.419044
0.503894
0.609468
0.747757
0.931875
1.15715
1.2724
1.27243
1.23653
1.13183
0.945469
0.784647
0.685323
0.658509
0.0863399
0.0864592
0.0865861
0.0867207
0.0868633
0.0870146
0.0871755
0.0873468
0.0875301
0.0877267
0.0879381
0.088166
0.0884123
0.0886791
0.0889685
0.0892832
0.089628
0.0900076
0.0904252
0.0908847
0.0913905
0.0919481
0.0925638
0.093245
0.0939998
0.0948376
0.0957687
0.0968054
0.097961
0.0992515
0.100695
0.102313
0.104128
0.10617
0.108473
0.111074
0.114023
0.117377
0.121206
0.125599
0.13066
0.136528
0.143362
0.151398
0.160881
0.172234
0.18576
0.202388
0.222591
0.247856
0.279644
0.318425
0.370392
0.429831
0.515277
0.607654
0.745702
0.891182
1.12251
1.31054
1.38293
1.36347
1.30341
1.13219
0.877322
0.680067
0.574922
0.551491
0.568165
0.104448
0.104541
0.104642
0.104752
0.104871
0.105
0.10514
0.105294
0.105462
0.105646
0.10585
0.106074
0.106321
0.106595
0.106898
0.107234
0.107608
0.108023
0.108487
0.109004
0.109581
0.110233
0.110966
0.111791
0.112718
0.113762
0.114935
0.116256
0.117744
0.119423
0.121319
0.123464
0.125894
0.128654
0.131794
0.13538
0.139488
0.144215
0.149677
0.15603
0.163434
0.172152
0.182423
0.194716
0.209393
0.227338
0.248864
0.276277
0.309107
0.351135
0.402688
0.465898
0.54886
0.642912
0.77477
0.918874
1.12092
1.34479
1.47507
1.4878
1.45894
1.34945
1.07812
0.757572
0.561318
0.47605
0.456696
0.474558
0.506759
0.12878
0.128858
0.128946
0.129044
0.129154
0.129278
0.129417
0.129574
0.129751
0.129951
0.130176
0.130431
0.130718
0.131041
0.131406
0.131817
0.132281
0.132802
0.13339
0.134053
0.134801
0.13565
0.136616
0.137713
0.138956
0.140365
0.141962
0.143774
0.14583
0.148169
0.150834
0.153875
0.157354
0.161348
0.16594
0.171253
0.177414
0.184612
0.193036
0.203001
0.214752
0.228899
0.24573
0.266344
0.291173
0.32208
0.359314
0.407156
0.462058
0.533679
0.616344
0.721131
0.850469
0.999933
1.19573
1.41548
1.56601
1.61662
1.59922
1.52837
1.34424
0.953779
0.653128
0.492795
0.415574
0.391744
0.402137
0.43055
0.456377
0.163342
0.163448
0.163567
0.163702
0.163855
0.164029
0.164225
0.164448
0.1647
0.164986
0.165309
0.165676
0.16609
0.166558
0.167086
0.167683
0.168357
0.169118
0.169978
0.170952
0.172058
0.173313
0.174734
0.176345
0.178173
0.180251
0.182617
0.185317
0.188406
0.19195
0.196027
0.200733
0.206184
0.212526
0.21993
0.228637
0.23889
0.251107
0.265574
0.283134
0.303897
0.329782
0.360147
0.398619
0.444229
0.500443
0.568119
0.649796
0.741457
0.859409
0.990716
1.16335
1.35295
1.57881
1.70427
1.75002
1.73855
1.67622
1.55918
1.18978
0.828372
0.607643
0.470188
0.393645
0.360389
0.355918
0.371357
0.396384
0.41528
0.217624
0.21785
0.2181
0.218376
0.218681
0.219019
0.219395
0.219813
0.220279
0.220799
0.221378
0.222024
0.222745
0.223548
0.224447
0.22546
0.226597
0.227874
0.229307
0.230913
0.232716
0.234743
0.237028
0.239614
0.242559
0.245931
0.249809
0.254289
0.259485
0.265536
0.272609
0.280915
0.290704
0.30231
0.316095
0.332634
0.352353
0.376409
0.404871
0.440538
0.481503
0.534828
0.593141
0.670821
0.752881
0.856145
0.972626
1.09595
1.24614
1.42859
1.64815
1.83772
1.9194
1.91341
1.88851
1.82438
1.71816
1.39616
0.97812
0.760267
0.630262
0.517827
0.430007
0.373209
0.349173
0.344649
0.355644
0.372869
0.385659
0.319358
0.319886
0.320459
0.321081
0.321755
0.322483
0.323279
0.324149
0.325099
0.326138
0.327275
0.328519
0.329883
0.331381
0.333028
0.334846
0.336852
0.339075
0.341541
0.344275
0.347331
0.350764
0.354664
0.359183
0.364524
0.370847
0.378345
0.387248
0.397834
0.410449
0.425496
0.443521
0.465075
0.491093
0.522171
0.560021
0.604764
0.659938
0.723237
0.802899
0.889064
1.00008
1.10907
1.25529
1.381
1.55573
1.69991
1.86184
2.11727
2.21815
2.20631
2.15869
2.0855
1.96945
1.76989
1.44572
1.04497
0.841158
0.728433
0.693075
0.659222
0.588837
0.497586
0.421926
0.382762
0.369005
0.369979
0.378433
0.384096
0.560508
0.561871
0.563294
0.564783
0.56635
0.568004
0.569757
0.571622
0.573613
0.575748
0.578039
0.580515
0.583181
0.586092
0.589232
0.592702
0.596455
0.60063
0.605227
0.610242
0.616145
0.622996
0.631693
0.642808
0.656666
0.67371
0.694481
0.719581
0.749751
0.785854
0.828839
0.879998
0.940246
1.01171
1.09435
1.19185
1.30168
1.42981
1.56809
1.72538
1.88713
2.0609
2.23482
2.39721
2.55759
2.68047
2.79722
2.78116
2.6837
2.49924
2.30542
2.05237
1.69774
1.34598
0.985292
0.765296
0.716439
0.80882
0.958364
1.03368
1.04061
0.939137
0.790095
0.644282
0.540293
0.486004
0.466865
0.456966
0.444368
1.45818
1.46109
1.46413
1.46729
1.47057
1.47399
1.47754
1.48126
1.48515
1.48928
1.49357
1.49827
1.50305
1.5086
1.51395
1.52072
1.52688
1.53523
1.54299
1.55281
1.57367
1.60624
1.6501
1.7051
1.77157
1.84959
1.93959
2.04151
2.15588
2.28222
2.42106
2.57099
2.73256
2.90297
3.08183
3.26465
3.44913
3.62987
3.79938
3.95587
4.07795
4.17976
4.20874
4.17732
4.0879
3.92035
3.58913
3.12411
2.55611
2.06076
1.66004
1.39568
1.25226
1.17672
1.11247
1.10652
1.21206
1.46496
1.81869
2.04649
2.155
2.13131
1.92993
1.63412
1.32035
1.08856
1.01665
0.966762
0.880514
8.51694
8.50979
8.50183
8.49299
8.48323
8.47256
8.46088
8.44824
8.43454
8.41978
8.40396
8.387
8.36883
8.34963
8.32897
8.30717
8.28417
8.2596
8.23308
8.20484
8.17546
8.1445
8.11182
8.07722
8.04048
8.00139
7.9597
7.91514
7.86743
7.81625
7.76122
7.70196
7.63804
7.56903
7.49452
7.41423
7.32801
7.23623
7.13956
7.04082
6.94119
6.84711
6.76772
6.70844
6.66489
6.62651
6.58857
6.55072
6.51315
6.47591
6.43907
6.40282
6.36714
6.33202
6.29758
6.264
6.23135
6.19977
6.16964
6.14168
6.11667
6.09496
6.07621
6.05977
6.0455
6.03475
6.0296
6.02783
6.02793
0.0297764
0.0297742
0.0297719
0.0297648
0.0297619
0.0297545
0.029747
0.0297337
0.0297251
0.0297179
0.0297074
0.029711
0.0297202
0.0297242
0.0296982
0.0296671
0.0296674
0.02967
0.0296499
0.0296194
0.02962
0.0296415
0.0296078
0.0295988
0.029558
0.0295295
0.0295446
0.0295466
0.0295464
0.0295404
0.0295234
0.0295174
0.0295151
0.0294889
0.029474
0.0294404
0.0294267
0.0294143
0.0293993
0.0293855
0.029343
0.0293334
0.0293114
0.0292709
0.0292606
0.0292323
0.0291984
0.0291787
0.0291654
0.0291479
0.0291263
0.0291155
0.0291038
0.0290942
0.0290864
0.0290799
0.02907
0.029058
0.0290478
0.0300951
0.0300886
0.0300808
0.0300738
0.0300672
0.0300578
0.0300487
0.0300395
0.0300352
0.0300311
0.030025
0.0300254
0.030013
0.0299958
0.0299609
0.0299507
0.0299539
0.0299386
0.0299084
0.0298937
0.0298995
0.0299015
0.0298574
0.0298474
0.0298
0.0297821
0.0297922
0.0297961
0.029785
0.0297713
0.0297608
0.0297536
0.0297456
0.0297176
0.0297032
0.0296756
0.0296526
0.0296393
0.0296273
0.0296123
0.0295815
0.0295624
0.0295416
0.029508
0.0294864
0.0294668
0.0294383
0.0294122
0.0293964
0.029382
0.0293656
0.0293523
0.0293415
0.0293297
0.029322
0.0293153
0.0293093
0.0293027
0.0292969
0.0304762
0.0304666
0.0304572
0.0304488
0.0304397
0.0304301
0.0304219
0.0304144
0.0304078
0.030398
0.0303854
0.0303713
0.0303471
0.0303238
0.0303003
0.0302983
0.030285
0.0302565
0.0302287
0.0302251
0.0302281
0.030207
0.0301606
0.0301458
0.030097
0.030085
0.0300911
0.0300938
0.0300733
0.0300546
0.0300482
0.0300376
0.0300246
0.0299966
0.02998
0.0299567
0.0299292
0.0299112
0.0298984
0.0298854
0.0298646
0.0298405
0.029818
0.0297912
0.0297628
0.0297442
0.0297215
0.0296957
0.0296756
0.0296597
0.0296457
0.0296335
0.0296241
0.0296142
0.0296061
0.029599
0.0295933
0.029588
0.0295837
0.0309323
0.0309211
0.03091
0.0308992
0.0308879
0.0308765
0.0308655
0.0308533
0.0308388
0.0308203
0.0307993
0.0307761
0.0307503
0.0307291
0.0307112
0.0306994
0.0306692
0.0306381
0.0306179
0.0306172
0.0306082
0.0305689
0.0305233
0.0305019
0.0304537
0.0304458
0.030448
0.0304457
0.0304175
0.0303955
0.0303897
0.0303751
0.0303585
0.030331
0.030311
0.0302893
0.0302622
0.0302381
0.0302217
0.0302091
0.0301938
0.0301732
0.0301502
0.0301259
0.0300971
0.0300749
0.0300548
0.0300322
0.030011
0.029993
0.029978
0.0299656
0.029956
0.0299476
0.0299403
0.029934
0.0299289
0.029924
0.0299205
0.0314737
0.0314598
0.0314457
0.0314312
0.0314158
0.0313994
0.0313819
0.0313619
0.0313391
0.0313137
0.0312874
0.0312609
0.0312355
0.0312129
0.0311897
0.031163
0.0311259
0.0310989
0.0310835
0.0310763
0.0310496
0.0309983
0.0309543
0.0309258
0.0308797
0.0308735
0.0308706
0.0308612
0.0308265
0.0308021
0.0307944
0.0307756
0.0307556
0.030728
0.030705
0.0306829
0.0306567
0.0306297
0.0306081
0.0305932
0.0305803
0.0305639
0.0305439
0.0305216
0.0304965
0.0304706
0.0304491
0.0304286
0.0304087
0.0303904
0.0303745
0.0303609
0.03035
0.0303412
0.0303338
0.0303274
0.030322
0.0303174
0.0303154
0.032111
0.0320929
0.0320742
0.0320544
0.0320331
0.0320102
0.0319854
0.0319584
0.0319294
0.0318994
0.0318695
0.03184
0.0318108
0.031781
0.0317481
0.0317117
0.0316754
0.0316517
0.0316333
0.0316119
0.0315677
0.0315101
0.0314665
0.0314311
0.0313878
0.0313806
0.031371
0.0313531
0.031313
0.0312861
0.0312748
0.0312516
0.0312279
0.0311992
0.0311735
0.0311498
0.0311239
0.031096
0.0310705
0.0310514
0.0310386
0.031024
0.0310072
0.0309885
0.0309672
0.030944
0.0309209
0.0308995
0.0308801
0.0308624
0.0308467
0.0308329
0.0308213
0.0308117
0.0308038
0.030797
0.0307916
0.0307869
0.0307844
0.0328607
0.0328371
0.0328127
0.0327869
0.0327592
0.0327297
0.0326984
0.0326654
0.0326312
0.0325965
0.0325614
0.0325257
0.0324888
0.0324499
0.0324092
0.0323691
0.0323342
0.0323076
0.0322786
0.0322394
0.0321813
0.0321212
0.0320758
0.0320342
0.0319931
0.0319821
0.031964
0.031937
0.0318921
0.0318621
0.031846
0.0318178
0.0317902
0.0317595
0.0317309
0.0317049
0.0316781
0.03165
0.0316225
0.0315994
0.0315838
0.0315697
0.0315542
0.0315377
0.0315205
0.0315018
0.0314816
0.0314614
0.0314415
0.0314235
0.0314073
0.0313934
0.0313816
0.0313716
0.0313633
0.0313565
0.031351
0.0313463
0.0313441
0.0337461
0.0337163
0.0336855
0.0336532
0.0336189
0.0335827
0.0335449
0.0335056
0.033465
0.0334234
0.0333807
0.0333367
0.0332912
0.0332448
0.033199
0.0331563
0.033118
0.0330811
0.0330365
0.0329804
0.0329128
0.032851
0.0328015
0.0327542
0.0327136
0.0326958
0.0326679
0.0326313
0.0325817
0.0325479
0.0325257
0.032492
0.0324598
0.0324261
0.0323947
0.0323659
0.0323372
0.0323078
0.0322791
0.0322533
0.0322345
0.0322191
0.0322039
0.0321885
0.0321729
0.0321569
0.0321409
0.0321249
0.0321082
0.0320919
0.032075
0.0320605
0.0320469
0.0320365
0.0320276
0.0320206
0.0320147
0.0320102
0.0320084
0.0347962
0.0347594
0.0347215
0.0346819
0.0346403
0.0345967
0.0345513
0.0345041
0.0344555
0.0344053
0.0343538
0.034301
0.0342477
0.0341947
0.0341435
0.0340945
0.0340462
0.0339939
0.0339323
0.033862
0.0337879
0.033723
0.0336672
0.0336145
0.0335716
0.0335442
0.0335052
0.0334587
0.0334041
0.0333652
0.0333359
0.0332959
0.0332584
0.033221
0.033186
0.0331539
0.0331227
0.0330914
0.0330609
0.0330333
0.0330114
0.0329937
0.0329779
0.0329629
0.0329482
0.0329338
0.0329197
0.032906
0.0328924
0.0328797
0.032867
0.0328556
0.0328433
0.032832
0.0328217
0.0328131
0.0328056
0.0328005
0.0327985
0.0360463
0.0360014
0.0359554
0.0359076
0.0358575
0.0358052
0.0357509
0.0356946
0.0356365
0.0355769
0.035516
0.0354544
0.0353926
0.0353315
0.035271
0.0352102
0.0351465
0.0350765
0.0349989
0.034917
0.034837
0.0347665
0.0347028
0.0346438
0.0345951
0.0345553
0.0345041
0.0344473
0.034387
0.0343415
0.0343039
0.0342566
0.0342129
0.0341709
0.0341316
0.0340956
0.0340612
0.0340276
0.033995
0.0339652
0.0339403
0.03392
0.0339028
0.0338874
0.0338731
0.0338597
0.033847
0.033835
0.0338236
0.033813
0.033803
0.0337937
0.0337849
0.0337766
0.0337691
0.0337625
0.0337567
0.0337518
0.0337491
0.0375422
0.037488
0.0374327
0.0373754
0.0373155
0.0372532
0.0371885
0.0371217
0.037053
0.0369827
0.0369111
0.0368386
0.0367657
0.0366921
0.0366173
0.0365398
0.0364577
0.0363699
0.0362778
0.0361854
0.0360977
0.0360186
0.0359452
0.0358777
0.0358193
0.0357647
0.0357002
0.0356325
0.035565
0.0355113
0.035464
0.0354083
0.0353575
0.0353097
0.0352653
0.0352245
0.0351863
0.0351496
0.0351146
0.0350823
0.0350545
0.0350314
0.035012
0.0349955
0.034981
0.034968
0.0349562
0.0349455
0.0349359
0.0349271
0.0349192
0.034912
0.0349056
0.0348999
0.0348949
0.0348905
0.0348867
0.0348831
0.0348816
0.039345
0.0392799
0.0392136
0.039145
0.0390735
0.0389992
0.0389222
0.0388427
0.038761
0.0386772
0.0385917
0.0385046
0.0384157
0.0383249
0.0382312
0.0381338
0.038032
0.0379266
0.03782
0.0377159
0.0376176
0.0375266
0.037441
0.0373618
0.0372894
0.0372178
0.0371387
0.037059
0.0369825
0.0369186
0.03686
0.0367945
0.0367351
0.0366804
0.0366297
0.0365834
0.0365405
0.0365001
0.0364619
0.0364269
0.0363961
0.03637
0.0363483
0.0363301
0.0363147
0.0363016
0.0362904
0.0362807
0.0362723
0.0362651
0.036259
0.0362539
0.0362496
0.0362462
0.0362434
0.0362412
0.0362387
0.0362328
0.0362359
0.0415364
0.0414577
0.0413775
0.0412947
0.0412085
0.0411189
0.0410261
0.0409301
0.0408312
0.0407296
0.0406253
0.0405183
0.0404085
0.0402957
0.0401795
0.0400598
0.0399371
0.0398131
0.0396902
0.0395711
0.039458
0.0393513
0.0392499
0.0391547
0.0390642
0.0389731
0.0388777
0.0387842
0.0386961
0.0386196
0.0385478
0.0384707
0.0384013
0.0383381
0.03828
0.038227
0.0381785
0.0381335
0.0380917
0.0380535
0.0380197
0.0379907
0.0379663
0.0379462
0.0379297
0.0379161
0.0379051
0.0378961
0.0378888
0.0378831
0.0378788
0.0378757
0.0378737
0.0378727
0.0378723
0.0378717
0.0378703
0.0378648
0.0378671
0.0442273
0.0441304
0.0440316
0.0439296
0.0438234
0.0437132
0.0435989
0.0434806
0.0433586
0.043233
0.0431038
0.0429711
0.0428351
0.0426956
0.042553
0.0424079
0.0422615
0.0421154
0.041972
0.041833
0.0416997
0.0415723
0.0414503
0.0413337
0.0412206
0.0411073
0.040993
0.040883
0.0407802
0.0406882
0.0406007
0.0405097
0.0404282
0.0403549
0.0402879
0.0402271
0.0401719
0.0401215
0.0400754
0.0400337
0.0399967
0.0399649
0.0399382
0.0399162
0.0398985
0.0398846
0.0398737
0.0398655
0.0398596
0.039856
0.0398541
0.0398531
0.039853
0.0398525
0.0398477
0.0398458
0.0398467
0.0398469
0.0398551
0.0475797
0.0474566
0.047331
0.0472016
0.0470671
0.0469277
0.0467833
0.0466341
0.0464804
0.0463223
0.04616
0.045994
0.0458244
0.0456517
0.0454767
0.0453004
0.0451242
0.0449496
0.0447785
0.0446122
0.0444516
0.0442966
0.0441472
0.0440028
0.0438619
0.0437225
0.0435854
0.0434549
0.0433333
0.043222
0.0431158
0.043008
0.0429119
0.0428263
0.0427487
0.0426787
0.0426158
0.0425591
0.0425081
0.0424627
0.0424228
0.0423887
0.0423602
0.0423372
0.0423191
0.0423053
0.0422953
0.0422887
0.0422845
0.042279
0.0422762
0.0422855
0.0422881
0.0422848
0.042285
0.042288
0.0422937
0.0422992
0.0423137
0.0518511
0.0516885
0.0515225
0.0513517
0.0511749
0.050992
0.0508034
0.0506091
0.0504097
0.0502055
0.0499969
0.0497846
0.0495692
0.0493516
0.0491327
0.0489139
0.0486964
0.0484819
0.0482717
0.0480668
0.047868
0.0476755
0.047489
0.0473084
0.0471324
0.0469607
0.0467948
0.0466379
0.0464915
0.0463561
0.0462269
0.0460986
0.0459846
0.0458841
0.0457939
0.0457133
0.0456417
0.0455782
0.0455222
0.0454733
0.0454313
0.0453962
0.0453676
0.0453452
0.0453286
0.0453175
0.0453116
0.0453098
0.0453101
0.0453057
0.0453056
0.0453113
0.0453194
0.0453284
0.0453394
0.0453525
0.0453677
0.0453826
0.0454071
0.0574534
0.0572327
0.0570065
0.0567739
0.0565334
0.0562852
0.0560296
0.0557672
0.0554986
0.0552246
0.0549459
0.0546637
0.054379
0.0540931
0.0538074
0.0535233
0.0532423
0.0529661
0.0526959
0.0524327
0.0521774
0.0519301
0.0516911
0.0514603
0.0512373
0.0510225
0.0508175
0.0506247
0.0504449
0.0502778
0.0501193
0.0499651
0.0498288
0.0497102
0.0496051
0.0495125
0.0494317
0.0493616
0.0493016
0.049251
0.0492095
0.0491767
0.0491523
0.0491362
0.0491274
0.0491243
0.0491202
0.0491241
0.0491345
0.0491478
0.0491646
0.0491854
0.0492096
0.0492367
0.0492664
0.0492984
0.0493324
0.0493665
0.04941
0.0649005
0.0646127
0.0643126
0.0640029
0.0636822
0.0633504
0.0630079
0.0626551
0.0622929
0.0619222
0.0615444
0.0611608
0.0607731
0.0603832
0.0599933
0.0596056
0.0592222
0.058845
0.0584761
0.058117
0.057769
0.057433
0.0571098
0.0567997
0.0565033
0.0562215
0.0559557
0.0557074
0.0554773
0.0552645
0.0550653
0.054876
0.0547107
0.0545699
0.0544484
0.0543446
0.0542574
0.0541856
0.0541283
0.0540847
0.0540545
0.0540367
0.0540295
0.0540272
0.0540379
0.0540592
0.054087
0.0541221
0.0541643