/*--------------------------------*- C++ -*----------------------------------*\
| =========                 |                                                 |
| \\      /  F ield         | OpenFOAM: The Open Source CFD Toolbox           |
|  \\    /   O peration     | Version:  2312                                  |
|   \\  /    A nd           | Website:  www.openfoam.com                      |
|    \\/     M anipulation  |                                                 |
\*---------------------------------------------------------------------------*/
FoamFile
{
    version     2.0;
    format      ascii;
    arch        "LSB;label=32;scalar=64";
    class       volScalarField;
    location    "1400";
    object      p;
}
// * * * * * * * * * * * * * * * * * * * * * * * * * * * * * * * * * * * * * //

dimensions      [0 2 -2 0 0 0 0];

internalField   nonuniform List<scalar> 
76025
(
0.000220009
0.000212974
0.000205861
0.000198705
0.000191477
0.000184314
0.000176667
0.000169198
0.000161555
0.000153942
0.00014626
0.000138517
0.000130693
0.000122866
0.000115013
0.000106951
9.91398e-05
9.10382e-05
8.30898e-05
7.50633e-05
6.71455e-05
5.90651e-05
5.10617e-05
4.31897e-05
3.52742e-05
2.74435e-05
1.96851e-05
1.17423e-05
4.12966e-06
-3.6578e-06
-1.10822e-05
-1.86419e-05
-2.59309e-05
-3.33567e-05
-4.04948e-05
-4.76272e-05
-5.45085e-05
-6.15269e-05
-6.85002e-05
-7.51342e-05
-8.15807e-05
-8.79405e-05
-9.43331e-05
-0.000100591
-0.000106417
-0.000112206
-0.000117841
-0.000123414
-0.000128489
-0.000133464
-0.000138232
-0.000142723
-0.000146998
-0.000150931
-0.000154376
-0.000157501
-0.000160298
-0.000162739
-0.000164742
-0.000166111
-0.000167245
-0.000167713
-0.000167195
-0.000165996
-0.000164112
-0.000161789
-0.000158177
-0.00015174
-0.000144009
0.000223007
0.000215708
0.000208348
0.000200899
0.000193338
0.000185651
0.000177901
0.000170085
0.000162188
0.000154223
0.000146196
0.000138122
0.000130007
0.000121832
0.000113637
0.00010543
9.71813e-05
8.89387e-05
8.06561e-05
7.24261e-05
6.41637e-05
5.59407e-05
4.7755e-05
3.9626e-05
3.1522e-05
2.34432e-05
1.54068e-05
7.48618e-06
-3.61551e-07
-8.17603e-06
-1.58528e-05
-2.35334e-05
-3.1087e-05
-3.85112e-05
-4.58609e-05
-5.30649e-05
-6.02006e-05
-6.72258e-05
-7.40919e-05
-8.08349e-05
-8.74036e-05
-9.3868e-05
-0.000100173
-0.000106269
-0.000112207
-0.000117974
-0.000123572
-0.000128922
-0.00013403
-0.000138934
-0.000143608
-0.000147984
-0.000152041
-0.000155734
-0.000159012
-0.000161894
-0.000164373
-0.000166356
-0.000167834
-0.000168715
-0.00016895
-0.000168462
-0.000167105
-0.000164827
-0.000161539
-0.000157075
-0.000151215
-0.000143154
-0.000134539
0.00022615
0.000218525
0.000210822
0.000203013
0.000195086
0.000187076
0.00017899
0.000170825
0.000162586
0.000154277
0.000145914
0.000137511
0.000129064
0.000120583
0.000112087
0.000103561
9.5025e-05
8.64835e-05
7.79447e-05
6.94184e-05
6.09165e-05
5.24534e-05
4.40257e-05
3.56434e-05
2.73079e-05
1.90235e-05
1.08214e-05
2.70289e-06
-5.3449e-06
-1.33093e-05
-2.11862e-05
-2.89742e-05
-3.66439e-05
-4.41953e-05
-5.16402e-05
-5.8959e-05
-6.61583e-05
-7.32222e-05
-8.01544e-05
-8.69513e-05
-9.35838e-05
-0.000100056
-0.000106358
-0.00011249
-0.000118444
-0.000124196
-0.000129739
-0.000135056
-0.000140137
-0.000144961
-0.000149512
-0.000153752
-0.000157649
-0.000161166
-0.00016426
-0.000166901
-0.000169056
-0.000170665
-0.000171675
-0.000171996
-0.000171552
-0.000170242
-0.000167921
-0.000164449
-0.000159692
-0.000153445
-0.000145464
-0.000135214
-0.000124216
0.000229172
0.000221176
0.000213099
0.00020492
0.000196633
0.000188255
0.000179796
0.000171265
0.000162669
0.000154013
0.000145307
0.000136559
0.000127775
0.000118965
0.000110137
0.000101295
9.24511e-05
8.36116e-05
7.47864e-05
6.5984e-05
5.72155e-05
4.84872e-05
3.9806e-05
3.11818e-05
2.26223e-05
1.41341e-05
5.72744e-06
-2.5932e-06
-1.08217e-05
-1.8951e-05
-2.69755e-05
-3.48884e-05
-4.26819e-05
-5.03524e-05
-5.78963e-05
-6.53093e-05
-7.25875e-05
-7.97263e-05
-8.67201e-05
-9.35585e-05
-0.00010023
-0.00010673
-0.000113055
-0.000119196
-0.00012514
-0.000130875
-0.00013639
-0.000141671
-0.000146699
-0.000151452
-0.000155911
-0.000160042
-0.00016381
-0.000167174
-0.00017009
-0.000172512
-0.000174393
-0.000175671
-0.000176269
-0.000176092
-0.000175035
-0.000172972
-0.000169738
-0.000165148
-0.000159015
-0.00015107
-0.000141099
-0.000128647
-0.000115069
0.000232004
0.000223622
0.00021516
0.000206595
0.000197923
0.000189158
0.000180316
0.000171407
0.000162437
0.000153413
0.000144341
0.000135233
0.000126096
0.00011694
0.000107772
9.86022e-05
8.94384e-05
8.02902e-05
7.11666e-05
6.2077e-05
5.30304e-05
4.40356e-05
3.51013e-05
2.62363e-05
1.74484e-05
8.74486e-06
1.33351e-07
-8.37813e-06
-1.67827e-05
-2.50748e-05
-3.32481e-05
-4.12966e-05
-4.92137e-05
-5.69963e-05
-6.46412e-05
-7.21455e-05
-7.95041e-05
-8.67106e-05
-9.3758e-05
-0.00010064
-0.000107348
-0.000113878
-0.000120221
-0.00012637
-0.000132313
-0.000138039
-0.000143536
-0.000148787
-0.000153773
-0.000158473
-0.000162863
-0.000166909
-0.000170574
-0.000173817
-0.000176587
-0.000178834
-0.000180497
-0.000181503
-0.000181762
-0.000181167
-0.000179585
-0.000176861
-0.000172802
-0.000167188
-0.000159778
-0.000150246
-0.0001384
-0.000123696
-0.000107285
0.000234664
0.000225873
0.000217003
0.000208029
0.000198949
0.000189777
0.000180532
0.000171224
0.000161859
0.000152445
0.000142989
0.000133503
0.000123997
0.000114479
0.000104958
9.54448e-05
8.59484e-05
7.64785e-05
6.70448e-05
5.76569e-05
4.83244e-05
3.90565e-05
2.98624e-05
2.07504e-05
1.17289e-05
2.80589e-06
-6.01081e-06
-1.47136e-05
-2.32958e-05
-3.17511e-05
-4.00731e-05
-4.82558e-05
-5.62939e-05
-6.41862e-05
-7.19297e-05
-7.95209e-05
-8.69546e-05
-9.42242e-05
-0.000101324
-0.000108249
-0.000114993
-0.000121549
-0.000127911
-0.000134069
-0.000140015
-0.000145737
-0.000151221
-0.000156452
-0.000161412
-0.000166076
-0.00017042
-0.00017441
-0.000178007
-0.000181168
-0.000183841
-0.000185967
-0.000187479
-0.000188291
-0.000188302
-0.000187384
-0.000185384
-0.000182116
-0.000177358
-0.00017085
-0.000162298
-0.000151325
-0.000137745
-0.000120881
-0.000101964
0.000237096
0.00022787
0.000218567
0.000209162
0.00019965
0.000190049
0.000180379
0.000170649
0.000160868
0.000151043
0.000141185
0.000131303
0.000121409
0.000111513
0.000101624
9.17531e-05
8.19108e-05
7.21072e-05
6.23525e-05
5.26569e-05
4.30303e-05
3.34824e-05
2.40223e-05
1.46592e-05
5.40159e-06
-3.74229e-06
-1.27646e-05
-2.1658e-05
-3.04157e-05
-3.9031e-05
-4.74981e-05
-5.58112e-05
-6.39668e-05
-7.19642e-05
-7.98011e-05
-8.74738e-05
-9.49773e-05
-0.000102306
-0.000109455
-0.00011642
-0.000123196
-0.000129778
-0.000136158
-0.000142328
-0.000148281
-0.000154005
-0.000159487
-0.000164712
-0.000169662
-0.000174314
-0.00017864
-0.000182608
-0.000186179
-0.000189309
-0.000191943
-0.00019402
-0.000195462
-0.000196175
-0.000196044
-0.000194922
-0.000192636
-0.000188971
-0.000183672
-0.000176443
-0.00016693
-0.000154717
-0.000139566
-0.000120631
-9.9296e-05
0.000239238
0.000229551
0.00021979
0.000209928
0.000199961
0.000189907
0.000179788
0.000169615
0.000159397
0.000149141
0.00013886
0.000128564
0.000118265
0.000107973
9.7701e-05
8.74588e-05
7.72577e-05
6.71088e-05
5.70229e-05
4.70106e-05
3.70824e-05
2.72483e-05
1.7518e-05
7.90074e-06
-1.59461e-06
-1.09598e-05
-2.01869e-05
-2.92688e-05
-3.81986e-05
-4.69702e-05
-5.55778e-05
-6.40163e-05
-7.22843e-05
-8.03813e-05
-8.83054e-05
-9.60534e-05
-0.000103621
-0.000111003
-0.000118196
-0.000125197
-0.000132003
-0.000138608
-0.000145006
-0.000151191
-0.000157156
-0.00016289
-0.000168381
-0.000173617
-0.000178577
-0.000183241
-0.000187582
-0.000191569
-0.000195165
-0.000198323
-0.000200991
-0.0002031
-0.000204569
-0.000205292
-0.000205142
-0.000203957
-0.000201541
-0.000197658
-0.000192017
-0.000184284
-0.000174055
-0.000160879
-0.000144403
-0.000123588
-9.95711e-05
0.000241029
0.000230853
0.000220607
0.000210261
0.000199812
0.00018928
0.000178688
0.000168049
0.00015737
0.000146662
0.000135937
0.000125207
0.000114485
0.000103782
9.3111e-05
8.2483e-05
7.19103e-05
6.14046e-05
5.09775e-05
4.06402e-05
3.04036e-05
2.02782e-05
1.0274e-05
4.00679e-07
-9.33297e-06
-1.89185e-05
-2.83483e-05
-3.76151e-05
-4.67124e-05
-5.56344e-05
-6.4376e-05
-7.29329e-05
-8.13058e-05
-8.94947e-05
-9.74981e-05
-0.000105313
-0.000112936
-0.000120364
-0.000127596
-0.000134628
-0.000141459
-0.000148085
-0.000154502
-0.000160704
-0.000166687
-0.00017244
-0.000177954
-0.000183216
-0.00018821
-0.000192916
-0.00019731
-0.000201364
-0.000205041
-0.000208297
-0.000211078
-0.000213313
-0.000214913
-0.000215767
-0.000215736
-0.000214648
-0.000212289
-0.000208396
-0.000202653
-0.000194687
-0.000184046
-0.000170221
-0.000152732
-0.000130654
-0.000106011
0.000242395
0.000231701
0.000220939
0.000210081
0.000199123
0.000188086
0.000176994
0.000165862
0.0001547
0.000143517
0.000132326
0.000121142
0.000109978
9.88462e-05
8.77598e-05
7.67317e-05
6.57746e-05
5.49012e-05
4.41236e-05
3.34537e-05
2.29029e-05
1.24823e-05
2.20214e-06
-7.92784e-06
-1.78986e-05
-2.77017e-05
-3.73297e-05
-4.67756e-05
-5.60335e-05
-6.50979e-05
-7.39644e-05
-8.26305e-05
-9.10987e-05
-9.93694e-05
-0.000107442
-0.000115313
-0.000122983
-0.000130448
-0.00013771
-0.000144767
-0.000151619
-0.000158263
-0.000164699
-0.000170921
-0.000176927
-0.000182708
-0.000188258
-0.000193566
-0.000198619
-0.0002034
-0.000207889
-0.000212061
-0.000215883
-0.00021931
-0.000222286
-0.000224742
-0.000226585
-0.0002277
-0.000227943
-0.00022713
-0.000225037
-0.000221382
-0.000215827
-0.000207956
-0.000197254
-0.000183108
-0.000164951
-0.000142099
-0.000116813
0.000243248
0.000232002
0.000220695
0.000209293
0.000197796
0.000186225
0.000174606
0.000162955
0.000151283
0.0001396
0.000127922
0.000116262
0.000104636
9.30572e-05
8.15395e-05
7.00968e-05
5.87428e-05
4.7491e-05
3.63542e-05
2.53451e-05
1.44757e-05
3.75727e-06
-6.79948e-06
-1.71847e-05
-2.73892e-05
-3.74048e-05
-4.72242e-05
-5.68411e-05
-6.62498e-05
-7.54459e-05
-8.44258e-05
-9.31895e-05
-0.000101741
-0.00011008
-0.000118209
-0.000126125
-0.000133828
-0.000141321
-0.000148604
-0.000155678
-0.000162545
-0.000169204
-0.000175656
-0.000181899
-0.000187932
-0.00019375
-0.000199349
-0.000204723
-0.000209862
-0.000214754
-0.000219383
-0.000223726
-0.000227751
-0.000231417
-0.000234671
-0.000237442
-0.000239642
-0.000241155
-0.000241833
-0.000241493
-0.000239902
-0.000236769
-0.000231742
-0.000224353
-0.000214012
-0.000200024
-0.000181864
-0.000159084
-0.000134938
0.00024348
0.00023165
0.000219763
0.000207787
0.000195719
0.000183583
0.000171407
0.000159209
0.000147
0.000134792
0.000122601
0.000110444
9.83354e-05
8.62907e-05
7.4325e-05
6.24531e-05
5.06897e-05
3.90493e-05
2.75455e-05
1.61916e-05
5.00009e-06
-6.01715e-06
-1.68492e-05
-2.74861e-05
-3.79188e-05
-4.81393e-05
-5.81408e-05
-6.79173e-05
-7.74644e-05
-8.67784e-05
-9.58572e-05
-0.000104704
-0.000113323
-0.000121717
-0.000129885
-0.000137831
-0.000145555
-0.000153061
-0.000160353
-0.000167434
-0.000174307
-0.000180974
-0.000187438
-0.0001937
-0.000199763
-0.000205626
-0.000211288
-0.000216748
-0.000222
-0.000227036
-0.000231841
-0.000236397
-0.000240677
-0.000244644
-0.000248249
-0.000251426
-0.000254093
-0.000256139
-0.000257422
-0.000257762
-0.00025693
-0.000254637
-0.000250508
-0.000244017
-0.000234574
-0.000221549
-0.000204668
-0.000183249
-0.000158587
0.000242966
0.000230515
0.000218014
0.000205428
0.000192755
0.000180023
0.000167259
0.000154483
0.000141708
0.000128949
0.000116221
0.000103542
9.09297e-05
7.83998e-05
6.5969e-05
5.36531e-05
4.14681e-05
2.94292e-05
1.75512e-05
5.84782e-06
-5.66764e-06
-1.6983e-05
-2.80872e-05
-3.89701e-05
-4.96228e-05
-6.00379e-05
-7.02091e-05
-8.01314e-05
-8.98012e-05
-9.92164e-05
-0.000108377
-0.00011729
-0.000125958
-0.000134386
-0.000142576
-0.000150532
-0.000158258
-0.00016576
-0.000173044
-0.000180116
-0.00018698
-0.000193644
-0.000200113
-0.000206392
-0.000212486
-0.0002184
-0.000224136
-0.000229696
-0.000235077
-0.000240276
-0.000245282
-0.000250082
-0.000254654
-0.000258969
-0.000262986
-0.000266649
-0.000269885
-0.000272593
-0.000274648
-0.000275882
-0.000276079
-0.000274951
-0.000272089
-0.000266982
-0.000259113
-0.000247994
-0.000233504
-0.00021524
-0.00019644
0.000241551
0.00022844
0.000215288
0.000202055
0.000188743
0.000175379
0.000161994
0.000148609
0.000135238
0.000121898
0.000108606
9.53814e-05
8.22426e-05
6.92075e-05
5.62939e-05
4.3519e-05
3.09001e-05
1.84533e-05
6.19432e-06
-5.86214e-06
-1.77024e-05
-2.93137e-05
-4.0685e-05
-5.1806e-05
-6.26684e-05
-7.32652e-05
-8.35908e-05
-9.36415e-05
-0.000103415
-0.000112911
-0.000122133
-0.000131088
-0.000139781
-0.000148217
-0.000156401
-0.000164341
-0.000172042
-0.000179515
-0.000186767
-0.000193808
-0.000200647
-0.000207294
-0.000213757
-0.000220045
-0.000226166
-0.000232128
-0.000237936
-0.000243595
-0.000249107
-0.000254471
-0.000259685
-0.000264741
-0.000269625
-0.000274317
-0.000278789
-0.000282998
-0.000286886
-0.000290373
-0.000293356
-0.000295692
-0.000297173
-0.000297521
-0.000296366
-0.000293284
-0.000287848
-0.000279559
-0.000267855
-0.000252147
-0.00023389
0.000239041
0.00022523
0.000211385
0.000197467
0.000183477
0.000169444
0.000155403
0.000141374
0.000127376
0.000113424
9.95394e-05
8.57425e-05
7.20534e-05
5.84917e-05
4.50765e-05
3.18268e-05
1.87609e-05
5.89635e-06
-6.75025e-06
-1.91633e-05
-3.13284e-05
-4.32325e-05
-5.48641e-05
-6.62133e-05
-7.72719e-05
-8.80335e-05
-9.84936e-05
-0.00010865
-0.000118501
-0.000128049
-0.0001373
-0.000146262
-0.000154943
-0.00016335
-0.000171492
-0.000179378
-0.000187021
-0.000194432
-0.000201623
-0.000208608
-0.000215397
-0.000222004
-0.000228441
-0.000234718
-0.000240846
-0.000246836
-0.000252696
-0.000258435
-0.000264058
-0.000269572
-0.00027498
-0.000280281
-0.000285474
-0.00029055
-0.000295494
-0.000300284
-0.000304882
-0.000309237
-0.000313278
-0.000316885
-0.000319882
-0.000322074
-0.00032319
-0.000322895
-0.000320725
-0.000315956
-0.000307745
-0.000295459
-0.000277821
0.000235183
0.000220628
0.000206047
0.0001914
0.00017669
0.000161949
0.000147212
0.000132502
0.000117839
0.000103243
8.87334e-05
7.43345e-05
6.00679e-05
4.5955e-05
3.20168e-05
1.82739e-05
4.74634e-06
-8.54699e-06
-2.15881e-05
-3.43602e-05
-4.68481e-05
-5.9038e-05
-7.09181e-05
-8.24784e-05
-9.37109e-05
-0.00010461
-0.000115172
-0.000125396
-0.000135284
-0.000144838
-0.000154071
-0.000162992
-0.000171612
-0.000179941
-0.000187992
-0.00019578
-0.00020332
-0.000210627
-0.000217717
-0.000224605
-0.000231306
-0.000237835
-0.000244206
-0.000250433
-0.000256529
-0.000262507
-0.00026838
-0.000274159
-0.000279855
-0.00028548
-0.000291045
-0.000296558
-0.000302028
-0.000307462
-0.000312864
-0.000318235
-0.000323563
-0.000328833
-0.000334011
-0.000339031
-0.000343825
-0.000348327
-0.000352291
-0.000355305
-0.000356609
-0.000355294
-0.0003505
-0.00034151
-0.000328294
0.000229627
0.000214275
0.000198906
0.00018348
0.000168002
0.000152504
0.000137025
0.00012159
0.00010622
9.09375e-05
7.57663e-05
6.07312e-05
4.58566e-05
3.11662e-05
1.66833e-05
2.43073e-06
-1.15697e-05
-2.52969e-05
-3.87313e-05
-5.18548e-05
-6.4651e-05
-7.71054e-05
-8.92058e-05
-0.000100942
-0.000112308
-0.000123297
-0.00013391
-0.000144145
-0.000154009
-0.000163509
-0.00017266
-0.000181476
-0.000189969
-0.000198156
-0.000206053
-0.000213679
-0.000221053
-0.000228194
-0.000235121
-0.000241852
-0.000248404
-0.000254796
-0.000261044
-0.000267164
-0.000273171
-0.00027908
-0.000284907
-0.000290668
-0.000296377
-0.000302052
-0.000307711
-0.000313372
-0.000319057
-0.000324788
-0.00033059
-0.000336494
-0.000342522
-0.000348707
-0.000355097
-0.000361738
-0.000368683
-0.000375844
-0.00038281
-0.000388879
-0.000393106
-0.000394511
-0.000392029
-0.000384749
-0.000372306
0.000221766
0.000205554
0.000189338
0.000173078
0.000156779
0.000140474
0.000124204
0.000107999
9.18829e-05
7.58799e-05
6.00171e-05
4.43219e-05
2.88215e-05
1.35422e-05
-1.4902e-06
-1.62505e-05
-3.07144e-05
-4.48591e-05
-5.86631e-05
-7.2107e-05
-8.51734e-05
-9.78473e-05
-0.000110116
-0.000121971
-0.000133406
-0.000144417
-0.000155005
-0.000165174
-0.000174932
-0.000184294
-0.000193277
-0.000201897
-0.000210174
-0.000218126
-0.000225778
-0.000233153
-0.000240273
-0.000247162
-0.000253843
-0.000260337
-0.000266664
-0.000272843
-0.000278894
-0.000284834
-0.000290679
-0.000296447
-0.000302155
-0.000307821
-0.000313464
-0.000319106
-0.00032477
-0.000330484
-0.000336281
-0.000342202
-0.000348301
-0.000354645
-0.000361324
-0.000368453
-0.000376211
-0.000384685
-0.00039387
-0.000403389
-0.000412667
-0.000420886
-0.000427051
-0.000429953
-0.000428534
-0.000421986
-0.000410416
0.000210613
0.000193494
0.000176391
0.000159268
0.000142123
0.00012499
0.000107913
9.09267e-05
7.40568e-05
5.73311e-05
4.07794e-05
2.44324e-05
8.32006e-06
-7.5284e-06
-2.30844e-05
-3.83202e-05
-5.32093e-05
-6.77265e-05
-8.18487e-05
-9.55547e-05
-0.000108826
-0.000121648
-0.000134007
-0.000145896
-0.000157308
-0.000168244
-0.000178705
-0.0001887
-0.000198243
-0.000207352
-0.000216049
-0.000224354
-0.000232294
-0.000239894
-0.000247186
-0.000254196
-0.000260954
-0.000267487
-0.000273823
-0.000279984
-0.000285995
-0.000291874
-0.000297642
-0.000303317
-0.000308915
-0.000314455
-0.000319955
-0.000325434
-0.000330914
-0.000336418
-0.000341971
-0.000347608
-0.000353381
-0.000359358
-0.000365644
-0.000372369
-0.000379716
-0.000387874
-0.000397011
-0.000407074
-0.000417762
-0.000428629
-0.000439108
-0.000448263
-0.000455001
-0.000458264
-0.000457071
-0.000450913
-0.00044041
0.000195324
0.000177292
0.000159304
0.00014133
0.000123356
0.000105414
8.75529e-05
6.98102e-05
5.22161e-05
3.48012e-05
1.75984e-05
6.40945e-07
-1.60382e-05
-3.2407e-05
-4.84339e-05
-6.40881e-05
-7.93406e-05
-9.41637e-05
-0.000108532
-0.000122422
-0.000135814
-0.000148693
-0.000161045
-0.000172864
-0.000184145
-0.000194888
-0.000205101
-0.000214796
-0.000223992
-0.000232712
-0.000240983
-0.000248834
-0.000256298
-0.00026341
-0.000270207
-0.000276725
-0.000282998
-0.00028906
-0.00029494
-0.000300666
-0.000306261
-0.000311745
-0.000317138
-0.000322454
-0.00032771
-0.000332923
-0.000338109
-0.000343287
-0.000348477
-0.000353705
-0.000359004
-0.000364429
-0.000370064
-0.000376029
-0.000382484
-0.000389615
-0.000397585
-0.000406527
-0.000416396
-0.000426986
-0.000438049
-0.000449192
-0.000459518
-0.000468257
-0.000474631
-0.000477603
-0.000476311
-0.000470651
-0.000461328
0.000176185
0.000157249
0.000138384
0.000119573
0.000100785
8.20499e-05
6.34199e-05
4.49379e-05
2.66377e-05
8.5533e-06
-9.27953e-06
-2.68241e-05
-4.40442e-05
-6.09037e-05
-7.73678e-05
-9.34023e-05
-0.000108975
-0.000124054
-0.000138611
-0.000152621
-0.000166064
-0.000178921
-0.000191182
-0.000202836
-0.000213882
-0.000224321
-0.000234164
-0.000243428
-0.000252138
-0.000260323
-0.000268017
-0.00027526
-0.000282094
-0.000288565
-0.000294718
-0.0003006
-0.000306252
-0.000311715
-0.000317022
-0.000322203
-0.000327282
-0.000332278
-0.000337205
-0.000342073
-0.000346892
-0.000351671
-0.000356419
-0.000361156
-0.000365908
-0.000370721
-0.000375667
-0.000380831
-0.000386335
-0.000392314
-0.000398896
-0.000406181
-0.0004142
-0.000422955
-0.00043242
-0.000442561
-0.000452898
-0.000462729
-0.000471707
-0.000479593
-0.000485441
-0.000488031
-0.000486682
-0.000481529
-0.000473307
0.000154923
0.000135029
0.000115234
9.55294e-05
7.58697e-05
5.62806e-05
3.68205e-05
1.75374e-05
-1.53094e-06
-2.03467e-05
-3.88697e-05
-5.70587e-05
-7.4873e-05
-9.22722e-05
-0.000109217
-0.000125668
-0.000141589
-0.000156944
-0.000171702
-0.000185834
-0.000199315
-0.000212126
-0.00022425
-0.000235679
-0.000246411
-0.000256451
-0.000265814
-0.000274522
-0.000282607
-0.000290105
-0.000297061
-0.000303527
-0.000309559
-0.000315215
-0.000320555
-0.000325638
-0.000330516
-0.000335237
-0.00033984
-0.000344358
-0.000348812
-0.000353218
-0.00035758
-0.000361901
-0.000366184
-0.000370435
-0.000374669
-0.00037891
-0.000383207
-0.000387623
-0.000392266
-0.000397217
-0.000402537
-0.000408249
-0.00041437
-0.000420918
-0.000427967
-0.000435691
-0.000444006
-0.000452331
-0.000460244
-0.000468239
-0.00047653
-0.00048401
-0.000489188
-0.000491093
-0.000489489
-0.000484719
-0.000477639
0.000133198
0.000112211
9.1339e-05
7.05913e-05
4.99091e-05
2.93168e-05
8.87762e-06
-1.13557e-05
-3.13404e-05
-5.10339e-05
-7.03908e-05
-8.93646e-05
-0.000107909
-0.000125977
-0.000143524
-0.000160506
-0.000176878
-0.000192601
-0.000207636
-0.00022195
-0.000235511
-0.000248293
-0.000260278
-0.000271452
-0.000281815
-0.000291372
-0.000300144
-0.00030816
-0.000315459
-0.000322091
-0.000328113
-0.000333596
-0.000338613
-0.000343242
-0.000347562
-0.00035165
-0.000355572
-0.000359387
-0.000363137
-0.000366851
-0.000370541
-0.00037421
-0.000377857
-0.00038149
-0.000385136
-0.00038884
-0.000392656
-0.000396625
-0.000400749
-0.00040499
-0.000409333
-0.000413765
-0.000418295
-0.000422919
-0.000427689
-0.000432776
-0.000438334
-0.00044409
-0.000449525
-0.000454969
-0.000461591
-0.000469453
-0.000477324
-0.000483724
-0.000487766
-0.000488939
-0.000487155
-0.000482791
-0.000476951
0.000113129
9.07861e-05
6.85935e-05
4.65504e-05
2.45923e-05
2.74586e-06
-1.89201e-05
-4.03472e-05
-6.14875e-05
-8.22927e-05
-0.000102712
-0.000122691
-0.000142178
-0.00016112
-0.000179463
-0.000197156
-0.000214149
-0.000230391
-0.000245839
-0.000260448
-0.00027418
-0.000287004
-0.000298893
-0.000309834
-0.00031982
-0.000328858
-0.000336969
-0.000344188
-0.000350562
-0.000356157
-0.000361049
-0.00036533
-0.000369098
-0.000372459
-0.000375518
-0.000378375
-0.000381121
-0.000383829
-0.000386556
-0.000389337
-0.000392185
-0.0003951
-0.000398073
-0.000401101
-0.0004042
-0.000407425
-0.000410856
-0.000414561
-0.000418479
-0.000422432
-0.000426143
-0.000429422
-0.000432424
-0.000435457
-0.000438639
-0.000441624
-0.000444001
-0.000446239
-0.000449695
-0.000455022
-0.000461734
-0.000468775
-0.000475286
-0.00048048
-0.000483617
-0.00048423
-0.000482236
-0.000478177
-0.000473357
9.33838e-05
6.951e-05
4.57301e-05
2.21077e-05
-1.4164e-06
-2.48141e-05
-4.80093e-05
-7.09351e-05
-9.3536e-05
-0.000115756
-0.000137536
-0.000158815
-0.00017953
-0.000199618
-0.000219017
-0.000237665
-0.000255501
-0.000272464
-0.000288497
-0.000303542
-0.000317545
-0.000330459
-0.000342247
-0.000352883
-0.00036236
-0.000370689
-0.000377894
-0.000384018
-0.000389121
-0.000393283
-0.000396605
-0.000399204
-0.000401215
-0.000402785
-0.00040407
-0.000405225
-0.000406402
-0.000407735
-0.000409336
-0.000411275
-0.000413576
-0.000416207
-0.000419074
-0.000422033
-0.000424921
-0.000427616
-0.000430155
-0.000432669
-0.000435314
-0.00043825
-0.000441203
-0.00044352
-0.000444751
-0.000445141
-0.000445174
-0.000444891
-0.000444954
-0.000446713
-0.000450467
-0.000455382
-0.000460906
-0.000466694
-0.00047209
-0.000476292
-0.0004786
-0.000478636
-0.000476418
-0.000472587
-0.000468472
8.05074e-05
5.45623e-05
2.88535e-05
3.3092e-06
-2.2126e-05
-4.74088e-05
-7.24555e-05
-9.71935e-05
-0.000121562
-0.000145497
-0.000168934
-0.0001918
-0.000214025
-0.000235536
-0.00025626
-0.000276128
-0.000295072
-0.000313027
-0.000329933
-0.00034572
-0.000360314
-0.000373645
-0.000385648
-0.000396276
-0.0004055
-0.000413315
-0.000419738
-0.000424812
-0.000428607
-0.000431223
-0.000432792
-0.000433481
-0.000433492
-0.00043305
-0.000432399
-0.000431786
-0.000431438
-0.000431537
-0.0004322
-0.000433451
-0.000435227
-0.000437386
-0.000439758
-0.000442189
-0.000444574
-0.000446834
-0.000448776
-0.000450072
-0.000450723
-0.000451332
-0.000452305
-0.00045303
-0.000452197
-0.000449899
-0.00044784
-0.000447083
-0.000447532
-0.000448952
-0.000451506
-0.000455298
-0.000459948
-0.000464788
-0.000469089
-0.000472161
-0.00047348
-0.000472804
-0.000470233
-0.000466438
-0.000462579
5.53128e-05
2.73818e-05
-6.56057e-07
-2.85539e-05
-5.63355e-05
-8.39622e-05
-0.00011134
-0.000138384
-0.000165019
-0.000191169
-0.000216754
-0.000241689
-0.000265886
-0.000289254
-0.000311701
-0.000333134
-0.000353453
-0.00037256
-0.000390337
-0.000406645
-0.000421391
-0.000434542
-0.000446045
-0.000455837
-0.000463882
-0.000470176
-0.000474749
-0.000477668
-0.00047904
-0.000479009
-0.000477759
-0.000475516
-0.000472545
-0.000469139
-0.000465611
-0.000462278
-0.000459437
-0.000457336
-0.000456143
-0.000455905
-0.000456503
-0.00045762
-0.000458774
-0.000459491
-0.000459627
-0.000459626
-0.000459948
-0.000460307
-0.000459884
-0.000458448
-0.000456852
-0.00045596
-0.000455345
-0.00045427
-0.000452606
-0.000450947
-0.000450193
-0.000450822
-0.000452738
-0.000455739
-0.000459447
-0.000463225
-0.000466339
-0.000468124
-0.000468106
-0.000466114
-0.000462368
-0.000457674
-0.000453373
4.80858e-05
1.7947e-05
-1.17226e-05
-4.14602e-05
-7.11875e-05
-0.000100724
-0.000129957
-0.000158815
-0.000187226
-0.000215109
-0.000242377
-0.000268936
-0.00029469
-0.000319543
-0.000343404
-0.000366194
-0.000387862
-0.000408417
-0.000427881
-0.000446002
-0.00046235
-0.000476704
-0.000489029
-0.000499301
-0.000507456
-0.000513422
-0.000517155
-0.000518652
-0.00051797
-0.000515243
-0.000510697
-0.000504667
-0.000497596
-0.000490036
-0.00048262
-0.000476021
-0.000470862
-0.000467621
-0.000466508
-0.000467378
-0.000469672
-0.00047247
-0.000474595
-0.000474666
-0.000471761
-0.000466985
-0.000462957
-0.000461119
-0.000461021
-0.000461415
-0.000461137
-0.000459781
-0.000457852
-0.00045615
-0.000454892
-0.000453984
-0.000453475
-0.000453529
-0.0004543
-0.000455934
-0.000458348
-0.000461027
-0.000463105
-0.000463663
-0.000462025
-0.000458024
-0.000452111
-0.00044533
-0.000438646
-2.80494e-05
-6.06141e-05
-9.33935e-05
-0.000125969
-0.000158322
-0.00019046
-0.000222277
-0.000253642
-0.000284455
-0.000314632
-0.000344073
-0.000372656
-0.000400246
-0.000426698
-0.000451851
-0.000475521
-0.00049749
-0.000517497
-0.000535273
-0.00055086
-0.000564472
-0.00057606
-0.000585404
-0.000592321
-0.000596705
-0.000598485
-0.000597609
-0.000594062
-0.000587903
-0.000579301
-0.000568548
-0.00055606
-0.000542375
-0.000528143
-0.000514096
-0.000501014
-0.000489655
-0.000480663
-0.000474469
-0.000471186
-0.000470544
-0.000471879
-0.000474138
-0.000476049
-0.000476626
-0.000475435
-0.000472534
-0.000468638
-0.000464836
-0.000462042
-0.000460259
-0.000458803
-0.00045741
-0.000456291
-0.000455628
-0.000455347
-0.000455304
-0.000455413
-0.00045567
-0.000456228
-0.000457333
-0.000458982
-0.000460551
-0.000460879
-0.000458808
-0.000453803
-0.000446255
-0.000437347
-0.00042844
8.38818e-05
9.0641e-05
9.77891e-05
0.000105425
0.000113611
0.000122358
0.000131748
0.000141609
0.000151978
0.000162917
0.000174399
0.000186483
0.000198791
0.000212216
0.00022509
0.00023884
0.000252023
0.000265854
0.000279464
0.000292927
0.000307077
0.000319607
0.000331996
0.000343452
0.000354196
0.000364176
0.000372664
0.000380054
0.000386431
0.000391294
0.000394495
0.00039635
0.000397026
0.000396632
0.000394432
0.000391172
0.000386973
0.000381611
0.000375384
0.000368648
0.000361162
0.000353069
0.000344995
0.000337048
0.000328042
0.000319711
0.000310859
0.000302393
0.000294043
0.000285875
0.000278055
0.000270467
0.000263325
0.000256357
0.000249921
0.000243361
0.000237299
0.000231581
0.000226203
8.20394e-05
8.90269e-05
9.6552e-05
0.000104592
0.000113181
0.000122333
0.000132073
0.000142368
0.000153249
0.000164706
0.000176699
0.00018925
0.000202259
0.000215777
0.000229653
0.000243737
0.000258051
0.000272398
0.00028682
0.000300929
0.000315012
0.00032859
0.000341489
0.000353581
0.00036478
0.000375031
0.000384072
0.000391771
0.000398303
0.000403316
0.000406647
0.000408661
0.000409319
0.000408561
0.00040634
0.000402871
0.000398333
0.000392788
0.000386285
0.000379056
0.000371249
0.000362923
0.000354309
0.000345393
0.000336322
0.000327268
0.000318235
0.000309367
0.000300643
0.000292115
0.000283875
0.000275935
0.000268267
0.000260967
0.00025396
0.000247318
0.000241019
0.000235056
0.000229403
7.99913e-05
8.73072e-05
9.51549e-05
0.000103566
0.000112553
0.000122134
0.00013231
0.000143082
0.000154465
0.000166455
0.000179016
0.000192117
0.000205732
0.000219816
0.000234285
0.000249124
0.000264161
0.000279289
0.000294362
0.000309229
0.000323826
0.000337989
0.000351543
0.000364248
0.000376011
0.000386685
0.000396112
0.000404211
0.000410955
0.000416113
0.000419676
0.000421751
0.000422306
0.000421373
0.000418983
0.000415305
0.000410443
0.000404557
0.000397725
0.000390127
0.000381897
0.000373094
0.000363914
0.000354512
0.000344976
0.000335452
0.000325974
0.00031663
0.000307471
0.000298533
0.000289883
0.000281529
0.000273499
0.000265808
0.0002585
0.000251562
0.000244974
0.000238732
0.000232826
7.75775e-05
8.5226e-05
9.34337e-05
0.000102226
0.000111625
0.000121646
0.000132297
0.000143583
0.000155505
0.000168058
0.00018122
0.000194959
0.000209242
0.000224009
0.000239174
0.000254702
0.000270432
0.000286286
0.000302087
0.000317728
0.000333056
0.00034786
0.000362038
0.000375354
0.000387687
0.000398861
0.000408713
0.000417178
0.000424172
0.000429522
0.000433252
0.000435363
0.000435857
0.000434811
0.000432239
0.000428313
0.000423133
0.000416854
0.000409605
0.000401553
0.000392825
0.000383534
0.000373869
0.000363992
0.000353955
0.000343909
0.000333918
0.000324067
0.000314424
0.000305034
0.000295944
0.000287183
0.000278777
0.000270737
0.000263078
0.000255795
0.000248883
0.00024234
0.00023616
7.46948e-05
8.26951e-05
9.12848e-05
0.000100489
0.000110329
0.000120821
0.000131978
0.000143804
0.000156299
0.000169456
0.000183254
0.000197664
0.000212645
0.000228133
0.000244051
0.000260319
0.000276815
0.000293432
0.000310016
0.000326433
0.000342515
0.000358051
0.0003729
0.000386856
0.000399773
0.000411474
0.000421792
0.000430627
0.000437896
0.000443459
0.000447321
0.000449471
0.000449921
0.000448748
0.000445983
0.000441782
0.000436265
0.000429582
0.000421882
0.000413333
0.000404087
0.000394288
0.000384102
0.000373674
0.000363097
0.0003525
0.000341976
0.000331606
0.000321458
0.000311586
0.000302032
0.000292832
0.000284008
0.000275574
0.000267536
0.000259897
0.000252654
0.000245799
0.000239328
7.12918e-05
7.96653e-05
8.86585e-05
9.82985e-05
0.000108608
0.000119603
0.000131296
0.000143695
0.000156799
0.000170598
0.000185072
0.000200189
0.000215905
0.000232158
0.00024887
0.000265947
0.000283272
0.000300716
0.000318131
0.000335362
0.000352233
0.000368546
0.000384125