/*--------------------------------*- C++ -*----------------------------------*\
| =========                 |                                                 |
| \\      /  F ield         | OpenFOAM: The Open Source CFD Toolbox           |
|  \\    /   O peration     | Version:  2312                                  |
|   \\  /    A nd           | Website:  www.openfoam.com                      |
|    \\/     M anipulation  |                                                 |
\*---------------------------------------------------------------------------*/
FoamFile
{
    version     2.0;
    format      ascii;
    arch        "LSB;label=32;scalar=64";
    class       surfaceScalarField;
    location    "1400";
    object      phi;
}
// * * * * * * * * * * * * * * * * * * * * * * * * * * * * * * * * * * * * * //

dimensions      [0 3 -1 0 0 0 0];

oriented        oriented;

internalField   nonuniform List<scalar> 
116611
(
0.00106062
0.000404946
-0.00104491
-0.000420661
0.00107622
0.000400436
-0.000416039
0.00109165
0.000395569
-0.000410995
0.00110693
0.000390331
-0.000405605
0.00112195
0.000384722
-0.000399751
0.00113702
0.000378711
-0.000393775
0.00115166
0.000372306
-0.000386952
0.00116626
0.000365474
-0.000380067
0.00118049
0.000358187
-0.000372424
0.00119453
0.000350437
-0.000364472
0.00120831
0.000342221
-0.000355998
0.00122187
0.000333528
-0.000347096
0.00123513
0.000324357
-0.000337615
0.00124805
0.000314653
-0.000327569
0.00126072
0.000304441
-0.000317114
0.00127288
0.000293687
-0.000305845
0.00128492
0.000282352
-0.000294392
0.00129645
0.000270482
-0.000282009
0.00130769
0.000257964
-0.00026921
0.00131843
0.000244905
-0.000255645
0.00132888
0.000231168
-0.000241612
0.00133879
0.000216819
-0.000226737
0.00134822
0.000201793
-0.000211219
0.00135725
0.000186139
-0.000195168
0.00136577
0.000169799
-0.000178321
0.00137378
0.000152745
-0.000160757
0.00138132
0.000134941
-0.000142481
0.00138817
0.000116457
-0.000123308
0.00139468
9.72347e-05
-0.000103742
0.00140037
7.7205e-05
-8.28978e-05
0.00140563
5.64899e-05
-6.17488e-05
0.00141008
3.48612e-05
-3.93119e-05
0.00141405
1.2463e-05
-1.64313e-05
0.00141721
-1.07358e-05
7.57882e-06
0.00141979
-3.48302e-05
3.22457e-05
0.00142157
-5.97015e-05
5.79271e-05
0.00142276
-8.54791e-05
8.42829e-05
0.00142311
-0.000112157
0.000111813
0.00142257
-0.000139705
0.000140239
0.00142121
-0.000168199
0.000169562
0.00141904
-0.000197534
0.0001997
0.00141606
-0.000227828
0.000230811
0.00141207
-0.000259069
0.000263059
0.00140708
-0.000291189
0.000296176
0.0014012
-0.000324272
0.000330151
0.0013943
-0.000358268
0.000365174
0.00138634
-0.000393265
0.000401227
0.00137718
-0.000429158
0.000438314
0.00136702
-0.000465968
0.000476133
0.00135567
-0.000503733
0.000515075
0.00134313
-0.000542472
0.00055502
0.00132934
-0.00058215
0.000595937
0.00131421
-0.000622788
0.000637914
0.00129772
-0.000664388
0.00068088
0.00127992
-0.000706934
0.000724734
0.00126087
-0.000750486
0.00076954
0.00124046
-0.000795218
0.000815623
0.00121877
-0.000841126
0.000862821
0.00119559
-0.000888367
0.000911539
0.00117077
-0.00093691
0.000961736
0.00114388
-0.000986641
0.00101353
0.00111463
-0.00103733
0.00106658
0.00108274
-0.00108865
0.00112054
0.00104757
-0.00114044
0.00117561
0.00100879
-0.00119239
0.00123117
0.000966049
-0.00124422
0.00128696
0.000918135
-0.00129606
0.00134398
0.000865019
-0.00134665
0.00139977
-0.00139522
0.000807786
0.00145245
0.00104367
0.000389294
-0.00102802
0.00105917
0.000384936
0.00107451
0.000380226
0.00108969
0.000375156
0.00110471
0.000369699
0.00111955
0.000363874
0.0011342
0.000357656
0.00114864
0.000351026
0.00116286
0.000343973
0.00117682
0.00033647
0.00119054
0.00032851
0.00120398
0.000320087
0.00121715
0.00031118
0.00123003
0.000301777
0.00124259
0.00029188
0.00125483
0.000281445
0.00126671
0.000270473
0.00127825
0.00025894
0.00128938
0.000246833
0.00130015
0.000234135
0.00131049
0.000220832
0.0013204
0.000206913
0.00132983
0.000192355
0.00133882
0.000177156
0.00134732
0.000161293
0.00135534
0.000144732
0.00136279
0.000127483
0.00136972
0.00010953
0.00137611
9.08486e-05
0.00138188
7.14332e-05
0.00138711
5.12594e-05
0.00139168
3.02961e-05
0.00139559
8.55227e-06
0.00139884
-1.39934e-05
0.00140138
-3.73686e-05
0.00140324
-6.15621e-05
0.00140437
-8.66036e-05
0.00140471
-0.000112496
0.00140426
-0.00013926
0.00140297
-0.00016691
0.00140087
-0.000195428
0.00139788
-0.000224838
0.00139395
-0.000255145
0.00138911
-0.00028635
0.00138331
-0.000318463
0.00137651
-0.000351475
0.00136865
-0.000385404
0.00135973
-0.000420233
0.00134972
-0.000455962
0.00133858
-0.000492593
0.00132625
-0.000530144
0.00131271
-0.000568607
0.00129792
-0.000607996
0.00128186
-0.000648331
0.00126456
-0.000689635
0.00124604
-0.000731965
0.00122623
-0.000775405
0.00120508
-0.000819978
0.0011824
-0.000865683
0.00115789
-0.000912409
0.00113122
-0.000959961
0.00110198
-0.00100809
0.00106983
-0.00105651
0.00103435
-0.00110496
0.00099518
-0.00115322
0.000952018
-0.00120106
0.000904247
-0.00124829
0.000851717
-0.00129412
-0.00133844
0.000794942
0.00102714
0.000373749
-0.0010116
0.00104255
0.000369526
0.00105782
0.000364961
0.00107293
0.000360047
0.00108786
0.000354771
0.0011026
0.000349125
0.00111716
0.000343096
0.00113152
0.00033667
0.00114566
0.000329834
0.00115956
0.000322572
0.0011732
0.00031487
0.00118657
0.000306714
0.00119966
0.000298089
0.00121245
0.000288984
0.00122495
0.000279387
0.00123711
0.000269278
0.00124894
0.000258646
0.00126041
0.000247471
0.0012715
0.000235741
0.0012822
0.000223437
0.00129248
0.000210547
0.00130234
0.000197055
0.00131175
0.000182946
0.0013207
0.000168206
0.00132918
0.00015282
0.00133714
0.000136768
0.00134458
0.00012004
0.00135149
0.000102621
0.00135784
8.44959e-05
0.00136363
6.56503e-05
0.00136882
4.60676e-05
0.00137338
2.57318e-05
0.0013773
4.63227e-06
0.00138056
-1.7255e-05
0.00138313
-3.99396e-05
0.001385
-6.34304e-05
0.00138614
-8.77382e-05
0.00138652
-0.000112876
0.00138611
-0.000138857
0.00138489
-0.000165689
0.00138284
-0.000193373
0.00137992
-0.000221918
0.00137611
-0.000251331
0.00137137
-0.000281617
0.00136568
-0.000312775
0.00135902
-0.000344807
0.00135133
-0.000377715
0.00134259
-0.000411499
0.00133278
-0.000446152
0.00132187
-0.00048168
0.00130982
-0.000518092
0.00129661
-0.000555397
0.00128223
-0.000593614
0.00126667
-0.000632772
0.00124993
-0.000672902
0.00123201
-0.00071404
0.00121281
-0.000756203
0.00119218
-0.000799354
0.00116989
-0.000843391
0.00114562
-0.000888134
0.00111901
-0.000933351
0.0010897
-0.000978785
0.00105736
-0.00102417
0.00102166
-0.00106927
0.000982301
-0.00111385
0.000938976
-0.00115773
0.000891285
-0.0012006
0.000838943
-0.00124178
-0.00128101
0.00078151
0.00101115
0.000358292
-0.000995695
0.00102647
0.000354203
0.00104165
0.000349783
0.00105667
0.000345027
0.00107152
0.000339923
0.00108619
0.000334459
0.00110066
0.000328624
0.00111492
0.000322404
0.00112897
0.000315787
0.00114278
0.00030876
0.00115635
0.000301307
0.00116964
0.000293416
0.00118266
0.000285073
0.00119538
0.000276263
0.0012078
0.000266972
0.00121989
0.000257187
0.00123164
0.000246893
0.00124304
0.000236074
0.00125406
0.000224716
0.00126469
0.000212803
0.00127492
0.00020032
0.00128472
0.000187252
0.00129408
0.000173586
0.00130299
0.000159305
0.00131141
0.000144396
0.00131934
0.000128842
0.00132675
0.000112629
0.00133363
9.57423e-05
0.00133995
7.81689e-05
0.00134571
5.98936e-05
0.00135088
4.0902e-05
0.00135543
2.11796e-05
0.00135935
7.14613e-07
0.00136261
-2.05181e-05
0.00136519
-4.25246e-05
0.00136708
-6.53151e-05
0.00136824
-8.89003e-05
0.00136866
-0.000113292
0.0013683
-0.000138499
0.00136714
-0.000164529
0.00136515
-0.000191389
0.00136232
-0.000219084
0.00135861
-0.00024762
0.00135399
-0.000276999
0.00134844
-0.000307223
0.00134192
-0.000338293
0.00133442
-0.000370211
0.0013259
-0.000402975
0.00131633
-0.000436588
0.00130571
-0.000471055
0.001294
-0.000506388
0.00128121
-0.000542606
0.00126733
-0.000579731
0.00125234
-0.000617788
0.00123623
-0.00065679
0.00121892
-0.000696728
0.00120027
-0.000737553
0.00118007
-0.000779153
0.00115804
-0.000821362
0.00113387
-0.000863965
0.00110724
-0.000906721
0.00107784
-0.000949384
0.00104538
-0.000991712
0.00100959
-0.00103348
0.000970199
-0.00107446
0.000926936
-0.00111447
0.000879457
-0.00115312
0.000827435
-0.00118976
-0.00122386
0.000770284
0.000995691
0.000342916
-0.000980315
0.00101093
0.000338964
0.00102602
0.000334691
0.00104096
0.000330094
0.00105572
0.00032516
0.0010703
0.000319879
0.00108468
0.000314238
0.00109886
0.000308226
0.00111282
0.000301829
0.00112655
0.000295035
0.00114002
0.000287831
0.00115324
0.000280203
0.00116617
0.000272137
0.00117882
0.00026362
0.00119115
0.000254637
0.00120316
0.000245174
0.00121484
0.000235218
0.00122616
0.000224753
0.00123711
0.000213765
0.00124768
0.000202238
0.00125784
0.00019016
0.00126758
0.000177514
0.00127688
0.000164286
0.00128572
0.000150461
0.00129409
0.000136025
0.00130197
0.000120962
0.00130934
0.000105259
0.00131618
8.89017e-05
0.00132247
7.18753e-05
0.0013282
5.41659e-05
0.00133334
3.57599e-05
0.00133788
1.66443e-05
0.00134179
-3.19483e-06
0.00134505
-2.37801e-05
0.00134764
-4.51172e-05
0.00134954
-6.72164e-05
0.00135073
-9.0088e-05
0.00135118
-0.000113742
0.00135087
-0.000138188
0.00134978
-0.000163432
0.00134787
-0.000189483
0.00134513
-0.000216343
0.00134153
-0.000244018
0.00133704
-0.000272511
0.00133164
-0.000301824
0.0013253
-0.000331959
0.00131801
-0.000362918
0.00130974
-0.000394704
0.00130048
-0.000427324
0.00129021
-0.00046079
0.00127894
-0.000495116
0.00126666
-0.000530322
0.00125335
-0.000566422
0.00123898
-0.000603418
0.00122347
-0.000641285
0.0012067
-0.000679959
0.00118848
-0.000719326
0.00116855
-0.000759228
0.00114666
-0.000799466
0.00112251
-0.000839819
0.00109584
-0.000880053
0.00106639
-0.000919936
0.00103392
-0.000959242
0.000998194
-0.000997745
0.000958969
-0.00103523
0.000915997
-0.0010715
0.000868935
-0.00110606
0.000817385
-0.00113821
-0.00116677
0.000760297
0.000980771
0.000327619
-0.000965473
0.000995929
0.000323805
0.00101094
0.000319682
0.00102579
0.000315244
0.00104047
0.000310482
0.00105496
0.000305384
0.00106926
0.000299939
0.00108335
0.000294135
0.00109722
0.000287959
0.00111086
0.0002814
0.00112424
0.000274443
0.00113737
0.000267076
0.00115022
0.000259287
0.00116278
0.000251061
0.00117503
0.000242384
0.00118696
0.000233243
0.00119856
0.000223623
0.0012098
0.00021351
0.00122068
0.000202891
0.00123117
0.000191749
0.00124125
0.000180072
0.00125092
0.000167844
0.00126016
0.000155051
0.00126894
0.000141679
0.00127725
0.000127712
0.00128508
0.000113137
0.0012924
9.79396e-05
0.00129919
8.21054e-05
0.00130545
6.56207e-05
0.00131114
4.84719e-05
0.00131626
3.06456e-05
0.00132077
1.21298e-05
0.00132467
-7.09206e-06
0.00132793
-2.70381e-05
0.00133052
-4.7715e-05
0.00133244
-6.91326e-05
0.00133365
-9.13013e-05
0.00133414
-0.00011423
0.00133388
-0.000137928
0.00133285
-0.000162402
0.00133103
-0.000187659
0.00132839
-0.000213703
0.00132491
-0.000240539
0.00132057
-0.000268171
0.00131535
-0.000296602
0.00130923
-0.000325838
0.00130219
-0.000355882
0.00129423
-0.000386744
0.00128534
-0.000418435
0.00127552
-0.000450967
0.00126476
-0.000484355
0.00125304
-0.000518605
0.00124032
-0.000553707
0.00122653
-0.000589625
0.00121154
-0.000626288
0.00119516
-0.000663584
0.0011772
-0.000701362
0.00115741
-0.000739439
0.00113555
-0.000777613
0.0011114
-0.000815668
0.00108473
-0.000853383
0.00105533
-0.000890538
0.001023
-0.00092691
0.00098753
-0.000962273
0.00094871
-0.000996414
0.000906296
-0.00102908
0.000859928
-0.00105969
0.00080915
-0.00108743
-0.00110999
0.00075237
0.000966412
0.000312401
-0.000951194
0.000981491
0.000308726
0.00099642
0.000304753
0.00101119
0.000300477
0.00102578
0.000295888
0.00104019
0.000290975
0.0010544
0.000285727
0.00106841
0.000280131
0.00108219
0.000274177
0.00109574
0.000267853
0.00110904
0.000261144
0.00112207
0.00025404
0.00113483
0.000246526
0.0011473
0.00023859
0.00115947
0.000230218
0.00117132
0.000221397
0.00118282
0.000212113
0.00119398
0.000202351
0.00120478
0.000192098
0.00121519
0.00018134
0.0012252
0.000170061
0.00123479
0.000158249
0.00124395
0.000145888
0.00125267
0.000132964
0.00126092
0.000119464
0.00126868
0.000105372
0.00127595
9.06751e-05
0.00128269
7.53592e-05
0.0012889
5.94107e-05
0.00129456
4.28163e-05
0.00129964
2.55631e-05
0.00130413
7.63958e-06
0.00130801
-1.09736e-05
0.00131126
-3.02895e-05
0.00131387
-5.03161e-05
0.0013158
-7.10634e-05
0.00131704
-9.25413e-05
0.00131756
-0.000114759
0.00131736
-0.000137724
0.0013164
-0.000161445
0.00131467
-0.000185929
0.00131215
-0.000211179
0.00130882
-0.000237204
0.00130465
-0.000264008
0.00129965
-0.000291597
0.00129379
-0.000319981
0.00128708
-0.000349167
0.0012795
-0.000379168
0.00127106
-0.000409994
0.00126174
-0.000441653
0.00125153
-0.000474142
0.00124037
-0.000507444
0.00122818
-0.000541515
0.00121484
-0.000576281
0.00120018
-0.000611632
0.00118402
-0.000647429
0.00116617
-0.000683508
0.00114642
-0.000719686
0.00112457
-0.000755765
0.00110044
-0.000791541
0.00107386
-0.000826803
0.00104466
-0.000861332
0.00101265
-0.000894907
0.000977677
-0.000927297
0.000939543
-0.00095828
0.000897994
-0.000987533
0.000852633
-0.00101433
0.000802843
-0.00103764
-0.00105331
0.000746166
0.000952645
0.000297263
-0.000937507
0.000967643
0.000293728
0.00098249
0.000289906
0.000997175
0.000285792
0.00101169
0.000281377
0.00102601
0.00027665
0.00104014
0.000271599
0.00105405
0.000266214
0.00106775
0.000260483
0.00108121
0.000254394
0.00109442
0.000247935
0.00110736
0.000241093
0.00112003
0.000233856
0.00113241
0.00022621
0.00114449
0.000218143
0.00115624
0.000209642
0.00116766
0.000200692
0.00117874
0.00019128
0.00118944
0.000181392
0.00119977
0.000171015
0.0012097
0.000160133
0.00121921
0.000148733
0.0012283
0.000136802
0.00123694
0.000124323
0.00124512
0.000111285
0.00125282
9.76721e-05
0.00126002
8.34711e-05
0.00126671
6.86682e-05
0.00127287
5.32501e-05
0.00127849
3.72036e-05
0.00128353
2.05161e-05
0.001288
3.1762e-06
0.00129186
-1.48371e-05
0.0012951
-3.3533e-05
0.00129771
-5.29206e-05
0.00129965
-7.30102e-05
0.00130092
-9.38115e-05
0.0013015
-0.000115334
0.00130136
-0.000137586
0.00130049
-0.000160576
0.00129887
-0.000184311
0.00129649
-0.000208799
0.00129334
-0.000234049
0.0012894
-0.000260068
0.00128467
-0.000286866
0.00127914
-0.000314455
0.00127282
-0.000342842
0.00126569
-0.000372038
0.00125773
-0.000402043
0.00124893
-0.000432848
0.00123921
-0.000464427
0.0012285
-0.000496732
0.00121668
-0.000529688
0.00120359
-0.000563195
0.00118908
-0.000597126
0.00117299
-0.000631336
0.00115515
-0.000665662
0.00113539
-0.000699928
0.00111357
-0.000733947
0.00108955
-0.000767522
0.00106319
-0.000800446
0.00103436
-0.000832503
0.00100292
-0.000863466
0.000968727
-0.000893102
0.000931611
-0.000921163
0.000891294
-0.000947216
0.000847273
-0.000970309
0.000798347
-0.00098871
-0.000994931
0.000739964
0.000939497
0.000282205
-0.00092444
0.000954414
0.000278811
0.000969179
0.000275141
0.000983781
0.00027119
0.000998208
0.00026695
0.00101245
0.00026241
0.00102649
0.000257558
0.00104032
0.000252385
0.00105392
0.000246878
0.00106729
0.000241025
0.00108041
0.000234816
0.00109327
0.000228237
0.00110585
0.000221277
0.00111813
0.000213922
0.00113012
0.000206161
0.00114178
0.000197978
0.00115311
0.000189363
0.00116409
0.0001803
0.00117471
0.000170776
0.00118494
0.000160778
0.00119478
0.000150291
0.00120422
0.000139302
0.00121322
0.000127797
0.00122178
0.000115761
0.00122989
0.000103181
0.00123752
9.00425e-05
0.00124466
7.63324e-05
0.00125129
6.2037e-05
0.00125739
4.71429e-05
0.00126296
3.16371e-05
0.00126797
1.55073e-05
0.00127241
-1.25898e-06
0.00127625
-1.86822e-05
0.00127949
-3.67696e-05
0.0012821
-5.55316e-05
0.00128407
-7.49787e-05
0.00128538
-9.51212e-05
0.00128601
-0.000115969
0.00128596
-0.000137532
0.0012852
-0.000159819
0.00128373
-0.000182841
0.00128154
-0.000206606
0.00127861
-0.000231126
0.00127496
-0.000256411
0.00127056
-0.000282472
0.00126542
-0.000309315
0.00125953
-0.000336945
0.00125285
-0.000365358
0.00124534
-0.000394539
0.00123695
-0.000424456
0.00122758
-0.000455059
0.00121713
-0.000486277
0.00120546
-0.000518018
0.00119243
-0.000550174
0.00117792
-0.000582616
0.00116179
-0.000615203
0.00114391
-0.000647782
0.00112417
-0.000680185
0.00110246
-0.000712234
0.00107867
-0.000743737
0.00105271
-0.000774488
0.00102448
-0.000804272
0.000993877
-0.000832862
0.000960791
-0.000860016
0.000925062
-0.000885434
0.000886366
-0.000908521
0.000843919
-0.000927862
0.00079531
-0.000940101
-0.000933809
0.000734188
0.000927
0.000267227
-0.000912022
0.000941837
0.000263974
0.00095652
0.000260457
0.000971039
0.000256672
0.000985382
0.000252608
0.000999536
0.000248255
0.00101349
0.000243604
0.00102723
0.000238643
0.00104075
0.000233361
0.00105403
0.000227746
0.00106706
0.000221788
0.00107982
0.000215473
0.00109231
0.000208791
0.0011045
0.000201728
0.00111639
0.000194272
0.00112796
0.000186409
0.0011392
0.000178127
0.00115008
0.000169413
0.00116061
0.000160253
0.00117075
0.000150633
0.0011805
0.000140539
0.00118985
0.000129959
0.00119877
0.000118877
0.00120725
0.00010728
0.00121527
9.51548e-05
0.00122283
8.24867e-05
0.0012299
6.92623e-05
0.00123647
5.54682e-05
0.00124252
4.10911e-05
0.00124804
2.6118e-05
0.00125301
1.05367e-05
0.00125742
-5.66788e-06
0.00126125
-2.25127e-05
0.00126448
-4.00061e-05
0.00126711
-5.81593e-05
0.00126912
-7.69837e-05
0.00127049
-9.64906e-05
0.00127121
-0.000116691
0.00127127
-0.000137597
0.00127067
-0.000159218
0.0012694
-0.000181567
0.00126745
-0.000204655
0.00126481
-0.000228492
0.00126149
-0.000253086
0.00125746
-0.000278442
0.0012527
-0.00030456
0.00124719
-0.00033143
0.00124086
-0.000359033
0.00123366
-0.000387334
0.00122549
-0.000416284
0.00121625
-0.000445819
0.00120583
-0.00047586
0.00119412
-0.000506311
0.00118102
-0.000537066
0.0011664
-0.000568004
0.00115019
-0.000598993
0.0011323
-0.000629888
0.00111265
-0.00066053
0.00109116
-0.000690746
0.00106777
-0.000720348
0.00104242
-0.000749137
0.00101505
-0.000776903
0.000985607
-0.000803419
0.000954014
-0.000828423
0.000920092
-0.000851512
0.000883338
-0.000871767
0.000842179
-0.000886702
0.000792149
-0.000890071
-0.000866378
0.000724717
0.000915186
0.000252325
-0.000900285
0.000929944
0.000249217
0.000944547
0.000245854
0.000958984
0.000242235
0.000973243
0.000238348
0.000987313
0.000234186
0.00100118
0.000229736
0.00101484
0.000224988
0.00102826
0.000219933
0.00104145
0.000214557
0.00105439
0.000208851
0.00106706
0.000202802
0.00107945
0.000196398
0.00109155
0.000189627
0.00110335
0.000182477
0.00111482
0.000174935
0.00112596
0.000166987
0.00113676
0.000158621
0.00114718
0.000149824
0.00115724
0.000140581
0.0011669
0.000130879
0.00117615
0.000120705
0.00118498
0.000110045
0.00119338
9.88838e-05
0.00120132
8.72088e-05
0.0012088
7.50058e-05
0.00121581
6.22611e-05
0.00122231
4.89612e-05
0.00122831
3.50925e-05
0.00123379
2.0642e-05
0.00123873
5.59731e-06
0.00124312
-1.00596e-05
0.00124695
-2.63419e-05
0.0012502
-4.32602e-05
0.00125287
-6.08269e-05
0.00125494
-7.90547e-05
0.00125641
-9.79559e-05
0.00125726
-0.000117543
0.00125749
-0.000137828
0.00125709
-0.000158823
0.00125606
-0.000180538
0.00125439
-0.000202982
0.00125206
-0.000226161
0.00124905
-0.000250076
0.00124533
-0.000274721
0.00124085
-0.000300085
0.00123557
-0.000326143
0.0012294
-0.000352864
0.00122226
-0.000380202
0.00121408
-0.0004081
0.00120475
-0.000436492
0.00119419
-0.000465299
0.00118231
-0.000494432
0.00116904
-0.000523792
0.0011543
-0.000553265
0.00113804
-0.000582731
0.0011202
-0.00061205
0.00110074
-0.000641072
0.00107963
-0.000669632
0.00105683
-0.000697551
0.00103233
-0.000724641
0.00100614
-0.000750706
0.000978238
-0.000775519
0.000948579
-0.000798764
0.000916874
-0.000819807
0.000882016
-0.000836909
0.000840739
-0.000845426
0.000786286
-0.000835618
-0.000791197
0.000711105
0.000904094
0.000237498
-0.000889267
0.000918775
0.000234535
0.0009333
0.000231329
0.000947657
0.000227878
0.000961835
0.000224171
0.000975822
0.000220199
0.000989605
0.000215952
0.00100317
0.00021142
0.00101651
0.000206592
0.00102961
0.000201458
0.00104246
0.000196005
0.00105504
0.000190222
0.00106734
0.000184098
0.00107935
0.000177621
0.00109105
0.000170777
0.00110243
0.000163555
0.00111347
0.000155942
0.00112417
0.000147925
0.0011345
0.000139489
0.00114446
0.000130623
0.00115403
0.000121311
0.00116319
0.000111541
0.00117194
0.000101299
0.00118025
9.05694e-05
0.00118812
7.93397e-05
0.00119553
6.75954e-05
0.00120247
5.53226e-05
0.00120892
4.25074e-05
0.00121488
2.91359e-05
0.00122033
1.51946e-05
0.00122526
6.70468e-07
0.00122965
-1.44564e-05
0.00123351
-3.01972e-05
0.00123681
-4.65648e-05
0.00123956
-6.35724e-05
0.00124174
-8.12334e-05
0.00124334
-9.95605e-05
0.00124436
-0.000118566
0.0012448
-0.000138259
0.00124462
-0.000158651
0.00124383
-0.000179746
0.0012424
-0.000201548
0.00124029
-0.000224054
0.00123747
-0.000247255
0.00123389
-0.000271138
0.00122948
-0.00029568
0.00122419
-0.000320849
0.00121793
-0.000346609
0.00121064
-0.000372912
0.00120225
-0.000399703
0.00119267
-0.000426917
0.00118186
-0.000454484
0.00116975
-0.000482321
0.00115629
-0.000510337
0.00114146
-0.00053843
0.00112521
-0.000566484
0.00110753
-0.000594371
0.00108841
-0.000621952
0.00106785
-0.000649073
0.00104587
-0.000675572
0.00102252
-0.00070129
0.000997862
-0.000726048
0.00097194
-0.000749597
0.000944627
-0.000771451
0.000915159
-0.000790339
0.000881031
-0.000802781
0.000836633
-0.000801027
0.000773667
-0.000772652
-0.000702958
0.000685429
0.000893774
0.000222743
-0.000879019
0.000908381
0.000219927
0.000922831
0.00021688
0.000937111
0.000213597
0.00095121
0.000210072
0.000965117
0.000206293
0.000978819
0.000202251
0.000992303
0.000197936
0.00100556
0.000193337
0.00101857
0.000188444
0.00103133
0.000183246
0.00104382
0.000177731
0.00105603
0.000171888
0.00106795
0.000165705
0.00107956
0.000159169
0.00109084
0.000152268
0.0011018
0.000144989
0.0011124
0.000137319
0.00112265
0.000129244
0.00113252
0.000120752
0.001142
0.000111828
0.00115108
0.000102459
0.00115975
9.26294e-05
0.001168
8.23261e-05
0.0011758
7.15344e-05
0.00118316
6.024e-05
0.00119005
4.84285e-05
0.00119647
3.60854e-05
0.00120241
2.31965e-05
0.00120786
9.7479e-06
0.00121281
-4.27593e-06
0.00121724
-1.88933e-05
0.00122116
-3.41158e-05
0.00122455
-4.99567e-05
0.00122741
-6.64292e-05
0.00122972
-8.35453e-05
0.00123148
-0.000101316
0.00123266
-0.000119749
0.00123325
-0.000138853
0.00123323
-0.000158629
0.00123257
-0.000179079
0.00123122
-0.000200197
0.00122914
-0.000221976
0.00122628
-0.000244399
0.00122259
-0.000267448
0.00121801
-0.000291096
0.00121247
-0.000315313
0.00120592
-0.000340061
0.00119831
-0.000365296
0.00118957
-0.000390967
0.00117967
-0.000417017
0.00116857
-0.00044338
0.00115623
-0.000469984
0.00114264
-0.000496744
0.00112778
-0.000523568
0.00111164
-0.000550353
0.00109425
-0.000576982
0.00107564
-0.000603333
0.00105584
-0.000629276
0.00103495
-0.000654683
0.00101309
-0.000679434
0.000990396
-0.00070335
0.00096684
-0.000726041
0.000941853
-0.000746464
0.000913367
-0.000761853
0.000876505
-0.00076592
0.000823633
-0.000748155
0.00074806
-0.000697079
-0.000605546
0.000650647
0.000884296
0.000208056
-0.000869608
0.000898835
0.000205388
0.000913215
0.0002025
0.000927423
0.000199389
0.00094145
0.000196045
0.000955282
0.00019246
0.000968909
0.000188624
0.000982317
0.000184528
0.000995494
0.00018016
0.00100843
0.00017551
0.00102111
0.000170567
0.00103352
0.000165321
0.00104565
0.000159759
0.00105748
0.00015387
0.00106901
0.000147641
0.00108021
0.000141061
0.00109109
0.000134115
0.00110162
0.000126791
0.00111179
0.000119075
0.00112158
0.000110954
0.001131
0.000102413
0.00114002
9.34383e-05
0.00114863
8.40155e-05
0.00115683
7.413e-05
0.0011646
6.37668e-05
0.00117193
5.29113e-05
0.00117881
4.15485e-05
0.00118523
2.96638e-05
0.00119118
1.72426e-05
0.00119666
4.27093e-06
0.00120165
-9.26893e-06
0.00120615
-2.33914e-05
0.00121014
-3.81082e-05
0.00121362
-5.34313e-05
0.00121656
-6.93714e-05
0.00121895
-8.59376e-05
0.00122077
-0.000103137
0.001222
-0.000120974
0.00122259
-0.00013945
0.00122253
-0.000158565
0.00122176
-0.000178313
0.00122025
-0.000198687
0.00121795
-0.000219674
0.00121481
-0.000241259
0.00121078
-0.00026342
0.00120582
-0.000286134
0.00119988
-0.000309371
0.00119292
-0.000333097
0.00118489
-0.000357272
0.00117578
-0.000381852
0.00116554
-0.000406785
0.00115418
-0.000432013
0.00114166
-0.000457471
0.00112801
-0.000483087
0.00111322
-0.00050878
0.00109733
-0.000534461
0.00108038
-0.000560035
0.00106246
-0.000585411
0.00104368
-0.000610496
0.00102421
-0.000635218
0.00100425
-0.000659474
0.000983857
-0.000682954
0.000962545
-0.000704729
0.000938476
-0.000722395
0.000907219
-0.000730595
0.000861429
-0.00072013
0.000793595
-0.000680321
0.000701375
-0.000604859
-0.000494555
0.000590384
0.000875772
0.000193426
-0.000861142
0.000890253
0.000190907
0.000904574
0.00018818
0.000918722
0.00018524
0.000932688
0.000182079
0.000946459
0.000178689
0.000960023
0.00017506
0.000973369
0.000171182
0.000986483
0.000167045
0.000999355
0.000162638
0.00101197
0.000157952
0.00102432
0.000152974
0.00103638
0.000147693
0.00104816
0.000142097
0.00105963
0.000136174
0.00107078
0.000129911
0.00108159
0.000123296
0.00109207
0.000116314
0.00110219
0.000108953
0.00111195
0.000101198
0.00112133
9.30348e-05
0.00113032
8.44493e-05
0.00113891
7.54264e-05
0.00114708
6.59515e-05
0.00115484
5.60094e-05
0.00116217
4.55854e-05
0.00116905
3.46646e-05
0.00117548
2.32325e-05
0.00118145
1.12751e-05
0.00118694
-1.22182e-06
0.00119195
-1.42747e-05
0.00119645
-2.78944e-05
0.00120043
-4.20914e-05
0.00120388
-5.68753e-05
0.00120676
-7.2254e-05
0.00120906
-8.82336e-05
0.00121074
-0.000104818
0.00121177
-0.000122009
0.00121213
-0.000139805
0.00121177
-0.000158204
0.00121065
-0.000177199
0.00120875
-0.000196781
0.00120601
-0.000216938
0.00120241
-0.000237654
0.0011979
-0.00025891
0.00119245
-0.000280685
0.00118603
-0.000302952
0.00117861
-0.000325681
0.00117018
-0.000348837
0.00116071
-0.00037238
0.00115019
-0.000396267
0.00113862
-0.000420447
0.00112602
-0.000444867
0.0011124
-0.000469467
0.0010978
-0.000494185
0.0010823
-0.000518956
0.00106598
-0.000543719
0.00104901
-0.000568432
0.00103157
-0.000593059
0.0010139
-0.000617553
0.000996106
-0.000641676
0.000977707
-0.000664555
0.00095689
-0.000683912
0.000929437
-0.000694943
0.000888301
-0.000689458
0.000825988
-0.000657817
0.00073946
-0.000593794
0.000633246
-0.000498645
-0.000376631
0.000515322
0.000868405
0.000178834
-0.000853813
0.000882847
0.000176464
0.00089713
0.000173897
0.000911241
0.000171129
0.00092517
0.000168151
0.000938904
0.000164955
0.000952432
0.000161532
0.000965743
0.000157872
0.000978823
0.000153964
0.000991662
0.0001498
0.00100425
0.000145368
0.00101656
0.000140657
0.0010286
0.000135655
0.00104035
0.000130351
0.00105179
0.000124732
0.00106291
0.000118786
0.00107371
0.000112499
0.00108417
0.000105859
0.00109427
9.88509e-05
0.001104
9.14615e-05
0.00111336
8.36762e-05
0.00112233
7.54805e-05
0.0011309
6.68598e-05
0.00113905
5.77992e-05
0.00114677
4.82843e-05
0.00115406
3.83004e-05
0.00116089
2.78333e-05
0.00116725
1.68693e-05
0.00117313
5.39518e-06
0.00117852
-6.60332e-06
0.00118338
-1.91391e-05
0.00118771
-3.22215e-05
0.00119148
-4.58599e-05
0.00119466
-6.00623e-05
0.00119724
-7.4835e-05
0.00119919
-9.01824e-05
0.00120048
-0.000106107
0.00120108
-0.00012261
0.00120097
-0.000139689
0.0012001
-0.000157341
0.00119846
-0.000175559
0.00119602
-0.000194334
0.00119273
-0.000213654
0.00118859
-0.000233507
0.00118355
-0.000253874
0.0011776
-0.000274736
0.00117072
-0.000296069
0.00116288
-0.000317848
0.00115409
-0.000340042
0.00114433
-0.000362619
0.0011336
-0.000385543
0.00112193
-0.000408775
0.00110934
-0.000432277
0.00109588
-0.000456008
0.00108163
-0.000479935
0.00106671
-0.000504031
0.00105128
-0.00052829
0.00103557
-0.000552723
0.00101982
-0.000577314
0.00100411
-0.000601845
0.000987892
-0.000625455
0.000969201
-0.000645864
0.00094377
-0.000658481
0.000904682
-0.000655855
0.00084462
-0.000629396
0.000760495
-0.000573693
0.000656703
-0.000490002
0.000543277
-0.000385218
-0.000265354
0.000432
0.000862545
0.000164248
-0.000847959
0.000876984
0.000162026
0.000891263
0.000159618
0.000905372
0.00015702
0.000919299
0.000154224
0.000933033
0.000151221
0.000946561
0.000148004
0.000959872
0.000144561
0.000972952
0.000140884
0.000985789
0.000136963
0.000998371
0.000132786
0.00101068
0.000128343
0.00102272
0.000123624
0.00103445
0.000118615
0.00104588
0.000113305
0.00105698
0.000107681
0.00106775
0.000101731
0.00107817
9.54408e-05
0.00108822
8.87974e-05
0.0010979
8.17868e-05
0.00110718
7.43947e-05
0.00111605
6.6607e-05
0.0011245
5.84093e-05
0.00113252
4.9787e-05
0.00114007
4.0726e-05
0.00114716
3.1212e-05
0.00115376
2.12313e-05
0.00115986
1.07707e-05
0.00116544
-1.82873e-07
0.00117048
-1.16435e-05
0.00117496
-2.36217e-05
0.00117887
-3.61273e-05
0.00118218
-4.91692e-05
0.00118487
-6.27548e-05
0.00118693
-7.689e-05
0.00118832
-9.15787e-05
0.00118904
-0.000106823
0.00118905
-0.000122623
0.00118834
-0.000138977
0.00118688
-0.00015588
0.00118465
-0.000173327
0.00118162
-0.000191309
0.00117778
-0.000209814
0.00117311
-0.000228831
0.00116758
-0.000248344
0.00116118
-0.000268335
0.00115389
-0.000288784
0.00114572
-0.000309671
0.00113665
-0.000330972
0.00112669
-0.000352661
0.00111586
-0.000374716
0.0011042
-0.000397114
0.00109176
-0.000419838
0.00107863
-0.00044288
0.00106494
-0.000466248
0.00105088
-0.000489969
0.00103668
-0.000514086
0.00102254
-0.000538589
0.00100846
-0.000563229
0.000993682
-0.000587067
0.000975951
-0.000607725
0.000950736
-0.000620649
0.000911175
-0.00061892
0.000850219
-0.000594899
0.000765277
-0.000544454
0.000661068
-0.000469483
0.000547724
-0.000376658
0.000435921
-0.000273416
-0.000162151
0.000332718
0.000858591
0.00014964
-0.000843983
0.00087305
0.000147567
0.000887349
0.000145319
0.000901475
0.000142894
0.000915415
0.000140283
0.000929159
0.000137478
0.000942691
0.000134471
0.000955999
0.000131253
0.00096907
0.000127814
0.000981888
0.000124144
0.00099444
0.000120234
0.00100671
0.000116072
0.00101869
0.000111648
0.00103035
0.000106951
0.00104169
0.000101968
0.00105268
9.66865e-05
0.00106332
9.10949e-05
0.00107358
8.51796e-05
0.00108345