/*--------------------------------*- C++ -*----------------------------------*\
| =========                 |                                                 |
| \\      /  F ield         | OpenFOAM: The Open Source CFD Toolbox           |
|  \\    /   O peration     | Version:  2312                                  |
|   \\  /    A nd           | Website:  www.openfoam.com                      |
|    \\/     M anipulation  |                                                 |
\*---------------------------------------------------------------------------*/
FoamFile
{
    version     2.0;
    format      ascii;
    arch        "LSB;label=32;scalar=64";
    class       volVectorField;
    location    "1400";
    object      U;
}
// * * * * * * * * * * * * * * * * * * * * * * * * * * * * * * * * * * * * * //

dimensions      [0 1 -1 0 0 0 0];

internalField   nonuniform List<vector> 
76025
(
(0.0361138 -0.00661772 0)
(0.0362826 -0.00669668 4.90638e-22)
(0.0364526 -0.00677197 0)
(0.036625 -0.00684407 0)
(0.0367972 -0.00691478 -8.51262e-22)
(0.0369767 -0.00697478 -1.56611e-21)
(0.037156 -0.00703665 2.68302e-21)
(0.0373393 -0.00709 -1.1212e-21)
(0.0375208 -0.00714281 -3.38041e-22)
(0.0377029 -0.00719091 3.16076e-22)
(0.0378868 -0.00723461 1.89471e-24)
(0.0380736 -0.00727158 7.80777e-22)
(0.0382625 -0.00730723 -1.05349e-21)
(0.0384507 -0.00733652 0)
(0.0386409 -0.00735776 2.04826e-22)
(0.0388283 -0.0073821 0)
(0.0390185 -0.00739271 0)
(0.0392087 -0.00740729 0)
(0.0393999 -0.00741068 1.27321e-22)
(0.0395894 -0.00741533 -9.60212e-23)
(0.0397791 -0.00741036 -7.37483e-23)
(0.0399697 -0.00740374 -1.55458e-22)
(0.0401575 -0.00739137 9.34152e-23)
(0.0403451 -0.00737264 1.42881e-23)
(0.040532 -0.0073524 -4.32519e-23)
(0.0407178 -0.00733136 -7.96031e-23)
(0.040904 -0.00729711 1.59881e-22)
(0.0410872 -0.00726328 -1.90659e-22)
(0.041272 -0.00722249 8.65059e-23)
(0.0414547 -0.00717399 -1.06566e-22)
(0.0416327 -0.00713372 -1.30368e-22)
(0.0418086 -0.00708902 3.41715e-22)
(0.0419835 -0.0070317 -5.32983e-22)
(0.0421571 -0.00697997 -1.18281e-22)
(0.0423282 -0.00691707 5.55087e-22)
(0.0424975 -0.00685749 1.04049e-23)
(0.0426657 -0.0067932 -1.21579e-22)
(0.042832 -0.00672103 6.86598e-23)
(0.0429951 -0.00665277 4.53e-24)
(0.0431523 -0.00657937 -1.11286e-22)
(0.0433068 -0.00650671 7.47348e-23)
(0.043461 -0.00643066 -3.85116e-23)
(0.0436103 -0.00634537 7.88657e-23)
(0.0437556 -0.00626634 -1.65019e-22)
(0.0438952 -0.00618239 -1.7633e-22)
(0.0440332 -0.00610244 3.373e-22)
(0.0441652 -0.00601509 3.63014e-22)
(0.0442918 -0.00593083 -1.10807e-21)
(0.0444125 -0.0058474 7.24227e-22)
(0.0445296 -0.00576686 -9.42972e-24)
(0.0446416 -0.00568755 -1.88658e-21)
(0.0447472 -0.00560944 -7.37583e-22)
(0.0448459 -0.00553517 7.68918e-22)
(0.0449372 -0.00546615 0)
(0.0450217 -0.00540197 -7.31723e-22)
(0.045105 -0.00534752 -7.51418e-22)
(0.0451874 -0.00530114 1.28283e-23)
(0.0452719 -0.00526786 -7.04939e-22)
(0.0453627 -0.00525345 6.71679e-22)
(0.0454542 -0.00525828 -1.89958e-21)
(0.0455424 -0.0052893 -1.21452e-21)
(0.0456193 -0.00534718 -3.23944e-23)
(0.0456736 -0.00543272 0)
(0.0456948 -0.00555358 2.33067e-21)
(0.0456668 -0.00571474 -8.32461e-22)
(0.0455832 -0.0059189 3.98507e-22)
(0.0454394 -0.00620635 -6.69327e-22)
(0.0451996 -0.00657255 5.47884e-22)
(0.0448239 -0.0069944 8.52416e-22)
(0.0359733 -0.006914 5.26572e-22)
(0.0361498 -0.00699508 1.49171e-21)
(0.0363283 -0.00707211 -1.99391e-21)
(0.0365093 -0.00714514 0)
(0.0366915 -0.00721465 2.1628e-21)
(0.0368782 -0.00727836 -8.91695e-23)
(0.037066 -0.00733869 -1.62627e-21)
(0.0372561 -0.00739398 0)
(0.0374477 -0.00744514 1.18326e-24)
(0.03764 -0.00749183 -3.26605e-22)
(0.0378334 -0.00753394 3.03893e-22)
(0.0380281 -0.00757082 4.15212e-24)
(0.0382238 -0.00760329 0)
(0.0384209 -0.00763071 0)
(0.0386192 -0.00765216 3.73691e-22)
(0.0388167 -0.00767057 -9.7527e-22)
(0.0390154 -0.00768242 -1.5871e-22)
(0.0392134 -0.00769096 3.92165e-22)
(0.0394119 -0.00769353 -2.57437e-22)
(0.0396095 -0.00769238 9.88909e-23)
(0.0398072 -0.00768559 -4.19124e-23)
(0.0400039 -0.00767447 1.18405e-22)
(0.0401995 -0.00765859 -2.58906e-23)
(0.0403941 -0.00763737 -2.01611e-24)
(0.0405878 -0.00761184 2.01717e-23)
(0.0407805 -0.00758253 1.49941e-22)
(0.0409721 -0.00754749 -1.12908e-22)
(0.0411612 -0.00750897 0)
(0.0413491 -0.00746563 0)
(0.0415354 -0.00741822 -1.46897e-22)
(0.0417198 -0.00736679 0)
(0.0419025 -0.00731219 -1.94146e-22)
(0.0420825 -0.00725268 2.18044e-22)
(0.0422597 -0.00719075 -3.36591e-22)
(0.0424344 -0.00712491 1.02281e-23)
(0.0426064 -0.00705624 -1.26563e-22)
(0.0427763 -0.00698361 0)
(0.042943 -0.00690895 -2.9911e-22)
(0.0431063 -0.00683279 2.33743e-22)
(0.0432659 -0.00675385 -1.97683e-22)
(0.043422 -0.00667192 1.2437e-22)
(0.0435748 -0.00658765 -4.2627e-25)
(0.0437233 -0.00650258 4.82229e-23)
(0.0438674 -0.00641658 -4.49192e-23)
(0.0440073 -0.00632833 3.83583e-22)
(0.044143 -0.00623889 -1.95956e-22)
(0.0442736 -0.0061492 -2.08146e-22)
(0.0443987 -0.00606004 3.86215e-22)
(0.0445185 -0.00596984 1.20462e-21)
(0.0446331 -0.0058801 -4.4925e-24)
(0.0447419 -0.00579213 1.20817e-21)
(0.0448444 -0.00570663 -4.0882e-22)
(0.0449409 -0.00562498 -1.20633e-21)
(0.0450317 -0.00554814 8.01579e-22)
(0.0451182 -0.00547678 0)
(0.0452032 -0.00541256 2.34893e-21)
(0.0452892 -0.00535943 -2.94022e-24)
(0.0453771 -0.00531954 -7.39907e-22)
(0.0454662 -0.0052958 -7.20696e-22)
(0.0455509 -0.0052899 0)
(0.0456227 -0.00530511 6.17863e-22)
(0.04567 -0.00534311 1.7352e-21)
(0.0456802 -0.00540543 0)
(0.0456434 -0.00549964 -9.62535e-22)
(0.0455492 -0.00563399 4.35903e-22)
(0.0453912 -0.00581762 -7.8029e-22)
(0.0451602 -0.00606554 3.68067e-22)
(0.0448388 -0.00637556 -5.91258e-22)
(0.04442 -0.00676767 -4.48767e-22)
(0.0358245 -0.00722655 -2.62461e-21)
(0.0360099 -0.00730892 1.60538e-21)
(0.0361977 -0.00738729 -4.98651e-22)
(0.0363882 -0.0074614 1.84362e-21)
(0.0365809 -0.007531 -2.28799e-21)
(0.0367757 -0.00759584 -1.64795e-21)
(0.0369725 -0.00765591 2.04355e-21)
(0.0371714 -0.00771118 0)
(0.0373721 -0.00776157 2.19679e-24)
(0.0375742 -0.00780706 0)
(0.0377774 -0.00784754 -2.99157e-22)
(0.0379814 -0.00788296 2.79428e-22)
(0.0381861 -0.00791323 1.21194e-21)
(0.0383915 -0.0079384 -9.62327e-22)
(0.0385977 -0.00795826 2.07728e-22)
(0.0388042 -0.007973 5.1913e-22)
(0.039011 -0.00798259 -1.75443e-22)
(0.0392176 -0.00798706 -1.36209e-22)
(0.0394239 -0.00798653 -2.90573e-22)
(0.0396297 -0.00798087 1.90095e-22)
(0.0398347 -0.0079702 5.16188e-23)
(0.0400387 -0.00795454 -4.51885e-23)
(0.0402417 -0.00793393 4.26621e-23)
(0.0404435 -0.00790822 -2.17551e-23)
(0.0406441 -0.00787765 0)
(0.040843 -0.0078425 7.04963e-23)
(0.0410399 -0.00780278 9.9283e-23)
(0.041235 -0.00775843 -7.59986e-23)
(0.0414282 -0.00770949 0)
(0.0416194 -0.00765633 3.15497e-22)
(0.0418085 -0.00759876 -1.92005e-22)
(0.041995 -0.0075375 -2.11164e-23)
(0.0421788 -0.00747235 0)
(0.0423596 -0.00740382 1.19603e-22)
(0.0425374 -0.00733205 -4.06773e-22)
(0.0427122 -0.00725694 2.74731e-22)
(0.0428838 -0.00717883 0)
(0.043052 -0.0070981 2.39463e-22)
(0.0432168 -0.00701471 -2.46627e-22)
(0.0433777 -0.00692881 -4.17513e-23)
(0.0435347 -0.00684042 0)
(0.0436876 -0.00675005 -9.23031e-23)
(0.0438362 -0.00665798 -4.83225e-23)
(0.0439804 -0.00656405 4.65655e-23)
(0.0441199 -0.00646864 -2.91289e-22)
(0.0442544 -0.00637218 -2.08228e-22)
(0.0443839 -0.0062752 4.01522e-22)
(0.0445079 -0.0061777 -4.22077e-22)
(0.0446262 -0.00607998 4.30886e-22)
(0.044739 -0.00598293 -4.19882e-22)
(0.0448462 -0.00588746 -4.16234e-22)
(0.0449478 -0.00579429 8.73239e-22)
(0.0450445 -0.00570444 0)
(0.0451373 -0.00561918 8.61845e-22)
(0.0452279 -0.00553986 1.90787e-23)
(0.0453181 -0.00546832 -8.148e-22)
(0.0454089 -0.00540682 -7.85445e-22)
(0.0454988 -0.00535679 1.51448e-21)
(0.045583 -0.0053199 -1.8897e-23)
(0.0456535 -0.00529753 6.97535e-22)
(0.0456994 -0.00529139 -1.30494e-21)
(0.045709 -0.00530419 -6.32879e-22)
(0.045671 -0.00534014 -2.94205e-23)
(0.0455761 -0.00540569 -5.15845e-22)
(0.0454155 -0.00550907 -4.65018e-22)
(0.045183 -0.00565963 -1.25575e-21)
(0.0448703 -0.00586933 0)
(0.0444656 -0.00613942 -2.5584e-22)
(0.0439513 -0.00649979 2.59501e-22)
(0.0356707 -0.00755632 0)
(0.0358658 -0.00764005 5.27723e-22)
(0.0360634 -0.00771948 2.47304e-21)
(0.0362637 -0.00779437 -1.96487e-21)
(0.0364663 -0.0078644 -1.3117e-21)
(0.036671 -0.00792941 2.18765e-21)
(0.0368777 -0.00798928 -4.02232e-22)
(0.0370862 -0.00804398 3.74947e-22)
(0.0372963 -0.00809345 3.51857e-22)
(0.0375079 -0.00813765 1.24897e-21)
(0.0377206 -0.0081765 -1.24221e-21)
(0.0379343 -0.00820996 -1.04356e-21)
(0.0381486 -0.00823798 3.21041e-22)
(0.0383633 -0.00826055 8.89866e-22)
(0.0385784 -0.00827761 -6.11336e-22)
(0.0387937 -0.00828917 1.65952e-22)
(0.039009 -0.00829531 -1.40068e-22)
(0.039224 -0.008296 -1.14252e-22)
(0.0394384 -0.00829133 2.67186e-22)
(0.0396522 -0.0082813 -1.031e-22)
(0.039865 -0.00826598 -5.19724e-23)
(0.0400766 -0.00824537 0)
(0.0402869 -0.00821956 5.12399e-23)
(0.0404957 -0.0081886 -1.30578e-23)
(0.0407027 -0.00815261 -1.34243e-22)
(0.0409079 -0.00811178 -2.0953e-22)
(0.041111 -0.00806613 3.94748e-22)
(0.0413118 -0.00801571 -2.59707e-22)
(0.0415103 -0.00796069 0)
(0.0417063 -0.00790125 -3.58659e-22)
(0.0418996 -0.00783758 -2.20792e-23)
(0.0420901 -0.0077699 4.33982e-22)
(0.0422776 -0.00769823 -2.64218e-22)
(0.0424618 -0.00762317 6.87645e-22)
(0.0426427 -0.00754474 -1.28457e-22)
(0.0428202 -0.007463 0)
(0.0429941 -0.00737816 0)
(0.0431643 -0.00729042 8.82031e-23)
(0.0433306 -0.00719998 8.58594e-23)
(0.0434928 -0.00710707 4.76023e-23)
(0.0436508 -0.00701181 -1.53646e-24)
(0.0438043 -0.0069144 4.76466e-23)
(0.0439534 -0.00681507 0)
(0.0440977 -0.00671403 -5.86209e-24)
(0.0442372 -0.00661157 0)
(0.0443715 -0.00650793 2.05687e-22)
(0.0445006 -0.00640345 5.75945e-24)
(0.0446242 -0.00629843 -6.69043e-22)
(0.0447425 -0.0061933 0)
(0.0448554 -0.00608867 -4.50165e-22)
(0.0449634 -0.00598536 4.43282e-22)
(0.0450671 -0.00588427 -8.72195e-22)
(0.0451675 -0.00578649 0)
(0.045266 -0.00569329 -2.63546e-21)
(0.0453637 -0.00560589 1.69606e-23)
(0.0454608 -0.00552546 8.43045e-22)
(0.0455556 -0.00545306 8.12658e-22)
(0.0456434 -0.00538935 0)
(0.0457166 -0.00533505 0)
(0.0457652 -0.00529121 -6.82857e-22)
(0.0457785 -0.00525976 1.28106e-21)
(0.0457454 -0.005244 1.19532e-21)
(0.0456562 -0.0052487 0)
(0.0455023 -0.00528043 -1.07537e-21)
(0.045276 -0.00534775 0)
(0.044972 -0.00545994 1.24487e-21)
(0.0445808 -0.00562719 -4.10047e-22)
(0.0440904 -0.00585202 -2.70114e-22)
(0.0434789 -0.00616188 -1.93656e-22)
(0.0355119 -0.00790432 0)
(0.0357174 -0.00798943 0)
(0.0359255 -0.0080699 5.12781e-22)
(0.0361361 -0.00814546 -1.88666e-21)
(0.0363492 -0.0082158 2.33919e-21)
(0.0365643 -0.00828075 -4.30545e-22)
(0.0367814 -0.00834022 0)
(0.0370001 -0.00839412 -3.77569e-22)
(0.0372203 -0.00844242 0)
(0.0374419 -0.00848507 -6.18205e-22)
(0.0376645 -0.008522 5.95718e-23)
(0.037888 -0.00855318 5.63713e-22)
(0.0381121 -0.00857857 0)
(0.0383366 -0.00859816 -4.03288e-22)
(0.0385612 -0.00861193 1.12875e-21)
(0.0387857 -0.00861991 -6.58386e-22)
(0.03901 -0.00862211 6.81529e-22)
(0.0392337 -0.00861857 -1.28956e-22)
(0.0394566 -0.00860935 7.44814e-23)
(0.0396786 -0.00859448 -6.32032e-23)
(0.0398993 -0.00857403 -1.25074e-23)
(0.0401186 -0.00854806 2.82344e-23)
(0.0403363 -0.00851667 -4.56655e-23)
(0.0405521 -0.00847994 0)
(0.0407659 -0.008438 1.73241e-22)
(0.0409774 -0.00839096 1.40643e-22)
(0.0411866 -0.00833895 -3.40781e-22)
(0.0413931 -0.00828208 1.40578e-22)
(0.0415969 -0.00822052 -3.77181e-22)
(0.0417978 -0.00815443 5.70208e-22)
(0.0419956 -0.00808399 -2.40006e-22)
(0.0421902 -0.00800935 1.32876e-22)
(0.0423815 -0.00793068 0)
(0.0425691 -0.00784861 -1.42517e-22)
(0.0427531 -0.00776308 -1.51744e-22)
(0.0429333 -0.00767422 0)
(0.0431096 -0.00758221 1.81534e-22)
(0.0432818 -0.00748727 -2.75633e-22)
(0.0434498 -0.00738961 1.85131e-22)
(0.0436135 -0.00728942 -9.84729e-23)
(0.0437727 -0.00718686 -1.73645e-24)
(0.0439272 -0.00708212 -8.04003e-23)
(0.0440771 -0.00697543 2.62477e-23)
(0.044222 -0.006867 1.06316e-22)
(0.0443619 -0.00675707 3.23105e-24)
(0.0444968 -0.00664589 6.76397e-22)
(0.0446265 -0.00653378 0)
(0.0447511 -0.00642112 4.5178e-22)
(0.0448709 -0.00630839 -8.13167e-24)
(0.0449863 -0.0061962 -4.63994e-22)
(0.0450982 -0.00608536 0)
(0.0452076 -0.00597678 -4.69223e-22)
(0.0453155 -0.0058714 4.59527e-22)
(0.0454225 -0.00577011 8.88956e-22)
(0.0455283 -0.00567352 0)
(0.0456307 -0.00558194 -1.7085e-21)
(0.045725 -0.00549545 1.66568e-21)
(0.0458041 -0.00541404 -1.59431e-21)
(0.0458588 -0.00533809 -1.67276e-23)
(0.0458791 -0.00526874 0)
(0.0458548 -0.00520824 -6.66744e-22)
(0.0457765 -0.00516025 6.14637e-22)
(0.0456354 -0.00512984 6.22126e-22)
(0.0454239 -0.00512363 1.08389e-21)
(0.0451346 -0.00515017 -1.5547e-21)
(0.0447629 -0.00521825 9.31137e-22)
(0.0442964 -0.00533725 -4.51864e-22)
(0.0437218 -0.00551 4.3631e-22)
(0.0430127 -0.00575348 8.12427e-22)
(0.0353474 -0.00827261 -2.19424e-21)
(0.0355642 -0.00835898 1.06418e-22)
(0.0357834 -0.00844034 2.12491e-21)
(0.0360053 -0.00851642 0)
(0.0362295 -0.00858686 -4.60398e-22)
(0.0364557 -0.00865153 0)
(0.0366837 -0.00871032 7.79382e-22)
(0.0369134 -0.00876314 -5.53295e-23)
(0.0371444 -0.00880996 -1.06471e-21)
(0.0373766 -0.00885072 3.1465e-22)
(0.0376097 -0.00888538 2.93535e-22)
(0.0378436 -0.0089139 2.56996e-22)
(0.0380779 -0.00893626 0)
(0.0383125 -0.00895245 0)
(0.0385469 -0.00896248 -1.83456e-22)
(0.0387811 -0.00896636 -1.56153e-22)
(0.0390147 -0.00896414 2.17106e-22)
(0.0392476 -0.00895585 -2.17247e-22)
(0.0394793 -0.00894155 -1.33417e-22)
(0.0397098 -0.00892132 5.27063e-23)
(0.0399388 -0.00889523 -6.93912e-23)
(0.040166 -0.00886337 3.49339e-23)
(0.0403913 -0.00882584 -7.55967e-23)
(0.0406143 -0.00878277 -7.9196e-23)
(0.040835 -0.00873428 -2.15871e-22)
(0.041053 -0.0086805 2.16651e-22)
(0.0412683 -0.0086216 3.21464e-22)
(0.0414806 -0.00855772 -3.22906e-22)
(0.0416898 -0.00848903 0)
(0.0418957 -0.0084157 0)
(0.0420981 -0.00833792 6.38937e-22)
(0.0422969 -0.00825585 3.74837e-23)
(0.042492 -0.00816978 -2.91209e-22)
(0.0426831 -0.00808024 -3.3416e-22)
(0.0428702 -0.00798719 3.30308e-22)
(0.0430532 -0.0078908 0)
(0.043232 -0.00779126 -1.81358e-22)
(0.0434063 -0.00768878 -3.01907e-22)
(0.0435762 -0.00758355 1.98118e-22)
(0.0437415 -0.00747579 -3.40243e-24)
(0.0439022 -0.00736566 -1.72744e-23)
(0.0440581 -0.00725336 8.09685e-23)
(0.0442091 -0.00713911 5.84488e-23)
(0.0443552 -0.00702312 1.17464e-22)
(0.0444965 -0.00690563 -5.83686e-22)
(0.0446329 -0.00678692 3.0063e-24)
(0.0447647 -0.00666734 0)
(0.0448923 -0.00654732 -5.00863e-22)
(0.0450163 -0.00642737 1.47504e-21)
(0.0451375 -0.00630812 -9.89792e-22)
(0.0452569 -0.00619029 -4.92588e-22)
(0.0453752 -0.00607453 -1.65607e-23)
(0.0454928 -0.00596134 -4.7038e-22)
(0.0456087 -0.0058509 -6.59449e-24)
(0.0457203 -0.00574301 9.14554e-22)
(0.0458228 -0.00563718 -9.13413e-22)
(0.0459097 -0.00553289 -8.53389e-22)
(0.0459724 -0.0054299 1.63926e-21)
(0.046002 -0.00532865 -2.48053e-23)
(0.0459893 -0.00523048 7.3818e-22)
(0.0459252 -0.00513788 -7.18933e-22)
(0.0458014 -0.00505457 6.55012e-22)
(0.0456103 -0.00498562 -1.23954e-21)
(0.0453445 -0.00493743 -5.81164e-22)
(0.044997 -0.00491827 1.14474e-21)
(0.0445631 -0.00493615 -5.45072e-22)
(0.0440264 -0.00499934 -1.43151e-21)
(0.0433717 -0.00510975 -3.22884e-22)
(0.042555 -0.00526666 0)
(0.0351775 -0.00866299 0)
(0.0354063 -0.00875045 -5.52378e-22)
(0.0356376 -0.00883251 1.07694e-24)
(0.0358715 -0.00890887 0)
(0.0361076 -0.00897918 0)
(0.0363456 -0.00904329 -4.30049e-22)
(0.0365854 -0.00910109 1.17444e-21)
(0.0368266 -0.0091525 -1.48854e-21)
(0.0370692 -0.00919748 7.20635e-22)
(0.0373127 -0.00923598 -3.16184e-22)
(0.037557 -0.00926796 0)
(0.0378018 -0.00929339 -2.582e-22)
(0.0380469 -0.00931227 2.1769e-22)
(0.038292 -0.00932458 0)
(0.0385368 -0.00933035 0)
(0.038781 -0.00932961 -1.15832e-22)
(0.0390245 -0.00932241 5.7696e-23)
(0.0392668 -0.00930881 1.86712e-22)
(0.0395078 -0.00928888 9.04854e-23)
(0.0397472 -0.0092627 -7.2385e-23)
(0.0399847 -0.00923038 -3.04942e-24)
(0.0402201 -0.00919203 1.66835e-22)
(0.0404532 -0.00914778 2.9303e-23)
(0.0406837 -0.00909775 -1.28012e-22)
(0.0409114 -0.00904212 2.08061e-22)
(0.0411361 -0.00898103 -1.5879e-22)
(0.0413577 -0.00891466 3.18106e-22)
(0.0415758 -0.00884318 0)
(0.0417905 -0.00876679 0)
(0.0420014 -0.00868567 0)
(0.0422084 -0.00860004 -1.33448e-22)
(0.0424115 -0.00851004 -3.04615e-22)
(0.0426105 -0.00841614 3.18052e-22)
(0.0428052 -0.00831867 3.61464e-22)
(0.0429955 -0.00821768 -3.57364e-22)
(0.0431814 -0.00811336 0)
(0.0433627 -0.0080059 2.06609e-22)
(0.0435394 -0.00789553 -1.03036e-22)
(0.0437114 -0.00778245 0)
(0.0438787 -0.00766686 1.11767e-22)
(0.0440411 -0.00754896 -2.15525e-23)
(0.0441988 -0.00742895 1.44194e-23)
(0.0443518 -0.00730706 -5.82838e-23)
(0.0445001 -0.00718353 0)
(0.044644 -0.00705862 -2.5156e-22)
(0.0447839 -0.00693267 2.4797e-22)
(0.0449202 -0.00680606 0)
(0.0450536 -0.00667926 -1.84826e-23)
(0.045185 -0.00655274 7.9135e-24)
(0.0453152 -0.00642701 4.98136e-22)
(0.0454447 -0.00630242 0)
(0.0455733 -0.00617912 -2.66266e-23)
(0.0456997 -0.00605688 -4.81803e-22)
(0.045821 -0.00593511 -1.46716e-21)
(0.0459324 -0.00581293 -2.98384e-23)
(0.0460276 -0.00568942 8.88065e-22)
(0.0460992 -0.0055639 0)
(0.0461392 -0.00543622 0)
(0.0461392 -0.00530696 8.4164e-22)
(0.0460913 -0.0051776 0)
(0.0459876 -0.00505058 0)
(0.0458208 -0.00492944 -4.20085e-23)
(0.0455837 -0.00481888 -7.09031e-22)
(0.0452691 -0.00472482 -1.34089e-21)
(0.0448705 -0.00465493 1.32683e-21)
(0.0443817 -0.00461602 -1.20377e-22)
(0.0437818 -0.00461466 5.53015e-22)
(0.0430512 -0.0046509 5.42528e-22)
(0.0421139 -0.00469491 0)
(0.0350027 -0.00907744 0)
(0.0352443 -0.0091658 5.54283e-22)
(0.0354884 -0.00924832 -1.54198e-21)
(0.035735 -0.00932471 5.23771e-22)
(0.0359839 -0.00939461 0)
(0.0362346 -0.00945784 1.26095e-21)
(0.0364869 -0.00951431 -1.99491e-21)
(0.0367405 -0.00956394 6.09844e-23)
(0.0369953 -0.00960668 1.68378e-21)
(0.0372509 -0.00964249 -3.40892e-22)
(0.0375071 -0.00967134 2.67821e-22)
(0.0377635 -0.0096932 2.3628e-22)
(0.03802 -0.00970808 -6.12508e-22)
(0.0382763 -0.00971599 7.26834e-22)
(0.0385319 -0.00971695 -3.32853e-22)
(0.0387868 -0.00971101 8.30889e-23)
(0.0390405 -0.00969824 -3.63806e-22)
(0.0392928 -0.00967871 1.01296e-22)
(0.0395434 -0.00965251 7.57432e-24)
(0.039792 -0.00961976 4.91845e-23)
(0.0400384 -0.00958057 5.82825e-23)
(0.0402823 -0.00953508 -3.40583e-22)
(0.0405234 -0.00948344 -1.31305e-22)
(0.0407616 -0.00942582 -5.65175e-23)
(0.0409966 -0.00936239 4.1325e-22)
(0.0412281 -0.00929334 -1.58272e-22)
(0.0414561 -0.00921887 4.24628e-22)
(0.0416802 -0.00913918 -6.67929e-22)
(0.0419004 -0.00905449 0)
(0.0421165 -0.00896501 -2.9467e-22)
(0.0423283 -0.00887096 2.96209e-22)
(0.0425358 -0.00877251 1.54708e-23)
(0.0427387 -0.00867026 -1.87498e-22)
(0.042937 -0.0085644 -1.97416e-22)
(0.0431306 -0.00845504 6.15091e-22)
(0.0433195 -0.00834238 -4.03685e-22)
(0.0435036 -0.00822667 3.32708e-22)
(0.0436829 -0.00810811 -4.46517e-22)
(0.0438574 -0.00798694 2.25582e-22)
(0.0440271 -0.00786337 -5.74295e-23)
(0.0441921 -0.00773762 0)
(0.0443526 -0.00760994 6.31413e-23)
(0.0445087 -0.00748057 -6.23055e-23)
(0.0446609 -0.00734981 -1.3052e-22)
(0.0448095 -0.00721796 3.92853e-22)
(0.0449553 -0.00708541 -2.64711e-22)
(0.045099 -0.00695252 -2.62165e-22)
(0.0452412 -0.00681966 0)
(0.0453827 -0.0066871 -1.08385e-21)
(0.0455236 -0.00655492 1.05811e-21)
(0.0456632 -0.00642291 -5.08878e-22)
(0.0457997 -0.00629053 4.96834e-22)
(0.0459301 -0.00615687 5.16218e-22)
(0.0460498 -0.0060208 9.75494e-22)
(0.046153 -0.00588117 9.39089e-22)
(0.0462331 -0.00573701 0)
(0.0462832 -0.00558775 -9.37598e-22)
(0.0462961 -0.00543338 0)
(0.0462647 -0.00527453 2.09785e-23)
(0.0461822 -0.00511254 -7.97634e-22)
(0.0460418 -0.00494956 8.1481e-22)
(0.0458366 -0.00478863 7.59416e-22)
(0.0455598 -0.0046338 -8.03187e-22)
(0.0452047 -0.00449021 -8.235e-24)
(0.0447646 -0.0043646 5.63756e-23)
(0.0442308 -0.00426156 2.09145e-21)
(0.0435762 -0.0041846 7.21805e-22)
(0.0427692 -0.0041289 5.31803e-22)
(0.0416621 -0.00402416 -5.72256e-22)
(0.0348234 -0.00951819 0)
(0.0350787 -0.00960723 0)
(0.0353364 -0.00968997 -1.01681e-21)
(0.0355966 -0.00976612 1.50626e-21)
(0.035859 -0.00983527 4.55658e-22)
(0.0361232 -0.00989728 0)
(0.0363889 -0.00995203 0)
(0.0366557 -0.00999945 -3.54972e-22)
(0.0369235 -0.0100395 6.22696e-22)
(0.037192 -0.0100721 -7.55219e-23)
(0.0374608 -0.0100973 -1.31799e-21)
(0.0377297 -0.0101151 2.55668e-22)
(0.0379983 -0.0101254 -1.749e-22)
(0.0382664 -0.0101283 3.64208e-22)
(0.0385335 -0.0101238 -1.2475e-22)
(0.0387996 -0.0101121 0)
(0.0390641 -0.0100931 0)
(0.0393268 -0.0100669 2.91509e-23)
(0.0395875 -0.0100338 4.85877e-23)
(0.0398458 -0.00999374 9.60485e-24)
(0.0401014 -0.00994697 -6.40656e-23)
(0.0403541 -0.00989362 6.89774e-23)
(0.0406037 -0.00983389 1.25752e-22)
(0.0408498 -0.00976795 -9.63239e-23)
(0.0410923 -0.00969602 -1.56222e-22)
(0.0413309 -0.00961832 0)
(0.0415654 -0.00953506 0)
(0.0417957 -0.0094465 3.77252e-22)
(0.0420215 -0.00935286 0)
(0.0422429 -0.00925439 3.25018e-22)
(0.0424595 -0.00915134 -3.26579e-22)
(0.0426715 -0.00904393 -1.75581e-22)
(0.0428785 -0.00893283 1.8619e-22)
(0.0430806 -0.00881811 4.08792e-22)
(0.0432778 -0.00869997 -2.05366e-22)
(0.04347 -0.00857864 -2.27416e-22)
(0.0436573 -0.00845439 2.33077e-22)
(0.0438397 -0.00832747 0)
(0.0440173 -0.00819811 0)
(0.0441903 -0.00806659 6.49026e-23)
(0.0443591 -0.00793317 0)
(0.0445238 -0.00779813 0)
(0.0446851 -0.00766178 -2.03749e-22)
(0.0448434 -0.00752444 2.72161e-22)
(0.0449995 -0.00738643 -1.40496e-22)
(0.0451539 -0.00724805 2.67254e-22)
(0.0453074 -0.00710949 0)
(0.0454602 -0.00697082 8.40178e-22)
(0.0456119 -0.00683183 -9.12627e-24)
(0.0457616 -0.00669205 0)
(0.045907 -0.00655065 -1.07603e-21)
(0.0460451 -0.00640655 -1.20819e-23)
(0.0461715 -0.00625851 -1.01976e-21)
(0.0462812 -0.00610526 -5.22176e-22)
(0.0463685 -0.00594572 -9.93326e-22)
(0.0464274 -0.00577907 9.64255e-22)
(0.0464521 -0.00560484 9.17057e-22)
(0.0464366 -0.00542303 0)
(0.0463748 -0.00523407 -9.02422e-22)
(0.0462609 -0.00503895 3.31182e-23)
(0.0460887 -0.00483924 0)
(0.0458521 -0.00463721 0)
(0.0455446 -0.00443598 8.27207e-22)
(0.0451599 -0.00423959 0)
(0.0446906 -0.00405325 0)
(0.044124 -0.00387801 -8.99419e-22)
(0.0434238 -0.00371166 -7.57664e-22)
(0.0425249 -0.00353466 -8.37676e-22)
(0.0411276 -0.00325329 0)
(0.03464 -0.0099877 0)
(0.0349099 -0.0100772 0)
(0.0351822 -0.0101599 0)
(0.035457 -0.0102355 4.84203e-22)
(0.0357339 -0.0103035 4.16892e-22)
(0.0360124 -0.0103639 -6.66231e-23)
(0.0362923 -0.0104165 -8.01537e-22)
(0.0365733 -0.0104612 3.54668e-22)
(0.036855 -0.0104981 -3.09055e-22)
(0.0371372 -0.010527 -5.62534e-22)
(0.0374195 -0.010548 0)
(0.0377015 -0.0105611 0)
(0.037983 -0.0105662 -3.13638e-23)
(0.0382636 -0.0105634 -4.67086e-22)
(0.038543 -0.0105528 4.26656e-22)
(0.0388209 -0.0105345 -6.503e-23)
(0.0390969 -0.0105085 -1.32746e-22)
(0.0393707 -0.010475 -2.91413e-23)
(0.0396419 -0.0104342 -2.51626e-23)
(0.0399104 -0.0103861 0)
(0.0401757 -0.0103309 1.55155e-22)
(0.0404376 -0.0102689 0)
(0.0406959 -0.0102003 2.78316e-22)
(0.0409503 -0.0101253 -5.20959e-22)
(0.0412005 -0.0100441 5.82246e-22)
(0.0414464 -0.00995699 2.44977e-22)
(0.0416877 -0.00986422 -4.08883e-22)
(0.0419243 -0.00976607 4.37263e-22)
(0.0421561 -0.00966282 -3.01384e-22)
(0.0423829 -0.00955473 0)
(0.0426046 -0.00944209 -3.84708e-22)
(0.0428213 -0.00932525 -2.33976e-22)
(0.0430327 -0.00920478 4.06119e-22)
(0.0432389 -0.0090808 -4.39145e-22)
(0.04344 -0.00895356 2.33935e-22)
(0.0436361 -0.00882334 -2.31247e-22)
(0.0438273 -0.00869044 -1.18217e-22)
(0.0440137 -0.00855516 1.30633e-22)
(0.0441957 -0.00841779 6.48004e-23)
(0.0443737 -0.00827865 -1.94165e-22)
(0.044548 -0.00813804 -1.74382e-23)
(0.0447193 -0.00799629 0)
(0.0448881 -0.0078537 6.75902e-23)
(0.045055 -0.00771052 -1.36667e-22)
(0.0452205 -0.00756692 1.37692e-22)
(0.045385 -0.00742293 0)
(0.0455482 -0.00727839 0)
(0.0457096 -0.00713285 2.96051e-22)
(0.0458676 -0.00698563 -5.56443e-22)
(0.0460199 -0.00683577 -1.13191e-21)
(0.0461634 -0.00668212 2.19288e-21)
(0.0462942 -0.00652343 -5.53171e-22)
(0.0464081 -0.00635849 5.2627e-22)
(0.0465003 -0.00618619 5.05695e-22)
(0.0465661 -0.0060056 -1.02532e-21)
(0.0466006 -0.00581599 1.00068e-21)
(0.0465989 -0.00561689 0)
(0.0465562 -0.00540805 -1.01274e-21)
(0.0464675 -0.00518953 3.77014e-23)
(0.0463275 -0.0049617 9.68366e-22)
(0.046131 -0.00472532 0)
(0.0458724 -0.00448169 0)
(0.0455462 -0.00423269 0)
(0.0451462 -0.00398078 2.03271e-21)
(0.0446633 -0.00372799 1.02995e-21)
(0.0440783 -0.00347 8.98811e-22)
(0.0433296 -0.00319684 -2.03596e-21)
(0.0422703 -0.00286314 -1.67806e-22)
(0.040403 -0.00236236 9.88e-22)
(0.0344529 -0.0104887 0)
(0.0347384 -0.0105784 1.06803e-21)
(0.0350264 -0.0106607 -1.3212e-21)
(0.0353168 -0.0107354 6.80167e-22)
(0.0356092 -0.010802 -1.36126e-21)
(0.0359031 -0.0108603 -4.02358e-22)
(0.0361983 -0.0109103 -3.65848e-22)
(0.0364944 -0.0109518 0)
(0.036791 -0.0109849 6.01169e-22)
(0.0370878 -0.0110095 5.13776e-22)
(0.0373844 -0.0110257 -4.96859e-22)
(0.0376805 -0.0110333 1.85799e-22)
(0.0379758 -0.0110325 -1.18075e-22)
(0.0382698 -0.0110234 2.05462e-22)
(0.0385622 -0.0110059 3.49713e-22)
(0.0388526 -0.0109802 -6.72513e-23)
(0.0391407 -0.0109465 -6.66557e-23)
(0.0394262 -0.0109048 -1.85386e-23)
(0.0397087 -0.0108554 2.72156e-23)
(0.0399878 -0.0107984 1.77312e-22)
(0.0402634 -0.010734 -1.47377e-22)
(0.040535 -0.0106626 0)
(0.0408025 -0.0105842 3.1989e-23)
(0.0410655 -0.0104993 0)
(0.0413239 -0.010408 -2.13709e-22)
(0.0415773 -0.0103107 -2.43526e-22)
(0.0418258 -0.0102076 1.36486e-22)
(0.0420691 -0.0100992 0)
(0.0423071 -0.00998565 1.83651e-22)
(0.0425397 -0.00986735 3.89949e-22)
(0.0427669 -0.00974457 -3.91381e-22)
(0.0429887 -0.00961787 2.05615e-22)
(0.043205 -0.00948765 -4.61794e-22)
(0.0434161 -0.00935414 9.22278e-22)
(0.0436221 -0.00921766 -2.37464e-22)
(0.0438231 -0.00907854 0)
(0.0440194 -0.00893715 -1.34427e-22)
(0.0442115 -0.00879383 9.21111e-24)
(0.0443998 -0.00864891 2.04295e-22)
(0.0445847 -0.00850273 -1.71677e-22)
(0.0447668 -0.00835558 3.35886e-23)
(0.0449466 -0.00820772 -1.09364e-22)
(0.0451244 -0.00805928 7.11669e-23)
(0.0453006 -0.00791029 0)
(0.0454751 -0.00776059 0)
(0.0456472 -0.00760981 0)
(0.0458159 -0.00745736 2.9894e-22)
(0.0459796 -0.00730245 2.96896e-22)
(0.0461358 -0.00714408 0)
(0.0462817 -0.00698118 5.6178e-22)
(0.0464141 -0.00681263 5.84682e-22)
(0.0465294 -0.00663733 5.66574e-22)
(0.0466239 -0.00645425 0)
(0.0466938 -0.00626248 0)
(0.0467355 -0.00606114 -1.0657e-21)
(0.046745 -0.00584949 1.04716e-21)
(0.0467186 -0.00562682 0)
(0.0466524 -0.00539249 1.01326e-21)
(0.0465422 -0.00514598 -1.01623e-21)
(0.0463838 -0.00488686 -1.1054e-21)
(0.0461727 -0.00461493 1.0768e-21)
(0.0459048 -0.0043303 -1.10892e-21)
(0.0455754 -0.00403326 0)
(0.0451787 -0.00372333 -1.12439e-21)
(0.0447014 -0.00339751 3.86973e-23)
(0.044107 -0.00304367 -2.65709e-21)
(0.0432694 -0.00263655 -2.61858e-21)
(0.0418965 -0.0021018 2.5116e-21)
(0.0393265 -0.00134734 -1.07158e-21)
(0.0342625 -0.0110244 2.80887e-22)
(0.0345649 -0.011114 0)
(0.0348697 -0.0111956 2.54267e-22)
(0.0351769 -0.011269 -1.13695e-21)
(0.035486 -0.0113336 1.94815e-21)
(0.0357965 -0.0113894 -4.24957e-22)
(0.0361081 -0.0114363 3.63206e-22)
(0.0364203 -0.011474 -6.04208e-22)
(0.0367328 -0.0115028 3.1191e-22)
(0.0370453 -0.0115224 2.55395e-22)
(0.0373573 -0.011533 1.99424e-22)
(0.0376685 -0.0115346 -4.97959e-22)
(0.0379784 -0.0115271 1.87089e-22)
(0.0382867 -0.0115108 -2.61181e-22)
(0.038593 -0.0114856 -1.00805e-23)
(0.0388969 -0.0114517 6.93004e-23)
(0.0391979 -0.0114093 3.19408e-23)
(0.0394959 -0.0113586 0)
(0.0397903 -0.0112997 0)
(0.0400808 -0.0112328 -1.1962e-22)
(0.0403673 -0.0111583 -1.19888e-22)
(0.0406492 -0.0110765 -3.67179e-22)
(0.0409264 -0.0109875 1.84203e-22)
(0.0411986 -0.0108918 4.93067e-22)
(0.0414657 -0.0107896 -4.9384e-22)
(0.0417273 -0.0106813 1.56377e-22)
(0.0419835 -0.0105672 1.71594e-22)
(0.042234 -0.0104478 0)
(0.0424788 -0.0103234 -1.81568e-22)
(0.0427179 -0.0101944 -4.2364e-22)
(0.0429515 -0.0100611 -2.65368e-23)
(0.0431793 -0.00992419 4.4734e-22)
(0.0434017 -0.00978405 -2.50646e-22)
(0.0436189 -0.00964098 0)
(0.0438311 -0.00949538 1.34073e-22)
(0.0440387 -0.00934764 -1.37887e-22)
(0.0442421 -0.00919814 1.31563e-22)
(0.0444417 -0.00904722 -2.7903e-22)
(0.0446379 -0.00889519 0)
(0.0448312 -0.00874228 -3.72783e-23)
(0.0450219 -0.00858863 3.65488e-23)
(0.04521 -0.00843426 -5.79254e-23)
(0.0453955 -0.00827903 2.2317e-22)
(0.0455778 -0.00812263 -4.47443e-22)
(0.0457561 -0.00796456 2.93583e-22)
(0.045929 -0.00780419 2.99307e-22)
(0.0460949 -0.00764072 -2.74658e-22)
(0.0462515 -0.00747328 6.06844e-22)
(0.0463964 -0.00730096 -5.74267e-22)
(0.0465271 -0.00712283 -1.43311e-21)
(0.0466407 -0.00693798 1.07883e-23)
(0.0467345 -0.00674555 -5.4821e-22)
(0.0468056 -0.00654466 0)
(0.0468514 -0.00633447 0)
(0.046869 -0.00611405 -1.11752e-21)
(0.0468556 -0.00588245 1.65076e-21)
(0.0468083 -0.00563862 -1.11463e-21)
(0.0467242 -0.00538139 0)
(0.0466002 -0.00510954 1.19778e-21)
(0.0464331 -0.00482174 2.32625e-21)
(0.0462203 -0.00451675 -1.16834e-21)
(0.0459594 -0.00419332 2.75942e-24)
(0.0456472 -0.00384882 1.34296e-21)
(0.045276 -0.00347843 -9.16966e-23)
(0.0448198 -0.00307224 -2.98115e-21)
(0.0441901 -0.00260516 3.06445e-21)
(0.0431387 -0.00202767 1.51597e-21)
(0.0411999 -0.00125546 0)
(0.0376921 -0.000221551 0)
(0.0340697 -0.0115983 -2.77237e-22)
(0.0343903 -0.0116875 -1.2855e-21)
(0.0347132 -0.0117681 1.02019e-21)
(0.0350386 -0.0118397 0)
(0.0353656 -0.011902 2.10141e-22)
(0.0356939 -0.0119548 7.14672e-22)
(0.0360231 -0.0119979 -5.48965e-22)
(0.0363528 -0.0120313 7.06632e-22)
(0.0366825 -0.0120551 -5.60918e-22)
(0.0370119 -0.0120691 0)
(0.0373405 -0.0120734 -1.10328e-22)
(0.0376678 -0.012068 0)
(0.0379936 -0.0120531 -6.40519e-23)
(0.0383173 -0.0120287 2.77251e-22)
(0.0386385 -0.0119949 0)
(0.0389568 -0.0119519 0)
(0.0392718 -0.0119 0)
(0.0395831 -0.0118392 -1.24731e-22)
(0.0398904 -0.0117699 1.6672e-22)
(0.0401933 -0.0116923 1.18158e-22)
(0.0404914 -0.0116068 0)
(0.0407846 -0.0115136 0)
(0.0410724 -0.0114131 0)
(0.0413547 -0.0113057 -7.04278e-22)
(0.0416313 -0.0111919 8.73431e-22)