/*--------------------------------*- C++ -*----------------------------------*\
| =========                 |                                                 |
| \\      /  F ield         | OpenFOAM: The Open Source CFD Toolbox           |
|  \\    /   O peration     | Version:  2312                                  |
|   \\  /    A nd           | Website:  www.openfoam.com                      |
|    \\/     M anipulation  |                                                 |
\*---------------------------------------------------------------------------*/
FoamFile
{
    version     2.0;
    format      ascii;
    arch        "LSB;label=32;scalar=64";
    class       volScalarField;
    location    "1000";
    object      k;
}
// * * * * * * * * * * * * * * * * * * * * * * * * * * * * * * * * * * * * * //

dimensions      [0 2 -2 0 0 0 0];

internalField   nonuniform List<scalar> 
76025
(
5.11224e-06
5.11735e-06
5.12315e-06
5.12804e-06
5.13146e-06
5.13997e-06
5.1442e-06
5.15181e-06
5.15731e-06
5.16482e-06
5.17186e-06
5.18018e-06
5.19045e-06
5.20045e-06
5.21294e-06
5.22445e-06
5.23719e-06
5.25107e-06
5.26353e-06
5.27793e-06
5.29245e-06
5.30875e-06
5.32369e-06
5.34036e-06
5.35711e-06
5.37404e-06
5.39317e-06
5.40934e-06
5.42973e-06
5.44739e-06
5.46641e-06
5.48773e-06
5.50947e-06
5.53368e-06
5.55828e-06
5.58466e-06
5.61498e-06
5.64702e-06
5.6845e-06
5.72483e-06
5.77012e-06
5.82369e-06
5.88451e-06
5.95472e-06
6.03464e-06
6.12857e-06
6.23408e-06
6.35694e-06
6.49946e-06
6.65807e-06
6.84487e-06
7.05536e-06
7.30239e-06
7.56704e-06
7.91124e-06
8.27528e-06
8.72808e-06
9.26021e-06
9.91418e-06
1.07169e-05
1.16714e-05
1.28683e-05
1.42992e-05
1.6019e-05
1.80414e-05
2.02717e-05
2.27852e-05
2.56259e-05
2.83588e-05
5.21912e-06
5.2252e-06
5.23148e-06
5.23822e-06
5.2432e-06
5.25027e-06
5.25639e-06
5.26365e-06
5.27094e-06
5.2788e-06
5.28688e-06
5.29533e-06
5.30476e-06
5.31458e-06
5.32613e-06
5.33773e-06
5.35058e-06
5.36387e-06
5.37787e-06
5.3922e-06
5.4072e-06
5.42325e-06
5.43976e-06
5.45701e-06
5.47539e-06
5.49364e-06
5.5136e-06
5.53393e-06
5.55564e-06
5.57869e-06
5.60327e-06
5.62856e-06
5.65665e-06
5.68627e-06
5.71899e-06
5.75473e-06
5.79379e-06
5.83803e-06
5.88712e-06
5.94212e-06
6.00423e-06
6.07365e-06
6.15362e-06
6.24316e-06
6.34549e-06
6.46057e-06
6.59156e-06
6.73993e-06
6.9071e-06
7.09828e-06
7.31405e-06
7.56442e-06
7.84899e-06
8.18841e-06
8.58e-06
9.05153e-06
9.61531e-06
1.02996e-05
1.11299e-05
1.21364e-05
1.33583e-05
1.48102e-05
1.65111e-05
1.84814e-05
2.06979e-05
2.32154e-05
2.60025e-05
2.90882e-05
3.23908e-05
5.34587e-06
5.35294e-06
5.36002e-06
5.36776e-06
5.37482e-06
5.38239e-06
5.38991e-06
5.39782e-06
5.40611e-06
5.41486e-06
5.42406e-06
5.43358e-06
5.44379e-06
5.45431e-06
5.46599e-06
5.47825e-06
5.49159e-06
5.50563e-06
5.52064e-06
5.53639e-06
5.55291e-06
5.57034e-06
5.58877e-06
5.60812e-06
5.62879e-06
5.65031e-06
5.67334e-06
5.69773e-06
5.72388e-06
5.75175e-06
5.78201e-06
5.81431e-06
5.84945e-06
5.88764e-06
5.92944e-06
5.97534e-06
6.02589e-06
6.08206e-06
6.14445e-06
6.21389e-06
6.29123e-06
6.37786e-06
6.47516e-06
6.58418e-06
6.70658e-06
6.844e-06
6.99904e-06
7.1737e-06
7.3719e-06
7.59725e-06
7.85645e-06
8.15539e-06
8.50574e-06
8.91696e-06
9.40662e-06
9.99302e-06
1.06998e-05
1.15536e-05
1.25824e-05
1.38168e-05
1.52787e-05
1.69892e-05
1.89565e-05
2.11945e-05
2.37053e-05
2.65019e-05
2.95231e-05
3.28154e-05
3.60758e-05
5.49266e-06
5.50147e-06
5.51014e-06
5.51901e-06
5.52786e-06
5.5369e-06
5.54606e-06
5.55544e-06
5.56511e-06
5.57516e-06
5.58569e-06
5.59665e-06
5.60825e-06
5.62034e-06
5.63323e-06
5.64687e-06
5.66143e-06
5.67694e-06
5.69345e-06
5.71102e-06
5.72967e-06
5.74945e-06
5.77048e-06
5.79283e-06
5.8166e-06
5.84198e-06
5.86921e-06
5.89841e-06
5.92987e-06
5.96373e-06
6.00042e-06
6.04014e-06
6.08335e-06
6.13051e-06
6.18212e-06
6.23876e-06
6.30111e-06
6.37e-06
6.44621e-06
6.53073e-06
6.62443e-06
6.72892e-06
6.84562e-06
6.97613e-06
7.12231e-06
7.28658e-06
7.4718e-06
7.68166e-06
7.9207e-06
8.19521e-06
8.51274e-06
8.88373e-06
9.32059e-06
9.83967e-06
1.04603e-05
1.12058e-05
1.21018e-05
1.31754e-05
1.44524e-05
1.59556e-05
1.77016e-05
1.97027e-05
2.19621e-05
2.44885e-05
2.72648e-05
3.02909e-05
3.34949e-05
3.68699e-05
4.01953e-05
5.66412e-06
5.67495e-06
5.68571e-06
5.69641e-06
5.70719e-06
5.71814e-06
5.72927e-06
5.74062e-06
5.75225e-06
5.76421e-06
5.77662e-06
5.78952e-06
5.80303e-06
5.81719e-06
5.83211e-06
5.84787e-06
5.86457e-06
5.88232e-06
5.90121e-06
5.92134e-06
5.9428e-06
5.96569e-06
5.99014e-06
6.01623e-06
6.04419e-06
6.07426e-06
6.10666e-06
6.14159e-06
6.17935e-06
6.22021e-06
6.26456e-06
6.31274e-06
6.36522e-06
6.42258e-06
6.48537e-06
6.55427e-06
6.63002e-06
6.71354e-06
6.80575e-06
6.90782e-06
7.02085e-06
7.14668e-06
7.28715e-06
7.44433e-06
7.62079e-06
7.81974e-06
8.04525e-06
8.30245e-06
8.598e-06
8.94036e-06
9.34039e-06
9.81158e-06
1.03706e-05
1.10373e-05
1.18343e-05
1.27862e-05
1.39179e-05
1.52525e-05
1.68093e-05
1.86032e-05
2.0643e-05
2.29338e-05
2.5473e-05
2.82572e-05
3.12566e-05
3.44588e-05
3.77544e-05
4.11492e-05
4.43663e-05
5.8697e-06
5.88205e-06
5.89468e-06
5.90737e-06
5.92029e-06
5.93347e-06
5.94692e-06
5.96065e-06
5.97473e-06
5.9892e-06
6.00413e-06
6.01961e-06
6.03572e-06
6.05256e-06
6.07024e-06
6.08886e-06
6.10853e-06
6.12939e-06
6.15155e-06
6.17515e-06
6.20033e-06
6.22722e-06
6.25602e-06
6.28683e-06
6.32005e-06
6.3559e-06
6.39462e-06
6.43649e-06
6.48184e-06
6.53103e-06
6.58448e-06
6.64265e-06
6.70607e-06
6.77543e-06
6.85137e-06
6.93469e-06
7.02629e-06
7.12722e-06
7.23867e-06
7.36204e-06
7.49886e-06
7.65136e-06
7.82206e-06
8.01386e-06
8.2304e-06
8.47625e-06
8.75724e-06
9.08075e-06
9.4561e-06
9.89499e-06
1.04118e-05
1.10236e-05
1.17503e-05
1.2614e-05
1.36375e-05
1.48434e-05
1.62517e-05
1.78786e-05
1.97355e-05
2.18291e-05
2.4161e-05
2.67283e-05
2.95191e-05
3.25154e-05
3.5673e-05
3.89619e-05
4.22442e-05
4.55481e-05
4.85525e-05
6.1205e-06
6.13387e-06
6.14791e-06
6.16235e-06
6.1773e-06
6.19278e-06
6.20874e-06
6.22519e-06
6.24214e-06
6.25962e-06
6.2777e-06
6.29644e-06
6.31592e-06
6.33625e-06
6.35754e-06
6.37991e-06
6.40349e-06
6.42843e-06
6.45488e-06
6.48302e-06
6.513e-06
6.54507e-06
6.5793e-06
6.61621e-06
6.65604e-06
6.69907e-06
6.74561e-06
6.79602e-06
6.85068e-06
6.91005e-06
6.97462e-06
7.04498e-06
7.12176e-06
7.20577e-06
7.29782e-06
7.39888e-06
7.51011e-06
7.63283e-06
7.7686e-06
7.91926e-06
8.08708e-06
8.27488e-06
8.48636e-06
8.72573e-06
8.99829e-06
9.31068e-06
9.67121e-06
1.00902e-05
1.05803e-05
1.11565e-05
1.18364e-05
1.26395e-05
1.35866e-05
1.46985e-05
1.59946e-05
1.74915e-05
1.92018e-05
2.11334e-05
2.32898e-05
2.56698e-05
2.82671e-05
3.10688e-05
3.40509e-05
3.71807e-05
4.04011e-05
4.36675e-05
4.68171e-05
4.99373e-05
5.25847e-05
6.42822e-06
6.44274e-06
6.45818e-06
6.4743e-06
6.49126e-06
6.50907e-06
6.52767e-06
6.54706e-06
6.56722e-06
6.58818e-06
6.60998e-06
6.63267e-06
6.65634e-06
6.68106e-06
6.70695e-06
6.73414e-06
6.76278e-06
6.79302e-06
6.82506e-06
6.85906e-06
6.89531e-06
6.93392e-06
6.9754e-06
7.0201e-06
7.06833e-06
7.12046e-06
7.17687e-06
7.23801e-06
7.30436e-06
7.37649e-06
7.45501e-06
7.54067e-06
7.63431e-06
7.73687e-06
7.84944e-06
7.97332e-06
8.11005e-06
8.26142e-06
8.42966e-06
8.61738e-06
8.82794e-06
9.06531e-06
9.33494e-06
9.64303e-06
9.99722e-06
1.04069e-05
1.08834e-05
1.14402e-05
1.20927e-05
1.28584e-05
1.37559e-05
1.48038e-05
1.60203e-05
1.74212e-05
1.9019e-05
2.08223e-05
2.28358e-05
2.50594e-05
2.74894e-05
3.01163e-05
3.29247e-05
3.58906e-05
3.89776e-05
4.21415e-05
4.53159e-05
4.84407e-05
5.13446e-05
5.4188e-05
5.63806e-05
6.80595e-06
6.82247e-06
6.84e-06
6.85835e-06
6.87776e-06
6.89829e-06
6.91993e-06
6.94267e-06
6.96652e-06
6.99151e-06
7.01769e-06
7.0451e-06
7.07381e-06
7.10392e-06
7.13554e-06
7.1688e-06
7.20385e-06
7.24089e-06
7.28009e-06
7.32175e-06
7.36598e-06
7.41337e-06
7.4643e-06
7.51914e-06
7.57829e-06
7.6422e-06
7.71138e-06
7.78639e-06
7.86787e-06
7.95655e-06
8.05324e-06
8.1589e-06
8.27472e-06
8.40193e-06
8.54207e-06
8.69698e-06
8.86885e-06
9.06036e-06
9.27475e-06
9.51598e-06
9.78902e-06
1.00997e-05
1.04558e-05
1.08661e-05
1.13411e-05
1.18928e-05
1.25352e-05
1.32838e-05
1.41548e-05
1.5165e-05
1.63305e-05
1.76656e-05
1.9182e-05
2.08883e-05
2.27891e-05
2.48855e-05
2.71748e-05
2.96499e-05
3.23001e-05
3.51067e-05
3.80457e-05
4.10823e-05
4.41696e-05
4.7257e-05
5.02687e-05
5.31298e-05
5.56848e-05
5.81784e-05
6.00017e-05
7.27021e-06
7.29003e-06
7.31091e-06
7.33267e-06
7.35564e-06
7.37993e-06
7.40557e-06
7.4326e-06
7.46107e-06
7.49104e-06
7.52259e-06
7.55578e-06
7.59071e-06
7.62749e-06
7.66624e-06
7.70711e-06
7.7503e-06
7.79598e-06
7.84447e-06
7.89584e-06
7.95085e-06
8.00986e-06
8.07327e-06
8.14155e-06
8.2152e-06
8.29483e-06
8.38109e-06
8.47474e-06
8.57666e-06
8.68784e-06
8.80943e-06
8.94281e-06
9.08964e-06
9.25177e-06
9.43147e-06
9.63151e-06
9.8552e-06
1.01066e-05
1.03905e-05
1.07128e-05
1.10806e-05
1.15022e-05
1.19878e-05
1.25486e-05
1.31971e-05
1.39469e-05
1.48124e-05
1.5808e-05
1.69475e-05
1.82434e-05
1.97058e-05
2.13424e-05
2.31576e-05
2.51525e-05
2.73253e-05
2.96707e-05
3.218e-05
3.48392e-05
3.76312e-05
4.05279e-05
4.34988e-05
4.6499e-05
4.94748e-05
5.23719e-05
5.50995e-05
5.75763e-05
5.97025e-05
6.18696e-05
6.38133e-05
7.8438e-06
7.86855e-06
7.89445e-06
7.92132e-06
7.94954e-06
7.97927e-06
8.01059e-06
8.04357e-06
8.07833e-06
8.11496e-06
8.15359e-06
8.19433e-06
8.23732e-06
8.28271e-06
8.33068e-06
8.38142e-06
8.43517e-06
8.49217e-06
8.55277e-06
8.61764e-06
8.68718e-06
8.76187e-06
8.84224e-06
8.92892e-06
9.0226e-06
9.12411e-06
9.23437e-06
9.35448e-06
9.4857e-06
9.6295e-06
9.78762e-06
9.96214e-06
1.01555e-05
1.03706e-05
1.0611e-05
1.08807e-05
1.11848e-05
1.1529e-05
1.19202e-05
1.23664e-05
1.28769e-05
1.34617e-05
1.41325e-05
1.49013e-05
1.57804e-05
1.67818e-05
1.79171e-05
1.91963e-05
2.06278e-05
2.22177e-05
2.39696e-05
2.58845e-05
2.79609e-05
3.01946e-05
3.25787e-05
3.51026e-05
3.77527e-05
4.05081e-05
4.33468e-05
4.6231e-05
4.91264e-05
5.19793e-05
5.47311e-05
5.73187e-05
5.96317e-05
6.16165e-05
6.33046e-05
6.54514e-05
6.84167e-05
8.55977e-06
8.59136e-06
8.62435e-06
8.65853e-06
8.69431e-06
8.7319e-06
8.77138e-06
8.81288e-06
8.85656e-06
8.90257e-06
8.9511e-06
9.00232e-06
9.05645e-06
9.11371e-06
9.17432e-06
9.23867e-06
9.30685e-06
9.37981e-06
9.45797e-06
9.54183e-06
9.63199e-06
9.72912e-06
9.834e-06
9.94753e-06
1.00708e-05
1.02049e-05
1.03514e-05
1.05119e-05
1.06883e-05
1.08829e-05
1.10985e-05
1.13381e-05
1.16054e-05
1.19049e-05
1.22414e-05
1.26209e-05
1.30499e-05
1.3536e-05
1.40875e-05
1.47136e-05
1.54239e-05
1.62288e-05
1.71385e-05
1.81631e-05
1.93118e-05
2.05919e-05
2.20101e-05
2.35703e-05
2.52754e-05
2.71259e-05
2.91203e-05
3.12552e-05
3.35252e-05
3.59222e-05
3.84357e-05
4.10499e-05
4.37476e-05
4.65001e-05
4.92834e-05
5.20476e-05
5.47583e-05
5.73553e-05
5.97649e-05
6.19045e-05
6.3662e-05
6.5115e-05
6.65581e-05
6.95234e-05
7.5137e-05
9.46735e-06
9.50828e-06
9.55111e-06
9.59556e-06
9.64212e-06
9.691e-06
9.74232e-06
9.79625e-06
9.85299e-06
9.91278e-06
9.97587e-06
1.00425e-05
1.01131e-05
1.01879e-05
1.02672e-05
1.03521e-05
1.04429e-05
1.05404e-05
1.06453e-05
1.07582e-05
1.08803e-05
1.10124e-05
1.11559e-05
1.1312e-05
1.14826e-05
1.16695e-05
1.18748e-05
1.21012e-05
1.23516e-05
1.26292e-05
1.29382e-05
1.32829e-05
1.36683e-05
1.41001e-05
1.45844e-05
1.51281e-05
1.57385e-05
1.64231e-05
1.71901e-05
1.80473e-05
1.90026e-05
2.00634e-05
2.12364e-05
2.25273e-05
2.39408e-05
2.54805e-05
2.71476e-05
2.89411e-05
3.08606e-05
3.29029e-05
3.5064e-05
3.73375e-05
3.97157e-05
4.21868e-05
4.47376e-05
4.73461e-05
4.99932e-05
5.26401e-05
5.5265e-05
5.78004e-05
6.02167e-05
6.24532e-05
6.43679e-05
6.5881e-05
6.6968e-05
6.8117e-05
6.98418e-05
7.52659e-05
8.48101e-05
1.06424e-05
1.06966e-05
1.07535e-05
1.0813e-05
1.08754e-05
1.09411e-05
1.10104e-05
1.10833e-05
1.11602e-05
1.12415e-05
1.13275e-05
1.14187e-05
1.15156e-05
1.16194e-05
1.17305e-05
1.18498e-05
1.19781e-05
1.21165e-05
1.22659e-05
1.24278e-05
1.26037e-05
1.2795e-05
1.30039e-05
1.32324e-05
1.34831e-05
1.37586e-05
1.40621e-05
1.43971e-05
1.47675e-05
1.51776e-05
1.56321e-05
1.61362e-05
1.6695e-05
1.73144e-05
1.80002e-05
1.87584e-05
1.95947e-05
2.05149e-05
2.15244e-05
2.26281e-05
2.38303e-05
2.51346e-05
2.65438e-05
2.80599e-05
2.9684e-05
3.14164e-05
3.32566e-05
3.52028e-05
3.72533e-05
3.94005e-05
4.16396e-05
4.39619e-05
4.63574e-05
4.88101e-05
5.13042e-05
5.38091e-05
5.63074e-05
5.87444e-05
6.11086e-05
6.33014e-05
6.5311e-05
6.70748e-05
6.82239e-05
6.89306e-05
6.94265e-05
7.11424e-05
7.36393e-05
8.30002e-05
0.000100686
1.22099e-05
1.22846e-05
1.23638e-05
1.2447e-05
1.25351e-05
1.26284e-05
1.27271e-05
1.28318e-05
1.29428e-05
1.3061e-05
1.31874e-05
1.33228e-05
1.34678e-05
1.36234e-05
1.37909e-05
1.39713e-05
1.41661e-05
1.43768e-05
1.4605e-05
1.48527e-05
1.5122e-05
1.54151e-05
1.57347e-05
1.60835e-05
1.64645e-05
1.68809e-05
1.73362e-05
1.78341e-05
1.83784e-05
1.89733e-05
1.96227e-05
2.03308e-05
2.11016e-05
2.19391e-05
2.28472e-05
2.38295e-05
2.48891e-05
2.60291e-05
2.7252e-05
2.85599e-05
2.99544e-05
3.14367e-05
3.30076e-05
3.46673e-05
3.64155e-05
3.82513e-05
4.01732e-05
4.21788e-05
4.42645e-05
4.64257e-05
4.86547e-05
5.09375e-05
5.32608e-05
5.56035e-05
5.79477e-05
6.02495e-05
6.25004e-05
6.46177e-05
6.66145e-05
6.8337e-05
6.98195e-05
7.06724e-05
7.06796e-05
7.08762e-05
7.13226e-05
7.39358e-05
7.89594e-05
9.45088e-05
0.000126328
1.43965e-05
1.45077e-05
1.46264e-05
1.47525e-05
1.48868e-05
1.50307e-05
1.51846e-05
1.53493e-05
1.55255e-05
1.5714e-05
1.59159e-05
1.61323e-05
1.63645e-05
1.66138e-05
1.68816e-05
1.71696e-05
1.74795e-05
1.7813e-05
1.81722e-05
1.8559e-05
1.89757e-05
1.94245e-05
1.99078e-05
2.0428e-05
2.09876e-05
2.15891e-05
2.22352e-05
2.29282e-05
2.36708e-05
2.44654e-05
2.53144e-05
2.622e-05
2.71844e-05
2.82096e-05
2.92975e-05
3.04499e-05
3.16682e-05
3.29541e-05
3.43086e-05
3.57328e-05
3.72277e-05
3.87936e-05
4.04309e-05
4.21393e-05
4.39182e-05
4.57662e-05
4.7681e-05
4.96591e-05
5.16954e-05
5.37834e-05
5.59131e-05
5.80704e-05
6.02322e-05
6.23734e-05
6.4471e-05
6.64627e-05
6.83616e-05
7.00341e-05
7.15383e-05
7.26219e-05
7.26883e-05
7.22205e-05
7.18672e-05
7.19198e-05
7.38525e-05
7.74387e-05
8.84439e-05
0.000112457
0.000163472
1.7659e-05
1.78427e-05
1.804e-05
1.82509e-05
1.84763e-05
1.87171e-05
1.89741e-05
1.92482e-05
1.95402e-05
1.98511e-05
2.0182e-05
2.05339e-05
2.0908e-05
2.13054e-05
2.17273e-05
2.2175e-05
2.26497e-05
2.31527e-05
2.36853e-05
2.42486e-05
2.4844e-05
2.54726e-05
2.61359e-05
2.68348e-05
2.75708e-05
2.83449e-05
2.91584e-05
3.00123e-05
3.09081e-05
3.18468e-05
3.28296e-05
3.38579e-05
3.4933e-05
3.60562e-05
3.7229e-05
3.84527e-05
3.97288e-05
4.10586e-05
4.24434e-05
4.38842e-05
4.5382e-05
4.69372e-05
4.855e-05
5.02196e-05
5.19449e-05
5.37233e-05
5.55513e-05
5.74231e-05
5.93312e-05
6.12671e-05
6.32133e-05
6.51579e-05
6.70625e-05
6.89089e-05
7.06477e-05
7.2206e-05
7.3628e-05
7.46997e-05
7.49311e-05
7.45317e-05
7.36279e-05
7.25879e-05
7.26521e-05
7.32363e-05
7.77165e-05
8.51931e-05
0.000104184
0.000142775
0.000182078
2.29559e-05
2.32644e-05
2.35928e-05
2.39405e-05
2.43082e-05
2.46964e-05
2.51054e-05
2.55353e-05
2.59865e-05
2.64593e-05
2.69541e-05
2.74711e-05
2.80107e-05
2.85732e-05
2.91588e-05
2.97679e-05
3.04006e-05
3.10572e-05
3.17379e-05
3.24431e-05
3.31729e-05
3.39277e-05
3.47077e-05
3.55136e-05
3.63456e-05
3.72045e-05
3.80909e-05
3.90058e-05
3.99501e-05
4.0925e-05
4.19318e-05
4.29719e-05
4.40472e-05
4.51592e-05
4.63099e-05
4.7501e-05
4.87345e-05
5.0012e-05
5.1335e-05
5.27047e-05
5.41218e-05
5.55862e-05
5.70973e-05
5.86536e-05
6.02522e-05
6.18884e-05
6.35565e-05
6.52469e-05
6.695e-05
6.86528e-05
7.03255e-05
7.19676e-05
7.35006e-05
7.4965e-05
7.61769e-05
7.71589e-05
7.73012e-05
7.69333e-05
7.60986e-05
7.48599e-05
7.34674e-05
7.30775e-05
7.4127e-05
7.6772e-05
8.44819e-05
9.81444e-05
0.000128082
0.000162124
0.000180058
3.17468e-05
3.21841e-05
3.26438e-05
3.31237e-05
3.36235e-05
3.41424e-05
3.46796e-05
3.52345e-05
3.58063e-05
3.63945e-05
3.69989e-05
3.76192e-05
3.8255e-05
3.89058e-05
3.95713e-05
4.02512e-05
4.0945e-05
4.16524e-05
4.23733e-05
4.31077e-05
4.38555e-05
4.46169e-05
4.53923e-05
4.61821e-05
4.69869e-05
4.78076e-05
4.86454e-05
4.95015e-05
5.03774e-05
5.12748e-05
5.21958e-05
5.31424e-05
5.41169e-05
5.51217e-05
5.6159e-05
5.7231e-05
5.83398e-05
5.94872e-05
6.06742e-05
6.19015e-05
6.31689e-05
6.4475e-05
6.58178e-05
6.71943e-05
6.85979e-05
7.00212e-05
7.14557e-05
7.28848e-05
7.43015e-05
7.56766e-05
7.6967e-05
7.82106e-05
7.92185e-05
7.99819e-05
7.98845e-05
7.94656e-05
7.85514e-05
7.73367e-05
7.59132e-05
7.39726e-05
7.34983e-05
7.40567e-05
7.74955e-05
8.37256e-05
9.63776e-05
0.000118309
0.00014169
0.000160692
0.000157519
4.49955e-05
4.54856e-05
4.59863e-05
4.64963e-05
4.70159e-05
4.75448e-05
4.80822e-05
4.86276e-05
4.91804e-05
4.9741e-05
5.03122e-05
5.08925e-05
5.14806e-05
5.20755e-05
5.26763e-05
5.32823e-05
5.3893e-05
5.45082e-05
5.51282e-05
5.57531e-05
5.63833e-05
5.70192e-05
5.76615e-05
5.83112e-05
5.89693e-05
5.96372e-05
6.03167e-05
6.10094e-05
6.17175e-05
6.24433e-05
6.31892e-05
6.3958e-05
6.47522e-05
6.55743e-05
6.64266e-05
6.73113e-05
6.823e-05
6.91839e-05
7.01731e-05
7.11966e-05
7.22519e-05
7.33366e-05
7.44468e-05
7.5577e-05
7.67118e-05
7.78448e-05
7.89611e-05
8.00341e-05
8.10733e-05
8.19812e-05
8.27711e-05
8.29542e-05
8.27083e-05
8.2089e-05
8.10484e-05
7.97936e-05
7.81517e-05
7.63278e-05
7.40242e-05
7.36137e-05
7.45821e-05
7.71853e-05
8.41195e-05
9.52348e-05
0.000108388
0.00012381
0.000136587
0.000139571
0.000126915
6.21792e-05
6.25939e-05
6.30068e-05
6.34172e-05
6.38259e-05
6.4233e-05
6.46382e-05
6.50413e-05
6.54421e-05
6.58406e-05
6.62372e-05
6.6632e-05
6.70249e-05
6.74158e-05
6.78046e-05
6.81914e-05
6.8576e-05
6.89617e-05
6.93503e-05
6.97414e-05
7.01351e-05
7.05325e-05
7.09343e-05
7.13422e-05
7.17572e-05
7.21813e-05
7.26166e-05
7.30645e-05
7.35284e-05
7.40099e-05
7.45126e-05
7.50384e-05
7.55899e-05
7.61689e-05
7.67774e-05
7.74172e-05
7.80888e-05
7.87919e-05
7.95246e-05
8.02824e-05
8.10594e-05
8.1856e-05
8.2665e-05
8.34742e-05
8.42446e-05
8.49973e-05
8.56841e-05
8.62906e-05
8.63998e-05
8.61898e-05
8.56649e-05
8.47349e-05
8.35884e-05
8.21689e-05
8.03826e-05
7.82019e-05
7.56984e-05
7.3383e-05
7.30229e-05
7.39146e-05
7.69052e-05
8.2971e-05
9.08816e-05
9.99487e-05
0.00010764
0.000112739
0.000116356
0.000113349
9.7304e-05
8.18346e-05
8.20555e-05
8.22646e-05
8.24616e-05
8.26479e-05
8.28237e-05
8.29893e-05
8.31452e-05
8.32916e-05
8.34288e-05
8.35568e-05
8.36756e-05
8.37855e-05
8.3887e-05
8.39804e-05
8.40677e-05
8.41453e-05
8.42211e-05
8.42901e-05
8.43606e-05
8.44296e-05
8.45098e-05
8.45931e-05
8.46904e-05
8.47917e-05
8.49078e-05
8.50401e-05
8.51812e-05
8.53485e-05
8.55293e-05
8.57402e-05
8.59691e-05
8.62267e-05
8.65076e-05
8.68182e-05
8.71591e-05
8.75284e-05
8.79219e-05
8.83331e-05
8.87492e-05
8.91672e-05
8.96111e-05
9.00468e-05
9.04322e-05
9.05778e-05
9.04353e-05
9.01158e-05
8.94745e-05
8.85152e-05
8.7394e-05
8.60165e-05
8.43449e-05
8.22175e-05
7.96387e-05
7.68016e-05
7.40055e-05
7.14871e-05
7.16875e-05
7.26112e-05
7.50119e-05
7.95686e-05
8.56311e-05
8.97397e-05
8.91881e-05
8.98226e-05
9.2808e-05
9.46483e-05
8.91905e-05
7.27706e-05
0.000102167
0.000102136
0.00010208
0.000102001
0.000101903
0.000101787
0.000101654
0.000101506
0.000101346
0.000101169
0.000100976
0.000100766
0.000100542
0.000100304
0.000100051
9.98082e-05
9.9505e-05
9.92664e-05
9.89534e-05
9.8712e-05
9.83995e-05
9.81676e-05
9.78596e-05
9.76578e-05
9.73576e-05
9.71535e-05
9.69744e-05
9.67203e-05
9.66171e-05
9.64085e-05
9.63426e-05
9.61813e-05
9.61181e-05
9.60245e-05
9.59949e-05
9.59908e-05
9.60019e-05
9.6015e-05
9.60134e-05
9.59703e-05
9.58627e-05
9.55024e-05
9.51227e-05
9.44385e-05
9.35014e-05
9.24539e-05
9.12423e-05
8.97894e-05
8.80406e-05
8.58673e-05
8.32193e-05
8.01977e-05
7.68409e-05
7.35039e-05
7.0673e-05
6.83393e-05
6.86443e-05
6.93379e-05
7.14397e-05
7.54622e-05
7.48991e-05
7.18043e-05
6.74842e-05
6.80195e-05
7.19048e-05
7.5773e-05
7.61397e-05
6.94744e-05
5.40108e-05
0.000121199
0.000120853
0.000120485
0.000120094
0.000119682
0.00011925
0.000118799
0.00011833
0.000117842
0.000117339
0.000116818
0.000116282
0.000115731
0.000115166
0.000114589
0.000114004
0.000113405
0.000112803
0.000112198
0.000111601
0.000111003
0.000110414
0.000109824
0.000109247
0.000108673
0.000108117
0.000107578
0.00010705
0.000106547
0.000106058
0.000105593
0.000105142
0.000104685
0.000104214
0.000103705
0.00010314
0.000102504
0.000101777
0.00010094
9.99417e-05
9.8895e-05
9.77458e-05
9.64678e-05
9.4991e-05
9.3299e-05
9.1248e-05
8.8815e-05
8.59455e-05
8.26545e-05
7.90075e-05
7.5122e-05
7.13746e-05
6.77929e-05
6.50786e-05
6.29933e-05
6.2367e-05
6.30034e-05
6.39699e-05
6.21673e-05
5.50559e-05
4.69612e-05
4.66978e-05
4.95833e-05
5.4552e-05
5.95757e-05
6.19802e-05
6.12361e-05
5.44396e-05
4.11846e-05
0.000136293
0.00013572
0.000135112
0.000134473
0.000133806
0.000133115
0.000132401
0.000131664
0.000130908
0.000130131
0.000129336
0.000128523
0.000127693
0.000126857
0.000126014
0.000125163
0.000124304
0.000123436
0.000122561
0.000121681
0.000120794
0.000119903
0.000119008
0.000118111
0.000117213
0.000116309
0.000115395
0.000114467
0.00011352
0.000112546
0.000111537
0.000110477
0.000109395
0.000108278
0.000107111
0.000105878
0.000104555
0.000103125
0.000101557
9.98375e-05
9.78749e-05
9.56359e-05
9.30828e-05
9.01627e-05
8.68779e-05
8.31777e-05
7.91658e-05
7.49127e-05
7.05617e-05
6.63178e-05
6.24106e-05
5.88814e-05
5.56483e-05
5.31667e-05
5.20124e-05
5.13045e-05
4.80427e-05
3.88488e-05
2.95134e-05
2.96316e-05
3.21443e-05
3.62415e-05
4.12413e-05
4.61713e-05
4.9902e-05
5.11996e-05
4.9843e-05
4.37846e-05
3.32622e-05
0.000144389
0.00014364
0.000142862
0.000142059
0.000141238
0.000140397
0.000139535
0.000138652
0.000137747
0.00013682
0.000135871
0.000134901
0.000133908
0.000132894
0.00013186
0.000130807
0.000129734
0.000128643
0.000127532
0.000126402
0.000125253
0.000124085
0.000122899
0.000121681
0.000120429
0.000119142
0.000117816
0.000116448
0.00011503
0.000113551
0.000112
0.000110363
0.00010861
0.000106725
0.000104681
0.000102463
0.000100033
9.73877e-05
9.44805e-05
9.12942e-05
8.77899e-05
8.39756e-05
7.98452e-05
7.54544e-05
7.09196e-05
6.62707e-05
6.1636e-05
5.7239e-05
5.26268e-05
4.84156e-05
4.43157e-05
4.03148e-05
3.61277e-05
3.35409e-05
2.89535e-05
1.80218e-05
1.40395e-05
1.40719e-05
1.6668e-05
2.12895e-05
2.63898e-05
3.11354e-05
3.56131e-05
3.96009e-05
4.22993e-05
4.3168e-05
4.19816e-05
3.73213e-05
2.95975e-05
0.000139112
0.000138379
0.000137608
0.000136799
0.000135958
0.000135086
0.000134183
0.000133251
0.000132289
0.000131298
0.000130277
0.000129226
0.000128145
0.000127033
0.00012589
0.000124713
0.000123504
0.000122262
0.000120984
0.000119672
0.000118327
0.000116939
0.00011549
0.000113974
0.000112375
0.000110676
0.000108862
0.000106907
0.000104812
0.000102499
9.99846e-05
9.72665e-05
9.43416e-05
9.12223e-05
8.79124e-05
8.44702e-05
8.08854e-05
7.73051e-05
7.34835e-05
6.94582e-05
6.5237e-05
6.08826e-05
5.63883e-05
5.18028e-05
4.73229e-05
4.22748e-05
3.71184e-05
3.11216e-05
2.57171e-05
2.10338e-05
1.62086e-05
1.08835e-05
7.9839e-06
7.06344e-06
5.60353e-06
4.74855e-06
5.14787e-06
7.65554e-06
1.16627e-05
1.65113e-05
2.14134e-05
2.6015e-05
3.02033e-05
3.38901e-05
3.67496e-05
3.79278e-05
3.77709e-05
3.47623e-05
2.94399e-05
0.000108905
0.000108119
0.00010731
0.000106478
0.00010562
0.000104735
0.000103822
0.000102878
0.000101904
0.000100899
9.98602e-05
9.87881e-05
9.76822e-05
9.65384e-05
9.53624e-05
9.414e-05
9.28891e-05
9.15812e-05
9.02465e-05
8.88539e-05
8.73873e-05
8.58474e-05
8.42375e-05
8.25584e-05
8.08215e-05
7.90195e-05
7.71505e-05
7.52304e-05
7.32189e-05
7.11984e-05
6.91895e-05
6.71234e-05
6.49659e-05
6.26725e-05
6.02162e-05
5.74904e-05
5.45064e-05
5.10081e-05
4.72254e-05
4.305e-05
3.84739e-05
3.33652e-05
2.79774e-05
2.2292e-05
1.65661e-05
1.13404e-05
7.5075e-06
4.85704e-06
3.51346e-06
2.85559e-06
2.07034e-06
1.57204e-06
1.22842e-06
1.04439e-06
8.93709e-07
9.60024e-07
1.41035e-06
2.34832e-06
4.06901e-06
7.00645e-06
1.11886e-05
1.58398e-05
2.01091e-05
2.3604e-05
2.66672e-05
2.85964e-05
2.92042e-05
2.83058e-05
2.59217e-05
6.09803e-05
6.16961e-05
6.24035e-05
6.31006e-05
6.37847e-05
6.4453e-05
6.5106e-05
6.5738e-05
6.63529e-05
6.69388e-05
6.75068e-05
6.80351e-05
6.85467e-05
6.8995e-05
6.94854e-05
6.96245e-05
6.98963e-05
7.00915e-05
7.00826e-05
7.01465e-05
6.97256e-05
6.95316e-05
6.94678e-05
6.91093e-05
6.87738e-05
6.83284e-05
6.75741e-05
6.64895e-05
6.51464e-05
6.30327e-05
6.23164e-05
6.06228e-05
5.83483e-05
5.5482e-05
5.19968e-05
4.78452e-05
4.2982e-05
3.73421e-05
3.0947e-05
2.37708e-05
1.63649e-05
9.47146e-06
4.17582e-06
1.44013e-06
1.00938e-06
1.03359e-06
1.02346e-06
9.1816e-07
8.21715e-07
6.5446e-07
4.75187e-07
3.83504e-07
3.1287e-07
2.61189e-07
2.39569e-07
2.73841e-07
3.91677e-07
6.20669e-07
9.88026e-07
1.48783e-06
2.07162e-06
2.68399e-06
3.3545e-06
4.13129e-06
4.82441e-06
5.32808e-06
5.50037e-06
5.5967e-06
5.59575e-06
4.95829e-06
4.95999e-06
4.96197e-06
4.96484e-06
4.96947e-06
4.97313e-06
4.9757e-06
4.97462e-06
4.97045e-06
4.96779e-06
4.96665e-06
4.96902e-06
4.98024e-06
4.9875e-06
4.99009e-06
4.98255e-06
4.98483e-06
4.98845e-06
4.991e-06
4.98715e-06
4.9833e-06
4.98812e-06
4.98632e-06
4.98866e-06
4.98735e-06
4.98391e-06
4.99034e-06
4.99219e-06
4.99266e-06
4.99623e-06
4.99428e-06
5.00086e-06
5.00372e-06
5.00501e-06
5.0091e-06
5.00589e-06
5.00957e-06
5.0141e-06
5.01827e-06
5.031e-06
5.02507e-06
5.02961e-06
5.02756e-06
5.02811e-06
5.03444e-06
5.03336e-06
5.03343e-06
5.03337e-06
5.04002e-06
5.04992e-06
5.05921e-06
5.07442e-06
5.08221e-06
5.08616e-06
5.09087e-06
5.09395e-06
5.09794e-06
5.10259e-06
5.10733e-06
5.06228e-06
5.06258e-06
5.0628e-06
5.0616e-06
5.0625e-06
5.06376e-06
5.06026e-06
5.05822e-06
5.05713e-06
5.05799e-06
5.0621e-06
5.06963e-06
5.07471e-06
5.07639e-06
5.07102e-06
5.07001e-06
5.07386e-06
5.07573e-06
5.07475e-06
5.07014e-06
5.06957e-06
5.07155e-06
5.07045e-06
5.07291e-06
5.07046e-06
5.06867e-06
5.07421e-06
5.07729e-06
5.07545e-06
5.07804e-06
5.07924e-06
5.0848e-06
5.0877e-06
5.08838e-06
5.09439e-06
5.09381e-06
5.09579e-06
5.10118e-06
5.10554e-06
5.1195e-06
5.11997e-06
5.12214e-06
5.12263e-06
5.12239e-06
5.12737e-06
5.1316e-06
5.13312e-06
5.1332e-06
5.13681e-06
5.14463e-06
5.15291e-06
5.16541e-06
5.17787e-06
5.18642e-06
5.19422e-06
5.20006e-06
5.20485e-06
5.21026e-06
5.21444e-06
5.17699e-06
5.17608e-06
5.17336e-06
5.17412e-06
5.17334e-06
5.16871e-06
5.16663e-06
5.16546e-06
5.16718e-06
5.17391e-06
5.1784e-06
5.18082e-06
5.17941e-06
5.17602e-06
5.17447e-06
5.17688e-06
5.17865e-06
5.17881e-06
5.17346e-06
5.17094e-06
5.17244e-06
5.17267e-06
5.17186e-06
5.17353e-06
5.17068e-06
5.17035e-06
5.17492e-06
5.17879e-06
5.17554e-06
5.17748e-06
5.18116e-06
5.18586e-06
5.189e-06
5.1897e-06
5.19705e-06
5.19868e-06
5.20015e-06
5.20553e-06
5.20967e-06
5.22421e-06
5.23026e-06
5.23493e-06
5.2374e-06
5.2387e-06
5.24112e-06
5.24651e-06
5.25092e-06
5.25316e-06
5.25567e-06
5.26116e-06
5.26832e-06
5.27789e-06
5.28998e-06
5.30108e-06
5.3113e-06
5.32031e-06
5.32766e-06
5.33513e-06
5.34054e-06
5.30933e-06
5.30774e-06
5.30262e-06
5.30219e-06
5.29843e-06
5.29868e-06
5.29971e-06
5.30128e-06
5.30582e-06
5.3081e-06
5.30815e-06
5.30476e-06
5.30325e-06
5.30113e-06
5.30224e-06
5.30306e-06
5.30299e-06
5.29719e-06
5.29246e-06
5.29337e-06
5.2946e-06
5.29332e-06
5.29311e-06
5.29356e-06
5.29063e-06
5.29136e-06
5.29523e-06
5.29918e-06
5.29525e-06
5.29698e-06
5.30221e-06
5.30637e-06
5.31007e-06
5.31129e-06
5.31943e-06
5.32334e-06
5.32533e-06
5.33065e-06
5.33438e-06
5.34832e-06
5.35849e-06
5.36636e-06
5.37188e-06
5.37617e-06
5.37893e-06
5.38373e-06
5.38948e-06
5.39427e-06
5.39805e-06
5.40278e-06
5.40896e-06
5.41668e-06
5.42658e-06
5.43743e-06
5.44835e-06
5.45908e-06
5.46858e-06
5.47833e-06
5.48562e-06
5.46753e-06
5.46245e-06
5.46361e-06
5.46097e-06
5.46396e-06
5.46373e-06
5.46547e-06
5.46623e-06
5.46617e-06
5.46165e-06
5.46201e-06
5.45458e-06
5.45353e-06
5.45368e-06
5.45168e-06
5.45229e-06
5.44509e-06
5.43975e-06
5.43963e-06
5.43965e-06
5.43998e-06
5.43774e-06
5.43733e-06
5.43687e-06
5.43412e-06
5.43538e-06
5.43874e-06
5.44235e-06
5.43822e-06
5.43996e-06
5.44614e-06
5.4501e-06
5.45447e-06
5.45644e-06
5.46508e-06
5.4712e-06
5.47451e-06
5.4803e-06
5.48396e-06
5.4966e-06
5.50938e-06
5.52046e-06
5.52921e-06
5.53689e-06
5.54232e-06
5.5478e-06
5.55418e-06
5.56071e-06
5.56656e-06
5.57228e-06
5.57862e-06
5.58582e-06
5.59434e-06
5.60407e-06
5.61443e-06
5.62533e-06
5.63563e-06
5.64676e-06
5.65541e-06
5.66097e-06
5.66111e-06
5.65668e-06
5.65587e-06
5.65656e-06
5.65932e-06
5.65837e-06
5.65211e-06
5.64657e-06
5.64156e-06
5.639e-06
5.63425e-06
5.63454e-06
5.63569e-06
5.62711e-06
5.62461e-06
5.61742e-06
5.61587e-06
5.61352e-06
5.61498e-06
5.61399e-06
5.61071e-06
5.61013e-06
5.60854e-06
5.60618e-06
5.60763e-06
5.61053e-06
5.6136e-06
5.60963e-06
5.61147e-06
5.61829e-06
5.62232e-06
5.62733e-06
5.63022e-06
5.6392e-06
5.64737e-06
5.65256e-06
5.65946e-06
5.66379e-06
5.67508e-06
5.68914e-06
5.70295e-06
5.7149e-06
5.72596e-06
5.73508e-06
5.74305e-06
5.75095e-06
5.75905e-06
5.76692e-06
5.77451e-06
5.78215e-06
5.79011e-06
5.79868e-06
5.80807e-06
5.81803e-06
5.82872e-06
5.83911e-06
5.85084e-06
5.86009e-06
5.89448e-06
5.89471e-06
5.89321e-06
5.89125e-06
5.89041e-06
5.88302e-06
5.87856e-06
5.86859e-06
5.86371e-06
5.85887e-06
5.85678e-06
5.85487e-06
5.85544e-06
5.84506e-06
5.83822e-06
5.83389e-06
5.82934e-06
5.82587e-06
5.82707e-06
5.82515e-06
5.82225e-06
5.81903e-06
5.81772e-06
5.81519e-06
5.81335e-06
5.81467e-06
5.81711e-06
5.81957e-06
5.81596e-06
5.81799e-06
5.82526e-06
5.82961e-06
5.83525e-06
5.83923e-06
5.84856e-06
5.85858e-06
5.86601e-06
5.87462e-06
5.88047e-06
5.89095e-06
5.90537e-06
5.92122e-06
5.93616e-06
5.95049e-06
5.96349e-06
5.97509e-06
5.98588e-06
5.99635e-06
6.00657e-06
6.01651e-06
6.02626e-06
6.036e-06
6.04588e-06
6.05614e-06
6.06664e-06
6.07774e-06
6.08848e-06
6.10079e-06
6.11041e-06
6.1756e-06
6.16839e-06
6.17084e-06
6.16777e-06
6.15574e-06
6.14725e-06
6.14163e-06
6.13284e-06
6.12855e-06
6.12389e-06
6.12084e-06
6.11633e-06
6.11e-06
6.09863e-06
6.09363e-06
6.09043e-06
6.08476e-06
6.08543e-06
6.08029e-06
6.07714e-06
6.07481e-06
6.07064e-06
6.06823e-06
6.06522e-06
6.06368e-06
6.06473e-06
6.06668e-06
6.06849e-06
6.06539e-06
6.06769e-06
6.0753e-06
6.08022e-06
6.08652e-06