/*--------------------------------*- C++ -*----------------------------------*\
| =========                 |                                                 |
| \\      /  F ield         | OpenFOAM: The Open Source CFD Toolbox           |
|  \\    /   O peration     | Version:  2312                                  |
|   \\  /    A nd           | Website:  www.openfoam.com                      |
|    \\/     M anipulation  |                                                 |
\*---------------------------------------------------------------------------*/
FoamFile
{
    version     2.0;
    format      ascii;
    arch        "LSB;label=32;scalar=64";
    class       volScalarField;
    location    "1000";
    object      nut;
}
// * * * * * * * * * * * * * * * * * * * * * * * * * * * * * * * * * * * * * //

dimensions      [0 2 -1 0 0 0 0];

internalField   nonuniform List<scalar> 
76025
(
0.000172451
0.000172546
0.000172755
0.000172886
0.000173004
0.000173183
0.000173264
0.00017341
0.000173532
0.000173696
0.000173855
0.000174036
0.00017425
0.000174458
0.000174709
0.000174944
0.000175205
0.000175496
0.000175758
0.000176048
0.000176338
0.000176656
0.00017695
0.00017727
0.000177594
0.000177921
0.000178287
0.000178606
0.000178996
0.000179346
0.000179719
0.000180132
0.000180554
0.000181017
0.000181488
0.000181987
0.00018255
0.000183141
0.00018382
0.000184544
0.000185347
0.000186279
0.000187324
0.000188511
0.000189845
0.000191381
0.00019308
0.00019502
0.00019723
0.000199639
0.000202435
0.00020551
0.000209098
0.000212882
0.000217761
0.000222844
0.000229061
0.000236231
0.000244809
0.000255047
0.000266997
0.000281168
0.000297546
0.000316262
0.000337383
0.000359103
0.000381601
0.00040367
0.000421621
0.000174256
0.000174387
0.000174535
0.000174694
0.000174825
0.000174988
0.000175128
0.000175283
0.00017544
0.000175608
0.000175783
0.000175966
0.000176165
0.000176371
0.000176605
0.000176841
0.000177097
0.000177363
0.000177642
0.000177928
0.000178225
0.000178538
0.000178859
0.000179191
0.000179541
0.000179889
0.000180263
0.000180645
0.000181048
0.000181474
0.000181926
0.000182391
0.000182901
0.000183438
0.000184026
0.000184662
0.000185353
0.000186126
0.000186977
0.00018792
0.000188973
0.000190136
0.000191457
0.000192916
0.000194557
0.000196374
0.000198403
0.000200662
0.00020316
0.000205971
0.000209092
0.00021267
0.000216685
0.000221419
0.000226806
0.000233188
0.000240675
0.000249543
0.000260014
0.00027234
0.000286711
0.000303153
0.000321677
0.000341887
0.000363325
0.000385262
0.00040684
0.000426436
0.00044203
0.000176363
0.000176516
0.000176669
0.000176835
0.000176991
0.000177157
0.000177321
0.000177491
0.000177667
0.000177852
0.000178044
0.000178243
0.000178454
0.00017867
0.000178905
0.000179149
0.000179411
0.000179684
0.000179973
0.000180274
0.000180588
0.000180917
0.000181263
0.000181623
0.000182004
0.000182399
0.000182817
0.000183256
0.000183724
0.000184218
0.000184751
0.000185316
0.000185928
0.000186588
0.000187306
0.00018809
0.000188948
0.000189893
0.000190934
0.000192082
0.000193347
0.000194748
0.000196301
0.000198017
0.000199913
0.000202008
0.00020433
0.000206902
0.000209772
0.000212987
0.000216635
0.000220791
0.000225601
0.000231172
0.000237699
0.000245367
0.000254392
0.000265007
0.000277409
0.000291761
0.000308129
0.000326403
0.00034637
0.000367438
0.000389265
0.000410233
0.000429488
0.000444757
0.000453839
0.000178771
0.000178948
0.000179124
0.000179305
0.000179486
0.000179671
0.000179859
0.000180051
0.000180248
0.000180451
0.000180663
0.000180883
0.000181113
0.000181352
0.000181604
0.000181868
0.000182147
0.000182439
0.000182747
0.000183072
0.000183412
0.00018377
0.000184148
0.000184547
0.000184968
0.000185415
0.00018589
0.000186396
0.000186938
0.000187516
0.00018814
0.00018881
0.000189536
0.000190323
0.000191179
0.000192114
0.000193136
0.000194257
0.000195487
0.000196839
0.000198322
0.000199956
0.000201757
0.000203743
0.000205933
0.000208355
0.000211042
0.000214037
0.000217398
0.000221204
0.000225549
0.000230557
0.000236371
0.000243165
0.000251127
0.000260471
0.000271396
0.000284095
0.000298667
0.000315171
0.000333461
0.000353296
0.000374215
0.000395383
0.000416089
0.000434227
0.000449312
0.000458193
0.000460157
0.00018154
0.000181743
0.000181947
0.000182151
0.000182358
0.000182569
0.000182785
0.000183004
0.000183228
0.000183459
0.000183697
0.000183943
0.000184199
0.000184467
0.000184746
0.000185039
0.000185347
0.000185671
0.000186012
0.000186371
0.000186749
0.000187149
0.000187573
0.000188021
0.000188498
0.000189007
0.000189552
0.000190135
0.000190763
0.000191437
0.000192165
0.000192951
0.000193803
0.000194728
0.000195736
0.000196834
0.000198034
0.000199348
0.000200785
0.000202361
0.000204088
0.000205988
0.000208081
0.00021039
0.000212944
0.00021578
0.000218945
0.000222502
0.000226531
0.000231132
0.000236432
0.000242577
0.000249741
0.000258112
0.000267883
0.00027924
0.000292324
0.000307226
0.000323908
0.000342264
0.000361941
0.000382514
0.00040319
0.000422924
0.000440704
0.000454199
0.000463433
0.000464544
0.000458512
0.000184797
0.000185018
0.000185244
0.000185473
0.000185707
0.000185946
0.000186192
0.000186442
0.0001867
0.000186963
0.000187235
0.000187515
0.000187806
0.000188108
0.000188424
0.000188754
0.000189101
0.000189466
0.00018985
0.000190256
0.000190685
0.000191139
0.00019162
0.000192132
0.00019268
0.000193266
0.000193895
0.000194571
0.000195299
0.000196084
0.000196932
0.000197849
0.000198844
0.000199925
0.000201102
0.000202385
0.000203784
0.000205314
0.000206989
0.000208824
0.000210836
0.000213053
0.000215502
0.000218217
0.000221238
0.00022462
0.000228429
0.000232752
0.000237694
0.000243385
0.000249976
0.000257635
0.000266543
0.000276873
0.000288779
0.000302369
0.000317669
0.000334628
0.000353033
0.00037259
0.000392704
0.000412746
0.00043159
0.000448117
0.000461078
0.000468277
0.000470354
0.000462693
0.000448848
0.000188682
0.000188912
0.000189154
0.000189403
0.000189661
0.000189928
0.000190204
0.000190489
0.000190782
0.000191084
0.000191396
0.000191718
0.000192052
0.000192398
0.00019276
0.000193138
0.000193534
0.00019395
0.000194389
0.000194853
0.000195343
0.000195864
0.000196416
0.000197007
0.00019764
0.00019832
0.00019905
0.000199836
0.000200684
0.000201599
0.000202588
0.00020366
0.000204822
0.000206085
0.000207459
0.000208957
0.000210593
0.000212381
0.000214341
0.000216493
0.000218864
0.000221485
0.0002244
0.000227656
0.000231313
0.000235448
0.000240152
0.000245539
0.000251741
0.000258906
0.000267198
0.000276777
0.000287792
0.000300353
0.00031452
0.000330272
0.000347488
0.000365937
0.000385221
0.00040483
0.000423937
0.000441741
0.000456877
0.000468358
0.000474804
0.000474561
0.000468634
0.000451969
0.000431205
0.000193327
0.000193569
0.000193826
0.000194094
0.000194375
0.000194669
0.000194976
0.000195296
0.000195627
0.000195972
0.00019633
0.000196701
0.000197086
0.000197488
0.000197906
0.000198344
0.000198802
0.000199284
0.000199792
0.000200328
0.000200896
0.000201497
0.000202139
0.000202827
0.000203564
0.000204356
0.000205208
0.000206126
0.000207116
0.000208186
0.000209344
0.0002106
0.000211963
0.000213445
0.00021506
0.000216822
0.00021875
0.000220864
0.000223191
0.00022576
0.000228609
0.000231784
0.000235346
0.000239365
0.000243925
0.000249126
0.000255085
0.000261935
0.000269819
0.000278882
0.000289257
0.000301051
0.000314331
0.000329095
0.000345268
0.000362674
0.000381024
0.000399901
0.000418721
0.000436776
0.00045308
0.000466757
0.000476379
0.000481282
0.000480048
0.000471843
0.000457541
0.000432497
0.000406321
0.000198868
0.000199134
0.000199414
0.000199707
0.000200016
0.000200342
0.000200684
0.000201043
0.000201418
0.00020181
0.000202219
0.000202647
0.000203093
0.000203559
0.000204047
0.000204558
0.000205094
0.000205658
0.000206252
0.00020688
0.000207543
0.00020825
0.000209005
0.000209813
0.000210679
0.00021161
0.000212612
0.000213692
0.000214858
0.00021612
0.000217487
0.000218971
0.000220585
0.000222345
0.000224269
0.000226376
0.000228694
0.000231251
0.000234085
0.000237241
0.000240774
0.000244749
0.00024925
0.000254369
0.000260211
0.000266895
0.000274545
0.000283287
0.000293238
0.000304492
0.000317108
0.000331093
0.000346389
0.00036286
0.00038028
0.000398311
0.000416507
0.000434277
0.000450901
0.00046554
0.000477186
0.000485014
0.000487717
0.00048505
0.000475611
0.000459482
0.000436872
0.000405125
0.000374423
0.000205467
0.000205771
0.00020609
0.000206422
0.000206772
0.00020714
0.000207528
0.000207935
0.000208363
0.000208812
0.000209284
0.000209778
0.000210296
0.000210839
0.00021141
0.00021201
0.000212641
0.000213305
0.000214007
0.000214747
0.000215536
0.000216377
0.000217276
0.000218238
0.000219269
0.000220378
0.000221572
0.000222861
0.000224255
0.000225766
0.000227408
0.000229196
0.00023115
0.00023329
0.000235642
0.000238238
0.000241115
0.000244317
0.000247897
0.00025192
0.00025646
0.000261602
0.000267448
0.0002741
0.000281668
0.000290258
0.000299966
0.000310867
0.000323008
0.000336391
0.000350962
0.000366608
0.000383139
0.000400281
0.000417668
0.000434825
0.000451178
0.000466023
0.000478594
0.00048803
0.000493445
0.000494164
0.000489135
0.000478513
0.00046095
0.000437329
0.000407068
0.000371126
0.000335189
0.000213334
0.000213693
0.000214069
0.000214459
0.000214867
0.000215297
0.000215747
0.000216221
0.000216718
0.000217241
0.000217791
0.000218369
0.000218976
0.000219616
0.000220289
0.000220998
0.000221747
0.000222537
0.000223374
0.000224265
0.000225215
0.00022623
0.000227316
0.00022848
0.000229731
0.000231079
0.000232533
0.000234108
0.000235817
0.000237678
0.00023971
0.000241936
0.000244384
0.000247087
0.000250081
0.000253412
0.000257132
0.000261303
0.000265995
0.000271286
0.000277262
0.000284014
0.000291638
0.000300219
0.000309832
0.00032053
0.000332341
0.000345253
0.000359212
0.000374113
0.00038979
0.00040601
0.000422469
0.000438778
0.000454469
0.000468967
0.000481647
0.000491771
0.000498641
0.000501471
0.000499603
0.000492559
0.000479618
0.000461178
0.000436038
0.000405675
0.00036928
0.00033171
0.000290645
0.00022276
0.000223195
0.000223648
0.000224118
0.000224608
0.000225122
0.00022566
0.000226225
0.000226818
0.000227441
0.000228095
0.000228785
0.000229511
0.000230276
0.000231083
0.000231937
0.000232838
0.000233798
0.000234822
0.000235915
0.000237084
0.000238336
0.000239681
0.000241129
0.000242692
0.000244382
0.000246217
0.000248213
0.000250395
0.000252784
0.000255412
0.000258313
0.000261525
0.000265094
0.000269071
0.000273513
0.000278485
0.000284056
0.000290298
0.000297285
0.000305089
0.000313775
0.000323394
0.000333984
0.000345551
0.000358063
0.000371463
0.000385644
0.000400458
0.000415702
0.000431118
0.000446383
0.000461108
0.00047483
0.000487031
0.000497104
0.000504455
0.000508392
0.00050838
0.000503759
0.000494164
0.000479327
0.000458823
0.000433056
0.000401229
0.000365402
0.000325326
0.000288653
0.000245158
0.000234165
0.000234697
0.000235253
0.000235829
0.00023643
0.000237061
0.000237721
0.000238414
0.00023914
0.000239904
0.000240707
0.000241553
0.000242446
0.00024339
0.000244387
0.000245449
0.000246582
0.000247792
0.000249087
0.000250476
0.00025197
0.000253578
0.000255315
0.000257197
0.00025924
0.000261465
0.000263896
0.00026656
0.000269486
0.000272711
0.000276273
0.000280218
0.000284591
0.000289445
0.000294835
0.000300816
0.000307446
0.000314776
0.000322855
0.000331722
0.000341401
0.000351902
0.000363214
0.0003753
0.000388093
0.000401499
0.000415376
0.000429533
0.000443759
0.000457778
0.00047127
0.000483855
0.000495106
0.000504531
0.000511627
0.000515812
0.000516606
0.000513409
0.000505915
0.000493606
0.000476412
0.000454332
0.000426892
0.000394477
0.000357297
0.000318452
0.000277623
0.000244291
0.000204787
0.000248166
0.000248828
0.000249523
0.000250246
0.000251004
0.0002518
0.000252636
0.000253515
0.000254439
0.000255412
0.00025644
0.000257525
0.000258676
0.000259902
0.000261212
0.000262611
0.000264111
0.000265722
0.000267455
0.000269323
0.000271344
0.000273533
0.000275912
0.000278501
0.000281326
0.000284414
0.000287796
0.000291506
0.000295578
0.000300053
0.00030497
0.00031037
0.000316294
0.00032278
0.000329865
0.000337578
0.000345942
0.00035497
0.000364664
0.000375011
0.000385979
0.000397521
0.000409565
0.000422015
0.00043475
0.000447616
0.000460427
0.000472958
0.000484948
0.000496066
0.000505966
0.000514247
0.000520489
0.000524215
0.000525002
0.000522322
0.000515883
0.000505183
0.000490194
0.000470515
0.000446368
0.000418037
0.000384114
0.00034613
0.000305942
0.000268218
0.000227918
0.000199635
0.000165642
0.000265744
0.000266598
0.000267499
0.000268445
0.000269443
0.000270496
0.000271609
0.000272784
0.000274027
0.000275348
0.000276755
0.000278257
0.000279861
0.000281578
0.000283419
0.000285396
0.000287524
0.000289817
0.000292292
0.000294968
0.000297866
0.000301007
0.000304415
0.000308114
0.000312131
0.000316493
0.000321227
0.00032636
0.00033192
0.000337931
0.000344416
0.000351393
0.000358877
0.000366874
0.000375387
0.000384407
0.000393916
0.000403887
0.000414278
0.000425033
0.000436082
0.000447336
0.000458684
0.000469995
0.00048111
0.000491845
0.000501982
0.000511273
0.00051943
0.000526135
0.000531029
0.000533711
0.00053381
0.000530905
0.000524697
0.000514723
0.000500948
0.000482941
0.000460968
0.000434739
0.000404724
0.000369863
0.000330109
0.00029011
0.000250537
0.000214481
0.000180347
0.00015642
0.000141656
0.000288631
0.000289808
0.000291061
0.00029239
0.000293801
0.000295309
0.000296918
0.000298636
0.00030047
0.000302427
0.000304519
0.000306757
0.000309151
0.000311715
0.000314462
0.000317407
0.000320565
0.00032395
0.000327581
0.000331472
0.00033564
0.000340102
0.000344874
0.000349969
0.000355403
0.000361187
0.00036733
0.00037384
0.000380721
0.000387974
0.000395594
0.000403573
0.000411897
0.000420545
0.000429489
0.000438696
0.000448121
0.000457709
0.000467394
0.000477097
0.000486724
0.000496161
0.000505279
0.000513922
0.000521915
0.000529053
0.000535108
0.000539819
0.000542899
0.000544041
0.000542901
0.000539133
0.000532444
0.000522511
0.000509165
0.000492018
0.000471346
0.000446753
0.000418738
0.000387166
0.000349042
0.000308915
0.000269423
0.000230356
0.000196316
0.000162894
0.000139607
0.000123217
0.000144706
0.000320272
0.000322079
0.000324016
0.000326082
0.000328288
0.00033064
0.000333144
0.000335809
0.000338642
0.00034165
0.000344841
0.000348223
0.000351805
0.000355593
0.000359595
0.000363819
0.00036827
0.000372954
0.000377876
0.00038304
0.000388447
0.0003941
0.000399997
0.000406137
0.000412515
0.000419126
0.000425962
0.00043301
0.00044026
0.000447693
0.000455289
0.000463024
0.000470869
0.000478791
0.000486748
0.000494691
0.000502565
0.0005103
0.000517818
0.000525026
0.000531814
0.000538057
0.00054361
0.000548309
0.000551966
0.000554372
0.000555296
0.000554483
0.000551661
0.000546557
0.000538838
0.00052829
0.000514689
0.000497914
0.000477788
0.000454141
0.000427487
0.000397548
0.000361747
0.000323865
0.000283481
0.000244072
0.000208519
0.000173164
0.000146081
0.000122174
0.000108187
0.000121771
0.00015217
0.000367992
0.000370824
0.000373824
0.000376987
0.000380316
0.000383812
0.000387475
0.000391305
0.0003953
0.00039946
0.000403784
0.000408268
0.000412912
0.000417711
0.000422662
0.000427761
0.000433002
0.00043838
0.000443887
0.000449517
0.00045526
0.000461107
0.000467049
0.000473073
0.000479166
0.000485316
0.000491505
0.000497717
0.000503932
0.000510127
0.000516276
0.000522349
0.000528311
0.000534123
0.000539735
0.000545092
0.000550129
0.000554769
0.000558923
0.000562489
0.000565348
0.000567366
0.000568391
0.000568253
0.000566766
0.00056372
0.0005589
0.00055206
0.00054297
0.000531407
0.000517047
0.000499975
0.000479852
0.000457101
0.000430887
0.000402062
0.000367644
0.000331516
0.000292741
0.000255062
0.000216564
0.000182683
0.000152551
0.000124396
0.000105155
9.23019e-05
0.000105207
0.000130866
0.000153368
0.000440433
0.000443999
0.000447708
0.00045154
0.000455491
0.000459552
0.000463713
0.000467965
0.0004723
0.000476709
0.000481186
0.000485724
0.000490315
0.000494949
0.000499619
0.000504313
0.000509022
0.000513736
0.000518445
0.000523136
0.000527799
0.000532422
0.000536992
0.000541496
0.000545917
0.000550242
0.00055445
0.000558524
0.00056244
0.000566173
0.000569694
0.000572968
0.000575956
0.000578613
0.000580885
0.000582708
0.000584012
0.000584711
0.00058471
0.000583899
0.000582153
0.000579334
0.00057529
0.000569858
0.000562848
0.000554069
0.000543332
0.000530409
0.000515165
0.000497401
0.000476885
0.000454183
0.000428419
0.000400052
0.000366433
0.000331851
0.00029468
0.000258978
0.000221853
0.000187238
0.000155562
0.00012761
0.000105713
8.71427e-05
8.11582e-05
9.32333e-05
0.000112257
0.00013456
0.000150902
0.000533233
0.000536404
0.000539601
0.000542811
0.000546032
0.000549259
0.000552485
0.000555701
0.000558901
0.000562081
0.00056525
0.000568395
0.000571502
0.000574561
0.000577558
0.000580483
0.000583324
0.000586071
0.000588713
0.000591241
0.00059364
0.000595899
0.000598004
0.00059994
0.00060169
0.000603236
0.000604559
0.000605636
0.000606441
0.000606945
0.000607116
0.000606915
0.000606297
0.000605211
0.000603596
0.000601386
0.000598501
0.000594852
0.000590339
0.000584847
0.000578245
0.000570403
0.000561179
0.000550421
0.000537929
0.000523568
0.000507183
0.000488577
0.000467835
0.000444612
0.000419167
0.000389748
0.000357639
0.00032422
0.000288931
0.000255163
0.000219554
0.00018797
0.000154086
0.000128548
0.00010439
8.43779e-05
7.19784e-05
7.30969e-05
8.2488e-05
9.67908e-05
0.000116926
0.000136092
0.000140418
0.000624503
0.000626168
0.000627774
0.000629313
0.000630784
0.000632184
0.000633507
0.000634748
0.0006359
0.000636958
0.000637918
0.000638772
0.000639514
0.000640134
0.000640624
0.000640975
0.000641174
0.000641223
0.000641116
0.00064084
0.000640375
0.000639712
0.000638831
0.000637721
0.000636355
0.000634717
0.000632787
0.00063053
0.000627927
0.000624937
0.000621531
0.000617658
0.000613272
0.000608312
0.000602716
0.000596412
0.000589319
0.000581344
0.000572381
0.00056231
0.000550999
0.00053836
0.000524272
0.000508574
0.000491021
0.000471703
0.000450397
0.000427121
0.000400116
0.000371058
0.000340012
0.000307929
0.000275083
0.000243186
0.000210162
0.00018026
0.000148816
0.000123516
9.97127e-05
8.14254e-05
6.58304e-05
6.04927e-05
6.52466e-05
7.3485e-05
8.53072e-05
0.000104638
0.000122063
0.000131202
0.0001232
0.00068976
0.000689486
0.000689103
0.000688604
0.000687989
0.000687256
0.000686398
0.000685413
0.000684298
0.000683044
0.000681643
0.000680086
0.000678366
0.000676475
0.000674401
0.00067215
0.000669673
0.000667019
0.000664122
0.000661029
0.000657675
0.000654122
0.000650278
0.000646206
0.000641789
0.000637079
0.000632049
0.00062659
0.00062079
0.000614494
0.000607771
0.000600463
0.000592589
0.000584035
0.000574776
0.000564736
0.000553825
0.000541942
0.000528973
0.000514775
0.000499275
0.000482538
0.000464369
0.000444491
0.000422162
0.000397278
0.000370746
0.000342307
0.000312535
0.000282692
0.000252205
0.000222776
0.000192725
0.000164914
0.000136767
0.000113743
9.05324e-05
7.54726e-05
5.9912e-05
5.11359e-05
5.23312e-05
5.76715e-05
6.4525e-05
7.86441e-05
9.69938e-05
0.000111589
0.000120795
0.000120304
0.000103667
0.00071083
0.000708881
0.000706761
0.000704478
0.000702037
0.000699441
0.000696689
0.000693784
0.000690738
0.000687511
0.000684086
0.000680459
0.000676625
0.000672583
0.000668306
0.00066394
0.000659004
0.000654309
0.000648908
0.000643738
0.00063783
0.000632127
0.000625594
0.000619373
0.000612127
0.000605057
0.000597664
0.000589295
0.000581282
0.000572019
0.000562934
0.000552564
0.000541977
0.000530372
0.000518215
0.000505221
0.000491273
0.000476246
0.00046001
0.000442415
0.000423359
0.000402053
0.000379703
0.000355165
0.000329209
0.000302383
0.000275231
0.000247709
0.00022037
0.000193391
0.000166781
0.000141995
0.000118406
9.76777e-05
7.87052e-05
6.38949e-05
5.1764e-05
4.34218e-05
4.2586e-05
4.58863e-05
4.82898e-05
5.78293e-05
7.48118e-05
9.18491e-05
0.000104443
0.000111996
0.000114002
0.000106728
8.58855e-05
0.000676443
0.000673076
0.00066958
0.000665946
0.000662168
0.000658241
0.000654157
0.000649913
0.000645502
0.000640918
0.00063615
0.000631189
0.000626027
0.000620656
0.000615067
0.000609261
0.000603199
0.000596916
0.000590376
0.000583617
0.000576575
0.000569276
0.00056165
0.000553729
0.000545439
0.000536809
0.000527795
0.000518322
0.000508409
0.000497948
0.000486932
0.000475254
0.000462762
0.000449375
0.000434943
0.000419359
0.000402546
0.000384441
0.000365007
0.000344143
0.000322384
0.000299632
0.000276217
0.00025194
0.000227688
0.000203105
0.000178929
0.000155616
0.000133456
0.000112785
9.39627e-05
7.69326e-05
6.317e-05
5.04246e-05
4.08609e-05
3.4871e-05
3.40012e-05
3.50818e-05
3.5759e-05
3.96137e-05
5.09769e-05
6.85183e-05
8.44843e-05
9.70503e-05
0.000104819
0.000106505
0.000104402
9.36545e-05
7.26606e-05
0.000580156
0.000576428
0.000572545
0.000568509
0.000564324
0.000559988
0.0005555
0.000550856
0.000546052
0.000541082
0.000535941
0.000530621
0.000525116
0.000519441
0.000513584
0.000507532
0.000501274
0.000494796
0.000488088
0.000481139
0.000473934
0.000466456
0.000458677
0.000450569
0.000442088
0.000433178
0.00042378
0.00041383
0.000403265
0.00039201
0.000379996
0.000367126
0.000353461
0.000338934
0.000323482
0.000307066
0.00028966
0.000271312
0.000252068
0.000232124
0.000211578
0.000190677
0.000170022
0.000149552
0.000130202
0.000111869
9.46879e-05
8.01174e-05
6.61761e-05
5.4796e-05
4.42191e-05
3.57024e-05
2.9394e-05
2.58502e-05
2.52711e-05
2.54094e-05
2.50346e-05
2.54613e-05
3.05324e-05
4.27661e-05
5.86201e-05
7.42784e-05
8.72589e-05
9.61936e-05
9.99428e-05
9.88581e-05
9.46685e-05
8.30982e-05
6.44452e-05
0.000424874
0.000421607
0.000418236
0.000414764
0.000411199
0.000407533
0.000403762
0.000399879
0.000395878
0.000391753
0.000387499
0.000383108
0.000378575
0.000373892
0.000369057
0.000364059
0.000358894
0.000353545
0.000348013
0.000342279
0.000336323
0.000330117
0.000323602
0.000316651
0.000309218
0.000301263
0.000292745
0.000283617
0.000273835
0.000263345
0.00025211
0.000240102
0.000227286
0.000213683
0.000199336
0.000184357
0.00016886
0.000153106
0.000137279
0.000121732
0.000106733
9.25142e-05
7.94387e-05
6.74064e-05
5.69333e-05
4.77101e-05
3.95381e-05
3.34704e-05
2.65453e-05
2.19414e-05
1.88124e-05
1.71682e-05
1.54199e-05
1.5369e-05
1.43424e-05
1.1853e-05
1.35737e-05
1.68891e-05
2.58809e-05
3.99997e-05
5.61479e-05
6.9942e-05
8.08887e-05
8.7911e-05
9.07855e-05
8.98606e-05
8.60632e-05
7.63062e-05
6.15685e-05
0.000236357
0.000234407
0.000232396
0.000230324
0.00022819
0.000225994
0.000223732
0.000221402
0.000219
0.000216524
0.000213969
0.00021133
0.000208604
0.000205782
0.000202868
0.000199837
0.000196716
0.000193445
0.000190089
0.000186567
0.000182835
0.000178789
0.000174271
0.000169278
0.000163775
0.000157744
0.00015117
0.000144044
0.000136404
0.000128201
0.000119544
0.000110534
0.000101291
9.19632e-05
8.27022e-05
7.3709e-05
6.51156e-05
5.71471e-05
4.97079e-05
4.28861e-05
3.67547e-05
3.12935e-05
2.65553e-05
2.23478e-05
1.89682e-05
1.56431e-05
1.30445e-05
1.04835e-05
8.83819e-06
7.60563e-06
6.30048e-06
4.64236e-06
4.34844e-06
5.33579e-06
5.37656e-06
5.27018e-06
5.86076e-06
8.92505e-06
1.45075e-05
2.37516e-05
3.60667e-05
4.88235e-05
5.98153e-05
6.71793e-05
7.23826e-05
7.39241e-05
7.31125e-05
6.74264e-05
5.84265e-05
7.21296e-05
7.14461e-05
7.075e-05
7.00402e-05
6.93146e-05
6.85711e-05
6.78079e-05
6.70241e-05
6.62174e-05
6.53873e-05
6.45315e-05
6.36482e-05
6.27392e-05
6.17915e-05
6.08299e-05
5.97955e-05
5.87899e-05
5.76349e-05
5.66015e-05
5.52255e-05
5.35225e-05
5.15366e-05
4.93319e-05
4.69448e-05
4.4426e-05
4.18173e-05
3.91547e-05
3.64809e-05
3.38156e-05
3.12103e-05
2.87148e-05
2.63203e-05
2.40341e-05
2.18552e-05
1.97882e-05
1.78101e-05
1.59382e-05
1.41064e-05
1.23943e-05
1.07655e-05
9.22619e-06
7.7287e-06
6.31617e-06
4.98565e-06
3.74559e-06
2.61302e-06
1.91087e-06
1.39755e-06
1.31745e-06
1.43958e-06
1.33047e-06
1.14549e-06
9.40294e-07
7.97346e-07
6.29268e-07
5.84262e-07
7.84045e-07
1.25122e-06
2.17447e-06
4.12283e-06
7.73762e-06
1.34684e-05
1.99347e-05
2.40847e-05
2.835e-05
3.12146e-05
3.24975e-05
3.2011e-05
3.0548e-05
7.03546e-06
7.1225e-06
7.20946e-06
7.29617e-06
7.38237e-06
7.4678e-06
7.55254e-06
7.63601e-06
7.71867e-06
7.79925e-06
7.87898e-06
7.95552e-06
8.03142e-06
8.10139e-06
8.17824e-06
8.21349e-06
8.27115e-06
8.32081e-06
8.34765e-06
8.38447e-06
8.36411e-06
8.36874e-06
8.39935e-06
8.39159e-06
8.38575e-06
8.36916e-06
8.32175e-06
8.23087e-06
8.12417e-06
7.89764e-06
7.85594e-06
7.69665e-06
7.46716e-06
7.16381e-06
6.78066e-06
6.30852e-06
5.73746e-06
5.05357e-06
4.25257e-06
3.32223e-06
2.32873e-06
1.372e-06
6.14453e-07
2.1434e-07
1.51263e-07
1.55773e-07
1.55128e-07
1.39987e-07
1.26019e-07
1.00968e-07
7.37514e-08
5.98672e-08
4.91182e-08
4.12341e-08
3.80273e-08
4.36961e-08
6.28112e-08
9.99976e-08
1.59861e-07
2.41653e-07
3.37651e-07
4.38891e-07
5.50161e-07
6.79266e-07
7.95185e-07
8.80508e-07
9.11795e-07
9.30527e-07
9.33093e-07
0.000169966
0.000170013
0.000170003
0.000170039
0.000170086
0.000170092
0.000170083
0.000170005
0.000169863
0.000169808
0.000169795
0.000169738
0.000169878
0.000169958
0.000169975
0.000169804
0.00016975
0.00016975
0.000169768
0.000169666
0.000169578
0.00016966
0.00016962
0.000169649
0.000169603
0.000169502
0.000169574
0.000169588
0.000169602
0.000169645
0.000169581
0.000169665
0.0001697
0.000169735
0.000169817
0.000169792
0.000169884
0.000169988
0.000170089
0.000170336
0.000170247
0.000170355
0.000170334
0.000170401
0.000170564
0.000170568
0.000170608
0.000170676
0.000170834
0.000171034
0.000171224
0.000171509
0.000171683
0.000171787
0.000171913
0.000172017
0.000172124
0.000172234
0.000172338
0.000171923
0.000171869
0.000171786
0.000171657
0.00017161
0.000171619
0.000171497
0.000171456
0.000171421
0.000171454
0.000171433
0.000171504
0.000171557
0.000171561
0.000171398
0.000171337
0.000171313
0.000171309
0.000171265
0.000171149
0.000171125
0.000171158
0.000171124
0.000171156
0.000171083
0.000171017
0.000171075
0.000171109
0.000171084
0.000171113
0.000171102
0.000171168
0.000171202
0.000171225
0.00017134
0.000171347
0.000171416
0.000171535
0.000171635
0.000171902
0.000171946
0.000172015
0.000172056
0.000172049
0.000172246
0.000172401
0.000172447
0.000172465
0.000172546
0.000172699
0.000172863
0.000173096
0.000173334
0.000173507
0.00017367
0.000173805
0.000173921
0.000174044
0.000174144
0.000173808
0.000173714
0.000173566
0.000173575
0.000173551
0.000173411
0.00017335
0.000173326
0.000173375
0.000173439
0.000173446
0.000173439
0.00017335
0.000173225
0.000173173
0.000173167
0.000173149
0.000173134
0.000172983
0.000172903
0.000172932
0.000172933
0.000172899
0.000172916
0.000172836
0.000172789
0.000172837
0.000172885
0.000172835
0.000172856
0.000172886
0.000172937
0.000172974
0.000172993
0.00017313
0.00017318
0.000173229
0.000173348
0.000173442
0.000173719
0.000173838
0.000173955
0.000174027
0.000174095
0.000174161
0.000174316
0.000174455
0.000174531
0.000174599
0.000174711
0.00017485
0.000175028
0.000175249
0.000175456
0.000175649
0.000175825
0.000175975
0.000176126
0.000176243
0.000175976
0.000175957
0.000175746
0.000175772
0.000175625
0.000175636
0.000175673
0.0001757
0.000175704
0.000175666
0.000175607
0.000175465
0.00017542
0.000175351
0.00017535
0.000175325
0.000175293
0.000175108
0.000175013
0.000175014
0.000175031
0.000174993
0.00017498
0.000174971
0.000174884
0.000174861
0.000174897
0.000174947
0.000174886
0.000174903
0.00017496
0.000175002
0.000175046
0.000175071
0.000175218
0.000175299
0.000175359
0.000175477
0.000175561
0.000175826
0.00017601
0.000176171
0.000176298
0.000176396
0.000176464
0.000176584
0.00017674
0.000176872
0.000176975
0.000177083
0.000177209
0.000177356
0.000177538
0.000177734
0.000177932
0.000178128
0.000178305
0.000178486
0.000178628
0.00017863
0.000178454
0.000178496
0.000178463
0.00017853
0.000178527
0.000178492
0.000178404
0.000178334
0.000178157
0.000178176
0.000177998
0.000177921
0.000177905
0.000177821
0.000177817
0.000177619
0.000177506
0.000177493
0.000177475
0.000177472
0.000177415
0.000177396
0.000177372
0.000177284
0.000177274
0.000177302
0.000177347
0.000177283
0.000177301
0.000177374
0.000177412
0.000177465
0.0001775
0.000177652
0.000177765
0.000177844
0.000177968
0.00017805
0.00017829
0.000178517
0.000178721
0.000178898
0.00017905
0.000179159
0.000179274
0.000179421
0.000179574
0.000179714
0.000179844
0.000179978
0.000180121
0.000180281
0.000180458
0.000180644
0.000180837
0.000181021
0.000181218
0.000181376
0.000181772
0.000181734
0.000181579
0.000181545
0.000181543
0.000181594
0.000181537
0.000181324
0.000181207
0.000181081
0.000181007
0.000180827
0.000180832
0.00018091
0.000180608
0.000180613
0.000180441
0.000180382
0.000180332
0.000180361
0.000180327
0.00018025
0.000180231
0.000180181
0.000180102
0.000180098
0.00018012
0.000180156
0.000180094
0.000180115
0.000180198
0.000180237
0.000180298
0.000180344
0.000180498
0.000180641
0.000180746
0.000180886
0.000180978
0.00018119
0.000181439
0.00018168
0.000181901
0.000182106
0.000182274
0.000182422
0.000182578
0.000182743
0.000182907
0.000183065
0.000183221
0.000183377
0.000183539
0.000183711
0.000183889
0.000184077
0.000184259
0.00018446
0.000184625
0.000185378
0.000185432
0.000185313
0.000185263
0.000185313
0.000185078
0.000184978
0.00018474
0.000184634
0.000184521
0.000184456
0.000184364
0.000184457
0.000184112
0.00018403
0.000183947
0.000183799
0.000183769
0.000183781
0.000183717
0.000183652
0.000183591
0.00018355
0.000183486
0.00018342
0.000183415
0.00018343
0.000183457
0.000183401
0.000183424
0.000183514
0.000183558
0.000183627
0.000183687
0.000183842
0.00018401
0.000184146
0.00018431
0.000184425
0.000184619
0.000184871
0.000185141
0.000185401
0.000185652
0.00018588
0.000186082
0.000186274
0.000186465
0.000186654
0.000186841
0.000187024
0.000187205
0.000187386
0.000187569
0.000187755
0.000187947
0.000188132
0.000188339
0.000188505
0.0001897
0.000189458
0.000189637
0.000189583
0.000189287
0.000189079
0.000188993
0.00018881
0.000188753
0.000188623
0.000188469
0.000188354
0.000188359
0.000188067
0.000188
0.000187887
0.000187835
0.00018783
0.000187702
0.000187638
0.000187608
0.000187522
0.000187465
0.000187388
0.000187331
0.000187323
0.000187331
0.000187348
0.0001873
0.000187327
0.000187421
0.000187473
0.000187551
0.000187627