/*--------------------------------*- C++ -*----------------------------------*\
| =========                 |                                                 |
| \\      /  F ield         | OpenFOAM: The Open Source CFD Toolbox           |
|  \\    /   O peration     | Version:  2312                                  |
|   \\  /    A nd           | Website:  www.openfoam.com                      |
|    \\/     M anipulation  |                                                 |
\*---------------------------------------------------------------------------*/
FoamFile
{
    version     2.0;
    format      ascii;
    arch        "LSB;label=32;scalar=64";
    class       volScalarField;
    location    "1000";
    object      omega;
}
// * * * * * * * * * * * * * * * * * * * * * * * * * * * * * * * * * * * * * //

dimensions      [0 0 -1 0 0 0 0];

internalField   nonuniform List<scalar> 
76025
(
0.0296446
0.0296579
0.0296555
0.0296614
0.029661
0.0296794
0.02969
0.0297089
0.0297197
0.0297349
0.0297482
0.029765
0.0297873
0.0298092
0.0298379
0.0298635
0.0298917
0.0299214
0.0299476
0.02998
0.030013
0.0300513
0.0300859
0.0301255
0.0301649
0.0302046
0.03025
0.0302864
0.0303344
0.0303736
0.0304164
0.0304651
0.0305142
0.03057
0.0306262
0.0306871
0.0307585
0.0308342
0.0309243
0.0310215
0.0311314
0.0312633
0.0314136
0.0315882
0.0317872
0.0320229
0.0322875
0.0325963
0.0329537
0.0333506
0.0338128
0.0343309
0.0349233
0.0355457
0.03633
0.0371348
0.0381037
0.0391999
0.0404977
0.0420195
0.0437135
0.0457672
0.048057
0.050651
0.0534747
0.056451
0.0597095
0.0634823
0.0672614
0.0299509
0.0299632
0.0299737
0.0299851
0.0299911
0.0300035
0.0300146
0.0300294
0.0300442
0.03006
0.0300761
0.030093
0.0301125
0.030133
0.0301584
0.0301838
0.0302128
0.0302423
0.0302736
0.0303055
0.0303392
0.0303758
0.0304136
0.0304536
0.0304966
0.0305391
0.0305864
0.0306343
0.030686
0.0307409
0.0307997
0.0308599
0.0309273
0.0309983
0.0310772
0.0311635
0.0312581
0.0313659
0.0314858
0.0316205
0.031773
0.0319437
0.032141
0.032362
0.032615
0.0328994
0.033223
0.0335885
0.0339983
0.0344625
0.0349801
0.0355688
0.0362231
0.0369815
0.0378297
0.0388164
0.0399515
0.0412737
0.0428051
0.0445635
0.0465915
0.0488538
0.0513282
0.054057
0.0569679
0.0602588
0.0639133
0.0682124
0.0732774
0.0303117
0.0303256
0.0303393
0.0303546
0.0303677
0.030382
0.0303963
0.0304117
0.0304283
0.0304459
0.0304647
0.0304841
0.0305053
0.0305272
0.0305525
0.0305792
0.030609
0.0306406
0.0306749
0.030711
0.030749
0.0307894
0.0308324
0.0308778
0.0309267
0.0309778
0.0310329
0.0310916
0.0311548
0.0312225
0.0312963
0.031375
0.0314609
0.0315542
0.0316563
0.0317685
0.0318918
0.0320289
0.032181
0.0323502
0.0325385
0.0327492
0.0329858
0.0332506
0.0335474
0.0338799
0.0342536
0.0346721
0.0351424
0.03567
0.0362658
0.0369372
0.0377026
0.0385728
0.0395737
0.0407268
0.0420601
0.0435974
0.0453569
0.0473566
0.0495853
0.0520498
0.0547291
0.0576819
0.0608976
0.0646021
0.0687403
0.0737828
0.0794901
0.0307245
0.0307433
0.0307615
0.0307801
0.0307983
0.0308169
0.0308356
0.0308548
0.0308748
0.0308956
0.0309177
0.0309407
0.0309654
0.0309913
0.0310192
0.0310492
0.0310817
0.0311168
0.0311548
0.0311956
0.0312393
0.0312861
0.0313361
0.0313895
0.0314465
0.0315077
0.0315736
0.0316445
0.0317211
0.0318038
0.0318935
0.0319905
0.0320961
0.0322111
0.0323368
0.0324743
0.0326253
0.0327916
0.0329752
0.0331781
0.0334025
0.033652
0.03393
0.0342398
0.0345855
0.0349719
0.0354044
0.0358894
0.0364341
0.0370482
0.0377424
0.0385315
0.039432
0.040465
0.0416534
0.0430212
0.0445908
0.0463765
0.0483895
0.0506252
0.0530843
0.0557682
0.0586886
0.0619363
0.0655265
0.0697583
0.074547
0.0804679
0.0873512
0.0312004
0.0312251
0.0312493
0.031273
0.0312966
0.0313203
0.0313444
0.0313688
0.0313939
0.0314197
0.0314465
0.0314745
0.0315041
0.0315352
0.0315682
0.0316034
0.031641
0.0316814
0.0317249
0.0317718
0.0318223
0.0318766
0.031935
0.0319977
0.032065
0.0321377
0.0322163
0.0323011
0.0323929
0.0324922
0.0325999
0.0327168
0.0328438
0.0329823
0.0331333
0.0332984
0.0334791
0.0336775
0.0338957
0.034136
0.034401
0.0346946
0.0350207
0.0353834
0.0357878
0.0362395
0.0367455
0.0373141
0.0379551
0.0386807
0.0395057
0.0404473
0.0415256
0.0427618
0.0441773
0.0457893
0.0476111
0.0496457
0.0518952
0.0543533
0.057034
0.0599556
0.0631788
0.0668139
0.0709242
0.0758672
0.0814668
0.0885799
0.0967614
0.0317629
0.0317919
0.0318212
0.0318504
0.0318798
0.0319095
0.0319398
0.0319705
0.0320019
0.0320341
0.0320674
0.0321019
0.0321381
0.0321759
0.0322159
0.0322581
0.032303
0.0323509
0.0324021
0.0324571
0.0325162
0.0325796
0.032648
0.0327214
0.0328008
0.0328868
0.0329798
0.0330804
0.0331893
0.0333073
0.0334353
0.0335743
0.0337253
0.0338898
0.0340691
0.0342649
0.034479
0.0347137
0.0349713
0.0352548
0.0355672
0.0359129
0.0362969
0.0367243
0.0372015
0.037736
0.0383368
0.0390147
0.0397826
0.0406557
0.041651
0.0427875
0.0440842
0.0455586
0.0472247
0.0490905
0.0511593
0.0534284
0.0559027
0.0585875
0.0615247
0.0647573
0.0683961
0.0725601
0.0773688
0.0832027
0.0898137
0.0984412
0.108171
0.0324382
0.0324694
0.0325022
0.0325357
0.0325703
0.0326059
0.0326425
0.0326801
0.0327187
0.0327585
0.0327996
0.0328422
0.0328866
0.032933
0.0329817
0.033033
0.0330872
0.0331448
0.033206
0.0332714
0.0333414
0.0334164
0.0334967
0.0335836
0.0336775
0.0337791
0.033889
0.0340079
0.0341367
0.0342763
0.0344276
0.0345919
0.0347705
0.0349651
0.0351771
0.0354086
0.0356618
0.0359393
0.0362441
0.0365797
0.0369503
0.0373609
0.0378181
0.0383287
0.0389009
0.0395445
0.0402712
0.0410942
0.0420286
0.043091
0.0442983
0.0456667
0.0472098
0.0489373
0.0508541
0.0529611
0.0552589
0.0577514
0.0604581
0.0634088
0.0666775
0.0703326
0.0745297
0.0793852
0.0850902
0.0920167
0.0999012
0.110488
0.121948
0.0332505
0.0332839
0.0333195
0.0333566
0.0333956
0.0334366
0.0334794
0.0335238
0.03357
0.033618
0.0336678
0.0337196
0.0337737
0.0338303
0.0338895
0.0339519
0.0340176
0.0340871
0.0341608
0.0342392
0.0343229
0.034412
0.0345079
0.0346113
0.0347229
0.0348434
0.0349737
0.0351146
0.035267
0.0354322
0.0356112
0.0358057
0.0360172
0.0362476
0.0364989
0.0367736
0.0370745
0.0374049
0.0377688
0.0381706
0.0386159
0.0391111
0.0396647
0.0402858
0.0409848
0.0417736
0.0426657
0.0436755
0.0448178
0.0461072
0.0475559
0.0491737
0.0509664
0.0529365
0.0550845
0.0574134
0.0599326
0.0626641
0.0656509
0.0689514
0.0726686
0.0768937
0.0818206
0.0875608
0.0943987
0.102663
0.112218
0.125291
0.138759
0.0342234
0.0342608
0.0343005
0.034342
0.034386
0.0344326
0.0344817
0.0345333
0.0345874
0.0346441
0.0347033
0.0347654
0.0348304
0.0348985
0.03497
0.0350453
0.0351246
0.0352084
0.0352971
0.0353913
0.0354913
0.0355985
0.0357136
0.0358374
0.0359708
0.0361146
0.0362698
0.0364375
0.0366189
0.0368155
0.0370286
0.0372603
0.0375126
0.0377877
0.0380886
0.0384182
0.0387805
0.0391798
0.0396213
0.0401111
0.0406565
0.0412656
0.0419492
0.0427181
0.0435841
0.0445598
0.0456582
0.0468915
0.0482707
0.0498044
0.0514983
0.0533554
0.055377
0.0575655
0.0599272
0.0624774
0.0652444
0.0682742
0.0716346
0.0754106
0.0797292
0.0847032
0.090564
0.0974271
0.105693
0.11563
0.127463
0.143606
0.160251
0.0353839
0.035428
0.0354744
0.0355227
0.0355737
0.0356277
0.0356847
0.0357448
0.035808
0.0358745
0.0359445
0.036018
0.0360954
0.0361767
0.0362624
0.0363526
0.0364479
0.0365485
0.0366552
0.036768
0.0368887
0.0370181
0.0371568
0.0373059
0.0374663
0.0376391
0.0378255
0.038027
0.038245
0.0384815
0.0387385
0.0390182
0.0393236
0.0396578
0.0400245
0.040428
0.0408734
0.0413666
0.0419144
0.0425245
0.043206
0.0439684
0.044823
0.0457809
0.0468532
0.04805
0.0493803
0.0508512
0.0524677
0.0542328
0.056148
0.0582159
0.0604416
0.0628372
0.0654236
0.0682359
0.0713243
0.0747586
0.0786288
0.0830439
0.0881532
0.0940962
0.101148
0.109447
0.119535
0.131655
0.146665
0.166708
0.19038
0.0367678
0.0368217
0.036878
0.0369363
0.0369974
0.0370618
0.0371295
0.0372007
0.0372757
0.0373546
0.0374377
0.0375252
0.0376174
0.0377146
0.0378171
0.0379253
0.0380397
0.0381607
0.0382891
0.0384262
0.0385729
0.03873
0.0388985
0.0390797
0.0392746
0.0394849
0.0397121
0.039958
0.0402248
0.0405149
0.0408311
0.0411767
0.0415555
0.0419717
0.0424302
0.0429369
0.0434981
0.044121
0.0448136
0.0455846
0.0464429
0.047398
0.0484591
0.0496347
0.050932
0.0523564
0.0539118
0.0556008
0.0574251
0.0593877
0.0614937
0.0637534
0.0661845
0.0688152
0.0716853
0.0748508
0.0783825
0.0823719
0.0869299
0.0921909
0.0983308
0.105529
0.114114
0.124287
0.136758
0.151886
0.171427
0.197315
0.235396
0.038426
0.0384926
0.0385621
0.0386339
0.0387089
0.0387875
0.0388699
0.0389563
0.039047
0.0391424
0.0392428
0.0393485
0.0394598
0.0395773
0.0397014
0.0398327
0.0399713
0.0401192
0.0402772
0.0404461
0.0406269
0.040821
0.0410294
0.0412539
0.0414962
0.0417581
0.0420419
0.0423502
0.0426859
0.0430523
0.0434531
0.0438927
0.0443759
0.0449081
0.0454951
0.0461436
0.0468603
0.0476526
0.0485278
0.0494931
0.0505555
0.0517212
0.0529956
0.0543831
0.055887
0.0575093
0.0592524
0.0611194
0.0631163
0.0652531
0.0675459
0.0700188
0.0727057
0.0756526
0.0789183
0.082578
0.0867224
0.091465
0.096942
0.103318
0.11081
0.119658
0.130257
0.142948
0.158667
0.178201
0.204589
0.240855
0.306484
0.0404303
0.040513
0.0405994
0.0406887
0.0407821
0.0408798
0.0409821
0.0410893
0.0412018
0.0413199
0.041444
0.0415748
0.0417127
0.0418584
0.0420122
0.042176
0.0423508
0.0425374
0.0427371
0.0429511
0.0431809
0.043428
0.0436944
0.0439821
0.0442934
0.0446311
0.0449981
0.0453978
0.0458337
0.04631
0.0468312
0.0474022
0.0480281
0.0487143
0.0494665
0.0502902
0.051191
0.0521739
0.0532439
0.0544049
0.0556607
0.0570141
0.058468
0.060025
0.0616884
0.0634635
0.0653568
0.067378
0.0695436
0.0718753
0.0744032
0.0771668
0.0802166
0.083616
0.0874418
0.0917894
0.0967723
0.102531
0.109238
0.117098
0.126396
0.137462
0.150783
0.167009
0.187429
0.213901
0.251571
0.3081
0.414139
0.0428844
0.0429879
0.0430965
0.0432094
0.0433276
0.0434517
0.0435819
0.0437185
0.0438621
0.0440131
0.0441722
0.04434
0.0445176
0.0447067
0.0449081
0.0451229
0.0453526
0.0455983
0.0458618
0.0461447
0.046449
0.0467769
0.0471307
0.0475131
0.0479269
0.0483751
0.0488612
0.0493887
0.0499613
0.050583
0.0512579
0.05199
0.0527833
0.0536416
0.0545685
0.0555675
0.0566415
0.0577932
0.0590252
0.0603398
0.0617398
0.0632283
0.0648097
0.0664902
0.0682783
0.0701861
0.0722298
0.0744311
0.0768191
0.079426
0.0822971
0.085488
0.0890651
0.0931108
0.0977218
0.103019
0.109148
0.116283
0.124662
0.134536
0.146317
0.160452
0.177614
0.199146
0.226927
0.265241
0.323096
0.415761
0.607851
0.0459459
0.0460792
0.0462199
0.0463672
0.0465224
0.046686
0.0468584
0.0470401
0.0472317
0.0474346
0.0476502
0.0478793
0.048123
0.0483825
0.048659
0.0489541
0.0492693
0.0496064
0.0499671
0.0503535
0.0507677
0.0512119
0.0516884
0.0521998
0.0527486
0.0533373
0.0539687
0.0546455
0.0553702
0.0561454
0.0569739
0.0578576
0.058799
0.0598001
0.0608632
0.0619903
0.0631838
0.0644465
0.0657819
0.0671944
0.0686897
0.0702754
0.0719616
0.0737611
0.0756906
0.0777711
0.0800292
0.0824977
0.0852175
0.0882392
0.0916234
0.0954403
0.0997749
0.104733
0.11044
0.117052
0.124764
0.1338
0.14451
0.157191
0.172511
0.191077
0.21411
0.244308
0.284679
0.344719
0.43782
0.604198
0.891794
0.0498785
0.0500597
0.050252
0.0504551
0.0506697
0.0508982
0.0511407
0.051398
0.0516706
0.0519594
0.0522655
0.0525898
0.0529336
0.0532979
0.0536841
0.0540934
0.0545272
0.0549869
0.055474
0.0559898
0.0565359
0.0571137
0.0577249
0.0583708
0.0590529
0.0597727
0.0605318
0.0613315
0.0621735
0.0630594
0.0639908
0.0649697
0.0659981
0.0670787
0.0682147
0.0694099
0.070669
0.0719979
0.073404
0.0748964
0.0764863
0.0781875
0.080017
0.0819956
0.0841483
0.0865058
0.0891054
0.0919921
0.095221
0.0988591
0.10299
0.107711
0.113124
0.119372
0.126621
0.135082
0.145035
0.156762
0.170842
0.187573
0.208251
0.233788
0.266745
0.312211
0.376192
0.475392
0.63352
0.912676
1.12969
0.0551374
0.0553984
0.0556764
0.0559702
0.0562808
0.0566088
0.0569546
0.0573187
0.0577015
0.0581036
0.0585254
0.0589676
0.0594306
0.0599151
0.0604216
0.0609508
0.0615031
0.0620793
0.06268
0.0633057
0.0639571
0.064635
0.0653401
0.0660734
0.0668358
0.0676285
0.068453
0.0693108
0.0702041
0.0711353
0.0721073
0.0731235
0.0741883
0.0753069
0.0764852
0.0777307
0.0790521
0.0804597
0.0819657
0.0835849
0.0853343
0.0872347
0.0893102
0.09159
0.0941089
0.0969085
0.100039
0.103561
0.10755
0.112097
0.117314
0.123337
0.130297
0.138395
0.147864
0.158995
0.172234
0.187901
0.207137
0.230132
0.259728
0.297404
0.34842
0.42293
0.532009
0.697307
0.962999
1.17249
1.19654
0.0623814
0.062737
0.063112
0.0635049
0.063916
0.0643452
0.0647922
0.0652567
0.0657385
0.0662376
0.0667537
0.0672869
0.0678371
0.0684043
0.0689886
0.06959
0.0702089
0.0708454
0.0715
0.0721733
0.0728658
0.0735786
0.0743129
0.07507
0.0758518
0.0766604
0.0774986
0.0783694
0.0792768
0.0802251
0.0812197
0.0822667
0.0833735
0.0845484
0.0858012
0.0871431
0.0885874
0.0901493
0.0918463
0.0936991
0.0957317
0.0979723
0.100454
0.103217
0.106309
0.109786
0.113717
0.118188
0.123303
0.129191
0.136014
0.143942
0.153173
0.164001
0.176791
0.191908
0.210261
0.232065
0.259952
0.293497
0.339241
0.400023
0.485917
0.617159
0.8034
1.0633
1.21742
1.23886
1.17403
0.0720808
0.0724868
0.0729132
0.0733571
0.073818
0.0742949
0.0747869
0.075293
0.0758126
0.0763453
0.0768911
0.0774497
0.0780212
0.0786057
0.0792031
0.0798139
0.0804384
0.0810774
0.0817317
0.0824025
0.0830913
0.0837999
0.0845306
0.0852861
0.0860696
0.0868848
0.0877362
0.088629
0.0895693
0.0905638
0.0916208
0.0927493
0.0939601
0.0952651
0.0966783
0.0982155
0.099895
0.101738
0.103768
0.106014
0.108509
0.111292
0.114408
0.117914
0.121876
0.126376
0.131514
0.137412
0.144228
0.152144
0.161395
0.172201
0.184909
0.199929
0.218006
0.239461
0.266565
0.298622
0.342178
0.395072
0.472469
0.580334
0.733074
0.960787
1.18753
1.26895
1.2622
1.19421
1.04385
0.0843824
0.0847972
0.0852228
0.0856584
0.0861047
0.0865616
0.087029
0.0875068
0.0879948
0.0884943
0.0890087
0.0895372
0.0900795
0.0906354
0.0912052
0.0917896
0.0923894
0.0930061
0.0936418
0.0942985
0.0949789
0.0956859
0.0964233
0.097195
0.0980061
0.0988621
0.0997696
0.100736
0.10177
0.102881
0.104081
0.105382
0.106799
0.108349
0.110051
0.111927
0.114002
0.116304
0.118869
0.121736
0.12495
0.12857
0.132661
0.137308
0.142606
0.148681
0.155686
0.163811
0.173294
0.184388
0.197465
0.212841
0.231262
0.25319
0.280511
0.312716
0.355956
0.406064
0.480408
0.572656
0.714455
0.914758
1.16868
1.30286
1.31398
1.27916
1.16815
1.02557
0.903836
0.0995659
0.0999634
0.100365
0.100772
0.101185
0.101605
0.102032
0.102468
0.102913
0.103367
0.103833
0.104313
0.104806
0.105315
0.105841
0.106387
0.106954
0.107547
0.108171
0.108828
0.109522
0.110257
0.111038
0.111871
0.112763
0.113722
0.114757
0.115878
0.117097
0.118428
0.119886
0.121489
0.123257
0.125214
0.127386
0.129805
0.132507
0.135534
0.138936
0.142773
0.147113
0.152047
0.157676
0.164134
0.17157
0.180192
0.190241
0.202029
0.215937
0.232281
0.251947
0.275177
0.303866
0.337884
0.382479
0.433829
0.508671
0.594116
0.732333
0.907759
1.16823
1.37159
1.39289
1.36012
1.2618
1.07742
0.953241
0.863927
0.789807
0.118642
0.11901
0.119379
0.119752
0.12013
0.120514
0.120906
0.121307
0.121718
0.122143
0.122582
0.123037
0.123511
0.124006
0.124526
0.125073
0.125651
0.126265
0.12692
0.12762
0.128376
0.129196
0.130088
0.131058
0.132118
0.133277
0.134547
0.135944
0.137484
0.139187
0.141073
0.143171
0.145509
0.148121
0.151047
0.154336
0.158043
0.162235
0.16699
0.172404
0.178593
0.185708
0.193912
0.203451
0.214557
0.227638
0.243066
0.261387
0.283217
0.309149
0.341058
0.378609
0.426605
0.482911
0.561549
0.650637
0.78963
0.949847
1.21197
1.46691
1.52048
1.48481
1.39077
1.13407
0.926066
0.831693
0.783544
0.741376
0.701962
0.143729
0.14408
0.144433
0.14479
0.145154
0.145526
0.14591
0.146307
0.146721
0.147153
0.147607
0.148086
0.148593
0.149132
0.149709
0.150327
0.150993
0.151712
0.152492
0.153342
0.154272
0.155297
0.156427
0.157672
0.159048
0.160569
0.162256
0.164129
0.166214
0.168541
0.171144
0.174064
0.177347
0.181051
0.185241
0.189998
0.195415
0.201608
0.20872
0.216924
0.226434
0.237537
0.250519
0.2659
0.284019
0.305751
0.331512
0.362479
0.399513
0.444009
0.498975
0.564792
0.64896
0.752514
0.897946
1.06956
1.3261
1.59684
1.67754
1.64455
1.55103
1.24166
0.902052
0.740557
0.688456
0.676568
0.667878
0.650951
0.628869
0.179172
0.179554
0.179941
0.180336
0.180743
0.181165
0.181607
0.18207
0.182559
0.183079
0.183633
0.184227
0.184865
0.185555
0.186303
0.187118
0.188005
0.188976
0.190044
0.191223
0.192521
0.193955
0.195538
0.197293
0.199239
0.201406
0.203825
0.206531
0.20957
0.21299
0.216855
0.221234
0.226217
0.231908
0.238434
0.245948
0.25464
0.264741
0.276544
0.290407
0.306762
0.326219
0.349246
0.377038
0.409766
0.449265
0.496371
0.552293
0.619337
0.700516
0.799487
0.927755
1.07318
1.29061
1.54165
1.7885
1.85297
1.82345
1.73851
1.38982
0.921224
0.681538
0.586893
0.5621
0.568365
0.581946
0.586543
0.58128
0.566808
0.234925
0.235449
0.235984
0.236535
0.237109
0.23771
0.238345
0.239018
0.239735
0.240502
0.241325
0.242212
0.243171
0.244218
0.245362
0.246611
0.247976
0.249469
0.251105
0.252901
0.254875
0.257051
0.259459
0.262138
0.265135
0.268501
0.2723
0.276604
0.281502
0.287099
0.293522
0.300925
0.309496
0.319466
0.33112
0.344805
0.360959
0.380099
0.402896
0.430105
0.462596
0.501561
0.547474
0.602884
0.667253
0.743531
0.836071
0.935036
1.06627
1.21027
1.41139
1.64923
1.89318
2.05672
2.05818
2.01911
1.91905
1.5258
0.966625
0.692877
0.54835
0.487914
0.472631
0.479983
0.499306
0.51791
0.526501
0.526901
0.516132
0.339839
0.340697
0.341583
0.342506
0.343479
0.344504
0.345587
0.346735
0.347953
0.349251
0.350637
0.352121
0.353716
0.355434
0.357289
0.359301
0.361484
0.363865
0.366459
0.369296
0.372419
0.375883
0.379783
0.384275
0.389464
0.395473
0.402453
0.410581
0.420071
0.431188
0.44425
0.459649
0.477857
0.499454
0.52515
0.555786
0.592401
0.636081
0.688235
0.749958
0.822517
0.907706
1.00512
1.11939
1.24566
1.38903
1.5589
1.71014
1.98253
2.20658
2.35567
2.34822
2.34292
2.18237
2.01873
1.52045
1.03431
0.833194
0.644028
0.532241
0.470005
0.44516
0.440273
0.450466
0.465926
0.480388
0.4878
0.489099
0.480724
0.588567
0.590335
0.592125
0.593944
0.595811
0.597741
0.599749
0.60185
0.604058
0.606389
0.608861
0.611492
0.6143
0.617319
0.620548
0.624075
0.62783
0.632021
0.636459
0.641446
0.647178
0.654064
0.662703
0.673294
0.686151
0.701621
0.720129
0.742187
0.768395
0.79952
0.836383
0.879972
0.931396
0.991944
1.063
1.146
1.24218
1.35274
1.47831
1.61959
1.77493
1.94553
2.12343
2.31803
2.49485
2.70246
2.84551
2.96863
2.90977
2.76556
2.57259
2.3444
1.83604
1.32379
1.04221
0.901023
0.878363
0.857758
0.803913
0.695165
0.593715
0.532838
0.504943
0.504472
0.507713
0.513063
0.516613
0.51556
0.503879
1.50985
1.5133
1.51675
1.52024
1.52378
1.5274
1.53111
1.53495
1.53894
1.54309
1.54747
1.5521
1.55696
1.56233
1.56769
1.57437
1.58002
1.58899
1.59442
1.60893
1.63272
1.66575
1.70757
1.75863
1.81924
1.88964
1.9704
2.06219
2.16524
2.28124
2.40954
2.55025
2.70307
2.86762
3.04304
3.22797
3.41985
3.61596
3.81025
3.99889
4.17007
4.31705
4.42948
4.47124
4.42284
4.33995
3.92883
3.47539
2.66686
1.98363
1.5561
1.37237
1.30642
1.30983
1.42024
1.64314
1.79881
1.87683
1.87126
1.69942
1.446
1.17607
1.00875
0.980041
0.940641
0.916123
0.898659
0.884252
0.848558
8.66756
8.66214
8.65578
8.64846
8.64014
8.63079
8.62041
8.60894
8.59642
8.58272
8.56797
8.55193
8.53481
8.51645
8.49638
8.47685
8.45062
8.42364
8.39549
8.36625
8.33628
8.30849
8.27062
8.23554
8.20127
8.16431
8.12017
8.07807
8.01883
7.98121
7.9324
7.87652
7.81399
7.74476
7.66839
7.58422
7.49147
7.38925
7.27725
7.15509
7.0274
6.90338
6.796
6.71889
6.67302
6.63523
6.59753
6.55891
6.52055
6.48182
6.44309
6.40591
6.36973
6.3343
6.29993
6.26694
6.23579
6.20684
6.18053
6.15688
6.13538
6.1154
6.0973
6.082
6.06703
6.05114
6.03246
6.01455
5.99699
0.0291723
0.0291742
0.0291876
0.0291982
0.0292174
0.0292379
0.0292546
0.0292615
0.0292616
0.0292554
0.0292508
0.0292747
0.0293165
0.0293455
0.0293578
0.0293429
0.0293656
0.0293871
0.029399
0.029394
0.0293864
0.0294007
0.0293971
0.0294058
0.0294061
0.0294033
0.0294286
0.0294372
0.0294375
0.029451
0.0294507
0.0294749
0.0294857
0.0294872
0.0294971
0.0294825
0.0294883
0.0294967
0.0295038
0.0295357
0.0295164
0.0295243
0.0295159
0.0295076
0.0295165
0.0295094
0.0295029
0.0294908
0.0295024
0.0295259
0.0295474
0.0295869
0.0296022
0.0296074
0.029613
0.0296131
0.0296178
0.029626
0.0296356
0.0294451
0.0294561
0.0294715
0.0294866
0.0294999
0.0295058
0.0295065
0.0295015
0.0295013
0.0295005
0.0295282
0.0295598
0.0295804
0.0295894
0.0295862
0.0295908
0.0296175
0.0296292
0.029631
0.0296241
0.0296249
0.0296308
0.0296302
0.0296392
0.0296374
0.0296383
0.0296607
0.0296728
0.0296664
0.0296764
0.0296854
0.0297065
0.0297175
0.0297175
0.0297327
0.029728
0.0297277
0.0297385
0.0297465
0.0297814
0.0297767
0.0297773
0.029773
0.0297728
0.0297677
0.0297655
0.0297663
0.0297638
0.0297706
0.0297896
0.0298091
0.0298413
0.0298723
0.0298916
0.0299085
0.029919
0.0299265
0.0299365
0.0299434
0.0297857
0.0297965
0.0298063
0.0298091
0.0298088
0.0298061
0.0298046
0.029802
0.0298035
0.0298312
0.029856
0.0298711
0.0298783
0.0298804
0.0298804
0.0298952
0.0299086
0.0299121
0.0299073
0.0299067
0.0299102
0.0299114
0.0299125
0.0299193
0.0299167
0.0299229
0.0299411
0.0299552
0.0299449
0.0299526
0.0299687
0.029987
0.0299988
0.0299994
0.0300183
0.0300189
0.0300189
0.0300293
0.030037
0.0300728
0.0300869
0.0300936
0.0300953
0.030091
0.0300936
0.0300977
0.0300991
0.0300987
0.0301013
0.0301136
0.0301305
0.0301546
0.0301856
0.0302132
0.0302381
0.0302591
0.0302751
0.0302916
0.0303022
0.0301707
0.0301649
0.0301721
0.0301652
0.0301691
0.0301686
0.030168
0.0301723
0.0301974
0.030217
0.0302274
0.0302326
0.0302317
0.0302315
0.030238
0.0302471
0.0302521
0.030251
0.0302404
0.0302455
0.0302494
0.0302487
0.0302498
0.0302539
0.0302522
0.0302604
0.0302763
0.0302903
0.0302783
0.0302852
0.0303053
0.0303218
0.0303353
0.0303379
0.0303588
0.0303671
0.0303682
0.0303782
0.0303848
0.0304183
0.0304442
0.0304612
0.0304705
0.0304779
0.0304818
0.0304882
0.0304938
0.0304982
0.0305018
0.0305099
0.030523
0.0305412
0.0305658
0.030593
0.0306203
0.0306469
0.0306697
0.0306933
0.0307097
0.0306081
0.0306098
0.0306092
0.0306001
0.0306053
0.0306045
0.0306203
0.0306396
0.0306513
0.0306564
0.0306551
0.030644
0.0306515
0.0306549
0.0306583
0.0306623
0.0306561
0.0306454
0.030647
0.0306502
0.0306526
0.0306498
0.0306508
0.0306523
0.030652
0.0306609
0.0306749
0.0306875
0.0306754
0.030682
0.0307043
0.03072
0.0307355
0.0307406
0.0307628
0.0307777
0.0307827
0.0307937
0.0308001
0.0308296
0.030862
0.0308887
0.0309071
0.0309237
0.0309352
0.0309459
0.0309562
0.030966
0.0309745
0.0309839
0.0309961
0.0310115
0.0310313
0.0310547
0.0310802
0.0311072
0.0311324
0.0311601
0.0311805
0.0311432
0.0311505
0.0311528
0.0311541
0.0311582
0.0311647
0.0311693
0.0311713
0.0311609
0.0311549
0.0311534
0.0311583
0.0311589
0.0311518
0.0311564
0.0311418
0.0311317
0.0311332
0.0311288
0.031132
0.0311324
0.0311273
0.0311274
0.0311273
0.0311278
0.0311365
0.0311489
0.0311596
0.0311483
0.031155
0.0311785
0.0311941
0.0312113
0.0312193
0.0312424
0.031263
0.0312735
0.0312874
0.0312954
0.0313211
0.0313557
0.03139
0.0314176
0.031443
0.031464
0.0314821
0.0314986
0.0315144
0.0315292
0.0315434
0.0315584
0.0315749
0.0315937
0.0316153
0.0316388
0.0316646
0.0316896
0.0317186
0.0317406
0.031797
0.0317891
0.0318014
0.0317993
0.0317862
0.0317867
0.0317798
0.0317668
0.0317586
0.0317518
0.0317516
0.0317572
0.0317442
0.0317473
0.0317242
0.0317151
0.0317159
0.0317022
0.0317067
0.0317072
0.0317026
0.0316956
0.0316955
0.0316927
0.0316942
0.0317023
0.0317129
0.0317217
0.0317117
0.0317188
0.0317429
0.031759
0.0317777
0.031789
0.0318129
0.0318384
0.0318552
0.0318735
0.0318854
0.0319087
0.0319432
0.0319822
0.032018
0.0320518
0.0320825
0.03211
0.0321348
0.0321581
0.0321802
0.0322012
0.0322219
0.0322427
0.0322644
0.0322874
0.0323115
0.0323375
0.0323628
0.0323926
0.032415
0.0325546
0.0325581
0.0325403
0.0325334
0.0325207
0.0325115
0.0324967
0.0324815
0.0324687
0.0324664
0.0324767
0.0324725
0.032438
0.032428
0.0324129
0.0324154
0.0323941
0.0323987
0.0323932
0.0323876
0.0323802
0.0323729
0.03237
0.0323672
0.0323689
0.0323758
0.0323848
0.0323915
0.0323833
0.0323909
0.0324152
0.0324325
0.0324526
0.0324673
0.0324926
0.0325222
0.0325456
0.0325697
0.0325873
0.0326111
0.0326449
0.0326864
0.0327285
0.0327701
0.0328098
0.032847
0.0328816
0.0329141
0.032945
0.0329744
0.0330028
0.0330306
0.0330581
0.0330859
0.0331137
0.0331426
0.0331702
0.0332024
0.033226
0.0334281
0.0334053
0.0333955
0.0333816
0.0333684
0.0333567
0.033343
0.0333332
0.0333315
0.0333362
0.0333129
0.0332845
0.0332653
0.0332545
0.0332556
0.0332279
0.0332312
0.0332139
0.033207
0.0331987
0.0331901
0.0331809
0.0331755
0.0331723
0.0331735
0.033179
0.0331862
0.0331911
0.0331849
0.0331931
0.0332175
0.0332363
0.033258
0.0332765
0.0333036
0.033337
0.033367
0.0333976
0.0334229
0.0334502
0.0334849
0.0335279
0.0335747
0.0336229
0.0336708
0.0337175
0.0337622
0.0338049
0.0338457
0.033885
0.0339228
0.0339595
0.0339952
0.0340304
0.0340648
0.0340994
0.034132
0.0341688
0.0341956
0.0344436
0.0344234
0.0344129
0.0343982
0.0343852
0.0343742
0.0343647
0.0343585
0.0343544
0.0343524
0.0342939
0.0342772
0.0342681
0.0342686
0.0342321
0.0342312
0.0342005
0.0341881
0.034184
0.0341703
0.0341576
0.0341465
0.0341394
0.0341352
0.0341356
0.0341392
0.0341445
0.0341477
0.0341436
0.0341526
0.0341772
0.0341978
0.0342215
0.0342439
0.0342736
0.0343108
0.0343474
0.0343853
0.0344194
0.0344533
0.0344917
0.0345373
0.0345881
0.0346421
0.0346975
0.034753
0.0348076
0.0348608
0.0349124
0.0349625
0.035011
0.0350581
0.0351038
0.0351484
0.0351916
0.0352343
0.0352743
0.035318
0.0353502
0.0356761
0.035653
0.0356426
0.0356275
0.0356142
0.0356013
0.0355883
0.0355741
0.0355566
0.0355329
0.0355009
0.0354911
0.0354774
0.0354419
0.0354212
0.0354001
0.0353805
0.0353803
0.0353493
0.0353354
0.0353186
0.0353058
0.0352956
0.0352911
0.0352888
0.0352907
0.035294
0.0352958
0.0352937
0.0353038
0.0353287
0.0353516
0.0353775
0.0354043
0.0354376
0.035479
0.0355223
0.0355679
0.0356119
0.035655
0.0357004
0.0357511
0.035807
0.0358671
0.0359299
0.035994
0.0360583
0.0361222
0.036185
0.0362466
0.0363068
0.0363655
0.0364226
0.0364782
0.0365319
0.0365845
0.0366338
0.0366863
0.0367257
0.0371665
0.0371384
0.0371255
0.0371068
0.0370894
0.0370711
0.0370515
0.0370295
0.0370049
0.0369785
0.0369523
0.0369309
0.0369009
0.0368698
0.0368509
0.0368254
0.0368131
0.0367817
0.0367561
0.0367385
0.0367173
0.0367019
0.0366888
0.0366814
0.0366776
0.0366773
0.0366785
0.036679
0.0366785
0.0366901
0.0367158
0.0367413
0.0367701
0.0368018
0.0368399
0.0368863
0.0369369
0.0369911
0.0370457
0.0371001
0.0371557
0.037215
0.0372788
0.0373468
0.037418
0.0374916
0.0375663
0.0376414
0.0377161
0.0377901
0.0378629
0.0379342
0.0380039
0.0380719
0.0381377
0.0382017
0.038262
0.038325
0.0383731
0.038983
0.0389483
0.0389313
0.0389078
0.0388852
0.0388609
0.0388349
0.0388069
0.0387773
0.0387467
0.0387153
0.038682
0.0386438
0.0386159
0.0385801
0.0385558
0.0385218
0.0384872
0.0384609
0.0384351
0.0384105
0.0383911
0.0383748
0.0383643
0.0383572
0.0383548
0.0383536
0.0383531
0.0383541
0.0383675
0.0383946
0.0384233
0.0384557
0.0384931
0.0385374
0.0385903
0.0386492
0.0387132
0.0387797
0.0388474
0.0389164
0.0389882
0.0390636
0.0391428
0.0392254
0.0393107
0.0393978
0.0394858
0.0395741
0.0396621
0.0397491
0.0398348
0.0399188
0.0400009
0.0400804
0.0401577
0.0402307
0.0403058
0.040364
0.041209
0.0411652
0.0411409
0.0411099
0.041079
0.0410461
0.0410114
0.0409748
0.0409364
0.0408965
0.0408549
0.0408117
0.0407685
0.0407317
0.0406869
0.0406513
0.0406049
0.0405692
0.0405344
0.0405011
0.0404721
0.0404474
0.040427
0.0404124
0.0404018
0.0403956
0.0403926
0.040391
0.0403934
0.0404091
0.0404384
0.0404712
0.0405085
0.0405525
0.0406048
0.0406663
0.0407355
0.0408112
0.0408917
0.0409751
0.0410609
0.0411494
0.0412412
0.0413365
0.041435
0.0415363
0.0416397
0.0417444
0.0418497
0.0419549
0.0420594
0.0421625
0.0422639
0.0423629
0.0424591
0.0425523
0.0426407
0.04273
0.0428008
0.0439605
0.0439029
0.0438661
0.0438228
0.0437791
0.0437336
0.0436863
0.0436372
0.0435865
0.0435344
0.0434813
0.0434281
0.0433759
0.0433253
0.0432705
0.0432207
0.0431667
0.043123
0.0430773
0.0430366
0.0430008
0.0429692
0.042943
0.042923
0.0429076
0.0428978
0.0428916
0.0428893
0.0428931
0.0429117
0.0429445
0.0429825
0.0430264
0.0430786
0.0431414
0.0432147
0.0432973
0.0433883
0.0434861
0.0435891
0.0436962
0.043807
0.0439214
0.0440395
0.0441609
0.0442853
0.0444119
0.04454
0.044669
0.044798
0.0449262
0.0450531
0.0451778
0.0452997
0.0454182
0.0455325
0.0456415
0.0457497
0.0458378
0.0474109
0.0473323
0.0472754
0.0472131
0.0471503
0.0470862
0.0470208
0.0469542
0.0468866
0.0468181
0.0467495
0.046681
0.046613
0.0465451
0.0464763
0.046411
0.0463462
0.0462883
0.0462304
0.0461793
0.0461332
0.0460924
0.046058
0.0460306
0.0460088
0.0459938
0.0459841
0.045981
0.0459865
0.046009
0.0460469
0.0460924
0.0461457
0.0462087
0.0462857
0.0463756
0.0464771
0.0465894
0.0467109
0.0468403
0.0469762
0.0471177
0.0472645
0.047416
0.0475717
0.0477311
0.0478934
0.0480578
0.0482234
0.0483893
0.0485546
0.0487182
0.0488793
0.0490368
0.0491898
0.0493371
0.0494777
0.0496148
0.0497307
0.0518276
0.0517183
0.0516294
0.0515372
0.0514449
0.0513523
0.0512592
0.0511655
0.0510714
0.0509773
0.0508833
0.0507897
0.0506968
0.0506047
0.0505141
0.0504271
0.0503431
0.0502645
0.0501892
0.0501216
0.05006
0.0500054
0.0499588
0.0499205
0.0498898
0.0498671
0.0498531
0.049849
0.0498568
0.0498849
0.0499309
0.0499877
0.0500555
0.0501356
0.0502323
0.0503472
0.0504777
0.0506226
0.0507808
0.0509508
0.0511313
0.0513213
0.0515199
0.0517261
0.0519392
0.0521582
0.0523819
0.0526092
0.0528387
0.0530689
0.0532984
0.0535256
0.0537491
0.0539672
0.0541782
0.0543804
0.0545734
0.0547584
0.0549228
0.0575933
0.0574511
0.0573192
0.0571865
0.057054
0.0569218
0.0567894
0.0566565
0.056523
0.0563888
0.0562539
0.0561193
0.0559857
0.055854
0.0557251
0.0556003
0.0554803
0.0553665
0.0552593
0.0551611
0.0550715
0.054992
0.0549232
0.0548655
0.0548182
0.0547833
0.054763
0.054758
0.05477
0.0548083
0.0548699
0.0549479
0.055043
0.0551562
0.0552901
0.0554499
0.0556343
0.0558405
0.056067
0.0563122
0.0565747
0.0568527
0.0571448
0.0574492
0.0577642
0.0580878