/*--------------------------------*- C++ -*----------------------------------*\
| =========                 |                                                 |
| \\      /  F ield         | OpenFOAM: The Open Source CFD Toolbox           |
|  \\    /   O peration     | Version:  2312                                  |
|   \\  /    A nd           | Website:  www.openfoam.com                      |
|    \\/     M anipulation  |                                                 |
\*---------------------------------------------------------------------------*/
FoamFile
{
    version     2.0;
    format      ascii;
    arch        "LSB;label=32;scalar=64";
    class       volScalarField;
    location    "1000";
    object      p;
}
// * * * * * * * * * * * * * * * * * * * * * * * * * * * * * * * * * * * * * //

dimensions      [0 2 -2 0 0 0 0];

internalField   nonuniform List<scalar> 
76025
(
0.000169564
0.000162606
0.000155532
0.000148469
0.00014129
0.000134234
0.00012666
0.000119357
0.00011189
0.000104481
9.69327e-05
8.93176e-05
8.16486e-05
7.39426e-05
6.6283e-05
5.83662e-05
5.07555e-05
4.28708e-05
3.51017e-05
2.73132e-05
1.96345e-05
1.18194e-05
4.00584e-06
-3.66482e-06
-1.13714e-05
-1.90295e-05
-2.66059e-05
-3.44331e-05
-4.18851e-05
-4.95649e-05
-5.66481e-05
-6.41687e-05
-7.1516e-05
-7.90563e-05
-8.63432e-05
-9.35387e-05
-0.000100408
-0.000107497
-0.000114687
-0.000121677
-0.000128366
-0.00013498
-0.000141863
-0.000148826
-0.000155347
-0.000161758
-0.000168231
-0.000175078
-0.000181406
-0.000187751
-0.000194147
-0.000200346
-0.000206729
-0.000213392
-0.000220031
-0.000226367
-0.000233423
-0.000240478
-0.000247808
-0.000255142
-0.000262387
-0.000271471
-0.000281142
-0.000291227
-0.0003023
-0.000314957
-0.000328724
-0.000345348
-0.000365539
0.000170413
0.000163139
0.000155799
0.000148428
0.000140964
0.000133385
0.000125753
0.000118086
0.00011033
0.000102506
9.46028e-05
8.66701e-05
7.87148e-05
7.07049e-05
6.26903e-05
5.46673e-05
4.66165e-05
3.85843e-05
3.05109e-05
2.2516e-05
1.44673e-05
6.47105e-06
-1.5029e-06
-9.43386e-06
-1.7349e-05
-2.52477e-05
-3.31014e-05
-4.08522e-05
-4.8533e-05
-5.62176e-05
-6.37892e-05
-7.14786e-05
-7.90458e-05
-8.64972e-05
-9.39227e-05
-0.000101231
-0.000108502
-0.00011568
-0.000122767
-0.000129826
-0.000136724
-0.000143592
-0.000150391
-0.000157104
-0.000163747
-0.000170331
-0.000176904
-0.000183461
-0.000189936
-0.000196403
-0.000202871
-0.000209286
-0.000215764
-0.000222348
-0.000228973
-0.000235691
-0.000242704
-0.000249843
-0.000257177
-0.000264748
-0.000272753
-0.000281814
-0.000291547
-0.000302016
-0.000313641
-0.000326882
-0.000341646
-0.000358843
-0.000378837
0.000171586
0.00016397
0.000156271
0.000148534
0.000140712
0.000132821
0.00012486
0.000116826
0.000108724
0.000100555
9.23412e-05
8.40981e-05
7.58245e-05
6.75255e-05
5.92199e-05
5.08918e-05
4.25607e-05
3.42312e-05
2.59105e-05
1.7604e-05
9.32177e-06
1.08193e-06
-7.12802e-06
-1.53024e-05
-2.34376e-05
-3.15299e-05
-3.95476e-05
-4.74995e-05
-5.54049e-05
-6.32612e-05
-7.10674e-05
-7.88196e-05
-8.64819e-05
-9.40741e-05
-0.00010161
-0.000109053
-0.000116398
-0.000123635
-0.000130799
-0.000137902
-0.000144903
-0.000151816
-0.000158652
-0.000165439
-0.000172171
-0.000178831
-0.000185438
-0.00019202
-0.000198571
-0.000205085
-0.000211582
-0.000218073
-0.000224602
-0.000231212
-0.000237912
-0.000244726
-0.000251725
-0.000258934
-0.000266396
-0.000274205
-0.000282503
-0.000291557
-0.000301424
-0.000312205
-0.000324175
-0.000337683
-0.000352963
-0.000370651
-0.000390965
0.000172576
0.000164582
0.000156501
0.000148392
0.000140217
0.000131962
0.000123628
0.000115228
0.000106773
9.82712e-05
8.97282e-05
8.11514e-05
7.25474e-05
6.39243e-05
5.52913e-05
4.66525e-05
3.80189e-05
2.93966e-05
2.07933e-05
1.22154e-05
3.67257e-06
-4.83027e-06
-1.329e-05
-2.17006e-05
-3.00557e-05
-3.83513e-05
-4.65803e-05
-5.47427e-05
-6.28372e-05
-7.08612e-05
-7.88124e-05
-8.66896e-05
-9.44938e-05
-0.000102224
-0.000109862
-0.000117394
-0.000124818
-0.000132144
-0.000139383
-0.000146538
-0.0001536
-0.000160571
-0.000167465
-0.000174294
-0.000181054
-0.000187748
-0.000194388
-0.000200994
-0.000207567
-0.00021411
-0.000220642
-0.00022718
-0.000233753
-0.000240393
-0.000247126
-0.000253979
-0.000261007
-0.000268261
-0.000275793
-0.000283694
-0.000292094
-0.000301175
-0.000311074
-0.00032193
-0.000333986
-0.000347567
-0.000363003
-0.000380816
-0.000401326
0.00017321
0.000164822
0.000156348
0.000147853
0.000139296
0.000130658
0.000121946
0.000113174
0.000104352
9.54874e-05
8.65861e-05
7.76563e-05
6.87069e-05
5.97466e-05
5.07838e-05
4.18271e-05
3.28839e-05
2.39624e-05
1.50699e-05
6.2144e-06
-2.59715e-06
-1.13583e-05
-2.00629e-05
-2.87053e-05
-3.72803e-05
-4.57836e-05
-5.42105e-05
-6.25567e-05
-7.08199e-05
-7.89998e-05
-8.70956e-05
-9.51076e-05
-0.000103035
-0.00011087
-0.000118597
-0.000126207
-0.000133706
-0.000141101
-0.000148398
-0.000155599
-0.000162705
-0.00016972
-0.000176652
-0.000183507
-0.000190293
-0.000197014
-0.00020368
-0.000210304
-0.000216894
-0.000223458
-0.000230012
-0.000236575
-0.00024317
-0.000249825
-0.00025657
-0.000263436
-0.000270471
-0.000277726
-0.000285261
-0.000293161
-0.00030154
-0.000310543
-0.000320318
-0.000331035
-0.000342932
-0.000356324
-0.000371585
-0.000389207
-0.00040965
0.00017351
0.000164709
0.000155823
0.000146921
0.000137961
0.000128923
0.000119815
0.00011065
0.000101441
9.21949e-05
8.29195e-05
7.36235e-05
6.43164e-05
5.50073e-05
4.57051e-05
3.64185e-05
2.71559e-05
1.7926e-05
8.73694e-06
-4.03285e-07
-9.48716e-06
-1.85075e-05
-2.7458e-05
-3.63327e-05
-4.51265e-05
-5.38343e-05
-6.2452e-05
-7.09759e-05
-7.94041e-05
-8.77355e-05
-9.59696e-05
-0.000104106
-0.000112143
-0.000120073
-0.00012788
-0.000135561
-0.000143123
-0.000150573
-0.000157915
-0.000165154
-0.000172292
-0.000179335
-0.00018629
-0.000193163
-0.000199963
-0.000206697
-0.000213374
-0.000220006
-0.000226601
-0.000233173
-0.000239735
-0.000246304
-0.000252904
-0.000259558
-0.000266294
-0.000273144
-0.000280148
-0.000287352
-0.000294814
-0.000302607
-0.000310828
-0.000319601
-0.000329072
-0.00033942
-0.00035089
-0.0003638
-0.00037856
-0.00039568
-0.000415901
0.000173422
0.000164186
0.000154866
0.000145535
0.000136149
0.000126689
0.000117163
0.000107586
9.79708e-05
8.83256e-05
7.86591e-05
6.89807e-05
5.93001e-05
4.96273e-05
3.99719e-05
3.03433e-05
2.0751e-05
1.12039e-05
1.71091e-06
-7.71952e-06
-1.70794e-05
-2.63613e-05
-3.55585e-05
-4.46648e-05
-5.36747e-05
-6.25834e-05
-7.13868e-05
-8.00817e-05
-8.86662e-05
-9.71389e-05
-0.000105499
-0.000113747
-0.000121883
-0.000129894
-0.000137768
-0.000145505
-0.000153114
-0.000160602
-0.000167975
-0.000175237
-0.000182393
-0.000189448
-0.000196411
-0.000203288
-0.00021009
-0.000216824
-0.000223499
-0.000230128
-0.00023672
-0.000243287
-0.000249844
-0.000256407
-0.000262995
-0.000269629
-0.000276331
-0.00028313
-0.000290055
-0.000297145
-0.000304444
-0.000312013
-0.000319931
-0.000328303
-0.000337267
-0.000347003
-0.00035776
-0.000369865
-0.000383768
-0.000400027
-0.000419618
0.000172866
0.00016317
0.000153391
0.000143607
0.000133773
0.000123869
0.000113903
0.000103893
9.38504e-05
8.37866e-05
7.37104e-05
6.36318e-05
5.35614e-05
4.35102e-05
3.34885e-05
2.35068e-05
1.35749e-05
3.70275e-06
-6.1003e-06
-1.58253e-05
-2.54638e-05
-3.5008e-05
-4.44507e-05
-5.37856e-05
-6.3007e-05
-7.21102e-05
-8.10913e-05
-8.99473e-05
-9.86765e-05
-0.000107278
-0.000115751
-0.000124098
-0.000132316
-0.000140391
-0.000148314
-0.000156091
-0.00016373
-0.00017124
-0.000178627
-0.000185896
-0.000193053
-0.000200105
-0.000207061
-0.000213929
-0.000220719
-0.000227441
-0.000234103
-0.000240718
-0.000247296
-0.000253849
-0.00026039
-0.000266931
-0.00027349
-0.00028008
-0.000286719
-0.000293423
-0.000300214
-0.000307114
-0.000314153
-0.000321374
-0.000328838
-0.000336633
-0.000344881
-0.000353755
-0.000363501
-0.000374449
-0.00038707
-0.000402007
-0.000420467
0.000171761
0.000161578
0.000151314
0.000141052
0.000130744
0.000120371
0.000109943
9.94756e-05
8.89851e-05
7.8482e-05
6.79765e-05
5.74796e-05
4.7003e-05
3.65585e-05
2.61574e-05
1.58109e-05
5.52988e-06
-4.67515e-06
-1.47941e-05
-2.48175e-05
-3.47363e-05
-4.45423e-05
-5.42281e-05
-6.37871e-05
-7.32136e-05
-8.25029e-05
-9.16516e-05
-0.000100657
-0.000109517
-0.000118233
-0.000126803
-0.000135231
-0.000143513
-0.000151632
-0.000159586
-0.000167383
-0.000175034
-0.000182547
-0.000189929
-0.000197187
-0.000204328
-0.00021136
-0.000218294
-0.000225139
-0.000231904
-0.000238601
-0.00024524
-0.00025183
-0.000258383
-0.000264909
-0.000271419
-0.000277923
-0.00028443
-0.000290948
-0.000297486
-0.000304048
-0.000310641
-0.000317272
-0.000323954
-0.00033071
-0.000337579
-0.000344627
-0.000351959
-0.000359728
-0.000368164
-0.000377587
-0.000388464
-0.00040143
-0.000417328
0.000170011
0.000159313
0.000148536
0.000137767
0.000126959
0.000116091
0.000105173
9.42259e-05
8.32638e-05
7.22994e-05
6.13441e-05
5.04099e-05
3.95097e-05
2.86562e-05
1.78619e-05
7.13887e-06
-3.50102e-06
-1.40465e-05
-2.44866e-05
-3.48114e-05
-4.50111e-05
-5.50773e-05
-6.50021e-05
-7.47789e-05
-8.4402e-05
-9.38671e-05
-0.000103171
-0.000112311
-0.000121286
-0.000130098
-0.000138748
-0.000147237
-0.000155559
-0.000163699
-0.000171662
-0.000179458
-0.000187099
-0.000194594
-0.000201951
-0.000209178
-0.000216284
-0.000223279
-0.000230174
-0.00023698
-0.000243707
-0.000250366
-0.000256966
-0.000263519
-0.000270033
-0.000276517
-0.000282978
-0.000289421
-0.000295849
-0.000302262
-0.000308657
-0.000315026
-0.00032136
-0.00032765
-0.00033389
-0.00034008
-0.000346236
-0.000352395
-0.000358632
-0.00036507
-0.000371915
-0.000379464
-0.000388199
-0.000398642
-0.000411617
0.000167501
0.000156258
0.000144936
0.000133631
0.000122292
0.000110901
9.94676e-05
8.8013e-05
7.65542e-05
6.51049e-05
5.36778e-05
4.2286e-05
3.09437e-05
1.96649e-05
8.46321e-06
-2.64817e-06
-1.36564e-05
-2.45494e-05
-3.53152e-05
-4.59431e-05
-5.6423e-05
-6.67459e-05
-7.69037e-05
-8.68897e-05
-9.66984e-05
-0.000106326
-0.000115769
-0.000125026
-0.000134097
-0.000142985
-0.000151691
-0.000160217
-0.000168552
-0.000176689
-0.000184636
-0.000192407
-0.000200014
-0.000207468
-0.000214776
-0.000221949
-0.000228999
-0.000235937
-0.000242775
-0.000249523
-0.000256193
-0.000262795
-0.000269339
-0.000275835
-0.00028229
-0.000288709
-0.000295096
-0.00030145
-0.000307767
-0.000314038
-0.000320249
-0.00032638
-0.000332407
-0.000338305
-0.000344046
-0.000349605
-0.000354965
-0.000360129
-0.000365127
-0.000370042
-0.000375041
-0.000380394
-0.000386636
-0.000394164
-0.000405382
0.000164094
0.000152271
0.000140373
0.000128497
0.000116597
0.000104651
9.26724e-05
8.06821e-05
6.86995e-05
5.67398e-05
4.4817e-05
3.29459e-05
2.1142e-05
9.4206e-06
-2.20327e-06
-1.37152e-05
-2.51013e-05
-3.63482e-05
-4.74434e-05
-5.83751e-05
-6.91328e-05
-7.97071e-05
-9.00897e-05
-0.000100274
-0.000110254
-0.000120027
-0.000129591
-0.000138944
-0.000148089
-0.000157027
-0.000165764
-0.000174298
-0.000182616
-0.000190721
-0.000198624
-0.000206342
-0.000213886
-0.000221269
-0.000228501
-0.000235594
-0.000242562
-0.000249415
-0.000256169
-0.000262833
-0.00026942
-0.00027594
-0.000282403
-0.000288815
-0.000295183
-0.000301507
-0.000307788
-0.00031402
-0.000320192
-0.000326287
-0.000332282
-0.000338148
-0.000343847
-0.000349334
-0.000354559
-0.000359466
-0.000364
-0.000368113
-0.000371782
-0.000375026
-0.000377968
-0.000380847
-0.000384288
-0.000388637
-0.000397849
0.000159621
0.000147184
0.000134672
0.000122192
0.000109695
9.71606e-05
8.46031e-05
7.20459e-05
5.95098e-05
4.70118e-05
3.45675e-05
2.21934e-05
9.90663e-06
-2.2759e-06
-1.43378e-05
-2.62631e-05
-3.80366e-05
-4.9644e-05
-6.10716e-05
-7.2307e-05
-8.33389e-05
-9.41576e-05
-0.000104755
-0.000115124
-0.000125259
-0.000135158
-0.00014482
-0.000154245
-0.000163435
-0.000172396
-0.000181132
-0.000189638
-0.000197904
-0.000205941
-0.000213765
-0.000221393
-0.000228838
-0.000236113
-0.000243231
-0.000250207
-0.000257055
-0.000263788
-0.000270422
-0.000276967
-0.000283437
-0.000289839
-0.000296184
-0.000302475
-0.000308718
-0.00031491
-0.000321048
-0.000327123
-0.000333119
-0.000339017
-0.000344785
-0.000350386
-0.000355768
-0.000360869
-0.000365613
-0.000369908
-0.000373651
-0.000376734
-0.00037906
-0.000380564
-0.0003813
-0.000381461
-0.000381808
-0.000383067
-0.000390098
0.000153877
0.000140786
0.00012762
0.000114495
0.000101363
8.82027e-05
7.50304e-05
6.18714e-05
4.87487e-05
3.5681e-05
2.26863e-05
9.7827e-06
-3.01069e-06
-1.56752e-05
-2.81926e-05
-4.05455e-05
-5.27172e-05
-6.46921e-05
-7.64556e-05
-8.79941e-05
-9.92959e-05
-0.000110351
-0.00012115
-0.000131687
-0.000141958
-0.000151959
-0.000161691
-0.000171156
-0.000180358
-0.000189304
-0.000197997
-0.000206426
-0.000214593
-0.000222515
-0.000230211
-0.000237699
-0.000244993
-0.00025211
-0.000259064
-0.000265874
-0.000272554
-0.00027912
-0.000285586
-0.000291965
-0.000298269
-0.000304505
-0.000310683
-0.000316806
-0.000322877
-0.000328894
-0.000334852
-0.000340741
-0.000346546
-0.000352242
-0.000357797
-0.000363164
-0.000368282
-0.000373071
-0.000377428
-0.000381225
-0.000384303
-0.000386486
-0.000387587
-0.000387434
-0.000385957
-0.000383202
-0.000379939
-0.000377002
-0.000380462
0.000146593
0.000132806
0.000118942
0.000105127
9.13141e-05
7.74847e-05
6.36556e-05
4.98544e-05
3.61063e-05
2.24328e-05
8.85378e-06
-4.61018e-06
-1.7938e-05
-3.11088e-05
-4.41025e-05
-5.69e-05
-6.94828e-05
-8.18336e-05
-9.39365e-05
-0.000105777
-0.000117342
-0.000128621
-0.000139605
-0.000150288
-0.000160665
-0.000170734
-0.000180497
-0.000189958
-0.000199122
-0.000207997
-0.000216581
-0.000224868
-0.000232872
-0.000240614
-0.000248115
-0.000255395
-0.000262472
-0.000269364
-0.000276089
-0.000282668
-0.000289116
-0.000295451
-0.000301686
-0.000307836
-0.00031391
-0.00031992
-0.000325871
-0.00033177
-0.00033762
-0.00034342
-0.000349167
-0.000354853
-0.000360462
-0.000365974
-0.000371353
-0.000376551
-0.000381499
-0.000386104
-0.00039024
-0.000393744
-0.000396408
-0.000397988
-0.0003982
-0.000396743
-0.000393357
-0.000387878
-0.000380885
-0.000372651
-0.000366087
0.000137406
0.000122872
0.000108256
9.36958e-05
7.91488e-05
6.45979e-05
5.00614e-05
3.55694e-05
2.11499e-05
6.82698e-06
-7.37656e-06
-2.14375e-05
-3.53323e-05
-4.90374e-05
-6.25305e-05
-7.57899e-05
-8.87952e-05
-0.000101527
-0.000113967
-0.000126101
-0.000137913
-0.000149392
-0.000160529
-0.000171317
-0.000181753
-0.000191836
-0.000201569
-0.000210957
-0.000220009
-0.000228729
-0.000237115
-0.000245175
-0.00025293
-0.000260405
-0.000267624
-0.000274607
-0.000281377
-0.000287956
-0.000294366
-0.000300627
-0.000306759
-0.000312779
-0.000318703
-0.000324545
-0.000330317
-0.00033603
-0.000341693
-0.000347312
-0.000352893
-0.00035844
-0.000363952
-0.000369425
-0.000374851
-0.000380209
-0.000385472
-0.000390594
-0.000395505
-0.000400109
-0.000404268
-0.000407801
-0.000410468
-0.000411968
-0.000411907
-0.000409821
-0.000405203
-0.000397657
-0.000387609
-0.000375864
-0.000368283
0.000125756
0.000110416
9.49823e-05
7.96103e-05
6.42648e-05
4.89311e-05
3.36292e-05
1.83919e-05
3.25057e-06
-1.17672e-05
-2.66353e-05
-4.13274e-05
-5.58166e-05
-7.00766e-05
-8.4082e-05
-9.78084e-05
-0.000111233
-0.000124333
-0.000137091
-0.000149487
-0.000161507
-0.000173139
-0.000184372
-0.0001952
-0.000205622
-0.000215636
-0.000225249
-0.000234468
-0.000243303
-0.000251756
-0.000259833
-0.000267553
-0.000274945
-0.000282036
-0.000288852
-0.000295419
-0.000301764
-0.000307915
-0.000313896
-0.000319731
-0.000325443
-0.000331051
-0.000336572
-0.000342023
-0.000347415
-0.000352762
-0.000358074
-0.000363362
-0.000368633
-0.000373894
-0.000379153
-0.000384411
-0.000389668
-0.000394914
-0.000400133
-0.00040529
-0.00041033
-0.00041517
-0.00041969
-0.000423714
-0.000426989
-0.000429165
-0.000429714
-0.00042795
-0.00042303
-0.00041423
-0.000401647
-0.000386615
-0.00037318
0.000110767
9.45574e-05
7.8241e-05
6.19956e-05
4.57949e-05
2.96271e-05
1.35142e-05
-2.50799e-06
-1.84043e-05
-3.41434e-05
-4.96955e-05
-6.50305e-05
-8.01181e-05
-9.49289e-05
-0.000109434
-0.000123606
-0.00013742
-0.000150851
-0.000163877
-0.000176479
-0.00018864
-0.000200347
-0.00021159
-0.000222364
-0.000232665
-0.000242497
-0.000251867
-0.000260786
-0.000269262
-0.000277301
-0.000284922
-0.000292153
-0.000299028
-0.000305578
-0.000311836
-0.000317836
-0.000323612
-0.000329195
-0.000334616
-0.000339905
-0.000345084
-0.000350177
-0.000355203
-0.000360178
-0.000365117
-0.000370033
-0.000374938
-0.000379844
-0.000384764
-0.000389711
-0.000394696
-0.000399733
-0.000404833
-0.000410005
-0.00041525
-0.000420565
-0.000425931
-0.000431308
-0.000436618
-0.00044172
-0.000446358
-0.000450107
-0.000452249
-0.000451761
-0.000447399
-0.00043814
-0.000424367
-0.000407689
-0.000390686
9.1366e-05
7.42451e-05
5.70048e-05
3.98545e-05
2.27755e-05
5.75728e-06
-1.11769e-05
-2.79885e-05
-4.46384e-05
-6.10912e-05
-7.73132e-05
-9.32704e-05
-0.000108929
-0.000124255
-0.000139217
-0.000153785
-0.000167928
-0.00018162
-0.000194837
-0.000207557
-0.000219761
-0.000231434
-0.000242567
-0.000253154
-0.000263194
-0.000272692
-0.000281658
-0.000290104
-0.000298042
-0.000305485
-0.000312465
-0.000319019
-0.000325187
-0.00033101
-0.000336531
-0.000341791
-0.000346833
-0.000351698
-0.000356421
-0.000361035
-0.00036557
-0.000370049
-0.000374491
-0.000378913
-0.00038333
-0.000387754
-0.000392199
-0.000396678
-0.000401206
-0.000405802
-0.000410485
-0.000415281
-0.000420221
-0.00042534
-0.000430683
-0.000436294
-0.000442217
-0.000448481
-0.000455062
-0.000461856
-0.000468561
-0.000474571
-0.000478846
-0.000479938
-0.000476472
-0.000467812
-0.000454372
-0.000437362
-0.000419149
6.68433e-05
4.88035e-05
3.06293e-05
1.25731e-05
-5.37849e-06
-2.32364e-05
-4.09762e-05
-5.8556e-05
-7.59328e-05
-9.30669e-05
-0.000109921
-0.000126456
-0.000142635
-0.00015842
-0.000173775
-0.000188666
-0.00020306
-0.000216926
-0.000230235
-0.000242965
-0.000255093
-0.000266604
-0.000277486
-0.000287734
-0.000297349
-0.000306338
-0.000314715
-0.000322492
-0.000329687
-0.000336328
-0.000342457
-0.000348122
-0.000353373
-0.000358263
-0.000362846
-0.000367179
-0.000371313
-0.000375298
-0.000379179
-0.000382993
-0.000386773
-0.000390542
-0.00039432
-0.000398119
-0.000401953
-0.000405832
-0.000409768
-0.000413774
-0.000417865
-0.000422065
-0.000426404
-0.000430925
-0.000435691
-0.000440785
-0.00044631
-0.00045238
-0.000459109
-0.000466587
-0.000474797
-0.000483573
-0.000492434
-0.000500425
-0.000506232
-0.000508577
-0.00050643
-0.000499081
-0.000486583
-0.000470406
-0.000452999
3.75476e-05
1.85819e-05
-5.35991e-07
-1.95048e-05
-3.83345e-05
-5.70363e-05
-7.55833e-05
-9.39298e-05
-0.000112028
-0.000129834
-0.000147305
-0.000164399
-0.000181074
-0.000197286
-0.000212996
-0.000228163
-0.000242751
-0.000256723
-0.000270048
-0.000282698
-0.000294649
-0.000305881
-0.000316383
-0.000326148
-0.000335179
-0.000343484
-0.000351081
-0.000357984
-0.000364223
-0.000369838
-0.000374886
-0.000379427
-0.000383526
-0.000387254
-0.00039068
-0.000393877
-0.000396912
-0.000399847
-0.000402736
-0.000405622
-0.000408541
-0.000411513
-0.000414553
-0.000417669
-0.000420866
-0.00042415
-0.000427528
-0.000431013
-0.000434623
-0.000438389
-0.000442356
-0.000446598
-0.000451218
-0.000456357
-0.000462176
-0.000468838
-0.000476479
-0.000485142
-0.000494688
-0.000504731
-0.000514508
-0.000523087
-0.00052959
-0.000532939
-0.00053183
-0.000525495
-0.00051431
-0.000500295
-0.000486204
5.03828e-06
-1.49482e-05
-3.50929e-05
-5.50579e-05
-7.48507e-05
-9.44806e-05
-0.000113918
-0.000133111
-0.000152008
-0.000170558
-0.000188713
-0.000206426
-0.000223647
-0.00024033
-0.000256427
-0.000271892
-0.000286682
-0.000300757
-0.000314078
-0.000326612
-0.00033833
-0.000349209
-0.000359235
-0.0003684
-0.000376707
-0.000384168
-0.000390799
-0.000396625
-0.000401686
-0.000406041
-0.000409757
-0.000412916
-0.000415601
-0.000417906
-0.000419924
-0.00042175
-0.00042347
-0.000425166
-0.000426903
-0.000428732
-0.000430686
-0.000432783
-0.000435026
-0.000437407
-0.00043992
-0.00044256
-0.000445334
-0.000448261
-0.000451374
-0.00045472
-0.000458371
-0.000462431
-0.000467027
-0.000472313
-0.000478417
-0.000485427
-0.000493385
-0.000502209
-0.000511578
-0.000521091
-0.000530355
-0.000538814
-0.000545473
-0.00054907
-0.000548285
-0.000542545
-0.000533011
-0.000522338
-0.000513588
-2.93479e-05
-5.05237e-05
-7.18608e-05
-9.29881e-05
-0.000113911
-0.000134636
-0.000155128
-0.00017533
-0.000195183
-0.00021463
-0.000233618
-0.000252091
-0.000269994
-0.000287271
-0.000303867
-0.000319729
-0.000334806
-0.000349048
-0.000362411
-0.000374852
-0.000386337
-0.000396836
-0.00040633
-0.000414807
-0.00042227
-0.000428729
-0.000434202
-0.000438725
-0.000442354
-0.000445163
-0.000447243
-0.000448697
-0.000449638
-0.000450189
-0.00045048
-0.000450635
-0.000450776
-0.000451007
-0.000451414
-0.000452055
-0.000452962
-0.000454138
-0.000455565
-0.000457215
-0.00045906
-0.000461088
-0.000463309
-0.000465753
-0.000468467
-0.000471504
-0.000474941
-0.000478874
-0.000483379
-0.000488495
-0.000494205
-0.000500444
-0.000507149
-0.000514284
-0.000521951
-0.000530292
-0.000538967
-0.000547115
-0.000553502
-0.000556443
-0.000554948
-0.000549604
-0.000542348
-0.000535947
-0.000533124
-6.295e-05
-8.56809e-05
-0.00010851
-0.00013109
-0.000153429
-0.000175528
-0.000197347
-0.000218824
-0.000239893
-0.000260491
-0.000280556
-0.000300026
-0.000318836
-0.000336921
-0.000354218
-0.000370662
-0.000386194
-0.000400753
-0.000414284
-0.000426735
-0.000438061
-0.000448221
-0.000457186
-0.000464941
-0.000471485
-0.000476828
-0.000480992
-0.000484024
-0.000485994
-0.000486994
-0.000487137
-0.000486558
-0.000485406
-0.000483848
-0.000482055
-0.000480202
-0.000478453
-0.000476953
-0.000475816
-0.000475121
-0.000474901
-0.000475154
-0.000475845
-0.000476931
-0.000478374
-0.000480157
-0.000482276
-0.000484706
-0.000487377
-0.000490171
-0.000493047
-0.000496097
-0.000499465
-0.000503113
-0.000506942
-0.000511044
-0.000515521
-0.000520509
-0.000526569
-0.000534056
-0.000542564
-0.000550208
-0.000554996
-0.000556186
-0.000554088
-0.000549679
-0.000544865
-0.00054239
-0.000544376
-9.84919e-05
-0.000122952
-0.000147561
-0.000171889
-0.000195946
-0.000219733
-0.000243199
-0.000266276
-0.000288886
-0.000310959
-0.000332422
-0.000353201
-0.000373222
-0.000392408
-0.000410684
-0.000427976
-0.000444208
-0.000459308
-0.000473208
-0.000485839
-0.000497137
-0.000507041
-0.000515503
-0.000522483
-0.000527963
-0.000531947
-0.000534466
-0.00053558
-0.000535381
-0.000533986
-0.000531542
-0.000528224
-0.000524237
-0.000519807
-0.000515177
-0.000510598
-0.000506313
-0.000502544
-0.000499472
-0.00049722
-0.000495839
-0.000495304
-0.000495528
-0.0004964
-0.000497834
-0.000499797
-0.000502274
-0.000505156
-0.000508084
-0.000510452
-0.000511813
-0.000512479
-0.000513251
-0.000514283
-0.00051532
-0.000516989
-0.00051966
-0.000523406
-0.000529154
-0.000536507
-0.000543608
-0.000548811
-0.000551469
-0.000551588
-0.000549513
-0.000546148
-0.000543215
-0.000543101
-0.000547608
-0.000124706
-0.000151722
-0.000178557
-0.000205055
-0.00023125
-0.000257123
-0.000282619
-0.00030766
-0.000332166
-0.000356056
-0.000379248
-0.000401657
-0.000423198
-0.000443782
-0.000463321
-0.000481727
-0.000498912
-0.000514792
-0.000529283
-0.000542304
-0.000553769
-0.000563608
-0.000571766
-0.000578203
-0.000582881
-0.00058578
-0.000586902
-0.000586286
-0.000584014
-0.000580221
-0.000575089
-0.000568853
-0.000561795
-0.000554243
-0.000546564
-0.000539147
-0.000532381
-0.000526621
-0.00052214
-0.000519079
-0.000517401
-0.000516867
-0.000517077
-0.00051759
-0.000518142
-0.000518832
-0.000520086
-0.000522276
-0.000525102
-0.000527158
-0.000526871
-0.000524667
-0.000522641
-0.000521612
-0.000520551
-0.000520504
-0.000522947
-0.000527256
-0.000532214
-0.000537185
-0.000541555
-0.000544645
-0.000546013
-0.000545608
-0.000543714
-0.000541049
-0.000538991
-0.000539623
-0.00054466
-0.000172475
-0.000201676
-0.00023114
-0.000260246
-0.000289022
-0.000317468
-0.000345517
-0.000373079
-0.000400055
-0.000426347
-0.000451858
-0.000476486
-0.00050013
-0.000522682
-0.000544036
-0.000564086
-0.000582726
-0.000599846
-0.000615323
-0.000628977
-0.00064059
-0.000649996
-0.000657115
-0.000661932
-0.000664481
-0.000664803
-0.000662927
-0.000658888
-0.000652766
-0.000644716
-0.000634974
-0.000623853
-0.000611746
-0.000599119
-0.000586507
-0.000574492
-0.000563677
-0.000554627
-0.000547791
-0.000543408
-0.000541384
-0.000541192
-0.000541852
-0.000542106
-0.00054092
-0.000538198
-0.00053494
-0.000532769
-0.000532781
-0.000533925
-0.000533263
-0.000530054
-0.000526935
-0.000526113
-0.000526748
-0.000527523
-0.000528442
-0.00053025
-0.000532969
-0.000536008
-0.000538578
-0.000540025
-0.000540046
-0.00053874
-0.000536398
-0.000533601
-0.00053161
-0.000532401
-0.00053758
-0.000188817
-0.000220662
-0.000251795
-0.000282824
-0.000313686
-0.000344188
-0.00037423
-0.000403732
-0.000432594
-0.000460707
-0.000487961
-0.000514247
-0.000539446
-0.000563438
-0.0005861
-0.000607322
-0.000627021
-0.000645157
-0.000661803
-0.000676916
-0.000690128
-0.00070098
-0.000709165
-0.00071456
-0.000717131
-0.000716873
-0.000713782
-0.00070786
-0.000699134
-0.000687705
-0.000673779
-0.000657674
-0.000639862
-0.00062099
-0.000601894
-0.000583588
-0.000567208
-0.000553907
-0.000544679
-0.000540134
-0.000540217
-0.000543971
-0.000549437
-0.00055393
-0.000554985
-0.000551785
-0.000545512
-0.000538973
-0.000535208
-0.000535021
-0.000536271
-0.00053663
-0.00053538
-0.00053361
-0.000532399
-0.000531831
-0.000531842
-0.000532389
-0.000533331
-0.000534406
-0.000535154
-0.000534954
-0.000533324
-0.000530283
-0.000526225
-0.000521998
-0.000519194
-0.000519843
-0.00052487
-0.000298305
-0.000333168
-0.000368132
-0.000402411
-0.000436113
-0.000469422
-0.000502299
-0.000534585
-0.000566119
-0.000596773
-0.000626424
-0.000654941
-0.000682169
-0.000707938
-0.000732054
-0.000754301
-0.000774421
-0.000792112
-0.000806978
-0.000818802
-0.000827799
-0.00083428
-0.000838304
-0.000839627
-0.000837847
-0.000832584
-0.00082362
-0.000810935
-0.000794667
-0.000775045
-0.000752381
-0.00072713
-0.000699929
-0.000671625
-0.000643274
-0.000616099
-0.00059142
-0.000570533
-0.000554553
-0.000544201
-0.000539607
-0.000540139
-0.000544287
-0.000549726
-0.000553882
-0.000555285
-0.000553613
-0.000549568
-0.000544628
-0.00054065
-0.000538411
-0.000536966
-0.000535859
-0.000535098
-0.00053465
-0.000534332
-0.000534107
-0.00053391
-0.000533638
-0.000533164
-0.000532298
-0.000530772
-0.000528157
-0.000523933
-0.000518297
-0.000512662
-0.000509107
-0.000509106
-0.000512874
0.000124265
0.000131559
0.000139097
0.000146975
0.000155291
0.000164101
0.000173427
0.000183074
0.000192991
0.000203418
0.000214323
0.000225595
0.00023693
0.000249174
0.000260744
0.000272953
0.000284437
0.00029646
0.000308032
0.000319296
0.000331095
0.000341132
0.000350709
0.000359327
0.000367085
0.000373859
0.000379048
0.000383102
0.00038609
0.000387387
0.000387088
0.000385525
0.000382843
0.000379073
0.000373648
0.000367288
0.000360068
0.000351846
0.000343008
0.000333774
0.00032388
0.000313748
0.000303811
0.000294103
0.000283458
0.000273668
0.000263508
0.000253928
0.00024466
0.000235747
0.000227312
0.000219311
0.00021183
0.000204597
0.000198043
0.000191485
0.000185604
0.000180209
0.000175334
0.000124631
0.000132114
0.000140016
0.000148321
0.00015706
0.000166246
0.000175891
0.000185957
0.000196447
0.000207372
0.000218704
0.000230411
0.000242399
0.000254734
0.000267203
0.000279732
0.000292271
0.000304708
0.000317012
0.000328811
0.000340453
0.000351345
0.000361388
0.000370486
0.000378537
0.000385458
0.000391072
0.000395239
0.000398196
0.000399543
0.000399197
0.000397591
0.000394714
0.000390482
0.0003849
0.00037819
0.000370537
0.000362006
0.000352743
0.000342915
0.000332606
0.000322109
0.000311488
0.000300698
0.000289967
0.000279409
0.000269083
0.000259076
0.000249377
0.000240045
0.000231164
0.000222741
0.000214705
0.000207174
0.00020007
0.000193482
0.000187379
0.000181729
0.000176499
0.000124634
0.000132462
0.00014071
0.000149404
0.000158558
0.00016818
0.000178263
0.000188798
0.000199792
0.000211245
0.000223111
0.000235345
0.000247911
0.000260762
0.000273802
0.000287011
0.000300229
0.000313339
0.00032619
0.000338648
0.000350684
0.000362077
0.000372649
0.000382212
0.000390671
0.000397887
0.000403754
0.000408166
0.000411144
0.000412477
0.000412189
0.000410476
0.00040731
0.000402739
0.000396834
0.000389771
0.000381671
0.000372706
0.000362967
0.00035265
0.00034188
0.000330763
0.000319449
0.000308125
0.000296867
0.00028581
0.000274977
0.000264439
0.000254262
0.000244494
0.000235184
0.000226326
0.000217936
0.000210023
0.000202637
0.00019576
0.000189361
0.000183432
0.000177956
0.000124317
0.000132514
0.000141149
0.000150248
0.000159828
0.000169898
0.000180459
0.000191507
0.000203037
0.00021504
0.000227484
0.000240325
0.000253524
0.000267012
0.000280697
0.000294535
0.000308375
0.000322128
0.000335619
0.000348753
0.000361391
0.000373302
0.000384377
0.000394415
0.0004033
0.000410873
0.000417008
0.00042163
0.000424686
0.000426039
0.000425741
0.000423894
0.00042049
0.000415638
0.00040939
0.000401926
0.000393366
0.00038388
0.000373599
0.000362712
0.000351353
0.00033964
0.000327753
0.000315867
0.000304024
0.00029237
0.000280959
0.000269871
0.000259181
0.000248933
0.000239159
0.000229879
0.000221111
0.000212855
0.000205124
0.000197906
0.000191192
0.000184977
0.000179249
0.000123731
0.000132318
0.000141366
0.000150898
0.000160934
0.000171483
0.00018255
0.000194133
0.000206226
0.000218812
0.000231862
0.000245337
0.000259188
0.000273343
0.000287719
0.000302229
0.000316753
0.000331182
0.00034536
0.000359162
0.000372425
0.000384929
0.000396543
0.000407079
0.000416398
0.00042434
0.000430771
0.000435596
0.000438755
0.00044014
0.000439795
0.000437806
0.000434183
0.000429034
0.000422428
0.00041453
0.000405479
0.000395442
0.000384578
0.000373069
0.00036107
0.000348738
0.000336231
0.000323696
0.000311226
0.000298941
0.000286934
0.00027528
0.000264045
0.000253277
0.00024301
0.000233268
0.000224066
0.00021541
0.000207301
0.000199735
0.000192704
0.000186197
0.000180204
0.000122811
0.000131816
0.000141306
0.000151302
0.000161826
0.000172888
0.000184496
0.000196647