/*--------------------------------*- C++ -*----------------------------------*\
| =========                 |                                                 |
| \\      /  F ield         | OpenFOAM: The Open Source CFD Toolbox           |
|  \\    /   O peration     | Version:  2312                                  |
|   \\  /    A nd           | Website:  www.openfoam.com                      |
|    \\/     M anipulation  |                                                 |
\*---------------------------------------------------------------------------*/
FoamFile
{
    version     2.0;
    format      ascii;
    arch        "LSB;label=32;scalar=64";
    class       surfaceScalarField;
    location    "1000";
    object      phi;
}
// * * * * * * * * * * * * * * * * * * * * * * * * * * * * * * * * * * * * * //

dimensions      [0 3 -1 0 0 0 0];

oriented        oriented;

internalField   nonuniform List<scalar> 
116611
(
0.00113338
0.000413654
-0.00111737
-0.000429664
0.00114921
0.000409207
-0.000425043
0.00116489
0.000404413
-0.000420087
0.00118038
0.000399237
-0.000414726
0.00119554
0.000393628
-0.000408791
0.00121081
0.000387609
-0.000402876
0.00122555
0.000381166
-0.000395902
0.00124029
0.000374304
-0.000389049
0.00125472
0.000366994
-0.000381426
0.00126896
0.00035923
-0.000373468
0.00128289
0.000350954
-0.000364881
0.00129663
0.000342192
-0.00035593
0.00131014
0.000332947
-0.000346456
0.00132336
0.00032316
-0.000336383
0.00133644
0.000312885
-0.00032597
0.00134896
0.000302049
-0.000314568
0.00136142
0.000290626
-0.00030308
0.00137336
0.000278662
-0.000290602
0.00138501
0.000266023
-0.000277675
0.00139623
0.00025286
-0.000264077
0.0014072
0.000238972
-0.000249943
0.00141778
0.000224514
-0.000235098
0.00142788
0.000209366
-0.000219464
0.00143762
0.000193557
-0.000203303
0.0014469
0.000177052
-0.000186328
0.00145568
0.000159807
-0.000168586
0.00146407
0.000141812
-0.000150204
0.00147167
0.000123091
-0.00013069
0.00147901
0.000103623
-0.00011096
0.00148547
8.33073e-05
-8.97751e-05
0.00149171
6.23538e-05
-6.85865e-05
0.001497
4.03871e-05
-4.56849e-05
0.00150194
1.76599e-05
-2.25917e-05
0.00150604
-5.88782e-06
1.78581e-06
0.00150954
-3.03702e-05
2.687e-05
0.00151221
-5.56549e-05
5.29842e-05
0.0015143
-8.19031e-05
7.98098e-05
0.00151575
-0.000108983
0.000107536
0.00151636
-0.000136964
0.000136348
0.00151614
-0.000165984
0.00016621
0.00151514
-0.000195864
0.000196865
0.00151345
-0.000226736
0.000228419
0.00151105
-0.000258516
0.000260919
0.00150763
-0.000291295
0.000294722
0.00150344
-0.000325082
0.000329269
0.00149839
-0.00035984
0.000364885
0.00149272
-0.000395592
0.000401261
0.00148597
-0.000432411
0.00043917
0.00147845
-0.000470264
0.000477776
0.00147007
-0.000509174
0.000517555
0.00146083
-0.000549177
0.000558424
0.00145087
-0.000590219
0.000600172
0.00144019
-0.000632384
0.000643069
0.00142872
-0.000675781
0.000687246
0.00141651
-0.000720427
0.000732637
0.00140385
-0.000766392
0.000779059
0.00139061
-0.000813892
0.000827129
0.00137694
-0.000862964
0.000876636
0.00136277
-0.00091372
0.000927884
0.00134829
-0.000966092
0.000980575
0.00133391
-0.00102001
0.00103439
0.00131886
-0.00107595
0.00109099
0.00130303
-0.0011335
0.00114933
0.00128632
-0.00119214
0.00120885
0.00126841
-0.00125153
0.00126944
0.00124858
-0.00131146
0.00133129
0.00122756
-0.00137086
0.00139189
0.00120541
-0.00142955
0.0014517
-0.00148785
0.0011814
0.00151185
0.00111698
0.000397723
-0.00110105
0.00113277
0.000393422
0.0011484
0.00038878
0.00116387
0.000383773
0.00117914
0.000378352
0.00119421
0.000372539
0.00120906
0.000366317
0.0012237
0.000359666
0.00123811
0.000352583
0.0012523
0.000345042
0.00126622
0.000337031
0.00127987
0.00032854
0.00129327
0.000319553
0.00130637
0.000310053
0.00131921
0.000300053
0.00133174
0.000289509
0.00134395
0.000278422
0.00135584
0.000266767
0.00136734
0.000254529
0.00137851
0.000241687
0.00138926
0.000228223
0.00139963
0.000214141
0.00140959
0.000199411
0.00141912
0.000184021
0.00142822
0.000167954
0.00143686
0.000151172
0.00144498
0.000133687
0.00145259
0.000115479
0.0014597
9.65209e-05
0.0014662
7.68021e-05
0.00147225
5.63079e-05
0.00147764
3.49969e-05
0.00148242
1.28777e-05
0.00148659
-1.00626e-05
0.00149008
-3.38579e-05
0.00149293
-5.85072e-05
0.00149507
-8.40404e-05
0.00149652
-0.000110433
0.00149729
-0.000137728
0.00149727
-0.000165966
0.00149653
-0.000195123
0.001495
-0.000225215
0.00149273
-0.000256237
0.00148967
-0.000288237
0.00148581
-0.000321227
0.00148117
-0.000355197
0.00147574
-0.000390159
0.00146948
-0.000426156
0.00146243
-0.000463207
0.00145456
-0.000501312
0.00144589
-0.000540508
0.00143649
-0.000580812
0.00142638
-0.000622278
0.0014156
-0.000664997
0.00140422
-0.000709047
0.00139234
-0.000754513
0.00137997
-0.000801519
0.00136716
-0.000850159
0.00135392
-0.000900475
0.00134027
-0.000952441
0.00132623
-0.00100597
0.00131136
-0.00106108
0.00129537
-0.0011175
0.00127803
-0.0011748
0.0012591
-0.0012326
0.00123821
-0.00129057
0.0012155
-0.00134816
0.00119106
-0.00140511
-0.00146118
0.00116439
0.00110128
0.00038192
-0.00108548
0.00111696
0.000377742
0.00113251
0.000373234
0.00114791
0.000368373
0.00116312
0.000363138
0.00117815
0.000357516
0.00119297
0.000351495
0.00120757
0.00034506
0.00122196
0.0003382
0.0012361
0.0003309
0.00124998
0.000323145
0.0012636
0.000314922
0.00127694
0.000306216
0.00128998
0.000297013
0.00130273
0.000287304
0.00131517
0.000277071
0.00132729
0.000266304
0.00133907
0.000254984
0.0013505
0.000243098
0.00136156
0.000230626
0.00137223
0.000217556
0.0013825
0.000203871
0.00139235
0.000189556
0.00140178
0.000174593
0.00141077
0.000158968
0.00141928
0.00014266
0.00142731
0.000125657
0.00143485
0.000107941
0.00144187
8.94984e-05
0.00144836
7.03099e-05
0.00145431
5.03598e-05
0.00145968
2.96289e-05
0.00146446
8.09654e-06
0.00146864
-1.42421e-05
0.00147218
-3.7404e-05
0.00147509
-6.14085e-05
0.00147731
-8.62685e-05
0.00147887
-0.000111994
0.00147975
-0.000138606
0.00147991
-0.000166123
0.00147934
-0.000194555
0.00147804
-0.000223908
0.001476
-0.000254196
0.0014732
-0.000285442
0.00146963
-0.000317659
0.00146529
-0.000350857
0.00146019
-0.000385052
0.0014543
-0.000420274
0.00144764
-0.000456547
0.00144022
-0.000493891
0.00143206
-0.000532347
0.00142321
-0.000571957
0.00141371
-0.000612783
0.00140362
-0.00065491
0.001393
-0.000698428
0.00138191
-0.000743421
0.00137037
-0.000789977
0.00135836
-0.000838151
0.00134582
-0.000887935
0.00133264
-0.000939256
0.00131864
-0.000991974
0.0013035
-0.00104594
0.00128688
-0.00110089
0.00126854
-0.00115646
0.00124828
-0.00121233
0.00122592
-0.00126821
0.00120151
-0.00132375
0.0011751
-0.0013787
-0.00143271
0.00114663
0.0010863
0.000366225
-0.0010706
0.00110187
0.000362171
0.00111731
0.000357798
0.0011326
0.000353083
0.00114772
0.000348011
0.00116267
0.000342568
0.00117743
0.00033674
0.00119197
0.000330513
0.0012063
0.000323874
0.00122039
0.00031681
0.00123423
0.000309305
0.00124781
0.000301346
0.0012611
0.000292919
0.00127411
0.000284009
0.00128681
0.000274603
0.00129919
0.000264688
0.00131124
0.000254248
0.00132296
0.000243269
0.00133432
0.000231737
0.00134531
0.000219636
0.00135592
0.00020695
0.00136612
0.000193665
0.00137592
0.000179764
0.00138528
0.000165231
0.0013942
0.00015005
0.00140265
0.000134204
0.00141063
0.000117677
0.00141812
0.000100454
0.0014251
8.25184e-05
0.00143156
6.38536e-05
0.00143747
4.4443e-05
0.00144283
2.42682e-05
0.00144762
3.30965e-06
0.00145181
-1.84347e-05
0.00145539
-4.09853e-05
0.00145835
-6.43617e-05
0.00146066
-8.85784e-05
0.00146231
-0.00011365
0.0014633
-0.000139591
0.00146359
-0.000166419
0.00146319
-0.000194148
0.00146207
-0.00022279
0.00146023
-0.000252358
0.00145766
-0.000282872
0.00145435
-0.000314349
0.0014503
-0.000346805
0.00144551
-0.000380261
0.00143998
-0.000414746
0.00143372
-0.000450291
0.00142676
-0.000486932
0.00141913
-0.000524716
0.00141088
-0.000563701
0.00140205
-0.000603955
0.0013927
-0.000645557
0.00138285
-0.000688586
0.00137254
-0.000733105
0.00136171
-0.000779152
0.00135028
-0.000826724
0.0013381
-0.000875754
0.00132496
-0.000926115
0.00131061
-0.000977624
0.00129475
-0.00103008
0.00127709
-0.00108322
0.00125741
-0.00113679
0.0012356
-0.00119052
0.00121158
-0.00124419
0.00118539
-0.00129756
0.00115707
-0.00135037
-0.00140213
0.00112649
0.00107205
0.000350642
-0.00105647
0.00108751
0.000346712
0.00110284
0.000342474
0.00111801
0.000337905
0.00113303
0.000332992
0.00114788
0.00032772
0.00116254
0.000322078
0.00117701
0.000316051
0.00119125
0.000309627
0.00120527
0.000302791
0.00121905
0.00029553
0.00123256
0.00028783
0.00124581
0.000279676
0.00125876
0.000271054
0.00127141
0.00026195
0.00128375
0.000252351
0.00129576
0.00024224
0.00130742
0.000231604
0.00131873
0.000220428
0.00132967
0.000208696
0.00134023
0.000196395
0.00135039
0.000183507
0.00136013
0.000170019
0.00136945
0.000155913
0.00137833
0.000141174
0.00138674
0.000125785
0.00139469
0.000109731
0.00140215
9.29952e-05
0.0014091
7.55617e-05
0.00141554
5.74137e-05
0.00142145
3.85346e-05
0.00142681
1.89072e-05
0.00143161
-1.48654e-06
0.00143582
-2.2649e-05
0.00143944
-4.4604e-05
0.00144245
-6.73693e-05
0.00144483
-9.09605e-05
0.00144658
-0.000115392
0.00144767
-0.000140681
0.00144809
-0.000166842
0.00144783
-0.000193892
0.00144689
-0.000221844
0.00144525
-0.000250716
0.0014429
-0.000280527
0.00143985
-0.000311296
0.00143609
-0.000343047
0.00143163
-0.000375805
0.00142649
-0.000409605
0.00142069
-0.000444485
0.00141425
-0.000480492
0.00140721
-0.00051768
0.00139962
-0.00055611
0.00139151
-0.000595846
0.00138291
-0.000636951
0.00137379
-0.000679473
0.00136412
-0.00072343
0.00135378
-0.000768808
0.00134259
-0.000815541
0.00133035
-0.000863514
0.0013168
-0.000912563
0.00130167
-0.000962496
0.00128471
-0.00101311
0.00126569
-0.0010642
0.00124447
-0.00111557
0.00122099
-0.00116704
0.00119524
-0.00121845
0.00116725
-0.00126957
0.00113697
-0.00132009
-0.00136939
0.00110424
0.00105858
0.000335176
-0.00104311
0.00107392
0.000331369
0.00108913
0.000327264
0.0011042
0.000322841
0.00111911
0.000318084
0.00113385
0.000312981
0.0011484
0.000307521
0.00116276
0.00030169
0.00117692
0.000295475
0.00119084
0.000288863
0.00120453
0.00028184
0.00121797
0.000274392
0.00123114
0.000266505
0.00124403
0.000258165
0.00125662
0.000249358
0.0012689
0.00024007
0.00128086
0.000230285
0.00129247
0.000219989
0.00130374
0.000209167
0.00131463
0.000197803
0.00132514
0.000185884
0.00133525
0.000173393
0.00134496
0.000160314
0.00135424
0.000146633
0.00136308
0.000132332
0.00137147
0.000117397
0.00137939
0.00010181
0.00138683
8.55561e-05
0.00139377
6.86185e-05
0.0014002
5.09807e-05
0.00140611
3.26261e-05
0.00141148
1.35377e-05
0.0014163
-6.29955e-06
0.00142054
-2.68929e-05
0.0014242
-4.82653e-05
0.00142727
-7.04342e-05
0.00142972
-9.34155e-05
0.00143155
-0.000117225
0.00143275
-0.00014188
0.0014333
-0.000167395
0.0014332
-0.00019379
0.00143244
-0.00022108
0.00143101
-0.000249285
0.00142891
-0.000278427
0.00142614
-0.000308531
0.00142272
-0.000339625
0.00141865
-0.000371741
0.00141397
-0.00040492
0.00140869
-0.000439207
0.00140285
-0.000474651
0.00139648
-0.000511306
0.00138959
-0.000549224
0.00138219
-0.00058845
0.00137426
-0.000629012
0.0013657
-0.000670915
0.0013564
-0.00071413
0.00134618
-0.000758587
0.00133482
-0.000804181
0.00132207
-0.000850766
0.00130768
-0.000898176
0.00129142
-0.000946235
0.00127309
-0.000994776
0.00125253
-0.00104365
0.00122968
-0.00109272
0.0012045
-0.00114187
0.00117701
-0.00119096
0.00114718
-0.00123973
0.00111483
-0.00128774
-0.00133425
0.00107968
0.00104589
0.000319819
-0.00103053
0.00106112
0.000316135
0.00107622
0.000312164
0.00109118
0.000307886
0.00110598
0.000303285
0.00112061
0.000298352
0.00113506
0.000293072
0.00114931
0.000287434
0.00116336
0.000281426
0.00117719
0.000275034
0.00119078
0.000268245
0.00120413
0.000261045
0.00121721
0.000253421
0.00123002
0.000245358
0.00124254
0.000236843
0.00125475
0.00022786
0.00126663
0.000218396
0.00127819
0.000208436
0.00128939
0.000197963
0.00130023
0.000186964
0.00131069
0.000175423
0.00132076
0.000163324
0.00133042
0.000150652
0.00133967
0.00013739
0.00134847
0.000123524
0.00135683
0.000109037
0.00136473
9.39124e-05
0.00137215
7.81342e-05
0.00137909
6.1686e-05
0.00138551
4.45513e-05
0.00139143
2.67133e-05
0.00139681
8.15447e-06
0.00140165
-1.1136e-05
0.00140593
-3.11723e-05
0.00140964
-5.19757e-05
0.00141277
-7.35632e-05
0.0014153
-9.59518e-05
0.00141724
-0.000119158
0.00141856
-0.0001432
0.00141926
-0.000168095
0.00141933
-0.000193863
0.00141878
-0.000220525
0.00141759
-0.000248103
0.00141579
-0.000276622
0.00141337
-0.000306114
0.00141036
-0.000336611
0.00140677
-0.000368152
0.00140263
-0.000400778
0.00139796
-0.000434535
0.00139277
-0.000469466
0.00138707
-0.000505609
0.00138084
-0.000542995
0.00137403
-0.000581635
0.00136653
-0.000621516
0.00135822
-0.0006626
0.0013489
-0.000704816
0.00133838
-0.000748061
0.00132641
-0.000792208
0.00131275
-0.000837114
0.00129721
-0.00088263
0.00127959
-0.000928613
0.00125975
-0.000974939
0.00123761
-0.00102151
0.00121312
-0.00106823
0.00118627
-0.00111502
0.00115702
-0.00116171
0.00112525
-0.00120796
0.00109056
-0.00125306
-0.00129597
0.00105228
0.00103397
0.000304555
-0.00101871
0.00104911
0.000300997
0.00106411
0.000297163
0.00107897
0.000293031
0.00109366
0.000288589
0.00110819
0.000283825
0.00112254
0.000278726
0.00113669
0.000273282
0.00115063
0.00026748
0.00116436
0.000261306
0.00117786
0.000254749
0.00119111
0.000247795
0.0012041
0.00024043
0.00121682
0.000232641
0.00122924
0.000224414
0.00124137
0.000215733
0.00125318
0.000206585
0.00126466
0.000196955
0.0012758
0.000186828
0.00128657
0.000176188
0.00129698
0.00016502
0.00130699
0.000153308
0.00131661
0.000141038
0.00132581
0.000128192
0.00133458
0.000114754
0.0013429
0.000100709
0.00135078
8.60401e-05
0.00135818
7.07307e-05
0.0013651
5.47643e-05
0.00137153
3.81241e-05
0.00137745
2.07934e-05
0.00138285
2.75378e-06
0.00138772
-1.60024e-05
0.00139204
-3.54956e-05
0.00139581
-5.57456e-05
0.00139902
-7.677e-05
0.00140165
-9.85865e-05
0.00140371
-0.000121214
0.00140518
-0.000144671
0.00140606
-0.000168978
0.00140635
-0.000194158
0.00140606
-0.000220235
0.0014052
-0.000247236
0.00140376
-0.000275191
0.00140178
-0.000304132
0.00139927
-0.000334096
0.00139624
-0.000365121
0.0013927
-0.000397243
0.00138866
-0.000430495
0.0013841
-0.000464903
0.00137897
-0.000500482
0.0013732
-0.000537229
0.00136669
-0.000575119
0.00135928
-0.000614106
0.00135079
-0.000654116
0.00134104
-0.000695057
0.00132979
-0.000736814
0.00131685
-0.000779265
0.00130201
-0.00082228
0.00128512
-0.000865741
0.00126605
-0.000909539
0.0012447
-0.000953589
0.00122101
-0.00099782
0.00119495
-0.00104216
0.00116645
-0.00108652
0.0011354
-0.00113066
0.00110147
-0.00117403
0.00106399
-0.00121557
-0.00125366
0.00102169
0.00102283
0.000289368
-0.00100764
0.00103789
0.000285939
0.0010528
0.000282246
0.00106757
0.000278264
0.00108218
0.000273983
0.00109661
0.00026939
0.00111086
0.000264474
0.00112492
0.000259225
0.00113877
0.000253629
0.0011524
0.000247675
0.0011658
0.000241349
0.00117896
0.00023464
0.00119186
0.000227533
0.00120448
0.000220016
0.00121682
0.000212074
0.00122886
0.000203692
0.00124059
0.000194857
0.00125199
0.000185554
0.00126305
0.000175767
0.00127376
0.000165482
0.00128409
0.000154683
0.00129405
0.000143354
0.00130361
0.000131479
0.00131276
0.000119042
0.00132149
0.000106027
0.00132978
9.24168e-05
0.00133762
7.81957e-05
0.00134501
6.33466e-05
0.00135192
4.78526e-05
0.00135835
3.16965e-05
0.00136428
1.4861e-05
0.0013697
-2.67125e-06
0.00137461
-2.09098e-05
0.00137899
-3.98778e-05
0.00138284
-5.95948e-05
0.00138615
-8.00796e-05
0.00138892
-0.000101352
0.00139113
-0.000123431
0.0013928
-0.000146341
0.00139393
-0.000170103
0.00139452
-0.000194744
0.00139457
-0.000220291
0.00139411
-0.000246772
0.00139314
-0.000274219
0.00139167
-0.000302665
0.00138971
-0.000332139
0.00138726
-0.00036267
0.0013843
-0.000394281
0.00138079
-0.000426984
0.00137667
-0.000460782
0.00137184
-0.000495659
0.0013662
-0.000531584
0.00135958
-0.000568505
0.00135183
-0.000606353
0.00134276
-0.000645042
0.00133217
-0.000684472
0.00131989
-0.000724536
0.00130575
-0.000765125
0.00128961
-0.000806134
0.00127133
-0.000847468
0.00125084
-0.000889046
0.00122806
-0.000930803
0.00120292
-0.000972681
0.00117535
-0.0010146
0.00114522
-0.00105639
0.00111224
-0.00109769
0.00107581
-0.0011376
0.00103469
-0.00117446
-0.00120542
0.000986444
0.00101248
0.000274248
-0.000997364
0.00102747
0.000270952
0.00104232
0.000267401
0.00105701
0.000263572
0.00107154
0.000259454
0.00108589
0.000255035
0.00110006
0.000250304
0.00111404
0.000245251
0.0011278
0.000239863
0.00114135
0.000234129
0.00115466
0.000228037
0.00116773
0.000221573
0.00118054
0.000214724
0.00119307
0.000207478
0.00120533
0.000199819
0.00121728
0.000191735
0.00122893
0.000183211
0.00124025
0.000174232
0.00125124
0.000164783
0.00126187
0.000154849
0.00127214
0.000144414
0.00128203
0.000133462
0.00129153
0.000121977
0.00130063
0.000109942
0.00130932
9.73422e-05
0.00131757
8.41594e-05
0.00132539
7.03769e-05
0.00133276
5.59777e-05
0.00133967
4.09442e-05
0.00134611
2.52586e-05
0.00135207
8.90268e-06
0.00135753
-8.13876e-06
0.00136251
-2.58814e-05
0.00136698
-4.43485e-05
0.00137094
-6.35605e-05
0.0013744
-8.3538e-05
0.00137735
-0.000104302
0.0013798
-0.000125877
0.00138174
-0.000148285
0.00138319
-0.000171553
0.00138415
-0.000195707
0.00138464
-0.000220774
0.00138465
-0.000246781
0.00138418
-0.000273755
0.00138324
-0.000301719
0.00138179
-0.000330692
0.00137981
-0.000360686
0.00137723
-0.000391704
0.00137398
-0.000423737
0.00136996
-0.000456762
0.00136505
-0.000490745
0.0013591
-0.000525635
0.00135196
-0.000561367
0.00134347
-0.000597865
0.00133347
-0.000635042
0.00132181
-0.000672806
0.00130833
-0.000711062
0.00129293
-0.000749716
0.00127547
-0.000788682
0.00125589
-0.000827882
0.00123409
-0.000867248
0.00121
-0.000906716
0.00118353
-0.000946211
0.00115453
-0.000985598
0.00112274
-0.0010246
0.00108762
-0.00106257
0.00104812
-0.00109809
0.00100209
-0.00112843
-0.0011485
0.000945174
0.00100299
0.00025919
-0.000987932
0.00101791
0.000256027
0.0010327
0.00025262
0.00104732
0.000248945
0.00106178
0.000244992
0.00107607
0.000240749
0.00109017
0.000236205
0.00110407
0.00023135
0.00111776
0.000226172
0.00113123
0.00022066
0.00114447
0.000214801
0.00115746
0.000208583
0.00117019
0.000201992
0.00118265
0.000195017
0.00119483
0.000187643
0.00120671
0.000179855
0.00121828
0.000171641
0.00122953
0.000162984
0.00124044
0.000153869
0.00125101
0.000144282
0.00126122
0.000134207
0.00127105
0.000123626
0.0012805
0.000112525
0.00128956
0.000100886
0.00129821
8.86918e-05
0.00130644
7.59258e-05
0.00131425
6.25701e-05
0.00132162
4.86069e-05
0.00132855
3.4018e-05
0.00133502
1.87846e-05
0.00134104
2.88732e-06
0.00134659
-1.36878e-05
0.00135167
-3.09631e-05
0.00135628
-4.89616e-05
0.00136043
-6.7705e-05
0.0013641
-8.72153e-05
0.00136732
-0.000107516
0.00137007
-0.00012863
0.00137237
-0.000150582
0.00137421
-0.000173397
0.0013756
-0.000197098
0.00137653
-0.000221706
0.001377
-0.000247242
0.00137696
-0.000273721
0.0013764
-0.000301154
0.00137525
-0.000329543
0.00137344
-0.000358884
0.0013709
-0.000389163
0.00136752
-0.000420353
0.00136318
-0.00045242
0.00135775
-0.000485317
0.0013511
-0.000518986
0.0013431
-0.000553361
0.0013336
-0.000588369
0.00132249
-0.000623928
0.00130964
-0.000659957
0.00129495
-0.000696372
0.00127832
-0.000733091
0.00125968
-0.000770036
0.00123893
-0.000807135
0.00121599
-0.000844314
0.00119077
-0.00088149
0.00116309
-0.000918536
0.00113271
-0.000955211
0.00109912
-0.000991014
0.00106142
-0.00102487
0.00101783
-0.0010545
0.00096499
-0.00107559
-0.00108104
0.000897534
0.000994432
0.000244189
-0.00097943
0.0010093
0.000241159
0.00102402
0.000237895
0.0010386
0.000234375
0.001053
0.000230587
0.00106723
0.00022652
0.00108127
0.000222164
0.00109511
0.000217509
0.00110874
0.000212542
0.00112215
0.000207252
0.00113532
0.000201628
0.00114825
0.000195656
0.00116091
0.000189325
0.00117331
0.000182621
0.00118542
0.00017553
0.00119724
0.000168038
0.00120875
0.00016013
0.00121994
0.000151793
0.0012308
0.00014301
0.00124132
0.000133766
0.00125148
0.000124044
0.00126128
0.000113829
0.0012707
0.000103103
0.00127974
9.18488e-05
0.00128838
8.00493e-05
0.00129662
6.76863e-05
0.00130445
5.47413e-05
0.00131186
4.11955e-05
0.00131885
2.70298e-05
0.00132541
1.22242e-05
0.00133154
-3.24064e-06
0.00133723
-1.93817e-05
0.00134249
-3.62241e-05
0.00134732
-5.37904e-05
0.00135172
-7.21026e-05
0.00135568
-9.11829e-05
0.00135922
-0.000111053
0.00136233
-0.000131736
0.001365
-0.00015325
0.00136721
-0.000175616
0.00136897
-0.000198849
0.00137022
-0.000222963
0.00137095
-0.000247967
0.00137109
-0.000273864
0.00137059
-0.000300651
0.00136936
-0.000328321
0.00136734
-0.000356856
0.00136441
-0.000386232
0.00136047
-0.000416415
0.00135541
-0.000447365
0.00134913
-0.000479032
0.0013415
-0.000511361
0.00133243
-0.000544288
0.0013218
-0.000577746
0.00130954
-0.000611661
0.00129554
-0.000645958
0.00127973
-0.000680562
0.00126203
-0.000715393
0.00124237
-0.000750375
0.00122066
-0.000785424
0.00119679
-0.000820444
0.0011706
-0.0008553
0.00114183
-0.000889764
0.00111001
-0.000923393
0.0010743
-0.0009553
0.00103312
-0.000983693
0.000983606
-0.00100499
0.000920531
-0.00101251
-0.000996527
0.000836018
0.00098693
0.000229235
-0.000971977
0.00100175
0.000226337
0.00101643
0.000223217
0.00103095
0.000219851
0.00104531
0.000216228
0.0010595
0.000212337
0.00107349
0.000208169
0.00108729
0.000203713
0.00110087
0.000198957
0.00111423
0.00019389
0.00112736
0.0001885
0.00114024
0.000182775
0.00115287
0.000176701
0.00116522
0.000170267
0.00117729
0.000163457
0.00118907
0.000156258
0.00120055
0.000148654
0.00121171
0.000140632
0.00122255
0.000132175
0.00123305
0.000123266
0.0012432
0.00011389
0.001253
0.00010403
0.00126243
9.36677e-05
0.0012715
8.27853e-05
0.00128018
7.13645e-05
0.00128848
5.93864e-05
0.00129639
4.68318e-05
0.00130391
3.3681e-05
0.00131102
1.9914e-05
0.00131774
5.50989e-06
0.00132404
-9.54953e-06
0.00132995
-2.5286e-05
0.00133545
-4.17227e-05
0.00134054
-5.88806e-05
0.00134522
-7.67796e-05
0.00134947
-9.54393e-05
0.0013533
-0.000114878
0.00135667
-0.000135111
0.00135958
-0.000156154
0.00136198
-0.000178018
0.00136384
-0.000200711
0.00136512
-0.000224238
0.00136575
-0.000248599
0.00136567
-0.000273788
0.00136482
-0.000299795
0.0013631
-0.000326605
0.00136044
-0.000354195
0.00135674
-0.000382536
0.00135192
-0.000411595
0.00134589
-0.00044133
0.00133855
-0.000471695
0.00132983
-0.000502637
0.00131964
-0.000534097
0.0013079
-0.000566013
0.00129456
-0.000598317
0.00127954
-0.000630938
0.00126278
-0.000663802
0.00124421
-0.000696826
0.00122376
-0.000729922
0.00120132
-0.000762982
0.00117673
-0.000795857
0.00114974
-0.000828314
0.00111991
-0.000859934
0.00108642
-0.000889902
0.00104778
-0.000916652
0.00100132
-0.000937238
0.000942548
-0.000946215
0.000864348
-0.000934312
-0.000889936
0.000757757
0.000980663
0.000214312
-0.00096574
0.000995455
0.000211544
0.00101011
0.000208566
0.0010246
0.000205353
0.00103894
0.000201893
0.0010531
0.000198178
0.00106707
0.000194196
0.00108085
0.000189937
0.00109441
0.00018539
0.00110776
0.000180544
0.00112087
0.000175386
0.00113374
0.000169904
0.00114636
0.000164085
0.00115871
0.000157916
0.00117078
0.000151383
0.00118257
0.000144471
0.00119406
0.000137165
0.00120524
0.00012945
0.00121611
0.00012131
0.00122664
0.000112728
0.00123685
0.000103686
0.00124671
9.41685e-05
0.00125622
8.41558e-05
0.00126538
7.36298e-05
0.00127417
6.25715e-05
0.0012826
5.09616e-05
0.00129065
3.87804e-05
0.00129832
2.6008e-05
0.00130561
1.26242e-05
0.00131251
-1.39141e-06
0.00131902
-1.60564e-05
0.00132512
-3.13928e-05
0.00133082
-4.74201e-05
0.0013361
-6.41558e-05
0.00134093
-8.16164e-05
0.00134531
-9.9817e-05
0.0013492
-0.000118771
0.00135258
-0.000138488
0.00135541
-0.000158979
0.00135764
-0.000180247
0.00135922
-0.000202296
0.0013601
-0.000225123
0.00136023
-0.000248724
0.00135953
-0.000273089
0.00135794
-0.000298204
0.00135538
-0.000324051
0.00135179
-0.000350605
0.0013471
-0.00037784
0.00134122
-0.00040572
0.0013341
-0.000434208
0.00132567
-0.00046326
0.00131586
-0.000492827
0.00130461
-0.000522854
0.00129188
-0.000553283
0.00127762
-0.00058405
0.00126176
-0.000615085
0.00124427
-0.000646307
0.00122507
-0.000677626
0.00120407
-0.000708928
0.00118115
-0.000740056
0.00115606
-0.000770768
0.00112839
-0.000800641
0.00109734
-0.000828893
0.00106148
-0.000854035
0.00101818
-0.00087335
0.000963002
-0.000882065
0.000889037
-0.000872251
0.00078647
-0.000831746
-0.000750519
0.000647053
0.00097593
0.000199386
-0.000961004
0.000990728
0.000196747
0.00100539
0.000193907
0.0010199
0.000190843
0.00103425
0.000187544
0.00104842
0.000184
0.00106242
0.0001802
0.00107622
0.000176135
0.00108982
0.000171793
0.0011032
0.000167162
0.00111636
0.000162231
0.00112927
0.000156987
0.00114194
0.000151417
0.00115435
0.000145508
0.00116649
0.000139245
0.00117835
0.000132613
0.00118991
0.000125597
0.00120118
0.000118182
0.00121214
0.00011035
0.00122278
0.000102086
0.0012331
9.33712e-05
0.00124308
8.41884e-05
0.00125272
7.45191e-05
0.001262
6.43447e-05
0.00127093
5.36461e-05
0.00127948
4.24043e-05
0.00128767
3.05999e-05
0.00129546
1.82137e-05
0.00130286
5.22608e-06
0.00130985
-8.38069e-06
0.00131642
-2.26246e-05
0.00132255
-3.7524e-05
0.00132822
-5.30949e-05
0.00133342
-6.93519e-05
0.00133811
-8.63081e-05
0.00134227
-0.000103975
0.00134586
-0.000122361
0.00134884
-0.000141475
0.00135119
-0.00016132
0.00135284
-0.000181899
0.00135375
-0.00020321
0.00135388
-0.000225248
0.00135316
-0.000248006
0.00135154
-0.000271473
0.00134897
-0.000295633
0.00134539
-0.000320467
0.00134074
-0.000345952
0.00133496
-0.000372061
0.001328
-0.000398762
0.00131981
-0.000426019
0.00131034
-0.000453792
0.00129955
-0.000482035
0.00128739
-0.0005107
0.00127384
-0.000539729
0.00125885
-0.000569059
0.00124238
-0.000598619
0.0012244
-0.000628321
0.00120482
-0.000658053
0.00118355
-0.000687656
0.00116038
-0.000716884
0.00113493
-0.000745314
0.00110644
-0.000772155
0.00107349
-0.000795944
0.00103349
-0.000814037
0.000982093
-0.00082195
0.000912498
-0.00081247
0.000815486
-0.000775238
0.000680666
-0.000696925
-0.000574597
0.000504744
0.000973275
0.0001844
-0.000958289
0.000988139
0.000181883
0.00100287
0.000179176
0.00101746
0.000176256
0.00103189
0.000173113
0.00104615
0.000169735
0.00106024
0.000166113
0.00107414
0.000162236
0.00108784
0.000158094
0.00110132
0.000153675
0.00111459
0.000148967
0.00112762
0.000143957
0.0011404
0.000138633
0.00115293
0.000132981
0.00116519
0.000126986
0.00117717
0.000120634
0.00118885
0.000113909
0.00120024
0.000106796
0.00121131
9.92789e-05
0.00122206
9.13399e-05
0.00123247
8.29622e-05
0.00124253
7.4128e-05
0.00125223
6.48192e-05
0.00126155
5.50176e-05
0.00127049
4.47047e-05
0.00127904
3.38618e-05
0.00128717
2.24704e-05
0.00129487
1.05119e-05
0.00130213
-2.03174e-06
0.00130892
-1.51764e-05
0.00131524
-2.89396e-05
0.00132105
-4.3337e-05
0.00132634
-5.83825e-05
0.00133107
-7.40887e-05
0.00133523
-9.04665e-05
0.00133878
-0.000107525
0.00134169
-0.000125271
0.00134393
-0.00014371
0.00134545
-0.000162843
0.00134622
-0.00018267
0.0013462
-0.000203187
0.00134534
-0.000224389
0.0013436
-0.000246267
0.00134093
-0.000268807
0.0013373
-0.000291995
0.00133264
-0.000315811
0.00132692
-0.000340234
0.0013201
-0.000365238
0.00131213
-0.000390793
0.00130298
-0.000416867
0.00129261
-0.000443424
0.001281
-0.000470422
0.00126811
-0.000497815
0.00125393
-0.00052555
0.00123844
-0.000553566
0.00122161
-0.000581786
0.00120339
-0.000610105
0.00118371
-0.000638371
0.00116239
-0.000666341
0.00113909
-0.000693581
0.00111308
-0.000719304
0.00108292
-0.000741993
0.00104597
-0.000758995
0.000997822
-0.00076589
0.000931834
-0.000755961
0.000839255
-0.00071989
0.000710924
-0.000646907
0.000544707
-0.000530708
-0.000390746
0.000360856
0.000973546
0.000169277
-0.000958424
0.00098855
0.000166879
0.00100342
0.000164302
0.00101816
0.000161525
0.00103273
0.000158535
0.00104714
0.000155323
0.00106138
0.00015188
0.00107542
0.000148195
0.00108926
0.000144256
0.00110288
0.000140054
0.00111627
0.000135576
0.00112942
0.00013081
0.00114231
0.000125743
0.00115492
0.000120362
0.00116726
0.000114652
0.00117929
0.000108599
0.00119102
0.000102187
0.00120241
9.54026e-05
0.00121346
8.82279e-05
0.00122415
8.06466e-05
0.00123447
7.26418e-05
0.00124441
6.41958e-05
0.00125393
5.52908e-05
0.00126304
4.59087e-05
0.00127172
3.60313e-05
0.00127994
2.56403e-05
0.00128769
1.47174e-05
0.00129496
3.24463e-06
0.00130172
-8.79462e-06
0.00130796
-2.14169e-05
0.00131366
-3.46384e-05
0.0013188
-4.84737e-05
0.00132335
-6.29356e-05
0.0013273
-7.80356e-05
0.00133061
-9.37832e-05
0.00133327
-0.000110186
0.00133525
-0.000127249
0.00133652
-0.000144975
0.00133704
-0.000163365
0.00133679
-0.000182415
0.00133572
-0.000202123
0.00133381
-0.000222479
0.00133102
-0.000243473
0.0013273
-0.000265094
0.00132263
-0.000287324
0.00131697
-0.000310147
0.00131028
-0.000333542
0.00130252
-0.000357484
0.00129368
-0.000381949
0.00128372
-0.000406907
0.00127262
-0.000432327
0.00126037
-0.000458173
0.00124696
-0.000484404
0.00123238
-0.000510972
0.00121663
-0.000537814
0.00119969
-0.000564839
0.00118149
-0.000591909
0.0011619
-0.000618779
0.00114057
-0.000645013
0.00111675
-0.000669765
0.00108894
-0.000691492
0.00105432
-0.000707373
0.00100829
-0.000712962
0.000944147
-0.000701748
0.000853669
-0.000665483
0.000729014
-0.000595236
0.000568068
-0.000485961
0.00038556
-0.0003482
-0.000215665
0.000210478
0.000977358
0.000153995
-0.000962076
0.000992513
0.000151723
0.00100753
0.000149286
0.00102239
0.000146662
0.00103709
0.000143839
0.0010516
0.000140808
0.00106592
0.00013756
0.00108003
0.000134085
0.00109392
0.000130372
0.00110756
0.00012641
0.00112095
0.000122187
0.00113407
0.000117693
0.0011469
0.000112913
0.00115943
0.000107835
0.00117163
0.000102445
0.00118351
9.6728e-05
0.00119502
9.06701e-05
0.00120617
8.42553e-05
0.00121693
7.74674e-05
0.00122729
7.02899e-05
0.00123722
6.27056e-05
0.00124672
5.46969e-05
0.00125577
4.62458e-05
0.00126434
3.73341e-05
0.00127243
2.79434e-05
0.00128001
1.80551e-05
0.00128708
7.65096e-06
0.00129361
-3.28676e-06
0.00129959
-1.47748e-05
0.00130501
-2.68302e-05