/*--------------------------------*- C++ -*----------------------------------*\
| =========                 |                                                 |
| \\      /  F ield         | OpenFOAM: The Open Source CFD Toolbox           |
|  \\    /   O peration     | Version:  2312                                  |
|   \\  /    A nd           | Website:  www.openfoam.com                      |
|    \\/     M anipulation  |                                                 |
\*---------------------------------------------------------------------------*/
FoamFile
{
    version     2.0;
    format      ascii;
    arch        "LSB;label=32;scalar=64";
    class       volVectorField;
    location    "1000";
    object      U;
}
// * * * * * * * * * * * * * * * * * * * * * * * * * * * * * * * * * * * * * //

dimensions      [0 1 -1 0 0 0 0];

internalField   nonuniform List<vector> 
76025
(
(0.0379127 -0.00777358 0)
(0.0381058 -0.00783244 5.15369e-22)
(0.0383005 -0.00788562 0)
(0.0384976 -0.00793575 0)
(0.0386862 -0.00798254 -9.24488e-22)
(0.0388888 -0.0080221 -1.73909e-21)
(0.0390845 -0.00805884 3.00285e-21)
(0.0392866 -0.00808849 -1.26263e-21)
(0.0394884 -0.00811541 -3.9263e-22)
(0.0396913 -0.00813902 3.75007e-22)
(0.0398934 -0.00815769 -9.77982e-26)
(0.040098 -0.0081699 9.88385e-22)
(0.0403068 -0.00817946 -1.32832e-21)
(0.0405151 -0.00818312 0)
(0.0407318 -0.00817939 2.84658e-22)
(0.0409413 -0.00817676 0)
(0.0411574 -0.00816182 0)
(0.041371 -0.0081494 0)
(0.0415865 -0.00812596 2.21075e-22)
(0.0417999 -0.00810393 -1.98235e-22)
(0.0420158 -0.00807138 -1.79992e-22)
(0.0422367 -0.00803457 -4.83792e-22)
(0.0424552 -0.00799383 3.1591e-22)
(0.0426746 -0.00794631 3.70847e-22)
(0.0428947 -0.00789582 -3.60145e-23)
(0.0431119 -0.00784479 5.52596e-23)
(0.0433347 -0.00777901 -2.28488e-22)
(0.0435502 -0.00771334 2.04223e-22)
(0.0437679 -0.00763974 -4.73257e-23)
(0.0439834 -0.00755961 3.04816e-23)
(0.0441976 -0.00748363 1.07611e-23)
(0.0444074 -0.00740478 4.27197e-23)
(0.0446198 -0.00730769 -8.2672e-23)
(0.0448299 -0.00721785 -4.19588e-23)
(0.0450373 -0.00711441 1.73162e-22)
(0.0452412 -0.00701683 1.05147e-23)
(0.0454422 -0.00691172 -4.84454e-23)
(0.045646 -0.00679067 3.0925e-23)
(0.0458496 -0.00667475 2.84558e-24)
(0.0460477 -0.00655262 -5.744e-23)
(0.0462426 -0.00643215 3.89823e-23)
(0.0464374 -0.00630382 -2.16218e-23)
(0.0466353 -0.00615744 4.59602e-23)
(0.0468317 -0.00602034 -1.00859e-22)
(0.0470242 -0.00587496 -1.13409e-22)
(0.0472168 -0.00573308 2.19675e-22)
(0.047412 -0.00557389 2.49351e-22)
(0.0476107 -0.00541805 -7.73101e-22)
(0.0478078 -0.00525925 5.24215e-22)
(0.0480078 -0.00509908 4.7193e-24)
(0.0482121 -0.0049346 -1.4447e-21)
(0.0484213 -0.00476206 -5.88238e-22)
(0.0486391 -0.00458288 6.26838e-22)
(0.0488661 -0.00439846 0)
(0.049105 -0.00421161 -6.51873e-22)
(0.0493594 -0.00402595 -6.89413e-22)
(0.0496363 -0.00382999 2.4579e-23)
(0.0499374 -0.0036303 -7.03691e-22)
(0.0502661 -0.00342592 7.56337e-22)
(0.0506221 -0.00320674 -2.21878e-21)
(0.0510197 -0.00297786 -1.54144e-21)
(0.0514621 -0.00273856 -2.85067e-23)
(0.0519284 -0.00248382 0)
(0.0524083 -0.00220458 4.17266e-21)
(0.0528944 -0.00189501 -1.67578e-21)
(0.0533708 -0.00157045 8.53995e-22)
(0.0538057 -0.00118859 -1.78384e-21)
(0.0542062 -0.000741451 1.86538e-21)
(0.0546046 -0.000267968 3.8173e-21)
(0.0378121 -0.00811181 5.46849e-22)
(0.0380153 -0.00817211 1.57356e-21)
(0.0382205 -0.00822716 -2.09955e-21)
(0.0384275 -0.00827713 0)
(0.0386337 -0.00832389 2.36064e-21)
(0.0388429 -0.0083643 -7.0147e-23)
(0.0390526 -0.00840086 -1.80425e-21)
(0.0392631 -0.00843178 0)
(0.0394753 -0.00845759 -4.72635e-25)
(0.0396886 -0.00847877 -3.86771e-22)
(0.039903 -0.00849525 3.68473e-22)
(0.0401179 -0.00850636 1.806e-24)
(0.0403335 -0.00851266 0)
(0.0405502 -0.0085139 0)
(0.0407692 -0.00850841 5.49394e-22)
(0.0409884 -0.0084998 -1.40894e-21)
(0.0412091 -0.00848411 -2.53623e-22)
(0.0414299 -0.00846489 6.91158e-22)
(0.0416513 -0.00843923 -4.56916e-22)
(0.0418722 -0.00840983 2.03898e-22)
(0.0420937 -0.0083743 -1.59275e-22)
(0.0423153 -0.00833331 3.45727e-22)
(0.042537 -0.00828752 -2.70718e-22)
(0.0427588 -0.0082361 3.74375e-22)
(0.0429806 -0.0081796 -2.34328e-22)
(0.043202 -0.00811906 -2.52554e-22)
(0.0434233 -0.00805183 1.59395e-22)
(0.0436428 -0.0079809 0)
(0.0438615 -0.00790434 0)
(0.0440788 -0.00782308 7.3211e-24)
(0.0442959 -0.00773588 0)
(0.0445124 -0.00764519 -3.18804e-23)
(0.0447269 -0.00754846 5.48486e-23)
(0.0449393 -0.00744879 -9.07132e-23)
(0.0451501 -0.00734424 6.70505e-24)
(0.0453592 -0.00723563 -4.71274e-23)
(0.0455669 -0.00712135 0)
(0.0457728 -0.00700207 -1.392e-22)
(0.0459779 -0.00688033 1.14778e-22)
(0.0461816 -0.00675502 -1.0097e-22)
(0.0463838 -0.00662514 6.69698e-23)
(0.046585 -0.00649023 2.84612e-25)
(0.0467858 -0.00635136 2.88685e-23)
(0.0469868 -0.00621107 -2.69271e-23)
(0.0471879 -0.00606602 2.43904e-22)
(0.0473897 -0.00591639 -1.27828e-22)
(0.0475932 -0.00576172 -1.4093e-22)
(0.0477991 -0.00560573 2.67794e-22)
(0.0480073 -0.00544529 8.63139e-22)
(0.0482191 -0.00528039 1.98355e-24)
(0.0484356 -0.00511161 9.15346e-22)
(0.0486581 -0.00493797 -3.2505e-22)
(0.0488898 -0.00476015 -9.94374e-22)
(0.0491338 -0.00457967 6.58924e-22)
(0.0493927 -0.004396 0)
(0.0496704 -0.00420747 2.14967e-21)
(0.0499722 -0.00401612 3.29806e-23)
(0.0503012 -0.00382196 -7.29492e-22)
(0.0506602 -0.00362313 -7.69831e-22)
(0.0510501 -0.00341522 0)
(0.0514721 -0.00319215 7.54091e-22)
(0.0519239 -0.00295727 2.38949e-21)
(0.0523913 -0.002709 0)
(0.0528593 -0.00243965 -1.67409e-21)
(0.0533161 -0.00214391 9.16206e-22)
(0.0537486 -0.00182342 -1.78771e-21)
(0.0541406 -0.00146887 8.95036e-22)
(0.0544915 -0.00107737 -1.91661e-21)
(0.0547898 -0.000661058 -1.96832e-21)
(0.0377081 -0.00847576 -2.73356e-21)
(0.03792 -0.00853679 1.66943e-21)
(0.0381349 -0.00859259 -5.28439e-22)
(0.0383518 -0.00864296 1.9895e-21)
(0.0385704 -0.00868869 -2.47272e-21)
(0.0387902 -0.00872939 -1.83272e-21)
(0.0390113 -0.00876513 2.27723e-21)
(0.0392336 -0.0087956 0)
(0.0394571 -0.00882076 -2.0999e-25)
(0.0396816 -0.00884059 0)
(0.0399069 -0.00885515 -3.68796e-22)
(0.0401327 -0.00886434 3.50917e-22)
(0.0403588 -0.00886807 1.61302e-21)
(0.0405853 -0.00886646 -1.28336e-21)
(0.0408122 -0.00885915 2.9353e-22)
(0.0410399 -0.00884643 7.99655e-22)
(0.041268 -0.00882812 -2.70018e-22)
(0.0414965 -0.0088043 -2.36343e-22)
(0.0417252 -0.00877509 -6.19426e-22)
(0.0419538 -0.00874034 4.09469e-22)
(0.0421821 -0.00870026 1.71277e-22)
(0.0424098 -0.00865472 -2.93218e-22)
(0.0426372 -0.00860383 1.61746e-22)
(0.0428642 -0.00854754 1.12643e-22)
(0.0430908 -0.00848597 0)
(0.0433165 -0.00841937 -7.35165e-23)
(0.0435412 -0.00834769 -4.64195e-23)
(0.0437649 -0.00827089 6.65075e-23)
(0.0439878 -0.00818886 0)
(0.0442096 -0.00810205 -2.08591e-24)
(0.0444304 -0.00800996 -2.52559e-23)
(0.04465 -0.00791381 -1.3404e-23)
(0.0448678 -0.00781337 0)
(0.0450844 -0.00770827 3.57437e-23)
(0.0452998 -0.00759857 -1.51102e-22)
(0.0455136 -0.0074844 1.04821e-22)
(0.0457258 -0.0073661 0)
(0.0459366 -0.00724358 1.13931e-22)
(0.0461466 -0.00711702 -1.20395e-22)
(0.0463557 -0.00698684 -2.16381e-23)
(0.0465638 -0.00685267 0)
(0.0467711 -0.00671467 -5.2303e-23)
(0.0469783 -0.00657276 -2.88754e-23)
(0.0471861 -0.00642717 2.88166e-23)
(0.0473944 -0.00627784 -1.81656e-22)
(0.0476037 -0.00612487 -1.34024e-22)
(0.0478148 -0.0059683 2.67472e-22)
(0.0480288 -0.00580852 -2.92813e-22)
(0.0482462 -0.00564532 3.01905e-22)
(0.0484681 -0.0054788 -2.99261e-22)
(0.0486962 -0.00530915 -3.11738e-22)
(0.0489327 -0.00513609 6.65158e-22)
(0.0491804 -0.00495982 0)
(0.0494429 -0.00478092 7.01107e-22)
(0.0497235 -0.00459951 -5.74171e-24)
(0.0500261 -0.00441546 -7.39667e-22)
(0.0503549 -0.00422899 -7.55529e-22)
(0.0507119 -0.00403896 1.5078e-21)
(0.0510975 -0.0038434 8.83752e-24)
(0.0515095 -0.00363917 7.86617e-22)
(0.0519434 -0.00342291 -1.59719e-21)
(0.052392 -0.00319437 -7.96026e-22)
(0.052842 -0.00295114 4.23286e-23)
(0.053279 -0.0026895 -8.16868e-22)
(0.0536917 -0.00240707 -8.2418e-22)
(0.0540704 -0.00210349 -2.63495e-21)
(0.0544057 -0.00177486 0)
(0.0546959 -0.0014189 -1.0024e-21)
(0.0549245 -0.0010469 9.56415e-22)
(0.0376043 -0.00886212 0)
(0.0378261 -0.00892368 5.5241e-22)
(0.0380509 -0.00897972 2.63281e-21)
(0.0382777 -0.00903005 -2.09447e-21)
(0.0385065 -0.0090752 -1.44384e-21)
(0.0387372 -0.00911521 2.40467e-21)
(0.0389696 -0.00914989 -4.517e-22)
(0.0392032 -0.00917912 4.31775e-22)
(0.039438 -0.00920283 4.11421e-22)
(0.0396737 -0.00922098 1.52366e-21)
(0.0399101 -0.00923351 -1.5193e-21)
(0.0401471 -0.00924034 -1.35962e-21)
(0.0403844 -0.00924141 3.88405e-22)
(0.0406219 -0.00923672 1.23669e-21)
(0.0408595 -0.00922619 -8.83815e-22)
(0.0410971 -0.00920984 2.65227e-22)
(0.0413346 -0.00918769 -2.44652e-22)
(0.0415721 -0.00915973 -2.2414e-22)
(0.0418093 -0.00912605 6.0756e-22)
(0.0420461 -0.00908663 -2.13068e-22)
(0.0422823 -0.00904156 -1.72182e-22)
(0.0425179 -0.00899083 0)
(0.0427526 -0.00893452 -2.25527e-22)
(0.0429865 -0.00887274 1.23367e-22)
(0.0432195 -0.00880557 1.56276e-22)
(0.0434513 -0.00873316 9.53612e-23)
(0.0436818 -0.0086555 -2.12763e-22)
(0.0439112 -0.00857265 5.59219e-23)
(0.0441393 -0.00848474 0)
(0.044366 -0.00839197 -2.43896e-23)
(0.0445914 -0.00829446 -1.67236e-23)
(0.0448154 -0.00819249 8.785e-23)
(0.0450379 -0.00808614 -8.30138e-23)
(0.0452591 -0.00797506 2.3508e-22)
(0.0454788 -0.00785958 -4.17314e-23)
(0.0456971 -0.00773995 0)
(0.0459139 -0.00761631 0)
(0.0461295 -0.00748863 4.2487e-23)
(0.0463443 -0.00735709 4.27624e-23)
(0.0465582 -0.00722198 2.51236e-23)
(0.0467715 -0.00708327 -8.42276e-25)
(0.0469844 -0.00694093 2.69364e-23)
(0.0471975 -0.00679498 0)
(0.0474111 -0.00664567 -3.4366e-24)
(0.0476258 -0.00649315 0)
(0.0478421 -0.00633739 1.34201e-22)
(0.0480608 -0.00617841 7.78933e-24)
(0.0482832 -0.00601644 -4.47307e-22)
(0.0485102 -0.00585169 0)
(0.0487434 -0.00568425 -3.24781e-22)
(0.048985 -0.00551426 3.19419e-22)
(0.0492374 -0.00534188 -6.6111e-22)
(0.0495039 -0.00516739 0)
(0.049788 -0.00499116 -2.13069e-21)
(0.0500931 -0.00481326 -5.26658e-24)
(0.0504221 -0.00463335 7.18445e-22)
(0.0507769 -0.00445072 7.30955e-22)
(0.0511573 -0.00426405 0)
(0.0515602 -0.00407132 0)
(0.05198 -0.00386999 -7.71438e-22)
(0.0524085 -0.00365757 1.56467e-21)
(0.0528358 -0.00343283 1.58899e-21)
(0.0532497 -0.00319478 0)
(0.0536386 -0.00294214 -1.66132e-21)
(0.0539936 -0.00267411 0)
(0.054309 -0.00239051 2.65615e-21)
(0.0545798 -0.00209008 -8.85126e-22)
(0.0548053 -0.00177042 -9.9712e-22)
(0.0549629 -0.00144439 -1.01738e-21)
(0.037503 -0.00927164 0)
(0.0377353 -0.00933344 0)
(0.0379705 -0.00938941 5.43793e-22)
(0.0382076 -0.00943936 -2.04149e-21)
(0.0384469 -0.00948376 2.53545e-21)
(0.0386883 -0.0095227 -4.76503e-22)
(0.0389314 -0.00955603 0)
(0.0391761 -0.0095836 -4.34189e-22)
(0.039422 -0.00960536 0)
(0.0396689 -0.00962123 -7.61277e-22)
(0.0399166 -0.00963117 4.51122e-23)
(0.0401648 -0.00963511 7.17404e-22)
(0.0404134 -0.009633 0)
(0.0406622 -0.00962481 -5.90167e-22)
(0.0409108 -0.00961053 1.70571e-21)
(0.0411592 -0.00959015 -1.06033e-21)
(0.0414072 -0.00956369 1.21473e-21)
(0.0416547 -0.00953118 -2.38449e-22)
(0.0419015 -0.00949266 1.95304e-22)
(0.0421475 -0.00944817 -1.84059e-22)
(0.0423926 -0.00939778 -1.43568e-22)
(0.0426367 -0.00934155 4.29261e-22)
(0.0428797 -0.00927958 2.34073e-22)
(0.0431214 -0.00921198 0)
(0.0433617 -0.00913885 -1.3208e-22)
(0.0436006 -0.00906033 -2.06929e-23)
(0.043838 -0.00897651 1.33273e-22)
(0.0440737 -0.00888752 -2.15377e-23)
(0.0443079 -0.00879352 -3.16746e-23)
(0.0445403 -0.00869465 5.09632e-23)
(0.0447712 -0.00859109 -5.49667e-23)
(0.0450004 -0.008483 3.79452e-23)
(0.045228 -0.00837064 0)
(0.045454 -0.00825361 -5.00189e-23)
(0.0456785 -0.00813233 -5.9185e-23)
(0.0459015 -0.00800704 0)
(0.0461232 -0.00787786 8.43997e-23)
(0.0463437 -0.00774489 -1.35288e-22)
(0.0465633 -0.00760831 9.1761e-23)
(0.0467822 -0.00746829 -5.19805e-23)
(0.0470007 -0.00732489 -9.57013e-25)
(0.0472191 -0.00717818 -4.57248e-23)
(0.047438 -0.00702826 1.50598e-23)
(0.0476578 -0.00687529 6.37739e-23)
(0.0478793 -0.00671941 -3.18474e-25)
(0.0481032 -0.00656071 4.25049e-22)
(0.0483307 -0.00639935 0)
(0.0485629 -0.00623558 3.01205e-22)
(0.0488016 -0.00606968 9.48134e-25)
(0.0490488 -0.00590187 -3.19521e-22)
(0.0493069 -0.00573242 0)
(0.0495789 -0.00556158 -3.51147e-22)
(0.0498677 -0.00538952 3.44194e-22)
(0.0501763 -0.00521627 7.06296e-22)
(0.0505069 -0.00504154 0)
(0.0508603 -0.00486456 -1.48437e-21)
(0.0512355 -0.00468415 1.49807e-21)
(0.0516289 -0.0044987 -1.51505e-21)
(0.0520345 -0.00430632 -2.14619e-23)
(0.052444 -0.00410511 0)
(0.0528476 -0.00389362 -7.9732e-22)
(0.0532353 -0.00367139 7.88233e-22)
(0.053597 -0.00343863 8.21955e-22)
(0.0539248 -0.00319575 1.63127e-21)
(0.0542132 -0.00294341 -2.53234e-21)
(0.0544598 -0.00268208 1.7356e-21)
(0.0546614 -0.00241157 -8.78251e-22)
(0.0548177 -0.00212861 9.02713e-22)
(0.0548952 -0.00184986 2.95946e-21)
(0.0374044 -0.00970697 -2.28375e-21)
(0.0376476 -0.00976885 8.4189e-23)
(0.0378939 -0.00982454 2.23726e-21)
(0.0381421 -0.00987382 0)
(0.0383924 -0.00991721 -5.01836e-22)
(0.0386448 -0.00995478 0)
(0.038899 -0.0099864 8.93121e-22)
(0.0391548 -0.0100119 -4.32959e-23)
(0.0394119 -0.0100313 -1.25661e-21)
(0.0396701 -0.0100444 3.87557e-22)
(0.0399291 -0.0100513 3.69106e-22)
(0.0401886 -0.0100518 3.41866e-22)
(0.0404485 -0.010046 0)
(0.0407084 -0.0100338 0)
(0.0409682 -0.0100153 -2.81788e-22)
(0.0412276 -0.00999032 -2.60169e-22)
(0.0414864 -0.00995901 4.47144e-22)
(0.0417444 -0.00992139 -4.47258e-22)
(0.0420015 -0.0098775 -3.81102e-22)
(0.0422574 -0.00982743 3.17298e-22)
(0.0425121 -0.00977123 -6.04057e-22)
(0.0427655 -0.00970902 3.05232e-23)
(0.0430172 -0.0096409 2.19155e-22)
(0.0432674 -0.009567 7.68645e-23)
(0.0435158 -0.00948745 1.05014e-22)
(0.0437625 -0.00940239 -1.05322e-22)
(0.0440072 -0.00931199 -2.11585e-23)
(0.04425 -0.0092164 2.12366e-23)
(0.0444908 -0.00911578 0)
(0.0447297 -0.00901032 0)
(0.0449666 -0.00890021 1.63839e-22)
(0.0452017 -0.00878564 2.91228e-23)
(0.0454347 -0.00866683 -9.44068e-23)
(0.0456662 -0.00854345 -1.3353e-22)
(0.0458959 -0.008416 1.31911e-22)
(0.046124 -0.0082847 0)
(0.0463508 -0.00814972 -8.39478e-23)
(0.0465764 -0.00801122 -1.50636e-22)
(0.0468012 -0.00786936 9.91922e-23)
(0.0470255 -0.00772429 -2.01663e-24)
(0.0472496 -0.00757616 -9.68461e-24)
(0.0474741 -0.00742508 4.53638e-23)
(0.0476995 -0.00727121 3.38176e-23)
(0.0479265 -0.00711471 7.07011e-23)
(0.0481561 -0.00695579 -3.566e-22)
(0.0483894 -0.00679465 -4.27299e-25)
(0.0486277 -0.00663154 0)
(0.0488727 -0.00646675 -3.24907e-22)
(0.0491266 -0.00630062 9.89088e-22)
(0.0493916 -0.00613342 -6.70523e-22)
(0.0496702 -0.00596537 -3.50466e-22)
(0.0499651 -0.00579656 -1.29871e-23)
(0.0502784 -0.00562686 -3.64812e-22)
(0.0506114 -0.00545584 -2.75575e-23)
(0.050964 -0.00528272 7.19594e-22)
(0.0513342 -0.00510631 -7.50224e-22)
(0.051718 -0.00492516 -7.61425e-22)
(0.052109 -0.00473774 1.50677e-21)
(0.052499 -0.00454267 7.40103e-24)
(0.052879 -0.00433898 7.78299e-22)
(0.0532396 -0.00412646 -7.555e-22)
(0.0535723 -0.00390579 7.75037e-22)
(0.0538702 -0.00367841 -1.57509e-21)
(0.0541287 -0.00344607 -8.2286e-22)
(0.0543453 -0.00321059 1.61604e-21)
(0.0545196 -0.00297306 -8.61861e-22)
(0.0546483 -0.00273373 -2.69354e-21)
(0.0547286 -0.00248812 -9.95127e-22)
(0.0547144 -0.00226231 0)
(0.0373088 -0.0101699 0)
(0.0375638 -0.0102318 -5.77482e-22)
(0.037822 -0.0102871 2.15744e-24)
(0.0380819 -0.0103355 0)
(0.038344 -0.0103777 0)
(0.0386081 -0.0104136 -4.80092e-22)
(0.0388741 -0.0104432 1.34765e-21)
(0.0391416 -0.0104663 -1.73414e-21)
(0.0394103 -0.0104828 8.46542e-22)
(0.0396801 -0.0104928 -3.88464e-22)
(0.0399507 -0.0104961 0)
(0.0402218 -0.0104928 -3.42603e-22)
(0.0404931 -0.0104827 3.12264e-22)
(0.0407644 -0.0104659 0)
(0.0410354 -0.0104425 0)
(0.0413059 -0.0104123 -2.30466e-22)
(0.0415757 -0.0103755 4.52509e-23)
(0.0418445 -0.0103322 4.27252e-22)
(0.0421121 -0.0102823 3.49603e-22)
(0.0423783 -0.010226 -3.37638e-22)
(0.042643 -0.0101634 -1.41657e-22)
(0.0429059 -0.0100946 -4.30686e-22)
(0.0431669 -0.0100197 2.31906e-23)
(0.043426 -0.00993886 4.10521e-23)
(0.043683 -0.0098523 -1.18191e-22)
(0.0439378 -0.00976016 1.38781e-23)
(0.0441904 -0.00966263 -3.19876e-23)
(0.0444406 -0.00955989 0)
(0.0446886 -0.00945215 0)
(0.0449343 -0.00933961 0)
(0.0451778 -0.00922249 -3.57211e-23)
(0.045419 -0.00910104 -1.02342e-22)
(0.0456581 -0.00897532 1.11355e-22)
(0.0458954 -0.00884529 1.50229e-22)
(0.0461308 -0.0087114 -1.48411e-22)
(0.0463645 -0.00857388 0)
(0.0465969 -0.00843295 1.00457e-22)
(0.0468283 -0.00828878 -4.94083e-23)
(0.0470589 -0.00814156 0)
(0.0472894 -0.00799148 5.92996e-23)
(0.0475201 -0.00783873 -1.18768e-23)
(0.0477518 -0.00768349 7.97582e-24)
(0.0479852 -0.00752597 -3.35198e-23)
(0.0482214 -0.0073664 0)
(0.0484616 -0.00720506 -1.53079e-22)
(0.0487072 -0.00704224 1.50658e-22)
(0.0489599 -0.00687823 0)
(0.0492218 -0.00671335 -1.39063e-23)
(0.0494949 -0.00654786 -6.2283e-25)
(0.0497815 -0.0063819 3.36664e-22)
(0.0500835 -0.00621543 0)
(0.0504022 -0.00604816 -1.1889e-23)
(0.0507379 -0.00587948 -3.54387e-22)
(0.0510897 -0.00570847 -1.10982e-21)
(0.0514547 -0.00553392 -2.29827e-23)
(0.0518282 -0.00535449 7.30022e-22)
(0.0522039 -0.00516883 0)
(0.0525741 -0.00497593 0)
(0.0529301 -0.00477522 7.55143e-22)
(0.0532635 -0.00456688 0)
(0.0535669 -0.00435191 0)
(0.0538341 -0.00413219 1.31405e-23)
(0.0540612 -0.00391025 -7.62638e-22)
(0.0542462 -0.00368893 -1.59616e-21)
(0.0543883 -0.00347092 1.60549e-21)
(0.0544873 -0.00325784 3.34857e-23)
(0.0545373 -0.00304994 8.8192e-22)
(0.0545289 -0.00284193 9.20412e-22)
(0.0543997 -0.00266958 0)
(0.0372157 -0.0106624 0)
(0.0374837 -0.0107243 5.77795e-22)
(0.0377548 -0.0107791 -1.63816e-21)
(0.0380276 -0.0108265 5.52864e-22)
(0.0383025 -0.0108672 0)
(0.0385793 -0.0109012 1.416e-21)
(0.0388579 -0.0109285 -2.27541e-21)
(0.0391379 -0.0109488 4.73554e-23)
(0.0394191 -0.0109622 2.0299e-21)
(0.0397012 -0.0109686 -4.08441e-22)
(0.0399839 -0.0109679 3.52465e-22)
(0.0402671 -0.0109601 3.27707e-22)
(0.0405503 -0.0109452 -9.05054e-22)
(0.0408334 -0.0109233 1.13701e-21)
(0.041116 -0.0108943 -5.44403e-22)
(0.041398 -0.0108584 2.08038e-22)
(0.0416789 -0.0108154 -8.53008e-22)
(0.0419587 -0.0107657 2.20427e-22)
(0.0422371 -0.0107091 -1.37359e-22)
(0.0425138 -0.0106459 1.8178e-22)
(0.0427886 -0.0105761 4.56061e-23)
(0.0430614 -0.0105 5.89265e-22)
(0.043332 -0.0104177 3.8617e-23)
(0.0436003 -0.0103293 -4.4544e-23)
(0.0438662 -0.0102351 -1.07673e-22)
(0.0441295 -0.0101352 1.79649e-23)
(0.0443902 -0.01003 4.58616e-23)
(0.0446483 -0.0099195 -8.97604e-23)
(0.0449037 -0.00980408 0)
(0.0451566 -0.00968394 -8.73738e-23)
(0.045407 -0.00955934 8.77202e-23)
(0.0456548 -0.00943057 9.91272e-24)
(0.0459005 -0.00929754 -7.49598e-23)
(0.0461441 -0.00916054 -8.40655e-23)
(0.0463857 -0.00901994 2.77593e-22)
(0.0466258 -0.00887601 -1.82555e-22)
(0.0468646 -0.00872899 1.63012e-22)
(0.0471026 -0.00857911 -2.23171e-22)
(0.0473403 -0.0084266 1.1451e-22)
(0.0475783 -0.00827169 -3.03776e-23)
(0.0478174 -0.00811464 0)
(0.0480585 -0.00795571 3.5623e-23)
(0.0483026 -0.00779517 -3.50937e-23)
(0.048551 -0.00763332 -7.67917e-23)
(0.0488054 -0.00747047 2.34129e-22)
(0.0490673 -0.00730693 -1.56283e-22)
(0.0493386 -0.00714294 -1.60265e-22)
(0.0496211 -0.00697867 0)
(0.0499165 -0.00681412 -6.98785e-22)
(0.050226 -0.00664908 6.96653e-22)
(0.0505501 -0.00648304 -3.46727e-22)
(0.0508882 -0.00631523 3.39009e-22)
(0.0512382 -0.00614459 3.54463e-22)
(0.0515968 -0.00596987 7.15754e-22)
(0.051959 -0.00578978 7.21223e-22)
(0.0523184 -0.00560319 0)
(0.0526677 -0.00540928 -7.43854e-22)
(0.0529994 -0.00520779 0)
(0.0533058 -0.00499916 1.66701e-23)
(0.0535803 -0.00478464 -7.38907e-22)
(0.0538176 -0.00456632 7.36557e-22)
(0.0540139 -0.00434706 7.5415e-22)
(0.0541672 -0.00413035 -7.63597e-22)
(0.054277 -0.00391982 -9.49258e-24)
(0.0543425 -0.00371886 -1.99076e-23)
(0.0543614 -0.00352947 2.51766e-21)
(0.0543223 -0.00335152 8.63206e-22)
(0.0542032 -0.00318005 9.70069e-22)
(0.0539224 -0.00305434 -9.61852e-22)
(0.0371242 -0.0111869 0)
(0.0374067 -0.0112487 0)
(0.0376921 -0.0113029 -1.08252e-21)
(0.0379791 -0.0113492 1.60705e-21)
(0.038268 -0.0113882 4.99799e-22)
(0.0385587 -0.0114201 0)
(0.0388511 -0.0114448 0)
(0.0391447 -0.011462 -4.20667e-22)
(0.0394393 -0.0114718 7.72455e-22)
(0.0397347 -0.0114741 -5.74721e-23)
(0.0400305 -0.011469 -1.74265e-21)
(0.0403266 -0.0114563 3.42756e-22)
(0.0406225 -0.0114361 -2.79101e-22)
(0.040918 -0.0114084 5.69771e-22)
(0.0412129 -0.0113733 -2.40924e-22)
(0.0415068 -0.0113308 0)
(0.0417995 -0.0112811 0)
(0.0420908 -0.0112242 2.24424e-23)
(0.0423803 -0.0111602 4.69329e-22)
(0.0426678 -0.0110894 -1.35359e-22)
(0.0429532 -0.0110118 9.51359e-23)
(0.0432362 -0.0109276 -8.94641e-23)
(0.0435167 -0.0108371 -4.54979e-23)
(0.0437945 -0.0107404 6.85643e-23)
(0.0440695 -0.0106378 2.21531e-23)
(0.0443416 -0.0105296 0)
(0.0446108 -0.0104159 0)
(0.044877 -0.0102971 7.54387e-23)
(0.0451404 -0.0101734 0)
(0.0454008 -0.0100451 1.06834e-22)
(0.0456586 -0.00991254 -1.07198e-22)
(0.0459136 -0.00977599 -6.44747e-23)
(0.0461664 -0.00963534 7.39769e-23)
(0.0464171 -0.00949109 1.76399e-22)
(0.0466659 -0.00934361 -9.15244e-23)
(0.0469133 -0.0091932 -1.09091e-22)
(0.0471598 -0.00904015 1.12704e-22)
(0.047406 -0.00888474 0)
(0.0476526 -0.00872727 0)
(0.0479006 -0.00856804 3.44944e-23)
(0.0481508 -0.00840737 0)
(0.0484044 -0.00824556 0)
(0.0486628 -0.00808293 -1.15768e-22)
(0.0489276 -0.00791978 1.55623e-22)
(0.0492001 -0.00775634 -8.20664e-23)
(0.049482 -0.00759277 1.60052e-22)
(0.0497747 -0.00742907 0)
(0.0500791 -0.00726506 5.22824e-22)
(0.0503957 -0.00710029 -3.48563e-25)
(0.0507241 -0.00693408 0)
(0.0510628 -0.00676548 -7.1102e-22)
(0.0514091 -0.00659334 -5.39498e-25)
(0.0517592 -0.00641641 -7.08941e-22)
(0.052108 -0.0062335 -3.67411e-22)
(0.0524494 -0.00604362 -7.36338e-22)
(0.052777 -0.00584615 7.16246e-22)
(0.0530839 -0.00564101 7.20281e-22)
(0.0533636 -0.00542877 0)
(0.0536102 -0.00521076 -7.40858e-22)
(0.0538189 -0.00498911 -5.51775e-24)
(0.0539863 -0.00476673 0)
(0.0541101 -0.00454725 0)
(0.0541893 -0.00433485 7.62286e-22)
(0.054223 -0.00413376 0)
(0.0542089 -0.00394786 0)
(0.0541396 -0.00377918 -8.15477e-22)
(0.0539931 -0.00362689 -8.98459e-22)
(0.0537258 -0.00348716 -9.08278e-22)
(0.0532319 -0.00338784 0)
(0.0370344 -0.0117466 0)
(0.0373327 -0.0118081 0)
(0.0376338 -0.0118615 0)
(0.0379364 -0.0119064 5.20594e-22)
(0.0382407 -0.0119436 4.68555e-22)
(0.0385467 -0.0119731 -5.12234e-23)
(0.0388542 -0.0119949 -9.09729e-22)
(0.0391627 -0.0120087 4.18628e-22)
(0.039472 -0.0120145 -3.83591e-22)
(0.0397819 -0.0120123 -7.23226e-22)
(0.040092 -0.0120022 0)
(0.040402 -0.011984 0)
(0.0407116 -0.0119579 -2.38809e-23)
(0.0410206 -0.0119239 -7.92553e-22)
(0.0413286 -0.011882 9.05013e-22)
(0.0416353 -0.0118324 -4.98108e-23)
(0.0419405 -0.0117751 -3.90247e-22)
(0.0422439 -0.0117104 -1.65903e-22)
(0.0425452 -0.0116383 -1.80121e-23)
(0.0428442 -0.011559 0)
(0.0431407 -0.0114727 -1.6965e-22)
(0.0434344 -0.0113798 0)
(0.0437252 -0.0112803 -7.59081e-23)
(0.044013 -0.0111746 3.40966e-23)
(0.0442976 -0.0110629 9.71551e-24)
(0.044579 -0.0109455 4.11042e-23)
(0.0448572 -0.0108228 -9.43603e-23)
(0.0451321 -0.010695 1.15547e-22)
(0.0454039 -0.0105625 -8.46334e-23)
(0.0456727 -0.0104256 0)
(0.0459385 -0.0102846 -1.48611e-22)
(0.0462017 -0.0101399 -1.05969e-22)
(0.0464626 -0.00999142 1.66944e-22)
(0.0467215 -0.00983985 -1.94861e-22)
(0.046979 -0.00968555 1.09895e-22)
(0.0472355 -0.00952886 -1.0848e-22)
(0.0474919 -0.00937013 -5.76775e-23)
(0.0477489 -0.00920973 6.63878e-23)
(0.0480074 -0.009048 3.41553e-23)
(0.0482685 -0.00888528 -1.01703e-22)
(0.0485335 -0.00872191 -9.41346e-24)
(0.0488036 -0.00855817 0)
(0.0490801 -0.00839428 3.77885e-23)
(0.0493643 -0.00823037 -7.78036e-23)
(0.0496573 -0.00806643 7.98037e-23)
(0.0499598 -0.00790227 0)
(0.0502722 -0.00773747 0)
(0.0505941 -0.00757141 1.82555e-22)
(0.0509243 -0.00740321 -3.43019e-22)
(0.0512607 -0.00723185 -7.18308e-22)
(0.0516001 -0.00705614 1.42058e-21)
(0.0519386 -0.00687493 -3.62914e-22)
(0.0522713 -0.00668714 3.52814e-22)
(0.0525927 -0.00649195 3.53827e-22)
(0.0528972 -0.00628891 -7.29484e-22)
(0.0531788 -0.00607802 7.11353e-22)
(0.0534321 -0.00585988 0)
(0.0536519 -0.00563575 -7.31505e-22)
(0.0538341 -0.00540761 -1.88092e-24)
(0.0539752 -0.00517816 7.24013e-22)
(0.0540729 -0.00495087 0)
(0.0541253 -0.00472987 0)
(0.0541312 -0.00451979 0)
(0.0540877 -0.00432518 1.55303e-21)
(0.0539883 -0.00415013 8.02146e-22)
(0.053817 -0.00399599 8.61488e-22)
(0.0535328 -0.00386115 -1.75626e-21)
(0.0530615 -0.00373699 5.94643e-23)
(0.0522192 -0.00365197 9.45644e-22)
(0.0369473 -0.0123453 0)
(0.0372627 -0.0124064 1.11526e-21)
(0.0375808 -0.0124587 -1.38174e-21)
(0.0379004 -0.0125021 7.41693e-22)
(0.0382216 -0.0125371 -1.48223e-21)
(0.0385443 -0.0125639 -4.54142e-22)
(0.0388683 -0.0125823 -4.25688e-22)
(0.0391932 -0.0125922 0)
(0.0395186 -0.0125936 7.49674e-22)
(0.0398443 -0.0125865 6.82271e-22)
(0.0401699 -0.0125708 -6.68623e-22)
(0.0404952 -0.0125467 2.86159e-22)
(0.0408198 -0.012514 -2.34542e-22)
(0.0411434 -0.012473 3.00265e-22)
(0.0414657 -0.0124237 8.42462e-22)
(0.0417864 -0.0123662 -5.1035e-23)
(0.0421051 -0.0123007 -5.05349e-23)
(0.0424217 -0.0122273 -3.01531e-22)
(0.0427357 -0.0121462 -1.22587e-22)
(0.0430471 -0.0120578 -1.53141e-22)
(0.0433555 -0.0119621 1.74768e-22)
(0.0436608 -0.0118595 0)
(0.0439627 -0.0117503 2.2679e-23)
(0.0442613 -0.0116348 0)
(0.0445564 -0.0115133 -1.82187e-23)
(0.0448479 -0.0113862 -4.05782e-23)
(0.0451359 -0.0112538 3.13167e-23)
(0.0454205 -0.0111165 0)
(0.0457018 -0.0109748 6.52001e-23)
(0.04598 -0.0108289 1.48946e-22)
(0.0462553 -0.0106793 -1.49225e-22)
(0.0465282 -0.0105263 8.36504e-23)
(0.0467991 -0.0103702 -2.05766e-22)
(0.0470685 -0.0102115 4.14812e-22)
(0.047337 -0.0100508 -1.09484e-22)
(0.0476055 -0.00988837 0)
(0.0478748 -0.00972468 -6.7058e-23)
(0.0481459 -0.00956008 5.48483e-24)
(0.0484199 -0.00939493 1.06081e-22)
(0.0486978 -0.0092295 -8.97691e-23)
(0.0489807 -0.009064 1.77695e-23)
(0.0492697 -0.00889852 -5.98644e-23)
(0.0495655 -0.00873303 3.90183e-23)
(0.0498686 -0.00856731 0)
(0.0501793 -0.00840097 0)
(0.050497 -0.00823341 0)
(0.0508207 -0.00806386 1.75636e-22)
(0.0511487 -0.00789137 1.77323e-22)
(0.0514785 -0.0077149 0)
(0.0518068 -0.00753337 3.46861e-22)
(0.0521298 -0.00734575 3.61914e-22)
(0.0524432 -0.00715116 3.61771e-22)
(0.0527422 -0.00694895 0)
(0.0530221 -0.00673878 0)
(0.0532779 -0.00652071 -7.24754e-22)
(0.0535051 -0.00629529 7.09674e-22)
(0.0536994 -0.00606357 0)
(0.053857 -0.00582723 7.17639e-22)
(0.0539749 -0.00558858 -7.23807e-22)
(0.0540503 -0.00535063 -7.40734e-22)
(0.0540809 -0.00511707 7.48454e-22)
(0.0540645 -0.00489226 -7.50262e-22)
(0.0539978 -0.00468096 0)
(0.0538742 -0.00448769 -7.9171e-22)
(0.0536793 -0.00431623 -9.11761e-24)
(0.0533822 -0.00416648 -1.6517e-21)
(0.0529107 -0.00403562 -1.72994e-21)
(0.0521476 -0.00389832 1.88211e-21)
(0.0507689 -0.00382681 -1.02003e-21)
(0.0368648 -0.0129879 2.86115e-22)
(0.0371986 -0.0130484 0)
(0.0375352 -0.0130994 2.66821e-22)
(0.0378732 -0.0131408 -1.22967e-21)
(0.0382127 -0.0131733 2.13609e-21)
(0.0385536 -0.0131969 -4.67827e-22)
(0.0388957 -0.0132116 4.20541e-22)
(0.0392384 -0.0132172 -7.46837e-22)
(0.0395814 -0.0132137 3.80266e-22)
(0.0399245 -0.0132011 3.371e-22)
(0.0402672 -0.0131794 2.93797e-22)
(0.0406093 -0.0131486 -8.05547e-22)
(0.0409504 -0.0131088 2.844e-22)
(0.0412901 -0.0130601 -6.24536e-22)
(0.0416281 -0.0130026 -1.50057e-22)
(0.0419641 -0.0129365 5.2053e-23)
(0.0422977 -0.0128619 3.08308e-22)
(0.0426288 -0.0127792 0)
(0.0429569 -0.0126885 0)
(0.0432819 -0.01259 5.2505e-23)
(0.0436035 -0.0124842 5.19335e-23)
(0.0439217 -0.0123713 9.85264e-24)
(0.0442361 -0.0122517 -5.16682e-24)
(0.0445468 -0.0121258 8.30911e-23)
(0.0448538 -0.011994 -8.31034e-23)
(0.045157 -0.0118566 4.47015e-23)
(0.0454565 -0.0117142 5.57422e-23)
(0.0457525 -0.0115672 0)
(0.0460452 -0.011416 -6.38621e-23)
(0.046335 -0.0112611 -1.71042e-22)
(0.0466221 -0.011103 -2.00562e-23)
(0.0469072 -0.010942 1.88953e-22)
(0.0471909 -0.0107785 -1.14416e-22)
(0.0474738 -0.0106133 0)
(0.0477566 -0.0104468 6.44733e-23)
(0.0480403 -0.0102792 -6.77333e-23)
(0.0483258 -0.0101111 6.48397e-23)
(0.0486139 -0.0099427 -1.41275e-22)
(0.0489055 -0.00977413 0)
(0.0492012 -0.0096055 -1.95782e-23)
(0.0495017 -0.00943674 1.94303e-23)
(0.0498072 -0.00926763 -3.15839e-23)
(0.0501177 -0.00909778 1.22514e-22)
(0.0504326 -0.00892665 -2.49318e-22)
(0.0507511 -0.00875355 1.64562e-22)
(0.0510715 -0.00857765 1.72701e-22)
(0.051392 -0.00839806 -1.60198e-22)
(0.0517098 -0.00821385 3.59489e-22)
(0.0520222 -0.00802411 -3.4295e-22)
(0.0523255 -0.00782802 -8.77764e-22)
(0.0526162 -0.00762488 1.70352e-24)
(0.0528905 -0.00741423 -3.47291e-22)
(0.0531442 -0.00719582 0)
(0.0533737 -0.00696972 0)
(0.0535752 -0.00673636 -7.24872e-22)
(0.0537451 -0.00649655 1.07619e-21)
(0.0538803 -0.00625157 -7.19554e-22)
(0.0539777 -0.00600317 0)
(0.0540348 -0.00575373 7.48268e-22)
(0.0540488 -0.00550621 1.49793e-21)
(0.0540167 -0.00526421 -7.54458e-22)
(0.0539345 -0.0050319 -2.69639e-24)
(0.053795 -0.0048137 7.86977e-22)
(0.0535845 -0.00461348 1.90092e-24)
(0.0532746 -0.00443403 -1.64927e-21)
(0.0528085 -0.00427321 1.72301e-21)
(0.0520646 -0.00412606 9.10943e-22)
(0.0508496 -0.00395035 0)
(0.0486294 -0.00391576 0)
(0.0367897 -0.0136805 -2.81054e-22)
(0.0371434 -0.0137401 -1.33366e-21)
(0.0375001 -0.0137895 1.05949e-21)
(0.037858 -0.0138288 0)
(0.0382175 -0.0138584 2.30219e-22)
(0.0385783 -0.0138786 8.23526e-22)
(0.0389401 -0.0138892 -6.26936e-22)
(0.0393024 -0.01389 8.84983e-22)
(0.0396648 -0.0138811 -7.03914e-22)
(0.0400271 -0.0138625 0)
(0.0403887 -0.0138341 -1.53704e-22)
(0.0407494 -0.0137961 0)
(0.0411087 -0.0137485 -1.87414e-22)
(0.0414663 -0.0136915 6.26157e-22)
(0.0418219 -0.0136252 0)
(0.0421751 -0.0135498 0)
(0.0425255 -0.0134656 0)
(0.0428729 -0.0133728 1.16273e-22)
(0.0432171 -0.0132718 -1.54136e-22)
(0.0435577 -0.0131628 -5.14226e-23)
(0.0438946 -0.0130463 0)
(0.0442276 -0.0129226 0)
(0.0445567 -0.0127922 0)
(0.0448818 -0.0126555 -1.69819e-22)
(0.045203 -0.012513 2.23592e-22)
(0.0455203 -0.0123652 -1.32924e-22)
(0.0458339 -0.0122126 -1.2294e-22)