/*--------------------------------*- C++ -*----------------------------------*\
| =========                 |                                                 |
| \\      /  F ield         | OpenFOAM: The Open Source CFD Toolbox           |
|  \\    /   O peration     | Version:  2312                                  |
|   \\  /    A nd           | Website:  www.openfoam.com                      |
|    \\/     M anipulation  |                                                 |
\*---------------------------------------------------------------------------*/
FoamFile
{
    version     2.0;
    format      ascii;
    arch        "LSB;label=32;scalar=64";
    class       volScalarField;
    location    "1300";
    object      epsilon;
}
// * * * * * * * * * * * * * * * * * * * * * * * * * * * * * * * * * * * * * //

dimensions      [0 2 -3 0 0 0 0];

internalField   nonuniform List<scalar> 
76025
(
0.000250017
0.000249564
0.000249317
0.000249025
0.000248326
0.000247861
0.000247237
0.000246391
0.00024554
0.000244964
0.000244601
0.000243986
0.000243593
0.000243265
0.000243089
0.000242737
0.000242427
0.000242038
0.000241609
0.000241066
0.000240502
0.000239937
0.000239232
0.000238692
0.000237751
0.000236459
0.000236044
0.000235625
0.000236519
0.000235544
0.000236021
0.000236258
0.000236084
0.000235628
0.000235072
0.000234396
0.000233772
0.000233063
0.000232337
0.00023166
0.000230905
0.000230325
0.000229478
0.000228906
0.00022797
0.000227864
0.000228389
0.00022939
0.000231894
0.000234034
0.000238485
0.000241824
0.000248698
0.000253111
0.000262493
0.000268262
0.000279829
0.000288926
0.000304124
0.000319567
0.000342345
0.000368058
0.000410435
0.000455989
0.000543126
0.000647154
0.000829138
0.00119504
0.0017168
0.000251895
0.000251396
0.000250524
0.00025015
0.000250257
0.000250095
0.000249712
0.000249093
0.000248378
0.000247626
0.000247012
0.000246445
0.000245981
0.000245496
0.000245166
0.000244598
0.000244133
0.000243676
0.000242876
0.000242369
0.000242079
0.000240932
0.000241515
0.000240552
0.000240929
0.000240588
0.000240109
0.00023965
0.000239431
0.000239051
0.000238813
0.000238475
0.000238011
0.00023749
0.000236976
0.00023641
0.000235889
0.000235325
0.000234819
0.000234244
0.000233936
0.000232657
0.000232725
0.000232616
0.000233396
0.000234431
0.000236335
0.000238274
0.000241226
0.00024426
0.000248409
0.00025277
0.000258347
0.000264419
0.000272171
0.000280908
0.000292509
0.000306316
0.000323951
0.000347206
0.000373742
0.000414483
0.000459627
0.000526169
0.00063345
0.000770316
0.00104705
0.00156986
0.00225326
0.000254088
0.000253584
0.000252752
0.000252587
0.000252088
0.000251771
0.000250803
0.000250409
0.000250279
0.000250248
0.000249995
0.000249391
0.00024897
0.000248281
0.000247585
0.000246754
0.000245914
0.000245418
0.000244871
0.000244543
0.000243544
0.000243195
0.000243196
0.000242069
0.000241795
0.000241452
0.00024247
0.000241478
0.000242109
0.000242306
0.000242071
0.000241751
0.000241275
0.000240837
0.000240294
0.00023986
0.000239357
0.00023881
0.000238415
0.000237234
0.000237183
0.000237421
0.000238266
0.000239187
0.000240743
0.000242299
0.000244689
0.000247046
0.000250583
0.000253974
0.000259061
0.000263882
0.000271171
0.000278242
0.000288729
0.00029936
0.000314567
0.000330664
0.000352923
0.000378444
0.000412703
0.000457627
0.000515025
0.000603549
0.000745625
0.000938014
0.00134201
0.00196712
0.00278891
0.000256296
0.000255626
0.00025535
0.000255452
0.000255119
0.000254882
0.000254446
0.000254205
0.00025386
0.000253555
0.000252811
0.000252317
0.000250981
0.000250428
0.000250234
0.000250082
0.000249185
0.000248396
0.000247722
0.000247097
0.000245884
0.000245441
0.000245039
0.000244663
0.000245157
0.000243994
0.000243701
0.000244068
0.00024431
0.000244335
0.000243659
0.000243234
0.000242867
0.000241821
0.000241887
0.000242006
0.000242246
0.000242477
0.00024288
0.00024332
0.000244074
0.000244923
0.000246161
0.000247542
0.000249442
0.000251566
0.000254387
0.000257543
0.000261628
0.000266201
0.000272008
0.000278577
0.000286802
0.000296236
0.000307919
0.000321595
0.0003385
0.000358826
0.000384753
0.000417547
0.000459831
0.000518912
0.000595974
0.000721929
0.000914785
0.00119062
0.00174396
0.00247191
0.00349898
0.000258377
0.000258051
0.000258009
0.000258069
0.000257556
0.000257465
0.000256921
0.000256644
0.000256356
0.000255525
0.000255214
0.000255349
0.000255125
0.000254802
0.000254353
0.000253837
0.000252929
0.000252134
0.000251222
0.000249888
0.000249332
0.000249251
0.000248129
0.000247742
0.000248086
0.00024829
0.000247368
0.000247235
0.000247106
0.000246283
0.000246493
0.000246737
0.000247178
0.000247479
0.000247927
0.000248378
0.000248932
0.000249488
0.00025022
0.000251008
0.000252101
0.000253349
0.000255011
0.000256927
0.000259395
0.000262237
0.000265806
0.000269894
0.000274951
0.000280719
0.000287818
0.000295921
0.000305882
0.000317389
0.00033153
0.000348277
0.000369045
0.000394468
0.000427378
0.000468577
0.000524489
0.000601914
0.000709302
0.000889575
0.00114822
0.00154229
0.002248
0.00307913
0.00430209
0.00026344
0.000262919
0.000262003
0.000261787
0.000261348
0.000261031
0.00026082
0.000261002
0.000260928
0.000260528
0.000260048
0.000259507
0.00025909
0.000258803
0.000258171
0.000257875
0.000257089
0.000256936
0.00025625
0.000255716
0.000254388
0.000253871
0.00025326
0.000253398
0.000253599
0.000253819
0.000254022
0.000253005
0.000252453
0.000253047
0.000253849
0.000254472
0.000255008
0.000255477
0.000256018
0.000256595
0.0002573
0.000258117
0.000259133
0.000260322
0.00026183
0.000263635
0.000265864
0.000268502
0.000271701
0.000275449
0.00027994
0.000285169
0.000291403
0.000298653
0.00030729
0.0003174
0.000329462
0.000343835
0.000361028
0.000382172
0.000407841
0.000440598
0.000482467
0.000536706
0.000613309
0.00071951
0.000878335
0.00113118
0.00148185
0.00202002
0.00287207
0.00379992
0.00525707
0.000269071
0.000268612
0.0002675
0.000267236
0.000267008
0.00026729
0.000266711
0.000266635
0.000265719
0.000265487
0.000265541
0.000265412
0.000265091
0.000264188
0.000263739
0.00026285
0.000262659
0.000261796
0.00026124
0.000260849
0.000260283
0.000259915
0.000259396
0.000259629
0.000259917
0.000260255
0.000260678
0.000261133
0.000261567
0.000262062
0.000262641
0.000263209
0.000263846
0.000264527
0.000265337
0.000266248
0.000267325
0.000268581
0.000270079
0.000271816
0.000273922
0.000276408
0.000279379
0.000282857
0.000286973
0.000291765
0.000297413
0.000303973
0.000311718
0.000320717
0.00033142
0.000343917
0.000358955
0.0003768
0.000398547
0.000425316
0.000458499
0.000501608
0.000557384
0.000633088
0.000741686
0.000895072
0.00112773
0.00147269
0.00193827
0.0026328
0.00361268
0.00464937
0.00630618
0.000276481
0.000275818
0.000275264
0.000274473
0.00027419
0.000274061
0.000273209
0.000272995
0.000273197
0.000272388
0.000272201
0.000272319
0.000271432
0.000271102
0.000271182
0.000270953
0.00027029
0.000269044
0.000268412
0.000268002
0.000268027
0.00026729
0.000267743
0.000268485
0.000269213
0.000269886
0.000270542
0.000271198
0.000271878
0.000272579
0.000273346
0.000274141
0.000275052
0.000276068
0.000277252
0.000278597
0.000280143
0.000281928
0.000284001
0.000286372
0.000289172
0.000292441
0.000296276
0.000300738
0.000305952
0.000312011
0.000319089
0.000327325
0.000336991
0.000348281
0.00036167
0.000377439
0.000396466
0.000419292
0.000447479
0.000482584
0.000527253
0.00058631
0.000664975
0.000775296
0.000933765
0.00115766
0.00148763
0.00194124
0.00254111
0.00338909
0.00448502
0.00563299
0.00751942
0.000283947
0.000283592
0.000283587
0.000283315
0.00028287
0.000282516
0.000281954
0.000281456
0.000281042
0.00028059
0.000280063
0.000280119
0.000280273
0.000279508
0.000279967
0.000279225
0.000279642
0.000279866
0.000280022
0.000280308
0.000280607
0.000280825
0.000281179
0.000281666
0.000282249
0.000282885
0.00028358
0.000284327
0.000285143
0.000286032
0.000287014
0.000288086
0.00028932
0.000290719
0.000292335
0.000294173
0.000296268
0.000298671
0.000301436
0.000304577
0.00030824
0.000312489
0.00031743
0.000323155
0.0003298
0.000337509
0.000346477
0.000356923
0.000369166
0.000383532
0.000400616
0.000420928
0.000445665
0.000475783
0.000513703
0.000561848
0.000625038
0.000710206
0.000826589
0.000991297
0.00122239
0.00154219
0.00198652
0.00256171
0.00330384
0.00429591
0.00549438
0.00676531
0.00877759
0.000293895
0.000293992
0.000293234
0.000293028
0.000293085
0.000292263
0.000292086
0.000291055
0.000290754
0.000290191
0.000290276
0.000290635
0.000291197
0.000291716
0.000292291
0.000292733
0.000293211
0.000293687
0.000294173
0.000294703
0.000295272
0.000295858
0.000296485
0.000297163
0.000297908
0.000298714
0.0002996
0.000300568
0.000301637
0.000302824
0.000304134
0.000305605
0.00030729
0.00030921
0.000311407
0.000313901
0.000316726
0.000319946
0.00032362
0.000327774
0.000332558
0.00033808
0.000344452
0.000351814
0.00036032
0.000370189
0.000381654
0.000395062
0.000410813
0.000429474
0.000451831
0.000478879
0.00051228
0.000553987
0.00060765
0.00067761
0.000771663
0.000899542
0.00107529
0.00131808
0.00164574
0.00208088
0.00264907
0.00335267
0.0042366
0.00536071
0.00665606
0.00803379
0.0104033
0.000307828
0.000308043
0.000308239
0.000308298
0.000308695
0.000307695
0.000307324
0.000306923
0.000306398
0.00030703
0.000307556
0.000307954
0.000308401
0.000308921
0.0003095
0.000310109
0.000310748
0.000311419
0.000312125
0.000312876
0.000313677
0.000314528
0.000315435
0.000316405
0.00031745
0.000318575
0.000319805
0.000321139
0.000322614
0.000324238
0.000326025
0.000328046
0.000330336
0.000332936
0.000335886
0.000339217
0.000342973
0.00034723
0.000352068
0.00035752
0.000363754
0.000370929
0.000379184
0.000388717
0.000399732
0.000412545
0.000427495
0.000445107
0.000466005
0.000491127
0.000521722
0.000559589
0.000607332
0.000668627
0.000748962
0.000855722
0.000999589
0.00119321
0.00145315
0.00179671
0.00223926
0.00279986
0.00349449
0.00432821
0.00534813
0.00659615
0.00798101
0.00951693
0.0123538
0.000322732
0.000322893
0.000323156
0.000323478
0.000323991
0.000324475
0.000324998
0.000325646
0.000326169
0.000326827
0.000327527
0.000328244
0.000329
0.000329807
0.000330664
0.000331565
0.000332508
0.000333497
0.000334534
0.000335627
0.000336781
0.000338006
0.000339307
0.000340698
0.000342186
0.000343789
0.000345525
0.000347403
0.000349466
0.000351706
0.000354184
0.000356963
0.00036008
0.000363594
0.000367544
0.000371979
0.000376962
0.000382582
0.000388952
0.000396128
0.000404295
0.000413691
0.000424519
0.000437058
0.000451638
0.000468729
0.000488912
0.000513024
0.000542174
0.000577931
0.000622496
0.000678939
0.000751561
0.000846374
0.000971194
0.00113647
0.00135433
0.00163864
0.00200432
0.00246424
0.00303084
0.00371834
0.00453834
0.00550063
0.0066521
0.0080218
0.0095139
0.0113009
0.0150427
0.000344504
0.000345255
0.000346073
0.000346835
0.000347585
0.000348359
0.000349186
0.000350106
0.000351079
0.00035212
0.000353212
0.000354342
0.000355509
0.000356712
0.000357955
0.000359238
0.000360568
0.00036195
0.000363393
0.000364905
0.000366498
0.000368184
0.000369975
0.000371887
0.000373934
0.00037614
0.000378516
0.000381096
0.000383905
0.000386951
0.000390338
0.000394114
0.000398322
0.000403047
0.000408335
0.000414256
0.000420909
0.000428404
0.000436902
0.000446518
0.000457463
0.000470107
0.000484783
0.000501937
0.00052214
0.000546177
0.0005751
0.000610341
0.000653907
0.000708452
0.000777745
0.000866621
0.000981601
0.0011309
0.00132405
0.00157286
0.0018881
0.00228264
0.00276641
0.00334896
0.00404056
0.00485183
0.00579656
0.00688625
0.00817535
0.00968026
0.0113462
0.0136104
0.017711
0.000379596
0.000379976
0.000380558
0.00038123
0.00038196
0.000382757
0.000383636
0.000384617
0.000385703
0.000386895
0.000388182
0.000389553
0.000390998
0.000392512
0.000394093
0.000395743
0.000397467
0.000399274
0.000401174
0.000403178
0.000405302
0.000407559
0.00040997
0.000412547
0.000415321
0.000418307
0.000421535
0.000425046
0.000428845
0.000433023
0.000437661
0.000442822
0.000448569
0.000455013
0.000462224
0.000470303
0.000479414
0.000489713
0.000501437
0.000514831
0.00053018
0.000548071
0.000569122
0.000594118
0.000624108
0.000660486
0.00070516
0.000760585
0.000830171
0.000918065
0.00102995
0.00117227
0.00135328
0.00158186
0.0018674
0.0022205
0.00264844
0.00316247
0.00376668
0.00447162
0.00528495
0.00621784
0.0072922
0.00851529
0.00997491
0.0116596
0.0136801
0.0166253
0.0221948
0.000422055
0.000423007
0.000424049
0.00042514
0.000426275
0.000427466
0.000428718
0.000430043
0.000431457
0.000432968
0.00043458
0.000436294
0.000438108
0.000440021
0.000442037
0.00044416
0.000446399
0.000448766
0.000451276
0.000453946
0.000456793
0.000459842
0.000463112
0.000466634
0.000470434
0.000474539
0.000479008
0.000483847
0.00048915
0.000495023
0.000501546
0.000508811
0.000516921
0.000526028
0.000536256
0.000547772
0.000560845
0.000575758
0.000592887
0.000612736
0.000635851
0.000663127
0.000695801
0.000735299
0.000783514
0.00084283
0.000916404
0.00100799
0.00112255
0.00126544
0.00144369
0.001664
0.00193483
0.0022635
0.00265777
0.0031256
0.00367081
0.00430455
0.00502562
0.00585146
0.00678399
0.00784519
0.00906702
0.0104525
0.0121681
0.0141471
0.0168581
0.021004
0.0281557
0.000476118
0.000477746
0.000479469
0.000481243
0.000483073
0.000484967
0.000486925
0.00048895
0.000491055
0.000493251
0.000495549
0.000497959
0.000500489
0.000503147
0.000505943
0.00050889
0.000512003
0.000515302
0.000518807
0.000522544
0.000526543
0.00053083
0.000535448
0.00054043
0.000545819
0.000551684
0.000558043
0.000565018
0.000572743
0.000581324
0.000590892
0.000601595
0.000613623
0.000627219
0.000642627
0.000660187
0.000680373
0.000703755
0.000731039
0.000763163
0.0008013
0.000846831
0.000901863
0.00096887
0.00105082
0.00115117
0.00127422
0.00142458
0.00160805
0.00182992
0.00209731
0.00241531
0.00279164
0.0032305
0.00373868
0.00432128
0.00498103
0.00573061
0.00656502
0.00751507
0.00857209
0.00979079
0.011205
0.0128376
0.0149944
0.0175009
0.0216801
0.0271017
0.0408812
0.000549783
0.000552221
0.000554807
0.000557489
0.000560267
0.000563152
0.000566139
0.000569225
0.000572418
0.00057573
0.000579173
0.00058276
0.000586506
0.000590427
0.000594541
0.000598872
0.000603445
0.00060829
0.000613443
0.000618943
0.000624834
0.000631171
0.000638001
0.000645409
0.000653461
0.000662219
0.000671887
0.00068262
0.000694581
0.000707971
0.000723037
0.000740067
0.000759446
0.00078163
0.000807128
0.000836644
0.000871059
0.000911436
0.000959081
0.00101556
0.0010828
0.00116309
0.00125899
0.0013738
0.00151154
0.00167604
0.001872
0.00210369
0.0023767
0.00269485
0.00306478
0.00348873
0.00397463
0.00452273
0.00514191
0.00583352
0.00660413
0.00746719
0.00841951
0.00950996
0.0107201
0.0121731
0.0138768
0.0159704
0.0189021
0.0225734
0.0291912
0.0375125
0.0619947
0.000652986
0.000656487
0.000660228
0.000664147
0.00066825
0.000672551
0.000677044
0.000681728
0.000686612
0.000691711
0.000697043
0.000702625
0.000708479
0.000714631
0.00072111
0.000727953
0.0007352
0.000742898
0.000751104
0.000759886
0.000769313
0.000779493
0.000790533
0.000802512
0.000815705
0.00083034
0.000846649
0.000864919
0.00088549
0.000908772
0.000935265
0.000965548
0.00100036
0.00104054
0.00108703
0.00114104
0.00120401
0.00127754
0.00136354
0.00146412
0.00158173
0.00171902
0.00187901
0.00206482
0.00227979
0.00252778
0.00281343
0.00313968
0.00351162
0.00393094
0.00440461
0.00493138
0.00552224
0.00617186
0.00689725
0.00769179
0.00857691
0.00955902
0.0106573
0.0119309
0.0133842
0.0152307
0.017437
0.0204666
0.0248563
0.0310831
0.0418085
0.0571313
0.0822367
0.000806929
0.000812277
0.000818005
0.000824041
0.000830395
0.000837091
0.000844127
0.000851508
0.000859254
0.000867391
0.000875948
0.000884962
0.000894472
0.00090453
0.000915199
0.00092655
0.000938675
0.000951678
0.000965678
0.000980844
0.000997293
0.00101528
0.00103519
0.0010573
0.00108195
0.00110953
0.00114053
0.00117547
0.00121498
0.00125979
0.00131073
0.00136875
0.00143497
0.00151058
0.0015969
0.00169553
0.00180819
0.00193677
0.00208332
0.00225003
0.00243927
0.00265349
0.00289531
0.00316726
0.00347224
0.00381263
0.00419154
0.00461162
0.00507872
0.00559214
0.0061615
0.00678093
0.00746938
0.00821221
0.00904521
0.00994352
0.0109677
0.0120948
0.0134237
0.0149762
0.0169041
0.0194236
0.0226725
0.0276704
0.0351213
0.0467039
0.0639728
0.0840591
0.102534
0.00104245
0.00105089
0.00106004
0.0010698
0.00108022
0.00109134
0.00110319
0.0011158
0.00112923
0.00114355
0.00115884
0.00117517
0.00119266
0.00121143
0.0012316
0.00125336
0.00127688
0.00130233
0.00133017
0.00136073
0.00139432
0.00143129
0.0014721
0.00151723
0.00156724
0.00162276
0.00168451
0.00175327
0.00182991
0.00191539
0.00201077
0.0021172
0.00223594
0.00236824
0.00251549
0.00267929
0.00286121
0.00306295
0.00328625
0.00353291
0.00380478
0.00410374
0.00443176
0.0047907
0.00518285
0.00560981
0.00607501
0.00657854
0.00712773
0.00772143
0.00837577
0.00907769
0.00986188
0.0106985
0.0116584
0.0126835
0.0139173
0.0152683
0.0170284
0.0190716
0.0219792
0.025732
0.0315795
0.0407586
0.0551395
0.0743969
0.0961395
0.110493
0.117545
0.00145648
0.00147237
0.00148961
0.00150812
0.001528
0.00154933
0.00157219
0.00159666
0.00162284
0.00165087
0.00168095
0.0017132
0.00174793
0.00178543
0.00182595
0.00186968
0.00191716
0.00196881
0.00202502
0.00208624
0.00215296
0.0022257
0.00230505
0.00239162
0.0024861
0.00258921
0.00270172
0.00282448
0.00295835
0.00310428
0.00326323
0.00343624
0.00362434
0.00382851
0.00404988
0.00428962
0.00454887
0.00482883
0.00513073
0.00545584
0.0058055
0.00618115
0.00658433
0.00701678
0.00748064
0.00797776
0.00851202
0.00908448
0.00970296
0.0103658
0.011102
0.011887
0.0127837
0.013742
0.014885
0.0161235
0.0177275
0.019525
0.0221098
0.0251817
0.0300964
0.0370204
0.0491217
0.0673598
0.0911853
0.113713
0.125851
0.126954
0.125633
0.00229094
0.00232059
0.00235272
0.00238725
0.00242435
0.00246417
0.00250685
0.00255256
0.00260149
0.0026538
0.00271025
0.00277134
0.00283733
0.00290851
0.00298521
0.00306784
0.00315657
0.00325177
0.00335391
0.00346349
0.00358107
0.00370719
0.00384242
0.00398736
0.00414259
0.00430873
0.00448638
0.00467618
0.00487873
0.00509468
0.00532461
0.00556922
0.00582899
0.00610445
0.00639631
0.00670523
0.00703196
0.00737733
0.00774222
0.00812779
0.00853517
0.00896606
0.00942219
0.00990626
0.0104207
0.0109701
0.0115577
0.0121895
0.0128726
0.0136104
0.0144459
0.0153461
0.0164142
0.0176003
0.0190619
0.0207809
0.0230641
0.0259038
0.0300365
0.0358287
0.045467
0.0614937
0.0852394
0.115481
0.136641
0.145838
0.145411
0.138187
0.128752
0.00398848
0.00403849
0.00409313
0.00415215
0.00421571
0.00428404
0.00435729
0.00443569
0.00451954
0.00460921
0.00470466
0.00480608
0.00491399
0.0050289
0.00515128
0.00528157
0.00542018
0.0055675
0.0057239
0.00588977
0.00606547
0.00625134
0.00644766
0.00665475
0.00687285
0.00710223
0.0073431
0.00759572
0.00786027
0.00813703
0.00842601
0.00872777
0.00904209
0.0093694
0.00970982
0.0100636
0.0104316
0.0108149
0.0112144
0.0116321
0.0120693
0.0125296
0.0130156
0.0135329
0.0140841
0.0146817
0.0153202
0.0160267
0.0167904
0.0176579
0.0186617
0.0197992
0.0212125
0.0229335
0.0250061
0.0278874
0.0314447
0.0369559
0.0446711
0.058609
0.079935
0.113359
0.145489
0.166336
0.167679
0.163605
0.153367
0.137162
0.121078
0.00730138
0.00737439
0.00745159
0.00753312
0.00761958
0.00771154
0.00780948
0.0079138
0.00802507
0.00814386
0.00827049
0.00840538
0.00854885
0.00870121
0.00886273
0.00903351
0.00921389
0.00940399
0.00960392
0.00981378
0.0100336
0.0102632
0.0105026
0.0107518
0.0110104
0.0112787
0.0115564
0.0118435
0.01214
0.0124458
0.0127602
0.0130847
0.0134168
0.0137586
0.0141089
0.0144692
0.0148434
0.0152331
0.0156386
0.0160645
0.016513
0.0169925
0.0175069
0.0180661
0.0186714
0.0193548
0.020079
0.0209468
0.021864
0.0230709
0.0244266
0.0261845
0.0283819
0.0313078
0.0346732
0.0403071
0.0472515
0.0599346
0.078527
0.111101
0.150639
0.180379
0.190041
0.188265
0.181321
0.166052
0.144795
0.121605
0.102588
0.0129067
0.0129761
0.0130514
0.0131317
0.0132178
0.0133101
0.0134102
0.0135172
0.0136328
0.013758
0.0138917
0.0140358
0.0141894
0.014353
0.0145263
0.0147082
0.014901
0.015103
0.0153143
0.015535
0.0157644
0.0160024
0.0162473
0.0165007
0.0167608
0.0170295
0.0173055
0.0175906
0.0178837
0.0181828
0.0184887
0.0188018
0.0191235
0.0194547
0.0197955
0.02015
0.0205223
0.0209139
0.0213284
0.0217778
0.0222611
0.0227977
0.0233978
0.02406
0.0248139
0.0256948
0.026624
0.0279099
0.0292331
0.0313885
0.0335262
0.0369226
0.0409096
0.0464
0.0537088
0.0665637
0.0845716
0.113844
0.157735
0.194646
0.211638
0.213333
0.209389
0.197492
0.172337
0.143966
0.118056
0.0960131
0.0794414
0.0215569
0.0215956
0.0216425
0.0216971
0.0217601
0.0218315
0.0219127
0.0220014
0.0221008
0.0222103
0.0223293
0.0224582
0.0225966
0.0227432
0.0228986
0.0230614
0.0232327
0.0234108
0.0235961
0.0237881
0.0239855
0.0241888
0.0243953
0.024608
0.0248241
0.0250475
0.025275
0.0255098
0.025751
0.0259954
0.0262491
0.0265053
0.0267813
0.0270705
0.0273933
0.0277523
0.0281499
0.0285959
0.0290991
0.0296805
0.0303304
0.0310896
0.0319819
0.0329283
0.0341702
0.0354552
0.0370458
0.0394384
0.0422862
0.0467051
0.0511241
0.0587139
0.0674524
0.0797856
0.100463
0.130607
0.17327
0.207801
0.229536
0.235243
0.234127
0.225453
0.198387
0.163364
0.130349
0.10359
0.0832286
0.0699157
0.0616284
0.0336744
0.0337233
0.0337779
0.0338378
0.0339019
0.0339748
0.0340485
0.0341265
0.0342142
0.034308
0.0344145
0.0345247
0.0346447
0.034767
0.0348937
0.0350289
0.0351624
0.0353041
0.0354512
0.0356036
0.0357619
0.0359242
0.0360932
0.0362663
0.0364508
0.0366404
0.0368405
0.0370478
0.0372738
0.0375137
0.0377961
0.0381064
0.0384975
0.0389346
0.0394882
0.0401106
0.0408407
0.0416665
0.0425983
0.043656
0.0448139
0.0461866
0.0477601
0.049416
0.0519052
0.053764
0.0580615
0.0651174
0.0736457
0.0831121
0.095341
0.111944
0.131524
0.161767
0.194827
0.218215
0.236247
0.249891
0.250749
0.242012
0.212232
0.1717
0.130918
0.097713
0.0770119
0.0673299
0.0628869
0.0586612
0.0565303
0.0600726
0.0602303
0.060392
0.060567
0.0606944
0.0609042
0.0607243
0.0608589
0.0610053
0.0611781
0.0613571
0.0615226
0.0616705
0.0618021
0.0619045
0.0620043
0.06207
0.0621567
0.0622304
0.0623063
0.0624107
0.062464
0.0625358
0.0625631
0.0626473
0.0626697
0.0627105
0.0627174
0.0627092
0.0627335
0.0630775
0.0635789
0.0643864
0.0653278
0.0666555
0.0680501
0.0699429
0.0718167
0.0741751
0.0765807
0.0794481
0.0825358
0.0864875
0.0913476
0.0960541
0.103509
0.109907
0.115625
0.123738
0.135182
0.149925
0.169284
0.191725
0.216423
0.237887
0.244317
0.239031
0.217272
0.178781
0.134431
0.0934911
0.0642127
0.0485565
0.0450291
0.0484047
0.0528217
0.0578864
0.0633032
0.0686945
0.18785
0.188505
0.188888
0.189341
0.18951
0.190302
0.192484
0.192556
0.193034
0.194928
0.195796
0.195898
0.195806
0.195719
0.195628
0.195527
0.195398
0.195446
0.195398
0.1955
0.197062
0.196401
0.196148
0.195781
0.197216
0.196115
0.196535
0.194764
0.19374
0.192739
0.192286
0.191939
0.188985
0.187526
0.185674
0.183913
0.183231
0.183308
0.181384
0.178122
0.172792
0.167827
0.162309
0.155621
0.147469
0.137823
0.126661
0.114218
0.100667
0.0867846
0.0733915
0.0624692
0.054628
0.0532593
0.0554216
0.0581962
0.0582665
0.0521154
0.0403505
0.0297392
0.0245831
0.0238201
0.0309616
0.0413182
0.0544287
0.0699001
0.088474
0.111374
0.141253
0.000255376
0.000255887
0.00025659
0.000256777
0.000257252
0.000258085
0.000259314
0.000260309
0.000261212
0.000261931
0.000262536
0.000263223
0.00026478
0.000265804
0.000266378
0.000266481
0.000267418
0.00026776
0.000267514
0.000267201
0.000266954
0.000267787
0.000267998
0.000268372
0.00026855
0.000268492
0.000268613
0.000268143
0.000267815
0.000268509
0.000269151
0.000269595
0.000269375
0.000268058
0.000267372
0.000266434
0.000266187
0.000265749
0.000264978
0.000264498
0.000264219
0.000263739
0.000262834
0.000261176
0.000260114
0.000259189
0.000258018
0.00025648
0.000255653
0.000255206
0.000254926
0.000254682
0.000254135
0.000253662
0.000252954
0.000252034
0.000251583
0.000250817
0.000250536
0.000257021
0.000257598
0.000258198
0.0002588
0.000259856
0.000260563
0.000261245
0.000261802
0.000262457
0.000263163
0.000264061
0.000265351
0.000266585
0.000267086
0.000267314
0.000267835
0.000268686
0.000268774
0.00026843
0.000267905
0.000268054
0.000268594
0.000268571
0.000269092
0.000269163
0.000269082
0.000269173
0.000268702
0.00026831
0.0002689
0.000269537
0.000269974
0.000269729
0.00026846
0.000267802
0.000266871
0.000266497
0.000266153
0.000265419
0.000264827
0.000264506
0.000264248
0.000263624
0.000262351
0.000261117
0.000260093
0.00025928
0.000257951
0.000256678
0.000255884
0.000255544
0.000255359
0.000255091
0.000254789
0.000254414
0.000254006
0.000253539
0.000253081
0.000252516
0.000260406
0.000260922
0.000261434
0.000261964
0.000262512
0.000262904
0.000263452
0.000264084
0.000265011
0.000266155
0.000267536
0.000268411
0.0002688
0.000268797
0.000269292
0.000270113
0.00027037
0.000269919
0.000269567
0.000269569
0.000269878
0.000270144
0.000270125
0.000270462
0.000270425
0.000270457
0.000270353
0.000269841
0.000269484
0.000269975
0.00027062
0.000271064
0.000270778
0.000269488
0.000268796
0.000267849
0.000267333
0.000266951
0.000266407
0.000265689
0.000265287
0.000265079
0.000264735
0.000263979
0.000262815
0.000261673
0.000260853
0.00025995
0.000258749
0.000257562
0.000256832
0.00025649
0.000256262
0.000256039
0.000255715
0.00025541
0.00025509
0.000254837
0.000254513
0.00026388
0.000264222
0.000264721
0.000265083
0.00026553
0.000266119
0.000266989
0.000267983
0.000269132
0.000270257
0.00027098
0.000271326
0.000271369
0.000271655
0.000272364
0.000272729
0.000272754
0.000272092
0.000271827
0.000271848
0.00027199
0.000272333
0.000272428
0.000272688
0.000272595
0.000272416
0.000272319
0.000271772
0.000271405
0.00027171
0.000272315
0.000272627
0.000272361
0.000271253
0.000270555
0.000269642
0.000268928
0.000268546
0.000268096
0.000267397
0.00026683
0.000266587
0.000266326
0.000265883
0.000265125
0.000264037
0.000263097
0.000262372
0.00026141
0.000260486
0.000259465
0.000258751
0.000258211
0.000257817
0.000257469
0.000257259
0.00025695
0.000256809
0.000256387
0.000268768
0.000269312
0.000269514
0.000269945
0.000270782
0.00027166
0.000272582
0.000273389
0.000274314
0.000274971
0.000275379
0.000275461
0.000275433
0.000275661
0.000276385
0.000276599
0.000275686
0.00027516
0.000275119
0.000275275
0.000275586
0.000275371
0.000275437
0.000275607
0.000275322
0.00027542
0.000275065
0.000274442
0.000274105
0.000274282
0.000274807
0.000275065
0.000274776
0.000273762
0.000273056
0.000272185
0.000271389
0.000270912
0.000270496
0.0002699
0.000269278
0.0002689
0.000268649
0.000268346
0.000267885
0.000267163
0.000266275
0.000265603
0.000264781
0.000264069
0.000263166
0.000262449
0.000261738
0.000261136
0.00026058
0.000260117
0.000259692
0.000259376
0.000259057
0.000276271
0.000276687
0.000276721
0.00027711
0.000277798
0.000278594
0.000278986
0.00027999
0.00028056
0.000280929
0.000280858
0.000280621
0.000280498
0.000281169
0.000281534
0.000280314
0.000279805
0.00027959
0.00027981
0.000279631
0.000279454
0.000279579
0.000279647
0.000279677
0.000279697
0.000279237
0.000278837
0.0002782
0.000277813
0.000277883
0.000278312
0.000278499
0.000278184
0.000277249
0.00027652
0.000275694
0.000274829
0.00027424
0.000273805
0.000273292
0.000272678
0.000272197
0.000271872
0.00027159
0.000271262
0.00027081
0.000270161
0.000269625
0.000268991
0.000268521
0.000267863
0.000267385
0.00026676
0.000266107
0.000265595
0.000265018
0.000264638
0.000264281
0.000263845
0.000284883
0.000284868
0.00028468
0.000285119
0.000285186
0.000285418
0.000286279
0.000286958
0.00028754
0.00028765
0.000287459
0.000287429
0.000287871
0.000287815
0.000286527
0.000285968
0.000285788
0.000285727
0.000285359
0.000285253
0.000285487
0.000285098
0.000285148
0.0002852
0.000284451
0.000284374
0.000283799
0.000283069
0.000282616
0.000282611
0.000282919
0.000283021
0.000282678
0.000281811
0.000281055
0.000280278
0.00027939
0.000278702
0.000278215
0.00027775
0.00027721
0.000276685
0.000276304
0.000276014
0.000275674
0.000275414
0.000274955
0.000274509
0.000274054
0.000273494
0.000272949
0.000272237
0.00027188
0.000271893
0.000271549
0.00027117
0.000270764
0.000270356
0.000269986
0.000295885
0.000296001
0.000295917
0.000295773
0.00029648
0.000297005
0.000296757
0.000297134
0.000297266
0.000296654
0.000296684
0.000296257
0.000295629
0.000294939
0.000294128
0.000293846
0.000293374
0.00029289
0.000292901
0.000293194
0.000292325
0.000292136
0.00029236
0.000291639
0.000291662
0.000290998
0.000290271
0.000289532
0.00028896
0.000288861
0.000289037
0.000289037
0.000288656
0.000287843
0.000287029
0.00028627
0.000285398
0.000284612
0.000284029
0.000283549
0.000283072
0.00028259
0.000282145
0.000281765
0.000281414
0.000281013
0.000280914
0.000280489
0.00028008
0.000279675
0.000279188
0.000278625
0.000278435
0.000277977
0.000277972
0.000277793
0.00027756
0.000277262
0.000276941
0.000309205
0.000308201
0.000307925
0.000307724
0.000308004
0.000307637
0.000308274
0.000308927
0.000308561
0.000308288
0.000306916
0.000305872
0.000305151
0.000304307
0.000303649
0.000303009
0.000303006
0.000303191
0.000303064
0.00030176
0.000301345
0.000301586
0.000300894
0.000300988
0.000299964
0.000299343
0.000298584
0.000297688
0.000297009
0.000296793
0.000296838
0.000296717
0.000296297
0.000295507
0.000294669
0.000293882
0.000293068
0.00029226
0.000291588
0.000291045
0.000290565
0.000290084
0.000289678
0.000289265
0.000288823
0.00028849
0.000288058
0.000287866
0.000287667
0.000287108
0.000286831
0.000286153
0.000286049
0.000285468
0.000285543
0.000285131
0.000285104
0.000284713
0.000284598
0.000324343
0.000324488
0.000324616
0.000324401
0.000323338
0.000322705
0.000322411
0.000321638
0.000321158
0.000320323
0.000319238
0.000318265
0.000317253
0.000316318
0.000316323
0.000316481
0.000316433
0.000315261
0.000314381
0.000313846
0.000313888
0.000312855
0.000312933
0.00031167
0.00031102
0.000310333
0.000309259
0.000308291
0.000307457
0.000307099
0.000306978
0.000306714
0.000306229
0.000305415
0.000304534
0.000303688
0.000302861
0.000302049
0.000301311
0.000300645
0.000300116
0.000299533
0.000299169
0.000298649
0.000298393
0.000297883
0.000297663
0.000297126
0.000296973
0.000296858
0.000296366
0.000296297
0.00029575
0.000295544