/*--------------------------------*- C++ -*----------------------------------*\
| =========                 |                                                 |
| \\      /  F ield         | OpenFOAM: The Open Source CFD Toolbox           |
|  \\    /   O peration     | Version:  2312                                  |
|   \\  /    A nd           | Website:  www.openfoam.com                      |
|    \\/     M anipulation  |                                                 |
\*---------------------------------------------------------------------------*/
FoamFile
{
    version     2.0;
    format      ascii;
    arch        "LSB;label=32;scalar=64";
    class       volScalarField;
    location    "1300";
    object      k;
}
// * * * * * * * * * * * * * * * * * * * * * * * * * * * * * * * * * * * * * //

dimensions      [0 2 -2 0 0 0 0];

internalField   nonuniform List<scalar> 
76025
(
0.0019106
0.00190943
0.00190867
0.00190742
0.00190534
0.00190378
0.00190165
0.00189808
0.00189329
0.00189337
0.00189217
0.00189058
0.00188963
0.00188651
0.00188523
0.00188344
0.00188166
0.00187753
0.00187525
0.00187138
0.0018698
0.00186793
0.00186569
0.00186114
0.00185936
0.0018575
0.0018602
0.00185672
0.00185663
0.00185642
0.00185561
0.00185473
0.00185747
0.00185495
0.00185459
0.00184863
0.00184629
0.0018437
0.00184198
0.00184358
0.00184037
0.00184245
0.00184694
0.00185306
0.00186074
0.00187063
0.00188145
0.0018941
0.00190805
0.00192678
0.00194792
0.00197589
0.00200598
0.00204417
0.00208389
0.00213088
0.00217824
0.00224098
0.00231211
0.00242024
0.00252733
0.00268805
0.00288339
0.00317331
0.00355614
0.00415619
0.0049487
0.00651253
0.00854866
0.0019281
0.00192409
0.0019211
0.00191878
0.00191701
0.00191561
0.00191335
0.00191181
0.00190948
0.0019085
0.00190616
0.00190387
0.00190068
0.00189704
0.00189466
0.00189208
0.00188988
0.00188683
0.00188553
0.00188064
0.00188151
0.00188398
0.00187935
0.00188088
0.00188057
0.00187847
0.0018768
0.00187464
0.00187286
0.00186867
0.00186852
0.00186701
0.00186616
0.00186229
0.00185965
0.00185967
0.00186102
0.00186335
0.00186667
0.00187079
0.00187586
0.00188191
0.00188878
0.0018967
0.00190553
0.00191592
0.00192783
0.00194256
0.00195983
0.00198068
0.00200459
0.00203278
0.00206469
0.00210248
0.00214539
0.00219698
0.00225977
0.00233835
0.00243692
0.00255624
0.00270562
0.00289806
0.0031531
0.00349299
0.00398725
0.00473247
0.00583466
0.00779896
0.0102096
0.00194463
0.00194221
0.001939
0.00193665
0.00193512
0.0019327
0.00192962
0.0019269
0.00192434
0.00192297
0.00191843
0.00191704
0.00191789
0.00191696
0.00191515
0.00191308
0.00191038
0.00190887
0.00190774
0.0019055
0.00190457
0.0019034
0.00190169
0.00189932
0.00189755
0.00189354
0.0018925
0.00188744
0.00188825
0.00188441
0.00188588
0.00188807
0.00188943
0.00189102
0.00189271
0.00189521
0.00189818
0.00190162
0.0019056
0.0019102
0.00191547
0.00192172
0.00192899
0.00193773
0.00194809
0.00196054
0.00197525
0.00199274
0.0020131
0.00203704
0.00206455
0.00209708
0.00213453
0.00217946
0.00223146
0.00229554
0.00237053
0.00246451
0.00257513
0.00271702
0.00289096
0.00312315
0.00343425
0.00386432
0.00451777
0.00546477
0.00689342
0.00910423
0.0115859
0.00195916
0.00195823
0.00195682
0.00195331
0.00195211
0.00195214
0.00194974
0.00194666
0.00194411
0.00194078
0.00193885
0.00193794
0.00193432
0.00193356
0.00193278
0.00193443
0.00193326
0.00193105
0.00192834
0.00192609
0.00192128
0.00191973
0.00192026
0.0019188
0.0019147
0.00191424
0.00191448
0.00191481
0.00191562
0.00191653
0.0019178
0.00191952
0.00192156
0.00192415
0.00192712
0.00193061
0.00193451
0.00193897
0.00194405
0.00194985
0.00195651
0.00196449
0.00197382
0.00198496
0.00199793
0.0020133
0.00203105
0.00205192
0.00207598
0.00210411
0.00213673
0.00217491
0.00221963
0.00227223
0.00233461
0.00240886
0.00249868
0.00260818
0.00274346
0.00291497
0.00313264
0.00342826
0.00382891
0.00439533
0.00524754
0.00643431
0.00819309
0.0105618
0.0132069
0.00197654
0.00197468
0.00197422
0.00197391
0.00197356
0.00197099
0.00197096
0.00196908
0.0019673
0.00196418
0.00196041
0.00195872
0.00195638
0.00195537
0.00195663
0.00195498
0.00195406
0.00195059
0.00194889
0.00194784
0.00194387
0.00194111
0.00194114
0.00194126
0.00194118
0.00194177
0.001943
0.0019448
0.00194686
0.00194928
0.00195187
0.00195471
0.00195789
0.00196152
0.00196561
0.00197025
0.00197542
0.00198127
0.00198795
0.00199552
0.00200418
0.00201431
0.00202611
0.00203987
0.00205582
0.00207435
0.00209578
0.00212066
0.00214941
0.00218292
0.00222178
0.00226734
0.00232053
0.00238337
0.00245773
0.00254702
0.00265542
0.00278844
0.00295519
0.00316808
0.00344587
0.00382727
0.00434587
0.00509655
0.00617605
0.00763232
0.00965444
0.0121178
0.0147676
0.00199895
0.00199906
0.00199718
0.0019976
0.00199786
0.00199602
0.0019957
0.00199472
0.00199323
0.00199259
0.00198842
0.00198714
0.0019877
0.00198356
0.00198252
0.00198288
0.0019809
0.00198027
0.00197933
0.00197441
0.00197134
0.00197169
0.00197396
0.00197665
0.00197911
0.00198139
0.00198369
0.00198616
0.00198887
0.00199186
0.00199505
0.00199862
0.00200264
0.00200721
0.00201239
0.00201824
0.0020248
0.0020322
0.00204065
0.0020502
0.00206104
0.00207363
0.00208818
0.00210502
0.00212445
0.0021469
0.00217281
0.00220277
0.00223748
0.0022778
0.00232472
0.00237953
0.00244366
0.00251936
0.00260933
0.00271791
0.00285071
0.00301583
0.0032266
0.00349943
0.00386466
0.00436488
0.00505423
0.00603203
0.00736042
0.00906343
0.011273
0.0137396
0.0163551
0.00202941
0.00202809
0.00202595
0.00202509
0.00202467
0.00202429
0.00202343
0.00202312
0.00202316
0.00202269
0.00202119
0.0020186
0.00201651
0.00201676
0.00201772
0.00201873
0.00201913
0.00201958
0.00201985
0.00202039
0.00202066
0.00202144
0.00202311
0.00202529
0.00202773
0.00203031
0.00203305
0.002036
0.00203923
0.00204282
0.00204671
0.00205115
0.00205617
0.0020619
0.0020684
0.00207573
0.00208398
0.00209327
0.00210383
0.00211576
0.00212923
0.00214475
0.00216262
0.00218321
0.0022069
0.00223422
0.00226574
0.0023022
0.00234441
0.00239341
0.00245032
0.00251672
0.00259445
0.00268662
0.00279701
0.00293189
0.00309913
0.00331119
0.00358574
0.00394719
0.00443532
0.00510108
0.00600553
0.0072313
0.00878593
0.0106874
0.0129862
0.0154031
0.017903
0.00206521
0.00206357
0.00206173
0.00206103
0.00205834
0.00205745
0.00205818
0.00205538
0.0020556
0.00205641
0.00205741
0.00205895
0.0020601
0.00206153
0.00206332
0.00206519
0.00206698
0.00206876
0.00207047
0.00207231
0.00207431
0.00207651
0.00207894
0.00208162
0.00208456
0.00208773
0.00209118
0.00209491
0.00209902
0.00210353
0.00210846
0.00211408
0.00212042
0.00212761
0.00213576
0.00214491
0.00215521
0.00216678
0.00217989
0.00219472
0.00221138
0.00223051
0.0022525
0.00227778
0.00230689
0.00234042
0.0023791
0.00242377
0.00247541
0.00253518
0.0026046
0.00268574
0.00278146
0.00289619
0.00303565
0.00320885
0.00342721
0.00370865
0.00407721
0.00456605
0.00522364
0.0060981
0.00724461
0.00869843
0.0104366
0.012462
0.0147684
0.0170764
0.0194346
0.00211807
0.0021153
0.00211532
0.00211492
0.00211025
0.00210904
0.0021074
0.00210924
0.00211159
0.00211357
0.00211544
0.00211745
0.0021195
0.00212163
0.00212384
0.00212611
0.00212839
0.00213073
0.00213313
0.00213567
0.00213838
0.00214133
0.00214451
0.00214798
0.00215174
0.00215582
0.00216028
0.00216511
0.00217044
0.00217623
0.00218263
0.00218985
0.00219795
0.00220708
0.00221737
0.00222887
0.00224178
0.00225626
0.00227262
0.00229113
0.0023119
0.00233565
0.00236292
0.00239424
0.00243024
0.00247165
0.00251932
0.00257424
0.00263768
0.00271121
0.00279708
0.00289842
0.00301975
0.00316746
0.00335026
0.00358083
0.0038759
0.00426027
0.00476422
0.00542814
0.00629616
0.00740286
0.0087758
0.0104078
0.0122652
0.014334
0.0165771
0.018724
0.020886
0.00217077
0.00217129
0.00217193
0.00217249
0.00217235
0.00217323
0.00217369
0.00217489
0.00217674
0.00217912
0.00218174
0.00218453
0.00218746
0.00219051
0.00219366
0.00219691
0.00220023
0.00220364
0.00220716
0.00221082
0.00221466
0.00221872
0.00222303
0.00222765
0.00223259
0.00223795
0.00224372
0.00225002
0.00225687
0.00226431
0.00227258
0.00228185
0.00229219
0.00230379
0.00231682
0.00233134
0.00234763
0.00236591
0.00238651
0.00240981
0.00243599
0.00246575
0.00249985
0.00253892
0.00258373
0.00263514
0.00269426
0.00276243
0.00284148
0.00293388
0.00304317
0.00317424
0.00333401
0.00353186
0.00378084
0.00409856
0.00450837
0.00504005
0.0057265
0.0066036
0.00769765
0.00901928
0.0105669
0.0123091
0.0142156
0.0162525
0.0183781
0.0203088
0.022369
0.00222989
0.00223128
0.00223343
0.00223604
0.00223872
0.00224177
0.00224489
0.00224817
0.0022518
0.00225565
0.00225975
0.00226403
0.00226847
0.00227302
0.00227768
0.00228243
0.00228726
0.00229219
0.00229723
0.00230241
0.00230777
0.00231335
0.00231921
0.0023254
0.00233198
0.00233903
0.00234657
0.00235478
0.00236361
0.00237328
0.002384
0.00239596
0.00240926
0.00242412
0.00244077
0.00245931
0.00248005
0.00250333
0.00252947
0.00255898
0.00259211
0.00262954
0.0026723
0.00272118
0.00277718
0.00284151
0.00291578
0.00300211
0.00310344
0.0032238
0.00336878
0.00354599
0.00376579
0.00404184
0.00439231
0.00483961
0.00541069
0.00613359
0.00703378
0.00812991
0.0094243
0.0109072
0.0125584
0.0143406
0.0162278
0.0181696
0.0201298
0.0218135
0.0239796
0.00234111
0.00234099
0.00234172
0.00234321
0.0023453
0.00234795
0.002351
0.00235439
0.00235812
0.00236217
0.00236655
0.00237123
0.00237618
0.00238139
0.00238682
0.00239248
0.00239836
0.00240445
0.00241077
0.00241735
0.00242421
0.00243141
0.00243898
0.002447
0.00245553
0.00246464
0.00247445
0.00248504
0.00249644
0.00250904
0.00252298
0.00253845
0.00255562
0.00257476
0.00259613
0.00261986
0.00264636
0.00267605
0.00270929
0.00274672
0.00278881
0.00283616
0.00289022
0.00295218
0.00302353
0.00310622
0.00320285
0.00331698
0.00345337
0.00361851
0.00382097
0.00407209
0.00438625
0.00478137
0.00527861
0.00590067
0.00667001
0.00760348
0.00871066
0.00998941
0.0114251
0.0129977
0.0146802
0.0164377
0.0182445
0.020042
0.0217915
0.023285
0.0256159
0.00247339
0.00247515
0.00247711
0.00247937
0.00248201
0.00248505
0.00248843
0.00249212
0.00249609
0.00250037
0.00250497
0.0025099
0.00251517
0.00252078
0.00252673
0.00253305
0.00253974
0.00254682
0.00255432
0.00256227
0.0025707
0.00257968
0.00258924
0.00259946
0.0026104
0.00262216
0.00263486
0.0026485
0.00266341
0.00267985
0.00269799
0.00271807
0.00274029
0.002765
0.00279247
0.00282296
0.00285695
0.00289501
0.00293766
0.00298568
0.00303997
0.00310134
0.00317166
0.00325309
0.00334809
0.00345994
0.00359299
0.00375299
0.00394739
0.00418588
0.00448041
0.00484567
0.00529839
0.00585702
0.00653955
0.00736124
0.0083323
0.00945412
0.010721
0.0121171
0.013622
0.015213
0.0168621
0.0185388
0.0202151
0.0218321
0.0233488
0.0247854
0.0271822
0.00262767
0.00263167
0.00263585
0.00264013
0.00264461
0.00264933
0.00265427
0.00265942
0.00266479
0.00267039
0.00267626
0.00268242
0.00268892
0.00269576
0.002703
0.00271066
0.00271879
0.00272742
0.00273662
0.00274645
0.00275696
0.00276823
0.00278035
0.0027934
0.00280746
0.00282268
0.00283906
0.0028569
0.00287651
0.00289808
0.00292185
0.0029481
0.00297713
0.00300937
0.00304516
0.00308496
0.00312943
0.00317938
0.00323572
0.00329957
0.00337249
0.00345615
0.00355289
0.00366663
0.0038015
0.00396284
0.00415739
0.00439363
0.00468177
0.00503399
0.0054638
0.00598588
0.00661425
0.00736157
0.00823637
0.00924217
0.0103762
0.0116286
0.0129853
0.0144261
0.0159308
0.0174771
0.0190381
0.0205878
0.0220969
0.0235112
0.0248309
0.026321
0.0287716
0.00281834
0.00282412
0.00283024
0.00283656
0.00284312
0.00284995
0.00285704
0.00286438
0.00287197
0.00287985
0.00288804
0.00289657
0.00290549
0.00291481
0.0029246
0.00293489
0.00294573
0.0029572
0.00296936
0.00298229
0.00299609
0.00301086
0.00302672
0.00304378
0.00306224
0.0030821
0.00310374
0.00312749
0.00315363
0.0031824
0.00321416
0.00324928
0.00328821
0.00333159
0.00337994
0.00343404
0.00349498
0.00356406
0.00364287
0.00373338
0.00383812
0.00396031
0.00410366
0.00427341
0.00447647
0.00472037
0.00501387
0.00536704
0.00579071
0.00629631
0.00689443
0.00759472
0.0084036
0.0093246
0.0103561
0.0114924
0.0127233
0.014034
0.0154087
0.0168271
0.0182712
0.0197195
0.0211483
0.0225369
0.0238586
0.025069
0.0262842
0.0279196
0.0308116
0.00306474
0.00307253
0.00308082
0.00308945
0.00309843
0.0031078
0.00311755
0.00312765
0.00313813
0.00314902
0.00316034
0.00317215
0.00318448
0.00319738
0.0032109
0.0032251
0.00324004
0.00325581
0.00327249
0.00329017
0.003309
0.00332908
0.00335061
0.00337374
0.00339859
0.0034257
0.0034554
0.00348805
0.00352404
0.00356382
0.00360797
0.00365709
0.003712
0.00377372
0.00384325
0.003922
0.00401186
0.00411501
0.00423416
0.0043726
0.00453425
0.0047239
0.00494715
0.00521022
0.00552032
0.0058867
0.00631764
0.00682159
0.00740635
0.00807861
0.00884273
0.00970128
0.010653
0.0116945
0.012818
0.014014
0.0152692
0.0165686
0.0178967
0.0192345
0.0205668
0.0218744
0.0231396
0.0243489
0.0254801
0.0265222
0.0277939
0.0298116
0.0342342
0.00338921
0.00339947
0.00341048
0.00342203
0.00343415
0.00344687
0.00346018
0.00347406
0.00348854
0.00350365
0.00351945
0.00353597
0.00355326
0.0035714
0.00359046
0.0036105
0.00363163
0.00365395
0.00367759
0.00370268
0.00372939
0.00375796
0.00378847
0.00382149
0.00385749
0.00389692
0.00394026
0.00398812
0.00404118
0.00410027
0.00416641
0.00424075
0.00432478
0.00442019
0.00452881
0.00465306
0.00479585
0.00496048
0.00515074
0.00537096
0.00562599
0.00592113
0.00626209
0.00665477
0.00710512
0.00761869
0.00820019
0.00885499
0.00958691
0.0103967
0.011283
0.0122438
0.0132731
0.0143648
0.0155082
0.0166934
0.0179063
0.0191325
0.0203577
0.021565
0.0227444
0.0238815
0.0249672
0.025993
0.026952
0.0279491
0.0296291
0.0326459
0.039219
0.00383094
0.00384498
0.00386008
0.00387602
0.00389283
0.00391056
0.00392918
0.00394871
0.00396917
0.00399062
0.00401312
0.00403675
0.00406158
0.00408773
0.0041153
0.00414443
0.00417528
0.00420803
0.00424292
0.00428017
0.00432001
0.00436326
0.00441038
0.00446194
0.00451858
0.00458106
0.00465028
0.00472728
0.00481327
0.00490968
0.00501813
0.00514048
0.00527897
0.00543594
0.00561393
0.00581605
0.00604567
0.00630638
0.006602
0.00693653
0.00731406
0.00773861
0.00821406
0.00874396
0.00933128
0.00997836
0.0106864
0.0114556
0.0122846
0.0131709
0.0141116
0.0151036
0.0161385
0.0172097
0.0183055
0.0194166
0.020527
0.0216248
0.0226974
0.0237338
0.0247324
0.0256835
0.0265862
0.0274395
0.0283392
0.0297121
0.0325936
0.0375956
0.044854
0.00444438
0.00446362
0.00448449
0.00450676
0.00453049
0.00455578
0.00458264
0.00461108
0.0046412
0.0046731
0.00470691
0.00474274
0.00478077
0.00482118
0.00486416
0.00491004
0.004959
0.00501153
0.00506849
0.0051304
0.00519783
0.0052715
0.00535222
0.00544088
0.00553854
0.00564635
0.00576562
0.00589779
0.00604448
0.00620745
0.00638864
0.00659015
0.00681433
0.00706339
0.00733976
0.00764618
0.00798537
0.00836003
0.00877282
0.00922623
0.00972259
0.0102639
0.0108516
0.0114868
0.0121698
0.0129004
0.013677
0.0144979
0.0153593
0.0162575
0.017186
0.0181392
0.0191111
0.0200974
0.0210851
0.0220642
0.0230151
0.023934
0.0248117
0.0256506
0.026455
0.027212
0.0279536
0.0287728
0.0301539
0.0330037
0.0380669
0.044566
0.0509854
0.00534855
0.00537751
0.00540906
0.00544298
0.00547945
0.00551864
0.00556065
0.00560559
0.00565368
0.00570513
0.00576022
0.00581914
0.00588225
0.0059504
0.006024
0.00610357
0.00618959
0.00628265
0.00638342
0.00649263
0.00661111
0.00673973
0.00687946
0.00703136
0.00719656
0.00737625
0.00757175
0.00778443
0.00801575
0.00826727
0.00854058
0.00883737
0.00915939
0.00950807
0.00988507
0.0102922
0.0107308
0.0112025
0.0117084
0.0122493
0.0128258
0.0134382
0.0140861
0.0147688
0.0154851
0.016233
0.0170096
0.0178127
0.0186367
0.0194781
0.0203303
0.0211878
0.022038
0.0228842
0.0237091
0.0244967
0.0252272
0.0259228
0.0265759
0.0272111
0.0278149
0.0284203
0.0292531
0.0307967
0.034179
0.0396347
0.0464704
0.0513991
0.0548536
0.00677861
0.00682676
0.00687941
0.00693633
0.0069978
0.00706442
0.00713639
0.00721393
0.00729737
0.00738703
0.0074832
0.00758621
0.00769637
0.00781411
0.00793992
0.00807433
0.00821788
0.00837116
0.00853482
0.00870957
0.00889616
0.00909539
0.00930811
0.0095352
0.00977759
0.0100363
0.0103122
0.0106064
0.0109198
0.0112536
0.0116087
0.011986
0.0123863
0.0128103
0.0132586
0.0137317
0.0142299
0.0147534
0.015302
0.0158753
0.0164728
0.0170932
0.0177356
0.0183979
0.0190785
0.0197749
0.0204831
0.0212026
0.0219237
0.0226472
0.0233652
0.0240733
0.0247575
0.0254097
0.0260078
0.0265159
0.0269567
0.0274103
0.0278377
0.0283074
0.0288042
0.0297575
0.0317993
0.0361203
0.0426454
0.0498268
0.0540724
0.0560339
0.0567488
0.00935732
0.0094352
0.00951877
0.00960776
0.00970243
0.00980312
0.00991008
0.0100236
0.0101441
0.0102719
0.0104075
0.0105512
0.0107035
0.0108649
0.011036
0.0112171
0.011409
0.0116122
0.0118273
0.0120549
0.0122956
0.01255
0.0128186
0.0131022
0.013401
0.0137158
0.0140468
0.0143944
0.0147591
0.0151411
0.0155404
0.0159572
0.0163914
0.0168424
0.01731
0.0177935
0.0182924
0.0188059
0.019333
0.0198726
0.0204233
0.0209834
0.0215519
0.0221256
0.0227048
0.0232856
0.0238616
0.0244382
0.0249954
0.0255484
0.0260813
0.026607
0.0269766
0.0272823
0.0274163
0.0275984
0.0278633
0.0282049
0.028543
0.0291582
0.0304146
0.0334321
0.0391098
0.0474649
0.0540461
0.0575306
0.0580895
0.0575652
0.0570571
0.0136665
0.0137514
0.0138414
0.0139362
0.0140364
0.0141423
0.0142543
0.0143728
0.0144986
0.0146321
0.0147741
0.0149252
0.0150862
0.0152577
0.0154401
0.0156341
0.01584
0.0160583
0.0162894
0.0165337
0.0167913
0.0170625
0.0173474
0.017646
0.0179582
0.0182838
0.0186227
0.0189745
0.019339
0.0197156
0.0201034
0.0205025
0.0209111
0.021328
0.0217514
0.0221788
0.022611
0.0230465
0.0234835
0.0239207
0.0243563
0.0247892
0.0252206
0.0256415
0.0260652
0.0264704
0.0268408
0.0272191
0.0275618
0.0278722
0.028151
0.0280372
0.0279558
0.0278427
0.0278006
0.0279792
0.0282649
0.0287404
0.0296398
0.0317848
0.0360807
0.0442215
0.0532046
0.0585235
0.0605765
0.060996
0.0600637
0.058394
0.0558972
0.0196329
0.0196907
0.019753
0.0198195
0.0198907
0.0199671
0.0200492
0.0201372
0.0202321
0.0203346
0.0204453
0.020565
0.0206945
0.0208342
0.0209847
0.0211462
0.0213194
0.0215044
0.0217014
0.0219104
0.0221315
0.0223642
0.0226081
0.022863
0.0231278
0.0234021
0.0236852
0.0239771
0.0242766
0.0245829
0.0248926
0.0252085
0.0255254
0.0258327
0.0261296
0.0264148
0.0267112
0.0269998
0.0272765
0.0275433
0.0278054
0.0280577
0.028309
0.0285155
0.0287713
0.0287518
0.0288083
0.0290455
0.0290328
0.0291345
0.0289281
0.0287734
0.0285849
0.0282147
0.0282142
0.0285196
0.0292832
0.0310177
0.034428
0.0410841
0.05101
0.0584369
0.0624447
0.0634246
0.063235
0.0621624
0.0593061
0.0551048
0.0513929
0.0265106
0.0265203
0.0265311
0.0265438
0.0265577
0.0265746
0.026594
0.0266176
0.0266465
0.0266802
0.0267213
0.0267689
0.026826
0.0268895
0.026962
0.0270415
0.0271322
0.0272344
0.0273424
0.02746
0.0275894
0.0277256
0.0278699
0.028023
0.0281755
0.0283347
0.0284979
0.0286771
0.0288574
0.0290385
0.0292132
0.029398
0.0295896
0.0295791
0.0295935
0.02964
0.0298693
0.029883
0.0299006
0.0299437
0.0300889
0.0301682
0.030258
0.0301066
0.0300465
0.0299955
0.029941
0.0299677
0.0298665
0.0295997
0.0292842
0.0289072
0.0284406
0.0285111
0.0291377
0.0308092
0.0339357
0.0393796
0.0485923
0.0571061
0.0625788
0.0647156
0.0652307
0.0646387
0.0620015
0.0574464
0.0528758
0.0486272
0.0457556
0.0333216
0.033264
0.0331733
0.0331221
0.0330388
0.0329885
0.0328944
0.032855
0.0327947
0.0326987
0.0326711
0.0325781
0.032563
0.032457
0.0324044
0.0323476
0.0323135
0.0323321
0.032231
0.032195
0.0322163
0.0321601
0.032196
0.0322152
0.0321022
0.0320465
0.0320086
0.0321282
0.0320492
0.0320155
0.0319986
0.0320563
0.0320668
0.032047
0.0318708
0.0319382
0.0317769
0.0318196
0.0315649
0.0314683
0.0315078
0.0311847
0.0310503
0.0308835
0.0307225
0.0307762
0.0306464
0.0301701
0.0297694
0.0292478
0.0286711
0.0287735
0.0295315
0.031104
0.0345717
0.0398906
0.0476408
0.0552849
0.0606244
0.0647127
0.0665292
0.0662858
0.0633515
0.0576049
0.051828
0.0470712
0.0439071
0.0421681
0.0422367
0.0374552
0.0373477
0.0372353
0.0371216
0.0370035
0.0368867
0.0367658
0.0366258
0.0364541
0.0363463
0.0361505
0.0360684
0.0358657
0.0357779
0.0356953
0.035477
0.0353977
0.0353101
0.0352151
0.0351223
0.0350209
0.0349057
0.0347805
0.0346485
0.0344998
0.0343506
0.0341975
0.0340565
0.0339125
0.0337865
0.0336129
0.0334337
0.0333052
0.0329497
0.0327713
0.0326762
0.0325886
0.0321126
0.0319305
0.0319297
0.0313896
0.0311478
0.0311407
0.0311004
0.0307657
0.0301825
0.0298128
0.028969
0.0287803
0.0291282
0.030407
0.0327747
0.0360828
0.0412865
0.0472326
0.0518727
0.0567135
0.0619364
0.0643853
0.0640743
0.0607791
0.0543345
0.0466202
0.0405682
0.0368138
0.035494
0.0359784
0.0377834
0.0407186
0.0372264
0.0371079
0.0369959
0.0368923
0.0367944
0.0366992
0.036611
0.0365192
0.036422
0.0363255
0.0362251
0.0361178
0.0359983
0.0358679
0.0357215
0.0355634
0.0353864
0.0352121
0.0350302
0.034836
0.0346347
0.0344167
0.0341971
0.0339657
0.0337334
0.0334798
0.0332266
0.0329082
0.0326411
0.03225
0.0319551
0.031441
0.0311044
0.0304528
0.0301054
0.0293197
0.028992
0.0286535
0.0290879
0.0284091
0.028744
0.0288921
0.0288346
0.0289011
0.0284046
0.0283774
0.0287414
0.0297261
0.0312076
0.0333173
0.0360065
0.0394585
0.0435209
0.047923
0.0522834
0.0548903
0.0549399
0.0528423
0.0475615
0.0403435
0.0319897
0.0242867
0.0198711
0.0188658
0.0210447
0.0244568
0.0285463
0.0332829
0.0387791
0.027893
0.0280417
0.0281124
0.0282032
0.0282279
0.0282703
0.0284799
0.028522
0.0285743
0.0287445
0.0289356
0.029015
0.0290297
0.0290464
0.0290646
0.0290834
0.0291026
0.0291566
0.0291685
0.0291888
0.0292183
0.0292368
0.0292501
0.0292576
0.0292801
0.0292851
0.0292946
0.0293962
0.0294797
0.0293301
0.0292621
0.0291917
0.0291708
0.0290975
0.0289385
0.0288701
0.0284782
0.0282991
0.028394
0.0282908
0.0279122
0.027444
0.0268974
0.0262409
0.0254187
0.0244141
0.0232043
0.0217978
0.0201893
0.0184391
0.0166195
0.0149561
0.0136629
0.0130614
0.0132742
0.0137735
0.0140261
0.0135985
0.0119939
0.00975704
0.00822588
0.00742458
0.00808801
0.00987485
0.0121177
0.0145838
0.017272
0.0202308
0.0236032
0.00195648
0.00195592
0.00195686
0.00195612
0.00195731
0.00195958
0.00196144
0.0019619
0.00196294
0.00196391
0.00196382
0.00196535
0.00196992
0.00197322
0.00197495
0.00197408
0.00197574
0.00197736
0.00197697
0.00197712
0.00197778
0.00198019
0.00198087
0.00198417
0.00198462
0.00198579
0.0019877
0.00198753
0.00198642
0.00198847
0.00198923
0.00199106
0.00199062
0.0019863
0.00198393
0.00198019
0.00197963
0.00197814
0.00197484
0.00197295
0.00196943
0.00196815
0.00196475
0.00195626
0.0019533
0.00194889
0.00194487
0.00193879
0.00193264
0.00193335
0.00193442
0.00193385
0.00193327
0.00193028
0.0019273
0.00192225
0.00191859
0.00191482
0.0019127
0.00196831
0.00196983
0.00197028
0.00196974
0.00196881
0.00196978
0.00197071
0.00197291
0.00197412
0.00197369
0.00197512
0.00197893
0.00198263
0.001984
0.00198413
0.00198399
0.00198594
0.00198712
0.00198591
0.00198621
0.00198687
0.00198852
0.00198897
0.00199162
0.00199159
0.0019931
0.00199459
0.00199458
0.00199304
0.0019944
0.00199521
0.00199695
0.00199629
0.00199224
0.00198998
0.00198631
0.00198497
0.00198371
0.00198138
0.00197881
0.00197549
0.00197416
0.00197173
0.00196551
0.00196053
0.00195681
0.00195357
0.00194974
0.00194212
0.00193836
0.00193888
0.00193907
0.00193918
0.00193945
0.00193685
0.0019359
0.00193292
0.0019324
0.00193036
0.0019847
0.00198483
0.00198336
0.00198517
0.00198566
0.00198719
0.00198902
0.00198938
0.00198926
0.00198913
0.00199139
0.00199663
0.00199852
0.00199838
0.00199751
0.00199779
0.00199863
0.00199796
0.00199731
0.00199751
0.00199766
0.00199927
0.00200081
0.00200223
0.00200206
0.00200376
0.00200479
0.00200453
0.00200287
0.0020033
0.00200428
0.00200573
0.00200486
0.00200107
0.00199877
0.00199521
0.00199325
0.00199191
0.00199018
0.00198802
0.00198451
0.00198294
0.00198108
0.00197749
0.00197189
0.00196772
0.00196471
0.00196187
0.00195783
0.00195091
0.00194677
0.00194624
0.00194837
0.00194826
0.00194851
0.00194698
0.00194629
0.00194682
0.00194483
0.00200274
0.00200583
0.00200761
0.00200773
0.00200696
0.00200865
0.00200922
0.00200808
0.00200915
0.00201358
0.0020169
0.00201761
0.00201523
0.00201479
0.00201511
0.00201512
0.00201664
0.00201464
0.00201384
0.00201437
0.00201516
0.00201544
0.00201551
0.00201687
0.00201684
0.00201831
0.00201865
0.0020184
0.00201629
0.00201617
0.00201704
0.00201816
0.0020172
0.00201372
0.00201135
0.00200803
0.00200551
0.00200393
0.00200243
0.00200062
0.00199763
0.00199542
0.00199377
0.00199139
0.0019872
0.00198249
0.00197913
0.00197621
0.00197326
0.00196931
0.00196352
0.0019599
0.00195822
0.0019587
0.00196051
0.00196033
0.00196115
0.00196172
0.00196003
0.0020366
0.002037
0.00203545
0.00203609
0.00203609
0.00203601
0.00203501
0.00203672
0.00203804
0.0020396
0.0020374
0.00203725
0.00203684
0.00203768
0.00203941
0.00203912
0.00203656
0.00203432
0.00203451
0.00203559
0.00203437
0.00203469
0.00203561
0.00203581
0.00203564
0.00203683
0.00203723
0.00203617
0.0020336
0.002033
0.00203363
0.00203438
0.00203334
0.00203007
0.00202761
0.00202454
0.00202155
0.00201958
0.00201808
0.00201652
0.00201444
0.00201204
0.00201043
0.00200871
0.00200611
0.00200242
0.00199885
0.00199626
0.0019938
0.00199146
0.00198764
0.00198453
0.00197992
0.0019785
0.00197738
0.0019755
0.00197531
0.00197573
0.00197562
0.00207162
0.00207147
0.00207072
0.00207262
0.00207292
0.00207269
0.00207265
0.00207218
0.00207192
0.00207003
0.00207038
0.00207049
0.00206858
0.00206905
0.00206673
0.00206529
0.00206234
0.00206235
0.00206329
0.00206101
0.00206016
0.0020607
0.0020608
0.0020609
0.0020606
0.00206143
0.00206036
0.00205938
0.00205616
0.00205514
0.00205543
0.00205577
0.00205468
0.0020516
0.00204901
0.00204618
0.00204311
0.00204053
0.00203879
0.00203724
0.00203561
0.00203367
0.00203193
0.00203023
0.0020284
0.00202592
0.00202346
0.0020206
0.00201846
0.00201652
0.00201405
0.00201196
0.00200889
0.00200602
0.0020019
0.00200058
0.00199813
0.00199934
0.00200039
0.00211726
0.00211662
0.00211641
0.00211569
0.00211538
0.00211235
0.00211367
0.00211194
0.00211393
0.00211083
0.00211008
0.00210632
0.00210441
0.00210231
0.00209905
0.00209733
0.00209706
0.00209836
0.00209397
0.00209262
0.0020929
0.00209347
0.00209275
0.00209123
0.00209035
0.00209088
0.00209019
0.00208827
0.0020845
0.00208305
0.00208291
0.00208277
0.0020815
0.0020785
0.00207566
0.00207286
0.00206994
0.00206705
0.00206488
0.00206317
0.00206157
0.00206001
0.00205808
0.00205674
0.00205479
0.00205319
0.00205066
0.00204934
0.00204728
0.00204564
0.00204369
0.00204175
0.00203967
0.00203765
0.00203544
0.0020324
0.00203083
0.00203026
0.00202978
0.00217297
0.00217417
0.00217357
0.00217263
0.0021677
0.00216671
0.00216414
0.00216233
0.00216012
0.00215668
0.00215326
0.00214927
0.00214759
0.00214487
0.00214374
0.00214335
0.00214345
0.00213679
0.0021351
0.00213596
0.00213697
0.00213384
0.00213129
0.0021302
0.00213002
0.00213054
0.00212738
0.00212514
0.00212073
0.00211882
0.00211817
0.00211751
0.00211604
0.00211304
0.00211004
0.00210717
0.00210431
0.00210145
0.00209888
0.00209683
0.00209488
0.00209357
0.00209141
0.00209016
0.00208813
0.00208731
0.00208502
0.00208358
0.00208249
0.00207976
0.00207891
0.00207731
0.00207535
0.00207419
0.00207276
0.00207086
0.00206981
0.00206832
0.00206762
0.00224812
0.00224647
0.00223921
0.0022332
0.00222753
0.00222345
0.00221854
0.00221589
0.00221256
0.00220849
0.00220564
0.00220282
0.00220083
0.0021986
0.00219599
0.0021931
0.00219155
0.00218973
0.00219135
0.0021912
0.00218482
0.002181
0.00218037
0.00218053
0.00217852
0.00217607
0.00217396
0.00217063
0.00216559
0.00216315
0.00216188
0.00216057
0.00215875
0.00215556
0.00215231
0.00214922
0.00214626
0.00214336
0.00214062
0.00213829
0.00213612
0.00213469
0.00213267
0.00213136
0.00212993
0.00212891
0.00212753
0.00212644
0.0021264
0.00212463
0.00212371
0.00212286
0.00212138
0.00212094
0.00211957
0.00211777
0.00211633
0.00211675
0.00211739
0.00231517
0.00231123
0.00230743
0.00230254
0.00230025
0.00230137
0.00229952
0.00229151
0.00228566
0.00228102
0.00227653
0.00227367
0.00227031
0.002266
0.00226353
0.00226474
0.00226237
0.00226161
0.00225731
0.00225194
0.00224736
0.00224587
0.00224277
0.00224139
0.00223697
0.00223717
0.00223239
0.00222828
0.00222253
0.00221948
0.00221748
0.00221548
0.00221326
0.00220983
0.00220636
0.00220307
0.00219997
0.00219693
0.00219395
0.00219123
0.00218872
0.00218677
0.00218479
0.00218319
0.00218167
0.00218047
0.00217919
0.00217842
0.00217609
0.00217523
0.00217448
0.00217411
0.00217238
0.0021719
0.00217138
0.00217073
0.00216956
0.00216923
0.0021698
0.00239983
0.0024019
0.00239694
0.00240189
0.00240008
0.00239824
0.00238764
0.00238493
0.00237646
0.00236816
0.00236444
0.0023593
0.00235471
0.00235353
0.00235533
0.00235169
0.00234643
0.00234081
0.00233588
0.00233178
0.00232694
0.00232028
0.00231947
0.00231493
0.00231391
0.00230955
0.00230448
0.00229939
0.00229285
0.00228902
0.00228612
0.00228323
0.00228038
0.00227648
0.00227262
0.00226898
0.00226558
0.00226232
0.00225914
0.00225616
0.00225348
0.00225137
0.00224949
0.00224791
0.00224625
0.00224531
0.00224511
0.00224528
0.00224579
0.00224329
0.0022416
0.00224065
0.00224024
0.00223946
0.00223595
0.00223519
0.0022313
0.00223016
0.00222909
0.00253544
0.00253445
0.00252564
0.002524
0.00251688
0.00251131
0.00250312
0.00249579
0.00248862
0.00247961
0.00247489
0.00246954
0.00246927
0.00247063
0.00246447
0.00245742
0.00245196
0.00244513
0.00243858
0.00242931
0.00242125
0.00242085
0.00241615
0.0024127
0.00240735
0.00240291
0.00239643
0.00238999
0.00238247
0.0023777
0.00237378
0.00236992
0.00236637
0.00236204
0.00235781
0.00235385
0.00235013
0.00234649
0.00234291
0.00233958
0.00233678
0.00233453
0.00233307
0.00233198
0.00233103
0.00233166
0.00233214
0.00233288
0.00233408
0.00233508
0.00233579
0.00233686
0.00233764
0.00233853
0.00233897
0.00233968
0.00233976
0.00234091
0.00234119
0.00268959
0.00267786
0.00267197
0.0026677
0.00266024
0.00265464
0.00264634
0.00263829
0.00263158
0.00262447
0.00261999
0.00261755
0.00261667
0.00261226
0.00259602
0.00259032
0.00257984
0.00256915
0.00255877
0.0025512
0.00255115
0.00254107
0.00253671
0.00252838
0.00252535
0.00251754
0.00251017
0.00250233
0.00249377
0.0024878
0.00248253
0.0024774
0.00247281
0.00246777
0.0024629
0.00245835