/*--------------------------------*- C++ -*----------------------------------*\
| =========                 |                                                 |
| \\      /  F ield         | OpenFOAM: The Open Source CFD Toolbox           |
|  \\    /   O peration     | Version:  2312                                  |
|   \\  /    A nd           | Website:  www.openfoam.com                      |
|    \\/     M anipulation  |                                                 |
\*---------------------------------------------------------------------------*/
FoamFile
{
    version     2.0;
    format      ascii;
    arch        "LSB;label=32;scalar=64";
    class       volScalarField;
    location    "1300";
    object      nut;
}
// * * * * * * * * * * * * * * * * * * * * * * * * * * * * * * * * * * * * * //

dimensions      [0 2 -1 0 0 0 0];

internalField   nonuniform List<scalar> 
76025
(
0.00131406
0.00131483
0.00131508
0.0013149
0.00131572
0.00131604
0.0013164
0.00131598
0.00131388
0.00131708
0.00131737
0.00131846
0.00131927
0.00131668
0.00131585
0.00131526
0.00131444
0.00131079
0.00130992
0.00130747
0.00130832
0.00130877
0.00130949
0.00130606
0.00130872
0.00131324
0.00131937
0.00131678
0.00131168
0.00131681
0.001313
0.00131044
0.00131528
0.00131425
0.00131686
0.00131218
0.00131234
0.00131266
0.0013143
0.00132043
0.00132014
0.00132645
0.00133786
0.0013501
0.0013669
0.00138211
0.00139492
0.00140759
0.00141297
0.00142767
0.00143193
0.00145301
0.00145622
0.00148582
0.00148893
0.00152335
0.00152602
0.00156434
0.001582
0.00164967
0.0016792
0.00176686
0.00182307
0.00198753
0.00209555
0.00240229
0.00265827
0.00319418
0.00383106
0.00132826
0.00132536
0.00132584
0.00132462
0.00132162
0.00132054
0.00131945
0.00132059
0.00132117
0.00132382
0.00132386
0.00132373
0.00132179
0.00131933
0.00131779
0.00131725
0.0013167
0.00131491
0.00131743
0.00131334
0.00131613
0.00132586
0.00131617
0.0013236
0.00132109
0.00132001
0.0013203
0.00131978
0.00131848
0.00131467
0.00131577
0.00131551
0.00131687
0.00131429
0.00131341
0.00131658
0.0013214
0.0013279
0.0013355
0.0013447
0.00135377
0.00137001
0.00137963
0.00139187
0.00140018
0.00140923
0.00141531
0.00142532
0.00143303
0.0014455
0.00145589
0.00147129
0.00148508
0.00150457
0.001522
0.00154643
0.0015712
0.00160654
0.00164985
0.00169379
0.00176281
0.00182369
0.00194676
0.00208694
0.0022588
0.00261667
0.00292621
0.00348703
0.00416342
0.00133947
0.00133879
0.00133876
0.00133639
0.00133692
0.00133527
0.00133614
0.00133448
0.00133163
0.0013299
0.00132496
0.00132625
0.00132966
0.00133207
0.00133328
0.00133488
0.00133568
0.00133625
0.00133765
0.0013363
0.00134048
0.00134075
0.00133834
0.00134122
0.00134024
0.00133647
0.00132941
0.00132774
0.00132541
0.00131896
0.00132229
0.00132712
0.00133165
0.00133632
0.00134173
0.00134771
0.00135479
0.00136282
0.0013708
0.00138428
0.00139223
0.00139992
0.00140553
0.00141284
0.00141876
0.00142771
0.00143506
0.00144666
0.00145553
0.00147046
0.00148079
0.0014999
0.00151218
0.00153645
0.00155214
0.00158423
0.00160776
0.00165316
0.00169106
0.0017556
0.00182259
0.0019183
0.002061
0.00222677
0.0024636
0.00286535
0.00318681
0.00379225
0.00433175
0.00134785
0.0013501
0.00134962
0.00134423
0.00134434
0.00134563
0.00134463
0.00134164
0.00133995
0.00133697
0.00133824
0.00133961
0.00134171
0.00134361
0.00134357
0.00134669
0.00134989
0.00135109
0.00135097
0.00135122
0.00135112
0.00135137
0.00135433
0.00135435
0.00134586
0.00135162
0.00135359
0.00135202
0.00135183
0.00135297
0.00135853
0.00136335
0.00136831
0.00137792
0.00138181
0.00138613
0.00139037
0.00139545
0.00140044
0.00140627
0.00141152
0.00141812
0.00142441
0.00143251
0.00144024
0.00145013
0.00145944
0.00147133
0.00148254
0.00149682
0.00151064
0.0015282
0.00154604
0.0015686
0.00159307
0.00162389
0.00165998
0.00170621
0.00176059
0.0018315
0.00192073
0.00203844
0.00221394
0.00240842
0.00270916
0.00312948
0.0034642
0.00406147
0.00448648
0.00136082
0.00135998
0.00135956
0.00135881
0.00136105
0.00135798
0.00136082
0.00135968
0.00135875
0.00135885
0.00135529
0.00135223
0.00135019
0.00135051
0.00135464
0.0013551
0.0013587
0.00135813
0.00136069
0.00136648
0.00136394
0.00136052
0.00136672
0.00136902
0.00136701
0.00136671
0.00137355
0.00137683
0.00138048
0.00138854
0.00139104
0.00139372
0.00139576
0.00139923
0.00140253
0.0014066
0.00141086
0.00141606
0.00142146
0.0014278
0.00143397
0.00144138
0.00144881
0.00145759
0.0014664
0.00147677
0.0014872
0.00149966
0.00151226
0.00152773
0.00154357
0.00156351
0.0015844
0.00161077
0.00163978
0.00167642
0.00171961
0.001774
0.00183908
0.00192777
0.00203753
0.00219021
0.00239643
0.00262792
0.00298979
0.00339929
0.00373165
0.00429202
0.00456229
0.0013651
0.00136795
0.00137015
0.00137187
0.00137453
0.00137367
0.00137434
0.00137202
0.00137037
0.00137159
0.00136838
0.00136946
0.00137244
0.00136825
0.00137015
0.00137223
0.00137368
0.00137362
0.00137599
0.00137202
0.0013749
0.00137818
0.00138469
0.00138771
0.00139007
0.00139207
0.00139419
0.00140327
0.00141018
0.00141111
0.00141116
0.00141274
0.00141545
0.00141931
0.00142362
0.00142869
0.00143406
0.00144
0.00144629
0.00145319
0.00146014
0.00146792
0.00147611
0.00148528
0.00149501
0.001506
0.00151782
0.00153137
0.0015462
0.00156354
0.00158284
0.00160553
0.00163124
0.00166139
0.0016973
0.00173962
0.00179332
0.00185786
0.00194207
0.00205352
0.00219173
0.00238314
0.00261754
0.00289493
0.00329035
0.00365992
0.00398224
0.0044711
0.00457936
0.00137758
0.00137814
0.00138095
0.00138113
0.00138174
0.00137976
0.00138159
0.00138156
0.00138637
0.00138694
0.00138461
0.00138173
0.00138054
0.00138559
0.00138927
0.00139537
0.00139694
0.00140218
0.00140554
0.00140839
0.00141184
0.00141493
0.0014201
0.00142188
0.00142374
0.0014255
0.00142704
0.00142869
0.00143084
0.00143318
0.00143547
0.00143859
0.00144215
0.00144646
0.00145115
0.00145646
0.00146214
0.00146831
0.00147493
0.00148219
0.00148956
0.00149778
0.00150664
0.00151658
0.00152745
0.00153979
0.00155347
0.00156925
0.00158689
0.00160752
0.00163045
0.00165752
0.00168769
0.00172403
0.00176665
0.00181897
0.00188531
0.0019672
0.00207608
0.0022149
0.00238711
0.00261643
0.00287832
0.00319569
0.00358429
0.00390455
0.00420122
0.00459265
0.00457436
0.00138837
0.0013895
0.00138981
0.00139288
0.00139067
0.00139013
0.00139544
0.00139275
0.00139202
0.00139725
0.00139957
0.00140106
0.00140721
0.00141088
0.00141291
0.00141666
0.00142261
0.00143166
0.0014374
0.00144217
0.00144481
0.00145187
0.00145281
0.00145253
0.00145269
0.00145348
0.00145476
0.00145642
0.00145848
0.00146099
0.00146373
0.00146728
0.0014712
0.00147575
0.00148072
0.00148623
0.00149225
0.00149877
0.00150589
0.0015138
0.00152199
0.00153113
0.00154125
0.00155267
0.00156546
0.00158001
0.00159646
0.00161527
0.00163651
0.00166086
0.00168816
0.00171998
0.00175623
0.00180044
0.00185342
0.0019203
0.00200495
0.00211129
0.0022499
0.00242022
0.00262997
0.00289102
0.00317525
0.00350788
0.00385781
0.00412415
0.00437668
0.00465903
0.00452075
0.00142195
0.00142001
0.00142006
0.00142089
0.00141684
0.001417
0.00141762
0.0014226
0.00142788
0.00143286
0.0014381
0.00144055
0.00144255
0.0014494
0.00145004
0.001457
0.00145795
0.00145998
0.00146247
0.00146445
0.00146661
0.00146951
0.00147203
0.00147424
0.00147634
0.00147863
0.0014811
0.00148384
0.00148688
0.00149017
0.00149383
0.00149813
0.0015028
0.00150801
0.00151369
0.00151987
0.00152666
0.00153401
0.00154207
0.00155111
0.0015606
0.00157117
0.00158304
0.00159649
0.00161172
0.00162903
0.00164867
0.00167096
0.00169616
0.00172491
0.00175762
0.00179621
0.00184152
0.00189782
0.00196647
0.00205396
0.00216312
0.00230003
0.00247136
0.00267511
0.00291867
0.00319819
0.00348918
0.00380563
0.00409798
0.00430452
0.00450136
0.00466394
0.00447277
0.00144304
0.00144325
0.00144783
0.0014496
0.00144914
0.00145438
0.00145589
0.00146266
0.00146666
0.00147273
0.00147584
0.00147779
0.00147889
0.00148037
0.00148172
0.00148387
0.00148594
0.00148813
0.00149042
0.00149267
0.00149497
0.00149749
0.00150013
0.00150294
0.00150584
0.001509
0.0015123
0.0015159
0.00151975
0.00152378
0.00152833
0.0015334
0.00153885
0.00154481
0.0015513
0.00155833
0.00156609
0.00157458
0.00158392
0.00159454
0.00160592
0.00161853
0.00163284
0.00164903
0.00166744
0.00168821
0.0017118
0.00173844
0.00176884
0.0018038
0.00184468
0.00189363
0.00195285
0.00202651
0.00211721
0.00223113
0.00237058
0.0025415
0.00274471
0.00297757
0.00324039
0.00351834
0.00379354
0.00406728
0.00429292
0.00443469
0.00456694
0.00462052
0.00432875
0.00145379
0.00145458
0.00145647
0.0014596
0.0014612
0.00146996
0.00147583
0.00148207
0.00148942
0.00149144
0.0014943
0.00149803
0.00150173
0.00150523
0.00150858
0.0015119
0.00151519
0.00151844
0.00152167
0.00152487
0.00152807
0.00153132
0.00153466
0.00153813
0.00154176
0.00154561
0.00154962
0.001554
0.00155852
0.00156342
0.00156894
0.00157495
0.00158144
0.00158851
0.00159627
0.00160468
0.001614
0.00162428
0.00163559
0.00164845
0.00166242
0.00167769
0.00169497
0.00171444
0.00173653
0.00176144
0.00178987
0.00182235
0.00186011
0.00190451
0.00195771
0.00202231
0.0021015
0.00219896
0.00231829
0.00246338
0.00263589
0.00283761
0.00306416
0.00331083
0.00356973
0.00382412
0.0040619
0.0042763
0.00443157
0.00450444
0.00456943
0.00449982
0.00418917
0.00152843
0.0015275
0.00152721
0.00152763
0.00152794
0.00152911
0.00153062
0.00153198
0.00153437
0.00153656
0.00153896
0.00154167
0.00154456
0.00154754
0.00155059
0.00155372
0.00155692
0.00156021
0.00156356
0.00156698
0.00157049
0.0015741
0.00157786
0.00158176
0.00158588
0.00159022
0.00159485
0.00159984
0.00160502
0.00161094
0.00161749
0.00162464
0.00163244
0.00164097
0.00165039
0.00166066
0.00167202
0.00168463
0.00169848
0.0017141
0.00173134
0.00174995
0.00177095
0.00179469
0.00182172
0.00185261
0.00188837
0.00193014
0.00197966
0.00203904
0.00211083
0.00219809
0.00230391
0.002431
0.00258212
0.00275731
0.00295645
0.00317529
0.00340704
0.00364452
0.00387613
0.00408911
0.00427377
0.00442091
0.0045035
0.00450666
0.00449219
0.00431799
0.00392587
0.00159821
0.001597
0.00159576
0.00159516
0.0015951
0.00159545
0.00159601
0.00159654
0.0015972
0.00159794
0.00159887
0.00160005
0.0016015
0.00160322
0.00160522
0.00160749
0.00161003
0.00161284
0.00161591
0.00161925
0.00162283
0.00162671
0.00163085
0.0016353
0.00164007
0.00164517
0.00165072
0.00165657
0.00166302
0.00167035
0.00167835
0.0016871
0.00169668
0.00170717
0.00171871
0.00173134
0.00174525
0.00176071
0.00177772
0.00179676
0.00181813
0.00184139
0.00186754
0.00189752
0.00193219
0.00197264
0.00202028
0.00207694
0.0021446
0.0022259
0.00232295
0.00243849
0.00257392
0.00273004
0.00290692
0.00310067
0.00330938
0.0035241
0.00373933
0.00394578
0.00413314
0.00429304
0.00441461
0.00449181
0.00449869
0.00443144
0.00432438
0.0040622
0.00375463
0.00163705
0.0016404
0.00164309
0.00164554
0.00164796
0.00165041
0.00165277
0.00165496
0.00165697
0.00165882
0.00166059
0.00166238
0.00166426
0.0016663
0.00166854
0.00167101
0.00167375
0.00167678
0.00168012
0.00168379
0.00168782
0.00169222
0.00169704
0.0017023
0.00170799
0.00171424
0.00172091
0.00172821
0.00173649
0.00174563
0.00175558
0.00176644
0.00177831
0.0017913
0.00180556
0.00182122
0.00183849
0.00185775
0.00187918
0.00190324
0.00193073
0.00196151
0.00199619
0.00203659
0.00208397
0.00213989
0.00220596
0.00228424
0.00237626
0.00248424
0.00260865
0.00275087
0.00290948
0.0030833
0.00326948
0.0034621
0.00365873
0.00384829
0.00402892
0.00418869
0.00432194
0.00442122
0.00447336
0.00447984
0.00440551
0.00426685
0.00405639
0.0037504
0.00335676
0.0016938
0.00169692
0.0017001
0.00170332
0.00170664
0.00171008
0.00171358
0.00171708
0.00172055
0.00172396
0.00172734
0.00173074
0.0017342
0.00173776
0.00174147
0.00174536
0.00174947
0.00175381
0.00175843
0.00176335
0.00176861
0.00177425
0.00178033
0.00178687
0.001794
0.00180162
0.00180996
0.0018194
0.00182987
0.00184131
0.00185382
0.0018675
0.00188251
0.00189905
0.0019173
0.00193755
0.00196015
0.0019856
0.00201446
0.00204726
0.00208508
0.00212865
0.00217821
0.00223526
0.00230179
0.00237933
0.00246889
0.00257191
0.00268844
0.0028195
0.00296323
0.0031197
0.00328495
0.00345718
0.00363176
0.00380307
0.00396897
0.00411789
0.00425192
0.00435507
0.00442884
0.00446099
0.00443946
0.0043733
0.00421026
0.00399806
0.00368828
0.00334008
0.00303462
0.00177548
0.00177843
0.00178162
0.00178501
0.0017886
0.00179241
0.00179642
0.00180059
0.00180491
0.00180936
0.00181395
0.00181868
0.00182359
0.00182868
0.00183398
0.00183952
0.00184532
0.00185139
0.00185777
0.00186448
0.00187156
0.00187904
0.001887
0.00189551
0.00190455
0.00191448
0.00192563
0.00193797
0.00195148
0.00196633
0.00198271
0.00200083
0.00202096
0.00204345
0.00206862
0.00209696
0.00212905
0.00216553
0.00220717
0.00225478
0.00230919
0.00237163
0.00244238
0.00252167
0.00261
0.00270924
0.00281908
0.00293987
0.0030701
0.00320984
0.00335545
0.00350694
0.0036587
0.00381013
0.0039552
0.00409028
0.00421267
0.00431134
0.0043909
0.00443067
0.00444109
0.00439844
0.00430076
0.00415639
0.00389685
0.00361744
0.00320687
0.00295133
0.00258012
0.00188039
0.00188344
0.00188682
0.00189049
0.00189446
0.00189875
0.00190334
0.00190824
0.00191345
0.00191896
0.00192479
0.00193094
0.00193743
0.00194426
0.00195146
0.00195904
0.00196702
0.00197541
0.00198424
0.00199353
0.00200334
0.00201372
0.00202465
0.00203644
0.00204943
0.00206388
0.00207968
0.00209701
0.00211609
0.00213724
0.00216076
0.00218704
0.00221653
0.00224969
0.00228701
0.00232905
0.00237644
0.00242976
0.00248958
0.00255648
0.00263081
0.00271293
0.00280322
0.00290125
0.00300584
0.00311687
0.00323285
0.00335457
0.00348037
0.0036099
0.00373846
0.00386729
0.00398925
0.00410618
0.00420961
0.00429935
0.00436956
0.00441192
0.00443008
0.00440112
0.004343
0.00421664
0.00404292
0.0038075
0.0034587
0.00311445
0.00270662
0.00255696
0.00223296
0.00202278
0.00202677
0.00203115
0.00203587
0.00204096
0.00204642
0.00205225
0.00205846
0.00206505
0.00207204
0.00207945
0.00208729
0.00209559
0.00210438
0.0021137
0.00212358
0.00213407
0.00214521
0.00215711
0.00216978
0.00218328
0.00219812
0.00221449
0.00223274
0.00225275
0.00227468
0.00229878
0.00232536
0.00235472
0.00238722
0.00242321
0.00246307
0.00250717
0.00255584
0.00260938
0.00266806
0.00273214
0.00280173
0.00287692
0.00295768
0.00304387
0.00313536
0.00323168
0.00333254
0.0034374
0.00354505
0.00365314
0.0037618
0.00386774
0.00397168
0.004069
0.00416328
0.00424478
0.0043189
0.0043725
0.00441125
0.00442143
0.00440286
0.00435057
0.00424917
0.00411322
0.00389792
0.00364823
0.00331092
0.0029079
0.00255614
0.00228688
0.0022266
0.00220181
0.00220308
0.00220756
0.00221265
0.00221831
0.00222458
0.0022315
0.00223906
0.00224729
0.00225622
0.00226589
0.00227633
0.00228758
0.0022997
0.00231273
0.00232671
0.00234176
0.00235784
0.00237516
0.00239424
0.00241515
0.00243817
0.00246335
0.00249052
0.0025199
0.00255169
0.00258606
0.00262318
0.00266325
0.0027064
0.00275278
0.00280251
0.00285568
0.00291235
0.00297253
0.00303619
0.00310332
0.00317386
0.00324773
0.0033248
0.00340489
0.00348776
0.00357311
0.00366045
0.00374937
0.00383885
0.00392846
0.00401652
0.00410204
0.00418053
0.00425377
0.00431426
0.00436707
0.00440076
0.00442651
0.00442358
0.00440635
0.00434663
0.00426259
0.00412746
0.00395402
0.00372619
0.00343111
0.00310182
0.00269273
0.00233001
0.00209901
0.00203865
0.00212649
0.00228175
0.00246979
0.00247655
0.00248408
0.00249238
0.00250153
0.00251158
0.00252257
0.00253454
0.00254755
0.00256164
0.00257691
0.00259334
0.00261103
0.0026305
0.00265182
0.00267506
0.00270033
0.00272777
0.00275703
0.00278813
0.00282117
0.00285627
0.00289344
0.00293272
0.00297411
0.00301758
0.0030631
0.00311062
0.00316011
0.00321151
0.00326479
0.00331992
0.00337687
0.0034356
0.00349606
0.00355824
0.0036221
0.00368751
0.00375434
0.00382234
0.00389118
0.00396043
0.00402948
0.00409767
0.0041639
0.00422759
0.00428631
0.00434084
0.00438563
0.00442222
0.00444123
0.0044508
0.00443228
0.00440548
0.00433943
0.00425813
0.00411554
0.00396109
0.00373287
0.00349419
0.00316799
0.00282506
0.00243883
0.00209426
0.00190678
0.00190037
0.00202159
0.00215188
0.00230382
0.00283935
0.00284876
0.00285939
0.00287121
0.00288431
0.00289902
0.00291537
0.00293343
0.00295325
0.00297487
0.00299822
0.00302332
0.00304994
0.00307794
0.00310732
0.00313826
0.00317033
0.0032034
0.00323744
0.00327244
0.00330836
0.00334518
0.00338288
0.00342145
0.00346089
0.00350122
0.00354244
0.00358458
0.00362765
0.0036717
0.00371672
0.00376276
0.00380978
0.00385774
0.00390656
0.00395615
0.00400631
0.00405681
0.00410733
0.00415745
0.00420665
0.00425424
0.00429954
0.00434152
0.00437917
0.00441155
0.00443611
0.0044537
0.00445827
0.00445316
0.00442571
0.00438775
0.0043152
0.00422854
0.00408979
0.00392462
0.00368917
0.00346322
0.00315445
0.0028639
0.00248107
0.00215276
0.00185269
0.00174319
0.00179499
0.00196498
0.00209092
0.00222587
0.00230702
0.00343979
0.0034526
0.00346605
0.00348007
0.00349469
0.00350995
0.00352588
0.00354253
0.00355995
0.00357828
0.00359685
0.00361538
0.00363401
0.00365281
0.00367189
0.00369127
0.00371129
0.00373211
0.00375373
0.00377619
0.0037995
0.00382369
0.00384877
0.00387475
0.00390164
0.00392946
0.00395821
0.00398787
0.00401842
0.00404984
0.00408203
0.00411494
0.00414839
0.00418217
0.00421605
0.00424964
0.00428261
0.00431453
0.00434488
0.00437302
0.00439828
0.0044197
0.00443672
0.00444756
0.00445223
0.00444843
0.00443372
0.00440958
0.00436812
0.00431617
0.00423795
0.0041518
0.0039902
0.00380613
0.0035489
0.00329872
0.0030295
0.00276394
0.00244115
0.00213567
0.00183109
0.00163583
0.001615
0.00175581
0.00192394
0.00204254
0.00208854
0.00215821
0.00227565
0.00421454
0.0042142
0.00421256
0.0042098
0.00420612
0.00420172
0.00419678
0.00419147
0.00418599
0.00418049
0.00417556
0.00417152
0.00416841
0.00416626
0.00416514
0.00416509
0.0041662
0.00416854
0.00417218
0.00417717
0.00418357
0.00419137
0.00420058
0.00421117
0.00422308
0.00423625
0.00425057
0.00426595
0.00428224
0.00429929
0.00431679
0.00433462
0.0043524
0.00436951
0.00438538
0.00439913
0.00441092
0.00442008
0.0044258
0.00442722
0.00442369
0.004414
0.00439836
0.00437259
0.00434148
0.00429523
0.00423223
0.00416053
0.00407189
0.00395956
0.00382189
0.00357326
0.00331584
0.00304225
0.00278167
0.00252642
0.0022866
0.0020116
0.00176997
0.00155138
0.00146573
0.00155257
0.0017511
0.00185318
0.00196958
0.00204667
0.00211707
0.0022374
0.00232251
0.00475125
0.00473196
0.00471261
0.00469304
0.00467319
0.004653
0.00463247
0.00461166
0.00459068
0.00456965
0.00454881
0.00452838
0.00450861
0.00448968
0.00447178
0.00445504
0.00443964
0.00442575
0.00441337
0.00440258
0.00439348
0.00438598
0.00438001
0.00437553
0.00437226
0.00437013
0.00436893
0.00436874
0.00436918
0.00437006
0.00437044
0.00437093
0.00437058
0.00436524
0.00435525
0.00434003
0.00432609
0.00430698
0.00428177
0.00425016
0.00421379
0.00416956
0.00411985
0.0040508
0.00399011
0.00384401
0.00371995
0.00362479
0.0034697
0.00331126
0.00308333
0.00284564
0.00259104
0.00228845
0.00206625
0.00181613
0.00163329
0.00144472
0.00135846
0.00136732
0.00155459
0.00170384
0.00184666
0.00192304
0.00198477
0.00209437
0.00218619
0.00224735
0.00231714
0.00490082
0.00487816
0.00485394
0.0048289
0.00480246
0.00477522
0.00474652
0.00471733
0.00468745
0.00465656
0.00462595
0.00459477
0.00456447
0.00453382
0.00450393
0.00447447
0.00444628
0.00441994
0.00439357
0.00436851
0.00434559
0.00432333
0.00430261
0.00428323
0.00426278
0.00424305
0.00422361
0.00420757
0.00419082
0.00417377
0.00415428
0.00413691
0.00412054
0.0040475
0.0039817
0.00392396
0.0039126
0.00384287
0.00377263
0.00370545
0.00366022
0.00359295
0.00352168
0.00339055
0.00327444
0.00315145
0.00303041
0.00289595
0.00274622
0.00251216
0.0023021
0.00203687
0.00177949
0.00157671
0.00142268
0.00128341
0.00122555
0.00122595
0.00134725
0.00150786
0.00166534
0.00176686
0.00182891
0.00190405
0.00200756
0.00206305
0.00213142
0.00221651
0.00237183
0.00463562
0.00461131
0.00457627
0.00455069
0.00451473
0.00448624
0.00444416
0.00441567
0.00437966
0.00433261
0.00430224
0.00425323
0.00422325
0.00416877
0.00412707
0.00408358
0.00404494
0.00401878
0.00396233
0.00392156
0.00389442
0.00384824
0.00382421
0.00379568
0.00373627
0.00369012
0.00364826
0.00364174
0.0035899
0.00354869
0.00351068
0.00348929
0.00345559
0.00341446
0.00333722
0.00330799
0.00322841
0.0031866
0.00308157
0.00300275
0.00294578
0.00281521
0.00271312
0.00260691
0.00248604
0.00240433
0.00228172
0.00207719
0.00188619
0.0016484
0.00144712
0.00126908
0.00116363
0.00109132
0.00107072
0.00109652
0.0011789
0.00132375
0.00144107
0.00160216
0.00170143
0.00175399
0.00182072
0.00182812
0.00185466
0.00192501
0.00208468
0.00228895
0.0026052
0.00374944
0.00372255
0.00369419
0.00366518
0.003635
0.00360434
0.00357299
0.00353773
0.00349565
0.00346552
0.00341766
0.0033913
0.00334168
0.00331365
0.00328637
0.00323377
0.00320711
0.00317846
0.00314826
0.00311828
0.00308658
0.00305244
0.00301639
0.00297927
0.00293879
0.00289835
0.00285697
0.0028176
0.00277689
0.00273867
0.00269034
0.00264005
0.00259318
0.00250963
0.00244773
0.00239577
0.00234034
0.00222744
0.00215408
0.00210178
0.00197879
0.00189052
0.00182741
0.00176159
0.00164122
0.00152497
0.00137771
0.00115987
0.00101225
0.000918767
0.000872792
0.000863614
0.00089092
0.00094835
0.00103057
0.00110977
0.00122532
0.0013816
0.00148791
0.00152677
0.00156654
0.00154748
0.00149414
0.00151587
0.00158382
0.001684
0.00185253
0.00219025
0.00263965
0.00207619
0.0020576
0.00203971
0.00202245
0.00200751
0.00199025
0.00198657
0.00197225
0.00195705
0.0019412
0.00192485
0.00190831
0.00189117
0.00187349
0.00185515
0.00183581
0.00181566
0.0017953
0.0017747
0.00175295
0.00172984
0.00170668
0.00168303
0.00165961
0.00163478
0.00160972
0.00158444
0.00155404
0.00152912
0.00149211
0.00145696
0.00139934
0.00135236
0.00127762
0.00122376
0.00113693
0.00108157
0.0010289
0.00102662
0.000948499
0.000935951
0.000910243
0.000865201
0.000822952
0.000755968
0.000700178
0.00067645
0.000687807
0.00070837
0.000739029
0.000778271
0.000827769
0.000889119
0.000955048
0.00103419
0.00110989
0.00113649
0.00115665
0.00113876
0.00108966
0.000985128
0.000826723
0.000731882
0.000711375
0.000823453
0.00101913
0.00126697
0.00157492
0.00197023
0.000372754
0.00037543
0.00037656
0.000378089
0.000378415
0.000377973
0.000379249
0.000380231
0.000380681
0.000381485
0.000384861
0.000386773
0.000387349
0.000387966
0.000388632
0.000389337
0.000390109
0.000391462
0.000391876
0.000392216
0.000389895
0.000391705
0.000392567
0.000393504
0.000391241
0.000393571
0.000392989
0.000399314
0.00040371
0.000401699
0.000400781
0.000399573
0.00040524
0.000406343
0.000405923
0.000407874
0.000398353
0.000393195
0.000400034
0.000404404
0.000405796
0.000403903
0.000401164
0.000398228
0.000394319
0.000389229
0.000382591
0.000374399
0.000364418
0.000352599
0.000338714
0.000322265
0.000307547
0.000288286
0.000286141
0.000293386
0.000303876
0.000319342
0.000320859
0.000288104
0.000247726
0.000208277
0.000190153
0.000212404
0.000242802
0.000273845
0.000303468
0.000330741
0.000354966
0.00134901
0.00134554
0.00134314
0.00134116
0.00134031
0.00133908
0.00133527
0.00133078
0.00132759
0.00132525
0.00132208
0.00132069
0.00131903
0.00131836
0.00131783
0.00131615
0.00131374
0.00131422
0.00131491
0.00131665
0.00131875
0.00131785
0.00131772
0.00132027
0.00131999
0.00132184
0.00132378
0.00132588
0.00132601
0.00132532
0.00132317
0.00132343
0.00132392
0.00132465
0.00132489
0.00132454
0.00132502
0.00132521
0.00132463
0.0013245
0.00132117
0.00132186
0.00132183
0.00131875
0.00132013
0.00131886
0.0013194
0.00131901
0.00131491
0.00131817
0.00132108
0.00132156
0.00132362
0.00132199
0.0013216
0.00131948
0.00131682
0.00131565
0.00131421
0.00135662
0.00135568
0.00135315
0.00134925
0.00134251
0.00134018
0.00133795
0.00133809
0.00133638
0.00133222
0.00132961
0.00132827
0.00132706
0.0013264
0.00132544
0.00132267
0.00132108
0.00132222
0.00132231
0.00132529
0.00132544
0.00132497
0.00132569
0.00132665
0.00132625
0.00132866
0.0013302
0.00133253
0.00133241
0.0013313
0.00132923
0.00132939
0.00132972
0.00133059
0.00133085
0.00133055
0.00133063
0.00133066
0.00133121
0.00133073
0.00132787
0.00132739
0.00132724
0.00132529
0.00132481
0.00132498
0.00132474
0.00132636
0.00132253
0.00132151
0.00132397
0.00132519
0.00132673
0.00132868
0.00132707
0.0013279
0.00132624
0.00132794
0.0013281
0.00136139
0.00135887
0.0013542
0.00135393
0.00135177
0.00135184
0.00135151
0.00134876
0.00134388
0.00133793
0.00133405
0.00133672
0.0013373
0.00133714
0.00133351
0.00132983
0.00132969
0.00133101
0.00133189
0.00133214
0.00133081
0.00133165
0.0013338
0.00133403
0.00133399
0.00133609
0.00133798
0.00134017
0.00133972
0.00133786
0.00133597
0.00133572
0.00133597
0.00133729
0.00133765
0.00133761
0.00133756
0.00133767
0.00133808
0.00133878
0.00133608
0.00133502
0.00133425
0.00133322
0.00133154
0.00133171
0.00133182
0.00133258
0.00133326
0.00132995
0.00132807
0.00132912
0.00133322
0.00133423
0.00133625
0.00133576
0.00133648
0.00133854
0.00133751
0.001368
0.00137045
0.00137029
0.00136858
0.00136523
0.00136451
0.00136083
0.00135424
0.0013499
0.00135021
0.00135106
0.00135028
0.00134688
0.00134488
0.00134181
0.00134003
0.00134192
0.00134253
0.00134277
0.00134337
0.00134372
0.0013424
0.00134203
0.00134256
0.00134297
0.00134582
0.00134675
0.00134912
0.00134813
0.00134646
0.00134462
0.00134458
0.00134462
0.00134544
0.00134575
0.00134585
0.00134604
0.00134583
0.00134607
0.00134714
0.00134598
0.00134423
0.00134332
0.00134234
0.00134053
0.00133968
0.00133991
0.00133965
0.00134057
0.00133995
0.00133732
0.00133606
0.00133657
0.00133927
0.00134355
0.00134441
0.00134715
0.00134867
0.00134857
0.00138891
0.00138666
0.00138352
0.00138216
0.0013779
0.00137334
0.00136735
0.00136561
0.00136276
0.00136159
0.00135664
0.00135603
0.00135562
0.00135562
0.00135437
0.00135294
0.00135401
0.00135362
0.00135407
0.00135475
0.00135159
0.00135307
0.00135397
0.0013534
0.00135458
0.00135568
0.00135797
0.00135963
0.00135787
0.00135619
0.00135444
0.00135416
0.0013542
0.00135486
0.00135506
0.00135528
0.00135525
0.001355
0.00135506
0.00135596
0.00135629
0.00135495
0.00135405
0.00135326
0.00135208
0.00135075
0.00135044
0.00135034
0.0013512
0.00135166
0.0013511
0.00135056
0.00134795
0.00134911
0.00135045
0.00135029
0.00135225
0.00135447
0.00135598
0.00139807
0.00139576
0.00139458
0.00139518
0.00139213
0.00138784
0.00138584
0.00138024
0.00137709
0.00137277
0.00137359
0.00137489
0.00137296
0.00137031
0.00136546
0.00136949
0.00136808
0.00136913
0.0013693
0.00136715
0.00136689
0.001367
0.00136679
0.00136679
0.00136629
0.00136964
0.00137018
0.00137201
0.00136963
0.00136794
0.0013662
0.00136575
0.00136583
0.00136634
0.00136648
0.0013668
0.00136699
0.00136646
0.00136629
0.00136679
0.00136768
0.00136747
0.00136678
0.00136589
0.00136508
0.00136402
0.00136399
0.00136284
0.00136315
0.00136292
0.00136291
0.00136252
0.00136156
0.001361
0.00135803
0.00135918
0.00135781
0.00136129
0.00136496
0.00141621
0.00141542
0.00141607
0.00141292
0.00141218
0.001407
0.00140451
0.0013989
0.0013987
0.00139407
0.001394
0.00138919
0.00138454
0.00138205
0.00138395
0.00138438
0.0013849
0.00138692
0.0013829
0.00138164
0.00138088
0.00138351
0.00138231
0.00138006
0.00138252
0.0013836
0.00138549
0.00138651
0.00138373
0.00138182
0.00138013
0.00137944
0.00137944
0.0013797
0.00137963
0.00137973
0.00138022
0.00137976
0.00137928
0.0013793
0.00137984
0.00138037
0.00137969
0.00137934
0.00137842
0.00137757
0.00137648
0.00137693
0.00137645
0.00137707
0.00137719
0.00137816
0.00137717
0.00137437
0.00137313
0.00137094
0.00137088
0.00137218
0.00137341
0.00143623
0.00143726
0.00143687
0.00143633
0.00142641
0.00142259
0.00142041
0.00141623
0.00141271
0.00141111
0.00140651
0.00140332
0.0014041
0.00140383
0.00140621
0.00140705
0.00140944
0.00140302
0.00140073
0.00140048
0.00140596
0.00140275
0.00139833
0.00140035
0.0014
0.00140389
0.00140323
0.00140385
0.00140079
0.00139875
0.00139705
0.00139617
0.00139608
0.00139606
0.00139604
0.00139594
0.00139641
0.00139645
0.0013959
0.00139554
0.00139529
0.00139592
0.00139524
0.00139545
0.00139448
0.00139537
0.00139281
0.00139299
0.00139357
0.00139192
0.00139321
0.00139388
0.0013922
0.00139293
0.00139104
0.00138939
0.00138915
0.00138863
0.0013893
0.00147107
0.0014737
0.0014655
0.00145861
0.00144988
0.0014463
0.00143695
0.00143049
0.00142788
0.00142389
0.00142657
0.00142777
0.00142857
0.00142963
0.00142933
0.00142858
0.00142658
0.00142334
0.00142605
0.001432
0.00142564
0.00141952
0.00142197
0.00142172
0.00142396
0.0014237
0.00142456
0.00142448
0.00142111
0.00141894
0.00141705
0.00141591
0.00141553
0.00141513
0.00141487
0.00141458
0.00141461
0.0014147
0.00141433
0.00141389
0.00141336
0.00141381
0.00141311
0.00141338
0.00141365
0.00141392
0.00141421
0.0014137
0.00141462
0.00141502
0.00141516
0.00141738
0.00141592
0.00141821
0.00141601
0.00141565
0.00141386
0.00141636
0.0014178
0.00148732
0.0014816
0.00147615
0.00147087
0.00147277
0.0014771
0.00147607
0.00146933
0.00146402
0.00146188
0.00146108
0.00146187
0.0014622
0.00146096
0.00145775
0.00145859
0.00145576
0.00146018
0.00145871
0.00145424
0.00144815
0.00145101
0.00144664
0.00145072
0.00144802
0.00145148
0.0014503
0.0014495
0.00144595
0.00144366
0.00144164
0.00144027
0.00143966
0.00143903
0.00143866
0.00143837
0.00143824
0.00143813
0.00143774
0.00143735
0.0014366
0.00143683
0.00143596
0.00143637
0.00143559
0.00143647
0.00143584
0.00143742
0.00143509
0.00143451
0.00143591
0.00143575
0.00143612
0.00143648
0.0014368
0.00143725
0.0014362
0.00143861
0.00144058
0.00150241
0.00150732
0.00150488
0.001515
0.00151737
0.00151873
0.00150989
0.00151037
0.00150414
0.00150033
0.00150256
0.00149967
0.00149505
0.00149412
0.00149636
0.00149374
0.00149464
0.00149127
0.00148845
0.00148659
0.00148457
0.0014757
0.00148153
0.00147933
0.00148201
0.00148183
0.00148059
0.00147935
0.00147562
0.0014731
0.00147076
0.00146899
0.00146791
0.00146688
0.00146618
0.00146564
0.00146523
0.00146485
0.00146433
0.00146391
0.00146302
0.00146343
0.0014625
0.0014635
0.00146258
0.00146411
0.00146473
0.00146574
0.00146807
0.00146514
0.00146486
0.00146426
0.00146455
0.00146295
0.00145996
0.00145976
0.00145361
0.00145393
0.00145336
0.00157425
0.00157701
0.00157061
0.00157292
0.00156943
0.00156857
0.00156506
0.00156134
0.00155819
0.00154988
0.0015404
0.0015336
0.00153472
0.00154272