/*--------------------------------*- C++ -*----------------------------------*\
| =========                 |                                                 |
| \\      /  F ield         | OpenFOAM: The Open Source CFD Toolbox           |
|  \\    /   O peration     | Version:  2312                                  |
|   \\  /    A nd           | Website:  www.openfoam.com                      |
|    \\/     M anipulation  |                                                 |
\*---------------------------------------------------------------------------*/
FoamFile
{
    version     2.0;
    format      ascii;
    arch        "LSB;label=32;scalar=64";
    class       volScalarField;
    location    "1300";
    object      p;
}
// * * * * * * * * * * * * * * * * * * * * * * * * * * * * * * * * * * * * * //

dimensions      [0 2 -2 0 0 0 0];

internalField   nonuniform List<scalar> 
76025
(
0.115476
0.111577
0.107607
0.103661
0.0996482
0.09561
0.0913872
0.0872896
0.0831034
0.0789425
0.0747102
0.070448
0.066176
0.0619283
0.0576648
0.0534002
0.0492115
0.0449775
0.0408045
0.0367517
0.0327318
0.0286268
0.0246334
0.0207616
0.016954
0.0132706
0.00960489
0.00598875
0.00261622
-0.000819654
-0.00399318
-0.00703233
-0.00994986
-0.0126239
-0.0151469
-0.0175006
-0.0197006
-0.0218733
-0.0237073
-0.0253197
-0.0266687
-0.0278381
-0.0288824
-0.0294976
-0.0298455
-0.0300002
-0.0299241
-0.0294647
-0.0286187
-0.0275487
-0.0261704
-0.02443
-0.0222962
-0.019688
-0.0166206
-0.0131872
-0.00932805
-0.00504671
-0.000303468
0.00498853
0.0110025
0.0173398
0.0244789
0.0322632
0.0405593
0.04903
0.0581396
0.0690877
0.0795505
0.116993
0.112836
0.10867
0.104497
0.100265
0.0959456
0.0916098
0.0872552
0.0828457
0.0784107
0.0739464
0.0694905
0.0650394
0.0605817
0.0561284
0.0517081
0.0472763
0.0429088
0.0385431
0.0342664
0.0299726
0.0257622
0.0216462
0.0176218
0.0136641
0.0097906
0.00600336
0.00237867
-0.0011371
-0.00455209
-0.00780458
-0.0109728
-0.0139464
-0.0166801
-0.0193086
-0.0217649
-0.0240833
-0.026161
-0.0279525
-0.0295548
-0.0309155
-0.0320806
-0.0329678
-0.0335143
-0.0338235
-0.0338805
-0.03366
-0.0330662
-0.0321375
-0.0309038
-0.0293369
-0.0273869
-0.0250129
-0.022179
-0.0188798
-0.0151467
-0.0109535
-0.0062476
-0.0010243
0.00478103
0.0112778
0.0183555
0.0261259
0.0346021
0.0437201
0.0534339
0.063709
0.0752248
0.0860676
0.118582
0.114193
0.109787
0.105363
0.100877
0.0963356
0.0917493
0.0871232
0.0824674
0.077788
0.0730995
0.0684111
0.0637201
0.0590312
0.0543571
0.0496918
0.0450543
0.0404516
0.0358898
0.0313692
0.02691
0.0225356
0.0182433
0.014034
0.00991399
0.00589403
0.00199775
-0.00177401
-0.00542907
-0.00894786
-0.0123265
-0.0155494
-0.018585
-0.0214407
-0.0241329
-0.0266305
-0.028911
-0.0309539
-0.032767
-0.0343614
-0.0357138
-0.0368102
-0.0376287
-0.0381599
-0.0384118
-0.0383667
-0.038008
-0.0373091
-0.0362677
-0.034873
-0.0331077
-0.0309416
-0.028341
-0.0252789
-0.0217375
-0.0177053
-0.0131571
-0.00805645
-0.00237104
0.00395108
0.0109698
0.0186937
0.0271585
0.0363994
0.0463982
0.0571584
0.0685705
0.0810623
0.0927848
0.120041
0.11539
0.110714
0.106023
0.101276
0.0964635
0.0916001
0.0867046
0.0817898
0.0768597
0.0719181
0.0669688
0.0620173
0.0570718
0.0521427
0.0472372
0.0423668
0.037538
0.0327599
0.0280402
0.0233922
0.0188229
0.0143393
0.00995072
0.00566745
0.00149802
-0.00254861
-0.00646523
-0.0102412
-0.0138649
-0.0173269
-0.0206167
-0.0237272
-0.0266499
-0.0293732
-0.0318803
-0.0341613
-0.0362151
-0.0380374
-0.0396176
-0.0409407
-0.0419918
-0.0427601
-0.0432332
-0.0434015
-0.0432565
-0.0427875
-0.0419766
-0.0408064
-0.03926
-0.0373201
-0.0349611
-0.0321526
-0.0288658
-0.0250744
-0.0207538
-0.0158753
-0.010401
-0.00428718
0.00251657
0.0100632
0.0183885
0.0275274
0.0375229
0.0483839
0.0601463
0.0726526
0.0862775
0.0993783
0.121355
0.116421
0.111459
0.106485
0.101456
0.0963579
0.0912115
0.0860375
0.0808462
0.0756407
0.070424
0.0652022
0.0599841
0.0547787
0.0495957
0.0444448
0.0393343
0.034273
0.0292696
0.0243338
0.0194749
0.014702
0.010026
0.00545687
0.00100326
-0.00332587
-0.00752064
-0.01157
-0.0154636
-0.019193
-0.0227493
-0.0261239
-0.0293067
-0.0322862
-0.0350515
-0.0375901
-0.0398958
-0.041964
-0.0437867
-0.0453523
-0.0466479
-0.0476598
-0.0483764
-0.0487869
-0.0488822
-0.0486529
-0.048086
-0.0471641
-0.0458684
-0.0441804
-0.0420793
-0.0395404
-0.0365347
-0.0330323
-0.0290022
-0.0244124
-0.0192266
-0.013402
-0.00688979
0.000363073
0.00841145
0.0173063
0.0270956
0.0378275
0.0495297
0.0622508
0.07584
0.0907109
0.105369
0.122572
0.117336
0.112075
0.106802
0.101472
0.0960739
0.0906275
0.0851545
0.0796657
0.0741657
0.0686587
0.0631515
0.057653
0.0521728
0.0467208
0.0413063
0.0359386
0.0306271
0.0253813
0.0202114
0.0151275
0.0101407
0.00526179
0.000500355
-0.00413416
-0.00863145
-0.012981
-0.0171726
-0.0211969
-0.0250447
-0.0287062
-0.0321713
-0.0354293
-0.0384714
-0.0412862
-0.0438609
-0.0461893
-0.0482666
-0.0500856
-0.0516352
-0.0529025
-0.0538746
-0.0545402
-0.0548897
-0.0549135
-0.0546008
-0.0539377
-0.0529079
-0.0514926
-0.0496715
-0.0474223
-0.0447194
-0.0415339
-0.0378339
-0.0335845
-0.0287482
-0.0232824
-0.0171395
-0.0102655
-0.00260236
0.00591155
0.0153381
0.0257363
0.0371633
0.0496618
0.0632885
0.0779247
0.0940412
0.110301
0.123653
0.118098
0.112518
0.106926
0.101277
0.0955584
0.0897911
0.0839984
0.0781927
0.0723792
0.0665625
0.0607496
0.0549499
0.0491738
0.0434318
0.0377342
0.0320911
0.0265127
0.0210091
0.0155914
0.0102707
0.00505834
-3.5286e-05
-0.00499991
-0.00982459
-0.0144985
-0.0190112
-0.0233525
-0.0275122
-0.0314804
-0.0352469
-0.0388018
-0.0421353
-0.0452388
-0.0481003
-0.0507073
-0.0530553
-0.0551405
-0.0569558
-0.05849
-0.0597303
-0.0606641
-0.0612809
-0.0615714
-0.0615262
-0.0611342
-0.060382
-0.0592529
-0.057728
-0.0557862
-0.0534042
-0.0505556
-0.0472107
-0.0433355
-0.0388923
-0.0338388
-0.0281277
-0.0217057
-0.0145135
-0.00648664
0.00244426
0.0123508
0.0233017
0.0353653
0.0485959
0.0630555
0.0786712
0.0959499
0.113718
0.12455
0.118651
0.112729
0.106797
0.100806
0.094745
0.0886358
0.0825036
0.0763616
0.0702155
0.0640696
0.0579317
0.0518117
0.045721
0.0396714
0.0336741
0.02774
0.0218799
0.0161049
0.0104267
0.00485709
-0.000592794
-0.00591182
-0.0110887
-0.0161119
-0.0209702
-0.0256527
-0.0301488
-0.0344477
-0.0385394
-0.0424137
-0.0460611
-0.0494721
-0.052638
-0.0555464
-0.0581868
-0.060556
-0.0626505
-0.0644627
-0.0659813
-0.0671938
-0.0680888
-0.0686566
-0.0688888
-0.0687766
-0.0683094
-0.0674737
-0.0662533
-0.0646291
-0.0625799
-0.0600818
-0.0571081
-0.0536277
-0.0496052
-0.0449999
-0.039766
-0.0338515
-0.027198
-0.0197405
-0.0114078
-0.00212261
0.00819496
0.0196229
0.0322425
0.0461184
0.0613257
0.0778311
0.0961596
0.115431
0.125236
0.118969
0.112681
0.106382
0.100025
0.0935972
0.0871228
0.0806285
0.0741282
0.0676275
0.0611317
0.0546484
0.0481885
0.041765
0.0353905
0.0290768
0.0228355
0.0166781
0.0106167
0.00466368
-0.00116891
-0.00686913
-0.0124249
-0.0178243
-0.0230554
-0.0281065
-0.0329661
-0.0376231
-0.0420668
-0.0462868
-0.0502728
-0.0540154
-0.0575055
-0.0607339
-0.0636887
-0.0663614
-0.0687501
-0.0708513
-0.0726572
-0.0741568
-0.0753387
-0.0761928
-0.0767109
-0.0768858
-0.0767094
-0.0761716
-0.0752597
-0.0739576
-0.0722468
-0.0701061
-0.0675119
-0.0644368
-0.0608492
-0.0567121
-0.0519828
-0.0466123
-0.0405449
-0.0337175
-0.0260597
-0.017494
-0.00793658
0.00269982
0.0145037
0.0275724
0.0419838
0.0578424
0.0751487
0.0945041
0.114857
0.125678
0.119019
0.112338
0.105649
0.0989016
0.0920823
0.0852177
0.0783355
0.071451
0.0645705
0.0576995
0.0508467
0.0440247
0.037247
0.0305269
0.0238769
0.0173093
0.0108367
0.00447183
-0.00177224
-0.00788261
-0.0138465
-0.0196512
-0.0252841
-0.0307327
-0.0359847
-0.0410283
-0.0458519
-0.0504447
-0.0547959
-0.0588954
-0.0627337
-0.0663019
-0.069591
-0.0725895
-0.0752913
-0.0776961
-0.0798001
-0.0815958
-0.083073
-0.0842215
-0.0850328
-0.0855005
-0.0856186
-0.0853804
-0.0847767
-0.0837954
-0.0824216
-0.0806374
-0.0784226
-0.0757538
-0.072604
-0.0689411
-0.0647275
-0.0599189
-0.054464
-0.0483044
-0.0413734
-0.0335968
-0.0248916
-0.0151689
-0.00433325
0.00771807
0.0211
0.0359093
0.052295
0.0703093
0.0907351
0.112301
0.125801
0.118725
0.111629
0.104526
0.0973633
0.090128
0.0828482
0.0755534
0.0682596
0.060974
0.053703
0.0464569
0.0392491
0.0320939
0.0250055
0.0179973
0.0110829
0.00427557
-0.00241095
-0.00896284
-0.0153663
-0.0216078
-0.0276738
-0.033551
-0.0392263
-0.0446871
-0.0499211
-0.0549162
-0.0596612
-0.0641454
-0.0683587
-0.0722919
-0.0759363
-0.0792831
-0.0823216
-0.0850486
-0.0874646
-0.0895662
-0.0913462
-0.0927954
-0.0939055
-0.09467
-0.0950846
-0.0951449
-0.0948457
-0.0941792
-0.0931348
-0.0916989
-0.0898555
-0.0875852
-0.0848659
-0.0816713
-0.0779696
-0.0737234
-0.068888
-0.0634114
-0.0572338
-0.0502868
-0.0424936
-0.0337673
-0.024013
-0.013124
-0.000980749
0.0125474
0.0275842
0.0443211
0.0629034
0.0842117
0.106581
0.125542
0.118018
0.110475
0.102928
0.095322
0.0876429
0.0799209
0.072187
0.0644583
0.0567428
0.0490479
0.0413848
0.0337675
0.0262117
0.0187326
0.0113448
0.00406284
-0.00309884
-0.0101255
-0.0170023
-0.0237146
-0.0302479
-0.0365878
-0.0427204
-0.0486319
-0.0543092
-0.0597393
-0.0649102
-0.06981
-0.0744281
-0.0787545
-0.0827802
-0.0864971
-0.0898965
-0.0929692
-0.0957147
-0.0981347
-0.100226
-0.101982
-0.103394
-0.104458
-0.105169
-0.105526
-0.105525
-0.105164
-0.104436
-0.103334
-0.101845
-0.0999563
-0.09765
-0.0949061
-0.0916997
-0.0880009
-0.0837735
-0.0789741
-0.0735522
-0.0674481
-0.0605933
-0.0529088
-0.0443036
-0.0346748
-0.0239015
-0.0118483
0.00163181
0.016695
0.0335605
0.0524707
0.0742194
0.0979654
0.124853
0.116846
0.108824
0.100799
0.0927152
0.0845589
0.0763618
0.0681569
0.0599625
0.0517874
0.04364
0.0355321
0.0274789
0.019497
0.0116029
0.00381232
-0.00385915
-0.0113958
-0.018782
-0.0260017
-0.0330392
-0.0398791
-0.0465062
-0.0529054
-0.0590624
-0.0649635
-0.0705952
-0.0759449
-0.0810009
-0.0857523
-0.0901894
-0.0943032
-0.0980863
-0.10153
-0.104629
-0.107383
-0.109796
-0.111865
-0.113584
-0.114949
-0.115956
-0.116603
-0.116893
-0.116824
-0.116397
-0.115608
-0.114451
-0.112917
-0.110996
-0.108673
-0.105933
-0.102752
-0.0991049
-0.0949578
-0.0902707
-0.0849955
-0.0790741
-0.0724386
-0.0650074
-0.0566846
-0.0473572
-0.0368909
-0.0251366
-0.0119242
0.0029391
0.0197204
0.0387311
0.060458
0.083311
0.123657
0.115135
0.106599
0.0980629
0.0894663
0.0807974
0.0720898
0.0633787
0.0546838
0.0460152
0.037382
0.0287973
0.0202773
0.0118399
0.00350278
-0.0047172
-0.0128032
-0.0207382
-0.0285054
-0.0360877
-0.0434682
-0.0506305
-0.0575584
-0.064236
-0.070648
-0.07678
-0.0826179
-0.0881488
-0.0933608
-0.0982431
-0.102786
-0.106981
-0.110821
-0.114299
-0.117411
-0.120161
-0.122552
-0.124582
-0.126248
-0.127548
-0.128482
-0.129051
-0.12926
-0.129113
-0.128612
-0.127757
-0.126546
-0.124973
-0.123033
-0.120717
-0.118011
-0.1149
-0.111361
-0.107366
-0.102879
-0.0978554
-0.092239
-0.0859621
-0.0789406
-0.0710739
-0.0622404
-0.0522959
-0.0410784
-0.0283892
-0.0140021
0.0024385
0.0213277
0.0431641
0.0667602
0.121833
0.11276
0.103676
0.094593
0.0854491
0.0762324
0.066979
0.0577264
0.048496
0.0392989
0.0301455
0.02105
0.0120303
0.00310566
-0.005705
-0.0143834
-0.0229112
-0.0312703
-0.0394421
-0.0474085
-0.0551514
-0.0626531
-0.0698963
-0.0768643
-0.0835407
-0.0899102
-0.0959582
-0.101671
-0.107038
-0.112046
-0.116688
-0.120954
-0.124839
-0.128335
-0.131444
-0.134171
-0.13652
-0.13849
-0.14008
-0.141292
-0.14213
-0.1426
-0.142711
-0.142468
-0.14188
-0.140951
-0.139683
-0.138077
-0.136133
-0.133847
-0.131213
-0.128221
-0.124854
-0.12109
-0.116897
-0.112234
-0.107048
-0.101272
-0.0948208
-0.0875933
-0.079462
-0.0702769
-0.0598601
-0.0479939
-0.0344266
-0.0187659
-0.000732074
0.0200566
0.0431158
0.119255
0.109591
0.099919
0.0902503
0.0805205
0.0707179
0.0608807
0.051049
0.0412458
0.0314834
0.0217735
0.0121318
0.00257767
-0.00686807
-0.0161848
-0.0253526
-0.0343517
-0.0431623
-0.0517644
-0.0601384
-0.0682646
-0.0761242
-0.0836982
-0.0909689
-0.097919
-0.104532
-0.110793
-0.116689
-0.122206
-0.127333
-0.132063
-0.136386
-0.140299
-0.143795
-0.146878
-0.149557
-0.151836
-0.153717
-0.155202
-0.156296
-0.157009
-0.157351
-0.157336
-0.156976
-0.156284
-0.155268
-0.15394
-0.152306
-0.150373
-0.148144
-0.145621
-0.142797
-0.139665
-0.136205
-0.132393
-0.128193
-0.123555
-0.118418
-0.112702
-0.106305
-0.0990977
-0.090927
-0.0816013
-0.0709019
-0.0585514
-0.0441923
-0.0276711
-0.00882376
0.0109352
0.115767
0.105468
0.0951635
0.0848658
0.0745073
0.0640764
0.0536137
0.0431616
0.0327449
0.0223773
0.0120718
0.00184582
-0.00827975
-0.0182823
-0.0281395
-0.0378296
-0.047331
-0.0566224
-0.065682
-0.0744884
-0.0830203
-0.0912571
-0.0991785
-0.106765
-0.113999
-0.120862
-0.127338
-0.133414
-0.139075
-0.144312
-0.149115
-0.153478
-0.157395
-0.160865
-0.163893
-0.166491
-0.168664
-0.170417
-0.171756
-0.172694
-0.173244
-0.173423
-0.173252
-0.172747
-0.171928
-0.170812
-0.169416
-0.167755
-0.165843
-0.163689
-0.161303
-0.158685
-0.155834
-0.152737
-0.149379
-0.145729
-0.14175
-0.137387
-0.132568
-0.127195
-0.121144
-0.114264
-0.106376
-0.0972772
-0.0866773
-0.0742753
-0.05987
-0.0433725
-0.0256156
0.111201
0.100218
0.0892328
0.0782582
0.0672234
0.0561166
0.044981
0.0338614
0.0227847
0.0117661
0.000820318
-0.0100336
-0.0207727
-0.0313725
-0.041809
-0.0520585
-0.0620974
-0.0719023
-0.0814494
-0.0907153
-0.0996769
-0.108311
-0.116597
-0.124513
-0.13204
-0.139158
-0.14585
-0.152101
-0.157898
-0.16323
-0.168087
-0.172464
-0.176357
-0.179766
-0.182702
-0.185178
-0.1872
-0.188777
-0.189924
-0.190657
-0.190998
-0.190971
-0.190602
-0.189916
-0.18894
-0.187698
-0.186214
-0.18451
-0.18261
-0.18053
-0.178286
-0.175888
-0.173342
-0.170648
-0.167797
-0.164774
-0.161552
-0.158087
-0.15432
-0.150164
-0.145517
-0.140266
-0.134285
-0.127388
-0.119274
-0.109614
-0.0981293
-0.0846518
-0.0698305
0.1053
0.093581
0.0818631
0.0701605
0.0583986
0.0465654
0.0347065
0.0228696
0.0110832
-0.000635236
-0.0122694
-0.0237984
-0.0351974
-0.0464398
-0.0574992
-0.0683496
-0.0789653
-0.0893204
-0.0993888
-0.109145
-0.118563
-0.127619
-0.136289
-0.144549
-0.152377
-0.159754
-0.166661
-0.173081
-0.179
-0.184407
-0.189293
-0.193654
-0.197485
-0.200792
-0.203589
-0.20589
-0.207705
-0.20905
-0.209944
-0.210411
-0.210481
-0.210186
-0.209558
-0.208633
-0.207443
-0.206021
-0.204401
-0.202614
-0.200689
-0.198653
-0.196531
-0.194343
-0.192106
-0.189831
-0.187526
-0.185185
-0.182799
-0.180337
-0.177765
-0.175035
-0.172111
-0.168962
-0.165511
-0.161521
-0.156636
-0.150452
-0.142546
-0.13253
-0.120851
0.0977881
0.0852755
0.0727682
0.0602805
0.0477338
0.0351161
0.0224757
0.00986303
-0.00269091
-0.0151667
-0.0275455
-0.039804
-0.0519149
-0.0638493
-0.0755784
-0.0870737
-0.0983069
-0.10925
-0.119874
-0.13015
-0.140052
-0.149552
-0.158623
-0.167241
-0.17538
-0.183018
-0.190137
-0.196717
-0.202743
-0.208204
-0.213091
-0.217399
-0.221127
-0.224284
-0.226887
-0.22895
-0.230488
-0.231523
-0.232081
-0.232195
-0.231903
-0.231246
-0.230265
-0.229006
-0.22751
-0.225822
-0.223985
-0.222039
-0.220023
-0.217975
-0.215927
-0.213912
-0.21196
-0.210094
-0.208336
-0.206697
-0.205186
-0.20381
-0.202594
-0.201585
-0.200836
-0.200357
-0.199984
-0.199394
-0.198195
-0.195953
-0.192006
-0.185627
-0.176886
0.0881621
0.0747893
0.0614264
0.0480902
0.0346968
0.021234
0.00775255
-0.00569438
-0.0190732
-0.0323621
-0.0455396
-0.05858
-0.0714536
-0.0841293
-0.0965758
-0.108762
-0.120657
-0.13223
-0.143448
-0.154282
-0.164699
-0.17467
-0.184165
-0.193157
-0.201618
-0.209523
-0.216851
-0.223581
-0.229695
-0.235181
-0.24003
-0.244234
-0.247796
-0.250727
-0.253046
-0.254769
-0.255918
-0.256521
-0.256615
-0.256243
-0.255452
-0.254295
-0.252825
-0.251097
-0.249168
-0.247091
-0.244921
-0.242708
-0.240502
-0.238347
-0.236287
-0.234363
-0.232617
-0.231082
-0.229799
-0.228808
-0.228168
-0.227979
-0.228364
-0.229459
-0.231282
-0.233737
-0.236553
-0.23943
-0.241991
-0.243556
-0.243114
-0.23988
-0.233562
0.0759803
0.0616932
0.0474205
0.033184
0.0188941
0.00453723
-0.00983384
-0.0241638
-0.0384168
-0.0525685
-0.0665947
-0.0804669
-0.0941527
-0.107618
-0.120829
-0.133752
-0.146352
-0.158594
-0.170445
-0.181869
-0.192831
-0.203299
-0.213238
-0.222618
-0.231407
-0.239578
-0.247105
-0.253964
-0.260136
-0.265606
-0.270364
-0.274402
-0.277725
-0.280347
-0.282287
-0.283563
-0.284203
-0.284245
-0.283733
-0.282721
-0.281271
-0.279446
-0.277317
-0.274953
-0.272424
-0.2698
-0.267146
-0.264524
-0.261991
-0.259597
-0.257386
-0.255403
-0.253695
-0.252315
-0.251341
-0.250893
-0.251125
-0.252247
-0.254402
-0.257645
-0.261888
-0.266987
-0.272741
-0.278713
-0.284198
-0.288333
-0.290214
-0.289186
-0.284508
0.0603323
0.0450702
0.0298077
0.0146007
-0.000649344
-0.0159632
-0.0312879
-0.0465655
-0.0617571
-0.0768352
-0.0917726
-0.106538
-0.121096
-0.135411
-0.149445
-0.163161
-0.17652
-0.189485
-0.202016
-0.214076
-0.225625
-0.236625
-0.247039
-0.256831
-0.265964
-0.274408
-0.28213
-0.289103
-0.295303
-0.300708
-0.305304
-0.309081
-0.312044
-0.314208
-0.315593
-0.316224
-0.316137
-0.31538
-0.314012
-0.3121
-0.309724
-0.306967
-0.303918
-0.300667
-0.297304
-0.293917
-0.290585
-0.287383
-0.284366
-0.281584
-0.279069
-0.276867
-0.275039
-0.273677
-0.272903
-0.272906
-0.273885
-0.276027
-0.27944
-0.284158
-0.290217
-0.297392
-0.305117
-0.312588
-0.319238
-0.324524
-0.327777
-0.328344
-0.325223
0.0426243
0.0262624
0.00993248
-0.00632164
-0.02261
-0.0389576
-0.0553111
-0.07161
-0.0878119
-0.103885
-0.119801
-0.135525
-0.151019
-0.166244
-0.181159
-0.195722
-0.209891
-0.223624
-0.236878
-0.249611
-0.261779
-0.273338
-0.284243
-0.294454
-0.30393
-0.312634
-0.320529
-0.327581
-0.33376
-0.339042
-0.34341
-0.346856
-0.34939
-0.351025
-0.351777
-0.351674
-0.350757
-0.34908
-0.346712
-0.343737
-0.340254
-0.336366
-0.332185
-0.327825
-0.323404
-0.31903
-0.314804
-0.310823
-0.307169
-0.303918
-0.301121
-0.298818
-0.297035
-0.295798
-0.295131
-0.295152
-0.296078
-0.298204
-0.301927
-0.307396
-0.314273
-0.321742
-0.329186
-0.336398
-0.343134
-0.348934
-0.353127
-0.354877
-0.353251
0.0197145
0.00215672
-0.0154231
-0.0328954
-0.0503876
-0.0679413
-0.0855022
-0.103004
-0.1204
-0.137652
-0.154729
-0.171593
-0.188204
-0.204521
-0.220499
-0.236087
-0.251237
-0.2659
-0.280036
-0.293596
-0.306533
-0.318796
-0.330332
-0.341091
-0.351031
-0.360107
-0.368271
-0.375477
-0.38168
-0.38684
-0.390917
-0.393891
-0.395759
-0.396529
-0.396219
-0.394861
-0.392516
-0.389268
-0.385211
-0.380455
-0.375132
-0.369379
-0.363342
-0.357175
-0.351036
-0.345076
-0.339443
-0.334274
-0.329694
-0.325813
-0.322701
-0.32034
-0.318628
-0.317363
-0.31634
-0.315682
-0.315887
-0.31754
-0.320959
-0.325747
-0.331149
-0.336861
-0.342931
-0.349318
-0.355751
-0.361787
-0.366675
-0.369335
-0.368787
-0.000440896
-0.0193327
-0.038094
-0.0567579
-0.0754539
-0.0942061
-0.112956
-0.131636
-0.150192
-0.168587
-0.186787
-0.204752
-0.222442
-0.239808
-0.256797
-0.273355
-0.289429
-0.30497
-0.319928
-0.334251
-0.347876
-0.36074
-0.372794
-0.383988
-0.39427
-0.403587
-0.411892
-0.419148
-0.425318
-0.43037
-0.434269
-0.436984
-0.438481
-0.438738
-0.437749
-0.435529
-0.432134
-0.427651
-0.422192
-0.415894
-0.408916
-0.401442
-0.393674
-0.38582
-0.378083
-0.370638
-0.363612
-0.35708
-0.35109
-0.345723
-0.341132
-0.33754
-0.335096
-0.333638
-0.332755
-0.332307
-0.332478
-0.333344
-0.334859
-0.337029
-0.339849
-0.343467
-0.348108
-0.353831
-0.360293
-0.366715
-0.372005
-0.374874
-0.37444
-0.035843
-0.056258
-0.0768634
-0.0973017
-0.117724
-0.138209
-0.158707
-0.179141
-0.199453
-0.219597
-0.239534
-0.25922
-0.278607
-0.297641
-0.316263
-0.334416
-0.352045
-0.369091
-0.385494
-0.40119
-0.416107
-0.430181
-0.443352
-0.455551
-0.466702
-0.476728
-0.485532
-0.493001
-0.499031
-0.503567
-0.506594
-0.508112
-0.508099
-0.506538
-0.50343
-0.498804
-0.492723
-0.485293
-0.476664
-0.467019
-0.456572
-0.445568
-0.434271
-0.422952
-0.411874
-0.401251
-0.391246
-0.381985
-0.37353
-0.365931
-0.359318
-0.354047
-0.35062
-0.349081
-0.348626
-0.348121
-0.347039
-0.345487
-0.344008
-0.343155
-0.343385
-0.34531
-0.349398
-0.355401
-0.362366
-0.368993
-0.373885
-0.375822
-0.374327
-0.0467833
-0.0682878
-0.0895199
-0.110895
-0.132426
-0.154014
-0.175588
-0.197086
-0.218446
-0.239619
-0.260572
-0.281264
-0.301643
-0.321642
-0.341192
-0.360231
-0.378698
-0.396538
-0.413687
-0.430067
-0.44561
-0.460253
-0.473928
-0.486577
-0.498168
-0.508697
-0.51821
-0.526652
-0.533795
-0.539381
-0.543234
-0.545282
-0.545489
-0.543819
-0.540258
-0.534811
-0.527502
-0.518391
-0.507586
-0.495273
-0.481731
-0.46736
-0.452673
-0.438286
-0.424853
-0.413018
-0.403344
-0.396016
-0.390712
-0.38666
-0.382957
-0.378942
-0.374708
-0.370741
-0.367081
-0.363211
-0.35876
-0.353997
-0.349749
-0.346982
-0.346483
-0.348681
-0.353394
-0.359822
-0.366627
-0.372187
-0.375018
-0.374248
-0.36983
-0.112678
-0.136997
-0.161472
-0.185741
-0.210005
-0.234433
-0.258959
-0.283429
-0.307732
-0.331814
-0.355646
-0.379188
-0.402383
-0.425161
-0.447449
-0.469173
-0.490262
-0.510642
-0.530234
-0.548949
-0.566695
-0.583372
-0.598872
-0.613072
-0.625821
-0.636938
-0.646209
-0.653549
-0.659042
-0.662753
-0.664613
-0.664421
-0.66199
-0.657196
-0.649971
-0.640298
-0.628201
-0.613745
-0.597072
-0.578416
-0.558146
-0.536783
-0.514998
-0.49356
-0.473278
-0.4549
-0.438916
-0.425529
-0.41468
-0.406044
-0.399092
-0.393229
-0.388
-0.383054
-0.378128
-0.373022
-0.367555
-0.361922
-0.356873
-0.353478
-0.352751
-0.35512
-0.360074
-0.366283
-0.372005
-0.375583
-0.376024
-0.373375
-0.36774
-0.0353478
-0.0302116
-0.0247206
-0.0189521
-0.0128205
-0.00625225
0.000796413
0.00820027
0.0158966
0.0240031
0.0325817
0.0415823
0.0508018
0.0607461
0.0704488
0.0806153
0.0906328
0.101113
0.111452
0.121596
0.132264
0.142135
0.151736
0.16073
0.169259
0.177269
0.184301
0.190559
0.196257
0.200789
0.20418
0.20669
0.208457
0.209451
0.209232
0.208252
0.206666
0.204231
0.201164
0.197772
0.19371
0.18942
0.185116
0.180725
0.175783
0.171085
0.166162
0.161432
0.156659
0.152033
0.147596
0.143311
0.139307
0.135445
0.131814
0.128183
0.124857
0.121686
0.118757
-0.0385913
-0.0332418
-0.0275181
-0.0214319
-0.0149508
-0.00806238
-0.000737757
0.00700539
0.0151558
0.0237228
0.0326866
0.0420604
0.051802
0.0619126
0.0723033
0.0828273
0.0936158
0.104458
0.115394
0.126093
0.136861
0.147349
0.157357
0.16682
0.175676
0.183948
0.191402
0.197882
0.203665
0.208385
0.21186
0.214481
0.216209
0.217004
0.216768
0.215651
0.213833
0.211292
0.208039
0.204279
0.200109
0.195637
0.190929
0.185927
0.180848
0.175729
0.170617
0.165591
0.160593
0.155716
0.151026
0.146514
0.142161
0.138047
0.134093
0.130381
0.126903
0.123622
0.120537
-0.0421665
-0.0365486
-0.0305598
-0.0241676
-0.0173594
-0.0101196
-0.00244651
0.00566258
0.0142173
0.0232178
0.0326397
0.04246
0.0526686
0.0632313
0.0740908
0.085223
0.0965572
0.107984
0.119411
0.130707
0.141881
0.152812
0.163305
0.173232
0.182535
0.191138
0.198892
0.2057
0.211645
0.216479
0.220168
0.222861
0.224511
0.225169
0.224821
0.223573
0.221526
0.218779
0.215341
0.211379
0.206966
0.202147
0.197032
0.191704
0.186293
0.180857
0.175415
0.170034
0.164751
0.159608
0.154643
0.149856
0.145256
0.14086
0.136704
0.132784
0.129086
0.125604
0.122337
-0.045997
-0.0401057
-0.0338218
-0.0271182
-0.0199789
-0.0123881
-0.00434038
0.00416812
0.0131421
0.0225809
0.0324711
0.0427911
0.0535198
0.064612
0.0760101
0.087688
0.0995538
0.111539
0.123518
0.135414
0.147142
0.158559
0.16954
0.179949
0.189708
0.198695
0.206778
0.213896
0.220045
0.225032
0.228886
0.231637
0.233261
0.233849
0.233387
0.231988
0.229731
0.226727
0.223029
0.218772
0.214024
0.208856
0.2034
0.197758
0.19199
0.186185
0.180383
0.174647
0.16903
0.163565
0.158282
0.153197
0.148329
0.143685
0.13928
0.13511
0.131174
0.127471
0.12401
-0.0501841
-0.0439994
-0.0373999
-0.0303601
-0.0228642
-0.0148969
-0.00644849
0.00248703
0.0119115
0.0218214
0.0322059
0.0430456
0.0543131
0.0659634
0.0779419
0.0901932
0.102641
0.115209
0.127785
0.140282
0.152587
0.164551
0.176053
0.186963
0.197179
0.206572
0.215017
0.222439
0.228813
0.233978
0.237963
0.24077
0.242393
0.242922
0.242347
0.240783
0.238308
0.23503
0.231028
0.226424
0.221311
0.215787
0.20997
0.203952
0.197802
0.191608
0.185433
0.179334
0.17336
0.167548
0.161927
0.156523
0.151352
0.146425
0.141747
0.137322
0.133152
0.129231
0.125565
-0.0548187
-0.0483213
-0.0413862
-0.033987
-0.0261081
-0.0177342
-0.0088543
0.000538446
0.010446
0.0208635
0.0317776
0.0431685
0.0550067
0.0672493
0.079842
0.0927188
0.105802
0.119002
0.132215
0.145336
0.158243
0.170792
0.182853
0.194291
0.204985
0.214806
0.22363
0.23137
0.237985
0.24334
0.247453
0.250315
0.251931
0.252387
0.251688
0.24994
0.247231
0.243666
0.239343
0.234381
0.228891
0.222982
0.216764
0.210334
0.203778
0.197178
0.190607
0.18412
0.177767
0.171588
0.165615
0.159874
0.154383
0.149154
0.144193
0.139503
0.135084
0.130928
0.12704
-0.0599459
-0.0531172
-0.0458266
-0.0380472
-0.0297621
-0.0209555
-0.0116158
-0.00173528
0.00868779
0.0196475
0.0311301
0.0431142
0.0555673
0.0684447
0.0816901
0.0952347
0.108996
0.122878
0.136771
0.150558
0.164111
0.177285
0.189942
0.201939
0.213144
0.223423
0.23265
0.240728
0.247603
0.253158
0.257404
0.260318
0.26192
0.26229
0.26145
0.259502
0.256538
0.25267
0.248007
0.242673
0.236787
0.230464
0.223817
0.216952
0.20996
0.202929
0.19593
0.189025
0.182266
0.175695
0.169348
0.163249
0.157418
0.151866
0.146601
0.141623
0.136933
0.132523
0.128398
-0.0656175
-0.0584349
-0.0507652
-0.0425803
-0.0338623
-0.0245944
-0.0147644
-0.00436471
0.0066063
0.0181432
0.0302323
0.0428495
0.0559592
0.0695142
0.0834558
0.097712
0.112195
0.126805
0.141424
0.155925
0.170171
0.184016
0.197311
0.209906
0.221659
0.232429
0.242087
0.250527
0.257681
0.263451
0.267834
0.270802
0.272386
0.272664
0.271668
0.269502
0.266265
0.262072
0.257045
0.251313
0.245002
0.238236
0.231132
0.223802
0.216344
0.208846
0.201387
0.194033
0.186838
0.179847
0.173097
0.166613
0.160415
0.154515
0.14892
0.143632
0.13865
0.133967
0.129589
-0.0719062
-0.0643435
-0.0562671
-0.047648
-0.0384664
-0.0287051
-0.0183516
-0.00739813
0.00415722
0.0163094
0.0290437
0.0423339
0.056143
0.0704218
0.0851085
0.100126
0.115381
0.130766
0.146157
0.161421
0.176412
0.190975
0.204953
0.218188
0.230528
0.241825
0.251942
0.260769
0.268226
0.274225
0.278752
0.281778
0.283342
0.283522
0.282358
0.279956
0.276424
0.271884
0.266466
0.260305
0.253538
0.246294
0.238699
0.230868
0.222906
0.214908
0.206956
0.199119
0.191457
0.184015
0.176832
0.169935
0.163345
0.157072
0.151126
0.145507
0.140214
0.13524
0.130591
-0.078892
-0.0709236
-0.0624125
-0.0533292
-0.0436531
-0.0333655
-0.022453
-0.0109077
0.00127242
0.0140821
0.0275055
0.0415155
0.0560738
0.0711289
0.0866138
0.102446
0.118525
0.134738
0.150955
0.167035
0.182823
0.198156
0.212865
0.226784
0.239752
0.251612
0.262221
0.271461
0.279244
0.285488
0.290167
0.293255
0.294799
0.294873
0.293528
0.290873
0.287024
0.282111
0.276271
0.26965
0.262391
0.254632
0.246506
0.238136
0.229633
0.221098
0.212616
0.204262
0.196097
0.188172
0.180526
0.173187
0.166176
0.159507
0.153186
0.147215
0.141593
0.13631
0.131371
-0.0866753
-0.078276
-0.0693032
-0.0597263
-0.0495226
-0.0386724
-0.0271619
-0.0149822
-0.00213152
0.0113837
0.0255476
0.0403322
0.0556961
0.071584
0.0879234
0.104626
0.121589
0.13869
0.155794
0.172749
0.189391
0.205547
0.221038
0.23569
0.24933
0.261792
0.272928
0.282609
0.290743
0.297248
0.30209
0.305245
0.306766
0.306725
0.305184
0.302257
0.298067
0.292752
0.286459
0.279343
0.271554
0.263242
0.254545
0.245596
0.236511
0.227398
0.218347
0.209437
0.200734
0.192289
0.184144
0.176329
0.168867
0.16177
0.155046
0.148696
0.142718
0.137103
0.131855
-0.0953947
-0.0865335
-0.0770652
-0.0669576
-0.0561869
-0.0447316
-0.0325768
-0.0197139
-0.006141
0.00813498
0.0230967
0.0387139
0.054942
0.0717212
0.0889755
0.106613
0.124524
0.14258
0.160637
0.178532
0.196088
0.213126
0.229457
0.244895
0.259255
0.272363
0.284062
0.294217
0.302727
0.309512
0.314527
0.317754
0.319248
0.319083
0.317332
0.314111
0.309554
0.303807
0.297027
0.289377
0.28102
0.272112
0.262803
0.253231
0.243522
0.233788
0.224126
0.214619
0.205337
0.196333
0.187652
0.179326
0.171377
0.163819
0.156659
0.1499
0.143537
0.137564
0.131982
-0.105177
-0.095816
-0.0858116
-0.0751299
-0.0637459
-0.0516376
-0.0387882
-0.0251897
-0.0108411
0.00425064
0.0200666
0.0365749
0.0537283
0.0714627
0.0896998
0.108343
0.127274
0.146358
0.165437
0.184337
0.202874
0.22086
0.238094
0.254376
0.269509
0.283312
0.295615
0.306279
0.315194
0.322278
0.32748
0.330784
0.332247
0.331949
0.32997
0.326434
0.321482
0.315271
0.307967
0.299744
0.290775
0.281227
0.271258
0.261017
0.250637
0.240236
0.229917
0.21977
0.209865
0.200263
0.191007
0.182132
0.173661
0.16561
0.157985
0.150786
0.144012
0.137652
0.13171
-0.116145
-0.106245
-0.0956623
-0.0843625
-0.0723194
-0.0595106
-0.0459176
-0.0315327
-0.0163544
-0.000390241
0.0163403
0.0338045
0.0519521
0.0707172
0.0900153
0.109741
0.12977
0.149954
0.170128
0.190106
0.209703
0.228711
0.246914
0.264103
0.28007
0.294619
0.307573
0.318783
0.328135
0.33554
0.340944
0.344329
0.34576
0.345319
0.343095
0.339219
0.333842
0.327131
0.319264
0.310424
0.300797
0.29056
0.279882
0.268921
0.257817
0.246698
0.235673
0.224835
0.214262
0.204014
0.194141
0.184677
0.175647
0.167067
0.158943
0.151275
0.14406
0.137288
0.13096
-0.128487
-0.118005
-0.106801
-0.0948386
-0.082088
-0.0685269
-0.0541368
-0.0389068
-0.0228351
-0.00593028
0.0117879
0.0302845
0.0495059
0.0693825
0.0898212
0.11071
0.131913
0.153279
0.17463
0.195776
0.216516
0.236619
0.255867
0.274034
0.290899
0.306253
0.319908
0.331707
0.341529
0.349282
0.354902
0.358377
0.359772
0.359177
0.35669
0.352448
0.346614
0.339365
0.330892
0.321389
0.311054
0.300075
0.288633
0.276895
0.265012
0.253119
0.241332
0.22975
0.218455
0.207513
0.196974
0.186875
0.177242
0.168091
0.15943
0.151257
0.143569
0.136353
0.129613
-0.142393
-0.131291
-0.119422
-0.106749
-0.0932399
-0.0788695
-0.063619
-0.047477
-0.0304414
-0.012521
0.00626218
0.0258698
0.0462465
0.0673159
0.0889784
0.111115
0.133584
0.156225
0.17885
0.201259
0.223224
0.244511
0.26489
0.284114
0.301948
0.318169
0.332581
0.345015
0.355345
0.363472
0.369328
0.3729
0.374258
0.373499
0.370728
0.366093
0.359767
0.351939
0.342812
0.332595
0.321496
0.309717
0.297451