/*--------------------------------*- C++ -*----------------------------------*\
| =========                 |                                                 |
| \\      /  F ield         | OpenFOAM: The Open Source CFD Toolbox           |
|  \\    /   O peration     | Version:  2312                                  |
|   \\  /    A nd           | Website:  www.openfoam.com                      |
|    \\/     M anipulation  |                                                 |
\*---------------------------------------------------------------------------*/
FoamFile
{
    version     2.0;
    format      ascii;
    arch        "LSB;label=32;scalar=64";
    class       surfaceScalarField;
    location    "1300";
    object      phi;
}
// * * * * * * * * * * * * * * * * * * * * * * * * * * * * * * * * * * * * * //

dimensions      [0 3 -1 0 0 0 0];

oriented        oriented;

internalField   nonuniform List<scalar> 
116611
(
0.0263971
0.0111356
-0.0259943
-0.0115385
0.0267973
0.0110358
-0.011436
0.0271934
0.0109277
-0.0113238
0.0275853
0.0108107
-0.0112025
0.0279713
0.0106849
-0.0110709
0.0283561
0.0105481
-0.0109329
0.0287308
0.0104024
-0.0107771
0.0291042
0.0102467
-0.01062
0.0294682
0.0100793
-0.0104434
0.0298271
0.00990167
-0.0102606
0.0301781
0.00971184
-0.0100628
0.0305231
0.00951071
-0.0098557
0.03086
0.00929753
-0.00963445
0.0311901
0.00907179
-0.00940193
0.0315119
0.00883357
-0.00915538
0.0318239
0.00858369
-0.00889563
0.0321293
0.00831821
-0.00862364
0.0324246
0.00804171
-0.00833696
0.0327089
0.00774777
-0.00803214
0.0329831
0.00744277
-0.00771692
0.0332491
0.00711934
-0.00738534
0.0335012
0.00678208
-0.0070342
0.0337416
0.00642891
-0.00666934
0.0339713
0.00606097
-0.00629063
0.0341867
0.00567633
-0.00589174
0.0343913
0.00527516
-0.00547978
0.0345806
0.00485476
-0.00504406
0.034752
0.00441926
-0.00459068
0.034915
0.00396523
-0.00412815
0.0350579
0.0034919
-0.00363483
0.0351816
0.0030016
-0.00312536
0.0352885
0.00248924
-0.00259609
0.0353751
0.00195764
-0.00204424
0.035446
0.00141071
-0.00148162
0.0354967
0.000840634
-0.000891274
0.0355264
0.000253539
-0.000283319
0.0355406
-0.000358237
0.00034409
0.0355239
-0.000993186
0.00100984
0.035488
-0.0016459
0.00168184
0.0354272
-0.00232204
0.00238281
0.0353439
-0.0030175
0.00310084
0.0352372
-0.00373754
0.0038442
0.0350941
-0.00448153
0.00462464
0.0349309
-0.0052417
0.00540489
0.0347387
-0.00602599
0.0062182
0.0345201
-0.00683136
0.00704999
0.0342646
-0.00766245
0.0079179
0.0339822
-0.00851075
0.00879318
0.0336715
-0.00938014
0.00969082
0.0333288
-0.0102722
0.0106149
0.0329528
-0.0111869
0.0115629
0.0325401
-0.0121237
0.0125363
0.0320885
-0.0130808
0.0135324
0.0315987
-0.0140563
0.0145461
0.031069
-0.0150496
0.0155792
0.0305018
-0.0160592
0.0166265
0.0298862
-0.0170887
0.0177043
0.0292266
-0.0181327
0.0187923
0.0285156
-0.0191944
0.0199054
0.027743
-0.0202749
0.0210475
0.0269128
-0.0213667
0.0221969
0.0260145
-0.0224667
0.023365
0.0250618
-0.0235715
0.0245242
0.0240375
-0.0246923
0.0257166
0.0229493
-0.0258344
0.0269226
0.0218147
-0.02701
0.0281445
0.0205747
-0.0282579
0.029498
0.0192158
-0.0295619
0.0309208
-0.0308092
0.017841
0.0321839
0.0259959
0.0107334
-0.0255936
0.0263941
0.0106375
0.0267886
0.0105332
0.027179
0.0104204
0.0275656
0.0102982
0.0279467
0.0101671
0.0283226
0.0100265
0.0286933
0.00987588
0.0290576
0.00971511
0.0294157
0.00954348
0.0297667
0.0093609
0.0301103
0.00916705
0.0304465
0.00896138
0.0307747
0.00874357
0.0310942
0.00851404
0.0314064
0.00827154
0.0317083
0.00801633
0.0320023
0.00774768
0.0322846
0.0074655
0.0325585
0.00716885
0.0328202
0.00685762
0.0330705
0.00653181
0.0333085
0.00619089
0.0335348
0.00583472
0.0337483
0.00546275
0.0339494
0.00507411
0.034135
0.00466911
0.0343069
0.00424744
0.0344639
0.00380816
0.0346041
0.00335171
0.0347289
0.00287683
0.0348352
0.00238293
0.0349221
0.00187077
0.0349924
0.00134037
0.0350424
0.000790612
0.0350741
0.00022186
0.0350843
-0.000368443
0.0350709
-0.000979749
0.0350363
-0.00161131
0.0349779
-0.00226365
0.0348971
-0.00293672
0.0347907
-0.00363117
0.0346563
-0.0043471
0.0344977
-0.00508313
0.034312
-0.00584023
0.034099
-0.00661835
0.0338547
-0.00741819
0.0335819
-0.00823791
0.0332794
-0.00907765
0.0329452
-0.00993797
0.0325772
-0.0108189
0.0321733
-0.0117198
0.0317319
-0.0126394
0.031252
-0.0135764
0.0307321
-0.0145296
0.0301712
-0.0154983
0.0295649
-0.0164825
0.0289126
-0.0174804
0.0282101
-0.0184918
0.0274512
-0.019516
0.0266333
-0.0205488
0.0257544
-0.0215878
0.0248162
-0.0226333
0.0238157
-0.0236918
0.0227542
-0.0247728
0.0216369
-0.0258927
0.0204415
-0.0270625
0.0191542
-0.0282747
-0.029459
0.0178041
0.0256051
0.0103322
-0.0252039
0.0260023
0.0102402
0.0263956
0.0101399
0.0267849
0.0100311
0.0271695
0.00991357
0.0275494
0.00978717
0.0279243
0.00965157
0.0282938
0.00950641
0.0286575
0.00935146
0.0290147
0.00918626
0.0293651
0.00901051
0.0297083
0.00882384
0.0300438
0.0086259
0.030371
0.00841631
0.0306902
0.00819489
0.0310005
0.00796119
0.0313019
0.00771497
0.0315938
0.00745579
0.0318759
0.0071834
0.0321474
0.00689732
0.0324077
0.00659733
0.0326565
0.00628301
0.0328933
0.00595404
0.0331179
0.00561011
0.0333298
0.00525089
0.033528
0.0048759
0.0337122
0.00448488
0.0338822
0.00407747
0.034037
0.00365336
0.0341765
0.00321221
0.0342998
0.0027536
0.0344054
0.00227725
0.0344933
0.00178291
0.0345632
0.00127047
0.0346141
0.000739731
0.0346453
0.000190657
0.0346558
-0.000378947
0.0346448
-0.000968785
0.034612
-0.00157854
0.0345566
-0.0022082
0.0344779
-0.00285801
0.0343748
-0.00352807
0.0342463
-0.00421859
0.0340923
-0.0049292
0.0339119
-0.00565981
0.0337041
-0.00641053
0.0334673
-0.00718141
0.0332013
-0.00797187
0.0329051
-0.00878149
0.0325774
-0.00961022
0.0322162
-0.0104578
0.03182
-0.0113235
0.0313869
-0.0122064
0.0309157
-0.0131051
0.0304047
-0.0140186
0.0298522
-0.0149458
0.0292556
-0.0158858
0.0286127
-0.0168375
0.02792
-0.0177992
0.0271737
-0.0187697
0.0263711
-0.0197462
0.0255108
-0.0207275
0.0245936
-0.0217162
0.0236199
-0.022718
0.0225908
-0.0237437
0.0215025
-0.0248044
0.0203376
-0.0258977
0.0190788
-0.0270159
-0.0280969
0.0177167
0.0252268
0.00993148
-0.0248261
0.0256237
0.00984339
0.0260163
0.00974719
0.0264046
0.00964281
0.0267882
0.00952998
0.027167
0.00940843
0.0275406
0.00927794
0.0279088
0.00913823
0.0282712
0.00898906
0.0286273
0.00883008
0.0289769
0.00866097
0.0293193
0.00848138
0.0296542
0.00829098
0.0299811
0.00808941
0.0302997
0.00787634
0.0306094
0.00765147
0.03091
0.00741442
0.0312009
0.00716486
0.0314818
0.00690247
0.0317522
0.00662694
0.0320116
0.00633792
0.0322596
0.00603505
0.0324956
0.005718
0.0327193
0.00538645
0.0329301
0.00504007
0.0331275
0.0046785
0.033311
0.00430138
0.0334801
0.00390842
0.0336341
0.00349932
0.0337726
0.00307373
0.0338948
0.00263136
0.0340002
0.0021719
0.034088
0.00169508
0.0341577
0.00120072
0.0342088
0.000688704
0.0342404
0.000159006
0.0342521
-0.000390628
0.0342429
-0.000959614
0.0342122
-0.00154781
0.0341593
-0.00215526
0.0340834
-0.00278213
0.0339838
-0.00342848
0.0338596
-0.00409437
0.03371
-0.00477963
0.0335343
-0.00548415
0.0333317
-0.00620785
0.0331008
-0.00695059
0.0328409
-0.00771197
0.032551
-0.00849153
0.0322297
-0.00928891
0.0318755
-0.0101036
0.0314868
-0.0109348
0.031062
-0.0117816
0.0305997
-0.0126428
0.0300982
-0.0135171
0.0295557
-0.0144033
0.02897
-0.0153002
0.0283388
-0.0162063
0.0276592
-0.0171197
0.0269284
-0.0180388
0.0261444
-0.0189622
0.0253072
-0.0198902
0.0244175
-0.0208265
0.0234759
-0.0217764
0.0224809
-0.0227487
0.0214232
-0.0237467
0.0202847
-0.0247591
0.0190472
-0.0257785
-0.0267462
0.0176966
0.0248623
0.00953182
-0.0244626
0.0252584
0.00944727
0.0256505
0.00935508
0.0260382
0.00925507
0.0264212
0.00914697
0.0267992
0.00903046
0.0271719
0.00890528
0.0275389
0.00877117
0.0279001
0.00862786
0.0282551
0.00847508
0.0286036
0.00831254
0.028945
0.00813993
0.029279
0.00795695
0.0296052
0.00776324
0.0299231
0.00755846
0.0302322
0.00734232
0.0305322
0.00711446
0.0308225
0.00687455
0.0311028
0.00662224
0.0313725
0.00635719
0.0316313
0.00607912
0.0318786
0.0057877
0.0321141
0.00548253
0.0323372
0.00516333
0.0325475
0.00482979
0.0327444
0.00448157
0.0329275
0.00411835
0.033096
0.00373985
0.0332497
0.00334571
0.0333877
0.00293564
0.0335097
0.00250937
0.033615
0.00206659
0.033703
0.00160709
0.0337731
0.00113061
0.0338248
0.00063705
0.0338574
0.00012637
0.0338704
-0.000403573
0.0338628
-0.00095208
0.0338341
-0.0015191
0.0337836
-0.00210472
0.0337105
-0.00270902
0.0336141
-0.00333204
0.0334935
-0.00397377
0.0333479
-0.00463411
0.0331767
-0.0053129
0.0329788
-0.00600996
0.0327532
-0.00672504
0.032499
-0.00745775
0.0322151
-0.0082076
0.0319002
-0.00897406
0.0315531
-0.00975646
0.0311723
-0.010554
0.0307562
-0.0113656
0.0303035
-0.0121901
0.0298125
-0.0130261
0.0292816
-0.0138724
0.0287086
-0.0147273
0.0280915
-0.0155891
0.0274279
-0.0164561
0.0267162
-0.0173271
0.0259555
-0.0182015
0.0251463
-0.0190811
0.0242892
-0.0199694
0.023383
-0.0208702
0.0224225
-0.0217883
0.0213937
-0.0227179
0.0202778
-0.0236432
0.0190567
-0.0245574
-0.0253999
0.0177104
0.0245137
0.00913406
-0.024116
0.0249083
0.00905271
0.0252992
0.00896418
0.025686
0.00886827
0.0260683
0.0087647
0.0264456
0.00865313
0.0268176
0.00853326
0.027184
0.0084048
0.0275444
0.00826748
0.0278984
0.00812102
0.0282459
0.00796514
0.0285862
0.00779954
0.0289193
0.00762394
0.0292445
0.00743803
0.0295615
0.00724146
0.0298698
0.00703395
0.0301691
0.00681517
0.0304589
0.0065848
0.0307386
0.00634249
0.0310079
0.00608793
0.0312662
0.00582076
0.0315132
0.00554072
0.0317483
0.00524744
0.031971
0.00494059
0.0321809
0.00461989
0.0323775
0.00428501
0.0325602
0.00393564
0.0327286
0.00357149
0.032882
0.00319224
0.0330201
0.00279759
0.0331422
0.00238728
0.0332477
0.00196105
0.0333361
0.00151866
0.0334069
0.00105986
0.0334594
0.000584572
0.0334931
9.26738e-05
0.0335073
-0.000417785
0.0335013
-0.000946113
0.0334745
-0.00149229
0.0334262
-0.00205639
0.0333556
-0.00263847
0.0332621
-0.00323854
0.0331449
-0.00385654
0.0330032
-0.00449238
0.0328361
-0.00514585
0.0326429
-0.00581672
0.0324225
-0.00650466
0.032174
-0.00720925
0.0318963
-0.00792996
0.0315884
-0.00866614
0.031249
-0.00941704
0.0308768
-0.0101818
0.0304704
-0.0109592
0.0300285
-0.0117482
0.0295496
-0.0125472
0.0290319
-0.0133547
0.0284739
-0.0141692
0.0278736
-0.0149888
0.0272298
-0.0158123
0.0265416
-0.0166389
0.0258092
-0.0174691
0.0250331
-0.0183049
0.0242121
-0.0191485
0.0233425
-0.0200006
0.0224149
-0.0208607
0.0214125
-0.0217155
0.0203176
-0.0225483
0.0191149
-0.0233547
-0.0240724
0.0177874
0.0241835
0.00873836
-0.0237878
0.024576
0.00866021
0.024965
0.00857515
0.0253502
0.00848309
0.0257311
0.00838377
0.0261074
0.00827688
0.0264785
0.00816214
0.0268441
0.00803924
0.0272037
0.00790785
0.027557
0.00776769
0.0279037
0.00761849
0.0282433
0.00745993
0.0285755
0.00729173
0.0288999
0.00711363
0.0292161
0.00692529
0.0295236
0.00672641
0.0298221
0.00651666
0.0301112
0.00629576
0.0303903
0.00606338
0.030659
0.00581922
0.0309168
0.00556293
0.0311633
0.00529421
0.031398
0.00501276
0.0316204
0.00471824
0.0318299
0.00441034
0.0320262
0.00408875
0.0322086
0.00375316
0.0323768
0.00340328
0.0325303
0.00303882
0.0326684
0.00265949
0.0327906
0.00226504
0.0328964
0.00185521
0.0329853
0.00142977
0.0330567
0.00098847
0.03311
0.000531287
0.0331447
5.79434e-05
0.0331602
-0.000433273
0.0331558
-0.000941711
0.0331309
-0.00146736
0.0330848
-0.00201027
0.0330168
-0.00257048
0.0329262
-0.00314798
0.0328124
-0.00374269
0.0326745
-0.00435447
0.0325117
-0.0049831
0.0323233
-0.00562831
0.0321084
-0.00628972
0.031866
-0.00696685
0.0315951
-0.00765914
0.0312949
-0.00836587
0.0309641
-0.00908623
0.0306016
-0.00981925
0.0302061
-0.0105638
0.0297764
-0.0113185
0.0293112
-0.0120819
0.028809
-0.0128525
0.0282685
-0.0136287
0.0276886
-0.014409
0.0270689
-0.0151926
0.0264093
-0.0159793
0.02571
-0.0167698
0.0249704
-0.0175653
0.0241869
-0.0183651
0.0233528
-0.0191664
0.0224552
-0.0199631
0.0214773
-0.0207375
0.0204037
-0.0214747
0.0192222
-0.0221733
-0.0227739
0.0179237
0.0238723
0.00834418
-0.0234781
0.0242631
0.00826942
0.0246502
0.00818799
0.0250335
0.00809981
0.0254126
0.00800468
0.0257872
0.00790233
0.0261568
0.00779249
0.0265211
0.0076749
0.0268797
0.00754925
0.0272322
0.00741525
0.027578
0.00727262
0.0279169
0.00712106
0.0282484
0.00696027
0.028572
0.00678997
0.0288875
0.00660985
0.0291943
0.0064196
0.029492
0.00621893
0.0297803
0.00600752
0.0300586
0.00578506
0.0303266
0.00555125
0.0305837
0.0053058
0.0308295
0.00504838
0.0310636
0.00477868
0.0312855
0.00449639
0.0314946
0.0042012
0.0316905
0.00389281
0.0318728
0.00357092
0.0320408
0.00323523
0.0321942
0.00288547
0.0323323
0.00252136
0.0324547
0.00214264
0.0325609
0.00174906
0.0326502
0.00134042
0.0327222
0.000916445
0.0327764
0.000477167
0.0328122
2.21434e-05
0.032829
-0.00045008
0.0328262
-0.000938908
0.0328031
-0.00144433
0.0327592
-0.00196639
0.0326939
-0.0025051
0.0326063
-0.00306044
0.032496
-0.00363231
0.032362
-0.00422055
0.0322038
-0.00482491
0.0320206
-0.00544508
0.0318116
-0.00608066
0.0315758
-0.00673113
0.0313126
-0.00739588
0.0310209
-0.00807416
0.0306997
-0.0087651
0.0303481
-0.00946765
0.029965
-0.0101806
0.0295493
-0.0109027
0.0290998
-0.0116324
0.0286156
-0.0123683
0.028096
-0.0131091
0.0275407
-0.0138537
0.0269498
-0.0146017
0.0263233
-0.0153528
0.0256605
-0.016107
0.0249586
-0.0168634
0.0242115
-0.017618
0.0234098
-0.0183647
0.0225396
-0.0190929
0.0215858
-0.0197837
0.0205374
-0.0204263
0.019386
-0.0210219
-0.0215063
0.0181183
0.0235796
0.00795088
-0.0231863
0.0239693
0.00787972
0.0243551
0.00780214
0.0247369
0.00771803
0.0251144
0.00762722
0.0254872
0.00752947
0.0258552
0.00742453
0.0262179
0.00731219
0.026575
0.00719218
0.026926
0.00706422
0.0272706
0.00692802
0.0276084
0.00678332
0.0279388
0.00662983
0.0282615
0.00646725
0.0285761
0.00629529
0.028882
0.00611364
0.029179
0.005922
0.0294664
0.00572006
0.029744
0.0055075
0.0300112
0.00528404
0.0302676
0.00504937
0.0305128
0.0048032
0.0307463
0.0045452
0.0309676
0.00427508
0.0311763
0.00399254
0.0313718
0.00369727
0.0315537
0.00338899
0.0317216
0.00306741
0.0318748
0.00273225
0.0320129
0.00238324
0.0321354
0.00202012
0.0322418
0.00164266
0.0323316
0.00125064
0.0324042
0.000843819
0.0324591
0.000422239
0.032496
-1.46987e-05
0.0325141
-0.000468192
0.0325129
-0.0009377
0.0324918
-0.00142322
0.0324502
-0.00192479
0.0323875
-0.00244243
0.0323031
-0.00297608
0.0321965
-0.00352563
0.0320668
-0.00409091
0.0319136
-0.00467165
0.031736
-0.00526752
0.0315334
-0.00587809
0.0313051
-0.00650281
0.0310503
-0.00714104
0.0307681
-0.00779201
0.0304578
-0.00845478
0.0301185
-0.00912832
0.0297493
-0.00981143
0.0293494
-0.0105028
0.0289182
-0.0112013
0.0284553
-0.0119055
0.0279607
-0.0126144
0.0274343
-0.0133273
0.0268763
-0.0140436
0.0262857
-0.0147622
0.0256602
-0.0154815
0.0249946
-0.0161978
0.024281
-0.0169043
0.0235085
-0.0175922
0.0226639
-0.0182484
0.0217358
-0.0188555
0.0207187
-0.0194092
0.0196105
-0.0199136
-0.0203195
0.0184237
0.0233045
0.007558
-0.0229117
0.0236937
0.00749054
0.0240789
0.00741694
0.0244599
0.00733709
0.0248363
0.00725078
0.0252079
0.00715783
0.0255745
0.00705797
0.0259357
0.00695099
0.0262912
0.00683666
0.0266407
0.00671475
0.0269837
0.00658498
0.02732
0.00644709
0.027649
0.00630079
0.0279704
0.00614583
0.0282838
0.00598191
0.0285887
0.00580875
0.0288846
0.00562604
0.0291712
0.00543348
0.0294479
0.00523077
0.0297144
0.0050176
0.0299701
0.00479367
0.0302146
0.00455869
0.0304474
0.00431235
0.0306682
0.00405435
0.0308763
0.0037844
0.0310714
0.0035022
0.0312529
0.00320746
0.0314204
0.00289989
0.0315734
0.00257923
0.0317115
0.00224521
0.031834
0.00189757
0.0319406
0.00153608
0.0320307
0.00116052
0.0321039
0.00077065
0.0321596
0.000366549
0.0321974
-5.25628e-05
0.0322169
-0.00048761
0.0322173
-0.000938119
0.0321982
-0.0014041
0.032159
-0.0018856
0.0320992
-0.00238263
0.0320182
-0.00289511
0.0319155
-0.00342294
0.0317905
-0.00396592
0.0316426
-0.00452378
0.0314713
-0.00509617
0.0312758
-0.00568264
0.0310557
-0.00628264
0.0308101
-0.0068955
0.0305385
-0.00752044
0.0302403
-0.00815654
0.0299148
-0.0088028
0.0295615
-0.00945814
0.0291801
-0.0101214
0.0287704
-0.0107916
0.0283325
-0.0114676
0.0278666
-0.0121485
0.0273726
-0.0128333
0.0268495
-0.0135205
0.026295
-0.0142078
0.025705
-0.0148915
0.0250726
-0.0155654
0.0243889
-0.0162206
0.0236433
-0.0168466
0.0228248
-0.0174299
0.0219262
-0.0179569
0.0209469
-0.0184299
0.0198884
-0.0188552
-0.0191901
0.0187591
0.0230477
0.00716541
-0.0226551
0.0234366
0.00710162
0.0238216
0.00703202
0.0242022
0.00695648
0.0245781
0.00687481
0.0249492
0.00678678
0.025315
0.00669216
0.0256753
0.00659072
0.0260297
0.00648224
0.0263779
0.0063665
0.0267197
0.00624324
0.0270546
0.00611221
0.0273822
0.00597316
0.0277022
0.00582581
0.0280142
0.00566991
0.0283178
0.00550518
0.0286125
0.00533134
0.0288979
0.00514808
0.0291735
0.00495513
0.029439
0.00475217
0.0296937
0.00453891
0.0299374
0.00431506
0.0301694
0.00408031
0.0303894
0.00383436
0.0305968
0.00357693
0.0307913
0.00330772
0.0309724
0.00302643
0.0311394
0.0027328
0.0312921
0.00242653
0.03143
0.00210738
0.0315525
0.00177508
0.0316592
0.0014294
0.0317496
0.00107011
0.0318232
0.000696988
0.0318797
0.000310126
0.0319185
-9.14451e-05
0.0319393
-0.000508357
0.0319414
-0.000940218
0.0319243
-0.00138706
0.0318877
-0.00184895
0.0318309
-0.00232587
0.0317536
-0.00281777
0.0316552
-0.00332451
0.0315352
-0.00384592
0.0313931
-0.00438171
0.0312285
-0.00493153
0.0310407
-0.00549493
0.0308295
-0.00607136
0.0305942
-0.00666019
0.0303344
-0.00726065
0.0300498
-0.00787193
0.0297401
-0.00849313
0.0294052
-0.0091233
0.0290453
-0.00976149
0.0286604
-0.0104067
0.0282507
-0.0110579
0.0278159
-0.0117137
0.0273552
-0.0123725
0.0268663
-0.0130316
0.0263456
-0.0136871
0.0257875
-0.0143334
0.0251845
-0.0149625
0.0245281
-0.0155642
0.0238092
-0.0161276
0.0230203
-0.0166411
0.0221593
-0.0170959
0.0212292
-0.0174998
0.0202337
-0.0178597
-0.0181395
0.019183
0.0228102
0.0067732
-0.022418
0.0231988
0.00671304
0.0235834
0.00664739
0.0239637
0.00657614
0.0243394
0.00649909
0.0247102
0.00641601
0.0250757
0.00632667
0.0254356
0.00623084
0.0257895
0.00612832
0.0261371
0.00601885
0.0264782
0.00590222
0.0268122
0.00577817
0.0271389
0.00564646
0.0274579
0.00550683
0.0277688
0.00535902
0.0280712
0.00520277
0.0283647
0.00503781
0.0286489
0.00486387
0.0289234
0.00468065
0.0291877
0.00448787
0.0294414
0.00428523
0.029684
0.00407245
0.0299151
0.00384923
0.0301341
0.00361528
0.0303408
0.00337029
0.0305345
0.00311398
0.0307149
0.00284607
0.0308814
0.00256626
0.0310337
0.00227428
0.0311712
0.00196986
0.0312935
0.00165275
0.0314002
0.00132271
0.0314908
0.000979498
0.0315649
0.000622908
0.031622
0.000253018
0.0316619
-0.000131312
0.031684
-0.000530415
0.0316877
-0.000944005
0.0316728
-0.00137215
0.0316388
-0.0018149
0.0315852
-0.00227227
0.0315116
-0.00274419
0.0314177
-0.00323056
0.0313029
-0.00373119
0.031167
-0.00424581
0.0310096
-0.0047741
0.0308303
-0.00531563
0.0306288
-0.0058699
0.030405
-0.00643633
0.0301586
-0.00701427
0.0298897
-0.00760298
0.0295982
-0.0082017
0.0292845
-0.00880957
0.0289487
-0.00942563
0.0285907
-0.0100488
0.0282103
-0.0106775
0.0278064
-0.0113099
0.0273772
-0.0119433
0.0269194
-0.0125738
0.0264284
-0.0131962
0.0258983
-0.0138033
0.0253219
-0.0143861
0.0246919
-0.0149342
0.0240023
-0.0154379
0.0232504
-0.0158892
0.0224402
-0.0162857
0.0215798
-0.0166393
0.0206752
-0.0169551
-0.017155
0.0196907
0.0225929
0.00638142
-0.0222012
0.0229811
0.00632487
0.0233653
0.00626314
0.0237454
0.00619613
0.0241208
0.00612365
0.0244913
0.00604547
0.0248566
0.00596139
0.0252163
0.00587117
0.02557
0.0057746
0.0259174
0.00567145
0.0262581
0.00556149
0.0265918
0.00544449
0.0269181
0.00532019
0.0272366
0.00518836
0.0275469
0.00504873
0.0278486
0.00490105
0.0281413
0.00474505
0.0284247
0.00458048
0.0286983
0.00440704
0.0289617
0.00422447
0.0292145
0.00403247
0.0294562
0.00383076
0.0296864
0.00361906
0.0299046
0.00339706
0.0301104
0.00316448
0.0303034
0.00292102
0.030483
0.0026664
0.030649
0.00240033
0.0308007
0.00212253
0.0309378
0.00183274
0.0310599
0.00153068
0.0311665
0.00121611
0.0312572
0.000888783
0.0313316
0.00054851
0.0313893
0.000195314
0.0314301
-0.000172078
0.0314534
-0.000553701
0.0314588
-0.000949412
0.0314459
-0.0013593
0.0314145
-0.00178344
0.0313641
-0.00222185
0.0312944
-0.0026745
0.0312051
-0.00314129
0.031096
-0.00362206
0.0309667
-0.00411659
0.0308172
-0.0046246
0.0306473
-0.00514573
0.030457
-0.00567955
0.0302462
-0.00622556
0.0300151
-0.00678318
0.0297639
-0.00735177
0.0294927
-0.00793054
0.0292017
-0.00851856
0.0288908
-0.00911469
0.0285595
-0.00971742
0.0282067
-0.0103248
0.0278309
-0.0109341
0.0274293
-0.0115417
0.0269983
-0.0121427
0.0265329
-0.0127308
0.0260276
-0.013298
0.0254764
-0.0138349
0.0248747
-0.0143324
0.0242206
-0.0147838
0.0235176
-0.0151862
0.0227757
-0.0155438
0.022006
-0.0158696
0.0212138
-0.0161629
-0.01634
0.0203987
0.0223973
0.00598974
-0.0220056
0.0227853
0.00593685
0.0231693
0.00587909
0.0235491
0.00581633
0.0239244
0.00574841
0.0242947
0.00567514
0.0246598
0.0055963
0.0250193
0.00551167
0.0253728
0.00542104
0.0257201
0.00532419
0.0260607
0.00522091
0.0263942
0.00511096
0.0267203
0.0049941
0.0270386
0.00487009
0.0273486
0.00473869
0.02765
0.00459963
0.0279424
0.00445265
0.0282254
0.00429751
0.0284985
0.00413391
0.0287614
0.0039616
0.0290136
0.00378028
0.0292546
0.00358969
0.0294842
0.00338952
0.0297017
0.0031795
0.0299069
0.00295932
0.0300992
0.0027287
0.0302783
0.00248735
0.0304436
0.00223498
0.0305949
0.00197129
0.0307316
0.00169602
0.0308534
0.0014089
0.0309598
0.00110966
0.0310505
0.000798046
0.0311252
0.000473883
0.0311834
0.000137096
0.0312249
-0.000213639
0.0312494
-0.000578129
0.0312563
-0.00095638
0.0312456
-0.00134852
0.0312167
-0.00175463
0.0311697
-0.00217477
0.0311041
-0.00260895
0.0310199
-0.00305712
0.030917
-0.00351915
0.0307954
-0.0039949
0.0306549
-0.00448413
0.0304957
-0.00498655
0.030318
-0.00550178
0.0301218
-0.00602937
0.0299073
-0.00656874
0.0296747
-0.00711919
0.029424
-0.00767984
0.029155
-0.00824954
0.0288672
-0.00882683
0.0285595
-0.0094098
0.0282307
-0.0099959
0.0278784
-0.0105818
0.0274998
-0.011163
0.027091
-0.011734
0.0266477
-0.0122876
0.0261655
-0.0128157
0.0256408
-0.0133103
0.0250732
-0.0137648
0.0244669
-0.0141775
0.0238319
-0.0145511
0.0231813
-0.0148933
0.0225197
-0.0152079
0.0218243
-0.0154675
-0.0155375
0.0210218
0.0222245
0.00559802
-0.0218328
0.0226126
0.00554877
0.0229967
0.00549497
0.0233766
0.00543649
0.0237518
0.00537316
0.0241222
0.00530481
0.0244873
0.00523121
0.0248468
0.00515218
0.0252003
0.0050675
0.0255475
0.00497697
0.0258881
0.00488037
0.0262215
0.00477747
0.0265476
0.00466806
0.0268658
0.00455189
0.0271758
0.00442872
0.0274771
0.00429831
0.0277693
0.00416039
0.0280521
0.00401471
0.028325
0.003861
0.0285877
0.00369899
0.0288395
0.00352841
0.0290803
0.00334897
0.0293094
0.00316038
0.0295265
0.00296236
0.0297312
0.00275462
0.0299231
0.00253685
0.0301017
0.00230876
0.0302666
0.00207006
0.0304174
0.00182045
0.0305538
0.00155965
0.0306753
0.00128737
0.0307817
0.00100334
0.0308724
0.000707272
0.0309473
0.000399012
0.0310061
7.83149e-05
0.0310485
-0.000256036
0.0310741
-0.000603791
0.0310828
-0.000965069
0.0310743
-0.00134003
0.0310485
-0.00172882
0.0310053
-0.00213153
0.0309446
-0.00254821
0.0308663
-0.00297886
0.0307706
-0.00342342
0.0306574
-0.00388177
0.030527
-0.00435371
0.0303794
-0.00483898
0.0302149
-0.0053372
0.0300334
-0.00584787
0.029835
-0.00637037
0.0296196
-0.00690385
0.0293871
-0.00744727
0.0291368
-0.00799924
0.0288679
-0.00855799
0.0285793
-0.00912121
0.0282693
-0.00968585
0.0279355
-0.010248
0.0275751
-0.0108027
0.0271849
-0.0113437
0.0267615
-0.0118642
0.0263032
-0.0123574
0.0258108
-0.0128178
0.0252897
-0.0132437
0.0247513
-0.0136392
0.0242108
-0.0140106
0.0236789
-0.0143615
0.0231447
-0.0146737
0.0225585
-0.0148813
-0.0148159
0.021837
0.0220768
0.00520612
-0.0216849
0.0224651
0.0051605
0.0228494
0.00511063
0.0232295
0.00505641
0.023605
0.00499767
0.0239755
0.00493423
0.0243409
0.00486589
0.0247006
0.00479246
0.0250543
0.00471375
0.0254018
0.00462954
0.0257425
0.00453963
0.0260762
0.00444382
0.0264023
0.00434187
0.0267207
0.00423356
0.0270307
0.00411865
0.0273321
0.0039969
0.0276245
0.00386807
0.0279073
0.00373189
0.0281802
0.0035881
0.0284427
0.00343644
0.0286945
0.00327662
0.0289351
0.00310838
0.0291641
0.00293141
0.029381
0.00274543
0.0295855
0.00255014
0.0297771
0.00234524
0.0299554
0.00213042
0.0301201
0.00190539
0.0302707
0.00166982
0.030407
0.00142342
0.0305284
0.00116589
0.0306349
0.000896925
0.0307259
0.000616224
0.0308013
0.000323629
0.0308609
1.86624e-05
0.0309045
-0.000299639
0.0309319
-0.000631123
0.0309428
-0.000975986
0.0309372
-0.00133444
0.030915
-0.00170667
0.0308763
-0.0020928
0.030821
-0.00249293
0.0307492
-0.00290708
0.0306611
-0.00333523
0.0305566
-0.00377727
0.0304358
-0.004233
0.030299
-0.00470213
0.0301461
-0.00518425
0.029977
-0.0056788
0.0297917
-0.00618504
0.0295898
-0.006702
0.029371
-0.00722847
0.0291346
-0.00776281
0.0288796
-0.00830299
0.0286047
-0.00884632
0.0283082
-0.00938934
0.0279879
-0.00992777
0.0276417
-0.0104564
0.0272675
-0.0109695
0.0268648
-0.0114616
0.0264363
-0.0119288
0.0259891
-0.0123706
0.0255362
-0.0127908
0.0250943
-0.0131974
0.0246762
-0.0135924
0.0242746
-0.0139599
0.0238414
-0.0142405
0.0232788
-0.0143188
-0.0140157
0.0224786
0.0219565
0.00481381
-0.0215641
0.0223452
0.00477179
0.0227299
0.00472585
0.0231105
0.00467588
0.0234864
0.00462171
0.0238575
0.00456318
0.0242233
0.00450009
0.0245835
0.00443226
0.0249377
0.0043595
0.0252857
0.00428162
0.0256269
0.00419842
0.025961
0.0041097
0.0262876
0.00401523
0.0266064
0.00391481
0.0269169
0.00380819
0.0272186
0.00369514
0.0275113
0.00357541
0.0277944
0.00344877
0.0280676
0.00331494
0.0283304
0.00317365
0.0285823
0.00302464
0.0288231
0.00286762
0.0290522
0.0027023
0.0292693
0.00252837
0.0294739
0.00234555
0.0296656
0.00215351
0.0298441
0.00195195
0.0300089
0.00174054
0.0301598
0.00151895
0.0302963
0.00128687
0.0304183
0.00104396
0.0305253
0.000789902
0.0306171
0.000524368
0.0306936
0.000247177
0.0307546
-4.23852e-05
0.0308
-0.000344979
0.0308295
-0.000660606
0.030843
-0.000989524
0.0308406
-0.00133199
0.0308221
-0.0016882
0.0307876
-0.00205834
0.0307372
-0.00244252
0.0306709
-0.00284079
0.0305888
-0.00325312
0.030491
-0.0036794
0.0303774
-0.00411943
0.0302481
-0.00457287
0.0301031
-0.00503926
0.0299423
-0.00551795
0.0297653
-0.00600811
0.029572
-0.00650864
0.0293617
-0.00701815
0.0291336
-0.00753479
0.0288869
-0.00805626
0.0286202
-0.00857959
0.028332
-0.00910114
0.0280209
-0.0096167
0.0276862
-0.0101217
0.0273291
-0.0106124
0.0269538
-0.0110863
0.0265698
-0.0115449
0.026192
-0.0119928
0.0258389
-0.0124377
0.0255239
-0.0128824
0.0252396
-0.0133081
0.0249366
-0.013657
0.024514
-0.0138178
0.0238418
-0.0136466
-0.012998
0.0228241
0.0218661
0.00442072
-0.021473
0.0222556
0.0043823
0.0226412
0.00434028
0.0230225
0.00429454
0.0233993
0.00424494
0.0237712
0.00419129
0.0241378
0.00413344
0.0244989
0.0040712
0.024854
0.00400439
0.0252028
0.00393283
0.0255449
0.00385634
0.0258799
0.00377471
0.0262074
0.00368773
0.026527
0.00359519
0.0268383
0.00349686
0.0271409
0.00339252
0.0274344
0.00328192
0.0277184
0.00316481
0.0279924
0.00304094
0.028256
0.00291004
0.0285088
0.00277183
0.0287504
0.00262603
0.0289803
0.00247235
0.0291982
0.00231048
0.0294037
0.00214011
0.0295963
0.00196093
0.0297756
0.0017726
0.0299413
0.00157479
0.0300931
0.00136715
0.0302307
0.00114934
0.0303536
0.000921008
0.0304617
0.000681793
0.0305547
0.000431361
0.0306324
0.000169468
0.0306948
-0.000104778
0.0307416
-0.000391753
0.0307726
-0.000691631
0.0307878
-0.00100473
0.0307872
-0.00133132
0.0307706
-0.00167167
0.0307383
-0.00202597
0.0306901
-0.00239436
0.0306262
-0.0027769
0.0305467
-0.00317357
0.0304515
-0.00358426
0.0303408
-0.00400873
0.0302146
-0.00444659
0.0300726
-0.00489732
0.0299149
-0.00536018
0.029741
-0.00583425
0.0295506
-0.00631826
0.0293432
-0.00681067
0.0291178
-0.00730943
0.0288736
-0.00781211
0.0286097
-0.00831569
0.0283255
-0.00881695
0.0280215
-0.00931269
0.0277005
-0.00980072
0.027369
-0.0102808
0.0270388
-0.0107561
0.0267269
-0.011233
0.0264532
-0.011719
0.0262303
-0.0122148
0.0260473
-0.0126994
0.0258494
-0.0131103
0.02553
-0.0133376
0.0249564
-0.0132441
0.0240257
-0.012716
-0.0116979
0.0227256
0.02181
0.00402635
-0.0214157
0.0222008
0.0039915
0.0225878
0.00395337
0.0229705
0.00391183
0.0233486
0.00386676
0.023722
0.00381798
0.0240901
0.00376533
0.0244526
0.00370865
0.0248092
0.00364777
0.0251595
0.00358251
0.0255032
0.00351269
0.0258398
0.00343812
0.0261689
0.00335859
0.0264902
0.00327391
0.0268032
0.00318385
0.0271075
0.00308819
0.0274028
0.00298669
0.0276885
0.00287911
0.0279642
0.00276519
0.0282296
0.00264467
0.0284841
0.00251729
0.0287274
0.00238275
0.028959
0.00224075
0.0291785
0.002091
0.0293854
0.00193318
0.0295794
0.00176695
0.02976
0.00159197
0.0299269
0.0014079
0.0300797
0.00121437
0.030218
0.00101102
0.0303416
0.000797465
0.03045
0.000573319
0.0305432
0.000338234
0.0306208
9.18493e-05
0.0306828
-0.000166782
0.0307289
-0.000437876
0.030759
-0.000721761
0.0307731
-0.0010188
0.0307711
-0.00132932
0.0307531
-0.00165362
0.030719
-0.00199192
0.0306691
-0.00234439
0.0306033
-0.00271111
0.0305217
-0.00309204
0.0304245
-0.00348706
0.0303117
-0.00389589
0.0301832
-0.0043181
0.030039
-0.00475308
0.0298788
-0.0052
0.0297023
-0.0056578
0.0295092
-0.00612509
0.0292987
-0.00660021
0.0290703
-0.00708103
0.0288236
-0.00756539
0.0285588
-0.00805092
0.0282779
-0.00853599
0.0279853
-0.00902009
0.02769
-0.00950549
0.0274063
-0.00999708
0.0271532
-0.010503
0.0269502
-0.01103
0.0268066
-0.0115753
0.0267034
-0.0121116
0.0265747
-0.0125707
0.0263049
-0.0128404
0.0257596
-0.0127923
0.0248454
-0.0123299
0.0235505
-0.0114211
-0.0100901
0.0219426
0.0217947
0.00362996
-0.0213983
0.0221875
0.00359861
0.0225766
0.00356429
0.0229616
0.00352689
0.023342
0.00348628
0.0237177
0.0034423
0.0240883
0.0033948
0.0244533
0.00334362
0.0248125
0.0032886
0.0251654
0.00322959
0.0255117
0.0031664
0.0258509
0.00309885
0.0261828
0.00302676
0.0265068
0.00294992
0.0268225
0.00286814
0.0271295
0.00278119
0.0274273
0.00268885
0.0277155
0.00259089
0.0279937
0.00248704
0.0282613
0.00237705