/*--------------------------------*- C++ -*----------------------------------*\
| =========                 |                                                 |
| \\      /  F ield         | OpenFOAM: The Open Source CFD Toolbox           |
|  \\    /   O peration     | Version:  2312                                  |
|   \\  /    A nd           | Website:  www.openfoam.com                      |
|    \\/     M anipulation  |                                                 |
\*---------------------------------------------------------------------------*/
FoamFile
{
    version     2.0;
    format      ascii;
    arch        "LSB;label=32;scalar=64";
    class       volVectorField;
    location    "1300";
    object      U;
}
// * * * * * * * * * * * * * * * * * * * * * * * * * * * * * * * * * * * * * //

dimensions      [0 1 -1 0 0 0 0];

internalField   nonuniform List<vector> 
76025
(
(0.936068 -0.126688 0)
(0.939986 -0.12828 1.20632e-20)
(0.944002 -0.129787 0)
(0.948063 -0.131197 0)
(0.952105 -0.132497 -1.99706e-20)
(0.956268 -0.133606 -3.5886e-20)
(0.960412 -0.13471 6.04457e-20)
(0.964645 -0.135586 -2.50685e-20)
(0.968815 -0.136429 -7.23666e-21)
(0.97303 -0.137115 6.56087e-21)
(0.977213 -0.137684 2.1109e-22)
(0.981439 -0.138083 1.48473e-20)
(0.985686 -0.138416 -2.00351e-20)
(0.989929 -0.138546 0)
(0.994229 -0.138502 3.23674e-21)
(0.998447 -0.138474 0)
(1.0027 -0.138137 0)
(1.00693 -0.137834 0)
(1.01114 -0.137296 1.18231e-21)
(1.01526 -0.136781 -5.05432e-23)
(1.01936 -0.136006 5.72423e-22)
(1.0235 -0.135143 3.04695e-21)
(1.02755 -0.134087 -2.4278e-21)
(1.03155 -0.132894 -7.14095e-21)
(1.03548 -0.131655 -1.11204e-21)
(1.03934 -0.130336 -4.67157e-21)
(1.04319 -0.128696 1.17427e-20)
(1.04688 -0.127052 -1.21619e-20)
(1.05051 -0.125243 4.48154e-21)
(1.05411 -0.123123 -4.95383e-21)
(1.05745 -0.121341 -5.57632e-21)
(1.06056 -0.119477 1.34174e-20)
(1.06358 -0.117216 -2.06803e-20)
(1.06645 -0.115041 -3.8933e-21)
(1.06921 -0.112631 2.00407e-20)
(1.07176 -0.110318 1.89945e-22)
(1.0742 -0.107976 -4.0646e-21)
(1.07643 -0.105509 2.31039e-21)
(1.07838 -0.103104 2.38735e-22)
(1.08012 -0.100575 -3.30117e-21)
(1.08164 -0.0981273 2.21598e-21)
(1.08302 -0.0957601 -1.05103e-21)
(1.08405 -0.0932766 2.07467e-21)
(1.08476 -0.0908495 -4.10524e-21)
(1.08525 -0.0884327 -4.22927e-21)
(1.08556 -0.0862019 7.61641e-21)
(1.08554 -0.08405 7.9093e-21)
(1.08514 -0.0819113 -2.35752e-20)
(1.08454 -0.0799203 1.37799e-20)
(1.08376 -0.0781568 -1.21966e-21)
(1.08271 -0.0765788 -3.27287e-20)
(1.08134 -0.0752513 -1.11428e-20)
(1.07959 -0.0742235 1.17196e-20)
(1.07747 -0.0734836 0)
(1.0749 -0.0729472 -7.47998e-21)
(1.07208 -0.0727321 -7.58033e-21)
(1.06883 -0.0729779 -3.35579e-23)
(1.06511 -0.0736861 -4.31617e-21)
(1.06101 -0.075082 5.55998e-22)
(1.05628 -0.0773098 1.82483e-21)
(1.05077 -0.0802818 4.04898e-21)
(1.04452 -0.0840167 -2.55054e-21)
(1.03758 -0.0887051 0)
(1.03022 -0.0947008 -5.46931e-20)
(1.02216 -0.102172 2.95879e-20)
(1.01453 -0.110812 -1.50376e-20)
(1.00792 -0.122976 4.04414e-20)
(1.00089 -0.138297 -4.50137e-20)
(0.990938 -0.154433 -1.04734e-19)
(0.933428 -0.134007 1.31678e-20)
(0.937604 -0.135654 3.60824e-20)
(0.941838 -0.137189 -4.81906e-20)
(0.94613 -0.138596 0)
(0.950439 -0.139904 4.99065e-20)
(0.954848 -0.141063 -2.73078e-21)
(0.959256 -0.142105 -3.65641e-20)
(0.963698 -0.143012 0)
(0.968165 -0.143784 1.46644e-22)
(0.972638 -0.144431 -6.72689e-21)
(0.977124 -0.144941 6.03633e-21)
(0.981606 -0.145306 2.59069e-22)
(0.986069 -0.145543 0)
(0.990531 -0.145638 0)
(0.995006 -0.145555 5.01396e-21)
(0.999441 -0.145374 -1.35412e-20)
(1.00389 -0.145008 -1.55854e-21)
(1.0083 -0.144542 2.46734e-21)
(1.01269 -0.143896 -1.5993e-21)
(1.01701 -0.143158 5.16737e-23)
(1.02132 -0.142256 1.76392e-21)
(1.02555 -0.141221 -2.35417e-21)
(1.02972 -0.14004 4.88884e-21)
(1.03381 -0.138715 -8.58231e-21)
(1.03784 -0.137256 6.1565e-21)
(1.04181 -0.135688 1.22313e-20)
(1.04569 -0.133969 -8.62464e-21)
(1.04945 -0.13214 0)
(1.05311 -0.130192 0)
(1.05666 -0.128125 -6.83654e-21)
(1.06005 -0.126001 0)
(1.06332 -0.123764 -7.9922e-21)
(1.06641 -0.1214 8.23617e-21)
(1.06932 -0.118936 -1.28728e-20)
(1.07209 -0.116382 5.1618e-22)
(1.07469 -0.113751 -4.53388e-21)
(1.07713 -0.111077 0)
(1.07933 -0.108434 -1.0017e-20)
(1.08127 -0.105745 7.62616e-21)
(1.08301 -0.103027 -6.18993e-21)
(1.08454 -0.100295 3.7619e-21)
(1.08585 -0.0975647 -2.38123e-24)
(1.08688 -0.0949163 1.31895e-21)
(1.08762 -0.0922446 -1.22398e-21)
(1.08814 -0.0896242 9.85253e-21)
(1.08842 -0.0870589 -4.90546e-21)
(1.08842 -0.0846257 -5.04425e-21)
(1.08809 -0.0822554 8.33996e-21)
(1.08751 -0.0799855 2.51284e-20)
(1.08666 -0.0778708 -5.89451e-22)
(1.0855 -0.0759519 2.22007e-20)
(1.08399 -0.0742653 -6.73815e-21)
(1.08209 -0.0728237 -1.75929e-20)
(1.07977 -0.071627 1.20929e-20)
(1.07702 -0.0707188 0)
(1.07384 -0.0701206 2.49211e-20)
(1.07021 -0.0699586 -1.69126e-21)
(1.06605 -0.0702519 -5.88588e-21)
(1.06136 -0.0711038 -3.87821e-21)
(1.05604 -0.0726631 0)
(1.04997 -0.0749771 -1.43195e-21)
(1.04314 -0.0781663 -1.18645e-20)
(1.03555 -0.0822039 0)
(1.02743 -0.0874314 2.05207e-20)
(1.01897 -0.0941736 -1.21618e-20)
(1.01085 -0.102679 3.22145e-20)
(1.00311 -0.113668 -1.74993e-20)
(0.995852 -0.126933 4.60943e-20)
(0.987226 -0.141598 5.25185e-20)
(0.930619 -0.141735 -6.58179e-20)
(0.935062 -0.143415 3.9704e-20)
(0.939555 -0.144981 -1.20008e-20)
(0.944099 -0.146409 4.33349e-20)
(0.948687 -0.147707 -5.34865e-20)
(0.953325 -0.148872 -3.7042e-20)
(0.958003 -0.149895 4.56492e-20)
(0.962715 -0.150776 0)
(0.967458 -0.151511 1.99884e-22)
(0.972214 -0.152102 0)
(0.976976 -0.152547 -5.62637e-21)
(0.981735 -0.152843 5.17107e-21)
(0.986482 -0.152989 1.97227e-20)
(0.99121 -0.152986 -1.56109e-20)
(0.995921 -0.152826 2.99848e-21)
(1.00061 -0.152511 5.69573e-21)
(1.00528 -0.152044 -1.82688e-21)
(1.00991 -0.151421 -8.80409e-22)
(1.0145 -0.150648 1.30167e-21)
(1.01905 -0.149719 -8.88729e-22)
(1.02354 -0.148645 -1.85647e-21)
(1.02795 -0.147423 5.04378e-21)
(1.03228 -0.146054 -1.79419e-21)
(1.03654 -0.144533 -3.95483e-21)
(1.04071 -0.142868 0)
(1.04479 -0.141067 5.31406e-21)
(1.04876 -0.139139 5.63622e-21)
(1.05261 -0.137076 -5.0527e-21)
(1.05635 -0.134884 0)
(1.05997 -0.132577 1.48254e-20)
(1.06345 -0.130149 -8.5248e-21)
(1.06678 -0.127614 -1.04995e-21)
(1.06993 -0.124978 0)
(1.07291 -0.122227 4.58697e-21)
(1.07573 -0.119383 -1.52996e-20)
(1.07835 -0.116441 1.05815e-20)
(1.08077 -0.113498 0)
(1.08296 -0.110548 8.2784e-21)
(1.08492 -0.107556 -8.50743e-21)
(1.08666 -0.104538 -1.33924e-21)
(1.08816 -0.101508 0)
(1.08943 -0.0984938 -2.81213e-21)
(1.09043 -0.095511 -1.39157e-21)
(1.09117 -0.0925337 1.21983e-21)
(1.09164 -0.0895961 -7.83422e-21)
(1.09185 -0.0867244 -5.56664e-21)
(1.09176 -0.0839499 9.75132e-21)
(1.09137 -0.0812581 -9.79565e-21)
(1.09067 -0.0786701 1.00219e-20)
(1.08967 -0.0762279 -9.26194e-21)
(1.08832 -0.0739641 -8.11638e-21)
(1.08659 -0.0719038 1.71969e-20)
(1.08445 -0.0700629 0)
(1.08187 -0.0684631 1.46141e-20)
(1.07883 -0.067132 1.7793e-21)
(1.07529 -0.0661142 -9.8561e-21)
(1.07124 -0.0654834 -7.83325e-21)
(1.06662 -0.0652964 1.35968e-20)
(1.06138 -0.0656396 -1.8505e-21)
(1.05547 -0.066618 3.52883e-21)
(1.04879 -0.0682927 -2.19587e-21)
(1.04131 -0.0707415 -8.37251e-22)
(1.03315 -0.0741286 -3.00527e-21)
(1.02451 -0.0786887 6.76139e-21)
(1.01568 -0.0847404 1.10753e-20)
(1.00716 -0.092537 4.07239e-20)
(0.998719 -0.102616 0)
(0.990419 -0.114815 2.37604e-20)
(0.980121 -0.128917 -2.26252e-20)
(0.92764 -0.149929 0)
(0.932396 -0.151634 1.30301e-20)
(0.937202 -0.153222 5.95409e-20)
(0.942043 -0.154662 -4.70569e-20)
(0.946922 -0.155956 -2.9988e-20)
(0.951843 -0.157107 4.99588e-20)
(0.956802 -0.158107 -8.92146e-21)
(0.961794 -0.158953 7.91052e-21)
(0.966812 -0.159642 7.30774e-21)
(0.971847 -0.160174 2.39103e-20)
(0.976892 -0.160547 -2.34947e-20)
(0.981938 -0.160759 -1.74101e-20)
(0.986976 -0.160807 6.1223e-21)
(0.991997 -0.160693 1.25849e-20)
(0.996992 -0.160414 -7.5807e-21)
(1.00196 -0.159968 1.28103e-21)
(1.00688 -0.15936 -4.83779e-22)
(1.01176 -0.158587 3.05817e-22)
(1.01658 -0.157651 -2.64108e-21)
(1.02135 -0.156553 3.62144e-22)
(1.02605 -0.155295 1.88131e-21)
(1.03066 -0.153876 0)
(1.0352 -0.152298 8.91774e-21)
(1.03964 -0.150564 -4.11552e-21)
(1.04398 -0.14868 -1.09184e-20)
(1.04821 -0.146651 -1.30194e-20)
(1.05233 -0.14448 2.54184e-20)
(1.05632 -0.142168 -1.44143e-20)
(1.06017 -0.139723 0)
(1.06388 -0.13715 -1.70429e-20)
(1.06744 -0.134457 -7.97098e-22)
(1.07083 -0.131653 1.86903e-20)
(1.07404 -0.12874 -1.05978e-20)
(1.07708 -0.125721 2.76715e-20)
(1.07992 -0.122606 -5.21086e-21)
(1.08256 -0.119397 0)
(1.08499 -0.116178 0)
(1.08719 -0.112926 3.27646e-21)
(1.08916 -0.109636 2.98264e-21)
(1.0909 -0.10632 1.6553e-21)
(1.09239 -0.102993 -5.1707e-23)
(1.09363 -0.099669 1.49186e-21)
(1.0946 -0.0963599 0)
(1.0953 -0.0930721 -3.0691e-22)
(1.09572 -0.0898234 0)
(1.09585 -0.0866318 5.27117e-21)
(1.09568 -0.0835138 -8.97895e-23)
(1.09519 -0.0804791 -1.74369e-20)
(1.09437 -0.0775454 0)
(1.09321 -0.0747402 -1.01188e-20)
(1.09167 -0.0720883 1.00016e-20)
(1.08973 -0.069614 -1.74148e-20)
(1.08735 -0.0673382 0)
(1.08451 -0.0652869 -4.69951e-20)
(1.08117 -0.0634897 1.70181e-21)
(1.0773 -0.0619899 1.36589e-20)
(1.07287 -0.0608406 1.17215e-20)
(1.06782 -0.0601027 0)
(1.06211 -0.0598427 0)
(1.05567 -0.0601468 -3.57556e-21)
(1.04846 -0.0610933 2.22333e-21)
(1.0405 -0.0627997 -3.10983e-21)
(1.03193 -0.0654329 0)
(1.02298 -0.0692076 1.09634e-20)
(1.0139 -0.0744452 0)
(1.00497 -0.081369 -4.28463e-20)
(0.995616 -0.0903276 1.46041e-20)
(0.985789 -0.101315 2.2125e-20)
(0.973698 -0.114056 2.33242e-20)
(0.924519 -0.158661 0)
(0.929593 -0.160388 0)
(0.934726 -0.161989 1.24387e-20)
(0.939897 -0.163433 -4.44319e-20)
(0.945104 -0.164721 5.47459e-20)
(0.950346 -0.165853 -9.77566e-21)
(0.955617 -0.166825 0)
(0.960911 -0.167631 -8.02884e-21)
(0.966224 -0.168267 0)
(0.971552 -0.168733 -1.14607e-20)
(0.97689 -0.169028 2.08428e-21)
(0.982229 -0.169148 9.68482e-21)
(0.98756 -0.169093 0)
(0.992873 -0.168863 -4.55988e-21)
(0.998158 -0.168456 1.10964e-20)
(1.00341 -0.167872 -4.67811e-21)
(1.00861 -0.167112 1.24594e-21)
(1.01376 -0.166177 1.37172e-22)
(1.01884 -0.165067 -1.83722e-21)
(1.02386 -0.163784 1.88608e-21)
(1.02879 -0.162328 3.38995e-21)
(1.03364 -0.160701 -1.1167e-20)
(1.03839 -0.158908 -9.26247e-21)
(1.04303 -0.156951 0)
(1.04756 -0.154833 1.29589e-20)
(1.05198 -0.15256 7.79397e-21)
(1.05625 -0.150135 -2.15753e-20)
(1.06039 -0.147563 7.78746e-21)
(1.06438 -0.144852 -1.86365e-20)
(1.06821 -0.142006 2.79006e-20)
(1.07187 -0.139033 -1.10086e-20)
(1.07535 -0.135938 5.84518e-21)
(1.07864 -0.132727 0)
(1.08174 -0.129409 -5.84376e-21)
(1.08463 -0.125989 -6.14138e-21)
(1.08731 -0.122467 0)
(1.08977 -0.118928 7.22242e-21)
(1.09199 -0.11535 -1.03041e-20)
(1.09397 -0.111734 6.90558e-21)
(1.0957 -0.108091 -3.50957e-21)
(1.09717 -0.104434 -6.28434e-23)
(1.09838 -0.100774 -2.70607e-21)
(1.09931 -0.0971232 8.62303e-22)
(1.09995 -0.0934938 3.26019e-21)
(1.1003 -0.0898978 3.72812e-22)
(1.10034 -0.0863497 1.98737e-20)
(1.10007 -0.082865 0)
(1.09945 -0.0794586 1.19238e-20)
(1.09849 -0.0761462 -8.44312e-22)
(1.09715 -0.072948 -1.18207e-20)
(1.09542 -0.0698846 0)
(1.09326 -0.0669782 -1.02808e-20)
(1.09065 -0.0642498 1.01694e-20)
(1.08755 -0.0617242 1.72274e-20)
(1.08393 -0.0594297 0)
(1.07976 -0.0574038 -2.83109e-20)
(1.07498 -0.0556918 2.65368e-20)
(1.06956 -0.0543469 -2.25409e-20)
(1.06344 -0.0534292 -2.55349e-22)
(1.05658 -0.0530162 0)
(1.04898 -0.0531986 -2.93968e-21)
(1.0407 -0.0541072 1.59977e-22)
(1.03193 -0.0559177 -2.38466e-22)
(1.02281 -0.0588291 -1.09943e-20)
(1.01353 -0.0631335 2.21046e-20)
(1.004 -0.0689836 -2.20367e-20)
(0.993487 -0.0766542 1.25328e-20)
(0.981803 -0.0863062 -1.31622e-20)
(0.967547 -0.0973257 -6.48628e-20)
(0.921332 -0.168 -5.62375e-20)
(0.926703 -0.169745 3.59359e-21)
(0.932152 -0.171353 5.23783e-20)
(0.937652 -0.172795 0)
(0.943197 -0.174069 -1.07408e-20)
(0.948782 -0.175177 0)
(0.954395 -0.176113 1.65836e-20)
(0.960027 -0.176872 -1.8369e-21)
(0.965672 -0.177447 -2.12595e-20)
(0.971324 -0.17784 5.68988e-21)
(0.976978 -0.178047 5.15469e-21)
(0.982627 -0.178067 3.76843e-21)
(0.988262 -0.177899 0)
(0.993877 -0.177542 0)
(0.99946 -0.176997 -1.57722e-21)
(1.005 -0.176262 -7.04049e-22)
(1.0105 -0.175336 -1.87219e-21)
(1.01593 -0.174223 1.87078e-21)
(1.02129 -0.172923 4.53871e-21)
(1.02658 -0.171437 -7.04453e-21)
(1.03177 -0.169768 1.48715e-20)
(1.03687 -0.167916 6.95985e-22)
(1.04186 -0.165887 -1.13898e-20)
(1.04672 -0.163686 -6.96707e-21)
(1.05147 -0.161313 -1.51953e-20)
(1.05607 -0.158774 1.52506e-20)
(1.06053 -0.156073 1.82772e-20)
(1.06483 -0.153217 -1.83671e-20)
(1.06897 -0.150212 0)
(1.07293 -0.147065 0)
(1.07671 -0.143783 2.93742e-20)
(1.0803 -0.140372 1.26918e-21)
(1.08369 -0.136841 -1.28412e-20)
(1.08686 -0.133198 -1.40452e-20)
(1.08982 -0.129448 1.41957e-20)
(1.09255 -0.125593 0)
(1.09503 -0.12172 -7.26756e-21)
(1.09727 -0.117803 -1.18273e-20)
(1.09925 -0.113847 7.67239e-21)
(1.10097 -0.109861 -1.87257e-22)
(1.10242 -0.105858 -6.04783e-22)
(1.10359 -0.101847 2.80975e-21)
(1.10446 -0.0978419 2.01776e-21)
(1.10504 -0.0938533 3.79781e-21)
(1.10531 -0.0898929 -1.83735e-20)
(1.10525 -0.0859742 3.63662e-22)
(1.10486 -0.0821108 0)
(1.10412 -0.0783163 -1.47809e-20)
(1.10301 -0.0746045 4.07234e-20)
(1.10151 -0.0709919 -2.71479e-20)
(1.0996 -0.0674956 -1.23515e-20)
(1.09725 -0.0641347 -4.99781e-22)
(1.09443 -0.0609283 -9.99179e-21)
(1.09111 -0.057899 1.28901e-21)
(1.08725 -0.055072 2.03068e-20)
(1.08281 -0.0524793 -1.93448e-20)
(1.07775 -0.0501587 -1.50947e-20)
(1.07203 -0.0481557 2.7901e-20)
(1.0656 -0.0465272 -2.28978e-21)
(1.05845 -0.0453501 8.18799e-21)
(1.05064 -0.0447226 -8.07074e-21)
(1.04226 -0.0447839 2.84624e-21)
(1.03344 -0.0456938 1.39893e-22)
(1.02425 -0.0476292 3.53937e-21)
(1.01466 -0.0508369 -9.25199e-21)
(1.00429 -0.055399 7.09436e-21)
(0.992326 -0.0615652 3.45069e-20)
(0.978553 -0.0696465 2.00626e-20)
(0.961908 -0.07856 0)
(0.91815 -0.177994 0)
(0.92382 -0.179753 -1.38901e-20)
(0.929578 -0.181363 -4.1226e-23)
(0.935398 -0.182796 0)
(0.941276 -0.184048 0)
(0.947204 -0.185122 -9.5612e-21)
(0.953169 -0.186012 2.47836e-20)
(0.959157 -0.18671 -3.0436e-20)
(0.965155 -0.187214 1.45446e-20)
(0.971158 -0.187521 -5.77534e-21)
(0.977158 -0.187629 0)
(0.983146 -0.187538 -3.82387e-21)
(0.989116 -0.187245 2.2621e-21)
(0.995058 -0.186748 0)
(1.00096 -0.186049 0)
(1.00682 -0.185147 8.68319e-22)
(1.01261 -0.184043 1.88718e-21)
(1.01834 -0.182736 -3.47473e-21)
(1.024 -0.181229 -6.2711e-21)
(1.02956 -0.179523 7.17548e-21)
(1.03503 -0.177622 4.47624e-21)
(1.04039 -0.175527 2.4271e-20)
(1.04562 -0.173241 9.33634e-22)
(1.05073 -0.17077 -8.93579e-21)
(1.05569 -0.168118 1.60162e-20)
(1.06051 -0.165289 -9.39147e-21)
(1.06516 -0.162291 1.93826e-20)
(1.06964 -0.159129 0)
(1.07394 -0.15581 0)
(1.07805 -0.152341 0)
(1.08196 -0.14873 -6.27224e-21)
(1.08566 -0.144986 -1.35295e-20)
(1.08914 -0.141115 1.4394e-20)
(1.0924 -0.137129 1.56674e-20)
(1.09542 -0.133029 -1.58289e-20)
(1.0982 -0.128828 0)
(1.10072 -0.124602 8.5523e-21)
(1.10297 -0.120328 -4.36511e-21)
(1.10496 -0.116011 0)
(1.10666 -0.111661 4.31332e-21)
(1.10809 -0.10729 -7.96885e-22)
(1.10921 -0.102908 5.33224e-22)
(1.11004 -0.0985264 -2.03307e-21)
(1.11055 -0.0941576 0)
(1.11073 -0.0898122 -8.2997e-21)
(1.11058 -0.0855021 8.20008e-21)
(1.11008 -0.0812389 0)
(1.10922 -0.0770345 -6.08648e-22)
(1.10798 -0.0729013 8.64268e-22)
(1.10633 -0.0688526 1.39895e-20)
(1.10426 -0.0649025 0)
(1.10175 -0.0610661 -1.52446e-21)
(1.09875 -0.0573596 -1.21665e-20)
(1.09525 -0.0538011 -3.65662e-20)
(1.09119 -0.0504114 -9.21456e-22)
(1.08655 -0.0472159 1.95133e-20)
(1.08129 -0.0442466 0)
(1.07536 -0.0415441 0)
(1.06877 -0.039166 1.63487e-20)
(1.06153 -0.0371891 0)
(1.05371 -0.0357122 0)
(1.04541 -0.0348665 -3.04835e-21)
(1.03664 -0.0347808 -5.46415e-21)
(1.02732 -0.035606 -2.18256e-21)
(1.01722 -0.03753 -9.21682e-22)
(1.00573 -0.0405837 -6.49792e-21)
(0.992097 -0.0450341 -9.97689e-21)
(0.976114 -0.0513374 -1.05739e-20)
(0.957205 -0.0579491 0)
(0.914971 -0.188706 0)
(0.920981 -0.190477 1.41104e-20)
(0.927073 -0.192086 -3.79031e-20)
(0.933227 -0.193502 1.29761e-20)
(0.939439 -0.194724 0)
(0.945709 -0.195754 2.78159e-20)
(0.952023 -0.196586 -4.25161e-20)
(0.958367 -0.197212 2.12683e-21)
(0.964728 -0.197631 3.15635e-20)
(0.971096 -0.19784 -6.51733e-21)
(0.977462 -0.197837 3.80135e-21)
(0.983814 -0.19762 2.70174e-21)
(0.99014 -0.197188 -5.20354e-21)
(0.996432 -0.196536 3.72941e-21)
(1.00268 -0.195667 -8.23997e-22)
(1.00887 -0.19458 -2.5359e-21)
(1.01499 -0.193275 8.54329e-21)
(1.02104 -0.191755 -1.62813e-21)
(1.027 -0.19002 5.56622e-21)
(1.03285 -0.188073 -3.72236e-21)
(1.0386 -0.185916 1.89917e-21)
(1.04423 -0.183555 -4.20317e-20)
(1.04972 -0.18099 -9.18639e-21)
(1.05507 -0.178229 -1.78197e-21)
(1.06027 -0.175275 2.90691e-20)
(1.0653 -0.172136 -1.00068e-20)
(1.07015 -0.168817 2.38359e-20)
(1.07482 -0.165326 -3.70802e-20)
(1.07929 -0.16167 0)
(1.08356 -0.157857 -1.43937e-20)
(1.0876 -0.153895 1.44889e-20)
(1.09143 -0.149793 8.10319e-22)
(1.09501 -0.145559 -8.63943e-21)
(1.09835 -0.141206 -9.02506e-21)
(1.10144 -0.136733 2.7535e-20)
(1.10427 -0.13216 -1.82355e-20)
(1.10683 -0.127557 1.43652e-20)
(1.1091 -0.122902 -1.88496e-20)
(1.11109 -0.118202 9.39589e-21)
(1.11279 -0.113466 -2.27155e-21)
(1.11419 -0.108706 0)
(1.11527 -0.103934 2.3745e-21)
(1.11604 -0.0991597 -2.34537e-21)
(1.11649 -0.0943943 -4.66064e-21)
(1.1166 -0.089648 1.37969e-20)
(1.11636 -0.0849308 -9.5661e-21)
(1.11576 -0.0802528 -8.92992e-21)
(1.11479 -0.0756241 0)
(1.11344 -0.0710544 -3.46379e-20)
(1.11167 -0.0665543 3.28642e-20)
(1.10948 -0.062134 -1.49705e-20)
(1.10684 -0.0578048 1.49572e-20)
(1.10371 -0.053578 1.60134e-20)
(1.10008 -0.0494672 2.71687e-20)
(1.09589 -0.0454876 2.44521e-20)
(1.09113 -0.0416598 0)
(1.08577 -0.0380117 -2.40777e-20)
(1.07979 -0.0345819 0)
(1.07322 -0.0314275 5.06109e-22)
(1.06609 -0.0286193 -1.36189e-20)
(1.05845 -0.0262462 1.40769e-20)
(1.05031 -0.0244154 8.57981e-21)
(1.04157 -0.0232173 -9.19084e-21)
(1.03196 -0.0227737 -1.31161e-22)
(1.02109 -0.0232132 3.16344e-21)
(1.00826 -0.0245476 -7.14956e-21)
(0.992845 -0.027088 -3.13785e-21)
(0.97472 -0.0313868 -1.08191e-20)
(0.953715 -0.0353781 1.08053e-20)
(0.911745 -0.200201 0)
(0.918142 -0.201983 0)
(0.924616 -0.203587 -2.49618e-20)
(0.931145 -0.204984 3.67124e-20)
(0.937728 -0.206171 1.04802e-20)
(0.944363 -0.20715 0)
(0.95104 -0.207916 0)
(0.95775 -0.208461 -6.79039e-21)
(0.964478 -0.208782 1.05882e-20)
(0.971214 -0.208878 -2.84772e-21)
(0.977949 -0.208747 -1.80351e-20)
(0.984672 -0.208384 3.20932e-21)
(0.991368 -0.207791 -5.73225e-22)
(0.998026 -0.206964 1.43451e-21)
(1.00463 -0.205904 1.41779e-21)
(1.01118 -0.204611 0)
(1.01765 -0.203085 0)
(1.02403 -0.201328 9.8527e-22)
(1.03031 -0.199343 -1.52208e-20)
(1.03648 -0.197132 5.71712e-21)
(1.04253 -0.194697 -7.93591e-21)
(1.04844 -0.192044 7.69299e-21)
(1.05421 -0.189176 9.53663e-21)
(1.05982 -0.1861 -8.56622e-21)
(1.06526 -0.182821 -1.05449e-20)
(1.07051 -0.179345 0)
(1.07558 -0.17568 0)
(1.08044 -0.171834 2.06649e-20)
(1.08509 -0.167814 0)
(1.08952 -0.16363 1.61299e-20)
(1.09371 -0.15929 -1.62302e-20)
(1.09765 -0.154804 -8.30158e-21)
(1.10134 -0.150181 8.69624e-21)
(1.10478 -0.145434 1.90906e-20)
(1.10794 -0.140564 -9.45408e-21)
(1.11082 -0.135596 -1.03296e-20)
(1.11341 -0.130593 1.06801e-20)
(1.1157 -0.125537 0)
(1.1177 -0.120432 0)
(1.11939 -0.115292 2.74465e-21)
(1.12076 -0.110126 0)
(1.12181 -0.104946 0)
(1.12253 -0.0997616 -7.91227e-21)
(1.12292 -0.0945834 1.05215e-20)
(1.12296 -0.0894202 -5.32833e-21)
(1.12265 -0.0842808 9.57554e-21)
(1.12197 -0.0791736 0)
(1.12092 -0.0741064 2.92933e-20)
(1.11948 -0.0690865 -9.94225e-22)
(1.11762 -0.0641207 0)
(1.11535 -0.0592157 -3.5564e-20)
(1.11262 -0.0543781 -1.21123e-21)
(1.10942 -0.0496143 -3.21954e-20)
(1.10572 -0.0449331 -1.65965e-20)
(1.1015 -0.0403452 -2.88867e-20)
(1.09673 -0.0358677 2.85061e-20)
(1.09142 -0.0315253 2.40838e-20)
(1.08558 -0.0273536 0)
(1.07922 -0.0234023 -2.03622e-20)
(1.07237 -0.0197273 2.76916e-21)
(1.065 -0.0163964 0)
(1.05701 -0.0134806 0)
(1.04815 -0.0110342 9.10072e-21)
(1.03803 -0.00914984 0)
(1.02615 -0.00791082 0)
(1.01183 -0.0073436 -3.98073e-21)
(0.994672 -0.00782398 3.98734e-21)
(0.974758 -0.00986433 1.84894e-21)
(0.952157 -0.0113466 0)
(0.908433 -0.21252 0)
(0.915266 -0.214311 0)
(0.922172 -0.21591 0)
(0.929127 -0.217285 1.16379e-20)
(0.936128 -0.218433 9.10854e-21)
(0.943175 -0.219356 -2.45764e-21)
(0.950256 -0.220049 -1.70262e-20)
(0.957359 -0.220502 6.86967e-21)
(0.964479 -0.220713 -5.05111e-21)
(0.971604 -0.220681 -8.20632e-21)
(0.978722 -0.220404 0)
(0.985824 -0.21988 0)
(0.992898 -0.219108 -1.12985e-21)
(0.999931 -0.218086 1.45458e-21)
(1.00691 -0.216814 -8.81872e-21)
(1.01382 -0.215293 -2.32722e-21)
(1.02065 -0.213524 7.258e-21)
(1.02738 -0.211508 4.79145e-21)
(1.034 -0.209249 -1.23759e-21)
(1.0405 -0.20675 0)
(1.04687 -0.204013 1.73837e-20)
(1.05308 -0.201043 0)
(1.05914 -0.197846 2.16327e-20)
(1.06502 -0.194427 -3.56958e-20)
(1.07072 -0.190794 3.83094e-20)
(1.07621 -0.186953 1.46837e-20)
(1.0815 -0.182913 -2.30955e-20)
(1.08657 -0.178682 2.40287e-20)
(1.0914 -0.174269 -1.62645e-20)
(1.09599 -0.169684 0)
(1.10033 -0.164937 -1.88923e-20)
(1.10441 -0.160039 -1.09372e-20)
(1.10821 -0.155 1.98919e-20)
(1.11173 -0.149833 -2.11355e-20)
(1.11496 -0.144538 1.10867e-20)
(1.1179 -0.139152 -1.10972e-20)
(1.12053 -0.133725 -5.42746e-21)
(1.12285 -0.128243 5.99284e-21)
(1.12485 -0.122713 2.77597e-21)
(1.12653 -0.117146 -8.46891e-21)
(1.12788 -0.111554 -7.53047e-22)
(1.1289 -0.105948 0)
(1.12958 -0.100336 2.72881e-21)
(1.12992 -0.0947297 -5.41176e-21)
(1.1299 -0.0891357 5.35172e-21)
(1.12953 -0.0835616 0)
(1.1288 -0.0780139 0)
(1.12769 -0.0724978 1.10096e-20)
(1.12619 -0.0670176 -2.09401e-20)
(1.12429 -0.0615766 -4.14542e-20)
(1.12197 -0.0561771 7.88852e-20)
(1.11922 -0.0508214 -1.99585e-20)
(1.11601 -0.0455117 1.85771e-20)
(1.11234 -0.0402528 1.66094e-20)
(1.1082 -0.0350517 -3.26884e-20)
(1.10359 -0.029922 3.21933e-20)
(1.09851 -0.0248826 0)
(1.09297 -0.0199603 -2.94314e-20)
(1.08698 -0.0151879 3.08941e-21)
(1.08048 -0.0105978 2.35445e-20)
(1.07335 -0.00622812 0)
(1.06538 -0.00211092 0)
(1.05619 0.00172869 0)
(1.04534 0.00522272 2.53936e-20)
(1.03229 0.00831444 9.23028e-21)
(1.01645 0.0109296 1.57375e-21)
(0.997737 0.0126376 -6.54086e-21)
(0.976278 0.0128701 -5.50068e-21)
(0.952882 0.0138779 2.33684e-22)
(0.905013 -0.225771 0)
(0.912316 -0.227569 2.76273e-20)
(0.919697 -0.229158 -3.38791e-20)
(0.927126 -0.230506 1.59503e-20)
(0.934597 -0.231608 -3.18967e-20)
(0.942108 -0.232466 -8.62172e-21)
(0.949647 -0.233074 -7.20739e-21)
(0.9572 -0.233424 0)
(0.964758 -0.233514 9.53763e-21)
(0.972311 -0.23334 6.39596e-21)
(0.979852 -0.232901 -5.60608e-21)
(0.987367 -0.232198 3.62215e-22)
(0.994845 -0.231228 2.16679e-21)
(1.00227 -0.229991 1.31422e-21)
(1.00964 -0.228486 -1.29705e-20)
(1.01693 -0.226714 -2.48643e-21)
(1.02413 -0.224676 -2.45455e-21)
(1.03122 -0.222375 1.20577e-20)
(1.0382 -0.219814 7.18545e-21)
(1.04504 -0.216997 1.91571e-20)
(1.05173 -0.213927 -1.76471e-20)
(1.05827 -0.21061 0)
(1.06462 -0.207052 1.61865e-21)
(1.07079 -0.20326 0)
(1.07675 -0.19924 -1.37608e-20)
(1.0825 -0.195002 -1.47893e-20)
(1.08802 -0.190554 7.89858e-21)
(1.09329 -0.185906 0)
(1.09832 -0.181068 9.84988e-21)
(1.10308 -0.17605 2.00536e-20)
(1.10757 -0.170865 -2.01616e-20)
(1.11178 -0.165523 1.0255e-20)
(1.1157 -0.160037 -2.27487e-20)
(1.11931 -0.154421 4.58363e-20)
(1.12262 -0.148673 -1.18974e-20)
(1.12561 -0.142841 0)
(1.12828 -0.136965 -6.52675e-21)
(1.13062 -0.131033 5.66859e-22)
(1.13263 -0.125053 9.35409e-21)
(1.13431 -0.119039 -7.84943e-21)
(1.13564 -0.113002 1.49674e-21)
(1.13664 -0.106951 -4.7953e-21)
(1.13728 -0.100898 3.11434e-21)
(1.13758 -0.0948487 0)
(1.13753 -0.0888119 0)
(1.13712 -0.0827927 0)
(1.13634 -0.0767953 1.24971e-20)
(1.1352 -0.0708226 1.2279e-20)
(1.13368 -0.0648756 0)
(1.13177 -0.0589542 2.26566e-20)
(1.12947 -0.0530572 2.40761e-20)
(1.12677 -0.0471832 2.22081e-20)
(1.12367 -0.0413311 0)
(1.12016 -0.0355017 0)
(1.11625 -0.0296974 -3.66088e-20)
(1.11194 -0.0239244 3.59682e-20)
(1.10724 -0.0181899 0)
(1.10213 -0.0125037 2.90386e-20)
(1.09654 -0.00687368 -2.67416e-20)
(1.09034 -0.00130477 -2.87592e-20)
(1.08332 0.00419791 2.30496e-20)
(1.07517 0.00963659 -2.25972e-20)
(1.06546 0.0150072 0)
(1.05372 0.0202599 -1.44706e-20)
(1.03946 0.0253459 1.16283e-21)
(1.02229 0.0301267 -2.78165e-20)
(1.00243 0.034179 -2.02282e-20)
(0.979885 0.0367908 1.17506e-20)
(0.956317 0.0409301 -2.38335e-22)
(0.9015 -0.240045 7.79966e-21)
(0.9093 -0.241845 0)
(0.917183 -0.243416 6.50239e-21)
(0.925119 -0.244728 -2.71479e-20)
(0.933098 -0.245775 4.49242e-20)
(0.941116 -0.246559 -9.5979e-21)
(0.949159 -0.247073 7.26238e-21)
(0.957212 -0.247309 -9.65346e-21)
(0.965261 -0.247263 5.13704e-21)
(0.973298 -0.246934 3.08226e-21)
(0.981312 -0.24632 7.64335e-22)
(0.98929 -0.245421 1.22651e-21)
(0.997219 -0.244234 4.88315e-22)
(1.00509 -0.242759 1.04864e-20)
(1.01288 -0.240998 6.27715e-21)
(1.02058 -0.238949 2.65183e-21)
(1.02818 -0.236617 -1.22686e-20)
(1.03566 -0.234003 0)
(1.04301 -0.23111 0)
(1.05021 -0.227944 -1.14309e-20)
(1.05725 -0.22451 -1.10282e-20)
(1.06412 -0.220812 -2.71898e-20)
(1.07078 -0.216859 1.3845e-20)
(1.07725 -0.212657 3.18071e-20)
(1.08349 -0.208216 -3.18479e-20)
(1.08949 -0.203545 9.31951e-21)
(1.09525 -0.198653 9.87955e-21)
(1.10075 -0.193551 0)
(1.10597 -0.188252 -9.89537e-21)
(1.11092 -0.182766 -2.22517e-20)
(1.11556 -0.177107 -8.57875e-22)
(1.1199 -0.171287 2.33499e-20)
(1.12394 -0.165321 -1.29723e-20)
(1.12764 -0.159222 0)
(1.13103 -0.15299 6.94801e-21)
(1.13408 -0.146683 -7.07931e-21)
(1.13678 -0.140329 6.52232e-21)
(1.13915 -0.13392 -1.37432e-20)
(1.14117 -0.127468 0)
(1.14284 -0.120984 -1.80266e-21)
(1.14417 -0.11448 1.72498e-21)
(1.14514 -0.107968 -2.69524e-21)
(1.14576 -0.101456 1.02407e-20)
(1.14603 -0.0949523 -2.03157e-20)
(1.14594 -0.0884618 1.33976e-20)
(1.14551 -0.0819891 1.32244e-20)
(1.14472 -0.0755364 -1.1896e-20)
(1.14358 -0.0691042 2.67023e-20)
(1.14208 -0.062691 -2.52166e-20)
(1.14023 -0.0562941 -6.06822e-20)
(1.13803 -0.0499092 1.24874e-21)
(1.13549 -0.0435314 -2.20701e-20)
(1.1326 -0.0371555 0)
(1.12939 -0.0307759 0)
(1.12584 -0.0243865 -4.05535e-20)
(1.12196 -0.0179795 5.75004e-20)
(1.11771 -0.0115449 -3.77271e-20)
(1.11301 -0.00506936 0)
(1.10774 0.0014664 3.51888e-20)
(1.1017 0.00808535 5.7982e-20)
(1.09461 0.0148137 -2.57196e-20)
(1.0861 0.0216805 1.78604e-21)
(1.07572 0.0286957 2.49161e-20)
(1.06306 0.035819 -3.86359e-21)
(1.04777 0.0429908 -3.96016e-20)
(1.0297 0.0500201 3.37536e-20)
(1.00942 0.0565534 1.25707e-20)
(0.986675 0.0616741 0)
(0.964727 0.070973 0)
(0.897941 -0.255399 -7.84927e-21)
(0.906267 -0.257194 -3.3905e-20)
(0.914681 -0.258742 2.66996e-20)
(0.923152 -0.26001 0)
(0.931668 -0.260993 4.85324e-21)
(0.940225 -0.261693 1.42499e-20)
(0.948807 -0.262102 -1.12025e-20)
(0.957396 -0.262211 1.02422e-20)
(0.965978 -0.262018 -8.03049e-21)
(0.974542 -0.26152 0)
(0.983075 -0.260715 -9.27631e-22)
(0.991564 -0.259602 0)
(0.999993 -0.25818 4.69224e-21)
(1.00835 -0.256448 -1.02414e-20)
(1.01661 -0.254407 0)
(1.02478 -0.252059 0)
(1.03282 -0.249406 0)
(1.04073 -0.24645 -1.54216e-20)
(1.04849 -0.243197 2.06483e-20)
(1.05609 -0.239652 1.14946e-20)
(1.0635 -0.235819 0)
(1.07072 -0.231707 0)
(1.07772 -0.227323 0)
(1.0845 -0.222676 -4.51051e-20)
(1.09104 -0.217775 5.50439e-20)
(1.09732 -0.212632 -2.85062e-20)
(1.10333 -0.207257 -2.0937e-20)
(1.10906 -0.201662 2.24974e-20)
(1.11449 -0.195862 -2.257e-20)
(1.11962 -0.189869 1.27049e-20)
(1.12443 -0.183698 -2.56157e-20)
(1.12891 -0.177362 1.19931e-20)
(1.13306 -0.170878 2.72342e-20)
(1.13686 -0.16426 1.4741e-20)
(1.14033 -0.15751 -6.94319e-21)
(1.14343 -0.150696 7.05602e-21)
(1.14617 -0.143833 0)
(1.14856 -0.136919 -6.62013e-22)
(1.15059 -0.129966 3.77168e-21)
(1.15225 -0.122989 3.24633e-23)
(1.15356 -0.115999 -1.87752e-21)
(1.15451 -0.109007 4.64058e-21)
(1.15511 -0.102022 -7.58364e-21)
(1.15536 -0.0950514 -3.85202e-21)
(1.15527 -0.0880999 7.62728e-21)
(1.15483 -0.0811706 0)
(1.15407 -0.0742642 -2.84436e-20)
(1.15298 -0.0673795 -4.11462e-20)
(1.15157 -0.0605127 2.0616e-22)
(1.14986 -0.0536583 3.95521e-20)
(1.14786 -0.0468085 0)
(1.14558 -0.0399532 0)
(1.14303 -0.0330798 -2.56194e-20)
(1.14019 -0.0261723 4.79232e-20)
(1.13707 -0.0192109 1.02164e-21)
(1.13362 -0.0121702 -2.20867e-20)
(1.12976 -0.00501991 8.19494e-20)
(1.12537 0.00227757 -3.95586e-20)
(1.12027 0.00976718 -3.45677e-20)
(1.11421 0.0174986 -7.18064e-20)
(1.10688 0.0255259 -3.06942e-22)
(1.09788 0.0338972 -1.53551e-21)
(1.08681 0.0426294 2.16163e-21)
(1.07338 0.0516815 5.16214e-20)
(1.05747 0.0609707 -3.11234e-20)
(1.03925 0.0702864 -2.5407e-20)
(1.01953 0.0793601 2.67731e-20)
(0.998153 0.0875665 2.56936e-20)
(0.977161 0.100172 0)
(0.894325 -0.271961 2.93958e-20)
(0.903227 -0.273745 -1.55965e-20)
(0.912218 -0.275262 0)
(0.921264 -0.276478 5.11865e-21)
(0.930357 -0.277387 0)
(0.93949 -0.27799 -9.42028e-21)
(0.948646 -0.27828 7.21057e-21)
(0.957808 -0.278247 -6.71916e-21)
(0.96696 -0.277889 6.19773e-21)
(0.976089 -0.277202 3.83276e-23)
(0.985181 -0.276185 3.50764e-21)
(0.994221 -0.274837 -3.3321e-21)
(1.00319 -0.273157 0)
(1.01208 -0.271143 -1.25849e-20)
(1.02086 -0.268798 2.81149e-20)
(1.02953 -0.266122 -1.55246e-20)
(1.03807 -0.263119 0)
(1.04645 -0.259791 -2.95654e-20)
(1.05466 -0.256145 4.4384e-20)
(1.06269 -0.252186 -2.70323e-20)
(1.07052 -0.247921 0)
(1.07813 -0.243357 0)
(1.0855 -0.238503 0)
(1.09263 -0.233371 9.2382e-21)
(1.09949 -0.227969 2.13849e-20)
(1.10607 -0.222312 -2.14087e-20)
(1.11235 -0.216412 1.10348e-20)
(1.11832 -0.210282 0)
(1.12398 -0.203937 2.60285e-20)
(1.1293 -0.197394 -3.88138e-20)
(1.13428 -0.190667 0)
(1.13891 -0.183773 2.88227e-20)
(1.14318 -0.176731 -1.42235e-20)
(1.14708 -0.169553 -1.4699e-20)
(1.15062 -0.162249 8.29687e-21)
(1.15377 -0.154893 0)
(1.15655 -0.147486 0)
(1.15896 -0.140035 7.77278e-21)
(1.16099 -0.132555 0)
(1.16265 -0.12506 -4.0768e-21)
(1.16395 -0.117563 9.73494e-22)
(1.16489 -0.110075 4.05652e-21)
(1.16548 -0.102607 -1.51533e-22)
(1.16573 -0.0951637 7.98832e-21)
(1.16565 -0.0877513 1.64536e-20)