/*--------------------------------*- C++ -*----------------------------------*\
| =========                 |                                                 |
| \\      /  F ield         | OpenFOAM: The Open Source CFD Toolbox           |
|  \\    /   O peration     | Version:  2312                                  |
|   \\  /    A nd           | Website:  www.openfoam.com                      |
|    \\/     M anipulation  |                                                 |
\*---------------------------------------------------------------------------*/
FoamFile
{
    version     2.0;
    format      ascii;
    arch        "LSB;label=32;scalar=64";
    class       volScalarField;
    location    "1500";
    object      k;
}
// * * * * * * * * * * * * * * * * * * * * * * * * * * * * * * * * * * * * * //

dimensions      [0 2 -2 0 0 0 0];

internalField   nonuniform List<scalar> 
76025
(
5.01784e-06
5.02187e-06
5.02208e-06
5.02201e-06
5.02328e-06
5.02986e-06
5.03415e-06
5.04088e-06
5.04538e-06
5.05114e-06
5.05666e-06
5.06304e-06
5.07238e-06
5.08039e-06
5.09166e-06
5.10219e-06
5.11492e-06
5.12864e-06
5.14222e-06
5.15717e-06
5.17293e-06
5.19061e-06
5.20799e-06
5.22645e-06
5.24733e-06
5.26557e-06
5.28892e-06
5.30836e-06
5.33341e-06
5.35495e-06
5.38034e-06
5.40495e-06
5.43153e-06
5.45995e-06
5.48911e-06
5.51964e-06
5.55288e-06
5.58739e-06
5.62632e-06
5.66715e-06
5.71244e-06
5.76426e-06
5.82124e-06
5.88773e-06
5.96253e-06
6.05229e-06
6.1518e-06
6.27031e-06
6.41117e-06
6.57018e-06
6.76364e-06
6.98536e-06
7.25853e-06
7.56402e-06
7.98027e-06
8.44095e-06
9.05568e-06
9.83248e-06
1.08447e-05
1.21698e-05
1.38085e-05
1.59675e-05
1.8617e-05
2.18042e-05
2.54665e-05
2.93863e-05
3.36605e-05
3.81558e-05
4.24036e-05
5.12057e-06
5.12467e-06
5.12854e-06
5.13262e-06
5.13513e-06
5.13958e-06
5.14374e-06
5.14926e-06
5.15496e-06
5.16111e-06
5.16767e-06
5.17435e-06
5.18247e-06
5.19077e-06
5.20109e-06
5.21147e-06
5.22355e-06
5.23625e-06
5.2502e-06
5.26473e-06
5.28034e-06
5.29705e-06
5.31489e-06
5.33327e-06
5.35358e-06
5.37345e-06
5.39576e-06
5.41837e-06
5.44282e-06
5.46831e-06
5.49576e-06
5.52364e-06
5.55414e-06
5.58592e-06
5.62036e-06
5.65726e-06
5.69674e-06
5.74025e-06
5.788e-06
5.84045e-06
5.89936e-06
5.96451e-06
6.03952e-06
6.12372e-06
6.22068e-06
6.33063e-06
6.45747e-06
6.60435e-06
6.773e-06
6.97134e-06
7.20113e-06
7.4778e-06
7.80394e-06
8.21262e-06
8.70888e-06
9.34543e-06
1.01575e-05
1.1205e-05
1.25537e-05
1.42536e-05
1.6392e-05
1.89692e-05
2.19912e-05
2.54496e-05
2.92826e-05
3.3499e-05
3.7917e-05
4.24401e-05
4.67491e-05
5.24102e-06
5.24611e-06
5.25114e-06
5.25675e-06
5.2617e-06
5.26705e-06
5.2724e-06
5.27819e-06
5.28448e-06
5.29123e-06
5.29857e-06
5.30623e-06
5.31475e-06
5.32364e-06
5.33384e-06
5.34469e-06
5.35682e-06
5.3698e-06
5.384e-06
5.39914e-06
5.41534e-06
5.43258e-06
5.45107e-06
5.47057e-06
5.49151e-06
5.51346e-06
5.53714e-06
5.56221e-06
5.58911e-06
5.61765e-06
5.64843e-06
5.68111e-06
5.71633e-06
5.7542e-06
5.79515e-06
5.83955e-06
5.8879e-06
5.9409e-06
5.99938e-06
6.06386e-06
6.13581e-06
6.21647e-06
6.30747e-06
6.41031e-06
6.52716e-06
6.66032e-06
6.81343e-06
6.98968e-06
7.19511e-06
7.43545e-06
7.72192e-06
8.06529e-06
8.48726e-06
9.00893e-06
9.66796e-06
1.05056e-05
1.15748e-05
1.29347e-05
1.46377e-05
1.67398e-05
1.92609e-05
2.22166e-05
2.55901e-05
2.93529e-05
3.3434e-05
3.77426e-05
4.21088e-05
4.64559e-05
5.03325e-05
5.37634e-06
5.38373e-06
5.39086e-06
5.39811e-06
5.40526e-06
5.41249e-06
5.41976e-06
5.42716e-06
5.43484e-06
5.44283e-06
5.45133e-06
5.46024e-06
5.46983e-06
5.47996e-06
5.49094e-06
5.50274e-06
5.51556e-06
5.5294e-06
5.54438e-06
5.56051e-06
5.57784e-06
5.59639e-06
5.61628e-06
5.63748e-06
5.66019e-06
5.68456e-06
5.7108e-06
5.73896e-06
5.76929e-06
5.80187e-06
5.83704e-06
5.87497e-06
5.91598e-06
5.96048e-06
6.00885e-06
6.0616e-06
6.1194e-06
6.18288e-06
6.25309e-06
6.33073e-06
6.41746e-06
6.51484e-06
6.62465e-06
6.74908e-06
6.89072e-06
7.05301e-06
7.24013e-06
7.45788e-06
7.71353e-06
8.01769e-06
8.3839e-06
8.832e-06
9.38716e-06
1.00839e-05
1.09642e-05
1.20778e-05
1.3478e-05
1.52143e-05
1.7328e-05
1.98412e-05
2.27588e-05
2.60655e-05
2.97203e-05
3.3675e-05
3.78316e-05
4.21106e-05
4.63317e-05
5.04066e-05
5.4055e-05
5.52987e-06
5.53973e-06
5.54944e-06
5.559e-06
5.56855e-06
5.57816e-06
5.58783e-06
5.59758e-06
5.60749e-06
5.61761e-06
5.62807e-06
5.63892e-06
5.65029e-06
5.66224e-06
5.6749e-06
5.68836e-06
5.70274e-06
5.71814e-06
5.73468e-06
5.75243e-06
5.77153e-06
5.79199e-06
5.81403e-06
5.83754e-06
5.86298e-06
5.89048e-06
5.92019e-06
5.9523e-06
5.98704e-06
6.02463e-06
6.06537e-06
6.10959e-06
6.15768e-06
6.21011e-06
6.26739e-06
6.33016e-06
6.3992e-06
6.47533e-06
6.55976e-06
6.65347e-06
6.75839e-06
6.87659e-06
7.0104e-06
7.16269e-06
7.33714e-06
7.53845e-06
7.77292e-06
8.04881e-06
8.37742e-06
8.77384e-06
9.25851e-06
9.85805e-06
1.06065e-05
1.15448e-05
1.27191e-05
1.41767e-05
1.59603e-05
1.81019e-05
2.06172e-05
2.35055e-05
2.67481e-05
3.03108e-05
3.41414e-05
3.81774e-05
4.23154e-05
4.64638e-05
5.04295e-05
5.41697e-05
5.76232e-05
5.71132e-06
5.7226e-06
5.73416e-06
5.74579e-06
5.7576e-06
5.7696e-06
5.78179e-06
5.79414e-06
5.80669e-06
5.81949e-06
5.8326e-06
5.84608e-06
5.86003e-06
5.87453e-06
5.88971e-06
5.90566e-06
5.92251e-06
5.94039e-06
5.95942e-06
5.97973e-06
6.00146e-06
6.02476e-06
6.04972e-06
6.07662e-06
6.10577e-06
6.13737e-06
6.17162e-06
6.20879e-06
6.24913e-06
6.293e-06
6.34074e-06
6.39279e-06
6.44966e-06
6.51193e-06
6.58025e-06
6.65546e-06
6.7385e-06
6.83049e-06
6.93285e-06
7.04707e-06
7.17547e-06
7.32091e-06
7.48664e-06
7.67677e-06
7.89666e-06
8.15338e-06
8.4563e-06
8.81792e-06
9.2548e-06
9.78856e-06
1.04467e-05
1.12631e-05
1.22765e-05
1.35291e-05
1.50618e-05
1.6909e-05
1.90943e-05
2.16266e-05
2.44999e-05
2.76938e-05
3.1175e-05
3.48978e-05
3.88022e-05
4.28138e-05
4.68218e-05
5.07241e-05
5.43406e-05
5.7723e-05
6.13938e-05
5.93212e-06
5.94368e-06
5.956e-06
5.96882e-06
5.98219e-06
5.99609e-06
6.01044e-06
6.0252e-06
6.04037e-06
6.05595e-06
6.07199e-06
6.08851e-06
6.10558e-06
6.12328e-06
6.14171e-06
6.16098e-06
6.1812e-06
6.20252e-06
6.22508e-06
6.24903e-06
6.27454e-06
6.30178e-06
6.33098e-06
6.36256e-06
6.39678e-06
6.43389e-06
6.47418e-06
6.518e-06
6.5657e-06
6.61772e-06
6.67453e-06
6.73669e-06
6.80488e-06
6.87983e-06
6.96242e-06
7.05373e-06
7.155e-06
7.26778e-06
7.39388e-06
7.53562e-06
7.69591e-06
7.87902e-06
8.08973e-06
8.33425e-06
8.62074e-06
8.9599e-06
9.36571e-06
9.85626e-06
1.04544e-05
1.11881e-05
1.20903e-05
1.3197e-05
1.4545e-05
1.61678e-05
1.80916e-05
2.03312e-05
2.28892e-05
2.5755e-05
2.89069e-05
3.2313e-05
3.59313e-05
3.97093e-05
4.35805e-05
4.74579e-05
5.12248e-05
5.47749e-05
5.79742e-05
6.11436e-05
6.57558e-05
6.20341e-06
6.21492e-06
6.22748e-06
6.24086e-06
6.25516e-06
6.27036e-06
6.28638e-06
6.30314e-06
6.32064e-06
6.33885e-06
6.35779e-06
6.37748e-06
6.39795e-06
6.41927e-06
6.44152e-06
6.4648e-06
6.48922e-06
6.51493e-06
6.54208e-06
6.57084e-06
6.60143e-06
6.63401e-06
6.66912e-06
6.70706e-06
6.74814e-06
6.79269e-06
6.84112e-06
6.89384e-06
6.95135e-06
7.01421e-06
7.08306e-06
7.15864e-06
7.24184e-06
7.33366e-06
7.43529e-06
7.54824e-06
7.67422e-06
7.81548e-06
7.97459e-06
8.15519e-06
8.36131e-06
8.59953e-06
8.87721e-06
9.20386e-06
9.59174e-06
1.00564e-05
1.06175e-05
1.12985e-05
1.21272e-05
1.31345e-05
1.43521e-05
1.58106e-05
1.75353e-05
1.95436e-05
2.18429e-05
2.44295e-05
2.72903e-05
3.04023e-05
3.37359e-05
3.72526e-05
4.09057e-05
4.46368e-05
4.83698e-05
5.20029e-05
5.54165e-05
5.85182e-05
6.13075e-05
6.47096e-05
7.13691e-05
6.53668e-06
6.54868e-06
6.56179e-06
6.57586e-06
6.59108e-06
6.60748e-06
6.625e-06
6.64361e-06
6.6633e-06
6.68407e-06
6.70591e-06
6.72886e-06
6.75296e-06
6.77824e-06
6.8048e-06
6.83273e-06
6.86215e-06
6.89321e-06
6.92606e-06
6.96094e-06
6.99798e-06
7.03781e-06
7.08075e-06
7.12714e-06
7.17739e-06
7.23194e-06
7.29129e-06
7.356e-06
7.42674e-06
7.50425e-06
7.58942e-06
7.68326e-06
7.787e-06
7.90207e-06
8.03022e-06
8.17362e-06
8.3349e-06
8.51745e-06
8.72533e-06
8.96417e-06
9.24018e-06
9.5633e-06
9.94467e-06
1.03982e-05
1.09408e-05
1.1593e-05
1.23785e-05
1.33231e-05
1.44543e-05
1.57982e-05
1.73779e-05
1.92102e-05
2.13048e-05
2.36619e-05
2.62742e-05
2.91257e-05
3.21951e-05
3.54539e-05
3.88684e-05
4.23961e-05
4.59851e-05
4.95681e-05
5.30532e-05
5.63239e-05
5.92695e-05
6.18652e-05
6.44319e-05
6.9031e-05
7.87265e-05
6.94577e-06
6.9593e-06
6.97394e-06
6.98955e-06
7.00641e-06
7.02462e-06
7.04417e-06
7.06507e-06
7.08736e-06
7.11107e-06
7.13624e-06
7.16291e-06
7.19114e-06
7.221e-06
7.25259e-06
7.28603e-06
7.32145e-06
7.35902e-06
7.39895e-06
7.44144e-06
7.48714e-06
7.5364e-06
7.58961e-06
7.64722e-06
7.70973e-06
7.77774e-06
7.85191e-06
7.93302e-06
8.02198e-06
8.11985e-06
8.22788e-06
8.3476e-06
8.4808e-06
8.62968e-06
8.79698e-06
8.98606e-06
9.20114e-06
9.44748e-06
9.73171e-06
1.00621e-05
1.04488e-05
1.09047e-05
1.14458e-05
1.20898e-05
1.28571e-05
1.37695e-05
1.48498e-05
1.61201e-05
1.75998e-05
1.93039e-05
2.12416e-05
2.34154e-05
2.58213e-05
2.84484e-05
3.12815e-05
3.42994e-05
3.74778e-05
4.07856e-05
4.41847e-05
4.76279e-05
5.10554e-05
5.43834e-05
5.74976e-05
6.02769e-05
6.26527e-05
6.48062e-05
6.77051e-05
7.45343e-05
8.88568e-05
7.44942e-06
7.46575e-06
7.48322e-06
7.50168e-06
7.52149e-06
7.54277e-06
7.56557e-06
7.58995e-06
7.61598e-06
7.64377e-06
7.67338e-06
7.70492e-06
7.73848e-06
7.77418e-06
7.81217e-06
7.85259e-06
7.89567e-06
7.94154e-06
7.99065e-06
8.04361e-06
8.10079e-06
8.16266e-06
8.22973e-06
8.30263e-06
8.38204e-06
8.4688e-06
8.56388e-06
8.66841e-06
8.78374e-06
8.91148e-06
9.05358e-06
9.21243e-06
9.39088e-06
9.59249e-06
9.82162e-06
1.00836e-05
1.03852e-05
1.07342e-05
1.11405e-05
1.16156e-05
1.21732e-05
1.28285e-05
1.35998e-05
1.45056e-05
1.55647e-05
1.67946e-05
1.82109e-05
1.98258e-05
2.16471e-05
2.36775e-05
2.59147e-05
2.83516e-05
3.09772e-05
3.37761e-05
3.67307e-05
3.98176e-05
4.30111e-05
4.62764e-05
4.9567e-05
5.28315e-05
5.59932e-05
5.89402e-05
6.15373e-05
6.36951e-05
6.54622e-05
6.75702e-05
7.15727e-05
8.19706e-05
0.000104685
8.07453e-06
8.09503e-06
8.11683e-06
8.13977e-06
8.16424e-06
8.19038e-06
8.21829e-06
8.24804e-06
8.27977e-06
8.31363e-06
8.34975e-06
8.38829e-06
8.42941e-06
8.4733e-06
8.52015e-06
8.57031e-06
8.62378e-06
8.68157e-06
8.74407e-06
8.81176e-06
8.88522e-06
8.96511e-06
9.05222e-06
9.14744e-06
9.25186e-06
9.36675e-06
9.49363e-06
9.6343e-06
9.79093e-06
9.96614e-06
1.01631e-05
1.03856e-05
1.06383e-05
1.09267e-05
1.12574e-05
1.16385e-05
1.2079e-05
1.25898e-05
1.31827e-05
1.38712e-05
1.46696e-05
1.55927e-05
1.66549e-05
1.78704e-05
1.92517e-05
2.08074e-05
2.25434e-05
2.44619e-05
2.65614e-05
2.88369e-05
3.12807e-05
3.38818e-05
3.66277e-05
3.95013e-05
4.2485e-05
4.55518e-05
4.86734e-05
5.18078e-05
5.4892e-05
5.78786e-05
6.06465e-05
6.30502e-05
6.4962e-05
6.64145e-05
6.7746e-05
7.06668e-05
7.64831e-05
9.23482e-05
0.000126487
8.86111e-06
8.88735e-06
8.91527e-06
8.94468e-06
8.976e-06
9.0094e-06
9.04498e-06
9.08288e-06
9.12328e-06
9.16636e-06
9.21235e-06
9.26149e-06
9.314e-06
9.37029e-06
9.43043e-06
9.49543e-06
9.56583e-06
9.64223e-06
9.7253e-06
9.81582e-06
9.91471e-06
1.00231e-05
1.01421e-05
1.02733e-05
1.04186e-05
1.05799e-05
1.07597e-05
1.09611e-05
1.11875e-05
1.1443e-05
1.17326e-05
1.2062e-05
1.24377e-05
1.28674e-05
1.33596e-05
1.39238e-05
1.45704e-05
1.53103e-05
1.61549e-05
1.71153e-05
1.82023e-05
1.94255e-05
2.07929e-05
2.23107e-05
2.39828e-05
2.58105e-05
2.77938e-05
2.9929e-05
3.22107e-05
3.46312e-05
3.71819e-05
3.98509e-05
4.2626e-05
4.54875e-05
4.84172e-05
5.13799e-05
5.43436e-05
5.7251e-05
6.00147e-05
6.26121e-05
6.48e-05
6.64503e-05
6.75292e-05
6.83925e-05
6.9888e-05
7.4335e-05
8.33871e-05
0.000106815
0.00014819
9.87049e-06
9.90475e-06
9.94139e-06
9.98018e-06
1.00216e-05
1.00659e-05
1.01132e-05
1.01637e-05
1.02176e-05
1.02753e-05
1.0337e-05
1.04033e-05
1.04742e-05
1.05512e-05
1.06347e-05
1.07255e-05
1.08245e-05
1.09325e-05
1.10508e-05
1.11808e-05
1.13238e-05
1.14819e-05
1.1657e-05
1.18517e-05
1.20687e-05
1.23115e-05
1.25837e-05
1.28898e-05
1.32347e-05
1.36241e-05
1.40642e-05
1.45619e-05
1.51246e-05
1.57601e-05
1.64768e-05
1.72829e-05
1.81867e-05
1.91959e-05
2.03176e-05
2.15581e-05
2.29224e-05
2.4414e-05
2.60352e-05
2.77866e-05
2.96673e-05
3.16753e-05
3.38071e-05
3.60579e-05
3.84224e-05
4.08931e-05
4.34616e-05
4.61141e-05
4.88386e-05
5.16085e-05
5.44045e-05
5.71744e-05
5.98831e-05
6.24438e-05
6.47446e-05
6.68179e-05
6.81118e-05
6.87229e-05
6.90833e-05
7.00248e-05
7.21792e-05
7.9246e-05
9.3683e-05
0.000129153
0.00015696
1.12023e-05
1.12489e-05
1.12991e-05
1.13528e-05
1.14106e-05
1.14728e-05
1.15395e-05
1.16112e-05
1.16884e-05
1.17712e-05
1.18611e-05
1.19589e-05
1.20652e-05
1.21811e-05
1.23075e-05
1.24459e-05
1.25975e-05
1.27642e-05
1.29477e-05
1.31503e-05
1.33742e-05
1.36224e-05
1.38979e-05
1.42041e-05
1.45448e-05
1.49243e-05
1.53471e-05
1.58183e-05
1.6343e-05
1.6927e-05
1.75758e-05
1.82952e-05
1.90911e-05
1.99689e-05
2.09341e-05
2.19915e-05
2.31452e-05
2.4399e-05
2.57556e-05
2.72172e-05
2.8785e-05
3.04593e-05
3.22398e-05
3.41254e-05
3.61142e-05
3.82034e-05
4.03893e-05
4.26672e-05
4.50307e-05
4.74703e-05
4.99795e-05
5.25402e-05
5.51387e-05
5.77347e-05
6.03089e-05
6.27765e-05
6.51061e-05
6.71561e-05
6.88194e-05
6.97973e-05
6.97761e-05
6.97547e-05
7.00614e-05
7.15431e-05
7.57685e-05
8.64859e-05
0.000109967
0.000143961
0.000157885
1.30338e-05
1.3103e-05
1.31783e-05
1.32597e-05
1.3348e-05
1.34436e-05
1.35478e-05
1.36614e-05
1.3785e-05
1.39196e-05
1.40661e-05
1.42259e-05
1.44003e-05
1.45908e-05
1.4799e-05
1.50269e-05
1.52764e-05
1.55499e-05
1.58498e-05
1.61787e-05
1.65395e-05
1.69353e-05
1.73693e-05
1.78448e-05
1.83655e-05
1.89349e-05
1.95569e-05
2.0235e-05
2.0973e-05
2.17745e-05
2.2643e-05
2.35816e-05
2.45936e-05
2.56815e-05
2.68479e-05
2.8095e-05
2.94244e-05
3.08377e-05
3.2336e-05
3.39198e-05
3.55894e-05
3.73449e-05
3.91855e-05
4.11101e-05
4.31168e-05
4.52027e-05
4.73635e-05
4.95938e-05
5.18845e-05
5.4224e-05
5.6602e-05
5.89934e-05
6.13839e-05
6.3705e-05
6.59457e-05
6.79565e-05
6.97323e-05
7.09868e-05
7.13198e-05
7.10776e-05
7.04315e-05
7.04146e-05
7.12273e-05
7.43198e-05
8.19854e-05
9.88309e-05
0.000127389
0.000148467
0.000147519
1.57214e-05
1.58392e-05
1.59689e-05
1.61103e-05
1.62646e-05
1.64326e-05
1.66153e-05
1.68137e-05
1.7029e-05
1.72624e-05
1.75152e-05
1.77888e-05
1.80849e-05
1.8405e-05
1.87508e-05
1.91242e-05
1.95269e-05
1.99609e-05
2.04282e-05
2.09308e-05
2.14707e-05
2.20499e-05
2.26706e-05
2.33348e-05
2.40444e-05
2.48016e-05
2.56083e-05
2.64663e-05
2.73777e-05
2.83443e-05
2.93677e-05
3.04499e-05
3.15926e-05
3.27974e-05
3.4066e-05
3.53999e-05
3.68005e-05
3.8269e-05
3.98066e-05
4.14142e-05
4.30921e-05
4.48404e-05
4.66585e-05
4.85448e-05
5.04969e-05
5.25103e-05
5.45783e-05
5.66939e-05
5.88409e-05
6.10077e-05
6.31751e-05
6.5304e-05
6.7381e-05
6.92849e-05
7.10329e-05
7.23472e-05
7.29228e-05
7.27778e-05
7.22706e-05
7.12357e-05
7.06298e-05
7.11399e-05
7.34246e-05
7.94239e-05
9.23255e-05
0.000112931
0.000132839
0.000141516
0.000132585
2.00875e-05
2.03025e-05
2.05364e-05
2.07887e-05
2.10606e-05
2.13529e-05
2.1666e-05
2.20007e-05
2.23577e-05
2.27378e-05
2.31418e-05
2.35704e-05
2.40245e-05
2.45049e-05
2.50125e-05
2.5548e-05
2.61122e-05
2.67061e-05
2.73305e-05
2.7986e-05
2.86737e-05
2.93944e-05
3.01489e-05
3.09383e-05
3.17637e-05
3.26261e-05
3.35267e-05
3.4467e-05
3.54484e-05
3.64725e-05
3.7541e-05
3.86558e-05
3.98187e-05
4.10318e-05
4.22971e-05
4.36165e-05
4.49918e-05
4.64248e-05
4.79168e-05
4.94686e-05
5.10807e-05
5.27521e-05
5.44816e-05
5.62658e-05
5.80996e-05
5.99752e-05
6.18821e-05
6.38104e-05
6.57286e-05
6.76389e-05
6.94866e-05
7.12226e-05
7.28302e-05
7.40964e-05
7.4735e-05
7.4615e-05
7.41591e-05
7.3323e-05
7.22642e-05
7.09139e-05
7.11937e-05
7.29518e-05
7.78577e-05
8.84433e-05
0.000102284
0.000117105
0.000128939
0.000127391
0.000111137
2.76131e-05
2.79433e-05
2.82969e-05
2.86721e-05
2.90689e-05
2.94868e-05
2.99254e-05
3.03842e-05
3.0863e-05
3.13616e-05
3.18797e-05
3.24177e-05
3.29758e-05
3.3554e-05
3.41526e-05
3.47714e-05
3.54107e-05
3.60705e-05
3.67511e-05
3.74527e-05
3.8176e-05
3.89215e-05
3.969e-05
4.04826e-05
4.13002e-05
4.21444e-05
4.30166e-05
4.39186e-05
4.48525e-05
4.58204e-05
4.68246e-05
4.78676e-05
4.8952e-05
5.00804e-05
5.12551e-05
5.24785e-05
5.37527e-05
5.50792e-05
5.64591e-05
5.78921e-05
5.93773e-05
6.09115e-05
6.24914e-05
6.41094e-05
6.57562e-05
6.74167e-05
6.90787e-05
7.0726e-05
7.22979e-05
7.38543e-05
7.51908e-05
7.63455e-05
7.6794e-05
7.66659e-05
7.62112e-05
7.5365e-05
7.41684e-05
7.28115e-05
7.12007e-05
7.11616e-05
7.24147e-05
7.64295e-05
8.48667e-05
9.38276e-05
0.00010416
0.000112553
0.000115096
0.000108612
8.85835e-05
3.96023e-05
3.99917e-05
4.03931e-05
4.08055e-05
4.12297e-05
4.16653e-05
4.2112e-05
4.25694e-05
4.30372e-05
4.35151e-05
4.40036e-05
4.45079e-05
4.50264e-05
4.55582e-05
4.61025e-05
4.66586e-05
4.72263e-05
4.78055e-05
4.83964e-05
4.90001e-05
4.96176e-05
5.02499e-05
5.08984e-05
5.15644e-05
5.22497e-05
5.29563e-05
5.36864e-05
5.44425e-05
5.52272e-05
5.60431e-05
5.68934e-05
5.77809e-05
5.87086e-05
5.96791e-05
6.06948e-05
6.1758e-05
6.28698e-05
6.40312e-05
6.52418e-05
6.64975e-05
6.77951e-05
6.91263e-05
7.04868e-05
7.18576e-05
7.32242e-05
7.45614e-05
7.58693e-05
7.70972e-05
7.81648e-05
7.90642e-05
7.91769e-05
7.90548e-05
7.8342e-05
7.74845e-05
7.61845e-05
7.46396e-05
7.27231e-05
7.0709e-05
7.01975e-05
7.11952e-05
7.42961e-05
8.04593e-05
8.70862e-05
9.35216e-05
9.6354e-05
9.8635e-05
9.77133e-05
8.80703e-05
6.78138e-05
5.5797e-05
5.61205e-05
5.64441e-05
5.67672e-05
5.70909e-05
5.74152e-05
5.77399e-05
5.80649e-05
5.83901e-05
5.87156e-05
5.90414e-05
5.93685e-05
5.96975e-05
6.00288e-05
6.03629e-05
6.07003e-05
6.10414e-05
6.13871e-05
6.17402e-05
6.21074e-05
6.24882e-05
6.28829e-05
6.32937e-05
6.37222e-05
6.41711e-05
6.46424e-05
6.51395e-05
6.56643e-05
6.62198e-05
6.68095e-05
6.74363e-05
6.8103e-05
6.88122e-05
6.95657e-05
7.03654e-05
7.12125e-05
7.21064e-05
7.30467e-05
7.40285e-05
7.50377e-05
7.60719e-05
7.71112e-05
7.81595e-05
7.91558e-05
8.01e-05
8.09567e-05
8.1782e-05
8.1975e-05
8.19583e-05
8.12712e-05
8.06443e-05
7.95775e-05
7.82511e-05
7.63913e-05
7.4015e-05
7.16841e-05
6.93579e-05
6.8427e-05
6.92156e-05
7.14666e-05
7.59194e-05
8.07148e-05
8.03396e-05
7.97833e-05
8.06164e-05
8.21961e-05
7.98363e-05
6.92072e-05
4.98184e-05
7.47734e-05
7.49104e-05
7.50376e-05
7.51547e-05
7.52631e-05
7.53628e-05
7.54535e-05
7.55352e-05
7.56083e-05
7.56733e-05
7.5731e-05
7.57821e-05
7.58278e-05
7.58688e-05
7.59065e-05
7.59423e-05
7.59775e-05
7.60134e-05
7.60518e-05
7.60953e-05
7.61465e-05
7.62103e-05
7.62984e-05
7.64084e-05
7.65499e-05
7.67162e-05
7.69206e-05
7.71513e-05
7.742e-05
7.77317e-05
7.80843e-05
7.84804e-05
7.89211e-05
7.94054e-05
7.99361e-05
8.05129e-05
8.11308e-05
8.17878e-05
8.24651e-05
8.31182e-05
8.37804e-05
8.43889e-05
8.49953e-05
8.53317e-05
8.53126e-05
8.52263e-05
8.45708e-05
8.39205e-05
8.29182e-05
8.16141e-05
7.98893e-05
7.77336e-05
7.4951e-05
7.18575e-05
6.9087e-05
6.68825e-05
6.53299e-05
6.57583e-05
6.76724e-05
7.05939e-05
6.94147e-05
6.58661e-05
6.26024e-05
6.33128e-05
6.60138e-05
6.74327e-05
6.39668e-05
5.31575e-05
3.55307e-05
9.46915e-05
9.45865e-05
9.4457e-05
9.43063e-05
9.41388e-05
9.39479e-05
9.37345e-05
9.3501e-05
9.32509e-05
9.29858e-05
9.2708e-05
9.24202e-05
9.21236e-05
9.18174e-05
9.15082e-05
9.11968e-05
9.08846e-05
9.0573e-05
9.02636e-05
8.99597e-05
8.96646e-05
8.93855e-05
8.91329e-05
8.88726e-05
8.87187e-05
8.8515e-05
8.84501e-05
8.8302e-05
8.82637e-05
8.82905e-05
8.83338e-05
8.84204e-05
8.85464e-05
8.87027e-05
8.89127e-05
8.91641e-05
8.94363e-05
8.97272e-05
8.99782e-05
8.99154e-05
8.99164e-05
8.93233e-05
8.90194e-05
8.82869e-05
8.74111e-05
8.63319e-05
8.49399e-05
8.32431e-05
8.09731e-05
7.82578e-05
7.49017e-05
7.1472e-05
6.77079e-05
6.45135e-05
6.26378e-05
6.01231e-05
6.02826e-05
6.08606e-05
5.95442e-05
5.42736e-05
4.70365e-05
4.5439e-05
4.73858e-05
5.13731e-05
5.44665e-05
5.50051e-05
5.08135e-05
4.05302e-05
2.55041e-05
0.000113442
0.000113023
0.00011258
0.000112115
0.000111628
0.000111121
0.000110594
0.000110048
0.000109485
0.000108905
0.00010831
0.000107702
0.000107082
0.000106452
0.000105814
0.000105173
0.00010453
0.000103886
0.000103245
0.00010262
0.000102014
0.000101428
0.000100863
0.000100318
9.9806e-05
9.93203e-05
9.88755e-05
9.84604e-05
9.80852e-05
9.77509e-05
9.74535e-05
9.71926e-05
9.69297e-05
9.66598e-05
9.63354e-05
9.59409e-05
9.54532e-05
9.48517e-05
9.40782e-05
9.32005e-05
9.22326e-05
9.10711e-05
8.97137e-05
8.81012e-05
8.61e-05
8.36079e-05
8.06305e-05
7.71276e-05
7.32239e-05
6.9071e-05
6.48757e-05
6.1024e-05
5.71541e-05
5.49265e-05
5.23461e-05
5.22292e-05
4.9482e-05
4.42321e-05
3.3763e-05
3.10703e-05
3.20285e-05
3.50957e-05
3.91812e-05
4.31043e-05
4.50528e-05
4.4895e-05
4.05345e-05
3.15537e-05
1.95686e-05
0.000128541
0.000127882
0.000127191
0.000126469
0.000125721
0.000124949
0.000124155
0.000123342
0.000122511
0.000121662
0.000120798
0.000119919
0.000119027
0.000118122
0.000117221
0.000116324
0.000115431
0.000114541
0.000113653
0.00011277
0.000111893
0.000111024
0.000110165
0.000109321
0.00010849
0.000107667
0.000106848
0.000106027
0.000105196
0.000104345
0.000103464
0.00010252
0.000101557
0.000100561
9.95083e-05
9.83709e-05
9.71221e-05
9.57205e-05
9.41622e-05
9.23047e-05
9.01652e-05
8.75943e-05
8.46735e-05
8.12269e-05
7.73725e-05
7.30924e-05
6.85532e-05
6.38077e-05
5.92316e-05
5.44792e-05
5.02034e-05
4.56283e-05
4.28e-05
4.00909e-05
3.73745e-05
3.12852e-05
2.10243e-05
1.836e-05
1.93326e-05
2.22105e-05
2.58434e-05
2.97739e-05
3.35262e-05
3.64381e-05
3.75971e-05
3.70059e-05
3.30662e-05
2.57727e-05
1.65459e-05
0.000136883
0.00013606
0.000135209
0.000134329
0.000133422
0.000132502
0.000131569
0.000130622
0.00012966
0.000128682
0.000127688
0.000126677
0.00012565
0.000124606
0.000123546
0.000122473
0.000121387
0.000120289
0.000119179
0.000118058
0.000116926
0.000115786
0.000114629
0.000113445
0.000112237
0.000111001
0.000109733
0.000108425
0.000107066
0.000105644
0.000104141
0.000102544
0.000100807
9.89023e-05
9.68009e-05
9.44697e-05
9.18757e-05
8.89873e-05
8.57708e-05
8.21564e-05
7.82375e-05
7.38253e-05
6.92767e-05
6.43575e-05
5.92753e-05
5.43176e-05
4.90044e-05
4.41093e-05
3.86235e-05
3.33164e-05
2.82812e-05
2.37595e-05
2.01348e-05
1.33909e-05
1.00524e-05
8.5158e-06
8.57062e-06
1.10503e-05
1.48503e-05
1.87293e-05
2.23789e-05
2.58099e-05
2.88884e-05
3.10971e-05
3.19418e-05
3.14827e-05
2.85104e-05
2.31749e-05
1.66061e-05
0.000132417
0.000131645
0.000130838
0.000129995
0.000129119
0.000128212
0.000127277
0.000126315
0.000125326
0.000124311
0.000123269
0.000122201
0.000121106
0.000119983
0.000118832
0.000117651
0.000116441
0.000115201
0.000113932
0.000112631
0.000111299
0.000109902
0.000108447
0.000106923
0.000105324
0.000103608
0.000101753
9.97351e-05
9.75282e-05
9.51182e-05
9.24838e-05
8.96163e-05
8.65081e-05
8.3166e-05
7.96257e-05
7.59036e-05
7.20753e-05
6.79936e-05
6.36247e-05
5.90343e-05
5.42804e-05
4.92419e-05
4.43222e-05
3.85464e-05
3.29165e-05
2.67953e-05
2.11962e-05
1.5869e-05
1.16601e-05
8.34394e-06
5.84823e-06
4.85286e-06
4.07941e-06
3.03346e-06
2.68448e-06
3.14272e-06
4.83881e-06
7.53246e-06
1.10593e-05
1.47982e-05
1.83764e-05
2.16273e-05
2.45341e-05
2.68604e-05
2.79806e-05
2.81313e-05
2.63663e-05
2.27122e-05
1.79244e-05
0.000104323
0.00010354
0.000102734
0.000101907
0.000101054
0.000100176
9.92653e-05
9.83289e-05
9.73544e-05
9.63539e-05
9.53103e-05
9.42389e-05
9.31197e-05
9.19732e-05
9.07737e-05
8.95423e-05
8.82516e-05
8.69311e-05
8.55489e-05
8.40936e-05
8.25438e-05
8.09172e-05
7.91911e-05
7.73764e-05
7.54325e-05
7.34153e-05
7.13022e-05
6.91108e-05
6.68378e-05
6.44784e-05
6.19975e-05
5.94043e-05
5.66547e-05
5.3748e-05
5.05893e-05
4.71476e-05
4.32526e-05
3.90313e-05
3.44493e-05
2.95542e-05
2.41953e-05
1.88772e-05
1.3477e-05
9.34975e-06
6.35663e-06
4.23374e-06
2.92626e-06
2.1657e-06
1.56521e-06
1.0924e-06
8.82194e-07
7.56463e-07
5.95293e-07
5.01459e-07
5.31437e-07
7.8058e-07
1.31258e-06
2.30704e-06
4.06454e-06
6.81985e-06
1.01287e-05
1.33424e-05
1.59919e-05
1.8503e-05
2.02379e-05
2.09311e-05
2.07218e-05
1.91616e-05
1.61487e-05
5.48719e-05
5.55355e-05
5.61772e-05
5.68373e-05
5.74372e-05
5.81026e-05
5.86212e-05
5.93241e-05
5.96998e-05
6.03653e-05
6.05824e-05
6.10863e-05
6.12476e-05
6.17349e-05
6.17861e-05
6.1818e-05
6.18537e-05
6.1822e-05
6.198e-05
6.22648e-05
6.23844e-05
6.23733e-05
6.21279e-05
6.17313e-05
6.11223e-05
6.03758e-05
5.93957e-05
5.81799e-05
5.66983e-05
5.4881e-05
5.26755e-05
5.0052e-05
4.6971e-05
4.33869e-05
3.92413e-05
3.44917e-05
2.91228e-05
2.31896e-05
1.68982e-05
1.07835e-05
5.55791e-06
2.12338e-06
7.94629e-07
6.87518e-07
7.08595e-07
6.69208e-07
5.85771e-07
4.89365e-07
3.62881e-07
2.812e-07
2.34384e-07
1.91059e-07
1.524e-07
1.35533e-07
1.46335e-07
2.04867e-07
3.2755e-07
5.35384e-07
8.32415e-07
1.19333e-06
1.56958e-06
1.9506e-06
2.4328e-06
2.83931e-06
3.18245e-06
3.35941e-06
3.54101e-06
3.70194e-06
3.50695e-06
5.02508e-06
5.02329e-06
5.0265e-06
5.02978e-06
5.03271e-06
5.03357e-06
5.03347e-06
5.02718e-06
5.02415e-06
5.01809e-06
5.01533e-06
5.01717e-06
5.02618e-06
5.03168e-06
5.02879e-06
5.01691e-06
5.01671e-06
5.019e-06
5.019e-06
5.0086e-06
5.0041e-06
5.0095e-06
5.00427e-06
5.00521e-06
4.99758e-06
4.99074e-06
4.9956e-06
4.99512e-06
4.99411e-06
4.99716e-06
4.99222e-06
4.99298e-06
4.99204e-06
4.98971e-06
4.9899e-06
4.98321e-06
4.9837e-06
4.98584e-06
4.98727e-06
4.99338e-06
4.98417e-06
4.98532e-06
4.98188e-06
4.97726e-06
4.97959e-06
4.97688e-06
4.97362e-06
4.97179e-06
4.97623e-06
4.98388e-06
4.98994e-06
5.00059e-06
5.00456e-06
5.00549e-06
5.00677e-06
5.00724e-06
5.00886e-06
5.01153e-06
5.01466e-06
5.13375e-06
5.13219e-06
5.13183e-06
5.13137e-06
5.13055e-06
5.12756e-06
5.12342e-06
5.12005e-06
5.11773e-06
5.11909e-06
5.12428e-06
5.12706e-06
5.12833e-06
5.12297e-06
5.11458e-06
5.11114e-06
5.11358e-06
5.11181e-06
5.10543e-06
5.09626e-06
5.09563e-06
5.09767e-06
5.09095e-06
5.09171e-06
5.0825e-06
5.07788e-06
5.08118e-06
5.08167e-06
5.07788e-06
5.07864e-06
5.07648e-06
5.07663e-06
5.07485e-06
5.07132e-06
5.07272e-06
5.06804e-06
5.06626e-06
5.06847e-06
5.07091e-06
5.0758e-06
5.0727e-06
5.07219e-06
5.06971e-06
5.06642e-06
5.0647e-06
5.06358e-06
5.06247e-06
5.06099e-06
5.06324e-06
5.06958e-06
5.07613e-06
5.08603e-06
5.09553e-06
5.10138e-06
5.10633e-06
5.10961e-06
5.11211e-06
5.11533e-06
5.11769e-06
5.26526e-06
5.2637e-06
5.26101e-06
5.25822e-06
5.24921e-06
5.24667e-06
5.24502e-06
5.24628e-06
5.2485e-06
5.24825e-06
5.24581e-06
5.24222e-06
5.23926e-06
5.23203e-06
5.22741e-06
5.22791e-06
5.22375e-06
5.21869e-06
5.2089e-06
5.20333e-06
5.20472e-06
5.20241e-06
5.19564e-06
5.19565e-06
5.18514e-06
5.18187e-06
5.18397e-06
5.18463e-06
5.17872e-06
5.17779e-06
5.17767e-06
5.17696e-06
5.17459e-06
5.17054e-06
5.17203e-06
5.16899e-06
5.16647e-06
5.16758e-06
5.17013e-06
5.17594e-06
5.17529e-06
5.17462e-06
5.17315e-06
5.17108e-06
5.16936e-06
5.16888e-06
5.16644e-06
5.16702e-06
5.16809e-06
5.17235e-06
5.17839e-06
5.18663e-06
5.19704e-06
5.2064e-06
5.21478e-06
5.22195e-06
5.22757e-06
5.23328e-06
5.23713e-06
5.40816e-06
5.40507e-06
5.40322e-06
5.40181e-06
5.4001e-06
5.40216e-06
5.40057e-06
5.39413e-06
5.38967e-06
5.3876e-06
5.38344e-06
5.37699e-06
5.3719e-06
5.36553e-06
5.36221e-06
5.36018e-06
5.35249e-06
5.34439e-06
5.33502e-06
5.33257e-06
5.33429e-06
5.3273e-06
5.32088e-06
5.31868e-06
5.3081e-06
5.30571e-06
5.30662e-06
5.3067e-06
5.29912e-06
5.29709e-06
5.29789e-06
5.2964e-06
5.29377e-06
5.28963e-06
5.29081e-06
5.28897e-06
5.28674e-06
5.28659e-06
5.28834e-06
5.2952e-06
5.2982e-06
5.29786e-06
5.29781e-06
5.2978e-06
5.29505e-06
5.29619e-06
5.29615e-06
5.29648e-06
5.2969e-06
5.29915e-06
5.30346e-06
5.30968e-06
5.31823e-06
5.3278e-06
5.33748e-06
5.34698e-06
5.35534e-06
5.36386e-06
5.37009e-06
5.58342e-06
5.57952e-06
5.57769e-06
5.57504e-06
5.57273e-06
5.57071e-06
5.56744e-06
5.56235e-06
5.55684e-06
5.55186e-06
5.54568e-06
5.5382e-06
5.53251e-06
5.52661e-06
5.52169e-06
5.51538e-06
5.50484e-06
5.49563e-06
5.48844e-06
5.48858e-06
5.48588e-06
5.4767e-06
5.4703e-06
5.46572e-06
5.45529e-06
5.45314e-06
5.45304e-06
5.45165e-06
5.44281e-06
5.43992e-06
5.44086e-06
5.4387e-06
5.4359e-06
5.4318e-06
5.4324e-06
5.43137e-06
5.42956e-06
5.42902e-06
5.42972e-06
5.43632e-06
5.44199e-06
5.44521e-06
5.44666e-06
5.44808e-06
5.44824e-06
5.44917e-06
5.45003e-06
5.45112e-06
5.45217e-06
5.4539e-06
5.45698e-06
5.46156e-06
5.46795e-06
5.47593e-06
5.48483e-06
5.49445e-06
5.5037e-06
5.51373e-06
5.52157e-06
5.7935e-06
5.78844e-06
5.7857e-06
5.78161e-06
5.77781e-06
5.77345e-06
5.76828e-06
5.76209e-06
5.75524e-06
5.74823e-06
5.74073e-06
5.7328e-06
5.72599e-06
5.71843e-06
5.71011e-06
5.70011e-06
5.68858e-06
5.68017e-06
5.67548e-06
5.67572e-06
5.666e-06
5.65624e-06
5.64911e-06
5.6422e-06
5.63197e-06
5.6295e-06
5.62787e-06
5.62491e-06
5.61502e-06
5.61129e-06
5.61187e-06
5.60911e-06
5.60602e-06
5.60193e-06
5.60196e-06
5.60125e-06
5.60001e-06
5.59973e-06
5.5995e-06
5.6051e-06
5.61225e-06
5.61828e-06
5.62221e-06
5.62566e-06
5.62822e-06
5.63054e-06
5.63266e-06
5.63492e-06
5.63722e-06
5.63972e-06
5.64286e-06
5.64693e-06
5.65219e-06
5.65879e-06
5.66642e-06
5.67513e-06
5.68393e-06
5.69411e-06
5.70226e-06
6.04468e-06
6.0382e-06
6.03439e-06
6.02873e-06
6.02326e-06
6.01689e-06
6.00991e-06
6.00211e-06
5.99378e-06
5.98512e-06
5.97616e-06
5.96678e-06
5.95745e-06
5.94685e-06
5.93529e-06
5.92327e-06
5.91206e-06
5.90451e-06
5.89975e-06
5.8952e-06
5.88308e-06
5.8726e-06
5.86399e-06
5.85492e-06
5.84475e-06
5.84139e-06
5.83798e-06
5.83316e-06
5.82229e-06
5.81762e-06
5.81748e-06
5.8141e-06
5.81058e-06
5.80648e-06
5.806e-06
5.8055e-06
5.80512e-06
5.80432e-06
5.80417e-06
5.80847e-06
5.81593e-06
5.82395e-06
5.83043e-06
5.83623e-06
5.84129e-06
5.84577e-06
5.8498e-06
5.8537e-06
5.85762e-06
5.8616e-06
5.86583e-06
5.87056e-06
5.87596e-06
5.88225e-06
5.88931e-06
5.89737e-06
5.90559e-06
5.91545e-06
5.92325e-06
6.34822e-06
6.33987e-06
6.33453e-06
6.32701e-06
6.31958e-06
6.31115e-06
6.30217e-06
6.29241e-06
6.28212e-06
6.27132e-06
6.26001e-06
6.24802e-06
6.2355e-06
6.22199e-06
6.20833e-06
6.19552e-06
6.18461e-06
6.17656e-06
6.16932e-06
6.16001e-06
6.14599e-06
6.13424e-06
6.12356e-06
6.11246e-06
6.10196e-06
6.09713e-06
6.09165e-06
6.08473e-06
6.07283e-06
6.06705e-06
6.06586e-06
6.06179e-06
6.05771e-06
6.05344e-06
6.05239e-06