/*--------------------------------*- C++ -*----------------------------------*\
| =========                 |                                                 |
| \\      /  F ield         | OpenFOAM: The Open Source CFD Toolbox           |
|  \\    /   O peration     | Version:  2312                                  |
|   \\  /    A nd           | Website:  www.openfoam.com                      |
|    \\/     M anipulation  |                                                 |
\*---------------------------------------------------------------------------*/
FoamFile
{
    version     2.0;
    format      ascii;
    arch        "LSB;label=32;scalar=64";
    class       volScalarField;
    location    "1500";
    object      nut;
}
// * * * * * * * * * * * * * * * * * * * * * * * * * * * * * * * * * * * * * //

dimensions      [0 2 -1 0 0 0 0];

internalField   nonuniform List<scalar> 
76025
(
0.000171128
0.000171229
0.000171265
0.000171275
0.000171328
0.000171457
0.000171555
0.000171702
0.000171815
0.000171952
0.000172089
0.000172238
0.000172445
0.000172612
0.000172839
0.000173063
0.000173333
0.000173638
0.000173938
0.000174256
0.000174584
0.000174941
0.000175289
0.000175647
0.000176049
0.000176389
0.000176823
0.000177195
0.000177658
0.000178066
0.000178536
0.000178994
0.000179489
0.000180013
0.000180553
0.000181114
0.000181721
0.000182349
0.000183051
0.000183785
0.000184589
0.000185496
0.000186483
0.000187617
0.000188877
0.000190367
0.000191994
0.000193905
0.00019614
0.000198635
0.000201601
0.000204947
0.000209036
0.00021353
0.000219555
0.000226105
0.000234684
0.00024524
0.000258573
0.000275467
0.000295351
0.000319879
0.000347746
0.000377417
0.000407225
0.000431846
0.000451965
0.000461028
0.000460825
0.000172838
0.000172935
0.000173147
0.000173325
0.000173361
0.000173432
0.000173517
0.000173636
0.000173763
0.000173899
0.000174044
0.000174189
0.000174363
0.000174539
0.000174747
0.000174958
0.000175199
0.000175457
0.00017574
0.000176036
0.000176352
0.000176686
0.00017704
0.000177401
0.000177793
0.000178176
0.000178597
0.000179023
0.000179478
0.000179949
0.000180454
0.000180964
0.000181516
0.000182091
0.000182708
0.000183365
0.000184064
0.000184826
0.000185656
0.000186559
0.000187563
0.000188661
0.000189909
0.000191293
0.000192867
0.000194631
0.000196639
0.000198933
0.000201533
0.000204549
0.000207994
0.000212089
0.000216838
0.000222696
0.000229683
0.000238467
0.000249393
0.000263066
0.000280021
0.000300351
0.000324362
0.000351079
0.000379313
0.000407111
0.000432456
0.000451748
0.000464189
0.000463611
0.000453122
0.000174826
0.000174954
0.000175089
0.00017525
0.000175384
0.000175514
0.000175644
0.000175782
0.000175929
0.000176081
0.000176244
0.000176409
0.000176589
0.000176774
0.000176981
0.000177199
0.000177437
0.000177692
0.000177968
0.000178262
0.000178576
0.000178909
0.000179264
0.000179636
0.000180032
0.000180445
0.000180886
0.000181348
0.00018184
0.000182357
0.00018291
0.000183494
0.000184117
0.000184782
0.000185495
0.000186262
0.00018709
0.00018799
0.000188974
0.000190049
0.000191236
0.000192552
0.000194021
0.000195661
0.000197505
0.00019958
0.000201937
0.000204617
0.000207699
0.000211258
0.000215441
0.000220381
0.000226356
0.000233618
0.000242606
0.000253756
0.000267559
0.000284457
0.000304602
0.000327985
0.000353888
0.000381266
0.000408414
0.000433102
0.000453209
0.000464993
0.000468712
0.000457958
0.000438629
0.000177043
0.000177206
0.000177366
0.000177531
0.000177696
0.00017786
0.000178025
0.000178193
0.000178365
0.000178541
0.000178725
0.000178915
0.000179115
0.000179323
0.000179544
0.000179778
0.000180028
0.000180295
0.000180582
0.000180887
0.000181214
0.000181561
0.000181932
0.000182324
0.000182742
0.000183186
0.000183661
0.000184166
0.000184705
0.00018528
0.000185895
0.000186554
0.00018726
0.000188019
0.000188837
0.000189723
0.000190684
0.00019173
0.000192877
0.000194133
0.000195521
0.000197064
0.000198786
0.000200715
0.000202885
0.000205343
0.000208143
0.00021136
0.000215088
0.000219465
0.000224659
0.000230917
0.000238538
0.000247909
0.000259456
0.000273611
0.000290717
0.000310897
0.000333967
0.000359306
0.000385828
0.000412025
0.00043588
0.00045524
0.000467895
0.000471107
0.000465393
0.000444782
0.000417823
0.000179549
0.000179744
0.000179937
0.00018013
0.000180325
0.000180521
0.000180719
0.00018092
0.000181124
0.000181332
0.000181545
0.000181765
0.000181993
0.00018223
0.000182478
0.000182739
0.000183014
0.000183305
0.000183614
0.000183944
0.000184295
0.000184668
0.000185067
0.00018549
0.000185944
0.000186431
0.000186952
0.000187511
0.000188111
0.000188754
0.000189446
0.000190191
0.000190994
0.000191862
0.000192802
0.000193824
0.000194937
0.000196155
0.000197492
0.000198962
0.000200592
0.000202409
0.000204444
0.000206735
0.000209329
0.000212288
0.000215693
0.000219649
0.0002243
0.000229834
0.000236496
0.000244594
0.000254491
0.000266577
0.000281213
0.000298648
0.000318913
0.000341736
0.00036647
0.000392081
0.000417143
0.000439925
0.000458431
0.000470713
0.000474813
0.00046907
0.000453735
0.000424282
0.00039137
0.000182482
0.00018269
0.000182904
0.000183121
0.000183343
0.000183569
0.000183799
0.000184034
0.000184272
0.000184516
0.000184766
0.000185022
0.000185286
0.00018556
0.000185844
0.000186141
0.000186451
0.000186778
0.000187124
0.000187489
0.000187877
0.00018829
0.000188728
0.000189198
0.000189702
0.000190243
0.000190825
0.000191452
0.000192126
0.000192854
0.000193639
0.000194488
0.000195408
0.000196406
0.000197493
0.000198678
0.000199976
0.000201401
0.000202971
0.000204708
0.000206641
0.000208808
0.00021125
0.000214022
0.000217192
0.000220849
0.000225114
0.00023014
0.000236128
0.000243331
0.00025205
0.000262623
0.000275388
0.000290623
0.000308474
0.000328867
0.000351454
0.000375555
0.000400176
0.000423998
0.000445469
0.00046283
0.000474346
0.000478338
0.000473335
0.000458686
0.000433931
0.000397531
0.000360383
0.000185982
0.000186188
0.000186408
0.000186636
0.000186874
0.000187122
0.000187378
0.000187641
0.000187912
0.000188191
0.000188478
0.000188774
0.000189079
0.000189395
0.000189723
0.000190064
0.000190421
0.000190795
0.000191188
0.000191602
0.000192041
0.000192507
0.000193002
0.000193533
0.000194104
0.000194719
0.00019538
0.000196094
0.000196864
0.000197698
0.000198601
0.000199581
0.000200647
0.00020181
0.00020308
0.000204472
0.000206002
0.000207692
0.000209564
0.000211648
0.000213983
0.000216622
0.000219627
0.000223077
0.000227074
0.000231751
0.000237275
0.00024386
0.000251756
0.000261253
0.000272646
0.000286204
0.000302111
0.0003204
0.000340899
0.000363179
0.000386549
0.000410039
0.000432456
0.000452379
0.000468311
0.000478636
0.000482048
0.000477071
0.00046306
0.000439851
0.000406505
0.000365833
0.000325993
0.000190171
0.000190374
0.000190593
0.000190824
0.000191071
0.000191332
0.000191606
0.000191892
0.00019219
0.0001925
0.000192823
0.000193158
0.000193506
0.000193867
0.000194244
0.000194637
0.000195047
0.000195478
0.000195931
0.000196408
0.000196913
0.000197447
0.000198019
0.000198632
0.000199292
0.000200001
0.000200767
0.000201594
0.000202489
0.000203461
0.000204516
0.000205665
0.00020692
0.000208294
0.000209803
0.000211465
0.000213303
0.000215346
0.000217626
0.00022019
0.000223089
0.000226406
0.000230232
0.000234683
0.000239908
0.000246086
0.000253432
0.00026219
0.000272615
0.000284946
0.000299366
0.00031595
0.000334623
0.000355115
0.000376943
0.000399399
0.000421577
0.000442361
0.000460521
0.000474691
0.000483555
0.000485777
0.000480514
0.000466439
0.000444042
0.000412788
0.000372654
0.000330853
0.000289345
0.000195172
0.000195379
0.000195602
0.00019584
0.000196095
0.000196368
0.000196658
0.000196965
0.000197288
0.000197627
0.000197984
0.000198358
0.000198749
0.000199158
0.000199588
0.000200038
0.00020051
0.000201007
0.000201531
0.000202085
0.00020267
0.000203295
0.000203965
0.000204685
0.000205458
0.000206292
0.000207194
0.000208169
0.000209228
0.00021038
0.000211635
0.000213009
0.000214515
0.000216172
0.000218003
0.000220035
0.000222301
0.000224844
0.000227714
0.000230981
0.000234723
0.000239059
0.000244121
0.000250066
0.000257081
0.000265372
0.000275154
0.000286629
0.000299959
0.000315225
0.000332396
0.000351292
0.000371567
0.0003927
0.000413998
0.000434598
0.000453517
0.000469626
0.000481782
0.000488785
0.000489577
0.000483195
0.000469171
0.00044639
0.000416574
0.000378084
0.000334301
0.000294252
0.000249842
0.000201126
0.00020135
0.000201591
0.000201846
0.00020212
0.000202412
0.000202725
0.000203057
0.000203409
0.000203782
0.000204177
0.000204593
0.000205033
0.000205496
0.000205985
0.0002065
0.000207044
0.000207619
0.000208227
0.000208872
0.000209562
0.000210302
0.000211096
0.000211951
0.000212872
0.000213868
0.000214947
0.000216119
0.000217396
0.000218791
0.000220319
0.000222
0.000223856
0.000225915
0.00022821
0.000230784
0.000233688
0.000236986
0.000240759
0.000245104
0.000250139
0.000256007
0.000262879
0.000270926
0.000280329
0.00029125
0.000303819
0.000318103
0.000334081
0.000351619
0.000370457
0.000390198
0.000410308
0.00043012
0.000448849
0.000465595
0.000479399
0.000489218
0.000494084
0.000493028
0.00048529
0.000470324
0.000447854
0.000417272
0.000381145
0.000337124
0.000293984
0.000254895
0.000208756
0.000208214
0.000208472
0.000208746
0.000209034
0.000209341
0.000209669
0.000210019
0.00021039
0.000210785
0.000211204
0.000211649
0.000212121
0.000212621
0.000213151
0.000213712
0.000214308
0.00021494
0.00021561
0.000216325
0.000217092
0.000217915
0.000218802
0.000219757
0.00022079
0.000221908
0.000223122
0.000224443
0.000225887
0.00022747
0.00022921
0.000231134
0.000233268
0.000235649
0.00023832
0.000241333
0.000244752
0.000248654
0.000253133
0.000258295
0.000264265
0.000271181
0.000279183
0.000288423
0.00029903
0.000311097
0.000324663
0.000339701
0.000356097
0.000373639
0.000392013
0.000410802
0.00042948
0.000447429
0.000463933
0.000478204
0.000489385
0.000496619
0.000499006
0.000495808
0.000486339
0.000470121
0.000447023
0.000416774
0.000379776
0.000338582
0.000292685
0.000252771
0.00021347
0.000179512
0.000216687
0.000216993
0.000217317
0.000217656
0.000218017
0.0002184
0.000218807
0.000219239
0.000219698
0.000220185
0.000220702
0.000221252
0.000221836
0.000222457
0.000223117
0.000223821
0.000224569
0.000225373
0.000226238
0.00022717
0.000228177
0.000229266
0.000230446
0.00023173
0.000233129
0.00023466
0.000236341
0.000238193
0.000240242
0.00024252
0.000245064
0.00024792
0.000251142
0.000254793
0.000258948
0.000263695
0.00026913
0.000275359
0.000282494
0.000290648
0.000299924
0.000310409
0.000322157
0.000335185
0.000349455
0.000364855
0.000381204
0.000398244
0.00041564
0.000432975
0.00044976
0.000465426
0.000479338
0.0004908
0.000499078
0.000503409
0.0005031
0.000497417
0.000485901
0.000468182
0.000443967
0.000413507
0.000376554
0.000334963
0.000290726
0.000247994
0.000210192
0.000174234
0.000163876
0.000226901
0.000227271
0.000227663
0.000228074
0.00022851
0.000228973
0.000229465
0.000229986
0.000230539
0.000231127
0.000231751
0.000232416
0.000233124
0.000233879
0.000234683
0.000235548
0.00023648
0.000237487
0.000238576
0.000239758
0.000241042
0.000242441
0.000243972
0.00024565
0.000247498
0.000249539
0.000251803
0.000254325
0.000257144
0.000260308
0.000263871
0.000267896
0.000272452
0.000277617
0.000283474
0.000290106
0.0002976
0.000306031
0.000315465
0.000325947
0.000337495
0.00035009
0.000363673
0.000378135
0.000393317
0.000409002
0.000424926
0.000440753
0.000456092
0.000470491
0.000483445
0.000494389
0.000502719
0.000507803
0.000508995
0.000505677
0.000497359
0.000483464
0.000463873
0.00043857
0.000407111
0.000370342
0.000328372
0.000284627
0.000241009
0.000203702
0.00016834
0.000145491
0.000158324
0.000239384
0.000239838
0.000240322
0.000240833
0.000241376
0.000241954
0.000242569
0.000243223
0.000243918
0.00024466
0.00024545
0.000246295
0.000247196
0.000248169
0.000249221
0.000250359
0.000251594
0.000252937
0.000254401
0.000256002
0.000257757
0.000259688
0.000261818
0.000264176
0.000266793
0.000269706
0.000272958
0.000276594
0.000280666
0.00028523
0.000290345
0.000296074
0.000302478
0.000309615
0.000317537
0.000326287
0.000335892
0.00034636
0.000357676
0.000369798
0.000382652
0.000396132
0.000410093
0.000424353
0.00043869
0.000452837
0.000466484
0.000479273
0.000490806
0.000500627
0.000508248
0.000513141
0.000514763
0.000512589
0.000506085
0.000494817
0.000478532
0.000456744
0.00042983
0.000398046
0.000360103
0.000318292
0.000274392
0.000232237
0.000192171
0.000161167
0.000133606
0.000135644
0.000155538
0.000254961
0.000255539
0.00025616
0.000256821
0.000257529
0.000258288
0.0002591
0.000259968
0.000260899
0.000261896
0.000262974
0.000264141
0.000265406
0.000266779
0.000268273
0.000269901
0.000271682
0.000273631
0.000275771
0.000278126
0.00028072
0.000283585
0.000286751
0.000290255
0.000294134
0.000298429
0.00030318
0.000308429
0.000314219
0.000320588
0.000327572
0.000335198
0.000343487
0.000352449
0.000362079
0.000372359
0.000383251
0.000394699
0.000406625
0.000418929
0.000431484
0.000444136
0.000456705
0.000468976
0.000480702
0.000491599
0.000501347
0.000509584
0.000515911
0.000519887
0.000521077
0.000519028
0.000513276
0.000503455
0.000489136
0.000470123
0.000446399
0.000417474
0.000384559
0.000345739
0.000302664
0.000260613
0.000219027
0.000180515
0.000148397
0.00012402
0.000114661
0.000136736
0.000153613
0.000275058
0.000275854
0.000276718
0.000277648
0.000278653
0.000279739
0.000280918
0.000282199
0.00028359
0.000285101
0.000286742
0.000288528
0.000290473
0.000292593
0.000294906
0.000297431
0.000300188
0.000303201
0.000306494
0.00031009
0.000314015
0.000318297
0.00032296
0.000328029
0.000333529
0.000339481
0.000345902
0.000352807
0.000360205
0.000368097
0.000376478
0.000385335
0.000394644
0.000404372
0.000414472
0.000424886
0.00043554
0.000446345
0.000457195
0.000467963
0.000478502
0.000488639
0.000498179
0.000506895
0.000514532
0.000520802
0.000525383
0.00052793
0.000528052
0.000525364
0.000519467
0.000510061
0.000496758
0.000479417
0.000457661
0.000431607
0.000401427
0.000366305
0.00032701
0.000284212
0.000242293
0.000203818
0.000166594
0.000135146
0.000112473
0.00010037
0.000116809
0.000137324
0.000148112
0.000302508
0.000303768
0.000305152
0.000306659
0.000308301
0.000310086
0.000312024
0.000314126
0.000316402
0.000318865
0.000321528
0.000324403
0.000327504
0.000330845
0.000334439
0.000338301
0.000342443
0.000346878
0.000351618
0.000356672
0.000362049
0.000367756
0.000373796
0.000380172
0.00038688
0.000393917
0.000401273
0.000408935
0.000416883
0.000425095
0.00043354
0.000442181
0.000450976
0.00045987
0.000468801
0.000477693
0.000486461
0.000495002
0.000503197
0.000510909
0.000517981
0.000524232
0.000529458
0.000533429
0.000535886
0.000536548
0.000535097
0.000531233
0.000524564
0.000514842
0.000501686
0.000485039
0.000464513
0.000440321
0.000411986
0.000380073
0.000342966
0.000302445
0.000262946
0.000221012
0.000184267
0.000151095
0.000120936
9.91665e-05
8.8885e-05
9.98726e-05
0.000118236
0.000133389
0.000147249
0.00034415
0.000346328
0.000348683
0.000351216
0.000353932
0.000356839
0.000359939
0.000363235
0.000366733
0.000370435
0.000374343
0.00037846
0.000382788
0.000387328
0.000392079
0.000397041
0.000402211
0.000407586
0.000413161
0.000418929
0.000424882
0.000431012
0.000437306
0.000443752
0.000450333
0.000457033
0.000463829
0.000470699
0.000477614
0.000484542
0.000491445
0.00049828
0.000504996
0.000511532
0.000517819
0.000523776
0.000529306
0.000534302
0.000538636
0.000542165
0.000544723
0.000546124
0.000546161
0.000544604
0.000541201
0.000535684
0.000527758
0.000517204
0.000503594
0.000487016
0.000466908
0.000443718
0.000416797
0.000386976
0.0003516
0.000314059
0.000274958
0.000235902
0.00019966
0.000162138
0.000132931
0.000106508
8.58369e-05
7.99149e-05
8.74414e-05
0.000100982
0.000117458
0.00013384
0.000140145
0.000410619
0.000413638
0.000416832
0.000420187
0.000423696
0.000427354
0.000431151
0.000435081
0.000439136
0.000443308
0.000447592
0.000451981
0.000456472
0.000461055
0.000465724
0.00047047
0.000475281
0.000480147
0.000485057
0.000489998
0.000494957
0.000499921
0.000504874
0.000509801
0.000514681
0.000519495
0.00052422
0.000528829
0.000533291
0.000537572
0.000541629
0.000545415
0.000548875
0.000551942
0.000554542
0.000556586
0.000557973
0.000558587
0.000558295
0.000556946
0.000554372
0.000550378
0.00054477
0.000537317
0.000527785
0.000515939
0.000501535
0.000484493
0.000464279
0.000441747
0.000415363
0.000387045
0.000352972
0.00031771
0.000279715
0.000243782
0.000207046
0.000172557
0.000141055
0.000112549
9.04539e-05
7.28888e-05
7.08537e-05
7.71769e-05
8.74868e-05
0.000101955
0.00011988
0.000132137
0.000126298
0.000501332
0.000504165
0.000507041
0.000509954
0.0005129
0.000515876
0.000518874
0.000521887
0.000524908
0.000527929
0.000530948
0.000533987
0.00053703
0.000540063
0.000543071
0.00054604
0.000548958
0.00055181
0.000554585
0.000557272
0.00055986
0.000562334
0.000564678
0.000566874
0.000568904
0.000570744
0.00057237
0.000573751
0.000574855
0.000575643
0.000576068
0.000576079
0.000575614
0.000574601
0.000572958
0.000570591
0.000567393
0.000563243
0.000558006
0.000551514
0.000543608
0.000534084
0.000522791
0.000509473
0.000493961
0.000476068
0.00045572
0.000432937
0.000407181
0.000379471
0.000346347
0.000313507
0.000276864
0.000243324
0.000207543
0.000176043
0.000144471
0.00011596
9.29984e-05
7.30022e-05
6.13977e-05
6.24027e-05
6.81967e-05
7.66895e-05
8.98141e-05
0.000106784
0.000120772
0.000124229
0.000107667
0.000594178
0.000595592
0.000596957
0.000598266
0.000599517
0.000600708
0.00060183
0.000602878
0.000603846
0.000604725
0.00060551
0.000606198
0.000606782
0.000607256
0.000607611
0.00060784
0.000607931
0.000607875
0.000607668
0.000607325
0.000606822
0.00060614
0.000605261
0.000604162
0.000602828
0.000601227
0.000599338
0.00059712
0.000594535
0.000591546
0.000588098
0.000584133
0.000579584
0.000574369
0.000568404
0.00056159
0.000553814
0.000544958
0.00053488
0.00052337
0.00051033
0.000495519
0.000478935
0.000460151
0.00043926
0.000416169
0.000391218
0.000362334
0.000331587
0.000298801
0.000265729
0.000234295
0.000201093
0.000171569
0.000141014
0.00011564
9.17519e-05
7.22047e-05
5.77291e-05
5.22125e-05
5.53694e-05
6.04866e-05
6.62766e-05
8.03034e-05
9.60156e-05
0.00010948
0.000116691
0.000111516
8.62136e-05
0.000662415
0.000661901
0.000661282
0.000660551
0.000659709
0.000658746
0.000657652
0.000656419
0.000655043
0.000653517
0.000651837
0.000649997
0.000647994
0.000645819
0.000643467
0.000640932
0.000638205
0.000635276
0.000632133
0.000628769
0.000625169
0.000621327
0.000617262
0.000612915
0.00060833
0.000603396
0.000598176
0.000592513
0.00058644
0.000579922
0.000572868
0.000565216
0.000556891
0.000547798
0.000537865
0.000526995
0.000515066
0.000501968
0.000487539
0.000471422
0.000453858
0.000434372
0.000413432
0.000389702
0.000363313
0.000335828
0.000305737
0.000276092
0.000245665
0.000215965
0.000186204
0.000159156
0.000131204
0.000107724
8.61524e-05
6.86469e-05
5.3809e-05
4.54687e-05
4.50588e-05
4.77307e-05
5.09301e-05
5.83394e-05
7.27633e-05
8.81718e-05
0.000100405
0.000107993
0.000108165
9.57479e-05
6.64705e-05
0.000686728
0.000684584
0.000682257
0.000679764
0.000677118
0.000674263
0.000671193
0.000667917
0.000664446
0.00066078
0.000656923
0.000652879
0.000648641
0.000644188
0.000639547
0.000634704
0.000629645
0.000624355
0.000618822
0.000613031
0.000606972
0.000600639
0.000594033
0.000586894
0.000579933
0.000572078
0.000564505
0.00055573
0.000546923
0.000537723
0.00052776
0.000517126
0.000505723
0.000493426
0.000480288
0.000466169
0.000450895
0.000434396
0.000416419
0.000395666
0.000374176
0.000349053
0.000324591
0.000297829
0.000270712
0.000243268
0.000215893
0.00018917
0.00016317
0.000137998
0.000115111
9.42193e-05
7.53345e-05
5.99539e-05
4.81581e-05
3.86778e-05
3.65797e-05
3.72066e-05
3.90822e-05
4.13254e-05
5.05666e-05
6.67055e-05
8.14537e-05
9.34202e-05
0.000100218
0.000102288
9.69739e-05
8.03996e-05
5.20243e-05
0.000655263
0.000651682
0.000647957
0.00064408
0.00064005
0.000635854
0.000631483
0.00062693
0.000622188
0.00061725
0.000612113
0.00060677
0.000601215
0.00059544
0.00058944
0.000583211
0.000576742
0.000570023
0.000563042
0.000555815
0.000548331
0.000540567
0.000532492
0.000524066
0.000515305
0.000506134
0.000496567
0.000486493
0.000475896
0.000464718
0.000452872
0.00044029
0.000426734
0.000412132
0.000396254
0.000379038
0.00036044
0.00034042
0.000319036
0.000296423
0.000273415
0.000249179
0.000225212
0.000200827
0.000176954
0.000153728
0.00013165
0.00011103
9.23964e-05
7.47982e-05
6.13017e-05
4.79365e-05
3.81637e-05
3.19235e-05
2.88802e-05
2.8951e-05
2.91493e-05
2.93651e-05
3.17915e-05
4.45952e-05
6.00435e-05
7.49471e-05
8.63327e-05
9.36173e-05
9.54785e-05
9.42932e-05
8.57442e-05
6.84153e-05
4.36533e-05
0.000562831
0.000558845
0.000554702
0.000550402
0.000545947
0.000541334
0.000536561
0.000531623
0.000526514
0.000521229
0.00051576
0.000510102
0.000504245
0.000498182
0.000491934
0.000485494
0.000478845
0.000471972
0.000464861
0.000457495
0.000449857
0.000441924
0.000433653
0.000425023
0.000415969
0.000406422
0.000396314
0.000385567
0.000374103
0.000361836
0.000348694
0.000334547
0.000319523
0.000303584
0.000286686
0.000268832
0.000250104
0.000230521
0.000210594
0.000189857
0.000169728
0.000149091
0.000130062
0.000111527
9.43753e-05
7.94934e-05
6.55227e-05
5.39282e-05
4.30823e-05
3.42436e-05
2.75566e-05
2.30931e-05
2.14787e-05
2.019e-05
2.00424e-05
1.87458e-05
1.767e-05
2.39118e-05
3.45284e-05
4.92512e-05
6.39943e-05
7.62588e-05
8.50442e-05
8.92357e-05
8.89229e-05
8.59209e-05
7.65319e-05
6.05795e-05
4.01161e-05
0.000412039
0.000408575
0.000405001
0.000401315
0.000397512
0.000393611
0.000389608
0.000385495
0.000381264
0.000376908
0.000372418
0.000367786
0.000363004
0.000358065
0.000352959
0.000347684
0.000342225
0.000336579
0.000330732
0.000324658
0.000318329
0.000311703
0.000304626
0.000297032
0.000288886
0.000280141
0.000270752
0.000260673
0.000249861
0.000238285
0.00022593
0.000212813
0.000198924
0.000184351
0.000169214
0.000153716
0.000138091
0.00012259
0.000107664
9.32098e-05
8.01896e-05
6.77109e-05
5.71814e-05
4.75774e-05
3.91403e-05
3.28284e-05
2.59476e-05
2.08778e-05
1.6986e-05
1.46502e-05
1.26309e-05
1.08473e-05
1.00113e-05
7.76949e-06
8.40733e-06
9.57669e-06
1.22843e-05
1.98265e-05
3.17846e-05
4.57824e-05
5.86689e-05
6.89323e-05
7.62531e-05
7.98546e-05
7.97725e-05
7.72739e-05
6.95792e-05
5.71276e-05
4.22889e-05
0.000228735
0.000226688
0.000224581
0.00022241
0.000220173
0.00021787
0.000215499
0.000213057
0.000210543
0.00020795
0.000205276
0.000202516
0.00019966
0.000196713
0.000193647
0.000190493
0.000187186
0.000183791
0.000180237
0.000176452
0.000172383
0.000167784
0.000162682
0.000157053
0.000150893
0.000144158
0.000136857
0.000129013
0.000120671
0.000111918
0.000102855
9.36133e-05
8.43469e-05
7.522e-05
6.64306e-05
5.81298e-05
5.04813e-05
4.34483e-05
3.70787e-05
3.13742e-05
2.64488e-05
2.19689e-05
1.84208e-05
1.48121e-05
1.20649e-05
9.2449e-06
7.48481e-06
5.79531e-06
4.56825e-06
3.55382e-06
2.86578e-06
3.31911e-06
3.7584e-06
3.43467e-06
3.32729e-06
3.89982e-06
5.99303e-06
9.89441e-06
1.66791e-05
2.64491e-05
3.7999e-05
4.78065e-05
5.55207e-05
6.10467e-05
6.33689e-05
6.34708e-05
5.95307e-05
5.1926e-05
4.2448e-05
6.98157e-05
6.91194e-05
6.84109e-05
6.76885e-05
6.69501e-05
6.61924e-05
6.54147e-05
6.46131e-05
6.37883e-05
6.29364e-05
6.2055e-05
6.11499e-05
6.01986e-05
5.92378e-05
5.81963e-05
5.71856e-05
5.60161e-05
5.49701e-05
5.36096e-05
5.18913e-05
4.98457e-05
4.75591e-05
4.50739e-05
4.24439e-05
3.97022e-05
3.69213e-05
3.41403e-05
3.14043e-05
2.87448e-05
2.61892e-05
2.37462e-05
2.1434e-05
1.92521e-05
1.7205e-05
1.52769e-05
1.34568e-05
1.17105e-05
1.00661e-05
8.51334e-06
7.05417e-06
5.62072e-06
4.33604e-06
3.12195e-06
2.22371e-06
1.57477e-06
1.18217e-06
9.90099e-07
9.46162e-07
8.93942e-07
7.58092e-07
6.78358e-07
6.11204e-07
4.81558e-07
3.79505e-07
3.49043e-07
4.6131e-07
7.36848e-07
1.28133e-06
2.42156e-06
4.70077e-06
8.5776e-06
1.35157e-05
1.69129e-05
2.05733e-05
2.33056e-05
2.4747e-05
2.49545e-05
2.34818e-05
2.05959e-05
6.38159e-06
6.46322e-06
6.54321e-06
6.62604e-06
6.70308e-06
6.78819e-06
6.8581e-06
6.94911e-06
7.0054e-06
7.09377e-06
7.13518e-06
7.20794e-06
7.24484e-06
7.31823e-06
7.34521e-06
7.37084e-06
7.39553e-06
7.41741e-06
7.45904e-06
7.51666e-06
7.55714e-06
7.58394e-06
7.58556e-06
7.57047e-06
7.5317e-06
7.47722e-06
7.3964e-06
7.28789e-06
7.14792e-06
6.96764e-06
6.73944e-06
6.45802e-06
6.11673e-06
5.70761e-06
5.2204e-06
4.6457e-06
3.97648e-06
3.21391e-06
2.37958e-06
1.54311e-06
8.07291e-07
3.12147e-07
1.17781e-07
1.02508e-07
1.06249e-07
1.00924e-07
8.886e-08
7.46732e-08
5.57023e-08
4.34164e-08
3.6396e-08
2.98371e-08
2.39337e-08
2.14023e-08
2.32324e-08
3.26945e-08
5.25331e-08
8.62685e-08
1.34718e-07
1.93922e-07
2.56065e-07
3.19421e-07
3.99722e-07
4.68071e-07
5.26353e-07
5.57509e-07
5.89518e-07
6.18148e-07
5.87612e-07
0.000171069
0.00017101
0.000171075
0.000171116
0.000171119
0.000171073
0.000171025
0.000170846
0.000170773
0.000170601
0.000170512
0.00017052
0.000170609
0.000170669
0.000170536
0.000170271
0.000170223
0.000170213
0.000170185
0.000169988
0.000169906
0.000170005
0.000169897
0.000169901
0.000169745
0.000169594
0.000169646
0.000169622
0.000169613
0.000169653
0.000169538
0.000169522
0.000169501
0.000169483
0.000169503
0.000169422
0.000169462
0.000169536
0.000169589
0.000169732
0.000169598
0.00016964
0.000169608
0.000169598
0.000169729
0.000169708
0.000169698
0.000169726
0.000169834
0.000170006
0.000170129
0.000170393
0.000170512
0.000170639
0.000170736
0.000170745
0.000170851
0.000170946
0.000171012
0.000172851
0.000172822
0.000172728
0.000172673
0.000172643
0.000172556
0.000172492
0.000172412
0.000172378
0.000172384
0.00017246
0.000172411
0.000172367
0.000172189
0.000172014
0.000171927
0.000171936
0.000171835
0.000171726
0.000171553
0.00017154
0.000171575
0.00017144
0.000171441
0.000171258
0.00017114
0.000171173
0.000171168
0.000171111
0.000171111
0.000171044
0.000171021
0.000170987
0.000170946
0.000170989
0.00017093
0.000170942
0.000171012
0.000171086
0.0001712
0.000171165
0.000171192
0.00017117
0.000171148
0.000171172
0.000171224
0.000171253
0.000171334
0.000171392
0.000171528
0.000171662
0.000171864
0.000172073
0.000172225
0.000172377
0.000172482
0.000172572
0.000172669
0.000172745
0.000175175
0.000175147
0.000175077
0.000174957
0.000174699
0.000174576
0.000174596
0.00017462
0.00017465
0.000174572
0.000174435
0.000174309
0.000174307
0.000174081
0.000173951
0.000173945
0.000173785
0.00017372
0.000173531
0.000173427
0.000173444
0.000173399
0.000173264
0.000173254
0.000173044
0.000172954
0.000172968
0.000172967
0.000172873
0.000172845
0.000172813
0.000172778
0.000172735
0.000172683
0.00017273
0.0001727
0.000172693
0.000172744
0.000172817
0.000172967
0.000172961
0.00017297
0.000172969
0.000172958
0.000172949
0.000173032
0.000172989
0.000173141
0.000173229
0.000173335
0.000173452
0.000173609
0.000173813
0.000174002
0.000174185
0.000174347
0.000174483
0.000174618
0.000174719
0.00017731
0.000177299
0.000177214
0.000177183
0.000177209
0.000177247
0.000177215
0.000177072
0.00017692
0.000176885
0.000176778
0.000176587
0.000176458
0.000176227
0.00017621
0.000176119
0.000176003
0.000175864
0.000175681
0.000175627
0.000175653
0.000175529
0.000175401
0.00017535
0.00017514
0.000175062
0.000175064
0.000175056
0.000174933
0.000174886
0.000174871
0.000174826
0.00017478
0.000174724
0.000174768
0.000174758
0.000174757
0.000174775
0.000174837
0.000175015
0.000175113
0.000175116
0.000175139
0.000175171
0.000175125
0.000175226
0.000175269
0.000175351
0.000175412
0.000175488
0.000175585
0.000175708
0.000175873
0.000176055
0.000176242
0.000176429
0.000176598
0.000176769
0.000176903
0.000180218
0.000180164
0.000180136
0.000180083
0.000180042
0.000179997
0.000179928
0.000179805
0.000179651
0.000179549
0.000179397
0.000179186
0.000179058
0.000178948
0.000178856
0.000178718
0.00017855
0.000178379
0.000178235
0.00017823
0.000178184
0.000178021
0.000177895
0.0001778
0.000177595
0.000177523
0.000177515
0.000177482
0.00017734
0.000177279
0.000177268
0.000177214
0.000177166
0.00017711
0.000177144
0.000177149
0.000177152
0.000177171
0.000177204
0.000177363
0.000177523
0.000177622
0.000177703
0.000177773
0.00017782
0.000177879
0.000177956
0.000177987
0.00017803
0.000178085
0.000178159
0.000178254
0.000178379
0.00017853
0.000178696
0.000178874
0.000179048
0.000179233
0.000179385
0.000183374
0.000183277
0.00018325
0.000183306
0.000183233
0.000183201
0.000183097
0.000182987
0.000182814
0.000182674
0.000182505
0.000182326
0.000182208
0.000182084
0.00018191
0.00018173
0.000181537
0.000181375
0.000181282
0.000181284
0.000181122
0.000180948
0.000180811
0.000180677
0.000180478
0.000180405
0.000180376
0.000180319
0.000180162
0.000180087
0.000180073
0.000180012
0.00017996
0.000179905
0.000179931
0.00017994
0.000179952
0.000179984
0.000179991
0.000180124
0.000180287
0.000180443
0.000180553
0.000180702
0.000180763
0.000180894
0.00018094
0.000180996
0.000181059
0.000181124
0.000181199
0.000181287
0.000181393
0.00018152
0.000181662
0.000181822
0.000181982
0.000182163
0.000182314
0.000187314
0.000187211
0.000187192
0.000187136
0.000187074
0.00018699
0.000186873
0.000186727
0.000186553
0.000186389
0.000186214
0.000186037
0.000185882
0.000185696
0.000185473
0.000185274
0.000185082
0.000184939
0.000184856
0.000184778
0.000184578
0.000184393
0.000184234
0.000184065
0.000183871
0.000183791
0.000183735
0.000183651
0.00018348
0.000183392
0.000183368
0.0001833
0.000183243
0.000183188
0.000183207
0.000183223
0.000183255
0.000183269
0.000183278
0.000183381
0.000183539
0.000183717
0.000183866
0.00018402
0.000184144
0.000184273
0.000184375
0.000184468
0.00018456
0.000184652
0.000184745
0.000184846
0.000184955
0.000185077
0.00018521
0.000185358
0.000185507
0.000185679
0.000185821
0.000191985
0.000191863
0.000191802
0.000191705
0.000191609
0.000191483
0.000191335
0.000191158
0.000190969
0.000190776
0.000190578
0.00019037
0.000190163
0.000189929
0.00018969
0.000189484
0.000189298
0.000189157
0.000189038
0.000188884
0.000188656
0.000188453
0.000188265
0.000188066
0.000187873
0.000187777
0.000187689
0.000187576
0.000187392
0.000187289
0.000187251
0.000187175