/*--------------------------------*- C++ -*----------------------------------*\
| =========                 |                                                 |
| \\      /  F ield         | OpenFOAM: The Open Source CFD Toolbox           |
|  \\    /   O peration     | Version:  2312                                  |
|   \\  /    A nd           | Website:  www.openfoam.com                      |
|    \\/     M anipulation  |                                                 |
\*---------------------------------------------------------------------------*/
FoamFile
{
    version     2.0;
    format      ascii;
    arch        "LSB;label=32;scalar=64";
    class       volScalarField;
    location    "1500";
    object      omega;
}
// * * * * * * * * * * * * * * * * * * * * * * * * * * * * * * * * * * * * * //

dimensions      [0 0 -1 0 0 0 0];

internalField   nonuniform List<scalar> 
76025
(
0.0293222
0.0293283
0.0293235
0.0293213
0.0293197
0.0293359
0.0293443
0.0293584
0.0293652
0.0293752
0.0293839
0.0293956
0.0294144
0.0294325
0.029459
0.0294817
0.0295092
0.0295363
0.0295635
0.0295954
0.02963
0.0296707
0.029711
0.0297555
0.0298061
0.029852
0.0299107
0.0299578
0.0300207
0.0300728
0.0301359
0.0301962
0.0302611
0.0303308
0.0304017
0.030476
0.0305572
0.0306412
0.0307363
0.0308357
0.0309467
0.0310748
0.0312159
0.0313817
0.0315684
0.0317928
0.0320417
0.032337
0.0326867
0.0330767
0.0335496
0.0340837
0.0347238
0.0354236
0.0363474
0.037332
0.0385867
0.0400932
0.0419404
0.0441787
0.0467528
0.0499173
0.0535361
0.057772
0.0625367
0.0680481
0.0744758
0.0827625
0.0920166
0.0296265
0.0296335
0.0296196
0.0296127
0.0296211
0.0296346
0.0296439
0.0296554
0.0296666
0.0296789
0.0296918
0.0297053
0.0297223
0.0297399
0.0297636
0.0297869
0.0298149
0.0298435
0.0298748
0.0299072
0.0299421
0.02998
0.0300209
0.0300634
0.0301113
0.0301581
0.0302118
0.0302663
0.0303258
0.0303881
0.0304552
0.0305235
0.0305985
0.0306766
0.0307615
0.0308525
0.0309498
0.0310575
0.0311759
0.0313061
0.0314528
0.031615
0.0318023
0.0320122
0.0322537
0.0325263
0.0328393
0.0331988
0.0336074
0.0340815
0.0346218
0.0352579
0.0359897
0.0368782
0.0379169
0.0391897
0.0407291
0.042594
0.0448314
0.0474565
0.0505362
0.0540313
0.0579766
0.0625127
0.0677124
0.0741542
0.0816844
0.0915424
0.103171
0.0299785
0.0299857
0.0299913
0.0299957
0.0300011
0.0300092
0.0300175
0.0300269
0.0300376
0.0300499
0.0300639
0.0300791
0.0300968
0.0301155
0.030138
0.0301622
0.0301899
0.0302198
0.0302526
0.0302876
0.030325
0.030365
0.030408
0.0304536
0.0305029
0.0305548
0.0306113
0.0306714
0.0307364
0.0308057
0.0308808
0.0309608
0.0310473
0.0311405
0.0312416
0.0313513
0.0314709
0.0316022
0.0317471
0.0319069
0.032085
0.0322846
0.0325093
0.0327622
0.0330481
0.0333717
0.0337403
0.0341599
0.0346419
0.0351961
0.0358424
0.036597
0.0374951
0.0385627
0.0398505
0.0414003
0.0432607
0.0454715
0.0480552
0.0510384
0.0544266
0.0582707
0.0626572
0.0677736
0.0737716
0.0811681
0.0898393
0.101441
0.11475
0.0303675
0.0303811
0.0303941
0.0304065
0.0304186
0.0304311
0.0304438
0.0304567
0.0304704
0.030485
0.0305012
0.0305186
0.0305381
0.0305592
0.0305827
0.0306086
0.0306372
0.0306686
0.0307029
0.0307401
0.0307804
0.0308237
0.0308703
0.0309201
0.0309738
0.0310316
0.0310943
0.0311619
0.0312351
0.031314
0.0313996
0.0314921
0.0315924
0.0317015
0.0318202
0.0319498
0.0320919
0.0322478
0.0324202
0.0326104
0.0328223
0.0330594
0.0333256
0.0336253
0.0339636
0.0343474
0.0347844
0.0352852
0.0358622
0.036533
0.0373184
0.0382474
0.0393528
0.0406758
0.0422585
0.0441423
0.0463614
0.0489368
0.0518853
0.0552208
0.0589869
0.0632619
0.0681846
0.0739721
0.0808549
0.0893865
0.0995539
0.113329
0.129373
0.0307987
0.0308202
0.030841
0.030861
0.0308807
0.0309004
0.03092
0.0309396
0.0309594
0.0309798
0.0310009
0.0310231
0.0310467
0.0310719
0.0310991
0.0311284
0.0311602
0.0311947
0.0312322
0.0312728
0.0313168
0.0313643
0.0314158
0.0314708
0.0315308
0.031596
0.0316669
0.0317437
0.0318272
0.0319178
0.0320163
0.0321235
0.0322402
0.0323676
0.0325069
0.0326594
0.032827
0.0330114
0.0332154
0.0334409
0.0336922
0.0339737
0.03429
0.0346467
0.0350507
0.0355105
0.036037
0.0366439
0.0373491
0.0381747
0.0391486
0.0403037
0.0416773
0.0433075
0.0452292
0.0474697
0.0500459
0.0529703
0.0562589
0.0599507
0.0641221
0.0688998
0.0744746
0.0811055
0.0891201
0.0990551
0.111143
0.127674
0.147235
0.031298
0.0313241
0.0313506
0.0313769
0.0314034
0.0314302
0.0314571
0.0314841
0.0315115
0.0315392
0.0315675
0.0315966
0.0316269
0.0316584
0.0316917
0.0317269
0.0317644
0.0318045
0.0318475
0.0318938
0.0319436
0.0319973
0.0320552
0.0321179
0.0321862
0.0322607
0.0323417
0.03243
0.0325262
0.0326309
0.0327452
0.0328699
0.0330062
0.0331554
0.033319
0.0334986
0.0336965
0.0339149
0.0341567
0.034425
0.0347244
0.0350606
0.0354397
0.0358691
0.036358
0.0369183
0.0375646
0.0383155
0.039194
0.0402274
0.0414471
0.0428867
0.044579
0.0465522
0.0488268
0.0514158
0.0543294
0.0575856
0.0612227
0.0653159
0.0699824
0.0754009
0.0818014
0.0895055
0.0989188
0.110586
0.125229
0.145204
0.170357
0.0318963
0.031923
0.0319515
0.031981
0.0320118
0.0320438
0.0320766
0.0321102
0.0321446
0.0321798
0.0322159
0.0322529
0.0322911
0.0323307
0.032372
0.0324152
0.0324607
0.0325089
0.03256
0.0326145
0.0326729
0.0327354
0.0328026
0.0328758
0.0329553
0.033042
0.0331363
0.0332392
0.0333514
0.0334739
0.0336078
0.0337542
0.0339147
0.0340907
0.0342842
0.0344973
0.0347326
0.0349931
0.0352823
0.0356045
0.0359651
0.0363722
0.0368339
0.0373604
0.0379644
0.0386618
0.0394719
0.0404178
0.0415259
0.042825
0.0443443
0.0461104
0.0481446
0.0504613
0.0530701
0.0559811
0.0592141
0.0628111
0.0668436
0.071429
0.0767254
0.0829633
0.0904069
0.0994777
0.110623
0.124531
0.142616
0.167135
0.201709
0.0326201
0.0326459
0.0326743
0.0327047
0.0327374
0.0327722
0.0328089
0.0328474
0.0328874
0.032929
0.0329722
0.0330169
0.0330634
0.0331117
0.033162
0.0332147
0.03327
0.0333282
0.0333898
0.0334551
0.0335247
0.0335989
0.0336792
0.0337662
0.0338606
0.0339632
0.0340749
0.0341966
0.0343294
0.0344746
0.0346333
0.0348072
0.0349982
0.0352081
0.0354394
0.035695
0.035978
0.0362927
0.0366436
0.0370371
0.0374797
0.0379829
0.0385577
0.0392182
0.0399809
0.0408656
0.0418947
0.0430927
0.0444848
0.0460945
0.0479417
0.0500413
0.052403
0.0550345
0.0579475
0.0611658
0.0647339
0.0687275
0.0732558
0.0784776
0.0845938
0.0918874
0.100663
0.111489
0.1248
0.141763
0.164516
0.195584
0.246657
0.0334918
0.0335178
0.0335466
0.0335777
0.0336116
0.0336484
0.0336879
0.03373
0.0337745
0.0338215
0.033871
0.0339229
0.0339774
0.0340344
0.0340943
0.0341572
0.0342234
0.0342933
0.0343672
0.0344457
0.034529
0.0346186
0.0347154
0.0348201
0.0349336
0.0350567
0.0351907
0.0353366
0.0354959
0.0356701
0.0358608
0.0360702
0.0363005
0.0365545
0.0368354
0.0371469
0.0374938
0.0378817
0.0383171
0.0388091
0.0393663
0.040004
0.0407367
0.0415816
0.0425578
0.043686
0.0449874
0.0464822
0.0481876
0.0501173
0.0522806
0.0546846
0.0573375
0.0602544
0.0634646
0.0670174
0.0709898
0.075494
0.0806763
0.0867378
0.0939281
0.102584
0.113079
0.126176
0.142278
0.163628
0.192736
0.234598
0.315105
0.0345345
0.0345632
0.0345945
0.0346281
0.0346647
0.0347045
0.0347474
0.0347935
0.0348428
0.0348954
0.0349512
0.0350105
0.0350731
0.0351394
0.0352094
0.0352835
0.0353618
0.0354449
0.035533
0.0356267
0.0357275
0.0358361
0.0359534
0.0360802
0.0362177
0.036367
0.0365295
0.0367066
0.0369003
0.0371124
0.0373453
0.0376018
0.037885
0.0381988
0.0385477
0.0389371
0.0393736
0.0398652
0.040421
0.0410524
0.0417721
0.0425954
0.0435403
0.0446241
0.0458642
0.0472771
0.0488771
0.0506757
0.0526812
0.0549
0.0573389
0.0600091
0.0629314
0.0661406
0.0696928
0.073668
0.0781768
0.0833689
0.0894276
0.0966029
0.105206
0.11563
0.128385
0.144455
0.16438
0.192233
0.230302
0.292412
0.42565
0.0357777
0.0358118
0.0358485
0.0358874
0.0359293
0.0359746
0.0360233
0.0360755
0.0361315
0.0361913
0.0362552
0.0363233
0.0363957
0.0364727
0.0365546
0.0366417
0.0367343
0.0368329
0.0369382
0.0370517
0.037174
0.0373062
0.0374492
0.0376043
0.0377727
0.037956
0.0381561
0.0383749
0.038615
0.038879
0.0391703
0.0394929
0.0398511
0.0402505
0.0406974
0.0411995
0.0417655
0.0424054
0.0431308
0.0439542
0.0448896
0.0459502
0.0471523
0.048509
0.0500316
0.0517292
0.0536085
0.0556753
0.0579359
0.0603997
0.0630833
0.0660138
0.0692339
0.0728038
0.0768097
0.0813627
0.0866079
0.0927373
0.0999721
0.108631
0.119104
0.131851
0.147652
0.167718
0.193343
0.230863
0.283152
0.383992
0.583165
0.0372636
0.0373055
0.0373503
0.0373974
0.0374477
0.0375017
0.0375595
0.0376212
0.0376871
0.0377575
0.0378326
0.0379128
0.0379984
0.0380896
0.0381869
0.0382909
0.0384015
0.0385209
0.0386499
0.0387892
0.0389401
0.0391036
0.0392812
0.0394746
0.0396855
0.0399162
0.0401693
0.0404475
0.0407545
0.0410941
0.0414711
0.0418909
0.0423596
0.0428845
0.0434736
0.0441361
0.0448819
0.0457213
0.0466655
0.0477252
0.0489111
0.0502327
0.0516981
0.0533151
0.0550906
0.0570293
0.0591375
0.0614245
0.063905
0.0666018
0.0695498
0.0727974
0.0764131
0.0804834
0.085127
0.0904865
0.0967469
0.104154
0.11297
0.123624
0.136601
0.152477
0.172517
0.198274
0.233024
0.284953
0.363873
0.530024
0.771845
0.0390527
0.0391046
0.03916
0.0392183
0.0392805
0.0393469
0.0394178
0.0394932
0.0395737
0.0396595
0.039751
0.0398487
0.039953
0.0400647
0.0401837
0.0403121
0.0404509
0.0406011
0.0407639
0.0409406
0.0411328
0.0413422
0.0415708
0.0418211
0.0420957
0.0423977
0.0427307
0.0430989
0.0435068
0.0439597
0.0444636
0.045025
0.045651
0.0463493
0.0471281
0.0479955
0.0489598
0.0500287
0.0512098
0.0525095
0.0539335
0.055487
0.0571748
0.0590021
0.0609759
0.0631059
0.0654086
0.0679043
0.0706232
0.0736064
0.0769103
0.0806063
0.0847908
0.0895771
0.0951232
0.101606
0.109264
0.118418
0.129377
0.142764
0.15917
0.17943
0.205648
0.240288
0.289981
0.36492
0.495351
0.734173
0.93599
0.0412329
0.0412976
0.0413669
0.0414403
0.0415187
0.0416026
0.0416921
0.0417876
0.0418895
0.0419983
0.0421146
0.0422391
0.042372
0.042516
0.0426718
0.0428405
0.0430235
0.0432223
0.0434387
0.0436746
0.0439323
0.0442142
0.0445234
0.0448629
0.0452363
0.0456476
0.0461012
0.0466019
0.0471548
0.0477655
0.0484396
0.0491832
0.0500022
0.0509024
0.0518894
0.0529685
0.0541444
0.0554217
0.0568046
0.0582971
0.059904
0.0616311
0.0634861
0.0654798
0.0676271
0.0699486
0.0724722
0.0752344
0.0782845
0.0816838
0.0855125
0.0898663
0.0948758
0.100682
0.107501
0.115547
0.125139
0.136715
0.150628
0.167865
0.189145
0.215911
0.251769
0.301523
0.375599
0.491702
0.701189
0.952144
1.00914
0.0439372
0.0440201
0.0441096
0.0442053
0.044308
0.0444185
0.044537
0.044664
0.0448002
0.044946
0.0451038
0.0452747
0.0454595
0.0456597
0.0458769
0.0461126
0.0463687
0.0466474
0.0469509
0.0472817
0.0476426
0.0480365
0.0484666
0.0489364
0.0494495
0.0500096
0.0506206
0.0512866
0.0520116
0.0527997
0.0536547
0.0545802
0.0555801
0.0566577
0.0578164
0.0590599
0.0603918
0.0618167
0.06334
0.0649686
0.0667116
0.0685809
0.0705922
0.0727658
0.075128
0.0777124
0.0805616
0.0837294
0.0872838
0.0913088
0.0959159
0.101228
0.107425
0.114677
0.123297
0.133532
0.145847
0.160863
0.178956
0.201879
0.23054
0.267656
0.319876
0.396329
0.510579
0.697352
0.95906
1.05284
1.02781
0.0473858
0.0474996
0.0476236
0.0477572
0.0479018
0.0480577
0.048227
0.0484105
0.048609
0.0488234
0.049055
0.0493052
0.0495753
0.0498671
0.0501821
0.0505223
0.0508895
0.0512858
0.0517133
0.0521743
0.0526711
0.053206
0.0537815
0.0544001
0.0550641
0.0557762
0.0565387
0.0573542
0.0582253
0.0591544
0.0601442
0.0611977
0.0623183
0.0635096
0.0647762
0.0661236
0.0675585
0.0690894
0.0707268
0.0724838
0.0743769
0.0764263
0.0786574
0.0811017
0.0837981
0.0867944
0.0901505
0.0939401
0.0982564
0.103212
0.108962
0.11566
0.123569
0.13288
0.144093
0.15745
0.173711
0.193791
0.218097
0.250087
0.290687
0.345479
0.42755
0.549921
0.728937
0.98467
1.09058
1.08114
0.995997
0.0519704
0.0521425
0.0523309
0.0525348
0.0527556
0.0529938
0.0532502
0.0535255
0.0538208
0.0541369
0.0544748
0.0548357
0.0552205
0.0556304
0.0560665
0.0565301
0.0570223
0.0575444
0.0580978
0.0586836
0.0593032
0.0599581
0.0606497
0.0613796
0.0621495
0.0629615
0.0638175
0.0647202
0.0656724
0.0666775
0.0677394
0.068863
0.0700539
0.0713189
0.0726663
0.0741059
0.0756494
0.0773109
0.0791075
0.0810598
0.0831924
0.0855353
0.0881249
0.0910053
0.0942306
0.0978669
0.101997
0.106721
0.112171
0.118498
0.125926
0.134637
0.145057
0.157351
0.172416
0.190351
0.212624
0.240632
0.27485
0.322316
0.383302
0.47083
0.607138
0.800914
1.03871
1.13075
1.12351
1.06093
0.900413
0.0583684
0.0586224
0.0588969
0.0591907
0.0595047
0.059839
0.0601936
0.0605687
0.0609646
0.0613815
0.0618198
0.0622798
0.0627619
0.0632666
0.0637944
0.0643459
0.0649217
0.0655227
0.0661497
0.0668038
0.0674862
0.0681985
0.0689423
0.0697199
0.0705337
0.0713867
0.0722825
0.0732252
0.0742199
0.0752722
0.076389
0.0775784
0.0788496
0.0802136
0.0816831
0.0832732
0.0850015
0.0868887
0.0889594
0.0912428
0.0937736
0.0965937
0.0997537
0.103315
0.107353
0.11196
0.117255
0.123376
0.130519
0.138884
0.148823
0.160513
0.174738
0.191476
0.212557
0.237583
0.269711
0.31082
0.361936
0.437369
0.53557
0.684939
0.907043
1.10672
1.16974
1.15967
1.09774
0.951818
0.793015
0.0672475
0.0675549
0.0678855
0.0682366
0.0686079
0.0689987
0.0694082
0.0698358
0.0702813
0.0707443
0.0712249
0.0717236
0.0722406
0.0727766
0.0733321
0.0739079
0.0745047
0.0751238
0.0757665
0.0764345
0.0771299
0.0778553
0.0786137
0.0794086
0.0802443
0.0811255
0.0820582
0.0830488
0.084105
0.0852358
0.0864514
0.0877636
0.0891862
0.0907348
0.0924278
0.0942865
0.0963357
0.0986046
0.101128
0.103946
0.107107
0.110672
0.114712
0.119314
0.124589
0.130668
0.137735
0.145979
0.155721
0.167187
0.181024
0.197252
0.217564
0.241308
0.27246
0.309149
0.358222
0.421957
0.504774
0.632275
0.80057
1.04858
1.19777
1.21575
1.19058
1.10396
0.960095
0.821966
0.701383
0.078994
0.0793227
0.0796643
0.0800182
0.0803854
0.0807661
0.0811603
0.0815682
0.08199
0.0824259
0.0828775
0.0833501
0.0838434
0.0843573
0.0848922
0.0854491
0.0860291
0.0866339
0.0872659
0.0879284
0.088625
0.0893596
0.090137
0.0909626
0.0918427
0.0927847
0.0937968
0.0948887
0.0960714
0.0973575
0.0987616
0.1003
0.101993
0.103862
0.105932
0.108235
0.110805
0.113683
0.116919
0.120573
0.124713
0.12943
0.134828
0.141043
0.148239
0.156619
0.166482
0.178079
0.191966
0.208354
0.228606
0.252163
0.282962
0.318441
0.367079
0.423985
0.503375
0.609769
0.754825
0.975247
1.21008
1.28936
1.27699
1.21948
1.07282
0.923684
0.80907
0.708932
0.629845
0.0939062
0.0942264
0.094553
0.0948864
0.0952281
0.0955792
0.0959405
0.0963128
0.0966971
0.0970947
0.0975069
0.0979358
0.0983837
0.0988525
0.0993446
0.0998623
0.100408
0.100986
0.101602
0.102264
0.102976
0.103743
0.104573
0.105472
0.10645
0.107517
0.108686
0.109968
0.111381
0.112941
0.114668
0.116588
0.118727
0.121117
0.123795
0.126805
0.1302
0.134041
0.138402
0.143374
0.149064
0.155617
0.163195
0.172021
0.182352
0.194528
0.209045
0.226242
0.24717
0.271991
0.303483
0.339647
0.389129
0.44525
0.524876
0.619891
0.755928
0.94768
1.19897
1.36876
1.37114
1.33442
1.21219
0.993523
0.839617
0.750784
0.684166
0.620601
0.577848
0.11288
0.113175
0.113473
0.113776
0.114085
0.114404
0.114732
0.115072
0.115425
0.115794
0.116181
0.116588
0.117019
0.117477
0.117965
0.118487
0.119049
0.119654
0.12031
0.121023
0.121801
0.122657
0.123608
0.124664
0.125836
0.127141
0.128592
0.13021
0.132017
0.134038
0.136304
0.13885
0.141717
0.144954
0.148618
0.152777
0.157515
0.162934
0.169145
0.176314
0.184596
0.194278
0.205585
0.218967
0.234818
0.25378
0.276613
0.303958
0.337525
0.377904
0.429041
0.488413
0.571256
0.667053
0.801916
0.974298
1.21411
1.44623
1.50187
1.479
1.36294
1.12902
0.860358
0.718062
0.657477
0.624418
0.591383
0.555182
0.534533
0.137888
0.138166
0.138448
0.138734
0.139029
0.139334
0.139654
0.139989
0.140344
0.140721
0.141125
0.141558
0.142026
0.142532
0.143083
0.143684
0.144343
0.145066
0.145864
0.146746
0.147724
0.148817
0.150047
0.151429
0.152981
0.154725
0.156686
0.158894
0.161382
0.164193
0.167375
0.170984
0.175089
0.179769
0.185123
0.19127
0.198353
0.206556
0.216076
0.22725
0.240305
0.255902
0.274251
0.296435
0.322893
0.354884
0.393436
0.440043
0.49625
0.567095
0.650691
0.758571
0.898763
1.07605
1.30067
1.55446
1.64798
1.63575
1.52356
1.31332
0.93019
0.681188
0.581752
0.549915
0.54348
0.537747
0.523991
0.50411
0.490235
0.173125
0.173433
0.173747
0.174069
0.174405
0.174759
0.175134
0.175535
0.175967
0.176435
0.176944
0.1775
0.178109
0.178778
0.179517
0.180334
0.181241
0.182249
0.183371
0.18463
0.186045
0.187633
0.189417
0.191423
0.193683
0.196233
0.199118
0.202388
0.206106
0.210344
0.21519
0.220747
0.227143
0.234536
0.243115
0.253117
0.264824
0.278631
0.294883
0.314417
0.337336
0.365485
0.398352
0.438691
0.486567
0.543871
0.612464
0.694654
0.792497
0.923431
1.0583
1.27302
1.4976
1.72057
1.81253
1.80405
1.69754
1.50628
1.06201
0.696719
0.533421
0.468273
0.453839
0.460431
0.471863
0.476122
0.472738
0.461208
0.448275
0.228383
0.228834
0.229296
0.229776
0.23028
0.230816
0.231391
0.232011
0.232682
0.233414
0.234213
0.235088
0.236049
0.237107
0.238286
0.2396
0.241061
0.242685
0.244489
0.246495
0.248731
0.25123
0.254039
0.257212
0.260812
0.264913
0.269604
0.274989
0.281196
0.288377
0.296718
0.306445
0.31784
0.331247
0.347099
0.365919
0.388326
0.415235
0.447127
0.48618
0.531234
0.587524
0.651025
0.728313
0.819839
0.919478
1.04625
1.1832
1.37485
1.59093
1.82182
1.97584
1.99267
1.98568
1.86477
1.66892
1.18983
0.76782
0.559904
0.450965
0.40384
0.390432
0.394221
0.408336
0.422806
0.430698
0.432058
0.425435
0.41245
0.332209
0.333012
0.333848
0.334722
0.335642
0.336631
0.337695
0.338843
0.34008
0.341416
0.342863
0.344432
0.346139
0.347997
0.35003
0.352253
0.3547
0.357388
0.36035
0.363637
0.367312
0.371464
0.376294
0.381929
0.388516
0.396232
0.405289
0.415942
0.428502
0.443349
0.460943
0.48185
0.50676
0.536489
0.572062
0.614574
0.665327
0.725895
0.79665
0.881414
0.975656
1.0903
1.21153
1.35269
1.51443
1.65459
1.88859
2.11274
2.27384
2.27413
2.23905
2.19036
2.0112
1.72352
1.19567
0.889222
0.697692
0.557348
0.467216
0.409093
0.381443
0.374424
0.378849
0.389421
0.400411
0.407417
0.409755
0.405669
0.392683
0.578909
0.580733
0.582589
0.584486
0.586443
0.588481
0.590615
0.592868
0.595251
0.597791
0.600506
0.603416
0.606562
0.609939
0.61365
0.617615
0.622062
0.626806
0.632122
0.638311
0.645649
0.655021
0.666618
0.68081
0.698003
0.71871
0.743499
0.77306
0.808213
0.849893
0.899171
0.957303
1.02562
1.10564
1.19863
1.30576
1.42776
1.56493
1.71593
1.88162
2.05228
2.24144
2.40609
2.60235
2.72829
2.89839
2.8319
2.73825
2.55242
2.34788
2.04071
1.4621
1.08541
0.883187
0.806809
0.805864
0.807406
0.761285
0.66306
0.559496
0.483602
0.452393
0.441891
0.439998
0.441551
0.443216
0.442902
0.437396
0.422267
1.49427
1.49799
1.50172
1.50553
1.50939
1.5134
1.51748
1.52181
1.52621
1.53097
1.5359
1.54111
1.54688
1.55261
1.55978
1.56582
1.57547
1.58142
1.59578
1.62057
1.65599
1.7014
1.75692
1.82303
1.89996
1.98843
2.0885
2.20068
2.32521
2.46202
2.61083
2.77149
2.94278
3.12398
3.31148
3.50362
3.6935
3.87749
4.04651
4.1896
4.30466
4.35355
4.31685
4.20457
4.03655
3.58132
2.95552
2.28893
1.75091
1.44098
1.30049
1.23766
1.23618
1.32135
1.52256
1.6921
1.78135
1.8005
1.67848
1.45079
1.18083
0.987178
0.945548
0.89937
0.868373
0.845805
0.830381
0.816016
0.784073
8.59848
8.59254
8.58557
8.57787
8.56878
8.55936
8.54772
8.53693
8.52197
8.50962
8.49066
8.47486
8.45396
8.43576
8.41175
8.38684
8.36366
8.33472
8.30938
8.28357
8.25502
8.2244
8.19028
8.15422
8.11534
8.07464
8.03036
7.98309
7.93215
7.87655
7.81601
7.75037
7.67912
7.60159
7.51691
7.42444
7.32376
7.21537
7.10132
6.98816
6.88464
6.8025
6.74666
6.70696
6.6692
6.63082
6.59206
6.55341
6.51464
6.4768
6.43983
6.40342
6.3676
6.33266
6.29873
6.26612
6.23511
6.20602
6.17895
6.15367
6.12961
6.10669
6.08621
6.06599
6.04623
6.02575
6.00662
5.98875
5.96815
0.0293745
0.0293742
0.0293818
0.029394
0.0294106
0.0294236
0.0294311
0.0294252
0.0294201
0.0294142
0.0294134
0.0294228
0.0294601
0.029482
0.0294881
0.0294644
0.0294714
0.0294866
0.0294914
0.0294645
0.0294522
0.0294669
0.0294546
0.0294595
0.0294416
0.0294275
0.0294473
0.0294486
0.0294441
0.0294553
0.029446
0.0294533
0.0294513
0.0294407
0.0294383
0.029413
0.029409
0.0294087
0.029408
0.0294193
0.0293881
0.0293877
0.0293729
0.0293474
0.0293385
0.0293261
0.0293087
0.029293
0.0293005
0.029316
0.0293303
0.0293473
0.0293501
0.0293337
0.0293247
0.0293259
0.0293172
0.0293164
0.0293234
0.0297004
0.0296965
0.0297104
0.0297173
0.0297177
0.0297153
0.0297023
0.0296966
0.0296889
0.0296959
0.029713
0.0297374
0.0297523
0.0297521
0.0297335
0.0297286
0.0297413
0.0297484
0.02973
0.0297067
0.0297052
0.029711
0.0296953
0.0296995
0.0296774
0.0296708
0.0296845
0.0296882
0.029676
0.0296803
0.0296794
0.0296843
0.0296797
0.0296662
0.0296669
0.0296498
0.0296373
0.0296382
0.0296396
0.0296483
0.0296362
0.0296286
0.029618
0.0296026
0.0295883
0.0295729
0.0295613
0.0295387
0.0295419
0.0295555
0.0295705
0.0295933
0.0296126
0.0296205
0.029623
0.029624
0.029623
0.029625
0.0296258
0.0300571
0.030053
0.0300497
0.0300544
0.0300471
0.0300537
0.0300408
0.0300439
0.0300515
0.0300635
0.0300731
0.0300744
0.0300576
0.0300552
0.0300511
0.030055
0.0300587
0.0300407
0.0300171
0.030003
0.0300081
0.0300025
0.0299868
0.0299886
0.0299642
0.0299611
0.0299707
0.0299747
0.0299567
0.0299563
0.0299611
0.0299631
0.0299568
0.0299424
0.0299428
0.0299305
0.029917
0.0299147
0.0299167
0.0299245
0.0299217
0.0299163
0.029908
0.0298978
0.0298895
0.0298724
0.0298657
0.0298428
0.0298339
0.0298402
0.0298548
0.0298753
0.0299002
0.0299215
0.0299383
0.0299514
0.0299603
0.0299699
0.0299745
0.0305011
0.0304857
0.0304898
0.0304872
0.0304731
0.0304781
0.0304746
0.0304629
0.0304639
0.0304581
0.0304531
0.0304494
0.0304429
0.0304467
0.0304308
0.0304351
0.0304114
0.0303894
0.0303677
0.0303631
0.0303683
0.0303499
0.0303354
0.0303318
0.0303078
0.0303076
0.0303125
0.0303143
0.0302922
0.0302888
0.0302959
0.0302953
0.0302882
0.0302743
0.0302733
0.0302645
0.030252
0.0302479
0.0302473
0.0302556
0.0302559
0.0302535
0.0302492
0.0302435
0.0302357
0.0302249
0.0302172
0.0302051
0.0301969
0.0301967
0.0302045
0.0302187
0.0302391
0.0302622
0.0302849
0.0303068
0.030325
0.0303439
0.0303561
0.0309815
0.0309691
0.0309637
0.0309582
0.0309524
0.030949
0.0309426
0.0309354
0.0309312
0.0309211
0.0309129
0.0309075
0.0308978
0.0308839
0.0308723
0.0308608
0.0308308
0.0308088
0.0307933
0.0307949
0.0307876
0.0307644
0.0307502
0.0307409
0.0307176
0.0307179
0.0307188
0.0307167
0.0306914
0.0306857
0.0306928
0.03069
0.0306825
0.0306691
0.0306666
0.0306599
0.0306491
0.0306428
0.030641
0.0306508
0.0306551
0.0306562
0.0306504
0.0306463
0.0306391
0.0306342
0.0306257
0.0306266
0.030625
0.0306252
0.0306298
0.0306391
0.0306535
0.0306724
0.0306937
0.0307168
0.0307387
0.0307628
0.0307805
0.0315939
0.031583
0.0315727
0.0315407
0.0315325
0.0315144
0.031504
0.0314891
0.0314813
0.0314671
0.0314553
0.0314427
0.0314255
0.0314054
0.0313898
0.0313657
0.0313356
0.0313172
0.0313074
0.0313085
0.0312827
0.0312589
0.0312432
0.0312282
0.0312059
0.0312048
0.0312008
0.0311942
0.0311666
0.0311587
0.0311645
0.0311597
0.0311514
0.0311384
0.031134
0.0311285
0.0311194
0.0311124
0.0311099
0.0311181
0.0311295
0.0311361
0.0311388
0.0311321
0.0311359
0.0311262
0.03113
0.0311328
0.0311348
0.0311372
0.0311417
0.0311491
0.0311598
0.0311745
0.031192
0.0312126
0.0312335
0.0312582
0.0312772
0.0322703
0.0322535
0.0322363
0.0322158
0.0321973
0.0321775
0.0321604
0.0321438
0.0321292
0.032111
0.032093
0.0320732
0.0320496
0.0320248
0.0320009
0.0319704
0.031943
0.0319268
0.0319155
0.0319042
0.0318732
0.0318483
0.0318291
0.031809
0.0317871
0.0317827
0.031774
0.0317622
0.0317326
0.0317223
0.0317257
0.0317191
0.0317097
0.0316968
0.0316909
0.0316854
0.0316779
0.0316711
0.0316687
0.0316742
0.0316877
0.0317006
0.0317102
0.0317151
0.0317213
0.0317234
0.0317278
0.0317329
0.0317383
0.0317441
0.0317509
0.0317593
0.0317697
0.0317827
0.031798
0.0318162
0.0318349
0.0318584
0.0318762
0.0330662
0.0330437
0.0330264
0.0330038
0.0329817
0.0329593
0.0329378
0.0329173
0.032896
0.0328727
0.0328476
0.0328204
0.0327903
0.0327596
0.0327289
0.0326968
0.0326713
0.0326532
0.0326354
0.0326127
0.0325777
0.0325504
0.0325264
0.0325016
0.0324791
0.03247
0.032456
0.0324387
0.0324072
0.0323941
0.0323943
0.0323857
0.032375
0.0323619
0.0323544
0.0323488
0.0323425
0.0323368
0.0323348
0.032338
0.0323506
0.032367
0.0323826
0.0323958
0.032408
0.0324184
0.0324285
0.0324386
0.0324489
0.0324595
0.0324705
0.0324824
0.0324953
0.0325098
0.0325256
0.0325437
0.0325618
0.0325847
0.0326012
0.0340096
0.0339823
0.0339634
0.0339379
0.033913
0.033887
0.0338611
0.0338347
0.0338065
0.0337762
0.0337434
0.0337089
0.0336726
0.0336369
0.033602
0.0335692
0.033542
0.0335176
0.0334907
0.0334577
0.0334191
0.0333876
0.0333578
0.0333286
0.033304
0.0332888
0.033269
0.0332458
0.033212
0.0331956
0.033192
0.0331812
0.0331687
0.0331551
0.0331465
0.0331408
0.0331355
0.0331307
0.03313
0.0331317
0.0331423
0.0331595
0.0331789
0.0331982
0.033217
0.0332347
0.0332518
0.0332685
0.0332851
0.0333018
0.0333186
0.0333358
0.0333535
0.0333719
0.033391
0.0334115
0.0334315
0.0334558
0.0334727
0.0351367
0.035104
0.0350818
0.0350524
0.0350236
0.0349926
0.0349607
0.034927
0.0348912
0.0348532
0.0348132
0.0347721
0.0347306
0.0346903
0.0346515
0.0346153
0.0345819
0.034548
0.0345105
0.0344686
0.0344255
0.034388
0.034352
0.0343178
0.0342892
0.034267
0.0342406
0.0342111
0.0341745
0.034154
0.0341459
0.0341325
0.034118
0.0341034
0.0340936
0.0340874
0.0340849
0.0340821
0.034081
0.0340825
0.0340913
0.0341077
0.0341289
0.0341523
0.0341766
0.0342008
0.0342249
0.0342488
0.0342726
0.0342962
0.03432
0.0343438
0.0343677
0.0343921
0.0344164
0.0344415
0.0344656
0.0344936
0.0345128
0.0364901
0.0364506
0.0364234
0.0363885
0.0363536
0.0363161
0.0362768
0.0362352
0.0361915
0.0361459
0.0360988
0.0360513
0.036004
0.0359578
0.0359128
0.0358692
0.0358258
0.0357805
0.0357322
0.0356818
0.0356326
0.0355875
0.0355444
0.0355043
0.0354697
0.0354392
0.0354054
0.0353692
0.0353289
0.0353036
0.0352902
0.0352738
0.0352568
0.0352407
0.0352296
0.0352236
0.0352211
0.0352205
0.0352212
0.0352238
0.035232
0.0352476
0.0352694
0.0352954
0.0353238
0.0353536
0.0353841
0.035415
0.0354461
0.0354773
0.0355086
0.0355399
0.0355712
0.0356025
0.0356336
0.0356649
0.0356947
0.0357279
0.0357511
0.0381236
0.0380754
0.0380411
0.0379988
0.0379561
0.0379103
0.0378625
0.0378123
0.0377601
0.0377061
0.037651
0.0375955
0.0375402
0.0374852
0.0374306
0.0373759
0.03732
0.0372623
0.0372029
0.0371432
0.0370856
0.0370316
0.0369801
0.0369325
0.0368899
0.0368498
0.0368076
0.036764
0.0367189
0.0366878
0.0366685
0.0366484
0.0366284
0.0366103
0.0365976
0.0365909
0.0365883
0.0365897
0.0365929
0.0365982
0.0366078
0.0366238
0.0366463
0.0366741
0.0367059
0.0367404
0.0367768
0.0368143
0.0368527
0.0368915
0.0369307
0.03697
0.0370093
0.0370484
0.0370872
0.0371257
0.0371624
0.0372019
0.0372303
0.0401074
0.040048
0.0400043
0.0399523
0.0398995
0.0398437
0.0397856
0.039725
0.0396624
0.0395981
0.0395325
0.0394662
0.0393995
0.0393323
0.0392644
0.0391956
0.0391255
0.0390542
0.0389825
0.0389117
0.0388434
0.0387785
0.038717
0.0386596
0.0386067
0.0385557
0.0385038
0.0384517
0.0384004
0.0383624
0.0383362
0.0383116
0.0382883
0.0382678
0.0382531
0.0382453
0.0382426
0.0382456
0.038252
0.0382611
0.038274
0.0382926
0.0383173
0.0383478
0.0383832
0.0384224
0.0384645
0.0385087
0.0385544
0.0386011
0.0386486
0.0386964
0.0387443
0.038792
0.0388391
0.0388856
0.03893
0.0389766
0.0390109
0.0425361
0.0424621
0.0424055
0.0423407
0.0422748
0.0422058
0.0421343
0.0420603
0.041984
0.0419058
0.0418261
0.041745
0.0416628
0.0415795
0.041495
0.0414093
0.0413227
0.0412357
0.0411494
0.0410647
0.0409829
0.0409048
0.0408306
0.0407607
0.0406948
0.040631
0.0405678
0.0405057
0.0404465
0.0404002
0.0403662
0.0403362
0.0403091
0.0402858
0.0402691
0.0402601
0.0402572
0.040262
0.0402721
0.0402862
0.0403045
0.0403281
0.0403576
0.040393
0.0404338
0.0404791
0.0405281
0.0405801
0.0406342
0.04069
0.0407468
0.0408043
0.0408619
0.0409193
0.040976
0.0410315
0.0410848
0.0411393
0.0411805
0.0455433
0.0454495
0.0453744
0.0452917
0.0452074
0.0451202
0.0450303
0.0449376
0.0448425
0.0447452
0.0446459
0.0445447
0.044442
0.0443378
0.0442324
0.044126
0.0440194
0.0439131
0.0438083
0.0437058
0.0436068
0.0435119
0.0434214
0.0433354
0.0432535
0.0431744
0.0430975
0.0430232
0.0429541
0.0428979
0.0428547
0.0428185
0.042787
0.0427607
0.042742
0.042732
0.0427296
0.0427371
0.0427519
0.0427727
0.0427989
0.0428309
0.0428689
0.0429131
0.0429631
0.0430182
0.0430776
0.0431406
0.0432065
0.0432744
0.0433438
0.0434139
0.0434843
0.0435543
0.0436232
0.0436904
0.0437549
0.0438194
0.0438699
0.0493278
0.0492055
0.0491026
0.0489933
0.0488821
0.048768
0.0486512
0.0485316
0.0484094
0.0482847
0.0481577
0.0480287
0.047898
0.047766
0.0476331
0.0474998
0.047367
0.0472354
0.0471061
0.04698
0.0468581
0.046741
0.0466289
0.0465219
0.0464198
0.0463219
0.046228
0.0461381
0.0460564
0.0459883
0.0459346
0.045891
0.0458549
0.045826
0.0458061
0.045796
0.0457958
0.0458081
0.0458303
0.045861
0.0458993
0.0459447
0.0459973
0.046057
0.0461231
0.0461953
0.0462727
0.0463544
0.0464397
0.0465277
0.0466175
0.0467083
0.0467992
0.0468895
0.0469781
0.0470641
0.0471464
0.0472268
0.0472933
0.0541913
0.0540288
0.0538842
0.0537345
0.0535824
0.0534278
0.0532704
0.05311
0.052947
0.0527813
0.0526133
0.0524435
0.0522722
0.0521
0.0519276
0.0517558
0.0515855
0.0514177
0.0512534
0.0510937
0.0509393
0.0507909
0.050649
0.0505136
0.0503847
0.050262
0.0501452
0.0500355
0.0499373
0.0498545
0.0497886
0.0497368
0.0496964
0.0496663
0.0496477
0.0496398
0.0496459
0.0496681
0.0497042
0.0497525
0.0498119
0.0498816
0.0499612
0.0500503
0.0501482
0.0502542
0.0503672
0.0504863
0.0506103
0.0507379
0.0508679
0.050999
0.0511298
0.051259
0.0513851
0.0515066
0.0516222
0.0517323
0.0518304
0.0605373
0.0603269
0.0601276
0.0599256
0.0597212
0.0595142
0.0593039
0.0590899
0.058872
0.0586501
0.0584243
0.0581949
0.0579629
0.0577299
0.0574968
0.0572648
0.0570352
0.0568094
0.0565886
0.0563742
0.0561673
0.055969
0.0557797
0.0556002
0.0554304
0.0552704
0.0551192
0.0549817
0.0548608
0.0547596
0.0546801
0.0546214
0.0545807
0.054556
0.0545466
0.0545523
0.0545779
0.0546272
0.0546972
0.0547862
0.0548925
0.0550151
0.055153
0.0553051
0.0554702
0.0556468
0.0558332