/*--------------------------------*- C++ -*----------------------------------*\
| =========                 |                                                 |
| \\      /  F ield         | OpenFOAM: The Open Source CFD Toolbox           |
|  \\    /   O peration     | Version:  2312                                  |
|   \\  /    A nd           | Website:  www.openfoam.com                      |
|    \\/     M anipulation  |                                                 |
\*---------------------------------------------------------------------------*/
FoamFile
{
    version     2.0;
    format      ascii;
    arch        "LSB;label=32;scalar=64";
    class       volScalarField;
    location    "1500";
    object      p;
}
// * * * * * * * * * * * * * * * * * * * * * * * * * * * * * * * * * * * * * //

dimensions      [0 2 -2 0 0 0 0];

internalField   nonuniform List<scalar> 
76025
(
0.000233746
0.000227444
0.000221038
0.000214631
0.000208086
0.000201676
0.000194753
0.000188048
0.000181185
0.00017434
0.000167369
0.00016033
0.000153225
0.000146074
0.000138956
0.000131567
0.000124457
0.000117043
0.000109752
0.000102402
9.51368e-05
8.77081e-05
8.02648e-05
7.29419e-05
6.55642e-05
5.82132e-05
5.09366e-05
4.33665e-05
3.61331e-05
2.86589e-05
2.16501e-05
1.42359e-05
7.04904e-06
-3.93424e-07
-7.60199e-06
-1.48117e-05
-2.17827e-05
-2.89326e-05
-3.6244e-05
-4.33562e-05
-5.03089e-05
-5.72369e-05
-6.43479e-05
-7.1642e-05
-7.85364e-05
-8.54996e-05
-9.2481e-05
-9.98597e-05
-0.000106859
-0.000113971
-0.000121158
-0.000128296
-0.000135668
-0.000143307
-0.000150982
-0.000158793
-0.000167114
-0.000175793
-0.000184826
-0.000193949
-0.000203663
-0.000215024
-0.000227108
-0.000239846
-0.000254004
-0.000270593
-0.000287994
-0.000307274
-0.000331524
0.000236395
0.000229822
0.000223183
0.000216504
0.000209719
0.000202807
0.000195834
0.00018881
0.000181691
0.000174495
0.000167218
0.000159898
0.000152539
0.000145109
0.000137653
0.000130177
0.000122655
0.000115133
0.000107554
0.000100026
9.24286e-05
8.4858e-05
7.72902e-05
6.97424e-05
6.21917e-05
5.46338e-05
4.70876e-05
3.96115e-05
3.21685e-05
2.46958e-05
1.73139e-05
9.8162e-06
2.39726e-06
-4.95279e-06
-1.23042e-05
-1.95709e-05
-2.6842e-05
-3.40521e-05
-4.12072e-05
-4.83666e-05
-5.54355e-05
-6.25144e-05
-6.95508e-05
-7.65527e-05
-8.35446e-05
-9.05343e-05
-9.75503e-05
-0.000104589
-0.000111616
-0.000118689
-0.000125819
-0.000132974
-0.000140235
-0.00014764
-0.000155169
-0.000162917
-0.000170991
-0.00017934
-0.000188027
-0.000197069
-0.000206696
-0.0002174
-0.00022895
-0.000241368
-0.000255103
-0.000270595
-0.000287616
-0.000306777
-0.000330142
0.000239432
0.000232549
0.000225587
0.000218576
0.000211465
0.00020427
0.000196997
0.000189644
0.000182216
0.000174712
0.000167151
0.000159546
0.000151895
0.000144203
0.000136488
0.000128735
0.000120963
0.000113175
0.000105376
9.75707e-05
8.97697e-05
8.19884e-05
7.42142e-05
6.64525e-05
5.87067e-05
5.09778e-05
4.3294e-05
3.56476e-05
2.80196e-05
2.04167e-05
1.28425e-05
5.29286e-06
-2.20616e-06
-9.66076e-06
-1.70792e-05
-2.4435e-05
-3.17355e-05
-3.89681e-05
-4.61638e-05
-5.33344e-05
-6.04466e-05
-6.75113e-05
-7.4533e-05
-8.15422e-05
-8.85398e-05
-9.55091e-05
-0.000102465
-0.000109432
-0.000116413
-0.000123401
-0.000130417
-0.000137472
-0.0001446
-0.000151842
-0.000159219
-0.000166773
-0.000174561
-0.000182622
-0.000191008
-0.000199786
-0.0002091
-0.000219169
-0.000230054
-0.000241826
-0.000254759
-0.000269185
-0.000285304
-0.000303517
-0.000325754
0.000242352
0.000235124
0.000227814
0.000220467
0.000213036
0.00020551
0.000197899
0.000190215
0.000182467
0.000174659
0.000166798
0.00015889
0.00015094
0.000142958
0.00013495
0.00012692
0.000118877
0.000110827
0.000102777
9.47321e-05
8.67012e-05
7.86877e-05
7.06941e-05
6.27262e-05
5.47897e-05
4.68876e-05
3.9026e-05
3.1204e-05
2.34231e-05
1.56857e-05
7.99356e-06
3.46176e-07
-7.25732e-06
-1.48051e-05
-2.22842e-05
-2.9692e-05
-3.70334e-05
-4.43143e-05
-5.15429e-05
-5.87189e-05
-6.58361e-05
-7.2898e-05
-7.99154e-05
-8.68994e-05
-9.38496e-05
-0.000100767
-0.000107664
-0.000114554
-0.000121441
-0.000128328
-0.00013523
-0.000142163
-0.00014915
-0.00015622
-0.000163399
-0.00017072
-0.000178228
-0.000185969
-0.000193988
-0.000202349
-0.000211155
-0.000220547
-0.000230628
-0.000241499
-0.000253379
-0.000266558
-0.000281375
-0.00029815
-0.000318891
0.000245015
0.00023743
0.000229765
0.000222068
0.000214291
0.000206418
0.000198464
0.000190443
0.000182363
0.000174227
0.000166042
0.000157815
0.000149555
0.00014127
0.000132965
0.00012465
0.000116331
0.000108014
9.97071e-05
9.14164e-05
8.31481e-05
7.49078e-05
6.67009e-05
5.85326e-05
5.04072e-05
4.23285e-05
3.43002e-05
2.63258e-05
1.84071e-05
1.05446e-05
2.73877e-06
-5.01074e-06
-1.27015e-05
-2.03174e-05
-2.78495e-05
-3.53022e-05
-4.26819e-05
-4.99919e-05
-5.72336e-05
-6.44089e-05
-7.15189e-05
-7.85671e-05
-8.55601e-05
-9.25044e-05
-9.94047e-05
-0.000106266
-0.000113095
-0.0001199
-0.000126688
-0.000133466
-0.000140246
-0.00014704
-0.000153867
-0.000160748
-0.000167708
-0.000174771
-0.000181971
-0.000189342
-0.000196921
-0.000204756
-0.000212919
-0.000221506
-0.000230614
-0.000240362
-0.000250948
-0.000262646
-0.000275837
-0.000290813
-0.000309771
0.000247461
0.0002395
0.000231462
0.000223396
0.000215253
0.000207017
0.000198703
0.000190327
0.000181895
0.000173414
0.000164891
0.000156334
0.000147751
0.000139151
0.000130541
0.00012193
0.000113325
0.000104733
9.61622e-05
8.76191e-05
7.91105e-05
7.06427e-05
6.22214e-05
5.38516e-05
4.5538e-05
3.72848e-05
2.90956e-05
2.09736e-05
1.29203e-05
4.93667e-06
-2.97634e-06
-1.08186e-05
-1.85855e-05
-2.62611e-05
-3.38407e-05
-4.13306e-05
-4.87366e-05
-5.60611e-05
-6.33052e-05
-7.04716e-05
-7.75633e-05
-8.45843e-05
-9.15398e-05
-9.84357e-05
-0.000105277
-0.000112069
-0.000118818
-0.00012553
-0.000132213
-0.000138873
-0.00014552
-0.000152164
-0.000158818
-0.000165497
-0.000172217
-0.000178993
-0.000185844
-0.000192789
-0.000199848
-0.000207048
-0.000214434
-0.000222071
-0.000230042
-0.000238467
-0.000247533
-0.000257506
-0.000268786
-0.000281703
-0.000298759
0.000249639
0.000241282
0.000232849
0.000224394
0.000215864
0.000207245
0.000198552
0.000189801
0.000181001
0.000172159
0.000163282
0.000154379
0.000145459
0.000136531
0.000127604
0.000118686
0.000109785
0.000100911
9.20693e-05
8.3269e-05
7.45168e-05
6.58193e-05
5.71826e-05
4.86121e-05
4.01126e-05
3.16885e-05
2.33432e-05
1.50796e-05
6.89965e-06
-1.19548e-06
-9.20503e-06
-1.71293e-05
-2.49608e-05
-3.26845e-05
-4.02997e-05
-4.78138e-05
-5.52326e-05
-6.25581e-05
-6.9792e-05
-7.69374e-05
-8.39983e-05
-9.09793e-05
-9.78856e-05
-0.000104723
-0.000111495
-0.00011821
-0.00012487
-0.000131484
-0.000138057
-0.000144595
-0.000151103
-0.000157589
-0.00016406
-0.000170521
-0.000176979
-0.000183436
-0.000189894
-0.000196352
-0.000202811
-0.000209277
-0.000215767
-0.000222321
-0.000229003
-0.00023592
-0.000243251
-0.000251258
-0.00026037
-0.000271042
-0.000285872
0.000251481
0.000242705
0.000233854
0.000224988
0.000216051
0.000207028
0.000197936
0.000188791
0.000179605
0.000170383
0.000161135
0.000151871
0.000142599
0.000133331
0.000124074
0.000114839
0.000105635
9.64701e-05
8.73529e-05
7.82914e-05
6.92933e-05
6.03655e-05
5.15145e-05
4.27458e-05
3.40646e-05
2.54751e-05
1.69808e-05
8.58436e-06
2.8766e-07
-7.90831e-06
-1.60032e-05
-2.39972e-05
-3.18792e-05
-3.96372e-05
-4.72745e-05
-5.47994e-05
-6.22172e-05
-6.95299e-05
-7.67401e-05
-8.38515e-05
-9.08692e-05
-9.77986e-05
-0.000104645
-0.000111414
-0.00011811
-0.00012474
-0.000131308
-0.00013782
-0.00014428
-0.00015069
-0.000157055
-0.000163376
-0.000169651
-0.000175879
-0.000182051
-0.000188156
-0.000194177
-0.000200094
-0.000205885
-0.000211534
-0.000217033
-0.000222391
-0.000227649
-0.000232891
-0.000238282
-0.000244084
-0.0002508
-0.000259087
-0.000271096
0.000252919
0.000243699
0.000234408
0.000225107
0.00021574
0.00020629
0.000196777
0.000187219
0.000177626
0.000168007
0.000158371
0.000148728
0.000139091
0.000129468
0.000119871
0.000110309
0.000100792
9.13298e-05
8.19316e-05
7.26057e-05
6.33602e-05
5.42024e-05
4.51391e-05
3.61762e-05
2.73188e-05
1.8571e-05
9.93636e-06
1.4172e-06
-6.98491e-06
-1.52694e-05
-2.34364e-05
-3.14849e-05
-3.94011e-05
-4.71781e-05
-5.48227e-05
-6.23432e-05
-6.97446e-05
-7.70295e-05
-8.42015e-05
-9.12657e-05
-9.82282e-05
-0.000105095
-0.000111872
-0.000118564
-0.000125178
-0.000131719
-0.00013819
-0.000144595
-0.000150937
-0.000157217
-0.000163432
-0.000169578
-0.000175647
-0.000181624
-0.000187489
-0.000193214
-0.000198765
-0.000204101
-0.00020918
-0.000213958
-0.0002184
-0.000222482
-0.000226209
-0.000229633
-0.000232897
-0.00023625
-0.00024034
-0.000245925
-0.000255174
0.000253874
0.000244184
0.000234426
0.000224664
0.000214842
0.000204943
0.000194986
0.000184992
0.000174971
0.000164935
0.000154892
0.000144855
0.000134835
0.000124845
0.000114894
0.000104995
9.51572e-05
8.53916e-05
7.57078e-05
6.6115e-05
5.66217e-05
4.72357e-05
3.79639e-05
2.88123e-05
1.97861e-05
1.08893e-05
2.12513e-06
-6.50439e-06
-1.49982e-05
-2.33562e-05
-3.15797e-05
-3.96645e-05
-4.75969e-05
-5.53761e-05
-6.30111e-05
-7.05105e-05
-7.78789e-05
-8.51203e-05
-9.22397e-05
-9.92437e-05
-0.000106139
-0.000112933
-0.000119631
-0.000126239
-0.000132763
-0.000139207
-0.000145575
-0.000151868
-0.000158086
-0.000164228
-0.000170286
-0.00017625
-0.000182101
-0.000187814
-0.000193356
-0.000198685
-0.000203751
-0.000208492
-0.000212844
-0.000216735
-0.000220096
-0.000222863
-0.000224997
-0.000226508
-0.000227504
-0.00022822
-0.00022946
-0.000231624
-0.00023739
0.00025425
0.000244061
0.000233808
0.000223559
0.000213255
0.00020288
0.000192455
0.000182
0.00017153
0.000161055
0.000150586
0.000140136
0.000129718
0.000119345
0.000109029
9.87817e-05
8.86151e-05
7.85401e-05
6.85672e-05
5.87062e-05
4.89662e-05
3.93552e-05
2.98803e-05
2.05477e-05
1.13624e-05
2.32823e-06
-6.55212e-06
-1.52771e-05
-2.38464e-05
-3.22606e-05
-4.05221e-05
-4.86225e-05
-5.65516e-05
-6.43143e-05
-7.19217e-05
-7.93817e-05
-8.66997e-05
-9.38811e-05
-0.000100933
-0.000107862
-0.000114678
-0.000121385
-0.000127992
-0.000134505
-0.000140927
-0.000147264
-0.000153518
-0.00015969
-0.000165777
-0.000171772
-0.000177665
-0.000183436
-0.00018906
-0.000194503
-0.000199721
-0.000204658
-0.00020925
-0.000213416
-0.000217066
-0.000220098
-0.000222404
-0.000223875
-0.000224421
-0.000224005
-0.000222696
-0.00022075
-0.000219052
-0.000217757
-0.000222697
0.00025393
0.000243213
0.000232434
0.000221668
0.000210854
0.000199976
0.000189055
0.000178115
0.000167171
0.000156234
0.000145318
0.000134436
0.000123603
0.000112832
0.000102138
9.15323e-05
8.10287e-05
7.06388e-05
6.0374e-05
5.02447e-05
4.02603e-05
3.04293e-05
2.07588e-05
1.1255e-05
1.92267e-06
-7.23485e-06
-1.62155e-05
-2.50185e-05
-3.36446e-05
-4.2096e-05
-5.03736e-05
-5.84666e-05
-6.63713e-05
-7.40973e-05
-8.16564e-05
-8.90564e-05
-9.63038e-05
-0.000103406
-0.00011037
-0.000117207
-0.000123923
-0.000130526
-0.000137024
-0.000143423
-0.000149729
-0.000155944
-0.000162071
-0.000168108
-0.000174051
-0.000179888
-0.000185604
-0.000191175
-0.000196571
-0.000201749
-0.000206659
-0.000211234
-0.000215395
-0.000219043
-0.000222063
-0.000224319
-0.000225662
-0.000225931
-0.000224984
-0.000222738
-0.000219237
-0.000214824
-0.000210448
-0.000206568
-0.00020835
0.000252775
0.000241497
0.000230161
0.000218846
0.000207491
0.000196079
0.000184634
0.000173181
0.000161737
0.000150314
0.000138927
0.000127592
0.000116325
0.000105141
9.40549e-05
8.30805e-05
7.2232e-05
6.15222e-05
5.09633e-05
4.05663e-05
3.03411e-05
2.02964e-05
1.04394e-05
7.76178e-07
-8.6891e-06
-1.79536e-05
-2.70163e-05
-3.58776e-05
-4.45395e-05
-5.3006e-05
-6.12741e-05
-6.93339e-05
-7.71893e-05
-8.48534e-05
-9.23375e-05
-9.96502e-05
-0.000106799
-0.000113794
-0.000120644
-0.00012736
-0.00013395
-0.000140424
-0.000146789
-0.000153052
-0.000159219
-0.000165292
-0.000171272
-0.000177155
-0.000182935
-0.000188598
-0.000194127
-0.000199496
-0.000204671
-0.000209607
-0.000214247
-0.000218516
-0.000222324
-0.000225555
-0.000228069
-0.000229698
-0.000230251
-0.000229517
-0.000227301
-0.000223471
-0.000218054
-0.000211453
-0.000204825
-0.000199912
-0.000202422
0.000250611
0.000238739
0.00022681
0.000214912
0.000202981
0.000191003
0.000179002
0.000167005
0.000155031
0.000143095
0.000131213
0.000119403
0.000107682
9.60662e-05
8.45731e-05
7.3218e-05
6.20158e-05
5.09804e-05
4.01248e-05
2.94608e-05
1.89988e-05
8.74761e-06
-1.28544e-06
-1.10948e-05
-2.06767e-05
-3.00292e-05
-3.91523e-05
-4.80479e-05
-5.67197e-05
-6.51715e-05
-7.33953e-05
-8.13872e-05
-8.91583e-05
-9.67232e-05
-0.000104094
-0.00011128
-0.000118292
-0.000125141
-0.00013184
-0.0001384
-0.000144831
-0.000151143
-0.000157344
-0.000163441
-0.000169439
-0.000175339
-0.000181142
-0.000186843
-0.000192437
-0.000197909
-0.000203244
-0.000208415
-0.000213389
-0.00021812
-0.000222549
-0.000226597
-0.000230166
-0.000233126
-0.000235318
-0.000236549
-0.000236594
-0.000235202
-0.000232131
-0.00022719
-0.000220372
-0.000212009
-0.000203365
-0.000195769
-0.000192132
0.00024722
0.000234714
0.000222152
0.000209631
0.000197087
0.000184505
0.000171912
0.000159337
0.0001468
0.000134319
0.000121913
0.000109601
9.74013e-05
8.53339e-05
7.34163e-05
6.16657e-05
5.00986e-05
3.87302e-05
2.75745e-05
1.66441e-05
5.94999e-06
-4.49854e-06
-1.46941e-05
-2.46315e-05
-3.43073e-05
-4.37205e-05
-5.28723e-05
-6.17662e-05
-7.04076e-05
-7.87959e-05
-8.69235e-05
-9.47972e-05
-0.000102433
-0.000109847
-0.000117052
-0.00012406
-0.000130885
-0.000137542
-0.000144044
-0.000150403
-0.00015663
-0.000162736
-0.000168729
-0.000174615
-0.0001804
-0.000186086
-0.000191674
-0.000197162
-0.000202544
-0.00020781
-0.000212947
-0.000217931
-0.000222732
-0.000227309
-0.000231603
-0.000235538
-0.000239014
-0.000241898
-0.000244023
-0.000245185
-0.000245145
-0.000243621
-0.000240325
-0.000235003
-0.000227565
-0.000218318
-0.000208506
-0.0001988
-0.000188673
0.0002423
0.000229119
0.000215877
0.000202686
0.000189482
0.00017625
0.000163021
0.000149824
0.000136684
0.000123621
0.000110654
9.78072e-05
8.51005e-05
7.25554e-05
6.0192e-05
4.80295e-05
3.60862e-05
2.4379e-05
1.29235e-05
1.73332e-06
-9.17954e-06
-1.98053e-05
-3.01365e-05
-4.0168e-05
-4.98972e-05
-5.93244e-05
-6.84523e-05
-7.72869e-05
-8.58329e-05
-9.40868e-05
-0.000102051
-0.00010974
-0.000117175
-0.000124371
-0.000131343
-0.000138109
-0.000144684
-0.000151085
-0.000157326
-0.000163421
-0.000169382
-0.000175221
-0.000180946
-0.000186565
-0.000192084
-0.000197509
-0.00020284
-0.000208079
-0.000213224
-0.000218269
-0.000223204
-0.000228014
-0.000232675
-0.000237152
-0.000241399
-0.000245348
-0.00024891
-0.000251965
-0.000254357
-0.000255895
-0.000256344
-0.000255387
-0.000252663
-0.00024778
-0.00024045
-0.000230976
-0.000220451
-0.00020984
-0.000201074
0.000235394
0.00022148
0.000207499
0.000193578
0.000179655
0.000165718
0.000151799
0.00013793
0.00012414
0.00011045
9.68859e-05
8.34711e-05
7.02304e-05
5.71876e-05
4.43655e-05
3.17858e-05
1.94689e-05
7.43376e-06
-4.30262e-06
-1.57252e-05
-2.68213e-05
-3.75808e-05
-4.79965e-05
-5.80638e-05
-6.77818e-05
-7.71523e-05
-8.61808e-05
-9.4875e-05
-0.000103238
-0.000111269
-0.000118984
-0.000126403
-0.000133546
-0.000140433
-0.000147083
-0.000153517
-0.000159753
-0.00016581
-0.000171706
-0.000177457
-0.000183075
-0.000188574
-0.000193963
-0.000199253
-0.00020445
-0.000209561
-0.000214591
-0.000219544
-0.000224423
-0.000229227
-0.000233953
-0.000238597
-0.000243144
-0.000247578
-0.000251868
-0.000255971
-0.000259827
-0.000263358
-0.00026644
-0.000268915
-0.000270544
-0.00027093
-0.000269529
-0.000265663
-0.000258892
-0.000249571
-0.000238532
-0.000226976
-0.000215674
0.000225713
0.000211004
0.000196219
0.000181507
0.000166812
0.000152121
0.000137467
0.000122888
0.000108416
9.40754e-05
7.98951e-05
6.59024e-05
5.21251e-05
3.85899e-05
2.53224e-05
1.23468e-05
-3.14231e-07
-1.26398e-05
-2.46114e-05
-3.62129e-05
-4.74308e-05
-5.82549e-05
-6.86783e-05
-7.86976e-05
-8.83132e-05
-9.75295e-05
-0.000106355
-0.000114797
-0.000122859
-0.000130552
-0.000137899
-0.000144925
-0.000151654
-0.00015811
-0.000164318
-0.000170303
-0.000176089
-0.000181699
-0.000187152
-0.000192466
-0.000197658
-0.000202739
-0.000207722
-0.000212616
-0.000217432
-0.000222176
-0.000226856
-0.000231481
-0.000236057
-0.000240591
-0.000245092
-0.000249565
-0.000254016
-0.00025845
-0.000262872
-0.000267287
-0.000271687
-0.000276058
-0.00028032
-0.00028433
-0.00028775
-0.000289982
-0.000290151
-0.000287514
-0.000281722
-0.000272931
-0.000261745
-0.000249429
-0.000236614
0.000212184
0.000196635
0.000181005
0.000165476
0.000149991
0.000134534
0.000119142
0.000103854
8.87058e-05
7.37272e-05
5.89489e-05
4.44023e-05
3.01187e-05
1.61281e-05
2.45917e-06
-1.08611e-05
-2.38076e-05
-3.63571e-05
-4.84894e-05
-6.01866e-05
-7.14347e-05
-8.22228e-05
-9.25447e-05
-0.000102398
-0.000111785
-0.000120713
-0.000129194
-0.000137234
-0.000144844
-0.000152047
-0.000158872
-0.00016535
-0.000171512
-0.00017739
-0.000183016
-0.000188421
-0.000193634
-0.000198682
-0.000203588
-0.000208371
-0.000213049
-0.000217635
-0.00022214
-0.000226574
-0.000230947
-0.000235267
-0.000239544
-0.000243789
-0.000248015
-0.000252237
-0.000256475
-0.000260755
-0.000265111
-0.000269592
-0.000274256
-0.000279177
-0.000284409
-0.000289991
-0.000295837
-0.000301685
-0.000306928
-0.000310718
-0.00031229
-0.000311005
-0.000306238
-0.000297902
-0.00028683
-0.000274461
-0.000261632
0.000194036
0.00017764
0.000161158
0.000144816
0.000128552
0.000112347
9.62378e-05
8.02693e-05
6.4479e-05
4.89014e-05
3.35707e-05
1.8522e-05
3.78973e-06
-1.05928e-05
-2.45938e-05
-3.8183e-05
-5.13322e-05
-6.40158e-05
-7.62109e-05
-8.78978e-05
-9.9061e-05
-0.000109689
-0.000119776
-0.000129321
-0.000138329
-0.000146811
-0.000154778
-0.000162243
-0.000169227
-0.000175763
-0.000181889
-0.000187644
-0.000193068
-0.000198205
-0.000203094
-0.000207774
-0.000212283
-0.000216649
-0.000220902
-0.00022506
-0.000229141
-0.000233156
-0.000237116
-0.000241027
-0.000244899
-0.000248738
-0.000252554
-0.000256359
-0.000260171
-0.000264018
-0.000267942
-0.000272005
-0.000276286
-0.000280896
-0.000285955
-0.000291587
-0.000297858
-0.000304742
-0.000312008
-0.00031911
-0.000325372
-0.000330222
-0.00033295
-0.000332527
-0.00032831
-0.000320405
-0.000309954
-0.00029878
-0.000288142
0.00017159
0.000154349
0.000137011
0.000119857
0.000102815
8.5865e-05
6.90451e-05
5.24042e-05
3.59841e-05
1.98236e-05
3.96111e-06
-1.15645e-05
-2.67149e-05
-4.14525e-05
-5.57414e-05
-6.95472e-05
-8.2838e-05
-9.55844e-05
-0.00010776
-0.000119343
-0.000130317
-0.000140669
-0.000150393
-0.00015949
-0.000167967
-0.000175837
-0.000183115
-0.00018982
-0.000195987
-0.000201662
-0.000206893
-0.00021173
-0.000216228
-0.000220442
-0.000224424
-0.000228225
-0.000231889
-0.000235451
-0.000238942
-0.000242383
-0.000245787
-0.000249162
-0.000252512
-0.000255842
-0.000259155
-0.000262457
-0.000265757
-0.00026907
-0.000272425
-0.000275872
-0.000279484
-0.000283372
-0.000287657
-0.000292493
-0.000298011
-0.000304275
-0.000311251
-0.000318725
-0.000326298
-0.000333621
-0.000340359
-0.000345732
-0.000348736
-0.000348534
-0.000344573
-0.00033726
-0.000328292
-0.00031987
-0.00031361
0.000146438
0.00012827
0.000110003
9.19596e-05
7.40639e-05
5.62919e-05
3.86862e-05
2.13003e-05
4.18103e-06
-1.2628e-05
-2.90835e-05
-4.51411e-05
-6.07571e-05
-7.58884e-05
-9.04936e-05
-0.000104533
-0.00011797
-0.000130769
-0.000142901
-0.000154338
-0.000165063
-0.000175059
-0.000184322
-0.000192853
-0.000200661
-0.000207761
-0.000214173
-0.00021993
-0.000225082
-0.000229686
-0.000233806
-0.000237508
-0.000240867
-0.000243955
-0.000246843
-0.000249593
-0.000252262
-0.000254893
-0.000257516
-0.000260151
-0.000262801
-0.000265465
-0.000268135
-0.000270809
-0.000273493
-0.0002762
-0.000278954
-0.000281791
-0.000284763
-0.000287939
-0.000291402
-0.000295253
-0.00029957
-0.000304442
-0.000309912
-0.000315937
-0.000322421
-0.000329295
-0.000336488
-0.00034369
-0.000350207
-0.000355325
-0.000358193
-0.000357735
-0.000353782
-0.000347535
-0.00034093
-0.000336134
-0.000334615
0.000119984
0.000100732
8.13782e-05
6.22844e-05
4.33697e-05
2.46106e-05
6.05481e-06
-1.22381e-05
-3.02146e-05
-4.78247e-05
-6.50181e-05
-8.1744e-05
-9.79518e-05
-0.000113592
-0.000128616
-0.000142977
-0.000156631
-0.000169538
-0.00018166
-0.000192965
-0.000203428
-0.000213029
-0.000221761
-0.000229625
-0.00023663
-0.000242795
-0.000248148
-0.00025274
-0.000256635
-0.000259909
-0.000262647
-0.000264943
-0.000266895
-0.000268603
-0.000270163
-0.00027166
-0.000273167
-0.000274733
-0.000276391
-0.000278146
-0.000279989
-0.000281897
-0.000283849
-0.000285835
-0.000287869
-0.000289987
-0.00029225
-0.000294721
-0.000297468
-0.000300538
-0.000303937
-0.000307607
-0.000311486
-0.000315555
-0.000319822
-0.000324431
-0.000329703
-0.000335746
-0.000342243
-0.000348809
-0.000355076
-0.000359849
-0.000361804
-0.000360617
-0.000357033
-0.000352392
-0.000348517
-0.00034729
-0.00034967
9.47049e-05
7.40351e-05
5.33185e-05
3.29003e-05
1.26943e-05
-7.31971e-06
-2.70879e-05
-4.6544e-05
-6.56271e-05
-8.42799e-05
-0.000102445
-0.000120063
-0.000137077
-0.000153427
-0.000169057
-0.000183911
-0.000197935
-0.000211079
-0.000223298
-0.000234548
-0.000244796
-0.000254016
-0.000262195
-0.000269337
-0.00027545
-0.000280557
-0.000284697
-0.000287935
-0.000290352
-0.000292045
-0.000293129
-0.000293731
-0.000293986
-0.000294032
-0.000293999
-0.000294007
-0.000294153
-0.000294507
-0.000295106
-0.00029596
-0.00029705
-0.000298346
-0.000299817
-0.000301436
-0.000303193
-0.00030507
-0.000307055
-0.000309119
-0.000311289
-0.000313662
-0.000316293
-0.00031899
-0.000321514
-0.000323947
-0.000326683
-0.000329938
-0.000333845
-0.000338584
-0.000344569
-0.000351167
-0.000356713
-0.000359959
-0.000360683
-0.000359286
-0.000356542
-0.000353572
-0.00035186
-0.000353105
-0.000358054
6.83687e-05
4.60911e-05
2.37247e-05
1.68429e-06
-2.01152e-05
-4.1693e-05
-6.29868e-05
-8.39203e-05
-0.000104424
-0.000124431
-0.000143874
-0.000162685
-0.000180793
-0.00019813
-0.000214625
-0.000230212
-0.000244825
-0.000258401
-0.000270877
-0.000282194
-0.000292299
-0.000301149
-0.000308712
-0.000314978
-0.000319956
-0.000323682
-0.000326213
-0.000327636
-0.000328055
-0.0003276
-0.000326424
-0.000324701
-0.000322619
-0.000320376
-0.000318169
-0.000316182
-0.000314574
-0.000313465
-0.000312923
-0.000312964
-0.00031355
-0.000314611
-0.000316071
-0.000317858
-0.000319899
-0.000322051
-0.000324044
-0.000325494
-0.000326158
-0.000326479
-0.000327264
-0.000328555
-0.000329458
-0.000330002
-0.00033112
-0.00033289
-0.000335958
-0.000340814
-0.000346423
-0.00035144
-0.000355052
-0.000356935
-0.000357125
-0.000355943
-0.000353971
-0.000352133
-0.000351665
-0.000354075
-0.000360167
5.03502e-05
2.57533e-05
1.33751e-06
-2.27164e-05
-4.6502e-05
-7.00199e-05
-9.31984e-05
-0.000115955
-0.000138214
-0.000159899
-0.000180933
-0.000201236
-0.000220728
-0.000239326
-0.000256948
-0.000273517
-0.000288957
-0.000303195
-0.00031616
-0.000327778
-0.000337982
-0.000346723
-0.000353954
-0.000359634
-0.000363745
-0.0003663
-0.000367348
-0.000366985
-0.000365343
-0.0003626
-0.00035897
-0.000354707
-0.000350097
-0.000345449
-0.000341079
-0.00033728
-0.000334287
-0.000332243
-0.00033116
-0.000330902
-0.000331211
-0.000331788
-0.00033243
-0.000333179
-0.000334328
-0.000336162
-0.000338448
-0.000340067
-0.000339596
-0.000337394
-0.000335648
-0.00033546
-0.000334912
-0.000333609
-0.000333965
-0.000336301
-0.000339421
-0.000342809
-0.000346365
-0.000349557
-0.000351826
-0.000352898
-0.000352744
-0.000351596
-0.000349967
-0.000348677
-0.000348802
-0.000351614
-0.000357773
1.49692e-05
-1.17123e-05
-3.85791e-05
-6.50733e-05
-9.12722e-05
-0.000117191
-0.000142748
-0.000167845
-0.000192389
-0.000216287
-0.000239445
-0.000261768
-0.000283154
-0.000303504
-0.000322715
-0.000340683
-0.000357304
-0.000372456
-0.000385964
-0.000397634
-0.000407367
-0.000415138
-0.000420949
-0.000424814
-0.000426743
-0.000426752
-0.000424889
-0.00042126
-0.000416039
-0.00040947
-0.00040186
-0.000393572
-0.000385023
-0.000376669
-0.000368977
-0.00036239
-0.000357268
-0.000353817
-0.000352014
-0.00035154
-0.000351759
-0.00035182
-0.000350905
-0.000348741
-0.000346001
-0.000344099
-0.000344142
-0.000345489
-0.000345488
-0.000342746
-0.00033959
-0.000338753
-0.000339352
-0.000339692
-0.00033952
-0.000339833
-0.00034112
-0.000343114
-0.000345344
-0.000347261
-0.000348382
-0.00034843
-0.000347457
-0.000345787
-0.000343949
-0.000342725
-0.000343123
-0.000346203
-0.000352396
3.93826e-06
-2.51002e-05
-5.35307e-05
-8.18391e-05
-0.000109995
-0.000137837
-0.000165254
-0.000192159
-0.000218454
-0.000244041
-0.000268814
-0.000292664
-0.000315479
-0.000337149
-0.000357574
-0.00037668
-0.000394441
-0.00041095
-0.000426121
-0.000439491
-0.000450597
-0.000459243
-0.000465418
-0.000469134
-0.000470373
-0.000469119
-0.000465375
-0.000459195
-0.000450706
-0.000440141
-0.000427866
-0.000414397
-0.000400411
-0.000386729
-0.000374278
-0.000364002
-0.000356722
-0.000352961
-0.000352743
-0.000355417
-0.000359593
-0.000363314
-0.000364562
-0.00036212
-0.000356409
-0.000349842
-0.00034553
-0.000344971
-0.000346449
-0.000347463
-0.00034675
-0.000344996
-0.000343561
-0.000342805
-0.000342478
-0.000342521
-0.000342876
-0.000343463
-0.000344135
-0.000344601
-0.000344437
-0.000343249
-0.000341007
-0.000338083
-0.000335135
-0.000333112
-0.000333188
-0.00033639
-0.000342727
-8.56762e-05
-0.000117429
-0.000149202
-0.000180379
-0.00021109
-0.000241472
-0.00027144
-0.000300819
-0.000329464
-0.000357259
-0.000384082
-0.000409793
-0.000434228
-0.000457204
-0.000478512
-0.000497911
-0.000515116
-0.000529742
-0.000541653
-0.000551172
-0.000558571
-0.000563745
-0.000566337
-0.000565989
-0.00056249
-0.000555798
-0.000545996
-0.000533244
-0.000517771
-0.000499904
-0.000480117
-0.000459058
-0.000437558
-0.00041659
-0.000397212
-0.000380468
-0.000367281
-0.000358293
-0.000353712
-0.000353182
-0.000355713
-0.000359719
-0.000363226
-0.000364797
-0.000363761
-0.000360358
-0.000355696
-0.000351392
-0.000348734
-0.000347267
-0.0003461
-0.000345181
-0.000344605
-0.00034429
-0.000344104
-0.00034402
-0.000343959
-0.00034382
-0.000343477
-0.000342766
-0.000341517
-0.000339549
-0.000336614
-0.00033278
-0.000328824
-0.000326094
-0.000325862
-0.000328477
-0.00033415
8.89874e-05
9.67774e-05
0.000104883
0.00011338
0.000122385
0.000131952
0.000142113
0.000152682
0.000163621
0.000175143
0.000187224
0.000199788
0.000212502
0.000226263
0.00023943
0.000253362
0.000266681
0.000280636
0.000294262
0.000307637
0.000321716
0.000334123
0.000346161
0.000357297
0.000367648
0.000377112
0.000385047
0.000391878
0.000397689
0.000401808
0.000404332
0.000405544
0.000405611
0.000404569
0.000401811
0.000398042
0.000393363
0.00038758
0.000381061
0.00037407
0.000366333
0.000358221
0.000350167
0.00034228
0.000333368
0.000325175
0.000316528
0.000308315
0.000300311
0.000292569
0.000285214
0.000278183
0.000271614
0.00026521
0.000259412
0.00025355
0.000248265
0.000243399
0.000238983
8.75344e-05
9.55372e-05
0.000104022
0.000112976
0.000122437
0.000132417
0.000142934
0.000153957
0.000165498
0.000177564
0.000190124
0.000203168
0.000216602
0.000230491
0.000244633
0.000258931
0.000273371
0.000287804
0.000302228
0.000316245
0.000330222
0.000343568
0.000356147
0.000367862
0.000378603
0.000388309
0.000396759
0.000403814
0.000409686
0.000413954
0.00041652
0.000417792
0.000417751
0.000416328
0.000413493
0.000409463
0.000404423
0.000398424
0.000391572
0.000384063
0.000376
0.000367594
0.000358947
0.000350045
0.000341081
0.000332179
0.00032339
0.000314811
0.000306436
0.00029833
0.000290575
0.000283176
0.000276086
0.000269419
0.000263098
0.00025721
0.00025173
0.000246635
0.000241901
8.56167e-05
9.39894e-05
0.000102844
0.000112214
0.000122117
0.000132566
0.000143557
0.000155087
0.000167169
0.000179805
0.000192953
0.000206575
0.00022064
0.000235103
0.000249868
0.000264919
0.000280094
0.000295282
0.000310329
0.000325097
0.000339548
0.000353464
0.000366663
0.000378944
0.000390202
0.000400297
0.000409092
0.000416495
0.000422503
0.000426856
0.000429587
0.000430853
0.00043063
0.000428961
0.000425898
0.000421609
0.000416206
0.000409851
0.000402622
0.000394715
0.000386249
0.000377311
0.000368064
0.000358682
0.000349248
0.000339896
0.000330655
0.000321606
0.000312812
0.000304319
0.000296179
0.000288393
0.000280984
0.000273967
0.00026739
0.00026124
0.000255494
0.000250149
0.000245194
8.33244e-05
9.20838e-05
0.000101348
0.000111147
0.000121503
0.000132431
0.000143935
0.000156015
0.000168673
0.000181903
0.000195677
0.000209958
0.00022471
0.000239866
0.000255339
0.000271085
0.000286955
0.000302862
0.000318627
0.000334154
0.000349296
0.000363821
0.000377615
0.00039047
0.000402257
0.000412808
0.000421976
0.000429693
0.000435891
0.000440375
0.000443208
0.000444445
0.000444092
0.000442247
0.000438945
0.000434356
0.000428588
0.000421802
0.000414122
0.00040573
0.00039675
0.000387297
0.000377551
0.000367682
0.000357733
0.000347852
0.000338098
0.000328556
0.000319299
0.000310372
0.000301814
0.000293648
0.000285897
0.000278569
0.000271679
0.000265219
0.000259186
0.000253578
0.000248391
8.06545e-05
8.98256e-05
9.95274e-05
0.000109788
0.00012063
0.00013207
0.000144117
0.000156773
0.000170037
0.000183896
0.000198327
0.000213295
0.000228755
0.000244641
0.00026087
0.00027736
0.00029399
0.00031065
0.000327186
0.000343466
0.000359325
0.000374541
0.000388972
0.000402425
0.00041475
0.000425777
0.000435352
0.000443381
0.000449793
0.000454428
0.000457327
0.000458532
0.00045807
0.000456038
0.000452486
0.000447567
0.00044141
0.00043417
0.000426001
0.000417075
0.000407543
0.000397553
0.000387267
0.000376827
0.000366325
0.000355885
0.000345601
0.000335551
0.000325803
0.000316408
0.000307404
0.000298822
0.000290679
0.000282989
0.000275755
0.000268977
0.000262654
0.000256779
0.000251348
7.75227e-05
8.71331e-05
9.73004e-05
0.000108053
0.000119416
0.000131406
0.000144032
0.000157299
0.000171203
0.000185731
0.000200859
0.000216551
0.000232758
0.000249415
0.000266441
0.000283737
0.000301186
0.000318659
0.000336004
0.000353069
0.000369679
0.000385631
0.000400749
0.000414839
0.000427732
0.000439257
0.00044926
0.000457622
0.000464264
0.000469056