/*--------------------------------*- C++ -*----------------------------------*\
| =========                 |                                                 |
| \\      /  F ield         | OpenFOAM: The Open Source CFD Toolbox           |
|  \\    /   O peration     | Version:  2312                                  |
|   \\  /    A nd           | Website:  www.openfoam.com                      |
|    \\/     M anipulation  |                                                 |
\*---------------------------------------------------------------------------*/
FoamFile
{
    version     2.0;
    format      ascii;
    arch        "LSB;label=32;scalar=64";
    class       surfaceScalarField;
    location    "1500";
    object      phi;
}
// * * * * * * * * * * * * * * * * * * * * * * * * * * * * * * * * * * * * * //

dimensions      [0 3 -1 0 0 0 0];

oriented        oriented;

internalField   nonuniform List<scalar> 
116611
(
0.0010826
0.000409183
-0.00106665
-0.000425133
0.00109839
0.000404592
-0.000420382
0.00111401
0.000399642
-0.000415264
0.00112946
0.000394301
-0.00040975
0.00114458
0.000388527
-0.000403649
0.0011598
0.000382333
-0.000397546
0.00117451
0.000375717
-0.000390434
0.00118922
0.000368667
-0.000383372
0.00120362
0.00036116
-0.000375562
0.00121781
0.000353186
-0.000367378
0.00123171
0.0003447
-0.000358597
0.00124542
0.000335719
-0.000349425
0.00125888
0.000326245
-0.000339712
0.00127206
0.00031622
-0.000329394
0.00128508
0.000305687
-0.000318707
0.00129754
0.000294587
-0.000307051
0.00130994
0.000282884
-0.000295281
0.00132181
0.000270626
-0.000282502
0.00133342
0.000257688
-0.000269293
0.00134457
0.000244201
-0.000255348
0.00135546
0.000229986
-0.000240885
0.00136595
0.000215173
-0.000225663
0.00137596
0.000199654
-0.00020966
0.0013856
0.000183455
-0.000193092
0.00139476
0.000166542
-0.000175701
0.00140341
0.000148873
-0.000157523
0.00141166
0.000130429
-0.000138684
0.00141914
0.000111247
-0.000118723
0.00142632
9.12811e-05
-9.84654e-05
0.00143267
7.04426e-05
-7.67899e-05
0.0014387
4.89219e-05
-5.49537e-05
0.00144379
2.63951e-05
-3.14875e-05
0.00144851
3.06655e-06
-7.78519e-06
0.00145238
-2.11114e-05
1.72435e-05
0.00145566
-4.62632e-05
4.2981e-05
0.00145811
-7.22598e-05
6.98146e-05
0.00145991
-9.92669e-05
9.74593e-05
0.00146102
-0.000127171
0.000126064
0.00146124
-0.000156017
0.000155799
0.00146065
-0.00018592
0.000186512
0.00145924
-0.000216763
0.000218173
0.00145704
-0.000248669
0.000250864
0.00145408
-0.000281556
0.000284521
0.00145005
-0.000315494
0.000319516
0.00144526
-0.000350526
0.000355315
0.0014395
-0.000386629
0.000392395
0.001433
-0.000423841
0.000430338
0.0014254
-0.0004622
0.000469804
0.00141695
-0.000501727
0.000510172
0.00140753
-0.000542459
0.000551879
0.00139718
-0.000584449
0.000594803
0.00138596
-0.000627702
0.000638915
0.00137387
-0.000672317
0.000684411
0.00136092
-0.000718427
0.000731379
0.00134725
-0.000766135
0.000779797
0.00133292
-0.000815665
0.000829998
0.00131808
-0.000867238
0.000882078
0.00130266
-0.000921051
0.000936471
0.00128652
-0.000977263
0.000993402
0.00126976
-0.00103576
0.00105252
0.00125218
-0.00109645
0.00111403
0.00123311
-0.00115942
0.00117849
0.00121203
-0.00122424
0.00124532
0.00118862
-0.00129029
0.0013137
0.00116257
-0.0013572
0.00138325
0.00113293
-0.00142482
0.00145445
0.00110007
-0.00149207
0.00152494
0.00106448
-0.00155798
0.00159357
-0.00162192
0.00102559
0.00166081
0.00106544
0.000393309
-0.00104957
0.00108117
0.000388864
0.00109675
0.000384067
0.00111215
0.000378897
0.00112737
0.000373309
0.00114238
0.000367322
0.00115718
0.00036092
0.00117176
0.00035408
0.00118612
0.000346801
0.00120025
0.000339056
0.00121412
0.000330834
0.00122771
0.000322122
0.00124105
0.000312906
0.00125411
0.000303168
0.00126687
0.000292917
0.00127935
0.000282112
0.00129148
0.00027075
0.0013033
0.000258807
0.00131472
0.000246268
0.00132581
0.000233111
0.00133648
0.000219321
0.00134676
0.000204894
0.00135661
0.000189802
0.00136603
0.000174034
0.001375
0.00015757
0.0013835
0.000140372
0.00139148
0.000122451
0.00139894
0.000103786
0.00140588
8.43454e-05
0.0014122
6.41193e-05
0.00141803
4.3094e-05
0.0014232
2.12285e-05
0.00142774
-1.4747e-06
0.00143165
-2.50253e-05
0.00143486
-4.94712e-05
0.00143741
-7.48078e-05
0.00143921
-0.000101071
0.00144028
-0.000128242
0.00144062
-0.000156358
0.00144016
-0.000185459
0.00143893
-0.000215533
0.00143687
-0.000246606
0.00143399
-0.000278675
0.00143028
-0.000311782
0.00142571
-0.000345956
0.00142027
-0.000381195
0.00141396
-0.000417528
0.00140675
-0.00045499
0.00139865
-0.000493624
0.00138964
-0.000533454
0.00137974
-0.000574542
0.00136898
-0.000616943
0.00135742
-0.000660757
0.00134511
-0.000706122
0.00133216
-0.000753186
0.00131863
-0.000802132
0.00130452
-0.000853131
0.00128978
-0.00090631
0.00127422
-0.000961699
0.00125763
-0.00101916
0.0012397
-0.00107852
0.00121987
-0.00113959
0.00119765
-0.00120202
0.00117274
-0.00126538
0.00114487
-0.00132933
0.00111365
-0.00139359
0.001079
-0.00145743
0.00104089
-0.00151986
-0.00157967
0.000998637
0.00104889
0.000377564
-0.00103315
0.00106451
0.000373244
0.00108
0.000368583
0.00109533
0.000363563
0.00111048
0.000358161
0.00112543
0.000352367
0.00114019
0.000346166
0.00115472
0.000339544
0.00116904
0.000332489
0.00118311
0.000324985
0.00119692
0.00031702
0.00121047
0.000308577
0.00122373
0.000299643
0.0012367
0.000290202
0.00124937
0.000280245
0.00126173
0.000269754
0.00127376
0.000258716
0.00128545
0.000247114
0.00129679
0.000234932
0.00130775
0.000222152
0.00131831
0.000208759
0.00132847
0.000194737
0.0013382
0.000180068
0.0013475
0.000164736
0.00135634
0.000148724
0.00136471
0.000132011
0.00137257
0.000114585
0.00137993
9.64256e-05
0.00138676
7.75171e-05
0.00139304
5.78405e-05
0.00139875
3.73788e-05
0.00140387
1.61117e-05
0.00140838
-5.97958e-06
0.00141226
-2.89064e-05
0.00141548
-5.26933e-05
0.00141803
-7.73578e-05
0.00141987
-0.000102916
0.00142101
-0.00012938
0.00142142
-0.000156771
0.00142108
-0.000185112
0.00141996
-0.000214415
0.00141805
-0.000244694
0.00141534
-0.000275968
0.00141182
-0.00030826
0.00140745
-0.000341592
0.00140224
-0.000375984
0.00139618
-0.000411462
0.00138925
-0.000448063
0.00138145
-0.000485829
0.00137281
-0.000524806
0.00136333
-0.000565064
0.00135307
-0.000606687
0.0013421
-0.000649786
0.00133048
-0.000694498
0.00131826
-0.000740967
0.00130545
-0.000789326
0.00129199
-0.000839672
0.00127771
-0.000892027
0.00126232
-0.000946312
0.0012455
-0.00100234
0.00122685
-0.00105988
0.00120594
-0.00111867
0.00118237
-0.00117845
0.00115589
-0.0012389
0.00112629
-0.00129973
0.00109331
-0.00136061
0.00105673
-0.00142085
0.00101607
-0.0014792
-0.00153364
0.000970038
0.00103299
0.000361929
-0.00101735
0.0010485
0.000357736
0.00106387
0.000353213
0.00107909
0.000348341
0.00109415
0.000343106
0.00110902
0.000337493
0.0011237
0.000331487
0.00113817
0.000325076
0.00115241
0.000318245
0.00116641
0.00031098
0.00118017
0.000303267
0.00119365
0.000295091
0.00120686
0.000286438
0.00121977
0.000277293
0.00123237
0.000267642
0.00124465
0.000257471
0.00125661
0.000246765
0.00126821
0.000235508
0.00127946
0.000223686
0.00129033
0.000211282
0.00130081
0.000198281
0.00131088
0.000184665
0.00132052
0.00017042
0.00132973
0.000155527
0.00133849
0.00013997
0.00134677
0.000123732
0.00135456
0.000106795
0.00136184
8.91428e-05
0.0013686
7.07589e-05
0.00137481
5.16249e-05
0.00138047
3.17236e-05
0.00138555
1.10353e-05
0.00139002
-1.04554e-05
0.00139388
-3.2764e-05
0.0013971
-5.59115e-05
0.00139966
-7.99165e-05
0.00140154
-0.000104796
0.00140272
-0.000130565
0.00140319
-0.000157243
0.00140293
-0.000184848
0.00140191
-0.000213398
0.00140013
-0.000242909
0.00139756
-0.0002734
0.00139419
-0.000304893
0.00139001
-0.000337413
0.00138502
-0.000370985
0.00137919
-0.00040564
0.00137255
-0.00044142
0.0013651
-0.000478376
0.00135687
-0.000516572
0.00134789
-0.000556088
0.00133823
-0.000597023
0.00132793
-0.000639488
0.00131703
-0.000683601
0.00130553
-0.000729463
0.00129334
-0.000777137
0.00128029
-0.000826626
0.00126612
-0.000877857
0.00125049
-0.000930678
0.00123302
-0.000984874
0.00121335
-0.00104021
0.00119114
-0.00109646
0.00116608
-0.0011534
0.00113799
-0.0012108
0.00110667
-0.00126841
0.00107189
-0.00132583
0.00103325
-0.00138221
0.000989911
-0.00143585
-0.00148376
0.000940035
0.00101776
0.000346408
-0.00100224
0.00103315
0.000342343
0.0010484
0.000337959
0.00106351
0.000333237
0.00107845
0.000328163
0.00109322
0.000322725
0.0011078
0.000316909
0.00112217
0.000310701
0.00113633
0.000304089
0.00115025
0.000297057
0.00116393
0.000289591
0.00117734
0.000281677
0.00119048
0.000273301
0.00120332
0.000264448
0.00121586
0.000255104
0.00122808
0.000245253
0.00123996
0.000234881
0.0012515
0.000223973
0.00126267
0.000212513
0.00127347
0.000200486
0.00128387
0.000187876
0.00129387
0.000174667
0.00130345
0.000160844
0.00131258
0.000146389
0.00132127
0.000131285
0.00132948
0.000115517
0.00133721
9.90673e-05
0.00134443
8.19188e-05
0.00135114
6.40547e-05
0.00135731
4.54574e-05
0.00136292
2.61097e-05
0.00136796
5.99282e-06
0.00137241
-1.49062e-05
0.00137626
-3.66064e-05
0.00137947
-5.91273e-05
0.00138204
-8.2487e-05
0.00138395
-0.000106702
0.00138517
-0.000131791
0.0013857
-0.00015777
0.00138551
-0.000184659
0.00138459
-0.000212475
0.00138292
-0.000241238
0.00138049
-0.000270969
0.00137728
-0.00030169
0.0013733
-0.000333431
0.00136854
-0.000366222
0.001363
-0.000400103
0.00135671
-0.000435125
0.00134968
-0.00047135
0.00134196
-0.000508852
0.00133359
-0.000547717
0.00132461
-0.000588039
0.00131503
-0.000629908
0.00130482
-0.000673394
0.00129389
-0.000718534
0.00128206
-0.000765309
0.00126908
-0.000813643
0.00125462
-0.000863401
0.00123835
-0.000914401
0.00121991
-0.000966438
0.00119901
-0.00101931
0.00117538
-0.00107283
0.00114881
-0.00112683
0.00111912
-0.00118111
0.00108611
-0.00123541
0.00104949
-0.00128921
0.00100864
-0.00134137
0.000962243
-0.00138945
-0.00142919
0.000907668
0.00100323
0.000331011
-0.000987832
0.0010185
0.000327071
0.00103364
0.000322824
0.00104862
0.00031825
0.00106345
0.000313338
0.0010781
0.000308073
0.00109257
0.000302443
0.00110683
0.000296436
0.00112088
0.000290037
0.00113471
0.000283233
0.00114829
0.00027601
0.00116161
0.000268354
0.00117466
0.000260251
0.00118743
0.000251685
0.00119989
0.000242643
0.00121203
0.00023311
0.00122384
0.00022307
0.00123531
0.000212508
0.00124641
0.000201409
0.00125714
0.000189758
0.00126747
0.000177539
0.00127741
0.000164736
0.00128692
0.000151333
0.00129599
0.000137314
0.00130461
0.000122662
0.00131277
0.000107361
0.00132044
9.13945e-05
0.00132762
7.47449e-05
0.00133428
5.73958e-05
0.0013404
3.93299e-05
0.00134598
2.053e-05
0.001351
9.78048e-07
0.00135543
-1.93383e-05
0.00135926
-4.04399e-05
0.00136248
-6.23453e-05
0.00136507
-8.50721e-05
0.001367
-0.000108638
0.00136827
-0.00013306
0.00136886
-0.000158358
0.00136875
-0.000184549
0.00136793
-0.000211655
0.00136639
-0.000239696
0.00136411
-0.000268696
0.00136111
-0.000298684
0.00135737
-0.000329691
0.00135291
-0.00036176
0.00134774
-0.000394937
0.0013419
-0.000429282
0.00133541
-0.000464863
0.00132831
-0.000501753
0.00132062
-0.000540028
0.00131234
-0.000579752
0.0013034
-0.000620971
0.0012937
-0.000663695
0.00128306
-0.00070789
0.00127122
-0.000753475
0.00125791
-0.000800327
0.00124279
-0.000848287
0.00122557
-0.000897181
0.00120597
-0.000946834
0.00118374
-0.000997081
0.00115869
-0.00104778
0.00113063
-0.00109877
0.00109939
-0.00114987
0.00106473
-0.00120074
0.00102619
-0.00125067
0.000982873
-0.00129805
0.000932845
-0.00133943
-0.00136889
0.000872549
0.000989435
0.000315733
-0.000974157
0.00100459
0.000311919
0.0010196
0.000307809
0.00103447
0.000303384
0.00104917
0.000298632
0.00106371
0.00029354
0.00107806
0.000288095
0.00109221
0.000282286
0.00110614
0.000276098
0.00111986
0.00026952
0.00113333
0.000262537
0.00114655
0.000255135
0.0011595
0.0002473
0.00117217
0.000239018
0.00118454
0.000230274
0.00119659
0.000221054
0.00120832
0.000211342
0.00121971
0.000201123
0.00123073
0.000190383
0.00124139
0.000179105
0.00125165
0.000167274
0.00126151
0.000154874
0.00127096
0.000141889
0.00127997
0.000128303
0.00128853
0.0001141
0.00129663
9.92622e-05
0.00130425
8.37742e-05
0.00131137
6.76189e-05
0.00131799
5.07795e-05
0.00132408
3.32389e-05
0.00132963
1.49801e-05
0.00133462
-4.01408e-06
0.00133904
-2.37575e-05
0.00134287
-4.4271e-05
0.0013461
-6.55726e-05
0.00134871
-8.76802e-05
0.00135068
-0.000110612
0.00135201
-0.000134386
0.00135267
-0.000159023
0.00135267
-0.000184542
0.00135198
-0.000210966
0.0013506
-0.000238321
0.00134854
-0.000266635
0.0013458
-0.000295942
0.00134239
-0.000326282
0.00133833
-0.000357703
0.00133366
-0.000390258
0.00132838
-0.000424007
0.00132253
-0.00045901
0.0013161
-0.000495324
0.00130906
-0.000532993
0.00130135
-0.000572037
0.00129282
-0.000612448
0.00128331
-0.000654179
0.00127257
-0.000697149
0.00126034
-0.000741243
0.00124633
-0.000786324
0.00123029
-0.000832241
0.00121195
-0.000878842
0.0011911
-0.000925984
0.00116755
-0.000973531
0.00114113
-0.00102136
0.00111167
-0.00106931
0.00107895
-0.00111715
0.00104262
-0.00116441
0.00100202
-0.00121007
0.000955791
-0.00125182
0.000901161
-0.0012848
-0.00130103
0.000833298
0.000976377
0.000300563
-0.000961207
0.000991418
0.000296878
0.00100632
0.000292907
0.00102107
0.000288632
0.00103566
0.000284042
0.00105008
0.000279123
0.00106431
0.000273864
0.00107834
0.000268253
0.00109216
0.000262276
0.00110576
0.000255922
0.00111912
0.000249177
0.00113223
0.000242026
0.00114507
0.000234458
0.00115763
0.000226456
0.0011699
0.000218007
0.00118186
0.000209097
0.00119349
0.00019971
0.00120478
0.000189831
0.00121572
0.000179445
0.00122629
0.000168536
0.00123647
0.00015709
0.00124626
0.000145089
0.00125563
0.000132518
0.00126457
0.000119361
0.00127307
0.000105601
0.00128111
9.12227e-05
0.00128868
7.62082e-05
0.00129575
6.05413e-05
0.00130233
4.42051e-05
0.00130838
2.71826e-05
0.00131391
9.45622e-06
0.00131888
-8.98929e-06
0.0013233
-2.8171e-05
0.00132713
-4.81089e-05
0.00133038
-6.88214e-05
0.00133303
-9.03269e-05
0.00133506
-0.000112644
0.00133647
-0.000135794
0.00133725
-0.000159799
0.00133738
-0.00018468
0.00133688
-0.000210466
0.00133575
-0.000237186
0.00133399
-0.000264874
0.00133162
-0.00029357
0.00132865
-0.000323318
0.00132512
-0.000354167
0.00132102
-0.000386165
0.00131638
-0.000419359
0.00131115
-0.000453788
0.00130531
-0.000489476
0.00129874
-0.000526424
0.00129131
-0.000564609
0.00128284
-0.000603979
0.00127312
-0.000644454
0.0012619
-0.000685929
0.00124894
-0.000728286
0.00123401
-0.000771393
0.00121688
-0.000815118
0.00119737
-0.000859331
0.0011753
-0.000903911
0.00115051
-0.000948737
0.00112282
-0.000993676
0.00109206
-0.00103854
0.00105791
-0.001083
0.00101987
-0.00112636
0.000976929
-0.00116713
0.000927046
-0.00120194
0.000866302
-0.00122405
-0.00122204
0.000787312
0.000964058
0.000285487
-0.000948982
0.000979
0.000281935
0.0009938
0.000278107
0.00100845
0.000273986
0.00102293
0.00026956
0.00103723
0.000264816
0.00105135
0.000259745
0.00106527
0.000254333
0.00107898
0.000248568
0.00109247
0.000242438
0.00110571
0.00023593
0.00111871
0.000229031
0.00113144
0.000221727
0.00114389
0.000214004
0.00115605
0.000205849
0.0011679
0.000197246
0.00117943
0.00018818
0.00119062
0.000178638
0.00120146
0.000168603
0.00121194
0.00015806
0.00122204
0.000146994
0.00123174
0.000135388
0.00124103
0.000123227
0.0012499
0.000110494
0.00125832
9.71723e-05
0.0012663
8.32462e-05
0.00127381
6.86986e-05
0.00128084
5.35126e-05
0.00128737
3.76713e-05
0.0012934
2.11573e-05
0.0012989
3.9528e-06
0.00130387
-1.39567e-05
0.00130829
-3.25912e-05
0.00131215
-5.19707e-05
0.00131544
-7.2114e-05
0.00131816
-9.30413e-05
0.00132029
-0.000114774
0.00132183
-0.000137334
0.00132278
-0.000160747
0.00132314
-0.000185041
0.00132291
-0.000210245
0.00132212
-0.000236394
0.00132078
-0.000263526
0.00131888
-0.00029168
0.00131646
-0.000320895
0.00131351
-0.000351211
0.00131
-0.000382661
0.00130591
-0.000415265
0.00130115
-0.000449031
0.00129562
-0.000483948
0.00128918
-0.000519983
0.00128166
-0.000557082
0.00127285
-0.000595171
0.00126255
-0.000634157
0.00125056
-0.000673936
0.00123667
-0.000714395
0.00122069
-0.000755419
0.00120247
-0.000796891
0.00118183
-0.000838695
0.00115863
-0.000880716
0.00113272
-0.000922828
0.00110392
-0.000964869
0.00107195
-0.00100658
0.00103641
-0.00104746
0.00099649
-0.00108645
0.000950665
-0.00112131
0.000895894
-0.00114717
0.000826748
-0.00115491
-0.00112938
0.000734083
0.000952494
0.000270497
-0.000937503
0.000967348
0.00026708
0.000982057
0.000263399
0.000996608
0.000259435
0.00101099
0.000255175
0.0010252
0.00025061
0.00103922
0.000245728
0.00105303
0.000240517
0.00106663
0.000234966
0.00108001
0.000229062
0.00109315
0.000222793
0.00110603
0.000216145
0.00111865
0.000209106
0.001131
0.000201662
0.00114305
0.000193798
0.00115479
0.000185501
0.00116622
0.000176756
0.00117731
0.000167547
0.00118805
0.000157861
0.00119843
0.00014768
0.00120843
0.00013699
0.00121804
0.000125775
0.00122725
0.000114018
0.00123604
0.000101703
0.0012444
8.88137e-05
0.00125232
7.53328e-05
0.00125977
6.12437e-05
0.00126675
4.6529e-05
0.00127325
3.11713e-05
0.00127926
1.5153e-05
0.00128476
-1.54402e-06
0.00128973
-1.89357e-05
0.00129419
-3.70441e-05
0.00129811
-5.58897e-05
0.00130149
-7.54934e-05
0.00130432
-9.58773e-05
0.00130661
-0.000117066
0.00130836
-0.000139084
0.00130958
-0.000161961
0.00131026
-0.000185725
0.00131043
-0.00021041
0.00131008
-0.000236049
0.00130923
-0.000262675
0.00130787
-0.000290318
0.00130598
-0.000319006
0.00130353
-0.000348757
0.00130045
-0.000379581
0.00129665
-0.000411472
0.00129203
-0.000444411
0.00128645
-0.000478362
0.00127974
-0.000513272
0.00127173
-0.000549075
0.00126225
-0.000585692
0.00125113
-0.000623034
0.00123819
-0.000661002
0.00122329
-0.000699494
0.00120628
-0.000738406
0.00118702
-0.000777629
0.00116537
-0.00081705
0.0011412
-0.000856548
0.00111435
-0.000895969
0.00108457
-0.00093509
0.0010515
-0.000973517
0.00101451
-0.00101047
0.000972367
-0.0010443
0.00092266
-0.0010716
0.000860945
-0.00108545
0.00077945
-0.00107341
-0.00101693
0.000666999
0.000941725
0.000255584
-0.000926813
0.000956499
0.000252306
0.000971125
0.000248773
0.000985592
0.000244968
0.000999889
0.000240878
0.001014
0.000236494
0.00102793
0.000231804
0.00104165
0.000226797
0.00105515
0.000221461
0.00106843
0.000215785
0.00108147
0.000209756
0.00109425
0.000203361
0.00110677
0.000196588
0.00111901
0.000189422
0.00113096
0.000181851
0.0011426
0.000173859
0.00115392
0.000165433
0.00116491
0.000156557
0.00117556
0.000147216
0.00118585
0.000137394
0.00119576
0.000127077
0.00120529
0.000116247
0.00121442
0.000104889
0.00122314
9.29848e-05
0.00123143
8.05189e-05
0.00123929
6.74735e-05
0.0012467
5.38313e-05
0.00125366
3.95744e-05
0.00126014
2.46848e-05
0.00126615
9.14348e-06
0.00127168
-7.06734e-06
0.00127671
-2.39677e-05
0.00128124
-4.15803e-05
0.00128528
-5.99276e-05
0.00128882
-7.90324e-05
0.00129186
-9.89193e-05
0.00129441
-0.000119614
0.00129647
-0.000141144
0.00129805
-0.000163538
0.00129915
-0.000186822
0.00129976
-0.000211026
0.00129989
-0.000236173
0.0012995
-0.000262287
0.00129856
-0.000289382
0.00129702
-0.000317468
0.00129481
-0.000346542
0.00129182
-0.000376595
0.00128795
-0.000407601
0.00128307
-0.000439528
0.00127703
-0.000472327
0.0012697
-0.000505941
0.00126093
-0.000540304
0.00125058
-0.000575339
0.00123851
-0.000610963
0.00122459
-0.000647085
0.00120871
-0.000683612
0.00119074
-0.000720442
0.00117058
-0.000757467
0.0011481
-0.000794567
0.00112315
-0.000831595
0.00109552
-0.000868348
0.00106493
-0.000904491
0.00103081
-0.000939405
0.000992173
-0.000971826
0.000947046
-0.000999173
0.000891737
-0.00101629
0.000819825
-0.00101354
0.000721328
-0.000974913
-0.000885695
0.000590097
0.000931819
0.000240746
-0.000916981
0.000946519
0.000237606
0.000961069
0.000234223
0.000975459
0.000230578
0.000989677
0.00022666
0.00100371
0.000222459
0.00101755
0.000217962
0.00103119
0.000213161
0.00104461
0.000208043
0.0010578
0.000202596
0.00107074
0.000196809
0.00108344
0.000190668
0.00109586
0.000184161
0.00110801
0.000177275
0.00111987
0.000169996
0.00113142
0.000162309
0.00114265
0.0001542
0.00115355
0.000145654
0.00116411
0.000136656
0.00117431
0.00012719
0.00118415
0.00011724
0.00119361
0.000106789
0.00120268
9.58212e-05
0.00121134
8.43189e-05
0.0012196
7.22648e-05
0.00122743
5.9641e-05
0.00123483
4.64291e-05
0.0012418
3.26106e-05
0.00124831
1.81661e-05
0.00125438
3.07561e-06
0.00125999
-1.26798e-05
0.00126515
-2.91239e-05
0.00126985
-4.62801e-05
0.00127409
-6.41717e-05
0.00127788
-8.28225e-05
0.00128122
-0.000102257
0.00128411
-0.0001225
0.00128654
-0.000143576
0.00128851
-0.000165506
0.00129
-0.000188313
0.00129099
-0.000212014
0.00129144
-0.000236622
0.00129129
-0.000262145
0.0012905
-0.000288585
0.00128896
-0.000315934
0.0012866
-0.00034418
0.00128331
-0.0003733
0.00127897
-0.000403262
0.00127347
-0.000434027
0.00126669
-0.000465547
0.00125851
-0.000497766
0.00124883
-0.000530619
0.00123752
-0.000564036
0.0012245
-0.000597938
0.00120966
-0.000632242
0.0011929
-0.000666854
0.00117413
-0.000701673
0.00115325
-0.000736584
0.00113013
-0.000771446
0.0011046
-0.000806069
0.00107641
-0.000840156
0.0010451
-0.000873183
0.00100983
-0.000904132
0.000968938
-0.000930937
0.000919306
-0.000949541
0.000855439
-0.000952425
0.000768678
-0.000926782
0.000648817
-0.000855052
-0.000733454
0.000496576
0.000922874
0.000225975
-0.000908103
0.000937506
0.000222974
0.000951988
0.000219741
0.000966309
0.000216257
0.000980458
0.000212511
0.000994424
0.000208493
0.00100819
0.000204192
0.00102176
0.000199597
0.0010351
0.000194697
0.00104822
0.000189481
0.00106109
0.000183936
0.00107371
0.00017805
0.00108606
0.00017181
0.00109813
0.000165203
0.00110991
0.000158215
0.00112139
0.000150831
0.00113255
0.000143037
0.00114339
0.000134817
0.00115389
0.000126157
0.00116404
0.000117039
0.00117383
0.000107448
0.00118326
9.73665e-05
0.0011923
8.6777e-05
0.00120096
7.56617e-05
0.00120922
6.40024e-05
0.00121708
5.17803e-05
0.00122453
3.8976e-05
0.00123157
2.55701e-05
0.0012382
1.1542e-05
0.0012444
-3.12872e-06
0.00125019
-1.84637e-05
0.00125555
-3.4487e-05
0.00126049
-5.12211e-05
0.00126501
-6.86879e-05
0.00126909
-8.69091e-05
0.00127274
-0.000105905
0.00127594
-0.000125696
0.00127866
-0.000146299
0.00128088
-0.000167728
0.00128257
-0.000189996
0.00128366
-0.00021311
0.00128411
-0.000237073
0.00128385
-0.000261883
0.0012828
-0.000287532
0.00128087
-0.000314008
0.00127798
-0.00034129
0.00127403
-0.000369352
0.00126893
-0.000398163
0.00126259
-0.000427681
0.0012549
-0.000457861
0.00124578
-0.00048865
0.00123515
-0.000519988
0.00122293
-0.000551809
0.00120902
-0.000584037
0.00119337
-0.000616591
0.0011759
-0.000649377
0.00115651
-0.000682288
0.00113512
-0.000715192
0.00111159
-0.000747912
0.0010857
-0.000780184
0.00105709
-0.000811542
0.00102502
-0.000841113
0.000988065
-0.000867179
0.000943481
-0.000886354
0.000886376
-0.000892436
0.00080904
-0.000875089
0.000701593
-0.000819334
0.000560014
-0.000713474
-0.000575474
0.000402034
0.000915033
0.000211258
-0.000900316
0.00092961
0.000208396
0.000944039
0.000205313
0.000958306
0.000201989
0.000972402
0.000198415
0.000986315
0.00019458
0.00100003
0.000190474
0.00101355
0.000186085
0.00102684
0.000181403
0.0010399
0.000176416
0.00105273
0.000171113
0.0010653
0.00016548
0.0010776
0.000159505
0.00108963
0.000153173
0.00110138
0.000146472
0.00111282
0.000139386
0.00112396
0.0001319
0.00113477
0.000124
0.00114526
0.000115668
0.00115541
0.000106889
0.00116522
9.76441e-05
0.00117467
8.79172e-05
0.00118375
7.76897e-05
0.00119247
6.69432e-05
0.00120082
5.56585e-05
0.00120878
4.38165e-05
0.00121636
3.13972e-05
0.00122355
1.83807e-05
0.00123034
4.74646e-06
0.00123674
-9.52586e-06
0.00124274
-2.44584e-05
0.00124832
-4.00719e-05
0.00125349
-5.63857e-05
0.00125822
-7.34179e-05
0.00126249
-9.11857e-05
0.00126629
-0.000109704
0.00126958
-0.000128987
0.00127233
-0.000149044
0.00127448
-0.000169884
0.001276
-0.000191512
0.00127682
-0.000213928
0.00127687
-0.000237131
0.0012761
-0.000261113
0.00127444
-0.000285863
0.00127179
-0.000311365
0.0012681
-0.000337598
0.00126328
-0.000364536
0.00125727
-0.000392146
0.00124998
-0.000420391
0.00124134
-0.000449228
0.0012313
-0.000478606
0.00121978
-0.000508469
0.00120673
-0.000538755
0.00119208
-0.000569391
0.00117579
-0.000600295
0.00115778
-0.000631371
0.00113799
-0.0006625
0.00111632
-0.00069352
0.0010926
-0.000724191
0.00106652
-0.000754105
0.00103745
-0.000782473
0.00100411
-0.000807772
0.000964007
-0.000827078
0.000912651
-0.000834997
0.00084294
-0.000822725
0.000745535
-0.000777684
0.000613308
-0.000687107
0.000454463
-0.000554629
-0.000413701
0.000292689
0.000908537
0.000196572
-0.000893851
0.000923087
0.000193846
0.00093749
0.00019091
0.000951734
0.000187745
0.000965809
0.00018434
0.000979703
0.000180686
0.000993406
0.000176771
0.00100691
0.000172586
0.00102019
0.000168118
0.00103325
0.000163357
0.00104607
0.000158291
0.00105865
0.000152906
0.00107096
0.000147189
0.00108301
0.000141127
0.00109477
0.000134706
0.00110625
0.00012791
0.00111742
0.000120724
0.00112829
0.000113132
0.00113884
0.000105119
0.00114907
9.66655e-05
0.00115895
8.77557e-05
0.0011685
7.83713e-05
0.0011777
6.84938e-05
0.00118653
5.81048e-05
0.00119501
4.71851e-05
0.00120311
3.57157e-05
0.00121083
2.36773e-05
0.00121816
1.10507e-05
0.00122509
-2.18358e-06
0.00123161
-1.60445e-05
0.0012377
-3.05512e-05
0.00124335
-4.57208e-05
0.00124853
-6.15689e-05
0.00125322
-7.81098e-05
0.00125739
-9.53566e-05
0.00126101
-0.00011332
0.00126403
-0.000132009
0.00126642
-0.000151431
0.00126812
-0.000171588
0.00126909
-0.000192482
0.00126928
-0.000214112
0.00126862
-0.000236472
0.00126706
-0.000259552
0.00126454
-0.000283341
0.00126099
-0.000307822
0.00125637
-0.000332972
0.0012506
-0.000358768
0.00124363
-0.000385178
0.00123541
-0.000412167
0.00122588
-0.000439695
0.00121499
-0.000467715
0.00120269
-0.000496176
0.00118895
-0.000525016
0.00117373
-0.000554167
0.00115698
-0.000583545
0.00113865
-0.000613049
0.00111869
-0.000642535
0.00109696
-0.000671787
0.0010732
-0.000700432
0.00104686
-0.000727766
0.00101674
-0.000752354
0.000980477
-0.000771509
0.000933804
-0.000780405
0.000869991
-0.000771184
0.000780428
-0.000733161
0.000657754
-0.00065501
0.000505482
-0.000534835
0.000344478
-0.000393625
-0.000264974
0.000195751
0.000903838
0.000181867
-0.000889132
0.000918412
0.000179272
0.000932843
0.000176479
0.000947121
0.000173467
0.000961234
0.000170227
0.000975172
0.000166748
0.000988923
0.00016302
0.00100248
0.000159032
0.00101582
0.000154774
0.00102894
0.000150233
0.00104184
0.000145398
0.00105449
0.000140255
0.00106689
0.000134792
0.00107902
0.000128994
0.00109088
0.000122848
0.00110245
0.000116337
0.00111373
0.000109447
0.0011247
0.000102162
0.00113535
9.44658e-05
0.00114567
8.63403e-05
0.00115566
7.77688e-05
0.0011653
6.87336e-05
0.00117458
5.92165e-05
0.00118348
4.91995e-05
0.001192
3.86643e-05
0.00120013
2.75925e-05
0.00120784
1.59659e-05
0.00121512
3.76636e-06
0.00122196
-9.02368e-06
0.00122834
-2.24218e-05
0.00123423
-3.64442e-05
0.00123962
-5.11055e-05
0.00124447
-6.64189e-05
0.00124875
-8.23966e-05
0.00125244
-9.90486e-05
0.00125551
-0.000116384
0.00125791
-0.000134407
0.0012596
-0.000153124
0.00126055
-0.000172536
0.00126071
-0.000192641
0.00126003
-0.000213435
0.00125847
-0.000234912
0.00125598
-0.000257062
0.00125251
-0.000279871
0.00124801
-0.000303323
0.00124244
-0.000327397
0.00123574
-0.000352068
0.00122787
-0.00037731
0.00121879
-0.000403089
0.00120846
-0.000429368
0.00119685
-0.000456106
0.00118393
-0.000483256
0.00116968
-0.00051076
0.00115407
-0.000538554
0.00113707
-0.000566551
0.00111865
-0.00059463
0.00109872
-0.000622599
0.00107704
-0.000650109
0.00105309
-0.00067648
0.0010257
-0.000700377
0.000992491
-0.000719147
0.000949253
-0.00072827
0.000889408
-0.00072056
0.000804815
-0.000686591
0.000688824
-0.00061717
0.000543231
-0.000509418
0.000384656
-0.000376261
0.00023533
-0.000244299
-0.000141395
0.000111752
0.000901715
0.000167066
-0.000886914
0.00091639
0.000164597
0.000930928
0.000161941
0.000945316
0.000159079
0.000959543
0.000156
0.000973597
0.000152694
0.000987466
0.000149151
0.00100114
0.00014536
0.0010146
0.000141311
0.00102784
0.000136991
0.00104085
0.00013239
0.00105361
0.000127494
0.00106611
0.000122291
0.00107834
0.000116766
0.00109029
0.000110905
0.00110193
0.000104694
0.00111326
9.81171e-05
0.00112426
9.11588e-05
0.00113493
8.38028e-05
0.00114523
7.60324e-05
0.00115517
6.78306e-05
0.00116473
5.91799e-05
0.00117388
5.00627e-05
0.00118262
4.04612e-05
0.00119092
3.03576e-05
0.00119878
1.97342e-05
0.00120618
8.57329e-06
0.00121308
-3.14247e-06
0.00121949
-1.543e-05
0.00122537
-2.83056e-05
0.00123071
-4.1784e-05
0.00123549
-5.58786e-05
0.00123967
-7.06014e-05
0.00124324
-8.59627e-05
0.00124616
-0.000101971
0.00124841
-0.000118633
0.00124995
-0.000135953
0.00125076
-0.000153932
0.0012508
-0.000172571
0.00125002
-0.000191866
0.0012484
-0.000211813
0.00124589
-0.000232402
0.00124245
-0.000253624
0.00123804
-0.000275465
0.00123263
-0.000297908
0.00122617
-0.000320934
0.00121862
-0.000344522
0.00120996
-0.000368646
0.00120015
-0.000393278
0.00118917
-0.000418387
0.00117699
-0.000443936
0.00116362
-0.000469885
0.00114905
-0.000496184
0.00113326
-0.000522765
0.00111624
-0.000549529
0.0010979
-0.000576297
0.00107804
-0.000602735
0.00105609
-0.00062816
0.00103081
-0.000651197
0.000999688
-0.000669257
0.000958344
-0.000677803
0.000900278
-0.000670204
0.000817729
-0.000638011
0.000705116
-0.000573978
0.000564592
-0.000476645
0.000410188
-0.000355014
0.000261544
-0.000227617
0.000133558
-0.000116312
-4.08905e-05
3.30531e-05
0.000902969
0.000152117
-0.00088802
0.000917788
0.000149778
0.000932465
0.000147264
0.000946986
0.000144558
0.000961337
0.000141649
0.000975504
0.000138526
0.000989475
0.00013518
0.00100323
0.000131601
0.00101677
0.000127778
0.00103006
0.0001237
0.00104309
0.000119354
0.00105586
0.00011473
0.00106834
0.000109813
0.00108051
0.00010459
0.00109237
9.90477e-05
0.00110389
9.31709e-05
0.00111506
8.69448e-05
0.00112587
8.03535e-05
0.00113629
7.33809e-05
0.00114631
6.60105e-05
0.00115592
5.82251e-05
0.00116509
5.00073e-05
0.00117381
4.13394e-05
0.00118207
3.22035e-05
0.00118985
2.25819e-05