/*--------------------------------*- C++ -*----------------------------------*\
| =========                 |                                                 |
| \\      /  F ield         | OpenFOAM: The Open Source CFD Toolbox           |
|  \\    /   O peration     | Version:  2312                                  |
|   \\  /    A nd           | Website:  www.openfoam.com                      |
|    \\/     M anipulation  |                                                 |
\*---------------------------------------------------------------------------*/
FoamFile
{
    version     2.0;
    format      ascii;
    arch        "LSB;label=32;scalar=64";
    class       volVectorField;
    location    "1500";
    object      U;
}
// * * * * * * * * * * * * * * * * * * * * * * * * * * * * * * * * * * * * * //

dimensions      [0 1 -1 0 0 0 0];

internalField   nonuniform List<vector> 
76025
(
(0.0367132 -0.00690589 0)
(0.0368871 -0.00698549 6.55997e-22)
(0.0370625 -0.00706041 0)
(0.0372402 -0.00713284 0)
(0.037411 -0.00720307 -1.20446e-21)
(0.0375938 -0.00726623 -2.29396e-21)
(0.0377717 -0.00732782 3.98173e-21)
(0.0379556 -0.00738285 -1.68061e-21)
(0.0381393 -0.0074362 -5.33372e-22)
(0.0383243 -0.00748648 5.15711e-22)
(0.038509 -0.00753283 -3.21032e-24)
(0.0386965 -0.00757339 1.40358e-21)
(0.038888 -0.00761236 -1.88469e-21)
(0.0390794 -0.00764632 0)
(0.0392781 -0.00767379 4.24656e-22)
(0.0394711 -0.00770341 0)
(0.0396701 -0.0077214 0)
(0.0398678 -0.00774286 0)
(0.0400676 -0.00775436 3.58713e-22)
(0.040266 -0.00776772 -3.39884e-22)
(0.0404668 -0.00777197 -3.21309e-22)
(0.0406725 -0.00777338 -9.01368e-22)
(0.0408766 -0.00777137 5.96398e-22)
(0.0410817 -0.00776391 7.92386e-22)
(0.0412875 -0.00775463 -3.65627e-23)
(0.0414917 -0.00774586 1.97725e-22)
(0.0417007 -0.00772376 -6.51162e-22)
(0.0419044 -0.007703 6.29353e-22)
(0.0421107 -0.00767606 -1.87674e-22)
(0.0423157 -0.00764315 1.71295e-22)
(0.0425199 -0.00761456 1.52042e-22)
(0.0427203 -0.00758554 -2.43911e-22)
(0.0429226 -0.00754116 3.46868e-22)
(0.0431243 -0.00750446 2.92025e-23)
(0.0433245 -0.00745588 -1.82194e-22)
(0.0435228 -0.00741374 1.02158e-23)
(0.0437193 -0.00736716 1.96965e-23)
(0.0439178 -0.00730818 -3.30602e-24)
(0.0441162 -0.00725421 1.95786e-24)
(0.0443108 -0.00719637 -7.97656e-24)
(0.0445042 -0.00714161 6.27586e-24)
(0.0446982 -0.00708306 -5.76518e-24)
(0.0448944 -0.00701094 1.491e-23)
(0.0450909 -0.00694909 -3.88536e-23)
(0.0452856 -0.00688185 -5.14954e-23)
(0.0454825 -0.00682097 1.00522e-22)
(0.0456816 -0.0067484 1.29772e-22)
(0.0458859 -0.00668183 -4.13576e-22)
(0.0460913 -0.00661637 2.92743e-22)
(0.0463015 -0.00655426 8.77975e-24)
(0.0465185 -0.00649344 -8.6665e-22)
(0.0467433 -0.00643187 -3.65224e-22)
(0.0469787 -0.00637145 3.96763e-22)
(0.0472275 -0.00631451 0)
(0.0474964 -0.00626352 -4.32503e-22)
(0.0477891 -0.00622344 -4.59416e-22)
(0.048115 -0.00618775 1.78877e-23)
(0.0484801 -0.00616487 -4.79097e-22)
(0.0488887 -0.00615742 5.24999e-22)
(0.0493353 -0.0061523 -1.54049e-21)
(0.0498251 -0.00615284 -1.05427e-21)
(0.0503593 -0.00616861 8.78333e-24)
(0.0509074 -0.00619133 0)
(0.0514515 -0.00621321 2.85902e-21)
(0.0519803 -0.00623014 -1.18721e-21)
(0.0524793 -0.00625835 5.84462e-22)
(0.0529199 -0.0062807 -1.25716e-21)
(0.0533012 -0.00627066 1.25999e-21)
(0.0536104 -0.00623468 2.67011e-21)
(0.0365743 -0.00720963 6.93535e-22)
(0.0367574 -0.0072913 2.01971e-21)
(0.0369425 -0.00736865 -2.69002e-21)
(0.0371294 -0.00744177 0)
(0.0373157 -0.00751231 3.0975e-21)
(0.0375053 -0.00757725 -6.92509e-23)
(0.0376955 -0.00763913 -2.39404e-21)
(0.0378868 -0.00769617 0)
(0.03808 -0.00774902 -4.00189e-24)
(0.0382743 -0.00779794 -5.32402e-22)
(0.03847 -0.00784294 5.14116e-22)
(0.0386664 -0.00788339 -1.74931e-24)
(0.0388638 -0.00791991 0)
(0.0390627 -0.00795223 0)
(0.039264 -0.0079788 8.44558e-22)
(0.0394657 -0.00800316 -2.1489e-21)
(0.0396692 -0.00802142 -4.03031e-22)
(0.039873 -0.0080371 1.13601e-21)
(0.0400778 -0.0080473 -7.52741e-22)
(0.0402827 -0.00805471 3.50031e-22)
(0.0404884 -0.00805701 -3.08936e-22)
(0.0406946 -0.00805509 6.42413e-22)
(0.0409012 -0.00804939 -5.6731e-22)
(0.0411082 -0.00803918 8.22228e-22)
(0.0413157 -0.00802508 -5.32524e-22)
(0.0415231 -0.00800802 -6.98172e-22)
(0.041731 -0.00798548 4.59033e-22)
(0.0419377 -0.00796046 0)
(0.0421443 -0.0079312 0)
(0.0423501 -0.00789857 1.60148e-22)
(0.0425558 -0.00786166 0)
(0.0427614 -0.00782255 1.22303e-22)
(0.0429657 -0.00777878 -9.80047e-23)
(0.0431691 -0.00773325 1.3801e-22)
(0.0433715 -0.00768455 4.70456e-24)
(0.0435731 -0.00763373 2.56889e-23)
(0.0437739 -0.00757954 0)
(0.0439736 -0.00752246 4.38074e-24)
(0.0441729 -0.00746471 7.93089e-24)
(0.0443717 -0.00740511 -1.38063e-23)
(0.0445702 -0.00734347 1.52265e-23)
(0.0447686 -0.00727974 1.10275e-24)
(0.0449673 -0.00721446 1.10271e-23)
(0.0451671 -0.0071501 -1.03562e-23)
(0.0453682 -0.00708398 1.11965e-22)
(0.0455713 -0.00701724 -6.20482e-23)
(0.0457768 -0.00694944 -7.48837e-23)
(0.045986 -0.00688372 1.43886e-22)
(0.0461992 -0.00681821 4.88378e-22)
(0.0464179 -0.00675372 4.23833e-24)
(0.0466434 -0.00669111 5.5052e-22)
(0.046878 -0.00663074 -2.03074e-22)
(0.0471254 -0.00657418 -6.36133e-22)
(0.0473901 -0.00652348 4.19381e-22)
(0.0476773 -0.00647926 0)
(0.0479937 -0.00644387 1.42509e-21)
(0.0483448 -0.00641882 2.85594e-23)
(0.0487351 -0.00640641 -4.866e-22)
(0.0491641 -0.00640575 -5.13442e-22)
(0.0496269 -0.00641276 0)
(0.0501182 -0.00642593 5.18489e-22)
(0.0506256 -0.00644509 1.61243e-21)
(0.0511305 -0.00647038 0)
(0.0516162 -0.00649858 -1.12987e-21)
(0.0520729 -0.00652903 5.64061e-22)
(0.0524927 -0.00656823 -1.18814e-21)
(0.0528552 -0.00660822 6.00072e-22)
(0.0531531 -0.00663206 -1.32859e-21)
(0.0533422 -0.00666746 -1.39278e-21)
(0.0364296 -0.00753539 -3.48289e-21)
(0.0366207 -0.00761845 2.1263e-21)
(0.0368148 -0.00769721 -6.83321e-22)
(0.037011 -0.00777138 2.60181e-21)
(0.0372089 -0.00784163 -3.23816e-21)
(0.0374082 -0.0079076 -2.44399e-21)
(0.037609 -0.00796934 3.04173e-21)
(0.037811 -0.00802662 0)
(0.0380144 -0.0080794 -3.71678e-24)
(0.0382189 -0.0081277 0)
(0.0384245 -0.00817154 -5.22972e-22)
(0.0386308 -0.00821086 5.01602e-22)
(0.0388378 -0.0082456 2.37664e-21)
(0.0390453 -0.00827589 -1.89284e-21)
(0.0392537 -0.00830142 4.44221e-22)
(0.0394631 -0.00832248 1.25509e-21)
(0.0396732 -0.00833893 -4.2424e-22)
(0.0398839 -0.00835088 -3.87155e-22)
(0.0400951 -0.00835844 -1.07871e-21)
(0.0403066 -0.00836151 7.14984e-22)
(0.0405182 -0.00836028 3.25829e-22)
(0.0407297 -0.00835468 -5.98824e-22)
(0.0409412 -0.00834486 3.13359e-22)
(0.0411527 -0.00833075 2.67757e-22)
(0.0413642 -0.00831249 0)
(0.0415754 -0.00829038 -2.29202e-22)
(0.0417859 -0.00826438 -1.98451e-22)
(0.041996 -0.00823453 2.19694e-22)
(0.0422058 -0.00820079 0)
(0.042415 -0.00816362 -3.13302e-22)
(0.0426237 -0.00812262 1.32786e-22)
(0.0428317 -0.00807879 -9.68969e-24)
(0.0430386 -0.00803198 0)
(0.0432449 -0.00798202 -4.11695e-23)
(0.0434505 -0.00792941 7.83779e-23)
(0.0436553 -0.00787419 -4.6853e-23)
(0.0438591 -0.00781678 0)
(0.0440621 -0.00775715 3.79093e-24)
(0.044265 -0.00769547 -1.07098e-23)
(0.0444676 -0.00763218 -3.92446e-24)
(0.04467 -0.00756727 0)
(0.0448725 -0.00750115 -1.73298e-23)
(0.0450756 -0.00743382 -1.16153e-23)
(0.0452799 -0.00736562 1.22842e-23)
(0.0454857 -0.00729687 -8.17181e-23)
(0.0456934 -0.007228 -6.64538e-23)
(0.0459039 -0.00715939 1.38084e-22)
(0.0461183 -0.00709163 -1.62431e-22)
(0.0463376 -0.00702512 1.70783e-22)
(0.0465633 -0.00696068 -1.71874e-22)
(0.0467977 -0.00689925 -1.87371e-22)
(0.0470439 -0.00684167 4.08245e-22)
(0.047306 -0.00678924 0)
(0.047589 -0.00674367 4.45125e-22)
(0.0478983 -0.0067065 -9.28231e-24)
(0.0482389 -0.00667922 -4.85157e-22)
(0.048614 -0.00666287 -4.97656e-22)
(0.0490236 -0.00665735 9.90211e-22)
(0.049463 -0.00666146 1.2535e-23)
(0.0499233 -0.00667267 5.10061e-22)
(0.0503933 -0.00668891 -1.02973e-21)
(0.0508601 -0.00671098 -5.02442e-22)
(0.0513092 -0.00673944 2.72821e-23)
(0.0517282 -0.00677412 -5.26475e-22)
(0.0521093 -0.00681601 -5.5373e-22)
(0.0524453 -0.00686737 -1.68036e-21)
(0.0527202 -0.00692559 0)
(0.0529196 -0.00697626 -6.6009e-22)
(0.0529605 -0.00705375 6.48752e-22)
(0.0362828 -0.00788073 0)
(0.0364832 -0.00796497 7.09149e-22)
(0.0366864 -0.00804465 3.42362e-21)
(0.0368917 -0.00811947 -2.72685e-21)
(0.0370992 -0.00818987 -1.92022e-21)
(0.0373087 -0.00825587 3.19569e-21)
(0.0375198 -0.00831731 -6.07712e-22)
(0.0377323 -0.00837408 5.91315e-22)
(0.0379461 -0.00842614 5.67212e-22)
(0.038161 -0.00847347 2.15357e-21)
(0.0383767 -0.00851603 -2.15221e-21)
(0.0385932 -0.00855377 -1.98881e-21)
(0.0388104 -0.00858665 5.47363e-22)
(0.0390279 -0.00861469 1.86547e-21)
(0.0392458 -0.00863785 -1.35727e-21)
(0.039464 -0.00865615 4.24262e-22)
(0.0396825 -0.00866965 -4.03695e-22)
(0.0399012 -0.00867834 -3.83207e-22)
(0.0401199 -0.00868235 1.07741e-21)
(0.0403386 -0.00868167 -3.6875e-22)
(0.0405572 -0.00867641 -3.27881e-22)
(0.0407754 -0.00866658 0)
(0.0409933 -0.00865231 -5.44209e-22)
(0.0412107 -0.0086337 2.83312e-22)
(0.0414276 -0.00861086 4.72166e-22)
(0.0416438 -0.00858397 4.11531e-22)
(0.0418593 -0.00855307 -8.48109e-22)
(0.0420741 -0.00851824 3.74186e-22)
(0.042288 -0.00847966 0)
(0.0425011 -0.00843755 2.95675e-22)
(0.0427133 -0.00839205 -1.51099e-23)
(0.0429247 -0.00834346 -2.32833e-22)
(0.0431351 -0.00829183 7.80703e-23)
(0.0433447 -0.00823718 -1.64764e-22)
(0.0435534 -0.00817996 3.60325e-23)
(0.0437613 -0.00812039 0)
(0.0439683 -0.00805866 0)
(0.0441747 -0.00799485 4.19033e-24)
(0.0443807 -0.00792923 5.95471e-24)
(0.0445865 -0.00786216 6.47368e-24)
(0.0447923 -0.00779382 -2.66964e-25)
(0.0449983 -0.0077244 9.25671e-24)
(0.0452051 -0.00765408 0)
(0.0454131 -0.00758327 -2.42873e-24)
(0.0456228 -0.00751241 0)
(0.0458349 -0.00744181 6.78762e-23)
(0.0460505 -0.00737189 7.55532e-24)
(0.0462707 -0.00730327 -2.44664e-22)
(0.0464972 -0.00723677 0)
(0.0467321 -0.00717322 -1.9277e-22)
(0.0469784 -0.00711371 1.89247e-22)
(0.0472399 -0.00705946 -4.0578e-22)
(0.047521 -0.0070119 0)
(0.0478262 -0.00697247 -1.34913e-21)
(0.0481597 -0.00694229 -8.58905e-24)
(0.0485233 -0.00692189 4.58427e-22)
(0.0489164 -0.0069111 4.67611e-22)
(0.0493342 -0.00690897 0)
(0.049768 -0.00691405 0)
(0.0502066 -0.00692469 -4.97446e-22)
(0.0506376 -0.00694016 1.00535e-21)
(0.0510494 -0.00696143 1.01759e-21)
(0.0514314 -0.00699046 0)
(0.0517753 -0.00702925 -1.02641e-21)
(0.052075 -0.00707991 0)
(0.0523231 -0.00714384 1.69802e-21)
(0.0525012 -0.00721858 -5.6675e-22)
(0.0525826 -0.00728751 -6.402e-22)
(0.0524515 -0.00738553 -6.32429e-22)
(0.0361356 -0.00824651 0)
(0.0363457 -0.00833167 0)
(0.0365587 -0.00841199 7.09731e-22)
(0.0367737 -0.00848714 -2.69676e-21)
(0.0369908 -0.00855753 3.35446e-21)
(0.0372101 -0.00862322 -6.37912e-22)
(0.0374313 -0.00868406 0)
(0.0376541 -0.00873995 -5.95244e-22)
(0.0378781 -0.00879084 0)
(0.0381033 -0.0088367 -1.08652e-21)
(0.0383295 -0.0088775 4.12291e-23)
(0.0385563 -0.00891318 1.04208e-21)
(0.0387837 -0.00894373 0)
(0.0390115 -0.00896914 -9.14413e-22)
(0.0392394 -0.00898942 2.67836e-21)
(0.0394673 -0.00900458 -1.7047e-21)
(0.0396952 -0.00901468 2.02293e-21)
(0.0399228 -0.00901974 -4.0243e-22)
(0.0401501 -0.00901983 3.59236e-22)
(0.040377 -0.00901504 -3.4428e-22)
(0.0406033 -0.00900542 -3.03442e-22)
(0.040829 -0.00899108 9.17982e-22)
(0.041054 -0.00897214 5.58749e-22)
(0.0412781 -0.00894871 0)
(0.0415013 -0.00892094 -4.56944e-22)
(0.0417235 -0.00888898 -1.80932e-22)
(0.0419447 -0.00885295 6.21225e-22)
(0.0421647 -0.00881301 -1.83145e-22)
(0.0423835 -0.00876935 2.95519e-22)
(0.0426012 -0.00872216 -4.40378e-22)
(0.0428177 -0.00867161 1.11724e-22)
(0.0430331 -0.00861796 -4.56861e-23)
(0.0432474 -0.00856128 0)
(0.0434606 -0.00850177 3.05308e-23)
(0.0436727 -0.00843978 2.03014e-23)
(0.0438839 -0.00837553 0)
(0.0440942 -0.00830924 5.07738e-24)
(0.0443039 -0.00824111 -1.98828e-23)
(0.0445131 -0.0081714 1.54937e-23)
(0.0447221 -0.00810041 -1.43529e-23)
(0.0449312 -0.00802837 -3.5388e-25)
(0.0451408 -0.00795552 -1.79827e-23)
(0.0453512 -0.00788217 6.01471e-24)
(0.0455632 -0.00780869 2.85105e-23)
(0.0457775 -0.00773552 -1.22505e-24)
(0.045995 -0.0076631 2.15505e-22)
(0.046217 -0.00759204 0)
(0.0464453 -0.00752311 1.66298e-22)
(0.0466821 -0.00745725 2.574e-24)
(0.0469302 -0.00739552 -1.85124e-22)
(0.0471931 -0.00733912 0)
(0.0474747 -0.00728927 -2.16532e-22)
(0.0477786 -0.00724707 2.11337e-22)
(0.0481078 -0.00721331 4.43072e-22)
(0.0484631 -0.00718818 0)
(0.0488428 -0.00717123 -9.41687e-22)
(0.0492417 -0.00716146 9.46034e-22)
(0.0496516 -0.00715763 -9.54685e-22)
(0.0500618 -0.00715865 -1.10954e-23)
(0.0504609 -0.00716403 0)
(0.0508381 -0.00717443 -4.95099e-22)
(0.0511844 -0.00719198 4.93157e-22)
(0.0514924 -0.00721977 4.9243e-22)
(0.0517563 -0.00726102 1.02283e-21)
(0.0519704 -0.00731841 -1.53918e-21)
(0.0521249 -0.00739258 1.07317e-21)
(0.0521943 -0.00747957 -5.5182e-22)
(0.0521331 -0.00755765 5.38578e-22)
(0.0517827 -0.00766058 1.95016e-21)
(0.0359885 -0.00863533 -2.94874e-21)
(0.0362087 -0.00872121 8.27566e-23)
(0.036432 -0.00880191 2.91897e-21)
(0.0366572 -0.00887711 0)
(0.0368845 -0.00894721 -6.6891e-22)
(0.0371141 -0.00901229 0)
(0.0373455 -0.00907219 1.23029e-21)
(0.0375785 -0.00912682 -4.31005e-23)
(0.0378129 -0.00917612 -1.76286e-21)
(0.0380485 -0.00922006 5.57513e-22)
(0.0382851 -0.00925862 5.34849e-22)
(0.0385223 -0.00929176 5.11429e-22)
(0.03876 -0.00931948 0)
(0.038998 -0.00934178 0)
(0.0392361 -0.00935866 -4.46941e-22)
(0.039474 -0.00937017 -4.25217e-22)
(0.0397116 -0.00937634 7.80647e-22)
(0.0399487 -0.00937724 -7.81038e-22)
(0.0401851 -0.00937293 -7.14698e-22)
(0.0404208 -0.00936351 6.50418e-22)
(0.0406556 -0.00934908 -1.26699e-21)
(0.0408894 -0.00932975 3.50663e-23)
(0.041122 -0.00930566 5.56952e-22)
(0.0413535 -0.00927695 2.45727e-22)
(0.0415836 -0.00924378 4.38615e-22)
(0.0418123 -0.00920631 -4.40096e-22)
(0.0420397 -0.00916473 -3.55466e-22)
(0.0422655 -0.00911922 3.56964e-22)
(0.0424898 -0.00906997 0)
(0.0427127 -0.00901719 0)
(0.042934 -0.00896111 -2.56786e-22)
(0.0431539 -0.00890198 2.76571e-23)
(0.0433724 -0.00883986 7.41971e-23)
(0.0435896 -0.00877507 3.26715e-23)
(0.0438055 -0.00870792 -3.22665e-23)
(0.0440203 -0.00863866 0)
(0.0442342 -0.00856755 -5.06085e-24)
(0.0444474 -0.00849484 -3.20051e-23)
(0.0446601 -0.0084208 2.14467e-23)
(0.0448727 -0.00834571 -1.53473e-24)
(0.0450855 -0.00826987 -3.78431e-24)
(0.0452991 -0.00819359 1.75832e-23)
(0.0455141 -0.00811724 1.51297e-23)
(0.0457313 -0.00804125 3.42176e-23)
(0.0459518 -0.00796615 -1.77408e-22)
(0.0461769 -0.00789256 -1.29132e-24)
(0.0464085 -0.00782124 0)
(0.0466488 -0.0077531 -1.83175e-22)
(0.0469006 -0.00768917 5.72629e-22)
(0.0471671 -0.00763053 -3.93476e-22)
(0.0474513 -0.00757819 -2.12474e-22)
(0.0477562 -0.00753293 -1.00652e-23)
(0.0480834 -0.00749513 -2.27671e-22)
(0.0484327 -0.00746462 -2.26259e-23)
(0.0488013 -0.00744068 4.45397e-22)
(0.0491838 -0.00742219 -4.66262e-22)
(0.0495721 -0.00740795 -4.74878e-22)
(0.0499564 -0.00739706 9.3462e-22)
(0.0503265 -0.00738936 8.10262e-24)
(0.0506725 -0.00738562 4.78369e-22)
(0.0509859 -0.00738786 -4.64418e-22)
(0.0512601 -0.00739923 4.79406e-22)
(0.05149 -0.00742369 -9.738e-22)
(0.0516707 -0.00746509 -4.96336e-22)
(0.051795 -0.00752622 1.01258e-21)
(0.051848 -0.00760649 -4.9731e-22)
(0.0517922 -0.00769872 -1.60874e-21)
(0.0515532 -0.00777336 -6.37184e-22)
(0.0509148 -0.00786433 0)
(0.0358421 -0.00904894 0)
(0.0360732 -0.00913543 -7.55268e-22)
(0.0363073 -0.00921634 6.51098e-24)
(0.0365433 -0.00929135 0)
(0.0367815 -0.00936089 0)
(0.0370219 -0.00942503 -6.5668e-22)
(0.0372641 -0.00948364 1.87209e-21)
(0.0375078 -0.00953662 -2.42915e-21)
(0.037753 -0.0095839 1.18922e-21)
(0.0379992 -0.00962548 -5.59637e-22)
(0.0382464 -0.00966133 0)
(0.0384942 -0.00969143 -5.13282e-22)
(0.0387424 -0.00971578 4.86879e-22)
(0.0389907 -0.0097344 0)
(0.039239 -0.00974731 0)
(0.039487 -0.00975456 -3.99973e-22)
(0.0397345 -0.00975621 4.57344e-23)
(0.0399813 -0.00975233 7.70604e-22)
(0.0402272 -0.00974302 6.88085e-22)
(0.040472 -0.00972837 -6.80605e-22)
(0.0407156 -0.00970853 -3.10964e-22)
(0.0409578 -0.00968361 -1.11521e-21)
(0.0411986 -0.00965378 2.34734e-23)
(0.0414377 -0.00961921 2.13716e-22)
(0.0416752 -0.00958008 -4.61108e-22)
(0.0419109 -0.00953658 1.8268e-22)
(0.0421448 -0.00948892 -3.75337e-22)
(0.0423768 -0.00943731 0)
(0.042607 -0.00938198 0)
(0.0428354 -0.00932316 0)
(0.0430619 -0.0092611 4.95055e-23)
(0.0432866 -0.00919608 6.8073e-23)
(0.0435098 -0.00912816 -6.01649e-23)
(0.0437313 -0.00905775 -1.87845e-23)
(0.0439514 -0.00898516 1.85524e-23)
(0.0441703 -0.00891067 0)
(0.0443883 -0.00883456 1.93344e-23)
(0.0446055 -0.00875712 -8.86597e-24)
(0.0448224 -0.00867864 0)
(0.0450394 -0.00859947 2.03348e-23)
(0.0452571 -0.00851995 -4.69658e-24)
(0.0454762 -0.00844049 3.23404e-24)
(0.0456975 -0.00836153 -1.50214e-23)
(0.0459224 -0.00828365 0)
(0.0461522 -0.00820749 -7.98187e-23)
(0.0463889 -0.00813382 7.84483e-23)
(0.0466347 -0.00806351 0)
(0.0468922 -0.00799749 -1.14944e-23)
(0.0471641 -0.00793664 -2.05929e-24)
(0.0474529 -0.0078817 1.98541e-22)
(0.0477603 -0.00783309 0)
(0.048087 -0.00779078 -7.88604e-24)
(0.0484316 -0.00775426 -2.16927e-22)
(0.0487906 -0.00772253 -6.85053e-22)
(0.0491581 -0.00769437 -1.60833e-23)
(0.0495267 -0.0076686 4.51338e-22)
(0.0498873 -0.00764444 0)
(0.0502307 -0.00762181 0)
(0.0505482 -0.00760159 4.612e-22)
(0.050832 -0.00758572 0)
(0.0510759 -0.00757722 0)
(0.0512749 -0.00758002 8.24697e-24)
(0.0514246 -0.0075986 -4.66146e-22)
(0.0515193 -0.007637 -9.53422e-22)
(0.0515484 -0.00769749 9.65693e-22)
(0.0514883 -0.00777733 6.17986e-23)
(0.0512817 -0.00786421 5.65285e-22)
(0.0508113 -0.00791968 5.59042e-22)
(0.0497933 -0.00797129 0)
(0.0356964 -0.00948916 0)
(0.0359393 -0.00957617 7.56831e-22)
(0.0361852 -0.00965716 -2.17912e-21)
(0.0364329 -0.00973179 7.3097e-22)
(0.0366828 -0.00980052 0)
(0.0369348 -0.00986345 1.95365e-21)
(0.0371885 -0.00992044 -3.17103e-21)
(0.0374437 -0.00997139 4.73418e-23)
(0.0377002 -0.0100163 2.92206e-21)
(0.0379576 -0.010055 -5.84719e-22)
(0.0382159 -0.0100877 5.32942e-22)
(0.0384747 -0.0101142 5.07847e-22)
(0.0387337 -0.0101346 -1.43545e-21)
(0.0389927 -0.010149 1.84601e-21)
(0.0392515 -0.0101573 -8.98571e-22)
(0.0395099 -0.0101597 3.8652e-22)
(0.0397675 -0.0101562 -1.55879e-21)
(0.0400241 -0.0101469 3.94779e-22)
(0.0402796 -0.0101319 -3.15013e-22)
(0.0405337 -0.0101114 3.60544e-22)
(0.0407863 -0.0100854 4.64561e-23)
(0.0410373 -0.0100543 1.64234e-21)
(0.0412863 -0.0100181 2.11047e-22)
(0.0415335 -0.00997699 -4.5547e-23)
(0.0417785 -0.00993127 -6.3592e-22)
(0.0420215 -0.00988114 1.91189e-22)
(0.0422622 -0.00982682 -3.03951e-22)
(0.0425008 -0.00976856 4.38538e-22)
(0.0427372 -0.00970662 0)
(0.0429713 -0.00964126 8.77798e-23)
(0.0432034 -0.00957277 -8.81896e-23)
(0.0434334 -0.00950139 7.89767e-24)
(0.0436616 -0.00942733 1.29998e-23)
(0.043888 -0.00935099 2.6976e-24)
(0.0441129 -0.00927271 2.30568e-23)
(0.0443366 -0.00919279 -1.56634e-23)
(0.0445593 -0.00911157 3.9254e-23)
(0.0447816 -0.00902938 -6.10212e-23)
(0.0450039 -0.00894658 3.45286e-23)
(0.0452269 -0.00886359 -1.08942e-23)
(0.0454514 -0.00878083 0)
(0.0456785 -0.00869884 1.64263e-23)
(0.0459094 -0.00861818 -1.61668e-23)
(0.0461459 -0.00853955 -3.93432e-23)
(0.0463896 -0.00846367 1.23184e-22)
(0.0466429 -0.00839135 -8.26007e-23)
(0.0469079 -0.00832334 -8.80864e-23)
(0.0471869 -0.00826027 0)
(0.0474814 -0.00820255 -4.11534e-22)
(0.0477922 -0.00815019 4.13296e-22)
(0.0481189 -0.00810279 -2.073e-22)
(0.048459 -0.00805951 2.02073e-22)
(0.0488086 -0.00801918 2.14218e-22)
(0.0491619 -0.00798051 4.37092e-22)
(0.0495116 -0.00794237 4.42728e-22)
(0.0498499 -0.00790405 0)
(0.0501687 -0.00786553 -4.5662e-22)
(0.0504601 -0.00782762 0)
(0.0507174 -0.00779209 7.0596e-24)
(0.0509346 -0.0077617 -4.53088e-22)
(0.0511068 -0.00774012 4.52705e-22)
(0.0512295 -0.00773171 4.63965e-22)
(0.0512979 -0.00774106 -4.60747e-22)
(0.0513036 -0.00777189 7.74845e-24)
(0.0512292 -0.00782516 -1.25213e-23)
(0.0510379 -0.00789458 1.50718e-21)
(0.0506403 -0.00796064 4.96829e-22)
(0.0498579 -0.00797496 5.53102e-22)
(0.0483162 -0.00794076 -5.73988e-22)
(0.0355507 -0.00995828 0)
(0.0358067 -0.0100457 0)
(0.0360656 -0.0101266 -1.45584e-21)
(0.0363262 -0.0102007 2.16328e-21)
(0.0365888 -0.0102684 6.88095e-22)
(0.0368534 -0.0103298 0)
(0.0371197 -0.0103849 0)
(0.0373872 -0.0104334 -6.07662e-22)
(0.0376559 -0.0104755 1.14063e-21)
(0.0379254 -0.010511 -5.3095e-23)
(0.0381955 -0.0105399 -2.65701e-21)
(0.0384659 -0.0105624 5.28059e-22)
(0.0387364 -0.0105783 -4.59007e-22)
(0.0390067 -0.0105879 9.34294e-22)
(0.0392765 -0.010591 -4.25009e-22)
(0.0395455 -0.0105878 0)
(0.0398136 -0.0105785 0)
(0.0400805 -0.010563 2.30265e-23)
(0.0403459 -0.0105417 1.01314e-21)
(0.0406096 -0.0105145 -3.13344e-22)
(0.0408715 -0.0104818 2.7714e-22)
(0.0411313 -0.0104437 -2.66924e-22)
(0.041389 -0.0104004 -2.22022e-22)
(0.0416443 -0.0103521 2.46019e-22)
(0.0418973 -0.0102991 1.98988e-22)
(0.0421477 -0.0102417 0)
(0.0423956 -0.0101801 0)
(0.042641 -0.0101146 -1.91274e-22)
(0.0428838 -0.0100455 0)
(0.0431242 -0.00997307 -7.11723e-23)
(0.0433622 -0.00989769 7.14638e-23)
(0.0435981 -0.00981957 2.34739e-23)
(0.0438319 -0.00973904 -1.28609e-23)
(0.0440639 -0.00965654 3.14915e-24)
(0.0442944 -0.00957243 -7.1144e-24)
(0.0445239 -0.00948707 -2.50256e-23)
(0.0447529 -0.00940086 2.87603e-23)
(0.0449819 -0.00931422 0)
(0.0452118 -0.00922759 0)
(0.0454435 -0.00914149 1.44114e-23)
(0.0456781 -0.00905647 0)
(0.0459172 -0.00897315 0)
(0.0461622 -0.00889218 -5.83835e-23)
(0.046415 -0.00881425 8.00361e-23)
(0.0466775 -0.00873999 -4.45013e-23)
(0.0469515 -0.00866993 8.74907e-23)
(0.0472384 -0.00860439 0)
(0.0475388 -0.00854338 3.05355e-22)
(0.0478528 -0.00848656 8.03489e-25)
(0.0481786 -0.00843318 0)
(0.0485134 -0.0083822 -4.28351e-22)
(0.0488528 -0.00833233 1.3988e-27)
(0.0491913 -0.00828234 -4.30911e-22)
(0.0495224 -0.00823117 -2.25804e-22)
(0.0498392 -0.0081782 -4.53563e-22)
(0.0501346 -0.0081234 4.40365e-22)
(0.0504021 -0.00806746 4.44775e-22)
(0.0506354 -0.00801189 0)
(0.0508292 -0.00795903 -4.56589e-22)
(0.0509787 -0.00791207 -2.96485e-24)
(0.0510795 -0.00787493 0)
(0.0511265 -0.00785202 0)
(0.0511126 -0.00784754 4.71393e-22)
(0.0510244 -0.00786418 0)
(0.0508339 -0.00790031 0)
(0.0504814 -0.00794422 -4.97184e-22)
(0.0498278 -0.00796732 -5.54787e-22)
(0.0486175 -0.00790354 -5.03717e-22)
(0.046346 -0.00772258 0)
(0.0354048 -0.0104591 0)
(0.0356753 -0.0105468 0)
(0.0359485 -0.0106274 0)
(0.0362233 -0.0107007 7.14812e-22)
(0.0364999 -0.0107671 6.62026e-22)
(0.0367784 -0.0108268 -5.1346e-23)
(0.0370583 -0.0108795 -1.29009e-21)
(0.0373393 -0.0109253 6.05935e-22)
(0.0376213 -0.0109641 -5.75319e-22)
(0.0379038 -0.0109958 -1.10081e-21)
(0.0381867 -0.0110206 0)
(0.0384698 -0.0110384 0)
(0.0387525 -0.0110493 -2.44059e-23)
(0.0390349 -0.0110534 -1.35555e-21)
(0.0393164 -0.0110506 1.64981e-21)
(0.0395969 -0.0110412 -5.0664e-23)
(0.0398761 -0.0110253 -7.61317e-22)
(0.0401537 -0.011003 -3.48567e-22)
(0.0404295 -0.0109746 -1.35005e-23)
(0.0407033 -0.0109401 0)
(0.0409749 -0.0108998 -5.36895e-22)
(0.041244 -0.0108539 0)
(0.0415106 -0.0108028 -4.41524e-22)
(0.0417746 -0.0107466 5.78402e-22)
(0.0420357 -0.0106857 -5.39132e-22)
(0.042294 -0.0106203 -1.42713e-22)
(0.0425495 -0.0105508 1.78351e-22)
(0.0428021 -0.0104774 -1.57016e-22)
(0.043052 -0.0104006 9.65141e-23)
(0.0432992 -0.0103207 0)
(0.0435438 -0.0102381 3.13811e-23)
(0.0437863 -0.010153 -1.57159e-23)
(0.0440268 -0.0100659 -1.00091e-23)
(0.0442656 -0.00997718 -2.06739e-23)
(0.0445034 -0.0098874 2.42261e-23)
(0.0447407 -0.00979694 -2.39022e-23)
(0.0449782 -0.0097063 -1.65332e-23)
(0.0452169 -0.009616 2.49527e-23)
(0.0454578 -0.00952658 1.42232e-23)
(0.0457021 -0.00943863 -4.22796e-23)
(0.0459513 -0.00935275 -4.46378e-24)
(0.0462069 -0.00926953 0)
(0.0464704 -0.0091895 1.89748e-23)
(0.0467433 -0.00911308 -4.06861e-23)
(0.0470267 -0.0090405 4.31612e-23)
(0.0473211 -0.00897172 0)
(0.0476265 -0.0089064 0)
(0.0479418 -0.0088439 1.09444e-22)
(0.0482647 -0.00878324 -2.01381e-22)
(0.0485921 -0.00872329 -4.33806e-22)
(0.0489195 -0.00866281 8.60205e-22)
(0.049242 -0.00860066 -2.22099e-22)
(0.0495538 -0.00853593 2.15573e-22)
(0.0498491 -0.00846808 2.17843e-22)
(0.050122 -0.00839707 -4.53296e-22)
(0.0503669 -0.00832342 4.42557e-22)
(0.0505785 -0.00824831 0)
(0.0507519 -0.0081736 -4.60641e-22)
(0.0508825 -0.00810186 2.23531e-24)
(0.0509659 -0.00803631 4.58756e-22)
(0.0509972 -0.00798073 0)
(0.0509696 -0.00793903 0)
(0.0508719 -0.00791432 0)
(0.0506819 -0.0079071 9.49435e-22)
(0.0503535 -0.00791115 4.62195e-22)
(0.0497887 -0.0079071 4.89882e-22)
(0.0487751 -0.00785446 -1.03727e-21)
(0.0469492 -0.00766261 5.48096e-23)
(0.043598 -0.00732746 5.27517e-22)
(0.0352594 -0.010995 0)
(0.0355455 -0.0110827 1.51041e-21)
(0.0358344 -0.0111628 -1.87582e-21)
(0.0361247 -0.011235 1.04051e-21)
(0.0364167 -0.0112998 -2.07338e-21)
(0.0367104 -0.0113574 -6.52422e-22)
(0.0370053 -0.0114074 -6.23391e-22)
(0.0373011 -0.01145 0)
(0.0375976 -0.0114851 1.13763e-21)
(0.0378944 -0.0115126 1.06347e-21)
(0.0381913 -0.0115326 -1.05434e-21)
(0.0384881 -0.0115452 4.80873e-22)
(0.0387842 -0.0115504 -4.28006e-22)
(0.0390796 -0.0115483 4.89727e-22)
(0.0393738 -0.0115391 1.60857e-21)
(0.0396667 -0.0115227 -5.20797e-23)
(0.0399578 -0.0114995 -5.16535e-23)
(0.040247 -0.0114696 -6.79161e-22)
(0.040534 -0.0114333 -3.08278e-22)
(0.0408186 -0.0113906 -5.27141e-22)
(0.0411005 -0.011342 5.4439e-22)
(0.0413797 -0.0112877 0)
(0.0416559 -0.011228 1.82314e-23)
(0.041929 -0.0111632 0)
(0.0421991 -0.0110936 1.64155e-22)
(0.0424659 -0.0110197 1.41276e-22)
(0.0427297 -0.0109417 -5.93579e-23)
(0.0429904 -0.0108601 0)
(0.0432483 -0.0107752 -2.70435e-23)
(0.0435034 -0.0106876 -3.25532e-23)
(0.043756 -0.0105976 3.25134e-23)
(0.0440067 -0.0105055 -5.11633e-24)
(0.0442557 -0.010412 -2.92476e-23)
(0.0445037 -0.0103176 6.75552e-23)
(0.0447513 -0.0102228 -2.37193e-23)
(0.0449995 -0.0101281 0)
(0.0452492 -0.0100341 -2.51433e-23)
(0.0455015 -0.00994144 4.59733e-24)
(0.0457577 -0.00985057 4.61239e-23)
(0.0460189 -0.00976204 -4.0389e-23)
(0.0462864 -0.00967629 8.15449e-24)
(0.0465613 -0.00959363 -3.10482e-23)
(0.0468444 -0.00951419 2.01766e-23)
(0.0471361 -0.00943788 0)
(0.0474363 -0.00936435 0)
(0.047744 -0.009293 0)
(0.0480575 -0.00922299 1.0335e-22)
(0.0483743 -0.0091533 1.05862e-22)
(0.048691 -0.00908282 0)
(0.0490038 -0.00901048 2.09145e-22)
(0.0493083 -0.00893531 2.22835e-22)
(0.0495996 -0.00885656 2.24755e-22)
(0.049873 -0.0087738 0)
(0.0501237 -0.00868695 0)
(0.050347 -0.00859637 -4.57901e-22)
(0.0505383 -0.0085029 4.50152e-22)
(0.0506935 -0.00840786 0)
(0.0508083 -0.00831316 4.59791e-22)
(0.0508786 -0.0082212 -4.66003e-22)
(0.0508993 -0.00813489 -4.82284e-22)
(0.0508643 -0.0080573 4.80253e-22)
(0.0507635 -0.00799113 -4.90251e-22)
(0.0505785 -0.00793728 0)
(0.0502719 -0.00789218 -5.02942e-22)
(0.049767 -0.00784209 -2.16767e-23)
(0.0489031 -0.00775708 -1.01635e-21)
(0.0473682 -0.00757821 -9.88178e-22)
(0.0446433 -0.00719576 1.08829e-21)
(0.0398787 -0.00668864 -5.91247e-22)
(0.0351157 -0.0115702 3.86077e-22)
(0.0354188 -0.0116577 0)
(0.0357247 -0.011737 3.66407e-22)
(0.0360319 -0.0118078 -1.73142e-21)
(0.0363407 -0.0118706 3.03501e-21)
(0.0366509 -0.0119256 -6.7069e-22)
(0.0369622 -0.0119726 6.17331e-22)
(0.0372743 -0.0120115 -1.14399e-21)
(0.0375867 -0.0120423 5.81203e-22)
(0.0378992 -0.012065 5.31951e-22)
(0.0382115 -0.0120798 4.93225e-22)
(0.0385233 -0.0120865 -1.3905e-21)
(0.0388342 -0.0120853 4.77455e-22)
(0.0391439 -0.0120764 -1.21022e-21)
(0.039452 -0.0120599 -3.40256e-22)
(0.0397584 -0.0120359 5.33119e-23)
(0.0400627 -0.0120047 6.93546e-22)
(0.0403646 -0.0119664 0)
(0.0406638 -0.0119214 0)
(0.0409603 -0.0118699 2.4497e-22)
(0.0412536 -0.0118122 2.3889e-22)
(0.0415438 -0.0117488 3.85833e-22)
(0.0418307 -0.0116798 -1.95829e-22)
(0.0421143 -0.0116058 -2.89667e-22)
(0.0423944 -0.0115271 2.89854e-22)
(0.0426712 -0.0114442 -4.90392e-23)
(0.0429447 -0.0113574 -3.75791e-23)
(0.0432151 -0.0112674 0)
(0.0434827 -0.0111745 2.65651e-23)
(0.0437478 -0.0110792 1.05661e-23)
(0.0440109 -0.0109821 -2.07882e-23)
(0.0442724 -0.0108836 1.01645e-23)
(0.044533 -0.0107845 -2.56474e-23)
(0.0447935 -0.0106853 0)
(0.0450548 -0.0105865 2.16014e-23)
(0.0453178 -0.0104888 -2.56081e-23)
(0.0455834 -0.0103926 2.43323e-23)
(0.0458528 -0.0102984 -6.07968e-23)
(0.0461269 -0.0102065 0)
(0.0464063 -0.0101171 -9.75701e-24)
(0.0466917 -0.0100304 9.87366e-24)
(0.0469831 -0.00994604 -1.73277e-23)
(0.0472803 -0.00986381 6.69702e-23)
(0.0475825 -0.00978313 -1.39887e-22)
(0.0478883 -0.00970327 9.28119e-23)
(0.0481956 -0.00962337 1.0168e-22)
(0.048502 -0.0095425 -9.18473e-23)
(0.0488044 -0.00945974 2.19703e-22)
(0.0490995 -0.00937421 -2.07203e-22)
(0.0493836 -0.00928516 -5.4146e-22)
(0.049653 -0.00919202 1.17094e-24)
(0.0499038 -0.00909444 -2.17064e-22)
(0.0501321 -0.00899233 0)
(0.0503341 -0.00888588 0)
(0.0505062 -0.0087756 -4.68881e-22)
(0.0506448 -0.00866236 6.99117e-22)
(0.0507461 -0.00854738 -4.72711e-22)
(0.0508063 -0.00843224 0)
(0.0508208 -0.00831886 5.02314e-22)
(0.0507839 -0.00820926 9.96822e-22)
(0.0506864 -0.00810512 -5.00488e-22)
(0.0505124 -0.00800681 1.04548e-23)
(0.0502309 -0.00791126 5.32999e-22)
(0.0497778 -0.00780789 -1.82247e-23)
(0.0490239 -0.00767198 -1.06524e-21)
(0.0477149 -0.00745957 1.09764e-21)
(0.0454057 -0.00709152 5.49431e-22)
(0.0413937 -0.00647979 0)
(0.0350241 -0.0058382 0)
(0.0349759 -0.0121899 -3.80185e-22)
(0.0352975 -0.0122769 -1.85154e-21)
(0.0356218 -0.0123551 1.47156e-21)
(0.0359473 -0.0124242 0)
(0.0362744 -0.0124847 3.31175e-22)
(0.0366028 -0.0125367 1.23102e-21)
(0.0369321 -0.0125802 -9.30538e-22)
(0.037262 -0.0126149 1.39203e-21)
(0.0375919 -0.012641 -1.10756e-21)
(0.0379218 -0.0126584 0)
(0.038251 -0.0126672 -2.49648e-22)
(0.0385795 -0.0126674 0)
(0.0389066 -0.0126593 -3.87578e-22)
(0.0392323 -0.0126429 1.21638e-21)
(0.039556 -0.0126184 0)
(0.0398775 -0.0125861 0)
(0.0401965 -0.0125461 0)
(0.0405127 -0.0124989 4.04554e-22)
(0.0408259 -0.0124446 -5.40282e-22)
(0.0411358 -0.0123836 -2.40732e-22)
(0.0414424 -0.0123164 0)
(0.0417455 -0.0122433 0)
(0.0420449 -0.0121647 0)
(0.0423408 -0.0120812 2.98916e-22)
(0.0426332 -0.0119933 -3.35873e-22)
(0.0429222 -0.0119013 1.44337e-22)