/*--------------------------------*- C++ -*----------------------------------*\
| =========                 |                                                 |
| \\      /  F ield         | OpenFOAM: The Open Source CFD Toolbox           |
|  \\    /   O peration     | Version:  2312                                  |
|   \\  /    A nd           | Website:  www.openfoam.com                      |
|    \\/     M anipulation  |                                                 |
\*---------------------------------------------------------------------------*/
FoamFile
{
    version     2.0;
    format      ascii;
    arch        "LSB;label=32;scalar=64";
    class       volScalarField;
    location    "700";
    object      k;
}
// * * * * * * * * * * * * * * * * * * * * * * * * * * * * * * * * * * * * * //

dimensions      [0 2 -2 0 0 0 0];

internalField   nonuniform List<scalar> 
76025
(
4.69742e-06
4.69232e-06
4.68793e-06
4.684e-06
4.68289e-06
4.68353e-06
4.68326e-06
4.684e-06
4.68303e-06
4.68154e-06
4.68009e-06
4.67837e-06
4.67664e-06
4.67353e-06
4.67192e-06
4.66915e-06
4.66919e-06
4.66849e-06
4.66829e-06
4.66868e-06
4.67034e-06
4.67239e-06
4.67632e-06
4.67983e-06
4.68718e-06
4.69139e-06
4.70144e-06
4.70787e-06
4.71853e-06
4.72693e-06
4.74039e-06
4.75059e-06
4.76797e-06
4.7831e-06
4.8006e-06
4.81974e-06
4.83883e-06
4.86433e-06
4.89046e-06
4.9165e-06
4.94703e-06
4.97592e-06
5.01401e-06
5.04758e-06
5.08457e-06
5.11767e-06
5.1555e-06
5.18965e-06
5.22296e-06
5.25236e-06
5.28228e-06
5.30815e-06
5.33647e-06
5.35635e-06
5.38707e-06
5.4076e-06
5.43223e-06
5.45904e-06
5.49593e-06
5.52342e-06
5.58389e-06
5.6241e-06
5.7116e-06
5.76922e-06
5.87665e-06
5.95806e-06
6.07885e-06
6.22209e-06
6.32679e-06
4.73363e-06
4.73265e-06
4.72959e-06
4.72518e-06
4.72133e-06
4.71877e-06
4.71882e-06
4.71838e-06
4.71872e-06
4.71922e-06
4.71974e-06
4.72089e-06
4.72114e-06
4.72106e-06
4.72095e-06
4.72063e-06
4.72053e-06
4.71963e-06
4.71985e-06
4.72093e-06
4.72407e-06
4.72734e-06
4.733e-06
4.7383e-06
4.74679e-06
4.75446e-06
4.76527e-06
4.77552e-06
4.78833e-06
4.80102e-06
4.81596e-06
4.83103e-06
4.84796e-06
4.86591e-06
4.88492e-06
4.90536e-06
4.92674e-06
4.94928e-06
4.9729e-06
4.99719e-06
5.02259e-06
5.04862e-06
5.07508e-06
5.10163e-06
5.1282e-06
5.15474e-06
5.18086e-06
5.20559e-06
5.23073e-06
5.25352e-06
5.27884e-06
5.3016e-06
5.32893e-06
5.35104e-06
5.3827e-06
5.40437e-06
5.44484e-06
5.47078e-06
5.53029e-06
5.56558e-06
5.64419e-06
5.68975e-06
5.78833e-06
5.84604e-06
5.97268e-06
6.04821e-06
6.21788e-06
6.31332e-06
6.53615e-06
4.76126e-06
4.76302e-06
4.76512e-06
4.76658e-06
4.76525e-06
4.76425e-06
4.76291e-06
4.76364e-06
4.7639e-06
4.76322e-06
4.7638e-06
4.76514e-06
4.76685e-06
4.76835e-06
4.76989e-06
4.77119e-06
4.77274e-06
4.77415e-06
4.77633e-06
4.77877e-06
4.78252e-06
4.78662e-06
4.79236e-06
4.79857e-06
4.80663e-06
4.81532e-06
4.82564e-06
4.83671e-06
4.84925e-06
4.86268e-06
4.87732e-06
4.89288e-06
4.90937e-06
4.92688e-06
4.94527e-06
4.9646e-06
4.9848e-06
5.0057e-06
5.02724e-06
5.04932e-06
5.07187e-06
5.09483e-06
5.11803e-06
5.14143e-06
5.16509e-06
5.18881e-06
5.21282e-06
5.23658e-06
5.26123e-06
5.28549e-06
5.31188e-06
5.33707e-06
5.36733e-06
5.39415e-06
5.43178e-06
5.46162e-06
5.51166e-06
5.54478e-06
5.61092e-06
5.64924e-06
5.73259e-06
5.781e-06
5.88533e-06
5.94681e-06
6.07973e-06
6.15893e-06
6.32874e-06
6.4296e-06
6.67121e-06
4.79544e-06
4.79613e-06
4.79852e-06
4.80122e-06
4.80311e-06
4.80403e-06
4.80441e-06
4.80485e-06
4.80537e-06
4.80624e-06
4.80793e-06
4.81031e-06
4.81339e-06
4.81674e-06
4.82031e-06
4.82386e-06
4.82759e-06
4.83128e-06
4.83532e-06
4.83949e-06
4.84431e-06
4.84948e-06
4.85554e-06
4.86225e-06
4.87004e-06
4.87869e-06
4.88845e-06
4.89916e-06
4.91094e-06
4.92369e-06
4.93741e-06
4.95203e-06
4.96751e-06
4.98385e-06
5.00101e-06
5.01893e-06
5.03761e-06
5.05697e-06
5.07693e-06
5.09743e-06
5.11842e-06
5.13985e-06
5.16178e-06
5.18403e-06
5.20693e-06
5.23002e-06
5.25418e-06
5.27816e-06
5.30415e-06
5.32942e-06
5.35853e-06
5.38559e-06
5.41984e-06
5.4493e-06
5.49157e-06
5.52418e-06
5.57814e-06
5.61451e-06
5.68459e-06
5.72597e-06
5.81547e-06
5.86687e-06
5.97763e-06
6.04239e-06
6.18268e-06
6.26527e-06
6.44365e-06
6.54887e-06
6.80219e-06
4.83452e-06
4.83348e-06
4.83434e-06
4.83698e-06
4.84035e-06
4.84351e-06
4.84622e-06
4.84851e-06
4.85055e-06
4.85261e-06
4.85508e-06
4.85809e-06
4.8618e-06
4.86608e-06
4.87088e-06
4.876e-06
4.88147e-06
4.88712e-06
4.89306e-06
4.89918e-06
4.90562e-06
4.91235e-06
4.91953e-06
4.92718e-06
4.93547e-06
4.94442e-06
4.95413e-06
4.96462e-06
4.97592e-06
4.98804e-06
5.00096e-06
5.01469e-06
5.0292e-06
5.04449e-06
5.06053e-06
5.0773e-06
5.0948e-06
5.11298e-06
5.13182e-06
5.15128e-06
5.17137e-06
5.19201e-06
5.21341e-06
5.23526e-06
5.25819e-06
5.28141e-06
5.30633e-06
5.33105e-06
5.35869e-06
5.38527e-06
5.41701e-06
5.4459e-06
5.48378e-06
5.51538e-06
5.5623e-06
5.59713e-06
5.65666e-06
5.69554e-06
5.77159e-06
5.81611e-06
5.912e-06
5.96674e-06
6.08486e-06
6.15331e-06
6.3011e-06
6.38719e-06
6.57252e-06
6.67981e-06
6.94261e-06
4.88464e-06
4.88477e-06
4.88365e-06
4.88426e-06
4.8853e-06
4.8881e-06
4.89162e-06
4.89539e-06
4.89918e-06
4.90296e-06
4.90684e-06
4.91095e-06
4.91546e-06
4.92041e-06
4.92588e-06
4.93182e-06
4.93821e-06
4.945e-06
4.95217e-06
4.95966e-06
4.96747e-06
4.97558e-06
4.98403e-06
4.99283e-06
5.00204e-06
5.01171e-06
5.02189e-06
5.03263e-06
5.04397e-06
5.05593e-06
5.06855e-06
5.08183e-06
5.09579e-06
5.11043e-06
5.12577e-06
5.14181e-06
5.15858e-06
5.17603e-06
5.19422e-06
5.21308e-06
5.23275e-06
5.25303e-06
5.27438e-06
5.29622e-06
5.31964e-06
5.34324e-06
5.36933e-06
5.3948e-06
5.42446e-06
5.45214e-06
5.48679e-06
5.51712e-06
5.55873e-06
5.59224e-06
5.64342e-06
5.68076e-06
5.7448e-06
5.78682e-06
5.8677e-06
5.91565e-06
6.01734e-06
6.07513e-06
6.19966e-06
6.27132e-06
6.42565e-06
6.51472e-06
6.70687e-06
6.81711e-06
7.09158e-06
4.93581e-06
4.93454e-06
4.93425e-06
4.9349e-06
4.93652e-06
4.93924e-06
4.9429e-06
4.9473e-06
4.95223e-06
4.9575e-06
4.96301e-06
4.96871e-06
4.97464e-06
4.98083e-06
4.98733e-06
4.99416e-06
5.00137e-06
5.00894e-06
5.01688e-06
5.02519e-06
5.03384e-06
5.04283e-06
5.05214e-06
5.06178e-06
5.07177e-06
5.08211e-06
5.09285e-06
5.10401e-06
5.11564e-06
5.12775e-06
5.14039e-06
5.15359e-06
5.16738e-06
5.18178e-06
5.19684e-06
5.21256e-06
5.22903e-06
5.24619e-06
5.26415e-06
5.28284e-06
5.30249e-06
5.32279e-06
5.34447e-06
5.36659e-06
5.39084e-06
5.41497e-06
5.44254e-06
5.46875e-06
5.50071e-06
5.52927e-06
5.56715e-06
5.59851e-06
5.64418e-06
5.67906e-06
5.73477e-06
5.77419e-06
5.84282e-06
5.88789e-06
5.97335e-06
6.02499e-06
6.13206e-06
6.19281e-06
6.32378e-06
6.39887e-06
6.55937e-06
6.65189e-06
6.85159e-06
6.96591e-06
7.25198e-06
4.9872e-06
4.98878e-06
4.99042e-06
4.99237e-06
4.99477e-06
4.99779e-06
5.00153e-06
5.00603e-06
5.01125e-06
5.01712e-06
5.02355e-06
5.03044e-06
5.0377e-06
5.04528e-06
5.05313e-06
5.06124e-06
5.06961e-06
5.07822e-06
5.08709e-06
5.09624e-06
5.10565e-06
5.11535e-06
5.12532e-06
5.13559e-06
5.14615e-06
5.15703e-06
5.16824e-06
5.17981e-06
5.19176e-06
5.20414e-06
5.21698e-06
5.23031e-06
5.24418e-06
5.25861e-06
5.27371e-06
5.28944e-06
5.30595e-06
5.32315e-06
5.34124e-06
5.36006e-06
5.38003e-06
5.40063e-06
5.42293e-06
5.44555e-06
5.47089e-06
5.49568e-06
5.52497e-06
5.55194e-06
5.58645e-06
5.61578e-06
5.65717e-06
5.68929e-06
5.73935e-06
5.7752e-06
5.83581e-06
5.87689e-06
5.95042e-06
5.99829e-06
6.08838e-06
6.14381e-06
6.25578e-06
6.3194e-06
6.45743e-06
6.53533e-06
6.70241e-06
6.79857e-06
7.00656e-06
7.12535e-06
7.42073e-06
5.04554e-06
5.04874e-06
5.052e-06
5.05544e-06
5.05909e-06
5.06299e-06
5.06727e-06
5.07203e-06
5.07737e-06
5.08335e-06
5.08998e-06
5.09724e-06
5.10508e-06
5.11342e-06
5.12221e-06
5.13135e-06
5.1408e-06
5.1505e-06
5.16042e-06
5.17055e-06
5.18088e-06
5.19141e-06
5.20215e-06
5.2131e-06
5.22429e-06
5.23573e-06
5.24745e-06
5.25948e-06
5.27185e-06
5.28459e-06
5.29776e-06
5.31138e-06
5.32554e-06
5.34024e-06
5.35561e-06
5.37161e-06
5.38843e-06
5.40597e-06
5.42448e-06
5.44375e-06
5.46431e-06
5.48551e-06
5.50871e-06
5.53209e-06
5.55877e-06
5.58447e-06
5.61567e-06
5.64363e-06
5.68082e-06
5.71111e-06
5.75611e-06
5.7891e-06
5.84371e-06
5.88042e-06
5.94643e-06
5.98854e-06
6.06817e-06
6.11744e-06
6.21391e-06
6.27157e-06
6.38934e-06
6.45638e-06
6.60048e-06
6.68172e-06
6.8564e-06
6.95672e-06
7.17403e-06
7.2977e-06
7.59314e-06
5.11048e-06
5.11469e-06
5.11911e-06
5.12381e-06
5.12873e-06
5.13382e-06
5.1391e-06
5.14462e-06
5.15047e-06
5.15673e-06
5.16348e-06
5.17078e-06
5.17865e-06
5.1871e-06
5.1961e-06
5.20558e-06
5.2155e-06
5.22579e-06
5.23639e-06
5.24726e-06
5.25835e-06
5.26965e-06
5.28114e-06
5.29282e-06
5.3047e-06
5.3168e-06
5.32914e-06
5.34175e-06
5.35467e-06
5.36794e-06
5.38162e-06
5.39574e-06
5.41039e-06
5.42559e-06
5.44149e-06
5.45804e-06
5.47547e-06
5.49365e-06
5.51287e-06
5.53292e-06
5.55438e-06
5.57656e-06
5.60092e-06
5.62549e-06
5.65371e-06
5.6808e-06
5.71397e-06
5.74357e-06
5.78321e-06
5.81545e-06
5.86331e-06
5.89868e-06
5.95646e-06
5.99613e-06
6.06568e-06
6.11111e-06
6.19518e-06
6.2472e-06
6.34978e-06
6.40914e-06
6.53399e-06
6.60389e-06
6.75454e-06
6.83978e-06
7.02341e-06
7.12837e-06
7.35579e-06
7.48415e-06
7.79701e-06
5.18434e-06
5.18923e-06
5.19437e-06
5.19987e-06
5.20567e-06
5.21171e-06
5.21793e-06
5.22434e-06
5.23094e-06
5.23777e-06
5.24489e-06
5.25236e-06
5.26024e-06
5.26858e-06
5.2774e-06
5.28672e-06
5.29651e-06
5.30676e-06
5.31741e-06
5.32844e-06
5.33979e-06
5.35144e-06
5.36336e-06
5.37554e-06
5.38797e-06
5.40065e-06
5.4136e-06
5.42684e-06
5.44041e-06
5.45435e-06
5.46872e-06
5.48355e-06
5.49896e-06
5.51493e-06
5.53165e-06
5.54908e-06
5.56743e-06
5.58661e-06
5.60692e-06
5.62815e-06
5.65088e-06
5.67446e-06
5.70035e-06
5.72659e-06
5.75661e-06
5.78566e-06
5.82087e-06
5.85286e-06
5.89462e-06
5.93002e-06
5.97961e-06
6.01961e-06
6.07802e-06
6.12463e-06
6.19306e-06
6.24801e-06
6.32949e-06
6.39217e-06
6.49309e-06
6.56113e-06
6.68874e-06
6.76373e-06
6.92234e-06
7.01192e-06
7.20582e-06
7.31621e-06
7.55396e-06
7.68866e-06
8.02476e-06
5.26691e-06
5.27259e-06
5.27848e-06
5.2847e-06
5.29121e-06
5.29796e-06
5.30493e-06
5.31208e-06
5.31941e-06
5.32692e-06
5.33461e-06
5.34252e-06
5.35068e-06
5.35913e-06
5.36793e-06
5.3771e-06
5.38667e-06
5.39665e-06
5.40705e-06
5.41786e-06
5.42906e-06
5.44065e-06
5.4526e-06
5.4649e-06
5.47756e-06
5.49058e-06
5.50395e-06
5.51772e-06
5.5319e-06
5.54652e-06
5.56166e-06
5.57733e-06
5.59367e-06
5.61063e-06
5.62844e-06
5.64702e-06
5.66665e-06
5.68712e-06
5.70889e-06
5.73161e-06
5.75601e-06
5.78131e-06
5.80907e-06
5.83727e-06
5.86935e-06
5.90067e-06
5.9381e-06
5.9728e-06
6.01674e-06
6.05576e-06
6.10693e-06
6.15241e-06
6.21061e-06
6.26607e-06
6.33077e-06
6.39944e-06
6.47249e-06
6.55401e-06
6.64331e-06
6.73251e-06
6.85134e-06
6.94351e-06
7.10388e-06
7.20151e-06
7.40726e-06
7.52341e-06
7.77027e-06
7.91809e-06
8.26426e-06
5.36011e-06
5.36663e-06
5.37327e-06
5.38019e-06
5.38734e-06
5.39469e-06
5.40224e-06
5.40996e-06
5.41786e-06
5.42593e-06
5.43416e-06
5.44256e-06
5.45114e-06
5.45993e-06
5.46895e-06
5.47824e-06
5.48782e-06
5.49774e-06
5.508e-06
5.51865e-06
5.52968e-06
5.54111e-06
5.55296e-06
5.56523e-06
5.57793e-06
5.59109e-06
5.60472e-06
5.61885e-06
5.63351e-06
5.64874e-06
5.6646e-06
5.6811e-06
5.69839e-06
5.71639e-06
5.73541e-06
5.75521e-06
5.77628e-06
5.79815e-06
5.82161e-06
5.8459e-06
5.87224e-06
5.89932e-06
5.92924e-06
5.9595e-06
5.99393e-06
6.0276e-06
6.06761e-06
6.10504e-06
6.1518e-06
6.19403e-06
6.24803e-06
6.29762e-06
6.35792e-06
6.41938e-06
6.48401e-06
6.56237e-06
6.63144e-06
6.72885e-06
6.80878e-06
6.92229e-06
7.02687e-06
7.14942e-06
7.29791e-06
7.41902e-06
7.62867e-06
7.75095e-06
8.01124e-06
8.16479e-06
8.57805e-06
5.46275e-06
5.47011e-06
5.47759e-06
5.48532e-06
5.49325e-06
5.50133e-06
5.50955e-06
5.5179e-06
5.5264e-06
5.53504e-06
5.54381e-06
5.55274e-06
5.56181e-06
5.57106e-06
5.58049e-06
5.59013e-06
5.6e-06
5.61014e-06
5.62056e-06
5.63132e-06
5.64243e-06
5.65393e-06
5.66584e-06
5.6782e-06
5.69104e-06
5.7044e-06
5.7183e-06
5.73281e-06
5.74794e-06
5.76377e-06
5.78033e-06
5.79767e-06
5.81592e-06
5.83501e-06
5.85526e-06
5.87637e-06
5.89897e-06
5.92232e-06
5.94765e-06
5.97359e-06
6.00211e-06
6.03108e-06
6.06345e-06
6.09588e-06
6.13294e-06
6.16915e-06
6.21192e-06
6.25225e-06
6.302e-06
6.34719e-06
6.40488e-06
6.45685e-06
6.52234e-06
6.58492e-06
6.65727e-06
6.73526e-06
6.81531e-06
6.9121e-06
7.00451e-06
7.1226e-06
7.23317e-06
7.37556e-06
7.51395e-06
7.67021e-06
7.86394e-06
8.01222e-06
8.27339e-06
8.47963e-06
8.84658e-06
5.57915e-06
5.58697e-06
5.59495e-06
5.60324e-06
5.61177e-06
5.62047e-06
5.6293e-06
5.63827e-06
5.64737e-06
5.65659e-06
5.66594e-06
5.67542e-06
5.68504e-06
5.69481e-06
5.70476e-06
5.7149e-06
5.72524e-06
5.73583e-06
5.74668e-06
5.75784e-06
5.76932e-06
5.7812e-06
5.79348e-06
5.80624e-06
5.81948e-06
5.83331e-06
5.84771e-06
5.86284e-06
5.8786e-06
5.89524e-06
5.91262e-06
5.93101e-06
5.95029e-06
5.97067e-06
5.99219e-06
6.01482e-06
6.03896e-06
6.06401e-06
6.09118e-06
6.11899e-06
6.14966e-06
6.18065e-06
6.21542e-06
6.25013e-06
6.28966e-06
6.3286e-06
6.37364e-06
6.41746e-06
6.4691e-06
6.5187e-06
6.57821e-06
6.63504e-06
6.70376e-06
6.77012e-06
6.85017e-06
6.92774e-06
7.02518e-06
7.11169e-06
7.23804e-06
7.33062e-06
7.49251e-06
7.59964e-06
7.78991e-06
7.92366e-06
8.14164e-06
8.30795e-06
8.58053e-06
8.90303e-06
9.18739e-06
5.70835e-06
5.71657e-06
5.72496e-06
5.7337e-06
5.74273e-06
5.75196e-06
5.76138e-06
5.77096e-06
5.7807e-06
5.79058e-06
5.80061e-06
5.8108e-06
5.82114e-06
5.83165e-06
5.84236e-06
5.85327e-06
5.8644e-06
5.87579e-06
5.88746e-06
5.89944e-06
5.91176e-06
5.92448e-06
5.93761e-06
5.95125e-06
5.96537e-06
5.98016e-06
5.99547e-06
6.01165e-06
6.02838e-06
6.04622e-06
6.06463e-06
6.0844e-06
6.10479e-06
6.12677e-06
6.1495e-06
6.17393e-06
6.19939e-06
6.22646e-06
6.2551e-06
6.2851e-06
6.31746e-06
6.3508e-06
6.38749e-06
6.42479e-06
6.46633e-06
6.50839e-06
6.55524e-06
6.60339e-06
6.65605e-06
6.71221e-06
6.77126e-06
6.83815e-06
6.9042e-06
6.98565e-06
7.05972e-06
7.15933e-06
7.24639e-06
7.36195e-06
7.47637e-06
7.59869e-06
7.75357e-06
7.88651e-06
8.06761e-06
8.23936e-06
8.42971e-06
8.68733e-06
8.99022e-06
9.16708e-06
9.32475e-06
5.85748e-06
5.86591e-06
5.87449e-06
5.8834e-06
5.89263e-06
5.9021e-06
5.91179e-06
5.92171e-06
5.93184e-06
5.94217e-06
5.9527e-06
5.96345e-06
5.97441e-06
5.98559e-06
5.99703e-06
6.00873e-06
6.02071e-06
6.03301e-06
6.04563e-06
6.05863e-06
6.07201e-06
6.08586e-06
6.10014e-06
6.11502e-06
6.13036e-06
6.14649e-06
6.16307e-06
6.18071e-06
6.19876e-06
6.21819e-06
6.23794e-06
6.25946e-06
6.28121e-06
6.3051e-06
6.32921e-06
6.35576e-06
6.38258e-06
6.41201e-06
6.44204e-06
6.47469e-06
6.5085e-06
6.54479e-06
6.58308e-06
6.62364e-06
6.66704e-06
6.71278e-06
6.76185e-06
6.81435e-06
6.86973e-06
6.93109e-06
6.99396e-06
7.0664e-06
7.13885e-06
7.22521e-06
7.30913e-06
7.41436e-06
7.51086e-06
7.64008e-06
7.75427e-06
7.9044e-06
8.04791e-06
8.213e-06
8.38806e-06
8.58059e-06
8.84071e-06
9.07793e-06
9.1852e-06
9.26201e-06
9.17982e-06
6.02374e-06
6.0327e-06
6.04175e-06
6.05118e-06
6.06089e-06
6.07084e-06
6.08101e-06
6.09141e-06
6.10206e-06
6.11297e-06
6.12414e-06
6.13558e-06
6.14731e-06
6.15933e-06
6.17168e-06
6.18436e-06
6.19741e-06
6.21085e-06
6.22469e-06
6.23899e-06
6.25373e-06
6.26903e-06
6.28479e-06
6.30127e-06
6.31819e-06
6.33604e-06
6.3543e-06
6.37375e-06
6.39354e-06
6.41485e-06
6.43644e-06
6.45987e-06
6.48355e-06
6.50939e-06
6.53552e-06
6.56406e-06
6.59297e-06
6.62455e-06
6.65669e-06
6.69176e-06
6.72771e-06
6.76683e-06
6.80738e-06
6.85121e-06
6.89716e-06
6.94675e-06
6.99888e-06
7.05612e-06
7.11511e-06
7.18257e-06
7.24981e-06
7.32954e-06
7.40877e-06
7.50117e-06
7.59851e-06
7.70401e-06
7.82444e-06
7.9473e-06
8.08955e-06
8.23609e-06
8.40161e-06
8.56848e-06
8.77888e-06
9.03163e-06
9.16102e-06
9.25097e-06
9.22808e-06
9.1464e-06
8.82813e-06
6.22008e-06
6.22928e-06
6.23867e-06
6.2483e-06
6.25834e-06
6.2686e-06
6.27914e-06
6.28999e-06
6.30112e-06
6.3125e-06
6.32419e-06
6.33619e-06
6.34855e-06
6.3613e-06
6.37446e-06
6.38806e-06
6.40211e-06
6.41666e-06
6.4317e-06
6.44732e-06
6.46346e-06
6.48027e-06
6.49762e-06
6.51577e-06
6.53447e-06
6.55412e-06
6.57433e-06
6.59566e-06
6.61761e-06
6.64078e-06
6.66477e-06
6.68998e-06
6.71637e-06
6.74386e-06
6.77299e-06
6.8031e-06
6.83527e-06
6.86849e-06
6.90409e-06
6.94105e-06
6.98069e-06
7.02202e-06
7.06673e-06
7.11294e-06
7.1641e-06
7.21586e-06
7.27513e-06
7.33386e-06
7.4027e-06
7.47112e-06
7.55043e-06
7.63277e-06
7.72351e-06
7.82423e-06
7.92939e-06
8.04942e-06
8.17771e-06
8.31061e-06
8.46973e-06
8.62343e-06
8.80183e-06
9.03998e-06
9.18962e-06
9.27657e-06
9.28416e-06
9.23276e-06
8.93801e-06
8.71048e-06
8.12688e-06
6.44282e-06
6.45273e-06
6.4628e-06
6.47331e-06
6.48416e-06
6.49544e-06
6.50683e-06
6.51872e-06
6.53085e-06
6.54349e-06
6.55637e-06
6.56966e-06
6.58332e-06
6.59739e-06
6.6119e-06
6.62691e-06
6.64244e-06
6.65856e-06
6.67526e-06
6.69262e-06
6.71058e-06
6.72929e-06
6.74864e-06
6.76881e-06
6.78969e-06
6.81143e-06
6.83403e-06
6.85742e-06
6.88202e-06
6.90715e-06
6.93409e-06
6.9611e-06
6.99074e-06
7.01993e-06
7.05253e-06
7.0844e-06
7.1201e-06
7.15548e-06
7.19449e-06
7.2343e-06
7.27717e-06
7.32227e-06
7.3701e-06
7.42117e-06
7.47551e-06
7.53351e-06
7.5963e-06
7.66265e-06
7.73615e-06
7.81341e-06
7.89873e-06
7.99283e-06
8.08847e-06
8.20681e-06
8.31373e-06
8.45509e-06
8.58496e-06
8.7393e-06
8.90099e-06
9.12391e-06
9.2649e-06
9.37379e-06
9.37816e-06
9.33603e-06
9.13664e-06
8.79384e-06
8.24253e-06
7.95058e-06
7.18181e-06
6.71668e-06
6.72662e-06
6.73685e-06
6.7473e-06
6.7584e-06
6.76966e-06
6.78155e-06
6.79372e-06
6.80658e-06
6.81969e-06
6.83351e-06
6.8477e-06
6.86264e-06
6.87795e-06
6.89389e-06
6.91042e-06
6.92748e-06
6.94517e-06
6.9635e-06
6.98256e-06
7.00234e-06
7.02292e-06
7.04433e-06
7.06652e-06
7.08972e-06
7.11361e-06
7.13883e-06
7.16446e-06
7.19197e-06
7.21945e-06
7.24955e-06
7.27907e-06
7.31203e-06
7.34403e-06
7.37994e-06
7.41512e-06
7.45405e-06
7.4934e-06
7.53559e-06
7.58008e-06
7.62644e-06
7.67671e-06
7.72885e-06
7.78535e-06
7.84532e-06
7.90895e-06
7.97953e-06
8.05077e-06
8.13649e-06
8.21638e-06
8.3186e-06
8.41583e-06
8.52787e-06
8.65315e-06
8.77384e-06
8.92862e-06
9.06351e-06
9.27536e-06
9.40219e-06
9.50024e-06
9.48965e-06
9.45669e-06
9.25656e-06
9.01054e-06
8.41019e-06
7.99931e-06
7.28962e-06
6.9362e-06
6.11516e-06
7.03954e-06
7.05054e-06
7.06197e-06
7.07412e-06
7.08666e-06
7.09979e-06
7.11315e-06
7.12716e-06
7.14159e-06
7.15675e-06
7.17232e-06
7.18853e-06
7.20534e-06
7.22268e-06
7.24064e-06
7.25922e-06
7.27851e-06
7.29851e-06
7.31931e-06
7.34084e-06
7.3633e-06
7.38644e-06
7.41069e-06
7.43551e-06
7.46167e-06
7.48825e-06
7.5165e-06
7.54497e-06
7.57547e-06
7.60603e-06
7.63899e-06
7.67198e-06
7.70764e-06
7.74348e-06
7.78211e-06
7.82137e-06
7.86345e-06
7.90676e-06
7.95313e-06
8.00104e-06
8.05325e-06
8.10622e-06
8.16635e-06
8.22521e-06
8.29518e-06
8.36204e-06
8.44431e-06
8.51896e-06
8.62084e-06
8.70099e-06
8.82313e-06
8.91996e-06
9.05745e-06
9.17447e-06
9.34399e-06
9.51073e-06
9.59758e-06
9.65966e-06
9.63902e-06
9.59095e-06
9.39464e-06
9.13381e-06
8.61706e-06
8.02598e-06
7.40827e-06
6.74212e-06
6.17661e-06
5.59423e-06
5.00851e-06
7.44784e-06
7.45897e-06
7.47018e-06
7.48227e-06
7.49473e-06
7.50813e-06
7.52185e-06
7.53657e-06
7.5516e-06
7.56765e-06
7.58421e-06
7.60183e-06
7.61996e-06
7.63914e-06
7.65906e-06
7.67998e-06
7.70172e-06
7.72411e-06
7.74774e-06
7.77167e-06
7.79706e-06
7.82263e-06
7.85001e-06
7.87743e-06
7.90698e-06
7.93647e-06
7.96829e-06
8.00011e-06
8.0343e-06
8.0688e-06
8.10552e-06
8.14308e-06
8.18264e-06
8.22359e-06
8.26662e-06
8.31128e-06
8.35877e-06
8.4075e-06
8.46101e-06
8.51407e-06
8.57571e-06
8.63306e-06
8.70575e-06
8.76715e-06
8.85324e-06
8.92151e-06
9.01953e-06
9.09438e-06
9.21352e-06
9.29059e-06
9.42727e-06
9.54676e-06
9.71777e-06
9.7935e-06
9.88479e-06
9.86801e-06
9.82092e-06
9.73258e-06
9.49873e-06
9.15159e-06
8.68226e-06
8.09699e-06
7.40053e-06
6.61842e-06
6.04283e-06
5.32063e-06
4.81516e-06
4.39574e-06
4.19709e-06
7.95686e-06
7.97014e-06
7.98416e-06
7.99874e-06
8.01441e-06
8.03042e-06
8.04748e-06
8.0651e-06
8.08372e-06
8.10317e-06
8.12344e-06
8.14421e-06
8.16597e-06
8.18816e-06
8.21166e-06
8.23544e-06
8.26085e-06
8.28629e-06
8.3137e-06
8.34091e-06
8.37038e-06
8.39946e-06
8.43102e-06
8.46214e-06
8.49585e-06
8.52923e-06
8.56515e-06
8.60112e-06
8.63936e-06
8.67834e-06
8.71912e-06
8.76151e-06
8.80533e-06
8.8514e-06
8.89922e-06
8.94909e-06
9.00226e-06
9.05579e-06
9.11623e-06
9.17313e-06
9.24332e-06
9.30237e-06
9.38626e-06
9.44289e-06
9.5461e-06
9.60084e-06
9.71039e-06
9.76847e-06
9.90934e-06
9.99173e-06
1.01553e-05
1.01974e-05
1.01751e-05
1.00997e-05
1.00237e-05
9.81839e-06
9.53958e-06
9.07594e-06
8.5627e-06
7.91216e-06
7.28144e-06
6.54101e-06
5.83816e-06
5.24322e-06
4.78368e-06
4.43448e-06
4.27569e-06
4.15348e-06
4.32671e-06
8.63423e-06
8.64725e-06
8.66081e-06
8.67538e-06
8.69066e-06
8.70701e-06
8.72425e-06
8.74258e-06
8.7618e-06
8.78204e-06
8.80327e-06
8.82568e-06
8.84928e-06
8.87392e-06
8.89989e-06
8.92668e-06
8.95531e-06
8.98457e-06
9.01583e-06
9.04728e-06
9.08108e-06
9.11491e-06
9.15094e-06
9.18736e-06
9.22603e-06
9.26531e-06
9.30706e-06
9.34943e-06
9.39455e-06
9.44041e-06
9.489e-06
9.5389e-06
9.59113e-06
9.6453e-06
9.70157e-06
9.75955e-06
9.82086e-06
9.88095e-06
9.94807e-06
1.00082e-05
1.00801e-05
1.01385e-05
1.02135e-05
1.02665e-05
1.03513e-05
1.0396e-05
1.04763e-05
1.05051e-05
1.05796e-05
1.05508e-05
1.05084e-05
1.03854e-05
1.01975e-05
9.88557e-06
9.49511e-06
9.05515e-06
8.52768e-06
8.0143e-06
7.46613e-06
6.89298e-06
6.30668e-06
5.70293e-06
5.20911e-06
4.82286e-06
4.55434e-06
4.39648e-06
4.81166e-06
5.02388e-06
5.12926e-06
9.55378e-06
9.57103e-06
9.58889e-06
9.60892e-06
9.6298e-06
9.65245e-06
9.67685e-06
9.70293e-06
9.73069e-06
9.76015e-06
9.79141e-06
9.82327e-06
9.85669e-06
9.89073e-06
9.92614e-06
9.96175e-06
9.99885e-06
1.00361e-05
1.00749e-05
1.01139e-05
1.01542e-05
1.0195e-05
1.02365e-05
1.02787e-05
1.03213e-05
1.03645e-05
1.04079e-05
1.04519e-05
1.04955e-05
1.05399e-05
1.05825e-05
1.06263e-05
1.06675e-05
1.07077e-05
1.07474e-05
1.0783e-05
1.08193e-05
1.08507e-05
1.08829e-05
1.09088e-05
1.09334e-05
1.09495e-05
1.09781e-05
1.10015e-05
1.10429e-05
1.11159e-05
1.10943e-05
1.09831e-05
1.0863e-05
1.06851e-05
1.05037e-05
1.02609e-05
1.0008e-05
9.67025e-06
9.26937e-06
8.87233e-06
8.35308e-06
7.94557e-06
7.52148e-06
7.03834e-06
6.49367e-06
5.80061e-06
5.34949e-06
4.90777e-06
5.04106e-06
5.16716e-06
5.5241e-06
6.15808e-06
6.75906e-06
1.12723e-05
1.13046e-05
1.13148e-05
1.13042e-05
1.13341e-05
1.13443e-05
1.13318e-05
1.13617e-05
1.13406e-05
1.13339e-05
1.13505e-05
1.13627e-05
1.13342e-05
1.13055e-05
1.12925e-05
1.12876e-05
1.12892e-05
1.12919e-05
1.12982e-05
1.13027e-05
1.13112e-05
1.13166e-05
1.13234e-05
1.1334e-05
1.13426e-05
1.136e-05
1.137e-05
1.13885e-05
1.14077e-05
1.14253e-05
1.14322e-05
1.14634e-05
1.148e-05
1.14763e-05
1.15207e-05
1.15273e-05
1.15326e-05
1.16116e-05
1.16438e-05
1.16861e-05
1.17215e-05
1.17196e-05
1.1706e-05
1.18898e-05
1.19744e-05
1.19291e-05
1.22232e-05
1.22163e-05
1.25563e-05
1.28043e-05
1.30541e-05
1.34497e-05
1.37864e-05
1.30629e-05
1.22877e-05
1.15416e-05
1.07865e-05
9.92046e-06
9.04281e-06
8.23455e-06
7.30778e-06
6.19047e-06
5.21559e-06
4.30014e-06
3.44733e-06
2.28493e-06
3.79708e-06
7.1318e-06
7.47289e-06
1.12966e-05
1.13094e-05
1.12531e-05
1.12975e-05
1.12552e-05
1.13091e-05
1.12838e-05
1.13377e-05
1.13089e-05
1.13365e-05
1.1337e-05
1.14007e-05
1.14158e-05
1.1316e-05
1.1377e-05
1.13079e-05
1.13782e-05
1.1331e-05
1.13301e-05
1.14108e-05
1.14358e-05
1.13768e-05
1.13711e-05
1.1453e-05
1.13722e-05
1.1456e-05
1.13698e-05
1.14605e-05
1.14362e-05
1.14518e-05
1.15216e-05
1.16665e-05
1.18912e-05
1.22218e-05
1.26366e-05
1.3185e-05
1.38371e-05
1.46665e-05
1.55143e-05
1.64748e-05
1.73661e-05
1.83623e-05
1.92478e-05
2.0211e-05
2.10666e-05
2.18356e-05
2.25502e-05
2.28022e-05
2.4625e-05
2.52005e-05
2.46582e-05
2.33302e-05
2.14734e-05
1.93065e-05
1.70474e-05
1.47373e-05
1.26699e-05
1.07005e-05
8.39873e-06
6.15792e-06
3.86253e-06
2.32244e-06
1.29262e-06
1.00642e-06
9.64448e-07
1.04433e-06
1.54068e-06
2.22559e-06
2.5031e-06
3.48708e-05
3.57497e-05
3.66537e-05
3.75884e-05
3.85459e-05
3.95309e-05
4.0536e-05
4.15629e-05
4.26064e-05
4.36661e-05
4.47411e-05
4.58246e-05
4.69246e-05
4.80187e-05
4.91356e-05
5.0233e-05
5.13607e-05
5.245e-05
5.35789e-05
5.46519e-05
5.57724e-05
5.68221e-05
5.79158e-05
5.89395e-05
5.99988e-05
6.09823e-05
6.19915e-05
6.29574e-05
6.38672e-05
6.47524e-05
6.55075e-05
6.61522e-05
6.67108e-05
6.7126e-05
6.74915e-05
6.7517e-05
6.80882e-05
6.86742e-05
6.85763e-05
6.76355e-05
6.60032e-05
6.41092e-05
6.19202e-05
5.94091e-05
5.65399e-05
5.3276e-05
4.95722e-05
4.53694e-05
4.06632e-05
3.53937e-05
2.95044e-05
2.29809e-05
1.58581e-05
8.8872e-06
3.45432e-06
1.16547e-06
1.04363e-06
1.36147e-06
1.55027e-06
1.55145e-06
1.41974e-06
1.17742e-06
8.99617e-07
6.76728e-07
5.96771e-07
5.63464e-07
5.3379e-07
4.67484e-07
3.38076e-07
4.82062e-06
4.81955e-06
4.81768e-06
4.81488e-06
4.81157e-06
4.80706e-06
4.80279e-06
4.79969e-06
4.79876e-06
4.79697e-06
4.79323e-06
4.79117e-06
4.79277e-06
4.79225e-06
4.78959e-06
4.78554e-06
4.78484e-06
4.78258e-06
4.78001e-06
4.77436e-06
4.77569e-06
4.77742e-06
4.77436e-06
4.77007e-06
4.76672e-06
4.76063e-06
4.76059e-06
4.76085e-06
4.76363e-06
4.75985e-06
4.75848e-06
4.75824e-06
4.75861e-06
4.75474e-06
4.75238e-06
4.74982e-06
4.74965e-06
4.74673e-06
4.74212e-06
4.74051e-06
4.73535e-06
4.7348e-06
4.73271e-06
4.72994e-06
4.72977e-06
4.72548e-06
4.71982e-06
4.71908e-06
4.71667e-06
4.71195e-06
4.70499e-06
4.70245e-06
4.70171e-06
4.70298e-06
4.70358e-06
4.70756e-06
4.70777e-06
4.70594e-06
4.70188e-06
4.84667e-06
4.84444e-06
4.84149e-06
4.83839e-06
4.83525e-06
4.83236e-06
4.83049e-06
4.82942e-06
4.82883e-06
4.82719e-06
4.82516e-06
4.82379e-06
4.82238e-06
4.81858e-06
4.81322e-06
4.81087e-06
4.81102e-06
4.80888e-06
4.8025e-06
4.79971e-06
4.80154e-06
4.8022e-06
4.79837e-06
4.79412e-06
4.78918e-06
4.78385e-06
4.78401e-06
4.78477e-06
4.78671e-06
4.78295e-06
4.78191e-06
4.78153e-06
4.78158e-06
4.7786e-06
4.77615e-06
4.77341e-06
4.77276e-06
4.77106e-06
4.76707e-06
4.76443e-06
4.75942e-06
4.75886e-06
4.75795e-06
4.75581e-06
4.75449e-06
4.75259e-06
4.7479e-06
4.74518e-06
4.74435e-06
4.74215e-06
4.73736e-06
4.73228e-06
4.72772e-06
4.7286e-06
4.72904e-06
4.72862e-06
4.72986e-06
4.73072e-06
4.73225e-06
4.87397e-06
4.87196e-06
4.86975e-06
4.86795e-06
4.86634e-06
4.86527e-06
4.86453e-06
4.86372e-06
4.86244e-06
4.8603e-06
4.85766e-06
4.85428e-06
4.84998e-06
4.84485e-06
4.84155e-06
4.84095e-06
4.84031e-06
4.83405e-06
4.82979e-06
4.82999e-06
4.8309e-06
4.83057e-06
4.82503e-06
4.8206e-06
4.81458e-06
4.81025e-06
4.81052e-06
4.81167e-06
4.81284e-06
4.80916e-06
4.80828e-06
4.80773e-06
4.8075e-06
4.80535e-06
4.80283e-06
4.79992e-06
4.79897e-06
4.79783e-06
4.79498e-06
4.79198e-06
4.78697e-06
4.78543e-06
4.78532e-06
4.78431e-06
4.78245e-06
4.78108e-06
4.7781e-06
4.77479e-06
4.77302e-06
4.77223e-06
4.77013e-06
4.76626e-06
4.76223e-06
4.75827e-06
4.75848e-06
4.75872e-06
4.75906e-06
4.75864e-06
4.75892e-06
4.90668e-06
4.90553e-06
4.90439e-06
4.9036e-06
4.90274e-06
4.90189e-06
4.90061e-06
4.89876e-06
4.89619e-06
4.89285e-06
4.8888e-06
4.88422e-06
4.87994e-06
4.87676e-06
4.87529e-06
4.87409e-06
4.86965e-06
4.8635e-06
4.86138e-06
4.86158e-06
4.8619e-06
4.86086e-06
4.8538e-06
4.84922e-06
4.84245e-06
4.83918e-06
4.83953e-06
4.84085e-06
4.84145e-06
4.83785e-06
4.83706e-06
4.83638e-06
4.83606e-06
4.83453e-06
4.83232e-06
4.82936e-06
4.82801e-06
4.82714e-06
4.82519e-06
4.82261e-06
4.81797e-06
4.81497e-06
4.81421e-06
4.81571e-06
4.81525e-06
4.814e-06
4.81119e-06
4.80932e-06
4.80771e-06
4.80852e-06
4.80823e-06
4.80632e-06
4.80256e-06
4.79855e-06
4.79401e-06
4.7943e-06
4.79435e-06
4.79371e-06
4.79376e-06
4.94547e-06
4.9447e-06
4.94378e-06
4.94283e-06
4.94137e-06
4.93951e-06
4.93696e-06
4.93386e-06
4.93018e-06
4.92609e-06
4.92185e-06
4.91803e-06
4.91529e-06
4.91332e-06
4.91126e-06
4.90757e-06
4.90136e-06
4.89774e-06
4.89765e-06
4.89713e-06
4.89761e-06
4.89344e-06
4.88564e-06
4.88092e-06
4.87397e-06
4.87176e-06
4.87224e-06
4.87368e-06
4.87375e-06
4.87019e-06
4.86936e-06
4.86856e-06
4.86814e-06
4.86698e-06
4.8652e-06
4.86241e-06
4.86047e-06
4.85986e-06
4.85874e-06
4.85691e-06
4.85337e-06
4.84866e-06
4.84761e-06
4.84697e-06
4.84807e-06
4.84984e-06
4.84848e-06
4.84489e-06
4.84445e-06
4.84349e-06
4.84417e-06
4.84513e-06
4.84512e-06
4.84371e-06
4.84048e-06
4.83679e-06
4.83405e-06
4.83394e-06
4.8342e-06
4.98687e-06
4.98549e-06
4.98384e-06
4.98193e-06
4.97946e-06
4.97662e-06
4.97333e-06
4.96982e-06
4.96615e-06
4.96262e-06
4.95939e-06
4.95675e-06
4.95454e-06
4.9518e-06
4.94796e-06
4.94289e-06
4.93807e-06
4.93654e-06
4.93615e-06
4.93672e-06
4.93426e-06
4.92766e-06
4.91991e-06
4.915e-06
4.90846e-06
4.90714e-06
4.90768e-06
4.90906e-06
4.90869e-06
4.90523e-06
4.90441e-06
4.9036e-06
4.90319e-06
4.9024e-06
4.90101e-06
4.89869e-06
4.89641e-06
4.896e-06
4.89535e-06
4.8943e-06
4.89216e-06
4.88733e-06
4.88567e-06
4.88566e-06
4.88512e-06
4.88561e-06
4.8892e-06
4.88918e-06
4.88811e-06
4.88763e-06
4.88735e-06
4.88714e-06
4.88731e-06
4.88676e-06
4.88739e-06
4.88643e-06
4.88426e-06
4.88395e-06
4.88304e-06
5.03003e-06
5.02799e-06
5.02571e-06
5.02329e-06
5.02052e-06
5.01765e-06
5.01461e-06
5.0116e-06
5.00864e-06
5.00585e-06
5.00309e-06
5.00031e-06
4.99706e-06
4.99282e-06
4.98803e-06
4.98367e-06
4.98109e-06
4.98099e-06
4.98088e-06
4.97911e-06
4.97382e-06
4.96591e-06
4.95857e-06
4.95346e-06
4.94786e-06
4.94738e-06
4.94787e-06
4.94923e-06
4.94842e-06
4.94504e-06
4.94411e-06
4.94324e-06
4.94276e-06
4.94219e-06
4.94116e-06
4.93936e-06
4.93678e-06
4.93637e-06
4.93652e-06
4.9359e-06
4.93484e-06
4.93212e-06
4.92764e-06
4.92808e-06
4.9275e-06
4.92627e-06
4.92825e-06
4.92998e-06
4.93099e-06
4.93188e-06
4.93327e-06
4.934e-06
4.93392e-06
4.93689e-06
4.93461e-06
4.93655e-06
4.93742e-06
4.93791e-06
4.93787e-06
5.07673e-06
5.07449e-06
5.07209e-06
5.06972e-06
5.0671e-06
5.06446e-06
5.06167e-06
5.05888e-06
5.05595e-06
5.05285e-06
5.0494e-06
5.04558e-06
5.04124e-06
5.03664e-06
5.03279e-06
5.03029e-06
5.02943e-06
5.02918e-06
5.02738e-06
5.02271e-06
5.01532e-06
5.00705e-06
5.00029e-06
4.99524e-06
4.99073e-06
4.99084e-06
4.99134e-06
4.99246e-06
4.99124e-06
4.98799e-06
4.98709e-06