/*--------------------------------*- C++ -*----------------------------------*\
| =========                 |                                                 |
| \\      /  F ield         | OpenFOAM: The Open Source CFD Toolbox           |
|  \\    /   O peration     | Version:  2312                                  |
|   \\  /    A nd           | Website:  www.openfoam.com                      |
|    \\/     M anipulation  |                                                 |
\*---------------------------------------------------------------------------*/
FoamFile
{
    version     2.0;
    format      ascii;
    arch        "LSB;label=32;scalar=64";
    class       volScalarField;
    location    "700";
    object      nut;
}
// * * * * * * * * * * * * * * * * * * * * * * * * * * * * * * * * * * * * * //

dimensions      [0 2 -1 0 0 0 0];

internalField   nonuniform List<scalar> 
76025
(
6.32473e-05
6.37448e-05
6.44847e-05
6.4503e-05
6.4225e-05
6.21433e-05
6.35903e-05
6.2753e-05
6.41889e-05
6.39146e-05
6.3431e-05
6.28731e-05
6.34021e-05
6.3164e-05
6.19998e-05
6.33214e-05
6.13802e-05
6.16316e-05
6.09204e-05
6.11981e-05
5.94341e-05
5.89623e-05
5.81879e-05
5.66074e-05
5.61389e-05
5.50494e-05
5.21973e-05
5.3455e-05
5.10047e-05
4.98659e-05
4.99756e-05
4.88735e-05
4.65703e-05
4.76692e-05
4.63671e-05
4.66239e-05
4.43393e-05
4.24455e-05
4.29644e-05
4.23579e-05
4.17271e-05
3.96827e-05
3.80899e-05
3.85786e-05
3.79461e-05
3.73191e-05
3.62809e-05
3.67063e-05
3.67687e-05
3.69662e-05
3.69916e-05
3.70478e-05
3.76079e-05
3.80172e-05
3.84913e-05
3.95635e-05
3.96352e-05
3.94157e-05
3.87949e-05
3.91927e-05
3.88843e-05
3.7699e-05
3.83191e-05
3.82351e-05
3.81843e-05
3.8359e-05
3.8129e-05
3.81499e-05
3.9573e-05
5.89492e-05
5.95672e-05
5.99067e-05
6.009e-05
6.00282e-05
5.93873e-05
5.93385e-05
5.88212e-05
5.89095e-05
5.91193e-05
5.91812e-05
5.90697e-05
5.9004e-05
5.88022e-05
5.85547e-05
5.86125e-05
5.80995e-05
5.79218e-05
5.74947e-05
5.72337e-05
5.66709e-05
5.62798e-05
5.5701e-05
5.49104e-05
5.42061e-05
5.3544e-05
5.27387e-05
5.20624e-05
5.11846e-05
5.03012e-05
4.96466e-05
4.90264e-05
4.83898e-05
4.78806e-05
4.72143e-05
4.6537e-05
4.59853e-05
4.56891e-05
4.54156e-05
4.50139e-05
4.45471e-05
4.43397e-05
4.44143e-05
4.43611e-05
4.41321e-05
4.4008e-05
4.41957e-05
4.41956e-05
4.39678e-05
4.39229e-05
4.39439e-05
4.39175e-05
4.40812e-05
4.42462e-05
4.39538e-05
4.34852e-05
4.32986e-05
4.27162e-05
4.24535e-05
4.2026e-05
4.18485e-05
4.12919e-05
4.11902e-05
4.06987e-05
4.04147e-05
3.96299e-05
4.02715e-05
4.03517e-05
4.17006e-05
5.49395e-05
5.53397e-05
5.54216e-05
5.54927e-05
5.55699e-05
5.55787e-05
5.54717e-05
5.52598e-05
5.50359e-05
5.48944e-05
5.48533e-05
5.4846e-05
5.48416e-05
5.4766e-05
5.46557e-05
5.45428e-05
5.44206e-05
5.43031e-05
5.41645e-05
5.39763e-05
5.37738e-05
5.35391e-05
5.3223e-05
5.28192e-05
5.24217e-05
5.20448e-05
5.16901e-05
5.11838e-05
5.06481e-05
5.01206e-05
4.96601e-05
4.92704e-05
4.88857e-05
4.84404e-05
4.79962e-05
4.75321e-05
4.71439e-05
4.68718e-05
4.66339e-05
4.63942e-05
4.61482e-05
4.5972e-05
4.58355e-05
4.5647e-05
4.54322e-05
4.52489e-05
4.5115e-05
4.49019e-05
4.463e-05
4.44049e-05
4.42018e-05
4.395e-05
4.37334e-05
4.34252e-05
4.30398e-05
4.25379e-05
4.21985e-05
4.16087e-05
4.1199e-05
4.06145e-05
4.04037e-05
3.98051e-05
3.953e-05
3.8949e-05
3.88559e-05
3.83445e-05
3.87391e-05
3.84745e-05
3.97112e-05
5.17058e-05
5.18198e-05
5.16365e-05
5.1465e-05
5.1419e-05
5.14433e-05
5.14514e-05
5.14288e-05
5.13477e-05
5.12338e-05
5.11272e-05
5.10529e-05
5.10156e-05
5.09839e-05
5.09455e-05
5.08954e-05
5.086e-05
5.08213e-05
5.07947e-05
5.075e-05
5.06897e-05
5.05973e-05
5.04775e-05
5.03255e-05
5.01618e-05
4.99795e-05
4.97775e-05
4.95355e-05
4.92674e-05
4.90037e-05
4.87657e-05
4.85308e-05
4.82716e-05
4.79902e-05
4.7703e-05
4.74089e-05
4.7121e-05
4.6867e-05
4.66475e-05
4.64307e-05
4.62021e-05
4.59706e-05
4.57492e-05
4.55265e-05
4.52889e-05
4.50363e-05
4.47871e-05
4.45098e-05
4.42065e-05
4.38779e-05
4.35661e-05
4.32086e-05
4.28815e-05
4.24745e-05
4.20913e-05
4.15677e-05
4.11715e-05
4.05901e-05
4.02129e-05
3.96216e-05
3.93597e-05
3.87673e-05
3.85484e-05
3.80046e-05
3.79799e-05
3.75093e-05
3.78883e-05
3.75465e-05
3.87612e-05
4.8394e-05
4.86052e-05
4.84155e-05
4.81497e-05
4.7975e-05
4.78799e-05
4.78308e-05
4.78112e-05
4.77956e-05
4.77648e-05
4.77159e-05
4.76597e-05
4.7612e-05
4.75781e-05
4.75548e-05
4.75372e-05
4.75289e-05
4.75279e-05
4.75372e-05
4.75502e-05
4.75617e-05
4.75647e-05
4.75571e-05
4.75333e-05
4.7494e-05
4.7441e-05
4.7373e-05
4.72892e-05
4.71899e-05
4.7081e-05
4.69686e-05
4.68478e-05
4.67105e-05
4.65564e-05
4.63882e-05
4.62086e-05
4.60243e-05
4.58447e-05
4.56704e-05
4.54871e-05
4.52926e-05
4.50868e-05
4.48746e-05
4.46495e-05
4.44058e-05
4.41379e-05
4.38631e-05
4.35577e-05
4.32374e-05
4.28782e-05
4.25374e-05
4.21455e-05
4.17894e-05
4.1344e-05
4.09603e-05
4.0434e-05
4.00498e-05
3.94803e-05
3.91356e-05
3.85513e-05
3.82989e-05
3.77371e-05
3.75678e-05
3.70529e-05
3.70745e-05
3.66587e-05
3.7053e-05
3.67452e-05
3.78015e-05
4.48868e-05
4.53e-05
4.52734e-05
4.51012e-05
4.49358e-05
4.48033e-05
4.46941e-05
4.46139e-05
4.45635e-05
4.4534e-05
4.45132e-05
4.44922e-05
4.44695e-05
4.44482e-05
4.44311e-05
4.44202e-05
4.44176e-05
4.44242e-05
4.44407e-05
4.44659e-05
4.4498e-05
4.45336e-05
4.4569e-05
4.46005e-05
4.46261e-05
4.46458e-05
4.46581e-05
4.46609e-05
4.4653e-05
4.46351e-05
4.46086e-05
4.45732e-05
4.4526e-05
4.44642e-05
4.4388e-05
4.42985e-05
4.41984e-05
4.40891e-05
4.39713e-05
4.38395e-05
4.36939e-05
4.35281e-05
4.33431e-05
4.31357e-05
4.29115e-05
4.26585e-05
4.2396e-05
4.20967e-05
4.1795e-05
4.14454e-05
4.11193e-05
4.07292e-05
4.03875e-05
3.99487e-05
3.95947e-05
3.91011e-05
3.87565e-05
3.82292e-05
3.79313e-05
3.73932e-05
3.7183e-05
3.66678e-05
3.65554e-05
3.60934e-05
3.61714e-05
3.58122e-05
3.62612e-05
3.60777e-05
3.71269e-05
4.15034e-05
4.19346e-05
4.20263e-05
4.19899e-05
4.1947e-05
4.18917e-05
4.18172e-05
4.17371e-05
4.16675e-05
4.16162e-05
4.15838e-05
4.15654e-05
4.15554e-05
4.155e-05
4.15477e-05
4.15487e-05
4.1554e-05
4.15649e-05
4.15821e-05
4.16062e-05
4.16371e-05
4.1674e-05
4.17156e-05
4.17605e-05
4.18072e-05
4.18541e-05
4.18995e-05
4.19415e-05
4.19784e-05
4.20094e-05
4.2034e-05
4.20512e-05
4.20591e-05
4.20553e-05
4.20391e-05
4.20099e-05
4.19682e-05
4.19134e-05
4.18462e-05
4.17626e-05
4.16628e-05
4.15391e-05
4.13944e-05
4.12245e-05
4.10411e-05
4.08258e-05
4.06048e-05
4.03415e-05
4.00869e-05
3.97743e-05
3.94965e-05
3.914e-05
3.88497e-05
3.84497e-05
3.81546e-05
3.77144e-05
3.74326e-05
3.69685e-05
3.67326e-05
3.62609e-05
3.61087e-05
3.56525e-05
3.56039e-05
3.5201e-05
3.53332e-05
3.50227e-05
3.55381e-05
3.53566e-05
3.66479e-05
3.85081e-05
3.88886e-05
3.89853e-05
3.89984e-05
3.90302e-05
3.90574e-05
3.90577e-05
3.90334e-05
3.89965e-05
3.89581e-05
3.89261e-05
3.89045e-05
3.88937e-05
3.88923e-05
3.88984e-05
3.89101e-05
3.89265e-05
3.89469e-05
3.89712e-05
3.89994e-05
3.90317e-05
3.90682e-05
3.91089e-05
3.91535e-05
3.92015e-05
3.92523e-05
3.93047e-05
3.93576e-05
3.94097e-05
3.94598e-05
3.95068e-05
3.95492e-05
3.95857e-05
3.96143e-05
3.96339e-05
3.9643e-05
3.96418e-05
3.96285e-05
3.96034e-05
3.95624e-05
3.9506e-05
3.9426e-05
3.93277e-05
3.92038e-05
3.90708e-05
3.8904e-05
3.87382e-05
3.85246e-05
3.83311e-05
3.80694e-05
3.78573e-05
3.75507e-05
3.733e-05
3.69833e-05
3.67617e-05
3.63835e-05
3.61753e-05
3.57803e-05
3.56117e-05
3.52114e-05
3.51186e-05
3.47228e-05
3.47388e-05
3.43897e-05
3.45725e-05
3.43064e-05
3.48573e-05
3.46347e-05
3.61903e-05
3.58966e-05
3.62232e-05
3.62876e-05
3.6288e-05
3.63269e-05
3.63825e-05
3.64277e-05
3.64558e-05
3.64687e-05
3.64709e-05
3.64674e-05
3.64628e-05
3.64609e-05
3.64642e-05
3.6474e-05
3.64903e-05
3.65127e-05
3.65405e-05
3.65728e-05
3.66089e-05
3.66484e-05
3.66908e-05
3.67361e-05
3.6784e-05
3.68345e-05
3.68873e-05
3.69422e-05
3.69985e-05
3.70558e-05
3.7113e-05
3.71695e-05
3.72241e-05
3.72759e-05
3.7323e-05
3.73648e-05
3.73996e-05
3.74273e-05
3.74455e-05
3.74544e-05
3.745e-05
3.74324e-05
3.73933e-05
3.73403e-05
3.72631e-05
3.71817e-05
3.70661e-05
3.69582e-05
3.67992e-05
3.66698e-05
3.64648e-05
3.63224e-05
3.60724e-05
3.59253e-05
3.56356e-05
3.54914e-05
3.51717e-05
3.50419e-05
3.47051e-05
3.46095e-05
3.42668e-05
3.42339e-05
3.38958e-05
3.39642e-05
3.36664e-05
3.39007e-05
3.3693e-05
3.42485e-05
3.42113e-05
3.48678e-05
3.35109e-05
3.38174e-05
3.38702e-05
3.38587e-05
3.38851e-05
3.39356e-05
3.39883e-05
3.40368e-05
3.40801e-05
3.41176e-05
3.41492e-05
3.41755e-05
3.4198e-05
3.42191e-05
3.4241e-05
3.42657e-05
3.42944e-05
3.43277e-05
3.43655e-05
3.44077e-05
3.44539e-05
3.45035e-05
3.45561e-05
3.46115e-05
3.46693e-05
3.47292e-05
3.47911e-05
3.48546e-05
3.49194e-05
3.49851e-05
3.50512e-05
3.5117e-05
3.51818e-05
3.52445e-05
3.53046e-05
3.53606e-05
3.54123e-05
3.54575e-05
3.54965e-05
3.55248e-05
3.5543e-05
3.55422e-05
3.5532e-05
3.55003e-05
3.54679e-05
3.54032e-05
3.53498e-05
3.52464e-05
3.51757e-05
3.50302e-05
3.49484e-05
3.47609e-05
3.4674e-05
3.44492e-05
3.43644e-05
3.41098e-05
3.40399e-05
3.37608e-05
3.37271e-05
3.34301e-05
3.34545e-05
3.31613e-05
3.32757e-05
3.3023e-05
3.3316e-05
3.31662e-05
3.37828e-05
3.38985e-05
3.46006e-05
3.12842e-05
3.15851e-05
3.16451e-05
3.16391e-05
3.16635e-05
3.17088e-05
3.17579e-05
3.18079e-05
3.18596e-05
3.19127e-05
3.19657e-05
3.2017e-05
3.20654e-05
3.21109e-05
3.21542e-05
3.21965e-05
3.22393e-05
3.22836e-05
3.23304e-05
3.23802e-05
3.24335e-05
3.24901e-05
3.25502e-05
3.26136e-05
3.26801e-05
3.27494e-05
3.28213e-05
3.28955e-05
3.29719e-05
3.30499e-05
3.31295e-05
3.321e-05
3.32911e-05
3.33718e-05
3.3452e-05
3.35304e-05
3.3607e-05
3.36795e-05
3.37484e-05
3.38092e-05
3.38623e-05
3.3899e-05
3.39298e-05
3.39422e-05
3.39557e-05
3.39403e-05
3.39362e-05
3.38871e-05
3.38667e-05
3.37809e-05
3.37459e-05
3.3626e-05
3.35771e-05
3.34306e-05
3.33705e-05
3.32043e-05
3.31465e-05
3.2956e-05
3.29323e-05
3.27063e-05
3.27552e-05
3.25074e-05
3.26644e-05
3.24483e-05
3.27958e-05
3.26879e-05
3.34191e-05
3.37256e-05
3.44411e-05
2.92016e-05
2.94956e-05
2.95652e-05
2.95715e-05
2.96034e-05
2.96522e-05
2.97026e-05
2.97533e-05
2.98067e-05
2.98642e-05
2.99254e-05
2.99892e-05
3.00539e-05
3.01185e-05
3.01822e-05
3.02451e-05
3.03074e-05
3.03697e-05
3.04325e-05
3.04965e-05
3.05623e-05
3.06304e-05
3.07013e-05
3.07753e-05
3.08524e-05
3.09329e-05
3.10166e-05
3.11036e-05
3.11937e-05
3.12867e-05
3.13825e-05
3.14806e-05
3.15809e-05
3.16824e-05
3.17855e-05
3.18886e-05
3.19921e-05
3.20934e-05
3.21937e-05
3.22873e-05
3.23755e-05
3.24496e-05
3.25206e-05
3.25756e-05
3.26324e-05
3.26633e-05
3.27043e-05
3.2705e-05
3.27291e-05
3.26977e-05
3.27019e-05
3.26445e-05
3.2622e-05
3.25521e-05
3.2496e-05
3.24259e-05
3.23434e-05
3.22678e-05
3.21975e-05
3.20898e-05
3.20995e-05
3.19429e-05
3.21057e-05
3.1934e-05
3.23349e-05
3.2253e-05
3.30679e-05
3.33263e-05
3.48513e-05
2.72742e-05
2.75572e-05
2.76316e-05
2.76469e-05
2.76858e-05
2.774e-05
2.7795e-05
2.78491e-05
2.79051e-05
2.79648e-05
2.80289e-05
2.80973e-05
2.8169e-05
2.82434e-05
2.83197e-05
2.83975e-05
2.84764e-05
2.85563e-05
2.86372e-05
2.87191e-05
2.88024e-05
2.88874e-05
2.89746e-05
2.90643e-05
2.91569e-05
2.92527e-05
2.93521e-05
2.94551e-05
2.95619e-05
2.96725e-05
2.9787e-05
2.9905e-05
3.00267e-05
3.01511e-05
3.02789e-05
3.0408e-05
3.05399e-05
3.06705e-05
3.08031e-05
3.09293e-05
3.10525e-05
3.1163e-05
3.12733e-05
3.13684e-05
3.14667e-05
3.15402e-05
3.16237e-05
3.16687e-05
3.17348e-05
3.17486e-05
3.1792e-05
3.17806e-05
3.17899e-05
3.17703e-05
3.17309e-05
3.17226e-05
3.1633e-05
3.16416e-05
3.15335e-05
3.15426e-05
3.14863e-05
3.14684e-05
3.15755e-05
3.15087e-05
3.19251e-05
3.18794e-05
3.27281e-05
3.32948e-05
3.34261e-05
2.54841e-05
2.57561e-05
2.58331e-05
2.58547e-05
2.58982e-05
2.59563e-05
2.60153e-05
2.60734e-05
2.61328e-05
2.61953e-05
2.62617e-05
2.63323e-05
2.64069e-05
2.64851e-05
2.6567e-05
2.66521e-05
2.67405e-05
2.68317e-05
2.69257e-05
2.70224e-05
2.71216e-05
2.72234e-05
2.73281e-05
2.74357e-05
2.75467e-05
2.76612e-05
2.77795e-05
2.79021e-05
2.8029e-05
2.81604e-05
2.82966e-05
2.84373e-05
2.85828e-05
2.87323e-05
2.88868e-05
2.90438e-05
2.92056e-05
2.93669e-05
2.95329e-05
2.96922e-05
2.98514e-05
2.99985e-05
3.01482e-05
3.02823e-05
3.04211e-05
3.0535e-05
3.06582e-05
3.07438e-05
3.08479e-05
3.08995e-05
3.09802e-05
3.09993e-05
3.10487e-05
3.10476e-05
3.1056e-05
3.10525e-05
3.10214e-05
3.10274e-05
3.09798e-05
3.10046e-05
3.09759e-05
3.10379e-05
3.11032e-05
3.11764e-05
3.15464e-05
3.16091e-05
3.26744e-05
3.31843e-05
3.54173e-05
2.38333e-05
2.40946e-05
2.41734e-05
2.41996e-05
2.42458e-05
2.43059e-05
2.4367e-05
2.44276e-05
2.44896e-05
2.45544e-05
2.46229e-05
2.46953e-05
2.47715e-05
2.48515e-05
2.49355e-05
2.50236e-05
2.51158e-05
2.52124e-05
2.53132e-05
2.54183e-05
2.55276e-05
2.56412e-05
2.57591e-05
2.58815e-05
2.60085e-05
2.61404e-05
2.62772e-05
2.64194e-05
2.65668e-05
2.67203e-05
2.68792e-05
2.70443e-05
2.72149e-05
2.73915e-05
2.75737e-05
2.77605e-05
2.79529e-05
2.81467e-05
2.83462e-05
2.85396e-05
2.87342e-05
2.89182e-05
2.91062e-05
2.92784e-05
2.94554e-05
2.96088e-05
2.97673e-05
2.98939e-05
3.00279e-05
3.01212e-05
3.02268e-05
3.02848e-05
3.03605e-05
3.03875e-05
3.04376e-05
3.04376e-05
3.04861e-05
3.04483e-05
3.05454e-05
3.04601e-05
3.06432e-05
3.05538e-05
3.08251e-05
3.08107e-05
3.13083e-05
3.15131e-05
3.28956e-05
3.42315e-05
3.98751e-05
2.22996e-05
2.25509e-05
2.26316e-05
2.26624e-05
2.27113e-05
2.2773e-05
2.2836e-05
2.28985e-05
2.29624e-05
2.30293e-05
2.30997e-05
2.3174e-05
2.32521e-05
2.33339e-05
2.34198e-05
2.35099e-05
2.36046e-05
2.37041e-05
2.38087e-05
2.39184e-05
2.40336e-05
2.41543e-05
2.42807e-05
2.44133e-05
2.45517e-05
2.46968e-05
2.4848e-05
2.50067e-05
2.51714e-05
2.53446e-05
2.55237e-05
2.57118e-05
2.59055e-05
2.61086e-05
2.63169e-05
2.65336e-05
2.67549e-05
2.69822e-05
2.72134e-05
2.74426e-05
2.76718e-05
2.78954e-05
2.81208e-05
2.83338e-05
2.85477e-05
2.87429e-05
2.89351e-05
2.91057e-05
2.9266e-05
2.94088e-05
2.95291e-05
2.96467e-05
2.97221e-05
2.98246e-05
2.98553e-05
2.99543e-05
2.99605e-05
3.00457e-05
3.00884e-05
3.01249e-05
3.02654e-05
3.02726e-05
3.052e-05
3.06625e-05
3.11916e-05
3.19271e-05
3.39696e-05
3.71176e-05
4.00103e-05
2.0899e-05
2.11394e-05
2.12204e-05
2.12543e-05
2.13049e-05
2.13676e-05
2.14315e-05
2.14952e-05
2.15603e-05
2.16284e-05
2.17e-05
2.17756e-05
2.1855e-05
2.19384e-05
2.20259e-05
2.21178e-05
2.22145e-05
2.23163e-05
2.24235e-05
2.25365e-05
2.26555e-05
2.2781e-05
2.29129e-05
2.30523e-05
2.31985e-05
2.33531e-05
2.35147e-05
2.36859e-05
2.38641e-05
2.40531e-05
2.42487e-05
2.44564e-05
2.467e-05
2.48967e-05
2.51284e-05
2.5373e-05
2.56211e-05
2.5881e-05
2.61419e-05
2.6407e-05
2.66691e-05
2.69331e-05
2.71942e-05
2.74509e-05
2.77024e-05
2.7943e-05
2.81731e-05
2.83895e-05
2.85863e-05
2.87736e-05
2.89299e-05
2.90869e-05
2.92033e-05
2.93351e-05
2.94149e-05
2.95388e-05
2.95861e-05
2.97209e-05
2.97581e-05
2.98889e-05
2.99814e-05
3.01138e-05
3.03973e-05
3.0723e-05
3.19416e-05
3.31148e-05
3.70758e-05
4.02675e-05
3.10732e-05
1.96025e-05
1.98321e-05
1.99129e-05
1.99497e-05
2.00019e-05
2.00656e-05
2.01307e-05
2.01958e-05
2.02624e-05
2.03319e-05
2.04051e-05
2.04822e-05
2.05634e-05
2.06486e-05
2.07381e-05
2.08322e-05
2.09314e-05
2.10359e-05
2.11462e-05
2.12626e-05
2.13854e-05
2.15153e-05
2.16522e-05
2.17973e-05
2.195e-05
2.21123e-05
2.22825e-05
2.24638e-05
2.26533e-05
2.28554e-05
2.30658e-05
2.32901e-05
2.35226e-05
2.377e-05
2.40251e-05
2.42951e-05
2.45717e-05
2.48624e-05
2.51561e-05
2.54579e-05
2.57598e-05
2.60674e-05
2.63712e-05
2.66752e-05
2.69708e-05
2.72599e-05
2.75338e-05
2.77984e-05
2.80365e-05
2.82713e-05
2.84653e-05
2.86665e-05
2.8822e-05
2.89843e-05
2.91212e-05
2.92447e-05
2.93796e-05
2.94813e-05
2.96125e-05
2.97371e-05
2.99293e-05
3.01679e-05
3.0737e-05
3.17109e-05
3.35034e-05
3.59732e-05
3.56726e-05
3.01184e-05
2.30681e-05
1.84429e-05
1.86612e-05
1.87405e-05
1.87782e-05
1.88306e-05
1.88941e-05
1.89595e-05
1.90253e-05
1.9093e-05
1.91636e-05
1.92379e-05
1.93162e-05
1.93986e-05
1.94854e-05
1.95767e-05
1.96729e-05
1.97744e-05
1.98816e-05
1.99948e-05
2.01147e-05
2.02413e-05
2.03756e-05
2.05174e-05
2.06681e-05
2.08272e-05
2.09965e-05
2.1175e-05
2.1365e-05
2.15652e-05
2.17781e-05
2.20027e-05
2.22405e-05
2.24917e-05
2.27561e-05
2.30354e-05
2.33271e-05
2.36343e-05
2.39527e-05
2.42816e-05
2.46155e-05
2.49593e-05
2.53059e-05
2.56588e-05
2.60075e-05
2.63599e-05
2.6695e-05
2.70328e-05
2.73382e-05
2.76459e-05
2.79116e-05
2.81739e-05
2.84005e-05
2.86097e-05
2.88071e-05
2.89723e-05
2.91453e-05
2.93049e-05
2.94503e-05
2.96723e-05
2.9891e-05
3.02598e-05
3.0971e-05
3.18928e-05
3.33509e-05
3.71289e-05
3.22902e-05
2.48689e-05
2.06556e-05
1.49518e-05
1.73698e-05
1.7578e-05
1.76555e-05
1.76942e-05
1.77463e-05
1.78096e-05
1.78747e-05
1.79411e-05
1.80094e-05
1.80815e-05
1.81572e-05
1.82373e-05
1.83216e-05
1.84104e-05
1.85039e-05
1.86025e-05
1.87067e-05
1.88169e-05
1.89334e-05
1.9057e-05
1.91877e-05
1.93265e-05
1.94736e-05
1.96299e-05
1.97958e-05
1.99722e-05
2.01598e-05
2.03589e-05
2.05715e-05
2.0796e-05
2.10369e-05
2.12895e-05
2.1562e-05
2.18453e-05
2.21517e-05
2.24682e-05
2.28091e-05
2.31606e-05
2.3532e-05
2.3914e-05
2.43103e-05
2.47148e-05
2.51253e-05
2.55384e-05
2.59487e-05
2.63508e-05
2.6742e-05
2.71112e-05
2.74648e-05
2.77856e-05
2.80851e-05
2.83637e-05
2.85949e-05
2.88564e-05
2.90334e-05
2.92987e-05
2.95053e-05
2.97947e-05
3.01273e-05
3.07342e-05
3.11974e-05
3.20789e-05
3.36258e-05
3.23722e-05
2.66022e-05
2.13098e-05
1.61837e-05
1.32839e-05
1.01375e-05
1.64649e-05
1.66634e-05
1.67393e-05
1.67779e-05
1.68295e-05
1.68908e-05
1.69552e-05
1.70205e-05
1.70887e-05
1.71599e-05
1.72358e-05
1.7316e-05
1.74014e-05
1.74912e-05
1.75862e-05
1.76866e-05
1.77926e-05
1.79048e-05
1.80236e-05
1.81497e-05
1.82835e-05
1.84256e-05
1.85765e-05
1.87368e-05
1.89077e-05
1.90889e-05
1.92831e-05
1.94885e-05
1.971e-05
1.99434e-05
2.01969e-05
2.04626e-05
2.07526e-05
2.10552e-05
2.1385e-05
2.17291e-05
2.21007e-05
2.24856e-05
2.28888e-05
2.33107e-05
2.3748e-05
2.42054e-05
2.46731e-05
2.5154e-05
2.56379e-05
2.61168e-05
2.65916e-05
2.70317e-05
2.74744e-05
2.78451e-05
2.82365e-05
2.85558e-05
2.88755e-05
2.92016e-05
2.94841e-05
2.98616e-05
3.01576e-05
3.06889e-05
3.09371e-05
3.11908e-05
3.16824e-05
3.16823e-05
2.6378e-05
2.15223e-05
1.65865e-05
1.32862e-05
1.02052e-05
8.77504e-06
6.98303e-06
1.56047e-05
1.57942e-05
1.58672e-05
1.59062e-05
1.59566e-05
1.60175e-05
1.60807e-05
1.61459e-05
1.62136e-05
1.62855e-05
1.63616e-05
1.64425e-05
1.65283e-05
1.6619e-05
1.67149e-05
1.68164e-05
1.69241e-05
1.70383e-05
1.71598e-05
1.72888e-05
1.74264e-05
1.75727e-05
1.77292e-05
1.78954e-05
1.80738e-05
1.82629e-05
1.84666e-05
1.86823e-05
1.89155e-05
1.91625e-05
1.94304e-05
1.97145e-05
2.00231e-05
2.0351e-05
2.07067e-05
2.10859e-05
2.14975e-05
2.19372e-05
2.24099e-05
2.29065e-05
2.34313e-05
2.39704e-05
2.45373e-05
2.51e-05
2.5688e-05
2.6248e-05
2.68264e-05
2.73403e-05
2.7892e-05
2.83185e-05
2.88271e-05
2.91966e-05
2.96427e-05
2.99634e-05
3.03783e-05
3.06724e-05
3.05485e-05
3.02452e-05
2.99062e-05
2.98321e-05
2.48003e-05
2.03905e-05
1.61543e-05
1.26542e-05
9.96195e-06
8.00423e-06
6.62322e-06
5.74288e-06
4.86599e-06
1.50427e-05
1.52253e-05
1.52983e-05
1.53381e-05
1.53875e-05
1.54466e-05
1.55078e-05
1.55713e-05
1.56365e-05
1.57062e-05
1.57798e-05
1.58589e-05
1.59425e-05
1.6032e-05
1.61267e-05
1.62277e-05
1.63348e-05
1.64481e-05
1.65692e-05
1.66966e-05
1.68333e-05
1.69772e-05
1.71326e-05
1.72965e-05
1.74744e-05
1.76625e-05
1.78673e-05
1.80845e-05
1.8321e-05
1.85732e-05
1.88471e-05
1.91413e-05
1.94599e-05
1.98036e-05
2.01754e-05
2.05756e-05
2.10024e-05
2.14526e-05
2.19421e-05
2.24599e-05
2.30315e-05
2.36221e-05
2.42822e-05
2.49328e-05
2.56681e-05
2.63538e-05
2.71129e-05
2.77687e-05
2.85039e-05
2.90259e-05
2.96196e-05
3.0002e-05
3.03341e-05
3.01087e-05
2.96375e-05
2.86178e-05
2.76742e-05
2.65916e-05
2.20555e-05
1.79751e-05
1.45043e-05
1.14832e-05
9.08014e-06
7.13396e-06
5.91864e-06
4.89265e-06
4.21266e-06
3.81108e-06
3.41021e-06
1.43053e-05
1.44866e-05
1.4559e-05
1.46001e-05
1.46523e-05
1.47133e-05
1.47781e-05
1.48445e-05
1.4914e-05
1.49871e-05
1.50647e-05
1.51464e-05
1.52334e-05
1.53249e-05
1.54229e-05
1.55259e-05
1.56368e-05
1.57532e-05
1.58794e-05
1.60116e-05
1.61553e-05
1.63059e-05
1.64695e-05
1.66414e-05
1.68284e-05
1.70261e-05
1.72416e-05
1.74716e-05
1.77224e-05
1.7993e-05
1.82878e-05
1.86089e-05
1.89589e-05
1.93434e-05
1.97655e-05
2.02349e-05
2.07606e-05
2.13321e-05
2.19604e-05
2.26203e-05
2.33537e-05
2.40979e-05
2.49402e-05
2.5733e-05
2.66603e-05
2.74263e-05
2.82763e-05
2.88384e-05
2.94375e-05
2.95805e-05
2.96154e-05
2.89053e-05
2.76642e-05
2.61687e-05
2.50118e-05
2.18679e-05
1.81155e-05
1.47182e-05
1.18506e-05
9.49283e-06
7.64038e-06
6.12574e-06
4.98871e-06
4.18365e-06
3.64708e-06
3.28666e-06
3.03872e-06
2.86964e-06
2.69351e-06
1.44261e-05
1.45815e-05
1.46455e-05
1.46785e-05
1.47194e-05
1.47694e-05
1.48229e-05
1.48792e-05
1.49385e-05
1.50019e-05
1.50698e-05
1.51428e-05
1.52211e-05
1.53045e-05
1.53935e-05
1.54876e-05
1.55889e-05
1.56956e-05
1.58108e-05
1.59319e-05
1.60635e-05
1.62023e-05
1.63529e-05
1.65126e-05
1.66856e-05
1.68698e-05
1.70698e-05
1.72839e-05
1.75179e-05
1.77699e-05
1.80455e-05
1.83442e-05
1.86711e-05
1.90317e-05
1.94234e-05
1.98437e-05
2.031e-05
2.08265e-05
2.14173e-05
2.20561e-05
2.27849e-05
2.35397e-05
2.43713e-05
2.51544e-05
2.59693e-05
2.6566e-05
2.70466e-05
2.70918e-05
2.68835e-05
2.60612e-05
2.50169e-05
2.32233e-05
1.96025e-05
1.63851e-05
1.34684e-05
1.11347e-05
9.07481e-06
7.55213e-06
6.2547e-06
5.27006e-06
4.42745e-06
3.77462e-06
3.2577e-06
2.90795e-06
2.63676e-06
2.41478e-06
2.4609e-06
2.44345e-06
2.28019e-06
1.36164e-05
1.38289e-05
1.39168e-05
1.39721e-05
1.40353e-05
1.41077e-05
1.41838e-05
1.42622e-05
1.43441e-05
1.44309e-05
1.45239e-05
1.46219e-05
1.47264e-05
1.48368e-05
1.49545e-05
1.50782e-05
1.52105e-05
1.53503e-05
1.55e-05
1.56587e-05
1.58287e-05
1.60102e-05
1.62052e-05
1.64152e-05
1.66416e-05
1.68863e-05
1.71508e-05
1.744e-05
1.77588e-05
1.81171e-05
1.85126e-05
1.89529e-05
1.9426e-05
1.99426e-05
2.05131e-05
2.11185e-05
2.17466e-05
2.23695e-05
2.29878e-05
2.35724e-05
2.41187e-05
2.45973e-05
2.50407e-05
2.54012e-05
2.5751e-05
2.60577e-05
2.33915e-05
2.05382e-05
1.78689e-05
1.5331e-05
1.31005e-05
1.11614e-05
9.5118e-06
8.13201e-06
6.92379e-06
6.01007e-06
5.14151e-06
4.55027e-06
4.00362e-06
3.56871e-06
3.1206e-06
2.63418e-06
2.30034e-06
2.02451e-06
2.02269e-06
2.00307e-06
2.16087e-06
2.46142e-06
2.70949e-06
1.63986e-05
1.65678e-05
1.66428e-05
1.66573e-05
1.67384e-05
1.68005e-05
1.68344e-05
1.69335e-05
1.69578e-05
1.7006e-05
1.70926e-05
1.7178e-05
1.72063e-05
1.7238e-05
1.72985e-05
1.73768e-05
1.74712e-05
1.75746e-05
1.76916e-05
1.78155e-05
1.79562e-05
1.81034e-05
1.82655e-05
1.84483e-05
1.86442e-05
1.8872e-05
1.91018e-05
1.93579e-05
1.96153e-05
1.985e-05
2.00541e-05
2.02805e-05
2.04672e-05
2.06195e-05
2.08814e-05
2.11345e-05
2.14898e-05
2.1381e-05
2.01598e-05
1.88413e-05
1.74559e-05
1.60033e-05
1.45768e-05
1.34341e-05
1.22382e-05
1.10048e-05
1.01578e-05
9.12896e-06
8.44531e-06
7.77359e-06
7.19196e-06
6.76499e-06
6.38158e-06
5.61948e-06
4.94761e-06
4.40208e-06
3.90527e-06
3.44631e-06
3.02268e-06
2.70475e-06
2.2691e-06
1.99287e-06
1.70892e-06
1.48339e-06
1.26015e-06
9.03983e-07
2.18666e-06
3.74745e-06
5.61544e-06
9.79003e-06
9.71222e-06
9.57328e-06
9.51722e-06
9.38722e-06
9.33442e-06
9.21589e-06
9.16003e-06
9.03623e-06
8.95638e-06
8.85451e-06
8.80177e-06
8.71041e-06
8.53317e-06
8.47586e-06
8.32454e-06
8.27353e-06
8.14055e-06
8.03819e-06
7.99673e-06
7.91279e-06
7.77408e-06
7.6695e-06
7.62543e-06
7.47279e-06
7.42503e-06
7.27057e-06
7.22392e-06
7.10002e-06
6.97828e-06
6.86805e-06
6.77469e-06
6.69906e-06
6.65346e-06
6.62157e-06
6.6239e-06
6.63886e-06
6.70584e-06
6.75443e-06
6.82862e-06
6.85159e-06
6.89512e-06
6.88071e-06
6.87736e-06
6.82777e-06
6.72753e-06
6.59599e-06
6.33427e-06
6.51738e-06
6.36911e-06
5.98192e-06
5.45449e-06
4.87224e-06
4.27277e-06
3.71221e-06
3.18177e-06
2.72535e-06
2.3291e-06
1.87613e-06
1.45984e-06
1.03555e-06
7.69236e-07
5.05218e-07
5.25963e-07
7.05796e-07
8.58786e-07
1.39399e-06
2.27102e-06
2.76508e-06
4.17498e-06
4.28183e-06
4.39206e-06
4.50634e-06
4.57286e-06
4.6408e-06
4.71104e-06
4.78383e-06
4.85861e-06
4.93545e-06
5.01429e-06
5.09454e-06
5.1772e-06
5.25999e-06
5.34621e-06
5.43138e-06
5.5211e-06
5.60818e-06
5.7012e-06
5.7902e-06
5.88639e-06
5.97754e-06
6.076e-06
6.17006e-06
6.27109e-06
6.3677e-06
6.47069e-06
6.57312e-06
6.6744e-06
6.77888e-06
6.87625e-06
6.96913e-06
7.06101e-06
7.1467e-06
7.23643e-06
7.29998e-06
7.43577e-06
7.58883e-06
7.68255e-06
7.69795e-06
7.65071e-06
7.58988e-06
7.5121e-06
7.41427e-06
7.2913e-06
7.13744e-06
6.92479e-06
6.41279e-06
5.82074e-06
5.136e-06
4.34492e-06
3.43822e-06
2.41338e-06
1.37648e-06
5.4368e-07
1.85561e-07
1.6721e-07
2.19172e-07
2.50689e-07
2.52067e-07
2.31767e-07
1.93141e-07
1.48282e-07
1.12059e-07
9.92383e-08
9.40599e-08
8.94263e-08
7.85853e-08
5.70186e-08
7.68627e-05
7.59393e-05
7.40154e-05
7.42502e-05
7.44251e-05
7.51248e-05
7.58681e-05
7.70492e-05
7.62487e-05
7.3955e-05
7.36183e-05
7.3157e-05
7.17063e-05
7.18692e-05
7.29595e-05
7.50358e-05
7.26082e-05
7.14486e-05
7.22247e-05
7.25944e-05
6.94943e-05
6.9259e-05
7.0412e-05
6.91484e-05
6.99519e-05
6.98721e-05
6.85915e-05
6.81192e-05
6.82117e-05
6.89998e-05
6.74652e-05
6.7154e-05
6.69851e-05
6.73375e-05
6.64076e-05
6.66207e-05
6.63481e-05
6.63911e-05
6.66461e-05
6.76942e-05
6.76071e-05
6.663e-05
6.65476e-05
6.59062e-05
6.53925e-05
6.53389e-05
6.64008e-05
6.51088e-05
6.54074e-05
6.75834e-05
6.85928e-05
6.90224e-05
6.86e-05
6.6893e-05
6.39906e-05
6.39859e-05
6.37503e-05
6.42148e-05
6.3685e-05
7.15221e-05
7.07737e-05
7.11315e-05
7.13456e-05
7.17987e-05
7.21114e-05
7.18737e-05
7.10823e-05
6.98571e-05
6.91352e-05
6.89313e-05
6.85415e-05
6.84496e-05
6.902e-05
6.96951e-05
6.90742e-05
6.69198e-05
6.69449e-05
6.77074e-05
6.65975e-05
6.50616e-05
6.47257e-05
6.53382e-05
6.45204e-05
6.51774e-05
6.46883e-05
6.41632e-05
6.32895e-05
6.38319e-05
6.37952e-05
6.2747e-05
6.25661e-05
6.25928e-05
6.24542e-05
6.2118e-05
6.20313e-05
6.19861e-05
6.16576e-05
6.16577e-05
6.21347e-05
6.23365e-05
6.22589e-05
6.19797e-05
6.14545e-05
6.14594e-05
6.08071e-05
6.12568e-05
6.07686e-05
6.04298e-05
6.10275e-05
6.18579e-05
6.27871e-05
6.32524e-05
6.32135e-05
6.18155e-05
6.09967e-05
5.99376e-05
5.95441e-05
5.90593e-05
6.80074e-05
6.76741e-05
6.81029e-05
6.7994e-05
6.78027e-05
6.72672e-05
6.6419e-05
6.55297e-05
6.49261e-05
6.47197e-05
6.45417e-05
6.44528e-05
6.46374e-05
6.46974e-05
6.44461e-05
6.31327e-05
6.24733e-05
6.27293e-05
6.27479e-05
6.12999e-05
6.0268e-05
6.04445e-05
6.04871e-05
6.01219e-05
6.04634e-05
5.98344e-05
5.9568e-05
5.88744e-05
5.92196e-05
5.90283e-05
5.82998e-05
5.8253e-05
5.82e-05
5.78987e-05
5.77706e-05
5.77015e-05
5.76326e-05
5.74149e-05
5.73473e-05
5.74912e-05
5.77824e-05
5.79605e-05
5.77477e-05
5.73846e-05
5.73561e-05
5.69666e-05
5.69378e-05
5.67545e-05
5.64278e-05
5.6326e-05
5.64981e-05
5.69403e-05
5.74646e-05
5.7907e-05
5.79325e-05
5.76076e-05
5.69531e-05
5.64296e-05
5.54432e-05
6.49438e-05
6.43214e-05
6.42744e-05
6.3757e-05
6.31528e-05
6.24616e-05
6.18246e-05
6.1379e-05
6.1151e-05
6.10242e-05
6.08966e-05
6.08361e-05
6.07278e-05
6.0294e-05
5.95534e-05
5.87555e-05
5.86723e-05
5.86781e-05
5.80337e-05
5.68014e-05
5.62584e-05
5.6457e-05
5.62814e-05
5.6142e-05
5.62414e-05
5.56197e-05
5.53734e-05
5.48685e-05
5.50258e-05
5.48142e-05
5.4297e-05
5.42748e-05
5.41358e-05
5.38432e-05
5.37222e-05
5.36843e-05
5.35999e-05
5.34307e-05
5.33364e-05
5.33464e-05
5.35412e-05
5.38023e-05
5.37604e-05
5.3536e-05
5.33954e-05
5.31627e-05
5.29824e-05
5.28683e-05
5.26911e-05
5.2492e-05
5.23459e-05
5.23501e-05
5.2524e-05
5.28097e-05
5.30654e-05
5.3215e-05
5.31445e-05
5.30962e-05
5.23167e-05
6.10455e-05
6.0191e-05
5.99579e-05
5.94004e-05
5.88935e-05
5.84577e-05
5.81387e-05
5.79323e-05
5.77807e-05
5.76235e-05
5.74406e-05
5.71908e-05
5.67612e-05
5.61306e-05
5.54948e-05
5.512e-05
5.50001e-05
5.46034e-05
5.37426e-05
5.29115e-05
5.27207e-05
5.27466e-05
5.25085e-05
5.24421e-05
5.23641e-05
5.1802e-05
5.15527e-05
5.11497e-05
5.12018e-05
5.09722e-05
5.05759e-05
5.05307e-05
5.03753e-05
5.01152e-05
4.99771e-05
4.99309e-05
4.98504e-05
4.97e-05
4.95779e-05
4.95131e-05
4.95864e-05
4.98011e-05
4.9919e-05
4.98112e-05
4.96668e-05
4.95087e-05
4.93218e-05
4.91679e-05
4.90687e-05
4.89284e-05
4.87688e-05
4.86325e-05
4.8568e-05
4.85957e-05
4.86953e-05
4.88247e-05
4.89178e-05
4.91634e-05
4.87405e-05
5.69542e-05
5.61546e-05
5.60033e-05
5.56082e-05
5.5299e-05
5.5047e-05
5.48394e-05
5.46448e-05
5.44274e-05
5.41643e-05
5.38311e-05
5.33934e-05
5.28531e-05
5.2308e-05
5.18964e-05
5.16262e-05
5.12821e-05
5.06435e-05
4.98752e-05
4.94108e-05
4.93244e-05
4.92135e-05
4.8981e-05
4.89096e-05
4.87082e-05
4.82135e-05
4.79679e-05
4.76264e-05
4.76136e-05
4.73791e-05
4.70506e-05
4.69825e-05
4.68404e-05
4.6613e-05
4.64656e-05
4.64022e-05
4.63287e-05
4.62079e-05
4.60836e-05
4.59846e-05
4.59701e-05
4.60847e-05
4.62457e-05
4.62777e-05
4.61869e-05
4.60546e-05
4.59333e-05
4.58004e-05
4.5695e-05
4.56082e-05
4.55015e-05
4.53678e-05
4.52347e-05
4.51265e-05
4.50853e-05
4.50903e-05
4.51049e-05
4.53325e-05
4.50245e-05
5.33582e-05
5.26934e-05
5.26407e-05
5.23538e-05
5.21181e-05
5.18851e-05
5.16379e-05
5.13588e-05
5.10335e-05
5.06533e-05
5.02134e-05
4.97298e-05
4.92534e-05
4.88469e-05
4.85167e-05
4.81579e-05
4.76388e-05
4.69894e-05
4.64406e-05
4.61734e-05
4.6067e-05
4.588e-05
4.56723e-05
4.55611e-05
4.52878e-05
4.48554e-05
4.46127e-05
4.43186e-05
4.42628e-05
4.40346e-05
4.37496e-05
4.3664e-05
4.35376e-05
4.33393e-05
4.31891e-05
4.31105e-05
4.30389e-05
4.29475e-05
4.28466e-05
4.27454e-05
4.26845e-05
4.27175e-05
4.28138e-05
4.2915e-05
4.29121e-05
4.2827e-05
4.27281e-05
4.26195e-05
4.25235e-05
4.24515e-05
4.23925e-05
4.2316e-05
4.22145e-05
4.21298e-05
4.20062e-05
4.19433e-05
4.18806e-05
4.20066e-05
4.16685e-05
5.02234e-05
4.96264e-05
4.95866e-05
4.93028e-05
4.90369e-05
4.87448e-05
4.84205e-05
4.80603e-05
4.76633e-05
4.72361e-05
4.6794e-05
4.63652e-05
4.59745e-05
4.56174e-05
4.52428e-05
4.47778e-05
4.42217e-05
4.36891e-05
4.33214e-05
4.31272e-05
4.29676e-05
4.275e-05
4.25586e-05
4.23988e-05
4.20924e-05
4.17129e-05
4.14743e-05
4.12171e-05
4.11341e-05
4.09169e-05
4.06648e-05
4.0568e-05
4.04564e-05
4.02868e-05
4.01397e-05