/*--------------------------------*- C++ -*----------------------------------*\
| =========                 |                                                 |
| \\      /  F ield         | OpenFOAM: The Open Source CFD Toolbox           |
|  \\    /   O peration     | Version:  2312                                  |
|   \\  /    A nd           | Website:  www.openfoam.com                      |
|    \\/     M anipulation  |                                                 |
\*---------------------------------------------------------------------------*/
FoamFile
{
    version     2.0;
    format      ascii;
    arch        "LSB;label=32;scalar=64";
    class       volScalarField;
    location    "700";
    object      omega;
}
// * * * * * * * * * * * * * * * * * * * * * * * * * * * * * * * * * * * * * //

dimensions      [0 0 -1 0 0 0 0];

internalField   nonuniform List<scalar> 
76025
(
0.0280573
0.0280097
0.0279695
0.0279403
0.0279634
0.0279725
0.0279701
0.0279796
0.0279728
0.0279465
0.0279238
0.0279062
0.0278881
0.0278514
0.027834
0.027792
0.0277909
0.0277776
0.0277723
0.0277719
0.0277929
0.027814
0.0278508
0.0278821
0.0279507
0.027987
0.0280955
0.0281484
0.0282702
0.0283579
0.0285178
0.0286059
0.0288164
0.0289736
0.0291673
0.029374
0.0295683
0.0298707
0.0301688
0.0304512
0.0308052
0.0311137
0.0315907
0.0319608
0.0323889
0.0327346
0.0331888
0.0335486
0.0339086
0.0342129
0.0345033
0.0346379
0.0348884
0.0349837
0.0353335
0.0356291
0.0359657
0.0362955
0.0368034
0.0372208
0.038057
0.0387192
0.0402111
0.0410915
0.0431896
0.044396
0.0471014
0.0493599
0.052022
0.0284065
0.0284127
0.0283898
0.0283282
0.0282742
0.0282746
0.0282607
0.0282859
0.0282759
0.0282727
0.0282735
0.0282777
0.0282946
0.0283077
0.0283141
0.0283246
0.0283364
0.028344
0.028382
0.0283776
0.0283835
0.0283963
0.0284433
0.0284838
0.0285656
0.0286306
0.0287377
0.0288315
0.0289609
0.0290847
0.0292413
0.0293922
0.0295669
0.0297516
0.0299468
0.0301605
0.0303836
0.0306195
0.0308653
0.0311177
0.0313813
0.0316532
0.0319222
0.032187
0.0324492
0.0327002
0.0329636
0.0331898
0.0334584
0.0336709
0.0339607
0.0341502
0.0344793
0.0346688
0.0350585
0.0353223
0.0358794
0.036223
0.0370919
0.0376726
0.0390099
0.0398376
0.0416724
0.0427944
0.0452846
0.0468328
0.0503458
0.0522857
0.0577103
0.0286669
0.0287007
0.0287303
0.0287871
0.028795
0.0287981
0.0287906
0.0287938
0.0287922
0.0287703
0.0287984
0.0287987
0.0287709
0.0287679
0.0287794
0.028802
0.0288237
0.0288417
0.0288651
0.028881
0.0289065
0.0289316
0.0289773
0.0290264
0.0290985
0.0291749
0.0292703
0.0293719
0.0294919
0.029621
0.0297652
0.0299195
0.0300836
0.0302595
0.0304453
0.0306423
0.03085
0.0310654
0.0312875
0.0315144
0.0317465
0.0319822
0.0322201
0.0324576
0.0327003
0.0329364
0.0331862
0.033414
0.0336882
0.0339128
0.034245
0.0344707
0.03491
0.0351784
0.0357721
0.0361431
0.0369677
0.037477
0.0386019
0.0392831
0.0407636
0.0416585
0.0436318
0.0448269
0.0474698
0.0490717
0.052609
0.0546796
0.0602697
0.0290211
0.0290109
0.0290281
0.029077
0.0291226
0.0291517
0.029171
0.0291872
0.0292103
0.0292321
0.0292679
0.0293275
0.0294105
0.0293863
0.0294393
0.0294077
0.0294065
0.0294237
0.0294512
0.0294791
0.029513
0.0295487
0.0295945
0.0296466
0.0297114
0.0297852
0.0298719
0.0299688
0.0300786
0.0302
0.0303332
0.0304772
0.0306318
0.030797
0.0309721
0.0311571
0.0313515
0.0315546
0.0317653
0.0319814
0.0322049
0.0324317
0.0326689
0.0329047
0.0331589
0.0334002
0.0336816
0.0339271
0.0342592
0.0345124
0.0349343
0.0352039
0.0357601
0.0360829
0.0368043
0.0372281
0.0381792
0.0387357
0.0399895
0.0407343
0.0423839
0.0433748
0.0455652
0.0468846
0.0497984
0.0515556
0.0554749
0.0577363
0.0639446
0.0295119
0.0294991
0.0295573
0.029584
0.0295706
0.0295943
0.0296325
0.0296667
0.0296939
0.0297149
0.0297387
0.0297699
0.0298069
0.0298331
0.0298685
0.0299039
0.0299467
0.0299949
0.0300479
0.0301019
0.0301581
0.0302154
0.0302767
0.030342
0.0304141
0.030493
0.0305808
0.0306773
0.030784
0.0309005
0.0310276
0.0311647
0.0313122
0.0314697
0.0316371
0.0318144
0.0320016
0.0321977
0.0324036
0.0326159
0.0328395
0.0330672
0.0333118
0.0335556
0.0338287
0.0340869
0.0344028
0.0346755
0.0350623
0.035352
0.0358522
0.0361667
0.0368239
0.0372041
0.0380433
0.0385362
0.0396245
0.0402641
0.0416848
0.0425206
0.0443763
0.0454728
0.0479004
0.0493455
0.0525325
0.0544319
0.0586602
0.0610616
0.0675937
0.0301358
0.0301344
0.0301223
0.0301067
0.0301723
0.0301908
0.0301551
0.0301681
0.0302133
0.030261
0.030303
0.0303406
0.0303772
0.0304139
0.0304559
0.030504
0.0305599
0.0306224
0.0306912
0.030764
0.0308406
0.0309197
0.0310019
0.031087
0.0311764
0.0312701
0.0313699
0.0314756
0.0315889
0.0317097
0.0318392
0.0319771
0.0321243
0.0322805
0.0324466
0.0326221
0.0328084
0.0330042
0.0332119
0.0334273
0.0336577
0.0338938
0.0341532
0.0344126
0.0347125
0.0349938
0.0353535
0.0356559
0.036109
0.0364328
0.037024
0.0373786
0.0381455
0.038588
0.0395422
0.0401074
0.0413385
0.0420647
0.0436473
0.0445845
0.0466407
0.0478537
0.050526
0.0521063
0.0555922
0.0576477
0.0622517
0.0647968
0.0716077
0.0308521
0.0308514
0.0308287
0.0309066
0.0309327
0.030931
0.0310303
0.0310566
0.0310135
0.0310115
0.0310441
0.0310894
0.0311387
0.0311895
0.0312426
0.0312992
0.0313611
0.0314286
0.0315026
0.0315823
0.0316677
0.0317579
0.031853
0.031952
0.0320558
0.0321635
0.0322765
0.0323942
0.0325183
0.0326481
0.0327855
0.0329298
0.0330827
0.0332437
0.0334147
0.0335949
0.0337871
0.0339893
0.0342061
0.0344319
0.0346764
0.0349291
0.0352104
0.0354948
0.035827
0.036142
0.036548
0.0368917
0.0374097
0.0377789
0.0384576
0.0388599
0.0397372
0.0402334
0.0413207
0.0419504
0.0433404
0.0441444
0.0459187
0.0469527
0.0492371
0.0505712
0.053516
0.0552461
0.0590609
0.0613055
0.0663348
0.0691326
0.0771931
0.0318687
0.0318113
0.0317467
0.0316757
0.0317647
0.0317142
0.0317051
0.0317189
0.0317438
0.0317858
0.0318438
0.0319118
0.0319855
0.0320615
0.0321389
0.0322171
0.0322972
0.0323798
0.0324662
0.0325565
0.0326518
0.0327516
0.0328566
0.032966
0.0330806
0.0331995
0.0333238
0.0334526
0.0335874
0.0337277
0.0338752
0.0340293
0.0341922
0.0343631
0.0345452
0.0347365
0.0349425
0.0351587
0.0353935
0.0356377
0.0359061
0.0361835
0.0364958
0.0368134
0.0371846
0.0375418
0.0379967
0.0383906
0.0389715
0.0393951
0.0401575
0.0406147
0.0416033
0.0421602
0.0433816
0.044087
0.0456424
0.0465364
0.0485124
0.0496566
0.0521893
0.0536568
0.0569072
0.0588026
0.0629919
0.0654423
0.0709361
0.0739729
0.0826957
0.0326072
0.0326325
0.0326393
0.0326328
0.0326427
0.0326476
0.0326592
0.0326811
0.0327155
0.0327638
0.0328264
0.032901
0.0329856
0.0330771
0.0331739
0.0332738
0.0333765
0.033481
0.0335881
0.0336974
0.03381
0.0339256
0.0340451
0.0341682
0.0342958
0.0344275
0.0345641
0.0347053
0.0348523
0.035005
0.0351649
0.0353318
0.035508
0.0356928
0.0358901
0.0360972
0.0363218
0.0365567
0.0368151
0.0370815
0.0373795
0.0376849
0.0380331
0.0383869
0.0387995
0.0392043
0.0397053
0.0401604
0.0407949
0.0412919
0.042125
0.0426586
0.043758
0.0443684
0.0457591
0.0465408
0.0482764
0.0492674
0.0514715
0.0527404
0.0555482
0.0571689
0.0607664
0.0628494
0.0674782
0.070174
0.0762053
0.0795437
0.0888346
0.03359
0.03361
0.033638
0.033669
0.0337028
0.0337369
0.0337725
0.0338114
0.0338559
0.033908
0.0339696
0.0340414
0.0341239
0.0342159
0.034317
0.0344254
0.0345404
0.0346603
0.034785
0.0349133
0.0350456
0.0351811
0.0353204
0.0354631
0.0356098
0.0357606
0.0359158
0.036076
0.0362417
0.0364138
0.036593
0.0367804
0.0369772
0.0371845
0.0374047
0.0376369
0.0378879
0.0381506
0.0384407
0.0387379
0.0390742
0.0394144
0.0398081
0.0402033
0.0406669
0.0411245
0.0416796
0.0422045
0.0428961
0.0434825
0.0443826
0.0450192
0.0462181
0.0469141
0.0484775
0.0493396
0.0512832
0.0523784
0.0548572
0.0562564
0.059392
0.0611866
0.0651851
0.0674792
0.07266
0.0756153
0.0822618
0.0859777
0.0962475
0.0347891
0.0348261
0.0348876
0.0349548
0.0350206
0.0350835
0.035145
0.0352061
0.0352684
0.035333
0.0354019
0.0354763
0.035558
0.0356475
0.0357458
0.0358523
0.0359674
0.03609
0.0362198
0.0363559
0.036498
0.0366456
0.0367984
0.0369564
0.0371193
0.0372877
0.0374613
0.0376413
0.0378274
0.0380218
0.0382233
0.0384361
0.038657
0.0388934
0.0391397
0.0394052
0.0396852
0.0399851
0.0403084
0.0406463
0.0410221
0.0414064
0.0418475
0.0422924
0.0428103
0.0433289
0.0439424
0.0445476
0.0453004
0.0459911
0.0469609
0.0477236
0.0490179
0.0498457
0.0515734
0.0525409
0.0547281
0.0559744
0.0587313
0.0603051
0.0638206
0.0658405
0.0702968
0.0728738
0.0785763
0.0819028
0.0892524
0.0935178
0.105233
0.0365202
0.0366405
0.0365596
0.0365506
0.0365926
0.036655
0.0367263
0.0368017
0.0368797
0.0369597
0.0370421
0.0371274
0.0372171
0.037312
0.0374134
0.0375219
0.0376384
0.037763
0.037896
0.038037
0.038186
0.0383427
0.0385067
0.0386781
0.0388566
0.0390425
0.0392356
0.0394371
0.0396459
0.0398657
0.0400923
0.0403352
0.0405827
0.0408549
0.0411283
0.0414366
0.0417442
0.0420944
0.0424473
0.0428423
0.0432534
0.0437007
0.0441869
0.0447005
0.0452742
0.0458723
0.0465497
0.0472537
0.0480752
0.0488911
0.0499397
0.0508529
0.0522549
0.0532485
0.0551517
0.0562453
0.058752
0.0601336
0.0632429
0.0650033
0.0689845
0.071225
0.0762372
0.0791291
0.0855234
0.0893338
0.0974058
0.103197
0.114118
0.0383585
0.0383785
0.0384163
0.038474
0.038546
0.0386262
0.0387114
0.0388001
0.0388915
0.0389851
0.0390809
0.0391788
0.0392796
0.0393837
0.0394922
0.0396059
0.0397258
0.0398527
0.0399874
0.0401301
0.0402818
0.040442
0.0406117
0.04079
0.0409784
0.0411756
0.0413833
0.0416011
0.0418291
0.0420711
0.0423207
0.042593
0.0428659
0.0431773
0.0434765
0.0438364
0.0441688
0.0445847
0.0449609
0.0454357
0.0458719
0.0464094
0.0469285
0.0475385
0.0481571
0.0488594
0.0495929
0.0504211
0.0513026
0.0522813
0.0533928
0.0545159
0.0560019
0.0572431
0.0592845
0.060635
0.0634062
0.0649748
0.0685157
0.0705339
0.074988
0.0775399
0.0832384
0.0865203
0.0937707
0.0981638
0.107363
0.115002
0.124648
0.0404818
0.040543
0.0406175
0.0407048
0.0408
0.0408995
0.0410021
0.0411075
0.0412157
0.0413263
0.0414396
0.0415554
0.041674
0.0417956
0.0419209
0.0420502
0.0421847
0.0423245
0.0424715
0.0426251
0.0427879
0.0429583
0.0431399
0.0433296
0.0435325
0.043744
0.0439705
0.0442067
0.0444588
0.0447246
0.0450036
0.0453066
0.0456126
0.0459641
0.0462966
0.0467099
0.0470715
0.0475577
0.0479556
0.0485192
0.0489723
0.0496149
0.0501554
0.0508797
0.051537
0.052361
0.0531585
0.0541293
0.0550889
0.0562662
0.0574419
0.0588586
0.060376
0.0620205
0.0640752
0.0659189
0.068774
0.0707678
0.0747472
0.0770191
0.0821434
0.0850917
0.0915877
0.0953587
0.103817
0.10893
0.120702
0.128611
0.146328
0.0431951
0.0432928
0.0433904
0.0434969
0.0436098
0.0437263
0.0438454
0.043967
0.0440911
0.0442177
0.044347
0.0444791
0.0446143
0.0447529
0.0448955
0.045042
0.0451939
0.0453505
0.0455142
0.0456837
0.0458627
0.0460481
0.0462462
0.0464506
0.0466719
0.0468981
0.047147
0.047398
0.0476789
0.0479593
0.048275
0.048593
0.0489443
0.0493135
0.0496983
0.0501369
0.0505541
0.0510806
0.0515326
0.0521596
0.0526645
0.0533986
0.0539948
0.0548343
0.0555677
0.0565183
0.0574337
0.0585335
0.0596554
0.0609843
0.062333
0.0639821
0.0656302
0.0676601
0.0697692
0.0722223
0.0750391
0.0779064
0.0818975
0.0849282
0.0907764
0.0941001
0.101674
0.106228
0.116316
0.122852
0.138136
0.149018
0.181324
0.0463951
0.0465122
0.0466322
0.0467559
0.0468831
0.0470137
0.0471485
0.0472874
0.0474307
0.0475777
0.0477287
0.0478832
0.0480419
0.0482044
0.0483717
0.0485433
0.0487208
0.0489031
0.049093
0.0492881
0.0494937
0.049704
0.04993
0.0501577
0.0504103
0.0506573
0.0509445
0.0512122
0.0515428
0.0518336
0.0522159
0.052536
0.0529752
0.0533372
0.0538338
0.0542584
0.0548097
0.0553216
0.0559238
0.0565485
0.0572083
0.0579701
0.0587124
0.0596227
0.0604916
0.0615525
0.0626136
0.0638388
0.0651555
0.0666054
0.0682224
0.0700142
0.0719964
0.0742515
0.0767605
0.0795619
0.0828468
0.0862911
0.090657
0.0947286
0.100936
0.105169
0.114443
0.119984
0.132655
0.14215
0.161987
0.183251
0.209526
0.0509729
0.0508127
0.0507815
0.0508745
0.0510079
0.0511509
0.0512969
0.0514456
0.0515991
0.0517588
0.051925
0.0520972
0.0522755
0.0524595
0.0526498
0.0528462
0.05305
0.0532599
0.0534793
0.0537042
0.0539427
0.0541833
0.0544464
0.0547031
0.0549991
0.0552708
0.0556112
0.0558962
0.0562948
0.0565922
0.0570625
0.0573753
0.0579284
0.0582667
0.0589084
0.0592911
0.0600226
0.0604748
0.061292
0.0618492
0.0627471
0.0634585
0.0644353
0.0653501
0.0664181
0.0675786
0.0687876
0.0702252
0.0716615
0.0734283
0.0751822
0.0774025
0.079552
0.0823968
0.0851144
0.0886213
0.0923878
0.0963138
0.101881
0.106098
0.114061
0.119226
0.130693
0.138397
0.156954
0.169821
0.202569
0.221718
0.295425
0.0564308
0.0564874
0.0565159
0.056143
0.055998
0.0560425
0.0561767
0.0563679
0.0565726
0.0567694
0.0569644
0.0571618
0.0573655
0.0575775
0.0577987
0.0580288
0.0582688
0.0585167
0.0587772
0.0590428
0.0593274
0.0596099
0.0599251
0.0602225
0.0605777
0.0608869
0.0612945
0.0616129
0.0620864
0.062415
0.0629659
0.0633131
0.0639491
0.0643306
0.0650574
0.065494
0.0663189
0.0668293
0.0677631
0.0683731
0.0694296
0.0701816
0.0713682
0.0723214
0.0736444
0.0748755
0.0763633
0.0779506
0.0796773
0.0817061
0.0837779
0.0863961
0.0888884
0.0923746
0.0953103
0.100017
0.103582
0.10961
0.114642
0.121793
0.129927
0.139171
0.152602
0.167298
0.192145
0.214562
0.258688
0.303681
0.382699
0.0633447
0.0632691
0.0630932
0.0635039
0.0635477
0.0636538
0.0636728
0.0631974
0.0629563
0.0630505
0.0632237
0.0634607
0.0637087
0.0639561
0.0642048
0.0644583
0.0647232
0.0649964
0.065288
0.0655835
0.0659078
0.0662243
0.0665889
0.0669242
0.0673386
0.0676916
0.0681646
0.0685395
0.0690751
0.0694867
0.0700801
0.0705559
0.0711963
0.0717707
0.0724518
0.0731523
0.0738857
0.0747199
0.0755441
0.0765061
0.0774848
0.0785703
0.0797719
0.080992
0.0824853
0.083884
0.0857373
0.0874078
0.0896843
0.0917947
0.0945434
0.0973581
0.100617
0.104482
0.108353
0.113617
0.118487
0.125449
0.132434
0.141867
0.153507
0.167503
0.188689
0.211865
0.249258
0.285931
0.359405
0.421701
0.543538
0.0723292
0.0724997
0.0726402
0.0723919
0.072589
0.0722158
0.0727414
0.0727874
0.0728671
0.0719848
0.0723427
0.0718603
0.07176
0.0718996
0.0721876
0.0725209
0.0728695
0.0732149
0.0735801
0.0739371
0.0743342
0.0747084
0.0751496
0.0755428
0.0760363
0.076454
0.0770007
0.0774601
0.0780491
0.0785843
0.0791922
0.0798511
0.0804528
0.0812795
0.0818725
0.0828824
0.0835053
0.0846745
0.0854124
0.0866994
0.0876584
0.0890382
0.0903183
0.0917917
0.0935103
0.0950888
0.0974003
0.099125
0.102193
0.104206
0.108138
0.110764
0.115573
0.119394
0.125057
0.130977
0.137943
0.147195
0.157575
0.172616
0.190075
0.215987
0.246634
0.288397
0.343454
0.412666
0.50931
0.598514
0.708442
0.0821123
0.0822221
0.0827024
0.0829969
0.0831234
0.0839779
0.0842675
0.0842893
0.084131
0.0850138
0.0851579
0.0853584
0.0840633
0.0846809
0.0837797
0.083292
0.0832987
0.0835048
0.0838396
0.084198
0.084638
0.0850485
0.0855576
0.086003
0.086576
0.0870629
0.087693
0.0882448
0.0889148
0.0895706
0.0902578
0.0910602
0.0917558
0.092726
0.0934656
0.0945744
0.0954525
0.0966298
0.0977784
0.0989717
0.100496
0.101728
0.103677
0.105029
0.107474
0.109023
0.1121
0.113963
0.117782
0.120277
0.124879
0.128489
0.134157
0.139372
0.147105
0.155058
0.166789
0.18049
0.199926
0.224086
0.256539
0.298485
0.350919
0.418661
0.507049
0.602077
0.714306
0.790447
0.875718
0.0949252
0.0953716
0.0955957
0.0952257
0.0953706
0.0952855
0.0964408
0.0967439
0.0970647
0.0958517
0.0966906
0.0958503
0.0952988
0.0953766
0.0956185
0.096039
0.0965002
0.0970098
0.0975654
0.0980922
0.0986678
0.0992026
0.0998207
0.100382
0.101057
0.101659
0.102395
0.103057
0.103851
0.104599
0.105449
0.106307
0.107224
0.108206
0.109228
0.110319
0.11152
0.112696
0.114161
0.115445
0.117215
0.118717
0.120809
0.122653
0.125195
0.127416
0.130687
0.13341
0.137549
0.141476
0.14631
0.152796
0.158754
0.169342
0.179357
0.196103
0.215555
0.242791
0.277456
0.321497
0.378812
0.447944
0.53342
0.634256
0.743657
0.84232
0.932569
0.974115
1.02929
0.11243
0.113352
0.113805
0.114251
0.114635
0.114869
0.114746
0.114385
0.115615
0.115898
0.116098
0.115979
0.117317
0.117627
0.117997
0.116196
0.117204
0.115947
0.115277
0.115357
0.115714
0.116286
0.116889
0.117609
0.118315
0.11912
0.11991
0.120789
0.121676
0.122628
0.123632
0.124671
0.125806
0.126967
0.128233
0.12957
0.130982
0.13255
0.134165
0.136012
0.137913
0.140102
0.142416
0.145
0.147999
0.151014
0.155143
0.158937
0.164631
0.170508
0.17838
0.188852
0.20145
0.220153
0.243854
0.27455
0.316526
0.366002
0.430675
0.509126
0.5986
0.705114
0.815024
0.927735
1.02098
1.08747
1.14302
1.15341
1.23074
0.135723
0.136746
0.137228
0.13719
0.136892
0.138362
0.138689
0.139071
0.137605
0.136054
0.135433
0.135336
0.135599
0.136048
0.13651
0.137129
0.137691
0.138489
0.139106
0.140001
0.140708
0.141683
0.142418
0.14346
0.144239
0.145356
0.146199
0.147391
0.148333
0.149581
0.150671
0.151965
0.153236
0.154618
0.156055
0.157636
0.159205
0.161114
0.162855
0.165188
0.167242
0.17014
0.172745
0.176475
0.180153
0.185185
0.191087
0.198468
0.208717
0.220943
0.239026
0.261737
0.293368
0.334004
0.385195
0.448987
0.526597
0.616647
0.722554
0.833488
0.953021
1.06779
1.17027
1.25326
1.31165
1.34923
1.40707
1.44739
1.60635
0.167612
0.16871
0.169008
0.168853
0.170224
0.170807
0.171176
0.171134
0.170993
0.172533
0.173114
0.173586
0.1733
0.17285
0.174629
0.175108
0.175668
0.173189
0.174739
0.173075
0.172145
0.172483
0.173081
0.174146
0.175132
0.176448
0.177579
0.179079
0.180328
0.181989
0.183427
0.185217
0.186947
0.188888
0.190957
0.193202
0.195614
0.198409
0.201251
0.204896
0.208533
0.213623
0.218845
0.226563
0.235038
0.247533
0.262362
0.282997
0.30939
0.343946
0.390304
0.447195
0.520213
0.603326
0.704989
0.813235
0.939709
1.0612
1.19368
1.30795
1.42445
1.51086
1.59901
1.65851
1.72725
1.82065
1.95525
2.05606
2.24949
0.214547
0.213503
0.213826
0.213487
0.215858
0.216851
0.216209
0.214033
0.216527
0.215161
0.214441
0.214338
0.214715
0.215236
0.215958
0.21675
0.217644
0.218659
0.219744
0.221009
0.222375
0.22385
0.225527
0.227188
0.229104
0.230985
0.233081
0.235261
0.237535
0.240073
0.242613
0.245516
0.248501
0.251828
0.255575
0.25975
0.264829
0.2706
0.277952
0.287043
0.298755
0.313639
0.33256
0.35696
0.38743
0.426586
0.474288
0.534765
0.607927
0.696964
0.801777
0.919322
1.05217
1.18916
1.33877
1.47624
1.62463
1.74618
1.87867
1.97223
2.0809
2.20205
2.32552
2.42418
2.49226
2.57962
2.55643
2.50184
2.49459
0.318101
0.319431
0.321142
0.322554
0.324246
0.325844
0.327284
0.328677
0.330284
0.332157
0.334196
0.336589
0.339107
0.341947
0.344954
0.348251
0.351691
0.355341
0.359206
0.363239
0.367493
0.371924
0.376685
0.381632
0.386933
0.392545
0.39852
0.404914
0.411779
0.419231
0.427268
0.436113
0.446474
0.45904
0.474108
0.492615
0.515448
0.54308
0.577578
0.620237
0.671491
0.732324
0.803058
0.885048
0.978445
1.08399
1.20333
1.33819
1.48677
1.64715
1.8151
1.98814
2.16034
2.32458
2.48357
2.62185
2.76203
2.87858
2.99165
3.04448
3.22056
3.10631
3.05198
2.89886
2.73565
2.52762
1.72802
1.19387
1.11365
1.15389
1.16445
1.17547
1.18706
1.19899
1.21155
1.22439
1.23774
1.2515
1.26575
1.28036
1.29527
1.3106
1.32612
1.34228
1.35838
1.37525
1.39192
1.40954
1.42693
1.44523
1.46342
1.48264
1.50195
1.52182
1.54289
1.56382
1.58646
1.61072
1.64106
1.67756
1.72207
1.77506
1.83691
1.90839
1.99052
2.08426
2.18712
2.29691
2.41261
2.53461
2.66309
2.79736
2.93877
3.08543
3.24571
3.41877
3.59981
3.77836
3.95667
4.12213
4.27724
4.4073
4.51849
4.59225
4.63181
4.64889
4.59428
4.47662
4.21821
3.72991
2.87948
2.13271
1.60231
1.36647
1.21606
1.10523
0.979997
0.905253
8.35233
8.34915
8.34545
8.34124
8.33645
8.33111
8.32514
8.31854
8.31127
8.30332
8.29466
8.28524
8.2751
8.26409
8.25246
8.23979
8.2266
8.21216
8.19737
8.18111
8.16466
8.14655
8.12834
8.10848
8.08842
8.06669
8.04489
8.02148
7.99742
7.9725
7.94517
7.91648
7.8864
7.85462
7.8212
7.78669
7.76157
7.72576
7.68076
7.62729
7.57065
7.511
7.44813
7.38183
7.31174
7.23752
7.15865
7.07483
6.98592
6.89128
6.79055
6.68397
6.57091
6.45648
6.35359
6.28081
6.24141
6.2119
6.18405
6.15492
6.12573
6.09617
6.06694
6.03902
6.01351
5.99048
5.96905
5.94875
5.92922
0.0289577
0.0289581
0.0289467
0.028899
0.0288429
0.0287685
0.0287113
0.0286844
0.0286912
0.0287064
0.0286847
0.0286676
0.0286657
0.0286697
0.0286055
0.0285723
0.0285718
0.0285682
0.028569
0.0285055
0.0285548
0.0285858
0.0285649
0.0285342
0.0285047
0.0284441
0.0284638
0.02848
0.0285249
0.0284822
0.028479
0.0284787
0.028511
0.0284639
0.0284448
0.0284291
0.0284415
0.0284178
0.0283722
0.0283738
0.0283418
0.0283499
0.0283327
0.0283134
0.0283177
0.0282821
0.0282278
0.0282002
0.0282031
0.0281758
0.0280964
0.0280749
0.028058
0.0280775
0.0280869
0.0281208
0.0281513
0.0281385
0.0281103
0.0292716
0.0292413
0.0291943
0.0291477
0.0290994
0.0290634
0.0290439
0.0290279
0.0290084
0.0290157
0.028992
0.0289914
0.02896
0.0289061
0.0288451
0.0288332
0.0288467
0.0288467
0.028783
0.0287588
0.0288186
0.0288348
0.0287947
0.0287696
0.0287231
0.0286746
0.0287009
0.0287255
0.0287534
0.0287106
0.0287145
0.0287133
0.0287386
0.0287012
0.0286798
0.0286643
0.0286689
0.0286585
0.0286217
0.0285941
0.0285863
0.0285937
0.0285857
0.0285626
0.0285465
0.0285438
0.0285064
0.0284812
0.0284747
0.0284539
0.0284056
0.028321
0.0282965
0.0282995
0.0283061
0.0283023
0.0283183
0.0283443
0.0283582
0.029575
0.029542
0.0295028
0.029472
0.0294409
0.0294152
0.0293875
0.0293653
0.0293838
0.0293746
0.0293598
0.0293092
0.0292447
0.0291707
0.0291399
0.0291447
0.029149
0.0291215
0.0290749
0.0291057
0.0291355
0.0291382
0.0290857
0.0290601
0.0289894
0.0289568
0.0289799
0.0290071
0.0290268
0.0289849
0.0289948
0.0289931
0.0290157
0.02899
0.0289682
0.0289488
0.028952
0.0289471
0.028922
0.0288854
0.0288524
0.0288541
0.0288742
0.028867
0.0288478
0.0288495
0.0288191
0.0287972
0.028819
0.0288153
0.0287785
0.0287083
0.0286398
0.0285833
0.0285976
0.0285845
0.0286268
0.028643
0.0286464
0.029929
0.0298922
0.0298639
0.0298477
0.0298391
0.0298489
0.0298232
0.0298261
0.0298272
0.0297691
0.0297068
0.0296358
0.029564
0.0295233
0.0295202
0.0295287
0.0295218
0.0294636
0.0294499
0.0294933
0.0295129
0.0294976
0.0294204
0.0293887
0.0293121
0.0292969
0.0293269
0.0293593
0.0293649
0.0293234
0.029336
0.0293324
0.0293498
0.0293321
0.0293104
0.0292847
0.0292894
0.0292891
0.0292749
0.0292468
0.0292046
0.0291957
0.0291981
0.0292356
0.0292383
0.0292145
0.0291821
0.029158
0.0291613
0.0291598
0.0291993
0.029177
0.0291109
0.0290432
0.0289738
0.0289711
0.0289639
0.0289561
0.0289992
0.0303532
0.0303542
0.0303538
0.0303631
0.0303877
0.030359
0.0303185
0.0302801
0.030225
0.0301624
0.0301016
0.0300537
0.0300202
0.0300125
0.0300122
0.0299817
0.0299203
0.0298879
0.0299116
0.0299352
0.029942
0.0299059
0.0298192
0.029783
0.029705
0.0297018
0.029727
0.0297557
0.0297562
0.0297165
0.0297315
0.029728
0.0297463
0.0297388
0.029723
0.0296966
0.0296961
0.029698
0.0296954
0.0296799
0.0296367
0.0295861
0.0295843
0.0296011
0.0296141
0.0296606
0.0296495
0.0296324
0.0296139
0.029608
0.0296131
0.0296665
0.0296735
0.0296337
0.0295356
0.02951
0.0295049
0.0295009
0.0295048
0.0310409
0.0310261
0.0309976
0.0309767
0.0309409
0.0308949
0.0308396
0.0307847
0.0307277
0.0306773
0.0306369
0.0306112
0.0305918
0.0305762
0.030537
0.0304723
0.0304247
0.0304255
0.0304426
0.0304573
0.0304629
0.0303796
0.0302879
0.0302382
0.0301728
0.0301822
0.0302115
0.0302484
0.0302371
0.0301976
0.0302132
0.0302084
0.030224
0.0302181
0.0302066
0.0301864
0.0301805
0.0301863
0.0301818
0.0301781
0.0301582
0.0301049
0.030057
0.0300771
0.0300779
0.0301479
0.0301383
0.0301847
0.0301869
0.0301991
0.030162
0.0301815
0.0301502
0.030204
0.0302093
0.0301606
0.0301237
0.0300863
0.0301206
0.0317477
0.0317076
0.0316578
0.0316131
0.0315565
0.0315033
0.0314463
0.031399
0.0313554
0.0313224
0.0312937
0.0312673
0.0312345
0.0311884
0.0311288
0.0310751
0.031057
0.0310543
0.0310533
0.0310661
0.0310317
0.0309179
0.0308385
0.0307864
0.0307395
0.0307568
0.0307817
0.0308076
0.0307904
0.030754
0.0307712
0.030768
0.0307813
0.0307916
0.0307859
0.0307766
0.0307664
0.0307561
0.030787
0.030787
0.0307688
0.0307334
0.0306704
0.0306831
0.0306837
0.0306743
0.0306839
0.030714
0.0307391
0.0307832
0.0307927
0.0308951
0.0309133
0.030906
0.0308495
0.0308699
0.0308606
0.0308536
0.0308493
0.0325117
0.0324622
0.0324049
0.0323574
0.0323042
0.0322607
0.0322168
0.0321814
0.0321442
0.03211
0.0320689
0.0320226
0.0319656
0.0319033
0.0318435
0.0317984
0.0317761
0.0317976
0.0318128
0.031773
0.0316879
0.0315769
0.0315053
0.0314463
0.0314091
0.0314319
0.0314573
0.0314963
0.0314717
0.0314366
0.031454
0.0314508
0.0314663
0.0314659
0.0314723
0.0314591
0.0314655
0.0314688
0.0314552
0.0314704
0.0315126
0.0314848
0.0314318
0.0314298
0.031441
0.0314338
0.0314454
0.0314678
0.0315425
0.0315472
0.0315057
0.0315193
0.0315838
0.0316612
0.031768
0.031797
0.0318201
0.0318272
0.0317985
0.0334776
0.0334298
0.0333756
0.0333331
0.033283
0.0332395
0.0331895
0.0331408
0.0330845
0.0330275
0.0329617
0.0328971
0.0328316
0.0327767
0.0327394
0.0327299
0.032728
0.0327242
0.0326764
0.032594
0.032473
0.0323603
0.0322886
0.0322337
0.0322186
0.0322489
0.0322753
0.0322957
0.0322607
0.0322278
0.0322477
0.0322489
0.0322552
0.0322897
0.0322785
0.0323084
0.0322786
0.0322773
0.0323328
0.0323123
0.0322959
0.032369
0.0323588
0.0323254
0.0322684
0.032311
0.0323135
0.0322818
0.0323255
0.0324071
0.0325123
0.032504
0.0324426
0.0324255
0.0324439
0.0325075
0.0325094
0.0325712
0.0325603
0.0346872
0.0346275
0.0345547
0.034492
0.0344158
0.0343466
0.0342693
0.0341969
0.0341217
0.0340506
0.0339815
0.0339236
0.0338748
0.0338424
0.0338293
0.0338167
0.0337893
0.0337228
0.0336242
0.0334973
0.0333733
0.0332856
0.03323
0.0331835
0.0331831
0.033205
0.0332287
0.0332632
0.0332272
0.0331984
0.033221
0.0332183
0.0332376
0.0332283
0.033273
0.0332415
0.033291
0.0332829
0.0332672
0.0333128
0.0333835
0.0333583
0.033337
0.0333617
0.0334101
0.0333566
0.0333882
0.033386
0.0333734
0.0333401
0.033363
0.0335351
0.0335522
0.033587
0.0335022
0.0336003
0.0336244
0.0336425
0.0335936
0.0360166
0.0359427
0.0358587
0.0357866
0.0357052
0.035634
0.0355574
0.0354894
0.035419
0.0353568
0.0352989
0.035252
0.0352086
0.0351781
0.0351419
0.0350942
0.0350103
0.0348992
0.0347699
0.0346463
0.03454
0.0344531
0.0343841
0.0343458
0.0343542
0.0343789
0.0344046
0.0344163
0.0343634
0.0343334
0.0343593
0.034372
0.0343702
0.0344245
0.0344067
0.0344739
0.034448
0.0344864
0.0345431
0.0344961
0.0344898
0.034571
0.0346757
0.0346645
0.0346584
0.0346561
0.0347062
0.0347268
0.0348184
0.0347799
0.0347927
0.0347776
0.0348756
0.0348771
0.0348758
0.0347576
0.0348199
0.0348443
0.034777
0.0376606
0.0375748
0.0374752
0.0373913
0.0372943
0.0372093
0.037118
0.0370376
0.0369554
0.0368852
0.0368175
0.0367582
0.0367014
0.0366458
0.0365765
0.0364805
0.0363585
0.0362204
0.0360873
0.035958
0.0358448
0.0357658
0.0357225
0.0357019
0.0357146
0.0357474
0.0357717
0.0357926
0.0357477
0.0357283
0.0357562
0.0357666
0.0357891
0.0357706
0.0358466
0.0358125
0.0359018
0.035881
0.0358703
0.0359795
0.0360546
0.0360274
0.036003
0.0361725
0.0362062
0.0362263
0.0361751
0.0361319
0.0361788
0.0362426
0.0363182
0.0363568
0.0365045
0.0365587
0.0366195
0.0366144
0.0365542
0.0364938
0.0366168
0.0395938
0.0394996
0.0393951
0.0393064
0.0392062
0.0391208
0.039029
0.03895
0.038868
0.0387965
0.0387224
0.0386509
0.0385715
0.0384798
0.0383607
0.0382234
0.0380733
0.0379226
0.0377801
0.0376512
0.0375663
0.0374996
0.0374445
0.0374345
0.0374402
0.0374587
0.0374742
0.0374675
0.0374021
0.0373804
0.037415
0.0374398
0.0374375
0.0375188
0.0374908
0.0376062
0.0375744
0.0376289
0.0377117
0.0376679
0.0376995
0.0378303
0.0379206
0.0379522
0.0379339
0.0380408
0.0380094
0.0381373
0.0380442
0.0381408
0.0381501
0.0381619
0.0383857
0.0383309
0.0384624
0.038545
0.03837
0.0384736
0.038408
0.0419914
0.0418863
0.041767
0.041662
0.0415427
0.0414355
0.0413191
0.0412143
0.0411027
0.0409989
0.0408844
0.0407662
0.0406344
0.0404828
0.0403215
0.0401566
0.0399878
0.0398327
0.039693
0.039588
0.0394966
0.0394178
0.0393989
0.0393982
0.0394092
0.0394406
0.0394634
0.0394641
0.0394172
0.039413
0.039449
0.0394659
0.0395158
0.0394838
0.0395981
0.0395621
0.0397051
0.0397011
0.03968
0.0398772
0.03984
0.0398493
0.0399874
0.0400835
0.0402684
0.0402844
0.0402759
0.0402502
0.0403473
0.0403936
0.0405151
0.0403817
0.0405993
0.0404562
0.0403996
0.0403099
0.0405406
0.0405023
0.0404455
0.0449641
0.044837
0.0446921
0.044565
0.0444203
0.0442899
0.0441486
0.0440184
0.0438773
0.0437376
0.0435818
0.0434209
0.0432439
0.0430586
0.0428825
0.0426979
0.0425362
0.0423843
0.0422611
0.042149
0.0420593
0.0420169
0.0419836
0.0419812
0.041968
0.0419716
0.041957
0.0419285
0.0418622
0.0418553
0.041907
0.0419557
0.0419541
0.0420745
0.042033
0.0422
0.0421718
0.042221
0.0423676
0.0423652
0.0425171
0.0425389
0.0424657
0.0425086
0.042745
0.042957
0.0431864
0.043061
0.0428413
0.0429559
0.0428684
0.0427959
0.0428647
0.0428786
0.0429479
0.0429559
0.0430316
0.04305
0.0430948
0.0484254
0.0482709
0.0480949
0.0479365
0.0477543
0.0475848
0.0473962
0.0472156
0.0470156
0.0468193
0.0466081
0.0464018
0.0461866
0.0459893
0.0457928
0.0456147
0.0454498
0.0452984
0.0451639
0.0450506
0.0449726
0.0449045
0.0448908
0.0448815
0.044889
0.044897
0.0448995
0.0448953
0.044857
0.0448734
0.0449257
0.0449576
0.0450506
0.0450061
0.0451744
0.045135
0.0452926
0.0454798
0.0454304
0.0456085
0.0456131
0.0457476
0.0459684
0.0459044
0.045898
0.0459376
0.0461772
0.0463023
0.0462614
0.0465621
0.046477
0.0466134
0.0466036
0.0466263
0.0463939
0.0464928
0.0463489
0.0462806
0.0463017
0.052852
0.0526552
0.0524343
0.052229
0.0519987
0.0517803
0.0515454
0.0513208
0.0510836
0.0508579
0.0506237
0.0504
0.0501769
0.0499657
0.0497604
0.0495701
0.0493826
0.0492164
0.0490707
0.0489604
0.0488606
0.0488313
0.0487871
0.0487654
0.0487295
0.0486875
0.0486368
0.0485982
0.0485456
0.0485648
0.0486497
0.048734
0.0487371
0.0489113
0.0488552
0.0490803
0.0490279
0.0490828
0.049435
0.0493834
0.0495995
0.0495465
0.0496035
0.0496822
0.0500466
0.050092
0.0499825
0.0500829
0.0501891
0.0504832
0.0505759
0.0509854
0.0510937
0.0510663
0.0509235
0.0511835
0.0511987
0.0511991
0.050915
0.0580396
0.057795
0.0575182
0.0572689
0.056987
0.0567247
0.0564413
0.0561692
0.0558858
0.0556085
0.0553287
0.0550552
0.0547903
0.0545345
0.0542997
0.0540691
0.0538641
0.0536844
0.0535391
0.053409
0.0533396
0.0532572
0.0532021
0.0531597
0.0531319
0.0531111