/*--------------------------------*- C++ -*----------------------------------*\
| =========                 |                                                 |
| \\      /  F ield         | OpenFOAM: The Open Source CFD Toolbox           |
|  \\    /   O peration     | Version:  2312                                  |
|   \\  /    A nd           | Website:  www.openfoam.com                      |
|    \\/     M anipulation  |                                                 |
\*---------------------------------------------------------------------------*/
FoamFile
{
    version     2.0;
    format      ascii;
    arch        "LSB;label=32;scalar=64";
    class       volScalarField;
    location    "700";
    object      p;
}
// * * * * * * * * * * * * * * * * * * * * * * * * * * * * * * * * * * * * * //

dimensions      [0 2 -2 0 0 0 0];

internalField   nonuniform List<scalar> 
76025
(
0.000159542
0.000148774
0.00013789
0.000126898
0.000116047
0.000105022
9.3639e-05
8.25466e-05
7.11305e-05
5.99387e-05
4.87904e-05
3.75669e-05
2.62449e-05
1.5012e-05
3.69678e-06
-7.54217e-06
-1.85372e-05
-2.97025e-05
-4.07734e-05
-5.1662e-05
-6.23715e-05
-7.3219e-05
-8.37269e-05
-9.39236e-05
-0.000104041
-0.000113905
-0.000123842
-0.000133526
-0.000142622
-0.000151962
-0.000160705
-0.000168959
-0.000177186
-0.000185126
-0.00019264
-0.000199674
-0.000206064
-0.000212724
-0.000218667
-0.000224116
-0.000228909
-0.000233278
-0.000237814
-0.000241471
-0.000244634
-0.00024717
-0.000249573
-0.00025132
-0.000252137
-0.000252659
-0.000252847
-0.000252315
-0.000251345
-0.000249995
-0.000248062
-0.00024481
-0.00024204
-0.000238037
-0.000233735
-0.000229197
-0.000224344
-0.000218354
-0.000212093
-0.000206128
-0.000199577
-0.000191629
-0.000184756
-0.000178448
-0.000169711
0.000155382
0.000144137
0.000132848
0.000121377
0.000109796
9.81157e-05
8.6398e-05
7.46454e-05
6.2832e-05
5.10329e-05
3.92314e-05
2.74099e-05
1.55668e-05
3.73202e-06
-8.01596e-06
-1.96903e-05
-3.13542e-05
-4.29295e-05
-5.44924e-05
-6.58848e-05
-7.72075e-05
-8.83519e-05
-9.93003e-05
-0.000110014
-0.000120593
-0.000131037
-0.000141282
-0.00015118
-0.000160794
-0.000170163
-0.000179231
-0.000188133
-0.000196715
-0.000204874
-0.0002127
-0.000220078
-0.000227067
-0.000233697
-0.000239858
-0.000245624
-0.00025085
-0.000255662
-0.00026008
-0.000263907
-0.000267279
-0.00027015
-0.000272595
-0.00027444
-0.000275708
-0.000276571
-0.000276993
-0.000276829
-0.000276159
-0.000275001
-0.000273243
-0.0002708
-0.000268081
-0.000264718
-0.000260854
-0.00025658
-0.000252042
-0.00024687
-0.000241147
-0.000235324
-0.000229138
-0.000222412
-0.0002158
-0.000209487
-0.000201746
0.000150458
0.000138704
0.000126873
0.000114818
0.000102617
9.03738e-05
7.8096e-05
6.57679e-05
5.34024e-05
4.1006e-05
2.86003e-05
1.61971e-05
3.79845e-06
-8.57105e-06
-2.08749e-05
-3.31345e-05
-4.53317e-05
-5.74536e-05
-6.94836e-05
-8.14019e-05
-9.31768e-05
-0.000104781
-0.000116213
-0.000127458
-0.00013852
-0.000149383
-0.000159985
-0.000170307
-0.000180357
-0.00019012
-0.000199633
-0.000208864
-0.000217721
-0.000226191
-0.000234276
-0.000241954
-0.000249217
-0.000256064
-0.000262499
-0.000268488
-0.000273977
-0.000278985
-0.000283546
-0.000287649
-0.000291282
-0.000294424
-0.000297085
-0.000299242
-0.000300879
-0.000302025
-0.000302689
-0.000302831
-0.000302458
-0.00030158
-0.000300171
-0.000298199
-0.000295769
-0.000292847
-0.000289442
-0.000285627
-0.000281435
-0.000276776
-0.000271682
-0.000266332
-0.000260699
-0.00025475
-0.000248606
-0.000242732
-0.000235658
0.000145273
0.000132948
0.000120527
0.000107871
9.5073e-05
8.22184e-05
6.93308e-05
5.6408e-05
4.34537e-05
3.04731e-05
1.74806e-05
4.49132e-06
-8.48131e-06
-2.14216e-05
-3.43118e-05
-4.71423e-05
-5.98978e-05
-7.25651e-05
-8.51252e-05
-9.75592e-05
-0.000109844
-0.000121967
-0.000133912
-0.000145657
-0.000157186
-0.000168484
-0.000179529
-0.000190306
-0.000200796
-0.000210989
-0.000220875
-0.000230429
-0.000239619
-0.000248424
-0.000256833
-0.000264836
-0.00027242
-0.000279578
-0.000286296
-0.000292548
-0.000298313
-0.0003036
-0.000308432
-0.000312807
-0.000316705
-0.00032012
-0.000323052
-0.00032549
-0.000327419
-0.000328849
-0.000329793
-0.000330239
-0.000330181
-0.000329622
-0.000328556
-0.000326981
-0.000324936
-0.000322436
-0.000319485
-0.00031612
-0.000312372
-0.000308231
-0.000303716
-0.000298909
-0.000293838
-0.000288545
-0.000283029
-0.000277775
-0.000271441
0.000139711
0.000126771
0.000113738
0.000100461
8.70382e-05
7.35532e-05
6.00361e-05
4.64874e-05
3.29059e-05
1.92993e-05
5.68306e-06
-7.92525e-06
-2.15096e-05
-3.50563e-05
-4.85506e-05
-6.19772e-05
-7.5322e-05
-8.85683e-05
-0.000101699
-0.000114693
-0.000127534
-0.000140203
-0.000152679
-0.000164942
-0.000176977
-0.000188766
-0.000200292
-0.000211536
-0.000222479
-0.000233105
-0.000243399
-0.000253342
-0.000262915
-0.000272096
-0.000280871
-0.00028923
-0.000297157
-0.000304638
-0.000311657
-0.000318202
-0.000324259
-0.000329833
-0.000334936
-0.000339572
-0.000343733
-0.000347414
-0.000350611
-0.000353318
-0.000355529
-0.000357248
-0.000358483
-0.00035923
-0.000359488
-0.000359258
-0.000358545
-0.000357357
-0.000355715
-0.000353636
-0.000351135
-0.000348238
-0.000344972
-0.000341351
-0.000337401
-0.000333177
-0.000328712
-0.000324077
-0.000319242
-0.000314714
-0.000309318
0.000133579
0.000119984
0.000106294
9.23527e-05
7.82601e-05
6.4107e-05
4.99243e-05
3.57114e-05
2.14656e-05
7.19494e-06
-7.08327e-06
-2.13495e-05
-3.55865e-05
-4.97794e-05
-6.39136e-05
-7.79731e-05
-9.19414e-05
-0.000105801
-0.000119533
-0.000133118
-0.000146539
-0.000159774
-0.000172804
-0.00018561
-0.000198174
-0.000210477
-0.000222502
-0.000234228
-0.000245637
-0.000256711
-0.000267434
-0.000277789
-0.000287756
-0.000297319
-0.000306462
-0.000315171
-0.000323431
-0.000331228
-0.000338551
-0.00034539
-0.000351734
-0.000357586
-0.000362959
-0.00036786
-0.000372287
-0.000376236
-0.000379704
-0.000382687
-0.000385185
-0.000387199
-0.000388734
-0.000389792
-0.000390376
-0.000390491
-0.000390144
-0.000389347
-0.000388117
-0.000386473
-0.000384434
-0.000382023
-0.000379265
-0.000376186
-0.000372814
-0.000369196
-0.000365365
-0.000361403
-0.000357262
-0.000353445
-0.000348875
0.000126786
0.000112501
9.81129e-05
8.34609e-05
6.86524e-05
5.37854e-05
3.88928e-05
2.39742e-05
9.02607e-06
-5.94438e-06
-2.09198e-05
-3.58796e-05
-5.0805e-05
-6.56796e-05
-8.04872e-05
-9.52111e-05
-0.000109833
-0.000124334
-0.000138696
-0.000152898
-0.000166922
-0.000180746
-0.000194353
-0.000207721
-0.000220831
-0.000233664
-0.000246201
-0.000258422
-0.000270308
-0.000281841
-0.000293005
-0.000303781
-0.000314152
-0.000324102
-0.000333616
-0.000342681
-0.000351281
-0.000359405
-0.000367042
-0.000374184
-0.000380823
-0.000386962
-0.000392615
-0.000397791
-0.000402492
-0.000406715
-0.00041046
-0.000413725
-0.000416513
-0.000418825
-0.000420665
-0.000422042
-0.00042296
-0.000423428
-0.000423457
-0.00042306
-0.000422254
-0.000421059
-0.000419496
-0.000417588
-0.000415362
-0.000412846
-0.000410072
-0.000407083
-0.000403913
-0.000400648
-0.000397204
-0.000394094
-0.000390082
0.000119274
0.000104262
8.91388e-05
7.37372e-05
5.81722e-05
4.25486e-05
2.6903e-05
1.12355e-05
-4.45758e-06
-2.01692e-05
-3.58816e-05
-5.15733e-05
-6.72241e-05
-8.28161e-05
-9.83323e-05
-0.000113755
-0.000129064
-0.000144241
-0.000159265
-0.000174116
-0.000188773
-0.000203216
-0.000217425
-0.000231378
-0.000245057
-0.00025844
-0.000271508
-0.000284242
-0.000296622
-0.00030863
-0.000320248
-0.000331459
-0.000342247
-0.000352595
-0.000362491
-0.00037192
-0.000380868
-0.000389325
-0.000397282
-0.000404731
-0.000411667
-0.000418095
-0.00042403
-0.000429483
-0.000434458
-0.000438955
-0.000442976
-0.000446523
-0.0004496
-0.000452211
-0.000454362
-0.000456063
-0.000457323
-0.000458153
-0.000458568
-0.000458582
-0.000458214
-0.000457483
-0.000456414
-0.000455029
-0.000453358
-0.000451431
-0.00044928
-0.000446948
-0.000444472
-0.00044194
-0.000439249
-0.000436908
-0.000433556
0.000110953
9.51694e-05
7.92703e-05
6.30783e-05
4.67152e-05
3.02927e-05
1.38503e-05
-2.61096e-06
-1.90947e-05
-3.55932e-05
-5.20875e-05
-6.85547e-05
-8.49733e-05
-0.000101324
-0.000117589
-0.00013375
-0.000149785
-0.000165675
-0.000181398
-0.000196932
-0.000212257
-0.00022735
-0.00024219
-0.000256757
-0.000271029
-0.000284986
-0.000298607
-0.000311873
-0.000324763
-0.000337261
-0.000349347
-0.000361005
-0.000372219
-0.000382973
-0.000393256
-0.000403052
-0.000412351
-0.000421142
-0.000429418
-0.000437174
-0.000444405
-0.000451119
-0.000457333
-0.00046306
-0.000468306
-0.000473075
-0.000477371
-0.000481198
-0.000484563
-0.000487474
-0.000489939
-0.00049197
-0.000493578
-0.000494779
-0.000495589
-0.000496026
-0.000496109
-0.000495859
-0.000495301
-0.000494461
-0.000493368
-0.000492053
-0.000490551
-0.000488906
-0.00048716
-0.000485397
-0.000483549
-0.000482117
-0.000480057
0.000101706
8.51022e-05
6.83785e-05
5.13484e-05
3.41403e-05
1.68723e-05
-4.13354e-07
-1.77151e-05
-3.50365e-05
-5.23691e-05
-6.96927e-05
-8.69824e-05
-0.000104215
-0.00012137
-0.000138428
-0.000155369
-0.000172172
-0.000188814
-0.000205273
-0.000221527
-0.000237553
-0.000253328
-0.000268831
-0.000284039
-0.000298931
-0.000313485
-0.000327681
-0.000341498
-0.000354916
-0.000367917
-0.000380484
-0.000392598
-0.000404245
-0.000415411
-0.000426084
-0.000436249
-0.000445897
-0.00045502
-0.000463612
-0.00047167
-0.000479192
-0.000486187
-0.000492674
-0.000498669
-0.00050418
-0.000509214
-0.000513779
-0.000517882
-0.000521532
-0.000524741
-0.000527519
-0.000529882
-0.000531843
-0.000533422
-0.000534636
-0.000535505
-0.000536052
-0.000536298
-0.000536271
-0.000535996
-0.000535505
-0.000534828
-0.000534003
-0.000533075
-0.000532079
-0.000531101
-0.000530088
-0.000529687
-0.000528899
9.14058e-05
7.39283e-05
5.6327e-05
3.84057e-05
2.02999e-05
2.13467e-06
-1.60449e-05
-3.42369e-05
-5.24452e-05
-7.06612e-05
-8.8863e-05
-0.000107024
-0.000125119
-0.000143125
-0.000161022
-0.000178789
-0.000196403
-0.000213839
-0.000231076
-0.000248087
-0.000264851
-0.000281343
-0.00029754
-0.000313419
-0.000328958
-0.000344134
-0.000358927
-0.000373315
-0.000387278
-0.000400797
-0.000413855
-0.000426435
-0.000438522
-0.000450103
-0.000461166
-0.0004717
-0.000481694
-0.000491143
-0.000500045
-0.000508397
-0.000516199
-0.000523465
-0.000530215
-0.000536466
-0.000542232
-0.000547522
-0.000552346
-0.000556716
-0.000560644
-0.000564144
-0.000567232
-0.000569926
-0.000572242
-0.000574202
-0.000575826
-0.000577137
-0.00057816
-0.000578918
-0.000579439
-0.000579752
-0.000579886
-0.000579878
-0.000579764
-0.000579585
-0.000579361
-0.000579171
-0.000578943
-0.000579389
-0.000579207
7.99063e-05
6.14986e-05
4.2963e-05
2.40934e-05
5.03272e-06
-1.40862e-05
-3.32151e-05
-5.23518e-05
-7.15004e-05
-9.06521e-05
-0.000109784
-0.000128868
-0.000147875
-0.000166783
-0.000185569
-0.000204209
-0.00022268
-0.000240956
-0.000259012
-0.000276823
-0.000294363
-0.000311608
-0.000328534
-0.000345116
-0.000361331
-0.000377155
-0.000392567
-0.000407546
-0.00042207
-0.000436121
-0.000449681
-0.000462734
-0.000475265
-0.000487263
-0.000498715
-0.000509611
-0.000519945
-0.000529712
-0.000538911
-0.000547544
-0.000555613
-0.000563134
-0.00057013
-0.000576623
-0.000582626
-0.000588155
-0.000593224
-0.000597846
-0.00060204
-0.000605822
-0.000609212
-0.00061223
-0.000614899
-0.000617242
-0.000619281
-0.000621043
-0.000622553
-0.000623837
-0.000624926
-0.000625847
-0.000626635
-0.000627328
-0.000627959
-0.000628564
-0.000629162
-0.000629825
-0.000630478
-0.000631618
-0.000630919
6.70345e-05
4.76364e-05
2.81065e-05
8.22748e-06
-1.18496e-05
-3.19834e-05
-5.21219e-05
-7.22624e-05
-9.24095e-05
-0.000112554
-0.000132672
-0.000152733
-0.000172708
-0.00019257
-0.000212296
-0.00023186
-0.000251237
-0.0002704
-0.000289322
-0.000307975
-0.000326333
-0.00034437
-0.00036206
-0.000379378
-0.000396298
-0.000412798
-0.000428853
-0.000444441
-0.000459543
-0.000474139
-0.00048821
-0.000501741
-0.000514718
-0.00052713
-0.000538965
-0.000550216
-0.000560877
-0.000570947
-0.000580427
-0.000589322
-0.000597636
-0.00060539
-0.00061261
-0.00061932
-0.000625538
-0.000631282
-0.000636572
-0.000641427
-0.000645867
-0.000649915
-0.000653594
-0.000656929
-0.000659945
-0.000662668
-0.000665125
-0.000667344
-0.000669352
-0.000671177
-0.000672852
-0.000674408
-0.000675881
-0.000677305
-0.000678713
-0.000680144
-0.000681631
-0.000683265
-0.000684991
-0.000687132
-0.00068867
5.25882e-05
3.2135e-05
1.15461e-05
-9.40789e-06
-3.05674e-05
-5.17817e-05
-7.29949e-05
-9.42033e-05
-0.000115412
-0.000136611
-0.000157776
-0.000178875
-0.000199874
-0.000220747
-0.000241467
-0.000262009
-0.000282343
-0.000302443
-0.000322277
-0.000341818
-0.000361037
-0.000379906
-0.000398398
-0.000416485
-0.000434141
-0.000451342
-0.000468063
-0.000484281
-0.000499975
-0.000515126
-0.000529714
-0.000543726
-0.000557147
-0.000569967
-0.000582175
-0.000593766
-0.000604737
-0.000615089
-0.000624826
-0.000633954
-0.000642484
-0.000650441
-0.000657854
-0.000664748
-0.000671147
-0.000677076
-0.000682557
-0.000687616
-0.000692278
-0.000696569
-0.000700519
-0.000704156
-0.00070751
-0.000710609
-0.000713484
-0.000716164
-0.000718681
-0.000721063
-0.000723346
-0.000725564
-0.000727751
-0.000729937
-0.000732161
-0.000734485
-0.000736941
-0.00073961
-0.000742334
-0.000745696
-0.000748155
3.63319e-05
1.47537e-05
-6.96433e-06
-2.90644e-05
-5.13778e-05
-7.37438e-05
-9.61018e-05
-0.000118447
-0.000140786
-0.000163107
-0.000185386
-0.000207586
-0.000229674
-0.000251619
-0.000273393
-0.000294969
-0.000316317
-0.000337405
-0.000358203
-0.000378679
-0.000398803
-0.000418546
-0.000437877
-0.000456768
-0.000475191
-0.00049312
-0.000510529
-0.000527395
-0.000543695
-0.000559409
-0.000574519
-0.00058901
-0.000602869
-0.000616085
-0.00062865
-0.000640559
-0.000651814
-0.000662418
-0.000672378
-0.000681703
-0.00069041
-0.000698529
-0.000706089
-0.000713124
-0.000719661
-0.000725731
-0.000731362
-0.000736586
-0.000741434
-0.000745939
-0.000750134
-0.000754053
-0.000757729
-0.000761196
-0.000764487
-0.000767633
-0.000770668
-0.000773624
-0.000776537
-0.000779442
-0.000782369
-0.000785359
-0.000788478
-0.000791769
-0.000795242
-0.000798959
-0.000802835
-0.000807469
-0.000811732
1.79926e-05
-4.78622e-06
-2.77089e-05
-5.10316e-05
-7.4576e-05
-9.81706e-05
-0.000121749
-0.000145307
-0.000168849
-0.000192366
-0.000215829
-0.000239201
-0.000262445
-0.00028553
-0.000308423
-0.000331095
-0.000353515
-0.000375649
-0.000397464
-0.000418926
-0.000440002
-0.000460661
-0.000480871
-0.000500601
-0.000519821
-0.000538504
-0.000556623
-0.000574151
-0.000591067
-0.000607349
-0.000622979
-0.000637942
-0.000652225
-0.000665818
-0.000678714
-0.000690913
-0.000702416
-0.000713231
-0.000723368
-0.000732842
-0.000741674
-0.000749899
-0.000757552
-0.000764669
-0.000771288
-0.000777443
-0.000783172
-0.000788512
-0.000793502
-0.000798181
-0.000802588
-0.000806763
-0.000810743
-0.000814565
-0.000818266
-0.000821881
-0.000825443
-0.000828986
-0.000832547
-0.000836159
-0.00083987
-0.000843743
-0.000847813
-0.000852086
-0.000856615
-0.000861493
-0.000866751
-0.000872805
-0.000878721
-2.75521e-06
-2.6817e-05
-5.10268e-05
-7.56559e-05
-0.000100516
-0.000125423
-0.000150306
-0.000175158
-0.000199984
-0.000224775
-0.000249502
-0.000274123
-0.0002986
-0.000322897
-0.00034698
-0.000370818
-0.000394376
-0.000417619
-0.00044051
-0.000463014
-0.000485094
-0.000506717
-0.000527848
-0.000548455
-0.000568506
-0.00058797
-0.000606819
-0.000625026
-0.000642567
-0.000659419
-0.000675563
-0.000690986
-0.000705673
-0.000719615
-0.000732809
-0.000745255
-0.000756958
-0.00076793
-0.000778183
-0.000787739
-0.000796626
-0.000804882
-0.00081255
-0.000819673
-0.000826295
-0.000832461
-0.000838215
-0.000843603
-0.000848674
-0.000853474
-0.000858049
-0.000862442
-0.000866698
-0.000870857
-0.00087496
-0.00087904
-0.000883133
-0.000887271
-0.000891493
-0.000895859
-0.00090042
-0.000905193
-0.000910199
-0.000915506
-0.0009212
-0.000927408
-0.00093421
-0.00094217
-0.000950425
-2.62793e-05
-5.17121e-05
-7.72973e-05
-0.000103322
-0.000129587
-0.000155897
-0.000182173
-0.000208407
-0.000234605
-0.000260756
-0.00028683
-0.000312784
-0.000338574
-0.000364163
-0.000389513
-0.000414589
-0.000439356
-0.000463774
-0.000487805
-0.000511409
-0.000534548
-0.000557185
-0.000579282
-0.000600804
-0.000621716
-0.000641987
-0.000661584
-0.00068048
-0.000698648
-0.000716065
-0.000732712
-0.000748572
-0.000763634
-0.000777888
-0.000791333
-0.000803971
-0.000815812
-0.000826869
-0.000837162
-0.000846716
-0.000855569
-0.000863764
-0.000871353
-0.000878387
-0.000884919
-0.000891003
-0.000896695
-0.000902052
-0.000907131
-0.000911987
-0.000916673
-0.000921242
-0.000925743
-0.00093022
-0.00093471
-0.00093925
-0.000943871
-0.000948619
-0.000953554
-0.000958712
-0.000964099
-0.000969755
-0.00097576
-0.000982196
-0.000989141
-0.000996807
-0.00100526
-0.00101508
-0.00102535
-5.30499e-05
-7.9952e-05
-0.000107011
-0.000134532
-0.000162304
-0.000190117
-0.000217886
-0.000245601
-0.000273267
-0.000300876
-0.000328393
-0.000355773
-0.000382969
-0.000409939
-0.000436644
-0.000463044
-0.000489102
-0.000514774
-0.000540019
-0.000564794
-0.000589056
-0.000612766
-0.000635882
-0.000658366
-0.000680181
-0.000701291
-0.000721662
-0.000741262
-0.000760063
-0.000778041
-0.000795174
-0.000811446
-0.000826843
-0.000841359
-0.000854992
-0.000867749
-0.000879642
-0.000890689
-0.000900915
-0.000910352
-0.000919047
-0.000927051
-0.000934426
-0.000941233
-0.000947538
-0.00095341
-0.000958915
-0.000964125
-0.000969108
-0.00097393
-0.000978656
-0.000983347
-0.000988053
-0.000992818
-0.000997678
-0.00100267
-0.00100785
-0.00101325
-0.0010189
-0.0010248
-0.00103103
-0.00103765
-0.00104472
-0.00105233
-0.00106062
-0.00106971
-0.00107956
-0.00109067
-0.00110228
-8.35322e-05
-0.000112005
-0.000140639
-0.000169758
-0.000199139
-0.000228559
-0.000257924
-0.000287221
-0.000316457
-0.000345621
-0.000374678
-0.000403581
-0.000432277
-0.00046072
-0.000488868
-0.000516678
-0.000544108
-0.000571112
-0.000597644
-0.000623657
-0.000649105
-0.000673943
-0.000698127
-0.000721615
-0.000744364
-0.000766336
-0.000787494
-0.000807803
-0.000827233
-0.000845757
-0.000863352
-0.000879997
-0.000895681
-0.000910397
-0.000924146
-0.000936936
-0.000948781
-0.000959704
-0.000969738
-0.000978925
-0.000987318
-0.000994982
-0.00100199
-0.00100842
-0.00101434
-0.00101985
-0.00102503
-0.00102997
-0.00103474
-0.00103943
-0.00104412
-0.00104887
-0.00105373
-0.00105876
-0.001064
-0.00106949
-0.00107525
-0.00108127
-0.00108761
-0.00109432
-0.00110146
-0.00110908
-0.00111729
-0.0011262
-0.00113579
-0.00114609
-0.00115705
-0.00116916
-0.00118146
-0.000118492
-0.000148658
-0.000178992
-0.000209835
-0.000240954
-0.000272108
-0.000303196
-0.000334201
-0.000365131
-0.000395975
-0.000426696
-0.000457243
-0.00048756
-0.000517594
-0.000547301
-0.000576633
-0.000605544
-0.000633985
-0.000661904
-0.000689251
-0.000715975
-0.000742025
-0.000767353
-0.000791912
-0.000815654
-0.000838535
-0.000860513
-0.00088155
-0.000901611
-0.000920665
-0.000938687
-0.000955655
-0.000971555
-0.000986382
-0.00100014
-0.00101283
-0.00102448
-0.00103512
-0.00104478
-0.00105351
-0.00106139
-0.00106847
-0.00107486
-0.00108065
-0.00108593
-0.00109083
-0.00109544
-0.00109988
-0.00110425
-0.00110865
-0.00111316
-0.00111786
-0.00112283
-0.00112812
-0.00113374
-0.0011397
-0.00114602
-0.00115272
-0.00115985
-0.00116743
-0.00117554
-0.0011843
-0.00119378
-0.00120399
-0.00121488
-0.00122659
-0.00123906
-0.00125273
-0.00126643
-0.00015833
-0.000190297
-0.00022243
-0.000255101
-0.000288063
-0.00032106
-0.000353977
-0.000386797
-0.000419525
-0.000452152
-0.00048464
-0.000516933
-0.000548969
-0.000580693
-0.000612053
-0.000642998
-0.000673478
-0.000703437
-0.00073282
-0.00076157
-0.00078963
-0.000816946
-0.000843464
-0.000869131
-0.000893895
-0.000917709
-0.000940523
-0.000962295
-0.000982983
-0.00100255
-0.00102097
-0.00103821
-0.00105426
-0.00106911
-0.00108276
-0.00109522
-0.00110652
-0.00111669
-0.00112578
-0.00113386
-0.001141
-0.0011473
-0.00115285
-0.00115777
-0.00116219
-0.00116623
-0.00117004
-0.00117377
-0.00117753
-0.00118147
-0.00118569
-0.00119027
-0.00119529
-0.00120077
-0.00120675
-0.00121323
-0.00122021
-0.0012277
-0.0012357
-0.0012443
-0.00125362
-0.00126374
-0.00127468
-0.00128653
-0.00129938
-0.00131346
-0.00132849
-0.00134518
-0.00136154
-0.000204762
-0.000238707
-0.000272838
-0.000307528
-0.000342523
-0.000377551
-0.000412488
-0.000447309
-0.000482023
-0.000516618
-0.000551056
-0.000585276
-0.000619212
-0.000652803
-0.000685991
-0.000718722
-0.000750938
-0.000782581
-0.000813588
-0.000843895
-0.000873439
-0.000902156
-0.000929984
-0.000956862
-0.000982731
-0.00100754
-0.00103122
-0.00105374
-0.00107505
-0.0010951
-0.00111386
-0.0011313
-0.0011474
-0.00116214
-0.00117553
-0.00118757
-0.00119828
-0.00120771
-0.0012159
-0.00122294
-0.00122891
-0.00123395
-0.00123818
-0.00124174
-0.00124479
-0.00124749
-0.00125003
-0.00125257
-0.00125531
-0.00125842
-0.00126204
-0.00126629
-0.00127122
-0.00127687
-0.00128325
-0.00129035
-0.00129811
-0.00130654
-0.0013157
-0.00132569
-0.00133658
-0.00134851
-0.00136163
-0.00137613
-0.00139209
-0.00140962
-0.0014282
-0.00144851
-0.0014668
-0.000256755
-0.000292739
-0.000328887
-0.000365639
-0.000402725
-0.000439848
-0.00047687
-0.000513761
-0.00055053
-0.000587166
-0.000623627
-0.000659848
-0.000695756
-0.000731282
-0.000766365
-0.000800943
-0.000834954
-0.000868334
-0.000901014
-0.000932926
-0.000964
-0.000994166
-0.00102336
-0.0010515
-0.00107852
-0.00110435
-0.00112894
-0.00115221
-0.00117412
-0.00119462
-0.00121365
-0.00123119
-0.00124721
-0.0012617
-0.00127465
-0.00128607
-0.00129599
-0.00130446
-0.00131155
-0.00131733
-0.00132192
-0.00132547
-0.00132813
-0.00133008
-0.00133155
-0.00133272
-0.00133382
-0.00133504
-0.00133659
-0.0013387
-0.00134161
-0.00134551
-0.00135051
-0.00135657
-0.00136365
-0.00137167
-0.00138061
-0.00139044
-0.00140118
-0.00141296
-0.00142597
-0.00144043
-0.00145648
-0.00147415
-0.00149326
-0.00151364
-0.00153448
-0.00155557
-0.00157346
-0.000320885
-0.00035922
-0.000397795
-0.000436978
-0.000476499
-0.000516059
-0.000555505
-0.000594803
-0.000633959
-0.000672966
-0.000711782
-0.000750337
-0.00078855
-0.000826345
-0.000863651
-0.000900401
-0.000936523
-0.000971944
-0.00100658
-0.00104036
-0.00107321
-0.00110503
-0.00113577
-0.00116534
-0.00119367
-0.00122068
-0.00124628
-0.0012704
-0.00129298
-0.00131394
-0.00133322
-0.00135078
-0.00136658
-0.00138058
-0.00139276
-0.00140311
-0.00141167
-0.00141848
-0.00142361
-0.00142717
-0.00142929
-0.00143014
-0.00142993
-0.00142892
-0.00142741
-0.00142574
-0.00142425
-0.00142325
-0.00142295
-0.00142358
-0.00142545
-0.0014289
-0.00143409
-0.0014409
-0.00144915
-0.00145867
-0.00146928
-0.00148085
-0.00149337
-0.001507
-0.00152195
-0.00153833
-0.00155594
-0.00157421
-0.00159245
-0.00161017
-0.00162659
-0.0016409
-0.00165045
-0.000385685
-0.000426375
-0.000467143
-0.000508611
-0.000550487
-0.000592416
-0.000634217
-0.000675848
-0.000717317
-0.000758619
-0.000799711
-0.00084052
-0.00088096
-0.000920949
-0.000960409
-0.000999267
-0.00103745
-0.00107488
-0.00111147
-0.00114713
-0.00118175
-0.00121526
-0.00124754
-0.00127853
-0.00130813
-0.00133627
-0.00136285
-0.0013878
-0.00141103
-0.00143246
-0.00145201
-0.00146963
-0.00148528
-0.00149891
-0.00151049
-0.00152
-0.00152745
-0.00153288
-0.00153637
-0.00153801
-0.00153796
-0.0015364
-0.00153356
-0.00152975
-0.00152532
-0.00152073
-0.00151649
-0.00151314
-0.00151107
-0.00151052
-0.00151175
-0.00151519
-0.00152115
-0.0015295
-0.0015398
-0.00155151
-0.00156399
-0.00157675
-0.00158954
-0.00160236
-0.00161534
-0.00162847
-0.0016412
-0.00165232
-0.00166103
-0.00166764
-0.0016729
-0.00167705
-0.0016767
-0.000483217
-0.000526439
-0.000570185
-0.000614633
-0.000659489
-0.00070443
-0.000749271
-0.00079395
-0.000838462
-0.000882794
-0.000926899
-0.000970694
-0.00101408
-0.00105698
-0.00109928
-0.00114091
-0.00118178
-0.00122181
-0.00126089
-0.00129894
-0.00133587
-0.00137154
-0.00140586
-0.00143868
-0.00146991
-0.00149945
-0.00152719
-0.00155303
-0.00157684
-0.00159848
-0.00161781
-0.00163479
-0.00164936
-0.00166143
-0.00167096
-0.00167796
-0.00168243
-0.00168444
-0.00168408
-0.00168147
-0.00167679
-0.00167025
-0.00166212
-0.00165279
-0.00164269
-0.00163234
-0.00162237
-0.00161354
-0.00160668
-0.0016024
-0.00160117
-0.00160349
-0.00160964
-0.00161926
-0.00163128
-0.00164399
-0.00165539
-0.00166412
-0.00166983
-0.00167304
-0.00167474
-0.00167609
-0.00167764
-0.00167861
-0.00167858
-0.00167826
-0.00167933
-0.00168209
-0.00168383
-0.000551178
-0.000597339
-0.000643199
-0.000689986
-0.000737321
-0.000784702
-0.000831931
-0.000878988
-0.00092589
-0.000972623
-0.00101913
-0.00106532
-0.0011111
-0.00115636
-0.00120102
-0.00124499
-0.00128818
-0.00133047
-0.00137174
-0.00141189
-0.00145082
-0.00148844
-0.00152461
-0.00155921
-0.00159212
-0.00162321
-0.00165241
-0.00167971
-0.00170508
-0.00172833
-0.00174917
-0.00176739
-0.00178281
-0.00179535
-0.00180496
-0.00181158
-0.00181518
-0.00181575
-0.0018133
-0.00180793
-0.00179977
-0.00178907
-0.00177613
-0.00176141
-0.00174553
-0.00172919
-0.0017132
-0.00169844
-0.00168584
-0.00167634
-0.00167071
-0.00166941
-0.00167244
-0.0016791
-0.00168786
-0.00169633
-0.00170173
-0.00170256
-0.00169892
-0.00169241
-0.00168536
-0.00168018
-0.00167833
-0.00167899
-0.00168038
-0.0016812
-0.0016816
-0.00168232
-0.00168325
-0.000707104
-0.000756294
-0.000806886
-0.000858276
-0.000909904
-0.00096147
-0.00101284
-0.00106398
-0.00111492
-0.00116565
-0.00121612
-0.00126621
-0.00131582
-0.00136483
-0.00141314
-0.00146065
-0.00150727
-0.00155286
-0.00159732
-0.00164049
-0.00168221
-0.00172233
-0.00176072
-0.0017972
-0.00183158
-0.00186364
-0.00189313
-0.00191978
-0.00194337
-0.00196395
-0.00198164
-0.0019964
-0.00200807
-0.00201645
-0.00202134
-0.00202254
-0.00201986
-0.00201318
-0.00200243
-0.00198763
-0.0019689
-0.00194649
-0.00192076
-0.00189225
-0.00186171
-0.00183005
-0.00179835
-0.00176787
-0.00173997
-0.00171604
-0.00169731
-0.00168468
-0.00167852
-0.00167857
-0.00168374
-0.00169186
-0.00169964
-0.00170435
-0.00170478
-0.00170117
-0.00169494
-0.00168825
-0.00168346
-0.00168145
-0.00168064
-0.00167985
-0.00167921
-0.00167904
-0.00167972
0.000399664
0.00040322
0.000407195
0.000411602
0.000416311
0.000421336
0.000426799
0.000432572
0.000438726
0.000445074
0.000451723
0.000458757
0.000465856
0.000473606
0.000480611
0.000487989
0.000494673
0.000501728
0.000508262
0.000514566
0.000520783
0.000525422
0.000529729
0.000532725
0.000534838
0.000536125
0.000535782
0.000534086
0.000531322
0.000527348
0.000521217
0.000513815
0.000505224
0.000495713
0.000484332
0.000472028
0.000459021
0.000445119
0.000430383
0.00041538
0.000400002
0.000384325
0.000368887
0.00035368
0.000337945
0.000323133
0.000308148
0.000293929
0.000279933
0.000266355
0.000253451
0.000241079
0.000229398
0.000218386
0.000207942
0.00019753
0.000187766
0.000178393
0.000169466
0.000403271
0.000407084
0.000411338
0.000415932
0.000420889
0.000426214
0.00043192
0.000437976
0.0004444
0.000451144
0.000458178
0.000465502
0.000473018
0.000480715
0.000488523
0.000496157
0.000503762
0.000511115
0.000518222
0.000524801
0.000530913
0.000536327
0.000540847
0.00054429
0.000546663
0.000547938
0.000547897
0.000546303
0.000543566
0.000539334
0.000533177
0.000525718
0.000516903
0.000506662
0.000495007
0.000482222
0.000468563
0.00045412
0.000438889
0.000423122
0.000407112
0.000390886
0.000374659
0.000358353
0.000342232
0.000326457
0.000310973
0.000295997
0.000281446
0.000267351
0.000253846
0.000240932
0.000228555
0.000216783
0.000205492
0.000194752
0.000184528
0.00017483
0.000165608
0.000407443
0.000411484
0.000415934
0.000420764
0.000425982
0.000431594
0.000437592
0.00044397
0.000450722
0.000457818
0.000465222
0.000472883
0.00048077
0.000488842
0.000497022
0.00050525
0.000513389
0.000521275
0.000528794
0.000535811
0.000542202
0.000547998
0.000552896
0.000556705
0.000559374
0.000560775
0.000560831
0.000559407
0.000556629
0.000552258
0.000546075
0.000538408
0.000529169
0.000518451
0.000506332
0.000493056
0.000478754
0.000463635
0.000447774
0.00043136
0.000414565
0.000397494
0.000380353
0.000363298
0.000346429
0.000329892
0.000313708
0.000297969
0.000282711
0.000267951
0.000253764
0.000240151
0.000227119
0.000214664
0.000202827
0.000191588
0.000180905
0.000170774
0.000161135
0.000411438
0.000415699
0.0004204
0.000425501
0.000431016
0.000436946
0.000443287
0.000450028
0.000457153
0.000464642
0.000472464
0.000480578
0.000488943
0.000497495
0.000506142
0.000514841
0.000523425
0.000531801
0.000539806
0.000547335
0.000554223
0.000560377
0.000565624
0.000569767
0.000572721
0.000574329
0.000574513
0.000573183
0.000570376
0.000565891
0.000559576
0.00055162
0.00054198
0.000530829
0.000518206
0.000504359
0.000489406
0.00047354
0.00045691
0.000439704
0.000422062
0.000404153
0.000386186
0.000368335
0.000350653
0.000333287
0.000316301
0.000299768
0.000283749
0.000268274
0.000253389
0.000239116
0.000225472
0.000212455
0.000200066
0.000188292
0.000177111
0.000166515
0.000156444
0.000415155
0.000419654
0.000424618
0.000430005
0.000435831
0.000442096
0.000448797
0.000455924
0.000463463
0.000471392
0.00047968
0.000488286
0.00049716
0.000506231
0.000515412
0.000524618
0.000533724
0.000542623
0.000551168
0.000559221
0.000566622
0.000573214
0.000578843
0.000583339
0.000586583
0.00058843
0.000588783
0.000587528
0.000584697
0.000580103
0.0005736
0.000565337
0.000555306
0.000543687
0.000530531
0.000516059
0.000500416
0.000483784
0.000466338
0.000448278
0.000429778
0.000411028
0.000392209
0.000373477
0.000354931
0.000336696
0.000318868
0.00030152
0.000284714
0.000268495
0.000252902
0.000237959
0.000223677
0.000210056
0.000197088
0.000184761
0.000173059
0.000161969
0.000151428
0.000418725
0.000423475
0.000428712
0.000434394
0.000440539
0.000447149
0.000454222
0.000461752
0.000469725
0.000478117
0.000486894
0.000496014
0.00050542
0.00051504
0.000524792
0.000534573
0.000544266
0.000553746
0.000562864
0.000571465
0.000579388
0.000586468
0.000592535
0.000597422
0.000600989
0.000603096
0.000603634
0.000602469
0.000599624
0.000594923
0.000588224
0.000579647