/*--------------------------------*- C++ -*----------------------------------*\
| =========                 |                                                 |
| \\      /  F ield         | OpenFOAM: The Open Source CFD Toolbox           |
|  \\    /   O peration     | Version:  2312                                  |
|   \\  /    A nd           | Website:  www.openfoam.com                      |
|    \\/     M anipulation  |                                                 |
\*---------------------------------------------------------------------------*/
FoamFile
{
    version     2.0;
    format      ascii;
    arch        "LSB;label=32;scalar=64";
    class       surfaceScalarField;
    location    "700";
    object      phi;
}
// * * * * * * * * * * * * * * * * * * * * * * * * * * * * * * * * * * * * * //

dimensions      [0 3 -1 0 0 0 0];

oriented        oriented;

internalField   nonuniform List<scalar> 
116611
(
0.00120187
0.000440604
-0.00118625
-0.000456223
0.00121744
0.000437533
-0.000453105
0.00123276
0.000434128
-0.000449442
0.00124786
0.000430368
-0.000445467
0.00126291
0.000426356
-0.00044141
0.001278
0.000422054
-0.000437139
0.00129275
0.000417466
-0.00043222
0.00130759
0.000412633
-0.000427472
0.00132184
0.000407381
-0.000421631
0.00133593
0.000401752
-0.000415845
0.0013498
0.00039574
-0.000409608
0.00136349
0.000389387
-0.000403082
0.0013768
0.000382657
-0.000395958
0.00138965
0.000375488
-0.00038834
0.00140209
0.000367914
-0.000380357
0.00141406
0.000359897
-0.000371867
0.00142582
0.000351424
-0.000363184
0.00143717
0.000342593
-0.000353946
0.00144808
0.000333184
-0.000344094
0.00145851
0.000323424
-0.000333854
0.00146854
0.000313106
-0.000323129
0.00147788
0.000302321
-0.000311668
0.00148663
0.000290968
-0.000299717
0.00149492
0.000279209
-0.000287501
0.00150266
0.000266942
-0.000274681
0.00151
0.000254168
-0.000261505
0.00151669
0.000240785
-0.000247476
0.00152272
0.000226914
-0.000232943
0.0015285
0.000212608
-0.000218393
0.00153331
0.00019779
-0.000202599
0.00153791
0.000182505
-0.000187105
0.00154205
0.000166501
-0.000170641
0.00154549
0.000149986
-0.000153421
0.0015483
0.000132965
-0.000135773
0.00155051
0.000115355
-0.000117569
0.00155202
9.7317e-05
-9.88261e-05
0.00155348
7.8845e-05
-8.03042e-05
0.00155399
5.97738e-05
-6.02831e-05
0.00155407
4.01492e-05
-4.0236e-05
0.00155335
1.9853e-05
-1.9128e-05
0.00155205
-7.9066e-07
2.08874e-06
0.00155066
-2.1929e-05
2.33164e-05
0.00154832
-4.3703e-05
4.60461e-05
0.00154537
-6.59174e-05
6.88632e-05
0.00154163
-8.86187e-05
9.23625e-05
0.00153764
-0.000111613
0.000115601
0.00153297
-0.000135146
0.000139817
0.00152719
-0.000159139
0.00016492
0.00152098
-0.000183287
0.000189492
0.00151417
-0.000207711
0.000214525
0.00150647
-0.000232489
0.000240185
0.00149828
-0.000257376
0.000265567
0.00148946
-0.000282483
0.000291304
0.00147966
-0.000307854
0.00031766
0.00146835
-0.000333327
0.000344634
0.00145715
-0.000358328
0.000369524
0.00144434
-0.000383567
0.000396383
0.00143117
-0.000408401
0.000421572
0.00141729
-0.000432855
0.000446733
0.00140293
-0.000456699
0.000471053
0.00138765
-0.000480388
0.000495671
0.00137201
-0.000503578
0.000519224
0.0013558
-0.000525748
0.000541958
0.00133886
-0.000547298
0.000564229
0.00132108
-0.000567944
0.000585733
0.00130382
-0.000587105
0.000604358
0.00128675
-0.000605185
0.000622263
0.00126956
-0.000622465
0.000639651
-0.000638728
0.00124994
0.000658346
0.00118853
0.000424911
-0.00117284
0.00120405
0.000422015
0.00121937
0.00041881
0.00123445
0.000415284
0.00124939
0.000411421
0.00126416
0.000407278
0.0012788
0.000402829
0.00129335
0.000398083
0.00130769
0.000393042
0.00132179
0.00038765
0.00133563
0.000381897
0.00134924
0.000375786
0.00136259
0.000369302
0.00137563
0.000362444
0.00138833
0.000355222
0.00140065
0.000347571
0.00141257
0.000339503
0.00142416
0.000331002
0.00143529
0.000322057
0.00144606
0.000312651
0.00145638
0.000302787
0.00146624
0.000292463
0.00147556
0.000281651
0.0014844
0.000270371
0.00149274
0.000258601
0.0015006
0.000246311
0.00150786
0.000233524
0.00151454
0.000220225
0.00152073
0.000206422
0.00152637
0.000192153
0.00153155
0.000177326
0.00153612
0.000161926
0.00154009
0.000146015
0.00154348
0.000129576
0.00154623
0.000112606
0.00154843
9.51219e-05
0.00155013
7.71416e-05
0.00155124
5.86584e-05
0.00155178
3.96139e-05
0.00155161
2.00231e-05
0.00155087
-5.63564e-08
0.00154956
-2.06155e-05
0.00154753
-4.16693e-05
0.00154483
-6.32198e-05
0.00154143
-8.5215e-05
0.00153742
-0.000107604
0.00153266
-0.000130393
0.00152711
-0.000153586
0.0015209
-0.000177071
0.00151399
-0.000200806
0.00150631
-0.000224811
0.00149795
-0.000249013
0.00148885
-0.000273382
0.0014789
-0.000297901
0.00146806
-0.000322496
0.00145668
-0.000346946
0.00144443
-0.00037131
0.0014315
-0.000395478
0.00141794
-0.000419292
0.00140394
-0.000442697
0.0013893
-0.000465748
0.00137403
-0.00048831
0.00135839
-0.00051011
0.00134228
-0.00053119
0.00132579
-0.000551448
0.00130928
-0.000570594
0.00129267
-0.000588577
0.00127589
-0.000605683
-0.000621387
0.00125855
0.00117588
0.000409359
-0.00116033
0.00119133
0.000406561
0.00120665
0.000403488
0.0012218
0.000400139
0.00123673
0.000396493
0.00125146
0.000392543
0.00126601
0.000388283
0.00128038
0.000383707
0.0012946
0.000378823
0.00130863
0.000373624
0.00132243
0.000368097
0.00133598
0.000362229
0.00134928
0.000356004
0.00136231
0.000349416
0.00137507
0.000342462
0.00138751
0.000335128
0.00139962
0.000327399
0.00141136
0.00031926
0.00142272
0.000310697
0.00143367
0.000301695
0.00144421
0.00029225
0.00145432
0.000282352
0.00146398
0.000271994
0.00147318
0.000261171
0.0014819
0.000249877
0.00149012
0.000238097
0.00149782
0.000225826
0.00150498
0.000213058
0.00151161
0.000199792
0.00151774
0.000186026
0.00152332
0.000171743
0.00152831
0.000156934
0.00153273
0.000141603
0.00153655
0.000125751
0.00153977
0.000109382
0.0015424
9.24979e-05
0.00154443
7.51084e-05
0.00154588
5.72084e-05
0.00154671
3.87841e-05
0.00154689
1.98442e-05
0.00154643
4.0765e-07
0.00154532
-1.95091e-05
0.00154355
-3.99031e-05
0.0015411
-6.07676e-05
0.00153795
-8.20653e-05
0.00153411
-0.000103766
0.00152957
-0.000125851
0.00152429
-0.000148307
0.0015183
-0.000171076
0.0015116
-0.000194109
0.00150418
-0.000217394
0.00149606
-0.000240887
0.00148722
-0.000264544
0.00147764
-0.000288324
0.00146731
-0.000312164
0.00145632
-0.000335951
0.00144464
-0.000359633
0.00143231
-0.000383149
0.00141941
-0.000406391
0.001406
-0.000429284
0.00139204
-0.000451796
0.00137758
-0.000473844
0.00136273
-0.000495266
0.00134753
-0.000515984
0.001332
-0.000535919
0.00131631
-0.000554906
0.00130055
-0.000572812
0.00128463
-0.00058977
-0.000605331
0.00126858
0.00116421
0.000393988
-0.00114883
0.00117951
0.000391258
0.00119472
0.000388272
0.00120982
0.00038504
0.00122477
0.000381551
0.00123952
0.000377784
0.00125408
0.000373727
0.00126843
0.000369362
0.00128256
0.000364684
0.0012965
0.000359691
0.00131022
0.000354377
0.00132371
0.000348736
0.00133696
0.000342758
0.00134994
0.00033643
0.00136266
0.000329745
0.00137509
0.000322695
0.00138722
0.000315269
0.00139903
0.000307456
0.00141048
0.000299242
0.00142156
0.000290616
0.00143225
0.000281564
0.00144252
0.000272078
0.00145237
0.000262148
0.00146177
0.000251767
0.00147072
0.00024093
0.00147919
0.000229625
0.00148717
0.000217845
0.00149464
0.000205583
0.0015016
0.000192834
0.00150804
0.000179592
0.00151393
0.000165852
0.00151926
0.000151606
0.00152401
0.000136848
0.00152818
0.000121581
0.00153176
0.000105806
0.00153473
8.95226e-05
0.00153711
7.27353e-05
0.00153887
5.5444e-05
0.00154001
3.76479e-05
0.0015405
1.93505e-05
0.00154034
5.63263e-07
0.00153954
-1.87032e-05
0.00153807
-3.84336e-05
0.00153592
-5.86143e-05
0.00153307
-7.92223e-05
0.00152954
-0.000100233
0.00152531
-0.000121622
0.00152037
-0.000143367
0.00151472
-0.000165429
0.00150838
-0.00018777
0.00150135
-0.00021036
0.00149362
-0.000233161
0.00148521
-0.000256129
0.0014761
-0.000279216
0.0014663
-0.000302367
0.00145586
-0.000325504
0.00144479
-0.000348561
0.00143311
-0.000371476
0.00142089
-0.000394168
0.00140817
-0.000416561
0.00139497
-0.000438597
0.00138132
-0.000460196
0.0013673
-0.000481244
0.00135296
-0.000501645
0.00133835
-0.000521312
0.00132358
-0.000540128
0.00130871
-0.000557949
0.00129372
-0.000574782
-0.000590232
0.00127863
0.00115341
0.000378652
-0.00113808
0.00116863
0.000376045
0.00118373
0.000373169
0.00119872
0.000370046
0.0012136
0.000366679
0.00122832
0.000363058
0.00124288
0.000359172
0.00125723
0.000355005
0.00127138
0.000350542
0.00128529
0.000345773
0.00129898
0.00034069
0.00131243
0.000335287
0.00132563
0.000329555
0.00133858
0.000323486
0.00135125
0.000317072
0.00136364
0.000310304
0.00137574
0.000303172
0.00138753
0.000295669
0.00139899
0.000287783
0.0014101
0.000279503
0.00142084
0.000270819
0.0014312
0.000261721
0.00144115
0.000252198
0.00145067
0.000242242
0.00145976
0.000231844
0.00146839
0.000220995
0.00147655
0.000209686
0.00148422
0.000197912
0.00149139
0.000185665
0.00149804
0.000172939
0.00150417
0.000159729
0.00150975
0.000146027
0.00151476
0.00013183
0.00151921
0.000117135
0.00152307
0.000101944
0.00152634
8.62544e-05
0.00152901
7.00687e-05
0.00153106
5.33883e-05
0.0015325
3.62147e-05
0.00153329
1.85514e-05
0.00153345
4.06696e-07
0.00153296
-1.82093e-05
0.0015318
-3.72799e-05
0.00152998
-5.679e-05
0.00152748
-7.67214e-05
0.0015243
-9.70521e-05
0.00152043
-0.000117759
0.00151588
-0.000138816
0.00151065
-0.000160195
0.00150474
-0.000181859
0.00149815
-0.000203776
0.0014909
-0.000225909
0.00148299
-0.000248216
0.00147442
-0.00027065
0.00146521
-0.000293159
0.00145539
-0.00031568
0.00144498
-0.00033815
0.00143401
-0.000360506
0.00142252
-0.000382679
0.00141056
-0.000404596
0.00139815
-0.00042619
0.00138534
-0.000447384
0.00137218
-0.000468083
0.00135872
-0.000488193
0.00134503
-0.000507623
0.00133118
-0.000526273
0.00131724
-0.000544013
0.00130326
-0.000560803
-0.000576539
0.00128957
0.00114313
0.000363189
-0.00112767
0.00115841
0.000360762
0.00117353
0.000358053
0.00118849
0.000355086
0.0012033
0.000351865
0.00121797
0.000348393
0.00123248
0.000344663
0.00124681
0.00034067
0.00126095
0.000336402
0.00127488
0.000331847
0.00128858
0.000326994
0.00130203
0.000321833
0.00131523
0.000316355
0.00132816
0.000310551
0.00134082
0.000304413
0.0013532
0.000297931
0.00136527
0.000291098
0.00137703
0.000283904
0.00138848
0.000276341
0.00139958
0.000268399
0.00141033
0.000260069
0.00142071
0.000251342
0.0014307
0.000242207
0.00144029
0.000232657
0.00144945
0.000222681
0.00145817
0.00021227
0.00146644
0.000201417
0.00147424
0.000190114
0.00148155
0.000178353
0.00148836
0.000166129
0.00149466
0.000153433
0.00150042
0.000140262
0.00150564
0.00012661
0.0015103
0.000112474
0.00151439
9.78525e-05
0.0015179
8.27447e-05
0.00152082
6.71506e-05
0.00152314
5.10714e-05
0.00152484
3.4509e-05
0.00152593
1.7467e-05
0.00152638
-4.77976e-08
0.0015262
-1.80256e-05
0.00152537
-3.64504e-05
0.00152389
-5.53077e-05
0.00152175
-7.4581e-05
0.00151895
-9.42508e-05
0.00151548
-0.000114295
0.00151136
-0.00013469
0.00150657
-0.000155409
0.00150113
-0.000176419
0.00149504
-0.000197688
0.00148832
-0.000219181
0.00148096
-0.000240858
0.00147298
-0.000262673
0.0014644
-0.000284579
0.00145524
-0.000306519
0.00144552
-0.000328435
0.00143528
-0.000350266
0.00142455
-0.000371948
0.00141337
-0.000393413
0.00140177
-0.000414593
0.0013898
-0.000435409
0.0013775
-0.00045578
0.00136492
-0.000475616
0.00135212
-0.000494824
0.00133916
-0.000513315
0.00132611
-0.000530966
0.00131304
-0.000547724
-0.000563661
0.00130016
0.00113312
0.000347572
-0.00111751
0.00114856
0.000345328
0.0011638
0.00034281
0.00117885
0.000340034
0.00119372
0.000337003
0.0012084
0.000333713
0.0012229
0.000330165
0.00123721
0.000326355
0.00125133
0.000322277
0.00126525
0.000317926
0.00127896
0.000313292
0.00129242
0.000308366
0.00130564
0.000303138
0.00131859
0.000297597
0.00133127
0.000291735
0.00134366
0.000285543
0.00135575
0.000279012
0.00136752
0.000272132
0.00137897
0.000264894
0.00139007
0.000257291
0.00140083
0.000249313
0.00141122
0.000240951
0.00142123
0.000232196
0.00143085
0.00022304
0.00144006
0.000213474
0.00144884
0.00020349
0.00145718
0.000193078
0.00146506
0.000182232
0.00147247
0.000170943
0.00147939
0.000159204
0.00148582
0.00014701
0.00149172
0.000134354
0.0014971
0.000121231
0.00150194
0.000107638
0.00150622
9.35707e-05
0.00150994
7.90288e-05
0.00151308
6.4011e-05
0.00151563
4.8518e-05
0.00151759
3.25512e-05
0.00151894
1.61139e-05
0.00151968
-7.88565e-07
0.0015198
-1.8146e-05
0.0015193
-3.59441e-05
0.00151816
-5.41691e-05
0.00151638
-7.28063e-05
0.00151397
-9.18379e-05
0.00151092
-0.000111244
0.00150723
-0.000131002
0.00150291
-0.000151087
0.00149796
-0.000171469
0.00149239
-0.000192118
0.0014862
-0.000212999
0.00147942
-0.000234075
0.00147205
-0.000255303
0.00146411
-0.000276637
0.00145562
-0.000298027
0.0014466
-0.000319418
0.00143709
-0.000340753
0.00142711
-0.00036197
0.0014167
-0.000383005
0.0014059
-0.00040379
0.00139474
-0.000424252
0.00138327
-0.000444312
0.00137154
-0.000463886
0.0013596
-0.000482885
0.00134751
-0.00050122
0.00133531
-0.000518772
0.00132306
-0.000535467
-0.000551346
0.00131074
0.00112347
0.000331878
-0.00110778
0.00113902
0.000329782
0.0011544
0.000327433
0.00116959
0.000324844
0.00118458
0.000322012
0.00119936
0.000318928
0.00121394
0.000315589
0.00122831
0.000311988
0.00124246
0.000308122
0.0012564
0.000303987
0.00127012
0.000299576
0.0012836
0.000294883
0.00129684
0.0002899
0.00130982
0.000284618
0.00132252
0.000279029
0.00133494
0.000273123
0.00134707
0.000266891
0.00135887
0.000260324
0.00137035
0.000253413
0.0013815
0.000246149
0.00139229
0.000238523
0.00140271
0.000230526
0.00141276
0.000222149
0.00142241
0.000213385
0.00143166
0.000204224
0.0014405
0.000194658
0.0014489
0.000184679
0.00145685
0.000174279
0.00146434
0.000163451
0.00147136
0.000152187
0.00147789
0.00014048
0.00148392
0.000128326
0.00148943
0.000115717
0.00149442
0.000102651
0.00149887
8.91225e-05
0.00150276
7.51301e-05
0.0015061
6.06721e-05
0.00150887
4.57482e-05
0.00151106
3.03595e-05
0.00151267
1.45081e-05
0.00151368
-1.80135e-06
0.0015141
-1.85586e-05
0.0015139
-3.5751e-05
0.0015131
-5.33661e-05
0.00151168
-7.13904e-05
0.00150965
-8.98081e-05
0.00150701
-0.000108601
0.00150376
-0.000127748
0.00149989
-0.000147225
0.00149543
-0.000167006
0.00149038
-0.000187061
0.00148474
-0.000207359
0.00147852
-0.000227862
0.00147175
-0.000248531
0.00146444
-0.000269323
0.0014566
-0.000290191
0.00144827
-0.000311083
0.00143946
-0.000331945
0.00143021
-0.000352719
0.00142054
-0.000373343
0.00141051
-0.000393753
0.00140013
-0.000413878
0.00138947
-0.000433644
0.00137855
-0.000452972
0.00136744
-0.000471776
0.00135619
-0.000489965
0.00134485
-0.000507435
0.00133342
-0.00052404
-0.000540135
0.00132221
0.00111441
0.000316185
-0.00109872
0.00112999
0.000314207
0.00114543
0.000311995
0.00116071
0.000309563
0.00117581
0.000306908
0.00119072
0.00030402
0.00120542
0.000300889
0.0012199
0.000297508
0.00123415
0.000293869
0.00124817
0.000289967
0.00126195
0.000285794
0.00127549
0.000281346
0.00128877
0.000276616
0.00130179
0.000271597
0.00131454
0.000266281
0.001327
0.00026066
0.00133917
0.000254725
0.00135103
0.000248469
0.00136256
0.000241882
0.00137375
0.000234954
0.0013846
0.000227678
0.00139508
0.000220044
0.00140518
0.000212044
0.0014149
0.000203669
0.00142421
0.00019491
0.00143311
0.000185759
0.00144158
0.000176207
0.00144961
0.000166248
0.00145719
0.000155873
0.0014643
0.000145075
0.00147094
0.000133847
0.00147708
0.000122182
0.00148272
0.000110076
0.00148785
9.75234e-05
0.00149245
8.45196e-05
0.00149652
7.10617e-05
0.00150004
5.71476e-05
0.00150302
4.27762e-05
0.00150543
2.79479e-05
0.00150727
1.26639e-05
0.00150854
-3.07205e-06
0.00150923
-1.92493e-05
0.00150934
-3.58571e-05
0.00150886
-5.28844e-05
0.00150779
-7.03193e-05
0.00150613
-8.81471e-05
0.00150388
-0.000106351
0.00150104
-0.000124912
0.00149762
-0.000143808
0.00149363
-0.000163014
0.00148907
-0.000182502
0.00148395
-0.000202241
0.00147829
-0.000222198
0.00147209
-0.000242335
0.00146538
-0.000262611
0.00145817
-0.000282982
0.00145049
-0.000303399
0.00144235
-0.00032381
0.0014338
-0.000344162
0.00142485
-0.000364395
0.00141554
-0.000384448
0.00140592
-0.000404254
0.00139602
-0.000423743
0.00138589
-0.00044284
0.00137558
-0.000461468
0.00136515
-0.000479536
0.00135469
-0.000496976
0.00134415
-0.000513496
-0.000529821
0.00133383
0.00110612
0.000300516
-0.00109045
0.00112167
0.000298648
0.00113711
0.000296557
0.00115241
0.000294261
0.00116756
0.000291758
0.00118254
0.00028904
0.00119734
0.000286098
0.00121192
0.000282922
0.00122629
0.000279504
0.00124042
0.000275834
0.00125431
0.000271906
0.00126794
0.000267711
0.00128131
0.000263243
0.00129442
0.000258495
0.00130724
0.000253459
0.00131977
0.000248128
0.001332
0.000242494
0.00134392
0.000236549
0.00135552
0.000230285
0.00136678
0.000223694
0.00137769
0.000216766
0.00138824
0.000209493
0.00139842
0.000201866
0.00140821
0.000193877
0.00141761
0.000185517
0.00142659
0.000176777
0.00143514
0.00016765
0.00144327
0.000158126
0.00145094
0.000148198
0.00145816
0.00013786
0.0014649
0.000127102
0.00147116
0.00011592
0.00147693
0.000104306
0.0014822
9.22563e-05
0.00148695
7.9765e-05
0.00149119
6.68287e-05
0.00149489
5.34445e-05
0.00149806
3.96106e-05
0.00150068
2.53265e-05
0.00150275
1.05927e-05
0.00150426
-4.58746e-06
0.00150522
-2.02036e-05
0.00150561
-3.62469e-05
0.00150543
-5.27076e-05
0.00150469
-6.95749e-05
0.00150338
-8.68356e-05
0.0015015
-0.000104475
0.00149906
-0.000122474
0.00149607
-0.000140812
0.00149252
-0.000159468
0.00148843
-0.000178413
0.00148381
-0.00019762
0.00147867
-0.000217056
0.00147302
-0.000236685
0.00146688
-0.00025647
0.00146026
-0.000276367
0.0014532
-0.000296332
0.0014457
-0.000316316
0.00143781
-0.000336267
0.00142954
-0.000356129
0.00142094
-0.000375844
0.00141203
-0.000395349
0.00140287
-0.000414579
0.00139349
-0.000433464
0.00138395
-0.000451932
0.00137432
-0.000469904
0.00136468
-0.000487338
0.00135511
-0.000503925
-0.000520779
0.00134607
0.00109865
0.000284863
-0.001083
0.00111419
0.000283108
0.00112962
0.000281136
0.00114491
0.00027897
0.00116006
0.000276608
0.00117505
0.000274045
0.00118988
0.000271272
0.00120452
0.000268282
0.00121896
0.000265066
0.00123318
0.000261615
0.00124716
0.00025792
0.0012609
0.000253973
0.00127438
0.000249765
0.00128759
0.000245289
0.00130051
0.000240536
0.00131314
0.000235499
0.00132546
0.000230169
0.00133747
0.00022454
0.00134916
0.000218602
0.0013605
0.000212348
0.0013715
0.000205769
0.00138213
0.000198856
0.0013924
0.000191602
0.00140228
0.000183998
0.00141176
0.000176034
0.00142084
0.000167702
0.00142949
0.000158995
0.00143771
0.000149903
0.00144549
0.000140418
0.00145282
0.000130533
0.00145968
0.000120241
0.00146607
0.000109533
0.00147197
9.84042e-05
0.00147738
8.68481e-05
0.00148228
7.48594e-05
0.00148668
6.24337e-05
0.00149056
4.95674e-05
0.00149391
3.6258e-05
0.00149673
2.25041e-05
0.00149902
8.30521e-06
0.00150077
-6.33517e-06
0.00150197
-2.14075e-05
0.00150263
-3.69046e-05
0.00150274
-5.28181e-05
0.0015023
-6.91383e-05
0.00150132
-8.58533e-05
0.00149979
-0.000102949
0.00149773
-0.000120409
0.00149513
-0.000138214
0.00149201
-0.000156343
0.00148836
-0.00017477
0.00148421
-0.000193468
0.00147956
-0.000212407
0.00147443
-0.000231554
0.00146883
-0.000250871
0.00146278
-0.000270319
0.00145631
-0.000289855
0.00144942
-0.000309434
0.00144216
-0.000329006
0.00143455
-0.000348518
0.00142662
-0.000367917
0.00141842
-0.000387142
0.00140997
-0.000406133
0.00140133
-0.000424823
0.00139254
-0.000443146
0.00138367
-0.000461031
0.00137476
-0.000478429
0.00136596
-0.00049512
-0.00051254
0.00135772
0.00109203
0.00026921
-0.00107638
0.00110757
0.000267569
0.00112299
0.000265721
0.00113827
0.000263686
0.00115342
0.000261465
0.00116841
0.000259053
0.00118324
0.000256443
0.00119789
0.000253628
0.00121236
0.000250601
0.00122662
0.000247353
0.00124066
0.000243877
0.00125447
0.000240164
0.00126803
0.000236205
0.00128132
0.000231992
0.00129434
0.000227516
0.00130707
0.000222769
0.0013195
0.000217742
0.00133161
0.000212427
0.0013434
0.000206816
0.00135485
0.0002009
0.00136594
0.000194671
0.00137668
0.00018812
0.00138704
0.000181238
0.00139702
0.000174018
0.00140661
0.000166449
0.00141579
0.000158524
0.00142455
0.000150235
0.00143288
0.000141571
0.00144077
0.000132526
0.00144821
0.000123091
0.0014552
0.000113258
0.00146171
0.00010302
0.00146774
9.2369e-05
0.00147329
8.12995e-05
0.00147835
6.98051e-05
0.0014829
5.78809e-05
0.00148695
4.55223e-05
0.00149048
3.27261e-05
0.00149349
1.94901e-05
0.00149598
5.81278e-06
0.00149795
-8.30215e-06
0.00149939
-2.28462e-05
0.0015003
-3.78139e-05
0.00150068
-5.31981e-05
0.00150053
-6.89902e-05
0.00149986
-8.51795e-05
0.00149866
-0.000101753
0.00149695
-0.000118696
0.00149472
-0.00013599
0.001492
-0.000153614
0.00148877
-0.000171547
0.00148506
-0.00018976
0.00148088
-0.000208227
0.00147625
-0.000226915
0.00147116
-0.000245789
0.00146566
-0.000264812
0.00145975
-0.000283944
0.00145345
-0.000303142
0.00144681
-0.000322359
0.00143983
-0.000341546
0.00143257
-0.000360652
0.00142505
-0.000379621
0.00141731
-0.000398396
0.0014094
-0.000416913
0.00140136
-0.000435108
0.00139324
-0.000452912
0.00138506
-0.000470241
0.00137685
-0.000486909
-0.000504018
0.00136832
0.00108626
0.000253545
-0.0010706
0.00110181
0.00025202
0.00111724
0.000250295
0.00113253
0.000248393
0.00114768
0.000246316
0.00116268
0.000244057
0.00117751
0.00024161
0.00119217
0.000238969
0.00120664
0.000236127
0.00122092
0.000233077
0.00123499
0.000229811
0.00124883
0.000226322
0.00126243
0.000222601
0.00127579
0.00021864
0.00128887
0.00021443
0.00130168
0.000209964
0.00131419
0.000205232
0.00132639
0.000200225
0.00133827
0.000194936
0.00134982
0.000189354
0.00136102
0.000183472
0.00137186
0.00017728
0.00138233
0.000170769
0.00139241
0.000163931
0.0014021
0.000156757
0.00141139
0.000149237
0.00142026
0.000141364
0.00142871
0.000133127
0.00143671
0.000124519
0.00144427
0.000115531
0.00145138
0.000106154
0.00145802
9.63802e-05
0.00146418
8.62026e-05
0.00146987
7.56139e-05
0.00147507
6.46072e-05
0.00147977
5.31767e-05
0.00148398
4.13173e-05
0.00148768
2.90247e-05
0.00149087
1.62959e-05
0.00149356
3.12824e-06
0.00149573
-1.04739e-05
0.00149739
-2.45041e-05
0.00149853
-3.89579e-05
0.00149916
-5.38295e-05
0.00149928
-6.91115e-05
0.0014989
-8.47943e-05
0.00149801
-0.000100866
0.00149663
-0.000117313
0.00149476
-0.000134118
0.0014924
-0.000151262
0.00148958
-0.000168723
0.0014863
-0.000186476
0.00148256
-0.000204495
0.0014784
-0.00022275
0.00147382
-0.000241207
0.00146884
-0.000259831
0.00146348
-0.000278585
0.00145776
-0.000297428
0.00145172
-0.000316317
0.00144538
-0.000335204
0.00143877
-0.000354044
0.00143193
-0.000372781
0.0014249
-0.000391364
0.00141772
-0.000409731
0.00141043
-0.000427821
0.00140309
-0.000445569
0.00139575
-0.000462907
0.00138846
-0.000479617
-0.000496992
0.00138144
0.00108135
0.00023786
-0.00106567
0.00109692
0.000236449
0.00111237
0.000234847
0.00112769
0.000233079
0.00114286
0.000231145
0.00115787
0.00022904
0.00117272
0.000226758
0.0011874
0.000224292
0.00120189
0.000221636
0.00121619
0.000218783
0.00123027
0.000215726
0.00124414
0.000212457
0.00125777
0.000208969
0.00127115
0.000205254
0.00128428
0.000201304
0.00129713
0.000197111
0.0013097
0.000192666
0.00132196
0.00018796
0.00133391
0.000182985
0.00134554
0.000177731
0.00135682
0.00017219
0.00136775
0.000166352
0.00137831
0.000160208
0.00138849
0.000153749
0.00139828
0.000146965
0.00140767
0.000139848
0.00141665
0.000132388
0.0014252
0.000124575
0.00143332
0.000116401
0.00144099
0.000107857
0.00144821
9.89327e-05
0.00145497
8.96205e-05
0.00146126
7.99119e-05
0.00146708
6.9799e-05
0.00147241
5.92744e-05
0.00147725
4.83313e-05
0.00148161
3.69636e-05
0.00148547
2.51662e-05
0.00148883
1.2935e-05
0.00149169
2.66459e-07
0.00149405
-1.28342e-05
0.00149591
-2.63638e-05
0.00149727
-4.03185e-05
0.00149813
-5.46937e-05
0.0014985
-6.94833e-05
0.00149839
-8.46785e-05
0.00149779
-0.000100269
0.00149672
-0.000116241
0.00149518
-0.00013258
0.00149319
-0.000149267
0.00149075
-0.000166282
0.00148787
-0.000183601
0.00148458
-0.000201199
0.00148087
-0.000219047
0.00147678
-0.000237114
0.00147232
-0.000255368
0.0014675
-0.000273771
0.00146236
-0.000292287
0.00145692
-0.000310875
0.00145121
-0.00032949
0.00144525
-0.000348089
0.00143909
-0.00036662
0.00143276
-0.000385035
0.0014263
-0.000403276
0.00141977
-0.000421289
0.00141323
-0.000439028
0.00140674
-0.00045642
0.00140048
-0.000473355
-0.000490398
0.00139389
0.00107732
0.000222141
-0.0010616
0.00109292
0.000220846
0.0011084
0.000219368
0.00112375
0.000217733
0.00113895
0.000215942
0.001154
0.000213991
0.00116888
0.000211873
0.00118359
0.000209583
0.00119812
0.000207114
0.00121244
0.000204458
0.00122656
0.00020161
0.00124045
0.000198563
0.00125411
0.000195307
0.00126753
0.000191837
0.00128069
0.000188145
0.00129358
0.000184221
0.00130619
0.000180059
0.0013185
0.000175649
0.0013305
0.000170983
0.00134218
0.000166052
0.00135352
0.000160846
0.00136451
0.000155357
0.00137515
0.000149575
0.0013854
0.00014349
0.00139528
0.000137093
0.00140475
0.000130375
0.00141381
0.000123324
0.00142246
0.000115932
0.00143067
0.000108189
0.00143844
0.000100085
0.00144576
9.16101e-05
0.00145263
8.27555e-05
0.00145903
7.35119e-05
0.00146496
6.38704e-05
0.00147041
5.38227e-05
0.00147538
4.33611e-05
0.00147987
3.24784e-05
0.00148386
2.11685e-05
0.00148737
9.42593e-06
0.00149039
-2.75315e-06
0.00149292
-1.53637e-05
0.00149496
-2.84055e-05
0.00149652
-4.18758e-05
0.0014976
-5.5771e-05
0.0014982
-7.00859e-05
0.00149833
-8.48133e-05
0.00149801
-9.99433e-05
0.00149723
-0.000115464
0.00149601
-0.000131361
0.00149436
-0.000147616
0.00149229
-0.000164211
0.00148981
-0.000181123
0.00148694
-0.000198328
0.00148369
-0.000215798
0.00148008
-0.000233504
0.00147613
-0.000251415
0.00147186
-0.000269498
0.00146728
-0.000287714
0.00146244
-0.000306029
0.00145735
-0.000324398
0.00145204
-0.000342781
0.00144655
-0.000361133
0.00144092
-0.000379407
0.0014352
-0.000397558
0.00142946
-0.000415541
0.00142373
-0.000433306
0.00141811
-0.000450793
0.00141246
-0.00046771
-0.000485282
0.00140735
0.00107418
0.00020638
-0.00105842
0.00108983
0.0002052
0.00110535
0.000203846
0.00112074
0.000202344
0.00113598
0.000200696
0.00115108
0.000198899
0.00116601
0.000196945
0.00118076
0.00019483
0.00119533
0.000192547
0.00120969
0.000190089
0.00122385
0.000187451
0.00123779
0.000184624
0.0012515
0.000181602
0.00126496
0.000178378
0.00127816
0.000174942
0.00129109
0.000171289
0.00130374
0.000167409
0.0013161
0.000163294
0.00132815
0.000158935
0.00133987
0.000154324
0.00135127
0.000149452
0.00136232
0.000144309
0.00137301
0.000138886
0.00138332
0.000133172
0.00139326
0.000127159
0.0014028
0.000120835
0.00141193
0.000114192
0.00142065
0.000107217
0.00142893
9.99017e-05
0.00143678
9.2235e-05
0.00144419
8.42065e-05
0.00145114
7.58061e-05
0.00145762
6.70237e-05
0.00146364
5.78495e-05
0.00146919
4.82741e-05
0.00147427
3.82886e-05
0.00147886
2.78847e-05
0.00148297
1.70548e-05
0.00148661
5.79222e-06
0.00148976
-5.90641e-06
0.00149244
-1.80386e-05
0.00149464
-3.06055e-05
0.00149637
-4.3606e-05
0.00149763
-5.70378e-05
0.00149844
-7.08967e-05
0.00149881
-8.51764e-05
0.00149873
-9.98683e-05
0.00149823
-0.000114961
0.00149731
-0.000130441
0.00149598
-0.000146292
0.00149427
-0.000162495
0.00149217
-0.000179029
0.00148972
-0.00019587
0.00148691
-0.000212992
0.00148377
-0.000230367
0.00148032
-0.000247965
0.00147658
-0.000265754
0.00147257
-0.000283701
0.00146831
-0.000301768
0.00146383
-0.000319919
0.00145916
-0.000338116
0.00145435
-0.000356319
0.00144943
-0.000374493
0.00144447
-0.000392597
0.00143952
-0.000410586
0.0014346
-0.000428386
0.00142967
-0.000445867
0.00142463
-0.000462673
-0.000480032
0.00141938
0.00107198
0.000190571
-0.00105617
0.00108768
0.000189506
0.00110325
0.000188273
0.00111869
0.000186903
0.00113399
0.000185398
0.00114913
0.000183753
0.00116411
0.000181964
0.00117892
0.000180023
0.00119354
0.000177926
0.00120797
0.000175666
0.00122218
0.000173236
0.00123618
0.00017063
0.00124994
0.000167841
0.00126345
0.000164862
0.00127671
0.000161684
0.0012897
0.000158301
0.0013024
0.000154703
0.00131481
0.000150884
0.00132692
0.000146833
0.0013387
0.000142543
0.00135014
0.000138004
0.00136125
0.000133207
0.00137199
0.000128142
0.00138236
0.0001228
0.00139235
0.000117169
0.00140195
0.00011124
0.00141114
0.000105002
0.00141991
9.84446e-05
0.00142825
9.1556e-05
0.00143616
8.43254e-05
0.00144363
7.67416e-05
0.00145064
6.87937e-05
0.00145719
6.04704e-05
0.00146328
5.17608e-05
0.0014689
4.26543e-05
0.00147405
3.31407e-05
0.00147872
2.32104e-05
0.00148293
1.28543e-05
0.00148665
2.06415e-06
0.00148991
-9.1626e-06
0.0014927
-2.08278e-05
0.00149503
-3.2933e-05
0.0014969
-4.54789e-05
0.00149833
-5.84645e-05
0.00149932
-7.18869e-05
0.00149988
-8.57406e-05
0.00150003
-0.000100018
0.00149978
-0.000114708
0.00149914
-0.000129799
0.00149812
-0.000145274
0.00149674
-0.000161114
0.00149501
-0.0001773
0.00149294
-0.000193807
0.00149056
-0.000210612
0.00148788
-0.000227686
0.00148492
-0.000245001
0.00148169
-0.000262527
0.00147822
-0.000280231
0.00147454
-0.000298083
0.00147067
-0.000316047
0.00146664
-0.000334094
0.00146251
-0.000352187
0.00145831
-0.00037029
0.00145407
-0.000388353
0.00144977
-0.00040629
0.00144538
-0.000423992
0.00144085
-0.000441347
0.00143634
-0.000458157
-0.000475646
0.00143195
0.00107079
0.000174716
-0.00105493
0.00108653
0.000173761
0.00110216
0.000172648
0.00111765
0.000171408
0.00113301
0.000170043
0.00114821
0.000168549
0.00116325
0.000166921
0.00117812
0.000165154
0.00119281
0.000163241
0.0012073
0.000161178
0.00122158
0.000158956
0.00123563
0.000156571
0.00124946
0.000154014
0.00126304
0.00015128
0.00127637
0.00014836
0.00128942
0.000145246
0.00130219
0.000141932
0.00131467
0.000138409
0.00132683
0.000134667
0.00133868
0.000130699
0.00135019
0.000126495
0.00136135
0.000122045
0.00137215
0.00011734
0.00138258
0.00011237
0.00139263
0.000107124
0.00140228
0.000101592
0.00141152
9.57611e-05
0.00142034
8.96214e-05
0.00142874
8.31609e-05
0.00143669
7.63677e-05
0.0014442
6.92297e-05
0.00145126
6.17349e-05
0.00145786
5.38709e-05
0.001464
4.56256e-05