/*--------------------------------*- C++ -*----------------------------------*\
| =========                 |                                                 |
| \\      /  F ield         | OpenFOAM: The Open Source CFD Toolbox           |
|  \\    /   O peration     | Version:  2312                                  |
|   \\  /    A nd           | Website:  www.openfoam.com                      |
|    \\/     M anipulation  |                                                 |
\*---------------------------------------------------------------------------*/
FoamFile
{
    version     2.0;
    format      ascii;
    arch        "LSB;label=32;scalar=64";
    class       volVectorField;
    location    "700";
    object      U;
}
// * * * * * * * * * * * * * * * * * * * * * * * * * * * * * * * * * * * * * //

dimensions      [0 1 -1 0 0 0 0];

internalField   nonuniform List<vector> 
76025
(
(0.040267 -0.00821192 0)
(0.0405 -0.00818737 1.84402e-22)
(0.040731 -0.00815843 0)
(0.0409593 -0.00812284 0)
(0.0411956 -0.00808329 -1.77711e-22)
(0.0414372 -0.00802102 -1.52246e-22)
(0.0416864 -0.00796519 1.31942e-22)
(0.0419396 -0.00789045 -1.22471e-23)
(0.0421864 -0.00781488 6.59465e-23)
(0.0424285 -0.00773031 -1.00765e-22)
(0.0426727 -0.00763589 3.26813e-23)
(0.0429211 -0.00752869 -5.00724e-22)
(0.0431708 -0.00741459 6.6894e-22)
(0.0434149 -0.00728855 0)
(0.0436508 -0.00714588 -2.73212e-22)
(0.0438849 -0.00700533 0)
(0.0441139 -0.00684178 0)
(0.0443445 -0.00667679 0)
(0.0445695 -0.00649497 -3.64621e-22)
(0.0447898 -0.00631109 4.45695e-22)
(0.0450032 -0.00610856 4.79252e-22)
(0.0452099 -0.00589943 1.472e-21)
(0.045406 -0.00567966 -1.01151e-21)
(0.0455936 -0.00544533 -1.72493e-21)
(0.0457748 -0.00520397 -6.15384e-23)
(0.0459524 -0.00495422 -7.15149e-22)
(0.0461187 -0.00468491 1.99643e-21)
(0.0462811 -0.0044125 -2.02434e-21)
(0.0464357 -0.00412231 6.97933e-22)
(0.0465803 -0.00381537 -7.30851e-22)
(0.0467143 -0.00351989 -7.69009e-22)
(0.0468488 -0.00320381 1.69008e-21)
(0.0469716 -0.00287197 -2.58217e-21)
(0.0470877 -0.002539 -4.65146e-22)
(0.0471909 -0.00219099 2.36538e-21)
(0.0472856 -0.00183713 1.62455e-23)
(0.0473749 -0.00146286 -4.88864e-22)
(0.0474581 -0.00108034 2.7209e-22)
(0.047532 -0.000698456 1.81681e-23)
(0.0475934 -0.000300279 -4.20322e-22)
(0.0476427 0.000100672 2.88354e-22)
(0.047687 0.000521631 -1.42824e-22)
(0.0477274 0.000958829 2.87981e-22)
(0.0477531 0.00140172 -5.81691e-22)
(0.0477617 0.00185701 -6.07241e-22)
(0.0477601 0.00232252 1.15008e-21)
(0.0477535 0.00280332 1.2238e-21)
(0.0477279 0.00329129 -3.7038e-21)
(0.0476798 0.00379343 2.36564e-21)
(0.0476206 0.00430806 -6.66485e-23)
(0.0475453 0.00483473 -6.12006e-21)
(0.0474502 0.00537746 -2.36743e-21)
(0.0473387 0.00593344 2.51964e-21)
(0.0472041 0.006508 0)
(0.0470332 0.00708524 -2.35938e-21)
(0.0468312 0.00767928 -2.51106e-21)
(0.0466088 0.0082814 7.73663e-23)
(0.0463457 0.00890611 -2.41618e-21)
(0.0460496 0.00955502 2.42477e-21)
(0.0457179 0.0102345 -7.07452e-21)
(0.045386 0.0108708 -5.01525e-21)
(0.0449867 0.0115678 -3.64427e-22)
(0.0445513 0.0122797 0)
(0.0440785 0.0130027 1.22025e-20)
(0.0435581 0.0137353 -4.50421e-21)
(0.0429928 0.0144766 2.4513e-21)
(0.0424011 0.0152617 -4.74088e-21)
(0.0417539 0.0160581 5.197e-21)
(0.0411805 0.0168615 1.00397e-20)
(0.0402868 -0.00860962 2.0449e-22)
(0.040533 -0.00858514 4.54129e-22)
(0.0407779 -0.0085531 -6.41778e-22)
(0.0410226 -0.00851445 0)
(0.0412668 -0.00846773 2.65862e-22)
(0.0415168 -0.00841127 -1.51615e-22)
(0.0417676 -0.008346 -3.38476e-23)
(0.0420246 -0.00827117 0)
(0.0422849 -0.00818769 3.58193e-23)
(0.0425443 -0.0080957 1.04528e-22)
(0.0428026 -0.00799443 -1.4048e-22)
(0.0430613 -0.00788298 4.10621e-23)
(0.0433202 -0.00776178 0)
(0.0435797 -0.00762961 0)
(0.0438377 -0.00748618 -6.82567e-22)
(0.0440897 -0.00733322 1.65936e-21)
(0.0443399 -0.00716813 4.02764e-22)
(0.0445853 -0.00699346 -1.3019e-21)
(0.0448281 -0.00680723 8.62863e-22)
(0.045065 -0.00661085 -4.59409e-22)
(0.045299 -0.00640241 5.81566e-22)
(0.045527 -0.00618364 -1.07769e-21)
(0.0457476 -0.00595339 1.21684e-21)
(0.0459611 -0.00571094 -1.9098e-21)
(0.0461676 -0.00545737 1.29231e-21)
(0.0463672 -0.00519296 2.09823e-21)
(0.0465609 -0.00491768 -1.43714e-21)
(0.0467424 -0.00463143 0)
(0.0469169 -0.00433251 0)
(0.0470846 -0.00402179 -8.7736e-22)
(0.0472439 -0.00370178 0)
(0.0473955 -0.00337087 -9.51529e-22)
(0.0475388 -0.00302903 9.66633e-22)
(0.0476702 -0.00267735 -1.48751e-21)
(0.0477923 -0.00231391 3.72987e-23)
(0.0479036 -0.00193894 -5.12738e-22)
(0.0480073 -0.00154945 0)
(0.0481034 -0.00115154 -1.14421e-21)
(0.0481888 -0.000744629 8.9091e-22)
(0.0482624 -0.000327232 -7.49974e-22)
(0.0483242 0.000102763 4.68168e-22)
(0.0483753 0.000546662 -3.19614e-24)
(0.0484147 0.000997576 1.70541e-22)
(0.0484395 0.0014569 -1.58982e-22)
(0.0484494 0.00192767 1.31366e-21)
(0.0484452 0.00241251 -6.66855e-22)
(0.0484269 0.00290802 -6.95358e-22)
(0.0483907 0.00341147 1.25937e-21)
(0.048335 0.00393073 3.91505e-21)
(0.0482618 0.00446523 -3.47227e-23)
(0.0481701 0.00501153 3.87494e-21)
(0.048057 0.00557204 -1.31069e-21)
(0.0479224 0.00614524 -3.84748e-21)
(0.0477644 0.00672791 2.60087e-21)
(0.0475793 0.00731927 0)
(0.0473641 0.00793278 7.84832e-21)
(0.0471241 0.00855663 1.54037e-23)
(0.0468523 0.00919681 -2.60851e-21)
(0.0465492 0.00985221 -2.71014e-21)
(0.0462175 0.0105228 0)
(0.0458558 0.0112098 2.43292e-21)
(0.0454563 0.0119128 7.69923e-21)
(0.0450197 0.0126292 0)
(0.0445483 0.0133599 -5.11088e-21)
(0.0440389 0.0141059 3.08331e-21)
(0.0434809 0.0148763 -5.37336e-21)
(0.0428899 0.0156731 2.69449e-21)
(0.0422478 0.0164595 -5.25632e-21)
(0.0416139 0.0173188 -5.26504e-21)
(0.0403108 -0.0090335 -9.2148e-22)
(0.0405686 -0.00900618 5.68706e-22)
(0.0408274 -0.00897115 -1.03107e-22)
(0.0410888 -0.00892932 2.25415e-22)
(0.0413503 -0.00887898 -2.43541e-22)
(0.0416122 -0.00881996 1.00399e-22)
(0.0418745 -0.0087513 -1.63332e-22)
(0.0421388 -0.00867333 0)
(0.0424062 -0.00858557 3.84529e-23)
(0.042676 -0.00848786 0)
(0.0429468 -0.00838009 2.25843e-22)
(0.0432177 -0.00826226 -2.22439e-22)
(0.0434881 -0.00813425 -1.51422e-21)
(0.0437579 -0.0079957 1.20572e-21)
(0.0440277 -0.00784624 -3.36261e-22)
(0.044296 -0.00768538 -1.20741e-21)
(0.0445621 -0.00751355 4.21851e-22)
(0.0448248 -0.00733039 4.47846e-22)
(0.0450838 -0.00713635 1.59809e-21)
(0.0453382 -0.00693077 -1.05923e-21)
(0.0455878 -0.00671386 -6.15002e-22)
(0.0458322 -0.00648539 1.2813e-21)
(0.0460708 -0.00624524 -5.92606e-22)
(0.0463035 -0.00599293 -7.28469e-22)
(0.0465298 -0.00572861 0)
(0.0467487 -0.00545267 8.03828e-22)
(0.0469599 -0.00516559 8.0657e-22)
(0.0471624 -0.00486671 -7.75985e-22)
(0.0473564 -0.0045557 0)
(0.0475423 -0.00423299 1.83864e-21)
(0.0477201 -0.00389847 -9.92589e-22)
(0.0478882 -0.00355335 -7.34967e-23)
(0.0480459 -0.00319748 0)
(0.048193 -0.00283024 5.15396e-22)
(0.0483295 -0.00245166 -1.6529e-21)
(0.0484552 -0.00206146 1.12899e-21)
(0.04857 -0.00165958 0)
(0.048674 -0.00124702 9.10532e-22)
(0.0487669 -0.000823754 -9.47431e-22)
(0.0488473 -0.00039005 -1.56893e-22)
(0.048915 5.49196e-05 0)
(0.0489691 0.000510819 -3.38192e-22)
(0.0490096 0.000976979 -1.71149e-22)
(0.0490358 0.00145437 1.6054e-22)
(0.0490466 0.00194371 -1.00596e-21)
(0.0490412 0.00244535 -7.11597e-22)
(0.0490192 0.00295851 1.3405e-21)
(0.0489795 0.00348328 -1.39394e-21)
(0.0489207 0.00402147 1.43148e-21)
(0.0488426 0.00457272 -1.38543e-21)
(0.0487447 0.00513604 -1.3522e-21)
(0.0486257 0.00571207 2.88463e-21)
(0.0484847 0.00630056 0)
(0.0483203 0.00690108 2.89192e-21)
(0.0481304 0.00751443 8.3056e-23)
(0.0479131 0.00814321 -2.82299e-21)
(0.0476692 0.00878536 -2.8202e-21)
(0.0473966 0.00944233 5.63226e-21)
(0.047094 0.0101152 -8.29208e-23)
(0.0467611 0.0108053 2.92706e-21)
(0.0463978 0.0115098 -5.87273e-21)
(0.046001 0.0122286 -3.0421e-21)
(0.0455679 0.0129647 2.01361e-23)
(0.0450986 0.0137183 -2.86564e-21)
(0.0445913 0.0144897 -2.67662e-21)
(0.0440407 0.0152785 -8.96566e-21)
(0.0434555 0.0160919 0)
(0.0428109 0.016902 -2.99015e-21)
(0.0421816 0.0177952 2.9657e-21)
(0.0403483 -0.00948623 0)
(0.0406138 -0.00945719 1.48158e-22)
(0.0408825 -0.00941973 3.83002e-22)
(0.0411561 -0.00937491 -2.7598e-22)
(0.0414328 -0.00932145 9.25847e-23)
(0.0417105 -0.00925864 -1.3134e-22)
(0.0419886 -0.00918613 6.48225e-23)
(0.042267 -0.00910396 -1.46348e-22)
(0.0425459 -0.00901181 -1.48259e-22)
(0.0428259 -0.00890936 -9.25809e-22)
(0.043107 -0.00879629 9.67454e-22)
(0.0433889 -0.00867245 1.25905e-21)
(0.0436708 -0.00853775 -2.31261e-22)
(0.0439522 -0.00839208 -1.50345e-21)
(0.044233 -0.00823518 1.23535e-21)
(0.0445128 -0.00806677 -4.84992e-22)
(0.0447911 -0.00788686 5.25954e-22)
(0.0450671 -0.00769526 5.66619e-22)
(0.0453401 -0.00749204 -1.74184e-21)
(0.0456092 -0.00727704 5.44899e-22)
(0.0458737 -0.00705023 6.25934e-22)
(0.0461331 -0.00681142 0)
(0.046387 -0.00656052 1.5667e-21)
(0.0466348 -0.00629741 -7.64695e-22)
(0.0468761 -0.00602209 -1.65515e-21)
(0.0471103 -0.00573471 -1.77079e-21)
(0.0473369 -0.00543524 3.51094e-21)
(0.0475554 -0.00512354 -1.85137e-21)
(0.0477654 -0.00479965 0)
(0.0479665 -0.00446368 -2.0039e-21)
(0.0481582 -0.00411594 -5.25844e-23)
(0.04834 -0.00375681 2.0999e-21)
(0.0485111 -0.00338614 -1.13015e-21)
(0.0486713 -0.00300374 2.90375e-21)
(0.0488202 -0.00260968 -5.5942e-22)
(0.0489574 -0.00220395 0)
(0.0490828 -0.0017866 0)
(0.0491961 -0.00135777 3.38604e-22)
(0.0492967 -0.000917811 3.26478e-22)
(0.049384 -0.00046689 1.79492e-22)
(0.0494577 -4.7332e-06 -5.77177e-24)
(0.0495168 0.00046875 1.75174e-22)
(0.0495612 0.00095369 0)
(0.0495903 0.00145006 -2.31398e-23)
(0.049603 0.00195801 0)
(0.0495988 0.00247779 6.95614e-22)
(0.0495772 0.00300944 8.84946e-24)
(0.0495372 0.0035529 -2.26951e-21)
(0.049478 0.0041086 0)
(0.049399 0.00467687 -1.49872e-21)
(0.0492996 0.00525766 1.48738e-21)
(0.049179 0.00585111 -2.90456e-21)
(0.0490361 0.00645731 0)
(0.0488697 0.00707627 -9.03304e-21)
(0.0486785 0.00770826 7.97422e-23)
(0.0484612 0.00835443 3.01145e-21)
(0.0482171 0.00901506 3.01191e-21)
(0.0479453 0.00969059 0)
(0.0476443 0.0103817 0)
(0.0473135 0.011089 -2.95051e-21)
(0.0469522 0.0118119 5.91961e-21)
(0.0465582 0.0125507 5.94498e-21)
(0.0461294 0.0133066 0)
(0.0456647 0.01408 -6.44058e-21)
(0.0451631 0.0148715 0)
(0.0446198 0.0156802 9.27405e-21)
(0.0440408 0.0165141 -3.17099e-21)
(0.0434011 0.0173472 -3.2421e-21)
(0.0427745 0.0182642 -3.49511e-21)
(0.0403957 -0.00996557 0)
(0.0406726 -0.00993598 0)
(0.0409513 -0.00989715 4.23006e-23)
(0.0412351 -0.00985021 3.82165e-23)
(0.0415233 -0.00979399 -9.11917e-23)
(0.0418143 -0.00972769 6.02152e-23)
(0.0421073 -0.00965115 0)
(0.0424014 -0.00956435 1.49579e-22)
(0.0426958 -0.00946713 0)
(0.0429903 -0.00935924 5.6589e-22)
(0.0432848 -0.00924038 1.40413e-22)
(0.0435793 -0.00911028 -6.5237e-22)
(0.0438736 -0.00896873 0)
(0.0441673 -0.0088156 9.16723e-22)
(0.0444599 -0.00865073 -2.8788e-21)
(0.0447512 -0.00847398 2.02972e-21)
(0.0450409 -0.00828523 -2.7941e-21)
(0.0453283 -0.00808436 5.92797e-22)
(0.0456131 -0.00787128 -6.81912e-22)
(0.0458945 -0.00764592 6.59065e-22)
(0.0461717 -0.0074082 7.36836e-22)
(0.0464443 -0.00715805 -2.31043e-21)
(0.0467114 -0.00689541 -1.62832e-21)
(0.0469724 -0.00662025 0)
(0.0472269 -0.00633252 1.82384e-21)
(0.0474743 -0.00603226 9.73143e-22)
(0.0477141 -0.00571946 -2.84319e-21)
(0.0479456 -0.00539415 9.74956e-22)
(0.0481684 -0.00505638 -2.13825e-21)
(0.0483819 -0.00470623 3.19877e-21)
(0.0485857 -0.00434386 -1.17318e-21)
(0.0487793 -0.00396943 6.06651e-22)
(0.0489619 -0.00358297 0)
(0.0491333 -0.00318449 -6.03623e-22)
(0.0492928 -0.00277406 -6.23087e-22)
(0.04944 -0.00235174 0)
(0.0495747 -0.00191763 7.07929e-22)
(0.0496963 -0.00147187 -1.05235e-21)
(0.0498045 -0.0010147 7.1799e-22)
(0.0498985 -0.000546229 -3.73227e-22)
(0.0499783 -6.6384e-05 -6.56933e-24)
(0.0500428 0.000424802 -2.97786e-22)
(0.0500916 0.000927428 9.66951e-23)
(0.0501244 0.00144148 3.79791e-22)
(0.0501403 0.00196709 2.01114e-23)
(0.0501388 0.00250444 2.36525e-21)
(0.0501194 0.00305363 0)
(0.0500812 0.0036147 1.54243e-21)
(0.0500237 0.00418792 -4.1924e-23)
(0.0499461 0.00477361 -1.58939e-21)
(0.0498479 0.00537186 0)
(0.0497283 0.00598278 -1.61142e-21)
(0.0495864 0.00660653 1.60056e-21)
(0.0494212 0.00724335 3.12654e-21)
(0.0492316 0.0078936 0)
(0.0490166 0.00855797 -6.38872e-21)
(0.0487753 0.00923695 6.48897e-21)
(0.0485068 0.00993098 -6.50831e-21)
(0.0482099 0.0106406 -1.18459e-22)
(0.0478836 0.0113663 0)
(0.0475269 0.0121084 -3.30417e-21)
(0.0471382 0.012867 3.19776e-21)
(0.0467155 0.0136431 3.56692e-21)
(0.0462573 0.014437 6.4826e-21)
(0.0457626 0.0152499 -1.03796e-20)
(0.0452267 0.0160802 6.81548e-21)
(0.0446553 0.0169359 -3.4201e-21)
(0.0440227 0.0177933 3.71149e-21)
(0.0434094 0.0187357 1.02113e-20)
(0.0404364 -0.0104719 -3.97241e-22)
(0.0407327 -0.010442 1.96911e-22)
(0.0410279 -0.0104022 1.6113e-22)
(0.0413261 -0.0103537 0)
(0.0416274 -0.0102952 5.43097e-23)
(0.0419313 -0.0102258 0)
(0.0422376 -0.0101455 -3.93934e-22)
(0.042546 -0.0100541 -9.83761e-23)
(0.0428557 -0.00995162 7.83599e-22)
(0.043166 -0.00983786 -3.44103e-22)
(0.0434763 -0.00971261 -3.37611e-22)
(0.0437861 -0.00957563 -4.40218e-22)
(0.0440951 -0.00942672 0)
(0.0444029 -0.00926568 0)
(0.0447093 -0.00909235 5.1906e-22)
(0.0450138 -0.0089066 5.63476e-22)
(0.0453161 -0.00870831 -1.32334e-21)
(0.0456158 -0.00849737 1.32078e-21)
(0.0459124 -0.0082737 1.45823e-21)
(0.0462054 -0.00803723 -1.58613e-21)
(0.0464943 -0.00778788 3.18397e-21)
(0.0467785 -0.00752562 1.15717e-23)
(0.0470573 -0.0072504 -1.83308e-21)
(0.0473302 -0.00696222 -9.82732e-22)
(0.0475964 -0.00666107 -2.00841e-21)
(0.0478555 -0.00634696 2.01089e-21)
(0.0481068 -0.00601996 2.17287e-21)
(0.0483497 -0.00568011 -2.1777e-21)
(0.0485836 -0.00532747 0)
(0.048808 -0.00496214 0)
(0.0490223 -0.00458422 3.07559e-21)
(0.049226 -0.00419386 7.95488e-23)
(0.0494186 -0.00379115 -1.29513e-21)
(0.0495994 -0.00337622 -1.36922e-21)
(0.049768 -0.00294915 1.37773e-21)
(0.0499238 -0.00251006 0)
(0.0500666 -0.00205909 -7.1487e-22)
(0.0501957 -0.00159638 -1.15828e-21)
(0.0503107 -0.00112208 7.72819e-22)
(0.0504111 -0.000636334 -1.2711e-23)
(0.0504967 -0.000139171 -6.46281e-23)
(0.0505666 0.000369374 3.04769e-22)
(0.0506203 0.000889456 2.1557e-22)
(0.0506575 0.00142113 4.22372e-22)
(0.0506775 0.00196449 -2.08422e-21)
(0.0506798 0.00251963 1.94605e-23)
(0.0506639 0.00308666 0)
(0.050629 0.00366568 -1.75419e-21)
(0.0505747 0.00425688 5.12971e-21)
(0.0505003 0.00486049 -3.46412e-21)
(0.0504051 0.00547667 -1.72171e-21)
(0.0502886 0.00610561 -6.06762e-23)
(0.0501498 0.00674753 -1.68302e-21)
(0.049988 0.00740277 -2.92228e-23)
(0.0498022 0.00807167 3.44352e-21)
(0.0495915 0.0087548 -3.57456e-21)
(0.0493548 0.00945265 -3.49051e-21)
(0.0490914 0.0101657 6.97571e-21)
(0.0488001 0.0108946 -9.03933e-23)
(0.0484798 0.0116398 3.5298e-21)
(0.0481292 0.0124016 -3.51569e-21)
(0.0477469 0.0131806 3.44142e-21)
(0.0473311 0.0139774 -6.92231e-21)
(0.04688 0.0147925 -3.61808e-21)
(0.0463925 0.015627 6.98442e-21)
(0.0458639 0.0164793 -3.93156e-21)
(0.0453002 0.0173574 -1.13732e-20)
(0.0446738 0.0182373 -3.52326e-21)
(0.0440728 0.0191985 0)
(0.0404611 -0.0110077 0)
(0.0407805 -0.0109773 -1.64693e-23)
(0.0410979 -0.0109365 -4.27085e-23)
(0.0414168 -0.0108865 0)
(0.0417369 -0.0108259 0)
(0.0420579 -0.0107538 1.99866e-22)
(0.0423801 -0.0106699 -7.56593e-22)
(0.0427037 -0.0105742 1.10749e-21)
(0.0430286 -0.0104666 -5.47338e-22)
(0.0433544 -0.010347 3.50967e-22)
(0.0436807 -0.0102152 0)
(0.0440066 -0.0100711 4.48778e-22)
(0.0443317 -0.00991433 -5.6129e-22)
(0.0446555 -0.00974489 0)
(0.0449774 -0.00956261 0)
(0.045297 -0.00936733 6.84647e-22)
(0.0456139 -0.00915894 9.77015e-23)
(0.0459276 -0.00893734 -1.48481e-21)
(0.0462377 -0.00870245 -1.59795e-21)
(0.0465437 -0.00845422 1.67108e-21)
(0.046845 -0.00819258 8.67124e-22)
(0.0471412 -0.00791751 3.84835e-21)
(0.0474318 -0.007629 4.90436e-23)
(0.0477161 -0.00732705 -1.1222e-21)
(0.0479936 -0.00701169 2.12195e-21)
(0.0482636 -0.00668297 -1.12211e-21)
(0.0485256 -0.00634094 2.29712e-21)
(0.048779 -0.00598571 0)
(0.0490231 -0.00561734 0)
(0.0492574 -0.00523597 0)
(0.0494813 -0.00484171 -6.47161e-22)
(0.0496942 -0.00443472 -1.35145e-21)
(0.0498956 -0.00401513 1.4058e-21)
(0.0500849 -0.0035831 1.48253e-21)
(0.0502617 -0.00313875 -1.49101e-21)
(0.0504253 -0.00268223 0)
(0.0505754 -0.0022137 8.03882e-22)
(0.0507114 -0.00173331 -4.13766e-22)
(0.050833 -0.00124121 0)
(0.0509395 -0.000737533 4.31107e-22)
(0.0510308 -0.000222381 -8.24003e-23)
(0.0511061 0.000304257 5.53154e-23)
(0.0511649 0.000842532 -2.17316e-22)
(0.0512068 0.00139249 0)
(0.0512314 0.00195417 -9.0775e-22)
(0.051238 0.00252764 8.99795e-22)
(0.0512262 0.00311299 0)
(0.0511955 0.00371034 -6.13669e-23)
(0.0511453 0.00431984 4.24307e-23)
(0.0510749 0.00494172 1.77692e-21)
(0.0509839 0.00557617 0)
(0.0508716 0.00622345 -1.07416e-22)
(0.0507372 0.00688383 -1.78806e-21)
(0.05058 0.00755768 -5.60453e-21)
(0.0503991 0.0082454 -1.27604e-22)
(0.0501936 0.00894749 3.60116e-21)
(0.0499626 0.00966448 0)
(0.0497051 0.0103969 0)
(0.04942 0.0111453 3.85949e-21)
(0.0491061 0.0119103 0)
(0.0487622 0.0126923 0)
(0.0483866 0.0134919 -1.00979e-22)
(0.0479778 0.0143097 -3.80633e-21)
(0.0475339 0.0151462 -7.85542e-21)
(0.0470534 0.0160026 7.87735e-21)
(0.0465319 0.0168772 -5.01388e-22)
(0.0459752 0.0177782 3.68655e-21)
(0.0453536 0.01868 3.98578e-21)
(0.0447594 0.0196677 0)
(0.0404736 -0.0115761 0)
(0.0408148 -0.0115449 1.68464e-23)
(0.041155 -0.0115029 2.17747e-22)
(0.0414972 -0.0114512 -3.38091e-23)
(0.0418402 -0.0113884 0)
(0.042183 -0.0113133 -7.20306e-22)
(0.0425258 -0.0112259 1.3974e-21)
(0.0428687 -0.011126 1.12237e-22)
(0.0432118 -0.0110135 -1.93845e-21)
(0.0435551 -0.0108881 3.57746e-22)
(0.0438984 -0.0107498 -5.35297e-22)
(0.0442412 -0.0105983 -5.89041e-22)
(0.0445832 -0.0104336 1.83565e-21)
(0.0449237 -0.0102554 -2.62572e-21)
(0.0452623 -0.0100637 1.36179e-21)
(0.0455983 -0.0098584 -8.46499e-22)
(0.0459313 -0.00963934 3.23133e-21)
(0.0462608 -0.00940646 -7.63535e-22)
(0.0465861 -0.00915969 9.95405e-22)
(0.0469067 -0.00889899 -8.99844e-22)
(0.0472222 -0.00862433 9.75632e-23)
(0.047532 -0.0083357 -6.30285e-21)
(0.0478356 -0.0080331 -1.14825e-21)
(0.0481323 -0.00771657 -9.22329e-23)
(0.0484218 -0.00738615 3.56998e-21)
(0.0487033 -0.00704192 -1.18947e-21)
(0.0489763 -0.00668398 2.6015e-21)
(0.0492402 -0.00631242 -3.98075e-21)
(0.0494945 -0.00592739 0)
(0.0497385 -0.00552901 -1.43211e-21)
(0.0499717 -0.00511745 1.43646e-21)
(0.0501936 -0.00469287 5.16831e-23)
(0.0504035 -0.00425546 -7.98974e-22)
(0.0506009 -0.00380538 -8.2101e-22)
(0.0507854 -0.00334282 2.48985e-21)
(0.0509564 -0.00286796 -1.65653e-21)
(0.0511134 -0.00238098 1.31005e-21)
(0.051256 -0.00188204 -1.76071e-21)
(0.0513837 -0.00137134 8.95063e-22)
(0.0514961 -0.000849028 -2.24386e-22)
(0.051593 -0.000315224 0)
(0.0516735 0.000230106 2.40435e-22)
(0.0517373 0.00078709 -2.38145e-22)
(0.051784 0.00135575 -4.84107e-22)
(0.0518132 0.00193611 1.45066e-21)
(0.0518243 0.00252823 -9.8654e-22)
(0.051817 0.0031322 -9.65038e-22)
(0.0517906 0.00374813 0)
(0.0517448 0.00437621 -3.9662e-21)
(0.051679 0.00501664 3.90574e-21)
(0.0515925 0.00566966 -1.89824e-21)
(0.0514848 0.00633559 1.88819e-21)
(0.0513553 0.00701472 2.00501e-21)
(0.0512031 0.00770746 3.87332e-21)
(0.0510275 0.00841424 3.83542e-21)
(0.0508275 0.00913557 0)
(0.0506023 0.00987196 -4.08573e-21)
(0.0503507 0.010624 0)
(0.0500718 0.0113922 1.32107e-22)
(0.0497643 0.0121773 -3.89361e-21)
(0.0494268 0.0129796 4.01514e-21)
(0.0490579 0.0138 3.94084e-21)
(0.0486558 0.0146389 -4.21169e-21)
(0.0482188 0.0154969 -1.46141e-22)
(0.0477453 0.0163752 9.95962e-23)
(0.047231 0.0172726 1.24615e-20)
(0.0466809 0.0181964 4.37199e-21)
(0.0460664 0.0191245 4.3202e-21)
(0.0454806 0.0201385 -4.27416e-21)
(0.0404829 -0.0121806 0)
(0.0408435 -0.0121482 0)
(0.0412044 -0.0121045 2.87531e-22)
(0.0415684 -0.0120507 -4.32785e-22)
(0.0419343 -0.0119852 -2.64557e-22)
(0.0423006 -0.0119069 0)
(0.0426667 -0.0118156 0)
(0.0430324 -0.0117112 4.44102e-22)
(0.0433975 -0.0115934 -9.92591e-22)
(0.0437619 -0.0114622 -1.89097e-22)
(0.0441253 -0.0113172 2.86334e-21)
(0.0444875 -0.0111583 -6.12403e-22)
(0.0448483 -0.0109853 7.06711e-22)
(0.0452071 -0.0107981 -1.43228e-21)
(0.0455636 -0.0105967 8.41909e-22)
(0.0459173 -0.0103809 0)
(0.0462676 -0.0101506 0)
(0.046614 -0.00990585 4.89638e-23)
(0.0469559 -0.00964653 -3.0172e-21)
(0.0472927 -0.00937263 1.01493e-21)
(0.0476238 -0.00908417 -1.15821e-21)
(0.0479487 -0.00878115 1.11287e-21)
(0.0482668 -0.0084636 1.20497e-21)
(0.0485774 -0.00813159 -1.15448e-21)
(0.0488801 -0.0077852 -1.25566e-21)
(0.0491743 -0.00742453 0)
(0.0494594 -0.0070497 0)
(0.0497347 -0.00666086 2.14383e-21)
(0.0499999 -0.00625816 0)
(0.0502542 -0.00584178 1.55634e-21)
(0.0504971 -0.00541192 -1.56056e-21)
(0.0507282 -0.00496878 -7.86498e-22)
(0.0509468 -0.00451257 8.08553e-22)
(0.0511524 -0.00404351 1.71816e-21)
(0.0513446 -0.00356182 -8.52506e-22)
(0.0515228 -0.00306772 -9.10786e-22)
(0.0516866 -0.00256143 9.45883e-22)
(0.0518356 -0.00204315 0)
(0.0519694 -0.00151308 0)
(0.0520874 -0.000971411 2.56177e-22)
(0.0521897 -0.000418289 0)
(0.0522752 0.000146366 0)
(0.0523438 0.000722645 -7.80282e-22)
(0.0523951 0.00131055 1.04123e-21)
(0.0524288 0.0019101 -5.31307e-22)
(0.0524443 0.00252135 1.0046e-21)
(0.0524413 0.00314437 0)
(0.0524192 0.00377931 3.154e-21)
(0.0523777 0.00442634 -4.71793e-23)
(0.0523162 0.0050857 0)
(0.0522342 0.00575765 -4.17476e-21)
(0.0521311 0.00644252 -5.17308e-23)
(0.0520063 0.00714066 -4.11854e-21)
(0.0518589 0.0078525 -2.15776e-21)
(0.0516884 0.00857849 -4.2207e-21)
(0.0514937 0.00931917 4.19479e-21)
(0.0512739 0.0100751 4.10857e-21)
(0.0510281 0.0108468 0)
(0.050755 0.0116349 -4.27598e-21)
(0.0504535 0.01244 9.91873e-23)
(0.0501222 0.0132628 0)
(0.0497596 0.0141039 0)
(0.0493641 0.0149639 4.22787e-21)
(0.0489338 0.0158434 0)
(0.0484674 0.0167436 0)
(0.0479606 0.0176637 -4.44404e-21)
(0.0474185 0.01861 -4.21069e-21)
(0.0468139 0.0195678 -4.71602e-21)
(0.0462293 0.020584 0)
(0.0404947 -0.0128246 0)
(0.0408743 -0.0127907 0)
(0.0412545 -0.0127449 0)
(0.0416388 -0.0126884 -2.69812e-22)
(0.0420259 -0.0126197 -3.96561e-22)
(0.0424144 -0.0125377 -1.30085e-22)
(0.0428035 -0.0124419 7.86821e-22)
(0.0431927 -0.0123324 -4.52767e-22)
(0.0435814 -0.0122089 5.88043e-22)
(0.0439692 -0.0120712 1.22074e-21)
(0.0443556 -0.0119191 0)
(0.0447401 -0.0117523 0)
(0.0451224 -0.0115708 -5.61162e-23)
(0.0455022 -0.0113742 2.51132e-21)
(0.0458789 -0.0111626 -3.65921e-21)
(0.0462521 -0.0109358 -1.1811e-22)
(0.0466214 -0.0106938 1.96142e-21)
(0.0469863 -0.0104366 1.01889e-21)
(0.0473461 -0.0101641 -9.88677e-23)
(0.0477004 -0.00987628 0)
(0.0480484 -0.00957325 2.454e-21)
(0.0483897 -0.00925503 0)
(0.0487235 -0.00892167 2.66e-21)
(0.0490494 -0.00857328 -4.13208e-21)
(0.0493666 -0.00820997 4.29001e-21)
(0.0496746 -0.00783188 1.5354e-21)
(0.0499729 -0.00743918 -2.34111e-21)
(0.0502608 -0.00703203 2.38678e-21)
(0.0505378 -0.00661064 -1.59838e-21)
(0.0508033 -0.00617524 0)
(0.0510567 -0.00572605 -1.73547e-21)
(0.0512976 -0.00526332 -9.52705e-22)
(0.0515254 -0.00478731 1.78719e-21)
(0.0517396 -0.00429828 -1.85585e-21)
(0.0519397 -0.00379649 9.58297e-22)
(0.0521254 -0.0032822 -9.63175e-22)
(0.0522962 -0.00275568 -4.82384e-22)
(0.0524516 -0.00221716 5.25649e-22)
(0.0525913 -0.00166689 2.55682e-22)
(0.052715 -0.00110507 -7.86613e-22)
(0.0528224 -0.000531865 -7.01302e-23)
(0.0529128 5.28391e-05 0)
(0.052986 0.000649075 2.65969e-22)
(0.0530417 0.00125684 -5.33345e-22)
(0.0530795 0.00187612 5.3457e-22)
(0.0530991 0.00250698 0)
(0.0531 0.00314949 0)
(0.0530819 0.00380381 1.14603e-21)
(0.0530443 0.00447013 -2.20271e-21)
(0.0529868 0.00514869 -4.50643e-21)
(0.0529089 0.00583979 8.87913e-21)
(0.05281 0.00654378 -2.28177e-21)
(0.0526894 0.00726105 2.21544e-21)
(0.0525466 0.00799208 2.16918e-21)
(0.0523807 0.00873733 -4.4868e-21)
(0.0521909 0.00949737 4.45835e-21)
(0.0519762 0.0102728 0)
(0.0517357 0.0110641 -4.63488e-21)
(0.0514681 0.0118721 1.07944e-22)
(0.0511724 0.0126973 4.52126e-21)
(0.050847 0.0135405 0)
(0.0504906 0.0144022 0)
(0.0501016 0.0152833 0)
(0.049678 0.0161842 9.49073e-21)
(0.0492189 0.0171064 4.90156e-21)
(0.0487195 0.0180485 4.68028e-21)
(0.0481877 0.019018 -9.42315e-21)
(0.0475913 0.0199988 -2.8591e-22)
(0.0470347 0.0210479 5.03049e-21)
(0.0405102 -0.0135117 0)
(0.0409101 -0.0134761 -4.12032e-22)
(0.0413103 -0.0134279 5.46212e-22)
(0.0417149 -0.0133684 -5.83986e-22)
(0.0421228 -0.013296 1.09641e-21)
(0.0425325 -0.0132096 4.83339e-22)
(0.0429434 -0.0131088 5.50805e-22)
(0.0433551 -0.0129935 0)
(0.0437669 -0.0128635 -1.28226e-21)
(0.0441782 -0.0127187 -1.38484e-21)
(0.0445883 -0.0125587 1.46325e-21)
(0.0449965 -0.0123834 -8.75982e-22)
(0.0454022 -0.0121924 9.98005e-22)
(0.0458049 -0.0119858 -7.74456e-22)
(0.046204 -0.0117634 -4.13373e-21)
(0.0465991 -0.011525 -1.25295e-22)
(0.0469895 -0.0112706 -1.23345e-22)
(0.0473749 -0.0110002 2.30502e-21)
(0.0477545 -0.0107138 1.18833e-21)
(0.0481279 -0.0104113 2.64833e-21)
(0.0484944 -0.0100929 -2.52978e-21)
(0.0488534 -0.00975866 0)
(0.0492043 -0.0094086 1.16355e-22)
(0.0495466 -0.00904289 0)
(0.0498796 -0.00866168 -1.50491e-21)
(0.0502026 -0.00826516 -1.55513e-21)
(0.0505151 -0.00785353 8.02342e-22)
(0.0508165 -0.00742701 0)
(0.0511063 -0.00698585 9.13975e-22)
(0.0513838 -0.00653032 1.83233e-21)
(0.0516485 -0.0060607 -1.83606e-21)
(0.0518998 -0.00557728 9.21926e-22)
(0.0521374 -0.00508038 -1.97262e-21)
(0.0523607 -0.00457031 3.95727e-21)
(0.0525693 -0.00404737 -1.01349e-21)
(0.0527627 -0.00351188 0)
(0.0529406 -0.00296415 -5.52484e-22)
(0.0531025 -0.00240446 3.42067e-23)
(0.0532482 -0.00183308 8.32796e-22)
(0.0533774 -0.00125027 -7.09394e-22)
(0.0534898 -0.000656203 1.39937e-22)
(0.0535849 -5.07137e-05 -4.43125e-22)
(0.0536624 0.000566143 2.90203e-22)
(0.0537221 0.00119435 0)
(0.0537638 0.00183389 0)
(0.053787 0.00248482 0)
(0.0537915 0.00314721 1.2086e-21)
(0.0537769 0.00382124 1.20944e-21)
(0.0537428 0.0045071 0)
(0.0536888 0.00520507 2.34862e-21)
(0.0536145 0.00591546 2.47638e-21)
(0.0535193 0.00663868 2.42608e-21)
(0.0534027 0.00737514 0)
(0.053264 0.00812535 0)
(0.0531023 0.00888982 -4.7608e-21)
(0.0529171 0.00966917 4.72967e-21)
(0.0527072 0.010464 0)
(0.0524717 0.0112749 4.65182e-21)
(0.0522095 0.0121026 -4.66879e-21)
(0.0519194 0.0129479 -4.95449e-21)
(0.0516001 0.0138113 4.86935e-21)
(0.05125 0.0146936 -4.8458e-21)
(0.0508677 0.0155957 0)
(0.0504514 0.0165181 -4.80873e-21)
(0.0499999 0.0174622 1.70598e-22)
(0.0495083 0.0184263 -1.0177e-20)
(0.0489861 0.0194193 -1.03542e-20)
(0.0483936 0.0204181 1.01097e-20)
(0.0478737 0.0214924 -5.01914e-21)
(0.0405282 -0.0142455 -1.02255e-22)
(0.0409504 -0.014208 0)
(0.0413726 -0.0141572 -1.40238e-22)
(0.0417991 -0.0140943 1.02897e-21)
(0.0422288 -0.0140179 -2.01409e-21)
(0.0426603 -0.0139267 4.97092e-22)
(0.0430932 -0.0138202 -5.6114e-22)
(0.0435271 -0.0136986 1.41568e-21)
(0.0439614 -0.0135614 -7.10688e-22)
(0.0443956 -0.0134087 -7.61654e-22)
(0.044829 -0.01324 -9.26096e-22)
(0.0452607 -0.0130552 2.8391e-21)
(0.04569 -0.012854 -8.78357e-22)
(0.0461163 -0.0126364 3.32699e-21)
(0.0465389 -0.0124021 1.21348e-21)
(0.0469571 -0.0121512 1.3292e-22)
(0.0473703 -0.0118835 -2.44006e-21)
(0.0477777 -0.011599 0)
(0.0481788 -0.0112977 0)
(0.048573 -0.0109797 -1.49427e-21)
(0.0489596 -0.0106449 -1.42912e-21)
(0.049338 -0.0102936 -3.14567e-21)
(0.0497075 -0.00992583 1.60101e-21)
(0.0500676 -0.00954175 3.36245e-21)
(0.0504175 -0.00914156 -3.35902e-21)
(0.0507567 -0.0087255 9.14844e-22)
(0.0510846 -0.0082938 9.412e-22)
(0.0514005 -0.00784675 0)
(0.0517039 -0.00738465 -9.24228e-22)
(0.0519942 -0.00690781 -1.98593e-21)
(0.0522708 -0.00641658 -4.49034e-23)
(0.0525333 -0.00591131 2.03855e-21)
(0.0527812 -0.00539235 -1.09145e-21)
(0.053014 -0.00486009 0)
(0.0532313 -0.00431489 5.69662e-22)
(0.0534326 -0.00375712 -5.81527e-22)
(0.0536177 -0.00318714 5.5695e-22)
(0.0537863 -0.00260528 -1.17377e-21)
(0.0539379 -0.00201187 0)
(0.0540725 -0.00140721 -1.57271e-22)
(0.0541898 -0.000791445 1.55065e-22)
(0.0542892 -0.000164443 -2.4128e-22)
(0.0543707 0.000473688 9.33995e-22)
(0.0544341 0.00112291 -1.87006e-21)
(0.0544792 0.00178319 1.23961e-21)
(0.0545056 0.00245459 1.25245e-21)
(0.0545132 0.00313719 -1.17151e-21)
(0.0545016 0.00383117 2.57608e-21)
(0.0544706 0.00453675 -2.48581e-21)
(0.0544197 0.00525424 -6.22424e-21)
(0.0543486 0.00598399 5.53081e-23)
(0.0542568 0.00672643 -2.43529e-21)
(0.0541437 0.00748204 0)
(0.0540088 0.00825135 0)
(0.0538512 0.00903494 -5.0427e-21)
(0.0536704 0.00983345 7.47767e-21)
(0.0534652 0.0106475 -5.02081e-21)
(0.0532349 0.0114779 0)
(0.0529782 0.0123252 5.21782e-21)
(0.0526941 0.0131903 1.00939e-20)
(0.0523811 0.0140739 -4.98544e-21)
(0.052038 0.0149769 -5.88705e-23)
(0.0516632 0.0159 5.15941e-21)
(0.0512549 0.016844 -1.11422e-22)
(0.0508118 0.0178102 -1.05462e-20)
(0.0503292 0.018797 1.04663e-20)
(0.0498148 0.0198135 5.22959e-21)
(0.049227 0.0208324 0)
(0.0487284 0.0219478 0)
(0.0405481 -0.0150296 1.04296e-22)
(0.0409944 -0.0149901 9.13982e-22)
(0.0414405 -0.0149365 -7.2366e-22)
(0.0418908 -0.0148702 0)
(0.0423443 -0.0147894 -2.56944e-22)
(0.0427996 -0.0146929 -1.34398e-21)
(0.0432559 -0.0145804 9.54585e-22)
(0.0437132 -0.0144518 -2.05446e-21)
(0.0441708 -0.0143068 1.62635e-21)
(0.0446283 -0.0141454 0)
(0.045085 -0.0139672 4.15716e-22)
(0.0455401 -0.013772 0)
(0.045993 -0.0135596 1.25899e-21)
(0.0464429 -0.0133299 -3.46503e-21)
(0.0468889 -0.0130828 0)
(0.0473305 -0.0128182 0)
(0.0477668 -0.0125361 0)
(0.0481971 -0.0122363 -2.21664e-21)
(0.0486206 -0.011919 2.96754e-21)
(0.0490366 -0.0115841 1.51507e-21)
(0.0494444 -0.0112318 0)
(0.0498433 -0.0108622 0)
(0.0502326 -0.0104755 0)
(0.0506116 -0.0100718 -4.61988e-21)
(0.0509797 -0.00965134 5.56593e-21)
(0.0513362 -0.00921445 -2.81712e-21)
(0.0516804 -0.00876141 -1.97695e-21)
(0.0520117 -0.00829254 2.05091e-21)
(0.0523296 -0.00780819 -2.05165e-21)
(0.0526334 -0.00730875 1.1034e-21)
(0.0529227 -0.00679461 -2.20042e-21)
(0.0531968 -0.0062662 1.05082e-21)
(0.0534555 -0.00572393 2.27944e-21)
(0.0536981 -0.00516825 1.20228e-21)
(0.0539243 -0.00459959 -5.7439e-22)
(0.0541338 -0.00401839 5.86108e-22)
(0.0543262 -0.00342505 0)
(0.0545012 -0.00281999 -3.92908e-23)