/*--------------------------------*- C++ -*----------------------------------*\
| =========                 |                                                 |
| \\      /  F ield         | OpenFOAM: The Open Source CFD Toolbox           |
|  \\    /   O peration     | Version:  2312                                  |
|   \\  /    A nd           | Website:  www.openfoam.com                      |
|    \\/     M anipulation  |                                                 |
\*---------------------------------------------------------------------------*/
FoamFile
{
    version     2.0;
    format      ascii;
    arch        "LSB;label=32;scalar=64";
    class       volScalarField;
    location    "1600";
    object      k;
}
// * * * * * * * * * * * * * * * * * * * * * * * * * * * * * * * * * * * * * //

dimensions      [0 2 -2 0 0 0 0];

internalField   nonuniform List<scalar> 
76025
(
4.82242e-06
4.82423e-06
4.82674e-06
4.82815e-06
4.82873e-06
4.83026e-06
4.83081e-06
4.83276e-06
4.83455e-06
4.83727e-06
4.83919e-06
4.84181e-06
4.84466e-06
4.84767e-06
4.85046e-06
4.8532e-06
4.85498e-06
4.85869e-06
4.8605e-06
4.86212e-06
4.8647e-06
4.86621e-06
4.86776e-06
4.86849e-06
4.87287e-06
4.87548e-06
4.87446e-06
4.87484e-06
4.87902e-06
4.88219e-06
4.88718e-06
4.89357e-06
4.89782e-06
4.90654e-06
4.91299e-06
4.92101e-06
4.93527e-06
4.94035e-06
4.93771e-06
4.93758e-06
4.9439e-06
4.95281e-06
4.96221e-06
4.97624e-06
4.99025e-06
5.00463e-06
5.02506e-06
5.04629e-06
5.07729e-06
5.10573e-06
5.14661e-06
5.1844e-06
5.23537e-06
5.27604e-06
5.33829e-06
5.38424e-06
5.44856e-06
5.50269e-06
5.57282e-06
5.6368e-06
5.71404e-06
5.7829e-06
5.87072e-06
5.9564e-06
6.06502e-06
6.17277e-06
6.29454e-06
6.40844e-06
6.56083e-06
4.84914e-06
4.84966e-06
4.85009e-06
4.85156e-06
4.8536e-06
4.85496e-06
4.85592e-06
4.85642e-06
4.85834e-06
4.86096e-06
4.86379e-06
4.86649e-06
4.86863e-06
4.87068e-06
4.87317e-06
4.87572e-06
4.87858e-06
4.88113e-06
4.88512e-06
4.88936e-06
4.89352e-06
4.8974e-06
4.90055e-06
4.90304e-06
4.90504e-06
4.90723e-06
4.90927e-06
4.91257e-06
4.91613e-06
4.92043e-06
4.92697e-06
4.93187e-06
4.93989e-06
4.948e-06
4.95355e-06
4.96687e-06
4.97281e-06
4.97139e-06
4.9749e-06
4.98186e-06
4.99253e-06
5.00406e-06
5.02087e-06
5.03911e-06
5.06173e-06
5.08396e-06
5.10874e-06
5.13253e-06
5.16069e-06
5.19038e-06
5.22719e-06
5.26616e-06
5.31197e-06
5.36061e-06
5.41568e-06
5.4714e-06
5.53506e-06
5.59803e-06
5.66869e-06
5.73841e-06
5.81467e-06
5.89694e-06
5.98426e-06
6.07475e-06
6.17653e-06
6.27375e-06
6.4115e-06
6.53521e-06
6.74254e-06
4.88068e-06
4.88105e-06
4.88154e-06
4.88233e-06
4.88449e-06
4.88592e-06
4.88665e-06
4.88768e-06
4.88876e-06
4.89074e-06
4.89365e-06
4.89622e-06
4.89906e-06
4.90184e-06
4.90464e-06
4.90771e-06
4.91139e-06
4.91666e-06
4.92004e-06
4.92193e-06
4.92389e-06
4.92635e-06
4.92873e-06
4.93156e-06
4.93409e-06
4.93784e-06
4.94123e-06
4.94609e-06
4.95112e-06
4.95678e-06
4.96342e-06
4.97045e-06
4.97792e-06
4.98591e-06
4.993e-06
5.00069e-06
5.00876e-06
5.01792e-06
5.02932e-06
5.0427e-06
5.05923e-06
5.0771e-06
5.10128e-06
5.12475e-06
5.14895e-06
5.16954e-06
5.19128e-06
5.21048e-06
5.23809e-06
5.26676e-06
5.30709e-06
5.34679e-06
5.39854e-06
5.44669e-06
5.50653e-06
5.56069e-06
5.62668e-06
5.68597e-06
5.7579e-06
5.82315e-06
5.90345e-06
5.97901e-06
6.06775e-06
6.16017e-06
6.26292e-06
6.38076e-06
6.51147e-06
6.647e-06
6.81753e-06
4.91294e-06
4.91468e-06
4.91593e-06
4.91693e-06
4.91797e-06
4.91875e-06
4.91931e-06
4.91983e-06
4.92049e-06
4.92162e-06
4.92369e-06
4.92594e-06
4.92881e-06
4.93179e-06
4.9352e-06
4.93884e-06
4.94286e-06
4.94692e-06
4.95094e-06
4.95423e-06
4.95746e-06
4.9608e-06
4.96455e-06
4.96881e-06
4.9733e-06
4.97796e-06
4.98305e-06
4.98829e-06
4.99434e-06
5.00079e-06
5.00767e-06
5.01575e-06
5.02343e-06
5.03323e-06
5.04215e-06
5.05362e-06
5.06528e-06
5.07923e-06
5.09495e-06
5.11218e-06
5.13251e-06
5.15359e-06
5.18084e-06
5.20422e-06
5.22509e-06
5.24478e-06
5.26349e-06
5.28374e-06
5.31381e-06
5.34746e-06
5.39082e-06
5.43469e-06
5.48722e-06
5.53776e-06
5.59715e-06
5.65345e-06
5.71913e-06
5.78192e-06
5.85423e-06
5.92495e-06
6.00591e-06
6.08556e-06
6.17994e-06
6.27e-06
6.3854e-06
6.49086e-06
6.63966e-06
6.76356e-06
6.98827e-06
4.94735e-06
4.9496e-06
4.95191e-06
4.95398e-06
4.95603e-06
4.95794e-06
4.96001e-06
4.96186e-06
4.96369e-06
4.96522e-06
4.96698e-06
4.96847e-06
4.97109e-06
4.97391e-06
4.97674e-06
4.97892e-06
4.98156e-06
4.98419e-06
4.98759e-06
4.99132e-06
4.99585e-06
5.00067e-06
5.00603e-06
5.01198e-06
5.01902e-06
5.02587e-06
5.03321e-06
5.03952e-06
5.04634e-06
5.05295e-06
5.06018e-06
5.06844e-06
5.07718e-06
5.08782e-06
5.09933e-06
5.11249e-06
5.12639e-06
5.14388e-06
5.16124e-06
5.18056e-06
5.20185e-06
5.22253e-06
5.24214e-06
5.25813e-06
5.27616e-06
5.2952e-06
5.32242e-06
5.35346e-06
5.39293e-06
5.43344e-06
5.48163e-06
5.52842e-06
5.58351e-06
5.6355e-06
5.6971e-06
5.75417e-06
5.82195e-06
5.88468e-06
5.95832e-06
6.02874e-06
6.10872e-06
6.19092e-06
6.28066e-06
6.37969e-06
6.48945e-06
6.60907e-06
6.75833e-06
6.89871e-06
7.10191e-06
4.98549e-06
4.98853e-06
4.99172e-06
4.99438e-06
4.99676e-06
4.9989e-06
5.00096e-06
5.00298e-06
5.00516e-06
5.00728e-06
5.00975e-06
5.01265e-06
5.01627e-06
5.0201e-06
5.02393e-06
5.02714e-06
5.0304e-06
5.03357e-06
5.03675e-06
5.04019e-06
5.04426e-06
5.04897e-06
5.05416e-06
5.06068e-06
5.068e-06
5.07617e-06
5.08457e-06
5.09279e-06
5.1008e-06
5.10879e-06
5.11701e-06
5.12603e-06
5.13609e-06
5.14765e-06
5.16106e-06
5.17477e-06
5.19109e-06
5.20925e-06
5.22852e-06
5.24724e-06
5.26516e-06
5.28105e-06
5.29816e-06
5.3172e-06
5.34167e-06
5.37017e-06
5.40485e-06
5.4422e-06
5.48512e-06
5.52897e-06
5.5787e-06
5.62774e-06
5.6838e-06
5.73733e-06
5.79957e-06
5.8573e-06
5.92582e-06
5.9885e-06
6.06408e-06
6.13425e-06
6.21892e-06
6.30119e-06
6.39916e-06
6.49943e-06
6.61989e-06
6.74193e-06
6.90772e-06
7.03078e-06
7.28978e-06
5.0295e-06
5.03228e-06
5.03542e-06
5.0385e-06
5.04153e-06
5.04466e-06
5.04778e-06
5.05114e-06
5.0544e-06
5.05848e-06
5.06179e-06
5.06403e-06
5.06591e-06
5.06823e-06
5.07138e-06
5.07498e-06
5.07888e-06
5.08343e-06
5.088e-06
5.09275e-06
5.09829e-06
5.10393e-06
5.11065e-06
5.11709e-06
5.12568e-06
5.13524e-06
5.14527e-06
5.15362e-06
5.16198e-06
5.16959e-06
5.178e-06
5.18753e-06
5.19874e-06
5.21119e-06
5.22562e-06
5.2412e-06
5.25804e-06
5.27494e-06
5.29209e-06
5.30906e-06
5.32707e-06
5.34685e-06
5.36986e-06
5.39642e-06
5.42707e-06
5.4613e-06
5.49938e-06
5.5403e-06
5.58493e-06
5.6314e-06
5.682e-06
5.73306e-06
5.78947e-06
5.84447e-06
5.90703e-06
5.96597e-06
6.03558e-06
6.09962e-06
6.17777e-06
6.24999e-06
6.3388e-06
6.42422e-06
6.52723e-06
6.63239e-06
6.75793e-06
6.88823e-06
7.05641e-06
7.18344e-06
7.50819e-06
5.07759e-06
5.0797e-06
5.08215e-06
5.08457e-06
5.08718e-06
5.08999e-06
5.09332e-06
5.09725e-06
5.10186e-06
5.10694e-06
5.11188e-06
5.11593e-06
5.11969e-06
5.12291e-06
5.12647e-06
5.13024e-06
5.13403e-06
5.13843e-06
5.14299e-06
5.14785e-06
5.15349e-06
5.15936e-06
5.16629e-06
5.17336e-06
5.18171e-06
5.19093e-06
5.20086e-06
5.21102e-06
5.22227e-06
5.23385e-06
5.24584e-06
5.25771e-06
5.26983e-06
5.28205e-06
5.295e-06
5.30869e-06
5.32355e-06
5.33974e-06
5.35752e-06
5.37758e-06
5.39995e-06
5.42569e-06
5.45409e-06
5.48635e-06
5.52101e-06
5.55951e-06
5.59996e-06
5.64398e-06
5.68969e-06
5.73849e-06
5.78926e-06
5.84234e-06
5.89856e-06
5.95571e-06
6.01842e-06
6.07993e-06
6.15086e-06
6.21804e-06
6.29948e-06
6.37533e-06
6.46991e-06
6.55863e-06
6.66963e-06
6.77731e-06
6.91375e-06
7.04514e-06
7.22812e-06
7.36503e-06
7.87777e-06
5.13584e-06
5.13827e-06
5.14106e-06
5.14369e-06
5.14658e-06
5.15001e-06
5.15371e-06
5.15742e-06
5.1611e-06
5.16508e-06
5.16918e-06
5.1732e-06
5.17696e-06
5.18062e-06
5.18436e-06
5.18826e-06
5.19291e-06
5.19793e-06
5.20372e-06
5.20971e-06
5.2171e-06
5.22434e-06
5.2326e-06
5.2413e-06
5.25145e-06
5.26217e-06
5.27285e-06
5.28308e-06
5.29346e-06
5.30404e-06
5.31517e-06
5.32674e-06
5.33898e-06
5.35204e-06
5.36615e-06
5.3818e-06
5.39893e-06
5.41838e-06
5.43969e-06
5.46408e-06
5.49046e-06
5.52051e-06
5.55226e-06
5.58798e-06
5.62487e-06
5.6659e-06
5.70748e-06
5.75337e-06
5.79943e-06
5.84999e-06
5.90086e-06
5.95624e-06
6.0128e-06
6.07324e-06
6.13688e-06
6.20295e-06
6.27584e-06
6.34901e-06
6.43386e-06
6.51711e-06
6.6158e-06
6.71146e-06
6.82667e-06
6.9408e-06
7.08435e-06
7.21428e-06
7.44281e-06
7.64448e-06
8.60626e-06
5.19994e-06
5.20282e-06
5.20597e-06
5.20909e-06
5.21232e-06
5.21592e-06
5.21973e-06
5.22352e-06
5.22728e-06
5.231e-06
5.23505e-06
5.2394e-06
5.24408e-06
5.2489e-06
5.25412e-06
5.25906e-06
5.26458e-06
5.27032e-06
5.27653e-06
5.28309e-06
5.29063e-06
5.29889e-06
5.30733e-06
5.31702e-06
5.32708e-06
5.33811e-06
5.35088e-06
5.36454e-06
5.37793e-06
5.39054e-06
5.40256e-06
5.41438e-06
5.42655e-06
5.43979e-06
5.45444e-06
5.47124e-06
5.48997e-06
5.51156e-06
5.53524e-06
5.56224e-06
5.59111e-06
5.6236e-06
5.6574e-06
5.69508e-06
5.73346e-06
5.77601e-06
5.81864e-06
5.86606e-06
5.91319e-06
5.96581e-06
6.01819e-06
6.07666e-06
6.13537e-06
6.2001e-06
6.26657e-06
6.33828e-06
6.415e-06
6.49522e-06
6.5853e-06
6.67653e-06
6.7805e-06
6.88481e-06
7.0058e-06
7.12904e-06
7.27962e-06
7.403e-06
7.83904e-06
8.14086e-06
1.02619e-05
5.27152e-06
5.27428e-06
5.27739e-06
5.28032e-06
5.28348e-06
5.2869e-06
5.29076e-06
5.29488e-06
5.29936e-06
5.30416e-06
5.30918e-06
5.31495e-06
5.32089e-06
5.32763e-06
5.33425e-06
5.34126e-06
5.34799e-06
5.355e-06
5.36191e-06
5.36973e-06
5.37692e-06
5.3861e-06
5.39511e-06
5.4048e-06
5.41579e-06
5.42732e-06
5.44095e-06
5.45461e-06
5.47145e-06
5.4897e-06
5.50564e-06
5.51845e-06
5.53013e-06
5.54239e-06
5.55656e-06
5.57342e-06
5.59302e-06
5.61582e-06
5.64121e-06
5.66984e-06
5.70059e-06
5.73465e-06
5.77011e-06
5.80921e-06
5.84917e-06
5.89306e-06
5.93736e-06
5.98659e-06
6.03579e-06
6.09095e-06
6.14632e-06
6.20858e-06
6.2712e-06
6.34085e-06
6.41192e-06
6.48992e-06
6.57209e-06
6.66026e-06
6.75704e-06
6.85688e-06
6.9697e-06
7.08398e-06
7.21777e-06
7.34757e-06
7.53413e-06
7.67101e-06
8.65027e-06
9.09217e-06
1.5378e-05
5.34945e-06
5.35256e-06
5.3556e-06
5.35861e-06
5.36147e-06
5.36465e-06
5.36787e-06
5.37171e-06
5.37568e-06
5.3802e-06
5.38522e-06
5.39041e-06
5.3965e-06
5.40291e-06
5.40969e-06
5.41723e-06
5.42458e-06
5.43277e-06
5.44084e-06
5.45006e-06
5.45951e-06
5.46959e-06
5.48076e-06
5.49326e-06
5.50684e-06
5.52079e-06
5.53487e-06
5.5488e-06
5.56312e-06
5.57785e-06
5.59279e-06
5.60742e-06
5.62287e-06
5.63932e-06
5.65787e-06
5.6785e-06
5.7017e-06
5.72747e-06
5.75567e-06
5.78656e-06
5.81952e-06
5.85529e-06
5.89259e-06
5.93342e-06
5.97521e-06
6.02101e-06
6.06758e-06
6.1194e-06
6.17132e-06
6.22983e-06
6.28922e-06
6.35615e-06
6.42394e-06
6.49893e-06
6.57602e-06
6.66068e-06
6.7497e-06
6.84676e-06
6.95127e-06
7.06271e-06
7.18742e-06
7.31625e-06
7.47267e-06
7.60064e-06
7.95672e-06
8.10285e-06
1.03071e-05
1.13975e-05
3.56743e-05
5.43952e-06
5.44285e-06
5.44646e-06
5.44984e-06
5.45352e-06
5.45725e-06
5.46138e-06
5.46592e-06
5.47081e-06
5.47643e-06
5.48221e-06
5.48911e-06
5.49576e-06
5.50403e-06
5.51192e-06
5.52125e-06
5.53063e-06
5.54088e-06
5.55148e-06
5.56329e-06
5.57449e-06
5.58755e-06
5.60091e-06
5.61401e-06
5.62889e-06
5.6452e-06
5.65874e-06
5.67614e-06
5.69274e-06
5.71105e-06
5.72481e-06
5.73635e-06
5.74884e-06
5.76347e-06
5.78133e-06
5.80235e-06
5.82658e-06
5.85388e-06
5.8838e-06
5.91666e-06
5.95147e-06
5.98943e-06
6.02894e-06
6.0722e-06
6.11622e-06
6.1655e-06
6.21455e-06
6.27019e-06
6.32524e-06
6.38855e-06
6.45182e-06
6.52375e-06
6.59648e-06
6.67695e-06
6.76103e-06
6.85246e-06
6.95019e-06
7.05668e-06
7.17171e-06
7.29805e-06
7.44148e-06
7.58907e-06
7.78702e-06
7.9269e-06
8.67053e-06
8.79837e-06
1.42755e-05
2.10557e-05
8.26925e-05
5.53926e-06
5.54284e-06
5.54703e-06
5.55087e-06
5.55539e-06
5.55993e-06
5.56521e-06
5.57087e-06
5.57708e-06
5.58405e-06
5.59116e-06
5.5994e-06
5.60744e-06
5.61657e-06
5.62568e-06
5.63543e-06
5.64547e-06
5.65581e-06
5.66645e-06
5.67758e-06
5.68859e-06
5.70017e-06
5.71217e-06
5.72413e-06
5.7368e-06
5.75001e-06
5.76346e-06
5.77755e-06
5.79251e-06
5.80814e-06
5.82471e-06
5.84221e-06
5.86162e-06
5.88289e-06
5.90665e-06
5.93268e-06
5.96119e-06
5.99214e-06
6.02516e-06
6.06099e-06
6.09833e-06
6.13917e-06
6.18092e-06
6.22726e-06
6.27365e-06
6.32635e-06
6.37793e-06
6.43795e-06
6.49619e-06
6.56498e-06
6.63223e-06
6.71009e-06
6.7885e-06
6.87579e-06
6.96808e-06
7.06724e-06
7.17612e-06
7.29377e-06
7.42493e-06
7.57013e-06
7.74369e-06
7.9027e-06
8.23501e-06
8.41442e-06
1.00934e-05
1.02472e-05
2.51232e-05
5.62993e-05
0.000165251
5.6548e-06
5.65894e-06
5.66357e-06
5.66794e-06
5.6728e-06
5.67779e-06
5.68336e-06
5.68937e-06
5.69585e-06
5.70299e-06
5.71039e-06
5.71848e-06
5.72668e-06
5.73539e-06
5.74426e-06
5.75345e-06
5.76289e-06
5.77265e-06
5.78267e-06
5.79318e-06
5.80397e-06
5.81535e-06
5.82725e-06
5.83984e-06
5.8531e-06
5.86735e-06
5.88244e-06
5.89873e-06
5.91616e-06
5.93504e-06
5.95539e-06
5.97733e-06
6.00115e-06
6.02666e-06
6.05431e-06
6.08388e-06
6.11549e-06
6.14945e-06
6.18505e-06
6.22357e-06
6.26343e-06
6.30682e-06
6.35124e-06
6.40036e-06
6.44962e-06
6.5057e-06
6.56042e-06
6.62414e-06
6.68576e-06
6.75986e-06
6.83238e-06
6.91755e-06
7.00295e-06
7.09852e-06
7.20028e-06
7.30935e-06
7.43327e-06
7.56678e-06
7.72403e-06
7.89136e-06
8.11602e-06
8.27446e-06
9.00115e-06
9.28166e-06
1.336e-05
1.50415e-05
5.50657e-05
0.000138775
0.00022762
5.78189e-06
5.78647e-06
5.79132e-06
5.79607e-06
5.80105e-06
5.80625e-06
5.8118e-06
5.81776e-06
5.82412e-06
5.83101e-06
5.83827e-06
5.84608e-06
5.85423e-06
5.86288e-06
5.87186e-06
5.88133e-06
5.89115e-06
5.90154e-06
5.91233e-06
5.92384e-06
5.93587e-06
5.94878e-06
5.96237e-06
5.97702e-06
5.99253e-06
6.00931e-06
6.02715e-06
6.04642e-06
6.06693e-06
6.08897e-06
6.11252e-06
6.13757e-06
6.16442e-06
6.19274e-06
6.22317e-06
6.25523e-06
6.28945e-06
6.32564e-06
6.36386e-06
6.40458e-06
6.4472e-06
6.49299e-06
6.54048e-06
6.59244e-06
6.64516e-06
6.70495e-06
6.76416e-06
6.83327e-06
6.90031e-06
6.9807e-06
7.0593e-06
7.15245e-06
7.24515e-06
7.35101e-06
7.46389e-06
7.58875e-06
7.73393e-06
7.89265e-06
8.08816e-06
8.26656e-06
8.6433e-06
8.84277e-06
1.06083e-05
1.12957e-05
2.20526e-05
3.47136e-05
0.000122139
0.000221809
0.000237105
5.93281e-06
5.93792e-06
5.94319e-06
5.94844e-06
5.95376e-06
5.95931e-06
5.96506e-06
5.97116e-06
5.97752e-06
5.98434e-06
5.99146e-06
5.99914e-06
6.00715e-06
6.01576e-06
6.02476e-06
6.03445e-06
6.04466e-06
6.05569e-06
6.06742e-06
6.0801e-06
6.09361e-06
6.1082e-06
6.12372e-06
6.14042e-06
6.15818e-06
6.17725e-06
6.19748e-06
6.21912e-06
6.24206e-06
6.26649e-06
6.29237e-06
6.31978e-06
6.34888e-06
6.37955e-06
6.41231e-06
6.44669e-06
6.48346e-06
6.52199e-06
6.56308e-06
6.60642e-06
6.65217e-06
6.70127e-06
6.75238e-06
6.80832e-06
6.866e-06
6.93056e-06
6.99578e-06
7.07094e-06
7.14563e-06
7.2335e-06
7.31947e-06
7.42147e-06
7.5233e-06
7.64428e-06
7.77355e-06
7.92506e-06
8.10123e-06
8.28932e-06
8.54407e-06
8.71774e-06
9.60021e-06
1.0024e-05
1.44924e-05
1.75883e-05
4.7067e-05
0.000102065
0.000215026
0.000243889
0.000222096
6.10138e-06
6.10684e-06
6.11255e-06
6.11825e-06
6.12412e-06
6.13021e-06
6.1366e-06
6.14332e-06
6.1504e-06
6.15793e-06
6.16588e-06
6.17439e-06
6.18346e-06
6.19316e-06
6.20356e-06
6.21464e-06
6.22655e-06
6.23916e-06
6.25276e-06
6.26711e-06
6.28259e-06
6.2989e-06
6.31644e-06
6.33493e-06
6.35478e-06
6.3757e-06
6.39803e-06
6.42155e-06
6.44658e-06
6.47292e-06
6.50088e-06
6.53026e-06
6.56145e-06
6.59429e-06
6.62914e-06
6.66596e-06
6.70489e-06
6.74616e-06
6.78991e-06
6.8363e-06
6.88574e-06
6.93855e-06
6.99449e-06
7.0553e-06
7.11891e-06
7.18929e-06
7.26242e-06
7.34421e-06
7.42819e-06
7.52405e-06
7.62132e-06
7.73602e-06
7.85496e-06
8.00096e-06
8.15814e-06
8.3471e-06
8.56292e-06
8.75347e-06
9.24376e-06
9.49038e-06
1.18527e-05
1.33675e-05
2.55311e-05
4.10171e-05
0.000112988
0.000200726
0.000239529
0.000228149
0.0001986
6.3036e-06
6.30961e-06
6.31582e-06
6.32207e-06
6.32845e-06
6.33515e-06
6.34216e-06
6.34961e-06
6.35748e-06
6.36585e-06
6.37473e-06
6.38419e-06
6.39429e-06
6.40504e-06
6.41659e-06
6.42884e-06
6.44205e-06
6.45602e-06
6.4711e-06
6.48699e-06
6.5041e-06
6.52205e-06
6.54136e-06
6.56153e-06
6.58324e-06
6.60579e-06
6.62999e-06
6.65515e-06
6.68204e-06
6.71003e-06
6.73983e-06
6.77102e-06
6.80407e-06
6.83902e-06
6.87594e-06
6.91526e-06
6.95682e-06
7.0014e-06
7.04863e-06
7.09955e-06
7.15366e-06
7.21204e-06
7.27426e-06
7.34146e-06
7.41296e-06
7.4906e-06
7.57332e-06
7.66324e-06
7.76052e-06
7.86842e-06
7.98619e-06
8.12368e-06
8.27516e-06
8.45793e-06
8.65293e-06
8.87311e-06
9.14231e-06
9.36445e-06
1.06323e-05
1.16937e-05
1.77562e-05
2.49755e-05
5.75607e-05
0.000115165
0.000188261
0.000220947
0.00022389
0.000203406
0.000169206
6.53579e-06
6.54272e-06
6.54997e-06
6.55728e-06
6.5648e-06
6.57269e-06
6.58091e-06
6.58964e-06
6.59879e-06
6.60857e-06
6.6189e-06
6.62992e-06
6.64167e-06
6.6541e-06
6.6674e-06
6.68135e-06
6.69631e-06
6.71194e-06
6.72869e-06
6.74619e-06
6.76492e-06
6.78444e-06
6.80534e-06
6.82707e-06
6.85031e-06
6.87438e-06
6.9001e-06
6.92676e-06
6.95522e-06
6.98485e-06
7.01649e-06
7.04966e-06
7.08513e-06
7.12269e-06
7.16284e-06
7.20582e-06
7.25162e-06
7.30114e-06
7.35362e-06
7.41071e-06
7.47097e-06
7.53662e-06
7.60612e-06
7.68173e-06
7.76263e-06
7.85083e-06
7.94675e-06
8.05214e-06
8.17084e-06
8.30277e-06
8.45468e-06
8.62868e-06
8.82186e-06
9.04204e-06
9.26633e-06
9.50593e-06
1.015e-05
1.0884e-05
1.4328e-05
1.88818e-05
3.51179e-05
6.66874e-05
0.000124965
0.00016686
0.00019369
0.000204666
0.000197147
0.000172006
0.000139309
6.81737e-06
6.82469e-06
6.83236e-06
6.84009e-06
6.84808e-06
6.85644e-06
6.8653e-06
6.87467e-06
6.88467e-06
6.89529e-06
6.90669e-06
6.9188e-06
6.93178e-06
6.94551e-06
6.96024e-06
6.97572e-06
6.99233e-06
7.00973e-06
7.02826e-06
7.04761e-06
7.06808e-06
7.08943e-06
7.11201e-06
7.13554e-06
7.16044e-06
7.18647e-06
7.21416e-06
7.24334e-06
7.27433e-06
7.30723e-06
7.342e-06
7.37922e-06
7.41846e-06
7.46083e-06
7.5054e-06
7.55392e-06
7.60493e-06
7.66072e-06
7.71939e-06
7.78365e-06
7.85154e-06
7.92574e-06
8.00513e-06
8.09208e-06
8.18695e-06
8.29207e-06
8.40943e-06
8.54177e-06
8.69414e-06
8.86368e-06
9.05788e-06
9.2718e-06
9.4932e-06
9.7623e-06
1.00696e-05
1.08599e-05
1.26753e-05
1.6286e-05
2.56096e-05
4.56341e-05
8.32416e-05
0.000124212
0.0001477
0.000165448
0.000178138
0.000179882
0.000168139
0.000143885
0.000113164
7.15687e-06
7.16611e-06
7.17577e-06
7.18547e-06
7.19543e-06
7.2058e-06
7.21657e-06
7.22795e-06
7.23981e-06
7.25239e-06
7.26557e-06
7.27951e-06
7.29419e-06
7.30962e-06
7.32591e-06
7.34292e-06
7.36095e-06
7.37974e-06
7.39973e-06
7.42063e-06
7.44284e-06
7.46613e-06
7.49073e-06
7.51658e-06
7.5437e-06
7.57223e-06
7.60215e-06
7.63384e-06
7.66708e-06
7.70264e-06
7.74006e-06
7.78064e-06
7.82357e-06
7.87054e-06
7.92032e-06
7.97498e-06
8.03286e-06
8.09649e-06
8.16382e-06
8.23801e-06
8.31692e-06
8.40476e-06
8.49969e-06
8.60689e-06
8.72633e-06
8.86254e-06
9.01609e-06
9.19053e-06
9.38575e-06
9.59319e-06
9.82124e-06
1.00858e-05
1.04017e-05
1.1113e-05
1.2427e-05
1.57875e-05
2.14981e-05
3.75652e-05
6.26951e-05
9.61423e-05
0.000112617
0.000125542
0.000138021
0.00015107
0.000158215
0.000157111
0.000144017
0.000121212
9.29951e-05
7.57246e-06
7.5822e-06
7.59251e-06
7.60295e-06
7.61374e-06
7.62495e-06
7.63672e-06
7.64902e-06
7.662e-06
7.67566e-06
7.69007e-06
7.70531e-06
7.72135e-06
7.7384e-06
7.75638e-06
7.77544e-06
7.79557e-06
7.81685e-06
7.83921e-06
7.86287e-06
7.88762e-06
7.91379e-06
7.94104e-06
7.96996e-06
8.00019e-06
8.03263e-06
8.06673e-06
8.10342e-06
8.14208e-06
8.18369e-06
8.22764e-06
8.27499e-06
8.32514e-06
8.37945e-06
8.43727e-06
8.50031e-06
8.56748e-06
8.64156e-06
8.72105e-06
8.8101e-06
8.90723e-06
9.01876e-06
9.14237e-06
9.28379e-06
9.44251e-06
9.62092e-06
9.81696e-06
1.00291e-05
1.02631e-05
1.05262e-05
1.09215e-05
1.1666e-05
1.30387e-05
1.58957e-05
2.10573e-05
3.40103e-05
5.3647e-05
7.79313e-05
9.04217e-05
9.64377e-05
0.000101995
0.000112632
0.000125326
0.000136787
0.000141612
0.000138711
0.000125669
0.000104826
7.97035e-05
8.11549e-06
8.12849e-06
8.1422e-06
8.15576e-06
8.16987e-06
8.18417e-06
8.1992e-06
8.21462e-06
8.23078e-06
8.24758e-06
8.26505e-06
8.28343e-06
8.30239e-06
8.32248e-06
8.34319e-06
8.36512e-06
8.38778e-06
8.41175e-06
8.43654e-06
8.46277e-06
8.49002e-06
8.5188e-06
8.54883e-06
8.5806e-06
8.61373e-06
8.64897e-06
8.68586e-06
8.7253e-06
8.76695e-06
8.81189e-06
8.85948e-06
8.91112e-06
8.96655e-06
9.02749e-06
9.09415e-06
9.16733e-06
9.24776e-06
9.33827e-06
9.43933e-06
9.55694e-06
9.68628e-06
9.83338e-06
9.9959e-06
1.01787e-05
1.03824e-05
1.06002e-05
1.08635e-05
1.11914e-05
1.17687e-05
1.2645e-05
1.42857e-05
1.70177e-05
2.23166e-05
3.27887e-05
4.86835e-05
6.51743e-05
7.56192e-05
7.62448e-05
7.4848e-05
8.01558e-05
9.00285e-05
0.000102513
0.000114989
0.000124427
0.000127925
0.000124686
0.000112977
9.47163e-05
7.32835e-05
8.8021e-06
8.81596e-06
8.83079e-06
8.84594e-06
8.86163e-06
8.87791e-06
8.89493e-06
8.91264e-06
8.93113e-06
8.95044e-06
8.97057e-06
8.99159e-06
9.01356e-06
9.03647e-06
9.06043e-06
9.08553e-06
9.11163e-06
9.13929e-06
9.16782e-06
9.19837e-06
9.22981e-06
9.26364e-06
9.29854e-06
9.33631e-06
9.37555e-06
9.41812e-06
9.46231e-06
9.51024e-06
9.56035e-06
9.6149e-06
9.67251e-06
9.73505e-06
9.80231e-06
9.87647e-06
9.95829e-06
1.005e-05
1.01534e-05
1.0271e-05
1.04038e-05
1.05545e-05
1.07193e-05
1.09034e-05
1.11264e-05
1.14228e-05
1.18223e-05
1.23821e-05
1.3228e-05
1.45232e-05
1.67027e-05
1.94765e-05
2.51745e-05
3.3089e-05
4.5678e-05
5.71155e-05
6.32433e-05
6.05103e-05
5.38546e-05
5.48197e-05
6.1209e-05
7.09469e-05
8.21749e-05
9.40717e-05
0.000105276
0.00011361
0.000117057
0.000115196
0.000106434
9.24208e-05
7.47724e-05
9.77946e-06
9.80024e-06
9.82164e-06
9.84345e-06
9.86575e-06
9.88877e-06
9.9124e-06
9.93677e-06
9.9618e-06
9.98753e-06
1.00139e-05
1.00411e-05
1.00687e-05
1.00974e-05
1.01262e-05
1.01565e-05
1.01866e-05
1.02184e-05
1.02497e-05
1.02829e-05
1.03154e-05
1.03502e-05
1.0384e-05
1.04208e-05
1.04569e-05
1.04969e-05
1.05373e-05
1.05829e-05
1.06308e-05
1.06858e-05
1.07452e-05
1.08106e-05
1.08848e-05
1.09711e-05
1.10698e-05
1.11939e-05
1.13302e-05
1.15138e-05
1.17565e-05
1.20552e-05
1.24269e-05
1.29303e-05
1.38571e-05
1.49759e-05
1.63377e-05
1.80096e-05
2.01412e-05
2.28199e-05
2.59548e-05
3.17745e-05
3.83666e-05
4.71702e-05
4.9211e-05
4.2183e-05
3.28831e-05
3.23659e-05
3.72539e-05
4.51879e-05
5.42446e-05
6.41967e-05
7.48027e-05
8.56776e-05
9.59901e-05
0.000104429
0.0001091
0.000109887
0.000105038
9.45147e-05
8.03651e-05
1.14265e-05
1.14329e-05
1.14397e-05
1.14464e-05
1.14528e-05
1.14594e-05
1.14662e-05
1.14728e-05
1.14802e-05
1.14868e-05
1.14944e-05
1.15012e-05
1.15086e-05
1.15157e-05
1.15224e-05
1.153e-05
1.15361e-05
1.15442e-05
1.15516e-05
1.15632e-05
1.15764e-05
1.15951e-05
1.16152e-05
1.16432e-05
1.1674e-05
1.17178e-05
1.17672e-05
1.18363e-05
1.19208e-05
1.2033e-05
1.21761e-05
1.23604e-05
1.25932e-05
1.28951e-05
1.32446e-05
1.37288e-05
1.4237e-05
1.5246e-05
1.62772e-05
1.72393e-05
1.81774e-05
1.91377e-05
1.97358e-05
2.03561e-05
2.11953e-05
2.18168e-05
2.30747e-05
2.5014e-05
2.83065e-05
3.27022e-05
2.84409e-05
1.84914e-05
1.51568e-05
1.41038e-05
1.53765e-05
2.09035e-05
2.83175e-05
3.70099e-05
4.62839e-05
5.58568e-05
6.57747e-05
7.59686e-05
8.59424e-05
9.47672e-05
0.000101182
0.000104339
0.000103181
9.83304e-05
9.00671e-05
1.17899e-05
1.18355e-05
1.18712e-05
1.19103e-05
1.19491e-05
1.1981e-05
1.20254e-05
1.20515e-05
1.20991e-05
1.21237e-05
1.21713e-05
1.21978e-05
1.22419e-05
1.22751e-05
1.231e-05
1.23568e-05
1.23837e-05
1.24801e-05
1.26367e-05
1.28707e-05
1.31737e-05
1.35413e-05
1.3995e-05
1.4511e-05
1.50937e-05
1.5774e-05
1.65051e-05
1.73413e-05
1.82779e-05
1.92296e-05
2.02635e-05
2.13405e-05
2.24465e-05
2.35435e-05
2.45348e-05
2.55963e-05
2.54522e-05
2.49782e-05
2.43449e-05
2.29495e-05
2.14183e-05
1.96792e-05
1.81033e-05
1.60303e-05
1.35759e-05
8.90834e-06
5.85388e-06
5.99861e-06
6.40159e-06
6.15951e-06
4.66101e-06
3.27369e-06
2.93065e-06
3.46288e-06
5.00223e-06
8.10133e-06
1.33181e-05
2.06704e-05
2.96199e-05
3.9097e-05
4.81497e-05
5.73216e-05
6.65051e-05
7.51495e-05
8.25632e-05
8.79026e-05
9.03873e-05
8.96541e-05
8.51397e-05
4.2161e-05
4.3273e-05
4.43793e-05
4.54804e-05
4.65763e-05
4.76653e-05
4.87504e-05
4.9827e-05
5.08987e-05
5.19607e-05
5.30153e-05
5.40583e-05
5.50916e-05
5.61097e-05
5.71162e-05
5.81098e-05
5.90686e-05
6.003e-05
6.0721e-05
6.1604e-05
6.20354e-05
6.16348e-05
6.18766e-05
6.13947e-05
6.03723e-05
5.96056e-05
5.84541e-05
5.73001e-05
5.68745e-05
5.37535e-05
5.24064e-05
5.01005e-05
4.71339e-05
4.33837e-05
3.87228e-05
3.30421e-05
2.62447e-05
1.86646e-05
1.14215e-05
5.45865e-06
2.00162e-06
1.22735e-06
1.49369e-06
1.72916e-06
1.71454e-06
1.52766e-06
1.26573e-06
1.04957e-06
9.35128e-07
8.38254e-07
6.65145e-07
5.59633e-07
5.70175e-07
7.45845e-07
1.11559e-06
1.75872e-06
2.74144e-06
4.08335e-06
5.77488e-06
7.82217e-06
1.04434e-05
1.33918e-05
1.64564e-05
1.94913e-05
2.25101e-05
2.58418e-05
2.90473e-05
3.16742e-05
3.09974e-05
4.68484e-06
4.68537e-06
4.68619e-06
4.68714e-06
4.6899e-06
4.69467e-06
4.70103e-06
4.70493e-06
4.70679e-06
4.70724e-06
4.7069e-06
4.70761e-06
4.71202e-06
4.71969e-06
4.72398e-06
4.72437e-06
4.72714e-06
4.73169e-06
4.7366e-06
4.73995e-06
4.73889e-06
4.74111e-06
4.74266e-06
4.7456e-06
4.74901e-06
4.75032e-06
4.75354e-06
4.7552e-06
4.75674e-06
4.76127e-06
4.76203e-06
4.76689e-06
4.76988e-06
4.77452e-06
4.7786e-06
4.77895e-06
4.7822e-06
4.78664e-06
4.78934e-06
4.79534e-06
4.79447e-06
4.79673e-06
4.7969e-06
4.79822e-06
4.80262e-06
4.80436e-06
4.80391e-06
4.80283e-06
4.80413e-06
4.80846e-06
4.81262e-06
4.81818e-06
4.82022e-06
4.82072e-06
4.82004e-06
4.81885e-06
4.81897e-06
4.8197e-06
4.82074e-06
4.71824e-06
4.71904e-06
4.72053e-06
4.7228e-06
4.7264e-06
4.7296e-06
4.73131e-06
4.73165e-06
4.731e-06
4.7309e-06
4.7322e-06
4.73607e-06
4.74207e-06
4.74602e-06
4.74744e-06
4.74784e-06
4.75174e-06
4.75721e-06
4.76039e-06
4.76171e-06
4.76118e-06
4.76304e-06
4.76524e-06
4.7686e-06
4.77118e-06
4.77272e-06
4.77573e-06
4.7776e-06
4.77899e-06
4.78306e-06
4.7844e-06
4.78885e-06
4.7921e-06
4.79644e-06
4.80163e-06
4.80278e-06
4.80529e-06
4.80988e-06
4.81265e-06
4.81912e-06
4.82051e-06
4.82283e-06
4.82314e-06
4.82336e-06
4.82561e-06
4.82912e-06
4.8312e-06
4.83147e-06
4.8315e-06
4.83358e-06
4.83604e-06
4.84054e-06
4.84368e-06
4.84674e-06
4.8481e-06
4.84874e-06
4.84891e-06
4.84893e-06
4.84868e-06
4.75437e-06
4.75559e-06
4.75744e-06
4.75906e-06
4.76007e-06
4.76032e-06
4.75903e-06
4.75865e-06
4.759e-06
4.76038e-06
4.76385e-06
4.76832e-06
4.77161e-06
4.77308e-06
4.77319e-06
4.77513e-06
4.78067e-06
4.78422e-06
4.78573e-06
4.78609e-06
4.78589e-06
4.78825e-06
4.79093e-06
4.79397e-06
4.79605e-06
4.79776e-06
4.80064e-06
4.80272e-06
4.80408e-06
4.80786e-06
4.80975e-06
4.81376e-06
4.81721e-06
4.82128e-06
4.82707e-06
4.8294e-06
4.83146e-06
4.83596e-06
4.83871e-06
4.84503e-06
4.84839e-06
4.85114e-06
4.85266e-06
4.85323e-06
4.85375e-06
4.85607e-06
4.85916e-06
4.861e-06
4.86159e-06
4.86272e-06
4.86396e-06
4.86667e-06
4.86949e-06
4.8729e-06
4.87589e-06
4.87833e-06
4.87967e-06
4.88042e-06
4.88064e-06
4.79441e-06
4.79461e-06
4.79473e-06
4.79382e-06
4.79277e-06
4.7916e-06
4.7911e-06
4.79156e-06
4.79247e-06
4.79526e-06
4.79817e-06
4.80057e-06
4.80178e-06
4.80207e-06
4.80313e-06
4.80712e-06
4.81099e-06
4.81271e-06
4.81323e-06
4.81327e-06
4.81358e-06
4.81642e-06
4.81925e-06
4.82175e-06
4.82355e-06
4.82542e-06
4.82818e-06
4.83033e-06
4.83172e-06
4.83533e-06
4.83756e-06
4.84119e-06
4.84491e-06
4.84882e-06
4.85482e-06
4.85814e-06
4.86033e-06
4.86448e-06
4.8671e-06
4.87279e-06
4.87753e-06
4.88138e-06
4.88416e-06
4.88578e-06
4.88647e-06
4.88724e-06
4.88953e-06
4.89195e-06
4.8936e-06
4.89502e-06
4.89611e-06
4.89757e-06
4.89923e-06
4.90138e-06
4.90369e-06
4.90606e-06
4.90811e-06
4.91006e-06
4.91171e-06
4.83453e-06
4.83288e-06
4.83126e-06
4.82928e-06
4.82797e-06
4.82764e-06
4.82812e-06
4.82861e-06
4.83093e-06
4.83316e-06
4.83504e-06
4.83606e-06
4.83611e-06
4.83586e-06
4.83854e-06
4.84178e-06
4.84368e-06
4.84447e-06
4.84444e-06
4.84415e-06
4.84521e-06
4.84833e-06
4.85084e-06
4.85282e-06
4.85437e-06
4.85632e-06
4.85904e-06
4.86126e-06
4.86276e-06
4.86633e-06
4.86882e-06
4.87211e-06
4.87602e-06
4.87984e-06
4.88589e-06
4.89015e-06
4.89269e-06
4.89684e-06
4.89949e-06
4.90417e-06
4.90892e-06
4.91328e-06
4.9172e-06
4.92033e-06
4.92237e-06
4.92335e-06
4.92482e-06
4.9267e-06
4.92846e-06
4.93021e-06
4.93148e-06
4.9328e-06
4.93388e-06
4.93538e-06
4.9372e-06
4.93946e-06
4.94167e-06
4.94377e-06
4.94572e-06
4.87646e-06
4.87407e-06
4.87211e-06
4.87063e-06
4.87056e-06
4.87072e-06
4.87056e-06
4.87255e-06
4.87392e-06
4.87435e-06
4.87423e-06
4.87278e-06
4.87322e-06
4.87442e-06
4.87688e-06
4.87861e-06
4.87947e-06
4.87863e-06
4.87777e-06
4.87833e-06
4.88077e-06
4.88351e-06
4.88544e-06
4.88695e-06
4.88835e-06
4.89039e-06
4.89298e-06
4.89516e-06
4.89676e-06
4.90023e-06
4.90294e-06
4.90591e-06
4.91e-06
4.91375e-06
4.91956e-06
4.92446e-06
4.92754e-06
4.93171e-06
4.93471e-06
4.93917e-06
4.94393e-06
4.94819e-06
4.95221e-06
4.95595e-06
4.95933e-06
4.96143e-06
4.96334e-06
4.96521e-06
4.96687e-06
4.96859e-06
4.97011e-06
4.97161e-06
4.97288e-06
4.97413e-06
4.97567e-06
4.97749e-06
4.97912e-06
4.98141e-06
4.98355e-06
4.92448e-06
4.92201e-06
4.92001e-06
4.9185e-06
4.91776e-06
4.91737e-06
4.91722e-06
4.91742e-06
4.91722e-06
4.91682e-06
4.91653e-06
4.91682e-06
4.91811e-06
4.91895e-06
4.91963e-06
4.91973e-06
4.91805e-06
4.91724e-06
4.91737e-06
4.91853e-06
4.92099e-06
4.92291e-06
4.92433e-06
4.92544e-06
4.92671e-06
4.92873e-06
4.93127e-06
4.93351e-06
4.93531e-06
4.93879e-06
4.94168e-06
4.9444e-06
4.94858e-06
4.95237e-06
4.95797e-06
4.96331e-06
4.9669e-06
4.97139e-06
4.97443e-06
4.97842e-06
4.98329e-06
4.98801e-06
4.9923e-06
4.99622e-06
5.00013e-06
5.00326e-06
5.00574e-06
5.00805e-06
5.01e-06
5.01192e-06
5.0136e-06
5.01534e-06
5.01707e-06
5.01872e-06
5.02038e-06
5.02224e-06
5.02379e-06
5.02586e-06
5.02791e-06
4.97985e-06
4.97712e-06
4.97474e-06
4.9726e-06
4.97088e-06
4.96934e-06
4.96796e-06
4.96666e-06
4.96536e-06
4.96428e-06
4.96364e-06
4.9638e-06
4.96469e-06
4.96336e-06
4.96333e-06
4.96249e-06
4.96117e-06
4.96076e-06
4.96175e-06
4.96301e-06
4.96476e-06
4.96611e-06
4.96708e-06
4.96793e-06
4.96907e-06
4.971e-06
4.97334e-06
4.9755e-06
4.97736e-06
4.98074e-06
4.98382e-06
4.9863e-06
4.99049e-06
4.99433e-06