/*--------------------------------*- C++ -*----------------------------------*\
| =========                 |                                                 |
| \\      /  F ield         | OpenFOAM: The Open Source CFD Toolbox           |
|  \\    /   O peration     | Version:  2312                                  |
|   \\  /    A nd           | Website:  www.openfoam.com                      |
|    \\/     M anipulation  |                                                 |
\*---------------------------------------------------------------------------*/
FoamFile
{
    version     2.0;
    format      ascii;
    arch        "LSB;label=32;scalar=64";
    class       volScalarField;
    location    "1600";
    object      nut;
}
// * * * * * * * * * * * * * * * * * * * * * * * * * * * * * * * * * * * * * //

dimensions      [0 2 -1 0 0 0 0];

internalField   nonuniform List<scalar> 
76025
(
7.5359e-05
7.45712e-05
7.35976e-05
7.50799e-05
7.41061e-05
7.5969e-05
7.68811e-05
7.65773e-05
7.72623e-05
7.71325e-05
7.80635e-05
7.82816e-05
7.84151e-05
7.71611e-05
7.96421e-05
7.784e-05
8.04141e-05
7.95763e-05
8.31686e-05
8.02008e-05
8.08894e-05
8.1518e-05
8.19176e-05
8.25378e-05
8.47877e-05
8.35661e-05
8.75565e-05
8.77764e-05
8.89965e-05
9.67453e-05
9.4953e-05
9.42056e-05
9.88254e-05
9.68565e-05
0.000102091
9.99587e-05
0.000102395
0.000105503
0.000103232
0.000107478
0.000105973
0.00010817
0.000110608
0.000109092
0.000110458
0.000109602
0.000109822
0.000108041
0.000107312
0.000106277
0.000104905
0.000103181
0.000101385
9.87131e-05
9.5923e-05
9.41569e-05
9.19988e-05
9.00065e-05
8.94007e-05
8.85356e-05
8.46313e-05
7.43588e-05
7.18279e-05
6.68773e-05
6.08057e-05
5.66937e-05
5.29007e-05
4.59283e-05
4.27506e-05
7.06039e-05
7.00644e-05
7.02669e-05
7.06622e-05
7.10758e-05
7.13725e-05
7.19942e-05
7.26091e-05
7.29861e-05
7.32916e-05
7.37124e-05
7.43244e-05
7.50781e-05
7.53856e-05
7.56776e-05
7.60575e-05
7.63688e-05
7.69783e-05
7.75782e-05
7.86186e-05
7.9197e-05
7.9833e-05
8.04072e-05
8.10415e-05
8.18756e-05
8.31491e-05
8.38661e-05
8.5082e-05
8.63509e-05
8.71609e-05
8.83061e-05
9.01118e-05
9.08487e-05
9.26029e-05
9.34177e-05
9.56482e-05
9.77342e-05
9.79058e-05
9.88922e-05
9.9403e-05
0.000100732
0.000101815
0.000101142
0.000101064
0.000100316
0.000100541
9.97154e-05
9.92736e-05
9.88309e-05
9.87049e-05
9.88502e-05
9.88006e-05
9.83972e-05
9.75589e-05
9.67226e-05
9.66405e-05
9.56774e-05
9.47776e-05
9.38932e-05
9.15845e-05
8.61054e-05
8.19279e-05
7.72155e-05
7.17621e-05
6.51272e-05
5.92704e-05
5.39443e-05
4.68507e-05
4.46632e-05
6.47913e-05
6.45998e-05
6.52008e-05
6.57586e-05
6.63489e-05
6.67508e-05
6.71373e-05
6.7593e-05
6.80595e-05
6.85455e-05
6.90385e-05
6.95441e-05
7.01322e-05
7.07961e-05
7.12686e-05
7.18427e-05
7.23025e-05
7.28898e-05
7.3322e-05
7.39131e-05
7.4566e-05
7.52187e-05
7.58642e-05
7.65486e-05
7.72631e-05
7.81882e-05
7.90055e-05
7.99178e-05
8.0896e-05
8.18159e-05
8.26518e-05
8.36911e-05
8.46172e-05
8.54975e-05
8.64548e-05
8.74909e-05
8.84718e-05
8.91481e-05
8.98271e-05
9.057e-05
9.13219e-05
9.18982e-05
9.22659e-05
9.26941e-05
9.31408e-05
9.35601e-05
9.3771e-05
9.40422e-05
9.45219e-05
9.49897e-05
9.55366e-05
9.58039e-05
9.59909e-05
9.59289e-05
9.59073e-05
9.56674e-05
9.51216e-05
9.42683e-05
9.31344e-05
9.08042e-05
8.71949e-05
8.24785e-05
7.75715e-05
7.1874e-05
6.54632e-05
5.93985e-05
5.32729e-05
4.7214e-05
4.64598e-05
6.03359e-05
6.00921e-05
6.07094e-05
6.14442e-05
6.20717e-05
6.2621e-05
6.31182e-05
6.35941e-05
6.40897e-05
6.46136e-05
6.51621e-05
6.57048e-05
6.62541e-05
6.68434e-05
6.74514e-05
6.80803e-05
6.87156e-05
6.93399e-05
6.99547e-05
7.05423e-05
7.11527e-05
7.17798e-05
7.24388e-05
7.31413e-05
7.38841e-05
7.46586e-05
7.54553e-05
7.6257e-05
7.70864e-05
7.79361e-05
7.87564e-05
7.95959e-05
8.04386e-05
8.12855e-05
8.21815e-05
8.31033e-05
8.40022e-05
8.48551e-05
8.56672e-05
8.6517e-05
8.73782e-05
8.82033e-05
8.90711e-05
8.98294e-05
9.05274e-05
9.11674e-05
9.17476e-05
9.23322e-05
9.30716e-05
9.38001e-05
9.45823e-05
9.51959e-05
9.57562e-05
9.60895e-05
9.64035e-05
9.65179e-05
9.65854e-05
9.6287e-05
9.55753e-05
9.38086e-05
9.08522e-05
8.66628e-05
8.15965e-05
7.53105e-05
6.84606e-05
6.13385e-05
5.47153e-05
4.87549e-05
4.91139e-05
5.728e-05
5.66978e-05
5.70398e-05
5.76206e-05
5.81695e-05
5.87131e-05
5.92734e-05
5.98333e-05
6.03923e-05
6.09521e-05
6.15224e-05
6.20938e-05
6.26802e-05
6.32739e-05
6.38807e-05
6.44932e-05
6.51258e-05
6.57639e-05
6.6418e-05
6.70754e-05
6.77447e-05
6.84219e-05
6.91165e-05
6.98352e-05
7.05887e-05
7.13572e-05
7.21464e-05
7.2926e-05
7.37161e-05
7.45014e-05
7.53113e-05
7.60929e-05
7.68719e-05
7.77154e-05
7.86018e-05
7.95134e-05
8.04286e-05
8.13776e-05
8.23036e-05
8.32613e-05
8.42469e-05
8.51991e-05
8.60825e-05
8.6855e-05
8.76262e-05
8.83765e-05
8.92214e-05
9.00798e-05
9.10301e-05
9.19176e-05
9.28307e-05
9.36018e-05
9.44059e-05
9.50809e-05
9.58888e-05
9.65922e-05
9.73852e-05
9.78385e-05
9.79734e-05
9.71167e-05
9.51071e-05
9.1509e-05
8.63125e-05
7.96277e-05
7.17797e-05
6.39021e-05
5.64628e-05
5.12212e-05
5.25151e-05
5.46246e-05
5.39298e-05
5.40793e-05
5.44467e-05
5.48078e-05
5.52028e-05
5.56596e-05
5.6168e-05
5.67128e-05
5.72784e-05
5.78626e-05
5.84639e-05
5.90848e-05
5.97185e-05
6.03619e-05
6.10076e-05
6.16653e-05
6.23336e-05
6.30125e-05
6.37039e-05
6.44118e-05
6.5136e-05
6.58745e-05
6.66407e-05
6.74303e-05
6.8246e-05
6.90772e-05
6.99141e-05
7.07539e-05
7.1596e-05
7.24785e-05
7.33298e-05
7.41634e-05
7.5084e-05
7.60531e-05
7.70275e-05
7.8033e-05
7.9054e-05
8.00782e-05
8.10796e-05
8.20437e-05
8.29326e-05
8.3785e-05
8.46141e-05
8.54826e-05
8.63652e-05
8.72952e-05
8.8214e-05
8.91732e-05
9.00946e-05
9.10677e-05
9.20042e-05
9.30674e-05
9.41419e-05
9.54608e-05
9.681e-05
9.8412e-05
9.98414e-05
0.000101166
0.000101609
0.000101003
9.83889e-05
9.35717e-05
8.61947e-05
7.70732e-05
6.78796e-05
5.97117e-05
5.54574e-05
5.79302e-05
5.16937e-05
5.11304e-05
5.13053e-05
5.16292e-05
5.19076e-05
5.22017e-05
5.25542e-05
5.29727e-05
5.34471e-05
5.39768e-05
5.45334e-05
5.51049e-05
5.56952e-05
5.63118e-05
5.69572e-05
5.76249e-05
5.83115e-05
5.9021e-05
5.97453e-05
6.04854e-05
6.12483e-05
6.20261e-05
6.28299e-05
6.36418e-05
6.44932e-05
6.53717e-05
6.62696e-05
6.71559e-05
6.8051e-05
6.89402e-05
6.98627e-05
7.07816e-05
7.16847e-05
7.26566e-05
7.36684e-05
7.46926e-05
7.57194e-05
7.67233e-05
7.77022e-05
7.8645e-05
7.95637e-05
8.0462e-05
8.13577e-05
8.22556e-05
8.31657e-05
8.40809e-05
8.50089e-05
8.59419e-05
8.69086e-05
8.78976e-05
8.89723e-05
9.01108e-05
9.14405e-05
9.29081e-05
9.47193e-05
9.6733e-05
9.9202e-05
0.000101778
0.000104611
0.000106944
0.000108582
0.000108013
0.00010418
9.60386e-05
8.48533e-05
7.4033e-05
6.48622e-05
6.26653e-05
6.02652e-05
4.84676e-05
4.80661e-05
4.83427e-05
4.87291e-05
4.90384e-05
4.93281e-05
4.96501e-05
5.00196e-05
5.04422e-05
5.09154e-05
5.14286e-05
5.19695e-05
5.25407e-05
5.31374e-05
5.37671e-05
5.44257e-05
5.51085e-05
5.58201e-05
5.6554e-05
5.73104e-05
5.80939e-05
5.88976e-05
5.97308e-05
6.05814e-05
6.14617e-05
6.23667e-05
6.32939e-05
6.42359e-05
6.52043e-05
6.61925e-05
6.71768e-05
6.81551e-05
6.91286e-05
7.01244e-05
7.11259e-05
7.21221e-05
7.31082e-05
7.40797e-05
7.50362e-05
7.5985e-05
7.69239e-05
7.78649e-05
7.87954e-05
7.97322e-05
8.06564e-05
8.1595e-05
8.25306e-05
8.35034e-05
8.45072e-05
8.55897e-05
8.67696e-05
8.80954e-05
8.96391e-05
9.1434e-05
9.36407e-05
9.62434e-05
9.95203e-05
0.000103319
0.000107966
0.00011298
0.000112261
0.000110134
0.000106769
0.00010441
9.67873e-05
8.40701e-05
7.3984e-05
7.10612e-05
4.82374e-05
4.53021e-05
4.49943e-05
4.53351e-05
4.57841e-05
4.61578e-05
4.65037e-05
4.68599e-05
4.72362e-05
4.76382e-05
4.80726e-05
4.85395e-05
4.90379e-05
4.9567e-05
5.01283e-05
5.07232e-05
5.13514e-05
5.20173e-05
5.27156e-05
5.34488e-05
5.42097e-05
5.50099e-05
5.58317e-05
5.66862e-05
5.75661e-05
5.8481e-05
5.94206e-05
6.03761e-05
6.13406e-05
6.23175e-05
6.33249e-05
6.43071e-05
6.52744e-05
6.62788e-05
6.72987e-05
6.83164e-05
6.93294e-05
7.0331e-05
7.1327e-05
7.2309e-05
7.32922e-05
7.42601e-05
7.52337e-05
7.61855e-05
7.71488e-05
7.80896e-05
7.90579e-05
8.00163e-05
8.10349e-05
8.20775e-05
8.32329e-05
8.44781e-05
8.59191e-05
8.75742e-05
8.9565e-05
9.20031e-05
9.50283e-05
9.89383e-05
0.000103903
0.000110555
0.000110309
0.000107402
0.000105065
0.000101772
9.92126e-05
9.54776e-05
9.23052e-05
8.82144e-05
6.19448e-05
3.02607e-05
4.2347e-05
4.20761e-05
4.24229e-05
4.28865e-05
4.32897e-05
4.3671e-05
4.40613e-05
4.44655e-05
4.48861e-05
4.53243e-05
4.5785e-05
4.6271e-05
4.67859e-05
4.73311e-05
4.79105e-05
4.85184e-05
4.91627e-05
4.98402e-05
5.05524e-05
5.12973e-05
5.20806e-05
5.28986e-05
5.37446e-05
5.4628e-05
5.55375e-05
5.6477e-05
5.74547e-05
5.84615e-05
5.94793e-05
6.05182e-05
6.15254e-05
6.2495e-05
6.35076e-05
6.45336e-05
6.55597e-05
6.65854e-05
6.76036e-05
6.86237e-05
6.96341e-05
7.06494e-05
7.16498e-05
7.26572e-05
7.36414e-05
7.46381e-05
7.56094e-05
7.66079e-05
7.75895e-05
7.86313e-05
7.96841e-05
8.08505e-05
8.20887e-05
8.35319e-05
8.51715e-05
8.71821e-05
8.96518e-05
9.28347e-05
9.70742e-05
0.000102841
0.000107206
0.000105173
0.000102233
9.97548e-05
9.6599e-05
9.37487e-05
9.03451e-05
8.63722e-05
8.67911e-05
3.63477e-05
2.13251e-05
3.96376e-05
3.93825e-05
3.97098e-05
4.01534e-05
4.05508e-05
4.09347e-05
4.13349e-05
4.17547e-05
4.21949e-05
4.26543e-05
4.31313e-05
4.36317e-05
4.41539e-05
4.47063e-05
4.52841e-05
4.58929e-05
4.65282e-05
4.71955e-05
4.7892e-05
4.86269e-05
4.93854e-05
5.0192e-05
5.10259e-05
5.18938e-05
5.28002e-05
5.37362e-05
5.47144e-05
5.57126e-05
5.6765e-05
5.78456e-05
5.89034e-05
5.99166e-05
6.0938e-05
6.19632e-05
6.29951e-05
6.40344e-05
6.50776e-05
6.61282e-05
6.71774e-05
6.82311e-05
6.92737e-05
7.03167e-05
7.13353e-05
7.23561e-05
7.33456e-05
7.43449e-05
7.53163e-05
7.63271e-05
7.73302e-05
7.84238e-05
7.95667e-05
8.0891e-05
8.23827e-05
8.42257e-05
8.65047e-05
8.95262e-05
9.36617e-05
9.95744e-05
0.000101731
9.97657e-05
9.67357e-05
9.42576e-05
9.12135e-05
8.80806e-05
8.53335e-05
8.03822e-05
5.06856e-05
2.31562e-05
2.1772e-05
3.71178e-05
3.68818e-05
3.71888e-05
3.76091e-05
3.79881e-05
3.83597e-05
3.87482e-05
3.91622e-05
3.9598e-05
4.00572e-05
4.05375e-05
4.10364e-05
4.15613e-05
4.21098e-05
4.26848e-05
4.3291e-05
4.39222e-05
4.45879e-05
4.52812e-05
4.60137e-05
4.67783e-05
4.75783e-05
4.84179e-05
4.92995e-05
5.02206e-05
5.11733e-05
5.21531e-05
5.31546e-05
5.41934e-05
5.52272e-05
5.62599e-05
5.73215e-05
5.84061e-05
5.94976e-05
6.0599e-05
6.17039e-05
6.28125e-05
6.3921e-05
6.50248e-05
6.61225e-05
6.72024e-05
6.82677e-05
6.9299e-05
7.03158e-05
7.12858e-05
7.22449e-05
7.3157e-05
7.40837e-05
7.49759e-05
7.59322e-05
7.69004e-05
7.80028e-05
7.9223e-05
8.0732e-05
8.26238e-05
8.52035e-05
8.8819e-05
9.40227e-05
9.5952e-05
9.40128e-05
9.09518e-05
8.85646e-05
8.5607e-05
8.2165e-05
8.12806e-05
5.76271e-05
2.75667e-05
2.1732e-05
4.39334e-05
3.47845e-05
3.4566e-05
3.48591e-05
3.52595e-05
3.56273e-05
3.59891e-05
3.63719e-05
3.67802e-05
3.72138e-05
3.76744e-05
3.81563e-05
3.8666e-05
3.91947e-05
3.97578e-05
4.03424e-05
4.09631e-05
4.16112e-05
4.22937e-05
4.30082e-05
4.37625e-05
4.45428e-05
4.53702e-05
4.62322e-05
4.71231e-05
4.8061e-05
4.90427e-05
5.0028e-05
5.1073e-05
5.21486e-05
5.3243e-05
5.42866e-05
5.53486e-05
5.64301e-05
5.75283e-05
5.86448e-05
5.97735e-05
6.091e-05
6.20479e-05
6.31771e-05
6.42946e-05
6.53826e-05
6.64468e-05
6.74626e-05
6.84484e-05
6.9366e-05
7.02632e-05
7.10777e-05
7.18905e-05
7.26258e-05
7.33961e-05
7.41192e-05
7.49254e-05
7.57838e-05
7.68652e-05
7.82831e-05
8.02788e-05
8.30552e-05
8.66311e-05
8.98438e-05
8.77862e-05
8.49209e-05
8.2506e-05
7.98186e-05
7.59996e-05
7.18103e-05
2.92363e-05
2.01037e-05
3.4974e-05
0.000102951
3.25895e-05
3.23876e-05
3.26672e-05
3.30487e-05
3.34048e-05
3.37573e-05
3.41335e-05
3.45353e-05
3.49647e-05
3.54224e-05
3.59035e-05
3.64142e-05
3.6947e-05
3.75121e-05
3.81034e-05
3.87268e-05
3.9381e-05
4.00669e-05
4.07857e-05
4.15398e-05
4.23255e-05
4.31484e-05
4.40083e-05
4.49007e-05
4.58312e-05
4.67983e-05
4.77984e-05
4.88347e-05
4.98934e-05
5.09717e-05
5.20762e-05
5.32184e-05
5.43863e-05
5.55684e-05
5.6761e-05
5.79542e-05
5.91436e-05
6.03219e-05
6.14779e-05
6.26106e-05
6.36976e-05
6.47504e-05
6.57329e-05
6.66766e-05
6.75257e-05
6.83419e-05
6.90407e-05
6.97224e-05
7.02741e-05
7.08295e-05
7.12717e-05
7.17631e-05
7.22673e-05
7.29716e-05
7.39533e-05
7.52356e-05
7.66022e-05
7.72819e-05
7.63178e-05
7.34196e-05
7.06311e-05
7.23859e-05
7.41482e-05
6.97719e-05
3.56173e-05
2.01396e-05
2.53845e-05
7.68895e-05
0.000126591
3.05454e-05
3.03609e-05
3.06271e-05
3.09908e-05
3.1332e-05
3.16723e-05
3.20352e-05
3.24241e-05
3.28401e-05
3.32843e-05
3.37536e-05
3.42507e-05
3.47736e-05
3.53263e-05
3.59085e-05
3.65223e-05
3.71683e-05
3.78482e-05
3.85626e-05
3.93142e-05
4.01024e-05
4.093e-05
4.1797e-05
4.27048e-05
4.36528e-05
4.46428e-05
4.56719e-05
4.67506e-05
4.78476e-05
4.89637e-05
5.01346e-05
5.13419e-05
5.25709e-05
5.38101e-05
5.50547e-05
5.62939e-05
5.752e-05
5.87275e-05
5.98999e-05
6.10394e-05
6.212e-05
6.31528e-05
6.41026e-05
6.49968e-05
6.57789e-05
6.65075e-05
6.70883e-05
6.76194e-05
6.798e-05
6.83205e-05
6.85258e-05
6.88005e-05
6.90918e-05
6.95233e-05
6.99306e-05
6.98461e-05
6.85268e-05
6.51463e-05
6.01526e-05
5.54529e-05
5.4831e-05
6.29368e-05
6.90631e-05
3.86357e-05
2.24319e-05
2.42452e-05
5.22986e-05
0.000107938
0.000170954
2.86053e-05
2.84369e-05
2.86887e-05
2.90336e-05
2.93582e-05
2.96838e-05
3.00304e-05
3.0402e-05
3.07999e-05
3.1225e-05
3.16762e-05
3.21549e-05
3.26614e-05
3.31986e-05
3.37674e-05
3.43703e-05
3.50079e-05
3.56828e-05
3.63954e-05
3.7149e-05
3.79437e-05
3.87825e-05
3.96651e-05
4.05942e-05
4.15685e-05
4.25907e-05
4.3658e-05
4.47699e-05
4.59152e-05
4.70912e-05
4.83223e-05
4.95867e-05
5.08721e-05
5.2164e-05
5.34572e-05
5.47379e-05
5.60007e-05
5.72335e-05
5.84256e-05
5.957e-05
6.06492e-05
6.16633e-05
6.25864e-05
6.3432e-05
6.41507e-05
6.47892e-05
6.52611e-05
6.56631e-05
6.58926e-05
6.61282e-05
6.62734e-05
6.65148e-05
6.66449e-05
6.6473e-05
6.53176e-05
6.24023e-05
5.75212e-05
5.15947e-05
4.68553e-05
4.58859e-05
5.50167e-05
6.11195e-05
4.81286e-05
2.11895e-05
2.21553e-05
4.5159e-05
0.000100469
0.000159343
0.00019185
2.68193e-05
2.66662e-05
2.69061e-05
2.72344e-05
2.7545e-05
2.78578e-05
2.81904e-05
2.85469e-05
2.89284e-05
2.93364e-05
2.97702e-05
3.02316e-05
3.07213e-05
3.12428e-05
3.17971e-05
3.23878e-05
3.30157e-05
3.36843e-05
3.43948e-05
3.51503e-05
3.5952e-05
3.68028e-05
3.7703e-05
3.86551e-05
3.96585e-05
4.07143e-05
4.18271e-05
4.29743e-05
4.41537e-05
4.53896e-05
4.667e-05
4.79802e-05
4.931e-05
5.06472e-05
5.19844e-05
5.33063e-05
5.46077e-05
5.58704e-05
5.70885e-05
5.82455e-05
5.93293e-05
6.0334e-05
6.12327e-05
6.20363e-05
6.27032e-05
6.32737e-05
6.36973e-05
6.40834e-05
6.43776e-05
6.47324e-05
6.49648e-05
6.50048e-05
6.41876e-05
6.19197e-05
5.75707e-05
5.1616e-05
4.5612e-05
4.15707e-05
4.22053e-05
5.37014e-05
5.71338e-05
4.52013e-05
2.55621e-05
1.97189e-05
4.79479e-05
8.44009e-05
0.000151585
0.000187285
0.00019464
2.5124e-05
2.49829e-05
2.52088e-05
2.55184e-05
2.58136e-05
2.61122e-05
2.64303e-05
2.67716e-05
2.71375e-05
2.75295e-05
2.79476e-05
2.83935e-05
2.8869e-05
2.93768e-05
2.99196e-05
3.04997e-05
3.11199e-05
3.17819e-05
3.24893e-05
3.32432e-05
3.40477e-05
3.49032e-05
3.58136e-05
3.67785e-05
3.78014e-05
3.88802e-05
4.0017e-05
4.12022e-05
4.24355e-05
4.37369e-05
4.50865e-05
4.64678e-05
4.78699e-05
4.92781e-05
5.06815e-05
5.20659e-05
5.34178e-05
5.4724e-05
5.59709e-05
5.71442e-05
5.82324e-05
5.92239e-05
6.0106e-05
6.08892e-05
6.15632e-05
6.21873e-05
6.2764e-05
6.33714e-05
6.39167e-05
6.42834e-05
6.39147e-05
6.22298e-05
5.84575e-05
5.28652e-05
4.64697e-05
4.11635e-05
3.87477e-05
4.20274e-05
5.15819e-05
4.79158e-05
3.96061e-05
2.08891e-05
2.47434e-05
4.44844e-05
8.91663e-05
0.000141335
0.000177025
0.000193046
0.000186901
2.36053e-05
2.34756e-05
2.36907e-05
2.39856e-05
2.42688e-05
2.45565e-05
2.48633e-05
2.5193e-05
2.55469e-05
2.59268e-05
2.63332e-05
2.67675e-05
2.72321e-05
2.77297e-05
2.82636e-05
2.88362e-05
2.94513e-05
3.01107e-05
3.0819e-05
3.15777e-05
3.23919e-05
3.32623e-05
3.41943e-05
3.51874e-05
3.62464e-05
3.73732e-05
3.85514e-05
3.97722e-05
4.10618e-05
4.24099e-05
4.38066e-05
4.52377e-05
4.66932e-05
4.81585e-05
4.96183e-05
5.10585e-05
5.24595e-05
5.38089e-05
5.50861e-05
5.62838e-05
5.73879e-05
5.84057e-05
5.93469e-05
6.02473e-05
6.1136e-05
6.20523e-05
6.29431e-05
6.36312e-05
6.36776e-05
6.24097e-05
5.91376e-05
5.38918e-05
4.75512e-05
4.18334e-05
3.81397e-05
3.84795e-05
4.8179e-05
4.43396e-05
4.44775e-05
2.63994e-05
2.18632e-05
2.62943e-05
5.60843e-05
8.61097e-05
0.000126217
0.000156058
0.000188397
0.000189749
0.000169937
2.21305e-05
2.20103e-05
2.22103e-05
2.24854e-05
2.27521e-05
2.30247e-05
2.33162e-05
2.36301e-05
2.39678e-05
2.43314e-05
2.47215e-05
2.51397e-05
2.55884e-05
2.60703e-05
2.6589e-05
2.71465e-05
2.77474e-05
2.83935e-05
2.90899e-05
2.98386e-05
3.06451e-05
3.15109e-05
3.24418e-05
3.34382e-05
3.45062e-05
3.56452e-05
3.68612e-05
3.81536e-05
3.9539e-05
4.0994e-05
4.25075e-05
4.40606e-05
4.56401e-05
4.72246e-05
4.87958e-05
5.03333e-05
5.1817e-05
5.32366e-05
5.45765e-05
5.58505e-05
5.70621e-05
5.82547e-05
5.94441e-05
6.06518e-05
6.18011e-05
6.26927e-05
6.28851e-05
6.17297e-05
5.8676e-05
5.37067e-05
4.77042e-05
4.21042e-05
3.82171e-05
3.75715e-05
4.35217e-05
4.26032e-05
3.99942e-05
3.22206e-05
2.12959e-05
2.15384e-05
3.62535e-05
5.52019e-05
8.82005e-05
0.000107353
0.000139942
0.000180113
0.000185978
0.000175361
0.000148977
2.09397e-05
2.08215e-05
2.10104e-05
2.12716e-05
2.15259e-05
2.17863e-05
2.20654e-05
2.23662e-05
2.26909e-05
2.30412e-05
2.34186e-05
2.38247e-05
2.42624e-05
2.47344e-05
2.5245e-05
2.57969e-05
2.6395e-05
2.70422e-05
2.77439e-05
2.85036e-05
2.93274e-05
3.02193e-05
3.11856e-05
3.22291e-05
3.3357e-05
3.45482e-05
3.5798e-05
3.71338e-05
3.85565e-05
4.00576e-05
4.16272e-05
4.32551e-05
4.49203e-05
4.66072e-05
4.82841e-05
4.99382e-05
5.15437e-05
5.31105e-05
5.46311e-05
5.61372e-05
5.76133e-05
5.90394e-05
6.029e-05
6.09931e-05
6.01158e-05
5.86075e-05
5.62945e-05
5.1505e-05
4.60888e-05
4.11815e-05
3.79344e-05
3.7566e-05
4.3124e-05
4.03998e-05
3.65033e-05
3.30636e-05
2.1129e-05
1.95891e-05
2.73502e-05
3.98976e-05
6.06924e-05
7.71141e-05
9.62236e-05
0.000132338
0.000170858
0.000178692
0.000175303
0.000159118
0.000129372
1.96147e-05
1.95145e-05
1.969e-05
1.99315e-05
2.01694e-05
2.04147e-05
2.06778e-05
2.09618e-05
2.1268e-05
2.15988e-05
2.19549e-05
2.23386e-05
2.27523e-05
2.31992e-05
2.36831e-05
2.42073e-05
2.47769e-05
2.53952e-05
2.60685e-05
2.68009e-05
2.75994e-05
2.84688e-05
2.94158e-05
3.04475e-05
3.15763e-05
3.28233e-05
3.41961e-05
3.56954e-05
3.7307e-05
3.90207e-05
4.08168e-05
4.26804e-05
4.45824e-05
4.65063e-05
4.84182e-05
5.03123e-05
5.21633e-05
5.39697e-05
5.56703e-05
5.71794e-05
5.79504e-05
5.68721e-05
5.61072e-05
5.46828e-05
5.19383e-05
4.73891e-05
4.27768e-05
3.90446e-05
3.70511e-05
3.81251e-05
4.04981e-05
3.7317e-05
3.3544e-05
2.99705e-05
2.03877e-05
1.88343e-05
2.36262e-05
3.19873e-05
4.33222e-05
5.96291e-05
7.09617e-05
9.15114e-05
0.000140136
0.000162268
0.000170891
0.000172418
0.000163654
0.000144223
0.000114252
1.89101e-05
1.87819e-05
1.89378e-05
1.91625e-05
1.9384e-05
1.96129e-05
1.98599e-05
2.01279e-05
2.04188e-05
2.07346e-05
2.10768e-05
2.14476e-05
2.18493e-05
2.22862e-05
2.27618e-05
2.32809e-05
2.38483e-05
2.44696e-05
2.51509e-05
2.58998e-05
2.67232e-05
2.76302e-05
2.86288e-05
2.97195e-05
3.08734e-05
3.21065e-05
3.34577e-05
3.49368e-05
3.65478e-05
3.82966e-05
4.01751e-05
4.21762e-05
4.42761e-05
4.64467e-05
4.86262e-05
5.07344e-05
5.26285e-05
5.41247e-05
5.34569e-05
5.25431e-05
5.16867e-05
5.02324e-05
4.65053e-05
4.25412e-05
3.91135e-05
3.69542e-05
3.69858e-05
3.87502e-05
3.55094e-05
3.24185e-05
2.88584e-05
2.60503e-05
1.85906e-05
1.74481e-05
2.192e-05
2.63919e-05
3.41194e-05
4.7898e-05
5.5418e-05
6.57358e-05
0.00010052
0.00013713
0.000153741
0.00016414
0.000167758
0.000164924
0.000153567
0.000133321
0.000105034
1.76425e-05
1.75718e-05
1.7732e-05
1.79443e-05
1.81551e-05
1.8372e-05
1.86045e-05
1.88542e-05
1.9124e-05
1.94155e-05
1.97307e-05
2.00723e-05
2.04421e-05
2.0845e-05
2.12838e-05
2.17642e-05
2.22899e-05
2.2868e-05
2.35037e-05
2.4206e-05
2.49832e-05
2.58473e-05
2.68133e-05
2.79148e-05
2.91804e-05
3.06212e-05
3.22383e-05
3.40397e-05
3.6029e-05
3.8202e-05
4.05284e-05
4.29498e-05
4.53547e-05
4.75845e-05
4.84567e-05
4.79393e-05
4.73945e-05
4.66381e-05
4.5788e-05
4.4639e-05
4.17273e-05
3.91459e-05
3.7605e-05
3.72747e-05
3.47688e-05
3.18723e-05
2.90534e-05
2.60636e-05
2.35058e-05
1.98685e-05
1.68502e-05
1.66699e-05
1.84303e-05
2.15086e-05
2.76955e-05
3.77189e-05
4.42332e-05
5.04695e-05
7.13801e-05
0.000107721
0.00013018
0.000146842
0.000157412
0.000162522
0.000162935
0.00015813
0.000146263
0.00012725
0.000102709
1.76554e-05
1.74895e-05
1.76046e-05
1.77947e-05
1.79859e-05
1.81847e-05
1.84004e-05
1.86349e-05
1.88895e-05
1.91657e-05
1.94651e-05
1.97894e-05
2.01416e-05
2.0525e-05
2.09442e-05
2.14045e-05
2.19113e-05
2.24726e-05
2.30937e-05
2.3785e-05
2.45538e-05
2.5414e-05
2.63448e-05
2.73452e-05
2.84533e-05
2.97129e-05
3.11358e-05
3.27348e-05
3.44909e-05
3.63717e-05
3.82785e-05
4.00606e-05
4.15015e-05
4.2375e-05
4.16039e-05
4.04442e-05
3.90603e-05
3.74502e-05
3.55971e-05
3.35057e-05
3.11889e-05
2.87125e-05
2.61393e-05
2.37106e-05
2.13873e-05
1.94248e-05
1.77159e-05
1.60488e-05
1.558e-05
1.45006e-05
1.55625e-05
1.73417e-05
2.31054e-05
2.95362e-05
3.50796e-05
3.87403e-05
5.0705e-05
7.21297e-05
9.60322e-05
0.000118477
0.000136825
0.000149165
0.000156796
0.000159956
0.000159069
0.000154613
0.000144356
0.000129468
0.000109786
1.65527e-05
1.6516e-05
1.66692e-05
1.6856e-05
1.70423e-05
1.72389e-05
1.74521e-05
1.76841e-05
1.7937e-05
1.82134e-05
1.85152e-05
1.88451e-05
1.92057e-05
1.96021e-05
2.00376e-05
2.05222e-05
2.10659e-05
2.16907e-05
2.24042e-05
2.32246e-05
2.41544e-05
2.52229e-05
2.64388e-05
2.78058e-05
2.92879e-05
3.08651e-05
3.24934e-05
3.41455e-05
3.57915e-05
3.60741e-05
3.49243e-05
3.35785e-05
3.20392e-05
3.03239e-05
2.84506e-05
2.64839e-05
2.44044e-05
2.23629e-05
2.03851e-05
1.85495e-05
1.68523e-05
1.5383e-05
1.43922e-05
1.35656e-05
1.28735e-05
1.22631e-05
1.15166e-05
1.14211e-05
1.15289e-05
1.39967e-05
1.704e-05
2.23845e-05
2.53215e-05
2.7157e-05
3.08006e-05
3.73339e-05
5.25557e-05
7.29523e-05
9.43134e-05
0.000113711
0.000129455
0.000141199
0.000149422
0.000154124
0.000154548
0.000152175
0.000134801
0.000121367
0.0001132
1.90684e-05
1.88973e-05
1.90656e-05
1.93273e-05
1.95832e-05
1.98437e-05
2.0124e-05
2.04286e-05
2.07633e-05
2.11301e-05
2.15364e-05
2.19838e-05
2.2481e-05
2.30312e-05
2.36391e-05
2.43006e-05
2.50133e-05
2.57313e-05
2.64599e-05
2.71733e-05
2.71289e-05
2.65933e-05
2.59435e-05
2.5182e-05
2.42586e-05
2.32175e-05
2.20635e-05
2.08528e-05
1.96017e-05
1.83458e-05
1.71066e-05
1.591e-05
1.47747e-05
1.37272e-05
1.27367e-05
1.18918e-05
1.10794e-05
1.06557e-05
1.02199e-05
9.73825e-06
9.24646e-06
8.77956e-06
8.24394e-06
7.75338e-06
7.50036e-06
7.47997e-06
8.05908e-06
9.37766e-06
1.13291e-05
1.54694e-05
1.57628e-05
1.42611e-05
1.41293e-05
1.4436e-05
1.63091e-05
2.3158e-05
3.36259e-05
4.8759e-05
6.71561e-05
8.49963e-05
0.000100557
0.00011378
0.000124417
0.000132095
0.000136407
0.000132254
0.00011454
0.000103337
0.000100833
8.78503e-06
8.71758e-06
8.64467e-06
8.57554e-06
8.50708e-06
8.43483e-06
8.37128e-06
8.29582e-06
8.23427e-06
8.15724e-06
8.09439e-06
8.01652e-06
7.94932e-06
7.87076e-06
7.79562e-06
7.7165e-06
7.63148e-06
7.54883e-06
7.46768e-06
7.39232e-06
7.33021e-06
7.27353e-06
7.23532e-06
7.20392e-06
7.17636e-06
7.16647e-06
7.15305e-06
7.15062e-06
7.1631e-06
7.14996e-06
7.14295e-06
7.12452e-06
7.09017e-06
7.02399e-06
6.91133e-06
6.81433e-06
6.41749e-06
5.98684e-06
5.57815e-06
5.06555e-06
4.59458e-06
4.193e-06
3.90106e-06
3.52069e-06
3.54377e-06
2.69266e-06
2.43521e-06
3.32349e-06
4.20499e-06
4.4204e-06
3.39277e-06
2.26294e-06
1.75066e-06
1.91023e-06
2.61661e-06
4.16849e-06
7.1722e-06
1.23353e-05
2.05036e-05
3.15016e-05
4.0941e-05
4.97313e-05
5.82992e-05
6.5925e-05
7.20983e-05
7.62732e-05
7.79212e-05
7.72357e-05
7.49866e-05
4.98599e-06
5.11792e-06
5.24976e-06
5.3816e-06
5.51351e-06
5.64533e-06
5.77742e-06
5.90936e-06
6.04154e-06
6.17351e-06
6.30556e-06
6.43726e-06
6.56887e-06
6.69981e-06
6.83051e-06
6.96097e-06
7.08841e-06
7.21769e-06
7.31761e-06
7.43993e-06
7.51849e-06
7.4909e-06
7.55441e-06
7.52847e-06
7.43709e-06
7.37e-06
7.27658e-06
7.15999e-06
7.1668e-06
6.81152e-06
6.69823e-06
6.44998e-06
6.1212e-06
5.69097e-06
5.13881e-06
4.44455e-06
3.58551e-06
2.59631e-06
1.61809e-06
7.86691e-07
2.92362e-07
1.80726e-07
2.21135e-07
2.57278e-07
2.56536e-07
2.29942e-07
1.91695e-07
1.59943e-07
1.43352e-07
1.29256e-07
1.03175e-07
8.73227e-08
8.9464e-08
1.17636e-07
1.76785e-07
2.79851e-07
4.37684e-07
6.53554e-07
9.25819e-07
1.25502e-06
1.67481e-06
2.14495e-06
2.6315e-06
3.11163e-06
3.58767e-06
4.10971e-06
4.60966e-06
5.01993e-06
4.93325e-06
7.07511e-05
7.16011e-05
7.21574e-05
7.41142e-05
7.46569e-05
7.35873e-05
7.12698e-05
7.02354e-05
7.12083e-05
7.20046e-05
7.33384e-05
7.3336e-05
7.21182e-05
6.97023e-05
6.99769e-05
7.20568e-05
7.19651e-05
7.11633e-05
6.99554e-05
6.98788e-05
7.07998e-05
7.20465e-05
7.0691e-05
6.94411e-05
6.9745e-05
6.99497e-05
6.92513e-05
6.89933e-05
7.06537e-05
7.01107e-05
6.96203e-05
6.99563e-05
7.03661e-05
7.05284e-05
6.90754e-05
6.92129e-05
7.01333e-05
6.90263e-05
6.87135e-05
6.99467e-05
6.84845e-05
6.79422e-05
6.95577e-05
7.10448e-05
7.06222e-05
7.07847e-05
7.16293e-05
7.23785e-05
7.21164e-05
7.04439e-05
6.84016e-05
6.56916e-05
6.71998e-05
6.70641e-05
7.02246e-05
7.29951e-05
7.31921e-05
7.28698e-05
7.49616e-05
6.64994e-05
6.74949e-05
6.74686e-05
6.77224e-05
6.70653e-05
6.57993e-05
6.50972e-05
6.5816e-05
6.72693e-05
6.79108e-05
6.77502e-05
6.70089e-05
6.62424e-05
6.51607e-05
6.62277e-05
6.67476e-05
6.63272e-05
6.53725e-05
6.5259e-05
6.57073e-05
6.61689e-05
6.6061e-05
6.5338e-05
6.48129e-05
6.48642e-05
6.49342e-05
6.47769e-05
6.43188e-05
6.51072e-05
6.52968e-05
6.43837e-05
6.49488e-05
6.50308e-05
6.56478e-05
6.49077e-05
6.47576e-05
6.56731e-05
6.54077e-05
6.47754e-05
6.47242e-05
6.42015e-05
6.39801e-05
6.42845e-05
6.53636e-05
6.61422e-05
6.62005e-05
6.67687e-05
6.7721e-05
6.85056e-05
6.824e-05
6.71302e-05
6.54334e-05
6.41583e-05
6.38846e-05
6.43861e-05
6.60249e-05
6.76599e-05
6.81363e-05
6.9663e-05
6.15018e-05
6.22665e-05
6.16675e-05
6.13051e-05
6.08615e-05
6.0754e-05
6.12593e-05
6.21736e-05
6.27873e-05
6.26518e-05
6.20835e-05
6.14842e-05
6.11167e-05
6.10131e-05
6.16705e-05
6.15999e-05
6.11753e-05
6.07526e-05
6.10351e-05
6.15033e-05
6.132e-05
6.07957e-05
6.04267e-05
6.0185e-05
6.02182e-05
6.01259e-05
6.01231e-05
5.96824e-05
6.01941e-05
6.02818e-05
5.9668e-05
6.01113e-05
6.01344e-05
6.05209e-05
6.02719e-05
6.00492e-05
6.06515e-05
6.08654e-05
6.05571e-05
6.03073e-05
6.00287e-05
5.98711e-05
5.98387e-05
6.00756e-05
6.09593e-05
6.13072e-05
6.16492e-05
6.22811e-05
6.31962e-05
6.38249e-05
6.38513e-05
6.33838e-05
6.23682e-05
6.16606e-05
6.12173e-05
6.1275e-05
6.1823e-05
6.20427e-05
6.34938e-05
5.63287e-05
5.69174e-05
5.64141e-05
5.63867e-05
5.65397e-05
5.69374e-05
5.74354e-05
5.77544e-05
5.76798e-05
5.73059e-05
5.68811e-05
5.66292e-05
5.66376e-05
5.6862e-05
5.70994e-05
5.68879e-05
5.66003e-05
5.65632e-05
5.69025e-05
5.7145e-05
5.67006e-05
5.62155e-05
5.60098e-05
5.58909e-05
5.59153e-05
5.57961e-05
5.58074e-05
5.55099e-05
5.58541e-05
5.58561e-05
5.55058e-05
5.5848e-05
5.58187e-05
5.60569e-05
5.60144e-05
5.58326e-05
5.61748e-05
5.65508e-05
5.65371e-05
5.63844e-05
5.6255e-05
5.61619e-05
5.60636e-05
5.60615e-05
5.6547e-05
5.70473e-05
5.74295e-05
5.78292e-05
5.84399e-05
5.9147e-05
5.97046e-05
6.00277e-05
5.99794e-05
5.96911e-05
5.9304e-05
5.89432e-05
5.88089e-05
5.84272e-05
5.93765e-05
5.18459e-05
5.25458e-05
5.23229e-05
5.25476e-05
5.28108e-05
5.3059e-05
5.31686e-05
5.30738e-05
5.28465e-05
5.25992e-05
5.24589e-05
5.24849e-05
5.26381e-05
5.27901e-05
5.27787e-05
5.25734e-05
5.24669e-05
5.26065e-05
5.2876e-05
5.28733e-05
5.24146e-05
5.20608e-05
5.19438e-05
5.18953e-05
5.19028e-05
5.18129e-05
5.18263e-05
5.16372e-05
5.18723e-05
5.18688e-05
5.16503e-05
5.19258e-05
5.18968e-05
5.20861e-05
5.21518e-05
5.20419e-05
5.22221e-05
5.25868e-05
5.27475e-05
5.27117e-05
5.26628e-05
5.26523e-05
5.26138e-05
5.25881e-05
5.28015e-05
5.32001e-05
5.36188e-05
5.39903e-05
5.43992e-05
5.49084e-05
5.54608e-05
5.5987e-05
5.6398e-05
5.6634e-05
5.66976e-05
5.66246e-05
5.65491e-05
5.60364e-05
5.67155e-05
4.81662e-05
4.89313e-05
4.87742e-05
4.89447e-05
4.90412e-05
4.90492e-05
4.89511e-05
4.88152e-05
4.86848e-05
4.86203e-05
4.86516e-05
4.87449e-05
4.88529e-05
4.88694e-05
4.87695e-05
4.86607e-05
4.87024e-05
4.88695e-05
4.89943e-05
4.88345e-05
4.84534e-05
4.82184e-05
4.81582e-05
4.81458e-05
4.81404e-05
4.80804e-05
4.80927e-05
4.79713e-05
4.81433e-05
4.81465e-05
4.80016e-05
4.82277e-05
4.82327e-05
4.83943e-05
4.85227e-05
4.84897e-05
4.85859e-05
4.88801e-05
4.91247e-05
4.92113e-05
4.92338e-05
4.92762e-05
4.93053e-05
4.93112e-05
4.94125e-05
4.96633e-05
5.00189e-05
5.03899e-05
5.07476e-05
5.11281e-05
5.15499e-05
5.20049e-05
5.24609e-05
5.28737e-05
5.3209e-05
5.34398e-05
5.36301e-05
5.33222e-05
5.40897e-05
4.48536e-05
4.55341e-05
4.53042e-05
4.53426e-05
4.53041e-05
4.52321e-05
4.51474e-05
4.50878e-05
4.50738e-05
4.51133e-05
4.51887e-05
4.52601e-05
4.52819e-05
4.52258e-05
4.51476e-05
4.51412e-05
4.52292e-05
4.53466e-05
4.53405e-05
4.51156e-05
4.48268e-05
4.46813e-05
4.46553e-05
4.46551e-05
4.46414e-05
4.46012e-05
4.46092e-05
4.45359e-05
4.46727e-05
4.46825e-05
4.45891e-05
4.47772e-05
4.48166e-05
4.49562e-05
4.51136e-05
4.51495e-05
4.52154e-05
4.54392e-05
4.56981e-05
4.58743e-05
4.59765e-05
4.60676e-05
4.61507e-05
4.6208e-05
4.62894e-05
4.64497e-05
4.67063e-05
4.70265e-05
4.73624e-05
4.77007e-05
4.8047e-05
4.84125e-05
4.8797e-05
4.91868e-05
4.95634e-05
4.98991e-05
5.02365e-05
5.01141e-05
5.10185e-05
4.16588e-05
4.22223e-05
4.19465e-05
4.19323e-05
4.18781e-05
4.18345e-05
4.18112e-05
4.1818e-05
4.18517e-05
4.1899e-05
4.19379e-05
4.19479e-05
4.19224e-05
4.18634e-05
4.18518e-05
4.19026e-05
4.1985e-05
4.20196e-05
4.19263e-05
4.17061e-05
4.15052e-05
4.14232e-05
4.1414e-05
4.14143e-05
4.13966e-05
4.13696e-05
4.13714e-05
4.13321e-05
4.14468e-05
4.14623e-05
4.14068e-05
4.15639e-05
4.16288e-05