/*--------------------------------*- C++ -*----------------------------------*\
| =========                 |                                                 |
| \\      /  F ield         | OpenFOAM: The Open Source CFD Toolbox           |
|  \\    /   O peration     | Version:  2312                                  |
|   \\  /    A nd           | Website:  www.openfoam.com                      |
|    \\/     M anipulation  |                                                 |
\*---------------------------------------------------------------------------*/
FoamFile
{
    version     2.0;
    format      ascii;
    arch        "LSB;label=32;scalar=64";
    class       volScalarField;
    location    "1600";
    object      omega;
}
// * * * * * * * * * * * * * * * * * * * * * * * * * * * * * * * * * * * * * //

dimensions      [0 0 -1 0 0 0 0];

internalField   nonuniform List<scalar> 
76025
(
0.0290921
0.0291141
0.0291513
0.029171
0.0291829
0.0291938
0.0291921
0.0292007
0.0292116
0.0292253
0.0292313
0.0292485
0.0292647
0.0292952
0.0293269
0.029373
0.0293993
0.0294437
0.0294637
0.0295019
0.0295321
0.0295667
0.0295927
0.0296161
0.0296254
0.0296348
0.0296501
0.0296689
0.0296972
0.0297161
0.0297561
0.0297925
0.0298617
0.0298965
0.0298829
0.0298953
0.0299542
0.0299958
0.0301085
0.0301883
0.0303493
0.0304758
0.0307028
0.0308871
0.0312065
0.0314585
0.0318701
0.0321715
0.032693
0.0330182
0.0336036
0.0339598
0.0345672
0.0348948
0.0356122
0.0360145
0.0369029
0.0374617
0.0385572
0.0393681
0.0405582
0.0414101
0.0430216
0.0441853
0.0461627
0.0478797
0.0497188
0.0520986
0.0555685
0.0293479
0.0293507
0.0293631
0.0293769
0.029392
0.0294107
0.0294211
0.029431
0.029435
0.0294442
0.0294484
0.0294638
0.0294728
0.0294964
0.029517
0.0295527
0.029583
0.0296205
0.029654
0.0296946
0.0297331
0.0297771
0.0298257
0.0298732
0.0299204
0.0299558
0.0299917
0.0300202
0.0300536
0.0300819
0.0301259
0.0301624
0.0302188
0.0302686
0.0303493
0.0304265
0.0305469
0.0306582
0.0308277
0.0309715
0.0311896
0.0313717
0.031655
0.0319003
0.032262
0.0325624
0.032982
0.0333096
0.0337623
0.0340904
0.0345797
0.034922
0.0355045
0.0359594
0.0367304
0.0373468
0.038312
0.0390794
0.040228
0.0411076
0.0424484
0.0436698
0.0452506
0.0467802
0.0488142
0.0505495
0.0536228
0.0557959
0.0601138
0.0297497
0.0297431
0.0297409
0.0297425
0.0297439
0.0297525
0.0297657
0.0297862
0.0298048
0.0298278
0.0298453
0.0298646
0.02988
0.0298974
0.0299125
0.0299295
0.0299575
0.0299841
0.0300203
0.0300583
0.0300992
0.0301398
0.0301865
0.0302359
0.0302896
0.0303445
0.0303981
0.0304565
0.0305203
0.0305891
0.0306725
0.030758
0.0308668
0.030973
0.0311112
0.0312359
0.0314034
0.0315466
0.03175
0.0319172
0.0321686
0.0323723
0.0326905
0.0329421
0.0333288
0.0336134
0.0340454
0.0343395
0.0348073
0.0351147
0.0356553
0.0360364
0.0367276
0.0372365
0.038109
0.0387403
0.0397854
0.0405491
0.0417718
0.0427284
0.0442026
0.0453933
0.0471418
0.0486937
0.0507425
0.0528954
0.0555028
0.0581327
0.062087
0.0301424
0.0301581
0.0301708
0.0301769
0.0301788
0.0301806
0.0301842
0.0301964
0.0302123
0.0302359
0.0302654
0.0302979
0.0303345
0.0303712
0.0304105
0.0304462
0.0304878
0.0305301
0.0305748
0.0306246
0.0306761
0.0307319
0.0307892
0.0308508
0.0309121
0.0309791
0.0310445
0.031118
0.0311946
0.03128
0.0313765
0.0314765
0.0316002
0.0317164
0.0318721
0.0320102
0.0322042
0.0323707
0.0326056
0.0328005
0.0330852
0.0333153
0.0336562
0.033916
0.0343025
0.034579
0.0350058
0.0353053
0.0357965
0.0361591
0.0367728
0.0372523
0.0380342
0.0386461
0.0396031
0.0403457
0.0414852
0.0423801
0.0437178
0.0448118
0.0463633
0.047717
0.0495922
0.05125
0.0537148
0.0557445
0.0591935
0.0617073
0.067108
0.030649
0.0306664
0.0306826
0.0306959
0.0307051
0.0307141
0.0307233
0.0307382
0.0307574
0.0307851
0.0308186
0.0308588
0.0309042
0.0309503
0.0310004
0.0310487
0.0310988
0.0311509
0.0312037
0.0312581
0.0313129
0.0313741
0.0314375
0.0315099
0.0315843
0.031669
0.0317586
0.031857
0.0319649
0.0320722
0.0322006
0.0323228
0.032471
0.0326094
0.032796
0.0329643
0.033202
0.0333917
0.0336596
0.033873
0.0341961
0.03445
0.0348261
0.0351014
0.0355105
0.0357974
0.0362558
0.036593
0.0371545
0.0375971
0.0383052
0.0388735
0.0397384
0.0404246
0.041457
0.0422614
0.0434812
0.0444273
0.0458514
0.0470026
0.0486579
0.0501359
0.0520804
0.0540383
0.0564462
0.0589743
0.0623745
0.0654009
0.0706231
0.0312835
0.0313186
0.031354
0.0313826
0.0314083
0.0314293
0.0314461
0.0314613
0.0314761
0.0314897
0.0315081
0.0315294
0.0315596
0.0315977
0.0316449
0.0316981
0.0317586
0.0318218
0.0318888
0.031966
0.0320447
0.0321347
0.0322248
0.0323295
0.0324361
0.0325472
0.032658
0.0327695
0.0328837
0.0330037
0.0331292
0.0332736
0.033422
0.0335947
0.033786
0.0339841
0.0342401
0.0344554
0.034771
0.0350535
0.035462
0.0357935
0.0362479
0.0365815
0.0370534
0.0373929
0.0379158
0.038308
0.0389239
0.0394053
0.0401422
0.0407395
0.0416291
0.0423619
0.0434387
0.044311
0.045607
0.0466294
0.0481824
0.0494084
0.051274
0.0528126
0.0550827
0.0571032
0.0599513
0.0626613
0.0666475
0.0698131
0.0765025
0.0319572
0.0319853
0.032022
0.032061
0.032101
0.0321418
0.0321833
0.0322234
0.0322684
0.0323123
0.0323582
0.032404
0.0324546
0.0325066
0.0325598
0.0326165
0.0326778
0.0327443
0.0328081
0.0328784
0.0329457
0.0330283
0.0331101
0.0332137
0.0333189
0.0334401
0.0335611
0.0336907
0.0338224
0.0339634
0.0341127
0.0342723
0.034453
0.0346405
0.0348698
0.0350875
0.0353806
0.035644
0.0360034
0.0363031
0.0367387
0.0370989
0.0376102
0.0379989
0.0385458
0.0389421
0.0395309
0.0399627
0.040634
0.0411602
0.0419705
0.0426424
0.0436254
0.044453
0.0456253
0.0466003
0.047997
0.049134
0.0508174
0.0521793
0.0542384
0.0559414
0.0584992
0.0607315
0.0639533
0.0670437
0.0713391
0.0751484
0.0827033
0.0329227
0.0329491
0.0329749
0.0330015
0.0330345
0.0330736
0.0331197
0.0331675
0.0332175
0.0332703
0.0333225
0.033376
0.033434
0.0335035
0.0335758
0.0336626
0.0337429
0.0338395
0.0339269
0.0340268
0.0341127
0.034203
0.0342863
0.0343779
0.0344727
0.0345778
0.0346886
0.0348102
0.0349417
0.0350867
0.0352558
0.0354324
0.0356549
0.0358706
0.0361485
0.0364052
0.036745
0.0370414
0.0374472
0.0377823
0.0382465
0.0386064
0.0391267
0.0395159
0.0400988
0.0405306
0.0412015
0.0417079
0.0425088
0.0431389
0.0440955
0.0448557
0.0459585
0.0468494
0.0481236
0.0491769
0.050691
0.0519547
0.0537967
0.0553423
0.0576327
0.0595516
0.062468
0.0649105
0.0686899
0.0720759
0.076946
0.0815658
0.0911718
0.0339259
0.0339705
0.0340163
0.0340647
0.0341107
0.0341586
0.0342118
0.0342639
0.0343227
0.0343834
0.0344509
0.0345127
0.0345789
0.0346364
0.0347012
0.0347641
0.0348372
0.0349119
0.0350033
0.0351007
0.0352127
0.0353295
0.0354583
0.0355874
0.0357304
0.0358669
0.0360251
0.0361742
0.0363622
0.0365378
0.0367657
0.0369662
0.0372303
0.0374514
0.0377573
0.0380153
0.038387
0.0386973
0.0391377
0.0394867
0.03998
0.0403485
0.0408989
0.0413057
0.0419402
0.0424395
0.043241
0.0438718
0.0448576
0.0456052
0.0467115
0.0474984
0.0487041
0.04959
0.0509953
0.052105
0.0538036
0.0552168
0.0572747
0.0590807
0.0615985
0.0638793
0.0670783
0.0699588
0.074199
0.0781568
0.0833527
0.0904284
0.104069
0.0351628
0.0352014
0.0352454
0.035291
0.0353402
0.0353944
0.0354523
0.0355184
0.0355839
0.035658
0.0357424
0.0358358
0.0359377
0.0360463
0.0361585
0.0362696
0.0363893
0.036504
0.0366368
0.0367594
0.0368947
0.0370156
0.0371495
0.0372713
0.0374095
0.0375483
0.0377042
0.037866
0.0380682
0.0382608
0.038511
0.0387475
0.0390428
0.0393196
0.0396878
0.0400315
0.0404887
0.0408821
0.0413969
0.0418053
0.0423514
0.042765
0.043404
0.0438914
0.0446436
0.0453229
0.0462913
0.047069
0.0482052
0.0490286
0.0501569
0.0508393
0.0520371
0.052824
0.0543749
0.0555199
0.0574898
0.0590422
0.0614268
0.0634815
0.066324
0.0690173
0.0725246
0.0760441
0.0805757
0.0857104
0.0903207
0.105679
0.129581
0.0366864
0.0367596
0.0368333
0.0369018
0.036968
0.0370301
0.0370862
0.0371423
0.0371988
0.0372535
0.0373181
0.0373831
0.0374621
0.0375447
0.0376445
0.0377483
0.0378677
0.0379874
0.0381232
0.0382618
0.0384198
0.0385714
0.0387485
0.0389111
0.0390956
0.0392791
0.0394755
0.0396823
0.0399185
0.0401573
0.0404427
0.0407381
0.0410629
0.0414254
0.0418213
0.0422199
0.042716
0.0431847
0.0437942
0.0443113
0.0449684
0.0455257
0.0463561
0.0469815
0.0479125
0.0489389
0.0500497
0.0510888
0.0524577
0.0535675
0.0545534
0.0550412
0.0559912
0.0566354
0.0583377
0.059577
0.061882
0.0636154
0.0664206
0.0687298
0.0720489
0.0751555
0.0791305
0.0834186
0.0882904
0.0954317
0.0988754
0.136996
0.193729
0.0383343
0.038388
0.0384515
0.0385169
0.0385859
0.0386646
0.0387356
0.038818
0.0388982
0.0389992
0.0391045
0.0392256
0.0393447
0.0394762
0.0396023
0.0397402
0.0398753
0.0400387
0.0401879
0.0403636
0.040516
0.0406872
0.0408502
0.041026
0.0412144
0.0414191
0.0416393
0.0418938
0.0421421
0.0424657
0.042736
0.0431294
0.0434481
0.0438889
0.0442971
0.0447804
0.0453154
0.0458425
0.0465313
0.0471465
0.0479658
0.04878
0.0498507
0.0506899
0.0519093
0.0534032
0.0545517
0.0560431
0.0579528
0.0601903
0.0607495
0.0605155
0.0605945
0.0611497
0.0630159
0.0644978
0.0671565
0.0691999
0.0724453
0.075125
0.0790244
0.0826092
0.0872904
0.0925046
0.097892
0.108765
0.114208
0.210436
0.380156
0.040607
0.0406768
0.0407625
0.0408371
0.0409316
0.0410138
0.0411259
0.0412172
0.0413304
0.0414122
0.0415269
0.0416112
0.0417373
0.0418327
0.0419751
0.0420859
0.0422469
0.042387
0.0425708
0.0427343
0.0429225
0.0430997
0.043282
0.0434893
0.0436738
0.0439369
0.0441434
0.0444721
0.0447254
0.0451134
0.0454328
0.0458713
0.0462823
0.0467569
0.0473006
0.0478201
0.0485123
0.0491124
0.0499459
0.0506596
0.0516586
0.0525777
0.0535397
0.0547223
0.0558539
0.0569311
0.0583301
0.0598142
0.0614576
0.0632328
0.0637563
0.0637674
0.0650019
0.0662159
0.0686577
0.0705692
0.0736204
0.0761524
0.0798242
0.0831344
0.0876284
0.0919821
0.097559
0.104302
0.109877
0.133556
0.160897
0.37506
0.80322
0.0430171
0.0431126
0.0432197
0.0433245
0.0434284
0.0435368
0.0436493
0.043781
0.043909
0.044044
0.0441616
0.0442843
0.0443851
0.0445014
0.0445961
0.0447215
0.0448258
0.0449819
0.0451151
0.0453163
0.0454835
0.0457308
0.0459304
0.0462232
0.0464597
0.0467984
0.0470829
0.0474734
0.047819
0.0482687
0.0486814
0.049205
0.0496889
0.050304
0.0508749
0.0515948
0.0522839
0.0530959
0.0539529
0.0548446
0.0558953
0.0569035
0.0581038
0.0593194
0.0606546
0.0620395
0.063622
0.0651507
0.0666853
0.0674337
0.0687
0.0696676
0.0716049
0.0731589
0.0760024
0.078333
0.0818305
0.0849892
0.0891909
0.0934285
0.0986548
0.104214
0.111062
0.120599
0.127542
0.189803
0.299198
0.718505
1.30539
0.0461141
0.0462054
0.0462887
0.046381
0.0464738
0.0465732
0.0466735
0.0467743
0.0468837
0.0469979
0.0471308
0.0472768
0.0474496
0.0476341
0.0478436
0.0480485
0.0482735
0.0484759
0.0487062
0.0489027
0.0491493
0.0493532
0.0496371
0.0498669
0.0502095
0.0504823
0.0508978
0.0512346
0.0517245
0.0521493
0.0526962
0.0532434
0.0538244
0.0545225
0.0551638
0.0559743
0.0567902
0.0576125
0.0587007
0.0595905
0.0608551
0.062
0.0633518
0.0648306
0.0663182
0.0680258
0.0701474
0.0734608
0.0760383
0.0772417
0.0777256
0.0787478
0.0802989
0.0821414
0.0854776
0.0884073
0.0924835
0.0965547
0.10159
0.107187
0.113633
0.120841
0.130332
0.146622
0.168242
0.328363
0.610449
1.28569
1.33147
0.0498502
0.0499991
0.0501668
0.0503145
0.0504766
0.0506217
0.0507773
0.050914
0.0510532
0.051172
0.0513049
0.0514174
0.0515631
0.0516787
0.0518481
0.051975
0.0521799
0.0523314
0.052584
0.052773
0.0530811
0.0533137
0.0536831
0.0539618
0.0543951
0.0547256
0.0552263
0.055626
0.0561916
0.0566878
0.0573078
0.0579374
0.0586043
0.0593959
0.0601418
0.0610623
0.0619788
0.0629592
0.0641266
0.0652276
0.066585
0.0679898
0.0694698
0.071222
0.0731076
0.0748835
0.0770285
0.0793045
0.0826618
0.0849262
0.086369
0.0877678
0.0906711
0.0935771
0.0977912
0.101657
0.10661
0.11222
0.118697
0.126412
0.135107
0.14468
0.163785
0.193822
0.295586
0.619574
1.21568
1.39203
1.23589
0.0543308
0.0544394
0.054567
0.0546735
0.0548047
0.0549273
0.0550795
0.0552183
0.0554029
0.0555536
0.0557676
0.0559406
0.0562091
0.0564405
0.0567727
0.0570558
0.0574165
0.0577145
0.0580722
0.058363
0.0587314
0.0590255
0.0594366
0.0597658
0.0602432
0.0606355
0.0612006
0.0616699
0.0623221
0.0628874
0.0636201
0.0643104
0.0651142
0.0659562
0.0668224
0.0678359
0.0687784
0.069979
0.0711122
0.0724452
0.0739485
0.0753505
0.077266
0.0789342
0.080906
0.0829551
0.0853262
0.0875956
0.0898665
0.0925092
0.0958518
0.0994716
0.10377
0.108365
0.113746
0.118988
0.125689
0.133935
0.143178
0.154279
0.16803
0.184277
0.243989
0.330279
0.685558
1.20929
1.41852
1.30223
1.14106
0.059984
0.0601639
0.0603355
0.0605195
0.0606819
0.0608738
0.061062
0.061267
0.0614839
0.0617103
0.0619572
0.0621886
0.0624206
0.0626404
0.0628498
0.0630875
0.0633098
0.0636022
0.0638703
0.0642289
0.0645582
0.0649818
0.0653811
0.0658684
0.066351
0.0669046
0.0674868
0.0681095
0.0687897
0.0695038
0.0702668
0.0711087
0.0719674
0.0729495
0.0739784
0.075081
0.0763561
0.0776393
0.0791011
0.0806904
0.0822659
0.0840892
0.086015
0.0879434
0.0903221
0.092452
0.0950823
0.0977146
0.101078
0.10476
0.109408
0.114921
0.120214
0.126898
0.133714
0.141507
0.15189
0.164733
0.179206
0.198064
0.227491
0.283701
0.427531
0.745498
1.26716
1.42022
1.32868
1.18184
1.06259
0.0670524
0.0672259
0.0674322
0.0676169
0.0678169
0.0680201
0.0682459
0.0684696
0.0687222
0.0689899
0.0692857
0.0695989
0.0699227
0.0702619
0.0705897
0.0709386
0.0712565
0.0716061
0.0719195
0.0722798
0.0726135
0.073014
0.0733929
0.0738776
0.0743206
0.0749263
0.0754689
0.0762107
0.0768936
0.0777834
0.0786562
0.0796948
0.0808108
0.0820015
0.0833777
0.0847173
0.0863103
0.0877717
0.089526
0.0911078
0.0930114
0.0948805
0.0969926
0.0992981
0.102014
0.104808
0.108498
0.112258
0.116864
0.121649
0.127286
0.133652
0.139596
0.149304
0.158985
0.172444
0.189757
0.211198
0.239049
0.285061
0.380628
0.561245
0.959163
1.33742
1.38581
1.30398
1.1884
1.07197
0.995702
0.0755996
0.0758235
0.0760279
0.0762499
0.0764522
0.0766686
0.0769191
0.0771601
0.0774555
0.0777101
0.0780211
0.0782899
0.0785938
0.0789109
0.0792387
0.0796394
0.0800216
0.0804991
0.0809377
0.0814553
0.0819492
0.08252
0.083067
0.0837456
0.0843812
0.0852164
0.0859805
0.0869965
0.0879092
0.0890935
0.0901504
0.0915091
0.0927191
0.0942173
0.0955433
0.0971023
0.098551
0.100156
0.101858
0.103663
0.105797
0.10808
0.110745
0.113742
0.117016
0.120615
0.124931
0.128843
0.134456
0.139491
0.146919
0.155101
0.164967
0.180833
0.197965
0.223127
0.253786
0.300028
0.376635
0.521984
0.822083
1.20806
1.35837
1.31409
1.21903
1.13632
1.06006
0.980866
0.935103
0.086976
0.0872828
0.0876272
0.0879631
0.0883236
0.0886856
0.0890533
0.0894383
0.0898305
0.0902088
0.0905855
0.0909586
0.0913379
0.0917215
0.0920795
0.0924711
0.0927992
0.0931967
0.0935821
0.0940588
0.094568
0.0951877
0.0958631
0.0966688
0.0974908
0.0984387
0.0993407
0.100359
0.101333
0.10242
0.103538
0.104749
0.106073
0.107446
0.109007
0.110602
0.112449
0.114403
0.116629
0.119179
0.121814
0.12525
0.128214
0.132672
0.136186
0.141485
0.146618
0.152492
0.160849
0.168784
0.181822
0.195721
0.214562
0.241642
0.275855
0.328455
0.402732
0.535541
0.783433
1.14378
1.37153
1.34202
1.22454
1.09247
1.04261
1.00666
0.959133
0.904266
0.874717
0.101049
0.101413
0.101777
0.102153
0.102536
0.102906
0.103339
0.103704
0.104179
0.104578
0.105082
0.105522
0.106065
0.106593
0.107196
0.107853
0.108517
0.109254
0.10993
0.110677
0.111346
0.11211
0.112851
0.113711
0.114627
0.115679
0.116747
0.117985
0.119267
0.120717
0.122194
0.123753
0.125318
0.126939
0.128623
0.130466
0.132446
0.134795
0.137281
0.140426
0.143518
0.147784
0.15149
0.157397
0.162085
0.170312
0.177795
0.188551
0.202655
0.218663
0.242511
0.270273
0.310091
0.370796
0.457304
0.597694
0.83164
1.17438
1.44718
1.43503
1.32259
1.07597
0.957249
0.930989
0.925824
0.911224
0.880011
0.840449
0.813944
0.119296
0.119683
0.120068
0.120522
0.120961
0.121467
0.121977
0.122567
0.123142
0.123779
0.124439
0.125113
0.125852
0.126513
0.127236
0.12788
0.12853
0.129173
0.129844
0.130517
0.131281
0.132117
0.133079
0.134085
0.135148
0.136228
0.137305
0.13849
0.139653
0.141059
0.142476
0.144301
0.146134
0.148399
0.150654
0.153362
0.156168
0.159549
0.163142
0.167674
0.172331
0.17882
0.185193
0.194902
0.204756
0.219707
0.23628
0.258814
0.289024
0.324697
0.378451
0.443453
0.551695
0.700824
0.960643
1.28866
1.57233
1.56531
1.44965
1.14532
0.897874
0.821356
0.815177
0.83336
0.844143
0.841062
0.81833
0.786266
0.758835
0.145488
0.14614
0.146654
0.147332
0.147857
0.148548
0.14911
0.149816
0.150449
0.151145
0.151884
0.152556
0.153415
0.154074
0.15501
0.155703
0.156694
0.157449
0.158526
0.159405
0.160553
0.161627
0.162883
0.164159
0.165541
0.166949
0.168465
0.170165
0.171833
0.173854
0.176161
0.178894
0.18169
0.184669
0.187676
0.191228
0.195123
0.200228
0.206153
0.214094
0.223559
0.236407
0.251867
0.273074
0.298614
0.332582
0.373913
0.429389
0.500671
0.595931
0.735313
0.90346
1.21087
1.52445
1.75781
1.72789
1.59302
1.26025
0.896638
0.744103
0.691568
0.698117
0.730497
0.765601
0.785132
0.788505
0.772426
0.74433
0.713508
0.177085
0.177567
0.178079
0.178609
0.179124
0.179685
0.180233
0.18084
0.181452
0.182123
0.182822
0.183597
0.184383
0.185299
0.186196
0.187226
0.188307
0.189395
0.190689
0.191864
0.193336
0.194679
0.1963
0.197916
0.19977
0.201712
0.203967
0.206381
0.209223
0.212324
0.216105
0.220338
0.225631
0.231735
0.23936
0.248491
0.259941
0.274257
0.292266
0.315007
0.343688
0.379744
0.42566
0.48176
0.552774
0.63744
0.746674
0.890526
1.06171
1.34315
1.61764
1.90807
1.97694
1.93374
1.75711
1.34388
0.966936
0.760016
0.637381
0.598824
0.600586
0.630654
0.67142
0.710261
0.735887
0.745056
0.737305
0.713853
0.681077
0.228156
0.228905
0.2297
0.230457
0.231247
0.232027
0.232852
0.233683
0.234564
0.235493
0.236461
0.237514
0.23865
0.239812
0.241211
0.242495
0.244176
0.245665
0.247607
0.24935
0.251609
0.253677
0.256471
0.259321
0.263074
0.267435
0.272684
0.279112
0.286834
0.296218
0.30767
0.321949
0.339735
0.361797
0.389089
0.422667
0.464268
0.514864
0.576717
0.649892
0.737403
0.840552
0.962825
1.10396
1.26909
1.4686
1.74888
1.99804
2.25129
2.27014
2.25156
2.10727
1.79356
1.3259
1.06761
0.866931
0.708847
0.619417
0.575153
0.56456
0.577827
0.606788
0.642411
0.677565
0.705931
0.722106
0.725625
0.714578
0.687253
0.358202
0.360524
0.362915
0.365283
0.367703
0.370113
0.37263
0.375145
0.377805
0.380513
0.383379
0.38636
0.389547
0.39288
0.396509
0.400329
0.404552
0.408968
0.414193
0.419475
0.42672
0.436015
0.447711
0.462362
0.481234
0.504697
0.533332
0.567612
0.608154
0.655897
0.71178
0.776893
0.852345
0.939379
1.03988
1.15448
1.28499
1.43078
1.59269
1.77027
1.96588
2.17981
2.39398
2.62545
2.8259
2.9167
2.86319
2.6674
2.49856
2.09488
1.57101
1.29121
1.07272
0.97699
0.942818
0.902647
0.842134
0.759036
0.689199
0.657167
0.654105
0.667679
0.690761
0.717415
0.741769
0.758584
0.766061
0.760933
0.743841
1.34205
1.35765
1.37324
1.38887
1.4046
1.42042
1.4365
1.45272
1.46936
1.48625
1.50367
1.52159
1.54
1.55958
1.57909
1.60135
1.62272
1.65325
1.69219
1.74109
1.79718
1.86172
1.93426
2.01432
2.10325
2.20109
2.30742
2.42515
2.55168
2.68948
2.83686
2.99536
3.16587
3.35187
3.54994
3.75625
3.96606
4.1722
4.36434
4.5305
4.66165
4.69335
4.64062
4.55318
3.83092
3.30837
2.40385
1.80491
1.52238
1.39343
1.37381
1.44665
1.67403
1.81281
1.91172
1.94347
1.8569
1.6757
1.44462
1.24111
1.17608
1.15263
1.14076
1.13992
1.14515
1.15247
1.15998
1.16079
1.1354
8.45589
8.45519
8.45358
8.45108
8.44766
8.44333
8.43808
8.43189
8.42478
8.41671
8.4077
8.39772
8.38677
8.37482
8.36193
8.34795
8.33312
8.31707
8.29793
8.28018
8.25105
8.22795
8.19078
8.15501
8.11772
8.0876
8.03318
8.00282
7.93583
7.89156
7.82392
7.76755
7.7001
7.62325
7.53538
7.4343
7.31966
7.18889
7.05862
6.93875
6.84639
6.79122
6.75465
6.72097
6.68341
6.64368
6.60283
6.56219
6.5233
6.48522
6.44677
6.40879
6.37323
6.34027
6.31042
6.2845
6.26353
6.24792
6.23759
6.23269
6.23556
6.24343
6.25361
6.264
6.27428
6.28799
6.3014
6.30969
6.28336
0.0278869
0.0278861
0.0278857
0.0278895
0.0279111
0.0279629
0.0280323
0.0280677
0.02808
0.0280609
0.0280525
0.0280558
0.0280938
0.0281716
0.0282112
0.0282019
0.0282136
0.0282415
0.0282941
0.0283337
0.0283099
0.0283152
0.0283321
0.028359
0.0283834
0.0283919
0.0284297
0.0284457
0.0284399
0.0284791
0.0284669
0.0285117
0.0285299
0.0285617
0.0285991
0.0285848
0.0286091
0.0286537
0.0286721
0.0287427
0.0287281
0.0287581
0.0287581
0.0287575
0.0287912
0.0288095
0.028801
0.0287773
0.0287952
0.0288583
0.0289285
0.0290228
0.0290758
0.0290703
0.029059
0.0290256
0.0290255
0.0290418
0.0290654
0.0281656
0.0281667
0.0281836
0.0282082
0.0282535
0.0282861
0.0282981
0.0282744
0.0282665
0.0282664
0.0282671
0.028318
0.0283809
0.0284171
0.028425
0.0284172
0.0284283
0.0284901
0.0285256
0.0285383
0.0285148
0.0285203
0.0285518
0.02858
0.0285988
0.0286113
0.0286484
0.0286661
0.028659
0.0286943
0.0286992
0.028734
0.0287544
0.0287807
0.0288308
0.0288334
0.0288474
0.0289056
0.0289324
0.0290027
0.0290144
0.0290255
0.0290324
0.029033
0.0290446
0.0290861
0.0290979
0.0290816
0.0290794
0.0291099
0.0291563
0.0292334
0.0293055
0.0293467
0.0293778
0.0293742
0.0293694
0.029362
0.0293565
0.0285096
0.0285231
0.0285568
0.0285757
0.0285839
0.0285593
0.0285464
0.0285372
0.0285425
0.0285534
0.0285926
0.0286461
0.0286775
0.0286903
0.0286712
0.0286763
0.0287318
0.0287731
0.0287884
0.0287871
0.0287743
0.0287872
0.0288261
0.0288518
0.0288681
0.0288847
0.0289191
0.0289392
0.0289309
0.0289631
0.0289759
0.0290085
0.0290351
0.0290581
0.0291186
0.0291305
0.0291374
0.0291819
0.0292091
0.0292882
0.0293427
0.0293751
0.0293862
0.0293753
0.0293756
0.0293969
0.0294326
0.0294236
0.0294276
0.029442
0.0294621
0.0295057
0.0295658
0.0296246
0.0296767
0.029719
0.0297352
0.0297521
0.0297532
0.0289111
0.0289208
0.0289186
0.0288861
0.0288821
0.0288726
0.0288754
0.0288672
0.0288869
0.0289215
0.0289671
0.0289987
0.0290091
0.0289936
0.0289904
0.0290241
0.0290734
0.0290938
0.0290961
0.0290857
0.0290865
0.029111
0.0291471
0.0291678
0.0291829
0.0292045
0.0292388
0.029262
0.0292561
0.0292906
0.0293148
0.0293403
0.029371
0.0293894
0.0294554
0.0294921
0.0295011
0.029555
0.0295783
0.0296342
0.0296894
0.0297435
0.0297823
0.0298034
0.0298124
0.0298245
0.0298543
0.029876
0.0298886
0.0298948
0.0298976
0.0299059
0.0299284
0.0299612
0.029999
0.0300414
0.0300744
0.0301061
0.0301317
0.0293418
0.029328
0.0293219
0.0293216
0.0293147
0.0292936
0.0293036
0.0292958
0.0293396
0.0293794
0.0294059
0.0294046
0.029379
0.0293888
0.029397
0.0294426
0.0294664
0.0294713
0.0294644
0.0294548
0.0294666
0.0295074
0.0295381
0.0295563
0.0295715
0.0295962
0.0296276
0.0296509
0.0296448
0.0296785
0.0297104
0.0297332
0.0297731
0.0297938
0.0298541
0.0298984
0.0299149
0.0299555
0.0299919
0.0300606
0.0301292
0.0301932
0.0302415
0.030275
0.0302893
0.0302959
0.0303162
0.0303455
0.0303786
0.0304076
0.0304321
0.0304518
0.0304702
0.0304949
0.0305158
0.0305516
0.0305739
0.0306123
0.03064
0.0298022
0.0298077
0.0297981
0.0298218
0.0298196
0.0298141
0.0298143
0.0298724
0.0298942
0.0298919
0.0298691
0.0298719
0.0298666
0.0298692
0.0298941
0.0299204
0.0299321
0.0299301
0.0298988
0.0299023
0.0299372
0.0299732
0.0299951
0.030008
0.0300232
0.0300529
0.0300856
0.0301119
0.0301126
0.0301515
0.0301886
0.0302094
0.0302532
0.0302737
0.0303402
0.0304018
0.03043
0.0304826
0.0305002
0.0305438
0.03061
0.0306934
0.0307702
0.0308424
0.0308937
0.0309177
0.0309276
0.0309378
0.0309527
0.0309749
0.0309973
0.0310216
0.0310463
0.0310788
0.0311074
0.0311481
0.0311788
0.0312226
0.0312619
0.0304892
0.0304815
0.0304747
0.0304761
0.0304471
0.0304695
0.0304685
0.0304401
0.0304382
0.0304334
0.0304466
0.0304508
0.0304524
0.0304616
0.0304829
0.0304959
0.0304729
0.0304385
0.0304365
0.0304642
0.0305042
0.0305327
0.0305509
0.0305639
0.0305818
0.0306103
0.0306387
0.0306634
0.030663
0.0307008
0.03075
0.0307664
0.0308194
0.0308443
0.0308962
0.0309627
0.0310038
0.0310641
0.0311191
0.0311665
0.0312183
0.0312816
0.0313502
0.0314201
0.0314964
0.0315602
0.0316153
0.0316538
0.0316839
0.0317093
0.0317362
0.03176
0.0317799
0.0318052
0.0318252
0.0318563
0.0318782
0.0319131
0.0319444
0.031177
0.0311692
0.0312075
0.0311811
0.0312198
0.0311783
0.0311799
0.0311616
0.0311569
0.0311655
0.031173
0.031163
0.0311435
0.0311714
0.0311721
0.0311264
0.0310984
0.0311019
0.0311032
0.0311443
0.0311745
0.0311946
0.0312059
0.0312151
0.0312331
0.0312638
0.0312959
0.0313256
0.0313365
0.0313802
0.0314294
0.0314492
0.0315049
0.0315388
0.0315982
0.0316683
0.0317129
0.0317743
0.0318201
0.0318832
0.031945
0.0320302
0.0321069
0.032184
0.032255
0.0323199
0.0323727
0.0324301
0.0324785
0.032524
0.0325688
0.0326164
0.0326599
0.0327062
0.0327439
0.0327903
0.0328261
0.0328724
0.0329108
0.0320463
0.0320328
0.0320374
0.0320239
0.0320254
0.0320085
0.0320077
0.0320109
0.0320228
0.0320242
0.0319773
0.0320104
0.0320123
0.031972
0.0319359
0.0319043
0.03191
0.031911
0.0319241
0.031955
0.0319789
0.031993
0.0320018
0.0320126
0.0320325
0.0320603
0.0320871
0.0321116
0.0321187
0.0321616
0.0322272
0.0322422
0.0323034
0.0323426
0.0323963
0.0324766
0.0325398
0.032612
0.0326843
0.032744
0.0327981
0.0328627
0.0329547
0.0330344
0.0331336
0.0332273
0.0333075
0.0333733
0.0334324
0.0334839
0.0335225
0.033567
0.0336046
0.0336528
0.0336936
0.0337463
0.0337917
0.0338496
0.0339027
0.0330535
0.0330327
0.0330256
0.0330015
0.0329926
0.0329742
0.0329703
0.0329694
0.0329842
0.0330102
0.0330365
0.0329737
0.0329372
0.0329138
0.0328837
0.0328653
0.0328859
0.0328896
0.0329056
0.032924
0.0329356
0.0329422
0.0329455
0.0329524
0.0329704
0.0329989
0.0330327
0.0330664
0.0330865
0.0331359
0.0331978
0.0332213
0.0332861
0.0333383
0.0333909
0.0334678
0.0335297
0.0336072
0.033678
0.0337769
0.0338588
0.0339316
0.034014
0.0340933
0.0341638
0.0342578
0.0343534
0.0344508
0.0345406
0.0346253
0.0346956
0.0347605
0.0348152
0.0348738
0.0349212
0.0349782
0.0350245
0.0350861
0.0351414
0.0343217
0.0342944
0.0342817
0.0342492
0.0342348
0.0342087
0.0341963
0.0341805
0.0341743
0.0341663
0.0341517
0.0341109
0.0340693
0.0340371
0.0340157
0.0340473
0.03407
0.0340699
0.0340699
0.0340858
0.0340974
0.0340933
0.034092
0.0341017
0.0341207
0.0341467
0.0341729
0.0341959
0.0342083
0.0342586
0.0343394
0.0343599
0.0344257
0.0344914
0.0345609
0.0346467
0.0347288
0.0348138
0.0348927
0.0349717
0.0350712
0.0351664
0.0352791
0.035394
0.0354899
0.0355734
0.0356622
0.03575
0.0358424
0.0359392
0.036024
0.0361105
0.0361782
0.0362571
0.036323
0.0364021
0.0364706
0.0365572
0.0366408
0.0357695
0.0357371
0.0357224
0.0356842
0.0356677
0.035636
0.0356193
0.0355954
0.0355806
0.0355608
0.0355383
0.0355035
0.0354711
0.0354889
0.0355054
0.0354978
0.0354554
0.0354597
0.0355041
0.0354911
0.0354558
0.0354626
0.0354679
0.0354678
0.0354828
0.0355088
0.0355432
0.03558
0.0356073
0.035663
0.0357384
0.0357704
0.035838
0.0359036
0.035968
0.036063
0.0361392
0.0362429
0.0363396
0.036446
0.0365398
0.0366279
0.0367299
0.0368524
0.0369918
0.0371191
0.0372403
0.0373575
0.0374663
0.0375785
0.0376885
0.037789
0.0378806
0.0379651
0.0380378
0.0381132
0.0381727
0.0382445
0.0383126
0.037589
0.0375519
0.037535
0.0374883
0.0374651
0.0374197
0.0373886
0.0373431
0.0373047
0.0372586
0.0372191
0.0371939
0.0372253
0.0372256
0.0371722
0.0372003
0.0372091
0.0371991
0.0371323
0.0371598
0.0371745
0.0371319
0.0371241
0.037142
0.0371582
0.0371814
0.0372064
0.0372262
0.0372403
0.0372989
0.0373945
0.0374296
0.0375041
0.0375977
0.0376807
0.0377891
0.0379009
0.0379947
0.038102
0.0382207
0.03836
0.0384705
0.0385912
0.0386956
0.0388159
0.0389502
0.0390827
0.0392213
0.0393569
0.0394899
0.039625
0.0397621
0.0398819
0.0400096
0.0401201
0.0402403
0.0403432
0.0404567
0.0405606
0.0396567
0.0396159
0.0396011
0.0395505
0.03953
0.0394839
0.0394587
0.0394182
0.0393891
0.0393529
0.0393239
0.0393335
0.0393979
0.0393948
0.0393895
0.0392849
0.0392385
0.0392138
0.0392665
0.0392598
0.0391384
0.0391421
0.0391648
0.0391527
0.039162
0.0391828
0.039215
0.0392507
0.0392841
0.0393462
0.0394341
0.0394776
0.0395431
0.0396253
0.0397116
0.0398141
0.0399334
0.0400764
0.0401807
0.0403034
0.040444
0.0405858
0.0407225
0.0408922
0.0410279
0.0411803
0.0413284
0.0414758
0.0416248
0.0417765
0.0419186
0.0420717
0.0422082
0.0423474
0.042464
0.0425957
0.0427034
0.0428337
0.042955
0.0422845
0.042238
0.0422207
0.0421586
0.0421284
0.042061
0.0420104
0.0419358
0.0418967
0.0418562
0.0419374
0.0420485
0.0420441
0.0418636
0.0417402
0.0417309
0.0417623
0.041812
0.041697
0.0416273
0.0416679
0.0416553
0.0415985
0.0416343
0.0416411
0.0416606
0.0416814
0.0416936
0.0417054
0.0417715
0.0418824
0.0419428
0.0420334
0.042149
0.0422632
0.042397
0.0425252
0.0426761
0.0428404
0.0429717
0.0431372
0.0432954
0.0434508
0.0435895
0.0437907
0.0439313
0.0441293
0.0442946
0.0444763
0.04465
0.0448226
0.0449931
0.0451496
0.0453184
0.0454691
0.0456298
0.0457764
0.0459232
0.0460635
0.045377
0.0453245
0.0453096
0.0452459
0.0452295
0.0451913
0.0452286
0.0453199
0.0452132
0.0453564
0.0452839
0.045196
0.0449683
0.0449661
0.0450688
0.0450716
0.0449185
0.0447831
0.0447387
0.0448115
0.0446734
0.0446403
0.0446726
0.0446269
0.0446428
0.044653
0.0446762
0.0447034
0.0447393
0.0448084
0.0449059
0.0449606
0.0450283
0.0451228
0.045233
0.0453656
0.045524
0.045692
0.0458736
0.046051
0.046221
0.0464118
0.0466191
0.0467927
0.0469902
0.0471911
0.0473732
0.0475852
0.0477794
0.0479938
0.0481916
0.048414
0.0486051
0.048816
0.0489912
0.0491872
0.0493543
0.0495567
0.0497405
0.0493539
0.0492923
0.049274
0.0491962
0.04917
0.0491006
0.0490691
0.0490054
0.0489405
0.0488818
0.0488514
0.0489583
0.0490694
0.0490275
0.0488445
0.048616
0.0485417
0.0485598
0.0486168
0.0483747
0.0483643
0.0484351
0.0483387
0.0483915
0.0483885
0.0484027
0.0484141
0.0484102
0.0484109
0.0484825
0.0486077
0.0487025
0.0488257
0.0489724
0.0491164
0.0492798
0.0494412
0.0496407
0.0498597
0.050089
0.0503173
0.050522
0.0507695
0.0509773
0.0512155
0.0514346
0.051671
0.0518849
0.0521187
0.0523321
0.0525651
0.0527866
0.0530235
0.0532512
0.0534786
0.0536951
0.0538897
0.0540845
0.054264
0.0540815
0.0540134
0.0539983
0.0539073
0.0538667
0.0537706
0.0537503
0.0537217
0.0537973
0.0539917
0.0541626
0.0539455
0.0537802
0.0536748
0.0534237
0.0534094
0.0534828
0.0533621
0.0531287
0.0531794
0.0532043
0.0530102
0.0530854
0.0529771
0.0529974
0.0529864
0.0529901
0.0529955
0.0530229
0.0531015
0.0532055
0.0532615
0.053332
0.0534525
0.0536028
0.0537784