/*--------------------------------*- C++ -*----------------------------------*\
| =========                 |                                                 |
| \\      /  F ield         | OpenFOAM: The Open Source CFD Toolbox           |
|  \\    /   O peration     | Version:  2312                                  |
|   \\  /    A nd           | Website:  www.openfoam.com                      |
|    \\/     M anipulation  |                                                 |
\*---------------------------------------------------------------------------*/
FoamFile
{
    version     2.0;
    format      ascii;
    arch        "LSB;label=32;scalar=64";
    class       volScalarField;
    location    "1600";
    object      p;
}
// * * * * * * * * * * * * * * * * * * * * * * * * * * * * * * * * * * * * * //

dimensions      [0 2 -2 0 0 0 0];

internalField   nonuniform List<scalar> 
76025
(
0.00035117
0.000345215
0.000339022
0.00033292
0.000326726
0.000320529
0.000313925
0.00030763
0.000301146
0.000294768
0.000288188
0.000281489
0.000274685
0.000267853
0.000261003
0.00025407
0.000247269
0.000240305
0.000233351
0.000226575
0.000219764
0.000212717
0.000205697
0.00019874
0.000191722
0.000184768
0.000177741
0.000170554
0.000163701
0.000156585
0.000150113
0.000143101
0.000135842
0.000128618
0.000121608
0.000114861
0.000108293
0.000101499
9.46509e-05
8.7865e-05
8.14336e-05
7.51129e-05
6.84593e-05
6.15898e-05
5.52214e-05
4.89385e-05
4.2639e-05
3.57941e-05
2.95201e-05
2.32623e-05
1.70154e-05
1.09949e-05
4.69234e-06
-1.99438e-06
-8.67084e-06
-1.5226e-05
-2.22682e-05
-2.96398e-05
-3.72301e-05
-4.47577e-05
-5.2276e-05
-6.17657e-05
-7.27872e-05
-8.43512e-05
-9.76628e-05
-0.000114487
-0.000133371
-0.000156765
-0.000190231
0.00035267
0.000346329
0.000339882
0.000333464
0.000326997
0.00032041
0.000313792
0.000307148
0.000300392
0.000293561
0.000286617
0.000279636
0.000272634
0.000265597
0.000258541
0.000251493
0.000244361
0.000237278
0.00023013
0.00022308
0.000215914
0.000208775
0.000201644
0.000194512
0.000187343
0.00018017
0.000173013
0.000165969
0.000158956
0.000151928
0.000144947
0.000137734
0.000130588
0.000123589
0.000116584
0.000109679
0.000102774
9.599e-05
8.93007e-05
8.26133e-05
7.60715e-05
6.95305e-05
6.30615e-05
5.66537e-05
5.03044e-05
4.39742e-05
3.76452e-05
3.13033e-05
2.50737e-05
1.89009e-05
1.27751e-05
6.73412e-06
6.34119e-07
-5.56673e-06
-1.17825e-05
-1.81263e-05
-2.46844e-05
-3.13651e-05
-3.81237e-05
-4.50041e-05
-5.23132e-05
-6.08217e-05
-7.03462e-05
-8.09391e-05
-9.33101e-05
-0.000108475
-0.000126495
-0.000148645
-0.000177702
0.000354906
0.000348252
0.000341475
0.000334717
0.000327929
0.0003211
0.0003142
0.000307209
0.00030014
0.000292993
0.000285796
0.000278575
0.000271331
0.000264065
0.000256784
0.00024946
0.000242118
0.000234773
0.000227429
0.000220076
0.000212726
0.0002054
0.000198078
0.000190758
0.000183448
0.000176158
0.000168926
0.000161731
0.000154542
0.000147368
0.000140187
0.000133007
0.00012588
0.00011879
0.000111727
0.000104745
9.78667e-05
9.11148e-05
8.44355e-05
7.78072e-05
7.12632e-05
6.47931e-05
5.83946e-05
5.20235e-05
4.56895e-05
3.9423e-05
3.32242e-05
2.70667e-05
2.09699e-05
1.49701e-05
9.05053e-06
3.19644e-06
-2.63611e-06
-8.49363e-06
-1.43716e-05
-2.027e-05
-2.62034e-05
-3.21988e-05
-3.82623e-05
-4.4479e-05
-5.10455e-05
-5.83092e-05
-6.64696e-05
-7.5775e-05
-8.67256e-05
-0.00010005
-0.000116416
-0.00013682
-0.000163119
0.000357067
0.000350076
0.000342952
0.000335858
0.000328757
0.000321601
0.000314361
0.000307036
0.000299648
0.000292212
0.00028474
0.000277237
0.000269704
0.000262144
0.000254562
0.000246962
0.000239358
0.000231756
0.000224163
0.000216582
0.000209018
0.000201472
0.000193944
0.000186441
0.000178969
0.000171531
0.000164128
0.000156757
0.000149418
0.000142111
0.000134836
0.000127591
0.000120369
0.00011319
0.000106092
9.91078e-05
9.22487e-05
8.55026e-05
7.88461e-05
7.22666e-05
6.57665e-05
5.93445e-05
5.29922e-05
4.6703e-05
4.04862e-05
3.43504e-05
2.82904e-05
2.22991e-05
1.63891e-05
1.05792e-05
4.86283e-06
-7.68957e-07
-6.32883e-06
-1.18358e-05
-1.72892e-05
-2.26815e-05
-2.80223e-05
-3.33317e-05
-3.86236e-05
-4.39662e-05
-4.95087e-05
-5.54873e-05
-6.21444e-05
-6.97746e-05
-7.88532e-05
-9.00315e-05
-0.000104138
-0.00012198
-0.000145301
0.000358793
0.000351436
0.000343945
0.000336495
0.000329047
0.000321545
0.000313963
0.000306303
0.000298585
0.000290826
0.000283035
0.000275217
0.000267374
0.000259514
0.000251644
0.000243772
0.000235907
0.000228054
0.00022022
0.00021241
0.000204628
0.000196878
0.000189163
0.000181487
0.000173854
0.000166264
0.000158719
0.000151224
0.000143779
0.000136382
0.000129028
0.000121713
0.000114438
0.000107238
0.000100147
9.31867e-05
8.63557e-05
7.9641e-05
7.30258e-05
6.64974e-05
6.00522e-05
5.36912e-05
4.74146e-05
4.12227e-05
3.51171e-05
2.91002e-05
2.3174e-05
1.7342e-05
1.16131e-05
5.99863e-06
5.02967e-07
-4.87314e-06
-1.01301e-05
-1.52694e-05
-2.02843e-05
-2.51612e-05
-2.98905e-05
-3.44715e-05
-3.89127e-05
-4.32588e-05
-4.76122e-05
-5.21397e-05
-5.70655e-05
-6.26981e-05
-6.9499e-05
-7.80788e-05
-8.93378e-05
-0.000103981
-0.000124195
0.000360198
0.000352448
0.00034457
0.000336744
0.000328929
0.000321069
0.000313134
0.000305125
0.000297062
0.000288965
0.000280842
0.000272702
0.000264548
0.000256389
0.000248231
0.000240084
0.000231955
0.00022385
0.000215775
0.000207737
0.000199741
0.00019179
0.00018389
0.000176043
0.000168252
0.00016052
0.000152849
0.000145241
0.000137694
0.000130207
0.000122775
0.000115398
0.000108084
0.000100868
9.37812e-05
8.68367e-05
8.00307e-05
7.33488e-05
6.67753e-05
6.02989e-05
5.39164e-05
4.76293e-05
4.144e-05
3.53502e-05
2.93617e-05
2.34771e-05
1.77005e-05
1.20379e-05
6.49809e-06
1.0923e-06
-4.16934e-06
-9.27794e-06
-1.42231e-05
-1.89911e-05
-2.3562e-05
-2.79091e-05
-3.20042e-05
-3.58234e-05
-3.93518e-05
-4.25985e-05
-4.56162e-05
-4.85159e-05
-5.14809e-05
-5.47917e-05
-5.88844e-05
-6.43389e-05
-7.21222e-05
-8.28611e-05
-9.92363e-05
0.000361294
0.000353124
0.000344834
0.00033661
0.000328409
0.00032017
0.000311862
0.000303486
0.000295063
0.000286612
0.000278147
0.000269674
0.000261199
0.000252729
0.000244272
0.000235838
0.000227434
0.000219068
0.000210747
0.000202477
0.000194263
0.00018611
0.000178023
0.000170005
0.00016206
0.000154189
0.000146394
0.000138676
0.000131033
0.000123464
0.000115967
0.000108541
0.0001012
9.39802e-05
8.69096e-05
7.99967e-05
7.32335e-05
6.66037e-05
6.00913e-05
5.36858e-05
4.73842e-05
4.11879e-05
3.51e-05
2.91238e-05
2.32621e-05
1.75176e-05
1.18951e-05
6.40203e-06
1.04946e-06
-4.14885e-06
-9.17756e-06
-1.40195e-05
-1.86534e-05
-2.30522e-05
-2.71811e-05
-3.09968e-05
-3.44494e-05
-3.74864e-05
-4.0058e-05
-4.21285e-05
-4.36951e-05
-4.48056e-05
-4.55811e-05
-4.62417e-05
-4.71778e-05
-4.89189e-05
-5.25126e-05
-5.84872e-05
-7.03254e-05
0.00036199
0.000353376
0.000344648
0.000336
0.000327386
0.000318744
0.000310039
0.000301275
0.00029247
0.000283649
0.000274825
0.000266004
0.000257193
0.000248399
0.000239633
0.000230903
0.000222218
0.000213587
0.000205017
0.000196513
0.000188083
0.000179732
0.000171464
0.000163282
0.00015519
0.00014719
0.000139283
0.000131468
0.000123745
0.000116111
0.000108566
0.000101109
9.37606e-05
8.65579e-05
7.95237e-05
7.26612e-05
6.5958e-05
5.93957e-05
5.29578e-05
4.66347e-05
4.04237e-05
3.43269e-05
2.83484e-05
2.24923e-05
1.67617e-05
1.11599e-05
5.69218e-06
3.67485e-07
-4.80091e-06
-9.7961e-06
-1.45976e-05
-1.91805e-05
-2.35136e-05
-2.75568e-05
-3.12594e-05
-3.45587e-05
-3.73792e-05
-3.96352e-05
-4.1233e-05
-4.20821e-05
-4.21133e-05
-4.12975e-05
-3.96715e-05
-3.7365e-05
-3.46876e-05
-3.20686e-05
-3.06205e-05
-3.06705e-05
-3.70209e-05
0.000362204
0.00035312
0.000343928
0.000334829
0.000325776
0.000316704
0.000307579
0.000298402
0.000289196
0.000279985
0.000270783
0.000261599
0.000252439
0.000243311
0.000234226
0.000225194
0.000216225
0.000207327
0.000198507
0.000189773
0.000181131
0.000172587
0.000164145
0.000155809
0.000147582
0.000139465
0.000131459
0.000123563
0.000115776
0.000108096
0.00010052
9.30503e-05
8.57164e-05
7.85518e-05
7.15737e-05
6.47791e-05
5.81517e-05
5.16712e-05
4.53214e-05
3.90935e-05
3.29858e-05
2.70008e-05
2.11425e-05
1.54152e-05
9.82194e-06
4.36607e-06
-9.46674e-07
-6.10619e-06
-1.10973e-05
-1.58999e-05
-2.04886e-05
-2.48314e-05
-2.88874e-05
-3.2604e-05
-3.5914e-05
-3.87335e-05
-4.09587e-05
-4.24659e-05
-4.31099e-05
-4.27342e-05
-4.1189e-05
-3.83534e-05
-3.41568e-05
-2.8603e-05
-2.18763e-05
-1.42386e-05
-6.83164e-06
4.75055e-07
1.39685e-06
0.000361853
0.000352271
0.000342586
0.000333009
0.000323491
0.000313964
0.000304395
0.000294783
0.000285153
0.000275531
0.000265933
0.000256369
0.000246846
0.000237373
0.00022796
0.000218619
0.00020936
0.000200192
0.000191123
0.000182161
0.000173312
0.000164582
0.000155975
0.000147495
0.000139144
0.000130924
0.000122835
0.000114875
0.000107044
9.93363e-05
9.17499e-05
8.42932e-05
7.69998e-05
6.98988e-05
6.30001e-05
5.62948e-05
4.97627e-05
4.33824e-05
3.71381e-05
3.10219e-05
2.50325e-05
1.91723e-05
1.34452e-05
7.85458e-06
2.40335e-06
-2.90554e-06
-8.06618e-06
-1.30677e-05
-1.78935e-05
-2.25207e-05
-2.69198e-05
-3.10525e-05
-3.48693e-05
-3.83058e-05
-4.12788e-05
-4.36825e-05
-4.53835e-05
-4.62166e-05
-4.59792e-05
-4.44403e-05
-4.13572e-05
-3.64934e-05
-2.96351e-05
-2.06193e-05
-9.46192e-06
3.78091e-06
1.79163e-05
3.34482e-05
4.14046e-05
0.000360835
0.000350723
0.000340515
0.000330433
0.000320422
0.000310416
0.000300376
0.000290305
0.000280229
0.000270175
0.000260163
0.000250202
0.000240301
0.000230468
0.000220717
0.000211059
0.000201506
0.000192066
0.000182749
0.000173562
0.000164511
0.000155604
0.000146843
0.000138233
0.000129776
0.000121472
0.00011332
0.000105319
9.7465e-05
8.97546e-05
8.21841e-05
7.47707e-05
6.75485e-05
6.05401e-05
5.37477e-05
4.71558e-05
4.07412e-05
3.44819e-05
2.83625e-05
2.23758e-05
1.65208e-05
1.07995e-05
5.21465e-06
-2.31038e-07
-5.53582e-06
-1.06974e-05
-1.57105e-05
-2.05639e-05
-2.52405e-05
-2.97159e-05
-3.39574e-05
-3.79223e-05
-4.15538e-05
-4.47773e-05
-4.74953e-05
-4.95814e-05
-5.08726e-05
-5.1162e-05
-5.01893e-05
-4.76445e-05
-4.31786e-05
-3.64097e-05
-2.69407e-05
-1.43918e-05
1.44662e-06
2.0758e-05
4.22299e-05
6.61855e-05
8.00982e-05
0.000359031
0.000348353
0.00033759
0.000326969
0.000316438
0.000305923
0.000295387
0.000284833
0.000274287
0.000263781
0.000253334
0.000242959
0.000232665
0.000222461
0.000212362
0.000202381
0.000192529
0.000182816
0.000173253
0.000163847
0.000154604
0.000145531
0.000136632
0.00012791
0.000119366
0.000111
0.000102811
9.47951e-05
8.69481e-05
7.92643e-05
7.17431e-05
6.44094e-05
5.7294e-05
5.04112e-05
4.37547e-05
3.73034e-05
3.10317e-05
2.49172e-05
1.89451e-05
1.31088e-05
7.40693e-06
1.84064e-06
-3.58864e-06
-8.87998e-06
-1.40333e-05
-1.90477e-05
-2.3919e-05
-2.86372e-05
-3.31853e-05
-3.75388e-05
-4.16642e-05
-4.5516e-05
-4.90331e-05
-5.21336e-05
-5.47088e-05
-5.66147e-05
-5.76629e-05
-5.76083e-05
-5.61369e-05
-5.28602e-05
-4.73116e-05
-3.8939e-05
-2.7121e-05
-1.12092e-05
9.30816e-06
3.4892e-05
6.40709e-05
9.64222e-05
0.000116904
0.000356304
0.000345023
0.000333667
0.000322474
0.000311388
0.000300335
0.000289274
0.00027821
0.00026717
0.000256188
0.000245288
0.000234482
0.00022378
0.000213194
0.000202739
0.000192429
0.000182276
0.000172293
0.000162489
0.000152872
0.000143449
0.000134226
0.000125207
0.000116395
0.000107789
9.93892e-05
9.11923e-05
8.31937e-05
7.53872e-05
6.77657e-05
6.03349e-05
5.31235e-05
4.61559e-05
3.94367e-05
3.29512e-05
2.66732e-05
2.0575e-05
1.46343e-05
8.83687e-06
3.17606e-06
-2.35009e-06
-7.74204e-06
-1.30004e-05
-1.81264e-05
-2.31225e-05
-2.79899e-05
-3.27264e-05
-3.73241e-05
-4.1768e-05
-4.60354e-05
-5.0094e-05
-5.3899e-05
-5.7389e-05
-6.04795e-05
-6.30556e-05
-6.49626e-05
-6.59931e-05
-6.58726e-05
-6.42419e-05
-6.06406e-05
-5.44848e-05
-4.50425e-05
-3.1442e-05
-1.2714e-05
1.20235e-05
4.35072e-05
8.02474e-05
0.000120891
0.000150709
0.000352499
0.000340572
0.000328583
0.000316782
0.000305106
0.000293481
0.000281865
0.000270261
0.000258701
0.000247221
0.000235846
0.000224591
0.000213467
0.000202489
0.00019167
0.000181028
0.000170576
0.000160327
0.00015029
0.000140475
0.000130889
0.000121537
0.000112423
0.000103548
9.49122e-05
8.65132e-05
7.83461e-05
7.04043e-05
6.26797e-05
5.51651e-05
4.78744e-05
4.08352e-05
3.40625e-05
2.75505e-05
2.12763e-05
1.52092e-05
9.32024e-06
3.58694e-06
-2.00444e-06
-7.46087e-06
-1.27857e-05
-1.79814e-05
-2.30513e-05
-2.79995e-05
-3.28313e-05
-3.75511e-05
-4.21597e-05
-4.66523e-05
-5.10179e-05
-5.52379e-05
-5.92847e-05
-6.31184e-05
-6.66823e-05
-6.9896e-05
-7.2647e-05
-7.47795e-05
-7.60794e-05
-7.62571e-05
-7.4924e-05
-7.15659e-05
-6.55004e-05
-5.58268e-05
-4.14265e-05
-2.09905e-05
6.77748e-06
4.29678e-05
8.60888e-05
0.000133542
0.000168688
0.000347427
0.000334809
0.000322144
0.000309692
0.000297389
0.000285155
0.000272949
0.000260775
0.000248666
0.000236662
0.00022479
0.000213068
0.000201509
0.000190127
0.00017894
0.000167964
0.000157215
0.000146707
0.00013645
0.000126454
0.000116726
0.000107272
9.80931e-05
8.91918e-05
8.05656e-05
7.22105e-05
6.41195e-05
5.62838e-05
4.86927e-05
4.13422e-05
3.42524e-05
2.74447e-05
2.09225e-05
1.46691e-05
8.65413e-06
2.84323e-06
-2.79387e-06
-8.27936e-06
-1.3627e-05
-1.88448e-05
-2.39378e-05
-2.89112e-05
-3.37713e-05
-3.85259e-05
-4.31836e-05
-4.77525e-05
-5.22374e-05
-5.66383e-05
-6.09498e-05
-6.51607e-05
-6.92517e-05
-7.31928e-05
-7.69389e-05
-8.04223e-05
-8.35443e-05
-8.61631e-05
-8.80778e-05
-8.90082e-05
-8.85652e-05
-8.62125e-05
-8.12003e-05
-7.25014e-05
-5.88055e-05
-3.85029e-05
-9.74721e-06
2.89675e-05
7.60337e-05
0.000127695
0.00017001
0.00034087
0.00032751
0.00031412
0.000300972
0.000287998
0.000275117
0.000262285
0.000249507
0.000236819
0.000224263
0.000211873
0.000199666
0.000187657
0.000175863
0.000164302
0.000152994
0.000141955
0.0001312
0.000120742
0.000110589
0.00010075
9.12277e-05
8.20261e-05
7.31441e-05
6.45784e-05
5.63223e-05
4.83665e-05
4.06992e-05
3.3307e-05
2.61929e-05
1.93771e-05
1.28705e-05
6.66362e-06
7.28752e-07
-4.97129e-06
-1.04739e-05
-1.58099e-05
-2.10016e-05
-2.60631e-05
-3.10037e-05
-3.58309e-05
-4.05529e-05
-4.51792e-05
-4.97213e-05
-5.41919e-05
-5.86031e-05
-6.29645e-05
-6.72823e-05
-7.15592e-05
-7.57936e-05
-7.9979e-05
-8.41009e-05
-8.81334e-05
-9.20324e-05
-9.57285e-05
-9.91148e-05
-0.000102032
-0.000104245
-0.000105405
-0.000105
-0.000102267
-9.61477e-05
-8.52239e-05
-6.7451e-05
-4.02644e-05
-1.99326e-06
4.57477e-05
9.77737e-05
0.00014051
0.000332562
0.000318404
0.000304236
0.000290341
0.000276648
0.000263074
0.000249574
0.000236154
0.000222851
0.000209715
0.000196779
0.000184066
0.000171592
0.000159376
0.000147438
0.0001358
0.00012448
0.000113494
0.000102857
9.25765e-05
8.26612e-05
7.31152e-05
6.39399e-05
5.51332e-05
4.66893e-05
3.85989e-05
3.08492e-05
2.34247e-05
1.63128e-05
9.52324e-06
3.06935e-06
-3.05173e-06
-8.86354e-06
-1.44044e-05
-1.97179e-05
-2.48441e-05
-2.9815e-05
-3.46531e-05
-3.93738e-05
-4.39881e-05
-4.85063e-05
-5.29396e-05
-5.73008e-05
-6.16049e-05
-6.58685e-05
-7.01079e-05
-7.43381e-05
-7.85726e-05
-8.2823e-05
-8.71004e-05
-9.14141e-05
-9.5771e-05
-0.000100173
-0.000104614
-0.000109074
-0.000113506
-0.000117829
-0.00012189
-0.000125422
-0.000127997
-0.000128966
-0.000127319
-0.000121299
-0.000108124
-8.47872e-05
-4.98429e-05
-4.81643e-06
4.48744e-05
8.61533e-05
0.000322204
0.000307188
0.000292184
0.000277488
0.000263028
0.000248714
0.000234504
0.000220402
0.000206451
0.000192704
0.000179199
0.000165962
0.000153011
0.000140368
0.000128054
0.000116095
0.000104511
9.33209e-05
8.25379e-05
7.21729e-05
6.22335e-05
5.27234e-05
4.36427e-05
3.49874e-05
2.6749e-05
1.89147e-05
1.14674e-05
4.38678e-06
-2.33503e-06
-8.68943e-06
-1.46758e-05
-2.03139e-05
-2.56415e-05
-3.0707e-05
-3.55591e-05
-4.02401e-05
-4.47826e-05
-4.92099e-05
-5.35385e-05
-5.77812e-05
-6.19508e-05
-6.60608e-05
-7.01269e-05
-7.41672e-05
-7.82014e-05
-8.225e-05
-8.63335e-05
-9.04724e-05
-9.46885e-05
-9.90062e-05
-0.000103454
-0.000108067
-0.000112887
-0.00011796
-0.00012334
-0.000129067
-0.000135164
-0.000141585
-0.000148199
-0.000154786
-0.000160773
-0.000164844
-0.000164688
-0.000157147
-0.000139353
-0.000110069
-7.06724e-05
-2.68267e-05
7.42353e-06
0.000309387
0.000293441
0.000277529
0.000261965
0.000246672
0.000231559
0.000216581
0.000201746
0.0001871
0.0001727
0.00015859
0.000144799
0.00013135
0.000118266
0.000105573
9.32966e-05
8.14621e-05
7.00893e-05
5.91939e-05
4.87875e-05
3.88775e-05
2.94672e-05
2.05551e-05
1.21346e-05
4.19374e-06
-3.28477e-06
-1.0323e-05
-1.69418e-05
-2.31436e-05
-2.89285e-05
-3.43136e-05
-3.93372e-05
-4.40526e-05
-4.85185e-05
-5.279e-05
-5.69131e-05
-6.09228e-05
-6.48444e-05
-6.86965e-05
-7.2494e-05
-7.62511e-05
-7.99826e-05
-8.37054e-05
-8.74387e-05
-9.12039e-05
-9.50239e-05
-9.89234e-05
-0.000102929
-0.000107073
-0.000111395
-0.000115945
-0.000120795
-0.000126037
-0.000131787
-0.000138184
-0.000145366
-0.000153472
-0.000162624
-0.000172846
-0.000183877
-0.000194784
-0.000203933
-0.000209114
-0.00020739
-0.000195911
-0.000173253
-0.000141775
-0.000108442
-8.65349e-05
0.000293786
0.000276842
0.000259962
0.000243473
0.000227294
0.000211334
0.000195547
0.00017994
0.000164564
0.000149484
0.00013475
0.000120394
0.000106442
9.29229e-05
7.98646e-05
6.72979e-05
5.52507e-05
4.37461e-05
3.28021e-05
2.24315e-05
1.26424e-05
3.43725e-06
-5.18699e-06
-1.32398e-05
-2.07375e-05
-2.7703e-05
-3.41663e-05
-4.01469e-05
-4.56532e-05
-5.07038e-05
-5.53385e-05
-5.96153e-05
-6.36024e-05
-6.7368e-05
-7.09724e-05
-7.44648e-05
-7.78817e-05
-8.12498e-05
-8.4588e-05
-8.79112e-05
-9.12323e-05
-9.4564e-05
-9.79214e-05
-0.000101322
-0.000104787
-0.000108341
-0.000112012
-0.000115836
-0.000119854
-0.000124123
-0.000128718
-0.000133748
-0.000139358
-0.000145731
-0.00015309
-0.00016172
-0.000171916
-0.000183785
-0.000197066
-0.000211125
-0.00022503
-0.000237498
-0.000246507
-0.000249118
-0.000242632
-0.000226801
-0.000205665
-0.000187143
-0.000181008
0.000274516
0.000256465
0.0002385
0.000220976
0.000203809
0.000186904
0.000170214
0.000153749
0.000137567
0.000121736
0.000106315
9.13414e-05
7.68464e-05
6.28609e-05
4.94189e-05
3.65553e-05
2.43023e-05
1.26869e-05
1.72996e-06
-8.55361e-06
-1.81551e-05
-2.70724e-05
-3.53104e-05
-4.28821e-05
-4.98089e-05
-5.61192e-05
-6.18417e-05
-6.69928e-05
-7.15938e-05
-7.56871e-05
-7.93383e-05
-8.26289e-05
-8.56456e-05
-8.84714e-05
-9.1178e-05
-9.38232e-05
-9.64505e-05
-9.90903e-05
-0.000101762
-0.000104479
-0.000107248
-0.000110076
-0.000112973
-0.000115952
-0.000119035
-0.00012225
-0.000125632
-0.000129219
-0.000133055
-0.000137201
-0.000141735
-0.000146783
-0.000152542
-0.000159297
-0.000167418
-0.00017725
-0.000188899
-0.000202085
-0.000216335
-0.000231153
-0.00024587
-0.000259168
-0.000268979
-0.000273172
-0.000270003
-0.00026059
-0.000251329
-0.000249716
-0.000260145
0.000251878
0.000232664
0.000213581
0.000194988
0.000176799
0.000158918
0.000141298
0.000123952
0.000106944
9.03515e-05
7.42405e-05
5.86573e-05
4.36384e-05
2.92206e-05
1.54439e-05
2.3494e-06
-1.00247e-05
-2.16458e-05
-3.24887e-05
-4.25351e-05
-5.17743e-05
-6.02035e-05
-6.78292e-05
-7.46681e-05
-8.07487e-05
-8.61116e-05
-9.07903e-05
-9.48176e-05
-9.82445e-05
-0.000101146
-0.000103619
-0.000105767
-0.000107696
-0.000109503
-0.00011127
-0.000113061
-0.000114923
-0.000116884
-0.000118959
-0.000121147
-0.000123442
-0.000125838
-0.000128335
-0.000130949
-0.000133706
-0.000136646
-0.000139809
-0.000143216
-0.000146879
-0.00015082
-0.000155101
-0.000159898
-0.000165506
-0.000172243
-0.00018039
-0.000190118
-0.000201383
-0.000213938
-0.000227463
-0.000241337
-0.000254639
-0.000266219
-0.000274461
-0.00027746
-0.00027521
-0.000272044
-0.00027534
-0.000289706
-0.000314838
0.000222694
0.000202134
0.000181703
0.000161832
0.000142433
0.0001234
0.000104685
8.63035e-05
6.83237e-05
5.08337e-05
3.39081e-05
1.76011e-05
1.9564e-06
-1.29824e-05
-2.71681e-05
-4.05518e-05
-5.30876e-05
-6.47359e-05
-7.54648e-05
-8.52511e-05
-9.40808e-05
-0.00010195
-0.000108865
-0.000114846
-0.00011992
-0.000124118
-0.000127472
-0.000130036
-0.000131891
-0.000133151
-0.00013395
-0.000134428
-0.000134727
-0.000134973
-0.000135276
-0.000135725
-0.000136384
-0.000137289
-0.000138447
-0.000139838
-0.000141433
-0.000143208
-0.000145155
-0.000147291
-0.000149651
-0.000152289
-0.000155227
-0.000158442
-0.000161896
-0.00016559
-0.000169535
-0.000173778
-0.000178514
-0.000183996
-0.000190547
-0.000198551
-0.000208188
-0.000219252
-0.000231108
-0.000243022
-0.000254081
-0.000262405
-0.000266385
-0.000266421
-0.000265531
-0.000269198
-0.000283367
-0.000309998
-0.000346024
0.000191519
0.000169553
0.000147828
0.000126705
0.000106098
8.59127e-05
6.61081e-05
4.67029e-05
2.77745e-05
9.42254e-06
-8.26669e-06
-2.52284e-05
-4.14099e-05
-5.67587e-05
-7.12179e-05
-8.47286e-05
-9.72341e-05
-0.000108684
-0.000119038
-0.000128262
-0.000136335
-0.000143248
-0.000149007
-0.000153642
-0.000157197
-0.000159714
-0.000161259
-0.000161927
-0.000161849
-0.000161183
-0.000160105
-0.0001588
-0.000157454
-0.000156232
-0.000155279
-0.000154705
-0.000154576
-0.000154908
-0.000155663
-0.000156761
-0.000158105
-0.000159617
-0.000161259
-0.000163065
-0.000165147
-0.000167643
-0.000170615
-0.000173972
-0.000177543
-0.000181141
-0.000184495
-0.000187398
-0.000190165
-0.000193373
-0.000197627
-0.000203663
-0.000211588
-0.000221081
-0.000231443
-0.000240994
-0.000247927
-0.000251499
-0.000252156
-0.000251643
-0.000253346
-0.000262297
-0.000283176
-0.000317068
-0.0003601
0.000145467
0.0001219
9.84395e-05
7.56934e-05
5.35651e-05
3.19263e-05
1.0727e-05
-1.00077e-05
-3.01896e-05
-4.97049e-05
-6.84523e-05
-8.63534e-05
-0.000103344
-0.000119359
-0.00013433
-0.000148185
-0.000160853
-0.00017227
-0.000182381
-0.000191142
-0.000198518
-0.000204487
-0.000209035
-0.000212163
-0.000213891
-0.000214263
-0.000213369
-0.000211347
-0.000208376
-0.000204668
-0.000200465
-0.000196035
-0.00019166
-0.000187612
-0.000184131
-0.000181398
-0.000179511
-0.000178464
-0.000178137
-0.000178315
-0.000178727
-0.000179136
-0.000179468
-0.000179896
-0.000180802
-0.000182562
-0.000185209
-0.000188274
-0.000191258
-0.000193994
-0.000196181
-0.000197276
-0.000197978
-0.000199643
-0.000202708
-0.000207817
-0.000214947
-0.000222747
-0.000229809
-0.000235289
-0.000238701
-0.000240162
-0.000240334
-0.000240866
-0.000244707
-0.000255914
-0.000278461
-0.000313757
-0.000359008
0.000105706
8.0261e-05
5.53194e-05
3.1116e-05
7.55796e-06
-1.54279e-05
-3.78809e-05
-5.97805e-05
-8.10346e-05
-0.000101516
-0.000121108
-0.000139716
-0.000157262
-0.000173667
-0.000188848
-0.000202714
-0.000215174
-0.00022614
-0.000235533
-0.000243289
-0.000249368
-0.000253748
-0.000256425
-0.000257403
-0.000256718
-0.000254452
-0.000250742
-0.00024578
-0.000239803
-0.000233098
-0.000225986
-0.000218821
-0.000211981
-0.000205852
-0.000200795
-0.000197099
-0.000194918
-0.000194209
-0.000194687
-0.000195812
-0.000196873
-0.000197221
-0.000196625
-0.000195505
-0.000194823
-0.00019551
-0.000197499
-0.000199334
-0.000200121
-0.000200784
-0.000201859
-0.000202072
-0.000202216
-0.000204201
-0.000207736
-0.000211921
-0.000216522
-0.000221289
-0.00022546
-0.000228577
-0.000230482
-0.000231309
-0.00023171
-0.00023299
-0.000237324
-0.000247921
-0.000268352
-0.000300428
-0.000342786
2.95823e-05
2.16345e-06
-2.53492e-05
-5.1941e-05
-7.76861e-05
-0.000102751
-0.000127198
-0.000150998
-0.000174043
-0.000196189
-0.000217298
-0.000237259
-0.000255975
-0.000273354
-0.000289297
-0.000303702
-0.000316458
-0.000327427
-0.000336447
-0.000343376
-0.000348094
-0.000350503
-0.00035055
-0.000348249
-0.000343681
-0.000336988
-0.000328372
-0.000318093
-0.000306467
-0.000293882
-0.000280787
-0.000267692
-0.000255155
-0.000243779
-0.000234194
-0.000226999
-0.000222651
-0.000221309
-0.000222639
-0.000225647
-0.000228688
-0.000229894
-0.0002282
-0.000224078
-0.000219354
-0.000216241
-0.000215469
-0.000214634
-0.000212196
-0.000210087
-0.000209858
-0.000210426
-0.000210826
-0.000211286
-0.000212438
-0.000214422
-0.00021688
-0.000219332
-0.000221283
-0.000222367
-0.000222482
-0.000221846
-0.000221082
-0.000221323
-0.000224338
-0.000232838
-0.000249856
-0.000277317
-0.000315193
-1.60752e-05
-4.53026e-05
-7.35549e-05
-0.000101263
-0.000128442
-0.000154969
-0.00018082
-0.000205959
-0.00023026
-0.000253549
-0.000275667
-0.000296478
-0.000315865
-0.000333713
-0.000349916
-0.000364397
-0.000377165
-0.000388191
-0.000397296
-0.000404214
-0.000408672
-0.000410447
-0.000409363
-0.000405294
-0.000398175
-0.000388011
-0.00037489
-0.000359012
-0.000340704
-0.000320439
-0.00029889
-0.000276942
-0.000255678
-0.000236339
-0.000220233
-0.000208615
-0.000202488
-0.000202304
-0.000207607
-0.000216702
-0.000226529
-0.00023331
-0.000234812
-0.000231488
-0.000225786
-0.000221047
-0.000219486
-0.000220068
-0.000220738
-0.000220263
-0.000219005
-0.000217867
-0.000217123
-0.000216715
-0.000216694
-0.000217029
-0.000217515
-0.000217814
-0.000217484
-0.00021605
-0.000213236
-0.000209207
-0.000204712
-0.00020106
-0.000200102
-0.00020455
-0.000217516
-0.000241572
-0.00027703
-0.000139336
-0.00017224
-0.000204867
-0.000236043
-0.00026599
-0.000295129
-0.000323596
-0.000351279
-0.000377961
-0.000403421
-0.000427467
-0.000449924
-0.000470615
-0.000489334
-0.000505827
-0.000519787
-0.000530841
-0.000538734
-0.000543474
-0.00054518
-0.000543962
-0.000539844
-0.000532745
-0.000522502
-0.000508918
-0.00049182
-0.000471138
-0.000446961
-0.000419601
-0.000389636
-0.000357925
-0.000325615
-0.000294111
-0.000264996
-0.000239893
-0.000220296
-0.000207359
-0.000201665
-0.000202977
-0.000209937
-0.000219855
-0.000228977
-0.000234643
-0.000236236
-0.000234495
-0.000230817
-0.000227063
-0.000224632
-0.000223141
-0.00022186
-0.000220747
-0.000219947
-0.000219407
-0.000218969
-0.000218529
-0.000217927
-0.000216933
-0.00021526
-0.000212579
-0.0002086
-0.00020311
-0.000196104
-0.000188167
-0.000180702
-0.000175972
-0.000176625
-0.000185589
-0.000205244
-0.000236612
0.000225749
0.000234273
0.000243069
0.000252156
0.000261705
0.000271846
0.000282551
0.000293519
0.000304711
0.000316458
0.00032879
0.000341527
0.000354383
0.00036815
0.000381437
0.0003951
0.000408203
0.000421924
0.000435195
0.000448166
0.000461686
0.000473673
0.000484876
0.000495276
0.00050482
0.000513255
0.000520032
0.00052562
0.000530183
0.000532814
0.000533881
0.000533856
0.000532721
0.000530349
0.000526302
0.00052137
0.000515555
0.000508702
0.000501214
0.000493369
0.000484635
0.000475693
0.000467124
0.000458638
0.000449235
0.000440547
0.000431551
0.000423128
0.000414916
0.000407126
0.000399732
0.000392713
0.000386269
0.000380122
0.000374428
0.000368818
0.000363952
0.000359502
0.000355642
0.000224056
0.000232841
0.000242034
0.000251649
0.000261723
0.000272274
0.000283313
0.000294786
0.0003067
0.000319104
0.000331961
0.000345214
0.000358783
0.000372747
0.000386904
0.000401107
0.000415367
0.000429585
0.000443651
0.000457239
0.000470766
0.0004835
0.000495299
0.000506238
0.000516087
0.000524719
0.000531969
0.000537658
0.000542179
0.00054492
0.000545975
0.000545879
0.00054452
0.000541748
0.000537618
0.000532382
0.000526162
0.000519024
0.000511146
0.000502651
0.000493588
0.000484336
0.000475042
0.000465485
0.000455971
0.000446592
0.000437433
0.000428606
0.000420018
0.000411793
0.000404001
0.000396633
0.000389633
0.00038313
0.000377001
0.000371421
0.00036639
0.000361805
0.000357651
0.000221522
0.000230711
0.000240329
0.000250431
0.00026102
0.000272105
0.000283677
0.000295731
0.000308282
0.000321338
0.00033485
0.000348756
0.000363019
0.000377606
0.000392431
0.000407454
0.00042254
0.000437532
0.000452253
0.000466604
0.000480577
0.000493921
0.000506347
0.000517778
0.000528061
0.000537037
0.000544591
0.000550575
0.000555114
0.0005579
0.000559038
0.000558828
0.000557149
0.000554059
0.000549632
0.000544064
0.000537421
0.00052989
0.00052157
0.000512651
0.000503225
0.000493415
0.000483423
0.000473376
0.000463374
0.000453551
0.00044393
0.000434574
0.000425545
0.000416916
0.000408737
0.000400994
0.000393697
0.000386857
0.000380545
0.000374755
0.000369449
0.000364591
0.000360185
0.000218679
0.000228287
0.000238351
0.000248926
0.000260017
0.000271635
0.000283782
0.000296457
0.00030966
0.000323381
0.000337584
0.000352223
0.000367253
0.000382606
0.000398194
0.000413969
0.000429787
0.000445533
0.000461017
0.000476165
0.00049083
0.000504783
0.00051782
0.000529795
0.000540567
0.000549968
0.000557855
0.000564109
0.000568746
0.000571594
0.000572742
0.000572409
0.000570496
0.00056715
0.000562399
0.000556445
0.000549373
0.000541361
0.000532537
0.000523094
0.000513152
0.00050282
0.000492295
0.000481748
0.000471211
0.000460833
0.000450673
0.000440802
0.000431301
0.000422226
0.000413617
0.000405488
0.000397859
0.000390734
0.000384125
0.00037802
0.000372405
0.000367257
0.000362612
0.00021567
0.000225726
0.000236261
0.000247334
0.000258951
0.000271128
0.000283871
0.000297179
0.000311044
0.000325449
0.000340364
0.000355748
0.000371551
0.000387696
0.000404097
0.000420662
0.000437271
0.000453805
0.000470098
0.000486031
0.000501427
0.000516056
0.000529737
0.000542299
0.000553587
0.000563432
0.000571684
0.0005782
0.000582974
0.000585883
0.000587009
0.000586558
0.000584454
0.00058084
0.000575759
0.000569392
0.000561861
0.000553334
0.000543964
0.000533935
0.0005234
0.000512503
0.000501408
0.000490259
0.000479136
0.000468163
0.000457438
0.000447038
0.000437033
0.000427474
0.000418399
0.000409833
0.000401791
0.000394281
0.000387305
0.000380859
0.000374938
0.000369516
0.000364628
0.00021231
0.000222849
0.000233898
0.000245515
0.000257708
0.000270491
0.00028387
0.000297845
0.000312406
0.000327534
0.000343198
0.000359359
0.000375961
0.000392931
0.00041018
0.0004276
0.000445069
0.000462449
0.000479581
0.000496317
0.00051247
0.000527827
0.000542191
0.000555373
0.000567199
0.000577499
0.000586125
0.000592914
0.00059784
0.000600809
0.000601908
0.000601334
0.000599024
0.000595111
0.000589671
0.000582867
0.00057484
0.000565765
0.000555812
0.000545161
0.000533984
0.000522442
0.000510693
0.000498879
0.000487119
0.000475527
0.000464204
0.000453235
0.000442684
0.000432603
0.000423031
0.000413995
0.000405511
0.000397589
0.000390234
0.000383442
0.000377207
0.000371497
0.00036635
0.000208477
0.000219535
0.000231133
0.000243333