/*--------------------------------*- C++ -*----------------------------------*\
| =========                 |                                                 |
| \\      /  F ield         | OpenFOAM: The Open Source CFD Toolbox           |
|  \\    /   O peration     | Version:  2312                                  |
|   \\  /    A nd           | Website:  www.openfoam.com                      |
|    \\/     M anipulation  |                                                 |
\*---------------------------------------------------------------------------*/
FoamFile
{
    version     2.0;
    format      ascii;
    arch        "LSB;label=32;scalar=64";
    class       surfaceScalarField;
    location    "1600";
    object      phi;
}
// * * * * * * * * * * * * * * * * * * * * * * * * * * * * * * * * * * * * * //

dimensions      [0 3 -1 0 0 0 0];

oriented        oriented;

internalField   nonuniform List<scalar> 
116611
(
0.00113997
0.000418362
-0.00112373
-0.000434602
0.001156
0.000413622
-0.000429645
0.00117197
0.000408568
-0.000424545
0.00118783
0.000403163
-0.00041902
0.00120337
0.000397304
-0.000412843
0.00121898
0.000390969
-0.000406578
0.00123394
0.000384201
-0.000399163
0.00124895
0.000376967
-0.000391979
0.00126369
0.00036926
-0.000384002
0.0012783
0.000361133
-0.000375746
0.00129252
0.000352429
-0.000366642
0.00130649
0.000343197
-0.000357167
0.0013202
0.000333422
-0.000347132
0.00133381
0.000323086
-0.000336695
0.00134726
0.00031223
-0.000325686
0.00136026
0.000300852
-0.000313856
0.00137312
0.000288762
-0.000301613
0.00138551
0.000276167
-0.000288559
0.00139749
0.000262795
-0.000274782
0.00140918
0.000248941
-0.00026063
0.00142069
0.000234237
-0.000245749
0.00143186
0.000218948
-0.000230109
0.00144268
0.000202962
-0.000213785
0.00145319
0.000186254
-0.000196766
0.00146319
0.00016878
-0.000178776
0.00147276
0.000150507
-0.000160084
0.00148194
0.000131394
-0.000140567
0.00149032
0.000111553
-0.000119932
0.00149835
9.07874e-05
-9.88248e-05
0.00150537
6.91237e-05
-7.61404e-05
0.00151215
4.68288e-05
-5.36046e-05
0.00151804
2.33911e-05
-2.92863e-05
0.00152329
-9.22105e-07
-4.33053e-06
0.00152782
-2.60194e-05
2.14902e-05
0.0015315
-5.22243e-05
4.85461e-05
0.00153438
-7.92924e-05
7.64152e-05
0.00153644
-0.000107538
0.000105473
0.00153775
-0.000136658
0.000135349
0.00153823
-0.000166725
0.000166252
0.0015377
-0.000197972
0.000198498
0.00153627
-0.0002302
0.000231629
0.00153393
-0.000263626
0.000265967
0.00153081
-0.000298026
0.000301146
0.00152663
-0.000333507
0.00033769
0.00152166
-0.000370152
0.000375117
0.00151561
-0.000407996
0.000414048
0.00150889
-0.00044702
0.000453743
0.00150107
-0.000487269
0.000495085
0.00149243
-0.000528791
0.000537436
0.00148276
-0.000571612
0.000581279
0.00147211
-0.000615761
0.000626406
0.00146055
-0.000661223
0.000672783
0.00144804
-0.000708042
0.000720559
0.00143456
-0.00075631
0.000769785
0.00142018
-0.000806075
0.000820456
0.00140452
-0.000857632
0.00087329
0.00138799
-0.000910889
0.00092742
0.00137011
-0.000966125
0.000984004
0.00135077
-0.00102339
0.00104273
0.00133007
-0.00108263
0.00110333
0.00130883
-0.00114373
0.00116496
0.00128651
-0.00120775
0.00123008
0.00126269
-0.00127489
0.00129871
0.001238
-0.00134497
0.00136966
0.00121283
-0.00141843
0.00144359
0.00118549
-0.00149657
0.00152392
0.00115779
-0.00157899
0.00160669
0.00113206
-0.00166552
0.00169125
-0.00176431
0.00110604
0.00179033
0.00112347
0.000402164
-0.00110727
0.00113948
0.000397605
0.00115536
0.000392692
0.00117111
0.000387413
0.00118671
0.000381704
0.00120209
0.000375584
0.00121725
0.000369044
0.00123218
0.000362041
0.00124686
0.000354577
0.00126137
0.000346627
0.00127561
0.000338188
0.00128956
0.000329241
0.00130322
0.000319761
0.00131659
0.000309723
0.00132967
0.000299152
0.00134252
0.000288
0.00135501
0.000276273
0.00136723
0.000263944
0.00137902
0.000251008
0.00139054
0.00023742
0.00140161
0.000223166
0.00141231
0.00020825
0.00142262
0.000192645
0.00143255
0.000176326
0.00144205
0.000159279
0.0014511
0.000141455
0.00145963
0.000122873
0.00146767
0.000103511
0.00147514
8.33185e-05
0.00148195
6.23066e-05
0.00148833
4.04555e-05
0.001494
1.77181e-05
0.00149899
-5.90707e-06
0.00150337
-3.04027e-05
0.001507
-5.58522e-05
0.00150996
-8.22534e-05
0.00151207
-0.000109649
0.00151341
-0.000137997
0.00151402
-0.000167336
0.00151377
-0.000197729
0.00151274
-0.000229169
0.0015108
-0.00026168
0.00150801
-0.000295235
0.00150439
-0.000329888
0.00149992
-0.000365688
0.00149457
-0.000402643
0.00148832
-0.000440767
0.00148114
-0.000480092
0.00147302
-0.000520674
0.00146393
-0.000562513
0.0014538
-0.000605638
0.00144265
-0.000650076
0.00143047
-0.00069586
0.00141724
-0.000743076
0.00140298
-0.000791812
0.00138754
-0.000842198
0.00137094
-0.000894293
0.00135307
-0.000948251
0.00133385
-0.00100417
0.00131335
-0.00106213
0.0012919
-0.00112227
0.00126919
-0.00118504
0.00124508
-0.00125078
0.00121977
-0.00131967
0.00119346
-0.00139211
0.00116576
-0.00146887
0.00113714
-0.00155037
0.00110837
-0.00163675
-0.00173346
0.00107752
0.00110715
0.000385934
-0.00109092
0.0011232
0.000381554
0.00113907
0.000376823
0.00115478
0.000371709
0.00117029
0.000366195
0.0011856
0.000360268
0.00120073
0.00035392
0.00121563
0.000347136
0.0012303
0.000339902
0.00124473
0.000332198
0.00125891
0.000324013
0.00127282
0.000315332
0.00128644
0.000306141
0.00129974
0.000296418
0.00131274
0.000286151
0.00132542
0.00027532
0.00133778
0.000263918
0.0013498
0.000251925
0.00136148
0.00023933
0.00137279
0.000226111
0.0013837
0.000212255
0.00139421
0.000197741
0.0014043
0.000182549
0.00141397
0.00016666
0.00142319
0.000150056
0.00143193
0.000132715
0.00144018
0.000114622
0.00144793
9.5758e-05
0.00145515
7.61035e-05
0.00146182
5.56395e-05
0.00146792
3.43507e-05
0.00147342
1.22169e-05
0.0014783
-1.07884e-05
0.00148256
-3.46623e-05
0.00148616
-5.94444e-05
0.00148906
-8.51569e-05
0.00149123
-0.000111818
0.00149267
-0.000139443
0.00149339
-0.000168049
0.00149333
-0.000197667
0.00149247
-0.000228312
0.00149079
-0.000259999
0.00148829
-0.000292742
0.00148497
-0.000326566
0.00148078
-0.000361499
0.0014757
-0.00039756
0.00146971
-0.000434773
0.00146278
-0.000473166
0.00145488
-0.000512772
0.00144597
-0.000553608
0.00143604
-0.000595704
0.00142506
-0.000639096
0.00141303
-0.000683826
0.00139992
-0.000729966
0.0013857
-0.000777595
0.00137031
-0.000826808
0.00135372
-0.0008777
0.00133586
-0.000930391
0.00131668
-0.000984996
0.0012962
-0.00104165
0.00127445
-0.00110053
0.00125137
-0.00116196
0.00122686
-0.00122627
0.00120096
-0.00129377
0.00117374
-0.00136489
0.00114511
-0.00144024
0.00111525
-0.00152052
0.00108453
-0.00160602
-0.00170036
0.00105144
0.00109109
0.000369743
-0.0010749
0.00110713
0.000365512
0.001123
0.000360954
0.00113869
0.000356025
0.00115417
0.000350708
0.00116946
0.000344985
0.00118453
0.000338847
0.00119938
0.000332282
0.00121401
0.000325278
0.00122839
0.00031782
0.00124251
0.000309893
0.00125636
0.000301481
0.00126993
0.000292572
0.0012832
0.000283148
0.00129615
0.000273195
0.00130878
0.000262695
0.00132106
0.000251634
0.00133299
0.000239994
0.00134456
0.000227761
0.00135575
0.00021492
0.00136655
0.000201453
0.00137695
0.000187343
0.00138693
0.000172573
0.00139646
0.000157122
0.00140555
0.000140973
0.00141416
0.000124106
0.00142228
0.000106502
0.00142989
8.8145e-05
0.00143698
6.90162e-05
0.00144352
4.90965e-05
0.0014495
2.83678e-05
0.00145491
6.80544e-06
0.00145972
-1.55932e-05
0.0014639
-3.88456e-05
0.00146744
-6.29829e-05
0.00147031
-8.80281e-05
0.00147249
-0.000114001
0.00147397
-0.00014092
0.00147472
-0.000168802
0.00147472
-0.000197669
0.00147395
-0.00022754
0.00147239
-0.000258433
0.00147001
-0.000290363
0.00146679
-0.000323351
0.00146271
-0.000357421
0.00145775
-0.000392596
0.00145188
-0.0004289
0.00144507
-0.000466356
0.00143728
-0.000504992
0.00142851
-0.000544833
0.00141871
-0.000585908
0.00140787
-0.000628257
0.00139597
-0.000671923
0.00138297
-0.000716969
0.00136885
-0.000763467
0.00135354
-0.000811499
0.00133699
-0.000861157
0.00131915
-0.000912551
0.00129996
-0.000965802
0.00127938
-0.00102106
0.00125738
-0.00107853
0.00123391
-0.00113849
0.00120889
-0.00120125
0.00118229
-0.00126717
0.00115411
-0.00133671
0.00112436
-0.00141049
0.00109304
-0.0014892
0.00106018
-0.00157316
-0.001664
0.00102381
0.00107577
0.00035378
-0.0010598
0.00109164
0.000349639
0.00110739
0.000345203
0.00112299
0.000340426
0.00113842
0.000335282
0.00115365
0.000329753
0.00116867
0.000323824
0.00118347
0.000317481
0.00119804
0.00031071
0.00121236
0.000303497
0.00122643
0.000295827
0.00124022
0.000287687
0.00125373
0.000279061
0.00126695
0.000269935
0.00127985
0.000260294
0.00129242
0.000250122
0.00130465
0.000239402
0.00131653
0.000228119
0.00132803
0.000216257
0.00133915
0.000203798
0.00134988
0.000190727
0.00136019
0.000177027
0.00137009
0.000162681
0.00137954
0.00014767
0.00138853
0.000131977
0.00139706
0.000115582
0.00140509
9.84689e-05
0.00141262
8.06183e-05
0.00141962
6.20125e-05
0.00142609
4.26326e-05
0.00143199
2.24596e-05
0.00143733
1.46772e-06
0.00144207
-2.0331e-05
0.00144619
-4.29691e-05
0.00144968
-6.6474e-05
0.00145252
-9.08668e-05
0.00145469
-0.000116166
0.00145616
-0.000142391
0.00145692
-0.000169558
0.00145693
-0.000197688
0.00145619
-0.000226797
0.00145466
-0.000256905
0.00145233
-0.000288029
0.00144917
-0.00032019
0.00144516
-0.00035341
0.00144027
-0.000387711
0.00143449
-0.000423113
0.00142777
-0.000459642
0.0014201
-0.000497322
0.00141145
-0.000536181
0.00140179
-0.000576248
0.0013911
-0.000617561
0.00137933
-0.000660162
0.00136647
-0.000704106
0.00135246
-0.000749454
0.00133724
-0.00079628
0.00132075
-0.000844668
0.00130292
-0.00089472
0.00128368
-0.00094656
0.00126296
-0.00100035
0.0012407
-0.00105628
0.00121682
-0.00111461
0.00119122
-0.00117565
0.00116385
-0.0012398
0.00113468
-0.00130753
0.00110368
-0.00137949
0.00107077
-0.00145629
0.00103566
-0.00153805
-0.00162373
0.000995388
0.00106154
0.000338102
-0.00104586
0.00107715
0.000334034
0.00109266
0.000329691
0.00110805
0.000325029
0.00112331
0.000320024
0.00113841
0.000314658
0.00115332
0.000308915
0.00116802
0.000302777
0.0011825
0.000296228
0.00119675
0.000289253
0.00121074
0.000281837
0.00122446
0.000273965
0.0012379
0.000265622
0.00125104
0.000256793
0.00126387
0.000247463
0.00127638
0.000237615
0.00128855
0.000227236
0.00130036
0.000216307
0.0013118
0.000204813
0.00132286
0.000192739
0.00133352
0.000180066
0.00134377
0.000166778
0.0013536
0.000152857
0.00136298
0.000138288
0.0013719
0.000123051
0.00138036
0.00010713
0.00138832
9.05048e-05
0.00139578
7.31589e-05
0.00140272
5.50734e-05
0.00140912
3.62301e-05
0.00141497
1.66106e-05
0.00142025
-3.80813e-06
0.00142493
-2.50146e-05
0.00142901
-4.7045e-05
0.00143246
-6.9924e-05
0.00143526
-9.36715e-05
0.0014374
-0.000118305
0.00143885
-0.000143843
0.0014396
-0.000170303
0.00143961
-0.000197704
0.00143888
-0.000226063
0.00143737
-0.000255399
0.00143507
-0.000285731
0.00143196
-0.000317079
0.00142802
-0.000349462
0.00142321
-0.000382902
0.00141751
-0.000417419
0.00141091
-0.000453037
0.00140336
-0.000489778
0.00139485
-0.000527671
0.00138535
-0.000566742
0.00137481
-0.000607025
0.00136321
-0.000648558
0.00135049
-0.000691387
0.0013366
-0.000735565
0.00132148
-0.000781156
0.00130504
-0.000828236
0.00128722
-0.000876899
0.00126793
-0.000927266
0.00124707
-0.00097949
0.00122455
-0.00103376
0.00120026
-0.00109031
0.00117407
-0.00114947
0.0011459
-0.00121162
0.00111568
-0.00127731
0.00108337
-0.00134718
0.00104869
-0.00142161
0.00101087
-0.00150023
-0.00157808
0.000965226
0.00104836
0.000322622
-0.00103288
0.00106373
0.000318657
0.001079
0.00031442
0.00109416
0.000309874
0.00110918
0.000304997
0.00112407
0.000299777
0.00113878
0.000294197
0.00115332
0.000288243
0.00116765
0.000281898
0.00118175
0.000275146
0.00119562
0.00026797
0.00120923
0.000260356
0.00122256
0.000252287
0.00123561
0.000243749
0.00124835
0.000234724
0.00126076
0.000225198
0.00127285
0.000215154
0.00128458
0.000204576
0.00129594
0.000193449
0.00130693
0.000181755
0.00131751
0.000169478
0.00132769
0.0001566
0.00133744
0.000143106
0.00134675
0.000128977
0.00135561
0.000114196
0.00136399
9.87457e-05
0.00137189
8.26079e-05
0.00137928
6.57645e-05
0.00138616
4.81973e-05
0.0013925
2.9888e-05
0.00139829
1.0818e-05
0.00140351
-9.02538e-06
0.00140814
-2.96451e-05
0.00141217
-5.10732e-05
0.00141558
-7.33318e-05
0.00141835
-9.64399e-05
0.00142046
-0.000120416
0.00142189
-0.000145276
0.00142262
-0.000171039
0.00142264
-0.000197723
0.00142193
-0.000225346
0.00142045
-0.000253926
0.00141821
-0.000283482
0.00141516
-0.000314032
0.00141129
-0.000345595
0.00140658
-0.000378191
0.001401
-0.00041184
0.00139453
-0.000446563
0.00138713
-0.000482382
0.00137878
-0.000519319
0.00136944
-0.000557401
0.00135907
-0.000596656
0.00134763
-0.000637116
0.00133506
-0.000678818
0.0013213
-0.000721808
0.00130629
-0.000766139
0.00128993
-0.000811876
0.00127213
-0.000859108
0.00125281
-0.000907942
0.00123184
-0.000958522
0.0012091
-0.00101101
0.00118442
-0.00106564
0.00115765
-0.0011227
0.00112868
-0.00118265
0.00109741
-0.00124604
0.00106371
-0.00131349
0.00102698
-0.00138488
0.000985599
-0.00145885
-0.00152492
0.00093244
0.00103593
0.000307239
-0.00102055
0.00105118
0.000303408
0.00106629
0.000299309
0.00108127
0.000294903
0.00109609
0.000290173
0.00111076
0.000285107
0.00112527
0.000279692
0.00113959
0.000273917
0.00115372
0.000267766
0.00116765
0.000261225
0.00118134
0.000254278
0.00119478
0.000246909
0.00120797
0.000239104
0.00122087
0.000230845
0.00123348
0.000222117
0.00124577
0.000212904
0.00125774
0.00020319
0.00126936
0.000192957
0.00128061
0.00018219
0.0012915
0.000170873
0.00130199
0.000158987
0.00131207
0.000146517
0.00132173
0.000133444
0.00133096
0.000119753
0.00133973
0.000105425
0.00134803
9.04422e-05
0.00135585
7.47877e-05
0.00136317
5.84432e-05
0.00136998
4.13909e-05
0.00137626
2.36124e-05
0.00138199
5.0867e-06
0.00138715
-1.41844e-05
0.00139172
-3.42224e-05
0.0013957
-5.50544e-05
0.00139907
-7.67002e-05
0.00140181
-9.91783e-05
0.0014039
-0.000122506
0.00140533
-0.000146701
0.00140607
-0.000171781
0.00140611
-0.000197762
0.00140543
-0.000224664
0.001404
-0.000252504
0.00140182
-0.000281299
0.00139886
-0.000311067
0.00139509
-0.000341826
0.00139049
-0.000373595
0.00138504
-0.00040639
0.00137871
-0.000440232
0.00137147
-0.000475139
0.00136328
-0.000511131
0.00135411
-0.000548229
0.00134391
-0.000586457
0.00133263
-0.00062584
0.00132022
-0.000666408
0.00130661
-0.000708198
0.00129172
-0.000751251
0.00127547
-0.000795623
0.00125775
-0.000841386
0.00123844
-0.000888634
0.00121741
-0.000937491
0.00119448
-0.000988085
0.00116947
-0.00104062
0.00114219
-0.00109542
0.0011125
-0.00115295
0.00108025
-0.00121379
0.00104506
-0.00127831
0.00100568
-0.0013455
0.000959087
-0.00141226
-0.00145975
0.000893914
0.00102408
0.000291906
-0.00100874
0.00103926
0.000288223
0.00105429
0.00028428
0.00106916
0.000280037
0.00108385
0.000275476
0.00109837
0.000270585
0.00111271
0.000265353
0.00112686
0.000259769
0.00114081
0.00025382
0.00115454
0.000247493
0.00116804
0.000240773
0.00118131
0.000233647
0.00119431
0.000226099
0.00120704
0.000218114
0.00121948
0.000209676
0.00123162
0.000200769
0.00124343
0.000191376
0.00125491
0.000181482
0.00126603
0.000171069
0.00127678
0.000160121
0.00128715
0.000148621
0.00129711
0.000136552
0.00130666
0.000123896
0.00131577
0.000110637
0.00132444
9.67563e-05
0.00133265
8.22368e-05
0.00134037
6.70606e-05
0.00134761
5.12099e-05
0.00135433
3.46667e-05
0.00136053
1.74134e-05
0.00136619
-5.72238e-07
0.00137129
-1.92814e-05
0.00137581
-3.87465e-05
0.00137975
-5.89911e-05
0.00138308
-8.00342e-05
0.0013858
-0.000101893
0.00138788
-0.000124585
0.0013893
-0.000148127
0.00139006
-0.000172537
0.00139013
-0.00019783
0.00138949
-0.000224026
0.00138812
-0.00025114
0.00138601
-0.000279189
0.00138314
-0.00030819
0.00137947
-0.00033816
0.00137499
-0.000369114
0.00136967
-0.000401069
0.00136348
-0.000434041
0.00135638
-0.000468046
0.00134835
-0.000503101
0.00133935
-0.000539223
0.00132932
-0.00057643
0.00131822
-0.000614741
0.00130599
-0.000654178
0.00129256
-0.000694767
0.00127785
-0.000736538
0.00126176
-0.000779531
0.00124417
-0.000823797
0.00122494
-0.000869405
0.00120389
-0.000916444
0.00118082
-0.000965014
0.00115553
-0.00101533
0.00112785
-0.00106775
0.00109763
-0.00112273
0.00106453
-0.00118069
0.00102766
-0.00124143
0.000984589
-0.00130242
0.000929518
-0.00135719
-0.00137554
0.000845306
0.00101275
0.000276628
-0.00099747
0.00102788
0.000273091
0.00104285
0.000269309
0.00105765
0.000265237
0.00107227
0.000260856
0.0010867
0.000256155
0.00110093
0.000251121
0.00111496
0.000245744
0.00112877
0.000240011
0.00114235
0.00023391
0.0011557
0.000227428
0.00116879
0.000220551
0.00118163
0.000213265
0.00119419
0.000205555
0.00120646
0.000197406
0.00121842
0.000188803
0.00123007
0.000179729
0.00124138
0.000170169
0.00125235
0.000160105
0.00126294
0.000149522
0.00127316
0.000138403
0.00128299
0.000126729
0.0012924
0.000114485
0.00130138
0.000101651
0.00130993
8.82117e-05
0.00131802
7.41483e-05
0.00132563
5.94434e-05
0.00133276
4.40793e-05
0.00133939
2.80381e-05
0.00134551
1.13013e-05
0.00135108
-6.14671e-06
0.0013561
-2.43066e-05
0.00136057
-4.32097e-05
0.00136445
-6.28776e-05
0.00136775
-8.33289e-05
0.00137044
-0.00010458
0.0013725
-0.000126649
0.00137392
-0.000149551
0.00137469
-0.000173304
0.00137478
-0.000197923
0.00137418
-0.000223426
0.00137287
-0.000249828
0.00137083
-0.000277145
0.00136803
-0.000305393
0.00136446
-0.000334586
0.00136008
-0.000364739
0.00135488
-0.000395866
0.00134882
-0.000427982
0.00134187
-0.000461099
0.001334
-0.000495231
0.00132517
-0.000530391
0.00131533
-0.000566591
0.00130443
-0.000603844
0.00129242
-0.000642164
0.00127922
-0.000681565
0.00126474
-0.000722062
0.00124889
-0.000763674
0.00123151
-0.000806425
0.00121245
-0.000850344
0.00119149
-0.000895484
0.00116843
-0.000941953
0.00114308
-0.000989983
0.00111528
-0.00103994
0.00108475
-0.0010922
0.0010508
-0.00114674
0.00101152
-0.00120215
0.000962601
-0.00125351
0.000892707
-0.00128729
-0.00126077
0.000777937
0.00100203
0.000261422
-0.000986822
0.00101709
0.00025803
0.00103199
0.000254405
0.00104673
0.000250503
0.00106128
0.000246304
0.00107564
0.000241796
0.00108979
0.000236968
0.00110373
0.000231807
0.00111744
0.0002263
0.00113091
0.000220436
0.00114414
0.000214202
0.00115711
0.000207584
0.0011698
0.000200568
0.00118222
0.00019314
0.00119434
0.000185287
0.00120615
0.000176992
0.00121764
0.000168239
0.00122879
0.000159015
0.0012396
0.000149301
0.00125004
0.000139081
0.0012601
0.000128339
0.00126977
0.000117058
0.00127904
0.000105221
0.00128788
9.28087e-05
0.00129629
7.98052e-05
0.00130424
6.61922e-05
0.00131173
5.19521e-05
0.00131875
3.70673e-05
0.00132526
2.15201e-05
0.00133127
5.29007e-06
0.00133675
-1.16255e-05
0.00134169
-2.92459e-05
0.00134608
-4.75976e-05
0.0013499
-6.67001e-05
0.00135314
-8.65709e-05
0.00135579
-0.000107227
0.00135783
-0.000128684
0.00135923
-0.000150959
0.00136
-0.000174067
0.0013601
-0.000198025
0.00135952
-0.000222848
0.00135824
-0.000248551
0.00135625
-0.00027515
0.00135352
-0.000302658
0.00135002
-0.00033109
0.00134574
-0.000360457
0.00134065
-0.000390774
0.00133471
-0.000422051
0.00132791
-0.0004543
0.00132021
-0.00048753
0.00131157
-0.00052175
0.00130195
-0.000556969
0.0012913
-0.00059319
0.00127955
-0.00063042
0.00126664
-0.000668658
0.00125249
-0.000707904
0.00123696
-0.000748149
0.00121992
-0.000789381
0.00120117
-0.000831593
0.00118051
-0.000874823
0.00115776
-0.000919205
0.00113277
-0.000964995
0.00110533
-0.00101251
0.00107484
-0.00106171
0.00103969
-0.00111159
0.00099618
-0.00115864
0.00093637
-0.0011937
0.000840663
-0.00119159
-0.00110463
0.000684524
0.00099202
0.000246308
-0.000976905
0.00100699
0.000243056
0.00102181
0.000239586
0.00103646
0.000235852
0.00105093
0.000231834
0.00106521
0.000227519
0.00107928
0.000222896
0.00109314
0.000217952
0.00110676
0.000212676
0.00112014
0.000207055
0.00113327
0.000201074
0.00114613
0.000194722
0.00115872
0.000187984
0.00117101
0.000180846
0.001183
0.000173295
0.00119468
0.000165314
0.00120603
0.000156889
0.00121704
0.000148003
0.0012277
0.000138642
0.00123799
0.000128789
0.00124791
0.000118426
0.00125743
0.000107537
0.00126654
9.61052e-05
0.00127524
8.41128e-05
0.0012835
7.15425e-05
0.00129132
5.83764e-05
0.00129867
4.45969e-05
0.00130555
3.01864e-05
0.00131195
1.51274e-05
0.00131784
-6.01017e-07
0.00132321
-1.69951e-05
0.00132805
-3.40854e-05
0.00133234
-5.18947e-05
0.00133608
-7.04414e-05
0.00133926
-8.97422e-05
0.00134184
-0.000109813
0.00134383
-0.00013067
0.0013452
-0.000152329
0.00134594
-0.000174806
0.00134603
-0.000198116
0.00134545
-0.000222273
0.0013442
-0.000247293
0.00134223
-0.000273189
0.00133955
-0.000299974
0.00133612
-0.000327662
0.00133193
-0.000356264
0.00132695
-0.000385791
0.00132115
-0.000416254
0.00131451
-0.00044766
0.001307
-0.000480017
0.00129858
-0.000513329
0.00128921
-0.0005476
0.00127885
-0.000582828
0.00126743
-0.000619007
0.0012549
-0.000656125
0.00124115
-0.000694156
0.00122607
-0.000733067
0.0012095
-0.000772812
0.00119127
-0.000813367
0.00117125
-0.000854794
0.00114932
-0.000897275
0.00112536
-0.000941044
0.00109892
-0.000986059
0.00106849
-0.00103128
0.00103074
-0.00107384
0.000978684
-0.00110658
0.000897623
-0.00111263
0.000760052
-0.00105402
-0.000893159
0.000548582
0.000982835
0.000231293
-0.00096782
0.000997709
0.000228182
0.00101243
0.000224867
0.00102698
0.0002213
0.00104135
0.000217461
0.00105553
0.000213339
0.00106951
0.000208921
0.00108327
0.000204195
0.00109679
0.00019915
0.00111007
0.000193772
0.0011231
0.000188048
0.00113586
0.000181965
0.00114833
0.000175509
0.00116051
0.000168666
0.00117239
0.000161421
0.00118394
0.000153759
0.00119516
0.000145666
0.00120604
0.000137125
0.00121656
0.000128121
0.00122672
0.000118637
0.00123649
0.000108656
0.00124586
9.81623e-05
0.00125483
8.71377e-05
0.00126338
7.55653e-05
0.00127149
6.34276e-05
0.00127916
5.07068e-05
0.00128637
3.73851e-05
0.00129311
2.34452e-05
0.00129937
8.86906e-06
0.00130513
-6.35652e-06
0.00131037
-2.22388e-05
0.00131509
-3.88075e-05
0.00131928
-5.60831e-05
0.00132292
-7.40833e-05
0.001326
-9.28242e-05
0.00132851
-0.000112321
0.00133043
-0.000132591
0.00133175
-0.000153647
0.00133245
-0.000175506
0.00133252
-0.000198182
0.00133193
-0.00022169
0.00133068
-0.000246043
0.00132875
-0.000271255
0.00132611
-0.000297338
0.00132275
-0.000324304
0.00131865
-0.000352163
0.00131379
-0.000380927
0.00130814
-0.000410603
0.00130167
-0.000441198
0.00129437
-0.000472716
0.00128621
-0.000505161
0.00127713
-0.000538529
0.00126712
-0.000572812
0.00125611
-0.000607994
0.00124402
-0.000644042
0.00123078
-0.00068091
0.00121625
-0.000718543
0.00120034
-0.000756901
0.00118297
-0.000796
0.00116415
-0.000835967
0.00114386
-0.000876992
0.00112182
-0.000918997
0.00109666
-0.000960899
0.00106512
-0.000999742
0.00102085
-0.00102958
0.000951094
-0.00103683
0.000832788
-0.000994327
0.000638676
-0.000859904
-0.000635122
0.000380639
0.00097456
0.00021638
-0.000959648
0.00098933
0.000213412
0.00100394
0.000210253
0.00101839
0.000206854
0.00103265
0.000203196
0.00104673
0.000199267
0.00106059
0.000195056
0.00107424
0.000190549
0.00108765
0.000185736
0.00110082
0.000180603
0.00111373
0.000175137
0.00112637
0.000169325
0.00113873
0.000163154
0.00115078
0.000156608
0.00116253
0.000149673
0.00117396
0.000142335
0.00118505
0.000134577
0.00119579
0.000126385
0.00120617
0.000117741
0.00121617
0.00010863
0.00122579
9.90353e-05
0.00123502
8.89388e-05
0.00124383
7.83239e-05
0.00125222
6.71729e-05
0.00126018
5.54684e-05
0.0012677
4.31926e-05
0.00127475
3.03277e-05
0.00128134
1.68563e-05
0.00128745
2.75839e-06
0.00129306
-1.19677e-05
0.00129817
-2.73454e-05
0.00130276
-4.34003e-05
0.00130683
-6.01509e-05
0.00131036
-7.76139e-05
0.00131334
-9.58052e-05
0.00131576
-0.00011474
0.00131761
-0.000134434
0.00131886
-0.000154902
0.00131951
-0.000176158
0.00131955
-0.000198217
0.00131895
-0.000221092
0.00131771
-0.000244798
0.0013158
-0.000269346
0.00131321
-0.000294749
0.00130992
-0.000321017
0.00130592
-0.000348161
0.00130118
-0.00037619
0.00129569
-0.000405111
0.00128943
-0.000434932
0.00128236
-0.000465654
0.00127448
-0.000497278
0.00126575
-0.000529796
0.00125612
-0.00056319
0.00124556
-0.000597429
0.00123398
-0.000632465
0.00122132
-0.000668246
0.00120752
-0.000704742
0.0011926
-0.000741986
0.00117672
-0.000780115
0.00116004
-0.000819289
0.00114244
-0.000859389
0.0011227
-0.000899255
0.00109756
-0.000935766
0.00106082
-0.000962994
0.00100112
-0.000969885
0.000898281
-0.000933985
0.000725512
-0.000821557
0.000474194
-0.000608586
-0.000353701
0.000192772
0.000967265
0.000201566
-0.00095245
0.000981934
0.000198743
0.000996443
0.000195743
0.00101078
0.000192516
0.00102494
0.000189042
0.00103889
0.00018531
0.00105264
0.000181307
0.00106617
0.000177022
0.00107946
0.000172444
0.00109251
0.000167559
0.00110529
0.000162354
0.0011178
0.000156816
0.00113002
0.000150932
0.00114194
0.000144687
0.00115355
0.000138066
0.00116483
0.000131054
0.00117577
0.000123636
0.00118636
0.000115795
0.00119658
0.000107516
0.00120643
9.87818e-05
0.00121589
8.95751e-05
0.00122495
7.98789e-05
0.0012336
6.96755e-05
0.00124183
5.89475e-05
0.00124962
4.76769e-05
0.00125696
3.58459e-05
0.00126386
2.34365e-05
0.00127028
1.04309e-05
0.00127623
-3.18758e-06
0.00128168
-1.7422e-05
0.00128664
-3.23023e-05
0.00129109
-4.78507e-05
0.00129502
-6.40847e-05
0.00129843
-8.10205e-05
0.0013013
-9.86734e-05
0.00130362
-0.000117059
0.00130537
-0.000136191
0.00130656
-0.000156085
0.00130715
-0.000176755
0.00130715
-0.000198215
0.00130654
-0.000220477
0.00130529
-0.000243556
0.00130341
-0.000267463
0.00130087
-0.000292209
0.00129766
-0.000317805
0.00129376
-0.000344261
0.00128916
-0.000371587
0.00128383
-0.000399791
0.00127778
-0.000428877
0.00127098
-0.000458849
0.0012634
-0.000489702
0.00125502
-0.000521419
0.00124581
-0.000553973
0.0012357
-0.000587325
0.00122468
-0.00062144
0.00121275
-0.000656322
0.00120007
-0.000692055
0.0011869
-0.000728822
0.0011736
-0.000766819
0.00116018
-0.000805865
0.00114547
-0.000844683
0.00112613
-0.00087991
0.00109594
-0.000905575
0.00104408
-0.000911138
0.000952644
-0.000878447
0.000797138
-0.00077848
0.000564191
-0.00058861
0.000287352
-0.000331747
-0.00011051
4.41613e-05
0.000960997
0.000186839
-0.00094627
0.000975574
0.000184166
0.000989987
0.00018133
0.00100422
0.00017828
0.00101827
0.000174995
0.00103212
0.000171463
0.00104575
0.000167674
0.00105916
0.000163615
0.00107232
0.000159276
0.00108524
0.000154644
0.00109789
0.000149705
0.00111026
0.000144446
0.00112234
0.000138854
0.00113411
0.000132914
0.00114557
0.000126611
0.00115669
0.00011993
0.00116747
0.000112856
0.00117789
0.000105372
0.00118795
9.7461e-05
0.00119762
8.9107e-05
0.00120691
8.02923e-05
0.00121579
7.09993e-05
0.00122425
6.12101e-05
0.00123229
5.09067e-05
0.0012399
4.00711e-05
0.00124706
2.86849e-05
0.00125376
1.67301e-05
0.00126001
4.18695e-06
0.00126577
-8.9504e-06
0.00127105
-2.2701e-05
0.00127584
-3.70915e-05
0.00128013
-5.21416e-05
0.00128391
-6.78683e-05
0.00128718
-8.42874e-05
0.00128992
-0.000101414
0.00129213
-0.000119263
0.00129378
-0.000137849
0.00129489
-0.000157186
0.00129542
-0.000177287
0.00129537
-0.000198167
0.00129473
-0.000219837
0.00129349
-0.000242311
0.00129162
-0.000265599
0.00128913
-0.000289713
0.00128599
-0.000314665
0.00128219
-0.000340465
0.00127773
-0.000367123
0.00127258
-0.000394646
0.00126674
-0.00042304
0.0012602
-0.000452301
0.00125291
-0.000482417
0.00124486
-0.000513366
0.00123601
-0.000545128
0.00122639
-0.000577703
0.0012161
-0.000611151
0.00120541
-0.000645629
0.00119474
-0.00068139
0.00118455
-0.000718629
0.00117486
-0.000757132
0.00116437
-0.000795374
0.00114946
-0.00082977
0.00112354
-0.000853993
0.00107618
-0.000858216
0.000990633
-0.000825588
0.000845944
-0.000733757
0.000628757
-0.000561293
0.000358419
-0.000318273
0.000104359
-7.76866e-05
5.87342e-05
-6.4885e-05
0.0009558
0.000172187
-0.000941148
0.000970297
0.000169669
0.000984625
0.000167003
0.00099877
0.000164134
0.00101272
0.000161043
0.00102647
0.000157719
0.00103999
0.000154149
0.00105328
0.000150324
0.00106633
0.00014623
0.00107912
0.000141857
0.00109163
0.00013719
0.00110386
0.000132216
0.00111579
0.000126922
0.00112741
0.000121294
0.00113871
0.000115316
0.00114966
0.000108973
0.00116027
0.000102248
0.00117052
9.51266e-05
0.00118039
8.75903e-05
0.00118987
7.96221e-05
0.00119896
7.12044e-05
0.00120764
6.23191e-05
0.0012159
5.29478e-05
0.00122374
4.30721e-05
0.00123113
3.26733e-05
0.00123809
2.17328e-05
0.00124458
1.02319e-05
0.00125062
-1.84722e-06
0.00125618
-1.45083e-05
0.00126126
-2.77813e-05
0.00126585
-4.16891e-05
0.00126996
-5.62497e-05
0.00127357
-7.14795e-05
0.00127668
-8.7394e-05
0.00127927
-0.000104008
0.00128135
-0.000121336
0.00128289
-0.000139392
0.00128389
-0.00015819
0.00128435
-0.000177742
0.00128424
-0.000198062
0.00128357
-0.000219162
0.00128231
-0.000241053
0.00128046
-0.000263747
0.001278
-0.000287258
0.00127493
-0.000311595
0.00127124
-0.000336769
0.00126691
-0.000362791
0.00126192
-0.000389663
0.00125627
-0.000417385
0.00124991
-0.000445948
0.00124284
-0.000475344
0.00123506
-0.00050558
0.00122664
-0.00053671
0.0012178
-0.000568868
0.00120895
-0.000602294
0.00120061
-0.000637292
0.00119325
-0.000674029
0.00118667
-0.00071205
0.00117919
-0.000749652
0.00116662
-0.00078281
0.00114189
-0.000805036
0.00109412
-0.000806221
0.00100751
-0.000771607
0.000864196
-0.000682276
0.000655061
-0.000524621
0.00040002
-0.000306252
0.000151698
-6.99515e-05
-3.15076e-05
0.000105519
0.000175316
-0.000148089
0.000951721
0.000157596
-0.00093713
0.000966151
0.000155239
0.000980406
0.000152748
0.000994473
0.000150067
0.00100834
0.000147178
0.00102199
0.000144067
0.00103542
0.000140724
0.0010486
0.000137138
0.00106153
0.000133298
0.0010742
0.000129191
0.00108658
0.000124804
0.00109868
0.000120124
0.00111046
0.000115137
0.00112193
0.000109829
0.00113306
0.000104184
0.00114384
9.8187e-05
0.00115427
9.18213e-05
0.00116433
8.50702e-05
0.001174
7.79162e-05
0.00118328
7.03417e-05
0.00119216
6.23281e-05
0.00120062
5.3857e-05
0.00120866
4.49093e-05
0.00121627
3.54659e-05
0.00122343
2.55076e-05
0.00123015
1.5015e-05
0.00123641
3.96728e-06
0.00124221
-7.64333e-06
0.00124754