/*--------------------------------*- C++ -*----------------------------------*\
| =========                 |                                                 |
| \\      /  F ield         | OpenFOAM: The Open Source CFD Toolbox           |
|  \\    /   O peration     | Version:  2312                                  |
|   \\  /    A nd           | Website:  www.openfoam.com                      |
|    \\/     M anipulation  |                                                 |
\*---------------------------------------------------------------------------*/
FoamFile
{
    version     2.0;
    format      ascii;
    arch        "LSB;label=32;scalar=64";
    class       volVectorField;
    location    "1600";
    object      U;
}
// * * * * * * * * * * * * * * * * * * * * * * * * * * * * * * * * * * * * * //

dimensions      [0 1 -1 0 0 0 0];

internalField   nonuniform List<vector> 
76025
(
(0.0382123 -0.00773389 0)
(0.0383964 -0.00780441 1.40734e-21)
(0.0385876 -0.00786958 0)
(0.0387862 -0.00793228 0)
(0.0389722 -0.00798885 -2.67952e-21)
(0.039175 -0.00804544 -5.22233e-21)
(0.039366 -0.00809458 9.07018e-21)
(0.0395614 -0.00814022 -3.86034e-21)
(0.0397595 -0.00818259 -1.25983e-21)
(0.0399624 -0.0082221 1.2401e-21)
(0.0401622 -0.00825746 -8.49541e-24)
(0.0403627 -0.00828778 3.55698e-21)
(0.0405647 -0.00831628 -4.75798e-21)
(0.0407694 -0.00833754 0)
(0.0409891 -0.00835752 1.14564e-21)
(0.0411988 -0.00837481 0)
(0.0414187 -0.00838538 0)
(0.0416339 -0.00839556 0)
(0.0418523 -0.0083991 1.07283e-21)
(0.0420662 -0.00840559 -1.06328e-21)
(0.0422878 -0.00840149 -1.0453e-21)
(0.0425184 -0.00839296 -3.06649e-21)
(0.0427502 -0.00838076 2.04389e-21)
(0.042986 -0.00836589 2.97031e-21)
(0.0432236 -0.00834859 -3.59649e-23)
(0.0434571 -0.00833272 9.30985e-22)
(0.0437018 -0.00830232 -2.83362e-21)
(0.0439384 -0.00827405 2.81964e-21)
(0.0441759 -0.00824058 -9.17649e-22)
(0.0444118 -0.0081984 8.99641e-22)
(0.0446442 -0.00815966 8.83814e-22)
(0.0448731 -0.00812319 -1.73067e-21)
(0.045106 -0.00806623 2.5793e-21)
(0.0453346 -0.00801923 3.97204e-22)
(0.0455608 -0.00795949 -1.9905e-21)
(0.0457801 -0.0079113 9.20231e-24)
(0.0459965 -0.00785881 3.68696e-22)
(0.0462142 -0.00778563 -1.76253e-22)
(0.0464311 -0.00772032 1.13483e-25)
(0.0466445 -0.0076493 2.43695e-22)
(0.0468528 -0.00758556 -1.59619e-22)
(0.0470582 -0.00751944 7.56196e-23)
(0.0472657 -0.0074351 -1.45661e-22)
(0.047474 -0.00735907 2.80665e-22)
(0.0476824 -0.00727771 2.67064e-22)
(0.0478908 -0.00720815 -5.21629e-22)
(0.0481025 -0.00712796 -4.9511e-22)
(0.048322 -0.00705154 1.45747e-21)
(0.0485456 -0.00697636 -9.32967e-22)
(0.0487743 -0.00690625 1.49568e-23)
(0.0490108 -0.00683897 2.19536e-21)
(0.0492557 -0.00677182 8.3895e-22)
(0.0495106 -0.00670314 -8.28447e-22)
(0.0497771 -0.00663434 0)
(0.0500614 -0.00656847 7.65431e-22)
(0.0503588 -0.00652056 7.67941e-22)
(0.0506726 -0.00647163 -8.57933e-24)
(0.0510084 -0.00643736 7.17817e-22)
(0.0513611 -0.00642003 -6.80649e-22)
(0.0517286 -0.00641459 1.94667e-21)
(0.0521163 -0.00639647 1.34963e-21)
(0.0525711 -0.0064181 1.38419e-22)
(0.0530694 -0.00645538 0)
(0.0536106 -0.00651113 -2.79287e-21)
(0.0542248 -0.00657373 8.37827e-22)
(0.0549212 -0.0066797 -4.89705e-22)
(0.0556788 -0.00680777 6.66823e-22)
(0.0565821 -0.00687607 -7.56397e-22)
(0.0576824 -0.00708718 -7.3573e-22)
(0.0381109 -0.00807227 1.48761e-21)
(0.0383081 -0.00814557 4.38537e-21)
(0.0385078 -0.00821385 -5.81946e-21)
(0.0387106 -0.00827598 0)
(0.0389134 -0.00833611 6.96348e-21)
(0.0391199 -0.00839016 -6.49762e-23)
(0.0393277 -0.00844121 -5.45152e-21)
(0.0395342 -0.00848754 0)
(0.0397423 -0.00852909 -1.15406e-23)
(0.0399521 -0.00856682 -1.28531e-21)
(0.0401646 -0.0086007 1.26445e-21)
(0.0403775 -0.00863011 -9.21518e-24)
(0.0405899 -0.00865574 0)
(0.0408022 -0.0086776 0)
(0.0410169 -0.00869286 2.34026e-21)
(0.0412336 -0.00870694 -5.88912e-21)
(0.0414525 -0.00871443 -1.15441e-21)
(0.0416727 -0.00871986 3.3832e-21)
(0.0418942 -0.00871879 -2.24591e-21)
(0.0421156 -0.008716 1.09457e-21)
(0.0423385 -0.00870819 -1.06177e-21)
(0.0425621 -0.00869601 2.14239e-21)
(0.0427872 -0.00868001 -2.07221e-21)
(0.0430139 -0.00866021 3.0885e-21)
(0.0432426 -0.0086363 -2.04429e-21)
(0.0434722 -0.00861026 -2.97099e-21)
(0.0437024 -0.00857831 1.98079e-21)
(0.0439325 -0.00854429 0)
(0.0441622 -0.00850683 0)
(0.0443903 -0.00846516 9.35954e-22)
(0.0446187 -0.00841825 0)
(0.0448485 -0.00836873 9.08863e-22)
(0.0450757 -0.00831574 -8.84178e-22)
(0.0453018 -0.00826003 1.30013e-21)
(0.0455269 -0.00820176 2.49571e-25)
(0.0457513 -0.00814072 3.97499e-22)
(0.045974 -0.00807649 0)
(0.0461939 -0.00800851 7.30619e-22)
(0.0464133 -0.00793971 -5.30599e-22)
(0.0466326 -0.00786988 4.27246e-22)
(0.0468514 -0.00779832 -2.46457e-22)
(0.0470696 -0.00772446 5.77273e-24)
(0.0472872 -0.00764828 -7.9793e-23)
(0.0475066 -0.00757349 7.40252e-23)
(0.0477289 -0.0074977 -5.61766e-22)
(0.0479544 -0.00742178 2.72824e-22)
(0.048183 -0.00734408 2.61332e-22)
(0.0484161 -0.00726864 -5.06137e-22)
(0.0486539 -0.00719455 -1.46785e-21)
(0.0488968 -0.00712143 7.41057e-24)
(0.0491451 -0.0070495 -1.37572e-21)
(0.0493993 -0.00697887 4.41785e-22)
(0.049661 -0.00691019 1.27928e-21)
(0.0499327 -0.00684579 -8.48367e-22)
(0.0502162 -0.0067867 0)
(0.0505135 -0.00673608 -2.39267e-21)
(0.0508243 -0.006693 8.92267e-24)
(0.0511525 -0.00666434 7.65225e-22)
(0.0514984 -0.0066505 7.68348e-22)
(0.0518639 -0.00665024 0)
(0.0522596 -0.00666109 -6.65725e-22)
(0.0526977 -0.00669093 -2.04699e-21)
(0.0531805 -0.00674925 0)
(0.0537116 -0.00683267 1.23179e-21)
(0.0543066 -0.00694054 -8.18593e-22)
(0.0549883 -0.00708617 1.16158e-21)
(0.0557564 -0.00726798 -5.51987e-22)
(0.0566519 -0.00744051 7.72379e-22)
(0.0577099 -0.0078156 5.12238e-22)
(0.037986 -0.00843348 -7.67522e-21)
(0.0381968 -0.00850927 4.62329e-21)
(0.0384098 -0.0085799 -1.51515e-21)
(0.0386231 -0.00864416 5.8868e-21)
(0.0388377 -0.00870403 -7.31651e-21)
(0.0390532 -0.00875931 -5.68653e-21)
(0.0392708 -0.0088103 7.07305e-21)
(0.0394899 -0.00885657 0)
(0.03971 -0.00889822 -1.21839e-23)
(0.0399309 -0.00893528 0)
(0.0401528 -0.00896797 -1.31778e-21)
(0.0403755 -0.00899611 1.28507e-21)
(0.0405987 -0.0090196 6.30805e-21)
(0.0408221 -0.00903883 -5.024e-21)
(0.0410452 -0.00905329 1.22147e-21)
(0.0412692 -0.00906339 3.59249e-21)
(0.0414938 -0.00906898 -1.20768e-21)
(0.0417193 -0.00907002 -1.16219e-21)
(0.0419456 -0.0090666 -3.42115e-21)
(0.042173 -0.00905838 2.27403e-21)
(0.0424005 -0.00904607 1.10991e-21)
(0.042628 -0.00902962 -2.16185e-21)
(0.0428558 -0.00900904 1.09224e-21)
(0.043084 -0.0089845 1.05621e-21)
(0.0433126 -0.00895615 0)
(0.0435413 -0.0089241 -1.0222e-21)
(0.0437695 -0.00888858 -9.87084e-22)
(0.0439979 -0.00884925 1.01162e-21)
(0.0442263 -0.00880625 0)
(0.0444545 -0.00875986 -1.92116e-21)
(0.0446827 -0.00870927 9.45962e-22)
(0.0449107 -0.00865602 -1.43524e-24)
(0.0451377 -0.00860039 0)
(0.0453649 -0.00854042 -4.40009e-22)
(0.045592 -0.0084776 1.25997e-21)
(0.0458187 -0.00841191 -8.22891e-22)
(0.0460442 -0.00834431 0)
(0.0462689 -0.00827457 -5.61088e-22)
(0.0464937 -0.00820247 5.48002e-22)
(0.0467189 -0.00812909 8.73015e-23)
(0.0469442 -0.00805419 0)
(0.0471698 -0.00797831 1.61703e-22)
(0.0473961 -0.00790126 7.71013e-23)
(0.0476245 -0.00782295 -7.43729e-23)
(0.047855 -0.00774399 4.36002e-22)
(0.0480877 -0.00766503 2.7992e-22)
(0.0483229 -0.00758661 -5.38691e-22)
(0.0485614 -0.00750896 5.17109e-22)
(0.0488037 -0.00743246 -5.07703e-22)
(0.0490498 -0.00735757 4.9348e-22)
(0.0493003 -0.0072848 4.70926e-22)
(0.0495563 -0.00721452 -9.28532e-22)
(0.049819 -0.00714737 0)
(0.0500904 -0.0070847 -8.85755e-22)
(0.050372 -0.00702808 -1.48246e-23)
(0.0506653 -0.00698029 8.35762e-22)
(0.0509721 -0.00694331 8.2385e-22)
(0.0512948 -0.00691971 -1.62614e-21)
(0.0516355 -0.00691121 2.38094e-23)
(0.0519977 -0.00691911 -8.24105e-22)
(0.0523872 -0.00694493 1.64867e-21)
(0.0528136 -0.00699564 8.63398e-22)
(0.0532829 -0.00707629 2.52327e-24)
(0.0538018 -0.00718845 7.69528e-22)
(0.054383 -0.00733639 6.49818e-22)
(0.0550457 -0.0075252 2.31079e-21)
(0.0557976 -0.00776392 0)
(0.0566839 -0.00801755 5.70742e-22)
(0.0576862 -0.00846261 -5.56315e-22)
(0.0378439 -0.00881467 0)
(0.0380685 -0.00889142 1.58578e-21)
(0.038296 -0.00896312 7.7858e-21)
(0.038523 -0.00902859 -6.18773e-21)
(0.0387505 -0.0090889 -4.50084e-21)
(0.0389787 -0.00914455 7.45984e-21)
(0.0392081 -0.00919542 -1.44982e-21)
(0.0394386 -0.00924138 1.43657e-21)
(0.0396703 -0.00928239 1.39923e-21)
(0.0399026 -0.0093185 5.48081e-21)
(0.0401355 -0.00934974 -5.47004e-21)
(0.0403689 -0.00937609 -5.28498e-21)
(0.0406028 -0.00939748 1.3714e-21)
(0.0408372 -0.00941393 5.13647e-21)
(0.0410716 -0.0094255 -3.80666e-21)
(0.041306 -0.0094322 1.24114e-21)
(0.0415403 -0.00943417 -1.21895e-21)
(0.0417744 -0.00943132 -1.19731e-21)
(0.0420085 -0.00942381 3.50326e-21)
(0.0422426 -0.00941162 -1.17472e-21)
(0.0424767 -0.00939489 -1.13413e-21)
(0.0427106 -0.00937366 0)
(0.0429445 -0.00934807 -2.17469e-21)
(0.043178 -0.0093183 1.1002e-21)
(0.0434112 -0.00928453 2.10192e-21)
(0.0436439 -0.00924688 2.04573e-21)
(0.0438761 -0.00920541 -4.12911e-21)
(0.0441079 -0.0091601 2.02139e-21)
(0.0443392 -0.00911115 0)
(0.0445701 -0.00905875 1.95976e-21)
(0.0448004 -0.00900306 -1.16454e-23)
(0.0450303 -0.00894447 -1.91512e-21)
(0.04526 -0.0088826 9.16744e-22)
(0.0454895 -0.0088172 -2.22888e-21)
(0.0457186 -0.00874926 4.39507e-22)
(0.0459472 -0.00867919 0)
(0.0461752 -0.00860724 0)
(0.0464029 -0.00853337 -1.90878e-22)
(0.0466307 -0.00845774 -1.84329e-22)
(0.0468588 -0.00838082 -8.84735e-23)
(0.0470873 -0.00830277 2.66238e-24)
(0.0473164 -0.00822367 -8.22295e-23)
(0.0475464 -0.00814348 0)
(0.0477776 -0.00806254 -1.12951e-25)
(0.0480105 -0.00798148 0)
(0.0482451 -0.00790063 -2.81349e-22)
(0.0484821 -0.00782026 5.28028e-24)
(0.0487219 -0.00774068 8.01602e-22)
(0.0489649 -0.0076625 0)
(0.0492115 -0.00758617 4.96676e-22)
(0.0494623 -0.00751216 -4.89659e-22)
(0.0497183 -0.00744118 9.40748e-22)
(0.0499807 -0.00737416 0)
(0.050251 -0.00731254 2.71721e-21)
(0.0505306 -0.00725808 -1.36433e-23)
(0.050821 -0.00721292 -8.76255e-22)
(0.0511239 -0.00717904 -8.67234e-22)
(0.0514412 -0.007159 0)
(0.0517753 -0.00715546 0)
(0.0521295 -0.00717125 8.33097e-22)
(0.0525091 -0.00720986 -1.6653e-21)
(0.052921 -0.00727656 -1.66577e-21)
(0.053372 -0.00737697 0)
(0.0538708 -0.0075161 1.871e-21)
(0.054429 -0.00770008 0)
(0.0550663 -0.00793324 -2.46098e-21)
(0.0557916 -0.00823047 8.52565e-22)
(0.0566536 -0.00855734 7.67818e-22)
(0.0575801 -0.00908273 8.9477e-22)
(0.0377067 -0.00921814 0)
(0.0379396 -0.00929448 0)
(0.0381775 -0.00936574 1.63343e-21)
(0.0384165 -0.00943073 -6.33847e-21)
(0.0386564 -0.00949049 7.8717e-21)
(0.0388977 -0.00954548 -1.52891e-21)
(0.0391398 -0.00959557 0)
(0.0393828 -0.00964058 -1.47294e-21)
(0.0396265 -0.00968039 0)
(0.0398708 -0.00971493 -2.82677e-21)
(0.0401154 -0.00974421 3.36031e-23)
(0.0403604 -0.00976824 2.76341e-21)
(0.0406056 -0.00978701 0)
(0.040851 -0.00980054 -2.61956e-21)
(0.0410963 -0.00980887 7.77552e-21)
(0.0413413 -0.00981205 -5.08403e-21)
(0.041586 -0.00981014 6.24146e-21)
(0.0418302 -0.00980321 -1.24894e-21)
(0.0420738 -0.00979133 1.2044e-21)
(0.0423168 -0.00977461 -1.18115e-21)
(0.0425591 -0.00975314 -1.13926e-21)
(0.0428007 -0.00972704 3.44269e-21)
(0.0430417 -0.00969643 2.24045e-21)
(0.0432819 -0.00966149 0)
(0.0435212 -0.00962236 -2.14283e-21)
(0.0437597 -0.00957921 -1.02138e-21)
(0.0439973 -0.00953219 3.16148e-21)
(0.0442339 -0.00948146 -1.03038e-21)
(0.0444696 -0.00942722 2.00422e-21)
(0.0447043 -0.00936965 -3.01456e-21)
(0.0449383 -0.00930896 9.79859e-22)
(0.0451713 -0.00924551 -4.82637e-22)
(0.0454039 -0.00917855 0)
(0.045636 -0.00910859 4.51565e-22)
(0.0458674 -0.00903626 4.34483e-22)
(0.0460982 -0.00896183 0)
(0.0463285 -0.00888548 -4.00728e-22)
(0.0465586 -0.00880738 5.7628e-22)
(0.0467885 -0.00872771 -3.76593e-22)
(0.0470186 -0.00864672 1.79192e-22)
(0.047249 -0.00856461 2.68088e-24)
(0.0474798 -0.00848154 1.24137e-22)
(0.0477113 -0.00839771 -4.05324e-23)
(0.0479437 -0.00831349 -1.54832e-22)
(0.0481776 -0.00822924 -2.49518e-24)
(0.0484133 -0.00814529 -8.68898e-22)
(0.0486511 -0.00806203 0)
(0.0488914 -0.0079799 -5.40457e-22)
(0.0491348 -0.00789939 4.29001e-24)
(0.0493816 -0.00782104 5.1426e-22)
(0.0496328 -0.00774543 0)
(0.049889 -0.00767338 4.84731e-22)
(0.0501514 -0.00760589 -4.78022e-22)
(0.0504211 -0.0075443 -9.27879e-22)
(0.0506992 -0.00749024 0)
(0.0509868 -0.00744571 1.82229e-21)
(0.0512854 -0.00741299 -1.82455e-21)
(0.0515964 -0.00739489 1.82444e-21)
(0.0519222 -0.00739457 3.05619e-23)
(0.0522657 -0.00741578 0)
(0.0526315 -0.00746307 9.53156e-22)
(0.0530253 -0.00754226 -9.1864e-22)
(0.053454 -0.00766 -1.08761e-21)
(0.0539269 -0.00782304 -1.88976e-21)
(0.0544553 -0.0080397 3.19881e-21)
(0.0550605 -0.00831532 -2.05374e-21)
(0.0557483 -0.00866805 1.02546e-21)
(0.0565714 -0.00905916 -1.24476e-21)
(0.0573768 -0.00965229 -2.63122e-21)
(0.0375866 -0.00964788 -6.87034e-21)
(0.0378244 -0.00972361 8.80336e-23)
(0.0380686 -0.00979385 6.79138e-21)
(0.0383153 -0.00985746 0)
(0.0385644 -0.00991563 -1.61219e-21)
(0.0388159 -0.00996889 0)
(0.0390692 -0.0100171 3.09416e-21)
(0.0393239 -0.0100602 -4.45942e-23)
(0.0395794 -0.0100979 -4.52155e-21)
(0.0398355 -0.0101301 1.47316e-21)
(0.0400921 -0.0101568 1.43591e-21)
(0.0403488 -0.010178 1.41525e-21)
(0.0406055 -0.0101936 0)
(0.040862 -0.0102038 0)
(0.0411183 -0.0102084 -1.32873e-21)
(0.041374 -0.0102077 -1.30345e-21)
(0.0416292 -0.0102016 2.53792e-21)
(0.0418836 -0.0101902 -2.53462e-21)
(0.0421371 -0.0101737 -2.46357e-21)
(0.0423896 -0.0101521 2.39521e-21)
(0.042641 -0.0101256 -4.74616e-21)
(0.0428912 -0.0100942 4.43257e-23)
(0.0431402 -0.0100582 2.30754e-21)
(0.0433879 -0.0100178 1.12108e-21)
(0.0436343 -0.00997303 2.18255e-21)
(0.0438794 -0.00992418 -2.18883e-21)
(0.044123 -0.00987141 -2.1064e-21)
(0.0443653 -0.00981493 2.11527e-21)
(0.0446062 -0.00975494 0)
(0.0448458 -0.00969163 0)
(0.0450842 -0.00962523 -2.48045e-21)
(0.045321 -0.0095562 2.48976e-23)
(0.0455573 -0.00948345 9.55364e-22)
(0.0457926 -0.00940792 8.98371e-22)
(0.0460269 -0.00933009 -8.84005e-22)
(0.0462602 -0.00925025 0)
(0.0464929 -0.00916862 4.05855e-22)
(0.0467249 -0.0090854 5.79638e-22)
(0.0469567 -0.00900082 -3.79459e-22)
(0.0471882 -0.0089151 -5.28925e-25)
(0.0474198 -0.00882849 2.67645e-23)
(0.0476517 -0.00874123 -1.26527e-22)
(0.0478843 -0.00865358 -8.07222e-23)
(0.0481177 -0.00856585 -1.54809e-22)
(0.0483525 -0.00847835 7.54339e-22)
(0.0485891 -0.00839143 -2.52407e-24)
(0.0488277 -0.00830545 0)
(0.049069 -0.00822081 5.48837e-22)
(0.0493133 -0.00813799 -1.59777e-21)
(0.0495612 -0.00805752 1.04379e-21)
(0.0498133 -0.00798002 5.06362e-22)
(0.0500704 -0.00790631 -6.96291e-26)
(0.0503332 -0.00783736 4.87116e-22)
(0.0506024 -0.00777447 2.55088e-24)
(0.0508789 -0.00771924 -9.53653e-22)
(0.0511634 -0.00767369 9.61707e-22)
(0.0514568 -0.00764021 9.61545e-22)
(0.0517605 -0.00762183 -1.91822e-21)
(0.0520764 -0.00762217 9.38451e-24)
(0.0524071 -0.00764572 -1.00599e-21)
(0.0527562 -0.00769785 9.93575e-22)
(0.0531286 -0.00778522 -1.004e-21)
(0.0535306 -0.00791569 2.06523e-21)
(0.0539715 -0.00809793 1.1441e-21)
(0.0544628 -0.00834286 -2.14686e-21)
(0.055028 -0.00865682 1.393e-21)
(0.0556662 -0.00906031 3.89638e-21)
(0.0564294 -0.0095062 1.03715e-21)
(0.0570496 -0.0101398 0)
(0.0374794 -0.0101045 0)
(0.0377247 -0.0101801 -1.78392e-21)
(0.0379759 -0.0102495 1.69661e-23)
(0.0382294 -0.0103116 0)
(0.0384858 -0.0103679 0)
(0.0387453 -0.0104188 -1.64735e-21)
(0.0390074 -0.0104645 4.80749e-21)
(0.0392715 -0.0105046 -6.30538e-21)
(0.0395372 -0.0105392 3.10379e-21)
(0.039804 -0.0105681 -1.5089e-21)
(0.0400713 -0.0105913 0)
(0.040339 -0.0106087 -1.44923e-21)
(0.0406068 -0.0106203 1.42531e-21)
(0.0408743 -0.0106262 0)
(0.0411414 -0.0106264 0)
(0.0414079 -0.010621 -1.3137e-21)
(0.0416735 -0.0106099 4.82906e-23)
(0.0419381 -0.0105934 2.59508e-21)
(0.0422015 -0.0105715 2.49633e-21)
(0.0424635 -0.0105443 -2.49435e-21)
(0.0427241 -0.010512 -1.21152e-21)
(0.0429832 -0.0104747 -4.72589e-21)
(0.0432405 -0.0104327 2.47147e-23)
(0.0434962 -0.0103861 1.11795e-21)
(0.0437501 -0.010335 -2.2667e-21)
(0.0440021 -0.0102798 1.08039e-21)
(0.0442523 -0.0102207 -2.18544e-21)
(0.0445006 -0.0101578 0)
(0.0447472 -0.0100914 0)
(0.0449919 -0.0100218 0)
(0.0452349 -0.00994917 5.05925e-22)
(0.0454761 -0.00987377 9.79885e-22)
(0.0457161 -0.00979486 -9.60828e-22)
(0.0459547 -0.00971337 -9.0326e-22)
(0.0461919 -0.00962976 8.88864e-22)
(0.0464279 -0.00954434 0)
(0.0466628 -0.00945735 -4.02615e-22)
(0.0468968 -0.009369 1.99731e-22)
(0.0471303 -0.00927954 0)
(0.0473635 -0.00918919 -1.81753e-22)
(0.0475967 -0.00909822 3.26695e-23)
(0.0478302 -0.00900688 -2.13575e-23)
(0.0480643 -0.00891543 8.18021e-23)
(0.0482994 -0.00882413 0)
(0.0485358 -0.00873328 3.02109e-22)
(0.048774 -0.0086432 -2.97738e-22)
(0.0490145 -0.00855422 0)
(0.0492575 -0.00846674 -3.83031e-24)
(0.0495037 -0.00838118 -3.4305e-24)
(0.0497534 -0.00829807 -5.27829e-22)
(0.0500072 -0.00821798 0)
(0.0502655 -0.0081417 2.10702e-24)
(0.0505287 -0.00807015 4.98051e-22)
(0.0507974 -0.00800459 1.49147e-21)
(0.051072 -0.00794653 9.93345e-24)
(0.0513529 -0.00789799 -9.73686e-22)
(0.0516408 -0.00786143 0)
(0.0519365 -0.00784008 0)
(0.0522416 -0.00783791 -1.03695e-21)
(0.052558 -0.00785998 0)
(0.0528884 -0.00791225 0)
(0.0532363 -0.00800225 4.34305e-24)
(0.0536072 -0.0081393 1.14512e-21)
(0.0540103 -0.00833433 2.57312e-21)
(0.0544576 -0.00860123 -2.65496e-21)
(0.054975 -0.00894686 3.43779e-22)
(0.0555466 -0.00939353 -1.21624e-21)
(0.0562151 -0.00987683 -1.45745e-21)
(0.0565364 -0.0105233 0)
(0.0373744 -0.0105876 0)
(0.0376317 -0.0106635 1.82842e-21)
(0.037894 -0.0107324 -5.36733e-21)
(0.0381575 -0.0107934 1.78133e-21)
(0.0384231 -0.0108479 0)
(0.0386913 -0.0108965 5.04721e-21)
(0.0389621 -0.0109393 -8.2859e-21)
(0.0392351 -0.0109761 5.14708e-23)
(0.0395099 -0.0110069 7.94655e-21)
(0.039786 -0.0110317 -1.5795e-21)
(0.0400631 -0.0110505 1.52682e-21)
(0.0403407 -0.0110632 1.49418e-21)
(0.0406185 -0.0110699 -4.35426e-21)
(0.0408962 -0.0110706 5.72016e-21)
(0.0411735 -0.0110653 -2.82568e-21)
(0.0414501 -0.0110541 1.34572e-21)
(0.0417257 -0.0110372 -5.36781e-21)
(0.042 -0.0110145 1.3406e-21)
(0.042273 -0.0109863 -1.261e-21)
(0.0425443 -0.0109527 1.30899e-21)
(0.0428138 -0.0109138 5.02305e-23)
(0.0430814 -0.0108698 7.25785e-21)
(0.043347 -0.0108209 1.13785e-21)
(0.0436104 -0.0107674 -4.9385e-23)
(0.0438717 -0.0107094 -3.43985e-21)
(0.0441306 -0.0106472 1.12043e-21)
(0.0443873 -0.0105811 -2.1691e-21)
(0.0446417 -0.0105112 3.249e-21)
(0.0448939 -0.0104379 0)
(0.0451438 -0.0103615 1.02629e-21)
(0.0453914 -0.0102822 -1.03218e-21)
(0.0456371 -0.0101999 4.27357e-24)
(0.045881 -0.0101145 4.74458e-22)
(0.046123 -0.0100267 4.56263e-22)
(0.0463633 -0.00993709 -1.31154e-21)
(0.0466021 -0.00984585 8.58962e-22)
(0.0468396 -0.00975326 -6.07643e-22)
(0.0470762 -0.00965956 7.87486e-22)
(0.047312 -0.00956501 -3.8345e-22)
(0.0475475 -0.00946985 9.17295e-23)
(0.047783 -0.00937433 0)
(0.0480187 -0.0092787 -8.40886e-23)
(0.0482551 -0.00918321 8.28514e-23)
(0.0484925 -0.00908811 1.57076e-22)
(0.0487313 -0.00899368 -4.58986e-22)
(0.048972 -0.0089002 3.007e-22)
(0.0492148 -0.00880796 2.90781e-22)
(0.0494603 -0.0087173 0)
(0.0497088 -0.00862858 1.09001e-21)
(0.0499607 -0.00854227 -1.07034e-21)
(0.0502162 -0.00845888 5.26315e-22)
(0.0504757 -0.0083791 -5.15216e-22)
(0.0507394 -0.0083038 -5.07092e-22)
(0.0510075 -0.00823411 -1.00754e-21)
(0.0512801 -0.0081715 -1.00305e-21)
(0.0515575 -0.0081179 0)
(0.0518399 -0.00807578 1.02867e-21)
(0.0521276 -0.00804845 0)
(0.0524215 -0.00804012 -4.39635e-23)
(0.0527228 -0.00805625 1.08558e-21)
(0.0530325 -0.00810304 -1.11166e-21)
(0.0533527 -0.00818876 -1.16448e-21)
(0.0536882 -0.0083245 1.31259e-21)
(0.0540491 -0.00852384 1.0653e-22)
(0.0544472 -0.00880393 -1.94827e-23)
(0.0549076 -0.00917006 -4.60482e-21)
(0.0553833 -0.00964581 -1.77612e-21)
(0.0558917 -0.0101373 -1.77849e-21)
(0.0557237 -0.0107453 1.79031e-21)
(0.0372638 -0.0110981 0)
(0.0375365 -0.0111743 0)
(0.0378134 -0.011243 -3.69524e-21)
(0.0380907 -0.011303 5.48381e-21)
(0.0383692 -0.0113559 1.78892e-21)
(0.0386494 -0.0114022 0)
(0.0389315 -0.0114422 0)
(0.0392151 -0.0114756 -1.67475e-21)
(0.0395002 -0.0115026 3.24174e-21)
(0.0397863 -0.0115229 -4.95786e-23)
(0.0400731 -0.0115367 -7.81958e-21)
(0.0403605 -0.0115441 1.56002e-21)
(0.040648 -0.0115451 -1.4689e-21)
(0.0409354 -0.0115397 2.95605e-21)
(0.0412223 -0.0115281 -1.43174e-21)
(0.0415084 -0.0115103 0)
(0.0417934 -0.0114865 0)
(0.0420769 -0.0114568 2.57223e-23)
(0.0423589 -0.0114214 3.96069e-21)
(0.042639 -0.0113803 -1.28581e-21)
(0.042917 -0.0113339 1.25346e-21)
(0.0431928 -0.0112823 -1.23281e-21)
(0.0434662 -0.0112257 -1.18283e-21)
(0.0437371 -0.0111644 1.21011e-21)
(0.0440054 -0.0110987 1.15931e-21)
(0.0442711 -0.0110287 0)
(0.044534 -0.0109548 0)
(0.0447942 -0.0108773 -1.63521e-21)
(0.0450518 -0.0107964 0)
(0.0453068 -0.0107125 -1.03684e-21)
(0.0455589 -0.010626 1.0426e-21)
(0.045809 -0.0105361 4.99697e-22)
(0.0460569 -0.0104437 -4.80396e-22)
(0.0463026 -0.0103492 -9.18976e-22)
(0.0465462 -0.0102531 4.44507e-22)
(0.0467882 -0.0101557 4.20924e-22)
(0.0470287 -0.0100572 -4.12063e-22)
(0.0472681 -0.00995787 0)
(0.0475068 -0.00985801 0)
(0.047745 -0.00975784 -9.0926e-23)
(0.0479832 -0.00965759 0)
(0.0482216 -0.00955751 0)
(0.0484607 -0.00945782 2.44589e-22)
(0.0487008 -0.00935875 -3.18497e-22)
(0.0489423 -0.00926053 1.52942e-22)
(0.0491857 -0.00916337 -2.99868e-22)
(0.0494312 -0.00906752 0)
(0.0496793 -0.00897324 -8.42263e-22)
(0.0499302 -0.00888084 1.02795e-24)
(0.0501842 -0.00879067 0)
(0.0504414 -0.00870319 1.05721e-21)
(0.0507022 -0.00861896 -3.16682e-24)
(0.0509664 -0.00853875 1.03166e-21)
(0.0512342 -0.00846354 5.12456e-22)
(0.0515055 -0.00839466 1.03912e-21)
(0.0517801 -0.00833388 -1.02318e-21)
(0.0520576 -0.00828355 -1.04199e-21)
(0.052338 -0.00824689 0)
(0.0526211 -0.00822812 1.1349e-21)
(0.0529066 -0.00823286 1.33841e-23)
(0.0531929 -0.00826777 0)
(0.0534818 -0.00834284 0)
(0.0537792 -0.00847044 -1.33563e-21)
(0.0540968 -0.00866508 0)
(0.0544431 -0.00894583 0)
(0.0548326 -0.0093128 1.67827e-21)
(0.0551619 -0.00978946 1.60078e-21)
(0.0553942 -0.0102388 2.21989e-21)
(0.0544028 -0.0107258 0)
(0.0371465 -0.011638 0)
(0.0374356 -0.0117143 0)
(0.037729 -0.0117825 0)
(0.0380225 -0.0118415 1.88605e-21)
(0.0383166 -0.0118926 1.8148e-21)
(0.0386119 -0.0119367 -5.88327e-23)
(0.0389082 -0.0119738 -3.54306e-21)
(0.0392055 -0.0120038 1.71323e-21)
(0.0395034 -0.0120266 -1.68063e-21)
(0.0398018 -0.0120423 -3.27967e-21)
(0.0401003 -0.012051 0)
(0.0403989 -0.0120526 0)
(0.0406972 -0.0120474 -2.81364e-23)
(0.0409949 -0.0120355 -4.51722e-21)
(0.0412919 -0.0120169 5.8194e-21)
(0.0415877 -0.0119918 -5.76833e-23)
(0.0418821 -0.0119603 -2.82272e-21)
(0.0421749 -0.0119227 -1.36752e-21)
(0.0424657 -0.0118791 -6.1058e-24)
(0.0427543 -0.0118297 0)
(0.0430405 -0.0117748 -2.55166e-21)
(0.0433242 -0.0117145 0)
(0.0436051 -0.0116493 -2.44173e-21)
(0.0438831 -0.0115793 3.56366e-21)
(0.0441582 -0.0115048 -3.53147e-21)
(0.0444302 -0.0114262 -1.13975e-21)
(0.0446991 -0.0113437 1.66743e-21)
(0.044965 -0.0112576 -1.64732e-21)
(0.0452278 -0.0111684 1.09108e-21)
(0.0454876 -0.0110763 0)
(0.0457442 -0.0109817 1.02283e-21)
(0.0459984 -0.0108838 4.70333e-22)
(0.0462502 -0.0107838 -9.67998e-22)
(0.0464995 -0.0106821 9.19038e-22)
(0.0467465 -0.0105791 -4.37295e-22)
(0.0469916 -0.010475 4.30541e-22)
(0.0472351 -0.0103703 2.06101e-22)
(0.0474775 -0.010265 -1.95632e-22)
(0.0477189 -0.0101596 -9.36281e-23)
(0.0479599 -0.0100541 2.7708e-22)
(0.0482007 -0.00994883 2.18672e-23)
(0.0484418 -0.00984402 0)
(0.0486836 -0.00973983 -8.27308e-23)
(0.0489263 -0.00963647 1.59998e-22)
(0.0491705 -0.00953409 -1.54931e-22)
(0.0494164 -0.00943288 0)
(0.0496644 -0.009333 0)
(0.0499149 -0.00923466 -2.78399e-22)
(0.0501681 -0.00913806 5.54911e-22)
(0.0504242 -0.00904348 1.07674e-21)
(0.0506834 -0.00895124 -2.12616e-21)
(0.0509458 -0.00886177 5.23876e-22)
(0.0512113 -0.00877566 -5.18751e-22)
(0.0514798 -0.00869368 -5.19733e-22)
(0.051751 -0.0086169 1.05337e-21)
(0.0520242 -0.00854682 -1.0372e-21)
(0.0522987 -0.00848547 0)
(0.0525732 -0.00843574 1.09456e-21)
(0.0528466 -0.00840143 3.57848e-23)
(0.053116 -0.00838826 -1.14759e-21)
(0.0533789 -0.00840411 0)
(0.0536384 -0.00845933 0)
(0.0539003 -0.00856836 0)
(0.0541766 -0.00874569 -3.37097e-21)
(0.0544653 -0.00900974 -2.02711e-21)
(0.0547507 -0.00935183 -2.08174e-21)
(0.0548432 -0.00978805 4.15492e-21)
(0.0545629 -0.0101221 2.84246e-22)
(0.0521278 -0.0104514 -2.91752e-21)
(0.0370249 -0.0122105 0)
(0.0373307 -0.0122865 4.0303e-21)
(0.0376413 -0.0123538 -4.99666e-21)
(0.0379518 -0.0124111 2.88417e-21)
(0.0382628 -0.0124601 -5.71406e-21)
(0.0385748 -0.0125015 -1.85235e-21)
(0.0388875 -0.0125353 -1.80811e-21)
(0.0392006 -0.0125615 0)
(0.0395139 -0.0125799 3.44052e-21)
(0.0398269 -0.0125906 3.32632e-21)
(0.0401395 -0.0125937 -3.31191e-21)
(0.0404515 -0.0125893 1.6001e-21)
(0.0407625 -0.0125774 -1.53161e-21)
(0.0410724 -0.0125583 1.58914e-21)
(0.0413809 -0.0125321 5.95527e-21)
(0.0416877 -0.012499 -6.10662e-23)
(0.0419925 -0.0124591 -6.0506e-23)
(0.0422952 -0.0124128 -2.80456e-21)
(0.0425954 -0.0123602 -1.3585e-21)
(0.042893 -0.0123016 -2.61801e-21)
(0.0431877 -0.0122373 2.62596e-21)
(0.0434794 -0.0121675 0)
(0.0437678 -0.0120926 1.17185e-23)
(0.0440529 -0.012013 0)
(0.0443346 -0.0119289 1.18703e-21)
(0.0446128 -0.0118406 1.16173e-21)
(0.0448875 -0.0117486 -5.68684e-22)
(0.0451587 -0.0116532 0)
(0.0454264 -0.0115548 -5.38434e-22)
(0.0456907 -0.0114537 -1.05036e-21)
(0.0459517 -0.0113499 1.04619e-21)
(0.0462098 -0.0112436 -4.99645e-22)
(0.046465 -0.0111354 9.42655e-22)
(0.0467175 -0.0110259 -1.84293e-21)
(0.0469676 -0.0109155 4.46187e-22)
(0.0472155 -0.0108044 0)
(0.0474617 -0.0106929 2.02227e-22)
(0.0477066 -0.0105813 3.34597e-24)
(0.0479505 -0.0104698 -2.82344e-22)
(0.0481939 -0.0103587 2.29309e-22)
(0.048437 -0.010248 -4.47841e-23)
(0.0486804 -0.0101381 1.2583e-22)
(0.0489243 -0.0100291 -8.26724e-23)
(0.0491693 -0.00992112 0)
(0.0494156 -0.00981428 0)
(0.0496638 -0.00970872 0)
(0.0499141 -0.00960453 -2.86263e-22)
(0.0501669 -0.00950183 -2.78908e-22)
(0.0504226 -0.00940074 0)
(0.0506812 -0.00930138 -5.38908e-22)
(0.0509431 -0.00920395 -5.2211e-22)
(0.0512081 -0.00910866 -5.189e-22)
(0.0514762 -0.00901586 0)
(0.0517471 -0.00892603 0)
(0.0520201 -0.00883988 1.05906e-21)
(0.0522944 -0.00875844 -1.04311e-21)
(0.0525683 -0.00868322 0)
(0.0528396 -0.00861637 -1.11149e-21)
(0.0531054 -0.00856116 1.15217e-21)
(0.0533616 -0.00852306 1.20992e-21)
(0.0536063 -0.00851085 -1.37058e-21)
(0.053844 -0.00853502 1.36282e-21)
(0.0540816 -0.00861077 0)
(0.054324 -0.00875062 1.70205e-21)
(0.0545393 -0.00896834 -1.80883e-22)
(0.0546452 -0.00924092 4.32189e-21)
(0.0543161 -0.00957557 5.25443e-21)
(0.0530265 -0.0096774 -5.64432e-21)
(0.0483393 -0.00977046 3.16075e-21)
(0.0369022 -0.0128194 1.06798e-21)
(0.0372253 -0.0128945 0)
(0.0375534 -0.0129602 1.01892e-21)
(0.0378814 -0.0130154 -4.94924e-21)
(0.0382098 -0.0130615 8.75082e-21)
(0.0385392 -0.0130995 -1.93665e-21)
(0.0388693 -0.0131294 1.84928e-21)
(0.0391995 -0.013151 -3.57858e-21)
(0.0395294 -0.0131643 1.79719e-21)
(0.0398588 -0.0131693 1.7174e-21)
(0.0401872 -0.0131662 1.67338e-21)
(0.0405143 -0.0131549 -4.86824e-21)
(0.0408399 -0.0131358 1.62966e-21)
(0.0411637 -0.0131088 -4.62351e-21)
(0.0414855 -0.0130743 -1.45257e-21)
(0.0418049 -0.0130324 6.46114e-23)
(0.0421216 -0.0129834 2.91463e-21)
(0.0424355 -0.0129275 0)
(0.0427463 -0.0128651 0)
(0.0430538 -0.0127964 1.33155e-21)
(0.0433577 -0.0127218 1.3125e-21)
(0.043658 -0.0126416 2.52179e-21)
(0.0439544 -0.0125562 -1.2691e-21)
(0.044247 -0.0124659 -2.40504e-21)
(0.0445355 -0.0123712 2.40714e-21)
(0.0448199 -0.0122724 -5.76654e-22)
(0.0451003 -0.01217 -5.63709e-22)
(0.0453767 -0.0120644 0)
(0.0456491 -0.0119559 5.4814e-22)
(0.0459174 -0.0118451 1.05274e-21)
(0.0461825 -0.0117314 -2.5639e-23)
(0.0464441 -0.0116157 -9.99561e-22)
(0.0467024 -0.0114986 4.69491e-22)
(0.0469577 -0.0113807 0)
(0.0472103 -0.0112622 -2.16795e-22)
(0.0474605 -0.0111434 2.0843e-22)
(0.0477088 -0.0110247 -2.04428e-22)
(0.0479556 -0.0109063 3.89523e-22)
(0.0482014 -0.0107883 0)
(0.0484465 -0.0106711 4.46575e-23)
(0.0486913 -0.0105548 -4.34982e-23)
(0.0489363 -0.0104395 6.15043e-23)
(0.049182 -0.0103254 -2.4273e-22)
(0.0494288 -0.0102126 4.69622e-22)
(0.0496772 -0.0101011 -3.0679e-22)
(0.0499275 -0.0099911 -2.92921e-22)
(0.0501802 -0.00988251 2.956e-22)
(0.0504357 -0.00977539 -5.49736e-22)
(0.0506944 -0.00966971 5.48899e-22)
(0.0509564 -0.00956547 1.33985e-21)
(0.051222 -0.00946265 4.878e-24)
(0.0514912 -0.00936122 5.26224e-22)
(0.0517638 -0.00926123 0)
(0.0520393 -0.00916276 0)
(0.0523171 -0.00906603 1.05419e-21)
(0.0525955 -0.00897142 -1.59462e-21)
(0.0528722 -0.00887962 1.05719e-21)
(0.0531439 -0.00879181 0)
(0.0534065 -0.00871035 -1.14107e-21)
(0.0536569 -0.00864071 -2.5193e-21)
(0.0538958 -0.00859142 1.36274e-21)
(0.0541308 -0.00857269 1.54496e-22)
(0.0543647 -0.00859654 -1.54109e-21)
(0.0545743 -0.00866836 -1.26483e-22)
(0.0546612 -0.00879112 4.1883e-21)
(0.0544195 -0.00892746 -4.61443e-21)
(0.0532716 -0.00905773 -2.80529e-21)
(0.050066 -0.00881462 0)
(0.0420565 -0.00871377 0)
(0.0367815 -0.0134691 -1.09319e-21)
(0.0371226 -0.0135427 -5.35872e-21)
(0.037469 -0.0136062 4.24437e-21)
(0.0378152 -0.0136584 0)
(0.0381618 -0.0137009 9.96816e-22)
(0.0385092 -0.0137347 3.85593e-21)
(0.0388571 -0.0137597 -2.88159e-21)
(0.039205 -0.0137758 4.58133e-21)
(0.0395525 -0.0137831 -3.63568e-21)
(0.039899 -0.0137815 0)
(0.0402441 -0.0137712 -8.56957e-22)
(0.0405876 -0.0137521 0)
(0.040929 -0.0137246 -1.58081e-21)
(0.041268 -0.0136889 4.77021e-21)
(0.0416043 -0.013645 0)
(0.0419375 -0.0135934 0)
(0.0422674 -0.0135342 0)
(0.0425937 -0.0134677 2.10197e-21)
(0.0429161 -0.0133944 -2.80178e-21)
(0.0432345 -0.0133146 -1.35649e-21)
(0.0435485 -0.0132286 0)
(0.0438581 -0.0131368 0)
(0.0441631 -0.0130398 0)
(0.0444635 -0.0129379 3.01873e-21)
(0.0447591 -0.0128315 -3.59242e-21)
(0.04505 -0.0127212 1.76578e-21)
(0.0453362 -0.0126074 1.13664e-21)
(0.0456177 -0.0124904 -1.09791e-21)
(0.0458947 -0.0123709 1.10125e-21)
(0.046167 -0.0122492 -5.2454e-22)