/*--------------------------------*- C++ -*----------------------------------*\
| =========                 |                                                 |
| \\      /  F ield         | OpenFOAM: The Open Source CFD Toolbox           |
|  \\    /   O peration     | Version:  2312                                  |
|   \\  /    A nd           | Website:  www.openfoam.com                      |
|    \\/     M anipulation  |                                                 |
\*---------------------------------------------------------------------------*/
FoamFile
{
    version     2.0;
    format      ascii;
    arch        "LSB;label=32;scalar=64";
    class       volScalarField;
    location    "300";
    object      nut;
}
// * * * * * * * * * * * * * * * * * * * * * * * * * * * * * * * * * * * * * //

dimensions      [0 2 -1 0 0 0 0];

internalField   nonuniform List<scalar> 
76025
(
6.00124e-06
6.00015e-06
6.00021e-06
6.00174e-06
6.00394e-06
6.0083e-06
6.01326e-06
6.01768e-06
6.02085e-06
6.02256e-06
6.02248e-06
6.02007e-06
6.01651e-06
6.01193e-06
6.00779e-06
6.00393e-06
6.00098e-06
5.9975e-06
5.99428e-06
5.99146e-06
5.98944e-06
5.98827e-06
5.98739e-06
5.9872e-06
5.98782e-06
5.98831e-06
5.98998e-06
5.99188e-06
5.99362e-06
5.99786e-06
6.00221e-06
6.00386e-06
6.00962e-06
6.01098e-06
6.01134e-06
6.01078e-06
6.00909e-06
6.0128e-06
6.01533e-06
6.01791e-06
6.01953e-06
6.02092e-06
6.02343e-06
6.02398e-06
6.02356e-06
6.02147e-06
6.01921e-06
6.01484e-06
6.00829e-06
5.9995e-06
5.98866e-06
5.97618e-06
5.96138e-06
5.9446e-06
5.92618e-06
5.90459e-06
5.88148e-06
5.86088e-06
5.84306e-06
5.82945e-06
5.81974e-06
5.81372e-06
5.81101e-06
5.81216e-06
5.81173e-06
5.81698e-06
5.82207e-06
5.81541e-06
5.80308e-06
5.98888e-06
5.98987e-06
5.98997e-06
5.98984e-06
5.98999e-06
5.9906e-06
5.9924e-06
5.99517e-06
5.99845e-06
6.00163e-06
6.00428e-06
6.00588e-06
6.00615e-06
6.00508e-06
6.00277e-06
5.99977e-06
5.99635e-06
5.99294e-06
5.98939e-06
5.98584e-06
5.98234e-06
5.97909e-06
5.97618e-06
5.97355e-06
5.97126e-06
5.96936e-06
5.96769e-06
5.96645e-06
5.9653e-06
5.96478e-06
5.96463e-06
5.96463e-06
5.965e-06
5.96538e-06
5.9653e-06
5.96472e-06
5.96338e-06
5.96174e-06
5.95981e-06
5.9575e-06
5.95461e-06
5.95109e-06
5.947e-06
5.94226e-06
5.9368e-06
5.93054e-06
5.92346e-06
5.91552e-06
5.90668e-06
5.89703e-06
5.88657e-06
5.87531e-06
5.86325e-06
5.85073e-06
5.83753e-06
5.82773e-06
5.82129e-06
5.81736e-06
5.81548e-06
5.81532e-06
5.81633e-06
5.81778e-06
5.81895e-06
5.81906e-06
5.8175e-06
5.81321e-06
5.80565e-06
5.79375e-06
5.78099e-06
5.96918e-06
5.97235e-06
5.97464e-06
5.976e-06
5.97668e-06
5.97686e-06
5.97701e-06
5.97754e-06
5.97872e-06
5.98049e-06
5.98267e-06
5.98493e-06
5.98686e-06
5.98816e-06
5.98857e-06
5.98803e-06
5.98661e-06
5.98451e-06
5.9819e-06
5.9789e-06
5.9756e-06
5.97211e-06
5.96855e-06
5.965e-06
5.96148e-06
5.95807e-06
5.95476e-06
5.95159e-06
5.94854e-06
5.9456e-06
5.94279e-06
5.94017e-06
5.93763e-06
5.93519e-06
5.93278e-06
5.93027e-06
5.92755e-06
5.9245e-06
5.9211e-06
5.91731e-06
5.91312e-06
5.90852e-06
5.90349e-06
5.89801e-06
5.89207e-06
5.88565e-06
5.87875e-06
5.87136e-06
5.86342e-06
5.85486e-06
5.84571e-06
5.83599e-06
5.82617e-06
5.81728e-06
5.80947e-06
5.80539e-06
5.80452e-06
5.805e-06
5.80587e-06
5.8065e-06
5.80635e-06
5.80488e-06
5.80159e-06
5.79598e-06
5.78759e-06
5.77599e-06
5.76114e-06
5.74214e-06
5.72023e-06
5.94773e-06
5.95059e-06
5.95358e-06
5.95632e-06
5.95854e-06
5.96011e-06
5.96103e-06
5.9615e-06
5.96179e-06
5.9622e-06
5.96291e-06
5.96396e-06
5.96526e-06
5.96662e-06
5.96784e-06
5.96867e-06
5.96898e-06
5.96866e-06
5.96772e-06
5.9662e-06
5.96415e-06
5.96164e-06
5.95876e-06
5.95557e-06
5.95215e-06
5.94856e-06
5.94486e-06
5.94107e-06
5.93723e-06
5.93335e-06
5.92943e-06
5.9255e-06
5.92155e-06
5.91758e-06
5.91358e-06
5.90953e-06
5.9054e-06
5.90112e-06
5.89666e-06
5.89198e-06
5.88703e-06
5.88182e-06
5.87631e-06
5.8705e-06
5.86436e-06
5.85788e-06
5.85103e-06
5.84371e-06
5.83577e-06
5.82732e-06
5.81905e-06
5.81107e-06
5.80481e-06
5.80206e-06
5.80091e-06
5.80021e-06
5.79939e-06
5.79801e-06
5.79569e-06
5.79206e-06
5.78674e-06
5.77938e-06
5.76963e-06
5.75721e-06
5.74189e-06
5.72347e-06
5.70213e-06
5.67701e-06
5.6497e-06
5.93031e-06
5.93078e-06
5.93209e-06
5.934e-06
5.93621e-06
5.93843e-06
5.94037e-06
5.94188e-06
5.9429e-06
5.94352e-06
5.94389e-06
5.9442e-06
5.94456e-06
5.94505e-06
5.94563e-06
5.94623e-06
5.94675e-06
5.94705e-06
5.94703e-06
5.94662e-06
5.94577e-06
5.94448e-06
5.94274e-06
5.94058e-06
5.93803e-06
5.93513e-06
5.93193e-06
5.92847e-06
5.92478e-06
5.92089e-06
5.91683e-06
5.91261e-06
5.90825e-06
5.90375e-06
5.89913e-06
5.89438e-06
5.88949e-06
5.88445e-06
5.87925e-06
5.87386e-06
5.86826e-06
5.86243e-06
5.85636e-06
5.85004e-06
5.84346e-06
5.83648e-06
5.82904e-06
5.82116e-06
5.81277e-06
5.80488e-06
5.79966e-06
5.79631e-06
5.7936e-06
5.79092e-06
5.78791e-06
5.78425e-06
5.77966e-06
5.77386e-06
5.76658e-06
5.75755e-06
5.74652e-06
5.73327e-06
5.71762e-06
5.69942e-06
5.67861e-06
5.65509e-06
5.62923e-06
5.59992e-06
5.56997e-06
5.91767e-06
5.9158e-06
5.91464e-06
5.91426e-06
5.91463e-06
5.91559e-06
5.91694e-06
5.91845e-06
5.91989e-06
5.9211e-06
5.92199e-06
5.92258e-06
5.92292e-06
5.92309e-06
5.92317e-06
5.92321e-06
5.92322e-06
5.92317e-06
5.92304e-06
5.92274e-06
5.92224e-06
5.92147e-06
5.9204e-06
5.91899e-06
5.91723e-06
5.91511e-06
5.91265e-06
5.90984e-06
5.90672e-06
5.90329e-06
5.89958e-06
5.8956e-06
5.89137e-06
5.88691e-06
5.8822e-06
5.87728e-06
5.87213e-06
5.86675e-06
5.86113e-06
5.85527e-06
5.84915e-06
5.84275e-06
5.8361e-06
5.8292e-06
5.82195e-06
5.81402e-06
5.80535e-06
5.79677e-06
5.78965e-06
5.78397e-06
5.77895e-06
5.77403e-06
5.76884e-06
5.76308e-06
5.75651e-06
5.74889e-06
5.74001e-06
5.72967e-06
5.71767e-06
5.70386e-06
5.68807e-06
5.67019e-06
5.65011e-06
5.6278e-06
5.60326e-06
5.57644e-06
5.54776e-06
5.51603e-06
5.48352e-06
5.90638e-06
5.90358e-06
5.90096e-06
5.89869e-06
5.89693e-06
5.89577e-06
5.89521e-06
5.89519e-06
5.89558e-06
5.89621e-06
5.89693e-06
5.89759e-06
5.89809e-06
5.8984e-06
5.89851e-06
5.89843e-06
5.89819e-06
5.89782e-06
5.89733e-06
5.89672e-06
5.89597e-06
5.89506e-06
5.89396e-06
5.89265e-06
5.8911e-06
5.88927e-06
5.88716e-06
5.88474e-06
5.88201e-06
5.87896e-06
5.87559e-06
5.87191e-06
5.86791e-06
5.8636e-06
5.85898e-06
5.85405e-06
5.84881e-06
5.84326e-06
5.83738e-06
5.83117e-06
5.8246e-06
5.81771e-06
5.81048e-06
5.80288e-06
5.79477e-06
5.78598e-06
5.77656e-06
5.76692e-06
5.7578e-06
5.74956e-06
5.74172e-06
5.73379e-06
5.72541e-06
5.71632e-06
5.70627e-06
5.69504e-06
5.68248e-06
5.66844e-06
5.65279e-06
5.63541e-06
5.6162e-06
5.59511e-06
5.5721e-06
5.54717e-06
5.52035e-06
5.49154e-06
5.46115e-06
5.42758e-06
5.39315e-06
5.89243e-06
5.88999e-06
5.8873e-06
5.8845e-06
5.88173e-06
5.87913e-06
5.87685e-06
5.87497e-06
5.87353e-06
5.87253e-06
5.87189e-06
5.87153e-06
5.87133e-06
5.8712e-06
5.87104e-06
5.87078e-06
5.8704e-06
5.86987e-06
5.86917e-06
5.86831e-06
5.86728e-06
5.86608e-06
5.86471e-06
5.86314e-06
5.86138e-06
5.85939e-06
5.85716e-06
5.85468e-06
5.85193e-06
5.84888e-06
5.84553e-06
5.84187e-06
5.83787e-06
5.83354e-06
5.82886e-06
5.82382e-06
5.81841e-06
5.81262e-06
5.80644e-06
5.79984e-06
5.79282e-06
5.78536e-06
5.77747e-06
5.76913e-06
5.76031e-06
5.75092e-06
5.74081e-06
5.72989e-06
5.71818e-06
5.70593e-06
5.69344e-06
5.68104e-06
5.66879e-06
5.65624e-06
5.6429e-06
5.62849e-06
5.61286e-06
5.59594e-06
5.57758e-06
5.55767e-06
5.53611e-06
5.5129e-06
5.48802e-06
5.46144e-06
5.43312e-06
5.40283e-06
5.37084e-06
5.33487e-06
5.29889e-06
5.87347e-06
5.87186e-06
5.8699e-06
5.86759e-06
5.86501e-06
5.86224e-06
5.85938e-06
5.85654e-06
5.85383e-06
5.85133e-06
5.8491e-06
5.84717e-06
5.84552e-06
5.84411e-06
5.84288e-06
5.84176e-06
5.84068e-06
5.83959e-06
5.83843e-06
5.83717e-06
5.83578e-06
5.83424e-06
5.83251e-06
5.8306e-06
5.82849e-06
5.82616e-06
5.82359e-06
5.82079e-06
5.81772e-06
5.81437e-06
5.81073e-06
5.80677e-06
5.80249e-06
5.79786e-06
5.79287e-06
5.78749e-06
5.78171e-06
5.77551e-06
5.76887e-06
5.76176e-06
5.75417e-06
5.74609e-06
5.7375e-06
5.72836e-06
5.71864e-06
5.7083e-06
5.69731e-06
5.68562e-06
5.67313e-06
5.65974e-06
5.64534e-06
5.62989e-06
5.61339e-06
5.5959e-06
5.57758e-06
5.55853e-06
5.53896e-06
5.51888e-06
5.49788e-06
5.47564e-06
5.45208e-06
5.42714e-06
5.40073e-06
5.37264e-06
5.34261e-06
5.3102e-06
5.27528e-06
5.23567e-06
5.19496e-06
5.84887e-06
5.84796e-06
5.84675e-06
5.84522e-06
5.84337e-06
5.84119e-06
5.83871e-06
5.83599e-06
5.83308e-06
5.83008e-06
5.82704e-06
5.82406e-06
5.82118e-06
5.81844e-06
5.81586e-06
5.81343e-06
5.81113e-06
5.80892e-06
5.80676e-06
5.80461e-06
5.80244e-06
5.80019e-06
5.79783e-06
5.79533e-06
5.79267e-06
5.78982e-06
5.78675e-06
5.78344e-06
5.77988e-06
5.77604e-06
5.77191e-06
5.76746e-06
5.76268e-06
5.75754e-06
5.75203e-06
5.74611e-06
5.73977e-06
5.73298e-06
5.72571e-06
5.71793e-06
5.70964e-06
5.70081e-06
5.69141e-06
5.68141e-06
5.67077e-06
5.65945e-06
5.64739e-06
5.63456e-06
5.62089e-06
5.60635e-06
5.59086e-06
5.57436e-06
5.55674e-06
5.53788e-06
5.51764e-06
5.49592e-06
5.47262e-06
5.44768e-06
5.42133e-06
5.39418e-06
5.36709e-06
5.33948e-06
5.31062e-06
5.27984e-06
5.24653e-06
5.20994e-06
5.16972e-06
5.12364e-06
5.07389e-06
5.81882e-06
5.81827e-06
5.8175e-06
5.8165e-06
5.81526e-06
5.81373e-06
5.81192e-06
5.8098e-06
5.80738e-06
5.80469e-06
5.80177e-06
5.79865e-06
5.79539e-06
5.79204e-06
5.78865e-06
5.78525e-06
5.78187e-06
5.77853e-06
5.77522e-06
5.77193e-06
5.76865e-06
5.76534e-06
5.76198e-06
5.75855e-06
5.755e-06
5.75131e-06
5.74745e-06
5.74339e-06
5.73909e-06
5.73455e-06
5.72971e-06
5.72458e-06
5.7191e-06
5.71327e-06
5.70705e-06
5.70041e-06
5.69334e-06
5.68579e-06
5.67774e-06
5.66916e-06
5.66002e-06
5.65032e-06
5.64001e-06
5.62905e-06
5.61739e-06
5.605e-06
5.59183e-06
5.57781e-06
5.5629e-06
5.54703e-06
5.53013e-06
5.51213e-06
5.49296e-06
5.47252e-06
5.45071e-06
5.42744e-06
5.40254e-06
5.37571e-06
5.34646e-06
5.31457e-06
5.28104e-06
5.24781e-06
5.214e-06
5.178e-06
5.13873e-06
5.09505e-06
5.0468e-06
4.98987e-06
4.9276e-06
5.78356e-06
5.78302e-06
5.78235e-06
5.78152e-06
5.78053e-06
5.77935e-06
5.77795e-06
5.77632e-06
5.77442e-06
5.77226e-06
5.76981e-06
5.76708e-06
5.76409e-06
5.76086e-06
5.75741e-06
5.75377e-06
5.74997e-06
5.74604e-06
5.74201e-06
5.73789e-06
5.73369e-06
5.72941e-06
5.72505e-06
5.72059e-06
5.71601e-06
5.71131e-06
5.70644e-06
5.7014e-06
5.69614e-06
5.69065e-06
5.6849e-06
5.67884e-06
5.67246e-06
5.66573e-06
5.65861e-06
5.65107e-06
5.64307e-06
5.6346e-06
5.62559e-06
5.61604e-06
5.60591e-06
5.59519e-06
5.58381e-06
5.57174e-06
5.55894e-06
5.54533e-06
5.53089e-06
5.51553e-06
5.49919e-06
5.4818e-06
5.46327e-06
5.44352e-06
5.42244e-06
5.3999e-06
5.37578e-06
5.34991e-06
5.32217e-06
5.29245e-06
5.26037e-06
5.22515e-06
5.1864e-06
5.14528e-06
5.10339e-06
5.0592e-06
5.01116e-06
4.95757e-06
4.89862e-06
4.82613e-06
4.74972e-06
5.74306e-06
5.74229e-06
5.74143e-06
5.74046e-06
5.73937e-06
5.73817e-06
5.73681e-06
5.7353e-06
5.7336e-06
5.73169e-06
5.72956e-06
5.72718e-06
5.72455e-06
5.72164e-06
5.71847e-06
5.71502e-06
5.71132e-06
5.70737e-06
5.70318e-06
5.69877e-06
5.69416e-06
5.68935e-06
5.68435e-06
5.67916e-06
5.67379e-06
5.66822e-06
5.66245e-06
5.65645e-06
5.65022e-06
5.64374e-06
5.63697e-06
5.62989e-06
5.62248e-06
5.61469e-06
5.60651e-06
5.5979e-06
5.58882e-06
5.57923e-06
5.56909e-06
5.55837e-06
5.54706e-06
5.53509e-06
5.52243e-06
5.50901e-06
5.49479e-06
5.4797e-06
5.46367e-06
5.44662e-06
5.42847e-06
5.40913e-06
5.38849e-06
5.36643e-06
5.34282e-06
5.31752e-06
5.29035e-06
5.2611e-06
5.22954e-06
5.19545e-06
5.15867e-06
5.11874e-06
5.07486e-06
5.02644e-06
4.97389e-06
4.91781e-06
4.85791e-06
4.79159e-06
4.7193e-06
4.63069e-06
4.54418e-06
5.697e-06
5.69578e-06
5.69449e-06
5.69313e-06
5.69169e-06
5.69017e-06
5.68854e-06
5.68679e-06
5.68491e-06
5.68288e-06
5.68069e-06
5.67831e-06
5.67573e-06
5.67292e-06
5.66987e-06
5.66657e-06
5.66299e-06
5.65914e-06
5.65501e-06
5.6506e-06
5.6459e-06
5.64092e-06
5.63565e-06
5.6301e-06
5.62427e-06
5.61816e-06
5.61175e-06
5.60505e-06
5.59804e-06
5.5907e-06
5.58302e-06
5.57497e-06
5.56653e-06
5.55768e-06
5.54839e-06
5.53861e-06
5.52832e-06
5.51746e-06
5.50601e-06
5.49393e-06
5.48118e-06
5.4677e-06
5.45344e-06
5.43834e-06
5.42231e-06
5.4053e-06
5.38721e-06
5.36794e-06
5.3474e-06
5.32547e-06
5.30201e-06
5.27688e-06
5.24991e-06
5.22092e-06
5.18969e-06
5.156e-06
5.11956e-06
5.08004e-06
5.03711e-06
4.99047e-06
4.93963e-06
4.88383e-06
4.82225e-06
4.75435e-06
4.67965e-06
4.59646e-06
4.50649e-06
4.40744e-06
4.30326e-06
5.64447e-06
5.64264e-06
5.64076e-06
5.63883e-06
5.63684e-06
5.63478e-06
5.63263e-06
5.63039e-06
5.62805e-06
5.62558e-06
5.62299e-06
5.62024e-06
5.61733e-06
5.61424e-06
5.61095e-06
5.60744e-06
5.60369e-06
5.59969e-06
5.59542e-06
5.59087e-06
5.58601e-06
5.58085e-06
5.57536e-06
5.56954e-06
5.56337e-06
5.55685e-06
5.54996e-06
5.54269e-06
5.53504e-06
5.52698e-06
5.51849e-06
5.50955e-06
5.50014e-06
5.49024e-06
5.4798e-06
5.4688e-06
5.45719e-06
5.44493e-06
5.43198e-06
5.4183e-06
5.40384e-06
5.38854e-06
5.37232e-06
5.35511e-06
5.33683e-06
5.31738e-06
5.29667e-06
5.27457e-06
5.25096e-06
5.2257e-06
5.19863e-06
5.16956e-06
5.13831e-06
5.10465e-06
5.06831e-06
5.02902e-06
4.98645e-06
4.94021e-06
4.88988e-06
4.83497e-06
4.77496e-06
4.70924e-06
4.63707e-06
4.55754e-06
4.46912e-06
4.36911e-06
4.26202e-06
4.14612e-06
4.02219e-06
5.58364e-06
5.58115e-06
5.5786e-06
5.57599e-06
5.57333e-06
5.57059e-06
5.56777e-06
5.56486e-06
5.56186e-06
5.55873e-06
5.55549e-06
5.55211e-06
5.54857e-06
5.54488e-06
5.541e-06
5.53692e-06
5.53263e-06
5.52811e-06
5.52333e-06
5.51828e-06
5.51294e-06
5.50729e-06
5.50131e-06
5.49498e-06
5.48827e-06
5.48118e-06
5.47367e-06
5.46573e-06
5.45734e-06
5.44846e-06
5.43908e-06
5.42917e-06
5.4187e-06
5.40763e-06
5.39592e-06
5.38354e-06
5.37044e-06
5.35657e-06
5.34187e-06
5.32631e-06
5.30982e-06
5.29233e-06
5.27374e-06
5.25398e-06
5.23294e-06
5.21051e-06
5.18658e-06
5.16099e-06
5.13361e-06
5.10425e-06
5.07273e-06
5.03883e-06
5.00232e-06
4.96292e-06
4.92032e-06
4.87416e-06
4.82405e-06
4.76953e-06
4.7101e-06
4.64517e-06
4.57404e-06
4.49588e-06
4.40974e-06
4.31421e-06
4.20705e-06
4.08784e-06
3.96172e-06
3.81625e-06
3.64438e-06
5.51128e-06
5.50818e-06
5.50499e-06
5.50172e-06
5.49836e-06
5.4949e-06
5.49135e-06
5.48768e-06
5.48391e-06
5.48e-06
5.47596e-06
5.47178e-06
5.46743e-06
5.46291e-06
5.4582e-06
5.45329e-06
5.44817e-06
5.4428e-06
5.43719e-06
5.4313e-06
5.42511e-06
5.4186e-06
5.41176e-06
5.40454e-06
5.39694e-06
5.38891e-06
5.38044e-06
5.3715e-06
5.36204e-06
5.35205e-06
5.34148e-06
5.3303e-06
5.31847e-06
5.30594e-06
5.29266e-06
5.27859e-06
5.26366e-06
5.24782e-06
5.23101e-06
5.21317e-06
5.19423e-06
5.17409e-06
5.15265e-06
5.1298e-06
5.10543e-06
5.07939e-06
5.05155e-06
5.02173e-06
4.98975e-06
4.9554e-06
4.91845e-06
4.87864e-06
4.83567e-06
4.78921e-06
4.73886e-06
4.68421e-06
4.62477e-06
4.55998e-06
4.48922e-06
4.41172e-06
4.32644e-06
4.23214e-06
4.12717e-06
4.00903e-06
3.87605e-06
3.73179e-06
3.56755e-06
3.3754e-06
3.15751e-06
5.42257e-06
5.41897e-06
5.41524e-06
5.41137e-06
5.40737e-06
5.40324e-06
5.39896e-06
5.39455e-06
5.38998e-06
5.38525e-06
5.38035e-06
5.37528e-06
5.37001e-06
5.36455e-06
5.35887e-06
5.35296e-06
5.34681e-06
5.34039e-06
5.3337e-06
5.3267e-06
5.31938e-06
5.31171e-06
5.30367e-06
5.29523e-06
5.28636e-06
5.27703e-06
5.26721e-06
5.25686e-06
5.24594e-06
5.23442e-06
5.22224e-06
5.20937e-06
5.19574e-06
5.18131e-06
5.16601e-06
5.14979e-06
5.13255e-06
5.11425e-06
5.09481e-06
5.07415e-06
5.05216e-06
5.02874e-06
5.00377e-06
4.97711e-06
4.94861e-06
4.91812e-06
4.88544e-06
4.85037e-06
4.81269e-06
4.77213e-06
4.7284e-06
4.68118e-06
4.6301e-06
4.57476e-06
4.51467e-06
4.44931e-06
4.37807e-06
4.30019e-06
4.21474e-06
4.12041e-06
4.01549e-06
3.89801e-06
3.76567e-06
3.61596e-06
3.44964e-06
3.26283e-06
3.05889e-06
2.84008e-06
2.61784e-06
5.31091e-06
5.30687e-06
5.30266e-06
5.29826e-06
5.29368e-06
5.28891e-06
5.28395e-06
5.27881e-06
5.27346e-06
5.2679e-06
5.26213e-06
5.25614e-06
5.24991e-06
5.24344e-06
5.2367e-06
5.22969e-06
5.22238e-06
5.21477e-06
5.20682e-06
5.19852e-06
5.18985e-06
5.18078e-06
5.17128e-06
5.16132e-06
5.15087e-06
5.1399e-06
5.12836e-06
5.11621e-06
5.10341e-06
5.08992e-06
5.07567e-06
5.06061e-06
5.04467e-06
5.0278e-06
5.00991e-06
4.99092e-06
4.97074e-06
4.94932e-06
4.92654e-06
4.90231e-06
4.87648e-06
4.84894e-06
4.81951e-06
4.78804e-06
4.75434e-06
4.71819e-06
4.67937e-06
4.63762e-06
4.59265e-06
4.54414e-06
4.49173e-06
4.43502e-06
4.37357e-06
4.30685e-06
4.23423e-06
4.15495e-06
4.06806e-06
3.97226e-06
3.86589e-06
3.74698e-06
3.61325e-06
3.4631e-06
3.29603e-06
3.11229e-06
2.91355e-06
2.70528e-06
2.49684e-06
2.28808e-06
2.09749e-06
5.16737e-06
5.16282e-06
5.15807e-06
5.1531e-06
5.14791e-06
5.14248e-06
5.13682e-06
5.13092e-06
5.12477e-06
5.11835e-06
5.11167e-06
5.10471e-06
5.09745e-06
5.08989e-06
5.08201e-06
5.07379e-06
5.06521e-06
5.05626e-06
5.04691e-06
5.03714e-06
5.02692e-06
5.01622e-06
5.00502e-06
4.99327e-06
4.98094e-06
4.96799e-06
4.95437e-06
4.94004e-06
4.92493e-06
4.909e-06
4.89218e-06
4.8744e-06
4.85558e-06
4.83564e-06
4.81448e-06
4.79201e-06
4.76813e-06
4.74274e-06
4.7157e-06
4.68688e-06
4.65612e-06
4.62324e-06
4.58805e-06
4.55034e-06
4.50988e-06
4.4664e-06
4.41961e-06
4.36918e-06
4.31477e-06
4.25597e-06
4.19234e-06
4.12337e-06
4.04842e-06
3.96666e-06
3.87701e-06
3.77814e-06
3.66851e-06
3.54619e-06
3.40948e-06
3.25728e-06
3.08864e-06
2.90753e-06
2.71613e-06
2.52181e-06
2.3245e-06
2.13234e-06
1.95534e-06
1.812e-06
1.7716e-06
4.97932e-06
4.97406e-06
4.96858e-06
4.96285e-06
4.95687e-06
4.95062e-06
4.94409e-06
4.93728e-06
4.93017e-06
4.92275e-06
4.915e-06
4.90691e-06
4.89847e-06
4.88965e-06
4.88045e-06
4.87083e-06
4.86079e-06
4.85028e-06
4.8393e-06
4.8278e-06
4.81576e-06
4.80314e-06
4.7899e-06
4.77601e-06
4.76142e-06
4.74608e-06
4.72993e-06
4.71292e-06
4.69497e-06
4.67603e-06
4.656e-06
4.63481e-06
4.61235e-06
4.58853e-06
4.56322e-06
4.53629e-06
4.50768e-06
4.47722e-06
4.44475e-06
4.41009e-06
4.37303e-06
4.33334e-06
4.29078e-06
4.24508e-06
4.19593e-06
4.14301e-06
4.08595e-06
4.02434e-06
3.95773e-06
3.88557e-06
3.8072e-06
3.72179e-06
3.6281e-06
3.52469e-06
3.40997e-06
3.28254e-06
3.14159e-06
2.98608e-06
2.8191e-06
2.64208e-06
2.45675e-06
2.27771e-06
2.09993e-06
1.92861e-06
1.7775e-06
1.66573e-06
1.62969e-06
1.72333e-06
2.14617e-06
4.72776e-06
4.72146e-06
4.71493e-06
4.70813e-06
4.70105e-06
4.69367e-06
4.68597e-06
4.67795e-06
4.66959e-06
4.66086e-06
4.65175e-06
4.64224e-06
4.63232e-06
4.62195e-06
4.61112e-06
4.5998e-06
4.58796e-06
4.57557e-06
4.5626e-06
4.54901e-06
4.53477e-06
4.51983e-06
4.50414e-06
4.48766e-06
4.47033e-06
4.45208e-06
4.43286e-06
4.41258e-06
4.39117e-06
4.36853e-06
4.34457e-06
4.31918e-06
4.29224e-06
4.26361e-06
4.23316e-06
4.20076e-06
4.16623e-06
4.12938e-06
4.09001e-06
4.04787e-06
4.00272e-06
3.95428e-06
3.90225e-06
3.84628e-06
3.786e-06
3.72097e-06
3.6507e-06
3.57455e-06
3.4918e-06
3.4015e-06
3.30251e-06
3.19362e-06
3.07314e-06
2.94029e-06
2.7946e-06
2.63965e-06
2.47695e-06
2.30695e-06
2.14503e-06
1.9845e-06
1.82987e-06
1.68993e-06
1.57471e-06
1.50495e-06
1.51259e-06
1.65508e-06
2.05709e-06
2.99987e-06
5.13234e-06
4.38247e-06
4.37473e-06
4.36675e-06
4.35847e-06
4.34987e-06
4.34093e-06
4.33164e-06
4.32198e-06
4.31192e-06
4.30144e-06
4.29052e-06
4.27915e-06
4.26728e-06
4.25489e-06
4.24196e-06
4.22845e-06
4.21432e-06
4.19955e-06
4.18407e-06
4.16786e-06
4.15086e-06
4.13302e-06
4.11429e-06
4.09459e-06
4.07386e-06
4.05202e-06
4.029e-06
4.00468e-06
3.97899e-06
3.95179e-06
3.92298e-06
3.8924e-06
3.85992e-06
3.82536e-06
3.78857e-06
3.74943e-06
3.70772e-06
3.66318e-06
3.61555e-06
3.56454e-06
3.5098e-06
3.45096e-06
3.38759e-06
3.3192e-06
3.24521e-06
3.16495e-06
3.07758e-06
2.98214e-06
2.8777e-06
2.76339e-06
2.6388e-06
2.50411e-06
2.36121e-06
2.21263e-06
2.05955e-06
1.91856e-06
1.78135e-06
1.6508e-06
1.53143e-06
1.43508e-06
1.37328e-06
1.36333e-06
1.43331e-06
1.6465e-06
2.11912e-06
3.0928e-06
5.09673e-06
9.25019e-06
1.73503e-05
3.89522e-06
3.8857e-06
3.87591e-06
3.86579e-06
3.85532e-06
3.84446e-06
3.8332e-06
3.82152e-06
3.80939e-06
3.79679e-06
3.78369e-06
3.77006e-06
3.75587e-06
3.74109e-06
3.72568e-06
3.7096e-06
3.69281e-06
3.67527e-06
3.65692e-06
3.63772e-06
3.61761e-06
3.59651e-06
3.57437e-06
3.55111e-06
3.52664e-06
3.50087e-06
3.47371e-06
3.44505e-06
3.41476e-06
3.38271e-06
3.34876e-06
3.31275e-06
3.2745e-06
3.23382e-06
3.19057e-06
3.14445e-06
3.09515e-06
3.04238e-06
2.98579e-06
2.92496e-06
2.85944e-06
2.78871e-06
2.71217e-06
2.62922e-06
2.53919e-06
2.4414e-06
2.33528e-06
2.22073e-06
2.09988e-06
1.97412e-06
1.84613e-06
1.72336e-06
1.60616e-06
1.49711e-06
1.39704e-06
1.31179e-06
1.24832e-06
1.21523e-06
1.21278e-06
1.28108e-06
1.44522e-06
1.76239e-06
2.34481e-06
3.41181e-06
5.39426e-06
9.06628e-06
1.56524e-05
2.66088e-05
4.23432e-05
3.19537e-06
3.18407e-06
3.17248e-06
3.16052e-06
3.14817e-06
3.13541e-06
3.1222e-06
3.10854e-06
3.09439e-06
3.07972e-06
3.06452e-06
3.04874e-06
3.03236e-06
3.01533e-06
2.99763e-06
2.97921e-06
2.96003e-06
2.94003e-06
2.91917e-06
2.89738e-06
2.87461e-06
2.85079e-06
2.82584e-06
2.79968e-06
2.77223e-06
2.74338e-06
2.71304e-06
2.68109e-06
2.6474e-06
2.61184e-06
2.57426e-06
2.53449e-06
2.49234e-06
2.44761e-06
2.39996e-06
2.34905e-06
2.29454e-06
2.23605e-06
2.17316e-06
2.10549e-06
2.03268e-06
1.95455e-06
1.87101e-06
1.78231e-06
1.68884e-06
1.59153e-06
1.49199e-06
1.39206e-06
1.30584e-06
1.22685e-06
1.15726e-06
1.10067e-06
1.06075e-06
1.03721e-06
1.03831e-06
1.08416e-06
1.1818e-06
1.35072e-06
1.62184e-06
2.05403e-06
2.7538e-06
3.90632e-06
5.82764e-06
9.01189e-06
1.40903e-05
2.1649e-05
3.20876e-05
4.53157e-05
5.94657e-05
2.22212e-06
2.2104e-06
2.19844e-06
2.18617e-06
2.17356e-06
2.16057e-06
2.1472e-06
2.13342e-06
2.11921e-06
2.10455e-06
2.08942e-06
2.07379e-06
2.05764e-06
2.04093e-06
2.02363e-06
2.00571e-06
1.98714e-06
1.96788e-06
1.94788e-06
1.92709e-06
1.90548e-06
1.88298e-06
1.85954e-06
1.83509e-06
1.80958e-06
1.78292e-06
1.75503e-06
1.72584e-06
1.69525e-06
1.66317e-06
1.62948e-06
1.59399e-06
1.55609e-06
1.51552e-06
1.47217e-06
1.42598e-06
1.37696e-06
1.32541e-06
1.27159e-06
1.21589e-06
1.15891e-06
1.10139e-06
1.04435e-06
9.89937e-07
9.40051e-07
8.97004e-07
8.62985e-07
8.40048e-07
8.30291e-07
8.36868e-07
8.70279e-07
9.31298e-07
1.0281e-06
1.16622e-06
1.35658e-06
1.61625e-06
1.97146e-06
2.46511e-06
3.17386e-06
4.22647e-06
5.80601e-06
8.18073e-06
1.16044e-05
1.59767e-05
2.1031e-05
2.66959e-05
3.33356e-05
4.24684e-05
5.30312e-05
1.07665e-06
1.06885e-06
1.06098e-06
1.05301e-06
1.04493e-06
1.03671e-06
1.02836e-06
1.01985e-06
1.01118e-06
1.00233e-06
9.9329e-07
9.84047e-07
9.74585e-07
9.6489e-07
9.54947e-07
9.4474e-07
9.34252e-07
9.23465e-07
9.1236e-07
9.0092e-07
8.89121e-07
8.76944e-07
8.64364e-07
8.51358e-07
8.37902e-07
8.23972e-07
8.09555e-07
7.94635e-07
7.79189e-07
7.63196e-07
7.46727e-07
7.29931e-07
7.13224e-07
6.96881e-07
6.81158e-07
6.66372e-07
6.52904e-07
6.41213e-07
6.31842e-07
6.25429e-07
6.22712e-07
6.24423e-07
6.31355e-07
6.55652e-07
6.93328e-07
7.45298e-07
8.1255e-07
8.96484e-07
9.99047e-07
1.1223e-06
1.26843e-06
1.4389e-06
1.63476e-06
1.85986e-06
2.12449e-06
2.45312e-06
2.89981e-06
3.54492e-06
4.435e-06
5.49883e-06
6.78788e-06
8.40147e-06
9.72238e-06
9.66141e-06
9.56336e-06
1.08556e-05
1.37828e-05
2.04259e-05
2.82637e-05
2.8082e-07
2.86985e-07
2.93356e-07
2.99929e-07
3.06679e-07
3.1357e-07
3.20573e-07
3.2766e-07
3.34808e-07
3.42e-07
3.4922e-07
3.56457e-07
3.63703e-07
3.70949e-07
3.78193e-07
3.85432e-07
3.92665e-07
3.99895e-07
4.07125e-07
4.1436e-07
4.21609e-07
4.28881e-07
4.3619e-07
4.4355e-07
4.50981e-07
4.58438e-07
4.66797e-07
4.76337e-07
4.87323e-07
4.99984e-07
5.14502e-07
5.31073e-07
5.49927e-07
5.71328e-07
5.95564e-07
6.22937e-07
6.53753e-07
6.88293e-07
7.26793e-07
7.69385e-07
8.16043e-07
8.66481e-07
9.20053e-07
9.75848e-07
1.03211e-06
1.08641e-06
1.13576e-06
1.17678e-06
1.20616e-06
1.22155e-06
1.22279e-06
1.21147e-06
1.19022e-06
1.17683e-06
1.18574e-06
1.24654e-06
1.43341e-06
1.75429e-06
1.76897e-06
1.33361e-06
9.4663e-07
6.42108e-07
6.38038e-07
5.93073e-07
6.14609e-07
8.33068e-07
1.34267e-06
2.35273e-06
3.98294e-06
2.12544e-07
2.20464e-07
2.28699e-07
2.37267e-07
2.46157e-07
2.55353e-07
2.64837e-07
2.74589e-07
2.84589e-07
2.94815e-07
3.05243e-07
3.15849e-07
3.26607e-07
3.37489e-07
3.48465e-07
3.59504e-07
3.70571e-07
3.81631e-07
3.92643e-07
4.03564e-07
4.14345e-07
4.24935e-07
4.35273e-07
4.4529e-07
4.54906e-07
4.64097e-07
4.71824e-07
4.7785e-07
4.82045e-07
4.8436e-07
4.84757e-07
4.83173e-07
4.79501e-07
4.73591e-07
4.65266e-07
4.54329e-07
4.40578e-07
4.23823e-07
4.03902e-07
3.80712e-07
3.54243e-07
3.24616e-07
2.92127e-07
2.57295e-07
2.20884e-07
1.83918e-07
1.47649e-07
1.13495e-07
8.29244e-08
5.72816e-08
3.73588e-08
2.29372e-08
1.47705e-08
1.05236e-08
6.9048e-09
4.07784e-09
5.26928e-09
8.04449e-09
8.21576e-09
4.84251e-09
3.00618e-09
2.28145e-09
2.01996e-09
1.77164e-09
1.77478e-09
2.39889e-09
3.9067e-09
7.2952e-09
1.74001e-08
6.14064e-06
6.13382e-06
6.1271e-06
6.1226e-06
6.11832e-06
6.11496e-06
6.11349e-06
6.11701e-06
6.12447e-06
6.13079e-06
6.12901e-06
6.12093e-06
6.11606e-06
6.11108e-06
6.10638e-06
6.10553e-06
6.10099e-06
6.09046e-06
6.08942e-06
6.09755e-06
6.09434e-06
6.07382e-06
6.07447e-06
6.07053e-06
6.06491e-06
6.05405e-06
6.04186e-06
6.04524e-06
6.04739e-06
6.05056e-06
6.04356e-06
6.02591e-06
6.01404e-06
6.00857e-06
6.00838e-06
6.0161e-06
6.01052e-06
5.99369e-06
5.98301e-06
5.98776e-06
6.00115e-06
6.00338e-06
5.99759e-06
6.00278e-06
6.00639e-06
6.00235e-06
5.99607e-06
5.98946e-06
5.98532e-06
5.97965e-06
5.97648e-06
5.97762e-06
5.98218e-06
5.98673e-06
5.99288e-06
5.99832e-06
6.00066e-06
6.0015e-06
6.00161e-06
6.11538e-06
6.1118e-06
6.10928e-06
6.10789e-06
6.1076e-06
6.10902e-06
6.11237e-06
6.11669e-06
6.11938e-06
6.11767e-06
6.11163e-06
6.10488e-06
6.10098e-06
6.09771e-06
6.09558e-06
6.09284e-06
6.08516e-06
6.0798e-06
6.08268e-06
6.086e-06
6.07683e-06
6.06277e-06
6.06335e-06
6.0592e-06
6.05387e-06
6.04345e-06
6.03309e-06
6.03581e-06
6.03775e-06
6.04073e-06
6.03442e-06
6.01847e-06
6.00662e-06
6.00029e-06
5.99857e-06
6.0047e-06
6.00324e-06
5.99005e-06
5.97715e-06
5.97558e-06
5.98489e-06
5.99157e-06
5.98989e-06
5.99e-06
5.99339e-06
5.99407e-06
5.99112e-06
5.9859e-06
5.98082e-06
5.97575e-06
5.97076e-06
5.96746e-06
5.96693e-06
5.96856e-06
5.97162e-06
5.97598e-06
5.9805e-06
5.98422e-06
5.98703e-06
6.09881e-06
6.09839e-06
6.09864e-06
6.09963e-06
6.1013e-06
6.1034e-06
6.10513e-06
6.10525e-06
6.10287e-06
6.09815e-06
6.09279e-06
6.08876e-06
6.08633e-06
6.08416e-06
6.08139e-06
6.07644e-06
6.07064e-06
6.06984e-06
6.07267e-06
6.07068e-06
6.05991e-06
6.0511e-06
6.05102e-06
6.04714e-06
6.0419e-06
6.03191e-06
6.02328e-06
6.02536e-06
6.02718e-06
6.02986e-06
6.02419e-06
6.00991e-06
5.99829e-06
5.99131e-06
5.98839e-06
5.99254e-06
5.99362e-06
5.98455e-06
5.97169e-06
5.96538e-06
5.96933e-06
5.97651e-06
5.97899e-06
5.9786e-06
5.9799e-06
5.98173e-06
5.9817e-06
5.97922e-06
5.97529e-06
5.97091e-06
5.96614e-06
5.9615e-06
5.95793e-06
5.95608e-06
5.95579e-06
5.95699e-06
5.95945e-06
5.96258e-06
5.9659e-06
6.08873e-06
6.08921e-06
6.08897e-06
6.08978e-06
6.09026e-06
6.09004e-06
6.08865e-06
6.08588e-06
6.08208e-06
6.07808e-06
6.07485e-06
6.07269e-06
6.0708e-06
6.0682e-06
6.06432e-06
6.05977e-06
6.05733e-06
6.05846e-06
6.05878e-06
6.05314e-06
6.0435e-06
6.03824e-06
6.0376e-06
6.03413e-06
6.02885e-06
6.0194e-06
6.01224e-06
6.01379e-06
6.01551e-06
6.01789e-06
6.01282e-06
6.00009e-06
5.98887e-06
5.98144e-06
5.97754e-06
5.97975e-06
5.98196e-06
5.97662e-06
5.96547e-06
5.9565e-06
5.95538e-06
5.96015e-06
5.96457e-06
5.96592e-06
5.96649e-06
5.9677e-06
5.96872e-06
5.96842e-06
5.96655e-06
5.96362e-06
5.95998e-06
5.95588e-06
5.95177e-06
5.94821e-06
5.94555e-06
5.94397e-06
5.94355e-06
5.94417e-06
5.94564e-06
6.07487e-06
6.07443e-06
6.07354e-06
6.0728e-06
6.07146e-06
6.06944e-06
6.06682e-06
6.06387e-06
6.06102e-06
6.05867e-06
6.05689e-06
6.0552e-06
6.05292e-06
6.04975e-06
6.04618e-06
6.0437e-06
6.04353e-06
6.04408e-06
6.04148e-06
6.03442e-06
6.02701e-06
6.02397e-06
6.02303e-06
6.01993e-06
6.01456e-06
6.00577e-06
5.99982e-06
6.00093e-06
6.00256e-06
6.00466e-06
6.00016e-06
5.98883e-06
5.97814e-06
5.97046e-06
5.96579e-06
5.96625e-06
5.96855e-06
5.96607e-06
5.9575e-06
5.94786e-06
5.94294e-06
5.94404e-06
5.94783e-06
5.95061e-06
5.95185e-06
5.95272e-06
5.95366e-06
5.95425e-06
5.95396e-06
5.95266e-06
5.95053e-06
5.94774e-06
5.9445e-06
5.94111e-06
5.93787e-06
5.93505e-06
5.93285e-06
5.93137e-06
5.93065e-06
6.05402e-06
6.0528e-06
6.05134e-06
6.04969e-06
6.04776e-06
6.04566e-06
6.04357e-06
6.04166e-06
6.04005e-06
6.03864e-06
6.03716e-06
6.03522e-06
6.03269e-06
6.02995e-06
6.02788e-06
6.02724e-06
6.02745e-06
6.02619e-06
6.0216e-06
6.01491e-06
6.00986e-06
6.00816e-06
6.00716e-06
6.00429e-06
5.99884e-06
5.99079e-06
5.98584e-06
5.9866e-06
5.98815e-06
5.99e-06
5.98602e-06
5.97598e-06
5.9659e-06
5.95815e-06
5.9529e-06
5.95186e-06
5.95358e-06
5.95295e-06
5.94709e-06
5.93831e-06
5.93127e-06
5.92883e-06
5.93029e-06
5.93294e-06
5.93493e-06
5.93613e-06
5.937e-06
5.93773e-06
5.93813e-06
5.93795e-06
5.93712e-06
5.93569e-06
5.93373e-06
5.93139e-06
5.92883e-06
5.92623e-06
5.92375e-06
5.92154e-06
5.91972e-06
6.02795e-06
6.02665e-06
6.02523e-06
6.02377e-06
6.02234e-06
6.021e-06
6.0198e-06
6.01871e-06
6.01764e-06
6.01641e-06
6.01483e-06
6.01291e-06
6.01093e-06
6.00942e-06
6.00879e-06
6.00875e-06
6.00799e-06
6.00503e-06
5.99986e-06
5.99456e-06
5.9915e-06
5.99064e-06
5.98971e-06
5.98693e-06
5.98146e-06
5.97419e-06
5.97006e-06
5.97057e-06
5.97205e-06
5.97368e-06
5.97019e-06
5.96131e-06
5.95191e-06
5.94422e-06
5.93859e-06
5.93631e-06
5.93709e-06
5.93737e-06
5.93387e-06
5.92679e-06
5.91924e-06
5.91428e-06
5.9129e-06
5.91397e-06
5.91576e-06
5.91726e-06
5.91833e-06
5.91912e-06
5.9197e-06
5.92001e-06
5.91997e-06
5.91951e-06
5.91865e-06
5.91743e-06
5.91591e-06
5.91419e-06
5.91236e-06
5.91051e-06
5.90876e-06
5.99919e-06
5.99831e-06
5.99738e-06
5.99653e-06
5.99575e-06
5.99503e-06
5.99432e-06
5.99354e-06
5.99259e-06
5.99143e-06
5.99013e-06
5.98887e-06
5.98795e-06
5.98755e-06
5.98746e-06
5.9869e-06
5.9849e-06
5.98112e-06
5.97655e-06
5.973e-06
5.97149e-06
5.97119e-06
5.97034e-06
5.96753e-06
5.96214e-06
5.95568e-06
5.95224e-06
5.95257e-06
5.95398e-06
5.95542e-06
5.95238e-06
5.94457e-06
5.93587e-06
5.92838e-06