/*--------------------------------*- C++ -*----------------------------------*\
| =========                 |                                                 |
| \\      /  F ield         | OpenFOAM: The Open Source CFD Toolbox           |
|  \\    /   O peration     | Version:  2312                                  |
|   \\  /    A nd           | Website:  www.openfoam.com                      |
|    \\/     M anipulation  |                                                 |
\*---------------------------------------------------------------------------*/
FoamFile
{
    version     2.0;
    format      ascii;
    arch        "LSB;label=32;scalar=64";
    class       volScalarField;
    location    "300";
    object      nuTilda;
}
// * * * * * * * * * * * * * * * * * * * * * * * * * * * * * * * * * * * * * //

dimensions      [0 2 -1 0 0 0 0];

internalField   nonuniform List<scalar> 
76025
(
3.98761e-05
3.98741e-05
3.98742e-05
3.98771e-05
3.98812e-05
3.98893e-05
3.98986e-05
3.99069e-05
3.99128e-05
3.9916e-05
3.99158e-05
3.99113e-05
3.99047e-05
3.98961e-05
3.98884e-05
3.98812e-05
3.98756e-05
3.98691e-05
3.98631e-05
3.98578e-05
3.9854e-05
3.98518e-05
3.98502e-05
3.98498e-05
3.9851e-05
3.98519e-05
3.9855e-05
3.98586e-05
3.98618e-05
3.98698e-05
3.98779e-05
3.9881e-05
3.98918e-05
3.98943e-05
3.9895e-05
3.9894e-05
3.98908e-05
3.98977e-05
3.99025e-05
3.99073e-05
3.99103e-05
3.99129e-05
3.99176e-05
3.99186e-05
3.99179e-05
3.99139e-05
3.99097e-05
3.99016e-05
3.98893e-05
3.98728e-05
3.98525e-05
3.98291e-05
3.98013e-05
3.97697e-05
3.9735e-05
3.96942e-05
3.96504e-05
3.96113e-05
3.95774e-05
3.95515e-05
3.9533e-05
3.95215e-05
3.95163e-05
3.95185e-05
3.95177e-05
3.95277e-05
3.95374e-05
3.95247e-05
3.95011e-05
3.9853e-05
3.98548e-05
3.9855e-05
3.98548e-05
3.9855e-05
3.98562e-05
3.98596e-05
3.98647e-05
3.98709e-05
3.98768e-05
3.98818e-05
3.98848e-05
3.98853e-05
3.98833e-05
3.9879e-05
3.98734e-05
3.9867e-05
3.98606e-05
3.98539e-05
3.98473e-05
3.98407e-05
3.98346e-05
3.98291e-05
3.98242e-05
3.98199e-05
3.98163e-05
3.98132e-05
3.98108e-05
3.98087e-05
3.98077e-05
3.98074e-05
3.98074e-05
3.98081e-05
3.98088e-05
3.98087e-05
3.98076e-05
3.98051e-05
3.9802e-05
3.97984e-05
3.9794e-05
3.97886e-05
3.9782e-05
3.97743e-05
3.97653e-05
3.9755e-05
3.97432e-05
3.97299e-05
3.97149e-05
3.96982e-05
3.96799e-05
3.96601e-05
3.96387e-05
3.96158e-05
3.9592e-05
3.95669e-05
3.95482e-05
3.95359e-05
3.95284e-05
3.95248e-05
3.95245e-05
3.95265e-05
3.95292e-05
3.95315e-05
3.95317e-05
3.95287e-05
3.95205e-05
3.95061e-05
3.94833e-05
3.94588e-05
3.9816e-05
3.98219e-05
3.98262e-05
3.98288e-05
3.98301e-05
3.98304e-05
3.98307e-05
3.98317e-05
3.98339e-05
3.98372e-05
3.98413e-05
3.98455e-05
3.98492e-05
3.98516e-05
3.98524e-05
3.98514e-05
3.98487e-05
3.98448e-05
3.98399e-05
3.98342e-05
3.9828e-05
3.98215e-05
3.98148e-05
3.98081e-05
3.98015e-05
3.97951e-05
3.97889e-05
3.97829e-05
3.97772e-05
3.97716e-05
3.97663e-05
3.97614e-05
3.97566e-05
3.9752e-05
3.97475e-05
3.97427e-05
3.97376e-05
3.97318e-05
3.97254e-05
3.97183e-05
3.97103e-05
3.97016e-05
3.96921e-05
3.96818e-05
3.96705e-05
3.96584e-05
3.96453e-05
3.96312e-05
3.96162e-05
3.95999e-05
3.95825e-05
3.9564e-05
3.95452e-05
3.95283e-05
3.95134e-05
3.95056e-05
3.95039e-05
3.95048e-05
3.95065e-05
3.95077e-05
3.95074e-05
3.95046e-05
3.94983e-05
3.94875e-05
3.94715e-05
3.94493e-05
3.94207e-05
3.93842e-05
3.9342e-05
3.97756e-05
3.9781e-05
3.97867e-05
3.97918e-05
3.9796e-05
3.97989e-05
3.98007e-05
3.98015e-05
3.98021e-05
3.98029e-05
3.98042e-05
3.98062e-05
3.98086e-05
3.98112e-05
3.98135e-05
3.9815e-05
3.98156e-05
3.9815e-05
3.98132e-05
3.98104e-05
3.98065e-05
3.98018e-05
3.97964e-05
3.97904e-05
3.9784e-05
3.97772e-05
3.97702e-05
3.97631e-05
3.97558e-05
3.97485e-05
3.97411e-05
3.97337e-05
3.97263e-05
3.97188e-05
3.97112e-05
3.97036e-05
3.96957e-05
3.96876e-05
3.96792e-05
3.96703e-05
3.9661e-05
3.96511e-05
3.96406e-05
3.96296e-05
3.96179e-05
3.96056e-05
3.95926e-05
3.95787e-05
3.95635e-05
3.95474e-05
3.95317e-05
3.95164e-05
3.95044e-05
3.94992e-05
3.9497e-05
3.94957e-05
3.94941e-05
3.94914e-05
3.9487e-05
3.948e-05
3.94699e-05
3.94557e-05
3.9437e-05
3.94132e-05
3.93837e-05
3.93482e-05
3.9307e-05
3.92584e-05
3.92053e-05
3.97428e-05
3.97437e-05
3.97461e-05
3.97498e-05
3.97539e-05
3.97581e-05
3.97618e-05
3.97646e-05
3.97665e-05
3.97677e-05
3.97684e-05
3.9769e-05
3.97697e-05
3.97706e-05
3.97717e-05
3.97728e-05
3.97738e-05
3.97743e-05
3.97743e-05
3.97735e-05
3.97719e-05
3.97695e-05
3.97662e-05
3.97622e-05
3.97574e-05
3.97519e-05
3.97459e-05
3.97393e-05
3.97324e-05
3.9725e-05
3.97173e-05
3.97094e-05
3.97011e-05
3.96926e-05
3.96839e-05
3.96749e-05
3.96656e-05
3.96561e-05
3.96462e-05
3.9636e-05
3.96253e-05
3.96143e-05
3.96027e-05
3.95907e-05
3.95782e-05
3.95649e-05
3.95507e-05
3.95357e-05
3.95197e-05
3.95046e-05
3.94946e-05
3.94882e-05
3.9483e-05
3.94779e-05
3.94721e-05
3.94651e-05
3.94563e-05
3.94452e-05
3.94312e-05
3.94138e-05
3.93926e-05
3.93671e-05
3.93369e-05
3.93018e-05
3.92615e-05
3.92158e-05
3.91655e-05
3.91082e-05
3.90495e-05
3.97189e-05
3.97154e-05
3.97132e-05
3.97125e-05
3.97132e-05
3.9715e-05
3.97176e-05
3.97204e-05
3.97231e-05
3.97254e-05
3.97271e-05
3.97282e-05
3.97288e-05
3.97292e-05
3.97293e-05
3.97294e-05
3.97294e-05
3.97293e-05
3.97291e-05
3.97285e-05
3.97276e-05
3.97261e-05
3.97241e-05
3.97214e-05
3.97181e-05
3.97141e-05
3.97094e-05
3.97041e-05
3.96982e-05
3.96918e-05
3.96847e-05
3.96772e-05
3.96692e-05
3.96607e-05
3.96518e-05
3.96425e-05
3.96327e-05
3.96225e-05
3.96118e-05
3.96007e-05
3.9589e-05
3.95768e-05
3.95642e-05
3.9551e-05
3.95372e-05
3.9522e-05
3.95055e-05
3.94891e-05
3.94754e-05
3.94646e-05
3.94549e-05
3.94455e-05
3.94355e-05
3.94245e-05
3.94118e-05
3.93972e-05
3.93801e-05
3.93602e-05
3.9337e-05
3.93104e-05
3.92798e-05
3.92451e-05
3.92061e-05
3.91627e-05
3.91148e-05
3.90622e-05
3.90059e-05
3.89434e-05
3.8879e-05
3.96976e-05
3.96923e-05
3.96873e-05
3.9683e-05
3.96797e-05
3.96775e-05
3.96765e-05
3.96764e-05
3.96772e-05
3.96784e-05
3.96797e-05
3.9681e-05
3.96819e-05
3.96825e-05
3.96827e-05
3.96826e-05
3.96821e-05
3.96814e-05
3.96805e-05
3.96793e-05
3.96779e-05
3.96762e-05
3.96741e-05
3.96716e-05
3.96687e-05
3.96652e-05
3.96612e-05
3.96566e-05
3.96514e-05
3.96457e-05
3.96393e-05
3.96323e-05
3.96247e-05
3.96165e-05
3.96077e-05
3.95984e-05
3.95884e-05
3.95778e-05
3.95666e-05
3.95548e-05
3.95423e-05
3.95291e-05
3.95153e-05
3.95008e-05
3.94852e-05
3.94684e-05
3.94503e-05
3.94318e-05
3.94143e-05
3.93985e-05
3.93834e-05
3.93681e-05
3.9352e-05
3.93344e-05
3.9315e-05
3.92933e-05
3.9269e-05
3.92417e-05
3.92113e-05
3.91775e-05
3.91401e-05
3.90988e-05
3.90537e-05
3.90047e-05
3.89519e-05
3.88949e-05
3.88346e-05
3.87678e-05
3.8699e-05
3.96712e-05
3.96666e-05
3.96615e-05
3.96562e-05
3.96509e-05
3.9646e-05
3.96417e-05
3.96381e-05
3.96354e-05
3.96334e-05
3.96322e-05
3.96316e-05
3.96312e-05
3.96309e-05
3.96306e-05
3.96301e-05
3.96294e-05
3.96284e-05
3.96271e-05
3.96254e-05
3.96235e-05
3.96212e-05
3.96186e-05
3.96156e-05
3.96123e-05
3.96085e-05
3.96043e-05
3.95995e-05
3.95943e-05
3.95885e-05
3.95821e-05
3.95752e-05
3.95675e-05
3.95593e-05
3.95504e-05
3.95408e-05
3.95304e-05
3.95194e-05
3.95076e-05
3.94949e-05
3.94815e-05
3.94672e-05
3.94521e-05
3.94361e-05
3.94192e-05
3.94011e-05
3.93816e-05
3.93606e-05
3.9338e-05
3.93143e-05
3.92902e-05
3.92662e-05
3.92424e-05
3.9218e-05
3.91921e-05
3.9164e-05
3.91335e-05
3.91004e-05
3.90645e-05
3.90254e-05
3.8983e-05
3.89372e-05
3.88879e-05
3.88352e-05
3.87788e-05
3.87183e-05
3.86542e-05
3.85818e-05
3.85091e-05
3.96352e-05
3.96322e-05
3.96285e-05
3.96241e-05
3.96192e-05
3.96139e-05
3.96085e-05
3.96031e-05
3.95979e-05
3.95932e-05
3.95889e-05
3.95853e-05
3.95821e-05
3.95794e-05
3.95771e-05
3.95749e-05
3.95729e-05
3.95708e-05
3.95686e-05
3.95662e-05
3.95636e-05
3.95606e-05
3.95573e-05
3.95537e-05
3.95497e-05
3.95452e-05
3.95403e-05
3.9535e-05
3.95291e-05
3.95227e-05
3.95158e-05
3.95082e-05
3.95e-05
3.94912e-05
3.94816e-05
3.94713e-05
3.94602e-05
3.94483e-05
3.94356e-05
3.94219e-05
3.94073e-05
3.93918e-05
3.93753e-05
3.93577e-05
3.93389e-05
3.93189e-05
3.92977e-05
3.9275e-05
3.92508e-05
3.92248e-05
3.91969e-05
3.91667e-05
3.91346e-05
3.91004e-05
3.90645e-05
3.90271e-05
3.89886e-05
3.8949e-05
3.89075e-05
3.88634e-05
3.88166e-05
3.87669e-05
3.87141e-05
3.86578e-05
3.85974e-05
3.8532e-05
3.84612e-05
3.83805e-05
3.82972e-05
3.95885e-05
3.95868e-05
3.95845e-05
3.95816e-05
3.9578e-05
3.95739e-05
3.95691e-05
3.9564e-05
3.95584e-05
3.95527e-05
3.95469e-05
3.95412e-05
3.95357e-05
3.95305e-05
3.95256e-05
3.95209e-05
3.95165e-05
3.95123e-05
3.95082e-05
3.95041e-05
3.94999e-05
3.94956e-05
3.94911e-05
3.94863e-05
3.94812e-05
3.94757e-05
3.94699e-05
3.94635e-05
3.94567e-05
3.94494e-05
3.94414e-05
3.94329e-05
3.94237e-05
3.94138e-05
3.94032e-05
3.93918e-05
3.93796e-05
3.93666e-05
3.93525e-05
3.93375e-05
3.93215e-05
3.93045e-05
3.92863e-05
3.92669e-05
3.92463e-05
3.92243e-05
3.92008e-05
3.91758e-05
3.91492e-05
3.91208e-05
3.90905e-05
3.90582e-05
3.90236e-05
3.89864e-05
3.89465e-05
3.89036e-05
3.88574e-05
3.88079e-05
3.87553e-05
3.8701e-05
3.86467e-05
3.85911e-05
3.85328e-05
3.84704e-05
3.84026e-05
3.83279e-05
3.82453e-05
3.81502e-05
3.80469e-05
3.95312e-05
3.95302e-05
3.95287e-05
3.95268e-05
3.95244e-05
3.95215e-05
3.9518e-05
3.9514e-05
3.95094e-05
3.95042e-05
3.94986e-05
3.94927e-05
3.94864e-05
3.948e-05
3.94735e-05
3.9467e-05
3.94605e-05
3.94541e-05
3.94478e-05
3.94415e-05
3.94352e-05
3.94288e-05
3.94224e-05
3.94158e-05
3.94089e-05
3.94019e-05
3.93944e-05
3.93866e-05
3.93783e-05
3.93696e-05
3.93603e-05
3.93504e-05
3.93398e-05
3.93285e-05
3.93165e-05
3.93037e-05
3.929e-05
3.92754e-05
3.92598e-05
3.92431e-05
3.92254e-05
3.92065e-05
3.91865e-05
3.91651e-05
3.91424e-05
3.91182e-05
3.90924e-05
3.90649e-05
3.90357e-05
3.90045e-05
3.89712e-05
3.89357e-05
3.88977e-05
3.88572e-05
3.88139e-05
3.87675e-05
3.87177e-05
3.8664e-05
3.86052e-05
3.85408e-05
3.84729e-05
3.84053e-05
3.83362e-05
3.82623e-05
3.81814e-05
3.80909e-05
3.79904e-05
3.78709e-05
3.77393e-05
3.94638e-05
3.94627e-05
3.94614e-05
3.94599e-05
3.9458e-05
3.94557e-05
3.9453e-05
3.94499e-05
3.94462e-05
3.94421e-05
3.94374e-05
3.94322e-05
3.94264e-05
3.94202e-05
3.94136e-05
3.94066e-05
3.93993e-05
3.93917e-05
3.9384e-05
3.9376e-05
3.93679e-05
3.93597e-05
3.93513e-05
3.93427e-05
3.93338e-05
3.93247e-05
3.93153e-05
3.93056e-05
3.92954e-05
3.92848e-05
3.92736e-05
3.92619e-05
3.92495e-05
3.92365e-05
3.92226e-05
3.9208e-05
3.91924e-05
3.91759e-05
3.91584e-05
3.91397e-05
3.91199e-05
3.9099e-05
3.90767e-05
3.9053e-05
3.90279e-05
3.90011e-05
3.89727e-05
3.89424e-05
3.89101e-05
3.88756e-05
3.88388e-05
3.87996e-05
3.87575e-05
3.87125e-05
3.86641e-05
3.86121e-05
3.85562e-05
3.8496e-05
3.84308e-05
3.8359e-05
3.82796e-05
3.81949e-05
3.81082e-05
3.80163e-05
3.79157e-05
3.78028e-05
3.76777e-05
3.75225e-05
3.73573e-05
3.9386e-05
3.93845e-05
3.93828e-05
3.9381e-05
3.93789e-05
3.93766e-05
3.93739e-05
3.9371e-05
3.93677e-05
3.93641e-05
3.936e-05
3.93554e-05
3.93503e-05
3.93447e-05
3.93386e-05
3.93319e-05
3.93248e-05
3.93171e-05
3.9309e-05
3.93005e-05
3.92916e-05
3.92823e-05
3.92726e-05
3.92625e-05
3.92521e-05
3.92413e-05
3.92301e-05
3.92185e-05
3.92063e-05
3.91937e-05
3.91805e-05
3.91667e-05
3.91523e-05
3.91371e-05
3.91211e-05
3.91043e-05
3.90865e-05
3.90677e-05
3.90478e-05
3.90268e-05
3.90045e-05
3.8981e-05
3.8956e-05
3.89295e-05
3.89014e-05
3.88715e-05
3.88396e-05
3.88057e-05
3.87696e-05
3.87309e-05
3.86896e-05
3.86453e-05
3.85978e-05
3.85468e-05
3.84918e-05
3.84323e-05
3.8368e-05
3.82982e-05
3.82225e-05
3.81401e-05
3.80489e-05
3.79478e-05
3.78373e-05
3.77185e-05
3.75907e-05
3.7448e-05
3.7291e-05
3.70964e-05
3.69041e-05
3.92971e-05
3.92947e-05
3.92922e-05
3.92896e-05
3.92868e-05
3.92839e-05
3.92807e-05
3.92773e-05
3.92737e-05
3.92697e-05
3.92655e-05
3.92609e-05
3.92559e-05
3.92504e-05
3.92445e-05
3.92381e-05
3.92312e-05
3.92237e-05
3.92157e-05
3.92071e-05
3.91979e-05
3.91882e-05
3.9178e-05
3.91672e-05
3.91558e-05
3.91439e-05
3.91314e-05
3.91183e-05
3.91045e-05
3.90902e-05
3.90751e-05
3.90594e-05
3.90428e-05
3.90254e-05
3.90071e-05
3.89879e-05
3.89676e-05
3.89462e-05
3.89236e-05
3.88997e-05
3.88744e-05
3.88476e-05
3.88193e-05
3.87892e-05
3.87573e-05
3.87233e-05
3.8687e-05
3.86484e-05
3.86071e-05
3.85628e-05
3.85154e-05
3.84644e-05
3.84095e-05
3.83503e-05
3.82864e-05
3.8217e-05
3.81417e-05
3.80597e-05
3.79701e-05
3.78722e-05
3.77648e-05
3.76461e-05
3.75141e-05
3.73673e-05
3.72042e-05
3.70206e-05
3.68196e-05
3.65952e-05
3.63556e-05
3.91952e-05
3.91916e-05
3.91879e-05
3.91842e-05
3.91803e-05
3.91763e-05
3.91721e-05
3.91677e-05
3.91632e-05
3.91584e-05
3.91533e-05
3.91479e-05
3.91422e-05
3.91362e-05
3.91298e-05
3.91229e-05
3.91156e-05
3.91078e-05
3.90994e-05
3.90905e-05
3.9081e-05
3.90709e-05
3.90601e-05
3.90487e-05
3.90366e-05
3.90238e-05
3.90102e-05
3.89959e-05
3.89809e-05
3.8965e-05
3.89482e-05
3.89306e-05
3.8912e-05
3.88923e-05
3.88717e-05
3.88498e-05
3.88268e-05
3.88024e-05
3.87766e-05
3.87493e-05
3.87204e-05
3.86897e-05
3.86572e-05
3.86226e-05
3.85858e-05
3.85465e-05
3.85046e-05
3.84597e-05
3.84117e-05
3.83601e-05
3.83047e-05
3.8245e-05
3.81805e-05
3.81108e-05
3.80353e-05
3.79532e-05
3.78637e-05
3.77661e-05
3.7659e-05
3.75415e-05
3.7412e-05
3.7269e-05
3.71105e-05
3.69339e-05
3.67353e-05
3.65074e-05
3.62597e-05
3.59869e-05
3.56896e-05
3.90763e-05
3.90715e-05
3.90665e-05
3.90614e-05
3.90561e-05
3.90508e-05
3.90452e-05
3.90395e-05
3.90336e-05
3.90275e-05
3.90211e-05
3.90145e-05
3.90075e-05
3.90002e-05
3.89926e-05
3.89846e-05
3.89761e-05
3.89672e-05
3.89578e-05
3.89478e-05
3.89373e-05
3.89261e-05
3.89143e-05
3.89017e-05
3.88885e-05
3.88744e-05
3.88595e-05
3.88437e-05
3.88271e-05
3.88094e-05
3.87907e-05
3.8771e-05
3.87501e-05
3.87279e-05
3.87045e-05
3.86797e-05
3.86534e-05
3.86255e-05
3.85959e-05
3.85645e-05
3.85312e-05
3.84958e-05
3.8458e-05
3.84178e-05
3.83749e-05
3.83291e-05
3.828e-05
3.82273e-05
3.81708e-05
3.811e-05
3.80445e-05
3.79737e-05
3.78971e-05
3.78141e-05
3.77238e-05
3.76255e-05
3.7518e-05
3.74003e-05
3.72709e-05
3.71284e-05
3.69707e-05
3.67957e-05
3.66004e-05
3.63809e-05
3.61309e-05
3.58478e-05
3.55424e-05
3.51819e-05
3.47441e-05
3.8934e-05
3.89278e-05
3.89215e-05
3.89151e-05
3.89084e-05
3.89016e-05
3.88945e-05
3.88873e-05
3.88798e-05
3.88721e-05
3.8864e-05
3.88557e-05
3.88471e-05
3.88381e-05
3.88288e-05
3.8819e-05
3.88088e-05
3.87981e-05
3.87869e-05
3.87752e-05
3.87629e-05
3.87499e-05
3.87362e-05
3.87218e-05
3.87065e-05
3.86905e-05
3.86735e-05
3.86555e-05
3.86365e-05
3.86164e-05
3.85951e-05
3.85726e-05
3.85487e-05
3.85233e-05
3.84964e-05
3.84679e-05
3.84375e-05
3.84053e-05
3.8371e-05
3.83345e-05
3.82957e-05
3.82543e-05
3.82101e-05
3.81629e-05
3.81124e-05
3.80583e-05
3.80003e-05
3.79379e-05
3.78707e-05
3.77982e-05
3.77199e-05
3.7635e-05
3.7543e-05
3.74429e-05
3.73336e-05
3.72142e-05
3.70833e-05
3.69394e-05
3.67807e-05
3.66049e-05
3.64092e-05
3.61898e-05
3.59418e-05
3.56577e-05
3.53312e-05
3.49684e-05
3.45439e-05
3.40303e-05
3.34237e-05
3.87578e-05
3.87506e-05
3.87432e-05
3.87354e-05
3.87274e-05
3.87192e-05
3.87106e-05
3.87017e-05
3.86926e-05
3.86831e-05
3.86733e-05
3.86631e-05
3.86525e-05
3.86416e-05
3.86301e-05
3.86183e-05
3.86059e-05
3.85929e-05
3.85794e-05
3.85653e-05
3.85505e-05
3.8535e-05
3.85187e-05
3.85016e-05
3.84837e-05
3.84647e-05
3.84448e-05
3.84237e-05
3.84015e-05
3.83779e-05
3.83531e-05
3.83267e-05
3.82988e-05
3.82691e-05
3.82377e-05
3.82042e-05
3.81686e-05
3.81308e-05
3.80904e-05
3.80474e-05
3.80016e-05
3.79526e-05
3.79002e-05
3.78441e-05
3.77838e-05
3.77192e-05
3.76496e-05
3.75745e-05
3.74935e-05
3.74059e-05
3.73109e-05
3.72076e-05
3.70951e-05
3.69723e-05
3.68379e-05
3.66904e-05
3.6528e-05
3.63485e-05
3.6149e-05
3.59257e-05
3.56734e-05
3.53856e-05
3.50544e-05
3.46704e-05
3.4231e-05
3.37203e-05
3.31398e-05
3.24869e-05
3.17878e-05
3.85334e-05
3.85252e-05
3.85167e-05
3.85078e-05
3.84985e-05
3.84888e-05
3.84788e-05
3.84683e-05
3.84575e-05
3.84462e-05
3.84344e-05
3.84222e-05
3.84095e-05
3.83963e-05
3.83826e-05
3.83683e-05
3.83533e-05
3.83378e-05
3.83215e-05
3.83045e-05
3.82867e-05
3.82681e-05
3.82485e-05
3.8228e-05
3.82065e-05
3.81838e-05
3.816e-05
3.81348e-05
3.81083e-05
3.80802e-05
3.80506e-05
3.80192e-05
3.79859e-05
3.79506e-05
3.79131e-05
3.78732e-05
3.78306e-05
3.77853e-05
3.77371e-05
3.76855e-05
3.76304e-05
3.75715e-05
3.75082e-05
3.74403e-05
3.73673e-05
3.72886e-05
3.72036e-05
3.71117e-05
3.70121e-05
3.6904e-05
3.67863e-05
3.6658e-05
3.65177e-05
3.63639e-05
3.61947e-05
3.60079e-05
3.58003e-05
3.55681e-05
3.53059e-05
3.50071e-05
3.46633e-05
3.42671e-05
3.38125e-05
3.32942e-05
3.27098e-05
3.20676e-05
3.13899e-05
3.06711e-05
2.9974e-05
3.82405e-05
3.82311e-05
3.82213e-05
3.82111e-05
3.82004e-05
3.81892e-05
3.81775e-05
3.81653e-05
3.81525e-05
3.81393e-05
3.81254e-05
3.8111e-05
3.80959e-05
3.80802e-05
3.80638e-05
3.80467e-05
3.80288e-05
3.80101e-05
3.79906e-05
3.79702e-05
3.79488e-05
3.79263e-05
3.79028e-05
3.78781e-05
3.78521e-05
3.78248e-05
3.7796e-05
3.77657e-05
3.77336e-05
3.76998e-05
3.7664e-05
3.7626e-05
3.75857e-05
3.75429e-05
3.74974e-05
3.74489e-05
3.73972e-05
3.73421e-05
3.72831e-05
3.72201e-05
3.71525e-05
3.70799e-05
3.70019e-05
3.69179e-05
3.68272e-05
3.67291e-05
3.66229e-05
3.65076e-05
3.63822e-05
3.62456e-05
3.60963e-05
3.59328e-05
3.5753e-05
3.55544e-05
3.53335e-05
3.5086e-05
3.48064e-05
3.44877e-05
3.41228e-05
3.37048e-05
3.32261e-05
3.26917e-05
3.21018e-05
3.14731e-05
3.07997e-05
3.01047e-05
2.94249e-05
2.88422e-05
2.86721e-05
3.78487e-05
3.78376e-05
3.7826e-05
3.7814e-05
3.78013e-05
3.77881e-05
3.77743e-05
3.77598e-05
3.77448e-05
3.7729e-05
3.77125e-05
3.76953e-05
3.76774e-05
3.76586e-05
3.76389e-05
3.76184e-05
3.75969e-05
3.75744e-05
3.75508e-05
3.75261e-05
3.75002e-05
3.74729e-05
3.74444e-05
3.74143e-05
3.73827e-05
3.73493e-05
3.73142e-05
3.72771e-05
3.72378e-05
3.71963e-05
3.71522e-05
3.71055e-05
3.70558e-05
3.7003e-05
3.69466e-05
3.68864e-05
3.68222e-05
3.67536e-05
3.66801e-05
3.66012e-05
3.65164e-05
3.64251e-05
3.63266e-05
3.62201e-05
3.61047e-05
3.59795e-05
3.58433e-05
3.56948e-05
3.55326e-05
3.53548e-05
3.51592e-05
3.49429e-05
3.47019e-05
3.4431e-05
3.41242e-05
3.37751e-05
3.33782e-05
3.29262e-05
3.24226e-05
3.1866e-05
3.12552e-05
3.06342e-05
2.99833e-05
2.93186e-05
2.86971e-05
2.82132e-05
2.80523e-05
2.84653e-05
3.01561e-05
3.73095e-05
3.72957e-05
3.72815e-05
3.72666e-05
3.72511e-05
3.7235e-05
3.72181e-05
3.72005e-05
3.71821e-05
3.71629e-05
3.71429e-05
3.71219e-05
3.71e-05
3.70771e-05
3.70531e-05
3.7028e-05
3.70017e-05
3.69741e-05
3.69452e-05
3.69149e-05
3.6883e-05
3.68495e-05
3.68143e-05
3.67771e-05
3.6738e-05
3.66967e-05
3.66531e-05
3.66069e-05
3.6558e-05
3.65061e-05
3.6451e-05
3.63924e-05
3.633e-05
3.62634e-05
3.61922e-05
3.61161e-05
3.60346e-05
3.59471e-05
3.5853e-05
3.57517e-05
3.56423e-05
3.55241e-05
3.53961e-05
3.5257e-05
3.51058e-05
3.49409e-05
3.47604e-05
3.45623e-05
3.43437e-05
3.41012e-05
3.38304e-05
3.35261e-05
3.31812e-05
3.279e-05
3.2347e-05
3.18582e-05
3.13233e-05
3.07379e-05
3.01519e-05
2.95398e-05
2.89165e-05
2.83199e-05
2.78019e-05
2.74752e-05
2.75115e-05
2.81659e-05
2.98207e-05
3.29669e-05
3.81682e-05
3.65381e-05
3.65203e-05
3.6502e-05
3.6483e-05
3.64632e-05
3.64426e-05
3.64212e-05
3.63989e-05
3.63756e-05
3.63514e-05
3.6326e-05
3.62996e-05
3.6272e-05
3.62431e-05
3.62128e-05
3.61812e-05
3.6148e-05
3.61133e-05
3.60768e-05
3.60384e-05
3.59982e-05
3.59558e-05
3.59111e-05
3.5864e-05
3.58143e-05
3.57617e-05
3.57061e-05
3.56471e-05
3.55845e-05
3.5518e-05
3.54472e-05
3.53717e-05
3.5291e-05
3.52047e-05
3.51123e-05
3.50133e-05
3.4907e-05
3.47926e-05
3.46693e-05
3.4536e-05
3.43915e-05
3.42346e-05
3.40635e-05
3.38765e-05
3.36712e-05
3.34448e-05
3.3194e-05
3.29145e-05
3.26015e-05
3.225e-05
3.18555e-05
3.14142e-05
3.09279e-05
3.04002e-05
2.98301e-05
2.92783e-05
2.87134e-05
2.81468e-05
2.76004e-05
2.7137e-05
2.6828e-05
2.67773e-05
2.71283e-05
2.81276e-05
3.00553e-05
3.32381e-05
3.80944e-05
4.5171e-05
5.48931e-05
3.53787e-05
3.53551e-05
3.53308e-05
3.53057e-05
3.52796e-05
3.52525e-05
3.52244e-05
3.51951e-05
3.51647e-05
3.5133e-05
3.51e-05
3.50655e-05
3.50296e-05
3.49921e-05
3.49528e-05
3.49118e-05
3.48688e-05
3.48238e-05
3.47765e-05
3.47268e-05
3.46747e-05
3.46197e-05
3.45618e-05
3.45007e-05
3.44362e-05
3.43679e-05
3.42955e-05
3.42187e-05
3.41371e-05
3.40503e-05
3.39576e-05
3.38587e-05
3.37528e-05
3.36393e-05
3.35175e-05
3.33864e-05
3.32449e-05
3.30917e-05
3.29253e-05
3.27441e-05
3.25461e-05
3.23288e-05
3.20893e-05
3.18246e-05
3.15307e-05
3.12032e-05
3.08375e-05
3.04295e-05
2.9983e-05
2.9499e-05
2.89838e-05
2.84655e-05
2.79459e-05
2.74378e-05
2.69479e-05
2.65106e-05
2.61717e-05
2.59901e-05
2.59765e-05
2.63481e-05
2.71868e-05
2.8633e-05
3.08708e-05
3.41291e-05
3.87012e-05
4.49042e-05
5.30903e-05
6.36103e-05
7.6369e-05
3.35311e-05
3.34991e-05
3.34662e-05
3.34323e-05
3.33971e-05
3.33606e-05
3.33227e-05
3.32835e-05
3.32427e-05
3.32002e-05
3.31561e-05
3.31102e-05
3.30623e-05
3.30124e-05
3.29603e-05
3.29058e-05
3.28489e-05
3.27892e-05
3.27267e-05
3.26611e-05
3.25922e-05
3.25197e-05
3.24433e-05
3.23627e-05
3.22776e-05
3.21875e-05
3.20921e-05
3.19908e-05
3.18831e-05
3.17684e-05
3.1646e-05
3.15151e-05
3.13749e-05
3.12243e-05
3.10617e-05
3.08856e-05
3.0694e-05
3.04849e-05
3.02558e-05
3.00042e-05
2.9727e-05
2.94218e-05
2.90858e-05
2.87175e-05
2.83151e-05
2.78791e-05
2.74133e-05
2.69229e-05
2.64794e-05
2.60543e-05
2.56632e-05
2.53327e-05
2.50921e-05
2.49471e-05
2.4954e-05
2.52339e-05
2.5803e-05
2.67127e-05
2.80169e-05
2.9809e-05
3.22201e-05
3.54061e-05
3.9548e-05
4.48247e-05
5.13455e-05
5.91294e-05
6.82355e-05
7.86512e-05
8.93265e-05
3.04346e-05
3.0392e-05
3.03485e-05
3.03036e-05
3.02573e-05
3.02094e-05
3.01599e-05
3.01087e-05
3.00556e-05
3.00006e-05
2.99436e-05
2.98843e-05
2.98228e-05
2.97587e-05
2.96921e-05
2.96226e-05
2.95501e-05
2.94744e-05
2.93953e-05
2.93125e-05
2.92257e-05
2.91346e-05
2.90389e-05
2.89382e-05
2.88321e-05
2.872e-05
2.86016e-05
2.84762e-05
2.83432e-05
2.82018e-05
2.80513e-05
2.78904e-05
2.77157e-05
2.75253e-05
2.73179e-05
2.70921e-05
2.68467e-05
2.65818e-05
2.62973e-05
2.59938e-05
2.56727e-05
2.53369e-05
2.49914e-05
2.46488e-05
2.43227e-05
2.4031e-05
2.37934e-05
2.36293e-05
2.35585e-05
2.36062e-05
2.38449e-05
2.42642e-05
2.48904e-05
2.57145e-05
2.67428e-05
2.79916e-05
2.94886e-05
3.12834e-05
3.34702e-05
3.61765e-05
3.95067e-05
4.35732e-05
4.83501e-05
5.34416e-05
5.85441e-05
6.36861e-05
6.9255e-05
7.64656e-05
8.44951e-05
2.51887e-05
2.51414e-05
2.50935e-05
2.50447e-05
2.49949e-05
2.49441e-05
2.4892e-05
2.48388e-05
2.47841e-05
2.4728e-05
2.46703e-05
2.46109e-05
2.45497e-05
2.44866e-05
2.44213e-05
2.43538e-05
2.42839e-05
2.42115e-05
2.41362e-05
2.4058e-05
2.39766e-05
2.38917e-05
2.38031e-05
2.37106e-05
2.36137e-05
2.35123e-05
2.3406e-05
2.32945e-05
2.31775e-05
2.30546e-05
2.29261e-05
2.27928e-05
2.26581e-05
2.2524e-05
2.23929e-05
2.22675e-05
2.21516e-05
2.20495e-05
2.19667e-05
2.19095e-05
2.18852e-05
2.19005e-05
2.19624e-05
2.21754e-05
2.24946e-05
2.29148e-05
2.34282e-05
2.40275e-05
2.47071e-05
2.54604e-05
2.62804e-05
2.71558e-05
2.80751e-05
2.90402e-05
3.00754e-05
3.12429e-05
3.26685e-05
3.44844e-05
3.66579e-05
3.89094e-05
4.12929e-05
4.39126e-05
4.58423e-05
4.57567e-05
4.56184e-05
4.73815e-05
5.09908e-05
5.79643e-05
6.50367e-05
1.7876e-05
1.79745e-05
1.80746e-05
1.81763e-05
1.8279e-05
1.83821e-05
1.84852e-05
1.85879e-05
1.86898e-05
1.87908e-05
1.88905e-05
1.8989e-05
1.90862e-05
1.91819e-05
1.92763e-05
1.93693e-05
1.94609e-05
1.95512e-05
1.96404e-05
1.97285e-05
1.98156e-05
1.99018e-05
1.99875e-05
2.00727e-05
2.01577e-05
2.02419e-05
2.03351e-05
2.04401e-05
2.0559e-05
2.06937e-05
2.08451e-05
2.10141e-05
2.12018e-05
2.14093e-05
2.16375e-05
2.18872e-05
2.21589e-05
2.24527e-05
2.27677e-05
2.31024e-05
2.3454e-05
2.38181e-05
2.41884e-05
2.45579e-05
2.49154e-05
2.52475e-05
2.5539e-05
2.57746e-05
2.59397e-05
2.6025e-05
2.60319e-05
2.59692e-05
2.58504e-05
2.57748e-05
2.58253e-05
2.6162e-05
2.71288e-05
2.85984e-05
2.8661e-05
2.66244e-05
2.43664e-05
2.20573e-05
2.20215e-05
2.16143e-05
2.18121e-05
2.35787e-05
2.66713e-05
3.08984e-05
3.55942e-05
1.6661e-05
1.68155e-05
1.6972e-05
1.71304e-05
1.72903e-05
1.74514e-05
1.7613e-05
1.77748e-05
1.79364e-05
1.80973e-05
1.82573e-05
1.84159e-05
1.85728e-05
1.87276e-05
1.88802e-05
1.90301e-05
1.9177e-05
1.93206e-05
1.94606e-05
1.95966e-05
1.97283e-05
1.98552e-05
1.99768e-05
2.00927e-05
2.02021e-05
2.03052e-05
2.03906e-05
2.04566e-05
2.05021e-05
2.05271e-05
2.05314e-05
2.05143e-05
2.04745e-05
2.041e-05
2.03182e-05
2.01956e-05
2.00384e-05
1.98419e-05
1.96008e-05
1.93088e-05
1.89591e-05
1.8544e-05
1.80554e-05
1.74848e-05
1.68236e-05
1.60639e-05
1.51989e-05
1.42252e-05
1.31462e-05
1.19803e-05
1.07627e-05
9.52447e-06
8.53062e-06
7.83665e-06
7.05242e-06
6.18192e-06
6.59126e-06
7.32719e-06
7.36592e-06
6.45346e-06
5.72802e-06
5.34617e-06
5.18587e-06
5.01853e-06
5.02074e-06
5.4137e-06
6.11597e-06
7.15013e-06
8.8878e-06
4.01353e-05
4.01227e-05
4.01102e-05
4.01019e-05
4.0094e-05
4.00878e-05
4.00851e-05
4.00916e-05
4.01054e-05
4.01171e-05
4.01138e-05
4.00988e-05
4.00898e-05
4.00806e-05
4.00719e-05
4.00703e-05
4.00619e-05
4.00424e-05
4.00405e-05
4.00556e-05
4.00496e-05
4.00115e-05
4.00127e-05
4.00054e-05
3.99949e-05
3.99747e-05
3.9952e-05
3.99583e-05
3.99623e-05
3.99682e-05
3.99552e-05
3.99223e-05
3.99001e-05
3.98898e-05
3.98895e-05
3.99039e-05
3.98935e-05
3.9862e-05
3.98419e-05
3.98509e-05
3.98759e-05
3.98801e-05
3.98693e-05
3.9879e-05
3.98857e-05
3.98782e-05
3.98664e-05
3.9854e-05
3.98463e-05
3.98356e-05
3.98297e-05
3.98318e-05
3.98404e-05
3.98489e-05
3.98604e-05
3.98706e-05
3.9875e-05
3.98766e-05
3.98768e-05
4.00886e-05
4.0082e-05
4.00773e-05
4.00747e-05
4.00742e-05
4.00768e-05
4.0083e-05
4.0091e-05
4.0096e-05
4.00928e-05
4.00816e-05
4.00691e-05
4.00619e-05
4.00558e-05
4.00519e-05
4.00468e-05
4.00326e-05
4.00226e-05
4.0028e-05
4.00341e-05
4.00171e-05
3.9991e-05
3.9992e-05
3.99843e-05
3.99744e-05
3.9955e-05
3.99357e-05
3.99407e-05
3.99443e-05
3.99499e-05
3.99381e-05
3.99083e-05
3.98862e-05
3.98743e-05
3.98711e-05
3.98826e-05
3.98799e-05
3.98551e-05
3.98309e-05
3.9828e-05
3.98455e-05
3.9858e-05
3.98549e-05
3.9855e-05
3.98614e-05
3.98627e-05
3.98572e-05
3.98474e-05
3.98378e-05
3.98283e-05
3.9819e-05
3.98127e-05
3.98117e-05
3.98148e-05
3.98206e-05
3.98287e-05
3.98372e-05
3.98442e-05
3.98495e-05
4.00579e-05
4.00571e-05
4.00576e-05
4.00594e-05
4.00625e-05
4.00664e-05
4.00696e-05
4.00698e-05
4.00654e-05
4.00567e-05
4.00467e-05
4.00392e-05
4.00347e-05
4.00307e-05
4.00256e-05
4.00164e-05
4.00056e-05
4.00041e-05
4.00094e-05
4.00057e-05
3.99856e-05
3.99692e-05
3.99691e-05
3.99619e-05
3.99521e-05
3.99334e-05
3.99173e-05
3.99212e-05
3.99246e-05
3.99296e-05
3.9919e-05
3.98923e-05
3.98706e-05
3.98575e-05
3.9852e-05
3.98598e-05
3.98618e-05
3.98448e-05
3.98207e-05
3.98088e-05
3.98163e-05
3.98297e-05
3.98344e-05
3.98337e-05
3.98361e-05
3.98395e-05
3.98395e-05
3.98348e-05
3.98275e-05
3.98192e-05
3.98103e-05
3.98015e-05
3.97948e-05
3.97913e-05
3.97908e-05
3.97931e-05
3.97977e-05
3.98036e-05
3.98098e-05
4.00392e-05
4.00401e-05
4.00396e-05
4.00411e-05
4.0042e-05
4.00416e-05
4.0039e-05
4.00339e-05
4.00269e-05
4.00194e-05
4.00134e-05
4.00094e-05
4.00059e-05
4.00011e-05
3.99938e-05
3.99854e-05
3.99808e-05
3.99829e-05
3.99835e-05
3.9973e-05
3.99551e-05
3.99453e-05
3.99441e-05
3.99376e-05
3.99277e-05
3.99101e-05
3.98967e-05
3.98996e-05
3.99028e-05
3.99073e-05
3.98978e-05
3.98739e-05
3.98529e-05
3.9839e-05
3.98317e-05
3.98358e-05
3.984e-05
3.98299e-05
3.9809e-05
3.97921e-05
3.979e-05
3.9799e-05
3.98073e-05
3.98099e-05
3.98109e-05
3.98132e-05
3.98151e-05
3.98145e-05
3.9811e-05
3.98055e-05
3.97987e-05
3.9791e-05
3.97832e-05
3.97765e-05
3.97715e-05
3.97685e-05
3.97678e-05
3.97689e-05
3.97717e-05
4.00135e-05
4.00126e-05
4.0011e-05
4.00096e-05
4.00071e-05
4.00034e-05
3.99985e-05
3.9993e-05
3.99877e-05
3.99833e-05
3.998e-05
3.99769e-05
3.99726e-05
3.99667e-05
3.99601e-05
3.99554e-05
3.99551e-05
3.99562e-05
3.99513e-05
3.99381e-05
3.99243e-05
3.99186e-05
3.99169e-05
3.99111e-05
3.9901e-05
3.98846e-05
3.98735e-05
3.98755e-05
3.98786e-05
3.98825e-05
3.98741e-05
3.98529e-05
3.98328e-05
3.98184e-05
3.98096e-05
3.98105e-05
3.98148e-05
3.98101e-05
3.9794e-05
3.97759e-05
3.97666e-05
3.97687e-05
3.97758e-05
3.97811e-05
3.97834e-05
3.9785e-05
3.97868e-05
3.97879e-05
3.97874e-05
3.97849e-05
3.97809e-05
3.97756e-05
3.97696e-05
3.97632e-05
3.97571e-05
3.97517e-05
3.97476e-05
3.97448e-05
3.97434e-05
3.99747e-05
3.99724e-05
3.99697e-05
3.99666e-05
3.9963e-05
3.99591e-05
3.99552e-05
3.99516e-05
3.99486e-05
3.9946e-05
3.99432e-05
3.99396e-05
3.99349e-05
3.99298e-05
3.99259e-05
3.99247e-05
3.99251e-05
3.99228e-05
3.99142e-05
3.99017e-05
3.98922e-05
3.98891e-05
3.98872e-05
3.98818e-05
3.98716e-05
3.98565e-05
3.98472e-05
3.98487e-05
3.98516e-05
3.98551e-05
3.98476e-05
3.98287e-05
3.98098e-05
3.97952e-05
3.97854e-05
3.97834e-05
3.97866e-05
3.97855e-05
3.97744e-05
3.97579e-05
3.97446e-05
3.974e-05
3.97428e-05
3.97478e-05
3.97515e-05
3.97538e-05
3.97554e-05
3.97568e-05
3.97575e-05
3.97572e-05
3.97556e-05
3.97529e-05
3.97493e-05
3.97448e-05
3.974e-05
3.97351e-05
3.97304e-05
3.97262e-05
3.97228e-05
3.99261e-05
3.99236e-05
3.9921e-05
3.99183e-05
3.99156e-05
3.99131e-05
3.99108e-05
3.99088e-05
3.99068e-05
3.99045e-05
3.99015e-05
3.98979e-05
3.98942e-05
3.98914e-05
3.98902e-05
3.98902e-05
3.98887e-05
3.98832e-05
3.98735e-05
3.98636e-05
3.98579e-05
3.98563e-05
3.98545e-05
3.98493e-05
3.9839e-05
3.98254e-05
3.98176e-05
3.98186e-05
3.98214e-05
3.98244e-05
3.98179e-05
3.98012e-05
3.97835e-05
3.9769e-05
3.97584e-05
3.97541e-05
3.97556e-05
3.97561e-05
3.97495e-05
3.97362e-05
3.97219e-05
3.97125e-05
3.97099e-05
3.97119e-05
3.97153e-05
3.97182e-05
3.97202e-05
3.97217e-05
3.97228e-05
3.97234e-05
3.97233e-05
3.97224e-05
3.97208e-05
3.97185e-05
3.97156e-05
3.97124e-05
3.97089e-05
3.97054e-05
3.97021e-05
3.98723e-05
3.98706e-05
3.98689e-05
3.98673e-05
3.98658e-05
3.98645e-05
3.98631e-05
3.98617e-05
3.98599e-05
3.98577e-05
3.98553e-05
3.98529e-05
3.98512e-05
3.98505e-05
3.98503e-05
3.98492e-05
3.98455e-05
3.98384e-05
3.98298e-05
3.98232e-05
3.98203e-05
3.98198e-05
3.98182e-05
3.98129e-05
3.98027e-05
3.97906e-05
3.97841e-05
3.97847e-05
3.97874e-05
3.97901e-05
3.97844e-05
3.97697e-05