/*--------------------------------*- C++ -*----------------------------------*\
| =========                 |                                                 |
| \\      /  F ield         | OpenFOAM: The Open Source CFD Toolbox           |
|  \\    /   O peration     | Version:  2312                                  |
|   \\  /    A nd           | Website:  www.openfoam.com                      |
|    \\/     M anipulation  |                                                 |
\*---------------------------------------------------------------------------*/
FoamFile
{
    version     2.0;
    format      ascii;
    arch        "LSB;label=32;scalar=64";
    class       volScalarField;
    location    "300";
    object      p;
}
// * * * * * * * * * * * * * * * * * * * * * * * * * * * * * * * * * * * * * //

dimensions      [0 2 -2 0 0 0 0];

internalField   nonuniform List<scalar> 
76025
(
6.63125e-05
5.69096e-05
4.7259e-05
3.75104e-05
2.78385e-05
1.79608e-05
7.79392e-06
-2.02313e-06
-1.21223e-05
-2.20921e-05
-3.21474e-05
-4.22571e-05
-5.24466e-05
-6.25816e-05
-7.28847e-05
-8.30632e-05
-9.30809e-05
-0.000103164
-0.0001133
-0.000123217
-0.000132966
-0.000142847
-0.000152555
-0.000162045
-0.000171404
-0.000180482
-0.000189837
-0.000199068
-0.000207614
-0.000216557
-0.000224982
-0.00023286
-0.00024101
-0.000248891
-0.000256507
-0.000263671
-0.000270305
-0.000277348
-0.000283861
-0.000290051
-0.000295685
-0.000301011
-0.00030679
-0.000311989
-0.000316812
-0.000320997
-0.000325264
-0.000329273
-0.000332415
-0.000335414
-0.000338325
-0.000340709
-0.000342986
-0.000345283
-0.000347209
-0.000347878
-0.000349356
-0.000349994
-0.000350691
-0.00035139
-0.00035178
-0.000351758
-0.000352253
-0.000352889
-0.000353225
-0.000352982
-0.000353861
-0.000355916
-0.000358022
6.27471e-05
5.27471e-05
4.26487e-05
3.24236e-05
2.21121e-05
1.1684e-05
1.23984e-06
-9.24692e-06
-1.98163e-05
-3.04136e-05
-4.10676e-05
-5.17413e-05
-6.2439e-05
-7.31367e-05
-8.37828e-05
-9.43546e-05
-0.000104985
-0.000115502
-0.000126064
-0.000136453
-0.000146838
-0.00015709
-0.000167218
-0.000177181
-0.000187056
-0.000196845
-0.000206529
-0.000215908
-0.000225054
-0.000234025
-0.000242771
-0.000251477
-0.000259972
-0.000268063
-0.00027596
-0.000283544
-0.000290914
-0.000298043
-0.000304834
-0.000311404
-0.00031759
-0.000323541
-0.000329262
-0.000334548
-0.000339541
-0.000344216
-0.000348682
-0.000352781
-0.000356464
-0.000359947
-0.000363237
-0.000366186
-0.000368907
-0.000371408
-0.000373515
-0.000375208
-0.000376967
-0.000378416
-0.000379634
-0.00038068
-0.000381794
-0.000382896
-0.000383829
-0.000384896
-0.000385978
-0.00038718
-0.00038902
-0.000391518
-0.00039396
5.87255e-05
4.82106e-05
3.7586e-05
2.6806e-05
1.59152e-05
4.99272e-06
-5.98214e-06
-1.70361e-05
-2.81541e-05
-3.93294e-05
-5.05363e-05
-6.17512e-05
-7.2967e-05
-8.41661e-05
-9.53175e-05
-0.000106463
-0.000117578
-0.000128649
-0.000139655
-0.000150595
-0.000161444
-0.000172169
-0.000182774
-0.000193258
-0.00020362
-0.000213844
-0.000223855
-0.000233652
-0.00024326
-0.000252657
-0.000261903
-0.000270972
-0.000279737
-0.00028821
-0.000296441
-0.00030442
-0.000312127
-0.000319534
-0.000326667
-0.000333517
-0.000340037
-0.000346236
-0.000352137
-0.000357763
-0.000363127
-0.000368206
-0.00037299
-0.000377471
-0.000381639
-0.000385523
-0.00038915
-0.000392498
-0.000395587
-0.000398437
-0.000401034
-0.000403363
-0.000405526
-0.000407518
-0.000409337
-0.000411076
-0.000412813
-0.000414533
-0.000416229
-0.000418078
-0.000420098
-0.000422341
-0.000424954
-0.000428289
-0.000431701
5.44235e-05
4.3365e-05
3.21775e-05
2.08293e-05
9.3832e-06
-2.11745e-06
-1.36779e-05
-2.53051e-05
-3.69875e-05
-4.87132e-05
-6.04656e-05
-7.22309e-05
-8.39975e-05
-9.57555e-05
-0.000107492
-0.000119201
-0.000130866
-0.000142476
-0.000154014
-0.000165469
-0.000176822
-0.000188061
-0.000199173
-0.000210148
-0.000220968
-0.000231618
-0.000242083
-0.000252356
-0.000262428
-0.000272288
-0.000281934
-0.000291341
-0.000300484
-0.000309361
-0.000317976
-0.000326321
-0.00033438
-0.000342148
-0.000349626
-0.000356803
-0.000363667
-0.000370218
-0.000376481
-0.000382474
-0.00038819
-0.000393613
-0.000398739
-0.000403571
-0.000408105
-0.000412356
-0.00041635
-0.000420098
-0.000423605
-0.000426888
-0.000429953
-0.000432802
-0.000435481
-0.000438033
-0.000440472
-0.000442848
-0.00044522
-0.00044763
-0.000450106
-0.000452738
-0.00045559
-0.000458754
-0.000462295
-0.000466569
-0.000470855
4.97062e-05
3.80625e-05
2.62854e-05
1.43413e-05
2.29846e-06
-9.80596e-06
-2.19708e-05
-3.41985e-05
-4.64804e-05
-5.88022e-05
-7.11498e-05
-8.35106e-05
-9.58726e-05
-0.000108224
-0.000120552
-0.000132841
-0.000145079
-0.000157253
-0.000169348
-0.00018135
-0.000193243
-0.000205014
-0.000216647
-0.000228128
-0.000239444
-0.000250582
-0.000261532
-0.000272277
-0.000282804
-0.000293103
-0.000303162
-0.000312973
-0.000322526
-0.000331807
-0.00034081
-0.000349528
-0.000357953
-0.00036608
-0.000373904
-0.000381421
-0.000388625
-0.000395519
-0.000402112
-0.000408425
-0.00041446
-0.000420212
-0.000425677
-0.000430859
-0.000435761
-0.000440397
-0.000444786
-0.000448942
-0.000452874
-0.000456599
-0.000460132
-0.000463489
-0.000466705
-0.000469817
-0.000472856
-0.000475866
-0.0004789
-0.000482011
-0.000485244
-0.000488674
-0.00049238
-0.000496469
-0.000500977
-0.000506275
-0.000511823
4.44642e-05
3.2197e-05
1.97943e-05
7.218e-06
-5.46079e-06
-1.8201e-05
-3.10013e-05
-4.38645e-05
-5.6782e-05
-6.97387e-05
-8.27195e-05
-9.57107e-05
-0.000108699
-0.000121671
-0.000134613
-0.00014751
-0.000160348
-0.000173113
-0.00018579
-0.000198364
-0.000210819
-0.000223141
-0.000235314
-0.000247324
-0.000259157
-0.000270801
-0.000282239
-0.000293459
-0.000304448
-0.000315194
-0.000325689
-0.000335923
-0.000345885
-0.000355563
-0.00036495
-0.00037404
-0.000382827
-0.000391308
-0.000399477
-0.000407332
-0.000414872
-0.000422098
-0.000429021
-0.000435664
-0.000442035
-0.000448132
-0.000453949
-0.00045949
-0.000464765
-0.000469786
-0.00047457
-0.000479133
-0.000483492
-0.000487665
-0.000491672
-0.000495537
-0.000499289
-0.000502967
-0.000506608
-0.000510256
-0.000513962
-0.000517783
-0.000521776
-0.000526016
-0.000530579
-0.000535581
-0.000541055
-0.00054737
-0.000554028
3.86414e-05
2.5715e-05
1.2649e-05
-5.9738e-07
-1.39491e-05
-2.73619e-05
-4.08343e-05
-5.43692e-05
-6.7957e-05
-8.15818e-05
-9.52276e-05
-0.00010888
-0.000122524
-0.000136147
-0.000149733
-0.000163267
-0.000176733
-0.000190117
-0.000203402
-0.000216573
-0.000229614
-0.000242508
-0.000255242
-0.000267799
-0.000280166
-0.000292326
-0.000304268
-0.000315976
-0.000327439
-0.000338645
-0.000349584
-0.000360246
-0.000370621
-0.0003807
-0.000390475
-0.000399942
-0.000409096
-0.000417933
-0.000426451
-0.000434649
-0.000442526
-0.000450088
-0.000457347
-0.000464325
-0.000471032
-0.000477468
-0.000483631
-0.000489525
-0.000495164
-0.000500563
-0.000505738
-0.00051071
-0.000515498
-0.000520123
-0.000524608
-0.00052898
-0.000533272
-0.000537519
-0.000541764
-0.000546052
-0.000550436
-0.000554974
-0.00055973
-0.000564781
-0.000570205
-0.000576122
-0.000582565
-0.000589909
-0.000597518
3.21678e-05
1.85445e-05
4.77674e-06
-9.17879e-06
-2.32424e-05
-3.73668e-05
-5.155e-05
-6.57947e-05
-8.00906e-05
-9.44206e-05
-0.000108768
-0.000123116
-0.000137452
-0.000151759
-0.000166022
-0.000180225
-0.00019435
-0.000208382
-0.000222304
-0.000236099
-0.00024975
-0.000263242
-0.000276558
-0.000289682
-0.0003026
-0.000315296
-0.000327755
-0.000339966
-0.000351914
-0.000363589
-0.00037498
-0.000386077
-0.00039687
-0.000407354
-0.00041752
-0.000427365
-0.000436884
-0.000446077
-0.00045494
-0.000463476
-0.000471686
-0.000479577
-0.000487165
-0.00049447
-0.000501507
-0.000508275
-0.000514777
-0.00052102
-0.000527021
-0.000532795
-0.000538363
-0.000543745
-0.000548964
-0.000554043
-0.000559009
-0.000563891
-0.000568722
-0.000573542
-0.000578393
-0.000583324
-0.000588388
-0.000593648
-0.00059917
-0.000605034
-0.000611322
-0.000618154
-0.000625572
-0.000633943
-0.000642786
2.49471e-05
1.05851e-05
-3.92616e-06
-1.86329e-05
-3.34506e-05
-4.83285e-05
-6.32643e-05
-7.82604e-05
-9.33058e-05
-0.000108382
-0.00012347
-0.000138555
-0.000153619
-0.000168648
-0.000183623
-0.000198528
-0.000213345
-0.000228056
-0.000242644
-0.000257091
-0.000271379
-0.000285492
-0.000299413
-0.000313125
-0.000326612
-0.000339859
-0.000352851
-0.000365576
-0.000378019
-0.00039017
-0.000402018
-0.000413553
-0.000424767
-0.000435655
-0.00044621
-0.000456428
-0.000466308
-0.000475849
-0.000485051
-0.000493918
-0.000502452
-0.000510665
-0.000518573
-0.000526198
-0.000533556
-0.00054065
-0.000547485
-0.000554072
-0.000560429
-0.000566574
-0.00057253
-0.00057832
-0.000583969
-0.000589502
-0.000594948
-0.000600339
-0.000605711
-0.000611104
-0.000616562
-0.000622137
-0.000627883
-0.000633865
-0.000640153
-0.000646829
-0.00065398
-0.000661729
-0.000670137
-0.000679487
-0.000689396
1.68699e-05
1.72297e-06
-1.35774e-05
-2.90809e-05
-4.4698e-05
-6.03745e-05
-7.61076e-05
-9.18995e-05
-0.000107738
-0.000123604
-0.000139477
-0.000155339
-0.000171173
-0.000186962
-0.000202687
-0.00021833
-0.000233873
-0.000249296
-0.00026458
-0.000279708
-0.000294661
-0.00030942
-0.000323967
-0.000338287
-0.000352361
-0.000366175
-0.000379713
-0.000392962
-0.000405908
-0.00041854
-0.000430848
-0.000442824
-0.000454458
-0.000465747
-0.000476685
-0.000487271
-0.000497503
-0.000507383
-0.000516914
-0.0005261
-0.000534948
-0.00054347
-0.000551686
-0.000559621
-0.000567289
-0.000574697
-0.000581853
-0.000588774
-0.000595477
-0.000601986
-0.000608324
-0.000614517
-0.000620592
-0.000626576
-0.000632501
-0.000638401
-0.000644313
-0.000650278
-0.000656345
-0.000662563
-0.000668991
-0.000675693
-0.000682743
-0.000690225
-0.000698229
-0.000706887
-0.000716268
-0.000726732
-0.000738041
7.81305e-06
-8.16846e-06
-2.43071e-05
-4.06566e-05
-5.71221e-05
-7.36457e-05
-9.02239e-05
-0.000106859
-0.000123538
-0.00014024
-0.000156942
-0.000173626
-0.000190273
-0.000206864
-0.00022338
-0.000239801
-0.000256107
-0.000272277
-0.000288291
-0.000304131
-0.000319775
-0.000335206
-0.000350405
-0.000365352
-0.000380032
-0.000394428
-0.000408524
-0.000422307
-0.000435763
-0.00044888
-0.00046165
-0.000474064
-0.000486115
-0.000497798
-0.000509111
-0.000520054
-0.000530626
-0.000540831
-0.000550675
-0.000560164
-0.000569309
-0.000578125
-0.000586632
-0.000594858
-0.000602819
-0.000610525
-0.000617989
-0.000625228
-0.000632267
-0.000639129
-0.000645841
-0.000652429
-0.000658924
-0.000665355
-0.000671755
-0.000678161
-0.00068461
-0.000691147
-0.000697818
-0.000704678
-0.000711784
-0.000719203
-0.000727008
-0.000735285
-0.000744122
-0.00075366
-0.000763951
-0.000775474
-0.000787793
-2.36588e-06
-1.92356e-05
-3.62659e-05
-5.35146e-05
-7.08816e-05
-8.83047e-05
-0.00010578
-0.00012331
-0.000140879
-0.000158466
-0.000176046
-0.0001936
-0.000211106
-0.000228545
-0.000245896
-0.000263136
-0.000280245
-0.0002972
-0.00031398
-0.000330564
-0.000346931
-0.000363062
-0.000378935
-0.000394533
-0.000409836
-0.000424829
-0.000439495
-0.00045382
-0.00046779
-0.000481395
-0.000494625
-0.000507472
-0.000519931
-0.000531999
-0.000543673
-0.000554956
-0.00056585
-0.000576361
-0.000586497
-0.000596267
-0.000605686
-0.000614771
-0.000623546
-0.00063204
-0.000640272
-0.000648255
-0.000656006
-0.000663547
-0.000670905
-0.000678106
-0.000685179
-0.000692153
-0.000699059
-0.00070593
-0.0007128
-0.000719705
-0.000726688
-0.000733791
-0.000741064
-0.000748561
-0.00075634
-0.000764469
-0.000773019
-0.000782078
-0.000791732
-0.000802114
-0.00081325
-0.000825618
-0.000838446
-1.38337e-05
-3.16497e-05
-4.96295e-05
-6.78354e-05
-8.61615e-05
-0.000104541
-0.00012297
-0.000141449
-0.000159964
-0.00017849
-0.000197001
-0.000215475
-0.00023389
-0.000252225
-0.000270456
-0.000288561
-0.000306514
-0.000324294
-0.000341878
-0.000359242
-0.000376364
-0.000393223
-0.000409797
-0.000426066
-0.000442012
-0.000457616
-0.000472863
-0.000487736
-0.000502224
-0.000516315
-0.00053
-0.000543272
-0.000556127
-0.000568562
-0.000580579
-0.000592181
-0.000603373
-0.000614163
-0.000624562
-0.000634584
-0.000644246
-0.000653569
-0.000662581
-0.000671313
-0.000679786
-0.000688018
-0.000696031
-0.000703851
-0.000711507
-0.000719028
-0.000726445
-0.000733791
-0.000741096
-0.000748396
-0.000755726
-0.000763124
-0.000770633
-0.000778297
-0.000786166
-0.000794294
-0.00080274
-0.00081157
-0.000820856
-0.000830684
-0.000841138
-0.000852352
-0.000864375
-0.000877508
-0.000891293
-2.67851e-05
-4.56104e-05
-6.46025e-05
-8.38285e-05
-0.000103176
-0.000122574
-0.000142017
-0.000161507
-0.000181026
-0.000200549
-0.000220047
-0.000239497
-0.000258875
-0.000278157
-0.000297318
-0.000316334
-0.000335178
-0.000353825
-0.000372251
-0.000390431
-0.000408341
-0.000425958
-0.000443258
-0.000460222
-0.000476827
-0.000493057
-0.000508892
-0.000524319
-0.000539324
-0.000553896
-0.000568027
-0.00058171
-0.000594942
-0.000607723
-0.000620056
-0.000631946
-0.000643402
-0.000654436
-0.000665061
-0.000675297
-0.000685162
-0.000694682
-0.000703891
-0.000712822
-0.000721499
-0.000729945
-0.000738188
-0.000746257
-0.000754184
-0.000762002
-0.000769744
-0.000777443
-0.000785133
-0.000792849
-0.000800628
-0.000808509
-0.000816536
-0.000824754
-0.000833212
-0.000841966
-0.000851073
-0.000860597
-0.000870609
-0.00088119
-0.000892421
-0.000904439
-0.000917285
-0.000931511
-0.000946295
-4.14484e-05
-6.13513e-05
-8.14242e-05
-0.000101739
-0.000122176
-0.00014266
-0.000163184
-0.000183749
-0.000204338
-0.00022492
-0.000245468
-0.000265954
-0.000286353
-0.000306638
-0.000326783
-0.000346761
-0.000366543
-0.000386103
-0.000405414
-0.000424448
-0.000443181
-0.000461586
-0.000479639
-0.000497318
-0.0005146
-0.000531466
-0.000547898
-0.00056388
-0.000579398
-0.000594442
-0.000609003
-0.000623077
-0.000636661
-0.000649758
-0.000662372
-0.000674512
-0.00068619
-0.000697421
-0.000708225
-0.000718623
-0.00072864
-0.000738306
-0.00074766
-0.000756739
-0.000765572
-0.000774187
-0.000782617
-0.000790897
-0.000799063
-0.000807148
-0.000815189
-0.000823219
-0.000831274
-0.000839389
-0.000847604
-0.000855957
-0.000864493
-0.000873257
-0.000882299
-0.000891673
-0.000901437
-0.000911653
-0.000922387
-0.000933711
-0.000945699
-0.000958457
-0.000972025
-0.000986798
-0.00100243
-5.80898e-05
-7.91447e-05
-0.000100373
-0.00012185
-0.000143452
-0.000165095
-0.000186772
-0.000208484
-0.000230212
-0.000251924
-0.000273588
-0.000295175
-0.000316658
-0.000338007
-0.000359194
-0.000380189
-0.000400962
-0.000421483
-0.000441722
-0.000461651
-0.000481242
-0.000500466
-0.000519298
-0.000537713
-0.000555687
-0.000573198
-0.000590229
-0.000606762
-0.000622783
-0.000638282
-0.000653251
-0.000667685
-0.000681585
-0.000694955
-0.000707802
-0.000720138
-0.00073198
-0.000743347
-0.000754264
-0.000764758
-0.000774859
-0.000784604
-0.000794039
-0.000803203
-0.000812133
-0.000820864
-0.000829434
-0.000837883
-0.000846249
-0.00085457
-0.000862882
-0.000871221
-0.000879622
-0.000888122
-0.000896759
-0.000905573
-0.000914609
-0.000923912
-0.000933534
-0.000943527
-0.000953948
-0.000964857
-0.000976314
-0.000988385
-0.00100113
-0.00101463
-0.0010289
-0.00104409
-0.00105981
-7.70258e-05
-9.93142e-05
-0.000121779
-0.000144501
-0.000167348
-0.000190232
-0.000213142
-0.00023608
-0.000259025
-0.000281943
-0.000304798
-0.000327559
-0.000350196
-0.000372678
-0.000394972
-0.000417046
-0.000438867
-0.000460402
-0.00048162
-0.000502489
-0.000522977
-0.000543055
-0.000562693
-0.000581866
-0.000600546
-0.000618712
-0.000636343
-0.00065342
-0.00066993
-0.000685862
-0.000701208
-0.000715965
-0.000730136
-0.000743726
-0.000756747
-0.000769214
-0.000781149
-0.000792577
-0.000803528
-0.000814036
-0.000824135
-0.000833874
-0.000843305
-0.000852472
-0.00086142
-0.000870194
-0.000878837
-0.000887395
-0.00089591
-0.000904421
-0.000912967
-0.000921583
-0.000930305
-0.000939169
-0.000948212
-0.000957475
-0.000967
-0.000976835
-0.000987032
-0.000997643
-0.00100873
-0.00102034
-0.00103253
-0.00104537
-0.00105888
-0.00107314
-0.00108814
-0.00110407
-0.00112078
-9.86172e-05
-0.000122227
-0.000146016
-0.000170071
-0.000194251
-0.000218462
-0.000242691
-0.00026694
-0.000291186
-0.000315391
-0.000339518
-0.000363531
-0.000387398
-0.000411084
-0.000434554
-0.000457772
-0.000480703
-0.00050331
-0.000525557
-0.000547411
-0.000568837
-0.000589802
-0.000610273
-0.000630222
-0.00064962
-0.000668442
-0.000686665
-0.000704271
-0.000721244
-0.000737572
-0.00075325
-0.000768274
-0.000782649
-0.000796384
-0.000809493
-0.000821998
-0.000833925
-0.000845307
-0.000856181
-0.000866586
-0.000876572
-0.000886196
-0.000895518
-0.000904595
-0.000913477
-0.000922219
-0.000930873
-0.000939488
-0.000948108
-0.000956776
-0.000965527
-0.000974399
-0.000983425
-0.000992639
-0.00100208
-0.00101178
-0.00102178
-0.00103214
-0.00104291
-0.00105414
-0.0010659
-0.00107822
-0.00109118
-0.0011048
-0.00111912
-0.00113416
-0.00114987
-0.00116643
-0.00118343
-0.000123323
-0.000148353
-0.000173567
-0.000199056
-0.00022467
-0.000250307
-0.000275955
-0.000301613
-0.000327257
-0.000352845
-0.000378337
-0.000403694
-0.00042888
-0.000453856
-0.000478585
-0.000503027
-0.000527141
-0.000550889
-0.000574231
-0.000597128
-0.000619542
-0.000641437
-0.000662777
-0.00068353
-0.000703663
-0.00072315
-0.000741965
-0.000760086
-0.000777498
-0.000794188
-0.000810149
-0.000825382
-0.00083989
-0.000853688
-0.000866793
-0.000879234
-0.000891042
-0.000902259
-0.000912929
-0.000923099
-0.000932831
-0.000942196
-0.000951265
-0.000960105
-0.000968784
-0.000977366
-0.000985914
-0.000994484
-0.00100312
-0.00101188
-0.00102078
-0.00102986
-0.00103915
-0.00104869
-0.0010585
-0.00106862
-0.00107909
-0.00108996
-0.00110129
-0.00111314
-0.00112557
-0.00113863
-0.00115237
-0.00116683
-0.00118201
-0.00119792
-0.00121444
-0.00123167
-0.00124887
-0.000151591
-0.000178143
-0.000204881
-0.000231904
-0.000259052
-0.000286215
-0.000313379
-0.000340543
-0.000367681
-0.000394747
-0.000421696
-0.000448487
-0.000475078
-0.000501428
-0.000527494
-0.000553234
-0.000578602
-0.000603554
-0.000628047
-0.000652037
-0.000675482
-0.000698341
-0.000720573
-0.000742142
-0.000763012
-0.000783151
-0.000802532
-0.00082113
-0.000838926
-0.000855908
-0.000872068
-0.000887406
-0.000901929
-0.000915654
-0.000928604
-0.000940812
-0.000952322
-0.000963183
-0.000973452
-0.000983194
-0.000992491
-0.00100143
-0.0010101
-0.00101858
-0.00102695
-0.00103529
-0.00104366
-0.00105214
-0.00106077
-0.0010696
-0.00107865
-0.00108795
-0.00109751
-0.00110738
-0.00111756
-0.00112809
-0.00113902
-0.00115039
-0.00116227
-0.00117473
-0.00118782
-0.00120161
-0.00121618
-0.00123159
-0.00124787
-0.00126507
-0.00128305
-0.00130168
-0.00132006
-0.000184222
-0.000212428
-0.000240827
-0.000269521
-0.000298339
-0.000327164
-0.000355979
-0.000384782
-0.000413546
-0.00044222
-0.000470756
-0.000499106
-0.000527226
-0.000555071
-0.000582592
-0.000609741
-0.000636469
-0.000662728
-0.000688466
-0.000713637
-0.000738191
-0.000762083
-0.000785267
-0.000807701
-0.000829343
-0.000850159
-0.000870114
-0.000889183
-0.000907341
-0.000924575
-0.000940876
-0.000956243
-0.000970687
-0.000984227
-0.000996892
-0.00100872
-0.00101977
-0.00103009
-0.00103975
-0.00104883
-0.00105743
-0.00106567
-0.00107365
-0.00108147
-0.00108926
-0.00109709
-0.00110507
-0.00111326
-0.00112172
-0.00113048
-0.00113958
-0.00114902
-0.00115881
-0.00116895
-0.00117946
-0.00119037
-0.00120171
-0.00121354
-0.00122592
-0.00123894
-0.00125268
-0.00126726
-0.00128282
-0.00129953
-0.00131755
-0.00133705
-0.00135798
-0.00137989
-0.0014022
-0.000221431
-0.000251391
-0.000281542
-0.000311999
-0.000342584
-0.000373165
-0.000403726
-0.000434265
-0.000464749
-0.000495125
-0.000525338
-0.000555338
-0.000585073
-0.000614493
-0.000643546
-0.000672177
-0.000700332
-0.000727953
-0.000754987
-0.000781377
-0.00080707
-0.000832011
-0.000856149
-0.000879434
-0.00090182
-0.000923263
-0.000943725
-0.000963173
-0.00098158
-0.000998926
-0.0010152
-0.00103041
-0.00104455
-0.00105765
-0.00106975
-0.00108089
-0.00109115
-0.00110059
-0.00110932
-0.00111746
-0.00112512
-0.00113244
-0.00113956
-0.00114661
-0.00115373
-0.00116102
-0.00116861
-0.00117656
-0.00118492
-0.00119373
-0.00120299
-0.00121269
-0.00122279
-0.00123328
-0.00124416
-0.00125544
-0.00126717
-0.00127944
-0.00129233
-0.00130598
-0.00132053
-0.00133621
-0.00135326
-0.00137196
-0.00139256
-0.00141538
-0.00144024
-0.0014673
-0.0014945
-0.000265445
-0.000297363
-0.000329498
-0.000361946
-0.000394516
-0.000427073
-0.000459596
-0.000492083
-0.000524499
-0.000556787
-0.000588886
-0.00062074
-0.000652293
-0.000683489
-0.00071427
-0.000744574
-0.00077434
-0.000803506
-0.000832007
-0.000859782
-0.000886768
-0.000912902
-0.000938126
-0.00096238
-0.00098561
-0.00100776
-0.0010288
-0.00104867
-0.00106734
-0.00108479
-0.00110101
-0.00111598
-0.00112972
-0.00114226
-0.00115363
-0.00116388
-0.00117307
-0.00118129
-0.00118866
-0.00119532
-0.00120144
-0.00120721
-0.0012128
-0.00121841
-0.00122422
-0.00123039
-0.00123706
-0.00124434
-0.00125227
-0.00126087
-0.0012701
-0.00127992
-0.00129023
-0.00130099
-0.00131217
-0.00132379
-0.00133594
-0.00134875
-0.00136237
-0.00137699
-0.00139281
-0.00141011
-0.00142915
-0.00145011
-0.00147296
-0.0014978
-0.00152379
-0.00155187
-0.00157563
-0.000313914
-0.000347853
-0.000381972
-0.00041643
-0.000451022
-0.000485595
-0.000520124
-0.000554606
-0.000589002
-0.000623249
-0.000657281
-0.000691033
-0.000724445
-0.000757453
-0.000789992
-0.000821994
-0.000853388
-0.000884104
-0.000914069
-0.000943212
-0.000971459
-0.00099874
-0.00102498
-0.00105012
-0.00107409
-0.00109682
-0.00111826
-0.00113836
-0.00115707
-0.00117436
-0.0011902
-0.00120459
-0.00121754
-0.00122906
-0.00123922
-0.00124809
-0.00125576
-0.00126235
-0.00126802
-0.00127295
-0.00127733
-0.0012814
-0.00128539
-0.00128956
-0.00129414
-0.00129935
-0.00130536
-0.00131229
-0.0013202
-0.00132906
-0.00133877
-0.00134919
-0.00136019
-0.00137166
-0.00138358
-0.00139603
-0.00140917
-0.00142314
-0.00143806
-0.00145397
-0.00147099
-0.00148934
-0.0015091
-0.00152989
-0.00155094
-0.00157188
-0.00159206
-0.00161234
-0.00162769
-0.000376101
-0.000412368
-0.000448935
-0.000485829
-0.000522839
-0.000559818
-0.000596744
-0.000633611
-0.000670377
-0.000706974
-0.000743329
-0.000779371
-0.000815032
-0.000850242
-0.000884926
-0.000919009
-0.00095241
-0.000985048
-0.00101684
-0.0010477
-0.00107755
-0.00110631
-0.00113388
-0.00116018
-0.00118514
-0.00120868
-0.00123073
-0.00125122
-0.0012701
-0.0012873
-0.0013028
-0.00131657
-0.00132858
-0.00133883
-0.00134736
-0.00135422
-0.00135953
-0.00136345
-0.00136619
-0.00136799
-0.00136913
-0.00136991
-0.00137069
-0.00137184
-0.0013737
-0.00137661
-0.00138086
-0.00138661
-0.00139396
-0.00140281
-0.00141298
-0.00142414
-0.00143599
-0.00144832
-0.00146111
-0.00147455
-0.00148888
-0.00150417
-0.00152012
-0.00153599
-0.00155125
-0.00156602
-0.00158064
-0.00159441
-0.0016062
-0.00161691
-0.00162812
-0.00164128
-0.00165337
-0.000435952
-0.000474667
-0.000513453
-0.000552617
-0.000591936
-0.00063122
-0.000670433
-0.000709573
-0.000748596
-0.000787428
-0.00082599
-0.000864204
-0.000901994
-0.000939282
-0.000975986
-0.00101202
-0.0010473
-0.00108172
-0.0011152
-0.00114763
-0.00117893
-0.00120898
-0.0012377
-0.00126498
-0.00129073
-0.00131485
-0.00133725
-0.00135784
-0.00137655
-0.00139334
-0.00140818
-0.00142106
-0.00143196
-0.00144084
-0.0014477
-0.00145258
-0.00145561
-0.00145695
-0.00145685
-0.00145559
-0.00145356
-0.00145116
-0.0014489
-0.00144731
-0.00144692
-0.00144826
-0.00145176
-0.00145771
-0.00146618
-0.00147696
-0.00148953
-0.00150312
-0.00151691
-0.00153033
-0.00154331
-0.0015562
-0.00156954
-0.00158352
-0.00159714
-0.00160801
-0.00161461
-0.00161791
-0.00162045
-0.00162307
-0.00162547
-0.00162987
-0.00163805
-0.00164929
-0.00166003
-0.000530906
-0.000572168
-0.00061404
-0.0006563
-0.000698679
-0.000741018
-0.000783288
-0.000825483
-0.000867554
-0.000909417
-0.000950981
-0.000992161
-0.00103287
-0.00107302
-0.00111252
-0.00115126
-0.00118916
-0.00122609
-0.00126195
-0.00129662
-0.00132998
-0.00136193
-0.00139233
-0.00142107
-0.00144804
-0.00147312
-0.00149619
-0.00151706
-0.00153554
-0.00155147
-0.00156481
-0.00157559
-0.00158382
-0.0015895
-0.00159261
-0.00159327
-0.00159161
-0.00158784
-0.00158222
-0.00157511
-0.00156697
-0.00155833
-0.00154985
-0.00154227
-0.00153642
-0.00153316
-0.00153329
-0.00153743
-0.00154589
-0.00155838
-0.00157383
-0.00159032
-0.00160543
-0.00161726
-0.00162512
-0.00162953
-0.001632
-0.00163445
-0.00163752
-0.00163897
-0.00163717
-0.00163308
-0.00162978
-0.00162929
-0.00163145
-0.00163539
-0.00164048
-0.00164637
-0.00165262
-0.000597999
-0.000642214
-0.000686116
-0.000730655
-0.000775523
-0.000820379
-0.000865153
-0.000909855
-0.00095444
-0.000998817
-0.00104289
-0.00108656
-0.00112974
-0.00117234
-0.00121425
-0.00125536
-0.00129556
-0.00133473
-0.00137274
-0.00140946
-0.00144475
-0.00147847
-0.00151047
-0.00154063
-0.00156883
-0.00159502
-0.00161922
-0.00164141
-0.00166135
-0.00167866
-0.00169292
-0.00170388
-0.00171145
-0.00171561
-0.00171643
-0.00171392
-0.00170818
-0.00169935
-0.00168773
-0.00167372
-0.00165792
-0.00164113
-0.00162433
-0.00160873
-0.00159567
-0.00158657
-0.00158273
-0.00158509
-0.00159393
-0.00160851
-0.00162674
-0.00164504
-0.00165902
-0.00166612
-0.00166602
-0.00166008
-0.00165114
-0.00164325
-0.00163966
-0.00163989
-0.00164135
-0.0016416
-0.00164023
-0.0016386
-0.00163778
-0.00163774
-0.00163824
-0.00163913
-0.00164064
-0.000749693
-0.000797388
-0.000846232
-0.000895352
-0.000944361
-0.000993244
-0.00104206
-0.0010908
-0.00113938
-0.00118769
-0.00123563
-0.0012831
-0.00133
-0.00137621
-0.00142161
-0.00146609
-0.0015095
-0.0015517
-0.00159254
-0.00163186
-0.00166946
-0.00170517
-0.00173875
-0.00176997
-0.00179855
-0.00182415
-0.00184641
-0.00186516
-0.00188053
-0.00189275
-0.00190187
-0.00190763
-0.00190968
-0.00190767
-0.00190138
-0.00189066
-0.00187549
-0.00185599
-0.00183244
-0.00180534
-0.0017754
-0.00174364
-0.00171133
-0.00168002
-0.00165146
-0.0016275
-0.00160986
-0.00159992
-0.00159836
-0.00160489
-0.00161795
-0.00163446
-0.00165006
-0.00166138
-0.00166695
-0.00166679
-0.0016621
-0.00165527
-0.00164946
-0.00164655
-0.00164507
-0.00164356
-0.0016421
-0.00164099
-0.0016401
-0.00163906
-0.00163744
-0.00163478
-0.00163213
0.000230289
0.000234927
0.000239927
0.000245251
0.000250873
0.000256874
0.000263308
0.000270026
0.000276948
0.00028416
0.000291758
0.000299669
0.000307671
0.000316344
0.000324355
0.000332591
0.000340216
0.000348379
0.000355974
0.000363258
0.000370592
0.000376568
0.000381998
0.000386322
0.000389774
0.000392307
0.000393256
0.000393007
0.000391723
0.000389048
0.000384349
0.000378569
0.00037164
0.000363671
0.000353942
0.000343316
0.000331997
0.00031976
0.000306693
0.000293458
0.000279692
0.000265618
0.000251788
0.000238206
0.000224061
0.000210742
0.000197208
0.000184403
0.00017182
0.000159744
0.000148246
0.000137222
0.000126862
0.000117074
0.000107793
9.86423e-05
9.02145e-05
8.21881e-05
7.46488e-05
0.000234124
0.000238975
0.000244208
0.000249746
0.00025564
0.000261903
0.000268541
0.00027551
0.000282798
0.000290419
0.000298337
0.000306518
0.000314934
0.000323574
0.000332308
0.000340848
0.000349387
0.000357784
0.000365936
0.000373511
0.000380804
0.000387361
0.000393052
0.000397805
0.000401467
0.000404007
0.000405273
0.000405017
0.000403715
0.000400847
0.000396094
0.0003902
0.000383053
0.000374445
0.000364494
0.000353416
0.000341476
0.00032873
0.000315192
0.000301136
0.000286773
0.000272176
0.000257618
0.000242928
0.000228374
0.000214127
0.00020013
0.000186661
0.00017356
0.000160916
0.000148841
0.000137323
0.000126316
0.000115893
0.000105908
9.64985e-05
8.76544e-05
7.93504e-05
7.1542e-05
0.000237825
0.000242915
0.000248366
0.000254176
0.000260358
0.000266921
0.000273853
0.000281146
0.000288797
0.000296797
0.0003051
0.000313654
0.000322447
0.000331438
0.000340548
0.000349703
0.000358821
0.000367724
0.000376272
0.000384335
0.000391882
0.000398846
0.000404913
0.000409977
0.000413911
0.000416605
0.000417986
0.000417869
0.000416477
0.000413487
0.000408736
0.00040263
0.000395035
0.000385987
0.000375611
0.000364083
0.000351528
0.000338157
0.000324038
0.000309367
0.000294293
0.000278928
0.000263471
0.000248063
0.000232812
0.000217862
0.00020323
0.000189018
0.000175254
0.000161978
0.000149269
0.000137118
0.000125521
0.000114477
0.000104043
9.42148e-05
8.49444e-05
7.62238e-05
6.79976e-05
0.00024122
0.000246545
0.000252256
0.000258347
0.000264833
0.000271716
0.000278994
0.000286657
0.000294699
0.000303104
0.000311839
0.000320865
0.000330146
0.000339618
0.000349192
0.000358833
0.000368404
0.000377798
0.000386844
0.000395457
0.000403497
0.000410835
0.000417268
0.000422655
0.000426884
0.000429812
0.000431338
0.000431321
0.000429886
0.0004268
0.000421947
0.00041557
0.00040758
0.000398135
0.000387281
0.000375219
0.00036206
0.000347999
0.000333169
0.00031777
0.000301922
0.000285783
0.000269544
0.000253391
0.000237386
0.000221666
0.00020629
0.000191327
0.000176849
0.000162898
0.000149523
0.000136744
0.000124576
0.000113018
0.000102079
9.17459e-05
8.19927e-05
7.28108e-05
6.41642e-05
0.00024444
0.000250021
0.000256007
0.000262392
0.000269192
0.000276411
0.000284048
0.000292099
0.000300553
0.00030939
0.000318583
0.000328095
0.00033788
0.000347867
0.000357974
0.000368124
0.000378207
0.000388117
0.000397706
0.000406857
0.00041541
0.000423187
0.000430023
0.000435776
0.000440314
0.0004435
0.000445209
0.000445284
0.000443837
0.000440658
0.000435646
0.000428997
0.000420654
0.000410787
0.000399431
0.000386785
0.000372989
0.000358219
0.000342633
0.000326434
0.000309785
0.000292857
0.000275823
0.000258846
0.000242025
0.00022548
0.000209304
0.000193572
0.000178353
0.000163697
0.000149644
0.000136219
0.000123437
0.000111299
9.97995e-05
8.89316e-05
7.86793e-05
6.90316e-05
5.99514e-05
0.000247485
0.00025334
0.000259621
0.000266321
0.000273458
0.000281035
0.000289056
0.000297515
0.000306401
0.000315696
0.00032537
0.000335385
0.00034569
0.000356221
0.000366894
0.000377616
0.000388278
0.000398759
0.000408917
0.000418612
0.000427681
0.000435946
0.000443234
0.00044939
0.000454263
0.000457716
0.00045962
0.000459803
0.000458358
0.000455091
0.000449914