/*--------------------------------*- C++ -*----------------------------------*\
| =========                 |                                                 |
| \\      /  F ield         | OpenFOAM: The Open Source CFD Toolbox           |
|  \\    /   O peration     | Version:  2312                                  |
|   \\  /    A nd           | Website:  www.openfoam.com                      |
|    \\/     M anipulation  |                                                 |
\*---------------------------------------------------------------------------*/
FoamFile
{
    version     2.0;
    format      ascii;
    arch        "LSB;label=32;scalar=64";
    class       surfaceScalarField;
    location    "300";
    object      phi;
}
// * * * * * * * * * * * * * * * * * * * * * * * * * * * * * * * * * * * * * //

dimensions      [0 3 -1 0 0 0 0];

oriented        oriented;

internalField   nonuniform List<scalar> 
116611
(
0.00117519
0.00045107
-0.00115901
-0.000467244
0.00119125
0.000448234
-0.000464297
0.00120709
0.000445096
-0.000460932
0.00122272
0.000441635
-0.00045727
0.00123825
0.000437883
-0.000453414
0.0012538
0.00043375
-0.000449293
0.00126891
0.000429337
-0.000444454
0.00128418
0.000424627
-0.000439898
0.00129902
0.000419538
-0.000434375
0.00131375
0.00041412
-0.000428848
0.00132814
0.000408267
-0.000422662
0.00134235
0.000402044
-0.000416246
0.00135621
0.000395412
-0.000409276
0.0013698
0.000388343
-0.000401939
0.00138301
0.000380849
-0.000394051
0.00139586
0.000372987
-0.00038584
0.00140845
0.000364548
-0.000377142
0.00142078
0.000355847
-0.00036817
0.00143261
0.00034647
-0.000358306
0.0014441
0.00033682
-0.000348306
0.00145534
0.000326511
-0.000337748
0.00146608
0.000315799
-0.000326539
0.00147634
0.000304535
-0.000314795
0.0014862
0.000292818
-0.000302687
0.00149555
0.000280562
-0.000289905
0.0015047
0.0002678
-0.000276948
0.00151326
0.000254365
-0.000262933
0.00152107
0.000240472
-0.000248274
0.00152881
0.000226048
-0.000233794
0.00153561
0.000211072
-0.000217874
0.00154208
0.000195677
-0.000202141
0.00154827
0.000179486
-0.000185679
0.00155365
0.000162669
-0.000168046
0.0015586
0.000145471
-0.000150418
0.00156285
0.000127518
-0.000131767
0.0015664
0.000109134
-0.000112691
0.00156983
9.0096e-05
-9.35241e-05
0.00157233
7.04912e-05
-7.29918e-05
0.00157442
5.03691e-05
-5.24569e-05
0.00157561
2.94396e-05
-3.06339e-05
0.00157622
8.14661e-06
-8.7501e-06
0.00157674
-1.37662e-05
1.32468e-05
0.0015763
-3.63397e-05
3.67779e-05
0.00157529
-5.93469e-05
6.03525e-05
0.0015734
-8.29861e-05
8.48794e-05
0.00157122
-0.000107011
0.000109189
0.00156841
-0.000131646
0.000134454
0.00156456
-0.000156793
0.000160647
0.00156032
-0.000182258
0.000186496
0.00155549
-0.000208155
0.000212986
0.00154987
-0.000234536
0.000240158
0.00154388
-0.000261172
0.000267163
0.00153742
-0.000288188
0.000294644
0.00153023
-0.000315651
0.000322847
0.00152182
-0.000343366
0.000351775
0.00151362
-0.000370954
0.000379148
0.00150426
-0.000399023
0.000408387
0.00149475
-0.000427071
0.000436576
0.00148476
-0.000455132
0.000465125
0.0014742
-0.000482987
0.000493543
0.00146338
-0.000510795
0.000521623
0.00145252
-0.000538746
0.000549606
0.00144123
-0.000566247
0.000577534
0.00142968
-0.00059358
0.000605125
0.00141776
-0.000620457
0.000632379
0.00140623
-0.000646664
0.000658199
0.00139532
-0.000672581
0.000683483
0.00138492
-0.000697942
0.00070835
-0.000724022
0.00137444
0.000734501
0.00116191
0.000434852
-0.00114569
0.00117798
0.000432167
0.00119387
0.000429199
0.00120958
0.00042593
0.00122515
0.000422309
0.0012405
0.0004184
0.00125567
0.000414163
0.00127071
0.000409589
0.00128556
0.000404695
0.00130024
0.000399438
0.00131468
0.000393821
0.00132889
0.000387834
0.00134285
0.000381454
0.00135652
0.00037467
0.00136985
0.00036752
0.00138292
0.00035992
0.00139557
0.000351902
0.00140798
0.000343431
0.00141993
0.000334526
0.00143161
0.000325136
0.00144286
0.000315266
0.00145373
0.000304928
0.00146416
0.000294101
0.00147419
0.000282785
0.0014838
0.00027096
0.00149302
0.000258581
0.00150168
0.000245698
0.00150987
0.000232286
0.00151759
0.000218325
0.00152478
0.000203888
0.00153158
0.000188869
0.00153785
0.000173223
0.00154347
0.000157043
0.00154863
0.00014031
0.00155316
0.000122994
0.00155719
0.000105102
0.00156066
8.66287e-05
0.00156353
6.76167e-05
0.0015659
4.80067e-05
0.00156755
2.77829e-05
0.0015687
7.00202e-06
0.00156925
-1.43234e-05
0.0015691
-3.61868e-05
0.00156836
-5.86039e-05
0.00156694
-8.15701e-05
0.00156497
-0.000105038
0.00156232
-0.000128997
0.00155898
-0.000153457
0.00155509
-0.000178361
0.0015506
-0.000203667
0.00154546
-0.000229396
0.00153978
-0.000255491
0.00153352
-0.000281929
0.00152658
-0.000308712
0.00151901
-0.000335795
0.00151109
-0.000363033
0.00150253
-0.000390464
0.0014935
-0.000418038
0.00148399
-0.000445626
0.00147421
-0.000473205
0.00146417
-0.000500762
0.00145373
-0.000528305
0.00144311
-0.000555625
0.00143229
-0.000582761
0.00142146
-0.000609623
0.00141086
-0.000636068
0.00140043
-0.000662148
0.00139025
-0.000687758
-0.000713861
0.00138008
0.00114926
0.000418748
-0.00113315
0.00116527
0.000416156
0.00118117
0.0004133
0.00119693
0.00041017
0.0012125
0.000406741
0.00122789
0.000403009
0.00124309
0.00039896
0.0012581
0.000394581
0.00127292
0.000389871
0.00128754
0.000384818
0.00130195
0.000379414
0.00131613
0.000373653
0.00133006
0.000367521
0.00134373
0.000361008
0.00135713
0.000354111
0.00137024
0.000346811
0.00138304
0.000339103
0.00139551
0.000330967
0.00140764
0.000322397
0.0014194
0.000313373
0.00143077
0.000303891
0.00144176
0.00029394
0.00145235
0.000283512
0.00146254
0.000272599
0.0014723
0.000261192
0.00148161
0.000249278
0.00149045
0.000236853
0.00149883
0.000223907
0.00150672
0.000210436
0.00151417
0.000196441
0.00152113
0.000181901
0.00152755
0.000166805
0.00153344
0.000151152
0.00153881
0.000134944
0.00154363
0.000118173
0.0015479
0.000100834
0.00155159
8.29326e-05
0.00155474
6.44668e-05
0.00155733
4.54252e-05
0.0015593
2.58063e-05
0.00156068
5.6188e-06
0.00156147
-1.51093e-05
0.00156166
-3.6377e-05
0.00156125
-5.81934e-05
0.00156022
-8.05399e-05
0.00155858
-0.000103396
0.00155633
-0.000126744
0.00155345
-0.000150581
0.00154996
-0.000174874
0.00154588
-0.000199588
0.0015412
-0.000224716
0.00153595
-0.000250234
0.00153013
-0.000276108
0.00152374
-0.000302322
0.00151678
-0.000328837
0.00150932
-0.000355578
0.00150137
-0.000382509
0.00149294
-0.000409611
0.00148412
-0.000436808
0.00147497
-0.000464052
0.00146552
-0.000491308
0.00145577
-0.000518561
0.00144587
-0.000545721
0.00143585
-0.000572741
0.00142579
-0.000599568
0.00141585
-0.000626121
0.00140611
-0.00065241
0.00139665
-0.000678297
-0.000704681
0.00138747
0.00113747
0.000402775
-0.0011215
0.00115336
0.000400262
0.00116917
0.000397495
0.00118487
0.000394471
0.00120043
0.000391179
0.00121583
0.000387602
0.00123107
0.000383729
0.0012461
0.000379546
0.00126093
0.00037504
0.00127555
0.000370202
0.00128994
0.000365023
0.0013041
0.000359492
0.00131802
0.000353604
0.00133168
0.000347347
0.00134508
0.000340711
0.0013582
0.000333691
0.00137103
0.000326273
0.00138355
0.000318449
0.00139574
0.000310204
0.00140758
0.000301528
0.00141907
0.000292409
0.00143017
0.000282837
0.00144088
0.000272802
0.00145119
0.000262294
0.00146107
0.000251305
0.00147052
0.000239826
0.00147953
0.000227846
0.00148808
0.000215357
0.00149616
0.000202355
0.00150377
0.000188832
0.00151089
0.000174781
0.00151751
0.000160191
0.0015236
0.000145053
0.00152918
0.000129367
0.00153423
0.000113129
0.00153872
9.63349e-05
0.00154267
7.89824e-05
0.00154607
6.10687e-05
0.00154891
4.25919e-05
0.00155116
2.355e-05
0.00155284
3.94379e-06
0.00155393
-1.6205e-05
0.00155444
-3.68885e-05
0.00155436
-5.81066e-05
0.00155367
-7.98492e-05
0.00155237
-0.000102103
0.00155048
-0.000124853
0.00154799
-0.000148087
0.0015449
-0.000171783
0.00154123
-0.000195917
0.00153698
-0.000220472
0.00153217
-0.000245426
0.00152682
-0.000270751
0.00152092
-0.000296421
0.00151448
-0.000322403
0.00150755
-0.00034865
0.00150017
-0.000375122
0.00149234
-0.000401789
0.00148414
-0.000428602
0.0014756
-0.000455516
0.00146679
-0.000482496
0.00145774
-0.000509513
0.00144853
-0.000536511
0.00143923
-0.000563441
0.00142993
-0.000590261
0.00142073
-0.000616921
0.00141173
-0.000643413
0.00140297
-0.000669536
-0.000696129
0.00139442
0.00112654
0.00038686
-0.00111062
0.00114234
0.000384453
0.00115805
0.000381791
0.00117365
0.000378874
0.00118913
0.000375698
0.00120448
0.000372253
0.00121968
0.00036853
0.0012347
0.000364517
0.00124954
0.000360201
0.00126418
0.000355571
0.00127858
0.000350613
0.00129276
0.000345318
0.00130669
0.000339675
0.00132036
0.000333675
0.00133376
0.000327308
0.00134689
0.000320566
0.00135972
0.000313438
0.00137226
0.000305915
0.00138447
0.000297986
0.00139636
0.000289642
0.0014079
0.00028087
0.00141908
0.000271661
0.00142987
0.000262005
0.00144027
0.000251891
0.00145027
0.00024131
0.00145985
0.000230251
0.00146899
0.000218705
0.00147768
0.000206665
0.00148591
0.000194122
0.00149368
0.000181068
0.00150096
0.000167497
0.00150775
0.000153398
0.00151404
0.000138765
0.00151982
0.000123592
0.00152507
0.000107878
0.00152979
9.16153e-05
0.00153397
7.48017e-05
0.0015376
5.74343e-05
0.00154068
3.95111e-05
0.0015432
2.10307e-05
0.00154515
1.99166e-06
0.00154653
-1.75836e-05
0.00154733
-3.76896e-05
0.00154755
-5.83244e-05
0.00154718
-7.94815e-05
0.00154623
-0.00010115
0.0015447
-0.000123318
0.00154258
-0.000145971
0.00153989
-0.000169092
0.00153664
-0.000192662
0.00153283
-0.000216661
0.00152847
-0.000241069
0.00152358
-0.000265862
0.00151817
-0.000291014
0.00151226
-0.000316495
0.00150588
-0.000342271
0.00149907
-0.000368305
0.00149184
-0.000394566
0.00148426
-0.000421017
0.00147636
-0.00044762
0.00146821
-0.000474341
0.00145984
-0.000501148
0.00145133
-0.000528002
0.00144275
-0.000554861
0.00143418
-0.000581692
0.00142572
-0.000608454
0.00141745
-0.000635148
0.00140947
-0.000661555
-0.000688711
0.00140205
0.00111626
0.000370917
-0.00110032
0.00113207
0.000368642
0.00114775
0.000366114
0.00116329
0.00036333
0.0011787
0.000360287
0.00119398
0.000356979
0.00120911
0.0003534
0.00122408
0.000349544
0.00123888
0.0003454
0.0012535
0.000340957
0.0012679
0.000336206
0.00128209
0.000331133
0.00129603
0.000325729
0.00130973
0.000319982
0.00132315
0.000313882
0.0013363
0.000307419
0.00134915
0.000300582
0.00136171
0.000293361
0.00137395
0.000285747
0.00138586
0.000277729
0.00139743
0.000269297
0.00140865
0.000260442
0.0014195
0.000251154
0.00142997
0.000241421
0.00144005
0.000231235
0.00144971
0.000220586
0.00145895
0.000209463
0.00146776
0.000197858
0.00147612
0.000185763
0.00148402
0.000173169
0.00149145
0.000160067
0.0014984
0.00014645
0.00150485
0.000132309
0.0015108
0.00011764
0.00151624
0.000102437
0.00152116
8.66953e-05
0.00152556
7.04099e-05
0.00152941
5.35778e-05
0.00153273
3.61965e-05
0.00153549
1.82648e-05
0.00153771
-2.20466e-07
0.00153936
-1.92345e-05
0.00154044
-3.87773e-05
0.00154097
-5.88465e-05
0.00154092
-7.94364e-05
0.00154031
-0.000100538
0.00153913
-0.000122141
0.00153739
-0.000144233
0.0015351
-0.000166798
0.00153226
-0.000189821
0.00152888
-0.000213283
0.00152498
-0.000237166
0.00152056
-0.000261448
0.00151565
-0.000286105
0.00151027
-0.000311113
0.00150444
-0.000336441
0.0014982
-0.000362059
0.00149157
-0.000387939
0.0014846
-0.000414049
0.00147734
-0.000440357
0.00146983
-0.000466834
0.00146214
-0.000493451
0.00145431
-0.000520175
0.00144642
-0.000546976
0.00143856
-0.000573824
0.00143079
-0.000600689
0.00142322
-0.000627574
0.00141593
-0.000654272
-0.000681858
0.00140908
0.00110651
0.000354922
-0.00109051
0.00112237
0.000352781
0.00113808
0.000350397
0.00115365
0.000347763
0.00116906
0.000344875
0.00118431
0.000341726
0.0011994
0.00033831
0.00121433
0.000334619
0.00122908
0.000330649
0.00124365
0.00032639
0.00125802
0.000321834
0.00127218
0.000316972
0.00128611
0.000311794
0.00129981
0.000306288
0.00131325
0.000300444
0.00132642
0.000294251
0.0013393
0.000287699
0.00135188
0.000280778
0.00136415
0.000273475
0.0013761
0.000265782
0.00138771
0.000257688
0.00139897
0.000249183
0.00140987
0.000240256
0.00142039
0.000230899
0.00143052
0.0002211
0.00144026
0.000210851
0.00144958
0.000200141
0.00145848
0.000188962
0.00146694
0.000177304
0.00147495
0.000165158
0.0014825
0.000152515
0.00148958
0.000139368
0.00149618
0.000125709
0.00150229
0.000111531
0.0015079
9.68277e-05
0.001513
8.15936e-05
0.00151759
6.58237e-05
0.00152165
4.95141e-05
0.00152518
3.26616e-05
0.00152819
1.52643e-05
0.00153065
-2.68161e-06
0.00153256
-2.11494e-05
0.00153393
-4.01449e-05
0.00153475
-5.96649e-05
0.00153502
-7.97051e-05
0.00153474
-0.000100258
0.00153391
-0.000121315
0.00153254
-0.000142865
0.00153064
-0.000164894
0.00152821
-0.00018739
0.00152526
-0.000210336
0.00152181
-0.000233715
0.00151787
-0.000257507
0.00151346
-0.000281694
0.00150859
-0.00030625
0.00150331
-0.000331153
0.00149762
-0.000356377
0.00149158
-0.000381896
0.00148521
-0.000407683
0.00147857
-0.000433713
0.0014717
-0.00045996
0.00146464
-0.000486398
0.00145747
-0.000513003
0.00145025
-0.000539751
0.00144304
-0.000566618
0.00143594
-0.000593584
0.00142901
-0.000620649
0.00142238
-0.000647639
-0.000675476
0.001416
0.00109727
0.000338896
-0.00108125
0.00111318
0.000336877
0.00112895
0.000334628
0.00114457
0.000332143
0.00116003
0.000329415
0.00117532
0.000326435
0.00119043
0.000323195
0.00120536
0.000319687
0.00122011
0.000315906
0.00123466
0.000311842
0.001249
0.000307489
0.00126313
0.000302839
0.00127704
0.000297883
0.00129072
0.000292612
0.00130415
0.000287015
0.00131732
0.000281085
0.00133021
0.000274808
0.00134281
0.000268177
0.0013551
0.000261179
0.00136708
0.000253803
0.00137873
0.000246041
0.00139003
0.00023788
0.00140098
0.000229311
0.00141155
0.000220324
0.00142175
0.000210907
0.00143155
0.000201052
0.00144094
0.000190748
0.00144992
0.000179986
0.00145846
0.000168756
0.00146657
0.000157049
0.00147423
0.000144857
0.00148143
0.00013217
0.00148816
0.000118981
0.0014944
0.000105282
0.00150017
9.10661e-05
0.00150543
7.63272e-05
0.0015102
6.10599e-05
0.00151445
4.52593e-05
0.00151819
2.89213e-05
0.00152141
1.20436e-05
0.00152411
-5.37684e-06
0.00152627
-2.3315e-05
0.00152791
-4.17793e-05
0.00152901
-6.07677e-05
0.00152958
-8.02763e-05
0.00152962
-0.000100299
0.00152914
-0.00012083
0.00152813
-0.000141857
0.00152661
-0.000163372
0.00152458
-0.000185361
0.00152206
-0.000207811
0.00151905
-0.000230707
0.00151557
-0.000254032
0.00151165
-0.000277768
0.00150729
-0.000301895
0.00150253
-0.000326394
0.0014974
-0.000351242
0.00149192
-0.000376417
0.00148613
-0.000401898
0.00148008
-0.000427662
0.00147381
-0.000453689
0.00146737
-0.000479958
0.00146082
-0.000506449
0.00145421
-0.000533145
0.00144762
-0.000560029
0.00144112
-0.000587082
0.00143479
-0.00061432
0.00142874
-0.000641594
-0.000669869
0.00142314
0.00108866
0.000322869
-0.00107263
0.00110457
0.000320959
0.00112037
0.000318833
0.00113603
0.000316484
0.00115154
0.000313906
0.00116688
0.000311089
0.00118205
0.000308025
0.00119703
0.000304705
0.00121182
0.00030112
0.0012264
0.000297262
0.00124077
0.000293124
0.00125491
0.000288696
0.00126882
0.00028397
0.00128249
0.000278939
0.00129592
0.000273592
0.00130908
0.000267922
0.00132197
0.000261918
0.00133458
0.000255572
0.00134688
0.000248871
0.00135888
0.000241807
0.00137055
0.000234369
0.00138189
0.000226545
0.00139287
0.000218327
0.00140349
0.000209702
0.00141374
0.000200661
0.0014236
0.000191193
0.00143306
0.000181288
0.00144211
0.000170936
0.00145074
0.000160127
0.00145894
0.000148852
0.00146669
0.000137101
0.001474
0.000124865
0.00148084
0.000112135
0.00148722
9.89047e-05
0.00149312
8.51651e-05
0.00149854
7.09097e-05
0.00150347
5.61322e-05
0.0015079
4.08271e-05
0.00151183
2.49898e-05
0.00151526
8.61654e-06
0.00151817
-8.29211e-06
0.00152057
-2.57175e-05
0.00152246
-4.36675e-05
0.00152384
-6.21416e-05
0.0015247
-8.11371e-05
0.00152505
-0.000100649
0.00152489
-0.000120672
0.00152423
-0.000141198
0.00152308
-0.000162218
0.00152144
-0.000183721
0.00151932
-0.000205696
0.00151674
-0.000228129
0.00151372
-0.000251006
0.00151026
-0.000274311
0.00150639
-0.000298029
0.00150214
-0.000322141
0.00149753
-0.00034663
0.00149259
-0.000371477
0.00148736
-0.000396664
0.00148187
-0.000422173
0.00147616
-0.000447986
0.00147029
-0.000474089
0.00146431
-0.000500466
0.00145827
-0.000527105
0.00145224
-0.000553999
0.00144629
-0.000581131
0.00144051
-0.000608537
0.00143493
-0.000636012
-0.000664344
0.0014294
0.00108075
0.000306854
-0.00106474
0.00109666
0.000305048
0.00111246
0.000303036
0.00112813
0.000300814
0.00114366
0.000298375
0.00115904
0.00029571
0.00117425
0.000292812
0.00118928
0.000289672
0.00120413
0.000286279
0.00121876
0.000282626
0.00123318
0.000278704
0.00124737
0.000274503
0.00126133
0.000270015
0.00127504
0.00026523
0.00128849
0.00026014
0.00130168
0.000254737
0.00131458
0.00024901
0.00132721
0.00024295
0.00133953
0.000236548
0.00135154
0.000229793
0.00136324
0.000222675
0.0013746
0.000215185
0.00138561
0.000207311
0.00139627
0.000199044
0.00140656
0.000190372
0.00141647
0.000181284
0.00142598
0.000171771
0.0014351
0.000161822
0.0014438
0.000151426
0.00145208
0.000140574
0.00145992
0.000129256
0.00146732
0.000117462
0.00147428
0.000105183
0.00148077
9.24109e-05
0.0014868
7.91367e-05
0.00149235
6.53532e-05
0.00149743
5.10534e-05
0.00150203
3.62311e-05
0.00150614
2.08807e-05
0.00150976
4.99718e-06
0.00151288
-1.14135e-05
0.0015155
-2.83421e-05
0.00151763
-4.57947e-05
0.00151926
-6.37721e-05
0.0015204
-8.22725e-05
0.00152104
-0.000101293
0.0015212
-0.000120827
0.00152087
-0.000140871
0.00152007
-0.000161416
0.0015188
-0.000182452
0.00151707
-0.000203971
0.0015149
-0.000225961
0.00151231
-0.000248409
0.0015093
-0.000271303
0.0015059
-0.000294628
0.00150213
-0.00031837
0.00149801
-0.000342514
0.00149358
-0.000367044
0.00148886
-0.000391945
0.00148389
-0.000417204
0.00147871
-0.000442807
0.00147337
-0.000468742
0.0014679
-0.000495001
0.00146237
-0.000521577
0.00145684
-0.000548471
0.00145139
-0.000575674
0.00144609
-0.000603243
0.00144102
-0.000630942
-0.000659799
0.00143648
0.00107363
0.000290856
-0.00105763
0.00108953
0.000289151
0.00110531
0.00028725
0.00112098
0.000285149
0.00113651
0.000282843
0.0011519
0.000280323
0.00116713
0.000277582
0.00118219
0.000274611
0.00119706
0.000271402
0.00121175
0.000267946
0.00122622
0.000264233
0.00124046
0.000260255
0.00125448
0.000256002
0.00126824
0.000251464
0.00128175
0.000246633
0.00129499
0.000241499
0.00130795
0.000236052
0.00132061
0.000230284
0.00133298
0.000224183
0.00134503
0.00021774
0.00135676
0.000210946
0.00136816
0.000203789
0.00137921
0.000196259
0.00138991
0.000188347
0.00140024
0.00018004
0.00141019
0.000171329
0.00141976
0.000162203
0.00142893
0.000152651
0.00143769
0.000142663
0.00144604
0.000132227
0.00145396
0.000121334
0.00146145
0.000109974
0.0014685
9.81368e-05
0.00147509
8.58131e-05
0.00148124
7.29941e-05
0.00148692
5.96716e-05
0.00149213
4.58378e-05
0.00149688
3.14857e-05
0.00150115
1.66092e-05
0.00150495
1.20129e-06
0.00150826
-1.47254e-05
0.00151109
-3.11727e-05
0.00151344
-4.81446e-05
0.00151531
-6.56424e-05
0.0015167
-8.36654e-05
0.00151762
-0.000102212
0.00151807
-0.000121277
0.00151806
-0.000140857
0.00151759
-0.000160945
0.00151667
-0.000181534
0.00151531
-0.000202616
0.00151353
-0.00022418
0.00151134
-0.000246216
0.00150875
-0.000268714
0.00150578
-0.000291662
0.00150246
-0.000315046
0.0014988
-0.000338856
0.00149484
-0.000363077
0.00149059
-0.0003877
0.0014861
-0.000412712
0.00148139
-0.000438104
0.00147652
-0.00046387
0.00147153
-0.000490005
0.00146646
-0.00051651
0.00146138
-0.00054339
0.00145636
-0.000570652
0.00145148
-0.000598365
0.00144684
-0.000626306
-0.000655875
0.00144292
0.00106734
0.00027487
-0.00105135
0.00108322
0.000273266
0.001099
0.000271474
0.00111466
0.000269494
0.00113018
0.000267318
0.00114557
0.00026494
0.0011608
0.000262351
0.00117586
0.000259545
0.00119075
0.000256512
0.00120546
0.000253245
0.00121995
0.000249734
0.00123424
0.00024597
0.0012483
0.000241945
0.00126211
0.000237649
0.00127567
0.000233072
0.00128897
0.000228204
0.00130198
0.000223036
0.00131471
0.000217558
0.00132713
0.000211759
0.00133924
0.00020563
0.00135103
0.000199159
0.00136248
0.000192337
0.00137359
0.000185153
0.00138434
0.000177596
0.00139472
0.000169656
0.00140473
0.000161321
0.00141435
0.00015258
0.00142358
0.000143422
0.00143241
0.000133837
0.00144082
0.000123813
0.00144882
0.00011334
0.00145638
0.000102408
0.00146352
9.10049e-05
0.00147021
7.91219e-05
0.00147645
6.67494e-05
0.00148224
5.38781e-05
0.00148758
4.04997e-05
0.00149246
2.66064e-05
0.00149688
1.21913e-05
0.00150083
-2.75297e-06
0.00150432
-1.82104e-05
0.00150734
-3.41909e-05
0.00150989
-5.06975e-05
0.00151198
-6.77321e-05
0.00151361
-8.52946e-05
0.00151478
-0.000103384
0.0015155
-0.000121998
0.00151578
-0.000141132
0.00151561
-0.000160781
0.00151502
-0.00018094
0.001514
-0.0002016
0.00151258
-0.000222755
0.00151076
-0.000244395
0.00150855
-0.000266511
0.00150599
-0.000289093
0.00150307
-0.000312132
0.00149983
-0.000335617
0.00149629
-0.000359538
0.00149248
-0.000383887
0.00148842
-0.000408656
0.00148416
-0.00043384
0.00147973
-0.000459435
0.00147516
-0.000485442
0.00147052
-0.000511867
0.00146585
-0.000538722
0.00146122
-0.000566021
0.00145668
-0.000593828
0.00145234
-0.000621965
-0.000652028
0.00144849
0.0010619
0.000258886
-0.00104592
0.00107779
0.000257383
0.00109356
0.000255702
0.00110921
0.000253842
0.00112473
0.000251796
0.00114011
0.000249558
0.00115534
0.000247121
0.00117041
0.000244477
0.00118531
0.000241618
0.00120001
0.000238536
0.00121452
0.000235223
0.00122883
0.000231669
0.0012429
0.000227866
0.00125675
0.000223805
0.00127034
0.000219476
0.00128368
0.000214869
0.00129674
0.000209975
0.00130952
0.000204782
0.00132199
0.000199282
0.00133416
0.000193463
0.001346
0.000187315
0.00135751
0.000180827
0.00136868
0.000173987
0.00137949
0.000166786
0.00138994
0.00015921
0.00140001
0.00015125
0.00140969
0.000142894
0.00141899
0.000134129
0.00142788
0.000124946
0.00143636
0.000115332
0.00144442
0.000105276
0.00145206
9.47664e-05
0.00145928
8.3793e-05
0.00146605
7.2345e-05
0.00147239
6.0412e-05
0.00147828
4.79841e-05
0.00148373
3.50523e-05
0.00148873
2.16079e-05
0.00149328
7.64298e-06
0.00149737
-6.84632e-06
0.00150101
-2.18487e-05
0.0015042
-3.73757e-05
0.00150693
-5.34314e-05
0.00150922
-7.00177e-05
0.00151106
-8.71355e-05
0.00151246
-0.000104784
0.00151342
-0.000122963
0.00151396
-0.000141667
0.00151407
-0.000160894
0.00151377
-0.000180638
0.00151306
-0.000200894
0.00151196
-0.000221655
0.00151048
-0.000242913
0.00150863
-0.000264661
0.00150643
-0.000286892
0.00150389
-0.000309596
0.00150104
-0.000332767
0.0014979
-0.000356397
0.0014945
-0.000380481
0.00149085
-0.000405012
0.001487
-0.00042999
0.00148298
-0.000455413
0.00147883
-0.000481288
0.00147458
-0.000507625
0.00147031
-0.000534443
0.00146605
-0.000561768
0.00146188
-0.000589657
0.00145784
-0.000617927
-0.000647773
0.00145359
0.00105733
0.00024289
-0.00104134
0.00107323
0.00024149
0.00108901
0.000239921
0.00110467
0.000238182
0.0011202
0.000236267
0.00113558
0.000234171
0.00115082
0.000231885
0.00116589
0.000229404
0.00118079
0.000226719
0.00119551
0.000223821
0.00121003
0.000220704
0.00122434
0.000217359
0.00123843
0.000213776
0.00125229
0.000209947
0.0012659
0.000205862
0.00127926
0.000201512
0.00129234
0.000196887
0.00130515
0.000191977
0.00131766
0.000186771
0.00132987
0.000181258
0.00134175
0.000175429
0.00135331
0.000169271
0.00136452
0.000162773
0.00137538
0.000155924
0.00138588
0.000148712
0.00139601
0.000141125
0.00140575
0.000133151
0.0014151
0.000124779
0.00142405
0.000115995
0.00143259
0.000106788
0.00144072
9.71466e-05
0.00144843
8.70579e-05
0.00145571
7.65104e-05
0.00146257
6.54928e-05
0.00146898
5.3994e-05
0.00147496
4.20034e-05
0.00148051
2.9511e-05
0.00148561
1.65072e-05
0.00149027
2.98285e-06
0.00149448
-1.10591e-05
0.00149825
-2.56189e-05
0.00150158
-4.07053e-05
0.00150447
-5.63233e-05
0.00150693
-7.24756e-05
0.00150896
-8.91635e-05
0.00151056
-0.000106387
0.00151174
-0.000124146
0.00151251
-0.000142438
0.00151288
-0.000161259
0.00151285
-0.000180606
0.00151242
-0.000200473
0.00151163
-0.000220855
0.00151046
-0.000241747
0.00150894
-0.000263143
0.00150709
-0.000285036
0.00150491
-0.000307419
0.00150243
-0.000330289
0.00149967
-0.000353639
0.00149666
-0.000377465
0.00149341
-0.000401765
0.00148996
-0.000426539
0.00148633
-0.00045179
0.00148257
-0.000477526
0.00147871
-0.000503764
0.00147479
-0.000530526
0.00147087
-0.000557849
0.001467
-0.000585786
0.00146343
-0.000614358
-0.000644002
0.00145966
0.00105364
0.000226867
-0.00103761
0.00106955
0.000225571
0.00108536
0.000224116
0.00110104
0.000222499
0.00111659
0.000220718
0.001132
0.000218764
0.00114725
0.000216632
0.00116234
0.000214314
0.00117726
0.000211803
0.00119199
0.000209092
0.00120652
0.000206171
0.00122084
0.000203034
0.00123495
0.000199671
0.00124882
0.000196074
0.00126245
0.000192233
0.00127582
0.00018814
0.00128893
0.000183783
0.00130175
0.000179153
0.00131428
0.000174239
0.00132651
0.000169031
0.00133842
0.000163518
0.00135
0.000157688
0.00136124
0.00015153
0.00137214
0.000145031
0.00138267
0.000138181
0.00139283
0.000130965
0.00140261
0.000123372
0.001412
0.000115389
0.00142099
0.000107003
0.00142958
9.82017e-05
0.00143775
8.89718e-05
0.00144551
7.93007e-05
0.00145284
6.91758e-05
0.00145975
5.85848e-05
0.00146623
4.75156e-05
0.00147228
3.59567e-05
0.00147789
2.38971e-05
0.00148307
1.13266e-05
0.00148782
-1.76475e-06
0.00149213
-1.5369e-05
0.00149601
-2.9497e-05
0.00149946
-4.41554e-05
0.00150248
-5.93493e-05
0.00150509
-7.50821e-05
0.00150728
-9.13557e-05
0.00150907
-0.000108171
0.00151045
-0.000125527
0.00151143
-0.000143423
0.00151203
-0.000161856
0.00151225
-0.000180823
0.00151209
-0.000200319
0.00151158
-0.000220341
0.00151072
-0.000240884
0.00150951
-0.000261942
0.00150799
-0.000283513
0.00150616
-0.00030559
0.00150404
-0.00032817
0.00150165
-0.000351249
0.00149901
-0.000374826
0.00149615
-0.0003989
0.00149309
-0.000423473
0.00148985
-0.00044855
0.00148646
-0.000474141
0.00148296
-0.00050026
0.00147936
-0.000526924
0.00147566
-0.000554149
0.00147187
-0.000582005
0.00146788
-0.000610368
-0.000640369
0.00146425
0.00105083
0.000210809
-0.00103477
0.00106678
0.000209617
0.00108262
0.000208275
0.00109834
0.000206782
0.00111392
0.000205134
0.00112936
0.000203324
0.00114465
0.000201346
0.00115977
0.000199193
0.00117471
0.000196858
0.00118947
0.000194334
0.00120403
0.000191612
0.00121838
0.000188685
0.00123251
0.000185544
0.0012464
0.00018218
0.00126005
0.000178584
0.00127344
0.000174747
0.00128657
0.00017066
0.00129941
0.000166311
0.00131196
0.00016169
0.0013242
0.000156788
0.00133613
0.000151591
0.00134773
0.00014609
0.00135899
0.000140271
0.00136989
0.000134123
0.00138044
0.000127633
0.00139062
0.000120788
0.00140042
0.000113575
0.00140982
0.000105981
0.00141884
9.79921e-05
0.00142744
8.95947e-05
0.00143564
8.07752e-05
0.00144342
7.15198e-05
0.00145078
6.18149e-05
0.00145772
5.16471e-05
0.00146423
4.10034e-05
0.00147032
2.98711e-05
0.00147598
1.82382e-05
0.00148121
6.09314e-06
0.00148601
-6.57047e-06
0.00149039
-1.97494e-05
0.00149435
-3.3457e-05
0.0014979
-4.77003e-05
0.00150103
-6.24843e-05
0.00150377
-7.78129e-05
0.0015061
-9.36886e-05
0.00150804
-0.000110113
0.0015096
-0.000127085
0.00151078
-0.000144603
0.00151159
-0.000162667
0.00151204
-0.000181273
0.00151214
-0.000200417
0.00151189
-0.000220096
0.00151131
-0.000240306
0.00151041
-0.000261044
0.00150921
-0.000282306
0.00150771
-0.00030409
0.00150593
-0.000326392
0.00150389
-0.000349212
0.00150162
-0.000372549
0.00149912
-0.000396404
0.00149642
-0.000420779
0.00149355
-0.000445678
0.00149051
-0.0004711
0.0014873
-0.000497046
0.00148388
-0.000523512
0.00148022
-0.000550488
0.00147627
-0.000578051
0.00147189
-0.000605987
-0.000635677
0.0014672
0.00104896
0.000194712
-0.00103286
0.00106495
0.000193623
0.00108083
0.000192392
0.00109659
0.000191022
0.00111222
0.000189506
0.00112771
0.00018784
0.00114303
0.000186017
0.0011582
0.00018403
0.00117318
0.000181872
0.00118798
0.000179536
0.00120258
0.000177014
0.00121697
0.000174298
0.00123113
0.00017138
0.00124506
0.000168251
0.00125874
0.000164903
0.00127216
0.000161326
0.00128531
0.00015751
0.00129818
0.000153444
0.00131075
0.00014912
0.00132301
0.000144524
0.00133496
0.000139647
0.00134657
0.000134476
0.00135784
0.000129
0.00136876
0.000123204
0.00137932
0.000117077
0.0013895
0.000110606
0.0013993
0.000103775
0.00140871
9.65717e-05
0.00141772
8.89812e-05
0.00142632
8.0989e-05
0.00143452
7.25803e-05
0.0014423
6.37405e-05
0.00144966
5.44547e-05
0.0014566
4.47085e-05
0.00146311
3.44875e-05
0.00146921
2.37779e-05
0.00147488
1.25665e-05
0.00148013
8.40371e-07
0.00148496
-1.14007e-05
0.00148938
-2.41658e-05
0.00149339
-3.74652e-05
0.00149699
-5.13068e-05
0.0015002
-6.56963e-05
0.00150303
-8.06377e-05
0.00150547
-9.61337e-05
0.00150755
-0.000112186
0.00150926
-0.000128793
0.00151061
-0.000145955
0.00151161
-0.00016367
0.00151227
-0.000181934
0.0015126
-0.000200744
0.0015126
-0.000220098
0.00151229
-0.000239993
0.00151167
-0.000260426
0.00151076
-0.000281394
0.00150957
-0.000302898
0.00150811
-0.000324935
0.0015064
-0.000347507
0.00150447
-0.000370612
0.00150231
-0.000394251
0.00149995
-0.000418417
0.00149737
-0.000443099
0.00149455
-0.000468277
0.00149144
-0.000493929
0.00148797
-0.000520044
0.00148412
-0.000546644
0.00147997
-0.000573897
0.00147585
-0.000601872
-0.000632197
0.00147237
0.0010481
0.000178576
-0.00103197
0.00106414
0.000177587
0.00108007
0.000176467
0.00109587
0.000175216
0.00111155
0.000173832
0.00112708
0.000172308
0.00114246
0.000170638
0.00115767
0.000168816
0.00117271
0.000166835
0.00118755
0.000164687
0.0012022
0.000162366
0.00121664
0.000159863
0.00123085
0.00015717
0.00124482
0.000154278
0.00125854
0.000151179
0.00127201
0.000147864
0.00128519
0.000144322
0.00129809
0.000140544
0.0013107
0.000136518
0.00132299
0.000132234
0.00133495
0.000127681
0.00134658
0.000122845
0.00135787
0.000117715
0.0013688
0.000112277
0.00137936
0.000106518
0.00138954
0.000100424
0.00139933
9.39801e-05
0.00140873
8.7172e-05
0.00141773
7.9984e-05
0.00142632
7.24008e-05
0.00143449
6.44064e-05
0.00144225
5.59848e-05
0.00144958
4.712e-05
0.00145649