/*--------------------------------*- C++ -*----------------------------------*\
| =========                 |                                                 |
| \\      /  F ield         | OpenFOAM: The Open Source CFD Toolbox           |
|  \\    /   O peration     | Version:  2312                                  |
|   \\  /    A nd           | Website:  www.openfoam.com                      |
|    \\/     M anipulation  |                                                 |
\*---------------------------------------------------------------------------*/
FoamFile
{
    version     2.0;
    format      ascii;
    arch        "LSB;label=32;scalar=64";
    class       volVectorField;
    location    "300";
    object      U;
}
// * * * * * * * * * * * * * * * * * * * * * * * * * * * * * * * * * * * * * //

dimensions      [0 1 -1 0 0 0 0];

internalField   nonuniform List<vector> 
76025
(
(0.0400896 -0.00728345 0)
(0.0403219 -0.00726847 1.42718e-22)
(0.0405548 -0.00724738 0)
(0.0407875 -0.00722043 0)
(0.0410221 -0.00718733 -8.89157e-23)
(0.0412636 -0.00713566 1.98967e-23)
(0.0415067 -0.00708907 -1.63848e-22)
(0.0417533 -0.00702505 1.11335e-22)
(0.0419991 -0.00695975 1.03504e-22)
(0.0422454 -0.00688477 -1.37642e-22)
(0.0424907 -0.0068012 2.69619e-23)
(0.0427364 -0.00670609 -6.1952e-22)
(0.0429834 -0.00660511 8.22353e-22)
(0.0432283 -0.00649143 0)
(0.0434717 -0.00636357 -3.07539e-22)
(0.0437114 -0.0062371 0)
(0.0439492 -0.00609034 0)
(0.0441878 -0.00594125 0)
(0.0444242 -0.00577589 -4.00045e-22)
(0.0446545 -0.00561112 4.75028e-22)
(0.0448836 -0.00542734 5.07942e-22)
(0.0451131 -0.00523524 1.5658e-21)
(0.0453358 -0.00503336 -1.06879e-21)
(0.0455531 -0.00481999 -1.8047e-21)
(0.0457654 -0.00460014 -6.20785e-23)
(0.0459746 -0.00437262 -7.36944e-22)
(0.0461834 -0.00412045 2.06593e-21)
(0.046384 -0.00386922 -2.09025e-21)
(0.0465789 -0.00359917 7.21626e-22)
(0.0467683 -0.0033078 -7.52851e-22)
(0.0469485 -0.00303143 -7.91353e-22)
(0.0471246 -0.00273974 1.7244e-21)
(0.0472959 -0.00241971 -2.63037e-21)
(0.0474606 -0.00210415 -4.74381e-22)
(0.0476163 -0.00176865 2.40013e-21)
(0.04776 -0.00143673 1.70341e-23)
(0.0478984 -0.00108257 -4.96895e-22)
(0.0480327 -0.000707208 2.74266e-22)
(0.0481579 -0.000340479 1.66376e-23)
(0.0482713 4.66676e-05 -4.26297e-22)
(0.048371 0.00043592 2.91576e-22)
(0.0484668 0.000844335 -1.46323e-22)
(0.0485591 0.00128183 2.93941e-22)
(0.0486395 0.00171902 -5.9388e-22)
(0.0487033 0.00217217 -6.19901e-22)
(0.0487555 0.00263202 1.17472e-21)
(0.0488012 0.00311637 1.24857e-21)
(0.0488331 0.00360632 -3.77104e-21)
(0.0488464 0.0041086 2.42083e-21)
(0.0488499 0.0046227 -5.68813e-23)
(0.0488408 0.00515146 -6.26571e-21)
(0.0488164 0.00569922 -2.43716e-21)
(0.0487815 0.00626265 2.59126e-21)
(0.048732 0.00684863 0)
(0.0486565 0.00744506 -2.44935e-21)
(0.0485612 0.00804929 -2.60367e-21)
(0.0484531 0.00867336 8.33047e-23)
(0.0483204 0.00932176 -2.51588e-21)
(0.0481655 0.0100002 2.54485e-21)
(0.047982 0.010712 -7.42904e-21)
(0.0478003 0.0113947 -5.24666e-21)
(0.0475805 0.0121373 -3.4066e-22)
(0.0473365 0.0129076 0)
(0.0470659 0.0136988 1.28458e-20)
(0.0467623 0.0145161 -4.78963e-21)
(0.0464382 0.0153392 2.57277e-21)
(0.0460929 0.0162136 -5.02208e-21)
(0.0457036 0.0171484 5.44714e-21)
(0.0453813 0.0180789 1.0625e-20)
(0.0400903 -0.00767942 1.66622e-22)
(0.0403384 -0.0076651 3.31269e-22)
(0.0405871 -0.0076428 -4.73347e-22)
(0.0408364 -0.00761286 0)
(0.0410847 -0.00757689 6.79019e-23)
(0.0413378 -0.00753027 -1.46497e-22)
(0.0415896 -0.00747595 1.14908e-22)
(0.0418444 -0.00741244 0)
(0.0421018 -0.00734026 2.84333e-23)
(0.0423602 -0.00726009 1.40208e-22)
(0.04262 -0.0071711 -1.74975e-22)
(0.04288 -0.00707262 3.36924e-23)
(0.0431393 -0.0069651 0)
(0.0433987 -0.00684804 0)
(0.0436577 -0.00671877 -7.32762e-22)
(0.0439122 -0.00658221 1.77914e-21)
(0.0441667 -0.00643275 4.21878e-22)
(0.0444173 -0.00627553 -1.36286e-21)
(0.0446674 -0.00610572 9.04341e-22)
(0.0449123 -0.00592791 -4.82408e-22)
(0.0451558 -0.00573837 5.95613e-22)
(0.0453955 -0.0055383 -1.11129e-21)
(0.0456314 -0.00532712 1.24793e-21)
(0.045863 -0.00510485 -1.94828e-21)
(0.0460901 -0.00487148 1.31781e-21)
(0.0463128 -0.00462857 2.13748e-21)
(0.0465326 -0.00437327 -1.45724e-21)
(0.0467434 -0.00410808 0)
(0.0469486 -0.00383077 0)
(0.0471491 -0.00354051 -8.79791e-22)
(0.0473423 -0.00324112 0)
(0.047531 -0.00293099 -9.52359e-22)
(0.0477129 -0.00260805 9.71393e-22)
(0.0478847 -0.00227529 -1.49104e-21)
(0.0480492 -0.00193078 3.33834e-23)
(0.0482051 -0.00157515 -5.16788e-22)
(0.0483542 -0.00120519 0)
(0.0484952 -0.0008245 -1.15129e-21)
(0.0486272 -0.00043384 8.96644e-22)
(0.0487499 -3.17712e-05 -7.56903e-22)
(0.0488623 0.000383736 4.73074e-22)
(0.048966 0.000815136 -3.54085e-24)
(0.0490589 0.00125531 1.74407e-22)
(0.0491397 0.0017045 -1.62193e-22)
(0.0492085 0.00216486 1.34182e-21)
(0.0492659 0.00264025 -6.80103e-22)
(0.049312 0.00312851 -7.09247e-22)
(0.0493448 0.00362634 1.29375e-21)
(0.0493633 0.00414033 4.01759e-21)
(0.0493691 0.00467116 -2.92988e-23)
(0.0493616 0.00521658 3.98852e-21)
(0.0493387 0.00577871 -1.35316e-21)
(0.0493013 0.00635655 -3.98731e-21)
(0.0492481 0.00694714 2.6824e-21)
(0.0491767 0.00754934 0)
(0.0490856 0.0081763 8.13656e-21)
(0.0489787 0.00882039 3.0483e-23)
(0.0488511 0.00948394 -2.69997e-21)
(0.0487021 0.0101662 -2.80554e-21)
(0.0485345 0.0108665 0)
(0.048347 0.0115937 2.5433e-21)
(0.0481364 0.0123455 8.02422e-21)
(0.0479023 0.0131163 0)
(0.047645 0.0139097 -5.34102e-21)
(0.0473634 0.0147292 3.16432e-21)
(0.0470525 0.0155846 -5.58089e-21)
(0.0467184 0.016477 2.79014e-21)
(0.0463542 0.0173896 -5.47779e-21)
(0.0460038 0.018329 -5.52155e-21)
(0.040093 -0.00810229 -7.38723e-22)
(0.0403523 -0.00808678 4.53445e-22)
(0.0406141 -0.00806325 -7.19714e-23)
(0.0408789 -0.008032 9.29206e-23)
(0.0411445 -0.0079927 -8.35182e-23)
(0.0414109 -0.00794505 2.1946e-22)
(0.0416778 -0.00788821 -3.06126e-22)
(0.0419457 -0.00782247 0)
(0.042215 -0.00774739 3.04477e-23)
(0.0424856 -0.00766297 0)
(0.042757 -0.00756908 2.43985e-22)
(0.043029 -0.00746557 -2.47031e-22)
(0.0433009 -0.00735226 -1.60277e-21)
(0.0435721 -0.00722914 1.27725e-21)
(0.043843 -0.00709566 -3.56073e-22)
(0.0441129 -0.00695152 -1.25354e-21)
(0.0443814 -0.00679695 4.31469e-22)
(0.0446476 -0.00663151 4.63425e-22)
(0.0449113 -0.00645563 1.6248e-21)
(0.045172 -0.00626857 -1.07794e-21)
(0.0454292 -0.00607082 -6.19282e-22)
(0.0456823 -0.00586202 1.29528e-21)
(0.0459313 -0.00564201 -6.02429e-22)
(0.0461764 -0.00541049 -7.29627e-22)
(0.0464172 -0.00516747 0)
(0.0466528 -0.00491315 8.03294e-22)
(0.0468823 -0.00464827 8.13728e-22)
(0.0471057 -0.00437186 -7.81164e-22)
(0.0473229 -0.00408349 0)
(0.0475342 -0.00378357 1.84e-21)
(0.0477399 -0.0034715 -9.88974e-22)
(0.0479387 -0.00314848 -6.57061e-23)
(0.0481291 -0.00281503 0)
(0.0483112 -0.00246959 5.17646e-22)
(0.0484855 -0.00211281 -1.65816e-21)
(0.0486515 -0.00174404 1.13029e-21)
(0.0488087 -0.00136368 0)
(0.0489569 -0.000972223 9.17222e-22)
(0.0490961 -0.000569111 -9.52701e-22)
(0.0492257 -0.000155107 -1.58871e-22)
(0.049345 0.000270735 0)
(0.0494538 0.000708348 -3.45192e-22)
(0.0495519 0.00115747 -1.7503e-22)
(0.0496392 0.00161928 1.65183e-22)
(0.0497152 0.00209432 -1.02874e-21)
(0.0497791 0.00258316 -7.25513e-22)
(0.0498307 0.00308515 1.37424e-21)
(0.0498694 0.00360054 -1.4292e-21)
(0.0498943 0.00413076 1.46249e-21)
(0.0499054 0.00467566 -1.41653e-21)
(0.0499025 0.00523459 -1.38989e-21)
(0.0498849 0.00580837 2.95237e-21)
(0.0498523 0.00639713 0)
(0.0498041 0.00700089 2.96403e-21)
(0.0497387 0.0076212 7.04301e-23)
(0.0496551 0.00826026 -2.90921e-21)
(0.049554 0.00891647 -2.90882e-21)
(0.0494342 0.00959101 5.79537e-21)
(0.0492947 0.0102856 -6.85676e-23)
(0.0491351 0.0110027 3.0024e-21)
(0.0489555 0.011742 -6.02394e-21)
(0.0487555 0.0125019 -3.09956e-21)
(0.0485328 0.0132856 3.66866e-23)
(0.048287 0.0140955 -2.93622e-21)
(0.0480172 0.0149335 -2.76258e-21)
(0.0477213 0.0158001 -9.15607e-21)
(0.0474056 0.0166981 0)
(0.0470555 0.0176226 -3.07131e-21)
(0.046719 0.0185885 3.04191e-21)
(0.0401038 -0.0085532 0)
(0.0403727 -0.00853672 1.14523e-22)
(0.040645 -0.0085118 2.41339e-22)
(0.0409215 -0.00847897 -1.66893e-22)
(0.041201 -0.00843759 1.58109e-22)
(0.0414823 -0.00838727 -2.42706e-22)
(0.041765 -0.00832767 8.94718e-23)
(0.0420485 -0.0082588 -1.60561e-22)
(0.0423325 -0.00818041 -1.69046e-22)
(0.0426169 -0.00809229 -9.8206e-22)
(0.0429015 -0.00799419 1.01336e-21)
(0.0431862 -0.00788589 1.3002e-21)
(0.0434709 -0.00776721 -2.40286e-22)
(0.0437551 -0.007638 -1.53289e-21)
(0.0440387 -0.00749807 1.24912e-21)
(0.0443214 -0.00734717 -4.84745e-22)
(0.0446029 -0.00718537 5.242e-22)
(0.0448826 -0.00701242 5.63464e-22)
(0.0451599 -0.00682837 -1.7445e-21)
(0.0454344 -0.00663304 5.48327e-22)
(0.0457055 -0.00642642 6.27293e-22)
(0.0459727 -0.00620831 0)
(0.0462356 -0.00597865 1.5499e-21)
(0.0464939 -0.00573736 -7.5566e-22)
(0.0467473 -0.00548446 -1.64382e-21)
(0.0469952 -0.00521999 -1.7585e-21)
(0.0472373 -0.00494388 3.48288e-21)
(0.0474733 -0.00465585 -1.83674e-21)
(0.0477029 -0.00435589 0)
(0.0479259 -0.004044 -1.98888e-21)
(0.0481419 -0.00372043 -4.95742e-23)
(0.0483504 -0.00338559 2.0898e-21)
(0.0485509 -0.00303929 -1.12538e-21)
(0.0487431 -0.00268112 2.88983e-21)
(0.048927 -0.00231121 -5.58507e-22)
(0.049102 -0.00192964 0)
(0.0492679 -0.00153647 0)
(0.0494244 -0.00113156 3.38377e-22)
(0.0495714 -0.000714998 3.2886e-22)
(0.0497083 -0.000286956 1.80254e-22)
(0.0498349 0.000152785 -5.8124e-24)
(0.0499507 0.000604953 1.78447e-22)
(0.0500556 0.00106996 0)
(0.0501491 0.00154766 -2.16812e-23)
(0.0502308 0.00203799 0)
(0.0503001 0.00254109 7.1256e-22)
(0.0503567 0.00305718 1.18094e-23)
(0.0504003 0.00358646 -2.30437e-21)
(0.0504302 0.00412933 0)
(0.0504463 0.00468626 -1.52925e-21)
(0.0504484 0.00525756 1.51202e-21)
(0.0504358 0.00584375 -2.96683e-21)
(0.0504082 0.0064453 0)
(0.0503649 0.0070626 -9.21578e-21)
(0.050305 0.00769618 6.70259e-23)
(0.0502277 0.00834702 3.06241e-21)
(0.050133 0.00901587 3.06386e-21)
(0.0500202 0.00970353 0)
(0.0498887 0.0104112 0)
(0.0497379 0.0111397 -3.01521e-21)
(0.0495678 0.0118898 6.04848e-21)
(0.0493778 0.0126623 6.06993e-21)
(0.0491666 0.013459 0)
(0.0489337 0.0142809 -6.5165e-21)
(0.048679 0.0151298 0)
(0.0484006 0.0160068 9.42665e-21)
(0.0481024 0.0169166 -3.20063e-21)
(0.0477691 0.0178533 -3.28815e-21)
(0.0474506 0.0188344 -3.53695e-21)
(0.0401221 -0.00903202 0)
(0.0404032 -0.00901492 0)
(0.0406869 -0.00898878 2.76084e-23)
(0.0409746 -0.00895422 1.05433e-22)
(0.0412657 -0.00891067 -1.68298e-22)
(0.0415597 -0.00885764 7.80876e-23)
(0.0418561 -0.00879493 0)
(0.0421542 -0.00872247 1.63088e-22)
(0.0424535 -0.00864006 0)
(0.0427534 -0.00854748 5.73711e-22)
(0.0430533 -0.00844449 1.27673e-22)
(0.0433531 -0.00833086 -6.549e-22)
(0.0436523 -0.00820639 0)
(0.0439508 -0.00807089 9.08137e-22)
(0.0442483 -0.0079242 -2.845e-21)
(0.0445444 -0.00776616 2.00966e-21)
(0.0448389 -0.00759669 -2.75304e-21)
(0.0451315 -0.00741567 5.78781e-22)
(0.0454218 -0.00722302 -6.64753e-22)
(0.0457092 -0.00701866 6.49879e-22)
(0.0459933 -0.00680251 7.26639e-22)
(0.0462737 -0.00657448 -2.25867e-21)
(0.0465498 -0.00633451 -1.5944e-21)
(0.0468211 -0.00608259 0)
(0.0470872 -0.00581868 1.78811e-21)
(0.0473478 -0.00554277 9.59804e-22)
(0.0476024 -0.00525481 -2.79095e-21)
(0.0478506 -0.00495477 9.60491e-22)
(0.048092 -0.00464267 -2.10207e-21)
(0.0483262 -0.00431854 3.1469e-21)
(0.0485529 -0.0039825 -1.15068e-21)
(0.0487718 -0.00363466 5.95848e-22)
(0.0489825 -0.00327496 0)
(0.0491846 -0.00290338 -5.98472e-22)
(0.0493778 -0.00251997 -6.18795e-22)
(0.0495617 -0.00212479 0)
(0.0497362 -0.00171786 7.01773e-22)
(0.0499009 -0.00129919 -1.05064e-21)
(0.0500555 -0.000868844 7.16229e-22)
(0.0501998 -0.000426868 -3.73833e-22)
(0.0503334 2.67474e-05 -6.55273e-24)
(0.050456 0.000492718 -3.0007e-22)
(0.050567 0.000971199 9.73975e-23)
(0.0506664 0.00146201 3.84248e-22)
(0.0507537 0.00196525 1.68706e-23)
(0.0508287 0.00248121 2.38696e-21)
(0.0508909 0.00301019 0)
(0.05094 0.00355245 1.56191e-21)
(0.0509756 0.00410837 -3.53704e-23)
(0.0509974 0.00467842 -1.60313e-21)
(0.051005 0.00526294 0)
(0.0509982 0.00586229 -1.63259e-21)
(0.0509763 0.00647688 1.61492e-21)
(0.050939 0.00710714 3.16884e-21)
(0.0508856 0.00775366 0)
(0.0508155 0.00841729 -6.47324e-21)
(0.0507285 0.00909888 6.55801e-21)
(0.0506241 0.00979915 -6.57433e-21)
(0.0505018 0.010519 -1.17812e-22)
(0.0503613 0.0112595 0)
(0.0502021 0.0120217 -3.33981e-21)
(0.0500238 0.0128065 3.23182e-21)
(0.0498258 0.0136151 3.57462e-21)
(0.0496073 0.014449 6.53526e-21)
(0.0493684 0.0153101 -1.04009e-20)
(0.0491071 0.0161994 6.82822e-21)
(0.0488273 0.017121 -3.41365e-21)
(0.0485138 0.0180713 3.66739e-21)
(0.0482203 0.0190636 1.02701e-20)
(0.0401397 -0.00953985 -3.48753e-22)
(0.0404373 -0.00952237 1.8976e-22)
(0.0407363 -0.00949523 1.28192e-22)
(0.0410382 -0.00945906 0)
(0.0413427 -0.00941334 6.46528e-23)
(0.0416496 -0.00935755 0)
(0.0419589 -0.00929155 -3.92353e-22)
(0.0422705 -0.00921523 -9.43038e-23)
(0.0425838 -0.00912843 7.66294e-22)
(0.0428984 -0.00903091 -3.3151e-22)
(0.0432135 -0.00892247 -3.3333e-22)
(0.0435288 -0.00880293 -4.22907e-22)
(0.0438436 -0.00867209 0)
(0.0441576 -0.00852977 0)
(0.0444702 -0.00837581 5.05711e-22)
(0.0447812 -0.00821006 5.48049e-22)
(0.0450901 -0.00803239 -1.27722e-21)
(0.0453967 -0.00784271 1.27342e-21)
(0.0457005 -0.00764092 1.40573e-21)
(0.0460012 -0.00742694 -1.5303e-21)
(0.0462984 -0.00720071 3.07913e-21)
(0.0465916 -0.00696218 2.10934e-23)
(0.0468803 -0.00671132 -1.7608e-21)
(0.0471642 -0.00644809 -9.45362e-22)
(0.0474427 -0.00617249 -1.94354e-21)
(0.0477154 -0.00588452 1.9448e-21)
(0.0479819 -0.00558422 2.10723e-21)
(0.0482417 -0.00527161 -2.11077e-21)
(0.0484944 -0.00494671 0)
(0.0487396 -0.00460958 0)
(0.048977 -0.00426029 2.99968e-21)
(0.0492062 -0.00389891 7.65492e-23)
(0.0494268 -0.00352552 -1.26496e-21)
(0.0496384 -0.00314018 -1.34321e-21)
(0.0498407 -0.00274294 1.35102e-21)
(0.0500334 -0.00233387 0)
(0.0502162 -0.00191302 -7.07095e-22)
(0.0503888 -0.00148045 -1.14583e-21)
(0.050551 -0.0010362 7.65373e-22)
(0.0507024 -0.00058031 -1.16648e-23)
(0.050843 -0.000112858 -6.47148e-23)
(0.0509722 0.000366979 3.05073e-22)
(0.0510896 0.000859254 2.15164e-22)
(0.0511952 0.00136394 4.23524e-22)
(0.0512886 0.00188117 -2.08943e-21)
(0.0513695 0.00241113 1.61319e-23)
(0.0514375 0.00295407 0)
(0.0514925 0.00351022 -1.75411e-21)
(0.051534 0.00407989 5.14486e-21)
(0.0515617 0.00466343 -3.46554e-21)
(0.0515754 0.00526121 -1.72985e-21)
(0.0515747 0.00587361 -6.04372e-23)
(0.0515593 0.00650108 -1.69903e-21)
(0.0515288 0.00714416 -4.40633e-23)
(0.0514827 0.00780348 3.44487e-21)
(0.0514206 0.00847977 -3.57385e-21)
(0.0513421 0.00917383 -3.50478e-21)
(0.051247 0.00988646 6.98446e-21)
(0.0511347 0.0106186 -7.38837e-23)
(0.051005 0.0113712 3.53691e-21)
(0.0508575 0.0121453 -3.50401e-21)
(0.0506918 0.0129419 3.44319e-21)
(0.0505074 0.0137624 -6.91899e-21)
(0.0503039 0.0146081 -3.60796e-21)
(0.050081 0.0154808 6.94384e-21)
(0.0498372 0.0163815 -3.88149e-21)
(0.0495763 0.0173143 -1.12489e-20)
(0.0492826 0.0182757 -3.51778e-21)
(0.0490118 0.0192764 0)
(0.0401508 -0.0100786 0)
(0.0404674 -0.0100608 -2.17807e-23)
(0.0407851 -0.0100328 -3.08388e-23)
(0.0411049 -0.0099952 0)
(0.0414265 -0.00994741 0)
(0.0417496 -0.00988893 1.8418e-22)
(0.0420742 -0.0098196 -7.11418e-22)
(0.0424005 -0.00973933 1.04798e-21)
(0.0427282 -0.00964796 -5.26322e-22)
(0.0430572 -0.00954527 3.36414e-22)
(0.043387 -0.00943107 0)
(0.0437172 -0.00930521 4.29005e-22)
(0.0440472 -0.00916751 -5.27207e-22)
(0.0443766 -0.00901781 0)
(0.0447047 -0.00885597 0)
(0.0450312 -0.00868185 6.54178e-22)
(0.0453555 -0.00849534 9.47451e-23)
(0.0456772 -0.00829632 -1.40767e-21)
(0.0459958 -0.00808472 -1.52621e-21)
(0.0463108 -0.00786047 1.58633e-21)
(0.0466219 -0.00762352 8.28234e-22)
(0.0469285 -0.00737384 3.66388e-21)
(0.0472304 -0.0071114 4.80214e-23)
(0.047527 -0.0068362 -1.06855e-21)
(0.047818 -0.00654827 2.02466e-21)
(0.0481027 -0.00624763 -1.07926e-21)
(0.048381 -0.00593434 2.1979e-21)
(0.0486522 -0.00560845 0)
(0.0489159 -0.00527001 0)
(0.0491719 -0.00491912 0)
(0.0494196 -0.00455586 -6.25986e-22)
(0.0496588 -0.00418034 -1.31159e-21)
(0.049889 -0.00379268 1.3599e-21)
(0.0501098 -0.00339296 1.44113e-21)
(0.050321 -0.00298126 -1.44901e-21)
(0.0505222 -0.00255767 0)
(0.0507131 -0.00212229 7.87662e-22)
(0.0508936 -0.00167518 -4.03822e-22)
(0.0510633 -0.0012164 0)
(0.0512219 -0.000745995 4.25573e-22)
(0.0513694 -0.000264098 -8.17856e-23)
(0.0515052 0.000230279 5.46978e-23)
(0.0516291 0.000736976 -2.15864e-22)
(0.0517409 0.001256 0)
(0.0518405 0.00178744 -9.02522e-22)
(0.0519274 0.00233143 8.91624e-22)
(0.0520016 0.0028882 0)
(0.0520626 0.00345798 -6.09901e-23)
(0.0521103 0.00404107 3.50772e-23)
(0.0521443 0.00463785 1.77002e-21)
(0.0521646 0.0052487 0)
(0.0521707 0.00587405 -9.92472e-23)
(0.0521624 0.00651439 -1.78189e-21)
(0.0521393 0.00717026 -5.57679e-21)
(0.0521012 0.00784229 -1.26313e-22)
(0.0520477 0.00853117 3.58708e-21)
(0.0519784 0.00923767 0)
(0.051893 0.00996262 0)
(0.0517913 0.0107069 3.82014e-21)
(0.051673 0.0114715 0)
(0.0515376 0.0122574 0)
(0.051385 0.0130658 -8.07487e-23)
(0.0512147 0.0138978 -3.7507e-21)
(0.0510262 0.0147549 -7.74011e-21)
(0.0508196 0.0156388 7.73207e-21)
(0.0505933 0.0165503 -4.42565e-22)
(0.0503511 0.017494 3.63095e-21)
(0.0500772 0.018465 3.89138e-21)
(0.0498295 0.0194797 0)
(0.040156 -0.0106505 0)
(0.0404918 -0.0106324 2.21362e-23)
(0.0408291 -0.0106035 1.79085e-22)
(0.0411688 -0.0105644 -2.65825e-23)
(0.0415102 -0.0105145 0)
(0.0418526 -0.0104534 -6.54112e-22)
(0.0421959 -0.0103807 1.27286e-21)
(0.0425401 -0.0102964 1.0707e-22)
(0.042885 -0.0102004 -1.7848e-21)
(0.0432305 -0.0100924 3.32092e-22)
(0.0435763 -0.0099722 -4.90808e-22)
(0.0439222 -0.0098397 -5.41724e-22)
(0.0442677 -0.00969475 1.70971e-21)
(0.0446125 -0.00953719 -2.44191e-21)
(0.0449562 -0.00936691 1.2667e-21)
(0.0452982 -0.00918379 -7.87581e-22)
(0.0456379 -0.00898774 3.01803e-21)
(0.0459749 -0.00877866 -7.16292e-22)
(0.0463087 -0.0085565 9.30329e-22)
(0.0466387 -0.00832121 -8.35851e-22)
(0.0469645 -0.00807275 9.56105e-23)
(0.0472855 -0.00781111 -5.92529e-21)
(0.0476013 -0.00753629 -1.08906e-21)
(0.0479113 -0.00724832 -9.15821e-23)
(0.0482153 -0.00694725 3.36503e-21)
(0.0485126 -0.00663312 -1.12877e-21)
(0.048803 -0.00630601 2.46794e-21)
(0.0490858 -0.00596602 -3.77221e-21)
(0.0493608 -0.00561323 0)
(0.0496276 -0.00524777 -1.36664e-21)
(0.0498856 -0.00486976 1.37038e-21)
(0.0501347 -0.00447934 4.56008e-23)
(0.0503743 -0.00407664 -7.6466e-22)
(0.0506043 -0.00366179 -7.87784e-22)
(0.0508241 -0.00323492 2.402e-21)
(0.0510337 -0.00279614 -1.60004e-21)
(0.0512326 -0.00234558 1.27125e-21)
(0.0514207 -0.00188333 -1.71355e-21)
(0.0515977 -0.0014095 8.72435e-22)
(0.0517634 -0.000924119 -2.20298e-22)
(0.0519177 -0.00042736 0)
(0.05206 8.18891e-05 2.36344e-22)
(0.0521903 0.000603247 -2.33399e-22)
(0.0523084 0.00113675 -4.76647e-22)
(0.0524141 0.0016825 1.42755e-21)
(0.0525072 0.00224063 -9.65082e-22)
(0.0525875 0.00281135 -9.484e-22)
(0.0526548 0.00339492 0)
(0.0527089 0.00399164 -3.90914e-21)
(0.0527495 0.00460188 3.85111e-21)
(0.0527766 0.00522603 -1.87632e-21)
(0.0527898 0.00586453 1.85846e-21)
(0.0527889 0.00651787 1.96635e-21)
(0.0527737 0.00718659 3.82134e-21)
(0.0527439 0.00787132 3.79161e-21)
(0.0526992 0.00857275 0)
(0.0526394 0.00929163 -4.01936e-21)
(0.0525641 0.0100288 0)
(0.0524732 0.0107851 1.29522e-22)
(0.0523664 0.0115615 -3.83889e-21)
(0.0522434 0.012359 3.93625e-21)
(0.0521038 0.0131788 3.87513e-21)
(0.0519476 0.014022 -4.11382e-21)
(0.0517742 0.01489 -1.40822e-22)
(0.0515836 0.0157844 7.69624e-23)
(0.0513745 0.0167063 1.21428e-20)
(0.05115 0.0176593 4.2362e-21)
(0.0508975 0.0186414 4.20424e-21)
(0.0506702 0.0196621 -4.15313e-21)
(0.0401584 -0.0112585 0)
(0.0405133 -0.0112398 0)
(0.0408702 -0.0112097 2.27484e-22)
(0.0412299 -0.0111689 -3.47941e-22)
(0.0415917 -0.0111168 -2.21984e-22)
(0.0419549 -0.0110528 0)
(0.0423189 -0.0109766 0)
(0.0426836 -0.0108882 3.91803e-22)
(0.0430486 -0.0107873 -8.93694e-22)
(0.0434136 -0.0106737 -1.69423e-22)
(0.0437782 -0.0105473 2.59875e-21)
(0.0441422 -0.0104079 -5.50946e-22)
(0.0445053 -0.0102554 6.51448e-22)
(0.0448672 -0.0100895 -1.30831e-21)
(0.0452274 -0.00991034 7.68519e-22)
(0.0455856 -0.00971767 0)
(0.0459413 -0.00951146 0)
(0.0462941 -0.00929163 4.80342e-23)
(0.0466433 -0.00905817 -2.78412e-21)
(0.0469886 -0.00881103 9.4391e-22)
(0.0473293 -0.00855023 -1.07103e-21)
(0.047665 -0.00827578 1.0383e-21)
(0.0479951 -0.0079877 1.1291e-21)
(0.0483191 -0.00768606 -1.07848e-21)
(0.0486365 -0.00737092 -1.1774e-21)
(0.0489469 -0.00704238 0)
(0.0492498 -0.00670056 0)
(0.0495447 -0.00634556 2.01748e-21)
(0.0498313 -0.00597753 0)
(0.0501091 -0.00559663 1.47174e-21)
(0.0503777 -0.00520301 -1.47533e-21)
(0.0506368 -0.00479685 -7.48201e-22)
(0.0508861 -0.00437831 7.7111e-22)
(0.0511251 -0.00394756 1.63873e-21)
(0.0513537 -0.00350478 -8.17436e-22)
(0.0515715 -0.00305013 -8.75249e-22)
(0.0517783 -0.00258374 9.0691e-22)
(0.0519739 -0.00210577 0)
(0.0521581 -0.00161632 0)
(0.0523307 -0.00111547 2.48542e-22)
(0.0524916 -0.000603303 0)
(0.0526404 -7.87908e-05 0)
(0.052777 0.00045764 -7.59692e-22)
(0.0529012 0.00100601 1.01213e-21)
(0.053013 0.00156641 -5.16931e-22)
(0.0531123 0.00213899 9.82165e-22)
(0.0531987 0.00272395 0)
(0.0532723 0.00332155 3.08431e-21)
(0.0533328 0.00393207 -3.84427e-23)
(0.0533801 0.00455589 0)
(0.053414 0.0051934 -4.08631e-21)
(0.0534344 0.00584505 -4.24597e-23)
(0.0534411 0.00651135 -4.03365e-21)
(0.0534339 0.00719285 -2.10951e-21)
(0.0534126 0.00789018 -4.14275e-21)
(0.0533769 0.00860402 4.09938e-21)
(0.0533266 0.00933513 4.03005e-21)
(0.0532616 0.0100843 0)
(0.0531815 0.0108524 -4.18807e-21)
(0.0530861 0.0116404 7.95835e-23)
(0.0529753 0.0124492 0)
(0.0528487 0.01328 0)
(0.0527061 0.0141339 4.12019e-21)
(0.0525472 0.0150122 0)
(0.0523721 0.0159165 0)
(0.0521797 0.0168479 -4.28103e-21)
(0.0519726 0.0178092 -4.07739e-21)
(0.0517405 0.0188011 -4.51834e-21)
(0.0515191 0.019821 0)
(0.0401608 -0.0119059 0)
(0.0405352 -0.0118863 0)
(0.0409117 -0.0118547 0)
(0.0412915 -0.0118119 -2.13509e-22)
(0.0416738 -0.0117572 -3.33348e-22)
(0.0420578 -0.0116899 -1.22838e-22)
(0.042443 -0.0116098 6.7176e-22)
(0.0428291 -0.0115168 -3.97502e-22)
(0.0432156 -0.0114108 5.13889e-22)
(0.0436019 -0.0112913 1.08124e-21)
(0.0439877 -0.0111583 0)
(0.0443724 -0.0110116 0)
(0.0447556 -0.0108511 -5.41791e-23)
(0.045137 -0.0106765 2.25912e-21)
(0.0455162 -0.0104879 -3.31532e-21)
(0.0458927 -0.0102852 -1.13518e-22)
(0.0462661 -0.0100682 1.78213e-21)
(0.0466359 -0.00983699 9.3309e-22)
(0.0470018 -0.00959151 -8.30668e-23)
(0.0473631 -0.00933178 0)
(0.0477195 -0.00905782 2.25343e-21)
(0.0480704 -0.00876968 0)
(0.0484152 -0.00846744 2.45274e-21)
(0.0487535 -0.00815119 -3.82558e-21)
(0.0490848 -0.00782104 3.96534e-21)
(0.0494085 -0.00747713 1.42074e-21)
(0.0497242 -0.00711959 -2.17704e-21)
(0.0500315 -0.00674861 2.22287e-21)
(0.0503299 -0.00636436 -1.49127e-21)
(0.0506189 -0.00596703 0)
(0.0508983 -0.00555685 -1.63148e-21)
(0.0511676 -0.00513401 -8.99161e-22)
(0.0514265 -0.00469873 1.68428e-21)
(0.0516747 -0.00425122 -1.75618e-21)
(0.051912 -0.0037917 9.11111e-22)
(0.052138 -0.00332037 -9.15737e-22)
(0.0523526 -0.00283741 -4.61865e-22)
(0.0525557 -0.002343 5.02749e-22)
(0.0527469 -0.00183727 2.47492e-22)
(0.0529263 -0.00132036 -7.59259e-22)
(0.0530937 -0.000792132 -6.73977e-23)
(0.0532488 -0.000251876 0)
(0.0533915 0.000300076 2.57118e-22)
(0.0535217 0.000863697 -5.16198e-22)
(0.0536395 0.00143909 5.17966e-22)
(0.0537448 0.00202638 0)
(0.0538373 0.00262578 0)
(0.053917 0.00323754 1.11409e-21)
(0.0539839 0.00386197 -2.13405e-21)
(0.0540378 0.00449944 -4.37814e-21)
(0.0540786 0.00515035 8.6311e-21)
(0.0541062 0.00581516 -2.21544e-21)
(0.0541205 0.0064944 2.15112e-21)
(0.0541213 0.00718862 2.11453e-21)
(0.0541084 0.00789847 -4.37503e-21)
(0.0540816 0.00862461 4.32893e-21)
(0.0540408 0.00936778 0)
(0.0539857 0.0101288 -4.49577e-21)
(0.0539162 0.0109085 8.72493e-23)
(0.0538319 0.0117077 4.37715e-21)
(0.0537328 0.0125275 0)
(0.0536185 0.0133688 0)
(0.0534889 0.0142329 0)
(0.0533438 0.0151208 9.139e-21)
(0.0531836 0.0160341 4.71753e-21)
(0.0530068 0.0169737 4.51835e-21)
(0.0528181 0.0179431 -9.02274e-21)
(0.0526043 0.018942 -2.43451e-22)
(0.0524075 0.0199774 4.79941e-21)
(0.0401649 -0.0125963 0)
(0.0405596 -0.0125756 -2.89931e-22)
(0.0409566 -0.0125423 3.89021e-22)
(0.0413571 -0.012497 -4.67083e-22)
(0.0417603 -0.0124393 8.79301e-22)
(0.0421653 -0.0123682 3.99475e-22)
(0.0425719 -0.0122838 4.63108e-22)
(0.0429796 -0.0121857 0)
(0.0433878 -0.0120739 -1.10933e-21)
(0.0437961 -0.011948 -1.21914e-21)
(0.0442039 -0.0118078 1.28023e-21)
(0.0446105 -0.0116533 -7.70296e-22)
(0.0450155 -0.0114841 8.8673e-22)
(0.0454184 -0.0113003 -6.8516e-22)
(0.0458185 -0.0111016 -3.69064e-21)
(0.0462155 -0.0108881 -1.20128e-22)
(0.0466087 -0.0106597 -1.18551e-22)
(0.0469978 -0.0104164 2.07707e-21)
(0.0473822 -0.0101582 1.07897e-21)
(0.0477614 -0.00988504 2.4067e-21)
(0.0481349 -0.00959708 -2.30469e-21)
(0.0485023 -0.00929439 0)
(0.048863 -0.00897706 9.87776e-23)
(0.0492165 -0.00864524 0)
(0.0495623 -0.00829907 -1.38514e-21)
(0.0499 -0.00793875 -1.43458e-21)
(0.0502291 -0.00756447 7.41835e-22)
(0.050549 -0.00717645 0)
(0.0508595 -0.00677491 8.44811e-22)
(0.05116 -0.00636012 1.70475e-21)
(0.0514502 -0.00593231 -1.70792e-21)
(0.0517298 -0.00549177 8.63151e-22)
(0.0519984 -0.00503875 -1.85063e-21)
(0.0522558 -0.00457353 3.71876e-21)
(0.0525017 -0.00409635 -9.53722e-22)
(0.0527359 -0.00360746 0)
(0.0529582 -0.0031071 -5.23003e-22)
(0.0531684 -0.00259546 3.02752e-23)
(0.0533666 -0.00207275 7.97573e-22)
(0.0535526 -0.00153914 -6.80034e-22)
(0.0537262 -0.000994213 1.33596e-22)
(0.0538873 -0.000437677 -4.23818e-22)
(0.0540359 0.000130236 2.77234e-22)
(0.0541719 0.000709501 0)
(0.0542955 0.0013002 0)
(0.0544065 0.00190248 0)
(0.0545049 0.00251654 1.16078e-21)
(0.0545906 0.00314264 1.16291e-21)
(0.0546636 0.00378109 0)
(0.0547239 0.00443228 2.26171e-21)
(0.0547714 0.00509663 2.37955e-21)
(0.054806 0.0057746 2.34082e-21)
(0.0548276 0.00646673 0)
(0.0548361 0.00717359 0)
(0.0548314 0.0078958 -4.61459e-21)
(0.0548132 0.00863405 4.5657e-21)
(0.0547814 0.00938906 0)
(0.0547358 0.0101616 4.50309e-21)
(0.0546762 0.0109525 -4.5162e-21)
(0.0546025 0.0117627 -4.76817e-21)
(0.0545143 0.012593 4.69773e-21)
(0.0544117 0.0134444 -4.64979e-21)
(0.0542945 0.014318 0)
(0.0541626 0.0152149 -4.61428e-21)
(0.0540164 0.0161365 1.60261e-22)
(0.0538548 0.0170834 -9.6745e-21)
(0.0536839 0.0180598 -9.84192e-21)
(0.0534858 0.0190625 9.59096e-21)
(0.0533278 0.0201006 -4.7936e-21)
(0.0401713 -0.0133334 -6.01702e-23)
(0.0405878 -0.0133115 0)
(0.0410065 -0.0132761 -1.03309e-22)
(0.0414288 -0.0132281 8.10639e-22)
(0.0418539 -0.0131669 -1.61513e-21)
(0.0422809 -0.0130917 3.96613e-22)
(0.0427095 -0.0130023 -4.69723e-22)
(0.0431393 -0.0128986 1.20297e-21)
(0.0435697 -0.0127803 -5.97492e-22)
(0.0440003 -0.0126473 -6.58466e-22)
(0.0444304 -0.0124993 -8.00267e-22)
(0.0448595 -0.012336 2.48549e-21)
(0.0452868 -0.0121575 -7.6852e-22)
(0.0457119 -0.0119636 2.93367e-21)
(0.046134 -0.0117541 1.08628e-21)
(0.0465527 -0.011529 1.27103e-22)
(0.0469672 -0.0112883 -2.17027e-21)
(0.0473771 -0.011032 0)
(0.0477818 -0.01076 0)
(0.0481806 -0.0104726 -1.33985e-21)
(0.048573 -0.0101697 -1.29179e-21)
(0.0489585 -0.00985139 -2.84731e-21)
(0.0493366 -0.00951795 1.44285e-21)
(0.0497067 -0.0091695 3.05843e-21)
(0.0500684 -0.00880624 -3.05413e-21)
(0.0504211 -0.00842841 8.3293e-22)
(0.0507644 -0.00803626 8.59076e-22)
(0.0510979 -0.00763006 0)
(0.0514211 -0.00721011 -8.52014e-22)
(0.0517336 -0.00677671 -1.83401e-21)
(0.0520351 -0.00633017 -4.69027e-23)
(0.0523252 -0.00587082 1.88778e-21)
(0.0526037 -0.00539899 -1.01281e-21)
(0.0528703 -0.004915 0)
(0.0531247 -0.00441916 5.32038e-22)
(0.053367 -0.00391177 -5.45002e-22)
(0.0535968 -0.00339311 5.26191e-22)
(0.0538141 -0.00286343 -1.11061e-21)
(0.0540189 -0.00232296 0)
(0.0542111 -0.00177196 -1.49713e-22)
(0.0543907 -0.00120967 1.46833e-22)
(0.0545575 -0.000636291 -2.29041e-22)
(0.0547116 -5.1945e-05 8.88066e-22)
(0.054853 0.000543357 -1.78097e-21)
(0.0549819 0.00114969 1.17912e-21)
(0.0550983 0.00176721 1.19809e-21)
(0.0552021 0.00239611 -1.12173e-21)
(0.0552934 0.00303667 2.46668e-21)
(0.0553722 0.00368923 -2.37737e-21)
(0.0554384 0.00435416 -5.97835e-21)
(0.0554921 0.00503191 4.43835e-23)
(0.0555333 0.00572296 -2.34425e-21)
(0.0555617 0.00642785 0)
(0.0555774 0.00714716 0)
(0.0555803 0.00788153 -4.86175e-21)
(0.0555701 0.00863163 7.19872e-21)
(0.0555467 0.00939818 -4.82027e-21)
(0.05551 0.010182 0)
(0.0554599 0.0109838 5.0028e-21)
(0.0553961 0.0118044 9.70029e-21)
(0.0553186 0.0126448 -4.78534e-21)
(0.0552272 0.0135059 -7.27971e-23)
(0.055122 0.0143887 4.91632e-21)
(0.055003 0.015294 -8.64167e-23)
(0.0548707 0.0162235 -1.00208e-20)
(0.0547241 0.0171772 9.92045e-21)
(0.0545692 0.0181591 4.9585e-21)
(0.054387 0.0191655 0)
(0.0542673 0.020209 0)
(0.0401801 -0.014121 6.10799e-23)
(0.04062 -0.0140977 6.50998e-22)
(0.041062 -0.0140602 -5.17886e-22)
(0.0415076 -0.0140092 0)
(0.0419561 -0.0139442 -2.04338e-22)
(0.0424066 -0.0138644 -1.09963e-21)
(0.0428585 -0.0137696 7.78427e-22)
(0.0433115 -0.0136596 -1.72325e-21)
(0.0437652 -0.0135343 1.36529e-21)
(0.0442189 -0.0133933 0)
(0.0446721 -0.0132366 3.60487e-22)
(0.045124 -0.0130639 0)
(0.0455742 -0.0128751 1.09645e-21)
(0.046022 -0.01267 -3.02107e-21)
(0.0464666 -0.0124487 0)
(0.0469076 -0.012211 0)
(0.0473441 -0.0119569 0)
(0.0477755 -0.0116865 -1.97099e-21)
(0.0482013 -0.0113998 2.6333e-21)
(0.0486207 -0.0110968 1.35415e-21)
(0.0490331 -0.0107777 0)
(0.049438 -0.0104427 0)
(0.0498347 -0.010092 0)
(0.0502226 -0.00972565 -4.16668e-21)
(0.0506013 -0.00934406 5.02716e-21)
(0.0509702 -0.00894747 -2.55165e-21)
(0.0513288 -0.0085362 -1.79545e-21)
(0.0516766 -0.00811057 1.87043e-21)
(0.0520133 -0.00767094 -1.8709e-21)
(0.0523385 -0.00721769 1.00805e-21)
(0.0526518 -0.00675119 -2.02378e-21)
(0.0529529 -0.00627184 9.67426e-22)
(0.0532415 -0.00578004 2.10586e-21)
(0.0535175 -0.00527617 1.11193e-21)
(0.0537807 -0.0047606 -5.35435e-22)
(0.0540309 -0.00423371 5.4831e-22)
(0.0542681 -0.00369582 0)