/*--------------------------------*- C++ -*----------------------------------*\
| =========                 |                                                 |
| \\      /  F ield         | OpenFOAM: The Open Source CFD Toolbox           |
|  \\    /   O peration     | Version:  2312                                  |
|   \\  /    A nd           | Website:  www.openfoam.com                      |
|    \\/     M anipulation  |                                                 |
\*---------------------------------------------------------------------------*/
FoamFile
{
    version     2.0;
    format      ascii;
    arch        "LSB;label=32;scalar=64";
    class       volScalarField;
    location    "800";
    object      epsilon;
}
// * * * * * * * * * * * * * * * * * * * * * * * * * * * * * * * * * * * * * //

dimensions      [0 2 -3 0 0 0 0];

internalField   nonuniform List<scalar> 
76025
(
0.000260137
0.000259799
0.000259423
0.000259079
0.00025839
0.000257855
0.000257064
0.000256526
0.000255932
0.000255499
0.000255003
0.000254588
0.000254063
0.000253693
0.000253275
0.000252903
0.000252318
0.000251914
0.000251224
0.00025072
0.000250005
0.000249453
0.000248769
0.000248127
0.000247521
0.000246926
0.000246396
0.000245781
0.000245162
0.000244536
0.000243731
0.000243245
0.000242445
0.000241829
0.000241056
0.000240307
0.000239788
0.000239092
0.000238734
0.000237955
0.000238057
0.000238243
0.000239163
0.000240156
0.000242069
0.000243942
0.000246844
0.000249416
0.000253463
0.000256979
0.000261993
0.000266672
0.000272372
0.000277764
0.000284902
0.000292367
0.000300458
0.000310348
0.000320337
0.000333372
0.000346206
0.000360137
0.000384843
0.000403023
0.000442802
0.000469894
0.000514488
0.00057287
0.000645771
0.000261895
0.00026149
0.000261045
0.00026073
0.000260249
0.000259851
0.000259291
0.000258753
0.000258149
0.000257587
0.000257007
0.000256517
0.000255967
0.00025548
0.000255015
0.000254587
0.000254134
0.00025368
0.000253216
0.000252737
0.00025221
0.000251695
0.000251122
0.000250595
0.000249902
0.000249286
0.000248531
0.000247907
0.000247245
0.000246629
0.000246046
0.000245472
0.00024507
0.000244409
0.000244002
0.000243719
0.000243845
0.000244092
0.000244592
0.000245256
0.000246267
0.000247471
0.000249089
0.000250966
0.000253239
0.000255858
0.000258722
0.00026218
0.000265583
0.000269999
0.000273933
0.000279661
0.000284403
0.000292225
0.000298742
0.000308905
0.000317725
0.000330193
0.000342029
0.000357324
0.000374448
0.000396101
0.00042353
0.000450237
0.000495379
0.000530205
0.000610771
0.000665308
0.000802014
0.000264555
0.000264176
0.000263688
0.000263289
0.00026284
0.000262448
0.000262004
0.000261543
0.000261035
0.0002605
0.000259939
0.000259408
0.000258897
0.000258386
0.000257922
0.000257472
0.000257029
0.000256584
0.00025613
0.000255705
0.000255249
0.000254857
0.000254515
0.000254138
0.000253798
0.000253394
0.000252876
0.00025244
0.000251817
0.000251494
0.000250544
0.000250664
0.000250823
0.000250948
0.00025125
0.000251621
0.000252229
0.000252904
0.000253892
0.000254935
0.000256383
0.000257858
0.00025989
0.000261878
0.000264572
0.000267097
0.000270512
0.000273744
0.00027802
0.000282315
0.000287706
0.000293656
0.000300559
0.000308946
0.000317544
0.00032864
0.000338851
0.0003528
0.000365963
0.000384249
0.000404494
0.000428777
0.000460568
0.00049231
0.000546181
0.000592297
0.000681758
0.000749079
0.000893171
0.000267716
0.000267419
0.000266997
0.000266574
0.000266128
0.000265732
0.000265336
0.000264948
0.000264529
0.000264082
0.000263592
0.000263078
0.00026257
0.000262064
0.000261603
0.000261162
0.000260792
0.000260421
0.000260117
0.000259849
0.000259602
0.00025921
0.000258789
0.000258779
0.000257972
0.000257677
0.000258022
0.000258266
0.000258352
0.000258418
0.000258505
0.000258683
0.000259008
0.000259416
0.000260008
0.000260678
0.000261566
0.00026253
0.000263781
0.000265128
0.000266851
0.000268663
0.000270965
0.000273323
0.000276316
0.000279345
0.000283235
0.000287222
0.000292286
0.00029765
0.000304171
0.000311369
0.000319577
0.000328964
0.000338879
0.000350689
0.000362771
0.000378417
0.000395126
0.000417512
0.000442411
0.000473169
0.000512033
0.000553915
0.000622185
0.000680029
0.000795409
0.000882648
0.00108042
0.000271821
0.000271617
0.0002713
0.00027091
0.000270486
0.000270086
0.000269705
0.000269332
0.000268985
0.000268652
0.000268339
0.000268033
0.000267707
0.0002674
0.000267143
0.00026685
0.000266573
0.000266295
0.000265803
0.000265458
0.00026466
0.000264665
0.000264656
0.000264717
0.000264777
0.000264892
0.000265088
0.000265352
0.000265682
0.00026607
0.000266548
0.000267094
0.000267773
0.000268525
0.000269451
0.00027045
0.000271685
0.000273
0.000274669
0.000276424
0.000278665
0.000280934
0.000283865
0.000286733
0.000290522
0.000294163
0.000299113
0.000303848
0.000310326
0.000316512
0.000324732
0.000332592
0.000342664
0.000352477
0.000364757
0.000377484
0.000393518
0.000411468
0.000434054
0.000459721
0.000491491
0.000527631
0.000575426
0.000630297
0.000711321
0.00079003
0.000930054
0.00104433
0.00130055
0.000277584
0.000277421
0.000277208
0.000276962
0.000276617
0.000276214
0.000275889
0.000275624
0.000275403
0.000274972
0.000274737
0.000274029
0.000273938
0.00027334
0.00027295
0.000272696
0.000271827
0.000271957
0.000272155
0.000272372
0.000272498
0.000272671
0.000272883
0.000273128
0.000273426
0.00027377
0.000274176
0.000274632
0.000275168
0.000275778
0.000276496
0.00027733
0.000278308
0.000279412
0.000280712
0.000282136
0.000283834
0.000285655
0.000287894
0.00029023
0.000293123
0.000296029
0.000299682
0.00030326
0.000307882
0.000312377
0.00031835
0.000324126
0.00033182
0.000339114
0.000348668
0.000357645
0.000369446
0.000380753
0.000395981
0.000411092
0.000431784
0.000452656
0.000481521
0.000510246
0.000551545
0.000593485
0.000658806
0.000726348
0.000832163
0.000934927
0.00111467
0.00127506
0.00162024
0.000284113
0.000284141
0.000284194
0.000283594
0.000283522
0.000283719
0.000283701
0.000282986
0.000282906
0.000282506
0.000282373
0.000281375
0.000281544
0.000281783
0.000281882
0.000282038
0.000282069
0.000282177
0.000282387
0.000282667
0.000283004
0.000283368
0.000283797
0.000284262
0.000284808
0.0002854
0.000286095
0.000286846
0.000287708
0.000288645
0.000289701
0.000290877
0.0002922
0.000293658
0.000295361
0.000297209
0.000299404
0.000301726
0.000304533
0.000307426
0.000310944
0.000314488
0.000318866
0.000323236
0.000328752
0.000334278
0.000341349
0.000348387
0.000357348
0.000366117
0.000377226
0.00038819
0.000402319
0.000416533
0.00043513
0.000453897
0.00047891
0.000504192
0.00053938
0.000574735
0.000627904
0.000681949
0.000769039
0.000854592
0.000994258
0.00113195
0.00137162
0.00161047
0.00205394
0.000293275
0.000292646
0.0002925
0.000292819
0.000292047
0.000292356
0.000292663
0.000292808
0.000292963
0.000293011
0.000293185
0.000293196
0.00029331
0.000293534
0.000293802
0.000294116
0.000294445
0.000294791
0.000295187
0.000295626
0.000296129
0.00029667
0.000297278
0.000297931
0.000298671
0.000299476
0.000300396
0.000301417
0.000302576
0.000303859
0.000305302
0.000306902
0.00030869
0.000310625
0.000312838
0.000315211
0.000317962
0.000320885
0.000324344
0.000327983
0.000332308
0.000336797
0.000342171
0.000347732
0.000354451
0.000361427
0.00036984
0.000378564
0.000389038
0.00039991
0.000413076
0.000426969
0.000443855
0.000461705
0.000483646
0.000506979
0.000536891
0.000569181
0.000613084
0.000660168
0.000729611
0.000802616
0.000917762
0.00103066
0.00122271
0.00141221
0.00175002
0.00208829
0.00267454
0.000303743
0.000304123
0.000304565
0.000305014
0.000305192
0.000305407
0.000305652
0.000305887
0.000306153
0.00030638
0.000306644
0.000306885
0.000307149
0.000307457
0.000307827
0.000308255
0.000308767
0.000309331
0.000309971
0.000310656
0.000311423
0.000312244
0.000313173
0.000314173
0.000315288
0.000316485
0.000317806
0.000319225
0.000320769
0.000322455
0.000324305
0.000326362
0.000328639
0.000331157
0.000334001
0.000337126
0.000340668
0.000344505
0.000348889
0.000353575
0.000358935
0.000364613
0.000371169
0.000378127
0.000386227
0.000394857
0.000404891
0.000415675
0.000428214
0.000441845
0.000457771
0.000475125
0.000495331
0.000517656
0.000544345
0.00057475
0.000612559
0.000656556
0.000713355
0.000779576
0.000870561
0.000974372
0.00112579
0.00128915
0.00155368
0.00182727
0.00229905
0.00275744
0.00359856
0.000318331
0.00031909
0.000319865
0.000320597
0.000321218
0.000321761
0.000322252
0.000322718
0.000323186
0.00032367
0.000324166
0.000324685
0.000325217
0.000325782
0.000326386
0.000327035
0.000327738
0.000328523
0.000329394
0.000330341
0.00033136
0.000332427
0.000333566
0.0003348
0.000336148
0.000337638
0.00033928
0.000341104
0.000343079
0.000345296
0.000347713
0.000350425
0.00035338
0.000356666
0.000360268
0.00036422
0.000368571
0.000373288
0.000378563
0.000384269
0.000390736
0.000397738
0.00040575
0.000414412
0.000424346
0.000435107
0.000447482
0.000461065
0.000476666
0.000493948
0.000513728
0.000535633
0.000561047
0.000590071
0.000624977
0.0006661
0.00071693
0.00077786
0.000855075
0.00094923
0.00107344
0.00122397
0.00143055
0.00167542
0.00203651
0.00243579
0.00306675
0.00371302
0.00479009
0.000340097
0.000340419
0.000340903
0.000341466
0.00034208
0.000342707
0.000343343
0.000343973
0.000344621
0.000345297
0.000346023
0.000346796
0.000347631
0.00034851
0.000349468
0.00035048
0.00035157
0.00035273
0.000354002
0.000355396
0.000356896
0.00035851
0.000360164
0.000361914
0.000363726
0.000365669
0.000367725
0.000369987
0.000372453
0.000375247
0.000378344
0.000381804
0.000385581
0.000389722
0.000394212
0.000399074
0.000404393
0.000410155
0.000416598
0.000423633
0.000431602
0.00044034
0.00045028
0.00046121
0.00047369
0.000487463
0.00050322
0.000520649
0.000540476
0.000562529
0.000587674
0.000616119
0.000649648
0.000689042
0.000737069
0.000794675
0.000866122
0.000952928
0.00106311
0.00119969
0.00137676
0.00159652
0.00188708
0.002245
0.00273075
0.00329339
0.00412718
0.005013
0.00685433
0.000365039
0.000365593
0.000366236
0.000366923
0.000367685
0.000368509
0.000369392
0.000370313
0.00037127
0.000372263
0.000373307
0.000374415
0.000375595
0.000376848
0.000378185
0.000379607
0.000381126
0.000382735
0.000384455
0.000386315
0.000388311
0.000390487
0.000392804
0.000395273
0.000397889
0.000400657
0.000403591
0.000406696
0.000410054
0.000413722
0.000417751
0.00042217
0.000427025
0.000432322
0.000438099
0.000444334
0.00045116
0.000458555
0.000466793
0.000475828
0.000485985
0.000497214
0.000509886
0.000523998
0.000539943
0.000557713
0.000577819
0.000600266
0.000625862
0.000654849
0.00068848
0.000727692
0.000774796
0.000831376
0.000900731
0.000984848
0.00108916
0.00121731
0.00137924
0.00158016
0.00183579
0.00215246
0.00255796
0.00305665
0.0036964
0.00445899
0.00557426
0.00700442
0.0105367
0.000396412
0.000397245
0.000398149
0.000399078
0.00040009
0.000401191
0.000402407
0.00040372
0.000405132
0.000406632
0.000408214
0.000409888
0.000411639
0.000413483
0.0004154
0.000417415
0.000419498
0.00042169
0.000423958
0.000426377
0.000428908
0.000431617
0.000434473
0.000437505
0.00044071
0.000444126
0.000447769
0.000451704
0.000456005
0.00046072
0.000465939
0.000471665
0.000477999
0.000484914
0.000492515
0.000500752
0.000509801
0.000519645
0.000530564
0.000542609
0.000556081
0.000571074
0.000587933
0.000606823
0.000628076
0.000651967
0.000679013
0.000709738
0.000745154
0.000786164
0.000834624
0.000892395
0.000962445
0.00104743
0.00115141
0.00127823
0.00143462
0.00162669
0.00186471
0.00215644
0.00251765
0.0029584
0.00350622
0.00416606
0.00499861
0.00599031
0.00774729
0.0103662
0.0177865
0.000437161
0.000438411
0.000439716
0.000441028
0.000442409
0.000443888
0.000445488
0.000447222
0.000449092
0.000451099
0.000453229
0.000455486
0.000457846
0.000460323
0.000462879
0.000465537
0.000468276
0.000471134
0.000474117
0.00047728
0.000480645
0.000484271
0.000488159
0.000492347
0.000496811
0.000501592
0.00050668
0.000512171
0.000518101
0.000524537
0.000531579
0.000539237
0.000547678
0.000556878
0.000567033
0.000578095
0.000590293
0.000603622
0.000618392
0.000634755
0.000653007
0.000673377
0.000696281
0.00072208
0.000751358
0.000784796
0.000823365
0.000868235
0.000920926
0.000983284
0.0010579
0.00114766
0.00125626
0.00138754
0.0015466
0.0017389
0.00197181
0.00225255
0.00259129
0.0029978
0.00348754
0.00407418
0.00478591
0.00561639
0.00672142
0.00803893
0.0116731
0.0167029
0.0352157
0.000490825
0.000492699
0.000494628
0.000496553
0.000498536
0.000500616
0.000502814
0.000505145
0.000507624
0.000510262
0.000513062
0.000516027
0.00051915
0.00052244
0.000525898
0.000529527
0.000533358
0.000537382
0.000541655
0.000546175
0.000551011
0.000556183
0.000561735
0.000567678
0.000574018
0.000580764
0.000587963
0.000595671
0.000603915
0.000612775
0.000622358
0.000632726
0.000644082
0.00065647
0.000670136
0.000685139
0.000701738
0.000720076
0.000740488
0.000763316
0.000788974
0.000817978
0.000851034
0.000888982
0.000932947
0.000984205
0.00104439
0.00111531
0.00119928
0.00129903
0.00141789
0.00155954
0.00172828
0.00192873
0.00216646
0.00244734
0.00277877
0.00316842
0.00362732
0.00416605
0.00480161
0.005549
0.00644087
0.00744325
0.00911608
0.0111237
0.0188976
0.0307471
0.0710684
0.000562744
0.000565466
0.000568274
0.000571082
0.000573963
0.00057696
0.000580095
0.000583388
0.000586855
0.000590514
0.000594384
0.000598478
0.000602809
0.000607391
0.000612249
0.0006174
0.000622888
0.000628715
0.000634925
0.000641516
0.00064852
0.000655961
0.00066389
0.000672339
0.000681373
0.000691059
0.000701444
0.000712545
0.000724448
0.000737215
0.000750978
0.000765894
0.000782196
0.000800102
0.000819885
0.000841803
0.000866193
0.000893474
0.000924173
0.000958963
0.000998636
0.00104419
0.00109685
0.00115809
0.00122962
0.00131338
0.00141159
0.00152678
0.00166186
0.00182006
0.00200495
0.00222035
0.00247053
0.00276014
0.00309467
0.00348036
0.00392506
0.00443764
0.00503015
0.00571278
0.00650755
0.00742319
0.00851869
0.00975993
0.0128776
0.0162571
0.032755
0.0618973
0.151496
0.000663501
0.00066744
0.000671512
0.0006756
0.000679788
0.000684123
0.00068864
0.000693363
0.00069832
0.000703543
0.000709054
0.000714892
0.000721069
0.000727632
0.000734593
0.000742001
0.00074989
0.000758301
0.000767275
0.000776856
0.000787066
0.000797988
0.000809606
0.000822114
0.000835565
0.000850058
0.000865667
0.000882503
0.000900704
0.000920423
0.00094185
0.000965294
0.000991139
0.00101978
0.00105167
0.00108738
0.00112756
0.00117302
0.00122469
0.00128372
0.00135135
0.00142901
0.00151835
0.00162124
0.0017398
0.0018763
0.00203327
0.00221339
0.00241953
0.00265476
0.00292237
0.00322608
0.00357022
0.00395982
0.00440109
0.0049014
0.00546926
0.00611511
0.00684976
0.00768495
0.00865319
0.00973545
0.0111668
0.0130157
0.0189747
0.0259802
0.060628
0.130812
0.262384
0.000807513
0.000813476
0.000819678
0.000825958
0.000832408
0.000839083
0.000846013
0.000853236
0.000860788
0.00086872
0.000877073
0.000885906
0.000895258
0.000905194
0.00091576
0.000927025
0.000939053
0.000951922
0.000965717
0.00098054
0.000996479
0.00101373
0.00103242
0.00105269
0.0010747
0.00109864
0.0011247
0.00115312
0.00118418
0.00121822
0.00125562
0.00129687
0.00134259
0.00139349
0.00145039
0.00151423
0.00158603
0.00166682
0.00175788
0.00186035
0.001976
0.00210597
0.00225203
0.00241598
0.00259978
0.00280553
0.00303556
0.00329236
0.00357873
0.0038979
0.00425359
0.00465027
0.00509322
0.00558856
0.00614355
0.00676641
0.00746526
0.00825265
0.00913413
0.0101391
0.0113063
0.0125788
0.0150782
0.0179466
0.0298806
0.0466944
0.11725
0.250149
0.332304
0.0010286
0.00103795
0.00104775
0.0010578
0.00106821
0.00107908
0.00109044
0.00110235
0.00111488
0.0011281
0.00114211
0.00115701
0.00117289
0.00118987
0.00120807
0.00122762
0.00124867
0.00127139
0.00129602
0.00132274
0.00135177
0.00138335
0.00141774
0.00145519
0.001496
0.00154049
0.00158906
0.00164208
0.00169998
0.00176327
0.0018325
0.00190831
0.00199141
0.00208261
0.00218279
0.00229295
0.00241412
0.00254736
0.00269381
0.00285458
0.00303104
0.00322446
0.00343671
0.00366866
0.00392239
0.0042001
0.00450433
0.00483809
0.00520492
0.00560902
0.00605515
0.00654895
0.00709669
0.00770496
0.00838181
0.00913474
0.00997232
0.0109112
0.0119551
0.0131923
0.0146284
0.0164688
0.021168
0.0268353
0.0513397
0.0935847
0.223193
0.355328
0.354612
0.00138364
0.00140168
0.00142084
0.00144086
0.0014619
0.00148408
0.00150747
0.00153217
0.00155828
0.00158592
0.00161523
0.00164633
0.00167949
0.00171489
0.00175271
0.00179313
0.00183637
0.00188264
0.00193223
0.00198535
0.00204245
0.00210395
0.00217018
0.00224148
0.00231821
0.00240072
0.00248932
0.00258439
0.00268635
0.00279561
0.00291266
0.00303804
0.00317227
0.00331595
0.00346978
0.00363452
0.003811
0.00400012
0.0042029
0.00442047
0.00465417
0.00490555
0.00517661
0.00546956
0.00578732
0.0061318
0.00650644
0.00691532
0.00736304
0.00785494
0.00839663
0.00899441
0.00965488
0.0103839
0.0111919
0.0120836
0.0130804
0.0142038
0.0155029
0.0171517
0.019254
0.0226986
0.0321135
0.0458117
0.0957558
0.193039
0.354349
0.388472
0.353285
0.00208151
0.00211822
0.0021573
0.00219834
0.00224166
0.00228743
0.00233575
0.00238669
0.00244036
0.00249691
0.0025565
0.00261923
0.00268589
0.00275662
0.00283157
0.00291087
0.0029947
0.00308321
0.00317656
0.00327497
0.0033785
0.0034872
0.00360132
0.00372108
0.00384671
0.00397844
0.00411652
0.00426118
0.00441267
0.00457124
0.00473728
0.00491115
0.00509323
0.005284
0.00548408
0.00569422
0.00591532
0.00614845
0.00639493
0.00665634
0.00693458
0.00723196
0.00755123
0.00789579
0.00826929
0.00867722
0.00912178
0.00960799
0.0101413
0.0107277
0.0113732
0.0120836
0.0128665
0.0137276
0.0146893
0.0157534
0.0169994
0.0184457
0.0203588
0.0229674
0.0272972
0.0351246
0.0548979
0.0911642
0.186448
0.338908
0.398461
0.383894
0.319249
0.00348993
0.00356196
0.00363834
0.00371841
0.00380245
0.00389057
0.00398278
0.0040791
0.00417956
0.0042842
0.00439306
0.00450618
0.0046231
0.00474396
0.00486886
0.00499791
0.00513119
0.00526877
0.00541073
0.00555711
0.00570797
0.00586334
0.00602325
0.00618776
0.00635695
0.00653091
0.00670973
0.00689356
0.00708256
0.00727696
0.0074771
0.00768334
0.00789618
0.00811629
0.00834453
0.00858199
0.00883
0.00909021
0.0093646
0.00965557
0.00996593
0.0102991
0.0106591
0.0110505
0.0114786
0.011949
0.0124681
0.0130386
0.0136664
0.0143573
0.0151178
0.0159559
0.0168858
0.0179253
0.0191388
0.0205252
0.0223611
0.0246406
0.0283569
0.0339378
0.0449389
0.0656028
0.108176
0.197263
0.323168
0.387051
0.385714
0.3379
0.271461
0.00620919
0.006331
0.0064567
0.00658547
0.00671776
0.00685371
0.00699335
0.00713667
0.00728365
0.00743423
0.00758837
0.00774601
0.007907
0.00807118
0.00823841
0.00840857
0.00858152
0.00875715
0.00893535
0.00911603
0.00929913
0.00948459
0.00967237
0.00986249
0.010055
0.01025
0.0104476
0.010648
0.0108515
0.0110585
0.0112696
0.0114854
0.0117065
0.0119342
0.0121698
0.0124151
0.0126721
0.0129435
0.0132323
0.0135419
0.0138766
0.0142412
0.0146413
0.0150828
0.0155721
0.0161153
0.0167204
0.0173878
0.0181252
0.0189414
0.0198524
0.0208843
0.0220797
0.0235152
0.025347
0.0276354
0.0312368
0.0362419
0.0458337
0.0612369
0.0921544
0.144872
0.236904
0.314802
0.361263
0.360505
0.325986
0.270413
0.221372
0.010897
0.0110561
0.0112184
0.0113827
0.0115493
0.0117182
0.0118893
0.0120624
0.0122373
0.0124138
0.0125918
0.0127711
0.0129514
0.0131325
0.0133142
0.0134964
0.0136788
0.0138614
0.014044
0.0142265
0.014409
0.0145914
0.0147737
0.0149562
0.0151391
0.0153226
0.015507
0.0156927
0.0158804
0.0160707
0.0162646
0.016463
0.0166679
0.0168808
0.0171044
0.0173416
0.0175958
0.0178708
0.0181709
0.0185011
0.0188668
0.0192744
0.0197297
0.0202411
0.0208134
0.0214565
0.0221765
0.0229787
0.0238892
0.0249395
0.0261889
0.0277285
0.0296744
0.0323429
0.0360303
0.0415628
0.0509947
0.0660926
0.0941696
0.1399
0.214898
0.286064
0.318971
0.329061
0.315315
0.283547
0.244497
0.205772
0.173329
0.0179549
0.0181242
0.0182948
0.0184644
0.0186337
0.0188027
0.0189712
0.0191391
0.0193061
0.0194723
0.0196367
0.0197997
0.0199613
0.0201203
0.0202773
0.0204324
0.0205856
0.020737
0.0208867
0.0210348
0.0211815
0.0213273
0.0214724
0.0216175
0.0217635
0.0219097
0.0220582
0.0222082
0.0223628
0.0225223
0.0226899
0.0228665
0.0230541
0.0232553
0.0234741
0.0237147
0.0239819
0.0242808
0.0246174
0.0249978
0.0254284
0.0259179
0.0264718
0.0271063
0.0278244
0.0286566
0.0296098
0.0307412
0.0321604
0.0339684
0.036348
0.0395954
0.0441386
0.0511087
0.0612863
0.0796304
0.107127
0.157361
0.228476
0.296502
0.320521
0.313166
0.289802
0.250899
0.222153
0.198349
0.174179
0.150554
0.130034
0.0281831
0.0283173
0.028451
0.0285837
0.0287142
0.0288435
0.0289706
0.0290951
0.0292168
0.0293362
0.02945
0.0295602
0.0296669
0.0297699
0.0298692
0.0299646
0.0300559
0.0301435
0.0302276
0.0303089
0.0303881
0.030466
0.0305433
0.0306213
0.0307016
0.0307834
0.0308705
0.0309612
0.0310607
0.0311688
0.031293
0.0314365
0.031605
0.0318056
0.032045
0.0323293
0.0326662
0.033062
0.0335243
0.0340606
0.0346796
0.0354017
0.0362369
0.0372339
0.038408
0.0398216
0.0415851
0.044064
0.0475548
0.0523144
0.0589216
0.0684583
0.0827383
0.103487
0.138668
0.196591
0.264923
0.323104
0.340942
0.329621
0.279836
0.217718
0.178117
0.157069
0.144943
0.134215
0.121669
0.107706
0.0944996
0.0419581
0.0421063
0.0422446
0.0423755
0.042496
0.0426106
0.042717
0.0428163
0.042908
0.0429965
0.0430717
0.043141
0.0432051
0.0432683
0.0433278
0.0433831
0.0434349
0.0434837
0.043531
0.0435774
0.0436243
0.0436726
0.0437245
0.0437793
0.0438437
0.04392
0.0440101
0.0441183
0.0442638
0.044455
0.0446995
0.045002
0.0453736
0.0458174
0.0463458
0.0469572
0.0476731
0.0484868
0.0494244
0.0504895
0.051727
0.0532149
0.0550041
0.057223
0.0600794
0.0632352
0.0694318
0.0793226
0.0916951
0.107318
0.127838
0.156773
0.196354
0.249913
0.305045
0.344162
0.357274
0.334445
0.266376
0.18788
0.141381
0.117397
0.105307
0.1003
0.0979752
0.0948062
0.0889445
0.0805535
0.0712182
0.0734726
0.0737424
0.0739875
0.0742357
0.0744745
0.0746947
0.0748912
0.0750712
0.0752106
0.0754025
0.0752896
0.0752576
0.075232
0.0752091
0.0751872
0.0751652
0.0751414
0.075114
0.0750828
0.0750445
0.0749887
0.0749314
0.074851
0.0747686
0.0748255
0.0748734
0.0748969
0.0750603
0.075432
0.0759609
0.0766982
0.077544
0.0786182
0.0798462
0.0813512
0.0829799
0.0850604
0.0873514
0.0901506
0.0932499
0.0971571
0.102119
0.108263
0.115579
0.12449
0.135446
0.147933
0.159596
0.175733
0.196686
0.224535
0.262067
0.300693
0.332823
0.321111
0.271928
0.189864
0.137042
0.107579
0.0906279
0.0810448
0.0770232
0.0768849
0.0792569
0.0813595
0.0823374
0.0801865
0.0746176
0.0660898
0.235294
0.237098
0.238789
0.240474
0.24206
0.243582
0.244984
0.246337
0.24757
0.248774
0.249885
0.250953
0.251947
0.252912
0.253779
0.254605
0.255351
0.255981
0.256623
0.257099
0.256567
0.257146
0.256035
0.25542
0.255697
0.255522
0.25466
0.254175
0.251672
0.250267
0.250074
0.246504
0.244461
0.243025
0.241607
0.235781
0.2346
0.231314
0.227127
0.220656
0.214968
0.210727
0.205753
0.198006
0.187985
0.17553
0.16032
0.141976
0.120455
0.0951476
0.0703802
0.059337
0.0674751
0.0806851
0.0848432
0.0802236
0.0753917
0.0722326
0.0726377
0.0820984
0.0911083
0.103431
0.11513
0.125449
0.132917
0.135241
0.133841
0.12571
0.109705
0.000248234
0.000248689
0.000249156
0.000249602
0.000250034
0.000250732
0.000251742
0.000252646
0.000253375
0.00025395
0.000254628
0.000255218
0.00025668
0.000258525
0.000259921
0.000260381
0.000261527
0.000262552
0.000263119
0.000263831
0.000263666
0.000263757
0.000263844
0.000264626
0.000265621
0.000266508
0.000267267
0.000267311
0.000266692
0.000267032
0.000267612
0.000268708
0.000269775
0.000269563
0.000269589
0.000268988
0.000268897
0.000268684
0.000268162
0.000268133
0.000267928
0.000267938
0.000267717
0.00026707
0.000266273
0.000265712
0.000265064
0.000263804
0.000262172
0.000262125
0.000262476
0.000262758
0.000262682
0.000262522
0.000261958
0.00026109
0.000260736
0.000260558
0.000260438
0.000249595
0.000250058
0.00025055
0.000251113
0.000251893
0.00025272
0.000253273
0.000253747
0.000254174
0.000254757
0.000255521
0.000256565
0.000258584
0.000259801
0.000260544
0.000261089
0.000262281
0.000263238
0.000263613
0.000264099
0.000263931
0.000264043
0.000264192
0.000265072
0.000266002
0.000266897
0.000267566
0.000267655
0.000267079
0.000267373
0.000268009
0.000269011
0.000270093
0.000269991
0.000270102
0.000269777
0.000269521
0.000269376
0.000269
0.00026873
0.000268785
0.000268678
0.000268654
0.000268373
0.000267815
0.000267156
0.000266623
0.000265842
0.000264696
0.000263569
0.00026318
0.000263373
0.000263602
0.000263541
0.000263547
0.000263144
0.000263011
0.000262743
0.00026235
0.000251977
0.000252445
0.00025298
0.000253473
0.000253968
0.00025433
0.000254603
0.000254964
0.000255506
0.000256338
0.000257478
0.000259115
0.000260401
0.000261058
0.000261538
0.000262288
0.000263564
0.00026411
0.000264528
0.0002647
0.000264741
0.000264767
0.000265185
0.000266072
0.000266977
0.000267895
0.000268547
0.000268649
0.000267994
0.000268275
0.000268931
0.000269843
0.000270912
0.000270987
0.00027118
0.000271078
0.000270922
0.000270783
0.000270536
0.000270246
0.000270284
0.000270183
0.000270168
0.00027013
0.000269826
0.00026949
0.000268973
0.000268312
0.000267387
0.000266439
0.000265669
0.000265323
0.000265215
0.000265261
0.000265057
0.000264977
0.000264881
0.000264799
0.000264833
0.000254718
0.000255033
0.000255383
0.000255626
0.0002559
0.000256161
0.000256565
0.000257196
0.000258108
0.000259274
0.000260548
0.00026171
0.000262352
0.000262788
0.000263416
0.000264495
0.000265343
0.000265705
0.000265946
0.000266022
0.000266051
0.000266326
0.000266872
0.000267789
0.000268634
0.000269563
0.000270089
0.000270262
0.000269734
0.00026995
0.000270697
0.000271441
0.000272541
0.00027281
0.000273111
0.000273072
0.000272968
0.00027284
0.000272716
0.000272448
0.00027243
0.000272369
0.000272359
0.00027235
0.000272242
0.000272237
0.000271827
0.000271596
0.000271065
0.000270272
0.000269413
0.000268768
0.000268372
0.00026816
0.000268087
0.000268178
0.000267814
0.000267872
0.000267874
0.000257747
0.000257964
0.000258229
0.00025846
0.000258837
0.000259321
0.000260027
0.000260923
0.000261967
0.000263015
0.000263896
0.000264505
0.000264891
0.000265455
0.00026633
0.000267273
0.000267713
0.000267903
0.000268072
0.000268135
0.00026834
0.000268725
0.000269366
0.000270243
0.00027106
0.000271995
0.000272495
0.000272693
0.000272218
0.000272435
0.000273208
0.000273887
0.000275
0.000275408
0.000275823
0.000275862
0.000275781
0.000275671
0.000275543
0.000275412
0.000275583
0.00027555
0.000275524
0.000275534
0.000275566
0.000275557
0.000275309
0.000275244
0.000274986
0.000274543
0.00027426
0.0002737
0.000273206
0.000272862
0.000272555
0.000272363
0.000272298
0.000271875
0.000271945
0.000262059
0.00026206
0.000262488
0.000262848
0.000263428
0.000264082
0.000264887
0.00026572
0.000266526
0.000267175
0.000267653
0.000268041
0.000268528
0.000269295
0.000270213
0.000270741
0.00027095
0.000270987
0.000271192
0.000271346
0.000271681
0.000272153
0.000272862
0.000273675
0.000274487
0.00027542
0.000275902
0.000276123
0.00027571
0.000275935
0.000276736
0.000277357
0.000278487
0.000279019
0.000279521
0.000279739
0.000279692
0.000279658
0.000279646
0.000279613
0.000279722
0.000279859
0.000279978
0.000279951
0.000279966
0.00027983
0.000279715
0.000279745
0.000279729
0.000279242
0.000279088
0.000279005
0.000278692
0.000277926
0.000277786
0.000277907
0.000277958
0.000277967
0.000277681
0.000267622
0.000268001
0.00026844
0.000268894
0.000269478
0.000270058
0.000270678
0.000271228
0.000271695
0.000272077
0.000272454
0.000272929
0.000273584
0.000274444
0.000275046
0.000275325
0.000275414
0.000275361
0.000275488
0.000275751
0.000276185
0.000276736
0.00027744
0.000278194
0.000279015
0.000279927
0.000280397
0.000280638
0.00028029
0.00028053
0.000281365
0.000281946
0.000283101
0.000283767
0.000284346
0.000284729
0.000284922
0.000284974
0.000285015
0.000285071
0.000285054
0.000285237
0.000285466
0.000285625
0.000285852
0.000285746
0.000285867
0.000286021
0.000285782
0.000285506
0.000285374
0.000285195
0.000285068
0.000285052
0.000284465
0.000284913
0.000284594
0.000284864
0.00028437
0.000275273
0.000275253
0.000275846
0.000276172
0.000276698
0.000277089
0.000277487
0.00027781
0.000278156
0.000278512
0.000278928
0.000279438
0.000280163
0.000280779
0.000281129
0.000281243
0.000280923
0.000281055
0.00028134
0.000281733
0.000282227
0.000282793
0.000283497
0.000284192
0.000285039
0.000285926
0.000286391
0.000286657
0.000286376
0.000286645
0.000287516
0.000288064
0.000289229
0.000290024
0.000290684
0.000291198
0.00029158
0.00029182
0.000291975
0.00029211
0.000292326
0.000292553
0.000292878
0.000292863
0.000293202
0.000292991
0.000293197
0.000293603
0.000293268
0.000293494
0.000293858
0.000293474
0.000293421
0.000293879
0.000293424
0.000293595
0.000293684
0.000293303
0.000293157
0.00028517
0.000285168
0.000285516
0.000285573
0.000285576
0.000285354
0.000285751
0.000286034
0.000286383
0.000286725
0.000287135
0.000288001
0.000288818
0.000289227
0.000289167
0.000288603
0.000288715
0.00028862
0.000289121
0.000289458
0.000289973
0.000290571
0.000291207
0.000291856
0.00029274
0.000293583
0.000294049
0.00029434
0.000294115
0.000294425
0.000295341
0.000295884
0.000297074
0.000298016
0.000298789
0.000299436
0.000299977
0.000300424
0.000300754
0.000301022
0.000301378
0.000301773
0.000302191
0.000302525
0.000302961
0.00030325
0.000303696
0.000303516
0.000303818
0.000303237
0.000303384
0.000303851
0.000303358
0.000303544
0.000304234
0.000304022
0.000303952
0.000304088
0.000304005
0.000297669
0.000297542
0.000297546
0.00029742
0.000297375
0.000296993
0.000297293
0.000297611
0.000297705
0.000297703
0.00029898
0.000299343
0.000298985
0.000298643
0.000298473
0.000298391
0.000298544
0.000298816
0.000299111
0.000299537
0.000300106
0.000300655
0.000301198
0.000301836
0.000302764
0.000303552
0.000304036
0.00030435
0.000304199
0.00030456
0.000305524
0.000306067
0.000307254
0.000308324
0.000309224
0.000310013
0.000310704
0.000311355
0.000311907
0.000312363
0.000312852
0.000313432
0.000314053
0.000314617
0.000315179
0.000315738
0.000316366
0.000316864
0.000317386
0.000317637
0.000318048
0.000318735
0.000318144
0.000318662
0.000317962
0.000318257
0.000318037
0.000318767
0.000317996
0.000312148