/*--------------------------------*- C++ -*----------------------------------*\
| =========                 |                                                 |
| \\      /  F ield         | OpenFOAM: The Open Source CFD Toolbox           |
|  \\    /   O peration     | Version:  2312                                  |
|   \\  /    A nd           | Website:  www.openfoam.com                      |
|    \\/     M anipulation  |                                                 |
\*---------------------------------------------------------------------------*/
FoamFile
{
    version     2.0;
    format      ascii;
    arch        "LSB;label=32;scalar=64";
    class       volScalarField;
    location    "800";
    object      k;
}
// * * * * * * * * * * * * * * * * * * * * * * * * * * * * * * * * * * * * * //

dimensions      [0 2 -2 0 0 0 0];

internalField   nonuniform List<scalar> 
76025
(
0.00196541
0.00196423
0.0019635
0.00196242
0.00196048
0.00195878
0.00195595
0.00195452
0.00195302
0.00195236
0.0019512
0.00195041
0.00194942
0.00194886
0.00194819
0.00194741
0.00194634
0.00194537
0.00194321
0.00194188
0.00193971
0.00193781
0.00193513
0.00193331
0.00193088
0.00192905
0.00192758
0.00192579
0.00192465
0.00192299
0.00192098
0.00191984
0.00191855
0.00191683
0.00191609
0.00191365
0.00191395
0.00191397
0.00191562
0.00191807
0.00192174
0.00192746
0.00193432
0.00194384
0.00195452
0.00196886
0.0019839
0.00200251
0.00202386
0.00204751
0.00207532
0.00210462
0.00213667
0.00216725
0.00220627
0.0022445
0.00228926
0.00234408
0.00240403
0.00248104
0.00255588
0.00264103
0.00275507
0.00286764
0.00305253
0.00318855
0.00340732
0.00362269
0.00398262
0.00197903
0.00197706
0.00197518
0.00197365
0.00197189
0.00197055
0.00196869
0.00196725
0.00196566
0.00196449
0.00196334
0.00196249
0.0019616
0.00196107
0.00196063
0.00195996
0.00195893
0.00195701
0.00195664
0.00195442
0.00195296
0.00195176
0.00195181
0.00195077
0.00194944
0.00194743
0.00194533
0.00194365
0.00194112
0.00193876
0.00193839
0.00193851
0.00193945
0.00194073
0.00194275
0.00194533
0.00194845
0.00195263
0.00195771
0.00196421
0.00197184
0.0019812
0.00199177
0.00200468
0.00201844
0.00203544
0.00205249
0.00207422
0.00209473
0.00212119
0.0021452
0.00217638
0.00220489
0.00224279
0.00227982
0.00232772
0.00238104
0.00244709
0.00252166
0.00260655
0.00270092
0.00281835
0.00295164
0.00310959
0.00331458
0.00350382
0.00384535
0.00409207
0.00466315
0.00199485
0.00199425
0.00199325
0.00199198
0.00199028
0.00198862
0.00198676
0.0019846
0.00198274
0.0019809
0.00197936
0.00197806
0.00197702
0.00197539
0.0019733
0.00197254
0.00197152
0.0019707
0.00196974
0.00196894
0.00196792
0.00196873
0.00196994
0.00197086
0.00197168
0.00197225
0.00197278
0.00197317
0.00197391
0.00197447
0.00197578
0.0019776
0.00197996
0.00198291
0.00198653
0.00199099
0.00199631
0.0020027
0.00201002
0.00201864
0.00202821
0.00203927
0.00205143
0.00206532
0.00208051
0.00209783
0.00211657
0.00213821
0.00216119
0.00218798
0.00221619
0.00224942
0.00228481
0.00232708
0.00237267
0.00242986
0.00249162
0.00256853
0.00264809
0.00274608
0.00285274
0.00298679
0.00314163
0.00333014
0.0035634
0.00381353
0.00418231
0.00449163
0.00510506
0.00201387
0.00201479
0.00201349
0.00201344
0.0020129
0.00201007
0.00200919
0.00200958
0.0020089
0.00200754
0.00200598
0.00200463
0.00200183
0.00200115
0.00199774
0.0019966
0.00199782
0.00199901
0.00199958
0.00200043
0.00200088
0.00200176
0.00200298
0.00200441
0.00200603
0.00200779
0.00200961
0.00201159
0.00201369
0.00201601
0.00201865
0.00202178
0.00202549
0.0020299
0.00203506
0.00204105
0.00204781
0.00205553
0.00206408
0.00207397
0.00208485
0.00209742
0.0021111
0.00212674
0.00214369
0.00216315
0.00218401
0.00220863
0.0022344
0.00226575
0.00229792
0.0023375
0.00237838
0.00242822
0.002482
0.00254778
0.00261902
0.0027049
0.00279735
0.00291369
0.00304308
0.00321213
0.0033998
0.00363677
0.00391576
0.00423321
0.00468303
0.00508405
0.00588446
0.00203807
0.00203914
0.00203813
0.00203812
0.00203774
0.00203713
0.00203527
0.0020363
0.00203502
0.00203562
0.00203303
0.00203115
0.00203114
0.00203135
0.00203139
0.00203169
0.00203232
0.00203324
0.00203432
0.0020356
0.00203707
0.00203866
0.00204048
0.00204255
0.00204484
0.00204751
0.00205039
0.00205367
0.00205721
0.00206111
0.00206543
0.00207026
0.00207562
0.0020817
0.00208846
0.00209601
0.00210433
0.00211373
0.00212422
0.00213623
0.00214957
0.00216452
0.00218092
0.00219894
0.00221892
0.00224092
0.00226582
0.002294
0.00232542
0.00236195
0.00240075
0.00244639
0.00249436
0.00255152
0.00261436
0.00268925
0.00277213
0.00287156
0.00298366
0.00312392
0.0032833
0.00348539
0.00370512
0.00399272
0.00431354
0.00472533
0.00523614
0.00578487
0.00671307
0.0020693
0.00207087
0.00206884
0.00206866
0.00206814
0.00207034
0.0020681
0.00206932
0.00206615
0.00206746
0.00206934
0.00207063
0.00207192
0.00207323
0.00207456
0.00207588
0.00207735
0.00207895
0.00208067
0.00208257
0.00208461
0.0020869
0.00208931
0.00209203
0.00209489
0.00209818
0.00210183
0.00210596
0.00211051
0.00211553
0.00212104
0.0021271
0.00213367
0.00214095
0.00214899
0.00215796
0.00216795
0.0021792
0.00219189
0.00220631
0.0022225
0.00224062
0.00226073
0.0022829
0.00230776
0.00233511
0.00236618
0.00240027
0.00243806
0.00247991
0.00252389
0.00257479
0.00262877
0.0026941
0.00276715
0.00285431
0.00295354
0.00307221
0.00321026
0.00337809
0.0035714
0.00380614
0.00407102
0.0044154
0.0048074
0.0053281
0.00594124
0.00669951
0.00777342
0.00210871
0.00211193
0.00211382
0.00211549
0.0021165
0.00211779
0.00211842
0.00211952
0.00211987
0.00212057
0.00212166
0.00212303
0.00212454
0.00212609
0.00212773
0.00212939
0.00213118
0.00213309
0.00213522
0.00213754
0.00214005
0.00214285
0.00214586
0.00214922
0.00215289
0.00215706
0.00216183
0.00216732
0.00217346
0.00218032
0.00218784
0.00219599
0.00220479
0.00221432
0.00222485
0.00223634
0.00224916
0.00226308
0.00227874
0.00229594
0.0023153
0.00233663
0.0023605
0.00238684
0.00241647
0.00244881
0.00248509
0.00252382
0.0025666
0.00261259
0.00266249
0.00272037
0.0027844
0.00286243
0.00295059
0.00305575
0.00317635
0.00332037
0.00348774
0.00368761
0.00391651
0.0041931
0.00451675
0.00493941
0.00543272
0.00610248
0.00687228
0.00790087
0.00912453
0.00215336
0.00215602
0.00216057
0.00216471
0.00216822
0.00217122
0.00217362
0.00217587
0.00217789
0.00217993
0.00218209
0.00218452
0.00218717
0.00218997
0.00219285
0.00219575
0.00219871
0.0022018
0.00220506
0.00220852
0.00221219
0.00221606
0.00222027
0.00222475
0.00222965
0.00223494
0.00224086
0.0022474
0.00225469
0.00226287
0.00227194
0.00228203
0.00229307
0.00230506
0.00231824
0.00233238
0.00234799
0.00236458
0.00238315
0.00240313
0.00242575
0.00245048
0.00247844
0.00250938
0.00254401
0.00258166
0.00262317
0.00266741
0.00271627
0.0027691
0.00282881
0.00289777
0.00297664
0.00307046
0.00317738
0.00330395
0.00345053
0.00362433
0.00382587
0.00406327
0.00433987
0.00468016
0.00509794
0.00563908
0.00629559
0.0071652
0.00816084
0.00947502
0.0108129
0.00222602
0.00222874
0.00223188
0.00223508
0.00223823
0.00224134
0.00224428
0.00224714
0.00224988
0.00225259
0.00225528
0.00225807
0.00226095
0.00226395
0.00226708
0.00227036
0.00227389
0.00227772
0.002282
0.00228665
0.00229182
0.00229736
0.00230345
0.00230995
0.00231699
0.0023245
0.00233261
0.00234129
0.00235066
0.00236099
0.00237214
0.00238443
0.00239772
0.00241229
0.00242828
0.00244562
0.00246466
0.00248497
0.00250746
0.00253177
0.00255918
0.00258921
0.00262288
0.00265972
0.0027001
0.00274367
0.00279111
0.00284253
0.0028997
0.00296347
0.00303696
0.00312139
0.00321901
0.0033325
0.00346383
0.00361856
0.00379867
0.00401074
0.00425705
0.0045519
0.0049081
0.00535992
0.00592479
0.00664551
0.00752264
0.00862859
0.00987214
0.0114144
0.0128919
0.0023141
0.00231595
0.00231821
0.00232067
0.00232343
0.00232648
0.00232979
0.00233328
0.00233689
0.00234061
0.00234446
0.00234855
0.00235285
0.00235738
0.00236201
0.00236678
0.00237164
0.00237671
0.00238214
0.00238795
0.00239426
0.00240108
0.00240847
0.0024165
0.00242501
0.00243421
0.00244382
0.00245417
0.00246507
0.00247706
0.00248992
0.00250417
0.00251971
0.00253696
0.00255605
0.00257704
0.00260015
0.00262535
0.00265326
0.00268407
0.00271847
0.00275629
0.00279782
0.00284283
0.00289147
0.00294412
0.00300144
0.00306472
0.00313535
0.00321564
0.00330743
0.00341252
0.00353361
0.00367378
0.00383754
0.00402977
0.00425535
0.00452311
0.00484366
0.00523948
0.00573212
0.00635461
0.0071214
0.00806606
0.00918349
0.0105175
0.0119696
0.013692
0.0151084
0.00241188
0.00241467
0.00241761
0.00242055
0.00242365
0.00242707
0.00243081
0.00243493
0.00243931
0.00244396
0.00244875
0.00245382
0.00245914
0.00246486
0.0024709
0.00247737
0.00248412
0.00249119
0.00249859
0.00250643
0.00251481
0.00252379
0.0025333
0.00254348
0.00255414
0.00256561
0.00257763
0.00259069
0.00260458
0.00261969
0.00263583
0.00265344
0.00267244
0.00269341
0.0027163
0.00274165
0.00276942
0.00280036
0.00283453
0.00287285
0.00291533
0.00296226
0.00301349
0.00306923
0.00312963
0.00319564
0.00326805
0.00334864
0.0034389
0.0035415
0.0036578
0.00379083
0.00394363
0.00412187
0.00433155
0.00458129
0.00488069
0.00524542
0.00569325
0.00624949
0.00693333
0.00776736
0.00875848
0.00992661
0.0112571
0.0127732
0.014383
0.0161627
0.0179115
0.00253304
0.00253673
0.00254059
0.00254442
0.0025484
0.00255271
0.00255741
0.0025626
0.00256826
0.00257445
0.00258116
0.00258836
0.00259604
0.00260418
0.00261273
0.00262168
0.00263103
0.00264075
0.00265091
0.00266161
0.002673
0.00268519
0.00269827
0.00271209
0.00272662
0.00274166
0.00275731
0.00277371
0.0027909
0.0028092
0.00282868
0.00284977
0.00287277
0.00289828
0.00292642
0.00295789
0.00299289
0.00303238
0.00307624
0.00312532
0.00317929
0.0032383
0.00330224
0.00337158
0.00344703
0.00352992
0.00362148
0.00372363
0.00383853
0.0039688
0.00411699
0.00428762
0.00448685
0.00472404
0.00500949
0.00535667
0.00578003
0.00629816
0.00692823
0.00768808
0.00858724
0.00963611
0.010834
0.0121888
0.0136816
0.0153203
0.0170082
0.0189
0.0214812
0.00268653
0.00269157
0.0026968
0.002702
0.00270738
0.00271306
0.00271914
0.00272571
0.00273278
0.0027404
0.00274864
0.00275751
0.00276696
0.00277692
0.00278736
0.00279818
0.00280947
0.00282122
0.00283351
0.00284654
0.00286053
0.00287574
0.0028924
0.00291044
0.00292979
0.00295017
0.00297155
0.00299393
0.00301724
0.00304186
0.00306794
0.00309599
0.00312635
0.00315974
0.00319642
0.00323724
0.00328247
0.00333302
0.00338878
0.00345052
0.00351811
0.00359207
0.00367282
0.00376127
0.0038585
0.00396588
0.0040849
0.00421806
0.00436866
0.00454084
0.00474025
0.00497497
0.00525582
0.00559542
0.00600765
0.00650704
0.00710799
0.00782336
0.00866241
0.00963074
0.0107295
0.0119598
0.0133157
0.0147965
0.0163818
0.0180507
0.0198147
0.0220687
0.0267102
0.00288048
0.00288757
0.00289487
0.00290214
0.00290962
0.00291743
0.00292567
0.0029344
0.00294368
0.00295352
0.002964
0.00297512
0.00298684
0.00299912
0.00301189
0.00302517
0.003039
0.00305357
0.00306891
0.00308529
0.00310259
0.00312118
0.00314094
0.00316228
0.00318499
0.00320957
0.00323586
0.00326422
0.00329444
0.00332727
0.00336266
0.00340126
0.00344333
0.00348975
0.00354082
0.00359737
0.00365952
0.00372767
0.00380182
0.00388242
0.00397011
0.00406592
0.00417098
0.00428662
0.00441437
0.00455617
0.00471504
0.00489564
0.00510409
0.00534817
0.00563754
0.00598385
0.0063996
0.00689756
0.00748926
0.00818437
0.00898919
0.00990675
0.0109365
0.0120764
0.0133225
0.0146695
0.0161071
0.0176262
0.0192135
0.0208337
0.0229439
0.0263798
0.0355778
0.00312815
0.00313808
0.00314826
0.0031584
0.00316876
0.00317948
0.00319067
0.00320238
0.00321471
0.00322768
0.00324131
0.00325567
0.00327068
0.00328633
0.00330251
0.00331924
0.00333663
0.00335482
0.00337415
0.00339478
0.00341702
0.00344092
0.0034667
0.0034943
0.00352401
0.00355605
0.00359039
0.00362776
0.00366789
0.00371193
0.00375972
0.00381213
0.00386951
0.0039326
0.00400183
0.00407798
0.00416129
0.00425203
0.00435055
0.00445738
0.00457384
0.00470144
0.00484207
0.00499818
0.00517309
0.00537159
0.0056001
0.00586662
0.00618027
0.00655106
0.00698933
0.00750494
0.00810642
0.00880018
0.00958983
0.010476
0.0114569
0.0125291
0.013688
0.0149285
0.0162414
0.017616
0.0190384
0.0204942
0.0220361
0.0236706
0.0272605
0.0335045
0.0507765
0.00344917
0.00346273
0.00347671
0.00349071
0.003505
0.00351969
0.00353491
0.00355071
0.0035672
0.00358445
0.00360253
0.0036215
0.00364138
0.00366218
0.00368388
0.00370643
0.00373001
0.00375467
0.00378088
0.00380883
0.00383909
0.00387174
0.00390745
0.00394654
0.0039892
0.00403563
0.00408576
0.00413974
0.00419767
0.00425989
0.00432678
0.00439902
0.00447774
0.00456398
0.00465862
0.0047623
0.00487538
0.0049982
0.00513155
0.00527693
0.0054369
0.00561466
0.00581436
0.00604139
0.00630233
0.00660466
0.00695642
0.00736563
0.00783981
0.0083856
0.00900821
0.00971105
0.0104954
0.0113603
0.0123031
0.0133199
0.0144063
0.015557
0.0167648
0.0180196
0.0193058
0.02061
0.0219259
0.0232489
0.024905
0.0270594
0.0338696
0.0465241
0.0796036
0.00387781
0.00389604
0.00391495
0.00393405
0.00395361
0.00397374
0.00399455
0.00401608
0.00403846
0.0040618
0.00408624
0.00411191
0.00413891
0.0041674
0.00419742
0.00422908
0.00426252
0.00429782
0.00433541
0.00437541
0.00441854
0.00446538
0.00451625
0.00457202
0.00463286
0.00469959
0.00477225
0.00485119
0.00493688
0.00502946
0.00512923
0.00523718
0.00535479
0.0054832
0.00562324
0.00577548
0.00594065
0.00612018
0.00631637
0.00653297
0.00677419
0.00704639
0.00735449
0.00770488
0.00810369
0.00855656
0.00906858
0.00964375
0.0102847
0.0109928
0.0117676
0.0126075
0.0135099
0.0144712
0.0154872
0.0165531
0.0176631
0.0188084
0.0199772
0.0211523
0.0223176
0.0234663
0.0246338
0.0258731
0.0284504
0.032089
0.0451525
0.0709638
0.115479
0.00446927
0.00449484
0.00452143
0.00454845
0.00457624
0.00460493
0.00463461
0.00466534
0.00469726
0.00473051
0.00476528
0.0048018
0.00484027
0.00488099
0.00492416
0.00497008
0.00501898
0.0050713
0.00512754
0.00518814
0.00525354
0.00532444
0.00540136
0.00548522
0.0055767
0.00567671
0.00578596
0.00590514
0.00603499
0.0061762
0.00632941
0.00649564
0.00667622
0.00687254
0.00708617
0.00731883
0.00757261
0.00785008
0.00815439
0.00848933
0.00885888
0.00926757
0.00971903
0.0102181
0.0107656
0.0113634
0.0120132
0.0127147
0.0134673
0.0142696
0.0151196
0.0160148
0.0169522
0.0179281
0.0189374
0.0199732
0.021026
0.0220813
0.0231228
0.0241313
0.0251076
0.0260597
0.0271967
0.0287468
0.0333624
0.0406045
0.0646594
0.107321
0.13986
0.00530618
0.00534478
0.00538519
0.00542678
0.00546994
0.00551491
0.00556182
0.00561083
0.00566213
0.00571597
0.00577262
0.00583248
0.0058958
0.00596331
0.00603549
0.00611283
0.0061958
0.00628497
0.00638091
0.00648432
0.00659585
0.00671631
0.0068465
0.00698734
0.00713976
0.00730471
0.00748315
0.00767596
0.00788401
0.00810814
0.00834919
0.00860816
0.00888608
0.00918406
0.00950342
0.00984569
0.0102126
0.0106061
0.0110281
0.0114807
0.011966
0.0124855
0.0130406
0.0136325
0.014262
0.0149295
0.0156354
0.0163768
0.0171537
0.017965
0.0188089
0.019683
0.0205835
0.0215043
0.022437
0.0233698
0.0242878
0.025173
0.026011
0.026799
0.0275795
0.0284016
0.030144
0.0325601
0.0410841
0.0563521
0.0961975
0.138247
0.149138
0.00660181
0.00666784
0.00673779
0.00681093
0.00688788
0.00696899
0.00705459
0.0071453
0.00724142
0.00734328
0.00745124
0.00756576
0.00768719
0.00781601
0.0079527
0.00809775
0.00825169
0.00841505
0.00858834
0.00877215
0.00896699
0.00917343
0.00939202
0.00962333
0.00986794
0.0101264
0.0103992
0.0106869
0.0109899
0.0113085
0.0116431
0.0119943
0.0123623
0.0127474
0.0131503
0.0135715
0.0140118
0.0144718
0.0149525
0.0154546
0.0159791
0.0165268
0.0170986
0.0176953
0.0183177
0.0189668
0.0196432
0.0203476
0.0210799
0.0218365
0.0226148
0.0234095
0.0242133
0.0250152
0.0258005
0.0265542
0.0272599
0.027908
0.0285036
0.0290965
0.0298025
0.0309213
0.0340259
0.0389497
0.0544646
0.0844809
0.130499
0.150277
0.149963
0.00883195
0.00895827
0.00909219
0.0092326
0.00938001
0.00953464
0.00969659
0.009866
0.010043
0.0102279
0.0104207
0.0106218
0.0108311
0.0110489
0.0112753
0.0115104
0.0117545
0.0120075
0.0122697
0.0125411
0.0128219
0.0131122
0.0134121
0.0137217
0.014041
0.01437
0.0147088
0.0150573
0.0154156
0.0157835
0.0161611
0.0165484
0.0169453
0.0173518
0.0177681
0.0181945
0.0186313
0.0190793
0.019539
0.0200114
0.0204975
0.0209985
0.0215158
0.0220508
0.0226048
0.0231794
0.0237746
0.024391
0.0250278
0.0256826
0.026346
0.0270041
0.0276468
0.0282559
0.0288149
0.0293163
0.0297548
0.0301587
0.030577
0.0311876
0.0322913
0.0346528
0.0404259
0.0515459
0.0782286
0.120675
0.144606
0.150987
0.144544
0.0127755
0.0129691
0.0131713
0.0133806
0.0135974
0.0138218
0.0140537
0.0142929
0.0145394
0.0147929
0.0150535
0.015321
0.0155954
0.0158765
0.0161642
0.0164582
0.0167585
0.0170647
0.0173766
0.0176939
0.0180162
0.0183433
0.0186748
0.0190105
0.0193499
0.0196927
0.0200387
0.0203876
0.020739
0.0210928
0.0214487
0.0218067
0.0221666
0.0225286
0.0228929
0.02326
0.0236306
0.0240057
0.0243863
0.0247737
0.0251695
0.0255754
0.0259934
0.0264255
0.0268732
0.0273371
0.0278144
0.0283068
0.0288088
0.0293145
0.0298028
0.0302468
0.0306476
0.0309795
0.0312435
0.0314695
0.0316709
0.0320087
0.0325541
0.0339158
0.0365122
0.0423125
0.0531882
0.0764133
0.110254
0.133454
0.14465
0.142026
0.132973
0.0184968
0.0187181
0.0189482
0.0191854
0.01943
0.019682
0.019941
0.0202066
0.0204785
0.0207561
0.0210392
0.0213271
0.0216194
0.0219156
0.0222151
0.0225173
0.0228218
0.0231278
0.0234349
0.0237424
0.02405
0.0243569
0.0246626
0.0249667
0.0252687
0.0255682
0.0258647
0.0261579
0.0264473
0.026733
0.0270149
0.0272927
0.0275662
0.0278358
0.0281018
0.0283654
0.0286277
0.0288902
0.0291545
0.0294226
0.0296956
0.0299768
0.0302693
0.0305735
0.0308901
0.0312142
0.0315372
0.0318734
0.0321949
0.0324872
0.0326985
0.0328041
0.0328358
0.0328247
0.0328913
0.0330361
0.0332472
0.034274
0.0357022
0.0391161
0.0459981
0.0581199
0.0797904
0.103173
0.120908
0.131914
0.132089
0.126278
0.1177
0.0256114
0.0258108
0.026019
0.0262336
0.0264551
0.0266829
0.0269164
0.0271548
0.0273976
0.0276441
0.0278933
0.0281447
0.0283973
0.0286501
0.0289024
0.0291535
0.0294028
0.0296494
0.0298929
0.0301325
0.0303677
0.0305981
0.0308229
0.0310416
0.0312542
0.0314601
0.0316589
0.0318502
0.0320333
0.0322089
0.0323758
0.0325356
0.0326847
0.0328255
0.0329605
0.0330917
0.0332207
0.0333495
0.0334797
0.0336128
0.0337466
0.033894
0.0340551
0.0342165
0.0343835
0.0345247
0.0346522
0.0346396
0.0345698
0.0344497
0.0342464
0.0340274
0.0338664
0.033806
0.0338904
0.0347293
0.0358815
0.0388033
0.0440265
0.0530575
0.068668
0.0869993
0.098786
0.109059
0.11484
0.116036
0.113235
0.107508
0.100122
0.0330879
0.0332354
0.0333882
0.0335439
0.0337029
0.0338652
0.0340301
0.0341969
0.0343649
0.034534
0.0347014
0.0348683
0.0350299
0.0351865
0.0353385
0.0354862
0.0356292
0.0357672
0.0358997
0.0360263
0.0361469
0.0362632
0.0363695
0.0364685
0.0365621
0.0366517
0.0367287
0.0368005
0.0368574
0.0369138
0.036954
0.0369998
0.0369831
0.036982
0.0369824
0.0369835
0.0369851
0.0369871
0.036989
0.0369867
0.0369687
0.0369259
0.0368941
0.0367198
0.0366086
0.0364031
0.0361128
0.0357642
0.0354032
0.0350396
0.034771
0.0345683
0.0346632
0.0352139
0.0365603
0.0394228
0.044215
0.0530121
0.0660454
0.0812099
0.089336
0.0951177
0.0969125
0.0966063
0.0966022
0.0957618
0.0930088
0.0883043
0.0819689
0.0399368
0.0400011
0.0400645
0.0401295
0.0401966
0.0402648
0.0403325
0.0404002
0.0404619
0.0405262
0.0405722
0.0406289
0.0405975
0.0405889
0.0405816
0.0405772
0.0405725
0.0405648
0.0405528
0.0405368
0.040522
0.0405362
0.0404624
0.0404099
0.0403772
0.0404057
0.0402953
0.0402986
0.0401532
0.0401384
0.0399661
0.0399377
0.0398959
0.0398116
0.0397027
0.0395743
0.0394271
0.039259
0.0390669
0.0388372
0.0385804
0.0382899
0.0379639
0.0375951
0.0371848
0.0367516
0.0362312
0.0357791
0.035409
0.035222
0.0353783
0.0361103
0.037697
0.0407267
0.0465045
0.055376
0.0669215
0.0783024
0.0854061
0.0882955
0.0859191
0.0808826
0.0776019
0.0767487
0.077013
0.0766973
0.0747532
0.0709101
0.0654555
0.0433457
0.0433692
0.0432957
0.0432762
0.0432958
0.0432947
0.0432771
0.043267
0.0431454
0.0431011
0.0431033
0.0430932
0.0429317
0.0428621
0.0428122
0.0428649
0.0428679
0.042832
0.0427689
0.0426861
0.0425881
0.0424814
0.0423616
0.0422333
0.0420999
0.0419646
0.0418186
0.0416726
0.0415179
0.0413618
0.0411964
0.0410307
0.0408587
0.040673
0.0404694
0.040236
0.0399576
0.0396322
0.0392574
0.0388336
0.0383612
0.0378178
0.0372448
0.0366508
0.0361069
0.0356102
0.0354312
0.0356087
0.0361566
0.0375386
0.0398742
0.0438167
0.0497665
0.0577657
0.066597
0.0742835
0.0809591
0.0806614
0.0758628
0.067795
0.0619352
0.0592314
0.0589541
0.0600792
0.0613742
0.0619778
0.060897
0.0578686
0.0531796
0.0422097
0.0421654
0.0421227
0.0422213
0.0423067
0.0423485
0.0423536
0.042333
0.0422855
0.0422255
0.0421512
0.0420693
0.0419708
0.0418678
0.0417569
0.0416409
0.0415137
0.041372
0.0412169
0.041046
0.04086
0.0406606
0.0404477
0.040219
0.0399777
0.0397194
0.0394417
0.0391454
0.0388256
0.0384805
0.0381137
0.0377223
0.0373093
0.0368737
0.0364209
0.035949
0.0355012
0.0350523
0.0346738
0.034275
0.0340409
0.0337249
0.0337697
0.0339951
0.0345258
0.0353989
0.0365639
0.0382576
0.0407241
0.0439163
0.0482638
0.0540106
0.060194
0.0658031
0.0676337
0.0633212
0.0543739
0.0459395
0.0412511
0.0400964
0.0407719
0.0424147
0.0446123
0.0471911
0.049555
0.0506714
0.0503831
0.0482323
0.0444241
0.032458
0.0326444
0.0328203
0.0330003
0.0331767
0.0333486
0.0335102
0.0336669
0.0338134
0.0339554
0.0340908
0.0342227
0.0343482
0.0344707
0.0345877
0.0346981
0.034812
0.0348956
0.035035
0.0350084
0.0350028
0.035008
0.0351249
0.0350554
0.0351815
0.0350775
0.0350323
0.0349977
0.0350763
0.0348626
0.0347659
0.0347556
0.034611
0.0345558
0.0342625
0.03407
0.033694
0.0335457
0.0332477
0.0327344
0.0321384
0.031585
0.031021
0.0302582
0.0292404
0.0279215
0.0262355
0.0240947
0.0214609
0.0181359
0.0149272
0.0138946
0.0155314
0.0172666
0.0175285
0.0166811
0.0159484
0.0155492
0.0160131
0.0173368
0.0187349
0.0204758
0.0221587
0.0236673
0.0248941
0.02557
0.0256822
0.0250172
0.0233923
0.00190352
0.00190469
0.00190616
0.00190755
0.00190916
0.00191271
0.00191688
0.00192012
0.00192183
0.00192269
0.00192362
0.00192531
0.0019303
0.00193722
0.00194096
0.00194083
0.00194532
0.00194892
0.00195149
0.00195523
0.00195631
0.00195877
0.00196031
0.00196374
0.00196825
0.00197267
0.001978
0.00198157
0.00198101
0.00198258
0.00198381
0.00198813
0.00199198
0.00199291
0.001994
0.00199324
0.00199203
0.00199198
0.0019917
0.00199297
0.00199042
0.001991
0.00199
0.00198589
0.00198471
0.00198268
0.00197929
0.00197273
0.00196995
0.00197131
0.00197343
0.00197556
0.00197528
0.0019744
0.00197246
0.00196932
0.00196762
0.0019669
0.00196632
0.00191235
0.00191391
0.00191583
0.00191806
0.00192148
0.00192454
0.00192636
0.00192715
0.0019272
0.00192794
0.0019304
0.00193491
0.00194135
0.00194468
0.00194592
0.00194684
0.00195253
0.00195542
0.00195803
0.00196065
0.00196171
0.00196404
0.00196619
0.00197012
0.00197436
0.00197874
0.00198419
0.0019875
0.00198699
0.00198833
0.00199002
0.00199386
0.00199783
0.00199896
0.00200057
0.00200044
0.00199971
0.00199916
0.00199922
0.00200001
0.00199972
0.00199942
0.00199897
0.00199754
0.00199545
0.00199361
0.00199142
0.00198748
0.00198285
0.00198131
0.00198061
0.00198174
0.0019844
0.00198538
0.00198433
0.00198373
0.0019827
0.00198197
0.0019807
0.00192584
0.00192749
0.00192969
0.00193177
0.00193358
0.00193447
0.00193427
0.00193386
0.00193559
0.00193862
0.00194299
0.00194832
0.00195163
0.00195312
0.00195401
0.00195729
0.00196225
0.0019644
0.00196658
0.00196865
0.00197002
0.00197264
0.0019753
0.00197924
0.00198326
0.00198774
0.00199319
0.00199639
0.00199597
0.00199718
0.00199931
0.00200268
0.00200672
0.00200805
0.0020103
0.00201024
0.00200992
0.00200949
0.00200975
0.00201054
0.00201075
0.00201068
0.00201038
0.00201005
0.00200876
0.00200817
0.00200632
0.00200479
0.0020013
0.00199816
0.00199628
0.00199502
0.00199465
0.00199602
0.00199668
0.00199719
0.00199711
0.00199671
0.00199646
0.00194123
0.00194263
0.00194402
0.00194384
0.00194502
0.00194486
0.0019461
0.00194822
0.00195158
0.00195559
0.0019596
0.00196251
0.00196398
0.00196503
0.00196727
0.00197201
0.00197517
0.00197661
0.0019785
0.0019804
0.00198225
0.00198519
0.00198813
0.00199194
0.00199577
0.00200044
0.00200584
0.00200892
0.00200863
0.00200986
0.0020123
0.0020153
0.0020195
0.00202114
0.00202385
0.00202479
0.00202473
0.00202427
0.00202445
0.00202606
0.00202612
0.00202657
0.00202714
0.00202645
0.00202637
0.00202508
0.0020248
0.00202279
0.00202199
0.00202018
0.00201843
0.00201702
0.00201624
0.00201394
0.00201384
0.00201471
0.00201555
0.00201496
0.00201458
0.0019625
0.00196255
0.0019625
0.0019616
0.00196276
0.00196339
0.00196608
0.00196912
0.00197245
0.00197552
0.00197768
0.00197901
0.00198009
0.00198208
0.00198581
0.00198955
0.00199135
0.00199245
0.00199419
0.00199621
0.00199854
0.00200167
0.00200478
0.00200838
0.0020121
0.00201699
0.00202231
0.00202528
0.00202516
0.00202649
0.00202915
0.00203179
0.00203612
0.00203805
0.00204099
0.00204285
0.00204354
0.00204306
0.00204338
0.00204503
0.00204636
0.00204696
0.00204751
0.00204806
0.00204834
0.00204732
0.00204735
0.00204624
0.0020458
0.00204433
0.00204257
0.00204206
0.0020395
0.00203911
0.00203869
0.00203896
0.00203871
0.00203866
0.00203953
0.00198573
0.00198529
0.00198593
0.0019869
0.00198743
0.00198988
0.0019923
0.00199491
0.00199723
0.00199857
0.00199978
0.00200087
0.00200277
0.00200596
0.00200979
0.00201207
0.00201308
0.00201339
0.00201537
0.00201764
0.00202031
0.00202355
0.0020266
0.00202994
0.00203363
0.00203872
0.00204389
0.00204677
0.00204687
0.00204833
0.00205123
0.00205362
0.00205814
0.00206049
0.00206366
0.00206621
0.00206777
0.00206844
0.0020686
0.00206996
0.00207192
0.00207253
0.00207266
0.00207295
0.00207374
0.00207284
0.00207314
0.00207393
0.00207353
0.00207405
0.00207235
0.00207202
0.00207125
0.00207237
0.00207103
0.00207024
0.0020699
0.00207091
0.00206972
0.00201597
0.00201644
0.00201771
0.00201765
0.00201958
0.00202136
0.00202399
0.00202567
0.00202539
0.00202697
0.00202791
0.00202979
0.00203256
0.00203625
0.00203851
0.00203926
0.002039
0.00204021
0.00204234
0.0020449
0.00204782
0.00205097
0.00205394
0.00205701
0.00206076
0.00206605
0.00207105
0.00207389
0.00207424
0.00207585
0.00207895
0.00208107
0.0020856
0.0020883
0.00209166
0.00209472
0.00209706
0.00209877
0.00209944
0.00210077
0.00210291
0.00210515
0.00210631
0.00210768
0.00210728
0.00210749
0.00210849
0.00210689
0.00210644
0.00210664
0.00210535
0.00210655
0.00210553
0.00210674
0.00210508
0.00210528
0.0021057
0.00210804
0.00210705
0.00205775
0.00205753
0.00205731
0.00205792
0.00206011
0.0020636
0.00206479
0.00206467
0.00206412
0.0020635
0.00206549
0.00206789
0.00207154
0.00207398
0.00207499
0.00207489
0.00207442
0.00207511
0.00207761
0.0020804
0.00208336
0.00208627
0.00208895
0.0020918
0.00209566
0.00210109
0.00210588
0.0021087
0.00210931
0.00211112
0.00211448
0.00211656
0.0021212
0.00212442
0.00212808
0.00213163
0.00213469
0.00213737
0.00213888
0.00214039
0.00214255
0.00214534
0.00214773
0.00214988
0.00215158
0.00215308
0.00215487
0.0021558
0.00215658
0.00215771
0.00215802
0.00216006
0.002157
0.00215563
0.00215511
0.00215689
0.00215402
0.0021539
0.00215588
0.00211298
0.00211437
0.00211422
0.00211216
0.00211356
0.00211139
0.00211119
0.00211106
0.00210929
0.00211082
0.002113
0.00211718
0.0021195
0.00212042
0.00211823
0.00211787
0.00211815
0.00211861
0.00212154
0.00212442
0.00212731
0.00212983
0.00213212
0.00213487
0.00213887
0.00214448
0.00214906
0.00215192
0.00215279
0.00215482
0.00215835
0.00216031
0.00216482
0.00216842
0.00217237
0.0021764
0.00218015
0.00218384
0.00218659
0.0021889
0.00219144
0.00219457
0.00219791
0.00220105
0.00220385
0.00220642
0.00220924
0.00221185
0.00221424
0.00221671
0.00221864
0.0022211
0.00222293
0.0022245
0.00222595
0.00222862
0.00222588
0.00222822
0.0022246
0.00216925
0.00217049
0.00216905
0.00217185
0.00217142
0.00217011
0.00217261
0.00217214
0.00217144
0.00217457
0.00217754
0.00217839
0.00217839
0.00217375
0.00217374
0.00217468
0.00217436
0.00217531
0.00217888
0.00218146
0.00218359
0.00218542
0.00218726
0.00218989
0.00219406
0.00219964
0.00220402
0.00220691
0.00220804
0.00221036
0.00221419
0.0022164
0.00222106
0.00222524
0.00222967
0.0022342
0.00223858
0.00224305
0.00224692
0.00225022
0.00225348
0.00225705
0.00226107
0.00226522
0.00226916
0.00227273
0.00227632
0.00227994
0.00228344
0.00228696
0.00229012
0.00229341
0.0022965
0.00229965
0.00230259
0.00230598
0.00230828
0.00231181
0.00231351
0.00225475
0.00225393
0.00225285
0.00225053
0.00225305
0.00225176
0.00225158
0.00224918
0.00225067
0.00225307
0.00225233
0.00225143
0.00224453
0.00224346
0.00224441
0.00224383
0.00224504
0.00224701
0.00224926
0.00225116
0.00225256
0.00225375
0.00225511
0.00225766
0.00226221
0.00226764
0.00227185
0.00227486
0.00227627
0.00227888
0.0022829
0.00228516
0.00228963
0.00229414
0.00229909
0.00230432
0.00230957
0.00231512
0.00232038
0.00232507
0.0023296
0.00233418
0.0023391
0.00234431
0.00234965
0.00235474
0.00235965
0.00236449
0.00236921
0.00237389
0.00237829
0.00238262
0.00238668
0.00239083
0.00239469
0.00239894
0.00240248
0.00240702
0.00241024
0.00234799
0.00234632
0.0023484
0.0023503
0.00234824
0.00235297
0.00235164
0.00234582
0.00234553
0.00234142
0.00233909
0.00233599
0.00233401
0.00233414
0.00233647
0.00233701
0.00233726
0.0023382
0.00233955
0.00233994
0.00234065
0.00234145
0.00234242
0.00234495
0.00234955
0.00235452
0.00235862
0.00236168
0.00236337
0.00236634
0.00237077
0.00237367
0.0023785
0.00238364
0.00238922
0.0023951
0.00240104
0.00240735
0.00241378
0.00241978
0.00242562
0.00243147
0.00243748
0.00244372
0.00245026
0.00245684
0.00246336
0.00246979
0.00247608
0.00248234
0.00248839
0.00249431
0.0024999
0.00250549
0.00251067
0.00251618
0.00252084
0.00252655
0.00253069
0.0024779
0.00247146
0.00247281
0.00247112
0.0024692
0.00246511
0.00246356
0.00246183
0.00245919
0.00245464
0.00245178
0.00245316
0.00245105
0.00245192
0.00245121
0.00244691
0.00244974
0.00245087
0.00244883
0.00245087
0.0024504
0.00244976
0.00245069
0.0024532
0.00245747
0.00246213
0.00246626
0.00246944
0.00247145
0.00247483
0.00247947
0.00248258
0.00248733
0.00249283
0.00249919
0.00250627
0.00251362
0.00252133
0.00252945