/*--------------------------------*- C++ -*----------------------------------*\
| =========                 |                                                 |
| \\      /  F ield         | OpenFOAM: The Open Source CFD Toolbox           |
|  \\    /   O peration     | Version:  2312                                  |
|   \\  /    A nd           | Website:  www.openfoam.com                      |
|    \\/     M anipulation  |                                                 |
\*---------------------------------------------------------------------------*/
FoamFile
{
    version     2.0;
    format      ascii;
    arch        "LSB;label=32;scalar=64";
    class       volScalarField;
    location    "800";
    object      nut;
}
// * * * * * * * * * * * * * * * * * * * * * * * * * * * * * * * * * * * * * //

dimensions      [0 2 -1 0 0 0 0];

internalField   nonuniform List<scalar> 
76025
(
0.00133643
0.00133656
0.00133751
0.00133781
0.00133873
0.00133917
0.00133942
0.00134027
0.00134131
0.00134269
0.0013437
0.00134479
0.00134621
0.0013474
0.00134869
0.00134959
0.00135123
0.00135206
0.00135276
0.00135363
0.00135446
0.0013548
0.00135477
0.00135572
0.00135563
0.00135633
0.00135717
0.00135803
0.00135985
0.00136099
0.00136263
0.00136373
0.00136639
0.00136741
0.00137075
0.00137152
0.00137492
0.00137894
0.00138339
0.00139149
0.00139621
0.00140343
0.001408
0.00141603
0.00142032
0.00143016
0.00143503
0.001447
0.00145442
0.00146824
0.00147952
0.00149491
0.00150854
0.0015219
0.00153768
0.0015508
0.00156982
0.00159346
0.00162373
0.0016618
0.0016982
0.0017431
0.00177511
0.00183637
0.00189388
0.00194729
0.00203092
0.00206181
0.00221055
0.00134592
0.00134532
0.00134505
0.00134459
0.00134468
0.0013449
0.00134527
0.00134609
0.00134707
0.0013484
0.00134987
0.00135126
0.00135294
0.00135479
0.00135665
0.001358
0.001359
0.00135876
0.00136073
0.00136022
0.00136102
0.00136214
0.00136532
0.00136673
0.00136865
0.00136921
0.00137041
0.00137149
0.00137158
0.00137165
0.00137438
0.00137777
0.00138137
0.00138694
0.00139213
0.00139746
0.00140122
0.00140582
0.00141025
0.00141579
0.00142095
0.0014275
0.0014334
0.00144118
0.00144792
0.00145733
0.00146545
0.0014769
0.00148695
0.00149981
0.00151194
0.00152433
0.00153845
0.00154918
0.00156584
0.00157863
0.00160592
0.00163221
0.00167322
0.00171125
0.00175337
0.00180479
0.00185133
0.00193289
0.00199601
0.00208392
0.00217889
0.00226519
0.00244016
0.00135377
0.0013549
0.00135605
0.00135637
0.00135638
0.00135613
0.0013559
0.00135532
0.00135543
0.00135568
0.0013565
0.0013575
0.00135874
0.00135919
0.00135876
0.00136007
0.00136101
0.00136225
0.00136333
0.00136449
0.00136551
0.00136872
0.00137226
0.00137558
0.00137856
0.00138157
0.00138513
0.00138808
0.00139255
0.00139514
0.00140228
0.00140419
0.00140666
0.00141014
0.0014136
0.00141787
0.00142202
0.0014273
0.00143218
0.00143858
0.00144405
0.00145147
0.00145735
0.00146594
0.00147244
0.0014829
0.00149046
0.00150313
0.00151201
0.00152614
0.00153641
0.00155076
0.0015632
0.00157756
0.00159556
0.0016169
0.00164891
0.001683
0.00172453
0.00176627
0.00181073
0.00187249
0.00192867
0.00202736
0.00209235
0.00220983
0.00230911
0.00242395
0.00262609
0.00136343
0.00136618
0.00136657
0.00136868
0.00137023
0.00136842
0.00136927
0.0013718
0.00137305
0.00137351
0.00137392
0.00137476
0.00137358
0.00137529
0.00137302
0.00137377
0.00137741
0.00138101
0.00138341
0.00138602
0.00138796
0.00139128
0.00139525
0.00139729
0.00140393
0.00140801
0.00140868
0.00141011
0.0014126
0.00141548
0.00141871
0.00142214
0.00142557
0.00142953
0.00143354
0.00143828
0.00144291
0.00144848
0.00145362
0.00146013
0.00146596
0.00147369
0.00148029
0.00148935
0.00149679
0.00150757
0.00151567
0.00152852
0.00153729
0.00155225
0.00156241
0.00157932
0.00159305
0.00161314
0.00163607
0.00166588
0.00170172
0.0017401
0.00178238
0.00183004
0.00188384
0.00196252
0.00203166
0.00214897
0.00221797
0.00237168
0.00248145
0.00263558
0.00288445
0.0013753
0.00137778
0.00137803
0.00138
0.00138165
0.00138286
0.00138229
0.0013856
0.00138564
0.00138818
0.00138627
0.00138529
0.00138696
0.00138884
0.00139023
0.00139216
0.00139447
0.00139719
0.00140127
0.00140486
0.00141112
0.00141331
0.00141587
0.00141842
0.00142128
0.00142438
0.00142733
0.00143048
0.00143363
0.00143698
0.00144042
0.0014442
0.00144801
0.00145242
0.00145685
0.00146198
0.00146692
0.00147292
0.00147854
0.00148581
0.00149232
0.00150094
0.00150803
0.00151772
0.00152527
0.00153641
0.00154475
0.00155873
0.0015683
0.00158633
0.00159739
0.00161951
0.00163415
0.00166231
0.00168643
0.00172427
0.00175754
0.00180361
0.00184585
0.0019105
0.001974
0.00207212
0.00214713
0.00227633
0.00235421
0.00254368
0.00265312
0.00288398
0.00311859
0.00138833
0.00139126
0.0013896
0.00139059
0.00139162
0.00139663
0.00139525
0.00139824
0.00139507
0.00139903
0.00140278
0.00140815
0.00141038
0.00141526
0.0014191
0.00142222
0.00142879
0.0014303
0.00143164
0.00143311
0.00143525
0.00143749
0.00143969
0.00144215
0.00144453
0.00144725
0.00145014
0.00145342
0.00145687
0.00146057
0.00146438
0.00146832
0.00147222
0.00147642
0.00148065
0.00148549
0.00149031
0.00149622
0.00150192
0.00150949
0.00151661
0.00152632
0.00153489
0.00154668
0.00155683
0.001571
0.00158282
0.00159974
0.00161224
0.00163218
0.00164426
0.0016683
0.00168344
0.00171564
0.00174034
0.00178364
0.00181829
0.00187662
0.00192623
0.00201282
0.00208132
0.00219686
0.00226408
0.00241567
0.00249951
0.00273281
0.00285003
0.0031681
0.0033565
0.00140859
0.00141276
0.00141503
0.00142025
0.00142198
0.00142272
0.00142366
0.00142874
0.00142961
0.00143259
0.00143474
0.00144168
0.00144286
0.00144374
0.00144547
0.00144692
0.0014492
0.00145125
0.00145305
0.00145478
0.00145646
0.0014584
0.00146029
0.00146247
0.00146465
0.00146729
0.00147019
0.0014738
0.00147772
0.00148224
0.00148704
0.00149209
0.00149726
0.00150273
0.00150831
0.00151446
0.00152064
0.00152768
0.00153461
0.0015432
0.00155158
0.00156249
0.00157268
0.00158625
0.00159859
0.00161453
0.00162828
0.0016455
0.00165908
0.00167789
0.00169129
0.00171575
0.00173434
0.00177037
0.0018007
0.00185149
0.00189603
0.00196798
0.00202972
0.00212944
0.0021986
0.00232039
0.00238752
0.00256941
0.00267164
0.00296093
0.00309891
0.0034885
0.00364818
0.00142298
0.00142957
0.00143633
0.00144027
0.00144876
0.00145124
0.00145292
0.00145521
0.00145715
0.00145963
0.00146166
0.00146487
0.00146785
0.00147049
0.001473
0.00147533
0.00147766
0.00148008
0.00148247
0.00148492
0.00148732
0.00148982
0.00149243
0.00149517
0.00149804
0.00150112
0.00150444
0.00150813
0.0015121
0.00151666
0.00152163
0.00152717
0.00153304
0.00153947
0.00154611
0.00155324
0.00156049
0.0015682
0.00157594
0.00158469
0.00159365
0.00160464
0.00161569
0.00162978
0.00164333
0.00165966
0.00167449
0.00169154
0.00170686
0.00172567
0.00174349
0.00177
0.00179661
0.00183774
0.00187867
0.00193784
0.00199585
0.00207705
0.00214874
0.00225081
0.00232329
0.00245616
0.0025486
0.00277679
0.00291737
0.00327191
0.00342507
0.00386912
0.00393437
0.00146823
0.00146999
0.00147198
0.00147404
0.00147733
0.00148039
0.0014831
0.00148573
0.00148807
0.00149055
0.00149282
0.00149534
0.00149787
0.00150035
0.00150269
0.00150495
0.00150713
0.00150945
0.001512
0.00151483
0.00151794
0.00152127
0.00152481
0.00152855
0.00153244
0.00153655
0.00154087
0.00154545
0.00155036
0.00155583
0.0015616
0.00156788
0.00157442
0.0015815
0.00158889
0.00159672
0.00160482
0.0016132
0.0016219
0.00163158
0.0016422
0.0016548
0.00166813
0.00168374
0.00169886
0.0017158
0.00173164
0.00174944
0.00176721
0.00178885
0.00181332
0.00184557
0.00188274
0.00193082
0.00198373
0.00205038
0.00212011
0.00220506
0.00228641
0.00239205
0.0024904
0.0026536
0.00280629
0.00308316
0.00327809
0.00366707
0.0038152
0.00425252
0.0041567
0.001514
0.00151282
0.0015121
0.00151186
0.00151252
0.00151393
0.00151594
0.00151829
0.00152077
0.00152334
0.00152602
0.00152891
0.001532
0.00153523
0.00153842
0.00154157
0.00154459
0.0015475
0.00155046
0.00155357
0.00155699
0.00156085
0.0015651
0.00156975
0.00157448
0.00157945
0.00158425
0.00158914
0.00159407
0.00159928
0.00160469
0.00161055
0.00161696
0.00162408
0.00163214
0.00164104
0.00165089
0.00166178
0.00167365
0.00168731
0.00170219
0.00171908
0.00173629
0.00175514
0.0017732
0.00179291
0.00181186
0.00183342
0.0018561
0.00188407
0.00191642
0.0019567
0.00200299
0.00205857
0.00212072
0.00219414
0.0022732
0.0023671
0.00246937
0.00260284
0.00275484
0.00296927
0.00319058
0.00349497
0.00372711
0.00408726
0.00420458
0.0045441
0.00428879
0.00153939
0.0015415
0.00154306
0.00154427
0.00154544
0.00154698
0.00154887
0.00155128
0.00155394
0.00155682
0.00155965
0.00156262
0.00156563
0.00156896
0.00157234
0.00157602
0.0015797
0.00158348
0.00158717
0.0015909
0.00159482
0.001599
0.00160367
0.00160878
0.0016142
0.00162008
0.00162615
0.00163263
0.00163926
0.00164598
0.00165268
0.00165966
0.00166703
0.0016753
0.00168449
0.00169517
0.00170693
0.00172077
0.00173576
0.00175339
0.0017723
0.00179349
0.0018151
0.00183824
0.00186095
0.00188545
0.00191012
0.00193836
0.00196927
0.00200665
0.00204902
0.00209916
0.00215455
0.00221914
0.00229097
0.002377
0.00247529
0.00259862
0.00274401
0.00292998
0.00314244
0.00340106
0.00365855
0.00395028
0.00417653
0.00445862
0.00451117
0.00468998
0.00421253
0.00158193
0.00158414
0.00158618
0.00158798
0.00158965
0.00159146
0.00159351
0.00159601
0.00159893
0.00160237
0.00160623
0.00161042
0.0016149
0.00161964
0.00162453
0.00162955
0.00163465
0.00163983
0.00164508
0.00165041
0.001656
0.00166183
0.00166816
0.00167476
0.00168163
0.00168849
0.00169539
0.00170252
0.00170958
0.00171672
0.00172383
0.00173131
0.00173936
0.0017487
0.00175932
0.00177214
0.00178688
0.00180476
0.00182456
0.00184749
0.00187189
0.00189816
0.0019248
0.00195245
0.00198055
0.00201076
0.00204279
0.00207889
0.00211882
0.00216481
0.0022157
0.00227367
0.0023385
0.00241587
0.00250746
0.00262218
0.00276065
0.00293271
0.00313219
0.0033665
0.00361515
0.00388249
0.00412976
0.00437442
0.00455762
0.0047374
0.00467061
0.00458981
0.00394144
0.00163862
0.00164132
0.00164397
0.00164648
0.00164886
0.00165124
0.00165364
0.00165624
0.00165903
0.00166214
0.00166568
0.00166959
0.00167391
0.00167846
0.0016833
0.00168821
0.0016934
0.00169872
0.00170439
0.00171035
0.00171701
0.00172443
0.00173299
0.00174251
0.00175293
0.00176372
0.00177482
0.00178596
0.00179678
0.00180752
0.00181805
0.00182897
0.0018403
0.00185302
0.00186703
0.00188351
0.00190214
0.00192403
0.00194801
0.0019748
0.0020032
0.00203348
0.00206498
0.00209821
0.00213337
0.00217118
0.00221171
0.00225616
0.00230512
0.00236049
0.002423
0.00249613
0.00258314
0.00269019
0.00282113
0.00298126
0.00316956
0.00338629
0.00362166
0.00387101
0.00411538
0.00435148
0.00455127
0.00472971
0.00483191
0.00489531
0.00456106
0.00422844
0.00361
0.00170817
0.00171169
0.00171525
0.00171876
0.00172222
0.00172572
0.00172924
0.00173283
0.00173655
0.00174041
0.00174454
0.00174894
0.00175367
0.0017586
0.00176382
0.00176924
0.00177502
0.00178121
0.00178783
0.00179498
0.00180246
0.00181047
0.00181887
0.00182798
0.00183767
0.00184836
0.00185989
0.00187234
0.00188534
0.00189951
0.00191444
0.00193082
0.00194839
0.00196821
0.00198995
0.00201472
0.00204185
0.00207183
0.00210359
0.00213718
0.00217235
0.00220953
0.00224872
0.00229027
0.00233417
0.00238059
0.00243008
0.00248442
0.00254597
0.00261803
0.00270381
0.00280795
0.00293406
0.00308594
0.00326395
0.00346688
0.00368823
0.0039213
0.00415413
0.00437842
0.00458032
0.00475372
0.00487883
0.00497855
0.00494307
0.00485934
0.00405873
0.00374967
0.00323493
0.00179428
0.00179882
0.00180345
0.00180806
0.0018127
0.0018174
0.00182221
0.00182714
0.00183225
0.00183751
0.00184296
0.00184864
0.0018545
0.00186049
0.00186651
0.00187254
0.00187862
0.00188495
0.00189169
0.00189904
0.00190712
0.00191591
0.0019255
0.0019358
0.00194711
0.00195966
0.00197322
0.00198844
0.00200493
0.00202367
0.00204415
0.00206711
0.00209225
0.00212025
0.00215079
0.00218451
0.00222087
0.00225973
0.00230045
0.00234259
0.00238639
0.002432
0.00247947
0.00252915
0.00258158
0.00263854
0.00270254
0.0027773
0.00286639
0.00297336
0.00310079
0.00325043
0.00342205
0.00361371
0.00382044
0.00403589
0.00425132
0.004459
0.00464873
0.00481447
0.00494426
0.00503316
0.00506478
0.0050786
0.00479404
0.00453326
0.00353917
0.00328582
0.00326506
0.00190266
0.00190842
0.00191436
0.00192031
0.00192634
0.00193244
0.00193865
0.00194498
0.00195149
0.0019582
0.00196513
0.00197229
0.00197968
0.00198725
0.00199491
0.00200257
0.00201026
0.00201805
0.00202631
0.00203525
0.00204539
0.00205673
0.00206982
0.00208491
0.00210198
0.00212104
0.00214188
0.0021646
0.00218903
0.00221536
0.0022436
0.00227397
0.00230699
0.00234307
0.00238235
0.00242475
0.0024697
0.00251644
0.00256441
0.00261339
0.00266402
0.00271714
0.00277396
0.00283644
0.00290718
0.00298918
0.00308535
0.00319805
0.00332858
0.00347717
0.00364264
0.00382256
0.00401281
0.00420814
0.00440207
0.00458799
0.00475887
0.00490842
0.00502875
0.00511549
0.00515466
0.00514999
0.0050791
0.00498427
0.00433492
0.00405354
0.003152
0.00314722
0.00376449
0.00203973
0.00204681
0.00205419
0.00206173
0.00206946
0.00207734
0.00208538
0.00209356
0.00210194
0.00211052
0.00211939
0.00212857
0.00213814
0.00214813
0.00215854
0.00216935
0.00218061
0.00219229
0.00220471
0.00221789
0.00223249
0.00224886
0.00226738
0.00228837
0.00231186
0.00233837
0.00236776
0.00240006
0.00243538
0.00247342
0.002514
0.00255728
0.00260371
0.00265342
0.00270604
0.0027608
0.00281689
0.00287386
0.00293193
0.00299222
0.00305625
0.00312709
0.0032061
0.00329553
0.00339711
0.00351186
0.00364021
0.0037816
0.00393456
0.00409667
0.00426463
0.00443433
0.00460102
0.00475964
0.00490485
0.0050313
0.00513391
0.00520647
0.0052437
0.00523985
0.00518039
0.00509069
0.00489076
0.00462884
0.00383924
0.00356708
0.00302644
0.00346473
0.00457419
0.00222621
0.00223525
0.00224466
0.0022543
0.00226425
0.00227449
0.00228503
0.00229583
0.00230693
0.00231835
0.00233015
0.00234241
0.00235524
0.00236874
0.002383
0.00239816
0.00241425
0.00243153
0.00245026
0.00247059
0.00249275
0.00251692
0.00254328
0.00257236
0.00260442
0.00263987
0.0026789
0.00272162
0.00276808
0.00281812
0.00287151
0.00292812
0.00298785
0.00305052
0.00311587
0.00318371
0.00325404
0.00332738
0.00340437
0.00348655
0.00357448
0.00367048
0.00377497
0.00388948
0.00401224
0.00414235
0.00427876
0.00441921
0.00456114
0.00470148
0.0048369
0.00496372
0.00507811
0.00517618
0.00525366
0.00530613
0.00532978
0.00531737
0.00526811
0.00516899
0.00501805
0.00485895
0.00441494
0.00414418
0.00335249
0.0031778
0.00320918
0.00414394
0.00529779
0.00246354
0.00247699
0.00249108
0.00250567
0.00252086
0.00253668
0.00255315
0.00257027
0.00258806
0.0026066
0.0026259
0.00264614
0.00266729
0.00268978
0.00271379
0.00273944
0.00276687
0.00279621
0.00282746
0.00286085
0.00289655
0.00293476
0.00297566
0.00301958
0.00306675
0.00311738
0.00317156
0.00322935
0.00329073
0.00335556
0.00342364
0.00349474
0.00356863
0.00364506
0.00372383
0.00380488
0.00388827
0.0039743
0.00406329
0.00415567
0.00425153
0.00435105
0.00445343
0.0045592
0.00466715
0.00477612
0.00488461
0.00498914
0.00508796
0.00517855
0.0052583
0.0053242
0.00537309
0.00540162
0.00540547
0.00538092
0.00532383
0.00522686
0.00509336
0.00489959
0.00467971
0.00440826
0.00386336
0.00355555
0.00295894
0.00305392
0.00373155
0.00484088
0.00564499
0.00283496
0.00285472
0.00287562
0.00289758
0.00292077
0.00294528
0.00297124
0.002999
0.00302862
0.00306014
0.0030936
0.00312917
0.00316665
0.00320609
0.00324759
0.00329125
0.0033371
0.00338523
0.0034356
0.00348832
0.00354312
0.00359974
0.00365818
0.00371841
0.00378044
0.00384425
0.00390989
0.0039773
0.00404637
0.00411693
0.00418882
0.00426185
0.00433578
0.0044104
0.0044855
0.00456091
0.00463648
0.0047121
0.00478761
0.00486285
0.00493748
0.0050111
0.00508298
0.00515235
0.00521805
0.00528011
0.00533732
0.00538836
0.00543154
0.00546343
0.00548182
0.00548345
0.00546519
0.00542359
0.00535299
0.00525182
0.00511294
0.00493508
0.00471659
0.0044424
0.0041517
0.00379104
0.0032447
0.0029804
0.00278809
0.00332747
0.00432537
0.00523196
0.00572913
0.00337269
0.00340972
0.00344881
0.00348976
0.00353249
0.00357687
0.00362289
0.00367054
0.00371979
0.0037706
0.00382291
0.00387671
0.00393097
0.00398569
0.00404084
0.0040964
0.00415236
0.00420867
0.00426533
0.00432224
0.00437953
0.00443731
0.00449549
0.00455395
0.00461261
0.00467134
0.00473005
0.00478861
0.00484689
0.00490474
0.004962
0.00501848
0.00507397
0.00512825
0.00518108
0.00523223
0.00528144
0.00532844
0.00537293
0.00541455
0.00545287
0.00548738
0.00551747
0.00554235
0.00556131
0.0055727
0.00557685
0.00557276
0.00555895
0.00553367
0.00549278
0.00543129
0.00534655
0.0052344
0.00508716
0.00491004
0.0046873
0.00443786
0.00413315
0.0038115
0.0034379
0.00307686
0.0026792
0.00262305
0.00295404
0.00386718
0.00472311
0.00534454
0.00588997
0.00420899
0.00424984
0.00429138
0.00433346
0.00437613
0.00441937
0.00446312
0.00450734
0.004552
0.00459708
0.0046425
0.00468824
0.0047348
0.00478201
0.00482972
0.00487777
0.00492601
0.00497428
0.00502245
0.00507035
0.00511784
0.00516479
0.00521105
0.00525646
0.00530089
0.00534417
0.00538615
0.00542665
0.00546549
0.00550249
0.00553747
0.0055702
0.00560045
0.00562797
0.00565251
0.0056738
0.00569158
0.00570554
0.00571536
0.00572068
0.00572102
0.00571592
0.00570491
0.00568732
0.00566228
0.00562883
0.00558449
0.00553088
0.00546564
0.00538686
0.00528771
0.00516036
0.00500627
0.00481862
0.00459038
0.00434246
0.00403712
0.0037422
0.00336353
0.00305045
0.00266991
0.00245616
0.00235364
0.00266401
0.00338532
0.00414128
0.00488221
0.00537266
0.00586222
0.00495909
0.00498074
0.0050046
0.00503034
0.00505784
0.00508694
0.00511743
0.00514914
0.0051819
0.00521554
0.00524989
0.00528479
0.00532009
0.00535566
0.00539133
0.00542694
0.00546231
0.00549728
0.00553167
0.00556529
0.00559795
0.00562946
0.00565963
0.00568825
0.00571514
0.0057401
0.00576291
0.00578335
0.00580119
0.00581626
0.00582827
0.00583701
0.0058421
0.00584324
0.00584019
0.00583271
0.00582058
0.00580352
0.00578124
0.0057534
0.0057193
0.00567892
0.00563208
0.00557763
0.00551484
0.00544137
0.00535355
0.0052584
0.00514677
0.00501482
0.00484715
0.00463745
0.00439485
0.00412378
0.0038413
0.0035543
0.00318482
0.00291716
0.00250292
0.00224875
0.00206636
0.0020985
0.00241864
0.00304322
0.00364189
0.00434426
0.00481701
0.00530724
0.00563212
0.00541755
0.00542307
0.00543114
0.00544145
0.00545388
0.00546823
0.00548427
0.00550179
0.00552056
0.00554039
0.00556101
0.00558223
0.00560374
0.00562531
0.0056467
0.00566771
0.00568814
0.0057078
0.00572649
0.005744
0.00576014
0.00577477
0.00578759
0.00579841
0.00580707
0.00581343
0.00581709
0.00581794
0.00581545
0.00580976
0.00580015
0.00578696
0.00576832
0.00574477
0.00571641
0.00568316
0.00564484
0.00560115
0.00555175
0.0054961
0.00543255
0.00536422
0.00529037
0.00520571
0.00511211
0.00499969
0.00487316
0.00469961
0.0045023
0.00428278
0.00403046
0.00375815
0.00347856
0.00318017
0.00286897
0.00261174
0.00227227
0.00205034
0.00185251
0.001811
0.00197478
0.00238128
0.00275348
0.00325306
0.0037643
0.00427367
0.0047199
0.0050552
0.00520508
0.00548778
0.0054851
0.00548405
0.00548446
0.00548631
0.00548947
0.0054938
0.00549915
0.00550528
0.00551212
0.00551909
0.00552644
0.00553265
0.00553809
0.0055428
0.00554679
0.00554997
0.00555221
0.00555335
0.00555322
0.00555171
0.00554931
0.00554418
0.005537
0.00552811
0.00551816
0.00550408
0.00548829
0.00546722
0.00544512
0.00541667
0.00538818
0.0053395
0.00529301
0.00524376
0.00519087
0.00513349
0.00507085
0.00500202
0.00492528
0.00483716
0.00473484
0.00462778
0.00447684
0.00433494
0.00416194
0.00396396
0.00374472
0.00350757
0.00325301
0.00299362
0.00271615
0.00244998
0.00218361
0.0019629
0.00175654
0.00164241
0.00160729
0.00171825
0.00200185
0.00224098
0.0026001
0.00291676
0.00334776
0.00378063
0.00416101
0.00446988
0.00466138
0.00465034
0.0050933
0.00508551
0.00507768
0.0050705
0.00506435
0.00505878
0.00505355
0.00504881
0.00504317
0.00503861
0.00503055
0.00502579
0.00499998
0.00498059
0.00496222
0.00494537
0.00492918
0.004913
0.00489643
0.00487944
0.00486319
0.00485415
0.00482425
0.00479949
0.00477918
0.00477321
0.00473377
0.00472068
0.00467165
0.00465203
0.00459388
0.00456641
0.00453255
0.00448495
0.00442714
0.00435986
0.00428285
0.00419559
0.00409733
0.00398554
0.00386279
0.00372724
0.00357958
0.00341637
0.00324004
0.00305264
0.00284099
0.00261467
0.00237287
0.00213427
0.00191179
0.00171427
0.00154579
0.00144249
0.00140365
0.00140385
0.00152144
0.00170785
0.00192549
0.00212865
0.00237421
0.00270433
0.00304285
0.00337515
0.00368276
0.00394459
0.00413355
0.00420164
0.00408042
0.00403013
0.0040203
0.00399357
0.00397764
0.00396997
0.00395907
0.00394601
0.00393502
0.00390458
0.00388854
0.00388214
0.00387409
0.00383941
0.00382138
0.00380724
0.00381176
0.00380775
0.00379711
0.00378182
0.00376317
0.00374187
0.00371904
0.00369371
0.00366677
0.00363829
0.00360867
0.00357626
0.00354263
0.00350481
0.00346354
0.00341711
0.00336689
0.00331138
0.00324957
0.00318043
0.00310292
0.00301418
0.00291552
0.00280637
0.00268816
0.00256041
0.00241881
0.00226975
0.0021127
0.00195297
0.00180482
0.00162726
0.00143866
0.00128313
0.00118174
0.00111935
0.00110218
0.00113521
0.00120169
0.00130854
0.00144299
0.0016511
0.00175085
0.00194449
0.00220169
0.00244189
0.00268962
0.00297038
0.00323885
0.00346018
0.00364652
0.00375245
0.00374148
0.00357389
0.00218244
0.00216989
0.00215833
0.00216119
0.00216298
0.00216088
0.00215572
0.00214846
0.00213967
0.00212817
0.00212387
0.00211652
0.00210734
0.00209765
0.00208716
0.00207618
0.00206417
0.00205085
0.00203635
0.00202053
0.00200374
0.00198575
0.00196712
0.00194709
0.00192233
0.00189636
0.00186935
0.00183736
0.00179855
0.00175443
0.00170459
0.00165155
0.0015935
0.00153257
0.00146751
0.00140166
0.00133352
0.00126592
0.00120026
0.00113384
0.00107342
0.00100239
0.000948015
0.000899908
0.000861777
0.000832638
0.000813359
0.000825382
0.000849361
0.000882509
0.000933689
0.00100182
0.00108449
0.00117091
0.00128207
0.00132705
0.00140146
0.001386
0.0014236
0.00159658
0.00184603
0.0021021
0.00232976
0.00252887
0.0027165
0.00280654
0.00284912
0.00280593
0.00268748
0.000402972
0.000404511
0.000405988
0.000407578
0.000409246
0.000410915
0.000412533
0.000414114
0.000415645
0.000417114
0.000418578
0.000420028
0.000421445
0.000422838
0.000424257
0.000425585
0.000427133
0.000428131
0.000430478
0.00042903
0.000429781
0.00042894
0.000433684
0.00043301
0.000435657
0.000433383
0.00043373
0.000433699
0.000439981
0.000437078
0.00043499
0.000441029
0.000441024
0.000442216
0.000437291
0.000443076
0.000435532
0.00043784
0.000438023
0.000437055
0.000432431
0.000426074
0.000420929
0.000416151
0.000409341
0.000399732
0.000386397
0.000368019
0.000344122
0.000311117
0.000284937
0.000292824
0.00032175
0.000332553
0.000325923
0.000312171
0.000303637
0.000301248
0.000317712
0.000329492
0.000346726
0.000364815
0.000383835
0.000401858
0.00041962
0.000435105
0.000443524
0.000448073
0.000448914
0.0013137
0.0013129
0.00131246
0.00131204
0.00131199
0.0013132
0.00131363
0.00131337
0.00131192
0.00131013
0.00130791
0.00130716
0.00130647
0.00130646
0.00130448
0.001302
0.00130229
0.00130201
0.00130263
0.0013041
0.00130637
0.0013092
0.00131083
0.00131153
0.00131262
0.00131414
0.0013175
0.00132204
0.00132436
0.00132477
0.00132355
0.00132388
0.00132376
0.00132604
0.00132737
0.00132932
0.00132815
0.00132913
0.00133135
0.00133319
0.0013308
0.00133153
0.0013313
0.001329
0.00133141
0.00133149
0.00133018
0.00132768
0.0013322
0.00133428
0.00133536
0.0013368
0.00133681
0.00133644
0.00133669
0.00133685
0.00133636
0.00133629
0.00133612
0.00131868
0.00131839
0.00131844
0.00131856
0.00131916
0.00131903
0.00131864
0.00131726
0.00131512
0.00131311
0.00131254
0.00131331
0.00131174
0.00131008
0.00130801
0.00130652
0.00130819
0.0013073
0.00130892
0.00131001
0.00131227
0.00131483
0.00131697
0.00131784
0.0013189
0.00132031
0.00132428
0.00132826
0.00133044
0.00133076
0.00132986
0.00133003
0.00132999
0.00133199
0.00133359
0.00133502
0.00133532
0.00133531
0.00133725
0.00133965
0.00133898
0.00133912
0.00133863
0.00133812
0.00133811
0.00133893
0.00133866
0.00133729
0.00133682
0.00134046
0.00134149
0.00134203
0.00134448
0.00134612
0.00134466
0.00134591
0.00134519
0.00134556
0.00134586
0.00132472
0.00132453
0.00132475
0.00132501
0.00132492
0.00132424
0.00132255
0.00132013
0.00131967
0.00131951
0.0013196
0.00131846
0.00131641
0.00131511
0.0013139
0.00131454
0.00131481
0.00131498
0.00131581
0.00131773
0.00131937
0.00132274
0.00132421
0.00132508
0.00132595
0.00132739
0.00133143
0.0013352
0.00133791
0.00133812
0.00133771
0.00133769
0.00133779
0.00133919
0.00134124
0.00134166
0.00134201
0.00134212
0.00134369
0.0013462
0.0013463
0.0013467
0.00134637
0.00134612
0.00134591
0.00134679
0.0013469
0.00134815
0.00134812
0.00134867
0.00135003
0.00135009
0.00135014
0.00135175
0.0013537
0.0013548
0.00135517
0.00135505
0.00135454
0.00133149
0.00133176
0.00133184
0.00133032
0.00133052
0.00132894
0.00132854
0.00132818
0.00132805
0.00132751
0.00132645
0.00132448
0.00132322
0.00132244
0.0013223
0.00132326
0.00132326
0.00132338
0.00132471
0.00132688
0.00132921
0.00133178
0.00133299
0.00133354
0.00133445
0.00133608
0.00134068
0.00134395
0.00134619
0.00134676
0.00134631
0.00134662
0.00134679
0.00134764
0.00134977
0.00135122
0.00135165
0.00135167
0.00135253
0.00135602
0.00135619
0.00135708
0.0013579
0.00135703
0.00135746
0.00135575
0.00135743
0.00135588
0.00135746
0.00135901
0.00136098
0.00136234
0.00136329
0.00136126
0.0013615
0.00136222
0.0013652
0.00136411
0.00136358
0.00134483
0.00134377
0.00134232
0.0013399
0.00133952
0.00133789
0.00133791
0.00133744
0.00133662
0.00133545
0.0013339
0.00133261
0.00133212
0.00133196
0.00133259
0.0013329
0.00133311
0.00133364
0.00133513
0.00133752
0.00133963
0.0013419
0.00134287
0.00134332
0.00134424
0.00134614
0.00135076
0.00135376
0.00135596
0.00135665
0.00135637
0.00135652
0.0013568
0.00135736
0.00135923
0.00136151
0.00136285
0.00136275
0.00136381
0.00136665
0.00136758
0.00136856
0.00136942
0.0013701
0.00137031
0.001369
0.00137027
0.00136912
0.00136981
0.00137004
0.00136909
0.00137122
0.00137025
0.00137145
0.00137244
0.00137377
0.00137376
0.00137583
0.00137664
0.0013542
0.00135359
0.00135226
0.00135174
0.00134948
0.00134945
0.00134862
0.00134792
0.00134698
0.00134551
0.00134472
0.00134425
0.00134436
0.0013448
0.00134536
0.00134579
0.00134609
0.00134632
0.00134795
0.00135022
0.00135213
0.00135411
0.00135468
0.0013551
0.00135602
0.0013582
0.0013627
0.00136546
0.00136764
0.00136847
0.00136838
0.0013685
0.00136895
0.00136946
0.00137122
0.00137353
0.00137584
0.00137689
0.00137717
0.00137914
0.00138122
0.00138135
0.00138094
0.00138146
0.00138244
0.00138191
0.00138288
0.00138378
0.00138333
0.00138643
0.00138493
0.00138489
0.00138542
0.00139074
0.00138964
0.00138799
0.00138727
0.00138859
0.00138841
0.00136675
0.00136546
0.00136494
0.00136255
0.0013622
0.00136167
0.0013621
0.00136159
0.00135888
0.00135908
0.00135846
0.00135861
0.00135906
0.00135972
0.00135977
0.00135938
0.00135859
0.00136047
0.00136269
0.0013648
0.00136655
0.00136803
0.00136852
0.00136889
0.00136984
0.0013724
0.00137674
0.00137933
0.00138151
0.00138247
0.00138249
0.00138246
0.00138281
0.00138314
0.00138476
0.00138696
0.00138912
0.00139112
0.00139181
0.00139331
0.00139624
0.00139831
0.00139872
0.00139976
0.00139813
0.00139893
0.00139965
0.00139677
0.00139735
0.00139896
0.0013979
0.00140038
0.00139964
0.00140133
0.00140201
0.00140007
0.0014022
0.00140399
0.00140511
0.0013844
0.00138421
0.00138094
0.00138014
0.00138044
0.00138316
0.00138277
0.001381
0.00137855
0.00137596
0.00137656
0.00137724
0.00137855
0.00137875
0.00137838
0.00137769
0.00137863
0.00137891
0.00138083
0.00138261
0.00138411
0.00138521
0.00138532
0.00138571
0.00138669
0.00138956
0.00139365
0.00139608
0.00139826
0.00139935
0.00139955
0.00139963
0.00140012
0.00140053
0.00140216
0.00140436
0.00140654
0.00140892
0.00141016
0.0014115
0.00141331
0.00141589
0.00141747
0.00142039
0.00142099
0.00142399
0.00142537
0.00142462
0.00142728
0.00142768
0.00142632
0.00143088
0.00142709
0.00142305
0.00142457
0.00142611
0.00142188
0.00142356
0.00142689
0.00140906
0.00141093
0.001409
0.00140598
0.00140784
0.00140603
0.00140381
0.00140226
0.00139819
0.00139856
0.00139944
0.00140077
0.00139986
0.0013991
0.00139649
0.00139875
0.00139858
0.00139964
0.00140109
0.00140325
0.00140459
0.00140501
0.00140496
0.00140546
0.00140646
0.00140979
0.00141358
0.00141594
0.00141817
0.00141935
0.00141959
0.00141956
0.00141978
0.00142001
0.0014215
0.00142369
0.00142603
0.00142873
0.00143076
0.0014325
0.00143413
0.00143635
0.00143874
0.00144126
0.00144285
0.00144484
0.00144641
0.00145069
0.00145237
0.0014584
0.00146023
0.00146122
0.00146602
0.00146719
0.00146578
0.00147031
0.00146704
0.00146947
0.00146509
0.00142275
0.00142498
0.00142307
0.00142736
0.001427
0.00142712
0.00142897
0.00142683
0.00142545
0.00142958
0.00142735
0.00142675
0.00142845
0.00142399
0.0014248
0.00142642
0.00142527
0.00142522
0.00142849
0.00142984
0.00142992
0.00142969
0.00142953
0.00142994
0.00143099
0.00143453
0.00143796
0.00144026
0.00144244
0.00144376
0.0014442
0.00144452
0.00144499
0.0014454
0.00144694
0.00144913
0.00145157
0.00145434
0.00145677
0.00145893
0.00146086
0.00146279
0.00146511
0.00146784
0.00147033
0.00147235
0.00147407
0.00147644
0.00147854
0.00148193
0.00148411
0.00148517
0.00149193
0.00149361
0.00150072
0.00150375
0.0015078
0.00150894
0.00151483
0.00146581
0.0014638
0.00146243
0.00145949
0.0014625
0.0014607
0.00146003
0.00145708
0.00146042
0.00146054
0.00146206
0.00146115
0.00145235
0.0014558
0.00145656
0.00145436
0.00145517
0.00145663
0.00145816
0.00145875
0.00145865
0.00145834
0.00145815
0.00145841
0.00146001
0.00146365
0.00146675
0.00146913
0.00147129
0.00147272
0.00147316
0.00147333
0.00147343
0.00147358
0.00147501
0.00147727
0.00148006
0.00148329
0.00148633
0.00148907
0.00149177
0.00149425
0.00149666
0.00149932
0.00150245
0.00150538
0.00150792
0.00151042
0.00151276
0.00151552
0.00151792
0.00151995
0.00152241
0.0015244
0.00152727
0.0015297
0.00153217
0.00153449
0.00153709
0.00149793
0.00149914
0.00149715
0.00149985
0.00149796
0.00150876
0.00150578
0.00149825
0.00149822
0.00149754
0.00149218
0.0014903
0.00149417
0.00149363
0.001494
0.00149502
0.00149532