/*--------------------------------*- C++ -*----------------------------------*\
| =========                 |                                                 |
| \\      /  F ield         | OpenFOAM: The Open Source CFD Toolbox           |
|  \\    /   O peration     | Version:  2312                                  |
|   \\  /    A nd           | Website:  www.openfoam.com                      |
|    \\/     M anipulation  |                                                 |
\*---------------------------------------------------------------------------*/
FoamFile
{
    version     2.0;
    format      ascii;
    arch        "LSB;label=32;scalar=64";
    class       volScalarField;
    location    "800";
    object      p;
}
// * * * * * * * * * * * * * * * * * * * * * * * * * * * * * * * * * * * * * //

dimensions      [0 2 -2 0 0 0 0];

internalField   nonuniform List<scalar> 
76025
(
0.0587916
0.0545694
0.050231
0.0459598
0.0416654
0.0373575
0.0328278
0.0285097
0.0240964
0.0197627
0.0153344
0.010862
0.00636516
0.00189174
-0.00258199
-0.00706447
-0.0114336
-0.0158486
-0.0202288
-0.0244472
-0.0286191
-0.0328838
-0.0370821
-0.0411819
-0.0452435
-0.0492112
-0.053213
-0.0572101
-0.0609213
-0.0647453
-0.0681622
-0.0717232
-0.0754503
-0.0790556
-0.0824858
-0.0857021
-0.0887977
-0.0920323
-0.0952135
-0.0983165
-0.101132
-0.103857
-0.106804
-0.109789
-0.112531
-0.115188
-0.11793
-0.120969
-0.123756
-0.126598
-0.129543
-0.132495
-0.135721
-0.139271
-0.142969
-0.146771
-0.151077
-0.155771
-0.160861
-0.166249
-0.171981
-0.178899
-0.186831
-0.19529
-0.204754
-0.21593
-0.228098
-0.242341
-0.260591
0.0587586
0.0542646
0.0497435
0.0452498
0.0407357
0.0361627
0.0315932
0.0270267
0.0224133
0.0177783
0.0131039
0.00844158
0.00379707
-0.000836085
-0.00544442
-0.0100099
-0.0145856
-0.0190835
-0.0235765
-0.0279545
-0.0323599
-0.036692
-0.0409607
-0.0451669
-0.0493338
-0.0534416
-0.0574808
-0.0613649
-0.0651525
-0.068882
-0.0725163
-0.076212
-0.0798059
-0.0832169
-0.0865802
-0.089849
-0.0930967
-0.0962246
-0.0992317
-0.102187
-0.104989
-0.107753
-0.110462
-0.113109
-0.115727
-0.118336
-0.120978
-0.123663
-0.126344
-0.12907
-0.131874
-0.13476
-0.137823
-0.141099
-0.144571
-0.148327
-0.152464
-0.156962
-0.161835
-0.167144
-0.173068
-0.179946
-0.187686
-0.196306
-0.206085
-0.217435
-0.230256
-0.245074
-0.262588
0.0589963
0.0542778
0.0495246
0.0447907
0.040045
0.0352887
0.0305084
0.0256956
0.0208592
0.0160024
0.0111453
0.00630575
0.00148559
-0.00331141
-0.00807759
-0.0128292
-0.0175469
-0.0222213
-0.0268437
-0.0314201
-0.0359396
-0.040384
-0.0447622
-0.0490753
-0.0533161
-0.057473
-0.0615198
-0.0654661
-0.0693321
-0.0731136
-0.0768242
-0.0804522
-0.08396
-0.0873704
-0.0907172
-0.0939775
-0.0971278
-0.100143
-0.103051
-0.105871
-0.108584
-0.111211
-0.11377
-0.116298
-0.118801
-0.121274
-0.123731
-0.126207
-0.128712
-0.131249
-0.133852
-0.136557
-0.139413
-0.14247
-0.145762
-0.149328
-0.153221
-0.157503
-0.162221
-0.167464
-0.173358
-0.180082
-0.18775
-0.196474
-0.206453
-0.217983
-0.231248
-0.246683
-0.26452
0.0591567
0.0541924
0.049187
0.0442093
0.0392336
0.0342378
0.0292113
0.0241589
0.0190953
0.0140304
0.00897303
0.0039287
-0.00109819
-0.00610281
-0.0110785
-0.0160207
-0.0209179
-0.0257634
-0.0305496
-0.0352728
-0.0399244
-0.0445005
-0.0489977
-0.0534104
-0.0577311
-0.0619547
-0.0660775
-0.0701006
-0.0740215
-0.0778375
-0.0815473
-0.0851491
-0.0886483
-0.0920512
-0.0953569
-0.0985474
-0.101604
-0.104524
-0.107319
-0.11
-0.112575
-0.115058
-0.117467
-0.119822
-0.122129
-0.124396
-0.126644
-0.1289
-0.131181
-0.133499
-0.135884
-0.138371
-0.141001
-0.143818
-0.146862
-0.150178
-0.153824
-0.157869
-0.162378
-0.167441
-0.173185
-0.179766
-0.187333
-0.196041
-0.206102
-0.217802
-0.231406
-0.24729
-0.265591
0.0590139
0.0537806
0.0485068
0.0432671
0.0380349
0.0327832
0.0275046
0.0222062
0.0169008
0.0115994
0.0063093
0.00103617
-0.00421344
-0.00943236
-0.0146126
-0.0197457
-0.0248243
-0.0298405
-0.0347879
-0.0396593
-0.044449
-0.0491511
-0.0537592
-0.0582674
-0.0626711
-0.066966
-0.0711477
-0.0752111
-0.0791526
-0.0829717
-0.0866692
-0.0902476
-0.093709
-0.0970522
-0.100275
-0.103363
-0.106304
-0.109096
-0.111747
-0.114272
-0.116684
-0.118996
-0.121223
-0.12338
-0.125479
-0.127533
-0.129562
-0.131584
-0.133621
-0.135692
-0.137825
-0.140052
-0.142412
-0.144948
-0.147704
-0.150732
-0.154089
-0.157847
-0.162083
-0.166897
-0.172414
-0.178785
-0.186177
-0.19478
-0.204831
-0.216627
-0.230475
-0.246755
-0.265741
0.0586015
0.0530807
0.0475224
0.0420046
0.0364993
0.0309787
0.0254351
0.0198752
0.0143126
0.00875941
0.00322452
-0.00228528
-0.00776273
-0.0131997
-0.0185878
-0.0239186
-0.0291841
-0.0343765
-0.0394885
-0.0445126
-0.0494414
-0.0542679
-0.0589857
-0.0635889
-0.0680719
-0.0724295
-0.0766562
-0.0807481
-0.0847028
-0.0885198
-0.092199
-0.0957411
-0.0991466
-0.102416
-0.105548
-0.108527
-0.111344
-0.113995
-0.116491
-0.118845
-0.121074
-0.123192
-0.125212
-0.127149
-0.129014
-0.130823
-0.132593
-0.134346
-0.136102
-0.137887
-0.139725
-0.141651
-0.143699
-0.145914
-0.148339
-0.151029
-0.154044
-0.157458
-0.161355
-0.16584
-0.171041
-0.177113
-0.184236
-0.192632
-0.202556
-0.214334
-0.228311
-0.244883
-0.26444
0.0579153
0.052088
0.0462268
0.0404133
0.0346175
0.0288109
0.0229849
0.0171471
0.0113123
0.00549427
-0.000297597
-0.00605596
-0.0117733
-0.0174412
-0.0230501
-0.0285909
-0.0340547
-0.039433
-0.0447174
-0.0498997
-0.0549718
-0.0599262
-0.0647559
-0.0694541
-0.0740145
-0.0784315
-0.0827001
-0.0868166
-0.0907785
-0.094584
-0.0982323
-0.101724
-0.105059
-0.10824
-0.111263
-0.114114
-0.116779
-0.119262
-0.121571
-0.123724
-0.125738
-0.127627
-0.129407
-0.131089
-0.132687
-0.134217
-0.135697
-0.137148
-0.138593
-0.140056
-0.141563
-0.143147
-0.144843
-0.146691
-0.148738
-0.151038
-0.153653
-0.156657
-0.160139
-0.164207
-0.168993
-0.17466
-0.181403
-0.189466
-0.199128
-0.210742
-0.224693
-0.241396
-0.261411
0.0568883
0.050735
0.0445515
0.0384229
0.0323176
0.0262056
0.0200783
0.0139443
0.00781979
0.00171953
-0.00434623
-0.0103697
-0.0163426
-0.0222556
-0.0280984
-0.0338607
-0.039533
-0.0451057
-0.0505696
-0.0559154
-0.0611346
-0.0662189
-0.0711603
-0.0759514
-0.0805855
-0.0850565
-0.0893596
-0.0934905
-0.0974461
-0.101224
-0.104824
-0.108245
-0.11149
-0.11456
-0.11745
-0.120143
-0.12263
-0.124915
-0.127009
-0.128932
-0.130701
-0.132332
-0.13384
-0.135237
-0.136536
-0.137754
-0.138909
-0.140023
-0.14112
-0.142223
-0.143359
-0.144559
-0.145856
-0.147291
-0.148908
-0.15076
-0.152909
-0.155428
-0.158408
-0.161961
-0.166221
-0.171364
-0.177598
-0.185185
-0.194423
-0.205687
-0.219383
-0.235953
-0.256238
0.0554584
0.0489574
0.0424291
0.0359632
0.0295266
0.0230884
0.0166398
0.0101903
0.00375725
-0.0026435
-0.00900061
-0.0153054
-0.0215488
-0.0277202
-0.0338087
-0.0398033
-0.0456931
-0.0514678
-0.0571171
-0.0626311
-0.0680002
-0.0732152
-0.0782672
-0.0831482
-0.0878511
-0.0923691
-0.096697
-0.10083
-0.104765
-0.108499
-0.112032
-0.115365
-0.118497
-0.121433
-0.124162
-0.12667
-0.12895
-0.131007
-0.132857
-0.134518
-0.13601
-0.137348
-0.138548
-0.139623
-0.140587
-0.141456
-0.14225
-0.14299
-0.143699
-0.144402
-0.145125
-0.145897
-0.146749
-0.147719
-0.148848
-0.150188
-0.151797
-0.153748
-0.156132
-0.159064
-0.162684
-0.167174
-0.172753
-0.179694
-0.18831
-0.198988
-0.21214
-0.228177
-0.24779
0.0535724
0.0466973
0.0397991
0.032972
0.0261811
0.0193942
0.0126024
0.00581618
-0.000945957
-0.00766682
-0.014334
-0.0209376
-0.0274676
-0.0339126
-0.0402606
-0.0464991
-0.0526164
-0.0586013
-0.0644427
-0.0701297
-0.0756517
-0.0809983
-0.0861602
-0.0911282
-0.0958943
-0.100452
-0.104794
-0.108917
-0.112816
-0.116489
-0.119936
-0.123156
-0.126152
-0.128925
-0.131466
-0.133758
-0.135799
-0.137595
-0.139164
-0.140527
-0.141704
-0.142711
-0.143565
-0.144279
-0.144868
-0.145348
-0.14574
-0.146066
-0.146347
-0.146608
-0.146874
-0.147171
-0.147527
-0.147976
-0.148559
-0.149319
-0.150313
-0.151613
-0.153309
-0.155512
-0.158369
-0.16206
-0.166808
-0.172889
-0.18063
-0.190423
-0.202732
-0.217937
-0.236903
0.0511528
0.0438778
0.0365837
0.0293696
0.022199
0.0150384
0.00787925
0.000732708
-0.00638131
-0.0134441
-0.020442
-0.0273641
-0.0341992
-0.0409348
-0.0475575
-0.0540538
-0.0604108
-0.0666161
-0.0726573
-0.0785227
-0.0842006
-0.0896795
-0.0949492
-0.0999999
-0.104823
-0.10941
-0.113755
-0.117852
-0.121698
-0.12529
-0.128627
-0.13171
-0.134541
-0.13712
-0.139436
-0.141476
-0.143238
-0.144734
-0.145984
-0.147008
-0.147829
-0.148464
-0.148929
-0.14924
-0.14941
-0.149458
-0.149405
-0.149272
-0.149082
-0.148858
-0.148621
-0.148396
-0.148207
-0.148084
-0.148061
-0.148178
-0.148488
-0.149057
-0.149967
-0.151327
-0.153276
-0.155985
-0.159677
-0.164624
-0.171174
-0.179727
-0.19084
-0.204863
-0.223391
0.0481065
0.0404033
0.0326855
0.0250573
0.0174801
0.00991942
0.002367
-0.00516525
-0.0126557
-0.020084
-0.0274351
-0.034697
-0.0418574
-0.0489025
-0.0558173
-0.0625869
-0.0691975
-0.075635
-0.0818858
-0.0879368
-0.093775
-0.0993876
-0.104763
-0.109892
-0.114764
-0.119371
-0.123704
-0.127758
-0.13153
-0.135016
-0.138216
-0.141131
-0.143763
-0.146112
-0.148164
-0.149909
-0.151349
-0.152499
-0.153382
-0.154022
-0.15444
-0.154655
-0.154685
-0.154544
-0.154249
-0.153818
-0.153273
-0.152637
-0.151931
-0.151176
-0.150393
-0.1496
-0.14882
-0.148076
-0.147395
-0.146811
-0.146368
-0.14612
-0.146137
-0.146515
-0.147377
-0.148884
-0.151252
-0.154753
-0.159755
-0.166672
-0.176161
-0.188553
-0.206522
0.0443298
0.0361666
0.0279942
0.0199215
0.011908
0.00391823
-0.004056
-0.0120016
-0.019895
-0.027714
-0.0354422
-0.0430662
-0.0505726
-0.0579462
-0.0651704
-0.0722291
-0.079107
-0.0857883
-0.0922579
-0.0985012
-0.104504
-0.110251
-0.115732
-0.120934
-0.125847
-0.130461
-0.134768
-0.138761
-0.142436
-0.14579
-0.148823
-0.151535
-0.153931
-0.156007
-0.15775
-0.159152
-0.160221
-0.160976
-0.161441
-0.161643
-0.161604
-0.161345
-0.160884
-0.160237
-0.159424
-0.158464
-0.157379
-0.156193
-0.154926
-0.153598
-0.152226
-0.150826
-0.149413
-0.148002
-0.146612
-0.145265
-0.143991
-0.142827
-0.141828
-0.141069
-0.140653
-0.140725
-0.141487
-0.14321
-0.146272
-0.151114
-0.158498
-0.16886
-0.185116
0.0397052
0.0310472
0.0223851
0.0138336
0.00535014
-0.00310195
-0.0115304
-0.0199206
-0.0282471
-0.036486
-0.0446189
-0.052631
-0.0605075
-0.0682313
-0.0757845
-0.0831493
-0.0903081
-0.0972443
-0.103941
-0.110382
-0.116552
-0.122436
-0.128019
-0.133288
-0.138231
-0.142838
-0.147099
-0.151009
-0.154561
-0.157753
-0.160585
-0.163056
-0.165171
-0.166925
-0.168307
-0.169312
-0.169953
-0.170253
-0.17024
-0.16994
-0.169381
-0.168584
-0.167571
-0.16636
-0.164973
-0.163432
-0.161759
-0.159978
-0.158109
-0.156168
-0.154167
-0.152117
-0.150026
-0.1479
-0.145747
-0.143574
-0.141392
-0.139222
-0.137092
-0.13505
-0.133174
-0.131583
-0.130458
-0.130057
-0.130745
-0.132987
-0.137696
-0.145766
-0.161567
0.0340911
0.0249006
0.0157112
0.00664372
-0.00234662
-0.0112975
-0.0202158
-0.0290855
-0.0378791
-0.0465707
-0.0551398
-0.0635703
-0.0718453
-0.0799454
-0.0878514
-0.0955435
-0.103002
-0.110209
-0.117145
-0.123792
-0.130133
-0.136152
-0.141832
-0.147158
-0.152117
-0.156698
-0.160891
-0.164688
-0.168084
-0.171075
-0.173661
-0.175844
-0.177627
-0.179003
-0.179964
-0.180511
-0.180661
-0.180441
-0.179881
-0.179011
-0.177862
-0.176458
-0.174825
-0.172984
-0.170959
-0.168776
-0.166458
-0.164029
-0.161506
-0.158903
-0.156228
-0.153485
-0.150675
-0.147795
-0.144838
-0.141795
-0.138654
-0.135407
-0.132054
-0.128609
-0.125118
-0.121662
-0.11839
-0.115521
-0.113393
-0.112506
-0.113928
-0.118761
-0.13077
0.0273182
0.0175538
0.00779571
-0.00182869
-0.0113665
-0.0208558
-0.0303029
-0.0396901
-0.0489879
-0.0581675
-0.0672075
-0.0760892
-0.0847934
-0.0932993
-0.101585
-0.109628
-0.117408
-0.124903
-0.132093
-0.138957
-0.145476
-0.151631
-0.157405
-0.162781
-0.167743
-0.17228
-0.17638
-0.180034
-0.183236
-0.185982
-0.188272
-0.190109
-0.191497
-0.192427
-0.192893
-0.192906
-0.192487
-0.191668
-0.190482
-0.188964
-0.187146
-0.185055
-0.182721
-0.18017
-0.177432
-0.174533
-0.171501
-0.168359
-0.165125
-0.161811
-0.158421
-0.154955
-0.151404
-0.147751
-0.143973
-0.140039
-0.135911
-0.131551
-0.126924
-0.122005
-0.116791
-0.111317
-0.105675
-0.100034
-0.0947172
-0.0903492
-0.088339
-0.0902882
-0.100769
0.0191702
0.00878688
-0.00158637
-0.011814
-0.021945
-0.032017
-0.0420364
-0.0519837
-0.061827
-0.071535
-0.0810838
-0.0904524
-0.0996195
-0.108562
-0.117255
-0.125675
-0.133798
-0.141599
-0.149057
-0.156148
-0.162852
-0.169144
-0.175008
-0.180423
-0.185373
-0.189844
-0.193824
-0.1973
-0.200265
-0.20272
-0.204664
-0.206098
-0.207024
-0.207434
-0.207328
-0.206721
-0.205641
-0.204126
-0.202214
-0.199944
-0.197349
-0.194464
-0.191323
-0.187961
-0.184412
-0.18071
-0.176885
-0.172964
-0.168966
-0.1649
-0.160769
-0.156563
-0.152264
-0.14784
-0.143251
-0.138441
-0.133348
-0.127897
-0.122011
-0.115614
-0.108643
-0.101069
-0.0929111
-0.0842868
-0.0755609
-0.0675857
-0.0621925
-0.0613237
-0.0691269
0.00940886
-0.00164556
-0.0126872
-0.0235713
-0.0343473
-0.045054
-0.0556967
-0.0662538
-0.07669
-0.0869721
-0.0970729
-0.106969
-0.116638
-0.126054
-0.135188
-0.144014
-0.152505
-0.160634
-0.168375
-0.175704
-0.182595
-0.189025
-0.194971
-0.200413
-0.205332
-0.209711
-0.213536
-0.216797
-0.219484
-0.221595
-0.223129
-0.22409
-0.224476
-0.22428
-0.223507
-0.22218
-0.220331
-0.218002
-0.215237
-0.212081
-0.208574
-0.204761
-0.200683
-0.196387
-0.191916
-0.187313
-0.182613
-0.177848
-0.173036
-0.168187
-0.163296
-0.15835
-0.153317
-0.148155
-0.142805
-0.13719
-0.131215
-0.124766
-0.117715
-0.109925
-0.101265
-0.0916264
-0.0809479
-0.0693266
-0.0572579
-0.0459549
-0.0377172
-0.0346978
-0.0404202
-0.0023141
-0.0140971
-0.0258662
-0.0374663
-0.0489468
-0.0603472
-0.0716709
-0.0828942
-0.0939787
-0.104888
-0.115594
-0.126069
-0.136287
-0.146219
-0.155835
-0.165105
-0.173997
-0.182484
-0.190534
-0.198121
-0.205214
-0.211788
-0.217817
-0.223276
-0.228146
-0.232406
-0.23604
-0.239036
-0.241384
-0.243077
-0.244116
-0.244504
-0.244236
-0.243308
-0.241733
-0.239541
-0.236771
-0.233473
-0.229697
-0.225495
-0.220919
-0.216024
-0.210867
-0.205503
-0.199989
-0.194378
-0.188713
-0.18303
-0.177351
-0.171685
-0.166024
-0.16035
-0.154625
-0.148794
-0.142782
-0.13649
-0.129789
-0.122522
-0.114501
-0.105523
-0.0953828
-0.0838944
-0.0709346
-0.0566306
-0.0417166
-0.0278942
-0.0177739
-0.0134488
-0.0182607
-0.0164046
-0.0289877
-0.0415589
-0.0539507
-0.0662117
-0.07838
-0.0904576
-0.102418
-0.11422
-0.125824
-0.137198
-0.148312
-0.159136
-0.169637
-0.179782
-0.189537
-0.198868
-0.207741
-0.216125
-0.223986
-0.231292
-0.238012
-0.244118
-0.24958
-0.254375
-0.258479
-0.261873
-0.26454
-0.266471
-0.26766
-0.268103
-0.267801
-0.266746
-0.264941
-0.26241
-0.259189
-0.255328
-0.250882
-0.245909
-0.240472
-0.234636
-0.228473
-0.222052
-0.215447
-0.20873
-0.201964
-0.195209
-0.188506
-0.181887
-0.175362
-0.168926
-0.162555
-0.156207
-0.149819
-0.1433
-0.136528
-0.129342
-0.121538
-0.112872
-0.103074
-0.0918686
-0.0790156
-0.0643644
-0.0481394
-0.0314518
-0.0164667
-0.00579919
-0.00132425
-0.00577914
-0.0335871
-0.0470462
-0.0604989
-0.0737602
-0.0868766
-0.0998846
-0.112785
-0.125548
-0.13813
-0.150489
-0.16259
-0.174399
-0.185882
-0.197004
-0.207726
-0.21801
-0.227818
-0.237113
-0.245856
-0.254012
-0.261543
-0.268414
-0.274592
-0.280043
-0.284738
-0.288651
-0.291757
-0.294037
-0.295476
-0.296066
-0.295802
-0.294677
-0.292686
-0.289841
-0.286171
-0.281721
-0.276549
-0.270717
-0.264298
-0.257367
-0.25001
-0.242317
-0.234381
-0.226298
-0.218159
-0.210051
-0.202046
-0.194203
-0.18656
-0.179136
-0.171927
-0.164907
-0.158032
-0.151232
-0.144411
-0.137432
-0.130108
-0.1222
-0.113415
-0.103427
-0.0918974
-0.0785427
-0.0632197
-0.0463793
-0.0295878
-0.0151033
-0.00500875
-0.000901961
-0.00454954
-0.0543351
-0.0687263
-0.0831221
-0.0973185
-0.111358
-0.125274
-0.139065
-0.152699
-0.166128
-0.179308
-0.192199
-0.204766
-0.21697
-0.22877
-0.240125
-0.250991
-0.261325
-0.271085
-0.280228
-0.288711
-0.296493
-0.303531
-0.309786
-0.315221
-0.319799
-0.323487
-0.326255
-0.32808
-0.328941
-0.328825
-0.327722
-0.325623
-0.322524
-0.318443
-0.313415
-0.307494
-0.300744
-0.293242
-0.285074
-0.276338
-0.267143
-0.257606
-0.247852
-0.238005
-0.228188
-0.218514
-0.209078
-0.199957
-0.191202
-0.182835
-0.174856
-0.167239
-0.159942
-0.152903
-0.146042
-0.139236
-0.132307
-0.125
-0.116981
-0.10785
-0.0971676
-0.084593
-0.070097
-0.0544606
-0.0393512
-0.0264184
-0.0170232
-0.0126219
-0.0139711
-0.0796295
-0.0950103
-0.110432
-0.125648
-0.140695
-0.155604
-0.170371
-0.184961
-0.199325
-0.213412
-0.227181
-0.24059
-0.253596
-0.266154
-0.278217
-0.289737
-0.300665
-0.310953
-0.320552
-0.329413
-0.337486
-0.344724
-0.351079
-0.356505
-0.360959
-0.3644
-0.366791
-0.368098
-0.368294
-0.367356
-0.365266
-0.362007
-0.357578
-0.351999
-0.345314
-0.337583
-0.328883
-0.319305
-0.308959
-0.297971
-0.286482
-0.274649
-0.262637
-0.250617
-0.238753
-0.227198
-0.216077
-0.205489
-0.195494
-0.186116
-0.177347
-0.169162
-0.161535
-0.154449
-0.147895
-0.141828
-0.136108
-0.130458
-0.124433
-0.117464
-0.108988
-0.0986877
-0.086765
-0.0739718
-0.0612775
-0.0496225
-0.0403919
-0.0352522
-0.0348391
-0.107745
-0.124279
-0.140839
-0.157189
-0.173357
-0.189368
-0.205217
-0.220866
-0.236263
-0.251356
-0.266096
-0.28044
-0.294338
-0.307742
-0.320597
-0.33285
-0.344446
-0.355329
-0.365443
-0.374732
-0.383137
-0.390602
-0.397072
-0.402492
-0.406809
-0.409971
-0.411932
-0.412648
-0.412082
-0.410202
-0.406981
-0.402401
-0.396461
-0.389183
-0.380609
-0.370809
-0.359869
-0.34789
-0.335006
-0.321378
-0.307187
-0.29264
-0.277961
-0.263384
-0.249134
-0.235413
-0.222387
-0.210171
-0.198828
-0.188368
-0.178765
-0.169998
-0.162084
-0.155108
-0.149203
-0.14445
-0.140732
-0.13765
-0.134566
-0.130799
-0.125834
-0.119408
-0.111329
-0.101545
-0.0905202
-0.0795323
-0.0705173
-0.0652737
-0.0644818
-0.143866
-0.161637
-0.179537
-0.197204
-0.214665
-0.231954
-0.249066
-0.26596
-0.282578
-0.298864
-0.314765
-0.33023
-0.345208
-0.359642
-0.373474
-0.386643
-0.399085
-0.410738
-0.421537
-0.431417
-0.440311
-0.448153
-0.454878
-0.460419
-0.46471
-0.467688
-0.469292
-0.469463
-0.468141
-0.465269
-0.460797
-0.454689
-0.446938
-0.437567
-0.426623
-0.414176
-0.400321
-0.385181
-0.368914
-0.351721
-0.333842
-0.315555
-0.29717
-0.279017
-0.261421
-0.24468
-0.229036
-0.214651
-0.201585
-0.1898
-0.179183
-0.169631
-0.161157
-0.153976
-0.148465
-0.144896
-0.14319
-0.142889
-0.143337
-0.143877
-0.14362
-0.141441
-0.13649
-0.128664
-0.118923
-0.109167
-0.101705
-0.0980488
-0.0982818
-0.175102
-0.194475
-0.213716
-0.232718
-0.251512
-0.270108
-0.288496
-0.306636
-0.324471
-0.341938
-0.358984
-0.375552
-0.391584
-0.407014
-0.421776
-0.435801
-0.449021
-0.461365
-0.472763
-0.483139
-0.492417
-0.500525
-0.507383
-0.512915
-0.517043
-0.519692
-0.520784
-0.520235
-0.517965
-0.513904
-0.507993
-0.500202
-0.49053
-0.479006
-0.465679
-0.450617
-0.433915
-0.415711
-0.396177
-0.375533
-0.354065
-0.332121
-0.310108
-0.288479
-0.267711
-0.24826
-0.230514
-0.214718
-0.200911
-0.188896
-0.178281
-0.168634
-0.159786
-0.152122
-0.146535
-0.143786
-0.144005
-0.146693
-0.150843
-0.155091
-0.157945
-0.158073
-0.154711
-0.148152
-0.139938
-0.132382
-0.127748
-0.126851
-0.129509
-0.231715
-0.252628
-0.273928
-0.294913
-0.315626
-0.336135
-0.356441
-0.376499
-0.396243
-0.415604
-0.434519
-0.452923
-0.470748
-0.487922
-0.50437
-0.520017
-0.534783
-0.548589
-0.561351
-0.572983
-0.583398
-0.592509
-0.600227
-0.606465
-0.61114
-0.614169
-0.615456
-0.614857
-0.612189
-0.607264
-0.599941
-0.590144
-0.577858
-0.563112
-0.545965
-0.526504
-0.504848
-0.481164
-0.45567
-0.428655
-0.400489
-0.37163
-0.342629
-0.314134
-0.286884
-0.261658
-0.2392
-0.2201
-0.204612
-0.192519
-0.183019
-0.174826
-0.166855
-0.159367
-0.15388
-0.151713
-0.152942
-0.156563
-0.161169
-0.165331
-0.167605
-0.16695
-0.163176
-0.156942
-0.149935
-0.144549
-0.14264
-0.14452
-0.150029
-0.248718
-0.271083
-0.29293
-0.314781
-0.336576
-0.358175
-0.379543
-0.400652
-0.421431
-0.441799
-0.461679
-0.481004
-0.499708
-0.517718
-0.534957
-0.551342
-0.566785
-0.581197
-0.594484
-0.606551
-0.617296
-0.626616
-0.634409
-0.640576
-0.645045
-0.647782
-0.648837
-0.648161
-0.645503
-0.640575
-0.63316
-0.623101
-0.610283
-0.594624
-0.576064
-0.554556
-0.530102
-0.502768
-0.472703
-0.440171
-0.405606
-0.369646
-0.333155
-0.297234
-0.263216
-0.232602
-0.206919
-0.187463
-0.174903
-0.168854
-0.167553
-0.168064
-0.167406
-0.164954
-0.1624
-0.161451
-0.162467
-0.164705
-0.167267
-0.169334
-0.169556
-0.166817
-0.161125
-0.153601
-0.146382
-0.141873
-0.141747
-0.146167
-0.154714
-0.348936
-0.374802
-0.400904
-0.426381
-0.451344
-0.47607
-0.500651
-0.52502
-0.549056
-0.572653
-0.595723
-0.61819
-0.63998
-0.661015
-0.681206
-0.700456
-0.718665
-0.735726
-0.751526
-0.765947
-0.778862
-0.790134
-0.799613
-0.807126
-0.812467
-0.815378
-0.815518
-0.812668
-0.806874
-0.79827
-0.786909
-0.772734
-0.755581
-0.735203
-0.711329
-0.683726
-0.652233
-0.616813
-0.5776
-0.534954
-0.489507
-0.442217
-0.394365
-0.347543
-0.303567
-0.264349
-0.231666
-0.206821
-0.190287
-0.181403
-0.178323
-0.178328
-0.17873
-0.178068
-0.176385
-0.174439
-0.172776
-0.171518
-0.170385
-0.168596
-0.165035
-0.158787
-0.149925
-0.140179
-0.132358
-0.128788
-0.129671
-0.133993
-0.141695
0.0115555
0.0165941
0.021872
0.0273479
0.0331111
0.0392397
0.0457346
0.0524531
0.0593383
0.066555
0.0741281
0.0819522
0.0898692
0.0983517
0.106512
0.114894
0.122948
0.131344
0.139403
0.147236
0.155354
0.162497
0.169172
0.175259
0.18076
0.18554
0.189235
0.192136
0.194346
0.195361
0.195273
0.19444
0.192883
0.190552
0.187109
0.183069
0.178489
0.173244
0.167585
0.16173
0.155298
0.148742
0.142473
0.136253
0.12952
0.123238
0.116833
0.110844
0.104994
0.099418
0.0941263
0.0891082
0.0844714
0.0800747
0.0759989
0.0719913
0.0684394
0.065133
0.0621671
0.0103364
0.0155786
0.0211018
0.0269011
0.0330019
0.0394196
0.0461672
0.0532154
0.0605486
0.0681864
0.0761021
0.0842691
0.0926498
0.101273
0.110009
0.118737
0.12751
0.13622
0.144807
0.153043
0.1612
0.168826
0.175865
0.182298
0.187993
0.192893
0.196891
0.199842
0.202034
0.203085
0.202973
0.202091
0.20039
0.197764
0.194234
0.189968
0.18509
0.179609
0.173645
0.167323
0.160644
0.153864
0.147102
0.140172
0.133317
0.126568
0.120003
0.113694
0.107563
0.101679
0.0961018
0.0908261
0.0858138
0.0811458
0.0767371
0.0726872
0.0689857
0.0655728
0.0624375
0.00870515
0.0142222
0.0200262
0.0261489
0.0325917
0.0393638
0.0464597
0.0538742
0.0616091
0.0696627
0.0780029
0.0865936
0.0954142
0.104436
0.113597
0.122863
0.132161
0.141367
0.15038
0.15911
0.167558
0.175578
0.183004
0.18975
0.19572
0.20083
0.205011
0.208139
0.210326
0.211382
0.211318
0.210356
0.208419
0.205552
0.201803
0.197292
0.192093
0.186318
0.180029
0.173378
0.166422
0.159236
0.151961
0.144673
0.137456
0.130383
0.123472
0.116769
0.110308
0.104128
0.0982636
0.0927048
0.0874547
0.0825186
0.0779388
0.073708
0.069801
0.0661954
0.062883
0.00680619
0.0126132
0.0187268
0.0251766
0.0319647
0.0390983
0.0465753
0.0543927
0.0625482
0.0710339
0.0798275
0.0888983
0.0982164
0.107733
0.117383
0.127138
0.136906
0.146599
0.1561
0.165344
0.174241
0.182654
0.190461
0.197547
0.203824
0.209194
0.213572
0.216864
0.219097
0.22017
0.2201
0.219038
0.216918
0.21385
0.209856
0.205059
0.199535
0.193406
0.186749
0.179709
0.172364
0.164784
0.157105
0.149442
0.141824
0.134343
0.127036
0.119951
0.113138
0.10663
0.100449
0.0946028
0.089102
0.0839455
0.0791406
0.0746773
0.0705458
0.0667305
0.0632415
0.00474568
0.0108632
0.0173033
0.0240959
0.0312435
0.0387544
0.0466301
0.0548691
0.0634656
0.0724075
0.0816743
0.091238
0.101063
0.111096
0.121275
0.131544
0.141822
0.152024
0.162043
0.171796
0.181168
0.190016
0.198227
0.205682
0.212282
0.217925
0.222522
0.225969
0.228275
0.229366
0.22926
0.228096
0.225822
0.222546
0.218296
0.213192
0.207326
0.200814
0.193756
0.186283
0.178499
0.170498
0.162396
0.15429
0.146237
0.138318
0.130594
0.123117
0.11593
0.109063
0.10254
0.0963743
0.0905732
0.0851387
0.0800688
0.0753587
0.0710039
0.0669862
0.0633155
0.00245662
0.0089064
0.0156964
0.0228574
0.0303922
0.0383095
0.0466117
0.0552977
0.0643605
0.0737859
0.0835519
0.0936294
0.10398
0.114553
0.125288
0.136115
0.146951
0.157701
0.168263
0.178535
0.188398
0.197713
0.206357
0.214202
0.22114
0.227064
0.231887
0.235495
0.237882
0.238989
0.238844
0.237573
0.235135
0.231629
0.227105
0.221675
0.215441
0.208523
0.201035
0.193105
0.184849
0.176376
0.167795
0.159203
0.150681
0.142305
0.134141
0.126242
0.11865
0.111397
0.104507
0.0979943
0.0918679
0.0861311
0.0807831
0.0758188
0.0712321
0.0670019
0.0631379
-0.000131097
0.00667226
0.0138356
0.0213907
0.0293404
0.0376938
0.0464533
0.0556172
0.0651779
0.0751201
0.085421
0.0960493
0.106964
0.118115
0.129438
0.140858
0.152287
0.163624
0.174761
0.185587
0.195973
0.205784
0.214884
0.223142
0.230437
0.236656
0.241711
0.245486
0.247958
0.249081
0.248892
0.247501
0.244881
0.241124
0.236301
0.23052
0.223889
0.216535
0.208583
0.200162
0.1914
0.182411
0.173311
0.164204
0.155178
0.146312
0.137674
0.129319
0.121291
0.113624
0.106342
0.0994631
0.0929953
0.0869422
0.0813023
0.0760686
0.0712336
0.0667752
0.0627035
-0.003054
0.00412543
0.0116853
0.0196587
0.0280492
0.0368661
0.0461121
0.0557849
0.0658764
0.0763706
0.0872436
0.0984624
0.109983
0.121752
0.133701
0.145751
0.15781
0.169772
0.181525
0.192943
0.203892
0.21423
0.223815
0.232508
0.240182
0.246717
0.252015
0.255964
0.258524
0.259661
0.259419
0.257894
0.255073
0.251047
0.245899
0.239736
0.232678
0.224853
0.216398
0.20745
0.198143
0.188602
0.178947
0.169289
0.159722
0.150329
0.14118
0.132334
0.123837
0.115726
0.108025
0.100754
0.0939197
0.0875262
0.0815706
0.076045
0.0709419
0.0662381
0.0619444
-0.00635544
0.00122531
0.00920828
0.0176278
0.0264875
0.0357972
0.0455599
0.0557734
0.0664292
0.0775108
0.0889932
0.100841
0.113008
0.125435
0.138052
0.150775
0.163506
0.176136
0.188542
0.200592
0.212142
0.223043
0.233145
0.242302
0.25038
0.257249
0.262807
0.266938
0.269589
0.270739
0.270435
0.268764
0.265725
0.261409
0.255907
0.249333
0.241811
0.233481
0.224486
0.214971
0.205078
0.194944
0.184694
0.174443
0.164293
0.154331
0.144631
0.135257
0.126257
0.117668
0.109517
0.101822
0.0945923
0.0878301
0.0815325
0.0756917
0.0702993
0.0653316
0.0608
-0.0100945
-0.00208532
0.00634899
0.0152442
0.0246043
0.03444
0.044754
0.0555444
0.0668023
0.0785107
0.0906425
0.10316
0.116015
0.129145
0.142475
0.155915
0.169365
0.182705
0.195808
0.208531
0.220721
0.232222
0.242876
0.252529
0.261036
0.268263
0.274097
0.278418
0.281167
0.282328
0.281953
0.280123
0.27685
0.272221
0.266337
0.259317
0.251297
0.242421
0.232844
0.22272
0.212198
0.201424
0.190531
0.17964
0.16886
0.158284
0.147992
0.138048
0.128505
0.119402
0.110766
0.102615
0.09496
0.0878022
0.0811387
0.0749607
0.0692591
0.064009
0.0592218
-0.0143471
-0.00587989
0.00303711
0.0124411
0.0223368
0.0327349
0.043639
0.0550468
0.0669485
0.0793262
0.092152
0.105386
0.118975
0.132855
0.146946
0.161154
0.17537
0.189469
0.203315
0.216754
0.229628
0.24177
0.253013
0.263194
0.272159
0.279767
0.285894
0.290418
0.293269
0.29444
0.293987
0.291985
0.288456
0.28349
0.277193
0.269693
0.261134
0.251671
0.241467
0.230684
0.219483
0.208019
0.196431
0.18485
0.17339
0.162152
0.151219
0.14066
0.130531
0.120871
0.111712
0.10307
0.0949574
0.087375
0.0803192
0.0737802
0.0677477
0.0621947
0.0571327
-0.0191909
-0.0102338
-0.00080057
0.00914733
0.0196156
0.0306156
0.0421508
0.054219
0.0668099
0.0799038
0.093471
0.10747
0.121845
0.136528
0.151433
0.166461
0.181496
0.196407
0.211045
0.225252
0.238856
0.251683
0.263555
0.274301
0.283755
0.291768
0.298208
0.302946
0.305905
0.307084
0.306545
0.304356
0.300551
0.295219
0.288476
0.280457
0.271316
0.261218
0.250336
0.238843
0.226909
0.214697
0.20236
0.190034
0.177842
0.165888
0.154264
0.143041
0.132278
0.122018
0.112293
0.103121
0.0945136
0.0864724
0.0789928
0.072064
0.0656744
0.059796
0.0544397
-0.0247238
-0.0152415
-0.0052548
0.00527616
0.0163578
0.0280024
0.0402134
0.0529881
0.0663157
0.0801756
0.0945365
0.109354
0.124571
0.140111
0.155888
0.171795
0.187708
0.203486
0.218973
0.234
0.248387
0.261947
0.274494
0.285843
0.29582
0.304266
0.311039
0.316005
0.319078
0.320264
0.319627
0.317236
0.313129
0.307402
0.300176
0.291597
0.281828
0.271044
0.25943
0.24717
0.234444
0.221426
0.208278
0.195147
0.182162
0.169436
0.157064
0.145124
0.133676
0.122768
0.112431
0.102686
0.0935445
0.0850075
0.0770699
0.0697199
0.062945
0.0567157
0.051043
-0.031054
-0.021007
-0.0104262
0.000729813
0.0124683
0.0248023
0.0377359
0.0512661
0.0653819
0.0800619
0.0952725
0.110967
0.127085
0.143546
0.160258
0.177105
0.193957
0.210665
0.227062
0.242969
0.258195
0.272541
0.28581
0.297806
0.308343
0.317253
0.324382
0.329589
0.332784
0.333973
0.333229
0.330617
0.326184
0.320028
0.312281
0.303096
0.292647
0.281122
0.268716
0.255626
0.242045
0.228157
0.214133
0.200131
0.186289
0.172727
0.159546
0.146829
0.13464
0.123029
0.112031
0.101667
0.0919474
0.0828746
0.0744424
0.066638
0.0594477
0.0528408
0.0468273
-0.0383225
-0.0276709
-0.0164537
-0.00462813
0.0078146
0.0208886
0.0345986
0.0489412
0.0639043
0.079465
0.0955878
0.112223
0.129307
0.146754
0.164466
0.182321
0.200182
0.217888
0.235262
0.252113
0.268238
0.28343
0.297474
0.310164
0.321301
0.330708
0.33822
0.343685
0.347007
0.348198
0.347334
0.344482
0.339694
0.333075
0.324763
0.314924
0.30374
0.291414
0.278153
0.264165
0.249658
0.234828
0.219858
0.204913
0.190143
0.175676
0.161618
0.148059
0.135067
0.122696
0.110981
0.0999448
0.0896001
0.0799474
0.0709803
0.0626851
0.0550467
0.048033
0.041653
-0.046699
-0.0353938
-0.0234889
-0.0109401
0.00226278
0.0161339
0.0306782
0.0458935
0.0617658
0.0782704
0.0953696
0.113012
0.13113
0.149636
0.168423
0.187363
0.206307
0.225083
0.243506
0.261372
0.278465
0.294564
0.309441
0.322877
0.33466
0.344601
0.352522
0.358262
0.36172
0.36291
0.361915
0.358801
0.353629
0.346508
0.337586
0.327037
0.315059
0.301866
0.287679
0.272721
0.257212
0.241361
0.225364
0.209399
0.193623
0.178174
0.163166
0.148693
0.134831
0.121634
0.109141
0.0973781
0.0863556
0.0760751
0.0665295
0.0577037
0.0495815
0.0421292
0.0353543
-0.0563671
-0.0443555
-0.0317077
-0.01838
-0.00435947
0.0103691