/*--------------------------------*- C++ -*----------------------------------*\
| =========                 |                                                 |
| \\      /  F ield         | OpenFOAM: The Open Source CFD Toolbox           |
|  \\    /   O peration     | Version:  2312                                  |
|   \\  /    A nd           | Website:  www.openfoam.com                      |
|    \\/     M anipulation  |                                                 |
\*---------------------------------------------------------------------------*/
FoamFile
{
    version     2.0;
    format      ascii;
    arch        "LSB;label=32;scalar=64";
    class       surfaceScalarField;
    location    "800";
    object      phi;
}
// * * * * * * * * * * * * * * * * * * * * * * * * * * * * * * * * * * * * * //

dimensions      [0 3 -1 0 0 0 0];

oriented        oriented;

internalField   nonuniform List<scalar> 
116611
(
0.029302
0.0110116
-0.0288968
-0.0114168
0.0297027
0.010902
-0.0113026
0.0301006
0.0107844
-0.0111824
0.0304945
0.0106582
-0.011052
0.0308802
0.010521
-0.0109067
0.0312669
0.0103724
-0.0107591
0.0316382
0.0102133
-0.0105847
0.0320101
0.0100433
-0.0104152
0.0323745
0.00986167
-0.010226
0.032735
0.00966959
-0.01003
0.0330859
0.00946367
-0.00981456
0.0334304
0.00924526
-0.0095898
0.0337677
0.00901378
-0.00935109
0.0341013
0.00876877
-0.00910239
0.0344297
0.00851117
-0.00883958
0.0347464
0.00824068
-0.00855737
0.0350578
0.0079531
-0.00826446
0.0353575
0.0076532
-0.00795296
0.0356461
0.00733422
-0.00762282
0.0359262
0.00700388
-0.00728392
0.0362005
0.00665252
-0.00692686
0.036465
0.00628709
-0.00655158
0.0367197
0.00590444
-0.00615918
0.0369655
0.00550447
-0.00575026
0.0371979
0.00508591
-0.00531828
0.0374198
0.00464821
-0.00487015
0.03763
0.00418939
-0.0043995
0.0378195
0.00371287
-0.00390242
0.0380003
0.00321454
-0.00339531
0.0381568
0.00269423
-0.0028508
0.0383046
0.00215745
-0.00230525
0.0384339
0.00159316
-0.00172245
0.038545
0.0010067
-0.00111777
0.038638
0.000400576
-0.000493586
0.038709
-0.000233142
0.000162164
0.0387603
-0.000886866
0.000835581
0.0387929
-0.00156981
0.00153714
0.038805
-0.002275
0.00226299
0.038798
-0.00300346
0.00301047
0.0387655
-0.00376224
0.00379474
0.0387114
-0.00454489
0.00459896
0.0386373
-0.00535752
0.00543159
0.0385424
-0.00619573
0.00629061
0.0384227
-0.0070615
0.00718121
0.0382834
-0.0079573
0.00809664
0.0381208
-0.00888311
0.00904569
0.0379419
-0.00983933
0.0100182
0.0377375
-0.0108275
0.0110319
0.0375143
-0.0118486
0.0120718
0.0372682
-0.012903
0.0131491
0.0370002
-0.0139916
0.0142596
0.0367125
-0.0151143
0.015402
0.0364034
-0.0162727
0.0165818
0.0360719
-0.0174686
0.0178001
0.0357195
-0.0187023
0.0190547
0.0353413
-0.0199786
0.0203569
0.0349443
-0.0212966
0.0216935
0.0345219
-0.0226607
0.0230832
0.0340739
-0.0240716
0.0245196
0.0336037
-0.0255278
0.025998
0.0331257
-0.0270287
0.0275067
0.0326348
-0.0285925
0.0290834
0.0321265
-0.0302238
0.0307321
0.0316172
-0.0319209
0.0324303
0.031117
-0.0336924
0.0341926
0.030602
-0.0355665
0.0360814
0.0301191
-0.0375359
0.0380188
0.0297081
-0.0396001
0.0400111
-0.0418814
0.029306
0.0422835
0.028905
0.0106081
-0.0285016
0.0293042
0.0105028
0.0296997
0.0103889
0.0300916
0.0102662
0.0304794
0.0101333
0.0308612
0.00999048
0.0312371
0.00983751
0.031607
0.00967341
0.0319704
0.00949824
0.0323287
0.00931129
0.0326799
0.00911252
0.0330236
0.00890153
0.0333596
0.00867775
0.0336878
0.00844061
0.0340083
0.00819068
0.0343223
0.0079267
0.0346265
0.00764888
0.0349233
0.00735642
0.0352082
0.00704925
0.0354859
0.00672623
0.0357514
0.00638701
0.0360067
0.00603175
0.0362515
0.00565969
0.0364856
0.00527031
0.0367084
0.00486316
0.0369194
0.00443716
0.0371163
0.00399257
0.0373002
0.00352892
0.0374696
0.00304514
0.0376225
0.00254133
0.0377634
0.00201659
0.0378866
0.00146992
0.0379918
0.000901496
0.0380816
0.000310742
0.0381522
-0.000303656
0.0382063
-0.00094103
0.0382395
-0.00160299
0.0382533
-0.00228875
0.0382491
-0.00299931
0.0382234
-0.00373654
0.0381787
-0.00450016
0.038112
-0.00529087
0.0380246
-0.00610833
0.0379171
-0.00695397
0.0377889
-0.00782911
0.0376397
-0.00873396
0.0374694
-0.009669
0.0372773
-0.0106353
0.0370631
-0.0116344
0.0368263
-0.0126662
0.0365665
-0.0137318
0.036284
-0.0148318
0.0359786
-0.0159673
0.0356501
-0.0171401
0.0352996
-0.0183518
0.0349258
-0.0196047
0.0345292
-0.0209001
0.0341092
-0.0222407
0.0336663
-0.0236287
0.0332042
-0.0250658
0.0327309
-0.0265554
0.0322444
-0.028106
0.0317466
-0.029726
0.0312464
-0.0314207
0.0307542
-0.0332002
0.0302695
-0.0350817
0.0298053
-0.0370718
0.0293719
-0.0391667
-0.0414373
0.0289278
0.0285211
0.0102052
-0.0281182
0.0289198
0.0101041
0.0293142
0.00999456
0.0297045
0.00987597
0.0300898
0.0097479
0.0304702
0.0096101
0.0308455
0.00946223
0.0312149
0.00930393
0.0315783
0.00913485
0.0319351
0.00895451
0.032285
0.0087626
0.0326278
0.00855879
0.0329628
0.0083427
0.0332896
0.00811386
0.0336083
0.00787198
0.0339184
0.00761655
0.03422
0.00734736
0.0345124
0.00706394
0.0347957
0.00676598
0.035069
0.00645292
0.0353316
0.00612443
0.0355834
0.00577997
0.035824
0.00541908
0.036053
0.00504125
0.0362702
0.00464601
0.0364745
0.00423285
0.0366657
0.00380132
0.0368438
0.00335089
0.0370078
0.00288114
0.0371576
0.00239155
0.0372925
0.0018816
0.0374117
0.0013508
0.0375148
0.00079834
0.037602
0.000223597
0.0376718
-0.000373528
0.0377242
-0.000993364
0.0377579
-0.00163674
0.0377734
-0.00230425
0.0377706
-0.00299645
0.0377482
-0.00371421
0.0377062
-0.0044581
0.0376438
-0.0052285
0.0375615
-0.00602598
0.0374589
-0.00685137
0.0373352
-0.00770546
0.0371901
-0.00858888
0.0370235
-0.00950234
0.0368349
-0.0104467
0.0366237
-0.0114231
0.0363895
-0.0124321
0.0361323
-0.0134745
0.0358519
-0.0145514
0.0355484
-0.0156639
0.035222
-0.0168136
0.0348725
-0.0180024
0.0344999
-0.0192321
0.0341048
-0.0205049
0.0336877
-0.0218236
0.0332499
-0.0231909
0.0327943
-0.0246102
0.032325
-0.0260861
0.031845
-0.027626
0.0313578
-0.0292388
0.0308704
-0.0309333
0.0303913
-0.0327211
0.0299247
-0.0346151
0.0294739
-0.0366211
0.0290373
-0.0387301
-0.0409831
0.0285831
0.028148
0.00980257
-0.0277453
0.0285465
0.00970558
0.0289405
0.00960053
0.0293298
0.00948663
0.0297142
0.00936352
0.0300935
0.00923085
0.0304674
0.00908835
0.0308355
0.00893573
0.0311977
0.00877268
0.0315534
0.00859883
0.0319022
0.00841377
0.0322439
0.00821713
0.032578
0.00800858
0.0329041
0.00778774
0.0332219
0.00755419
0.0335309
0.00730755
0.0338309
0.00704741
0.0341214
0.00677339
0.0344023
0.00648509
0.0346731
0.00618213
0.0349335
0.00586407
0.035183
0.00553047
0.0354212
0.00518088
0.0356476
0.0048148
0.0358619
0.00443176
0.0360635
0.00403125
0.036252
0.00361276
0.0364271
0.00317583
0.0365882
0.00272001
0.036735
0.00224478
0.036867
0.00174962
0.0369838
0.00123394
0.037085
0.000697105
0.0371702
0.000138452
0.0372385
-0.000441821
0.0372895
-0.00104439
0.0373229
-0.0016701
0.0373382
-0.00231958
0.0373351
-0.00299338
0.0373131
-0.00369219
0.0372716
-0.00441663
0.0372104
-0.00516726
0.0371291
-0.00594469
0.0370273
-0.00674958
0.0369046
-0.00758272
0.0367605
-0.00844483
0.0365949
-0.00933666
0.0364071
-0.010259
0.0361968
-0.0112128
0.0359637
-0.012199
0.0357075
-0.0132183
0.0354281
-0.014272
0.0351255
-0.0153613
0.0347998
-0.0164879
0.0344511
-0.0176537
0.0340798
-0.0188608
0.0336865
-0.0201116
0.0332721
-0.0214092
0.0328383
-0.0227571
0.0323876
-0.0241595
0.0319237
-0.0256222
0.0314506
-0.0271529
0.0309731
-0.0287613
0.0304981
-0.0304583
0.0300322
-0.0322551
0.0295767
-0.0341596
0.0291274
-0.0361718
0.0286718
-0.0382745
-0.0404893
0.028178
0.0277915
0.00940311
-0.0273921
0.0281878
0.00930929
0.0285803
0.00920806
0.0289684
0.0090985
0.0293518
0.00898015
0.02973
0.00885263
0.0301028
0.00871562
0.0304697
0.0085688
0.0308305
0.00841184
0.031185
0.00824441
0.0315326
0.00806612
0.0318731
0.00787664
0.0322061
0.0076756
0.0325312
0.00746265
0.0328479
0.00723741
0.033156
0.00699949
0.0334549
0.00674847
0.0337444
0.00648396
0.0340239
0.00620555
0.0342932
0.00591284
0.0345519
0.00560539
0.0347996
0.00528277
0.0350359
0.00494456
0.0352604
0.00459027
0.0354728
0.00421943
0.0356724
0.00383156
0.035859
0.00342617
0.0360321
0.00300278
0.0361912
0.00256091
0.0363359
0.00210002
0.036466
0.0016196
0.0365808
0.00111906
0.0366801
0.000597882
0.0367632
5.53163e-05
0.0368297
-0.000508274
0.0368791
-0.00109382
0.0369111
-0.00170208
0.0369252
-0.00233369
0.036921
-0.00298921
0.0368981
-0.00366928
0.036856
-0.00437453
0.0367943
-0.00510554
0.0367126
-0.00586296
0.0366104
-0.00664744
0.0364874
-0.00745975
0.0363432
-0.00830061
0.0361773
-0.00917078
0.0359894
-0.0100711
0.035779
-0.0110025
0.0355459
-0.0119658
0.0352897
-0.0129622
0.0350105
-0.0139928
0.0347083
-0.0150591
0.0343832
-0.0161628
0.0340354
-0.0173059
0.0336655
-0.0184908
0.0332741
-0.0197202
0.0328624
-0.0209975
0.0324322
-0.0223268
0.031986
-0.0237134
0.0315278
-0.025164
0.0310623
-0.0266873
0.0305951
-0.0282941
0.0301317
-0.0299949
0.0296746
-0.031798
0.0292195
-0.0337045
0.0287558
-0.0357081
0.0282648
-0.0377835
-0.0399444
0.0277199
0.027459
0.0090083
-0.0270642
0.0278511
0.00891719
0.02824
0.00881914
0.0286252
0.0087133
0.0290062
0.00859919
0.0293824
0.00847642
0.0297534
0.00834462
0.0301188
0.0082034
0.0304782
0.00805243
0.0308312
0.00789136
0.0311775
0.00771984
0.0315167
0.00753749
0.0318483
0.00734397
0.032172
0.00713893
0.0324875
0.00692198
0.0327942
0.00669274
0.0330919
0.00645081
0.03338
0.00619579
0.0336583
0.00592728
0.0339263
0.00564485
0.0341836
0.00534809
0.0344298
0.00503655
0.0346646
0.0047098
0.0348875
0.00436738
0.0350981
0.00400882
0.035296
0.00363364
0.0354808
0.00324138
0.035652
0.00283153
0.0358094
0.00240359
0.0359523
0.00195706
0.0360805
0.0014914
0.0361935
0.00100607
0.0362908
0.000500548
0.0363721
-2.59267e-05
0.0364367
-0.000572935
0.0364845
-0.00114153
0.0365148
-0.00173243
0.0365274
-0.00234624
0.0365217
-0.00298356
0.0364974
-0.00364498
0.036454
-0.00433112
0.036391
-0.0050426
0.0363082
-0.00578007
0.0362049
-0.00654422
0.0360809
-0.00733576
0.0359358
-0.00815544
0.035769
-0.00900405
0.0355804
-0.00988244
0.0353695
-0.0107915
0.035136
-0.0117323
0.0348799
-0.012706
0.034601
-0.0137139
0.0342993
-0.0147574
0.033975
-0.0158385
0.0336285
-0.0169594
0.0332601
-0.0181224
0.0328706
-0.0193308
0.0324615
-0.0205884
0.0320347
-0.0219001
0.0315934
-0.0232721
0.0311419
-0.0247125
0.0306852
-0.0262306
0.0302279
-0.0278369
0.0297718
-0.0295387
0.0293134
-0.0313396
0.0288423
-0.0332334
0.0283434
-0.0352092
0.0277967
-0.0372368
-0.0393239
0.0271762
0.0271516
0.00861718
-0.0267605
0.0275397
0.0085291
0.0279245
0.00843433
0.0283058
0.00833206
0.0286831
0.00822188
0.029056
0.00810347
0.0294242
0.00797649
0.029787
0.00784056
0.0301441
0.00769534
0.030495
0.00754044
0.0308393
0.00737553
0.0311766
0.00720023
0.0315064
0.00701416
0.0318284
0.00681695
0.0321421
0.00660824
0.0324472
0.00638763
0.0327433
0.00615475
0.0330299
0.00590919
0.0333066
0.00565054
0.0335731
0.00537839
0.0338289
0.00509231
0.0340736
0.00479187
0.0343067
0.00447663
0.034528
0.00414612
0.0347369
0.00379989
0.0349331
0.00343746
0.0351161
0.00305834
0.0352856
0.00266206
0.0354411
0.0022481
0.0355822
0.00181595
0.0357085
0.0013651
0.0358196
0.000894998
0.035915
0.000405124
0.0359943
-0.000105188
0.036057
-0.00063566
0.0361028
-0.00118733
0.0361312
-0.00176088
0.0361419
-0.00235693
0.0361344
-0.00297607
0.0361083
-0.00361888
0.0360632
-0.004286
0.0359987
-0.00497804
0.0359143
-0.00569569
0.0358097
-0.00643961
0.0356844
-0.00721053
0.0355382
-0.00800922
0.0353707
-0.00883648
0.0351814
-0.00969318
0.0349701
-0.0105803
0.0347367
-0.0114989
0.0344808
-0.0124501
0.0342024
-0.0134355
0.0339016
-0.0144566
0.0335784
-0.0155153
0.0332331
-0.0166141
0.0328662
-0.0177556
0.0324789
-0.0189435
0.0320726
-0.0201822
0.0316503
-0.0214777
0.0312153
-0.0228372
0.0307722
-0.0242693
0.0303244
-0.0257828
0.0298731
-0.0273855
0.0294139
-0.0290795
0.0289375
-0.0308632
0.0284291
-0.032725
0.0278733
-0.0346533
0.0272519
-0.0366155
-0.0386116
0.0265396
0.026866
0.00822804
-0.0264768
0.0272516
0.00814348
0.0276335
0.00805242
0.0280115
0.00795407
0.0283853
0.00784806
0.0287547
0.00773409
0.0291193
0.00761188
0.0294787
0.0074811
0.0298326
0.00734143
0.0301806
0.00719251
0.0305221
0.007034
0.0308568
0.00686554
0.0311842
0.00668675
0.0315039
0.00649725
0.0318155
0.00629668
0.0321185
0.00608463
0.0324125
0.00586072
0.0326971
0.00562456
0.0329719
0.00537574
0.0332365
0.00511383
0.0334904
0.00483842
0.0337332
0.00454907
0.0339645
0.00424533
0.0341838
0.00392675
0.0343909
0.00359286
0.0345851
0.00324319
0.0347662
0.00287726
0.0349337
0.00249457
0.0350872
0.00209462
0.0352263
0.00167689
0.0353505
0.00124088
0.0354595
0.000786022
0.0355528
0.000311794
0.0356299
-0.000182287
0.0356905
-0.000696231
0.0357341
-0.00123099
0.0357605
-0.00178723
0.0357691
-0.00236556
0.0357596
-0.00296657
0.0357316
-0.00359087
0.0356846
-0.00423908
0.0356184
-0.00491183
0.0355326
-0.00560981
0.0354267
-0.0063337
0.0353003
-0.00708423
0.0351533
-0.00786216
0.0349851
-0.00866832
0.0347955
-0.0095036
0.0345843
-0.010369
0.034351
-0.0112656
0.0340957
-0.0121948
0.0338181
-0.0131579
0.0335182
-0.0141567
0.0331961
-0.0151933
0.0328523
-0.0162702
0.0324875
-0.0173908
0.0321031
-0.0185591
0.0317016
-0.0197806
0.031286
-0.0210621
0.0308597
-0.0224108
0.0304252
-0.0238348
0.0299821
-0.0253398
0.029526
-0.0269294
0.0290468
-0.0286003
0.028531
-0.0303475
0.0279634
-0.0321574
0.0273305
-0.0340203
0.026618
-0.035903
-0.0377944
0.0258007
0.0265989
0.00783981
-0.0262107
0.0269833
0.0077591
0.0273636
0.00767213
0.0277396
0.00757808
0.0281111
0.0074766
0.0284778
0.00736739
0.0288395
0.0072502
0.0291958
0.00712473
0.0295466
0.00699068
0.0298913
0.00684775
0.0302297
0.0066956
0.0305614
0.0065339
0.0308858
0.00636229
0.0312027
0.0061804
0.0315115
0.00598785
0.0318119
0.00578427
0.0321034
0.00556926
0.0323855
0.00534242
0.0326579
0.00510335
0.0329201
0.00485164
0.0331716
0.00458685
0.0334121
0.00430856
0.0336411
0.00401631
0.0338582
0.00370965
0.034063
0.00338811
0.034255
0.00305121
0.0344338
0.00269847
0.034599
0.00232939
0.0347501
0.00194346
0.0348868
0.00154018
0.0350087
0.00111901
0.0351153
0.00067942
0.0352063
0.000220828
0.035281
-0.000257024
0.0353392
-0.000754456
0.0353806
-0.00127234
0.0354047
-0.00181134
0.0354112
-0.00237204
0.0353997
-0.00295505
0.0353698
-0.00356097
0.0353211
-0.00419044
0.0352534
-0.0048441
0.0351662
-0.00552262
0.0350592
-0.0062267
0.0349321
-0.00695707
0.0347844
-0.00771449
0.0346159
-0.00849982
0.0344262
-0.00931394
0.0342151
-0.0101579
0.0339823
-0.0110328
0.0337276
-0.0119401
0.0334509
-0.0128812
0.0331522
-0.013858
0.0328318
-0.0148729
0.0324904
-0.0159289
0.0321294
-0.0170298
0.0317508
-0.0181805
0.0313572
-0.019387
0.0309509
-0.0206558
0.0305332
-0.0219931
0.0301023
-0.023404
0.0296528
-0.0248903
0.0291744
-0.0264511
0.028654
-0.0280799
0.0280778
-0.0297713
0.0274335
-0.0315131
0.0267096
-0.0332964
0.025888
-0.0350814
-0.0368187
0.0249124
0.0263493
0.00745229
-0.0259618
0.0267329
0.0073755
0.0271123
0.00729274
0.0274872
0.00720318
0.0278574
0.00710644
0.0282225
0.00700225
0.0285823
0.00689036
0.0289366
0.00677046
0.029285
0.00664229
0.0296272
0.00650554
0.0299629
0.00635991
0.0302917
0.00620507
0.0306133
0.00604069
0.0309273
0.00586643
0.0312332
0.00568192
0.0315307
0.00548678
0.0318193
0.00528064
0.0320987
0.0050631
0.0323683
0.00483376
0.0326277
0.0045922
0.0328765
0.00433801
0.0331143
0.00407075
0.0333407
0.00378998
0.0335551
0.00349522
0.0337572
0.00318602
0.0339465
0.00286189
0.0341226
0.00252234
0.0342852
0.00216687
0.0344336
0.00179497
0.0345677
0.00140612
0.0346869
0.000999802
0.0347909
0.00057547
0.0348792
0.000132489
0.0349514
-0.000329194
0.0350071
-0.000810184
0.035046
-0.00131129
0.0350678
-0.00183314
0.0350721
-0.00237634
0.0350586
-0.0029415
0.0350268
-0.00352922
0.0349765
-0.00414014
0.0349073
-0.0047749
0.0348189
-0.00543418
0.0347109
-0.00611868
0.0345829
-0.00682912
0.0344347
-0.00756629
0.0342659
-0.00833103
0.0340763
-0.00912428
0.0338654
-0.00994708
0.0336332
-0.0108006
0.0333795
-0.0116863
0.0331043
-0.0126059
0.0328078
-0.0135616
0.0324909
-0.014556
0.0321548
-0.0155928
0.0318013
-0.0166762
0.0314322
-0.0178115
0.031049
-0.0190037
0.0306511
-0.020258
0.0302358
-0.0215777
0.0297962
-0.0229643
0.029322
-0.0244161
0.0288004
-0.0259295
0.028219
-0.0274984
0.0275668
-0.0291191
0.0268358
-0.0307821
0.0260147
-0.0324753
0.0250751
-0.0341418
-0.0356748
0.0239311
0.0261183
0.00706559
-0.0257316
0.0265011
0.00699266
0.0268798
0.00691411
0.0272539
0.00682906
0.0276232
0.00673714
0.0279874
0.00663809
0.0283461
0.00653163
0.0286991
0.0064175
0.0290459
0.0062954
0.0293864
0.00616504
0.0297202
0.00602612
0.030047
0.00587833
0.0303663
0.00572136
0.0306779
0.00555486
0.0309813
0.00537849
0.0312762
0.0051919
0.0315621
0.00499469
0.0318387
0.00478651
0.0321055
0.00456693
0.0323622
0.00433557
0.0326082
0.004092
0.0328431
0.0038358
0.0330666
0.0035665
0.0332782
0.00328367
0.0334774
0.00298681
0.0336638
0.00267546
0.033837
0.0023491
0.0339966
0.00200725
0.0341422
0.00164939
0.0342734
0.00127498
0.0343897
0.000883495
0.0344908
0.000474403
0.0345762
4.70146e-05
0.0346456
-0.000398567
0.0346986
-0.000863198
0.0347349
-0.00134761
0.0347542
-0.00185243
0.0347562
-0.00237827
0.0347404
-0.00292572
0.0347066
-0.0034954
0.0346544
-0.00408796
0.0345835
-0.00470403
0.0344936
-0.00534429
0.0343844
-0.00600945
0.0342555
-0.00670025
0.0341067
-0.00741749
0.0339377
-0.00816202
0.0337482
-0.0089348
0.0335381
-0.00973694
0.0333072
-0.0105697
0.0330557
-0.0114348
0.0327839
-0.0123341
0.0324926
-0.0132703
0.0321831
-0.0142465
0.0318566
-0.0152663
0.0315143
-0.016334
0.0311564
-0.0174535
0.0307809
-0.0186283
0.0303835
-0.0198606
0.0299565
-0.0211508
0.0294895
-0.0224973
0.0289705
-0.023897
0.0283875
-0.0253466
0.0277313
-0.0268422
0.0269946
-0.0283824
0.0261718
-0.0299592
0.0252464
-0.03155
0.0241714
-0.0330667
-0.0343325
0.0228291
0.0259088
0.00667995
-0.0255232
0.0262907
0.00661081
0.0266684
0.0065364
0.0270416
0.00645582
0.0274101
0.00636871
0.0277734
0.00627479
0.0281312
0.00617381
0.0284832
0.00606549
0.028829
0.00594954
0.0291684
0.00582569
0.0295009
0.00569363
0.0298262
0.00555305
0.0301439
0.00540364
0.0304537
0.00524508
0.0307552
0.00507701
0.031048
0.0048991
0.0313317
0.00471097
0.0316059
0.00451226
0.0318703
0.00430257
0.0321244
0.0040815
0.0323677
0.00384864
0.0326
0.00360356
0.0328206
0.00334581
0.0330294
0.00307495
0.0332257
0.0027905
0.0334092
0.00249196
0.0335794
0.00217885
0.033736
0.00185065
0.0338786
0.00150685
0.0340066
0.00114691
0.0341199
0.000770277
0.0342178
0.000376424
0.0343002
-3.53305e-05
0.0343665
-0.000464883
0.0344165
-0.000913208
0.0344499
-0.001381
0.0344663
-0.00186889
0.0344655
-0.00237747
0.0344472
-0.00290737
0.034411
-0.0034592
0.0343566
-0.00403361
0.0342839
-0.00463125
0.0341924
-0.00525281
0.034082
-0.00589901
0.0339523
-0.00657061
0.0338032
-0.00726842
0.0336346
-0.00799334
0.0334462
-0.00874642
0.0332381
-0.00952888
0.0330107
-0.0103423
0.0327643
-0.0111885
0.0324999
-0.0120697
0.0322184
-0.0129888
0.0319206
-0.0139486
0.0316066
-0.0149523
0.0312753
-0.0160026
0.0309234
-0.0171016
0.0305454
-0.0182502
0.0301328
-0.0194481
0.0296755
-0.0206935
0.0291622
-0.021984
0.0285821
-0.0233169
0.0279263
-0.0246908
0.027189
-0.0261049
0.0263648
-0.0275582
0.0254457
-0.0290402
0.0244013
-0.0305055
0.0231507
-0.0318162
-0.0327049
0.0215232
0.0257237
0.00629546
-0.0253393
0.0261045
0.00623007
0.0264811
0.00615976
0.0268533
0.00608362
0.0272208
0.00600128
0.0275831
0.00591248
0.0279399
0.00581696
0.028291
0.00571445
0.0286358
0.00560469
0.0289741
0.00548737
0.0293055
0.00536223
0.0296296
0.00522894
0.0299461
0.00508721
0.0302545
0.00493669
0.0305544
0.00477706
0.0308455
0.00460797
0.0311274
0.00442907
0.0313997
0.00423997
0.031662
0.0040403
0.0319138
0.00382967
0.0321548
0.00360764
0.0323846
0.00337381
0.0326027
0.00312774
0.0328086
0.00286896
0.0330021
0.00259702
0.0331827
0.0023114
0.0333499
0.00201163
0.0335034
0.00169717
0.0336427
0.0013675
0.0337676
0.00102207
0.0338775
0.000660334
0.0339722
0.000281724
0.0340512
-0.000114326
0.0341142
-0.000527922
0.034161
-0.000960003
0.0341913
-0.00141126
0.0342047
-0.00188233
0.0342011
-0.00237382
0.0341801
-0.00288637
0.0341415
-0.00342062
0.0340851
-0.00397721
0.0340107
-0.00455682
0.033918
-0.00516016
0.033807
-0.00578797
0.0336774
-0.00644105
0.0335293
-0.00712029
0.0333626
-0.0078267
0.0331777
-0.00856151
0.032975
-0.00932613
0.032755
-0.0101223
0.0325185
-0.0109519
0.032266
-0.0118172
0.0319975
-0.0127203
0.0317121
-0.0136632
0.0314073
-0.0146475
0.0310788
-0.0156741
0.03072
-0.0167429
0.0303226
-0.0178528
0.0298767
-0.0190022
0.0293721
-0.0201889
0.028799
-0.0214109
0.0281494
-0.0226672
0.0274171
-0.0239586
0.0265983
-0.0252861
0.0256857
-0.0266456
0.0246621
-0.0280165
0.0234678
-0.0293113
0.0219617
-0.03031
-0.0306148
0.0198715
0.0255654
0.00591194
-0.0251818
0.0259451
0.0058503
0.0263208
0.0057841
0.026692
0.0057124
0.0270585
0.00563483
0.0274198
0.00555114
0.0277757
0.00546109
0.0281257
0.00536441
0.0284696
0.00526084
0.0288068
0.00515009
0.0291372
0.00503189
0.0294602
0.00490594
0.0297755
0.00477193
0.0300826
0.00462955
0.0303812
0.00447844
0.0306709
0.00431828
0.0309513
0.00414871
0.0312219
0.00396937
0.0314823
0.00377986
0.0317322
0.00357981
0.031971
0.00336879
0.0321985
0.00314638
0.0324141
0.00291214
0.0326174
0.00266561
0.0328081
0.00240631
0.0329858
0.00213376
0.03315
0.00184744
0.0333003
0.00154682
0.0334365
0.00123136
0.033558
0.000900513
0.0336647
0.000553704
0.033756
0.00019033
0.0338317
-0.00019
0.0338915
-0.000587698
0.0339351
-0.00100363
0.0339624
-0.0014385
0.033973
-0.00189293
0.0339667
-0.00236758
0.0339434
-0.0028631
0.033903
-0.00338014
0.0338451
-0.00391939
0.0337699
-0.00448155
0.0336771
-0.0050674
0.0335669
-0.00567774
0.0334393
-0.00631349
0.0332947
-0.00697567
0.0331335
-0.00766544
0.032956
-0.0083841
0.032763
-0.0091331
0.0325547
-0.00991396
0.0323309
-0.0107282
0.0320909
-0.0115772
0.0318325
-0.0124619
0.0315522
-0.013383
0.0312449
-0.0143403
0.030904
-0.0153331
0.0305212
-0.0163601
0.0300877
-0.0174193
0.0295943
-0.0185088
0.0290323
-0.0196269
0.0283942
-0.0207728
0.0276745
-0.0219475
0.0268686
-0.0231527
0.0259715
-0.0243889
0.024968
-0.0256421
0.0238183
-0.0268668
0.0224108
-0.0279037
0.0205126
-0.0284119
-0.0279545
0.0178523
0.0254359
0.00552906
-0.025053
0.025815
0.00547121
0.02619
0.00540915
0.0265604
0.00534191
0.0269261
0.00526914
0.0272867
0.00519059
0.0276418
0.00510603
0.027991
0.00501521
0.0283339
0.00491786
0.0286703
0.00481372
0.0289997
0.00470251
0.0293217
0.00458395
0.0296359
0.00445774
0.0299419
0.00432355
0.0302393
0.00418106
0.0305276
0.00402992
0.0308065
0.00386979
0.0310756
0.0037003
0.0313344
0.00352108
0.0315825
0.00333173
0.0318194
0.00313183
0.0320448
0.00292097
0.0322583
0.0026987
0.0324593
0.00246454
0.0326476
0.00221803
0.0328227
0.00195865
0.0329843
0.00168589
0.0331319
0.00139922
0.0332652
0.00109806
0.0333838
0.000781866
0.0334875
0.000450044
0.0335759
0.000101932
0.0336486
-0.000262699
0.0337054
-0.000644552
0.0337462
-0.00104445
0.0337708
-0.00146309
0.033779
-0.00190114
0.0337708
-0.00235929
0.0337459
-0.00283822
0.0337044
-0.00333865
0.0336463
-0.00386132
0.0335718
-0.00440703
0.033481
-0.00497664
0.0333743
-0.00557106
0.0332521
-0.00619129
0.0331148
-0.00683837
0.0329628
-0.00751341
0.0327962
-0.00821747
0.0326147
-0.0089516
0.0324174
-0.00971667
0.0322025
-0.0105133
0.0319672
-0.0113418
0.0317072
-0.0122019
0.0314174
-0.0130931
0.0310913
-0.0140142
0.0307216
-0.0149635
0.0303005
-0.015939
0.0298201
-0.0169389
0.0292727
-0.0179614
0.0286517
-0.0190058
0.0279517
-0.0200728
0.0271682
-0.021164
0.026296
-0.0222805
0.0253237
-0.0234166
0.0242179
-0.0245363
0.0228964
-0.0255454
0.021167
-0.0261743
0.0187012
-0.0259461
-0.0245228
0.0152695
0.0253378
0.0051464
-0.0249551
0.0257166
0.00509237
0.0260913
0.00503447
0.0264615
0.00497174
0.0268268
0.00490381
0.027187
0.00483045
0.0275416
0.00475142
0.0278903
0.0046665
0.0282327
0.00457543
0.0285685
0.00447795
0.0288972
0.0043738
0.0292184
0.00426269
0.0295318
0.00414433
0.029837
0.00401841
0.0301334
0.00388462
0.0304207
0.0037426
0.0306985
0.00359201
0.0309663
0.00343248
0.0312238
0.00326364
0.0314704
0.0030851
0.0317058
0.00289643
0.0319296
0.00269722
0.0321413
0.00248701
0.0323405
0.00226533
0.0325268
0.0020317
0.0326998
0.0017856
0.0328592
0.00152651
0.0330046
0.00125386
0.0331355
0.000967094
0.0332518
0.000665607
0.0333531
0.000348797
0.033439
1.59655e-05
0.0335094
-0.000333067
0.0335641
-0.00069922
0.0336029
-0.00108329
0.0336258
-0.00148602
0.0336328
-0.00190813
0.0336239
-0.00235036
0.0335992
-0.00281348
0.0335588
-0.00329827
0.033503
-0.00380557
0.0334322
-0.00433623
0.0333467
-0.00489113
0.0332468
-0.00547115
0.0331327
-0.00607715
0.0330043
-0.00670996
0.0328611
-0.00737027
0.0327023
-0.00805867
0.0325262
-0.00877551
0.0323305
-0.00952091
0.0321118
-0.0102946
0.0318661
-0.0110961
0.0315886
-0.0119244
0.0312735
-0.0127781
0.0309147
-0.0136553
0.0305055
-0.0145543
0.0300392
-0.0154727
0.0295093
-0.016409
0.02891
-0.0173621
0.0282364
-0.0183323
0.0274843
-0.0193207
0.0266486
-0.0203283
0.0257179
-0.0213499
0.0246654
-0.022364
0.0234219
-0.0232929
0.0218345
-0.023958
0.0196176
-0.0239574
0.0164728
-0.0228012
-0.0206491
0.0125991
0.0252743
0.00476343
-0.0248913
0.0256535
0.00471323
0.0260284
0.00465953
0.0263988
0.00460132
0.0267644
0.00453827
0.0271247
0.00447013
0.0274794
0.0043967
0.0278282
0.00431774
0.0281706
0.004233
0.0285063
0.00414224
0.0288349
0.0040452
0.029156
0.00394161
0.0294692
0.00383117
0.029774
0.0037136
0.03007
0.00358856
0.0303569
0.00345574
0.0306341
0.00331477
0.0309013
0.0031653
0.031158
0.00300695
0.0314038
0.00283931
0.0316382
0.00266198
0.0318609
0.00247452
0.0320715
0.00227647
0.0322694
0.00206737
0.0324544
0.00184671
0.0326261
0.00161397
0.032784
0.00136859
0.0329278
0.00111
0.0330573
0.000837615
0.0331721
0.000550794
0.033272
0.000248896
0.0333567
-6.87413e-05
0.0334261
-0.000402467
0.0334802
-0.000753274
0.0335189
-0.00112199
0.0335422
-0.00150938
0.0335504
-0.00191625
0.0335434
-0.00234338
0.0335215
-0.00279159
0.0334849
-0.0032617
0.0334339
-0.00375449
0.0333684
-0.00427076
0.0332885
-0.00481124
0.033194
-0.0053766
0.0330842
-0.00596739
0.0329583
-0.00658406
0.0328149
-0.00722684
0.032652
-0.00789581
0.0324673
-0.00859078
0.0322576
-0.00931127
0.0320195
-0.0100565
0.0317487
-0.0108253
0.0314406
-0.0116163
0.0310901
-0.0124275
0.0306917
-0.0132569
0.0302399
-0.0141025
0.0297294
-0.0149623
0.0291555
-0.0158351
0.0285142
-0.0167208
0.0278019
-0.0176199
0.0270134
-0.0185323
0.026138
-0.0194529
0.0251493
-0.0203612
0.0239878
-0.0212026
0.0225246
-0.0218296
0.0205091
-0.0219425
0.0176114
-0.0210596
0.0137838
-0.0189737
-0.0165083
0.00964308
0.0252501
0.00437942
-0.0248661
0.0256303
0.00433304
0.0260063
0.00428353
0.0263778
0.00422986
0.0267443
0.00417169
0.0271057
0.0041088
0.0274614
0.00404097
0.0278111
0.00396799
0.0281545
0.00388962
0.0284911
0.00380562
0.0288206
0.00371572
0.0291425
0.00361968
0.0294565
0.00351721
0.0297621
0.00340801
0.0300589
0.00329177
0.0303465
0.00316817
0.0306244
0.00303686
0.0308922
0.00289748
0.0311495
0.00274965
0.0313958
0.00259296
0.0316308
0.00242701
0.031854
0.00225134
0.032065
0.0020655
0.0322633
0.00186899
0.0324487
0.00166132
0.0326208
0.00144193
0.0327791
0.00121025
0.0329234
0.000965688
0.0330534
0.000707613
0.0331689
0.000435367
0.0332695
0.000148243
0.0333551
-0.000154334
0.0334257
-0.000473021
0.0334811
-0.000808765
0.0335216
-0.00116239
0.0335469
-0.0015347
0.0335571
-0.00192648
0.0335522
-0.00233853
0.0335323
-0.00277163
0.0334971
-0.00322651
0.0334465
-0.0037039
0.0333801
-0.0042044
0.0332975
-0.00472857
0.0331977
-0.00527682
0.0330797
-0.00584943
0.0329422
-0.00644652
0.0327833
-0.007068
0.0326011
-0.00771356
0.0323929
-0.00838261
0.0321559
-0.00907428
0.0318868
-0.00978736
0.0315818
-0.0105203
0.0312368
-0.0112714
0.0308477
-0.0120384
0.0304101
-0.0128194
0.0299201
-0.0136125
0.0293742
-0.0144164
0.0287698
-0.0152307
0.0281043
-0.0160553
0.0273731
-0.0168888
0.0265653
-0.0177244
0.0256542
-0.0185418
0.024582
-0.0192889
0.023233
-0.0198537
0.0213936
-0.0199902
0.0187437
-0.0192926
0.0151118
-0.0174277
0.0109158
-0.0147777
-0.0125564
0.00696389
0.0252743
0.00399325
-0.0248881
0.0256567
0.00395064
0.0260349
0.00390526
0.0264087
0.00385607
0.0267777
0.00380272
0.0271415
0.00374502
0.0274997
0.00368274
0.027852
0.00361568
0.028198
0.00354362
0.0285373
0.0034663
0.0288696
0.0033835
0.0291943
0.00329495
0.0295111
0.00320037
0.0298196
0.00309948
0.0301194
0.00299199
0.0304101
0.00287756
0.0306911
0.00275586
0.030962
0.00262653
0.0312225
0.0024892
0.0314719
0.00234346
0.0317101
0.0021889
0.0319363
0.00202507
0.0321503
0.00185149
0.0323516
0.00166768
0.0325399
0.00147311
0.0327146
0.00126722
0.0328754
0.00104944
0.0330219
0.000819133
0.0331539
0.000575655
0.0332709
0.000318317
0.0333728
4.63634e-05
0.0334592
-0.000240712
0.03353
-0.000543785
0.0335849
-0.00086373
0.0336239
-0.00120135
0.0336466
-0.00155745
0.033653
-0.00193281
0.0336426
-0.00232819
0.0336153
-0.00274433
0.0335707
-0.00318191
0.0335084
-0.00364153
0.0334277
-0.0041237
0.0333279
-0.00462882
0.0332082
-0.00515714
0.0330675
-0.00570872
0.0329045
-0.00628344
0.0327174
-0.00688094
0.0325044
-0.0075006
0.0322634
-0.00814152
0.0319916
-0.0088025
0.0316863
-0.00948203
0.0313443
-0.0101784
0.0309626
-0.0108896
0.0305382
-0.011614
0.0300687
-0.0123499
0.0295524
-0.0130962
0.0289884
-0.0138524
0.0283755
-0.0146178
0.0277099
-0.0153897
0.0269799
-0.0161587
0.0261569
-0.0169014
0.0251809
-0.0175658
0.0239387
-0.0180467
0.0222353
-0.0181502
0.0197879
-0.0175428
0.01637
-0.0158747
0.0122163
-0.013274
0.00805811
-0.0106195
-0.00902388
0.00452558
0.025364
0.00360285
-0.0249736
0.0257508
0.00356387
0.0261335
0.00352249
0.026512
0.00347764
0.0268857
0.00342899
0.0272544
0.00337634
0.0276176
0.00331949
0.0279751
0.00325825
0.0283263
0.00319238
0.0286709
0.00312169
0.0290085
0.00304592
0.0293386
0.00296483
0.0296608
0.00287815
0.0299747
0.00278562
0.0302798
0.00268693
0.0305755
0.00258178
0.0308615
0.00246984
0.0311373
0.00235075
0.0314024
0.00222416
0.0316562
0.00208966
0.0318982
0.00194684
0.0321281
0.00179525
0.0323451
0.00163443
0.0325489