/*--------------------------------*- C++ -*----------------------------------*\
| =========                 |                                                 |
| \\      /  F ield         | OpenFOAM: The Open Source CFD Toolbox           |
|  \\    /   O peration     | Version:  2312                                  |
|   \\  /    A nd           | Website:  www.openfoam.com                      |
|    \\/     M anipulation  |                                                 |
\*---------------------------------------------------------------------------*/
FoamFile
{
    version     2.0;
    format      ascii;
    arch        "LSB;label=32;scalar=64";
    class       volVectorField;
    location    "800";
    object      U;
}
// * * * * * * * * * * * * * * * * * * * * * * * * * * * * * * * * * * * * * //

dimensions      [0 1 -1 0 0 0 0];

internalField   nonuniform List<vector> 
76025
(
(0.991176 -0.189977 0)
(0.995881 -0.191077 1.4919e-20)
(1.00071 -0.192033 0)
(1.00567 -0.192916 0)
(1.01034 -0.193625 -2.64909e-20)
(1.01535 -0.194252 -4.99999e-20)
(1.02014 -0.194754 8.58457e-20)
(1.02499 -0.195092 -3.6156e-20)
(1.02988 -0.195359 -1.12568e-20)
(1.03484 -0.195523 1.0753e-20)
(1.03974 -0.195557 -2.70601e-23)
(1.04465 -0.195439 2.83574e-20)
(1.04958 -0.195251 -3.80509e-20)
(1.05453 -0.194866 0)
(1.05977 -0.19439 8.2607e-21)
(1.06478 -0.193853 0)
(1.06994 -0.193119 0)
(1.07497 -0.192355 0)
(1.08001 -0.19141 6.54201e-21)
(1.08494 -0.190504 -5.96194e-21)
(1.08994 -0.189349 -5.50995e-21)
(1.09512 -0.188075 -1.50637e-20)
(1.10027 -0.186697 9.88323e-21)
(1.10545 -0.18523 1.23077e-20)
(1.11062 -0.183703 -8.77762e-22)
(1.11566 -0.182171 2.46383e-21)
(1.12088 -0.180338 -8.91312e-21)
(1.12589 -0.178521 8.33134e-21)
(1.13082 -0.176586 -2.29872e-21)
(1.13569 -0.174444 1.93019e-21)
(1.14043 -0.172458 1.47511e-21)
(1.14504 -0.170471 -1.55068e-21)
(1.14973 -0.168064 1.92249e-21)
(1.15425 -0.165893 -2.9106e-22)
(1.15862 -0.163507 6.43476e-22)
(1.16279 -0.161357 2.2038e-22)
(1.16687 -0.159122 -4.48884e-22)
(1.17094 -0.156482 3.47778e-22)
(1.17496 -0.154063 3.38036e-23)
(1.17885 -0.151562 -7.4667e-22)
(1.18259 -0.149274 5.08953e-22)
(1.18626 -0.146954 -2.99203e-22)
(1.18998 -0.144302 6.50844e-22)
(1.1937 -0.141944 -1.45477e-21)
(1.19739 -0.139555 -1.63446e-21)
(1.20112 -0.137453 3.27585e-21)
(1.20498 -0.135192 3.6586e-21)
(1.20905 -0.133136 -1.11974e-20)
(1.21325 -0.131192 7.89057e-21)
(1.21764 -0.129405 3.16967e-22)
(1.22229 -0.127738 -2.12098e-20)
(1.22722 -0.126113 -8.98429e-21)
(1.2325 -0.124517 9.01495e-21)
(1.23813 -0.122978 0)
(1.24423 -0.12153 -1.01608e-20)
(1.25074 -0.120422 -1.00944e-20)
(1.25777 -0.119249 6.19569e-23)
(1.26543 -0.118252 -1.09923e-20)
(1.27368 -0.117415 1.23063e-20)
(1.28251 -0.11651 -3.78135e-20)
(1.29211 -0.115306 -2.52605e-20)
(1.30331 -0.114468 1.94677e-21)
(1.31576 -0.113478 0)
(1.32958 -0.112291 8.04291e-20)
(1.34541 -0.110564 -3.66134e-20)
(1.36358 -0.109094 1.77543e-20)
(1.38386 -0.10677 -4.16423e-20)
(1.40773 -0.10207 4.33571e-20)
(1.43683 -0.0982783 9.82147e-20)
(0.989786 -0.1986 1.59999e-20)
(0.994786 -0.19973 4.52914e-20)
(0.999837 -0.200712 -6.02612e-20)
(1.00495 -0.201536 0)
(1.01005 -0.20228 6.75202e-20)
(1.01523 -0.202853 -1.96122e-21)
(1.02041 -0.203326 -5.14566e-20)
(1.02555 -0.203658 0)
(1.03071 -0.203849 -5.82886e-23)
(1.03589 -0.203925 -1.10074e-20)
(1.04111 -0.203877 1.04883e-20)
(1.04631 -0.203693 9.12131e-24)
(1.05148 -0.203388 0)
(1.05663 -0.202959 0)
(1.06181 -0.202348 1.58825e-20)
(1.06699 -0.201678 -4.06465e-20)
(1.0722 -0.200826 -7.40441e-21)
(1.07738 -0.199902 2.03602e-20)
(1.08255 -0.198803 -1.3459e-20)
(1.08767 -0.19764 6.08997e-21)
(1.09278 -0.196333 -4.99803e-21)
(1.09785 -0.194904 1.06569e-20)
(1.10289 -0.193366 -8.81097e-21)
(1.10792 -0.191722 1.24776e-20)
(1.11294 -0.18997 -7.94935e-21)
(1.11793 -0.188152 -9.56445e-21)
(1.12287 -0.186199 6.19124e-21)
(1.12775 -0.184191 0)
(1.13256 -0.182098 0)
(1.13728 -0.179917 1.49562e-21)
(1.14194 -0.177643 0)
(1.14657 -0.175309 6.61212e-22)
(1.1511 -0.172914 -1.64246e-22)
(1.15552 -0.170505 8.83621e-23)
(1.15985 -0.168075 1.06532e-22)
(1.16412 -0.16558 -3.61336e-22)
(1.16832 -0.163031 0)
(1.17241 -0.160458 -1.59486e-21)
(1.17644 -0.157908 1.37723e-21)
(1.18042 -0.155408 -1.25882e-21)
(1.18435 -0.152928 8.64061e-22)
(1.18825 -0.150451 3.22589e-24)
(1.19213 -0.148017 3.90874e-22)
(1.19603 -0.145691 -3.6414e-22)
(1.19998 -0.143424 3.31036e-21)
(1.20402 -0.141223 -1.71769e-21)
(1.20815 -0.139071 -1.85628e-21)
(1.21241 -0.137055 3.79201e-21)
(1.21681 -0.135152 1.18931e-20)
(1.22139 -0.133352 1.47587e-22)
(1.22616 -0.131658 1.27244e-20)
(1.23116 -0.13007 -4.47925e-21)
(1.23645 -0.128601 -1.40511e-20)
(1.24209 -0.127286 9.11713e-21)
(1.24812 -0.126114 0)
(1.25463 -0.125103 3.02736e-20)
(1.26164 -0.124208 5.85293e-22)
(1.26926 -0.123519 -1.05287e-20)
(1.27754 -0.122996 -1.08586e-20)
(1.2866 -0.12256 0)
(1.29668 -0.122088 1.28227e-20)
(1.30805 -0.121613 4.00106e-20)
(1.32091 -0.121259 0)
(1.33544 -0.120835 -3.12063e-20)
(1.35211 -0.120159 1.47726e-20)
(1.37148 -0.119308 -3.56221e-20)
(1.39373 -0.117948 1.83671e-20)
(1.41937 -0.115319 -4.38983e-20)
(1.4489 -0.114067 -4.86859e-20)
(0.988136 -0.20787 -8.07631e-20)
(0.993436 -0.209022 4.85949e-20)
(0.998785 -0.210022 -1.53819e-20)
(1.00415 -0.210851 5.76854e-20)
(1.00955 -0.21155 -7.1575e-20)
(1.01496 -0.212112 -5.30037e-20)
(1.02041 -0.212541 6.57632e-20)
(1.02588 -0.212829 0)
(1.03136 -0.212977 -5.74022e-23)
(1.03684 -0.212985 0)
(1.04231 -0.212858 -1.06633e-20)
(1.04778 -0.212591 1.01095e-20)
(1.05323 -0.212183 4.6794e-20)
(1.05865 -0.211641 -3.71898e-20)
(1.06404 -0.210955 8.53053e-21)
(1.06942 -0.210137 2.34701e-20)
(1.07478 -0.209183 -7.94099e-21)
(1.08012 -0.208093 -7.00765e-21)
(1.08543 -0.206871 -1.87722e-20)
(1.09073 -0.205513 1.24218e-20)
(1.09598 -0.204036 5.3639e-21)
(1.10117 -0.202439 -9.49467e-21)
(1.10631 -0.200726 5.1242e-21)
(1.1114 -0.198902 3.92303e-21)
(1.11645 -0.196975 0)
(1.12143 -0.194952 -3.00103e-21)
(1.12634 -0.192843 -2.38532e-21)
(1.13118 -0.190644 2.85564e-21)
(1.13596 -0.188356 0)
(1.14068 -0.185994 -2.75834e-21)
(1.14533 -0.183548 8.21591e-22)
(1.14991 -0.181057 -2.66359e-22)
(1.15439 -0.178537 0)
(1.1588 -0.175976 7.85228e-23)
(1.16315 -0.173376 -1.15402e-21)
(1.16743 -0.170726 8.59131e-22)
(1.17163 -0.168071 0)
(1.17576 -0.165414 1.3384e-21)
(1.17984 -0.162757 -1.44464e-21)
(1.18388 -0.16013 -2.73449e-22)
(1.18788 -0.157535 0)
(1.19185 -0.154991 -6.85214e-22)
(1.19581 -0.152498 -3.82611e-22)
(1.1998 -0.150063 3.93992e-22)
(1.20383 -0.147703 -2.44561e-21)
(1.20791 -0.145438 -1.74786e-21)
(1.21207 -0.143285 3.63502e-21)
(1.21633 -0.141255 -3.86537e-21)
(1.22072 -0.139358 3.865e-21)
(1.22527 -0.137601 -3.9318e-21)
(1.23 -0.135992 -4.20382e-21)
(1.23497 -0.134533 8.33839e-21)
(1.24022 -0.133229 0)
(1.2458 -0.132091 8.72391e-21)
(1.25179 -0.131128 -5.00961e-22)
(1.25824 -0.130367 -9.67928e-21)
(1.26524 -0.12981 -1.00491e-20)
(1.27288 -0.129464 2.0299e-20)
(1.28127 -0.129308 7.28559e-22)
(1.29055 -0.129303 1.04393e-20)
(1.30095 -0.129404 -2.18442e-20)
(1.31273 -0.129654 -1.03556e-20)
(1.32617 -0.130029 1.13622e-21)
(1.34156 -0.130422 -1.32667e-20)
(1.35935 -0.130727 -1.54606e-20)
(1.38007 -0.13086 -4.67249e-20)
(1.40392 -0.13059 0)
(1.43108 -0.129224 -2.17285e-20)
(1.46113 -0.128834 2.08495e-20)
(0.986197 -0.217711 0)
(0.991851 -0.218865 1.62586e-20)
(0.997552 -0.219864 7.74027e-20)
(1.00325 -0.220688 -6.14526e-20)
(1.00895 -0.221361 -4.23517e-20)
(1.01468 -0.221891 7.03437e-20)
(1.02043 -0.222275 -1.31687e-20)
(1.02619 -0.22251 1.26191e-20)
(1.03197 -0.222596 1.19754e-20)
(1.03774 -0.222531 4.44813e-20)
(1.0435 -0.222318 -4.43221e-20)
(1.04926 -0.221954 -3.97936e-20)
(1.05499 -0.22144 1.1287e-20)
(1.06071 -0.220775 3.63266e-20)
(1.06639 -0.219962 -2.60283e-20)
(1.07204 -0.219001 7.87617e-21)
(1.07765 -0.217898 -7.32067e-21)
(1.08321 -0.216651 -6.77405e-21)
(1.08873 -0.215265 1.8626e-20)
(1.0942 -0.213742 -6.4858e-21)
(1.09962 -0.212087 -5.42688e-21)
(1.10498 -0.210304 0)
(1.11028 -0.208397 -7.89767e-21)
(1.11552 -0.206374 4.21983e-21)
(1.12068 -0.204243 6.25822e-21)
(1.12576 -0.20201 4.82172e-21)
(1.13077 -0.19968 -1.02191e-20)
(1.13569 -0.197258 3.95911e-21)
(1.14053 -0.194751 0)
(1.14529 -0.19217 2.20205e-21)
(1.14996 -0.189524 -3.60094e-22)
(1.15455 -0.18683 -8.80263e-22)
(1.15906 -0.184094 -3.641e-22)
(1.16349 -0.181326 1.51239e-21)
(1.16784 -0.17852 -2.08013e-22)
(1.17212 -0.175688 0)
(1.17631 -0.172857 0)
(1.18044 -0.170034 5.18779e-22)
(1.1845 -0.167232 5.29033e-22)
(1.18852 -0.16447 3.20907e-22)
(1.1925 -0.161762 -1.08605e-23)
(1.19644 -0.159115 3.53186e-22)
(1.20038 -0.156536 0)
(1.20432 -0.154042 -2.41396e-23)
(1.20829 -0.151651 0)
(1.21231 -0.149377 1.79736e-21)
(1.2164 -0.147227 8.6218e-23)
(1.22058 -0.145211 -5.61346e-21)
(1.22488 -0.143347 0)
(1.22934 -0.141644 -4.04025e-21)
(1.23398 -0.140111 3.97982e-21)
(1.23885 -0.138757 -8.42298e-21)
(1.244 -0.137595 0)
(1.2495 -0.136642 -2.5842e-20)
(1.25541 -0.135915 -4.35687e-22)
(1.2618 -0.135432 8.70587e-21)
(1.26878 -0.135195 8.94393e-21)
(1.27645 -0.135216 0)
(1.28496 -0.135491 0)
(1.29446 -0.136013 -1.05343e-20)
(1.30519 -0.136762 2.20297e-20)
(1.31743 -0.137732 2.32075e-20)
(1.33151 -0.138904 0)
(1.34781 -0.140222 -2.32989e-20)
(1.36681 -0.141582 0)
(1.3889 -0.142817 4.71497e-20)
(1.41407 -0.143748 -1.54619e-20)
(1.44223 -0.143684 -2.00224e-20)
(1.47211 -0.144651 -2.02457e-20)
(0.984295 -0.228144 0)
(0.990242 -0.229275 0)
(0.996265 -0.230246 1.62277e-20)
(1.0023 -0.231037 -6.06851e-20)
(1.00834 -0.23167 7.52089e-20)
(1.01441 -0.232151 -1.40862e-20)
(1.02048 -0.232478 0)
(1.02657 -0.232647 -1.27992e-20)
(1.03265 -0.232655 0)
(1.03874 -0.232503 -2.24698e-20)
(1.04481 -0.23219 1.25561e-21)
(1.05087 -0.231715 2.11604e-20)
(1.0569 -0.231081 0)
(1.06291 -0.230286 -1.75586e-20)
(1.06888 -0.229332 5.08327e-20)
(1.07481 -0.228222 -3.17628e-20)
(1.08069 -0.226958 3.66843e-20)
(1.08652 -0.225542 -7.20989e-21)
(1.09228 -0.223978 6.059e-21)
(1.09798 -0.22227 -5.7754e-21)
(1.10361 -0.220423 -4.74591e-21)
(1.10917 -0.218441 1.41635e-20)
(1.11465 -0.216329 8.14537e-21)
(1.12004 -0.214096 0)
(1.12536 -0.211749 -5.69537e-21)
(1.13058 -0.209295 -1.79382e-21)
(1.1357 -0.206742 7.06901e-21)
(1.14073 -0.204098 -1.84347e-21)
(1.14566 -0.201374 2.01069e-21)
(1.15049 -0.198579 -2.97696e-21)
(1.15522 -0.195724 1.60394e-22)
(1.15985 -0.192821 1.32341e-22)
(1.16438 -0.18988 0)
(1.16882 -0.186922 -3.72582e-22)
(1.17316 -0.18393 -5.66235e-22)
(1.17742 -0.180922 0)
(1.18159 -0.17792 1.04549e-21)
(1.18569 -0.174938 -1.69825e-21)
(1.18971 -0.171989 1.15884e-21)
(1.19368 -0.169088 -6.73917e-22)
(1.19759 -0.166249 -1.24778e-23)
(1.20148 -0.163482 -5.94336e-22)
(1.20534 -0.1608 1.95646e-22)
(1.2092 -0.15822 8.32352e-22)
(1.21308 -0.155756 -1.65631e-23)
(1.21699 -0.153422 5.38818e-21)
(1.22096 -0.151233 0)
(1.22502 -0.149202 3.79976e-21)
(1.2292 -0.147348 8.15468e-23)
(1.23353 -0.145683 -3.85305e-21)
(1.23804 -0.144221 0)
(1.24279 -0.142976 -4.04274e-21)
(1.24782 -0.141964 3.98156e-21)
(1.25322 -0.141204 8.3846e-21)
(1.25905 -0.140713 0)
(1.2654 -0.14051 -1.70316e-20)
(1.27237 -0.14061 1.67758e-20)
(1.2801 -0.14103 -1.70426e-20)
(1.28873 -0.141778 4.08952e-22)
(1.29846 -0.14286 0)
(1.30955 -0.144271 -9.52032e-21)
(1.3223 -0.146017 1.04927e-20)
(1.33713 -0.148079 8.81457e-21)
(1.35445 -0.150404 2.34046e-20)
(1.37465 -0.15288 -3.41973e-20)
(1.39789 -0.155299 2.62133e-20)
(1.42387 -0.157504 -1.35974e-20)
(1.45222 -0.158729 1.25412e-20)
(1.48099 -0.161282 5.66018e-20)
(0.98267 -0.239275 -7.03416e-20)
(0.988847 -0.240375 2.59803e-21)
(0.995129 -0.241303 6.76235e-20)
(1.00144 -0.242041 0)
(1.00779 -0.242612 -1.5053e-20)
(1.01418 -0.243025 0)
(1.02058 -0.243276 2.6739e-20)
(1.027 -0.243361 -1.27362e-21)
(1.03341 -0.243277 -3.75214e-20)
(1.03982 -0.243022 1.15755e-20)
(1.04622 -0.242596 1.09991e-20)
(1.05259 -0.241998 1.02148e-20)
(1.05893 -0.241229 0)
(1.06524 -0.24029 0)
(1.07151 -0.239181 -8.47365e-21)
(1.07773 -0.237906 -7.86907e-21)
(1.08389 -0.236467 1.3734e-20)
(1.08998 -0.234867 -1.3729e-20)
(1.096 -0.23311 -1.19493e-20)
(1.10195 -0.2312 1.02869e-20)
(1.10781 -0.229142 -1.9821e-20)
(1.11359 -0.226943 7.39974e-22)
(1.11927 -0.22461 7.76368e-21)
(1.12485 -0.22215 3.0684e-21)
(1.13033 -0.219571 5.03171e-21)
(1.1357 -0.216882 -5.05212e-21)
(1.14096 -0.214091 -3.10258e-21)
(1.1461 -0.21121 3.11926e-21)
(1.15113 -0.208247 0)
(1.15604 -0.205215 0)
(1.16084 -0.202124 2.01287e-22)
(1.16552 -0.198989 6.23881e-22)
(1.17009 -0.19582 -6.65671e-22)
(1.17454 -0.19264 -1.47367e-21)
(1.17888 -0.189423 1.45609e-21)
(1.18313 -0.186199 0)
(1.18727 -0.18299 -1.05133e-21)
(1.19133 -0.179812 -1.99427e-21)
(1.19529 -0.176678 1.3047e-21)
(1.19919 -0.173605 -3.23611e-23)
(1.20302 -0.170608 -1.2734e-22)
(1.20681 -0.167701 5.97311e-22)
(1.21057 -0.1649 4.38809e-22)
(1.21431 -0.16222 9.01844e-22)
(1.21807 -0.159676 -4.52667e-21)
(1.22184 -0.157286 -1.72244e-23)
(1.22568 -0.155065 0)
(1.22959 -0.153029 -3.80876e-21)
(1.23362 -0.151195 1.15521e-20)
(1.2378 -0.149577 -7.62761e-21)
(1.24218 -0.148194 -3.88527e-21)
(1.2468 -0.147061 6.01199e-23)
(1.25172 -0.146202 -4.0009e-21)
(1.25702 -0.145635 -8.9154e-23)
(1.26278 -0.145385 7.57743e-21)
(1.26909 -0.145475 -7.19062e-21)
(1.27607 -0.14593 -7.63922e-21)
(1.28385 -0.146771 1.5163e-20)
(1.29262 -0.148021 6.51557e-22)
(1.30261 -0.149701 7.84932e-21)
(1.31411 -0.151826 -7.6917e-21)
(1.32749 -0.154405 8.87789e-21)
(1.34316 -0.157425 -1.86974e-20)
(1.3615 -0.16082 -9.56292e-21)
(1.38267 -0.164466 2.04769e-20)
(1.40654 -0.168133 -9.08995e-21)
(1.43253 -0.171702 -3.54334e-20)
(1.46013 -0.174341 -1.7485e-20)
(1.48701 -0.178557 0)
(0.981337 -0.251153 0)
(0.987775 -0.252224 -1.77777e-20)
(0.994314 -0.253107 1.22476e-22)
(1.00089 -0.253785 0)
(1.00751 -0.254285 0)
(1.01418 -0.254614 -1.45991e-20)
(1.02089 -0.254771 4.08611e-20)
(1.02762 -0.254752 -5.24563e-20)
(1.03435 -0.254555 2.55329e-20)
(1.04108 -0.254176 -1.17088e-20)
(1.0478 -0.253615 0)
(1.05449 -0.252872 -1.03306e-20)
(1.06115 -0.251948 9.44282e-21)
(1.06777 -0.250842 0)
(1.07433 -0.249557 0)
(1.08085 -0.248094 -7.12939e-21)
(1.08729 -0.246457 1.24389e-21)
(1.09366 -0.24465 1.3286e-20)
(1.09995 -0.242677 1.12219e-20)
(1.10615 -0.240542 -1.08637e-20)
(1.11226 -0.238253 -4.73392e-21)
(1.11826 -0.235815 -1.53544e-20)
(1.12415 -0.233236 6.01005e-22)
(1.12993 -0.230524 2.16839e-21)
(1.13559 -0.227689 -5.28579e-21)
(1.14112 -0.22474 1.61808e-21)
(1.14652 -0.221686 -3.24915e-21)
(1.1518 -0.21854 0)
(1.15693 -0.215312 0)
(1.16194 -0.212015 0)
(1.16681 -0.208662 -1.25972e-22)
(1.17154 -0.205268 -8.65785e-22)
(1.17614 -0.201845 1.11087e-21)
(1.1806 -0.198414 1.90272e-21)
(1.18495 -0.194953 -1.87617e-21)
(1.18917 -0.191497 0)
(1.19328 -0.188068 1.38141e-21)
(1.19727 -0.184682 -6.88058e-22)
(1.20117 -0.181356 0)
(1.20498 -0.178105 8.12268e-22)
(1.20872 -0.174945 -1.59764e-22)
(1.21239 -0.171894 1.07156e-22)
(1.21603 -0.168966 -4.41585e-22)
(1.21964 -0.166178 0)
(1.22325 -0.163548 -1.90862e-21)
(1.22689 -0.161093 1.88111e-21)
(1.23057 -0.158829 0)
(1.23434 -0.156775 -2.3456e-23)
(1.23822 -0.154948 -4.1416e-23)
(1.24226 -0.153368 3.84221e-21)
(1.2465 -0.152056 0)
(1.251 -0.151031 1.69249e-22)
(1.25581 -0.15032 -3.76258e-21)
(1.26103 -0.149947 -1.05863e-20)
(1.26672 -0.14994 3.59029e-22)
(1.27299 -0.150328 7.24763e-21)
(1.27998 -0.151144 0)
(1.28784 -0.152421 0)
(1.29678 -0.1542 5.79607e-21)
(1.3071 -0.156513 0)
(1.31912 -0.159394 0)
(1.33322 -0.162852 1.11257e-21)
(1.34975 -0.166873 -6.45235e-21)
(1.36885 -0.171364 -1.32294e-20)
(1.39044 -0.176209 1.35257e-20)
(1.41409 -0.181174 5.16548e-21)
(1.43911 -0.186212 1.12832e-20)
(1.465 -0.190397 1.03471e-20)
(1.48911 -0.19651 0)
(0.980142 -0.263808 0)
(0.986922 -0.264855 1.80081e-20)
(0.993791 -0.265695 -5.08833e-20)
(1.00068 -0.266312 1.71039e-20)
(1.00761 -0.266734 0)
(1.01457 -0.266972 4.3578e-20)
(1.02158 -0.267022 -6.98705e-20)
(1.02861 -0.266883 1.44358e-21)
(1.03565 -0.266552 6.20931e-20)
(1.04269 -0.266028 -1.24656e-20)
(1.04971 -0.265309 1.07659e-20)
(1.05672 -0.264397 1.00107e-20)
(1.06369 -0.263291 -2.77196e-20)
(1.07062 -0.261994 3.4882e-20)
(1.07749 -0.260507 -1.67229e-20)
(1.0843 -0.258832 6.52098e-21)
(1.09104 -0.256973 -2.67073e-20)
(1.09769 -0.254933 6.89764e-21)
(1.10425 -0.252718 -4.56991e-21)
(1.11071 -0.250332 5.7457e-21)
(1.11706 -0.247784 1.20078e-21)
(1.12329 -0.24508 2.14131e-20)
(1.1294 -0.242228 2.09121e-21)
(1.13538 -0.239237 -1.10694e-21)
(1.14122 -0.236118 -5.98448e-21)
(1.14692 -0.232882 1.63024e-21)
(1.15247 -0.229539 -1.26966e-21)
(1.15787 -0.226101 1.37291e-21)
(1.16312 -0.222583 0)
(1.16821 -0.218997 -7.5648e-22)
(1.17314 -0.215359 7.61838e-22)
(1.17793 -0.211682 2.68104e-22)
(1.18255 -0.207983 -1.05235e-21)
(1.18703 -0.204278 -1.24255e-21)
(1.19136 -0.200554 4.07643e-21)
(1.19556 -0.196846 -2.64512e-21)
(1.19962 -0.193176 2.40194e-21)
(1.20355 -0.189562 -3.24032e-21)
(1.20736 -0.186022 1.65571e-21)
(1.21108 -0.182572 -4.26602e-22)
(1.21471 -0.17923 0)
(1.21827 -0.176013 4.81495e-22)
(1.22177 -0.172941 -4.74775e-22)
(1.22525 -0.17003 -9.87785e-22)
(1.22872 -0.167299 2.95705e-21)
(1.23221 -0.164766 -1.97904e-21)
(1.23575 -0.16245 -1.95208e-21)
(1.23937 -0.16037 0)
(1.2431 -0.158547 -7.66093e-21)
(1.24701 -0.157002 7.51902e-21)
(1.25112 -0.155757 -3.71864e-21)
(1.2555 -0.154838 3.71177e-21)
(1.26021 -0.154273 3.42241e-21)
(1.26533 -0.154088 6.83364e-21)
(1.27096 -0.154321 6.71807e-21)
(1.27721 -0.155007 0)
(1.28423 -0.156192 -5.29802e-21)
(1.29222 -0.157922 0)
(1.30145 -0.160254 -7.12127e-22)
(1.31222 -0.163232 -5.721e-21)
(1.32486 -0.166898 4.77605e-21)
(1.33966 -0.171248 5.50732e-21)
(1.35676 -0.176266 -3.45895e-21)
(1.37603 -0.181837 8.7666e-22)
(1.39715 -0.187888 -1.48875e-21)
(1.41955 -0.194194 1.8253e-20)
(1.44259 -0.200803 5.00337e-21)
(1.46591 -0.20671 9.32243e-21)
(1.48649 -0.214846 -8.97455e-21)
(0.978958 -0.277283 0)
(0.98615 -0.278306 0)
(0.99342 -0.279104 -3.4161e-20)
(1.0007 -0.27966 5.05319e-20)
(1.00799 -0.280001 1.56857e-20)
(1.01532 -0.280142 0)
(1.02267 -0.280079 0)
(1.03003 -0.27981 -1.30824e-20)
(1.0374 -0.279334 2.3964e-20)
(1.04477 -0.278649 -1.75967e-21)
(1.05211 -0.277755 -5.39189e-20)
(1.05944 -0.276654 1.05846e-20)
(1.06672 -0.275346 -8.68314e-21)
(1.07396 -0.273833 1.76519e-20)
(1.08114 -0.272118 -7.49981e-21)
(1.08825 -0.270204 0)
(1.09527 -0.268094 0)
(1.10221 -0.265794 6.13711e-22)
(1.10904 -0.263307 1.52727e-20)
(1.11576 -0.260641 -4.5587e-21)
(1.12235 -0.257804 3.3844e-21)
(1.12882 -0.254803 -3.33577e-21)
(1.13514 -0.251647 -2.22567e-21)
(1.14132 -0.248346 2.81419e-21)
(1.14734 -0.244913 1.63535e-21)
(1.1532 -0.241358 0)
(1.1589 -0.237694 0)
(1.16442 -0.233935 1.65084e-22)
(1.16978 -0.230095 0)
(1.17495 -0.226189 1.33977e-21)
(1.17995 -0.222234 -1.34888e-21)
(1.18478 -0.218246 -8.53439e-22)
(1.18943 -0.214242 1.05841e-21)
(1.1939 -0.210232 2.78108e-21)
(1.19822 -0.206218 -1.39673e-21)
(1.20238 -0.202231 -1.71453e-21)
(1.20638 -0.198295 1.81407e-21)
(1.21024 -0.19443 0)
(1.21397 -0.190654 0)
(1.21759 -0.186985 5.19343e-22)
(1.22111 -0.183444 0)
(1.22454 -0.180049 0)
(1.22792 -0.176819 -1.57746e-21)
(1.23126 -0.173774 2.09606e-21)
(1.23459 -0.170932 -1.05971e-21)
(1.23794 -0.168312 2.01465e-21)
(1.24133 -0.165936 0)
(1.24481 -0.163822 5.93365e-21)
(1.24841 -0.161994 -2.23837e-23)
(1.25217 -0.160473 0)
(1.25615 -0.159287 -7.21492e-21)
(1.26042 -0.158463 3.17556e-24)
(1.26502 -0.158032 -6.70376e-21)
(1.27006 -0.158027 -2.95198e-21)
(1.27565 -0.158493 -5.57129e-21)
(1.28192 -0.159477 5.47308e-21)
(1.28906 -0.161038 5.32028e-21)
(1.29733 -0.163237 0)
(1.30698 -0.166138 -3.69389e-21)
(1.3183 -0.169788 -5.60183e-22)
(1.3315 -0.174224 0)
(1.34667 -0.179427 0)
(1.36368 -0.185381 3.45196e-21)
(1.3822 -0.191979 0)
(1.40178 -0.199222 0)
(1.42196 -0.206901 -2.04842e-21)
(1.44218 -0.215166 -6.52189e-21)
(1.46216 -0.222887 -2.15923e-21)
(1.47808 -0.232704 0)
(0.977743 -0.291624 0)
(0.985389 -0.29262 0)
(0.993111 -0.293371 0)
(1.00083 -0.293862 1.6682e-20)
(1.00856 -0.294122 1.49516e-20)
(1.01631 -0.294162 -1.64793e-21)
(1.02407 -0.293981 -2.88314e-20)
(1.03183 -0.293576 1.32146e-20)
(1.03958 -0.292945 -1.20796e-20)
(1.04732 -0.292089 -2.27226e-20)
(1.05503 -0.291006 0)
(1.0627 -0.289699 0)
(1.07032 -0.288169 -7.16606e-22)
(1.07789 -0.28642 -2.48603e-20)
(1.08539 -0.284454 2.85854e-20)
(1.09281 -0.282274 -1.46535e-21)
(1.10014 -0.279887 -1.24375e-20)
(1.10736 -0.277296 -5.40355e-21)
(1.11446 -0.274508 -6.05286e-22)
(1.12145 -0.27153 0)
(1.12829 -0.26837 -6.17551e-21)
(1.13499 -0.265038 0)
(1.14153 -0.261544 -3.68574e-21)
(1.14791 -0.257899 3.59374e-21)
(1.15411 -0.254115 -2.33615e-21)
(1.16013 -0.250206 2.1368e-22)
(1.16597 -0.246186 -9.73497e-22)
(1.17162 -0.24207 1.43528e-21)
(1.17707 -0.237874 -1.09883e-21)
(1.18233 -0.233615 0)
(1.18738 -0.229309 -2.43164e-21)
(1.19224 -0.224976 -1.89813e-21)
(1.19691 -0.220635 2.85904e-21)
(1.20138 -0.21629 -3.40609e-21)
(1.20568 -0.211956 1.88913e-21)
(1.20979 -0.207663 -1.86395e-21)
(1.21373 -0.203435 -9.45556e-22)
(1.21752 -0.199294 1.11499e-21)
(1.22116 -0.19526 5.21187e-22)
(1.22467 -0.191354 -1.59566e-21)
(1.22807 -0.187594 -1.44916e-22)
(1.23138 -0.184003 0)
(1.23463 -0.1806 5.36871e-22)
(1.23783 -0.177404 -1.07151e-21)
(1.24101 -0.174436 1.06306e-21)
(1.24421 -0.171715 0)
(1.24746 -0.169264 0)
(1.25078 -0.167103 1.99763e-21)
(1.25424 -0.165256 -3.94752e-21)
(1.25787 -0.163749 -7.40281e-21)
(1.26172 -0.162609 1.41682e-20)
(1.26587 -0.161866 -3.25224e-21)
(1.2704 -0.161558 3.18432e-21)
(1.27541 -0.161726 2.95995e-21)
(1.28103 -0.162424 -4.86359e-21)
(1.28746 -0.163712 4.77679e-21)
(1.2949 -0.165657 0)
(1.30358 -0.168328 -2.67334e-21)
(1.31372 -0.171782 -3.47693e-22)
(1.32546 -0.176059 2.18133e-21)
(1.33882 -0.181182 0)
(1.35363 -0.187132 0)
(1.36959 -0.193916 0)
(1.3863 -0.201477 -2.40805e-21)
(1.4034 -0.209896 -2.48778e-21)
(1.42063 -0.21898 1.01097e-21)
(1.43746 -0.228936 -7.96685e-22)
(1.45359 -0.238185 4.50444e-21)
(1.46273 -0.24964 -1.22447e-21)
(0.976521 -0.306929 0)
(0.98465 -0.307885 3.67547e-20)
(0.992857 -0.308581 -4.53897e-20)
(1.00106 -0.308997 2.42397e-20)
(1.00927 -0.309165 -4.82525e-20)
(1.01749 -0.309096 -1.47256e-20)
(1.02571 -0.308788 -1.37443e-20)
(1.03392 -0.308237 0)
(1.04212 -0.307441 2.40171e-20)
(1.05028 -0.3064 2.181e-20)
(1.05841 -0.305115 -2.13151e-20)
(1.06648 -0.303587 9.0882e-21)
(1.07449 -0.301819 -7.46406e-21)
(1.08243 -0.299813 9.52943e-21)
(1.09029 -0.297574 2.68625e-20)
(1.09805 -0.295105 -1.5389e-21)
(1.1057 -0.292412 -1.50272e-21)
(1.11324 -0.289502 -9.84073e-21)
(1.12064 -0.286382 -4.14514e-21)
(1.1279 -0.28306 -5.56257e-21)
(1.13501 -0.279545 6.31472e-21)
(1.14195 -0.275847 0)
(1.14872 -0.271979 7.83356e-22)
(1.15531 -0.267951 0)
(1.1617 -0.26378 3.37528e-22)
(1.16789 -0.259478 -2.14914e-22)
(1.17387 -0.255062 3.7174e-22)
(1.17964 -0.250549 0)
(1.18519 -0.245957 1.27098e-21)
(1.19052 -0.241305 2.76584e-21)
(1.19563 -0.23661 -2.78324e-21)
(1.20052 -0.231894 1.51757e-21)
(1.20519 -0.227182 -3.94572e-21)
(1.20966 -0.222468 7.89525e-21)
(1.21392 -0.21778 -2.08315e-21)
(1.21798 -0.213151 0)
(1.22185 -0.208604 -1.24223e-21)
(1.22555 -0.204161 1.46834e-22)
(1.22908 -0.199845 1.78324e-21)
(1.23248 -0.195676 -1.50306e-21)
(1.23575 -0.191677 2.86654e-22)
(1.23892 -0.187867 -9.21838e-22)
(1.24202 -0.184269 5.97483e-22)
(1.24507 -0.180903 0)
(1.2481 -0.177791 0)
(1.25114 -0.174953 0)
(1.25422 -0.172412 2.22256e-21)
(1.2574 -0.170191 2.12352e-21)
(1.26072 -0.168313 0)
(1.26422 -0.166805 3.86641e-21)
(1.26798 -0.165698 3.58064e-21)
(1.27207 -0.165028 3.20543e-21)
(1.2766 -0.164839 0)
(1.28171 -0.165182 0)
(1.28755 -0.166118 -4.1903e-21)
(1.29432 -0.167713 4.11286e-21)
(1.30218 -0.170032 0)
(1.31129 -0.173132 2.66259e-21)
(1.3217 -0.177058 -1.87215e-21)
(1.33336 -0.181837 4.69063e-22)
(1.34607 -0.187495 -1.10559e-21)
(1.35953 -0.194044 1.07437e-21)
(1.37341 -0.201543 0)
(1.38742 -0.210013 1.82485e-21)
(1.40136 -0.219594 -1.89392e-21)
(1.4152 -0.230111 1.0454e-20)
(1.42817 -0.241723 1.16765e-20)
(1.43966 -0.252095 -7.02579e-21)
(1.43952 -0.265079 1.25285e-21)
(0.975369 -0.323322 9.90177e-21)
(0.984002 -0.324229 0)
(0.992718 -0.324855 8.94509e-21)
(1.00143 -0.325182 -4.10358e-20)
(1.01015 -0.325243 7.09953e-20)
(1.01887 -0.325049 -1.55174e-20)
(1.0276 -0.324596 1.38487e-20)
(1.03631 -0.323882 -2.44646e-20)
(1.04499 -0.322904 1.24322e-20)
(1.05363 -0.321662 1.09713e-20)
(1.06222 -0.320155 9.49651e-21)
(1.07075 -0.318386 -2.60452e-20)
(1.0792 -0.316358 9.205e-21)
(1.08756 -0.314073 -2.01082e-20)
(1.09582 -0.311536 -4.91702e-21)
(1.10397 -0.308752 1.61282e-21)
(1.11199 -0.305726 1.00232e-20)
(1.11988 -0.302467 0)
(1.12761 -0.298982 0)
(1.13519 -0.295281 1.88361e-21)
(1.14258 -0.291374 2.04091e-21)
(1.1498 -0.287274 1.28934e-21)
(1.15681 -0.282993 -5.57356e-22)
(1.16362 -0.278545 1.18831e-21)
(1.17021 -0.273946 -1.19058e-21)
(1.17658 -0.269212 9.77363e-22)
(1.18271 -0.264361 1.24487e-21)
(1.18861 -0.259411 0)
(1.19426 -0.254382 -1.27317e-21)
(1.19967 -0.249295 -3.62104e-21)
(1.20483 -0.244171 -3.84036e-22)
(1.20975 -0.239032 4.05398e-21)
(1.21442 -0.233906 -2.5381e-21)
(1.21887 -0.228784 0)
(1.22308 -0.223707 1.3675e-21)
(1.22708 -0.218704 -1.39735e-21)
(1.23086 -0.213801 1.23931e-21)
(1.23445 -0.209022 -2.68496e-21)
(1.23787 -0.204391 0)
(1.24113 -0.19993 -3.54504e-22)
(1.24425 -0.195663 3.34464e-22)
(1.24727 -0.191611 -5.14071e-22)
(1.2502 -0.187798 1.93584e-21)
(1.25309 -0.184245 -3.77824e-21)
(1.25595 -0.180973 2.47438e-21)
(1.25883 -0.178005 2.33463e-21)
(1.26178 -0.175362 -2.18721e-21)
(1.26482 -0.173068 4.31374e-21)
(1.26803 -0.171149 -4.16224e-21)
(1.27147 -0.169634 -9.36837e-21)
(1.27522 -0.168559 1.22486e-22)
(1.27939 -0.167967 -3.19674e-21)
(1.28411 -0.167906 0)
(1.28951 -0.168432 0)
(1.29573 -0.169604 -3.58043e-21)
(1.30291 -0.171474 4.72722e-21)
(1.31111 -0.174094 -2.56768e-21)
(1.3203 -0.177501 0)
(1.33036 -0.181733 -6.30592e-22)
(1.34109 -0.186824 -2.29352e-21)
(1.35217 -0.192831 1.56943e-21)
(1.36332 -0.199824 1.32412e-21)
(1.3743 -0.20793 -4.18911e-21)
(1.385 -0.217256 8.30581e-22)
(1.39539 -0.227968 1.44652e-20)
(1.40548 -0.239895 -1.41236e-20)
(1.41394 -0.252967 -7.02097e-21)
(1.41896 -0.264101 0)
(1.40479 -0.278841 0)
(0.97437 -0.340925 -9.95549e-21)
(0.983535 -0.341772 -4.61826e-20)
(0.992789 -0.342316 3.65352e-20)
(1.00204 -0.342539 0)
(1.01129 -0.342476 7.83235e-21)
(1.02055 -0.342139 2.78542e-20)
(1.02981 -0.341523 -2.11574e-20)
(1.03905 -0.340625 2.96034e-20)
(1.04826 -0.339442 -2.34875e-20)
(1.05742 -0.337975 0)
(1.06651 -0.336222 -5.10771e-21)
(1.07553 -0.334186 0)
(1.08446 -0.33187 -6.08612e-21)
(1.09329 -0.329277 2.04705e-20)
(1.102 -0.326412 0)
(1.11058 -0.323281 0)
(1.11902 -0.31989 0)
(1.12729 -0.316248 3.94712e-21)
(1.1354 -0.312363 -5.17549e-21)
(1.14332 -0.308247 -1.89005e-21)
(1.15104 -0.30391 0)
(1.15854 -0.299366 0)
(1.16583 -0.294629 0)
(1.17289 -0.289715 -4.06823e-21)
(1.1797 -0.284642 5.30649e-21)
(1.18626 -0.279428 -3.13781e-21)
(1.19255 -0.274092 -3.0188e-21)
(1.19858 -0.268656 3.70545e-21)
(1.20434 -0.263142 -3.72019e-21)
(1.20983 -0.257573 2.47265e-21)
(1.21504 -0.251973 -4.96639e-21)
(1.21999 -0.246364 2.14152e-21)
(1.22465 -0.240778 5.54058e-21)
(1.22906 -0.235208 3.10199e-21)
(1.23322 -0.229701 -1.35847e-21)
(1.23714 -0.224288 1.38842e-21)
(1.24083 -0.218995 0)
(1.2443 -0.213848 -1.85425e-22)
(1.24758 -0.208873 7.5034e-22)
(1.2507 -0.204094 4.52092e-24)
(1.25367 -0.199537 -3.67248e-22)
(1.25653 -0.195223 8.85381e-22)
(1.2593 -0.191178 -1.43709e-21)
(1.26203 -0.187422 -7.08435e-22)
(1.26475 -0.183978 1.36145e-21)
(1.26751 -0.180868 0)
(1.27035 -0.178115 -4.78568e-21)
(1.27333 -0.175745 -6.58068e-21)
(1.27654 -0.173787 2.47193e-22)
(1.28006 -0.172274 5.92357e-21)
(1.28398 -0.171247 0)
(1.28842 -0.170748 0)
(1.2935 -0.170822 -2.73136e-21)
(1.2993 -0.171512 4.29617e-21)
(1.30588 -0.172858 -2.84412e-22)
(1.31324 -0.174894 -5.64014e-22)
(1.32127 -0.177652 2.65138e-21)
(1.32983 -0.181165 -7.29874e-22)
(1.33867 -0.185482 6.18491e-22)
(1.34751 -0.190671 6.56556e-21)
(1.35609 -0.196843 -1.2364e-22)
(1.36422 -0.204136 -1.73741e-21)
(1.3718 -0.212743 -2.08631e-21)
(1.37888 -0.222845 -1.75171e-20)
(1.38545 -0.234589 1.06103e-20)
(1.3913 -0.247763 1.16555e-20)
(1.39399 -0.261819 -1.70501e-20)
(1.3889 -0.273275 -1.95373e-20)
(1.35571 -0.28614 0)
(0.973577 -0.359877 3.84344e-20)
(0.983317 -0.360654 -1.9908e-20)
(0.993148 -0.361105 0)
(1.00297 -0.36121 8.0374e-21)
(1.0128 -0.361007 0)
(1.02264 -0.360507 -2.00849e-20)
(1.03247 -0.359707 1.39552e-20)
(1.04227 -0.358602 -2.27661e-20)
(1.05204 -0.35719 2.23243e-20)
(1.06175 -0.35547 4.57493e-21)
(1.07138 -0.353443 -2.0508e-20)
(1.08094 -0.35111 1.59969e-20)
(1.09039 -0.348475 0)
(1.09972 -0.34554 1.01692e-20)
(1.10892 -0.342312 -1.84572e-20)
(1.11797 -0.338797 8.29699e-21)
(1.12686 -0.335002 0)
(1.13557 -0.330936 4.38084e-21)
(1.14408 -0.326609 -4.41102e-21)
(1.15238 -0.322033 1.54776e-21)
(1.16045 -0.317221 0)
(1.16829 -0.312187 0)
(1.17588 -0.306947 0)
(1.1832 -0.301519 9.21123e-22)
(1.19025 -0.295922 3.27729e-21)
(1.19702 -0.290176 -3.28296e-21)
(1.20349 -0.284305 1.77159e-21)
(1.20967 -0.278331 0)
(1.21554 -0.27228 5.24955e-21)
(1.22111 -0.266177 -7.73642e-21)
(1.22638 -0.260049 0)
(1.23134 -0.253924 6.25198e-21)
(1.23601 -0.247825 -2.98844e-21)
(1.24039 -0.241764 -3.07351e-21)
(1.24449 -0.235785 1.81524e-21)
(1.24832 -0.229919 0)
(1.25191 -0.224198 0)
(1.25527 -0.218649 1.58674e-21)
(1.25842 -0.2133 0)
(1.2614 -0.208177 -8.22153e-22)
(1.26423 -0.203306 1.90987e-22)
(1.26694 -0.198711 7.7465e-22)
(1.26959 -0.194416 -3.84476e-23)
(1.2722 -0.190444 1.46498e-21)
(1.27483 -0.186819 2.859e-21)
(1.27754 -0.183566 1.28084e-21)
(1.28039 -0.180711 -2.74145e-21)
(1.28346 -0.178282 -2.43897e-21)
(1.28684 -0.176309 -4.21667e-21)
(1.29062 -0.174823 4.14931e-21)
(1.29488 -0.173858 0)
(1.2997 -0.173442 -3.22908e-21)
(1.30512 -0.1736 2.26983e-22)
(1.31112 -0.174354 2.01313e-22)
(1.31763 -0.175723 -3.29888e-21)
(1.32453 -0.177726 0)
(1.33163 -0.180397 -3.05622e-22)
(1.33868 -0.183784 0)
(1.34543 -0.187966 0)
(1.35166 -0.193059 -3.14505e-21)
(1.35717 -0.199227 1.40923e-21)
(1.36189 -0.206676 8.62501e-21)
(1.36586 -0.215651 -1.08879e-20)
(1.36918 -0.22638 1.07184e-20)