/*--------------------------------*- C++ -*----------------------------------*\
| =========                 |                                                 |
| \\      /  F ield         | OpenFOAM: The Open Source CFD Toolbox           |
|  \\    /   O peration     | Version:  2312                                  |
|   \\  /    A nd           | Website:  www.openfoam.com                      |
|    \\/     M anipulation  |                                                 |
\*---------------------------------------------------------------------------*/
FoamFile
{
    version     2.0;
    format      ascii;
    arch        "LSB;label=32;scalar=64";
    class       volScalarField;
    location    "300";
    object      epsilon;
}
// * * * * * * * * * * * * * * * * * * * * * * * * * * * * * * * * * * * * * //

dimensions      [0 2 -3 0 0 0 0];

internalField   nonuniform List<scalar> 
76025
(
0.000252019
0.000251189
0.000250354
0.000249607
0.000248898
0.000248321
0.000247658
0.000247088
0.000246373
0.000245684
0.000244939
0.000244227
0.000243455
0.000242678
0.000241934
0.000241211
0.000240502
0.000239867
0.000239149
0.000238505
0.000237887
0.000237242
0.000236628
0.000236009
0.000235502
0.000234865
0.000234536
0.000233994
0.000233616
0.000233271
0.000232903
0.000232511
0.000232333
0.000232261
0.000232275
0.000232183
0.000232208
0.000232495
0.000232636
0.000232986
0.000233292
0.000233863
0.000234493
0.000235115
0.000235651
0.000236358
0.000236924
0.000237841
0.00023842
0.000239457
0.00024009
0.000241481
0.000242153
0.000243832
0.000244958
0.000247636
0.000249602
0.00025445
0.000257884
0.000266128
0.00027097
0.000282682
0.00029066
0.000309565
0.000322703
0.000353941
0.000376319
0.000432519
0.000474825
0.000254407
0.000253791
0.000253056
0.000252335
0.000251516
0.000250836
0.000250097
0.000249465
0.000248822
0.000248201
0.000247561
0.000246929
0.000246293
0.000245628
0.000245002
0.000244327
0.000243699
0.000243048
0.00024245
0.000241809
0.000241239
0.000240639
0.000240107
0.000239544
0.000239085
0.000238574
0.000238167
0.000237765
0.000237393
0.00023715
0.00023679
0.000236775
0.000236812
0.00023688
0.000236968
0.000237001
0.000237056
0.00023721
0.000237447
0.000237689
0.000238552
0.000239064
0.000239584
0.000240019
0.000239766
0.00023986
0.000240386
0.000241181
0.000241979
0.000243192
0.00024384
0.000245357
0.000246411
0.000248942
0.000250796
0.000255281
0.000258271
0.000265225
0.000269632
0.000279552
0.000286044
0.000300647
0.000310748
0.000333264
0.000350297
0.000388367
0.000421695
0.00049555
0.000574527
0.000256587
0.000256268
0.000255829
0.000255359
0.000254762
0.000254149
0.000253479
0.000252817
0.000252161
0.000251523
0.000250903
0.000250285
0.000249696
0.000249089
0.000248521
0.000247935
0.000247381
0.000246808
0.000246269
0.000245716
0.000245195
0.000244663
0.000244175
0.000243687
0.000243252
0.000242825
0.000242439
0.000242087
0.000241735
0.000241667
0.00024165
0.000241654
0.000241501
0.000241451
0.000241608
0.000241676
0.000242409
0.000242748
0.000243172
0.000242813
0.000243329
0.000243168
0.000243296
0.000243824
0.000244324
0.000245195
0.000245835
0.000247004
0.000247784
0.000249537
0.000250688
0.000253473
0.000255198
0.000259441
0.000261933
0.000267804
0.000271307
0.000279312
0.000284348
0.000295806
0.000303434
0.000320712
0.000332944
0.000360566
0.000382128
0.000431407
0.000475394
0.000573758
0.00067948
0.000259142
0.000258914
0.000258662
0.000258407
0.000258091
0.000257722
0.000257288
0.000256801
0.000256274
0.00025572
0.000255159
0.000254587
0.000254029
0.000253468
0.000252927
0.000252392
0.000251878
0.00025137
0.000250883
0.000250399
0.000249938
0.000249482
0.000249055
0.000248639
0.00024826
0.000247898
0.000247588
0.000247221
0.000247203
0.00024703
0.000247002
0.000246968
0.000247458
0.000247719
0.000247985
0.000247831
0.000247923
0.000248128
0.000248415
0.000248729
0.000249131
0.00024958
0.000250172
0.000250815
0.000251651
0.000252562
0.000253725
0.000255061
0.000256638
0.000258688
0.00026067
0.000263875
0.000266149
0.000270952
0.000273832
0.000280516
0.000284702
0.000294278
0.000300483
0.000314623
0.000324166
0.000345729
0.000361309
0.000396586
0.000425188
0.000491227
0.0005518
0.000685368
0.00083248
0.000262893
0.00026256
0.00026227
0.000262032
0.00026181
0.00026159
0.000261349
0.000261073
0.000260763
0.000260403
0.000260017
0.000259593
0.000259161
0.000258705
0.000258254
0.000257794
0.000257349
0.000256907
0.000256483
0.000256068
0.000255676
0.000255295
0.000254946
0.000254601
0.000254317
0.00025391
0.000253993
0.000253999
0.000253882
0.000253758
0.000254239
0.000254478
0.00025483
0.000254995
0.000255039
0.000254903
0.000255136
0.000255625
0.000256167
0.000256656
0.000257201
0.000257762
0.000258503
0.000259335
0.000260427
0.000261648
0.000263187
0.000264908
0.000266987
0.000269406
0.000272088
0.000275636
0.000278836
0.000284387
0.00028803
0.000296458
0.000301637
0.000313407
0.000321093
0.000338555
0.000350471
0.000377425
0.000397599
0.000443744
0.000482607
0.000573679
0.000657482
0.000838488
0.00104498
0.000268202
0.000267759
0.000267371
0.000267035
0.000266767
0.00026653
0.000266331
0.000266147
0.00026595
0.000265765
0.000265524
0.00026528
0.00026498
0.000264701
0.000264383
0.000264072
0.000263732
0.000263406
0.000263064
0.000262753
0.000262409
0.000262181
0.000261742
0.000261824
0.000261812
0.000261598
0.000261908
0.000261799
0.000261803
0.000261879
0.000261995
0.000262134
0.000262396
0.00026278
0.000263436
0.000264934
0.00026524
0.000265113
0.000265334
0.000265782
0.000266476
0.000267302
0.000268376
0.000269562
0.000271041
0.000272653
0.000274619
0.000276799
0.000279378
0.000282361
0.000285717
0.000289925
0.000294183
0.000300499
0.00030559
0.000315539
0.000321962
0.000336577
0.000346301
0.000368096
0.000383472
0.000418391
0.000445663
0.000508489
0.000562863
0.000691288
0.000806988
0.00105402
0.00133878
0.000275043
0.000274577
0.000274114
0.000273719
0.000273337
0.000273053
0.000272784
0.000272569
0.000272427
0.000272415
0.000272423
0.00027244
0.000272451
0.000272361
0.000272303
0.000272249
0.0002722
0.00027213
0.000272078
0.000272045
0.000272024
0.000271743
0.000271892
0.000271664
0.000271975
0.000271943
0.000271605
0.000271251
0.00027117
0.000271176
0.000271494
0.000271992
0.00027253
0.000273066
0.000273603
0.000274168
0.000274728
0.000275344
0.000276064
0.000276922
0.000277944
0.000279108
0.000280484
0.000282025
0.000283851
0.000285889
0.000288296
0.000291022
0.000294173
0.000297895
0.000302012
0.000307232
0.000312611
0.000320205
0.000327116
0.00033882
0.000347367
0.000365896
0.000378202
0.000406221
0.000426816
0.00047373
0.000511797
0.00059989
0.000677052
0.000858644
0.00101553
0.00135494
0.00171655
0.000283641
0.00028321
0.000282823
0.000282387
0.000282079
0.000281623
0.000281396
0.000281285
0.000281217
0.000281173
0.000281171
0.000280937
0.000280726
0.000281035
0.000281001
0.000281075
0.00028106
0.000281573
0.000281533
0.000281495
0.000281476
0.000281652
0.000281908
0.000282577
0.000282977
0.000283412
0.000282849
0.000283694
0.000283138
0.000283023
0.000283098
0.000283686
0.000284268
0.000285435
0.000286626
0.000287571
0.000288329
0.000289048
0.000289838
0.000290799
0.000291961
0.000293347
0.000294994
0.000296903
0.000299145
0.000301702
0.000304693
0.000308114
0.000312066
0.000316733
0.000321932
0.000328484
0.000335335
0.000344785
0.000353911
0.000368022
0.000380251
0.00040278
0.0004195
0.000457148
0.000485914
0.000550824
0.000606042
0.000731442
0.000841956
0.00109441
0.00130283
0.00176435
0.00217379
0.000294137
0.000293991
0.000293567
0.000293263
0.000292813
0.000292788
0.00029249
0.000292243
0.000292454
0.000292338
0.000292288
0.000292358
0.000292235
0.000292793
0.000293001
0.000293107
0.000293514
0.000293228
0.000293893
0.000293518
0.000293364
0.000293441
0.000293649
0.000293937
0.000294126
0.000294703
0.000295029
0.000295912
0.000296622
0.000297182
0.000297586
0.000298022
0.000298517
0.000299252
0.000300151
0.000301157
0.000302243
0.000303433
0.000304755
0.000306258
0.000307967
0.000309909
0.000312132
0.000314659
0.000317575
0.000320876
0.000324727
0.000329079
0.000334193
0.000340051
0.000346848
0.000354997
0.000364026
0.000375808
0.000387999
0.000405672
0.000423052
0.000450915
0.000477662
0.000525928
0.000570647
0.000660871
0.000746259
0.000918678
0.00108305
0.00141463
0.00169137
0.00229082
0.0027288
0.000307611
0.000307589
0.000307504
0.000307057
0.000306534
0.000306641
0.000306668
0.000306504
0.000306321
0.000306663
0.000306802
0.000306824
0.00030692
0.00030643
0.000306904
0.000306464
0.000306387
0.00030661
0.000306803
0.000307117
0.000307492
0.000308205
0.000308601
0.000309968
0.000310626
0.000312478
0.00031324
0.000312863
0.000313371
0.0003142
0.000315035
0.000315786
0.000316499
0.000317271
0.000318177
0.000319252
0.000320524
0.000322003
0.000323722
0.000325694
0.000327959
0.000330518
0.000333441
0.000336745
0.000340543
0.000344825
0.000349819
0.000355411
0.000362072
0.000369494
0.000378489
0.000388665
0.000400943
0.00041566
0.000432747
0.000455527
0.000480624
0.000518222
0.000559166
0.000624774
0.000699013
0.000819197
0.000959522
0.0011789
0.0014374
0.00182221
0.0022279
0.00292151
0.00340203
0.000324569
0.000324691
0.000324804
0.000324784
0.000324875
0.000324901
0.000324627
0.000324351
0.000325032
0.000325174
0.000325164
0.000326025
0.000326324
0.000326264
0.000326176
0.000327083
0.000326776
0.00032659
0.000326613
0.000327205
0.000327557
0.000329037
0.00032968
0.000330812
0.000330569
0.000330574
0.000330647
0.000330914
0.000331592
0.000332594
0.000333851
0.000335249
0.000336706
0.000338195
0.00033976
0.000341431
0.000343277
0.000345324
0.000347648
0.000350267
0.000353257
0.000356613
0.000360439
0.000364753
0.000369698
0.000375279
0.000381763
0.000389051
0.000397732
0.000407403
0.00041935
0.000432584
0.000449574
0.000468736
0.000493839
0.00052404
0.000562921
0.000615094
0.000678843
0.000774616
0.000884502
0.00106098
0.00125373
0.00155984
0.00189607
0.00236785
0.00292895
0.00363802
0.00435423
0.000345731
0.000345769
0.000346063
0.000346294
0.000345447
0.000345998
0.000345303
0.000345046
0.000345177
0.000345563
0.00034602
0.000346529
0.000347018
0.000347519
0.00034798
0.000348593
0.000349079
0.000349826
0.000350416
0.00035134
0.000352088
0.000354994
0.000356246
0.000357362
0.000356648
0.000356263
0.000356577
0.000357534
0.000359265
0.000362065
0.000366446
0.000368402
0.000367755
0.00036798
0.000369005
0.000370613
0.000372716
0.000375246
0.000378224
0.000381637
0.000385556
0.000389974
0.000395005
0.000400689
0.000407188
0.000414566
0.000423101
0.000432832
0.000444349
0.000457498
0.00047367
0.000492091
0.000515999
0.000543229
0.000580628
0.000623865
0.000685231
0.000759127
0.000862196
0.000994543
0.0011652
0.00140297
0.00167128
0.0020797
0.00248396
0.00310573
0.00375754
0.00455037
0.00561941
0.00037043
0.000370527
0.000371008
0.000371282
0.000372138
0.000372419
0.000374158
0.000374704
0.000375307
0.000374756
0.000374349
0.000374342
0.000374627
0.000375116
0.00037567
0.000376389
0.000377069
0.000377896
0.000378728
0.000379672
0.000380653
0.000381933
0.000383062
0.00038413
0.000385078
0.000386078
0.000387257
0.000388693
0.00039041
0.000392413
0.000394583
0.000396697
0.000398773
0.000401002
0.000403508
0.000406347
0.000409578
0.000413234
0.000417383
0.000422062
0.000427365
0.000433331
0.000440092
0.000447752
0.000456508
0.000466531
0.000478148
0.000491625
0.000507579
0.000526365
0.000549321
0.000576679
0.000611631
0.000653413
0.000709683
0.000776361
0.000870325
0.000980093
0.00113727
0.00131999
0.00157298
0.00187575
0.00225207
0.00275066
0.0032536
0.0040482
0.00473032
0.00581241
0.00704925
0.000402902
0.000403266
0.000403826
0.000404369
0.00040514
0.000405795
0.000406646
0.00040725
0.000407849
0.000408314
0.000408761
0.000409277
0.000409895
0.000410627
0.000411427
0.000412331
0.000413279
0.000414305
0.000415393
0.00041656
0.000417804
0.000419156
0.000420581
0.000422076
0.000423654
0.000425344
0.000427191
0.000429219
0.000431464
0.000433918
0.000436578
0.000439449
0.000442558
0.000445956
0.000449701
0.000453847
0.000458461
0.00046361
0.000469382
0.000475858
0.000483169
0.000491414
0.000500773
0.000511448
0.000523736
0.000537961
0.000554624
0.000574276
0.000597781
0.000626096
0.000660777
0.000703332
0.000756855
0.000822966
0.000908604
0.00101288
0.00115224
0.00131577
0.0015405
0.00179159
0.00214119
0.00251832
0.00302843
0.00359778
0.00426772
0.00518033
0.00598235
0.0074394
0.00882118
0.000446394
0.000447014
0.000447693
0.000448433
0.000449263
0.000450114
0.000451009
0.000451891
0.000452775
0.000453669
0.000454594
0.00045557
0.000456612
0.000457733
0.000458928
0.000460207
0.000461563
0.000463003
0.000464531
0.000466157
0.00046789
0.000469743
0.000471724
0.000473847
0.000476121
0.000478574
0.000481222
0.000484106
0.000487233
0.000490628
0.000494318
0.000498341
0.000502737
0.000507563
0.000512882
0.000518764
0.0005253
0.000532593
0.000540776
0.000549987
0.000560439
0.000572323
0.000585938
0.000601645
0.000619944
0.000641414
0.000666894
0.000697334
0.000734116
0.000778828
0.000833674
0.000901216
0.000984965
0.00108843
0.0012178
0.00137556
0.0015752
0.00181033
0.00211452
0.0024529
0.00290548
0.00337638
0.00402576
0.00467807
0.00556133
0.00655575
0.00766104
0.00951442
0.011211
0.000505265
0.000506209
0.00050717
0.000508206
0.000509309
0.000510463
0.000511669
0.000512925
0.00051423
0.00051559
0.000517014
0.000518511
0.00052009
0.00052176
0.000523526
0.000525396
0.000527375
0.000529472
0.000531696
0.000534058
0.000536574
0.000539257
0.000542128
0.000545202
0.000548508
0.000552062
0.000555911
0.000560063
0.000564552
0.000569426
0.000574733
0.000580536
0.0005869
0.000593912
0.000601672
0.000610295
0.00061993
0.000630755
0.000642988
0.000656895
0.000672812
0.000691138
0.000712368
0.000737137
0.000766277
0.000800754
0.000841896
0.000891171
0.000950623
0.00102247
0.00110969
0.00121554
0.00134421
0.00150003
0.0016891
0.0019156
0.00219062
0.00251192
0.00290725
0.00334774
0.0039101
0.00449456
0.0052861
0.00606283
0.00717843
0.00831986
0.00995051
0.012229
0.0148118
0.000587006
0.000588426
0.000589863
0.000591393
0.000593001
0.000594677
0.000596429
0.000598263
0.000600186
0.000602202
0.000604319
0.000606546
0.000608893
0.000611369
0.000613985
0.000616752
0.000619683
0.000622791
0.000626093
0.000629606
0.000633352
0.000637354
0.000641639
0.000646241
0.000651191
0.000656535
0.000662295
0.000668526
0.000675292
0.00068267
0.000690746
0.000699625
0.000709431
0.000720314
0.000732448
0.000746048
0.000761374
0.000778747
0.000798542
0.000821236
0.000847372
0.000877668
0.000912906
0.000954082
0.00100245
0.00105943
0.00112687
0.00120674
0.00130166
0.00141438
0.00154837
0.00170743
0.00189599
0.00211894
0.00238207
0.00269073
0.00305374
0.0034733
0.00396965
0.00452615
0.00520664
0.00592697
0.00688108
0.00783771
0.00924478
0.0107299
0.0131207
0.0161296
0.0207039
0.000703286
0.000705458
0.000707665
0.000710005
0.000712458
0.000715017
0.000717692
0.000720496
0.000723441
0.000726538
0.000729796
0.00073323
0.000736855
0.000740687
0.000744744
0.000749046
0.000753616
0.00075848
0.000763664
0.000769204
0.000775133
0.000781497
0.00078834
0.000795723
0.000803678
0.000812283
0.000821622
0.000831795
0.000842921
0.000855136
0.000868602
0.000883507
0.000900077
0.000918577
0.000939312
0.000962652
0.000989035
0.00101898
0.00105308
0.00109207
0.00113678
0.00118819
0.00124749
0.00131597
0.00139527
0.00148714
0.00159391
0.00171784
0.00186196
0.00202944
0.00222378
0.00244965
0.00271058
0.00301335
0.0033613
0.00376364
0.00422368
0.00475356
0.00535836
0.00605206
0.00685671
0.00776673
0.00891453
0.0101746
0.0120454
0.0141945
0.0177879
0.0225848
0.0321795
0.000877922
0.000881479
0.000885104
0.00088893
0.000892934
0.000897112
0.000901483
0.000906072
0.000910898
0.000915984
0.000921353
0.000927032
0.00093305
0.00093944
0.000946239
0.000953487
0.000961232
0.000969523
0.00097842
0.000987983
0.000998288
0.00100938
0.00102137
0.00103434
0.00104842
0.00106375
0.00108048
0.00109879
0.00111888
0.00114099
0.00116538
0.00119235
0.00122226
0.00125551
0.00129256
0.00133393
0.00138024
0.0014322
0.0014906
0.00155639
0.00163062
0.00171452
0.00180953
0.00191721
0.0020395
0.00217832
0.0023364
0.00251614
0.00272087
0.00295428
0.00321915
0.00352238
0.00386411
0.00425683
0.00469658
0.00520305
0.00576746
0.00642182
0.0071476
0.0080108
0.00896465
0.0101805
0.0115811
0.0134861
0.0160709
0.0196176
0.0256659
0.0359986
0.0594901
0.00115054
0.00115699
0.00116364
0.00117069
0.00117811
0.00118592
0.00119415
0.00120285
0.00121206
0.00122183
0.0012322
0.00124322
0.00125495
0.00126745
0.00128078
0.00129503
0.00131024
0.00132648
0.00134387
0.00136251
0.00138252
0.00140404
0.00142721
0.0014522
0.00147917
0.00150835
0.00153995
0.00157421
0.00161143
0.0016519
0.00169599
0.00174408
0.00179663
0.00185412
0.00191712
0.00198628
0.00206235
0.00214617
0.00223869
0.00234102
0.00245439
0.00258024
0.00272021
0.00287605
0.00305002
0.00324411
0.00346148
0.00370452
0.00397694
0.00428316
0.00462428
0.00501213
0.00543889
0.00593036
0.00646694
0.00708876
0.00777092
0.00856859
0.00945809
0.0105371
0.0117736
0.0134566
0.0154132
0.0185247
0.0225292
0.0295772
0.0427318
0.0673458
0.12348
0.00165578
0.00167011
0.00168484
0.00170022
0.00171625
0.00173293
0.00175034
0.00176852
0.00178753
0.00180747
0.00182839
0.00185039
0.00187354
0.00189792
0.00192366
0.0019508
0.00197968
0.00201039
0.00204305
0.00207778
0.00211472
0.00215401
0.00219584
0.00224038
0.00228785
0.00233847
0.0023925
0.00245024
0.00251199
0.00257813
0.00264904
0.0027252
0.0028071
0.00289533
0.00299054
0.00309348
0.00320499
0.00332605
0.00345775
0.00360134
0.00375824
0.00393006
0.00411862
0.00432594
0.00455449
0.00480648
0.00508557
0.00539398
0.00573635
0.00611765
0.00653706
0.00701488
0.00752841
0.00813015
0.00877257
0.00952619
0.0103708
0.0113429
0.01254
0.0139208
0.0158471
0.0181957
0.0217516
0.0269601
0.0356161
0.0527247
0.0839587
0.144985
0.202719
0.00267922
0.00270728
0.00273596
0.00276559
0.0027961
0.00282753
0.0028599
0.00289371
0.00292896
0.00296571
0.00300399
0.00304387
0.00308541
0.00312869
0.00317382
0.00322089
0.00326985
0.00332084
0.00337403
0.0034296
0.00348772
0.0035486
0.00361244
0.00367948
0.00374997
0.00382419
0.00390243
0.00398505
0.0040724
0.0041649
0.00426301
0.00436724
0.00447817
0.00459643
0.00472278
0.00485808
0.00500329
0.0051595
0.00532794
0.00551004
0.00570737
0.00592179
0.0061553
0.00641035
0.00668964
0.00699594
0.0073338
0.00770483
0.00811673
0.00857212
0.0090733
0.00964797
0.010254
0.0109931
0.0117683
0.0127026
0.0138523
0.0150804
0.0169897
0.0188737
0.0224249
0.0261205
0.0342036
0.0449737
0.0694137
0.10985
0.181049
0.226788
0.240686
0.00471029
0.00475754
0.00480541
0.00485426
0.00490397
0.00495453
0.00500603
0.00505815
0.00511106
0.00516493
0.00521988
0.00527604
0.00533355
0.00539256
0.00545323
0.00551571
0.00558013
0.00564664
0.0057154
0.00578659
0.00586042
0.0059371
0.00601687
0.00610001
0.0061868
0.00627756
0.00637264
0.00647243
0.00657735
0.00668788
0.00680451
0.00692784
0.00705851
0.00719729
0.00734497
0.00750246
0.00767078
0.00785114
0.00804497
0.0082539
0.00847989
0.00872526
0.00899249
0.009285
0.00960597
0.00995978
0.0103517
0.0107824
0.011268
0.0117977
0.0123999
0.0130848
0.0138209
0.0147839
0.0157806
0.0171157
0.0189066
0.0207028
0.0241758
0.0274314
0.0347948
0.043997
0.0641111
0.0941717
0.15532
0.223043
0.253402
0.256102
0.245242
0.0084416
0.00849658
0.00855132
0.00860644
0.00866179
0.00871734
0.00877318
0.0088293
0.00888597
0.00894347
0.00900153
0.00906006
0.00911939
0.00918
0.00924184
0.009305
0.00936961
0.00943584
0.00950391
0.009574
0.00964628
0.00972101
0.00979864
0.00987928
0.00996347
0.0100516
0.0101439
0.0102408
0.0103431
0.0104513
0.0105658
0.0106871
0.0108161
0.0109537
0.0111008
0.0112585
0.0114283
0.0116117
0.0118108
0.0120278
0.0122658
0.0125277
0.012818
0.0131405
0.0134997
0.0139023
0.0143526
0.0148536
0.0154381
0.0160573
0.0168441
0.0176997
0.0187705
0.0202339
0.0217454
0.0242513
0.0271868
0.0309143
0.038009
0.0469583
0.0655781
0.0938277
0.144405
0.220739
0.262739
0.274631
0.269561
0.243626
0.188184
0.0143919
0.0144335
0.0144737
0.014513
0.0145529
0.0145912
0.0146285
0.0146662
0.0147041
0.0147408
0.0147778
0.0148144
0.0148511
0.0148872
0.0149253
0.0149633
0.0150029
0.0150437
0.0150876
0.0151329
0.0151782
0.0152253
0.0152777
0.0153302
0.0153892
0.0154524
0.0155177
0.0155872
0.0156641
0.0157521
0.0158426
0.0159412
0.0160494
0.0161675
0.016296
0.0164357
0.0165888
0.0167579
0.016947
0.0171596
0.0174025
0.0176775
0.0179966
0.018358
0.0187771
0.0192576
0.0198076
0.0204565
0.02123
0.0220739
0.0233709
0.0247005
0.0268618
0.0294643
0.0325529
0.0383209
0.043862
0.0556464
0.0744713
0.10388
0.154044
0.2279
0.274974
0.292419
0.290743
0.270844
0.219102
0.155466
0.10462
0.0233653
0.0233847
0.0233701
0.0233668
0.0233931
0.0233774
0.02337
0.0234031
0.0234091
0.0233773
0.0234043
0.0234083
0.0234039
0.0233611
0.0233768
0.0233447
0.0233366
0.023329
0.023367
0.0233717
0.0233318
0.0233124
0.023349
0.0233058
0.0233641
0.0233805
0.0233394
0.0233116
0.0233364
0.0234275
0.023413
0.0234346
0.0234686
0.0235132
0.0235711
0.0236478
0.0237514
0.0238895
0.0240713
0.0243025
0.0245962
0.0249474
0.02539
0.0258867
0.0265249
0.027229
0.0281284
0.0292291
0.0304645
0.0323256
0.0351662
0.0383681
0.0437322
0.0495659
0.0591597
0.0737095
0.0907536
0.132214
0.18517
0.25344
0.292957
0.312095
0.309467
0.287328
0.232204
0.166041
0.112606
0.0754778
0.0523626
0.0357572
0.035744
0.0357247
0.0357004
0.0356737
0.0356448
0.0356142
0.0355811
0.0355483
0.0355127
0.0354786
0.0354432
0.0354068
0.0353687
0.0353317
0.0352938
0.0352574
0.0352225
0.0351907
0.0351591
0.0351271
0.0350982
0.0350739
0.0350504
0.0350341
0.0350205
0.0349949
0.0348753
0.0349145
0.0348243
0.0349497
0.0349399
0.034977
0.0350559
0.0351863
0.0353708
0.0356245
0.0359485
0.0363567
0.0368525
0.0374478
0.0381428
0.0389923
0.0399145
0.0412041
0.0424295
0.0445991
0.0464342
0.0501525
0.0577352
0.0664027
0.0771019
0.0916245
0.109494
0.139079
0.172781
0.233573
0.278031
0.307856
0.325818
0.317417
0.280705
0.212801
0.149809
0.103756
0.0720495
0.0503338
0.0367142
0.0290296
0.0635579
0.0635438
0.063524
0.0633585
0.0632412
0.0633035
0.0633029
0.0631468
0.0632021
0.0632054
0.0631935
0.0631665
0.0631157
0.0630655
0.0630009
0.0629169
0.0628213
0.0627144
0.0626002
0.0624731
0.062338
0.0621945
0.0620312
0.0618474
0.0616448
0.0614254
0.0611886
0.0609342
0.0606753
0.0604904
0.0602147
0.0604415
0.0604307
0.060551
0.0608554
0.0613142
0.06201
0.0628851
0.0640319
0.0654595
0.0671475
0.0693905
0.0717912
0.0752845
0.0787584
0.0841698
0.0895566
0.0977138
0.106517
0.114309
0.1258
0.140995
0.163024
0.191137
0.2305
0.271968
0.305194
0.303171
0.272504
0.203712
0.142595
0.103709
0.0762334
0.0555414
0.0410457
0.0310054
0.0249542
0.0216172
0.020222
0.199657
0.199662
0.201273
0.200833
0.202388
0.202497
0.203103
0.203313
0.20486
0.205322
0.205847
0.206181
0.205617
0.206793
0.207046
0.206706
0.206735
0.206687
0.20699
0.20677
0.206864
0.207123
0.206346
0.205286
0.204241
0.203191
0.202095
0.200946
0.199726
0.19844
0.19709
0.195652
0.194126
0.192475
0.190692
0.188721
0.186552
0.184106
0.181373
0.178247
0.174719
0.170644
0.166016
0.16064
0.154483
0.147367
0.13916
0.129654
0.118684
0.106118
0.0920778
0.0767764
0.0612919
0.0482057
0.0460126
0.0568011
0.0678158
0.0698208
0.0649361
0.0554841
0.0458969
0.0381589
0.0337712
0.0290253
0.0268019
0.0245495
0.0237172
0.023417
0.0235515
0.000254753
0.000255197
0.000255614
0.000255947
0.000256434
0.000256821
0.000257367
0.000258
0.000258625
0.000259264
0.00025979
0.000260498
0.000262094
0.000263032
0.000263548
0.000263777
0.000264436
0.000264667
0.000264746
0.000264841
0.000265044
0.000265416
0.000265616
0.000266234
0.000266852
0.000267257
0.000267978
0.000268231
0.000268066
0.000268139
0.00026894
0.000269882
0.000270448
0.000269507
0.000268947
0.000268298
0.000268146
0.000267596
0.000266983
0.000266529
0.00026581
0.000265452
0.000265093
0.000263683
0.000262761
0.000261737
0.000260506
0.000259419
0.000258151
0.000257212
0.000256735
0.0002563
0.000255938
0.000255619
0.000255117
0.000254665
0.000254105
0.000253428
0.000252751
0.000256513
0.000256844
0.00025714
0.000257489
0.000257877
0.000258265
0.000258754
0.00025927
0.000259875
0.000260573
0.000261362
0.000262638
0.000263487
0.000263934
0.000264151
0.000264466
0.000264986
0.000265122
0.000265165
0.000265307
0.000265671
0.000266116
0.000266157
0.000266914
0.000267448
0.000267754
0.000268462
0.000268723
0.000268517
0.000268562
0.000269392
0.000270306
0.000271137
0.000270195
0.000269564
0.000268904
0.000268695
0.000268341
0.000267652
0.000267349
0.000266563
0.000266167
0.000265858
0.000265127
0.000264039
0.00026322
0.000262134
0.000261058
0.000260178
0.000258884
0.000257966
0.000257377
0.000256897
0.000256523
0.000256227
0.000255917
0.000255624
0.000255263
0.000254886
0.000258654
0.000258924
0.000259206
0.000259559
0.000259935
0.00026039
0.000260925
0.000261541
0.000262263
0.000263046
0.00026385
0.000264558
0.000264906
0.000265142
0.000265417
0.00026586
0.000266067
0.000266074
0.0002661
0.000266424
0.000266954
0.000267187
0.000267424
0.000268178
0.000268502
0.00026892
0.000269577
0.000269861
0.000269603
0.000269629
0.000270486
0.000271351
0.000272028
0.000271442
0.000270848
0.000270191
0.000269899
0.000269615
0.000269047
0.000268618
0.00026799
0.000267466
0.000267218
0.000266816
0.000265982
0.00026519
0.000264326
0.000263301
0.000262488
0.000261555
0.00026051
0.000259614
0.000258894
0.000258319
0.000257899
0.000257543
0.000257283
0.000257025
0.000256819
0.000261492
0.000261777
0.000262093
0.000262494
0.000262942
0.000263483
0.00026408
0.00026473
0.000265382
0.000265976
0.000266457
0.000266777
0.000266994
0.000267271
0.00026755
0.000267762
0.000267854
0.000267871
0.000267872
0.000268549
0.000268945
0.000269171
0.000269474
0.000270097
0.000270376
0.000270841
0.000271443
0.000271741
0.000271449
0.000271471
0.000272335
0.000273153
0.000273816
0.000273448
0.000272856
0.000272217
0.000271899
0.000271637
0.000271165
0.000270763
0.000270151
0.000269544
0.000269248
0.000268995
0.000268549
0.000267846
0.000267144
0.000266275
0.000265466
0.000264692
0.000263864
0.000263017
0.000262234
0.000261515
0.000260912
0.000260384
0.00025998
0.000259618
0.00025936
0.00026551
0.000265883
0.000266286
0.000266761
0.000267257
0.000267771
0.000268249
0.000268681
0.000269051
0.000269348
0.000269592
0.000269792
0.00026998
0.00027019
0.000270307
0.000270407
0.000270416
0.000270346
0.000270782
0.000271372
0.000271698
0.000271946
0.00027234
0.000272757
0.00027302
0.000273549
0.000274079
0.000274382
0.000274068
0.000274095
0.000274953
0.000275726
0.000276392
0.000276175
0.000275698
0.000275047
0.000274685
0.000274441
0.000274073
0.000273717
0.000273259
0.000272564
0.000272128
0.000271896
0.000271623
0.000271207
0.000270672
0.000270013
0.000269309
0.00026861
0.000267913
0.000267193
0.000266491
0.000265801
0.000265173
0.000264574
0.000264072
0.000263591
0.000263223
0.000271145
0.000271453
0.000271732
0.000272042
0.000272203
0.000272489
0.000272624
0.000272967
0.000273064
0.000273359
0.00027341
0.000273644
0.000273661
0.000273774
0.000273842
0.00027393
0.000273906
0.000274242
0.000274794
0.000275207
0.000275505
0.000275781
0.000276087
0.000276374
0.000276657
0.000277254
0.000277716
0.000278022
0.00027769
0.000277728
0.000278579
0.00027931
0.000279987
0.000279874
0.000279531
0.000278919
0.000278547
0.000278304
0.000277999
0.00027765
0.000277275
0.000276735
0.000276174
0.000275876
0.000275676
0.000275428
0.000275089
0.000274612
0.000274061
0.0002735
0.000272943
0.000272363
0.000271782
0.000271183
0.000270614
0.000270037
0.000269532
0.000269013
0.000268598
0.000277271
0.000277297
0.000277654
0.000277697
0.000277841
0.000277978
0.000278073
0.000278074
0.000278164
0.000278379
0.000278351
0.000278454
0.000278534
0.000278623
0.000278758
0.000278792
0.000279088
0.000279482
0.000279869
0.000280161
0.000280402
0.000280631
0.000280863
0.000281126
0.000281481
0.000282059
0.000282466
0.000282775
0.000282432
0.000282483
0.00028333
0.000284024
0.000284716
0.000284697
0.000284447
0.000284009
0.000283542
0.000283326
0.000283127
0.000282873
0.000282565
0.000282143
0.00028156
0.000281093
0.000280878
0.000280771
0.000280643
0.000280396
0.000280004
0.000279483
0.000278994
0.000278531
0.0002781
0.000277651
0.000277222
0.000276747
0.000276321
0.000275833
0.000275442
0.000284216
0.000284434
0.000284265
0.000284287
0.000284339
0.000284422
0.00028447
0.000284657
0.000284603
0.00028464
0.000284721
0.000284802
0.000284892
0.000284946
0.000285118
0.00028538
0.000285601
0.000285961
0.000286241
0.000286505
0.000286721
0.00028691
0.000287086
0.000287384
0.000287808
0.00028832
0.000288707
0.00028902
0.000288671
0.000288733
0.000289587
0.000290246
0.000290951
0.00029103
0.000290876
0.00029055
0.00029017
0.00028991
0.000289767
0.000289592
0.000289364
0.000289108
0.000288714
0.000288195
0.000287711
0.000287747
0.000287735
0.000287686
0.000287589
0.000287367
0.000286952
0.000286429
0.000285957
0.000285518
0.000285174
0.000284819
0.00028455
0.000284193
0.000283919
0.000293474
0.000293506
0.000293516
0.000293531
0.000293383
0.000293456
0.000293311
0.000293265
0.00029315
0.000293214
0.000293378
0.000293277
0.000293347
0.000293519
0.000293554
0.000293736
0.000293967
0.000294257
0.00029451
0.000294706
0.000294842
0.000294948
0.000295071
0.000295348
0.000295796
0.000296284
0.000296658
0.000296959
0.000296608
0.000296685
0.000297547
0.000298182
0.000298896
0.000299086
0.000299019
0.000298825
0.000298551
0.000298358
0.000298224
0.000298138
0.00029808
0.00029788
0.000297643
0.000297317
0.000296883
0.000296516
0.000296609
0.000296678
0.00029664
0.000296551
0.000296699
0.000296643
0.000296424
0.000295992
0.000295498
0.000294998
0.000294619
0.000294224
0.000294195
0.000304198
0.000304328
0.000304119
0.000303935
0.000303919
0.000303926
0.000303907
0.000303966
0.000304111
0.000303955
0.000303878
0.000303929
0.000304092
0.000304046
0.000304091
0.000304274
0.000304516
0.000304758
0.000304898
0.000304992
0.00030506
0.000305149
0.000305303
0.000305586
0.000306046
0.000306544
0.000306921
0.00030721
0.000306861
0.000306957
0.000307828
0.000308454
0.000309177
0.000309474
0.000309543
0.000309416
0.000309296
0.000309148