/*--------------------------------*- C++ -*----------------------------------*\
| =========                 |                                                 |
| \\      /  F ield         | OpenFOAM: The Open Source CFD Toolbox           |
|  \\    /   O peration     | Version:  2312                                  |
|   \\  /    A nd           | Website:  www.openfoam.com                      |
|    \\/     M anipulation  |                                                 |
\*---------------------------------------------------------------------------*/
FoamFile
{
    version     2.0;
    format      ascii;
    arch        "LSB;label=32;scalar=64";
    class       volScalarField;
    location    "300";
    object      k;
}
// * * * * * * * * * * * * * * * * * * * * * * * * * * * * * * * * * * * * * //

dimensions      [0 2 -2 0 0 0 0];

internalField   nonuniform List<scalar> 
76025
(
0.00192726
0.00192407
0.00192076
0.00191805
0.00191517
0.00191329
0.00191079
0.00190861
0.00190595
0.00190364
0.00190105
0.00189857
0.00189597
0.00189318
0.00189075
0.00188798
0.00188522
0.00188293
0.0018803
0.00187817
0.00187614
0.00187425
0.00187228
0.00187073
0.00186943
0.00186787
0.00186773
0.00186707
0.00186652
0.00186699
0.00186669
0.00186653
0.00186787
0.00186835
0.00186972
0.00187087
0.00187249
0.00187578
0.00187848
0.00188184
0.00188506
0.00188944
0.00189469
0.00189976
0.00190476
0.00191029
0.00191556
0.00192125
0.00192661
0.00193301
0.00193885
0.00194779
0.00195582
0.00196773
0.00198127
0.00199768
0.00201955
0.00204155
0.00207978
0.00210898
0.00216553
0.00220407
0.00228507
0.00236326
0.00246197
0.00262093
0.00274893
0.0030434
0.00326457
0.00194179
0.00193967
0.00193701
0.00193442
0.00193131
0.00192885
0.00192611
0.00192379
0.00192144
0.0019192
0.00191696
0.00191476
0.00191262
0.00191035
0.00190834
0.00190607
0.00190396
0.00190182
0.00189985
0.00189785
0.00189608
0.00189444
0.00189292
0.0018917
0.00189049
0.00188979
0.00188931
0.0018891
0.00188916
0.00188955
0.00189068
0.0018916
0.00189279
0.00189392
0.00189524
0.00189686
0.00189871
0.00190092
0.00190334
0.00190602
0.00190917
0.00191266
0.00191642
0.00192035
0.00192468
0.00192945
0.00193464
0.00194032
0.00194699
0.00195485
0.00196407
0.00197549
0.00198843
0.00200517
0.00202318
0.00204758
0.00207349
0.00210706
0.00214557
0.00218884
0.00224934
0.00230502
0.00240295
0.00248219
0.0026286
0.00278037
0.00299304
0.00333622
0.00372048
0.00195616
0.0019552
0.00195381
0.00195234
0.00195034
0.00194828
0.00194598
0.00194369
0.00194145
0.00193925
0.00193715
0.00193506
0.00193311
0.00193112
0.00192932
0.00192751
0.00192581
0.00192412
0.00192254
0.00192099
0.0019196
0.0019182
0.0019171
0.00191562
0.00191588
0.00191596
0.00191623
0.00191652
0.00191752
0.00191727
0.0019176
0.0019182
0.0019191
0.00192031
0.0019218
0.00192364
0.0019258
0.00192832
0.00193117
0.0019344
0.00193804
0.00194208
0.00194651
0.00195142
0.00195691
0.00196317
0.00197018
0.00197838
0.00198761
0.00199871
0.00201096
0.00202599
0.00204241
0.00206276
0.00208509
0.00211269
0.00214396
0.00218101
0.00222638
0.00227685
0.00234453
0.002416
0.00251921
0.00262783
0.00279382
0.00298785
0.00326923
0.00368942
0.00418912
0.00197381
0.00197303
0.00197223
0.00197149
0.00197058
0.0019695
0.00196823
0.00196675
0.00196516
0.00196347
0.00196178
0.00196007
0.00195842
0.00195675
0.00195515
0.00195361
0.00195216
0.00195079
0.00194951
0.00194841
0.00194683
0.00194708
0.00194713
0.0019467
0.00194611
0.00194756
0.0019472
0.00194686
0.00194709
0.00194802
0.00194895
0.00195239
0.00195416
0.0019553
0.00195648
0.00195798
0.00195998
0.00196253
0.00196566
0.00196936
0.00197364
0.00197855
0.00198403
0.00199022
0.00199714
0.002005
0.00201389
0.002024
0.00203557
0.00204877
0.00206397
0.00208146
0.00210156
0.00212523
0.00215201
0.00218472
0.00222123
0.00226662
0.00231887
0.0023813
0.0024606
0.00254774
0.00267427
0.00280763
0.0030224
0.00326257
0.00365192
0.00414945
0.00483369
0.00199768
0.00199654
0.00199565
0.00199495
0.00199431
0.00199366
0.00199292
0.00199214
0.00199126
0.00199026
0.00198911
0.0019878
0.00198671
0.00198563
0.00198456
0.00198344
0.00198246
0.00198153
0.00198035
0.00198092
0.00198103
0.00198008
0.00198146
0.0019813
0.00198297
0.00198368
0.00198296
0.00198272
0.0019833
0.00198444
0.00198585
0.00198787
0.00198992
0.00199203
0.00199431
0.00199695
0.00199997
0.00200348
0.00200755
0.00201227
0.00201763
0.00202375
0.00203049
0.00203817
0.00204661
0.00205632
0.00206706
0.00207949
0.00209337
0.00210947
0.00212764
0.00214871
0.00217288
0.00220089
0.00223354
0.00227166
0.00231629
0.00236966
0.00243187
0.00250858
0.00259969
0.00271424
0.00285962
0.00304455
0.00330372
0.00363542
0.00412708
0.00475026
0.00558296
0.00202857
0.00202714
0.00202552
0.00202537
0.00202495
0.00202465
0.00202533
0.00202544
0.00202535
0.00202483
0.00202528
0.00202529
0.0020239
0.00202395
0.00202394
0.00202395
0.00202366
0.00202361
0.00202362
0.00202284
0.00202455
0.00202382
0.0020226
0.0020218
0.00202159
0.00202244
0.00202341
0.00202564
0.00202793
0.00203001
0.00203197
0.00203401
0.00203627
0.00203881
0.00204169
0.00204507
0.00204909
0.00205369
0.0020589
0.00206471
0.00207123
0.00207851
0.0020866
0.00209571
0.00210589
0.00211743
0.00213043
0.00214522
0.00216199
0.00218115
0.00220307
0.00222819
0.00225726
0.00229077
0.00232998
0.00237547
0.00242949
0.00249284
0.00256936
0.00266139
0.00277588
0.00291892
0.00310559
0.00335034
0.00368506
0.00412847
0.00474417
0.00549581
0.0064891
0.00206766
0.00206622
0.00206508
0.00206329
0.00206355
0.00206345
0.00206297
0.00206432
0.00206481
0.00206521
0.00206542
0.00206535
0.00206517
0.00206733
0.00206733
0.00206743
0.00206994
0.00207073
0.00206892
0.00206924
0.00206887
0.00206935
0.00207143
0.00207578
0.00207537
0.00207508
0.00207576
0.00207675
0.00207991
0.00208401
0.00208781
0.002091
0.00209394
0.002097
0.00210062
0.00210511
0.00211058
0.00211643
0.00212237
0.00212879
0.00213601
0.00214421
0.00215351
0.00216412
0.00217617
0.00218992
0.0022055
0.0022233
0.00224352
0.00226663
0.00229312
0.00232339
0.0023586
0.00239886
0.00244638
0.00250125
0.00256683
0.00264434
0.00273856
0.00285443
0.00299929
0.00318695
0.00343024
0.00375999
0.00419025
0.00477373
0.00550329
0.00641276
0.00751811
0.00211511
0.00211372
0.00211218
0.00211235
0.0021125
0.00211256
0.0021128
0.00211252
0.00211284
0.00211313
0.0021137
0.00211611
0.00211622
0.00211713
0.00211747
0.00211884
0.00212047
0.00212262
0.00212417
0.00212637
0.00213134
0.00213028
0.00212963
0.00213031
0.0021315
0.00213289
0.00213474
0.00213668
0.00213943
0.00214291
0.00214689
0.00215124
0.0021563
0.00216242
0.00217075
0.00218262
0.00219996
0.00220779
0.00220612
0.00220846
0.00221409
0.0022223
0.00223268
0.00224512
0.0022596
0.00227627
0.00229524
0.00231691
0.00234149
0.00236962
0.00240172
0.00243856
0.00248118
0.00253022
0.00258814
0.00265538
0.00273667
0.00283347
0.00295365
0.00310304
0.00329464
0.00354376
0.00387057
0.00430401
0.00485891
0.00558227
0.00643188
0.00749669
0.00863744
0.00217464
0.00217462
0.00217441
0.00217397
0.002174
0.00217408
0.00217252
0.00217377
0.00217348
0.00217361
0.00217624
0.00217719
0.002176
0.00217595
0.00217689
0.00217802
0.00217969
0.00218152
0.00218335
0.00218534
0.0021875
0.00218913
0.0021908
0.00219292
0.00219548
0.00219828
0.00220148
0.00220479
0.0022085
0.0022127
0.00221744
0.00222268
0.00222853
0.00223506
0.00224236
0.00225038
0.00225885
0.0022674
0.00227633
0.00228623
0.00229745
0.00231024
0.00232468
0.00234101
0.00235941
0.00238021
0.00240365
0.00243027
0.00246034
0.00249479
0.00253391
0.0025792
0.00263126
0.00269217
0.00276374
0.00284871
0.0029518
0.00307747
0.00323526
0.00343546
0.00369303
0.0040292
0.00446181
0.00502048
0.0057113
0.00656692
0.00753799
0.00871412
0.00985093
0.0022493
0.00224968
0.0022505
0.00225101
0.00225079
0.00225004
0.00225223
0.0022515
0.00225117
0.00225175
0.00225499
0.00225566
0.00225418
0.00225284
0.00225234
0.00225298
0.00225438
0.00225651
0.00225876
0.00226136
0.00226449
0.0022676
0.0022705
0.00227364
0.00227723
0.00228114
0.00228529
0.00228975
0.00229427
0.0022992
0.00230466
0.00231076
0.00231758
0.00232515
0.00233351
0.00234268
0.00235267
0.0023636
0.00237558
0.00238886
0.00240361
0.00242008
0.00243839
0.00245886
0.00248175
0.00250748
0.00253641
0.00256921
0.00260628
0.00264883
0.00269723
0.00275372
0.00281871
0.00289617
0.00298723
0.00309843
0.00323371
0.003403
0.00361673
0.00388921
0.00423855
0.00468395
0.00524345
0.00593465
0.006762
0.00773029
0.00881207
0.0100307
0.0111814
0.00233004
0.00233099
0.00233224
0.00233399
0.00233573
0.00233724
0.00233922
0.00234035
0.00234161
0.00234334
0.0023455
0.00234818
0.00235132
0.00235784
0.0023579
0.00235666
0.00235684
0.0023579
0.00236037
0.00236395
0.00236795
0.00237311
0.00238415
0.00238889
0.00239142
0.00239349
0.002396
0.00239931
0.00240345
0.00240847
0.00241434
0.00242118
0.00242903
0.00243794
0.00244794
0.00245911
0.00247145
0.00248512
0.00250021
0.00251695
0.00253548
0.00255611
0.00257899
0.0026045
0.00263299
0.002665
0.00270102
0.0027419
0.00278833
0.00284174
0.00290311
0.00297519
0.00305926
0.00316081
0.00328174
0.00343248
0.00361643
0.00385091
0.00414263
0.0045142
0.00497659
0.0055489
0.00624294
0.00706108
0.00801053
0.00906249
0.0102274
0.0114195
0.0126532
0.00243255
0.00243414
0.00243604
0.0024382
0.00244078
0.00244317
0.00244575
0.0024479
0.00245002
0.00245221
0.00245469
0.00245694
0.00245978
0.00246297
0.00246576
0.00246788
0.00247047
0.00247297
0.0024763
0.0024801
0.00248442
0.00248935
0.00249596
0.00250219
0.00250784
0.0025131
0.00251837
0.00252389
0.00252998
0.0025368
0.0025448
0.00255419
0.00256485
0.00257671
0.00258977
0.00260413
0.00261987
0.00263719
0.00265623
0.00267728
0.00270053
0.00272641
0.00275511
0.00278712
0.00282294
0.00286328
0.0029089
0.00296089
0.0030205
0.00308956
0.00317012
0.00326554
0.00337916
0.00351737
0.00368508
0.00389425
0.00415063
0.00447416
0.00486847
0.00536058
0.00594699
0.00665407
0.00746862
0.00840185
0.0094361
0.0105481
0.0117372
0.0128909
0.0141832
0.00256134
0.00256359
0.00256576
0.00256823
0.00257083
0.00257361
0.0025765
0.00257962
0.00258275
0.00258601
0.00258943
0.00259278
0.00259627
0.00259982
0.00260358
0.00260733
0.00261142
0.00261565
0.00262028
0.00262529
0.00263075
0.00263671
0.00264332
0.00265037
0.00265772
0.0026654
0.00267345
0.00268208
0.00269139
0.00270156
0.00271277
0.00272515
0.0027388
0.00275383
0.00277033
0.00278842
0.00280827
0.0028301
0.00285412
0.0028807
0.0029101
0.00294288
0.0029794
0.00302028
0.0030663
0.00311847
0.003178
0.00324652
0.00332608
0.00341936
0.00352988
0.00366209
0.00382175
0.00401607
0.00425337
0.0045447
0.00489911
0.00533216
0.00584795
0.00646616
0.00717775
0.00800426
0.00891802
0.00993573
0.0110144
0.0121532
0.013303
0.0144447
0.0155769
0.00272545
0.00272838
0.0027313
0.00273446
0.00273781
0.00274135
0.00274512
0.0027491
0.00275329
0.00275762
0.00276211
0.00276673
0.00277151
0.00277642
0.00278157
0.00278694
0.00279262
0.00279862
0.00280499
0.00281176
0.002819
0.00282676
0.0028351
0.00284403
0.00285359
0.0028638
0.00287477
0.00288654
0.00289919
0.00291288
0.00292774
0.00294393
0.00296158
0.00298086
0.00300196
0.00302506
0.00305041
0.00307834
0.00310918
0.00314337
0.00318143
0.00322403
0.0032719
0.00332594
0.0033874
0.00345784
0.00353923
0.00363411
0.00374562
0.00387779
0.00403556
0.00422486
0.004453
0.0047278
0.00505866
0.00545439
0.00592431
0.00647691
0.00711627
0.00785054
0.00867097
0.00958675
0.0105693
0.0116272
0.012713
0.0138244
0.0149104
0.015963
0.0169695
0.00293756
0.00294141
0.00294532
0.00294951
0.00295395
0.00295861
0.00296353
0.00296871
0.00297416
0.00297986
0.0029858
0.00299199
0.00299844
0.00300516
0.0030122
0.00301958
0.00302735
0.00303555
0.00304422
0.00305341
0.00306316
0.00307355
0.00308463
0.00309648
0.00310914
0.00312276
0.00313731
0.00315291
0.00316968
0.00318777
0.00320735
0.00322859
0.0032517
0.00327692
0.00330451
0.00333479
0.00336814
0.00340502
0.00344602
0.00349179
0.00354321
0.00360125
0.00366727
0.00374268
0.00382943
0.00392999
0.00404728
0.00418499
0.00434739
0.00453967
0.00476765
0.00503793
0.00535762
0.0057339
0.00617422
0.00668454
0.00727093
0.00793619
0.00868199
0.00950779
0.010405
0.0113718
0.0123818
0.013433
0.0144798
0.0155157
0.0164905
0.0174391
0.0181444
0.00321474
0.00322
0.00322535
0.00323105
0.00323705
0.00324332
0.0032499
0.0032568
0.00326405
0.00327165
0.00327959
0.0032879
0.0032966
0.00330572
0.00331528
0.00332533
0.00333591
0.00334707
0.00335887
0.00337136
0.00338461
0.00339869
0.00341369
0.00342969
0.00344681
0.00346507
0.0034846
0.00350556
0.00352811
0.00355247
0.00357887
0.00360757
0.00363889
0.0036732
0.00371093
0.00375261
0.00379887
0.00385048
0.00390838
0.00397368
0.00404776
0.00413221
0.00422905
0.00434055
0.00446941
0.00461894
0.00479287
0.00499557
0.00523174
0.00550668
0.00582575
0.0061946
0.00661857
0.00710265
0.00765109
0.00826683
0.0089519
0.00970543
0.0105256
0.0114069
0.0123386
0.0133125
0.0143002
0.0152948
0.016251
0.017158
0.0180057
0.0187126
0.0192236
0.00358333
0.00359062
0.00359803
0.00360587
0.00361408
0.00362263
0.00363156
0.00364091
0.00365072
0.003661
0.00367177
0.00368308
0.00369495
0.00370742
0.00372055
0.00373438
0.00374898
0.00376442
0.00378076
0.00379809
0.00381652
0.00383613
0.00385707
0.00387936
0.00390318
0.00392867
0.00395606
0.00398559
0.00401752
0.0040522
0.00408999
0.00413137
0.00417684
0.00422705
0.00428271
0.00434469
0.00441404
0.00449197
0.0045799
0.00467948
0.00479263
0.00492156
0.00506875
0.00523706
0.00542952
0.00564957
0.00590084
0.00618737
0.00651309
0.00688214
0.00729844
0.00776554
0.00828677
0.00886431
0.00950009
0.0101938
0.010945
0.0117494
0.0126029
0.0134948
0.0144133
0.015342
0.0162526
0.0171365
0.0179446
0.0186954
0.0193267
0.0197838
0.020564
0.00408593
0.00409654
0.00410733
0.00411866
0.00413047
0.00414274
0.00415551
0.00416886
0.00418282
0.00419744
0.00421277
0.00422887
0.00424581
0.00426365
0.00428247
0.00430237
0.00432344
0.00434582
0.00436959
0.00439497
0.00442199
0.00445082
0.00448166
0.00451475
0.00455036
0.0045888
0.00463042
0.00467564
0.00472494
0.00477885
0.00483801
0.00490313
0.00497504
0.00505468
0.00514309
0.00524148
0.00535123
0.00547386
0.00561106
0.0057647
0.00593682
0.00612966
0.0063456
0.0065872
0.00685709
0.00715815
0.00749294
0.00786454
0.00827556
0.00872871
0.00922647
0.00977028
0.0103623
0.0110017
0.0116896
0.012422
0.0131977
0.0140078
0.0148475
0.0156978
0.0165486
0.0173701
0.0181481
0.018861
0.0194843
0.0200208
0.0203909
0.0211313
0.0229263
0.00479551
0.00481144
0.00482771
0.0048448
0.00486263
0.00488121
0.00490063
0.00492098
0.00494235
0.00496485
0.00498857
0.00501363
0.00504014
0.00506825
0.00509809
0.0051299
0.0051637
0.00519971
0.00523814
0.00527925
0.00532333
0.00537068
0.00542165
0.00547661
0.005536
0.00560029
0.00566999
0.0057457
0.00582803
0.0059177
0.00601546
0.00612216
0.00623873
0.00636614
0.00650545
0.00665785
0.00682461
0.00700709
0.00720673
0.00742511
0.00766388
0.00792482
0.00820978
0.00852074
0.00885963
0.00922862
0.00962951
0.0100644
0.0105349
0.0110424
0.0115886
0.0121727
0.0127968
0.0134566
0.0141536
0.0148787
0.0156318
0.0163972
0.0171677
0.0179154
0.018634
0.0192831
0.0198776
0.0203654
0.0207757
0.0210818
0.0217555
0.0237739
0.0290898
0.00586653
0.00589444
0.00592316
0.00595332
0.00598486
0.00601783
0.0060524
0.00608874
0.00612701
0.00616735
0.00620985
0.00625471
0.00630212
0.00635232
0.00640551
0.00646197
0.00652195
0.00658572
0.00665356
0.0067258
0.00680276
0.00688478
0.00697224
0.00706553
0.00716507
0.0072713
0.0073847
0.00750576
0.00763502
0.00777305
0.00792046
0.00807789
0.00824606
0.00842567
0.00861755
0.0088226
0.00904178
0.00927615
0.00952686
0.00979513
0.0100823
0.0103898
0.0107191
0.0110718
0.0114493
0.0118534
0.0122853
0.0127465
0.0132377
0.0137593
0.0143121
0.0148928
0.0155053
0.0161388
0.0167974
0.0174652
0.0181429
0.0188039
0.0194356
0.0200112
0.0205284
0.0209522
0.021322
0.0215437
0.0218791
0.0225766
0.0248919
0.0308587
0.045941
0.00765624
0.00771113
0.00776764
0.0078265
0.00788763
0.00795107
0.00801698
0.00808553
0.00815688
0.00823115
0.00830849
0.00838903
0.00847292
0.00856032
0.00865138
0.0087463
0.00884523
0.00894834
0.00905582
0.00916788
0.00928473
0.00940661
0.00953376
0.00966646
0.00980498
0.00994963
0.0101007
0.0102587
0.0104238
0.0105965
0.0107773
0.0109667
0.0111652
0.0113734
0.0115919
0.0118216
0.0120632
0.0123176
0.0125859
0.012869
0.0131682
0.0134846
0.0138195
0.0141742
0.0145497
0.0149475
0.0153679
0.0158125
0.0162804
0.0167714
0.0172854
0.0178165
0.0183722
0.0189268
0.0194972
0.0200503
0.0205894
0.0210677
0.0214724
0.0218146
0.0220716
0.0222489
0.0224028
0.0226289
0.0238091
0.0265175
0.0339272
0.0501711
0.0684284
0.0109057
0.0109965
0.0110882
0.0111816
0.0112763
0.0113723
0.0114698
0.0115689
0.0116696
0.011772
0.0118762
0.0119823
0.0120904
0.0122006
0.0123132
0.0124281
0.0125457
0.012666
0.0127894
0.0129158
0.0130456
0.013179
0.0133161
0.0134572
0.0136024
0.0137522
0.0139067
0.0140662
0.014231
0.0144016
0.0145782
0.0147613
0.0149514
0.0151488
0.0153542
0.0155684
0.0157919
0.0160256
0.0162703
0.016527
0.0167965
0.0170798
0.0173777
0.0176914
0.0180214
0.0183695
0.0187345
0.0191191
0.0195175
0.0199318
0.0203611
0.0207984
0.0212496
0.0216587
0.0220952
0.0224553
0.0227716
0.022944
0.0230342
0.0231492
0.0231639
0.02321
0.0237225
0.0251757
0.0294764
0.0390659
0.057433
0.0725329
0.0794476
0.0159087
0.0160092
0.0161089
0.0162086
0.0163079
0.0164067
0.0165051
0.0166033
0.0167013
0.0167995
0.0168979
0.0169965
0.0170954
0.017195
0.0172952
0.0173963
0.0174983
0.0176014
0.0177057
0.0178114
0.0179186
0.0180274
0.0181381
0.0182508
0.0183659
0.0184834
0.0186037
0.018727
0.0188537
0.0189839
0.0191181
0.0192565
0.0193996
0.0195477
0.0197014
0.019861
0.020027
0.0202001
0.0203809
0.0205701
0.0207684
0.0209769
0.0211955
0.0214262
0.0216699
0.021929
0.0221977
0.0224811
0.022758
0.0230542
0.023362
0.0236672
0.0239365
0.0241189
0.0242317
0.0242075
0.024114
0.0239966
0.0239049
0.023905
0.0241178
0.0250945
0.0277247
0.0341449
0.0480474
0.0659535
0.0763246
0.0811793
0.0812439
0.0222708
0.0223515
0.0224297
0.0225062
0.0225806
0.0226527
0.0227227
0.0227904
0.0228562
0.022921
0.0229852
0.0230469
0.0231056
0.0231646
0.0232228
0.02328
0.0233362
0.0233914
0.0234457
0.0234991
0.0235518
0.0236039
0.0236555
0.0237069
0.0237583
0.0238098
0.0238617
0.0239143
0.0239678
0.0240223
0.0240783
0.0241358
0.024195
0.0242562
0.0243202
0.0243873
0.0244583
0.0245337
0.0246141
0.0247003
0.0247925
0.0248928
0.0249968
0.0251175
0.0252536
0.025398
0.0255303
0.0256596
0.0257442
0.0258782
0.0258721
0.0258018
0.0256371
0.025415
0.0251139
0.0249103
0.0245948
0.0245376
0.0247434
0.0254728
0.0277114
0.0326507
0.0434604
0.0604886
0.072979
0.0789004
0.0815569
0.0794734
0.0725414
0.0292112
0.029243
0.0292708
0.0292953
0.0293156
0.0293321
0.0293448
0.0293527
0.0293584
0.0293667
0.0293939
0.0293947
0.0293723
0.029387
0.0293866
0.0293824
0.0293742
0.0293626
0.0293477
0.0293299
0.0293093
0.0292856
0.0292593
0.0292306
0.0291994
0.0291662
0.029131
0.029094
0.0290551
0.0290147
0.0289735
0.0289312
0.0288886
0.0288455
0.028802
0.0287582
0.0287147
0.028672
0.028631
0.0285926
0.0285572
0.0285245
0.028492
0.0284479
0.0283707
0.0282382
0.0280456
0.0278164
0.0275326
0.0271919
0.0268373
0.0264594
0.0260616
0.0257553
0.025344
0.0252867
0.025516
0.0263422
0.028721
0.0334557
0.0430769
0.058073
0.070261
0.0764443
0.0806656
0.0796604
0.0742565
0.0638397
0.0537009
0.0358065
0.0357685
0.0357229
0.0356851
0.0356244
0.0355713
0.0355135
0.0354414
0.0353802
0.0353128
0.0352199
0.0351154
0.0350056
0.034895
0.0347814
0.0346649
0.0345445
0.0344206
0.0342928
0.034162
0.0340274
0.0338883
0.0337448
0.0335985
0.0334469
0.0332919
0.0331336
0.0329715
0.0328046
0.0326338
0.0324603
0.0322826
0.0321028
0.0319225
0.0317432
0.0315657
0.0313904
0.0312152
0.0310389
0.0308549
0.0306604
0.030441
0.0301946
0.0298929
0.0295575
0.0291967
0.0288049
0.0283632
0.0278402
0.0273123
0.0268732
0.0263976
0.0261226
0.0261448
0.0266937
0.0278428
0.0305955
0.0369613
0.0459541
0.0590828
0.0684108
0.074205
0.0783523
0.0773888
0.0722459
0.0624531
0.0525349
0.0440335
0.0377834
0.0393983
0.0392882
0.0391719
0.0390509
0.038924
0.0387921
0.0386555
0.0385134
0.0383675
0.0382177
0.0380621
0.0378999
0.0377315
0.0375578
0.0373789
0.0371953
0.0370073
0.0368151
0.0366187
0.0364183
0.0362141
0.0360065
0.0357955
0.0355808
0.0353631
0.0351422
0.0349186
0.0346944
0.0344665
0.0342407
0.0340153
0.0337928
0.0335708
0.0333499
0.0331264
0.032894
0.0326496
0.0323808
0.0320869
0.0317518
0.0313799
0.0309428
0.0304546
0.0298983
0.0292768
0.0287548
0.0280925
0.0275691
0.0270027
0.0269078
0.0270302
0.0275302
0.0288162
0.0311204
0.0353555
0.0410978
0.0506319
0.0589658
0.0652456
0.0717339
0.0735472
0.0714516
0.0647399
0.0556062
0.046993
0.0394084
0.033482
0.0293805
0.026981
0.0388529
0.0387074
0.0385597
0.0384118
0.0382599
0.0381065
0.0379461
0.037786
0.03762
0.037448
0.0372695
0.0370862
0.0368952
0.0366981
0.0364929
0.0362829
0.0360643
0.0358396
0.035606
0.0353668
0.0351185
0.0348641
0.0346006
0.0343274
0.0340447
0.0337517
0.0334485
0.0331341
0.0328076
0.0324673
0.032113
0.0317363
0.0313452
0.0309342
0.0305088
0.0300645
0.0296149
0.0291474
0.0286992
0.0282273
0.0278207
0.027385
0.0271035
0.0267813
0.0267518
0.0268336
0.0269748
0.0274263
0.0280993
0.0292414
0.0310799
0.0335681
0.037153
0.0416298
0.0477651
0.0543002
0.060288
0.0626832
0.0606126
0.0540985
0.0461384
0.0389504
0.0333504
0.0289071
0.0251268
0.0219463
0.0198303
0.0187522
0.0183756
0.0292755
0.0294563
0.029549
0.0296248
0.0296188
0.0297869
0.0297562
0.0299185
0.02995
0.0300274
0.030067
0.0302331
0.0302972
0.0303115
0.030323
0.0304587
0.030447
0.0305324
0.0304948
0.030606
0.030582
0.0306636
0.0306367
0.0305817
0.0305221
0.0304613
0.030397
0.0303287
0.0302542
0.0301731
0.0300856
0.0299885
0.0298821
0.0297622
0.0296283
0.0294745
0.0292997
0.0290952
0.0288601
0.0285814
0.0282584
0.0278728
0.0274232
0.0268858
0.0262516
0.0254975
0.0245992
0.0235244
0.0222358
0.0206924
0.0188733
0.0167583
0.0144331
0.0122789
0.0118864
0.0137311
0.0155075
0.015871
0.015154
0.0136819
0.0120483
0.0107811
0.00970918
0.00909601
0.0083079
0.00801209
0.00779918
0.00772433
0.00774269
0.00193788
0.00193921
0.0019402
0.00194105
0.00194201
0.00194272
0.00194367
0.00194457
0.00194597
0.00194723
0.00194816
0.00195015
0.00195551
0.00195817
0.00195901
0.00195822
0.00196209
0.00196416
0.00196512
0.00196571
0.00196778
0.00197043
0.00197122
0.00197351
0.00197663
0.00197942
0.00198485
0.00198863
0.00198947
0.00198961
0.00199106
0.0019946
0.00199774
0.00199495
0.0019937
0.00199161
0.0019911
0.00198981
0.00198642
0.00198436
0.0019796
0.00197914
0.00197798
0.00197291
0.0019696
0.00196467
0.00196001
0.00195589
0.00195126
0.0019471
0.00194448
0.00194295
0.00194154
0.0019403
0.00193897
0.00193743
0.00193533
0.00193258
0.00192997
0.00194938
0.00195004
0.00195052
0.00195106
0.00195159
0.00195217
0.00195297
0.00195392
0.00195541
0.00195702
0.00195904
0.00196198
0.0019643
0.00196476
0.00196508
0.00196627
0.00197024
0.0019714
0.00197198
0.00197266
0.0019757
0.00197738
0.00197823
0.00198109
0.00198363
0.00198648
0.00199206
0.00199548
0.00199591
0.00199591
0.00199775
0.00200104
0.00200396
0.00200184
0.00200077
0.00199896
0.00199806
0.00199706
0.0019947
0.00199249
0.00198812
0.00198646
0.00198559
0.00198325
0.00197966
0.00197612
0.00197152
0.00196759
0.00196357
0.00195968
0.00195581
0.00195292
0.00195079
0.00194892
0.00194782
0.00194675
0.00194583
0.00194463
0.00194337
0.00196192
0.00196234
0.00196266
0.00196319
0.0019638
0.00196467
0.00196579
0.00196717
0.00196888
0.00197041
0.00197216
0.00197336
0.00197427
0.00197478
0.0019761
0.00197888
0.00198057
0.00198105
0.00198145
0.00198357
0.00198611
0.00198739
0.00198845
0.00199149
0.00199354
0.00199669
0.00200213
0.00200533
0.00200541
0.00200534
0.0020075
0.00201049
0.00201319
0.00201173
0.00201067
0.00200927
0.00200815
0.00200726
0.00200565
0.00200367
0.00199978
0.00199723
0.00199627
0.00199499
0.00199255
0.00198979
0.0019861
0.00198249
0.00197883
0.00197528
0.00197177
0.00196841
0.00196569
0.00196315
0.00196124
0.00195966
0.00195856
0.00195755
0.00195685
0.00198003
0.00198045
0.00198087
0.00198152
0.00198225
0.00198317
0.00198407
0.00198506
0.00198539
0.00198697
0.00198744
0.00198874
0.00198944
0.00199063
0.00199218
0.00199344
0.00199403
0.00199432
0.00199553
0.00199841
0.00200029
0.00200148
0.00200278
0.00200548
0.0020073
0.00201089
0.00201595
0.00201889
0.00201873
0.00201862
0.00202098
0.00202369
0.00202629
0.00202544
0.0020245
0.00202342
0.00202228
0.00202129
0.00202011
0.00201865
0.00201607
0.00201231
0.00201086
0.00201
0.00200862
0.00200671
0.00200392
0.00200102
0.001998
0.00199488
0.00199181
0.00198868
0.00198587
0.00198319
0.00198085
0.00197874
0.00197711
0.00197561
0.0019746
0.0020005
0.00200149
0.00200151
0.0020026
0.0020028
0.0020031
0.00200441
0.00200456
0.00200556
0.00200578
0.00200677
0.0020073
0.00200846
0.00200898
0.00201027
0.00201067
0.00201137
0.00201219
0.00201469
0.00201678
0.00201822
0.00201944
0.00202088
0.00202308
0.0020249
0.0020289
0.00203359
0.00203631
0.00203598
0.00203588
0.00203833
0.00204076
0.00204335
0.00204295
0.00204225
0.00204145
0.00204059
0.00203968
0.0020386
0.00203738
0.00203563
0.00203258
0.00202992
0.00202899
0.00202833
0.0020272
0.00202543
0.00202297
0.0020205
0.00201807
0.0020157
0.0020132
0.00201073
0.00200825
0.00200597
0.00200376
0.00200192
0.00200011
0.00199879
0.0020269
0.00202683
0.00202706
0.00202818
0.00202819
0.00202891
0.00202898
0.00202926
0.00202989
0.00203024
0.00203131
0.00203144
0.00203199
0.00203338
0.00203375
0.00203469
0.00203554
0.00203708
0.00203888
0.00204039
0.00204163
0.00204287
0.00204431
0.00204605
0.00204797
0.00205237
0.00205644
0.00205897
0.00205849
0.00205841
0.00206095
0.00206315
0.00206577
0.00206578
0.00206536
0.00206487
0.00206425
0.00206364
0.0020628
0.00206191
0.00206078
0.00205877
0.00205575
0.00205364
0.00205284
0.00205301
0.0020525
0.00205121
0.00204918
0.00204669
0.00204446
0.00204249
0.00204071
0.00203889
0.00203708
0.00203512
0.00203337
0.00203143
0.00202997
0.00205968
0.00205916
0.00205917
0.00205953
0.00205978
0.00206009
0.00206022
0.00206046
0.00206069
0.00206094
0.00206127
0.00206209
0.00206246
0.00206291
0.00206366
0.00206402
0.00206542
0.00206652
0.00206798
0.00206927
0.00207039
0.00207146
0.00207277
0.00207441
0.00207662
0.00208131
0.00208487
0.00208725
0.00208668
0.00208664
0.00208924
0.00209123
0.00209384
0.00209426
0.00209414
0.00209389
0.00209377
0.00209324
0.00209276
0.00209213
0.00209144
0.00209036
0.0020886
0.00208629
0.00208393
0.00208337
0.00208354
0.00208407
0.00208388
0.00208284
0.00208104
0.00207865
0.00207647
0.00207465
0.00207332
0.00207203
0.00207105
0.00206971
0.0020687
0.00209814
0.002099
0.00209846
0.00209898
0.00209798
0.00209811
0.00209851
0.00209789
0.00209794
0.00209783
0.00209915
0.00209919
0.00209956
0.00210015
0.00210104
0.00210178
0.00210297
0.00210412
0.00210543
0.00210656
0.00210743
0.0021082
0.00210906
0.00211086
0.00211361
0.00211798
0.00212106
0.00212332
0.00212268
0.0021227
0.00212534
0.00212719
0.00212978
0.00213067
0.00213085
0.0021311
0.00213086
0.00213149
0.00213107
0.00213102
0.00213072
0.00212988
0.00212875
0.0021274
0.00212587
0.0021246
0.00212447
0.00212466
0.00212415
0.00212516
0.00212512
0.00212486
0.00212418
0.00212249
0.00212038
0.0021183
0.00211643
0.00211572
0.00211547
0.00215335
0.0021529
0.00215196
0.00215137
0.0021505
0.00214997
0.00214938
0.00214901
0.00214886
0.00214875
0.00214884
0.00214863
0.00214831
0.00214806
0.00214774
0.00214829
0.0021491
0.00215013
0.0021511
0.00215172
0.00215216
0.00215264
0.00215345
0.00215571
0.00215893
0.00216269
0.00216555
0.00216775
0.00216708
0.00216717
0.00216984
0.0021716
0.00217415
0.00217542
0.00217599
0.00217634
0.00217713
0.0021769
0.00217823
0.00217758
0.00217787
0.00217888
0.00217871
0.00217818
0.00217696
0.0021759
0.00217539
0.00217444
0.00217455
0.00217466
0.00217707
0.00217659
0.00217714
0.00217686
0.00217565
0.00217517
0.00217547
0.00217463
0.00217407
0.0022207
0.00221959
0.00221817
0.00221709
0.00221584
0.0022148
0.00221376
0.00221289
0.00221202
0.00221116
0.00221029
0.00220939
0.00220851
0.0022079
0.00220756
0.00220755
0.00220757
0.00220794
0.00220842
0.00220892
0.00220937
0.00220949
0.00221036
0.00221274
0.00221599
0.00221938
0.00222204
0.00222406
0.00222336
0.00222355
0.00222624
0.00222798
0.00223052
0.00223218
0.00223322
0.00223404
0.00223504
0.00223652
0.00223663
0.00223846
0.00223788
0.00223837
0.00223929
0.00223935
0.00224125
0.00224137
0.00224151
0.00224124
0.00223989
0.00223972
0.00224022
0.00224287
0.00224304
0.00224486
0.002245
0.00224477
0.00224685
0.00224745
0.00224847
0.0023023
0.00230068
0.00229877
0.00229715
0.00229534
0.00229367
0.00229195
0.00229031
0.00228863
0.00228699
0.00228541
0.00228398
0.00228276
0.00228192
0.00228136
0.00228099
0.00228065
0.00228053
0.00228021
0.00227985
0.00227944
0.00227936
0.00227986
0.00228215
0.00228537
0.0022887
0.00229133
0.00229325
0.00229258
0.00229287
0.00229558
0.00229737
0.00229991
0.00230189
0.0023034
0.00230454
0.00230582
0.00230764
0.00230899
0.00231016
0.0023129
0.00231302
0.00231331
0.00231456
0.00231563
0.00231781
0.00231808
0.00231989
0.00232199
0.00232099
0.00232069
0.00232136
0.00232215
0.00232369
0.00232486
0.00232582
0.00232692
0.00232729
0.00232852
0.00240271
0.00240052
0.00239798
0.00239572
0.00239325
0.0023909
0.00238848
0.00238616
0.00238386
0.00238172
0.00237975
0.00237805
0.00237666
0.00237559
0.00237471
0.00237388
0.00237299
0.00237209
0.00237102
0.0023699
0.00236897
0.00236862
0.00236898
0.00237125
0.00237432
0.00237738
0.00237974
0.0023814
0.00238073
0.00238114
0.0023839
0.00238583
0.00238842
0.00239083
0.00239296
0.00239493
0.00239671
0.00239901
0.00240135
0.00240315
0.00240581
0.00240745
0.00240879
0.00240992
0.0024116
0.00241287
0.00241562
0.00241817
0.00242016
0.00242068
0.00242127
0.00242185
0.00242289
0.00242437
0.00242601
0.00242732
0.00242875
0.00242933
0.00243074
0.00252827
0.00252539
0.00252214
0.00251917
0.00251598
0.00251294
0.00250986
0.00250691
0.00250407
0.00250142
0.00249898
0.0024968
0.00249481
0.00249297
0.00249113
0.00248917
0.00248707
0.00248486
0.00248256
0.00248039
0.00247871
0.00247796
0.00247819
0.00248038
0.00248339
0.00248641
0.00248878
0.00249035
0.00248976