/*--------------------------------*- C++ -*----------------------------------*\
| =========                 |                                                 |
| \\      /  F ield         | OpenFOAM: The Open Source CFD Toolbox           |
|  \\    /   O peration     | Version:  2312                                  |
|   \\  /    A nd           | Website:  www.openfoam.com                      |
|    \\/     M anipulation  |                                                 |
\*---------------------------------------------------------------------------*/
FoamFile
{
    version     2.0;
    format      ascii;
    arch        "LSB;label=32;scalar=64";
    class       volScalarField;
    location    "300";
    object      nut;
}
// * * * * * * * * * * * * * * * * * * * * * * * * * * * * * * * * * * * * * //

dimensions      [0 2 -1 0 0 0 0];

internalField   nonuniform List<scalar> 
76025
(
0.00132645
0.00132642
0.00132628
0.0013265
0.00132628
0.00132675
0.00132684
0.00132686
0.00132701
0.00132751
0.00132792
0.00132831
0.00132889
0.00132922
0.00132989
0.00132997
0.00132999
0.00133027
0.00133054
0.00133111
0.00133169
0.00133262
0.00133327
0.00133455
0.00133558
0.00133696
0.00133863
0.00134078
0.00134216
0.00134482
0.00134651
0.00134856
0.00135152
0.00135264
0.00135455
0.00135675
0.00135896
0.00136205
0.00136515
0.00136798
0.00137086
0.00137388
0.00137781
0.00138153
0.00138565
0.00138954
0.00139389
0.00139676
0.00140116
0.00140437
0.00140914
0.00141398
0.00142171
0.00142917
0.00144224
0.00145038
0.00147063
0.00147421
0.00150958
0.00150417
0.00155757
0.00154666
0.0016168
0.00162373
0.00169046
0.00174671
0.00180723
0.00192732
0.00202004
0.00133389
0.00133421
0.0013344
0.00133465
0.00133469
0.0013349
0.00133505
0.00133521
0.00133539
0.0013356
0.00133594
0.00133628
0.00133675
0.00133718
0.00133777
0.00133829
0.00133877
0.00133933
0.00133986
0.00134058
0.00134125
0.00134226
0.00134308
0.0013445
0.00134536
0.00134724
0.00134886
0.00135085
0.00135305
0.00135499
0.00135868
0.00136008
0.00136159
0.00136281
0.00136421
0.00136635
0.00136871
0.001371
0.00137312
0.00137559
0.00137515
0.00137723
0.00137965
0.00138279
0.00139051
0.00139685
0.0014013
0.0014049
0.00140991
0.00141423
0.00142381
0.00143151
0.00144412
0.00145361
0.00146889
0.0014781
0.0014982
0.00150654
0.00153658
0.00154244
0.00159192
0.00159051
0.00167234
0.00166389
0.00177523
0.00179146
0.00191191
0.00202146
0.00216835
0.00134219
0.00134255
0.00134294
0.00134339
0.00134379
0.00134417
0.00134455
0.00134491
0.00134529
0.00134565
0.00134605
0.00134646
0.00134692
0.00134743
0.00134799
0.00134864
0.00134928
0.00135004
0.00135078
0.00135163
0.00135255
0.00135351
0.00135466
0.00135529
0.00135808
0.00136057
0.00136313
0.00136551
0.00136894
0.00136896
0.00136953
0.00137037
0.00137253
0.00137454
0.00137578
0.00137802
0.00137694
0.00137862
0.00138029
0.00138695
0.00138923
0.00139596
0.00140158
0.00140562
0.00141065
0.00141464
0.00142105
0.00142613
0.00143493
0.00144081
0.00145184
0.00145742
0.00147113
0.00147605
0.00149384
0.00150001
0.00152481
0.00153274
0.00156889
0.00157726
0.00163038
0.00163803
0.00171553
0.00172366
0.00183835
0.00186241
0.00202339
0.00213516
0.0023244
0.00135306
0.00135318
0.00135339
0.00135371
0.00135412
0.00135457
0.00135511
0.00135564
0.00135623
0.00135683
0.00135747
0.00135816
0.00135885
0.00135953
0.00136022
0.00136095
0.00136171
0.00136255
0.00136339
0.00136449
0.00136479
0.00136763
0.00137005
0.00137173
0.001373
0.00137706
0.00137827
0.00137983
0.00138026
0.00138254
0.00138403
0.0013891
0.00138887
0.00138903
0.0013892
0.0013922
0.00139452
0.00139701
0.00139985
0.00140335
0.00140719
0.00141166
0.00141611
0.00142132
0.00142646
0.00143253
0.00143864
0.0014455
0.0014531
0.00146034
0.00147082
0.00147768
0.00149349
0.00150025
0.00152211
0.00153136
0.0015597
0.00157124
0.00161055
0.00162211
0.00168096
0.00168972
0.00178146
0.0017889
0.00193359
0.0019502
0.00217522
0.002261
0.00252596
0.0013662
0.00136637
0.00136667
0.00136695
0.00136722
0.00136749
0.00136773
0.0013681
0.00136853
0.00136905
0.00136949
0.00136991
0.00137071
0.00137163
0.00137253
0.00137344
0.00137445
0.00137553
0.00137616
0.00137918
0.00138144
0.00138218
0.001386
0.00138766
0.00139155
0.00139479
0.00139332
0.00139294
0.00139441
0.00139668
0.00139603
0.00139756
0.0013985
0.00140056
0.00140352
0.00140799
0.00141097
0.00141322
0.00141596
0.00141993
0.00142447
0.00143001
0.00143542
0.00144165
0.00144752
0.00145447
0.00146111
0.00146914
0.00147721
0.00148655
0.00149737
0.00150752
0.00152393
0.00153296
0.00155881
0.00156663
0.00160082
0.00161253
0.00165764
0.0016729
0.00173553
0.00175674
0.00185103
0.00187999
0.00203543
0.0020734
0.00233155
0.00242203
0.0026845
0.0013809
0.00138123
0.00138103
0.00138256
0.00138337
0.00138419
0.00138616
0.00138726
0.00138817
0.00138843
0.00139029
0.0013916
0.00139126
0.00139279
0.00139446
0.00139611
0.00139751
0.00139917
0.001401
0.00140158
0.00140579
0.001406
0.00140667
0.00140511
0.00140487
0.00140722
0.0014069
0.00141059
0.00141376
0.00141625
0.00141836
0.00142045
0.00142219
0.00142365
0.00142412
0.00142077
0.00142471
0.0014318
0.00143787
0.00144356
0.0014489
0.00145461
0.00146009
0.00146638
0.00147258
0.00147997
0.00148746
0.00149632
0.00150577
0.00151638
0.00152884
0.00154121
0.00155879
0.00157167
0.00159885
0.00160949
0.00164993
0.00166167
0.00171569
0.00173181
0.00180847
0.00183276
0.0019477
0.00198673
0.00217135
0.00221902
0.00251013
0.00257904
0.00283076
0.00139895
0.00139937
0.00140018
0.00139978
0.00140208
0.00140341
0.00140414
0.00140708
0.00140848
0.0014091
0.00140934
0.00140916
0.00140885
0.00141226
0.00141257
0.00141299
0.00141668
0.00141812
0.00141591
0.00141652
0.00141612
0.00141824
0.00142033
0.00142749
0.00142529
0.00142506
0.00142777
0.001431
0.00143579
0.00144143
0.00144499
0.00144676
0.00144795
0.00144934
0.0014515
0.0014547
0.0014593
0.00146411
0.00146851
0.00147282
0.00147738
0.00148254
0.00148809
0.00149458
0.00150153
0.00150974
0.00151852
0.00152867
0.00153992
0.00155217
0.00156702
0.00158132
0.00160157
0.00161742
0.00164659
0.00166184
0.00170705
0.00171997
0.00178469
0.00180517
0.00189688
0.00192957
0.00206915
0.00212102
0.00233399
0.00238861
0.00268407
0.00273157
0.00296348
0.00141952
0.0014198
0.00141967
0.0014221
0.00142385
0.00142624
0.00142771
0.0014279
0.00142867
0.00142929
0.00143007
0.00143453
0.00143576
0.00143541
0.00143605
0.00143753
0.00143983
0.00144011
0.00144242
0.00144561
0.00145248
0.00145012
0.00144791
0.00144541
0.00144497
0.00144465
0.00145004
0.00144834
0.00145493
0.00146025
0.00146529
0.0014682
0.00147208
0.00147441
0.00147961
0.00149092
0.00151073
0.00151771
0.00151129
0.00150948
0.00151115
0.00151518
0.00152084
0.00152795
0.00153612
0.00154565
0.0015561
0.00156801
0.00158118
0.00159554
0.00161259
0.00162928
0.00165226
0.00167113
0.00170343
0.00172433
0.00177262
0.00179395
0.00187166
0.00189566
0.00201048
0.00205191
0.0022248
0.00227935
0.00252366
0.00256262
0.00285779
0.00286679
0.00308883
0.00144699
0.00144768
0.00144949
0.00145042
0.00145268
0.00145292
0.00145231
0.00145521
0.00145377
0.00145453
0.00145829
0.00145922
0.00145823
0.00145539
0.00145561
0.0014566
0.00145682
0.00146068
0.00145982
0.00146436
0.00146802
0.00146982
0.00147103
0.00147243
0.00147492
0.00147579
0.00147845
0.00147848
0.00147991
0.00148274
0.00148708
0.00149194
0.0014973
0.00150239
0.00150769
0.00151342
0.00151936
0.00152489
0.00153025
0.00153601
0.00154252
0.00154996
0.00155823
0.0015675
0.00157763
0.00158905
0.00160128
0.0016153
0.00163018
0.00164727
0.00166604
0.00168651
0.00171174
0.00173573
0.00177177
0.00180037
0.00185362
0.00189032
0.00197215
0.0020197
0.002151
0.00221087
0.0024009
0.00246928
0.00271058
0.00274362
0.00302354
0.00298332
0.00320056
0.00148025
0.00148086
0.00148235
0.00148518
0.00148742
0.00148591
0.00148867
0.00148851
0.00148896
0.00148806
0.00149168
0.00149245
0.00149002
0.00149064
0.00148768
0.00149066
0.00149289
0.00149462
0.00149666
0.00149858
0.00150089
0.00150154
0.00150344
0.00150096
0.00150252
0.00149875
0.00150054
0.00150822
0.00151173
0.00151422
0.00151739
0.00152181
0.00152735
0.00153361
0.00154025
0.00154716
0.00155419
0.00156145
0.00156895
0.00157694
0.00158544
0.0015948
0.00160483
0.00161588
0.00162774
0.00164104
0.00165515
0.00167151
0.00168845
0.001709
0.00172992
0.00175593
0.00178345
0.00181616
0.00185586
0.00189675
0.00195812
0.00201118
0.00210539
0.00217892
0.00231309
0.00241034
0.00257883
0.00268878
0.00286295
0.00295145
0.00313691
0.00309955
0.00330745
0.00150543
0.0015061
0.00150719
0.00150955
0.00151138
0.0015132
0.00151705
0.00151981
0.00151826
0.00151984
0.00152269
0.00152214
0.00152482
0.00153356
0.00153405
0.0015282
0.00152987
0.00153212
0.00153522
0.00153709
0.00154064
0.00154041
0.00155173
0.00155257
0.00155701
0.00155969
0.00156261
0.00156567
0.00156787
0.00156967
0.00157141
0.00157373
0.00157709
0.00158169
0.00158735
0.00159402
0.00160141
0.00160958
0.00161829
0.00162777
0.00163784
0.00164895
0.00166077
0.00167376
0.0016877
0.00170326
0.00171991
0.00173915
0.0017593
0.00178397
0.00180881
0.00184162
0.00187359
0.00191827
0.00196275
0.00202346
0.002091
0.00216984
0.00227523
0.00236765
0.00252004
0.00261185
0.00279781
0.00287677
0.00304586
0.00312164
0.00321411
0.00322604
0.00330926
0.00154038
0.00154222
0.00154333
0.00154503
0.00155209
0.00155267
0.00155907
0.00156298
0.00156509
0.00156614
0.00156723
0.0015678
0.00156921
0.00157102
0.0015725
0.00157244
0.00157354
0.00157337
0.00157495
0.00157562
0.00157776
0.00157106
0.00157386
0.00157679
0.00158709
0.00159548
0.00160076
0.00160349
0.00160348
0.00159967
0.00159053
0.00159378
0.00160993
0.00162386
0.0016358
0.00164682
0.00165738
0.00166805
0.00167889
0.00169036
0.00170237
0.00171549
0.00172948
0.0017448
0.00176137
0.00177982
0.00179993
0.00182293
0.00184789
0.00187779
0.0019095
0.00195033
0.00199164
0.00204972
0.00210494
0.00218776
0.00226274
0.00237329
0.00247413
0.00260041
0.00273172
0.00284033
0.00300382
0.00305487
0.00322615
0.00322427
0.00329965
0.00328674
0.00322182
0.00159393
0.00159632
0.00159695
0.00159884
0.0015984
0.00160065
0.00159679
0.00159833
0.00159964
0.00160604
0.00161203
0.00161624
0.00161936
0.00162167
0.00162397
0.00162554
0.0016277
0.00162941
0.00163159
0.00163377
0.00163634
0.00163825
0.00164162
0.0016458
0.00165087
0.00165612
0.00166107
0.00166563
0.00166984
0.0016739
0.00167853
0.00168486
0.00169293
0.00170204
0.0017118
0.00172212
0.00173294
0.00174441
0.00175651
0.00176954
0.00178344
0.00179874
0.00181533
0.00183358
0.00185364
0.00187605
0.00190102
0.0019295
0.00196157
0.00199915
0.00204144
0.00209299
0.0021492
0.00222156
0.00229427
0.00239436
0.00248196
0.00261085
0.00270636
0.00285079
0.00294779
0.00307404
0.00317832
0.00323002
0.00335582
0.00328366
0.00336708
0.00323073
0.00309787
0.00165928
0.00166136
0.0016626
0.00166421
0.00166511
0.00166673
0.00166782
0.00167018
0.00167281
0.00167616
0.00167979
0.00168329
0.00168656
0.00168952
0.0016925
0.00169532
0.00169834
0.00170142
0.00170469
0.00170814
0.00171183
0.00171571
0.00172
0.00172472
0.00172987
0.00173535
0.00174111
0.0017471
0.00175328
0.00175987
0.00176704
0.00177496
0.00178369
0.00179322
0.00180355
0.00181468
0.00182666
0.0018396
0.00185356
0.00186878
0.00188534
0.00190368
0.00192398
0.00194657
0.0019718
0.00200033
0.00203265
0.00206975
0.00211227
0.00216157
0.00221817
0.00228406
0.00235795
0.00244443
0.00253477
0.00264348
0.00274142
0.00286945
0.00295859
0.00309602
0.00316026
0.00328454
0.00331982
0.00338191
0.00340832
0.00332032
0.00334462
0.0030827
0.002938
0.0017398
0.00174194
0.00174393
0.001746
0.00174802
0.00175023
0.00175257
0.00175527
0.00175828
0.00176155
0.00176498
0.00176851
0.00177209
0.00177568
0.00177937
0.00178313
0.00178706
0.00179116
0.00179548
0.00180003
0.00180484
0.00180994
0.00181535
0.00182114
0.00182729
0.00183387
0.00184082
0.0018481
0.00185582
0.00186408
0.00187296
0.00188253
0.00189288
0.00190407
0.0019162
0.00192934
0.00194363
0.00195924
0.00197633
0.00199521
0.00201608
0.00203943
0.00206574
0.0020954
0.00212892
0.00216714
0.00221061
0.00226043
0.00231705
0.0023815
0.00245389
0.00253465
0.0026228
0.00271859
0.00281728
0.00292351
0.00302055
0.00313119
0.00320826
0.00331682
0.00335356
0.00344709
0.00342738
0.00347154
0.00339304
0.00330491
0.00319465
0.0028768
0.00264291
0.00184084
0.00184342
0.00184605
0.0018488
0.00185165
0.00185463
0.00185777
0.00186111
0.00186466
0.0018684
0.00187232
0.00187639
0.0018806
0.00188496
0.00188949
0.0018942
0.00189912
0.00190428
0.0019097
0.00191542
0.00192145
0.00192783
0.00193458
0.00194176
0.00194937
0.00195739
0.00196582
0.00197479
0.00198437
0.00199465
0.00200571
0.00201764
0.00203056
0.0020446
0.00205991
0.00207668
0.00209512
0.00211549
0.00213813
0.00216338
0.00219168
0.00222353
0.00225956
0.0023003
0.00234616
0.00239788
0.0024557
0.00252029
0.00259135
0.00266915
0.00275261
0.00284119
0.00293295
0.00302679
0.00311913
0.00321082
0.00329235
0.00337495
0.00342967
0.00349802
0.00350416
0.00354874
0.00348171
0.00347259
0.0033111
0.00318462
0.00293235
0.00257703
0.00224546
0.00196867
0.00197192
0.00197525
0.00197873
0.00198236
0.00198613
0.00199008
0.00199421
0.00199854
0.00200308
0.00200783
0.0020128
0.00201799
0.00202341
0.00202908
0.00203502
0.00204127
0.00204784
0.00205477
0.00206208
0.00206982
0.00207801
0.00208673
0.00209589
0.00210557
0.00211581
0.00212676
0.0021385
0.00215113
0.00216477
0.00217956
0.00219566
0.00221324
0.00223252
0.00225374
0.00227716
0.00230312
0.00233195
0.00236405
0.00239977
0.00243959
0.0024838
0.0025329
0.00258721
0.00264668
0.00271144
0.00278096
0.00285522
0.00293304
0.00301387
0.00309618
0.00317866
0.0032597
0.00333744
0.00340992
0.00347573
0.00353055
0.00357709
0.00360108
0.00362113
0.00359096
0.00357415
0.00345487
0.00337206
0.00313484
0.00293168
0.00256211
0.00218394
0.00183826
0.00213645
0.00214095
0.00214552
0.00215027
0.00215518
0.00216024
0.00216548
0.00217092
0.00217659
0.00218249
0.00218865
0.00219509
0.00220182
0.00220887
0.00221628
0.00222408
0.0022323
0.002241
0.0022502
0.00226002
0.0022704
0.00228136
0.00229301
0.00230541
0.00231874
0.0023331
0.00234861
0.00236542
0.00238368
0.00240355
0.00242524
0.00244895
0.00247489
0.00250331
0.00253443
0.00256851
0.00260579
0.00264646
0.00269073
0.0027387
0.00279046
0.00284596
0.00290502
0.00296756
0.00303295
0.00310093
0.00317018
0.00324046
0.00331029
0.00337883
0.00344526
0.00350714
0.00356525
0.00361504
0.00365878
0.0036899
0.00371147
0.00371504
0.0037027
0.00366451
0.00359459
0.00349629
0.00332511
0.0031467
0.00283657
0.00254147
0.00210373
0.00177942
0.00147004
0.00235752
0.00236363
0.0023699
0.00237644
0.00238323
0.00239029
0.00239766
0.00240537
0.00241346
0.00242196
0.00243091
0.00244035
0.00245032
0.00246088
0.00247205
0.00248396
0.00249653
0.00250982
0.00252389
0.00253886
0.00255478
0.00257184
0.00259014
0.00260978
0.00263087
0.00265353
0.00267788
0.00270404
0.00273213
0.00276227
0.00279457
0.0028291
0.00286596
0.00290518
0.00294678
0.00299073
0.00303699
0.00308541
0.00313587
0.00318809
0.00324181
0.00329669
0.00335228
0.00340822
0.00346377
0.00351879
0.00357194
0.00362314
0.00367106
0.00371463
0.00375458
0.00378598
0.00381413
0.0038285
0.00383876
0.00382928
0.00381309
0.0037681
0.00371116
0.00360593
0.00348596
0.0032872
0.00307058
0.00276786
0.0024172
0.00203897
0.00165967
0.00141305
0.0012802
0.00269218
0.00270271
0.0027135
0.0027247
0.0027363
0.00274832
0.00276083
0.00277387
0.0027875
0.00280175
0.0028166
0.0028321
0.00284833
0.00286534
0.00288321
0.00290197
0.00292178
0.00294271
0.00296479
0.00298807
0.00301259
0.00303838
0.00306548
0.0030939
0.00312366
0.00315475
0.00318715
0.00322083
0.00325576
0.00329186
0.00332904
0.00336722
0.00340625
0.003446
0.00348628
0.00352691
0.0035677
0.0036084
0.00364879
0.00368857
0.00372749
0.00376525
0.00380149
0.003836
0.00386809
0.00389793
0.0039242
0.00394723
0.00396571
0.00397804
0.00398661
0.00398266
0.00397825
0.00395278
0.0039267
0.00387275
0.00381225
0.00371391
0.00359449
0.00342031
0.00322141
0.00293608
0.00265464
0.00225491
0.00191229
0.00155097
0.00130499
0.00127259
0.00153832
0.00318619
0.00320431
0.00322302
0.00324244
0.00326253
0.00328331
0.00330477
0.00332698
0.00334994
0.0033736
0.00339795
0.00342297
0.00344863
0.00347491
0.00350175
0.00352922
0.00355685
0.00358465
0.00361259
0.00364066
0.00366884
0.00369709
0.00372538
0.00375367
0.00378189
0.00381
0.00383793
0.0038656
0.00389293
0.00391982
0.00394617
0.00397188
0.00399683
0.00402089
0.00404392
0.0040658
0.00408638
0.0041055
0.00412301
0.00413874
0.0041525
0.0041641
0.00417327
0.00417983
0.00418321
0.0041836
0.00417955
0.0041719
0.00415849
0.00413806
0.00411355
0.00407254
0.00403519
0.0039655
0.00389997
0.00379807
0.0036789
0.00352168
0.00330906
0.00307663
0.00276669
0.00244845
0.00207662
0.00170942
0.00143246
0.00120031
0.00123388
0.00156252
0.00207884
0.00399519
0.00401995
0.00404444
0.00406875
0.0040928
0.00411654
0.00414005
0.00416267
0.00418445
0.00420544
0.00422567
0.00424516
0.00426392
0.00428197
0.00429933
0.00431597
0.00433216
0.00434787
0.00436306
0.00437768
0.00439169
0.00440504
0.00441769
0.00442958
0.00444066
0.00445088
0.00446018
0.00446848
0.00447573
0.00448185
0.00448677
0.0044904
0.00449265
0.00449343
0.00449264
0.00449019
0.00448597
0.00447987
0.00447174
0.00446145
0.00444879
0.00443356
0.00441548
0.00439424
0.00436934
0.004341
0.00430722
0.00426986
0.00422384
0.00417106
0.00411225
0.00403523
0.00396327
0.00384049
0.00373359
0.00357262
0.00336904
0.00314173
0.00281064
0.0025554
0.00215345
0.00185615
0.00148078
0.00126837
0.00112654
0.00125037
0.00163972
0.00208782
0.00236022
0.00483573
0.0048484
0.00486011
0.00487092
0.00488078
0.00488969
0.00489763
0.004905
0.00491173
0.00491779
0.00492317
0.0049278
0.00493159
0.00493457
0.00493673
0.00493803
0.00493845
0.00493797
0.00493656
0.00493419
0.00493083
0.00492645
0.00492101
0.00491448
0.00490682
0.00489797
0.0048879
0.00487656
0.0048639
0.00484983
0.00483431
0.00481727
0.00479861
0.00477823
0.00475604
0.00473194
0.00470581
0.00467753
0.00464691
0.00461379
0.00457781
0.00453887
0.00449625
0.00444989
0.00439962
0.0043454
0.00428396
0.00421856
0.0041368
0.00405459
0.00396137
0.00385273
0.00373101
0.00354133
0.0033488
0.00308139
0.00276801
0.0025033
0.00212734
0.00187487
0.00150454
0.00128818
0.00107905
0.00111423
0.00133769
0.00175521
0.00206901
0.00231591
0.00242231
0.00528797
0.00529192
0.00529489
0.00529693
0.00529791
0.00529785
0.00529671
0.00529444
0.0052911
0.00528695
0.00528229
0.00527638
0.00526879
0.00526079
0.00525185
0.00524194
0.00523096
0.00521885
0.00520553
0.00519099
0.00517523
0.00515819
0.00513974
0.00511997
0.00509872
0.00507597
0.00505175
0.005026
0.0049986
0.00496935
0.00493846
0.00490573
0.00487102
0.00483424
0.00479536
0.00475432
0.004711
0.00466523
0.0046167
0.00456523
0.00451011
0.0044516
0.00438724
0.00432099
0.00425172
0.00417594
0.00408716
0.00398944
0.00386374
0.00375352
0.00357648
0.00338514
0.00315141
0.00287305
0.00261039
0.00230286
0.0020025
0.00175286
0.00144968
0.00124361
0.0010539
0.00102258
0.00117719
0.0014918
0.00182438
0.0020401
0.00222079
0.00233326
0.00251671
0.0053361
0.00533228
0.00532763
0.00532205
0.00531484
0.00530689
0.00529791
0.00528713
0.00527555
0.00526539
0.00526194
0.00524925
0.00522828
0.00522084
0.00520738
0.00519264
0.00517607
0.00515794
0.00513771
0.00511615
0.00509371
0.00506975
0.00504327
0.00501618
0.00498627
0.00495457
0.00492184
0.00488746
0.00485045
0.00480996
0.00476889
0.00472557
0.0046799
0.00463185
0.00458149
0.00452874
0.00447338
0.00441508
0.00435335
0.00428787
0.00421757
0.00414244
0.00405975
0.00396748
0.00385793
0.00372661
0.00357388
0.00340419
0.00321356
0.00301468
0.00277361
0.00255092
0.00227567
0.00202619
0.00177584
0.00150173
0.00133591
0.0011223
0.000996901
0.000969732
0.00108414
0.00133182
0.00161577
0.00179857
0.00201424
0.00210867
0.00226499
0.00235933
0.0024808
0.00493851
0.00492393
0.00491446
0.00490474
0.00488257
0.00487132
0.00485704
0.00483049
0.00481259
0.00480081
0.00477005
0.00474098
0.00471227
0.00469111
0.00465747
0.00463269
0.00460216
0.00457071
0.00452946
0.00449404
0.00446635
0.00443357
0.00438923
0.00435931
0.00430928
0.00426643
0.00423341
0.0041971
0.00415029
0.0040912
0.00405034
0.00400242
0.00395221
0.00390053
0.00384738
0.00379213
0.00373376
0.00367086
0.0036021
0.00352565
0.00343978
0.003343
0.00323174
0.00310672
0.00296431
0.00281759
0.00265479
0.00247707
0.00228977
0.00207688
0.00184823
0.00163456
0.00140434
0.00124117
0.00108401
0.000946556
0.000928309
0.000929953
0.00102641
0.00123962
0.00143777
0.0015879
0.00178538
0.00187595
0.00202302
0.00211415
0.00220586
0.00231201
0.00245371
0.00390691
0.00388655
0.00386566
0.00384442
0.00382235
0.00379955
0.00377607
0.00375185
0.00372693
0.00370159
0.00367503
0.00364742
0.0036188
0.00358941
0.00355903
0.00352794
0.00349597
0.00346317
0.00342942
0.00339504
0.00336014
0.00332446
0.00328787
0.00325074
0.00321257
0.00317378
0.00313582
0.0031063
0.00306218
0.00303002
0.00297953
0.0029415
0.0028999
0.00285543
0.00280684
0.00275316
0.00269308
0.00262505
0.00254867
0.00246214
0.00236657
0.00225917
0.00214077
0.0020156
0.00187219
0.00175386
0.00159257
0.00147316
0.00130847
0.00112865
0.000990271
0.0008847
0.000815652
0.000796058
0.000808901
0.000879797
0.000987796
0.00112551
0.00124451
0.0014214
0.00153371
0.00163688
0.00177261
0.00185759
0.00191556
0.00193995
0.00200449
0.00211605
0.00225693
0.00213756
0.00212206
0.00210655
0.00209589
0.00208319
0.00206449
0.00204717
0.00203495
0.00201534
0.00199685
0.00197823
0.00195966
0.00194109
0.00192193
0.00190245
0.00188313
0.00186333
0.00184333
0.00182269
0.00180194
0.00178058
0.00175892
0.001737
0.00171476
0.00169217
0.00166912
0.00164561
0.00162156
0.00159654
0.00156837
0.00154135
0.00149975
0.00146328
0.00142233
0.00137655
0.00132676
0.00127292
0.00121589
0.00115767
0.00109549
0.0010374
0.000972678
0.000920917
0.00085743
0.000817808
0.000769914
0.000731244
0.000692819
0.000667138
0.000673219
0.000691069
0.000719271
0.000762041
0.000816029
0.000890826
0.000975727
0.00107184
0.00116643
0.00121338
0.00129299
0.00134358
0.00131658
0.00131311
0.00135405
0.00138436
0.00139806
0.00141826
0.00146402
0.0015028
0.000386338
0.000391115
0.00039043
0.000393294
0.000390116
0.000394343
0.000392356
0.000396239
0.000394074
0.000395224
0.000395255
0.000398987
0.000401779
0.000399872
0.000399688
0.000403936
0.00040357
0.00040593
0.000404338
0.000407725
0.000406901
0.000408564
0.000409384
0.000410023
0.000410515
0.000410991
0.00041148
0.000411974
0.000412458
0.000412908
0.000413328
0.000413684
0.00041398
0.000414188
0.000414308
0.000414299
0.000414162
0.000413827
0.000413298
0.000412465
0.000411336
0.000409745
0.000407689
0.000404982
0.00040149
0.000397045
0.000391354
0.000384144
0.000374937
0.00036314
0.000348162
0.00032921
0.000305885
0.000281491
0.000276354
0.00029874
0.000319152
0.00032469
0.000318282
0.000303644
0.000284651
0.00027414
0.000251224
0.000256547
0.000231771
0.000235338
0.000230822
0.000229316
0.000229091
0.00132671
0.00132622
0.00132541
0.00132485
0.00132364
0.00132261
0.0013211
0.00131907
0.00131778
0.00131624
0.00131483
0.00131394
0.00131312
0.001312
0.00131056
0.00130837
0.00131027
0.00131189
0.00131278
0.00131309
0.00131485
0.00131654
0.00131662
0.00131662
0.00131772
0.00131944
0.00132312
0.00132691
0.00132884
0.00132867
0.00132665
0.00132672
0.00132811
0.00132903
0.00133014
0.00133055
0.00133063
0.00133164
0.00133015
0.00132966
0.00132686
0.00132803
0.00132827
0.00132855
0.00132874
0.00132727
0.00132721
0.00132718
0.0013274
0.00132657
0.00132545
0.00132561
0.00132556
0.00132553
0.00132631
0.00132656
0.0013266
0.00132637
0.00132633
0.00133329
0.00133248
0.0013316
0.00133054
0.00132926
0.00132804
0.00132661
0.00132527
0.00132421
0.00132283
0.00132156
0.00131908
0.00131795
0.00131633
0.00131569
0.00131571
0.00131843
0.00131931
0.00131987
0.00132008
0.00132233
0.00132237
0.0013233
0.00132336
0.00132411
0.0013264
0.00133034
0.00133363
0.00133522
0.00133499
0.00133333
0.0013332
0.001333
0.00133483
0.00133652
0.00133737
0.00133721
0.00133764
0.00133791
0.00133646
0.00133453
0.00133428
0.00133466
0.00133519
0.00133585
0.00133521
0.00133451
0.00133467
0.00133373
0.00133508
0.00133454
0.00133364
0.00133322
0.00133261
0.00133264
0.0013328
0.00133306
0.00133331
0.00133355
0.00133932
0.00133849
0.00133748
0.00133639
0.00133527
0.00133412
0.00133291
0.00133164
0.00133029
0.00132839
0.00132669
0.00132476
0.00132423
0.00132373
0.00132413
0.00132565
0.00132688
0.00132749
0.00132789
0.00132912
0.00132989
0.00133044
0.00133068
0.00133099
0.00133212
0.00133426
0.00133828
0.00134114
0.00134253
0.0013423
0.00134093
0.00134065
0.0013409
0.00134186
0.00134338
0.00134478
0.00134473
0.00134494
0.00134562
0.00134512
0.00134304
0.00134224
0.0013422
0.0013425
0.00134341
0.0013437
0.0013431
0.00134342
0.00134261
0.00134258
0.00134317
0.00134321
0.00134322
0.00134275
0.00134231
0.001342
0.00134185
0.00134181
0.00134192
0.00134936
0.00134846
0.00134741
0.00134623
0.00134494
0.00134341
0.00134159
0.00133964
0.00133678
0.00133593
0.00133414
0.00133429
0.00133414
0.00133435
0.00133504
0.00133567
0.00133601
0.00133631
0.00133792
0.00133841
0.00133895
0.00133943
0.00133965
0.00134017
0.00134122
0.00134371
0.00134748
0.00134994
0.00135118
0.00135092
0.00134978
0.00134934
0.00134955
0.00135022
0.00135191
0.00135363
0.00135368
0.00135366
0.00135443
0.00135449
0.00135409
0.00135208
0.00135162
0.00135174
0.00135212
0.00135308
0.00135287
0.00135337
0.0013534
0.00135311
0.00135318
0.00135328
0.00135348
0.00135354
0.00135347
0.00135333
0.0013532
0.00135303
0.001353
0.00135655
0.001356
0.00135397
0.00135303
0.0013508
0.0013486
0.00134796
0.001346
0.00134549
0.0013443
0.0013444
0.00134412
0.00134473
0.00134438
0.00134553
0.00134558
0.00134646
0.00134791
0.00134909
0.00134894
0.00134926
0.00134965
0.00134962
0.0013505
0.00135162
0.00135434
0.00135798
0.00136012
0.00136123
0.00136096
0.00135998
0.00135941
0.00135957
0.00136011
0.00136153
0.00136368
0.00136433
0.00136433
0.0013647
0.00136485
0.00136479
0.00136417
0.00136279
0.0013627
0.00136318
0.00136374
0.00136407
0.00136407
0.0013643
0.00136456
0.0013649
0.00136518
0.00136542
0.0013656
0.00136572
0.0013658
0.00136589
0.0013659
0.00136601
0.00136366
0.00136201
0.00136093
0.00136087
0.00136009
0.00135962
0.00135904
0.00135772
0.00135807
0.00135708
0.00135825
0.00135727
0.00135792
0.00135921
0.00135937
0.00136018
0.00136145
0.00136183
0.0013615
0.00136147
0.00136165
0.00136194
0.00136236
0.00136325
0.00136443
0.00136734
0.00137049
0.00137234
0.00137335
0.00137306
0.00137223
0.00137157
0.00137173
0.0013723
0.00137342
0.00137578
0.0013768
0.00137718
0.00137757
0.00137811
0.00137847
0.00137846
0.00137721
0.00137587
0.00137579
0.00137726
0.00137827
0.00137893
0.00137898
0.00137845
0.00137825
0.00137852
0.00137907
0.00137964
0.0013801
0.00138038
0.00138059
0.00138061
0.00138076
0.00137701
0.00137619
0.00137444
0.0013747
0.00137432
0.00137405
0.00137376
0.00137407
0.00137394
0.0013732
0.00137379
0.00137437
0.00137447
0.00137463
0.00137497
0.00137528
0.00137569
0.00137521
0.00137525
0.00137553
0.00137583
0.00137614
0.00137674
0.00137762
0.00137882
0.00138222
0.00138496
0.0013866
0.00138753
0.00138722
0.00138652
0.00138577
0.00138586
0.00138651
0.00138756
0.00138937
0.00139149
0.00139186
0.0013922
0.00139261
0.00139321
0.00139385
0.00139438
0.00139361
0.00139153
0.00139131
0.00139217
0.0013941
0.00139581
0.00139701
0.00139704
0.00139615
0.00139539
0.00139519
0.00139556
0.00139621
0.00139704
0.0013977
0.00139832
0.001394
0.00139407
0.00139419
0.00139477
0.00139319
0.00139295
0.00139325
0.00139151
0.00139184
0.00139151
0.00139288
0.00139252
0.00139257
0.00139309
0.00139343
0.00139314
0.00139364
0.0013934
0.00139378
0.00139398
0.00139408
0.00139418
0.00139447
0.00139541
0.00139698
0.00140027
0.00140246
0.00140394
0.00140478
0.0014045
0.00140385
0.0014031
0.00140311
0.0014039
0.00140489
0.0014068
0.00140831
0.00141041
0.00141055
0.00141135
0.00141205
0.00141219
0.00141262
0.00141337
0.0014137
0.00141185
0.00141173
0.00141223
0.00141201
0.00141446
0.00141645
0.00141869
0.00142012
0.00142004
0.00141893
0.00141791
0.00141675
0.00141757
0.00141861
0.00142201
0.00142125
0.00141997
0.00141912
0.00141869
0.00141763
0.00141755
0.00141728
0.00141765
0.00141719
0.00141652
0.00141673
0.00141597
0.00141481
0.00141423
0.00141407
0.00141402
0.00141399
0.00141404
0.00141392
0.00141385
0.00141397
0.00141445
0.00141608
0.00141817
0.00142077
0.00142273
0.00142418
0.00142498
0.00142474
0.0014241
0.00142338
0.00142332
0.00142408
0.00142515
0.00142653
0.00142887
0.00142949
0.00143188
0.00143144
0.0014321
0.0014344
0.00143531
0.00143618
0.00143668
0.00143705
0.00143592
0.00143433
0.00143467
0.00143524
0.00143771
0.00143735
0.00143913
0.00144086
0.00144167
0.00144347
0.00144573
0.00144655
0.00144595
0.00145903
0.00145696
0.00145609
0.00145555
0.00145399
0.0014526
0.00145132
0.00144989
0.00144807
0.00144768
0.00144691
0.00144549
0.00144356
0.00144299
0.00144233
0.00144145
0.00144032
0.00143966
0.00143964
0.00143984
0.00144011
0.00143984
0.00144025
0.00144201
0.00144408
0.00144614
0.00144784
0.00144911
0.00144984
0.00144964
0.00144903
0.00144835
0.00144827
0.00144903
0.00145005
0.00145172
0.00145358
0.00145621
0.00145626
0.00145901
0.00145919
0.00145872
0.0014605
0.00146098
0.00146451
0.00146577
0.00146664
0.00146716
0.00146452
0.00146405
0.00146549
0.00146875
0.00146801
0.00146864
0.00146872
0.00146874
0.00147252
0.00147632
0.00147954
0.00149118
0.0014878
0.00148716
0.00148584
0.00148458
0.00148322
0.00148201
0.00148067
0.00147941
0.00147823
0.00147692
0.00147567
0.0014745
0.00147369
0.00147293
0.00147234
0.00147187
0.00147182
0.00147086
0.00147
0.00146916
0.00146912
0.00146959
0.00147115
0.00147319
0.00147527
0.00147701
0.00147828
0.00147901
0.00147884
0.00147825
0.00147765
0.00147755
0.00147819
0.00147948
0.00148033
0.00148258
0.00148425
0.00148683
0.00148701
0.00148988
0.00149119
0.0014893
0.00149214
0.00149274
0.00149579
0.0014947
0.00149689
0.00149962
0.00149972
0.00149971
0.00150087
0.00150113
0.00150249
0.00150188
0.00150204
0.00150214
0.0015006
0.00150179
0.00152759
0.00152634
0.00152516
0.00152391
0.00152263
0.0015213
0.00152002
0.00151868
0.00151738
0.0015161
0.00151486
0.00151376
0.00151279