/*--------------------------------*- C++ -*----------------------------------*\
| =========                 |                                                 |
| \\      /  F ield         | OpenFOAM: The Open Source CFD Toolbox           |
|  \\    /   O peration     | Version:  2312                                  |
|   \\  /    A nd           | Website:  www.openfoam.com                      |
|    \\/     M anipulation  |                                                 |
\*---------------------------------------------------------------------------*/
FoamFile
{
    version     2.0;
    format      ascii;
    arch        "LSB;label=32;scalar=64";
    class       volScalarField;
    location    "300";
    object      p;
}
// * * * * * * * * * * * * * * * * * * * * * * * * * * * * * * * * * * * * * //

dimensions      [0 2 -2 0 0 0 0];

internalField   nonuniform List<scalar> 
76025
(
0.030677
0.0249495
0.0191106
0.0132319
0.00737516
0.00143951
-0.00469443
-0.0106424
-0.0167396
-0.0227635
-0.0288222
-0.0349138
-0.0410388
-0.0471244
-0.0532739
-0.0593848
-0.0653848
-0.0714386
-0.0774649
-0.0833852
-0.0892204
-0.0951252
-0.1009
-0.10654
-0.112126
-0.117555
-0.123042
-0.12847
-0.13356
-0.138805
-0.143752
-0.148474
-0.153208
-0.157803
-0.162216
-0.166438
-0.1704
-0.17453
-0.178389
-0.18205
-0.185433
-0.188676
-0.192106
-0.195195
-0.198041
-0.200667
-0.203323
-0.205808
-0.207927
-0.210015
-0.212036
-0.213834
-0.215582
-0.21728
-0.218805
-0.219863
-0.221234
-0.222314
-0.223372
-0.224438
-0.225287
-0.226195
-0.227088
-0.228023
-0.228831
-0.22937
-0.230318
-0.23176
-0.232566
0.0296352
0.0235917
0.0175105
0.0113661
0.00516667
-0.00110238
-0.00738091
-0.0136817
-0.020026
-0.0263833
-0.0327627
-0.0391471
-0.0455336
-0.0519178
-0.0582705
-0.0645786
-0.0708997
-0.0771525
-0.0834132
-0.0895731
-0.0957208
-0.101777
-0.107742
-0.113602
-0.119397
-0.125121
-0.130762
-0.136225
-0.141556
-0.146781
-0.151857
-0.15688
-0.161748
-0.166405
-0.17094
-0.175292
-0.179519
-0.183605
-0.187497
-0.191249
-0.194801
-0.198235
-0.201533
-0.204593
-0.207508
-0.210267
-0.212912
-0.215359
-0.217642
-0.219841
-0.221941
-0.223884
-0.225716
-0.227449
-0.229035
-0.230477
-0.231943
-0.233284
-0.234552
-0.23578
-0.237016
-0.238279
-0.239483
-0.240729
-0.241986
-0.243302
-0.244823
-0.246588
-0.248082
0.0283564
0.0220271
0.0156492
0.00919176
0.00266825
-0.00388214
-0.0104612
-0.0170778
-0.0237228
-0.0303914
-0.0370692
-0.043744
-0.0504135
-0.0570675
-0.063689
-0.0702939
-0.0768671
-0.0834008
-0.0898863
-0.0963178
-0.10268
-0.108954
-0.115141
-0.12124
-0.127248
-0.133156
-0.138933
-0.144574
-0.150091
-0.155474
-0.160739
-0.165873
-0.170829
-0.175612
-0.180239
-0.1847
-0.188993
-0.19312
-0.197089
-0.200899
-0.204532
-0.207998
-0.211304
-0.214449
-0.217439
-0.220267
-0.222946
-0.225476
-0.227865
-0.230128
-0.232278
-0.234306
-0.236227
-0.238057
-0.239791
-0.241429
-0.243021
-0.244565
-0.246073
-0.247578
-0.249099
-0.250656
-0.25225
-0.253923
-0.255689
-0.257583
-0.259645
-0.262036
-0.264328
0.0268838
0.0202393
0.0135369
0.0067544
-8.59637e-05
-0.00696245
-0.0138702
-0.0208068
-0.0277645
-0.0347372
-0.041716
-0.048693
-0.055661
-0.0626121
-0.0695371
-0.0764311
-0.0832837
-0.0900878
-0.0968336
-0.103513
-0.110114
-0.116629
-0.123051
-0.129371
-0.135581
-0.141673
-0.147637
-0.153468
-0.15916
-0.164707
-0.170106
-0.175346
-0.180417
-0.185316
-0.190042
-0.194593
-0.198968
-0.203173
-0.207211
-0.211077
-0.214766
-0.218284
-0.221639
-0.224832
-0.22786
-0.230729
-0.23345
-0.236029
-0.238472
-0.240792
-0.243004
-0.245112
-0.247126
-0.249057
-0.250915
-0.25271
-0.254469
-0.256212
-0.25795
-0.25971
-0.261518
-0.263398
-0.26537
-0.267462
-0.269708
-0.272158
-0.27483
-0.277894
-0.281002
0.0251678
0.0181854
0.0111442
0.00402146
-0.00315854
-0.0103762
-0.0176226
-0.0248931
-0.0321822
-0.039483
-0.0467872
-0.0540864
-0.0613719
-0.0686353
-0.0758677
-0.0830598
-0.0902034
-0.0972897
-0.104309
-0.111253
-0.11811
-0.124873
-0.131532
-0.138077
-0.144501
-0.150796
-0.156954
-0.162967
-0.168826
-0.174526
-0.180063
-0.18543
-0.190621
-0.19563
-0.200454
-0.205091
-0.209542
-0.213812
-0.217903
-0.221814
-0.225546
-0.229103
-0.232489
-0.235708
-0.238764
-0.241665
-0.244419
-0.247036
-0.249523
-0.251894
-0.254161
-0.256336
-0.25843
-0.260456
-0.262429
-0.264366
-0.266288
-0.268216
-0.270173
-0.272183
-0.274274
-0.276475
-0.278815
-0.281328
-0.284055
-0.28705
-0.290341
-0.294114
-0.298093
0.0231647
0.0158237
0.00842412
0.00094064
-0.0066006
-0.0141778
-0.0217815
-0.0294069
-0.0370484
-0.0446982
-0.0523474
-0.0599864
-0.0676062
-0.0751974
-0.0827505
-0.0902562
-0.0977052
-0.105088
-0.112394
-0.119614
-0.126738
-0.133756
-0.140658
-0.147436
-0.15408
-0.160582
-0.166934
-0.173127
-0.179154
-0.185008
-0.190684
-0.196177
-0.20148
-0.206588
-0.211499
-0.21621
-0.220724
-0.225047
-0.229182
-0.23313
-0.236892
-0.240474
-0.243879
-0.247114
-0.250187
-0.253104
-0.255876
-0.258514
-0.261029
-0.263434
-0.265743
-0.267971
-0.270133
-0.272243
-0.274321
-0.276386
-0.278459
-0.280564
-0.282728
-0.284978
-0.287344
-0.289859
-0.29256
-0.295484
-0.298683
-0.302217
-0.306129
-0.310617
-0.315419
0.0208328
0.0131109
0.00533031
-0.00253641
-0.0104609
-0.0184196
-0.0264024
-0.0344041
-0.0424183
-0.0504365
-0.0584491
-0.066446
-0.0744175
-0.0823534
-0.0902437
-0.0980784
-0.105847
-0.113539
-0.121145
-0.128653
-0.136053
-0.143334
-0.150487
-0.157503
-0.164371
-0.171084
-0.177631
-0.184005
-0.190199
-0.196205
-0.202017
-0.207629
-0.213038
-0.218238
-0.223226
-0.228002
-0.23257
-0.236936
-0.241103
-0.245073
-0.248851
-0.25244
-0.255848
-0.259083
-0.262153
-0.265068
-0.26784
-0.270481
-0.273006
-0.275428
-0.277764
-0.28003
-0.282245
-0.284425
-0.286593
-0.288769
-0.290979
-0.293248
-0.295606
-0.298081
-0.300709
-0.303525
-0.306575
-0.309899
-0.313564
-0.31763
-0.322163
-0.327357
-0.332945
0.0181237
0.00999786
0.00181303
-0.0064601
-0.0147908
-0.0231537
-0.031538
-0.0399379
-0.0483465
-0.0567543
-0.0651509
-0.0735256
-0.0818679
-0.0901668
-0.0984117
-0.106591
-0.114695
-0.122711
-0.130629
-0.138436
-0.146123
-0.153677
-0.16109
-0.16835
-0.175447
-0.182372
-0.189115
-0.19567
-0.202028
-0.208182
-0.214125
-0.219853
-0.225359
-0.230641
-0.235697
-0.240527
-0.245136
-0.24953
-0.253713
-0.257688
-0.261462
-0.26504
-0.268431
-0.271644
-0.274691
-0.277583
-0.280334
-0.282958
-0.285471
-0.28789
-0.290233
-0.292519
-0.294767
-0.297
-0.299239
-0.30151
-0.303838
-0.306253
-0.308786
-0.311468
-0.314342
-0.317443
-0.320827
-0.324539
-0.328658
-0.33325
-0.338392
-0.344282
-0.350732
0.0149792
0.00642373
-0.00219048
-0.0108949
-0.0196567
-0.0284482
-0.0372579
-0.0460797
-0.0549056
-0.0637256
-0.0725281
-0.0813016
-0.0900347
-0.098716
-0.107334
-0.115876
-0.124331
-0.132686
-0.140929
-0.149049
-0.157033
-0.164871
-0.17255
-0.18006
-0.18739
-0.19453
-0.201472
-0.208206
-0.214724
-0.221021
-0.227088
-0.232921
-0.238516
-0.243869
-0.248979
-0.253846
-0.258479
-0.262883
-0.267062
-0.271022
-0.27477
-0.278315
-0.281665
-0.284834
-0.287833
-0.290678
-0.293383
-0.295966
-0.298443
-0.300835
-0.303162
-0.305444
-0.307705
-0.309967
-0.312256
-0.314598
-0.317024
-0.319562
-0.322249
-0.325119
-0.328216
-0.331583
-0.335284
-0.339367
-0.343922
-0.349022
-0.354745
-0.361308
-0.368468
0.0113369
0.00232328
-0.00674821
-0.0159116
-0.0251317
-0.0343789
-0.0436409
-0.0529107
-0.0621796
-0.0714364
-0.080669
-0.089865
-0.0990115
-0.108096
-0.117106
-0.126029
-0.134852
-0.143562
-0.152146
-0.160591
-0.168885
-0.177015
-0.184969
-0.192734
-0.200301
-0.207659
-0.214798
-0.221709
-0.228384
-0.234816
-0.240998
-0.246926
-0.252596
-0.258004
-0.263151
-0.268038
-0.272673
-0.277064
-0.281216
-0.285136
-0.288832
-0.292316
-0.295598
-0.298694
-0.301617
-0.304385
-0.307016
-0.309527
-0.311941
-0.314278
-0.31656
-0.318812
-0.321057
-0.323323
-0.325636
-0.328025
-0.330522
-0.333159
-0.335974
-0.339007
-0.342305
-0.345919
-0.34991
-0.354343
-0.359301
-0.36487
-0.371126
-0.378313
-0.386074
0.00712355
-0.0023777
-0.0119358
-0.0215878
-0.0312959
-0.0410282
-0.0507709
-0.0605165
-0.0702552
-0.0799753
-0.0896636
-0.0993064
-0.10889
-0.1184
-0.127825
-0.137149
-0.146359
-0.155441
-0.164381
-0.173165
-0.18178
-0.190213
-0.19845
-0.206479
-0.214287
-0.221864
-0.229199
-0.236285
-0.243111
-0.24967
-0.255957
-0.261967
-0.267696
-0.273141
-0.278304
-0.283187
-0.287801
-0.292152
-0.296248
-0.300097
-0.303711
-0.307101
-0.310282
-0.31327
-0.316083
-0.31874
-0.321261
-0.323668
-0.325983
-0.328231
-0.330437
-0.332626
-0.334825
-0.337064
-0.33937
-0.341776
-0.344316
-0.347023
-0.349941
-0.35311
-0.356584
-0.360417
-0.36467
-0.369418
-0.374732
-0.380714
-0.387429
-0.395131
-0.403401
0.00224617
-0.0077736
-0.0178493
-0.0280212
-0.0382485
-0.0484965
-0.0587505
-0.0690016
-0.0792394
-0.089451
-0.0996218
-0.109737
-0.119783
-0.129744
-0.139606
-0.149353
-0.15897
-0.168441
-0.177753
-0.18689
-0.195839
-0.204583
-0.213111
-0.221408
-0.229462
-0.237259
-0.244791
-0.252046
-0.259016
-0.265694
-0.272072
-0.278147
-0.283916
-0.289377
-0.294531
-0.299385
-0.303948
-0.308228
-0.312235
-0.315978
-0.319472
-0.32273
-0.325771
-0.328612
-0.331274
-0.333778
-0.336149
-0.338411
-0.340589
-0.342709
-0.3448
-0.34689
-0.349007
-0.351183
-0.353449
-0.355839
-0.358389
-0.361137
-0.364128
-0.367405
-0.371025
-0.375041
-0.379518
-0.384529
-0.390143
-0.396471
-0.403557
-0.411647
-0.420316
-0.00340124
-0.0139755
-0.0246039
-0.0353302
-0.0461104
-0.0569073
-0.0677046
-0.0784931
-0.0892614
-0.0999952
-0.110679
-0.121296
-0.131832
-0.142269
-0.152593
-0.162785
-0.172831
-0.182713
-0.192414
-0.20192
-0.211215
-0.220282
-0.229107
-0.237677
-0.245977
-0.253995
-0.261719
-0.269138
-0.276242
-0.283023
-0.289477
-0.295597
-0.301383
-0.306834
-0.311952
-0.316743
-0.32122
-0.325392
-0.329269
-0.332865
-0.336194
-0.339275
-0.342127
-0.344773
-0.347236
-0.349541
-0.351714
-0.353783
-0.355777
-0.357725
-0.359658
-0.361605
-0.3636
-0.365674
-0.367862
-0.370201
-0.372727
-0.375483
-0.378514
-0.381865
-0.385592
-0.389746
-0.394395
-0.399602
-0.405442
-0.412018
-0.419363
-0.427772
-0.436911
-0.00994268
-0.0211102
-0.0323295
-0.0436476
-0.0550174
-0.0663988
-0.0777745
-0.0891346
-0.100467
-0.111755
-0.122984
-0.134134
-0.145189
-0.156131
-0.166942
-0.177605
-0.188102
-0.198415
-0.208526
-0.218417
-0.228072
-0.237474
-0.246606
-0.255454
-0.264002
-0.272238
-0.280148
-0.287721
-0.294947
-0.301818
-0.308327
-0.314471
-0.320247
-0.325656
-0.330701
-0.335392
-0.339741
-0.343758
-0.347457
-0.350853
-0.353965
-0.356814
-0.359422
-0.361816
-0.364023
-0.366071
-0.36799
-0.369811
-0.371568
-0.373291
-0.375015
-0.376773
-0.378599
-0.38053
-0.3826
-0.384849
-0.387315
-0.390042
-0.393073
-0.396454
-0.400238
-0.404475
-0.40923
-0.414559
-0.420533
-0.427233
-0.434678
-0.443256
-0.452358
-0.0175204
-0.0293225
-0.0411734
-0.0531244
-0.0651246
-0.0771307
-0.0891242
-0.101094
-0.113027
-0.124906
-0.136713
-0.148429
-0.160034
-0.17151
-0.182838
-0.193998
-0.204971
-0.215736
-0.226276
-0.23657
-0.2466
-0.256347
-0.265795
-0.274926
-0.283724
-0.292175
-0.300264
-0.307981
-0.315314
-0.322254
-0.328796
-0.334934
-0.340668
-0.345998
-0.350929
-0.355474
-0.359644
-0.363453
-0.366916
-0.370052
-0.372883
-0.375434
-0.377732
-0.379807
-0.38169
-0.383413
-0.385013
-0.386523
-0.387979
-0.389419
-0.390878
-0.392394
-0.394004
-0.395744
-0.397653
-0.399769
-0.402133
-0.404784
-0.407765
-0.411122
-0.414901
-0.419156
-0.423941
-0.429312
-0.435328
-0.442049
-0.449497
-0.457969
-0.466718
-0.0263018
-0.0387828
-0.0513094
-0.0639371
-0.0766113
-0.0892854
-0.101939
-0.114561
-0.127136
-0.139645
-0.152068
-0.164386
-0.176577
-0.188621
-0.200496
-0.212182
-0.223657
-0.2349
-0.245889
-0.256604
-0.267024
-0.27713
-0.286901
-0.29632
-0.305369
-0.314031
-0.322293
-0.33014
-0.337561
-0.344548
-0.351093
-0.357192
-0.362844
-0.36805
-0.372817
-0.377161
-0.381092
-0.384627
-0.387785
-0.390589
-0.393063
-0.395239
-0.397146
-0.398821
-0.4003
-0.40162
-0.402823
-0.403947
-0.405033
-0.406123
-0.407256
-0.408472
-0.40981
-0.411308
-0.413005
-0.414938
-0.417144
-0.419662
-0.422533
-0.425799
-0.429504
-0.433699
-0.438432
-0.443756
-0.449727
-0.456425
-0.463912
-0.472475
-0.481634
-0.0364977
-0.0497065
-0.0629569
-0.0763092
-0.0897048
-0.103094
-0.116454
-0.129772
-0.143033
-0.156215
-0.169297
-0.182257
-0.195072
-0.207719
-0.220176
-0.23242
-0.244426
-0.256173
-0.267636
-0.278792
-0.28962
-0.300096
-0.3102
-0.319911
-0.32921
-0.338079
-0.346502
-0.354464
-0.361952
-0.368957
-0.375471
-0.38149
-0.387012
-0.392041
-0.396585
-0.40066
-0.40428
-0.407463
-0.410232
-0.412615
-0.414641
-0.416346
-0.417767
-0.418946
-0.419925
-0.420749
-0.421465
-0.422118
-0.422755
-0.423419
-0.424155
-0.425005
-0.426007
-0.4272
-0.428622
-0.430307
-0.432291
-0.43461
-0.4373
-0.440401
-0.443954
-0.448001
-0.452588
-0.457771
-0.463631
-0.470309
-0.477943
-0.486943
-0.496768
-0.0483483
-0.0623379
-0.0763642
-0.0904932
-0.104662
-0.118816
-0.132933
-0.146997
-0.160992
-0.174894
-0.188681
-0.202327
-0.215808
-0.2291
-0.242177
-0.255014
-0.267586
-0.279866
-0.291829
-0.30345
-0.314704
-0.325566
-0.336013
-0.346022
-0.355571
-0.364641
-0.373212
-0.38127
-0.388799
-0.395789
-0.402231
-0.408121
-0.413457
-0.418244
-0.422493
-0.426219
-0.429438
-0.432174
-0.434452
-0.436307
-0.437774
-0.438895
-0.439716
-0.440285
-0.440653
-0.440872
-0.440997
-0.441079
-0.44117
-0.441319
-0.441572
-0.441972
-0.442559
-0.443371
-0.444442
-0.445805
-0.447493
-0.449539
-0.451973
-0.454831
-0.458144
-0.46195
-0.466298
-0.471276
-0.477014
-0.483702
-0.491529
-0.50083
-0.511161
-0.0621889
-0.0770173
-0.0918771
-0.10684
-0.121838
-0.136814
-0.151742
-0.166607
-0.181388
-0.196062
-0.210602
-0.224983
-0.239177
-0.253157
-0.266896
-0.280367
-0.293539
-0.306387
-0.31888
-0.330991
-0.342693
-0.353957
-0.364758
-0.37507
-0.384868
-0.394131
-0.402836
-0.410966
-0.418505
-0.425439
-0.43176
-0.437461
-0.442542
-0.447007
-0.450871
-0.454148
-0.456859
-0.459031
-0.460696
-0.461894
-0.462669
-0.46307
-0.463152
-0.462972
-0.462591
-0.462071
-0.461473
-0.460857
-0.460282
-0.459801
-0.459464
-0.459315
-0.459394
-0.459737
-0.460374
-0.461337
-0.462653
-0.464349
-0.46645
-0.468979
-0.471964
-0.475454
-0.479527
-0.484318
-0.489983
-0.496672
-0.504501
-0.513493
-0.523648
-0.0784069
-0.0941378
-0.109893
-0.125753
-0.141644
-0.157504
-0.173306
-0.189032
-0.20466
-0.220165
-0.235517
-0.250689
-0.26565
-0.280371
-0.294821
-0.308969
-0.322785
-0.336236
-0.349292
-0.36192
-0.374091
-0.385773
-0.396936
-0.407553
-0.417594
-0.427036
-0.435853
-0.444025
-0.451533
-0.458362
-0.464501
-0.469943
-0.474685
-0.478736
-0.482109
-0.484821
-0.486898
-0.48837
-0.489275
-0.48966
-0.489578
-0.489087
-0.488254
-0.487146
-0.485837
-0.484401
-0.48291
-0.481434
-0.480041
-0.478791
-0.477736
-0.476924
-0.476393
-0.476175
-0.476298
-0.476786
-0.477658
-0.47893
-0.480617
-0.482744
-0.485361
-0.488546
-0.492415
-0.497087
-0.502643
-0.509092
-0.516429
-0.524579
-0.533739
-0.0976545
-0.114359
-0.13108
-0.147906
-0.164758
-0.181568
-0.198308
-0.214959
-0.231495
-0.247889
-0.264109
-0.280125
-0.295903
-0.311411
-0.326616
-0.341484
-0.355981
-0.37007
-0.383718
-0.39689
-0.40955
-0.421664
-0.433199
-0.444122
-0.454401
-0.464008
-0.472914
-0.481095
-0.488528
-0.495195
-0.501082
-0.506181
-0.510487
-0.514007
-0.516758
-0.518758
-0.520034
-0.520623
-0.520571
-0.519933
-0.518772
-0.51716
-0.515177
-0.512908
-0.510441
-0.507865
-0.505269
-0.502737
-0.500346
-0.498165
-0.496251
-0.494653
-0.493406
-0.492539
-0.492071
-0.492013
-0.492371
-0.493155
-0.494394
-0.496141
-0.498475
-0.501476
-0.505195
-0.509626
-0.514699
-0.520419
-0.526795
-0.533807
-0.540851
-0.120519
-0.138259
-0.156002
-0.173848
-0.191713
-0.209527
-0.227258
-0.244885
-0.262381
-0.279716
-0.296854
-0.313761
-0.330403
-0.346743
-0.362744
-0.378369
-0.393581
-0.40834
-0.422607
-0.436344
-0.44951
-0.462069
-0.47398
-0.485208
-0.495715
-0.505468
-0.514434
-0.522584
-0.52989
-0.53633
-0.541886
-0.546545
-0.550303
-0.553167
-0.55515
-0.556272
-0.556564
-0.556066
-0.554832
-0.552927
-0.550428
-0.547423
-0.54401
-0.540295
-0.536387
-0.532401
-0.528445
-0.524625
-0.521035
-0.517752
-0.514839
-0.512338
-0.510275
-0.508666
-0.507519
-0.506843
-0.506654
-0.506988
-0.507899
-0.509437
-0.511614
-0.514401
-0.51769
-0.521413
-0.525606
-0.530385
-0.535457
-0.540491
-0.543993
-0.14756
-0.166395
-0.185229
-0.204159
-0.2231
-0.24198
-0.260768
-0.279438
-0.29796
-0.316299
-0.33442
-0.352285
-0.369854
-0.38709
-0.403951
-0.420395
-0.43638
-0.451864
-0.466802
-0.481152
-0.494868
-0.507906
-0.520224
-0.531778
-0.542526
-0.552428
-0.561444
-0.569537
-0.576676
-0.582828
-0.58797
-0.592082
-0.595155
-0.597192
-0.598201
-0.598206
-0.597241
-0.595356
-0.592615
-0.589096
-0.584895
-0.580123
-0.574901
-0.569365
-0.563657
-0.557919
-0.552293
-0.546912
-0.541888
-0.537311
-0.533242
-0.529713
-0.526736
-0.524311
-0.522455
-0.521206
-0.520613
-0.520705
-0.52146
-0.522809
-0.524602
-0.526726
-0.529169
-0.532086
-0.535541
-0.539086
-0.542173
-0.544759
-0.545836
-0.177288
-0.197316
-0.217312
-0.237405
-0.257508
-0.277545
-0.297478
-0.317279
-0.336914
-0.356346
-0.375536
-0.394443
-0.413026
-0.43124
-0.449039
-0.466377
-0.483209
-0.499486
-0.515159
-0.530177
-0.544493
-0.558054
-0.570812
-0.582717
-0.593721
-0.603775
-0.612833
-0.620851
-0.627789
-0.633609
-0.638277
-0.64177
-0.644078
-0.645197
-0.645131
-0.643899
-0.641535
-0.638088
-0.63363
-0.628252
-0.622066
-0.615206
-0.607825
-0.600094
-0.592199
-0.584327
-0.576661
-0.569372
-0.562602
-0.556465
-0.551042
-0.546381
-0.542509
-0.539422
-0.537107
-0.535549
-0.534713
-0.534517
-0.534817
-0.535493
-0.536465
-0.537866
-0.539861
-0.542173
-0.544284
-0.54581
-0.546881
-0.547809
-0.548045
-0.212728
-0.234027
-0.255346
-0.276756
-0.29817
-0.319514
-0.340748
-0.361839
-0.382749
-0.403439
-0.423866
-0.443986
-0.463752
-0.483115
-0.502027
-0.520435
-0.538288
-0.555531
-0.572109
-0.587965
-0.603041
-0.617281
-0.630627
-0.643021
-0.654405
-0.664722
-0.673913
-0.681924
-0.688701
-0.694188
-0.698332
-0.70109
-0.702428
-0.702327
-0.70079
-0.697835
-0.693502
-0.687853
-0.680973
-0.672976
-0.664004
-0.654231
-0.64386
-0.633121
-0.622262
-0.611543
-0.60122
-0.591539
-0.582713
-0.574907
-0.568216
-0.562657
-0.558174
-0.554647
-0.551911
-0.549813
-0.548268
-0.547211
-0.546645
-0.546738
-0.547525
-0.548769
-0.550002
-0.550737
-0.550928
-0.550822
-0.550644
-0.55062
-0.550513
-0.245615
-0.268408
-0.291048
-0.313781
-0.336525
-0.359188
-0.381725
-0.404098
-0.42627
-0.4482
-0.469841
-0.491142
-0.512054
-0.532525
-0.5525
-0.571924
-0.590739
-0.608887
-0.626304
-0.642929
-0.6587
-0.673552
-0.687418
-0.700235
-0.711938
-0.722463
-0.731747
-0.739726
-0.746338
-0.751517
-0.755205
-0.757359
-0.757936
-0.756904
-0.754245
-0.749956
-0.744059
-0.736602
-0.727664
-0.717361
-0.705852
-0.693339
-0.680074
-0.666355
-0.652518
-0.638921
-0.625926
-0.613868
-0.60302
-0.593545
-0.585465
-0.578647
-0.572881
-0.567974
-0.563856
-0.560621
-0.558469
-0.557378
-0.557197
-0.557723
-0.558386
-0.558561
-0.558207
-0.557468
-0.556437
-0.555285
-0.55431
-0.553764
-0.55354
-0.297891
-0.322135
-0.34664
-0.37121
-0.395771
-0.420267
-0.444649
-0.468874
-0.492897
-0.516671
-0.540144
-0.56326
-0.585962
-0.608192
-0.62989
-0.650994
-0.671438
-0.691155
-0.710076
-0.728131
-0.745247
-0.761347
-0.776352
-0.790185
-0.80276
-0.813998
-0.823815
-0.832125
-0.838826
-0.843772
-0.846828
-0.847912
-0.846976
-0.84399
-0.838941
-0.831829
-0.822676
-0.811536
-0.798498
-0.783698
-0.767325
-0.74962
-0.73089
-0.711496
-0.691864
-0.672477
-0.653856
-0.636531
-0.620996
-0.607671
-0.596793
-0.588275
-0.581684
-0.576355
-0.571891
-0.568647
-0.567229
-0.567169
-0.567511
-0.567712
-0.567461
-0.566548
-0.565075
-0.563253
-0.561273
-0.559419
-0.557991
-0.557139
-0.556809
-0.317409
-0.343251
-0.368623
-0.394262
-0.420015
-0.445674
-0.471173
-0.496488
-0.521586
-0.546417
-0.570924
-0.595048
-0.618728
-0.641903
-0.664511
-0.686485
-0.707755
-0.728249
-0.747894
-0.766611
-0.784324
-0.800951
-0.816412
-0.830621
-0.8435
-0.85498
-0.865018
-0.87361
-0.880824
-0.886517
-0.890301
-0.891919
-0.89129
-0.888364
-0.883087
-0.8754
-0.865255
-0.852621
-0.837501
-0.819949
-0.800099
-0.778185
-0.754585
-0.729842
-0.704699
-0.680102
-0.65712
-0.636855
-0.620326
-0.608242
-0.600635
-0.596734
-0.594965
-0.593281
-0.590022
-0.585434
-0.581568
-0.579159
-0.577582
-0.576187
-0.57449
-0.572426
-0.570123
-0.567682
-0.565239
-0.563039
-0.561311
-0.56024
-0.559937
-0.413933
-0.442442
-0.471516
-0.50061
-0.529574
-0.558421
-0.587136
-0.615666
-0.643956
-0.671952
-0.699599
-0.726832
-0.753586
-0.779789
-0.80537
-0.830251
-0.854355
-0.877598
-0.899892
-0.921145
-0.941258
-0.960126
-0.977636
-0.993667
-1.00808
-1.02073
-1.03142
-1.03993
-1.04598
-1.04951
-1.05076
-1.04975
-1.04633
-1.04026
-1.03134
-1.01937
-1.0042
-0.985716
-0.96386
-0.938677
-0.910331
-0.879143
-0.845629
-0.810537
-0.774851
-0.739781
-0.706704
-0.677054
-0.652086
-0.632587
-0.618743
-0.610031
-0.605211
-0.602569
-0.600367
-0.597636
-0.594135
-0.590198
-0.586401
-0.583001
-0.579944
-0.577156
-0.574547
-0.572032
-0.569663
-0.567491
-0.565491
-0.564022
-0.564441
0.0907532
0.0941272
0.0977469
0.101603
0.105698
0.110078
0.114782
0.11971
0.124833
0.130185
0.135822
0.14171
0.147688
0.154171
0.160262
0.166587
0.172555
0.178844
0.184835
0.190631
0.196546
0.20153
0.206213
0.210161
0.213549
0.216365
0.218147
0.219113
0.219418
0.218783
0.216866
0.214167
0.210725
0.206621
0.201348
0.195456
0.189076
0.182054
0.17451
0.166788
0.158679
0.150355
0.142197
0.13416
0.125705
0.117747
0.109641
0.101959
0.0944011
0.087124
0.0802005
0.0735656
0.0673173
0.0613934
0.0557999
0.0502608
0.0451554
0.0402994
0.0357424
0.0916157
0.0951487
0.0989633
0.103021
0.107346
0.111947
0.116837
0.12199
0.127403
0.133078
0.138992
0.145131
0.151455
0.157975
0.164604
0.171172
0.177781
0.184304
0.190727
0.196809
0.202725
0.208194
0.213105
0.217375
0.22096
0.223843
0.225885
0.226914
0.227236
0.226541
0.224618
0.2219
0.218342
0.213861
0.208468
0.20232
0.195583
0.188287
0.180458
0.172267
0.163841
0.15524
0.14662
0.137882
0.129226
0.120717
0.112363
0.104289
0.096425
0.0888273
0.0815662
0.0746388
0.0680044
0.061723
0.0557109
0.0500454
0.0447117
0.0396926
0.0349617
0.092497
0.0962155
0.100205
0.104471
0.109022
0.113863
0.118991
0.124403
0.130099
0.136075
0.1423
0.148741
0.155383
0.162201
0.16914
0.176162
0.183197
0.190128
0.196878
0.203342
0.209494
0.215276
0.220494
0.225049
0.228885
0.231921
0.234089
0.23527
0.235589
0.234855
0.232976
0.230179
0.226387
0.221649
0.216015
0.209606
0.202513
0.19486
0.186694
0.178147
0.169319
0.160262
0.151109
0.141952
0.132875
0.123956
0.115212
0.106704
0.0984553
0.0904946
0.0828656
0.0755651
0.0685956
0.0619575
0.0556829
0.0497645
0.0441761
0.0389121
0.0339458
0.0932342
0.0971386
0.101332
0.105816
0.110601
0.115693
0.12109
0.12679
0.132789
0.139078
0.145637
0.152439
0.15946
0.166656
0.173968
0.181372
0.188771
0.196093
0.203229
0.210109
0.216644
0.222732
0.228253
0.233093
0.237184
0.240423
0.242736
0.244039
0.244383
0.243632
0.241733
0.238815
0.234823
0.229865
0.223965
0.217251
0.209805
0.201748
0.193166
0.184184
0.174892
0.165373
0.15576
0.146168
0.136637
0.127254
0.118062
0.109109
0.100439
0.0920799
0.084059
0.0763899
0.069084
0.0621409
0.0555657
0.0493492
0.0434789
0.0379494
0.0327426
0.0937914
0.0978959
0.102306
0.107024
0.11206
0.117418
0.123101
0.129107
0.13543
0.142058
0.148975
0.156155
0.163569
0.171168
0.178897
0.186703
0.194509
0.20224
0.209798
0.217095
0.224028
0.230472
0.236319
0.241461
0.245812
0.249271
0.251754
0.25317
0.253556
0.252794
0.250839
0.247791
0.243617
0.238427
0.232246
0.225198
0.217379
0.208901
0.19987
0.190411
0.180632
0.170641
0.160553
0.150467
0.140447
0.130573
0.120906
0.111496
0.102386
0.093606
0.0851819
0.0771302
0.0694602
0.0621741
0.0552693
0.0487413
0.0425813
0.036781
0.0313206
0.0941678
0.0984859
0.103127
0.108092
0.113394
0.119037
0.125024
0.131353
0.13802
0.145011
0.152308
0.159885
0.167709
0.175734
0.183906
0.19216
0.200418
0.208597
0.216601
0.224328
0.231669
0.238501
0.244707
0.250174
0.254802
0.258492
0.261157
0.262694
0.26313
0.26236
0.260343
0.257162
0.252796
0.247351
0.240868
0.233464
0.225246
0.21633
0.206832
0.19688
0.186595
0.176092
0.165481
0.154863
0.144321
0.133932
0.123765
0.11387
0.104292
0.0950642
0.0862111
0.0777498
0.0696891
0.0620324
0.0547784
0.0479221
0.0414539
0.035364
0.0296317
0.0943282
0.098874
0.103761
0.108991
0.114577
0.120524
0.126836
0.133511
0.140544
0.147922
0.155627
0.16363
0.171896
0.180378
0.18902
0.197752
0.206495
0.215157
0.223636
0.231824
0.239603
0.24685
0.253442
0.259257
0.264185
0.268124
0.270979
0.272648
0.273141
0.272366
0.270286
0.266965
0.262393
0.256674
0.249866
0.242083
0.233439
0.224058
0.214066
0.203593
0.192768
0.181712
0.170539
0.159358
0.148259
0.137325
0.126623
0.11621
0.106131
0.0964217
0.0871085
0.0782087
0.069732
0.0616822
0.0540574
0.0468516
0.0400544
0.0336554
0.0276334
0.0942252
0.0990146
0.104165
0.109679
0.115569
0.121842
0.128502
0.135548
0.142974
0.150768
0.15891
0.16737
0.176111
0.185084
0.194229
0.203473
0.212733
0.221911
0.2309
0.239583
0.247836
0.25553
0.262535
0.268723
0.273975
0.27818
0.28124
0.283052
0.28361
0.282832
0.280683
0.277211
0.27242
0.266411
0.259256
0.251068
0.24197
0.232092
0.221568
0.210537
0.199133
0.187485
0.175714
0.163933
0.152241
0.140722
0.129448
0.118481
0.107867
0.0976444
0.0878401
0.0784726
0.0695522
0.0610825
0.0530616
0.045483
0.0383356
0.0316083
0.0252786
0.0938114
0.0988609
0.104293
0.11011
0.116327
0.12295
0.129984
0.137428
0.145276
0.153516
0.162126
0.171077
0.180329
0.189829
0.199514
0.209307
0.219121
0.228852
0.238388
0.247603
0.256365
0.26454
0.271989
0.278577
0.284177
0.28867
0.29195
0.293915
0.294545
0.293765
0.291542
0.287909
0.282885
0.276568
0.269041
0.260421
0.250836
0.240426
0.229332
0.217702
0.205679
0.193398
0.180988
0.168567
0.156239
0.144095
0.132211
0.120652
0.109467
0.0986965
0.0883684
0.078502
0.069108
0.0601904
0.0517468
0.0437702
0.0362487
0.0291703
0.0225118
0.0930365
0.0983649
0.104099
0.110241
0.116808
0.123806
0.13124
0.139111
0.147412
0.156131
0.165244
0.174722
0.18452
0.194586
0.204851
0.215235
0.225644
0.23597
0.246091
0.255877
0.265188
0.27388
0.281807
0.288825
0.294799
0.2996
0.303117
0.305247
0.305956
0.305176
0.302872
0.299068
0.293794
0.28715
0.279224
0.27014
0.260035
0.249055
0.237353
0.225083
0.212397
0.199439
0.186345
0.173239
0.160231
0.147418
0.134881
0.122688
0.110893
0.0995363
0.0886483
0.0782489
0.0683495
0.0589538
0.050059
0.0416573
0.0337362
0.0262831
0.0192731
0.0918422
0.0974695
0.103527
0.110018
0.116959
0.124359
0.132223
0.140552
0.149339
0.158571
0.168224
0.178266
0.188653
0.199326
0.210214
0.221233
0.232282
0.243246
0.253998
0.264398
0.274299
0.283547
0.291989
0.29947
0.305845
0.310979
0.314752
0.317058
0.317854
0.317075
0.314684
0.310698
0.305156
0.298161
0.289808
0.280227
0.269564
0.257975
0.24562
0.232664
0.219268
0.205585
0.191758
0.177918
0.164183
0.150655
0.137419
0.124548
0.112099
0.100114
0.0886261
0.0776559
0.0672153
0.0573081
0.0479309
0.0390755
0.0307282
0.0228749
0.0154898
0.090151
0.0960988
0.102503
0.109368
0.116712
0.124543
0.132869
0.141689
0.150998
0.160782
0.171016
0.181665
0.192684
0.20401
0.21557
0.227271
0.239008
0.25066
0.26209
0.273152
0.283688
0.293536
0.302531
0.310511
0.317318
0.32281
0.326858
0.329355
0.330245
0.329468
0.326983
0.322803
0.316975
0.309602
0.300792
0.290678
0.279417
0.267173
0.254119
0.240427
0.226269
0.211807
0.197193
0.182567
0.168053
0.153758
0.139774
0.126177
0.113026
0.100369
0.0882381
0.0766564
0.0656357
0.0551797
0.0452852
0.035943
0.0271386
0.0188568
0.0110707
0.087872
0.0941639
0.100941
0.108208
0.115984
0.12428
0.133102
0.142451
0.152322
0.1627
0.173559
0.184863
0.196562
0.208592
0.220874
0.23331
0.245789
0.258181
0.270342
0.282116
0.293337
0.303831
0.313423
0.321939
0.329212
0.33509
0.339435
0.342137
0.34313
0.342356
0.339771
0.335382
0.329247
0.32147
0.312167
0.301482
0.289578
0.276632
0.262825
0.248343
0.233366
0.218068
0.20261
0.18714
0.171788
0.156671
0.141884
0.127507
0.113605
0.100226
0.0874061
0.0751684
0.0635255
0.0524811
0.0420317
0.0321673
0.0228724
0.0141308
0.00591412
0.0849029
0.0915645
0.0987418
0.106441
0.114683
0.123478
0.132835
0.142755
0.153231
0.164248
0.175781
0.18779
0.200223
0.213012
0.226072
0.239301
0.252579
0.265769
0.27872
0.291263
0.303222
0.314413
0.324648
0.333742
0.341517
0.347809
0.352475
0.355397
0.356504
0.355733
0.353041
0.348429
0.341962
0.333751
0.323919
0.312619
0.300025
0.286322
0.271707
0.256374
0.240518
0.22432
0.207954
0.191575
0.175324
0.159322
0.143672
0.128458
0.113748
0.0995942
0.0860341
0.0730919
0.060781
0.0491054
0.0380605
0.0276358
0.0178145
0.00857894
-0.00010059
0.08112
0.0881793
0.0957877
0.103953
0.112696
0.12203
0.131963
0.142497
0.153626
0.165335
0.177594
0.190364
0.203589
0.217197
0.231097
0.245181
0.259322
0.273375
0.287176
0.300549
0.313305
0.325247
0.336176
0.345892
0.354208
0.360948
0.36596
0.369121
0.37035
0.369584
0.366775
0.361924
0.355101
0.346422
0.336021
0.324059
0.310721
0.296205
0.280718
0.264471
0.247666
0.2305
0.213156
0.195801
0.178582
0.161628
0.145049
0.128934
0.113356
0.0983687
0.0840124
0.0703127
0.0572835
0.0449287
0.0332436
0.0222165
0.0118294
0.002063
-0.00711395
0.0763798
0.0838674
0.09194
0.100607
0.109891
0.119805
0.13036
0.141558
0.153392
0.165846
0.17889
0.192482
0.206562
0.221054
0.235862
0.250871
0.265944
0.280928
0.295649
0.309919
0.323536
0.336289
0.347966
0.358355
0.367253
0.374476
0.379862
0.383281
0.384642
0.383882
0.380948
0.375839
0.368631
0.359449
0.348435
0.335759
0.321619
0.306225
0.2898
0.272565
0.254738
0.236529
0.218131
0.199722
0.18146
0.163481
0.145902
0.128818
0.112305
0.0964218
0.0812091
0.0666946
0.0528926
0.0398072
0.027433
0.0157574
0.00476128
-0.00557676
-0.0152894
0.0704972
0.0784463
0.0870196
0.0962286
0.106097
0.116639
0.127866
0.139782
0.152378
0.165639
0.179532
0.194014
0.20902
0.224469
0.240259
0.256267
0.27235
0.288342
0.304058
0.319297
0.333843
0.347472
0.359956
0.371069
0.380596
0.388341
0.394131
0.397828
0.399334
0.39858
0.395511
0.390123
0.382499
0.372774
0.361098
0.347653
0.332648
0.316308
0.298869
0.280569
0.26164
0.242304
0.222769
0.203223
0.183836
0.164752
0.146094
0.127965
0.110445
0.0935948
0.0774591
0.0620662
0.0474314
0.0335582