/*--------------------------------*- C++ -*----------------------------------*\
| =========                 |                                                 |
| \\      /  F ield         | OpenFOAM: The Open Source CFD Toolbox           |
|  \\    /   O peration     | Version:  2312                                  |
|   \\  /    A nd           | Website:  www.openfoam.com                      |
|    \\/     M anipulation  |                                                 |
\*---------------------------------------------------------------------------*/
FoamFile
{
    version     2.0;
    format      ascii;
    arch        "LSB;label=32;scalar=64";
    class       surfaceScalarField;
    location    "300";
    object      phi;
}
// * * * * * * * * * * * * * * * * * * * * * * * * * * * * * * * * * * * * * //

dimensions      [0 3 -1 0 0 0 0];

oriented        oriented;

internalField   nonuniform List<scalar> 
116611
(
0.0298321
0.0110091
-0.0294275
-0.0114137
0.0302339
0.0109131
-0.0113148
0.0306301
0.0108088
-0.011205
0.031021
0.0106954
-0.0110864
0.0314078
0.0105737
-0.0109606
0.0317942
0.0104418
-0.0108281
0.03217
0.0103013
-0.0106772
0.0325473
0.0101518
-0.010529
0.0329134
0.00999133
-0.0103575
0.0332754
0.00982078
-0.0101827
0.0336298
0.00963862
-0.00999312
0.0339791
0.00944564
-0.00979489
0.0343199
0.00924129
-0.00958205
0.0346528
0.00902455
-0.00935747
0.0349764
0.00879586
-0.00911949
0.0352896
0.00855569
-0.00886892
0.0355965
0.00830042
-0.00860724
0.0358939
0.00803531
-0.00833276
0.0361798
0.00775265
-0.00803858
0.0364552
0.00745988
-0.00773519
0.0367223
0.00714951
-0.00741662
0.0369753
0.00682608
-0.00707908
0.0372154
0.00648673
-0.00672681
0.0374448
0.00613364
-0.0063631
0.0376603
0.00576468
-0.00598017
0.037867
0.00538005
-0.00558673
0.0380589
0.00497687
-0.00516881
0.0382322
0.00455911
-0.00473239
0.0384005
0.00412499
-0.00429326
0.0385459
0.00367354
-0.00381897
0.0386799
0.00320742
-0.00334141
0.0388015
0.00271895
-0.00284053
0.038905
0.00221276
-0.00231633
0.0389935
0.00169112
-0.00177958
0.039065
0.00114818
-0.00121972
0.0391176
0.000589599
-0.000642151
0.039163
1.0954e-05
-5.63439e-05
0.0391848
-0.000587579
0.000565731
0.0391915
-0.00120431
0.00119768
0.0391753
-0.00184384
0.00185999
0.0391422
-0.00249885
0.00253198
0.0390994
-0.00317449
0.00321727
0.0390306
-0.00387192
0.00394075
0.0389427
-0.00458651
0.00467437
0.0388327
-0.005322
0.00543205
0.0387078
-0.00607454
0.00619942
0.0385609
-0.00684862
0.00699546
0.0383873
-0.00764059
0.00781423
0.038197
-0.00844889
0.00863921
0.0379853
-0.0092754
0.00948713
0.0377494
-0.0101208
0.0103566
0.0374951
-0.0109812
0.0112355
0.0372199
-0.011858
0.0121332
0.0369203
-0.0127519
0.0130515
0.0365901
-0.0136597
0.0139898
0.0362508
-0.0145753
0.0149146
0.0358823
-0.015508
0.0158765
0.0354986
-0.0164486
0.0168324
0.0350966
-0.017398
0.0178
0.0346729
-0.0183535
0.0187772
0.0342367
-0.0193148
0.0197511
0.0337842
-0.0202845
0.020737
0.0333167
-0.0212541
0.0217216
0.0328349
-0.0222244
0.0227062
0.0323387
-0.0231913
0.0236876
0.0318421
-0.02415
0.0246465
0.031351
-0.0251044
0.0255956
0.0308546
-0.0260557
0.026552
-0.0270023
0.0303443
0.0275127
0.0294542
0.0106054
-0.0290505
0.029854
0.0105133
0.0302496
0.0104132
0.0306404
0.0103046
0.0310274
0.0101867
0.0314089
0.0100604
0.0317854
0.00992479
0.0321575
0.00977966
0.0325238
0.00962508
0.0328844
0.0094601
0.0332385
0.0092846
0.0335857
0.00909837
0.0339261
0.00890088
0.0342588
0.00869188
0.0345828
0.0084719
0.0348992
0.0082393
0.0352051
0.0079945
0.0355037
0.00773675
0.0357903
0.00746597
0.0360688
0.00718137
0.0363356
0.00688279
0.0365914
0.00657025
0.036835
0.00624316
0.0370671
0.0059015
0.0372871
0.0055447
0.0374953
0.00517179
0.0376888
0.00478336
0.0378689
0.00437899
0.0380358
0.00395815
0.0381878
0.00352156
0.0383277
0.00306751
0.0384515
0.00259511
0.0385588
0.00210552
0.0386515
0.00159838
0.0387268
0.00107289
0.0387871
0.000529275
0.0388309
-3.27935e-05
0.0388568
-0.000613521
0.0388661
-0.00121359
0.0388556
-0.00183332
0.0388284
-0.00247167
0.0387828
-0.00312893
0.0387164
-0.00380552
0.0386314
-0.00450148
0.0385261
-0.00521671
0.0384019
-0.00595037
0.0382562
-0.00670284
0.0380894
-0.00747387
0.0379031
-0.00826257
0.0376963
-0.00906855
0.0374676
-0.00989213
0.0372185
-0.0107321
0.0369484
-0.011588
0.0366561
-0.0124596
0.0363424
-0.0133459
0.0360111
-0.0142441
0.0356582
-0.015155
0.0352866
-0.016077
0.0348969
-0.0170083
0.0344913
-0.0179479
0.0340711
-0.0188946
0.0336343
-0.0198477
0.0331846
-0.0208045
0.0327232
-0.021763
0.0322534
-0.0227215
0.03178
-0.0236766
0.0313043
-0.0246287
0.0308271
-0.0255785
-0.0265239
0.0303487
0.0290921
0.0102049
-0.0286917
0.0294896
0.0101159
0.0298836
0.0100191
0.0302738
0.00991443
0.0306592
0.00980133
0.0310398
0.00967967
0.0314155
0.00954911
0.0317859
0.00940928
0.0321509
0.00926004
0.0325101
0.00910099
0.0328628
0.00893186
0.0332088
0.00875233
0.0335477
0.00856204
0.0338789
0.00836068
0.0342027
0.00814808
0.0345182
0.00792381
0.0348251
0.00768758
0.0351229
0.00743895
0.0354112
0.00717762
0.0356895
0.00690311
0.0359571
0.00661519
0.0362139
0.0063135
0.0364593
0.00599772
0.0366932
0.00566757
0.0369152
0.00532272
0.0371243
0.00496274
0.0373203
0.00458736
0.037503
0.00419628
0.0376718
0.00378927
0.0378273
0.00336606
0.0379687
0.00292616
0.0380946
0.00246919
0.0382052
0.00199495
0.0383003
0.0015033
0.0383792
0.000993944
0.0384418
0.000466635
0.0384877
-7.86897e-05
0.0385168
-0.000642593
0.0385285
-0.00122528
0.0385219
-0.00182677
0.0384972
-0.00244698
0.0384541
-0.00308583
0.0383923
-0.00374364
0.0383113
-0.00442048
0.0382106
-0.00511606
0.0380904
-0.00583013
0.0379502
-0.00656263
0.0377897
-0.00731343
0.0376091
-0.00808197
0.0374084
-0.00886783
0.0371872
-0.00967094
0.0369458
-0.0104907
0.0366844
-0.0113265
0.0364028
-0.0121779
0.0361009
-0.0130441
0.0357803
-0.0139234
0.0354407
-0.0148155
0.0350832
-0.0157195
0.0347088
-0.0166339
0.0343185
-0.0175576
0.0339135
-0.0184895
0.0334943
-0.0194286
0.033063
-0.0203732
0.0326214
-0.0213214
0.0321721
-0.0222722
0.031719
-0.0232235
0.0312654
-0.0241751
0.0308132
-0.0251263
-0.0260766
0.0303659
0.0287494
0.00980705
-0.0283515
0.0291442
0.0097211
0.0295357
0.00962758
0.0299237
0.00952646
0.0303075
0.00941748
0.0306869
0.00930028
0.0310614
0.00917459
0.0314307
0.00904006
0.0317943
0.00889639
0.032152
0.00874328
0.0325035
0.00858043
0.0328483
0.00840753
0.033186
0.00822429
0.0335163
0.00803037
0.0338389
0.00782546
0.0341535
0.0076093
0.0344595
0.00738151
0.0347567
0.00714179
0.0350445
0.00688976
0.0353226
0.00662509
0.0355903
0.00634741
0.0358474
0.0060564
0.0360934
0.00575173
0.0363279
0.00543309
0.0365505
0.00510015
0.0367607
0.00475255
0.0369581
0.00438995
0.0371423
0.00401206
0.037313
0.00361858
0.0374698
0.0032092
0.0376124
0.00278361
0.0377402
0.00234143
0.0378528
0.00188233
0.0379499
0.00140617
0.0380312
0.000912684
0.0380962
0.000401622
0.0381447
-0.000127231
0.0381764
-0.000674304
0.0381908
-0.00123966
0.0381875
-0.00182342
0.0381661
-0.00242564
0.0381266
-0.00304634
0.0380687
-0.00368564
0.0379917
-0.00434357
0.0378957
-0.00502
0.0377804
-0.00571482
0.0376456
-0.00642788
0.0374912
-0.00715902
0.0373172
-0.00790792
0.0371236
-0.00867423
0.0369103
-0.0094577
0.0366775
-0.0102579
0.0364253
-0.0110743
0.0361537
-0.0119064
0.035863
-0.0127534
0.035554
-0.0136144
0.0352272
-0.0144887
0.0348831
-0.0153754
0.0345226
-0.0162735
0.0341469
-0.0171818
0.033757
-0.0180997
0.0333542
-0.0190257
0.03294
-0.019959
0.0325167
-0.0208981
0.0320872
-0.0218427
0.0316548
-0.0227911
0.0312224
-0.0237428
0.0307921
-0.024696
-0.0256497
0.0303653
0.0284245
0.00941065
-0.0280281
0.0288175
0.00932808
0.029207
0.00923811
0.0295927
0.00914071
0.0299745
0.00903569
0.030352
0.00892281
0.0307248
0.00880179
0.0310925
0.00867233
0.0314548
0.00853413
0.0318112
0.00838687
0.0321614
0.00823023
0.032505
0.00806392
0.0328416
0.00788764
0.0331709
0.00770106
0.0334925
0.00750389
0.033806
0.00729579
0.0341111
0.00707646
0.0344073
0.00684556
0.0346943
0.00660277
0.0349716
0.00634775
0.0352389
0.00608015
0.0354956
0.00579965
0.0357415
0.00550591
0.0359759
0.00519862
0.0361986
0.00487743
0.0364092
0.00454201
0.0366071
0.004192
0.0367921
0.00382712
0.0369636
0.00344703
0.0371214
0.0030514
0.0372651
0.00263995
0.0373942
0.00221231
0.0375084
0.00176819
0.0376072
0.00130736
0.0376903
0.000829566
0.0377574
0.000334551
0.0378081
-0.000177977
0.0378422
-0.000708369
0.0378592
-0.00125668
0.0378588
-0.00182305
0.0378408
-0.00240759
0.0378048
-0.00301036
0.0377506
-0.00363145
0.0376779
-0.00427089
0.0375866
-0.00492864
0.0374764
-0.00560462
0.0373472
-0.00629872
0.037199
-0.00701078
0.0370316
-0.00774058
0.0368452
-0.00848784
0.0366398
-0.00925228
0.0364154
-0.0100335
0.0361723
-0.0108312
0.0359105
-0.0116446
0.0356305
-0.0124734
0.0353328
-0.0133166
0.0350178
-0.0141738
0.0346863
-0.0150439
0.0343391
-0.0159263
0.0339772
-0.0168199
0.0336018
-0.0177243
0.0332143
-0.0186381
0.0328166
-0.0195613
0.032411
-0.0204925
0.0320004
-0.021432
0.0315874
-0.0223782
0.0311745
-0.0233299
0.0307633
-0.0242848
-0.025243
0.0303566
0.0281148
0.00901457
-0.0277187
0.0285071
0.00893572
0.0288956
0.00884962
0.0292801
0.00875627
0.0296603
0.00865549
0.030036
0.00854707
0.030407
0.00843076
0.030773
0.00830632
0.0311337
0.00817348
0.0314886
0.00803196
0.0318374
0.00788145
0.0321797
0.00772163
0.0325151
0.00755221
0.0328433
0.0073729
0.0331638
0.00718337
0.0334763
0.00698331
0.0337803
0.00677239
0.0340756
0.00655029
0.0343617
0.00631669
0.0346382
0.00607126
0.0349047
0.00581365
0.0351608
0.00554355
0.0354061
0.00526062
0.0356401
0.00496453
0.0358626
0.00465496
0.0360731
0.00433156
0.0362711
0.00399399
0.0364563
0.00364193
0.0366282
0.00327506
0.0367866
0.00289304
0.036931
0.00249557
0.037061
0.00208231
0.0371762
0.00165298
0.0372762
0.00120731
0.0373608
0.000745002
0.0374295
0.000265801
0.0374822
-0.000230631
0.0375184
-0.000744573
0.0375378
-0.0012761
0.0375401
-0.00182537
0.0375251
-0.00239252
0.0374924
-0.00297766
0.0374418
-0.00358088
0.0373732
-0.00420224
0.0372863
-0.00484174
0.037181
-0.00549934
0.0370572
-0.00617495
0.0369149
-0.00686846
0.036754
-0.00757969
0.0365746
-0.00830842
0.0363767
-0.00905439
0.0361604
-0.00981728
0.035926
-0.0105967
0.0356736
-0.0113922
0.0354036
-0.0122034
0.0351164
-0.0130294
0.0348126
-0.0138699
0.0344928
-0.0147241
0.0341579
-0.0155914
0.033809
-0.016471
0.0334473
-0.0173626
0.0330746
-0.0182654
0.0326927
-0.0191795
0.0323041
-0.020104
0.0319111
-0.021039
0.0315157
-0.0219827
0.0311192
-0.0229334
0.0307224
-0.023888
-0.0248463
0.0303257
0.0278191
0.00861858
-0.0274231
0.0282113
0.00854347
0.0285996
0.00846138
0.0289836
0.00837228
0.0293631
0.00827598
0.0297379
0.00817226
0.0301078
0.00806089
0.0304724
0.00794164
0.0308317
0.00781426
0.0311851
0.0076785
0.0315325
0.00753409
0.0318734
0.00738073
0.0322075
0.00721813
0.0325344
0.00704601
0.0328537
0.00686405
0.033165
0.00667195
0.033468
0.00646939
0.0337623
0.00625604
0.0340474
0.00603156
0.034323
0.00579565
0.0345887
0.00554796
0.0348441
0.00528819
0.0350887
0.00501601
0.0353222
0.00473106
0.0355441
0.00443299
0.0357542
0.00412149
0.035952
0.00379622
0.0361371
0.00345684
0.0363091
0.00310305
0.0364676
0.00273451
0.0366123
0.00235089
0.0367427
0.00195186
0.0368586
0.00153709
0.0369596
0.00110632
0.0370453
0.000659288
0.0371155
0.000195687
0.0371697
-0.000284854
0.0372076
-0.000782542
0.037229
-0.0012975
0.0372336
-0.00182994
0.0372211
-0.00238001
0.0371913
-0.00294787
0.037144
-0.00353361
0.0370791
-0.0041373
0.0369963
-0.00475898
0.0368957
-0.00539865
0.036777
-0.00605625
0.0366402
-0.0067317
0.0364854
-0.00742486
0.0363125
-0.00813556
0.0361217
-0.00886357
0.035913
-0.00960862
0.0356867
-0.0103704
0.0354429
-0.0111485
0.0351821
-0.0119425
0.0349046
-0.012752
0.0346111
-0.0135764
0.0343022
-0.0144152
0.0339788
-0.015268
0.0336421
-0.0161343
0.0332937
-0.0170141
0.0329352
-0.0179069
0.0325686
-0.0188129
0.0321959
-0.0197312
0.0318183
-0.0206615
0.0314373
-0.0216017
0.031053
-0.0225491
0.0306648
-0.0234997
-0.0244509
0.0302694
0.0275382
0.00822296
-0.0271426
0.0279302
0.00815146
0.0283183
0.0080733
0.0287022
0.00798844
0.0290815
0.00789668
0.0294559
0.00779777
0.0298253
0.0076915
0.0301894
0.00757762
0.0305477
0.00745588
0.0309002
0.00732603
0.0312465
0.00718782
0.0315862
0.007041
0.0319191
0.00688527
0.0322447
0.00672035
0.0325628
0.00654595
0.032873
0.00636176
0.0331749
0.0061675
0.0334681
0.00596285
0.0337522
0.00574747
0.0340268
0.00552104
0.0342915
0.00528322
0.034546
0.00503371
0.0347899
0.00477217
0.0350227
0.00449826
0.035244
0.00421164
0.0354535
0.00391197
0.0356508
0.00359892
0.0358355
0.00327213
0.0360073
0.0029313
0.0361657
0.0025761
0.0363104
0.00220619
0.036441
0.00182122
0.0365572
0.00142087
0.0366587
0.00100484
0.0367451
0.000572881
0.0368161
0.000124722
0.0368714
-0.000340098
0.0369106
-0.000821798
0.0369336
-0.00132051
0.0369401
-0.00183646
0.0369299
-0.0023698
0.0369028
-0.00292072
0.0368585
-0.00348933
0.0367969
-0.00407574
0.036718
-0.00468
0.0366215
-0.00530215
0.0365074
-0.00594215
0.0363756
-0.00659997
0.0362263
-0.00727549
0.0360593
-0.0079686
0.0358749
-0.00867911
0.035673
-0.00940679
0.035454
-0.0101514
0.0352181
-0.0109126
0.0349656
-0.01169
0.034697
-0.0124834
0.0344129
-0.0132923
0.0341142
-0.0141164
0.0338018
-0.0149556
0.0334771
-0.0158096
0.0331415
-0.0166786
0.0327968
-0.0175622
0.0324442
-0.0184603
0.0320851
-0.0193721
0.0317197
-0.0202961
0.0313483
-0.0212304
0.0309699
-0.0221707
0.030583
-0.0231128
-0.0240546
0.0301868
0.0272739
0.00782811
-0.026879
0.0276653
0.00776007
0.0280529
0.0076857
0.0284364
0.00760495
0.0288154
0.00751763
0.0291897
0.0074235
0.0295589
0.00732232
0.0299226
0.00721385
0.0302807
0.00709784
0.0306327
0.00697404
0.0309783
0.00684217
0.0313173
0.00670198
0.0316494
0.0065532
0.0319742
0.00639557
0.0322914
0.00622878
0.0326006
0.00605257
0.0329014
0.00586663
0.0331936
0.00567068
0.0334767
0.00546438
0.0337503
0.00524742
0.0340141
0.00501945
0.0342676
0.00478017
0.0345106
0.00452922
0.0347425
0.00426629
0.0349631
0.00399106
0.0351719
0.00370316
0.0353686
0.00340225
0.0355527
0.00308795
0.0357241
0.00275997
0.0358822
0.002418
0.0360267
0.00206169
0.0361572
0.00169069
0.0362735
0.00130464
0.036375
0.000903238
0.0364617
0.0004862
0.0365332
5.32458e-05
0.0365892
-0.000396112
0.0366295
-0.000862071
0.0366538
-0.0013448
0.0366618
-0.00184452
0.0366535
-0.00236142
0.0366284
-0.0028957
0.0365866
-0.0034475
0.0365278
-0.00401696
0.036452
-0.00460415
0.036359
-0.00520914
0.0362487
-0.00583193
0.0361213
-0.00647252
0.0359766
-0.00713083
0.0358148
-0.00780679
0.0356359
-0.00850023
0.0354401
-0.009211
0.0352277
-0.0099389
0.0349988
-0.0106837
0.0347538
-0.0114451
0.0344935
-0.012223
0.0342183
-0.0130172
0.0339294
-0.0138275
0.0336278
-0.014654
0.0333147
-0.0154966
0.0329914
-0.0163553
0.032659
-0.0172298
0.0323181
-0.0181193
0.0319689
-0.0190228
0.0316106
-0.0199379
0.0312424
-0.0208622
0.030862
-0.0217902
0.0304672
-0.022718
-0.0236409
0.0300534
0.0270278
0.00743422
-0.0266339
0.0274183
0.00736956
0.0278051
0.00729888
0.0281879
0.00722213
0.0285664
0.00713915
0.0289402
0.00704969
0.029309
0.00695351
0.0296725
0.00685039
0.0300303
0.00674007
0.030382
0.00662229
0.0307274
0.0064968
0.031066
0.00636333
0.0313976
0.00622157
0.0317219
0.00607127
0.0320385
0.00591218
0.0323471
0.00574403
0.0326472
0.00556649
0.0329386
0.00537929
0.0332209
0.00518209
0.0334937
0.00497459
0.0337567
0.00475649
0.0340094
0.00452747
0.0342515
0.00428713
0.0344826
0.00403515
0.0347024
0.00377126
0.0349105
0.00349508
0.0351065
0.00320626
0.03529
0.00290443
0.0354607
0.00258926
0.0356183
0.00226046
0.0357623
0.00191769
0.0358924
0.00156056
0.0360084
0.0011887
0.0361098
0.0008018
0.0361965
0.000399523
0.0362681
-1.84039e-05
0.0363245
-0.000452465
0.0363652
-0.000902844
0.0363902
-0.00136977
0.0363992
-0.00185347
0.0363919
-0.00235417
0.0363683
-0.00287209
0.0363282
-0.00340738
0.0362714
-0.00396021
0.036198
-0.00453068
0.0361077
-0.00511888
0.0360006
-0.00572485
0.0358767
-0.00634861
0.035736
-0.00699012
0.0355786
-0.00764935
0.0354045
-0.00832618
0.035214
-0.00902052
0.0350074
-0.00973223
0.0347849
-0.0104612
0.0345471
-0.0112073
0.0342946
-0.0119705
0.0340283
-0.0127509
0.0337491
-0.0135483
0.0334579
-0.0143628
0.0331558
-0.0151944
0.0328432
-0.0160427
0.0325203
-0.0169069
0.032187
-0.017786
0.0318421
-0.0186779
0.0314843
-0.0195801
0.0311112
-0.020489
0.0307202
-0.0213992
0.0303086
-0.0223065
-0.0232061
0.0298739
0.0268011
0.00704117
-0.0264081
0.0271908
0.00697992
0.0275768
0.00691289
0.0279588
0.00684011
0.0283365
0.00676142
0.0287096
0.00667657
0.0290778
0.00658534
0.0294407
0.00648749
0.029798
0.0063828
0.0301493
0.006271
0.0304943
0.00615181
0.0308326
0.00602502
0.0311638
0.00589032
0.0314877
0.00574742
0.0318038
0.00559607
0.0321118
0.00543598
0.0324114
0.00526689
0.0327022
0.00508849
0.0329839
0.00490046
0.033256
0.00470247
0.0335183
0.00449422
0.0337703
0.00427548
0.0340116
0.00404583
0.0342418
0.00380486
0.0344608
0.00355233
0.034668
0.00328788
0.0348631
0.00301117
0.0350457
0.0027218
0.0352155
0.00241944
0.0353722
0.00210378
0.0355154
0.00177448
0.0356448
0.00143113
0.0357602
0.00107334
0.0358612
0.000700801
0.0359475
0.000313177
0.036019
-8.98493e-05
0.0360753
-0.000508743
0.0361161
-0.000943704
0.0361414
-0.00139499
0.0361508
-0.00186288
0.0361442
-0.0023476
0.0361215
-0.00284938
0.0360825
-0.00336843
0.0360272
-0.00390491
0.0359555
-0.00445897
0.0358674
-0.00503071
0.0357627
-0.00562022
0.0356417
-0.00622753
0.0355042
-0.00685265
0.0353504
-0.00749559
0.0351806
-0.00815631
0.0349948
-0.00883479
0.0347936
-0.00953098
0.0345773
-0.0102449
0.0343466
-0.0109766
0.034102
-0.011726
0.0338445
-0.0124933
0.0335746
-0.0132784
0.0332928
-0.0140811
0.0329994
-0.014901
0.0326941
-0.0157374
0.0323761
-0.016589
0.0320443
-0.0174542
0.0316969
-0.0183305
0.0313315
-0.0192147
0.0309451
-0.0201027
0.0305354
-0.0209896
0.0301003
-0.0218713
-0.022751
0.0296451
0.0265948
0.00664879
-0.0262025
0.0269838
0.00659096
0.0273691
0.00652763
0.0277503
0.00645885
0.0281273
0.00638445
0.0284996
0.00630423
0.028867
0.00621795
0.0292292
0.00612536
0.0295857
0.00602624
0.0299364
0.00592035
0.0302807
0.00580743
0.0306185
0.00568726
0.0309493
0.00555956
0.0312726
0.00542405
0.0315883
0.00528043
0.0318958
0.00512845
0.0321949
0.00496782
0.0324851
0.00479825
0.0327661
0.00461943
0.0330376
0.00443102
0.0332991
0.00423269
0.0335504
0.00402421
0.033791
0.00380524
0.0340205
0.00357536
0.0342386
0.00333427
0.0344448
0.0030816
0.034639
0.00281702
0.0348206
0.00254014
0.0349895
0.00225057
0.0351453
0.00194798
0.0352877
0.00163209
0.0354163
0.00130249
0.0355309
0.00095877
0.0356311
0.000600578
0.0357167
0.00022757
0.0357875
-0.000160627
0.0358432
-0.000564438
0.0358836
-0.000984096
0.0359085
-0.00141989
0.0359177
-0.00187212
0.0359112
-0.00234104
0.0358887
-0.0028269
0.0358502
-0.00332994
0.0357956
-0.00385035
0.035725
-0.0043883
0.0356382
-0.00494392
0.0355353
-0.00551733
0.0354164
-0.00610861
0.0352815
-0.00671783
0.035131
-0.00734505
0.034965
-0.00799031
0.0347839
-0.00865367
0.0345881
-0.00933518
0.0343781
-0.0100349
0.0341544
-0.0107529
0.0339176
-0.0114892
0.033668
-0.0122437
0.0334057
-0.0130161
0.0331304
-0.0138058
0.0328416
-0.0146122
0.0325382
-0.0154339
0.0322187
-0.0162695
0.0318812
-0.0171166
0.0315232
-0.0179725
0.031142
-0.0188334
0.0307349
-0.0196956
0.0303012
-0.0205558
0.029843
-0.0214131
-0.0222884
0.0293804
0.02641
0.00625705
-0.0260182
0.0267983
0.00620265
0.0271829
0.00614303
0.0275635
0.00607825
0.0279398
0.00600815
0.0283115
0.00593252
0.0286783
0.00585115
0.0290398
0.00576383
0.0293958
0.00567031
0.0297458
0.00557036
0.0300895
0.00546373
0.0304265
0.00535018
0.0307566
0.00522946
0.0310794
0.0051013
0.0313944
0.00496541
0.0317013
0.00482153
0.0319998
0.00466937
0.0322894
0.00450863
0.0325698
0.00433902
0.0328406
0.00416021
0.0331014
0.00397188
0.0333519
0.00377374
0.0335917
0.00356546
0.0338203
0.00334669
0.0340375
0.00311706
0.0342429
0.00287622
0.0344361
0.00262381
0.0346169
0.00235943
0.0347847
0.00208271
0.0349394
0.00179331
0.0350806
0.00149089
0.035208
0.00117508
0.0353213
0.000845446
0.0354203
0.000501609
0.0355046
0.000143211
0.0355742
-0.000230183
0.0356287
-0.000618959
0.035668
-0.00102339
0.0356919
-0.0014438
0.0357003
-0.0018805
0.0356931
-0.00233379
0.0356701
-0.00280395
0.0356314
-0.00329122
0.0355769
-0.00379584
0.0355066
-0.00431801
0.0354206
-0.00485791
0.035319
-0.0054157
0.0352019
-0.00599151
0.0350695
-0.00658547
0.0349221
-0.00719769
0.0347601
-0.00782828
0.0345838
-0.00847734
0.0343935
-0.00914493
0.0341897
-0.00983106
0.0339724
-0.0105357
0.0337417
-0.0112586
0.0334974
-0.0119993
0.0332387
-0.0127575
0.0329649
-0.013532
0.0326746
-0.0143219
0.0323662
-0.0151255
0.0320376
-0.0159409
0.0316866
-0.0167655
0.0313103
-0.0175962
0.0309064
-0.0184296
0.0304743
-0.0192635
0.0300176
-0.0200991
0.0295492
-0.0209448
-0.0218368
0.0290975
0.0262475
0.00586566
-0.0258561
0.0266354
0.00581472
0.0270196
0.00575885
0.0273998
0.00569809
0.0277756
0.0056323
0.0281469
0.00556129
0.0285131
0.00548487
0.0288742
0.00540282
0.0292295
0.00531492
0.029579
0.00522094
0.0299221
0.00512062
0.0302585
0.00501373
0.030588
0.00490002
0.03091
0.00477922
0.0312244
0.00465108
0.0315306
0.00451531
0.0318283
0.00437164
0.0321172
0.00421977
0.0323968
0.00405941
0.0326668
0.00389024
0.0329267
0.00371194
0.0331763
0.00352419
0.033415
0.00332668
0.0336427
0.00311905
0.0338588
0.00290093
0.0340631
0.00267197
0.0342551
0.00243179
0.0344345
0.00218001
0.034601
0.00191624
0.0347542
0.00164012
0.0348938
0.00135127
0.0350196
0.00104928
0.0351312
0.000733769
0.0352286
0.000404306
0.0353112
6.05255e-05
0.0353791
-0.000298071
0.035432
-0.000671839
0.0354697
-0.0010611
0.0354921
-0.00146621
0.0354991
-0.00188751
0.0354907
-0.00232534
0.0354667
-0.00278
0.0354273
-0.00325179
0.0353724
-0.00374098
0.0353022
-0.0042478
0.0352168
-0.0047725
0.0351164
-0.00531527
0.0350012
-0.00587628
0.0348714
-0.00645571
0.0347274
-0.00705367
0.0345694
-0.00767025
0.0343975
-0.00830548
0.0342119
-0.0089593
0.0340124
-0.00963157
0.0337987
-0.010322
0.0335702
-0.0110301
0.0333261
-0.0117552
0.0330652
-0.0124966
0.0327861
-0.0132529
0.0324871
-0.0140229
0.0321662
-0.0148046
0.0318211
-0.0155958
0.0314494
-0.0163938
0.0310488
-0.0171957
0.0306194
-0.0180001
0.0301652
-0.0188093
0.0296991
-0.019633
0.0292494
-0.0204951
-0.021441
0.0288537
0.0261083
0.00547433
-0.025717
0.0264961
0.00542691
0.0268801
0.00537481
0.0272601
0.00531812
0.0276357
0.0052567
0.0280066
0.00519036
0.0283726
0.00511892
0.0287332
0.00504218
0.0290882
0.00495993
0.0294372
0.00487193
0.0297799
0.00477795
0.0301159
0.00467776
0.0304448
0.0045711
0.0307663
0.00445772
0.03108
0.00433737
0.0313855
0.00420976
0.0316825
0.00407463
0.0319706
0.00393169
0.0322494
0.00378064
0.0325185
0.00362116
0.0327775
0.00345296
0.033026
0.00327569
0.0332636
0.00308902
0.0334901
0.00289261
0.0337049
0.0026861
0.0339078
0.00246911
0.0340983
0.00224126
0.0342761
0.00200218
0.0344409
0.00175145
0.0345923
0.0014887
0.0347301
0.0012135
0.0348539
0.000925448
0.0349636
0.000624123
0.0350588
0.000309092
0.0351394
-2.00409e-05
0.0352051
-0.000363824
0.0352559
-0.000722599
0.0352915
-0.00109674
0.035312
-0.00148665
0.0353172
-0.00189272
0.0353071
-0.0023153
0.0352819
-0.00275477
0.0352416
-0.00321145
0.0351862
-0.00368566
0.0351161
-0.00417767
0.0350314
-0.00468775
0.0349322
-0.0052161
0.0348188
-0.0057629
0.0346914
-0.00632826
0.0345499
-0.00691224
0.0343945
-0.0075148
0.0342248
-0.00813582
0.0340406
-0.00877506
0.0338412
-0.00943216
0.0336258
-0.0101066
0.0333934
-0.0107977
0.0331428
-0.0115046
0.0328725
-0.0122263
0.0325809
-0.0129613
0.032266
-0.013708
0.0319257
-0.0144644
0.0315579
-0.0152279
0.0311609
-0.0159968
0.0307354
-0.0167702
0.0302864
-0.0175511
0.0298271
-0.01835
0.0293825
-0.0191884
0.0289861
-0.0200987
-0.0211195
0.0286646
0.0259936
0.0050829
-0.0256022
0.0263816
0.005039
0.0267657
0.0049907
0.0271457
0.00493811
0.0275213
0.00488109
0.0278922
0.00481947
0.028258
0.00475307
0.0286185
0.00468168
0.0289734
0.0046051
0.0293222
0.00452313
0.0296646
0.00443553
0.0300003
0.00434207
0.0303288
0.00424251
0.03065
0.00413661
0.0309632
0.00402411
0.0312682
0.00390474
0.0315646
0.00377822
0.0318521
0.00364429
0.0321301
0.00350263
0.0323983
0.00335294
0.0326563
0.00319491
0.0329038
0.00302821
0.0331403
0.0028525
0.0333655
0.00266744
0.0335789
0.00247264
0.0337803
0.00226775
0.0339692
0.00205237
0.0341453
0.0018261
0.0343082
0.00158854
0.0344576
0.00133925
0.0345933
0.00107783
0.0347149
0.000803819
0.0348223
0.000516779
0.0349151
0.000216258
0.0349933
-9.81964e-05
0.0350566
-0.000427145
0.0351049
-0.000770958
0.0351383
-0.00113007
0.0351565
-0.00150493
0.0351598
-0.00189596
0.0351481
-0.00230358
0.0351215
-0.00272818
0.0350802
-0.00317013
0.0350243
-0.00362975
0.0349539
-0.00410733
0.0348693
-0.0046031
0.0347704
-0.00511722
0.0346573
-0.00564979
0.0345298
-0.00620081
0.0343878
-0.00677022
0.0342308
-0.00735783
0.0340584
-0.00796335
0.0338697
-0.00858637
0.0336639
-0.00922637
0.03344
-0.00988264
0.0331966
-0.0105544
0.0329325
-0.0112405
0.032646
-0.0119398
0.0323354
-0.0126506
0.0319985
-0.0133712
0.0316338
-0.0140996
0.0312404
-0.0148345
0.0308198
-0.0155763
0.0303788
-0.0163291
0.029932
-0.0171043
0.0295042
-0.0179223
0.0291269
-0.0188111
0.0288158
-0.0197876
-0.0208264
0.0285228
0.0259057
0.00469119
-0.025514
0.0262939
0.00465081
0.0266783
0.00460632
0.0270586
0.00455783
0.0274344
0.00450524
0.0278055
0.00444836
0.0281716
0.00438701
0.0285323
0.00432101
0.0288872
0.00425016
0.0292361
0.00417426
0.0295785
0.00409308
0.0299142
0.00400641
0.0302427
0.00391401
0.0305637
0.00381564
0.0308767
0.00371105
0.0311815
0.00359999
0.0314775
0.00348217
0.0317645
0.00335732
0.032042
0.00322515
0.0323095
0.00308535
0.0325668
0.00293761
0.0328135
0.0027816
0.033049
0.00261698
0.033273
0.00244339
0.0334852
0.00226045
0.0336852
0.0020678
0.0338725
0.00186502
0.0340469
0.00165171
0.034208
0.00142744
0.0343555
0.00119177
0.0344891
0.000944234
0.0346085
0.000684382
0.0347136
0.000411728
0.034804
0.000125801
0.0348798
-0.000173935
0.0349407
-0.000488025
0.0349866
-0.000816897
0.0350176
-0.00116104
0.0350335
-0.00152092
0.0350346
-0.00189701
0.0350208
-0.00228976
0.0349922
-0.00269956
0.0349488
-0.00312678
0.0348908
-0.00357172
0.0348181
-0.00403462
0.0347306
-0.00451568
0.0346284
-0.00501496
0.0345111
-0.00553247
0.0343783
-0.00606811
0.0342298
-0.00662167
0.0340648
-0.00719286
0.0338827
-0.00778123
0.0336826
-0.00838626
0.0334635
-0.00900727
0.0332243
-0.00964342
0.0329636
-0.0102937
0.03268
-0.0109569
0.0323717
-0.0116315
0.0320371
-0.0123161
0.031675
-0.013009
0.0312853
-0.01371
0.0308713
-0.0144204
0.0304412
-0.0151462
0.0300116
-0.0158995
0.0296075
-0.0167002
0.0292575
-0.0175722
0.0289722
-0.0185258
0.0286997
-0.0195152
-0.0203923
0.0282656
0.0258473
0.00429896
-0.0254551
0.026236
0.0042621
0.0266209
0.00422142
0.0270017
0.00417704
0.0273781
0.00412886
0.0277497
0.00407672
0.0281163
0.00402044
0.0284774
0.00395985
0.0288328
0.00389475
0.0291822
0.00382494
0.029525
0.00375022
0.0298611
0.00367037
0.0301899
0.00358517
0.0305112
0.00349438
0.0308245
0.00339776
0.0311294
0.00329506
0.0314256
0.00318601
0.0317125
0.00307033
0.03199
0.00294773
0.0322574
0.00281791
0.0325145
0.00268056
0.0327607
0.00253535
0.0329958
0.00238193
0.0332192
0.00221994
0.0334306
0.00204901
0.0336297
0.00186873
0.033816
0.00167871
0.0339892
0.00147852
0.0341489
0.0012677
0.0342949
0.00104581
0.0344268
0.000812359
0.0345443
0.000566853
0.0346472
0.000308785
0.0347354
3.76537e-05
0.0348086
-0.000247156
0.0348667
-0.000546155
0.0349097
-0.000859826
0.0349373
-0.00118868
0.0349496
-0.00153323
0.0349466
-0.00189396
0.0349281
-0.00227131
0.0348943
-0.00266569
0.0348449
-0.00307746
0.0347801
-0.00350689
0.0346997
-0.00395421
0.0346035
-0.00441951
0.0344914
-0.00490284
0.0343631
-0.0054041
0.0342181
-0.0059231
0.0340559
-0.00645954
0.033876
-0.00701298
0.0336777
-0.00758287
0.03346
-0.00816854
0.0332218
-0.00876913
0.032962
-0.00938364
0.0326792
-0.0100109
0.0323718
-0.0106495
0.0320386
-0.0112983
0.031679
-0.0119565
0.0312944
-0.0126244
0.0308897
-0.0133053
0.0304755
-0.0140062
0.0300698
-0.0147405
0.0296971
-0.0155269
0.0293808
-0.0163839
0.0291198
-0.0173112
0.0288477
-0.0182537
0.0283866
-0.019054
-0.0194567
0.0274509
0.0258235
0.0039058
-0.0254304
0.0262132
0.00387244
0.0265991
0.00383554
0.0269809
0.00379525
0.0273583
0.00375147
0.027731
0.00370404
0.0280986
0.00365281
0.0284608
0.0035976
0.0288173
0.00353823
0.0291678
0.00347452
0.0295117
0.00340625
0.0298489
0.00333323
0.0301788
0.00325524
0.0305011
0.00317205
0.0308155
0.00308343
0.0311214
0.00298913
0.0314185
0.00288889
0.0317064
0.00278243
0.0319847
0.00266948
0.0322528
0.00254974
0.0325105
0.00242289
0.0327572
0.00228861
0.0329926
0.00214654
0.0332162
0.00199633
0.0334276
0.0018376
0.0336264
0.00166996
0.0338122
0.00149297
0.0339845
0.00130621
0.034143
0.00110922
0.0342872
0.000901523
0.034417
0.000682614
0.0345319
0.000451978
0.0346316
0.000209079
0.0347158
-4.66267e-05
0.0347845
-0.000315787
0.0348372
-0.000598895
0.0348739
-0.000896488
0.0348943
-0.00120912
0.0348984
-0.00153732
0.0348861
-0.00188161
0.0348572
-0.00224247
0.0348118
-0.00262031
0.0347499
-0.0030155
0.0346713
-0.00342832
0.034576
-0.00385895
0.034464
-0.00430749
0.0343351
-0.00477389
0.0341889
-0.00525799
0.0340253
-0.0057595
0.0338438
-0.00627799
0.0336437
-0.00681289
0.0334243
-0.00736346
0.0331846
-0.00792885
0.0329235
-0.00850804
0.0326398
-0.0090999
0.0323322
-0.00970332
0.0320002
-0.0103175
0.0316442
-0.0109424
0.0312675
-0.0115798
0.0308773
-0.0122342
0.0304865
-0.0129145
0.0301145
-0.0136342
0.0297837
-0.0144097
0.0295085
-0.0152517
0.0292709
-0.0161464
0.0289818
-0.0170221
0.0284491
-0.0177211
0.0273961
-0.018001
-0.0176484
0.0255878
0.0258427
0.003511
-0.0254479
0.026234
0.00348108
0.0266216
0.00344791
0.0270052
0.00341165
0.0273845
0.00337221
0.0277591
0.00332945
0.0281287
0.00328322
0.0284929
0.00323336
0.0288515
0.00317969
0.0292039
0.00312204
0.02955
0.00306022
0.0298892
0.00299403
0.0302211
0.00292328
0.0305454
0.00284773
0.0308617
0.00276718
0.0311695
0.00268137
0.0314683
0.00259006
0.0317577
0.00249299
0.0320373
0.00238988
0.0323066
0.00228044
0.0325652