/*--------------------------------*- C++ -*----------------------------------*\
| =========                 |                                                 |
| \\      /  F ield         | OpenFOAM: The Open Source CFD Toolbox           |
|  \\    /   O peration     | Version:  2312                                  |
|   \\  /    A nd           | Website:  www.openfoam.com                      |
|    \\/     M anipulation  |                                                 |
\*---------------------------------------------------------------------------*/
FoamFile
{
    version     2.0;
    format      ascii;
    arch        "LSB;label=32;scalar=64";
    class       volVectorField;
    location    "300";
    object      U;
}
// * * * * * * * * * * * * * * * * * * * * * * * * * * * * * * * * * * * * * //

dimensions      [0 1 -1 0 0 0 0];

internalField   nonuniform List<vector> 
76025
(
(1.00216 -0.20074 0)
(1.00751 -0.201153 7.88269e-22)
(1.01289 -0.201444 0)
(1.01828 -0.201602 0)
(1.02369 -0.201652 2.87432e-21)
(1.02925 -0.201315 1.02198e-20)
(1.03484 -0.201064 -2.07641e-20)
(1.04052 -0.200467 9.77394e-21)
(1.04615 -0.199835 4.71701e-21)
(1.05178 -0.199015 -5.49175e-21)
(1.05741 -0.198016 5.11518e-22)
(1.06309 -0.196781 -2.14462e-20)
(1.0688 -0.195437 2.84347e-20)
(1.07448 -0.193839 0)
(1.08014 -0.191938 -9.34926e-21)
(1.08571 -0.190094 0)
(1.09126 -0.187799 0)
(1.09682 -0.185529 0)
(1.10232 -0.182901 -1.16353e-20)
(1.1077 -0.180299 1.32456e-20)
(1.11305 -0.17732 1.40026e-20)
(1.11837 -0.174211 4.33095e-20)
(1.12354 -0.17089 -2.94661e-20)
(1.12862 -0.167336 -4.87284e-20)
(1.1336 -0.163676 -1.40496e-21)
(1.1385 -0.159912 -1.93191e-20)
(1.14339 -0.155672 5.48893e-20)
(1.1481 -0.151443 -5.57803e-20)
(1.15273 -0.146892 1.92164e-20)
(1.15729 -0.14196 -1.99584e-20)
(1.16159 -0.137378 -2.08548e-20)
(1.16582 -0.132527 4.49283e-20)
(1.16996 -0.127172 -6.84159e-20)
(1.17398 -0.121954 -1.22846e-20)
(1.17785 -0.116361 6.20275e-20)
(1.18151 -0.11086 3.52641e-22)
(1.18512 -0.105044 -1.2921e-20)
(1.18868 -0.098898 6.81352e-21)
(1.19207 -0.0929184 3.0108e-22)
(1.19524 -0.0866023 -1.01106e-20)
(1.19819 -0.0802913 6.71894e-21)
(1.20111 -0.0737203 -3.32397e-21)
(1.20397 -0.0666906 6.64278e-21)
(1.20661 -0.0597689 -1.33943e-20)
(1.20898 -0.0526086 -1.37715e-20)
(1.21121 -0.0454232 2.64012e-20)
(1.21334 -0.0378286 2.74547e-20)
(1.21523 -0.030195 -8.26707e-20)
(1.21684 -0.0224126 5.35179e-20)
(1.21834 -0.014507 -8.46544e-22)
(1.21965 -0.00641917 -1.36342e-19)
(1.22071 0.00195033 -5.32411e-20)
(1.22162 0.0105383 5.53509e-20)
(1.22231 0.0193966 0)
(1.2226 0.0284237 -5.29753e-20)
(1.22268 0.0375362 -5.50907e-20)
(1.22261 0.0470333 1.29868e-21)
(1.22223 0.0569151 -5.35028e-20)
(1.2216 0.0672751 5.38419e-20)
(1.22066 0.078142 -1.57698e-19)
(1.21977 0.0887287 -1.0883e-19)
(1.21844 0.100296 -4.87649e-21)
(1.2168 0.112386 0)
(1.21485 0.124959 2.67316e-19)
(1.21254 0.138142 -1.01442e-19)
(1.21004 0.15166 5.31359e-20)
(1.20734 0.16642 -1.03858e-19)
(1.20417 0.182261 1.09169e-19)
(1.20203 0.198548 2.11684e-19)
(1.00119 -0.21015 1.37542e-21)
(1.00684 -0.210579 2.66985e-22)
(1.01252 -0.210847 -1.06863e-21)
(1.01824 -0.210957 0)
(1.02396 -0.210932 -1.04705e-20)
(1.02979 -0.210694 -3.33744e-21)
(1.0356 -0.210297 1.20966e-20)
(1.04148 -0.20971 0)
(1.0474 -0.208946 5.27926e-22)
(1.05333 -0.208012 5.618e-21)
(1.05928 -0.206898 -6.41042e-21)
(1.06523 -0.205587 6.42608e-22)
(1.07118 -0.204094 0)
(1.07713 -0.202405 0)
(1.08309 -0.200476 -2.14424e-20)
(1.08896 -0.198399 5.24173e-20)
(1.09485 -0.19607 1.19535e-20)
(1.10065 -0.193586 -3.82335e-20)
(1.10644 -0.190864 2.54658e-20)
(1.11213 -0.187983 -1.35097e-20)
(1.11779 -0.184876 1.5961e-20)
(1.12335 -0.181576 -3.03012e-20)
(1.12883 -0.178068 3.34424e-20)
(1.13421 -0.174347 -5.19038e-20)
(1.13949 -0.170428 3.51462e-20)
(1.14468 -0.166333 5.65057e-20)
(1.1498 -0.16202 -3.84242e-20)
(1.15473 -0.157536 0)
(1.15956 -0.152836 0)
(1.16428 -0.147937 -2.26576e-20)
(1.16888 -0.142883 0)
(1.17337 -0.137646 -2.43764e-20)
(1.17771 -0.132213 2.49254e-20)
(1.18187 -0.126627 -3.82269e-20)
(1.18589 -0.120861 6.51997e-22)
(1.18977 -0.114925 -1.33202e-20)
(1.19352 -0.108758 0)
(1.19711 -0.102482 -2.85416e-20)
(1.20053 -0.0960775 2.1575e-20)
(1.20378 -0.0895297 -1.77805e-20)
(1.20685 -0.0827914 1.07719e-20)
(1.20977 -0.0758433 -1.13644e-22)
(1.21252 -0.0688244 3.87284e-21)
(1.21506 -0.0616979 -3.60016e-21)
(1.21742 -0.0544122 2.94617e-20)
(1.21961 -0.0469198 -1.48294e-20)
(1.22162 -0.039289 -1.52592e-20)
(1.22342 -0.0315515 2.84368e-20)
(1.22501 -0.0235881 8.71935e-20)
(1.22644 -0.0154126 -4.39508e-22)
(1.22767 -0.00706617 8.61715e-20)
(1.22869 0.0014898 -2.8996e-20)
(1.22951 0.0102369 -8.56023e-20)
(1.23012 0.0191495 5.71868e-20)
(1.2305 0.0282411 0)
(1.23064 0.0377247 1.71872e-19)
(1.23061 0.0474485 5.21739e-22)
(1.23034 0.057477 -5.6704e-20)
(1.22986 0.067823 -5.80714e-20)
(1.2292 0.0785069 0)
(1.22832 0.0896903 5.38735e-20)
(1.22724 0.101303 1.67205e-19)
(1.22592 0.113337 0)
(1.22438 0.125904 -1.1077e-19)
(1.2226 0.1391 6.22829e-20)
(1.22049 0.153113 -1.13481e-19)
(1.21826 0.167987 5.63023e-20)
(1.21577 0.183387 -1.1079e-19)
(1.21344 0.200079 -1.09516e-19)
(1.00028 -0.22012 -4.75122e-21)
(1.00618 -0.220528 3.12098e-21)
(1.01213 -0.220772 6.61577e-22)
(1.01816 -0.220855 -7.19804e-21)
(1.02422 -0.220767 9.62128e-21)
(1.03032 -0.220501 1.41964e-20)
(1.03645 -0.220045 -1.83748e-20)
(1.04261 -0.219403 0)
(1.04881 -0.218567 5.84176e-22)
(1.05503 -0.217538 0)
(1.06127 -0.216312 7.77462e-21)
(1.0675 -0.214888 -7.95409e-21)
(1.07373 -0.213263 -4.78146e-20)
(1.07994 -0.211437 3.82089e-20)
(1.08614 -0.209401 -1.0454e-20)
(1.09232 -0.207152 -3.54934e-20)
(1.09847 -0.204696 1.2079e-20)
(1.10458 -0.202025 1.29334e-20)
(1.11063 -0.199152 4.39402e-20)
(1.11663 -0.196062 -2.92538e-20)
(1.12254 -0.192768 -1.64072e-20)
(1.12837 -0.189264 3.42494e-20)
(1.13411 -0.18555 -1.61967e-20)
(1.13976 -0.18162 -1.89676e-20)
(1.14531 -0.177482 0)
(1.15075 -0.173141 2.06791e-20)
(1.15606 -0.16861 2.10583e-20)
(1.16123 -0.163877 -2.03926e-20)
(1.16628 -0.158938 0)
(1.1712 -0.153807 4.70102e-20)
(1.176 -0.148476 -2.50176e-20)
(1.18065 -0.142972 -1.31042e-21)
(1.18513 -0.137301 0)
(1.18945 -0.131445 1.31856e-20)
(1.19361 -0.125419 -4.18974e-20)
(1.1976 -0.119218 2.85593e-20)
(1.20143 -0.112853 0)
(1.20508 -0.106348 2.24292e-20)
(1.20856 -0.0996911 -2.2621e-20)
(1.21186 -0.0928871 -3.69561e-21)
(1.21498 -0.0859229 0)
(1.21791 -0.0788113 -7.61248e-21)
(1.22065 -0.0715679 -3.83822e-21)
(1.22322 -0.0641687 3.66607e-21)
(1.22559 -0.0566119 -2.25403e-20)
(1.22777 -0.048898 -1.56211e-20)
(1.22975 -0.0410418 2.99148e-20)
(1.23154 -0.0330291 -3.06941e-20)
(1.23314 -0.0248407 3.11068e-20)
(1.23454 -0.0164856 -3.02794e-20)
(1.23576 -0.0079712 -2.97682e-20)
(1.23678 0.000724339 6.1954e-20)
(1.23762 0.00961088 0)
(1.23827 0.0186983 6.16869e-20)
(1.23871 0.0280132 1.00366e-21)
(1.23896 0.0375956 -6.04723e-20)
(1.23903 0.0474304 -6.02755e-20)
(1.23892 0.0575639 1.19805e-19)
(1.23862 0.0680339 -9.50448e-22)
(1.23815 0.0788879 6.10132e-20)
(1.2375 0.0901359 -1.21814e-19)
(1.23668 0.101806 -6.19362e-20)
(1.23567 0.113965 7.04021e-22)
(1.23447 0.126691 -5.92844e-20)
(1.23308 0.140038 -5.6435e-20)
(1.2315 0.154078 -1.81601e-19)
(1.22988 0.168941 0)
(1.22797 0.184516 -6.02377e-20)
(1.22645 0.201495 5.8392e-20)
(0.999463 -0.230694 0)
(1.00562 -0.231084 2.41471e-22)
(1.01184 -0.231301 -5.96365e-21)
(1.01814 -0.231348 5.26257e-21)
(1.02451 -0.231213 1.02623e-20)
(1.03092 -0.230888 -1.66161e-20)
(1.03737 -0.230367 4.30459e-21)
(1.04385 -0.229649 -5.80543e-21)
(1.05035 -0.22873 -6.09897e-21)
(1.05687 -0.227607 -3.11171e-20)
(1.0634 -0.226276 3.17299e-20)
(1.06993 -0.224735 3.8346e-20)
(1.07645 -0.22298 -7.62404e-21)
(1.08296 -0.22101 -4.36735e-20)
(1.08944 -0.218821 3.49841e-20)
(1.0959 -0.216412 -1.3183e-20)
(1.10232 -0.213784 1.40886e-20)
(1.10869 -0.210935 1.4991e-20)
(1.11501 -0.207868 -4.64657e-20)
(1.12127 -0.204582 1.48057e-20)
(1.12744 -0.201078 1.66016e-20)
(1.13353 -0.197355 0)
(1.13953 -0.193413 3.96991e-20)
(1.14542 -0.189255 -1.94567e-20)
(1.1512 -0.184884 -4.20193e-20)
(1.15686 -0.180304 -4.46252e-20)
(1.16239 -0.175517 8.86981e-20)
(1.16778 -0.170521 -4.65385e-20)
(1.17304 -0.165322 0)
(1.17814 -0.159924 -5.0084e-20)
(1.1831 -0.154336 -1.01467e-21)
(1.18789 -0.14857 5.25891e-20)
(1.19251 -0.142625 -2.80688e-20)
(1.19697 -0.136499 7.2008e-20)
(1.20124 -0.130201 -1.40774e-20)
(1.20534 -0.123735 0)
(1.20926 -0.117106 0)
(1.21299 -0.110324 8.09089e-21)
(1.21653 -0.103392 7.75406e-21)
(1.21988 -0.0963143 4.07911e-21)
(1.22304 -0.0890898 -1.27834e-22)
(1.226 -0.0817199 3.91759e-21)
(1.22877 -0.0742087 0)
(1.23134 -0.0665589 -3.55417e-22)
(1.23372 -0.0587726 0)
(1.2359 -0.0508468 1.54705e-20)
(1.23789 -0.0427793 1.85527e-22)
(1.23968 -0.0345666 -4.8744e-20)
(1.24128 -0.0262025 0)
(1.2427 -0.0176796 -3.2151e-20)
(1.24393 -0.00899325 3.17682e-20)
(1.24499 -0.000131693 -6.24487e-20)
(1.24587 0.00891466 0)
(1.24657 0.0181583 -1.90697e-19)
(1.24709 0.0276143 9.68932e-22)
(1.24745 0.0373135 6.29237e-20)
(1.24764 0.0472755 6.27054e-20)
(1.24767 0.0575295 0)
(1.24755 0.0681033 0)
(1.24728 0.0790354 -6.1428e-20)
(1.24686 0.0903544 1.22597e-19)
(1.2463 0.102113 1.22626e-19)
(1.2456 0.114345 0)
(1.24477 0.127129 -1.28026e-19)
(1.24383 0.140513 0)
(1.2428 0.154594 1.85733e-19)
(1.24177 0.169496 -6.19052e-20)
(1.24054 0.185131 -6.31349e-20)
(1.23974 0.202166 -6.51892e-20)
(0.998696 -0.241887 0)
(1.00517 -0.242267 0)
(1.01169 -0.24246 -1.52045e-21)
(1.01828 -0.242472 1.11048e-20)
(1.02495 -0.242289 -1.45941e-20)
(1.03166 -0.241902 3.97626e-21)
(1.03842 -0.241308 0)
(1.04522 -0.240505 5.88504e-21)
(1.05204 -0.23949 0)
(1.05888 -0.238259 1.72505e-20)
(1.06572 -0.23681 2.77287e-21)
(1.07257 -0.235138 -1.91023e-20)
(1.0794 -0.233241 0)
(1.08621 -0.231117 2.48466e-20)
(1.093 -0.228763 -7.73294e-20)
(1.09975 -0.22618 5.42617e-20)
(1.10645 -0.223367 -7.32481e-20)
(1.11311 -0.220323 1.52393e-20)
(1.11969 -0.217048 -1.71854e-20)
(1.12621 -0.213545 1.69821e-20)
(1.13264 -0.209813 1.87169e-20)
(1.13898 -0.205853 -5.77949e-20)
(1.14522 -0.201667 -4.05941e-20)
(1.15135 -0.197257 0)
(1.15735 -0.192627 4.5002e-20)
(1.16323 -0.18778 2.4027e-20)
(1.16897 -0.182719 -7.02302e-20)
(1.17456 -0.177448 2.41526e-20)
(1.18 -0.171971 -5.22389e-20)
(1.18528 -0.166294 7.84858e-20)
(1.19039 -0.160424 -2.83485e-20)
(1.19533 -0.154368 1.46459e-20)
(1.20009 -0.148129 0)
(1.20466 -0.141711 -1.48307e-20)
(1.20905 -0.135121 -1.53063e-20)
(1.21324 -0.128365 0)
(1.21724 -0.121452 1.69789e-20)
(1.22104 -0.114391 -2.49307e-20)
(1.22464 -0.107185 1.65789e-20)
(1.22804 -0.0998377 -8.40009e-21)
(1.23124 -0.092351 -1.40689e-22)
(1.23423 -0.0847277 -6.4383e-21)
(1.23702 -0.0769717 2.09607e-21)
(1.23961 -0.0690863 8.2685e-21)
(1.242 -0.061071 2.80133e-22)
(1.24419 -0.0529238 5.05985e-20)
(1.24618 -0.044643 0)
(1.24799 -0.0362267 3.30196e-20)
(1.24961 -0.0276697 -5.55743e-22)
(1.25105 -0.0189652 -3.34208e-20)
(1.25231 -0.0101079 0)
(1.2534 -0.00108846 -3.35957e-20)
(1.25433 0.00810333 3.32006e-20)
(1.25509 0.0174837 6.5244e-20)
(1.2557 0.0270681 0)
(1.25616 0.0368832 -1.31487e-19)
(1.25647 0.0469492 1.32127e-19)
(1.25665 0.0572945 -1.31926e-19)
(1.2567 0.0679464 -1.68684e-21)
(1.25663 0.0789455 0)
(1.25644 0.0903215 -6.59902e-20)
(1.25616 0.102126 6.4271e-20)
(1.25578 0.114393 6.8668e-20)
(1.25534 0.127204 1.2841e-19)
(1.25488 0.140601 -1.99436e-19)
(1.25442 0.154687 1.31081e-19)
(1.254 0.169576 -6.45928e-20)
(1.25345 0.18522 6.76317e-20)
(1.2533 0.202217 1.89561e-19)
(0.997862 -0.253734 7.61781e-22)
(1.00471 -0.254107 4.24282e-21)
(1.01159 -0.254279 -5.48004e-21)
(1.01854 -0.254255 0)
(1.02554 -0.254022 3.59745e-21)
(1.03259 -0.253572 0)
(1.03967 -0.252901 -1.29731e-20)
(1.04679 -0.252007 -2.11878e-21)
(1.05394 -0.250886 2.33968e-20)
(1.06111 -0.249537 -9.47475e-21)
(1.06828 -0.247955 -9.62963e-21)
(1.07545 -0.246139 -1.15415e-20)
(1.08261 -0.244086 0)
(1.08975 -0.241795 0)
(1.09685 -0.239262 1.35436e-20)
(1.10391 -0.236488 1.45084e-20)
(1.11091 -0.233471 -3.2997e-20)
(1.11786 -0.230213 3.29588e-20)
(1.12473 -0.226713 3.59548e-20)
(1.13152 -0.222972 -3.87663e-20)
(1.13822 -0.218994 7.81586e-20)
(1.14481 -0.214779 5.5395e-22)
(1.1513 -0.210331 -4.39656e-20)
(1.15766 -0.20565 -2.34492e-20)
(1.16389 -0.20074 -4.82176e-20)
(1.16998 -0.195606 4.83525e-20)
(1.17592 -0.190254 5.19605e-20)
(1.1817 -0.184687 -5.21562e-20)
(1.18732 -0.178912 0)
(1.19277 -0.172935 0)
(1.19803 -0.16676 7.3393e-20)
(1.20311 -0.160396 1.55897e-21)
(1.208 -0.153849 -3.08938e-20)
(1.21268 -0.147127 -3.25961e-20)
(1.21717 -0.140234 3.28885e-20)
(1.22145 -0.133178 0)
(1.22552 -0.125969 -1.70524e-20)
(1.22939 -0.118619 -2.66915e-20)
(1.23304 -0.111128 1.74689e-20)
(1.23648 -0.1035 -2.07172e-22)
(1.23971 -0.0957398 -1.39254e-21)
(1.24272 -0.0878514 6.5402e-21)
(1.24553 -0.0798387 4.54273e-21)
(1.24813 -0.0717048 8.93512e-21)
(1.25053 -0.0634509 -4.40698e-20)
(1.25273 -0.055077 2.68747e-22)
(1.25473 -0.0465824 0)
(1.25654 -0.0379646 -3.61524e-20)
(1.25818 -0.0292195 1.06161e-19)
(1.25964 -0.020341 -7.10477e-20)
(1.26092 -0.0113223 -3.53098e-20)
(1.26205 -0.00215358 -8.89181e-22)
(1.26303 0.0071762 -3.45542e-20)
(1.26386 0.0166834 -6.29209e-22)
(1.26454 0.0263827 6.92161e-20)
(1.2651 0.0362992 -7.07788e-20)
(1.26553 0.0464517 -6.94967e-20)
(1.26585 0.0568712 1.38118e-19)
(1.26607 0.067583 -9.93219e-22)
(1.26619 0.0786273 6.91788e-20)
(1.26623 0.0900324 -6.82303e-20)
(1.26623 0.101853 6.72465e-20)
(1.2662 0.114121 -1.34074e-19)
(1.26619 0.126918 -6.89447e-20)
(1.26623 0.140285 1.32439e-19)
(1.26633 0.15433 -7.1682e-20)
(1.2665 0.16916 -2.0701e-19)
(1.26653 0.184744 -6.58624e-20)
(1.26689 0.201567 0)
(0.996906 -0.266286 0)
(1.00417 -0.266648 1.49995e-21)
(1.01146 -0.266796 -5.73904e-22)
(1.01881 -0.266736 0)
(1.02621 -0.266453 0)
(1.03363 -0.265936 6.06588e-21)
(1.04109 -0.265183 -2.18618e-20)
(1.04858 -0.264192 3.14492e-20)
(1.05608 -0.262961 -1.58926e-20)
(1.0636 -0.261484 9.59039e-21)
(1.07112 -0.259761 0)
(1.07863 -0.25779 1.16789e-20)
(1.08613 -0.255567 -1.378e-20)
(1.0936 -0.253093 0)
(1.10103 -0.250364 0)
(1.10841 -0.247381 1.67612e-20)
(1.11573 -0.244144 2.10129e-21)
(1.12299 -0.240653 -3.57347e-20)
(1.13016 -0.236909 -3.85121e-20)
(1.13723 -0.232914 3.98166e-20)
(1.14421 -0.22867 2.07594e-20)
(1.15107 -0.224178 9.07032e-20)
(1.15781 -0.219442 1.04839e-21)
(1.16441 -0.214468 -2.60292e-20)
(1.17087 -0.209259 4.98126e-20)
(1.17718 -0.203818 -2.64263e-20)
(1.18332 -0.198154 5.37619e-20)
(1.1893 -0.19227 0)
(1.19509 -0.186173 0)
(1.2007 -0.179871 0)
(1.20611 -0.173371 -1.51996e-20)
(1.21132 -0.16668 -3.17113e-20)
(1.21633 -0.159808 3.28024e-20)
(1.22112 -0.152759 3.45411e-20)
(1.2257 -0.145546 -3.48299e-20)
(1.23006 -0.138174 0)
(1.23421 -0.130655 1.85544e-20)
(1.23812 -0.122996 -9.29736e-21)
(1.24182 -0.1152 0)
(1.24529 -0.107276 9.30711e-21)
(1.24854 -0.0992294 -1.74178e-21)
(1.25157 -0.0910649 1.15812e-21)
(1.25438 -0.0827874 -4.56501e-21)
(1.25698 -0.0744005 0)
(1.25938 -0.0659063 -1.87499e-20)
(1.26158 -0.0573057 1.85249e-20)
(1.26358 -0.0485977 0)
(1.2654 -0.0397804 -9.30178e-22)
(1.26704 -0.0308498 5.67713e-22)
(1.26851 -0.0218001 3.61901e-20)
(1.26982 -0.0126242 0)
(1.27098 -0.00331217 -1.47144e-21)
(1.27199 0.00614686 -3.58847e-20)
(1.27287 0.015769 -1.10512e-19)
(1.27363 0.0255688 -1.77931e-21)
(1.27427 0.0355705 7.11569e-20)
(1.27481 0.0457921 0)
(1.27525 0.0562658 0)
(1.27563 0.0670139 7.33375e-20)
(1.27594 0.0780771 0)
(1.27624 0.0894823 0)
(1.27654 0.101285 -9.47449e-22)
(1.27689 0.113518 -7.07451e-20)
(1.27732 0.126262 -1.44331e-19)
(1.27786 0.139559 1.42449e-19)
(1.27847 0.153516 -5.67862e-21)
(1.27914 0.168234 6.69155e-20)
(1.27961 0.18369 7.01661e-20)
(1.28025 0.20032 0)
(0.995847 -0.279605 0)
(1.00354 -0.279952 -1.51939e-21)
(1.01127 -0.280071 9.85471e-21)
(1.01906 -0.279968 -2.57904e-21)
(1.02688 -0.279627 0)
(1.03474 -0.279039 -2.03811e-20)
(1.04262 -0.278198 3.80027e-20)
(1.05052 -0.277104 2.38668e-21)
(1.05842 -0.275752 -4.94478e-20)
(1.06633 -0.274141 9.38723e-21)
(1.07423 -0.272267 -1.28251e-20)
(1.08211 -0.270128 -1.39705e-20)
(1.08997 -0.267723 4.4047e-20)
(1.0978 -0.26505 -6.23425e-20)
(1.10558 -0.26211 3.22313e-20)
(1.1133 -0.258901 -1.95045e-20)
(1.12096 -0.255424 7.53886e-20)
(1.12853 -0.25168 -1.80793e-20)
(1.13601 -0.247672 2.2726e-20)
(1.14339 -0.243401 -2.06955e-20)
(1.15066 -0.23887 2.07992e-21)
(1.1578 -0.234082 -1.44773e-19)
(1.1648 -0.229039 -2.64049e-20)
(1.17166 -0.223748 -1.96399e-21)
(1.17836 -0.218213 8.15127e-20)
(1.18488 -0.212441 -2.74162e-20)
(1.19124 -0.206438 5.93499e-20)
(1.1974 -0.200212 -9.06888e-20)
(1.20337 -0.19377 0)
(1.20914 -0.187119 -3.2633e-20)
(1.2147 -0.180268 3.28009e-20)
(1.22004 -0.173226 9.27464e-22)
(1.22516 -0.166005 -1.8104e-20)
(1.23005 -0.158611 -1.86156e-20)
(1.23471 -0.151049 5.67118e-20)
(1.23915 -0.143334 -3.78871e-20)
(1.24334 -0.135483 2.94455e-20)
(1.2473 -0.127501 -3.88789e-20)
(1.25102 -0.11939 1.93629e-20)
(1.25451 -0.111159 -4.77879e-21)
(1.25777 -0.102816 0)
(1.26081 -0.0943669 4.93081e-21)
(1.26362 -0.0858175 -4.87181e-21)
(1.26622 -0.0771718 -9.84858e-21)
(1.26861 -0.0684328 2.93988e-20)
(1.2708 -0.0596018 -1.97731e-20)
(1.27279 -0.0506786 -1.93962e-20)
(1.2746 -0.0416614 0)
(1.27623 -0.0325469 -7.85291e-20)
(1.2777 -0.0233294 7.72922e-20)
(1.27901 -0.014002 -3.77231e-20)
(1.28018 -0.00455464 3.73246e-20)
(1.28122 0.00502339 3.87009e-20)
(1.28213 0.0147479 7.53589e-20)
(1.28294 0.0246337 7.45322e-20)
(1.28365 0.0347036 0)
(1.28428 0.0449755 -7.69133e-20)
(1.28486 0.0554812 0)
(1.28539 0.0662401 1.79178e-21)
(1.28592 0.0772948 -7.33805e-20)
(1.28648 0.0886692 7.4017e-20)
(1.28712 0.100422 7.29173e-20)
(1.28785 0.112582 -7.5289e-20)
(1.28872 0.125236 -1.96242e-21)
(1.28968 0.138422 8.18415e-22)
(1.29071 0.152238 2.19035e-19)
(1.2917 0.166779 7.45267e-20)
(1.29239 0.182032 7.45386e-20)
(1.29304 0.198334 -7.20291e-20)
(0.994738 -0.293765 0)
(1.00287 -0.294088 0)
(1.01105 -0.29417 8.71826e-21)
(1.01928 -0.294015 -1.3266e-20)
(1.02757 -0.293608 -6.68889e-21)
(1.03588 -0.292939 0)
(1.04421 -0.292001 0)
(1.05256 -0.290793 1.04726e-20)
(1.06091 -0.289312 -2.35184e-20)
(1.06925 -0.287553 -3.64915e-21)
(1.07757 -0.285517 6.70551e-20)
(1.08587 -0.283198 -1.40588e-20)
(1.09413 -0.280595 1.64059e-20)
(1.10235 -0.27771 -3.28804e-20)
(1.11051 -0.274542 1.89432e-20)
(1.1186 -0.271091 0)
(1.12661 -0.267356 0)
(1.13453 -0.263339 1.04673e-21)
(1.14235 -0.259043 -6.77982e-20)
(1.15005 -0.254471 2.30329e-20)
(1.15762 -0.249627 -2.57665e-20)
(1.16505 -0.244514 2.51678e-20)
(1.17233 -0.239137 2.71587e-20)
(1.17945 -0.233503 -2.61371e-20)
(1.18639 -0.227618 -2.83069e-20)
(1.19315 -0.221489 0)
(1.19972 -0.215123 0)
(1.20608 -0.208529 4.80319e-20)
(1.21223 -0.201714 0)
(1.21816 -0.194687 3.47663e-20)
(1.22386 -0.187459 -3.49322e-20)
(1.22933 -0.180042 -1.77133e-20)
(1.23456 -0.172445 1.82169e-20)
(1.23955 -0.16468 3.84664e-20)
(1.24428 -0.156756 -1.92325e-20)
(1.24877 -0.148681 -2.04084e-20)
(1.25301 -0.140474 2.07588e-20)
(1.257 -0.132145 0)
(1.26075 -0.1237 0)
(1.26425 -0.115147 5.27046e-21)
(1.2675 -0.106494 0)
(1.27053 -0.0977481 0)
(1.27332 -0.0889164 -1.56072e-20)
(1.2759 -0.0800034 2.07321e-20)
(1.27826 -0.0710129 -1.04881e-20)
(1.28041 -0.0619469 2.00393e-20)
(1.28237 -0.052806 0)
(1.28415 -0.0435889 6.16408e-20)
(1.28575 -0.0342924 -6.36818e-22)
(1.28719 -0.0249114 0)
(1.28849 -0.0154389 -8.05404e-20)
(1.28965 -0.00586511 -6.4938e-22)
(1.29069 0.00382084 -7.89398e-20)
(1.29163 0.0136343 -4.05491e-20)
(1.29247 0.02359 -7.95377e-20)
(1.29325 0.0337095 7.85648e-20)
(1.29397 0.0440108 7.71123e-20)
(1.29467 0.054523 0)
(1.29538 0.0652669 -7.82948e-20)
(1.29615 0.0762831 9.98386e-22)
(1.297 0.0875962 0)
(1.29797 0.0992644 0)
(1.29907 0.111322 7.50261e-20)
(1.30029 0.123845 0)
(1.30155 0.136876 0)
(1.3028 0.150496 -7.52999e-20)
(1.30384 0.164785 -7.22891e-20)
(1.30442 0.179701 -7.80398e-20)
(1.30472 0.195559 0)
(0.993627 -0.308836 0)
(1.00222 -0.309129 0)
(1.01085 -0.309163 0)
(1.01956 -0.308948 -6.37568e-21)
(1.02831 -0.308464 -9.02348e-21)
(1.0371 -0.307702 -2.71321e-21)
(1.0459 -0.306655 1.82967e-20)
(1.05472 -0.30532 -1.05763e-20)
(1.06354 -0.303695 1.30475e-20)
(1.07235 -0.301776 2.74155e-20)
(1.08113 -0.29956 0)
(1.08988 -0.297047 0)
(1.09858 -0.294236 -1.18974e-21)
(1.10723 -0.291122 5.53964e-20)
(1.1158 -0.287707 -8.06937e-20)
(1.1243 -0.283992 -2.48248e-21)
(1.1327 -0.279979 4.32048e-20)
(1.14099 -0.275668 2.25952e-20)
(1.14917 -0.271063 -1.73558e-21)
(1.15722 -0.266169 0)
(1.16512 -0.260989 5.37638e-20)
(1.17286 -0.255528 0)
(1.18044 -0.249795 5.82432e-20)
(1.18783 -0.243791 -9.06688e-20)
(1.19504 -0.237525 9.38001e-20)
(1.20204 -0.231007 3.34019e-20)
(1.20883 -0.224246 -5.11295e-20)
(1.2154 -0.217253 5.21763e-20)
(1.22173 -0.210039 -3.50625e-20)
(1.22783 -0.202609 0)
(1.23368 -0.194975 -3.80401e-20)
(1.23927 -0.18715 -2.07161e-20)
(1.2446 -0.179148 3.92835e-20)
(1.24967 -0.170981 -4.07727e-20)
(1.25448 -0.162662 2.10543e-20)
(1.25902 -0.154201 -2.12124e-20)
(1.26329 -0.14562 -1.0487e-20)
(1.2673 -0.136926 1.10583e-20)
(1.27104 -0.128126 5.3293e-21)
(1.27453 -0.119231 -1.60163e-20)
(1.27776 -0.11025 -1.38417e-21)
(1.28075 -0.101192 0)
(1.2835 -0.0920648 5.27557e-21)
(1.28603 -0.082874 -1.05351e-20)
(1.28833 -0.0736243 1.05132e-20)
(1.29043 -0.0643185 0)
(1.29233 -0.0549577 0)
(1.29405 -0.045541 2.18567e-20)
(1.2956 -0.0360655 -4.2198e-20)
(1.29699 -0.0265264 -8.53844e-20)
(1.29825 -0.0169164 1.68014e-19)
(1.29939 -0.00722636 -4.2591e-20)
(1.30041 0.00255512 4.14481e-20)
(1.30136 0.0124424 4.06367e-20)
(1.30223 0.02245 -8.27331e-20)
(1.30307 0.0325984 8.16658e-20)
(1.30389 0.0429049 0)
(1.30475 0.0533977 -8.26566e-20)
(1.30566 0.064099 1.05867e-21)
(1.30668 0.0750465 7.985e-20)
(1.30781 0.0862727 0)
(1.30907 0.0978263 0)
(1.31043 0.109751 0)
(1.31183 0.122102 1.59306e-19)
(1.31317 0.134931 8.10256e-20)
(1.31434 0.148287 7.85684e-20)
(1.31512 0.162245 -1.55157e-19)
(1.31523 0.176718 -2.7906e-21)
(1.31497 0.192242 8.02975e-20)
(0.992533 -0.324903 0)
(1.00161 -0.32516 -9.63019e-21)
(1.01074 -0.325142 1.25774e-20)
(1.01993 -0.324856 -1.25902e-20)
(1.02917 -0.324286 2.41112e-20)
(1.03845 -0.323418 1.03396e-20)
(1.04775 -0.322247 1.17498e-20)
(1.05706 -0.32077 0)
(1.06637 -0.318984 -2.77024e-20)
(1.07567 -0.316886 -3.0258e-20)
(1.08494 -0.314473 3.15397e-20)
(1.09416 -0.311743 -1.85992e-20)
(1.10334 -0.308696 2.11663e-20)
(1.11244 -0.305333 -1.68895e-20)
(1.12146 -0.30165 -8.81842e-20)
(1.13039 -0.29765 -2.61107e-21)
(1.13921 -0.293332 -2.56906e-21)
(1.14791 -0.288701 4.94122e-20)
(1.15648 -0.283761 2.56536e-20)
(1.16489 -0.278517 5.66839e-20)
(1.17315 -0.272971 -5.46399e-20)
(1.18123 -0.267128 0)
(1.18913 -0.261002 2.07039e-21)
(1.19681 -0.254601 0)
(1.20429 -0.247928 -3.24578e-20)
(1.21155 -0.240992 -3.35489e-20)
(1.21857 -0.233805 1.7315e-20)
(1.22534 -0.226379 0)
(1.23186 -0.218724 1.95149e-20)
(1.23812 -0.210853 3.93586e-20)
(1.24411 -0.20278 -3.95369e-20)
(1.24982 -0.19452 1.9966e-20)
(1.25525 -0.186087 -4.24667e-20)
(1.2604 -0.177493 8.5475e-20)
(1.26527 -0.168754 -2.18936e-20)
(1.26985 -0.159882 0)
(1.27414 -0.150899 -1.16117e-20)
(1.27815 -0.141813 5.72715e-22)
(1.28188 -0.132636 1.69453e-20)
(1.28534 -0.123378 -1.41289e-20)
(1.28853 -0.114053 2.75135e-21)
(1.29146 -0.104668 -8.58757e-21)
(1.29415 -0.0952333 5.62307e-21)
(1.2966 -0.0857556 0)
(1.29882 -0.0762402 0)
(1.30084 -0.0666907 0)
(1.30266 -0.0571087 2.27825e-20)
(1.3043 -0.0474936 2.2671e-20)
(1.30577 -0.0378428 0)
(1.3071 -0.0281517 4.38627e-20)
(1.3083 -0.0184131 4.5298e-20)
(1.30939 -0.00861832 4.43504e-20)
(1.31039 0.00124421 0)
(1.31134 0.0111872 0)
(1.31225 0.0212262 -8.58152e-20)
(1.31317 0.0313796 8.46243e-20)
(1.31412 0.0416664 0)
(1.31515 0.0521143 8.23799e-20)
(1.31627 0.0627467 -8.18052e-20)
(1.31751 0.0736045 -8.41504e-20)
(1.31884 0.084716 8.25675e-20)
(1.32025 0.0961321 -8.11826e-20)
(1.32167 0.107887 0)
(1.323 0.120026 -7.96804e-20)
(1.32413 0.132597 2.04843e-21)
(1.32487 0.145615 -1.63024e-19)
(1.32504 0.159159 -1.65475e-19)
(1.32435 0.173118 1.63104e-19)
(1.32322 0.187993 -8.09074e-20)
(0.991457 -0.34206 -2.02521e-21)
(1.00106 -0.342275 0)
(1.01071 -0.342196 -3.04107e-21)
(1.02043 -0.34183 2.14862e-20)
(1.0302 -0.341159 -4.21414e-20)
(1.04 -0.34017 1.01133e-20)
(1.04982 -0.338858 -1.18462e-20)
(1.05965 -0.337222 2.93626e-20)
(1.06947 -0.335257 -1.4561e-20)
(1.07928 -0.332962 -1.60262e-20)
(1.08905 -0.330332 -1.90431e-20)
(1.09878 -0.327367 5.92652e-20)
(1.10844 -0.324061 -1.85119e-20)
(1.11803 -0.32042 6.91247e-20)
(1.12753 -0.316441 2.54831e-20)
(1.13692 -0.312128 2.7445e-21)
(1.14618 -0.30748 -5.10189e-20)
(1.15531 -0.302501 0)
(1.16429 -0.297195 0)
(1.17311 -0.29157 -3.11129e-20)
(1.18174 -0.28563 -3.01771e-20)
(1.19018 -0.279379 -6.60281e-20)
(1.19841 -0.272824 3.34664e-20)
(1.20642 -0.265982 7.06267e-20)
(1.21419 -0.258859 -7.06628e-20)
(1.22171 -0.251466 1.91389e-20)
(1.22898 -0.243817 1.9708e-20)
(1.23597 -0.235924 0)
(1.24268 -0.227802 -1.9613e-20)
(1.24911 -0.219461 -4.19466e-20)
(1.25524 -0.210912 -8.80119e-22)
(1.26108 -0.202177 4.3176e-20)
(1.26661 -0.193274 -2.29771e-20)
(1.27183 -0.184219 0)
(1.27675 -0.175026 1.20023e-20)
(1.28135 -0.165712 -1.21896e-20)
(1.28565 -0.156298 1.15884e-20)
(1.28964 -0.146795 -2.38254e-20)
(1.29333 -0.137216 0)
(1.29674 -0.127575 -3.05019e-21)
(1.29986 -0.117885 2.973e-21)
(1.30271 -0.108156 -4.57428e-21)
(1.3053 -0.0983999 1.77551e-20)
(1.30765 -0.0886239 -3.53868e-20)
(1.30977 -0.0788346 2.33836e-20)
(1.31167 -0.0690361 2.34433e-20)
(1.31338 -0.0592308 -2.2193e-20)
(1.31491 -0.0494184 4.73531e-20)
(1.31629 -0.0395967 -4.58536e-20)
(1.31753 -0.0297614 -1.14021e-19)
(1.31866 -0.0199055 7.22694e-22)
(1.3197 -0.0100208 -4.42973e-20)
(1.32069 -9.54698e-05 0)
(1.32166 0.00988225 0)
(1.32264 0.0199298 -8.86868e-20)
(1.32365 0.0300641 1.30732e-19)
(1.32474 0.0403091 -8.6665e-20)
(1.32591 0.0506902 0)
(1.32717 0.0612363 8.70695e-20)
(1.3285 0.0719838 1.68872e-19)
(1.32985 0.0829601 -8.29469e-20)
(1.33119 0.0942111 -1.01769e-21)
(1.33238 0.105756 8.29535e-20)
(1.33334 0.117639 -7.12877e-22)
(1.3339 0.129883 -1.66966e-19)
(1.33387 0.142494 1.66127e-19)
(1.33313 0.155534 8.34336e-20)
(1.33147 0.168929 0)
(1.32968 0.182794 0)
(0.990425 -0.360404 2.03786e-21)
(1.00059 -0.36057 1.75255e-20)
(1.0108 -0.36042 -1.39936e-20)
(1.02108 -0.359964 0)
(1.03141 -0.359182 -5.15897e-21)
(1.04178 -0.35806 -2.66695e-20)
(1.05216 -0.356594 1.90587e-20)
(1.06254 -0.354781 -4.09831e-20)
(1.07291 -0.35262 3.2572e-20)
(1.08326 -0.350106 0)
(1.09357 -0.347236 8.66151e-21)
(1.10382 -0.344009 0)
(1.11401 -0.340422 2.53169e-20)
(1.12411 -0.336478 -7.04654e-20)
(1.1341 -0.332176 0)
(1.14398 -0.327518 0)
(1.15372 -0.322507 0)
(1.1633 -0.317146 -4.53887e-20)
(1.17272 -0.311441 6.0739e-20)
(1.18196 -0.305398 3.1236e-20)
(1.19099 -0.299025 0)
(1.19981 -0.292328 0)
(1.20839 -0.285315 0)
(1.21674 -0.277998 -9.49967e-20)
(1.22482 -0.270388 1.14728e-19)
(1.23263 -0.262499 -5.82314e-20)
(1.24015 -0.254344 -4.0816e-20)
(1.24737 -0.245939 4.23622e-20)
(1.25429 -0.237302 -4.24764e-20)
(1.26089 -0.228447 2.27409e-20)
(1.26717 -0.21939 -4.55686e-20)
(1.27312 -0.210146 2.19486e-20)
(1.27874 -0.200735 4.72912e-20)
(1.28402 -0.191177 2.48369e-20)
(1.28897 -0.18149 -1.19919e-20)
(1.29358 -0.171696 1.21353e-20)
(1.29786 -0.161815 0)
(1.30181 -0.15186 -6.48345e-22)
(1.30544 -0.141849 6.26781e-21)
(1.30876 -0.131796 3.71744e-23)
(1.31178 -0.121717 -3.11098e-21)
(1.31452 -0.111624 7.73455e-21)
(1.31699 -0.101529 -1.2475e-20)
(1.3192 -0.0914425 -6.29276e-21)
(1.32118 -0.0813705 1.25168e-20)
(1.32295 -0.0713185 0)
(1.32452 -0.0612894 -4.8424e-20)
(1.32593 -0.0512834 -7.17676e-20)
(1.3272 -0.0412986 -2.48154e-22)
(1.32835 -0.0313309 7.05401e-20)
(1.32941 -0.0213733 0)
(1.33043 -0.0114171 0)
(1.33142 -0.00144993 -4.71635e-20)
(1.33243 0.00854148 9.2752e-20)
(1.33347 0.0185769 9.60364e-22)
(1.33456 0.0286747 -4.61342e-20)
(1.33571 0.0388624 1.78611e-19)
(1.33691 0.0491635 -8.81013e-20)
(1.33814 0.0596096 -8.63028e-20)
(1.33935 0.0702287 -1.75905e-19)
(1.34046 0.0810465 1.96237e-23)
(1.34142 0.0920967 1.01133e-21)
(1.34206 0.103389 1.87834e-21)
(1.3423 0.114962 1.71433e-19)
(1.34194 0.126813 -8.62351e-20)
(1.34086 0.138947 -8.65429e-20)
(1.33908 0.151402 8.94265e-20)
(1.33669 0.164077 9.13127e-20)
(1.33516 0.176853 0)
(0.989439 -0.38004 -1.32375e-20)
(1.00021 -0.38015 5.72127e-21)
(1.01103 -0.379922 0)
(1.02192 -0.379367 -5.84333e-21)
(1.03285 -0.378465 0)
(1.04382 -0.377199 2.24984e-20)
(1.0548 -0.375566 -1.40034e-20)
(1.06577 -0.373562 3.55098e-20)
(1.07674 -0.371184 -3.62212e-20)
(1.08767 -0.368429 -1.0785e-20)
(1.09855 -0.365294 5.62525e-20)
(1.10937 -0.361778 -4.54902e-20)
(1.12011 -0.357881 0)
(1.13075 -0.353603 -5.45997e-20)
(1.14128 -0.348945 1.11867e-19)
(1.15167 -0.343909 -5.72767e-20)
(1.16191 -0.338499 0)
(1.17198 -0.33272 -8.13019e-20)
(1.18186 -0.326576 1.16664e-19)
(1.19154 -0.320075 -6.83358e-20)
(1.20099 -0.313225 0)
(1.21021 -0.306035 0)
(1.21917 -0.298515 0)
(1.22786 -0.290677 1.93149e-20)
(1.23626 -0.282535 4.16994e-20)
(1.24436 -0.274104 -4.17274e-20)
(1.25215 -0.2654 2.10577e-20)
(1.25961 -0.256438 0)
(1.26673 -0.247239 4.61712e-20)
(1.2735 -0.237818 -6.90025e-20)
(1.27992 -0.228194 0)
(1.28598 -0.218389 4.89648e-20)
(1.29168 -0.208423 -2.42626e-20)
(1.29701 -0.198319 -2.47663e-20)
(1.30197 -0.188098 1.33632e-20)
(1.30657 -0.177785 0)
(1.31081 -0.1674 0)
(1.31469 -0.156961 1.27424e-20)
(1.31824 -0.146487 0)
(1.32145 -0.135996 -6.51968e-21)
(1.32435 -0.125505 1.58484e-21)
(1.32695 -0.115029 6.48728e-21)
(1.32926 -0.104581 -1.24023e-22)
(1.33132 -0.0941722 1.28149e-20)
(1.33314 -0.0838113 2.60811e-20)
(1.33476 -0.0735043 1.30456e-20)
(1.33619 -0.0632544 -2.61032e-20)
(1.33747 -0.0530626 -2.54348e-20)
(1.33863 -0.0429266 -4.95038e-20)
(1.3397 -0.0328415 4.88638e-20)
(1.34072 -0.0227995 0)
(1.34171 -0.0127897 -4.89633e-20)
(1.3427 -0.00279737 -9.62918e-22)
(1.3437 0.00719386 7.03382e-22)
(1.34472 0.017206 -9.32172e-20)
(1.34577 0.0272592 0)
(1.34681 0.0373815 -4.64399e-20)
(1.34783 0.0475934 0)
(1.34876 0.0579238 0)
(1.34955 0.0683914 8.7717e-20)
(1.35011 0.0790188 -2.75397e-21)
(1.35035 0.0898259 -8.89831e-20)