/*--------------------------------*- C++ -*----------------------------------*\
| =========                 |                                                 |
| \\      /  F ield         | OpenFOAM: The Open Source CFD Toolbox           |
|  \\    /   O peration     | Version:  2312                                  |
|   \\  /    A nd           | Website:  www.openfoam.com                      |
|    \\/     M anipulation  |                                                 |
\*---------------------------------------------------------------------------*/
FoamFile
{
    version     2.0;
    format      ascii;
    arch        "LSB;label=32;scalar=64";
    class       volScalarField;
    location    "1800";
    object      nut;
}
// * * * * * * * * * * * * * * * * * * * * * * * * * * * * * * * * * * * * * //

dimensions      [0 2 -1 0 0 0 0];

internalField   nonuniform List<scalar> 
76025
(
6.22248e-06
6.2166e-06
6.21251e-06
6.21232e-06
6.21666e-06
6.2209e-06
6.22773e-06
6.22813e-06
6.22601e-06
6.22548e-06
6.22663e-06
6.22731e-06
6.22485e-06
6.21816e-06
6.21682e-06
6.21201e-06
6.20873e-06
6.20507e-06
6.20091e-06
6.19407e-06
6.19e-06
6.18891e-06
6.18871e-06
6.18976e-06
6.19166e-06
6.19367e-06
6.19814e-06
6.20084e-06
6.20395e-06
6.20868e-06
6.21297e-06
6.21477e-06
6.21879e-06
6.21999e-06
6.22228e-06
6.22274e-06
6.22408e-06
6.22901e-06
6.23244e-06
6.23563e-06
6.23883e-06
6.24253e-06
6.24848e-06
6.25064e-06
6.25055e-06
6.24782e-06
6.24241e-06
6.22996e-06
6.21059e-06
6.18485e-06
6.15355e-06
6.11808e-06
6.07994e-06
6.04139e-06
6.00356e-06
5.96789e-06
5.93377e-06
5.89909e-06
5.86735e-06
5.84663e-06
5.822e-06
5.79748e-06
5.77374e-06
5.74665e-06
5.71455e-06
5.69614e-06
5.70019e-06
5.70995e-06
5.66263e-06
6.2126e-06
6.20706e-06
6.20117e-06
6.19605e-06
6.19337e-06
6.19261e-06
6.19556e-06
6.20149e-06
6.20543e-06
6.20647e-06
6.20651e-06
6.20685e-06
6.20783e-06
6.20688e-06
6.20146e-06
6.19568e-06
6.1897e-06
6.18435e-06
6.17944e-06
6.17405e-06
6.16857e-06
6.16382e-06
6.15986e-06
6.15678e-06
6.15424e-06
6.15276e-06
6.15588e-06
6.15952e-06
6.16268e-06
6.16601e-06
6.16945e-06
6.17228e-06
6.17512e-06
6.17731e-06
6.17898e-06
6.17976e-06
6.17965e-06
6.17918e-06
6.17781e-06
6.17537e-06
6.17196e-06
6.16682e-06
6.15942e-06
6.14942e-06
6.13716e-06
6.12236e-06
6.10188e-06
6.0736e-06
6.04475e-06
6.01557e-06
5.9868e-06
5.95886e-06
5.93538e-06
5.9158e-06
5.89829e-06
5.88208e-06
5.86651e-06
5.85096e-06
5.83496e-06
5.81841e-06
5.80115e-06
5.78243e-06
5.76046e-06
5.73368e-06
5.70518e-06
5.6865e-06
5.6894e-06
5.68606e-06
5.58593e-06
6.2018e-06
6.1972e-06
6.1912e-06
6.18487e-06
6.17896e-06
6.17404e-06
6.17115e-06
6.17116e-06
6.17363e-06
6.17725e-06
6.17956e-06
6.18099e-06
6.18254e-06
6.18422e-06
6.18429e-06
6.18178e-06
6.17641e-06
6.16834e-06
6.16115e-06
6.15455e-06
6.14807e-06
6.14164e-06
6.13535e-06
6.12931e-06
6.12348e-06
6.11795e-06
6.1135e-06
6.1101e-06
6.10752e-06
6.10542e-06
6.10358e-06
6.10179e-06
6.09982e-06
6.09754e-06
6.09473e-06
6.09122e-06
6.08683e-06
6.08141e-06
6.07481e-06
6.0669e-06
6.05765e-06
6.04722e-06
6.0355e-06
6.02243e-06
6.00806e-06
5.99254e-06
5.97617e-06
5.95909e-06
5.94175e-06
5.92456e-06
5.90766e-06
5.89342e-06
5.88102e-06
5.86959e-06
5.85804e-06
5.84604e-06
5.833e-06
5.81847e-06
5.80252e-06
5.78512e-06
5.76597e-06
5.74439e-06
5.71917e-06
5.69081e-06
5.66495e-06
5.65147e-06
5.65036e-06
5.61455e-06
5.47653e-06
6.17742e-06
6.17648e-06
6.17377e-06
6.16965e-06
6.16453e-06
6.15893e-06
6.15355e-06
6.14928e-06
6.14671e-06
6.14577e-06
6.1456e-06
6.14641e-06
6.14832e-06
6.15062e-06
6.15272e-06
6.15372e-06
6.15298e-06
6.14978e-06
6.14478e-06
6.13856e-06
6.13118e-06
6.12302e-06
6.11494e-06
6.10714e-06
6.09956e-06
6.0921e-06
6.08475e-06
6.07763e-06
6.07085e-06
6.06438e-06
6.05813e-06
6.05204e-06
6.04596e-06
6.0398e-06
6.03345e-06
6.02682e-06
6.01977e-06
6.01217e-06
6.00407e-06
5.9955e-06
5.98621e-06
5.97623e-06
5.9656e-06
5.95438e-06
5.94272e-06
5.93079e-06
5.91966e-06
5.91032e-06
5.90105e-06
5.8919e-06
5.88219e-06
5.87177e-06
5.86092e-06
5.84966e-06
5.83743e-06
5.82355e-06
5.80784e-06
5.79064e-06
5.77205e-06
5.75175e-06
5.72933e-06
5.7043e-06
5.67648e-06
5.64846e-06
5.626e-06
5.61233e-06
5.59486e-06
5.52151e-06
5.35946e-06
6.14954e-06
6.14951e-06
6.14874e-06
6.14696e-06
6.14406e-06
6.1401e-06
6.13534e-06
6.13026e-06
6.12544e-06
6.12134e-06
6.11805e-06
6.11558e-06
6.11389e-06
6.11281e-06
6.11254e-06
6.11382e-06
6.11522e-06
6.11542e-06
6.11406e-06
6.11122e-06
6.10705e-06
6.10173e-06
6.09559e-06
6.0889e-06
6.08184e-06
6.07451e-06
6.06691e-06
6.05908e-06
6.05104e-06
6.0428e-06
6.03442e-06
6.026e-06
6.01767e-06
6.00953e-06
6.00176e-06
5.99446e-06
5.98734e-06
5.97995e-06
5.97381e-06
5.96843e-06
5.96133e-06
5.95254e-06
5.94342e-06
5.93423e-06
5.9252e-06
5.91617e-06
5.90688e-06
5.89716e-06
5.88679e-06
5.87573e-06
5.86417e-06
5.85207e-06
5.83923e-06
5.82532e-06
5.80986e-06
5.7926e-06
5.77383e-06
5.75388e-06
5.73255e-06
5.70928e-06
5.68371e-06
5.65599e-06
5.62735e-06
5.601e-06
5.57969e-06
5.55817e-06
5.51232e-06
5.40097e-06
5.23699e-06
6.12468e-06
6.12286e-06
6.12138e-06
6.11986e-06
6.11795e-06
6.11541e-06
6.11211e-06
6.10806e-06
6.10347e-06
6.09864e-06
6.09387e-06
6.08939e-06
6.08533e-06
6.08171e-06
6.0786e-06
6.07617e-06
6.07424e-06
6.07253e-06
6.07126e-06
6.07027e-06
6.0687e-06
6.0662e-06
6.06275e-06
6.05846e-06
6.05349e-06
6.04795e-06
6.04193e-06
6.0355e-06
6.02871e-06
6.02159e-06
6.01416e-06
6.00652e-06
5.99882e-06
5.99121e-06
5.98385e-06
5.97684e-06
5.96992e-06
5.96296e-06
5.95664e-06
5.95078e-06
5.94407e-06
5.93619e-06
5.92775e-06
5.91877e-06
5.90924e-06
5.89904e-06
5.8881e-06
5.87647e-06
5.86424e-06
5.85135e-06
5.83765e-06
5.82306e-06
5.80742e-06
5.79038e-06
5.77168e-06
5.75156e-06
5.73042e-06
5.70825e-06
5.68443e-06
5.65836e-06
5.63026e-06
5.60127e-06
5.57324e-06
5.5475e-06
5.52012e-06
5.47882e-06
5.40189e-06
5.26454e-06
5.12666e-06
6.10272e-06
6.09875e-06
6.09537e-06
6.09245e-06
6.0898e-06
6.08716e-06
6.0843e-06
6.08104e-06
6.07727e-06
6.07299e-06
6.06832e-06
6.0634e-06
6.0584e-06
6.05345e-06
6.04866e-06
6.04414e-06
6.03991e-06
6.03593e-06
6.0322e-06
6.02864e-06
6.02506e-06
6.02142e-06
6.0181e-06
6.01508e-06
6.01188e-06
6.00821e-06
6.004e-06
5.99924e-06
5.99398e-06
5.98821e-06
5.98204e-06
5.97564e-06
5.96917e-06
5.9627e-06
5.95628e-06
5.94998e-06
5.94339e-06
5.93646e-06
5.93017e-06
5.92424e-06
5.91725e-06
5.90898e-06
5.89996e-06
5.89017e-06
5.87954e-06
5.86805e-06
5.85573e-06
5.8426e-06
5.82859e-06
5.81363e-06
5.79767e-06
5.78072e-06
5.7626e-06
5.74306e-06
5.72218e-06
5.70035e-06
5.67767e-06
5.65364e-06
5.6274e-06
5.59885e-06
5.56935e-06
5.54052e-06
5.51223e-06
5.48149e-06
5.43821e-06
5.37025e-06
5.26691e-06
5.13311e-06
5.03619e-06
6.08129e-06
6.07611e-06
6.07116e-06
6.06658e-06
6.06239e-06
6.0585e-06
6.05482e-06
6.05117e-06
6.0474e-06
6.04339e-06
6.03905e-06
6.03436e-06
6.02937e-06
6.02414e-06
6.01876e-06
6.01331e-06
6.00787e-06
6.00248e-06
5.99717e-06
5.99191e-06
5.98668e-06
5.98141e-06
5.97614e-06
5.97086e-06
5.96553e-06
5.96029e-06
5.95562e-06
5.95146e-06
5.9473e-06
5.94281e-06
5.93783e-06
5.93236e-06
5.92663e-06
5.92087e-06
5.91515e-06
5.90943e-06
5.90323e-06
5.89661e-06
5.89051e-06
5.88444e-06
5.87704e-06
5.86824e-06
5.85852e-06
5.84787e-06
5.83624e-06
5.8236e-06
5.80994e-06
5.79525e-06
5.77949e-06
5.7627e-06
5.74498e-06
5.72633e-06
5.70656e-06
5.68558e-06
5.66361e-06
5.64076e-06
5.61667e-06
5.59046e-06
5.56162e-06
5.53126e-06
5.50145e-06
5.47219e-06
5.43884e-06
5.39419e-06
5.32737e-06
5.23943e-06
5.13455e-06
5.01718e-06
4.97669e-06
6.0571e-06
6.0519e-06
6.04647e-06
6.04101e-06
6.03565e-06
6.03047e-06
6.0255e-06
6.02072e-06
6.01608e-06
6.01147e-06
6.0068e-06
6.00197e-06
5.99694e-06
5.99167e-06
5.98616e-06
5.98045e-06
5.97456e-06
5.96853e-06
5.9624e-06
5.95619e-06
5.9499e-06
5.94352e-06
5.93705e-06
5.93047e-06
5.92377e-06
5.91694e-06
5.91006e-06
5.90314e-06
5.89627e-06
5.88986e-06
5.88435e-06
5.87922e-06
5.87396e-06
5.86826e-06
5.86231e-06
5.85643e-06
5.85033e-06
5.84411e-06
5.83821e-06
5.83183e-06
5.82381e-06
5.8143e-06
5.80379e-06
5.7923e-06
5.7798e-06
5.76626e-06
5.75158e-06
5.73569e-06
5.71869e-06
5.70078e-06
5.68212e-06
5.66262e-06
5.64203e-06
5.62033e-06
5.59755e-06
5.57336e-06
5.54706e-06
5.51799e-06
5.48677e-06
5.45555e-06
5.42504e-06
5.39058e-06
5.34378e-06
5.27823e-06
5.19262e-06
5.10022e-06
5.01408e-06
4.921e-06
4.94558e-06
6.02766e-06
6.02313e-06
6.01812e-06
6.01273e-06
6.0071e-06
6.00134e-06
5.99555e-06
5.9898e-06
5.98412e-06
5.97852e-06
5.97298e-06
5.96744e-06
5.96185e-06
5.95616e-06
5.95032e-06
5.94432e-06
5.93812e-06
5.93175e-06
5.92519e-06
5.91846e-06
5.91157e-06
5.90451e-06
5.89729e-06
5.8899e-06
5.88232e-06
5.87455e-06
5.86658e-06
5.85842e-06
5.85006e-06
5.84154e-06
5.83294e-06
5.82438e-06
5.81639e-06
5.80946e-06
5.80309e-06
5.79664e-06
5.78949e-06
5.78256e-06
5.77659e-06
5.76981e-06
5.76063e-06
5.74977e-06
5.7381e-06
5.72562e-06
5.71233e-06
5.6982e-06
5.68308e-06
5.66675e-06
5.64929e-06
5.63097e-06
5.61187e-06
5.59181e-06
5.57051e-06
5.54781e-06
5.5234e-06
5.49665e-06
5.46707e-06
5.43503e-06
5.40223e-06
5.36995e-06
5.33446e-06
5.28653e-06
5.21981e-06
5.13725e-06
5.04647e-06
4.97637e-06
4.9081e-06
4.8424e-06
4.92272e-06
5.9921e-06
5.98821e-06
5.98384e-06
5.979e-06
5.97375e-06
5.96815e-06
5.96228e-06
5.9562e-06
5.94998e-06
5.94369e-06
5.93736e-06
5.931e-06
5.92462e-06
5.91818e-06
5.91168e-06
5.90508e-06
5.89835e-06
5.89147e-06
5.88443e-06
5.87721e-06
5.86981e-06
5.86222e-06
5.85442e-06
5.84642e-06
5.83819e-06
5.82973e-06
5.82103e-06
5.81206e-06
5.80283e-06
5.79331e-06
5.7835e-06
5.77341e-06
5.76308e-06
5.75267e-06
5.74271e-06
5.73402e-06
5.7258e-06
5.71808e-06
5.71096e-06
5.70244e-06
5.69145e-06
5.67922e-06
5.66617e-06
5.65257e-06
5.6385e-06
5.62386e-06
5.60837e-06
5.59171e-06
5.57383e-06
5.55486e-06
5.53477e-06
5.51336e-06
5.49036e-06
5.46547e-06
5.43812e-06
5.40772e-06
5.37462e-06
5.34029e-06
5.30588e-06
5.26866e-06
5.22001e-06
5.15241e-06
5.06971e-06
4.98497e-06
4.918e-06
4.86689e-06
4.81079e-06
4.76721e-06
4.87171e-06
5.95076e-06
5.947e-06
5.94292e-06
5.93849e-06
5.93368e-06
5.92849e-06
5.92293e-06
5.91703e-06
5.91084e-06
5.90439e-06
5.89774e-06
5.89093e-06
5.88397e-06
5.8769e-06
5.86972e-06
5.86242e-06
5.855e-06
5.84745e-06
5.83975e-06
5.83189e-06
5.82386e-06
5.81563e-06
5.80719e-06
5.79854e-06
5.78965e-06
5.78051e-06
5.77109e-06
5.7614e-06
5.75139e-06
5.74106e-06
5.73038e-06
5.71933e-06
5.7079e-06
5.69608e-06
5.68395e-06
5.67183e-06
5.6605e-06
5.65117e-06
5.64248e-06
5.63197e-06
5.61915e-06
5.60571e-06
5.59147e-06
5.57646e-06
5.56095e-06
5.54495e-06
5.52821e-06
5.51033e-06
5.49102e-06
5.47022e-06
5.44787e-06
5.42375e-06
5.3976e-06
5.36915e-06
5.33798e-06
5.30399e-06
5.26811e-06
5.23136e-06
5.19176e-06
5.14187e-06
5.074e-06
4.99062e-06
4.90878e-06
4.84717e-06
4.79892e-06
4.75775e-06
4.70001e-06
4.6643e-06
4.74706e-06
5.90409e-06
5.89994e-06
5.89562e-06
5.8911e-06
5.88634e-06
5.88131e-06
5.87596e-06
5.8703e-06
5.8643e-06
5.85798e-06
5.85137e-06
5.84447e-06
5.83732e-06
5.82994e-06
5.82234e-06
5.81455e-06
5.80657e-06
5.79841e-06
5.79006e-06
5.78151e-06
5.77277e-06
5.76382e-06
5.75464e-06
5.74523e-06
5.73556e-06
5.72563e-06
5.71541e-06
5.70488e-06
5.69401e-06
5.6828e-06
5.6712e-06
5.65919e-06
5.64674e-06
5.63383e-06
5.62044e-06
5.60655e-06
5.59241e-06
5.57951e-06
5.56783e-06
5.55399e-06
5.53827e-06
5.52291e-06
5.50734e-06
5.49096e-06
5.47358e-06
5.45537e-06
5.43633e-06
5.41617e-06
5.3946e-06
5.37131e-06
5.34604e-06
5.31855e-06
5.28858e-06
5.25596e-06
5.22089e-06
5.18389e-06
5.14495e-06
5.10229e-06
5.05001e-06
4.98194e-06
4.89932e-06
4.81879e-06
4.7586e-06
4.71545e-06
4.67348e-06
4.62399e-06
4.5438e-06
4.49658e-06
4.51937e-06
5.85164e-06
5.84683e-06
5.84191e-06
5.83689e-06
5.83174e-06
5.82643e-06
5.82091e-06
5.81515e-06
5.80912e-06
5.80282e-06
5.79621e-06
5.78931e-06
5.7821e-06
5.7746e-06
5.76682e-06
5.75876e-06
5.75043e-06
5.74184e-06
5.73298e-06
5.72388e-06
5.71451e-06
5.70487e-06
5.69497e-06
5.68478e-06
5.6743e-06
5.66351e-06
5.65239e-06
5.64092e-06
5.62909e-06
5.61686e-06
5.6042e-06
5.5911e-06
5.5775e-06
5.56339e-06
5.54872e-06
5.53344e-06
5.51754e-06
5.50118e-06
5.48435e-06
5.46646e-06
5.4476e-06
5.42829e-06
5.40928e-06
5.39059e-06
5.37142e-06
5.35109e-06
5.32918e-06
5.30568e-06
5.28075e-06
5.25417e-06
5.22566e-06
5.19484e-06
5.16114e-06
5.12455e-06
5.08567e-06
5.04436e-06
4.99841e-06
4.94277e-06
4.87371e-06
4.79308e-06
4.71536e-06
4.65487e-06
4.61139e-06
4.57076e-06
4.51076e-06
4.42644e-06
4.30175e-06
4.21489e-06
4.13076e-06
5.79156e-06
5.78614e-06
5.78059e-06
5.77493e-06
5.76916e-06
5.76326e-06
5.75722e-06
5.75101e-06
5.7446e-06
5.73797e-06
5.73109e-06
5.72395e-06
5.71653e-06
5.70881e-06
5.7008e-06
5.69247e-06
5.68384e-06
5.67489e-06
5.66562e-06
5.65604e-06
5.64613e-06
5.63589e-06
5.62532e-06
5.61439e-06
5.60311e-06
5.59146e-06
5.57941e-06
5.56696e-06
5.55407e-06
5.54073e-06
5.5269e-06
5.51254e-06
5.49764e-06
5.48214e-06
5.466e-06
5.44916e-06
5.4316e-06
5.41329e-06
5.39412e-06
5.37394e-06
5.35266e-06
5.33024e-06
5.30664e-06
5.28194e-06
5.25659e-06
5.23137e-06
5.20588e-06
5.17914e-06
5.15039e-06
5.11924e-06
5.08585e-06
5.05037e-06
5.01242e-06
4.97163e-06
4.92734e-06
4.87701e-06
4.81753e-06
4.74668e-06
4.66903e-06
4.59613e-06
4.53465e-06
4.48578e-06
4.44006e-06
4.37169e-06
4.26342e-06
4.12024e-06
3.9378e-06
3.79931e-06
3.53977e-06
5.72085e-06
5.71502e-06
5.70898e-06
5.70276e-06
5.69638e-06
5.68986e-06
5.68317e-06
5.67632e-06
5.66929e-06
5.66206e-06
5.65462e-06
5.64695e-06
5.63902e-06
5.63082e-06
5.62232e-06
5.61353e-06
5.60441e-06
5.59497e-06
5.58518e-06
5.57503e-06
5.56451e-06
5.55362e-06
5.54233e-06
5.53063e-06
5.5185e-06
5.50593e-06
5.4929e-06
5.47938e-06
5.46535e-06
5.45077e-06
5.43562e-06
5.41986e-06
5.40345e-06
5.38635e-06
5.3685e-06
5.34984e-06
5.33034e-06
5.30994e-06
5.2885e-06
5.26589e-06
5.24203e-06
5.21681e-06
5.19011e-06
5.16183e-06
5.13185e-06
5.10011e-06
5.0668e-06
5.03284e-06
4.99851e-06
4.96254e-06
4.92371e-06
4.88193e-06
4.83745e-06
4.78916e-06
4.73462e-06
4.67064e-06
4.59764e-06
4.52399e-06
4.45632e-06
4.39321e-06
4.33372e-06
4.2738e-06
4.19487e-06
4.06644e-06
3.88682e-06
3.67834e-06
3.42335e-06
3.21079e-06
2.7631e-06
5.63578e-06
5.62963e-06
5.62321e-06
5.61655e-06
5.60968e-06
5.6026e-06
5.59531e-06
5.58781e-06
5.5801e-06
5.57217e-06
5.56401e-06
5.55561e-06
5.54695e-06
5.53802e-06
5.5288e-06
5.51927e-06
5.50942e-06
5.49922e-06
5.48865e-06
5.47771e-06
5.46636e-06
5.45459e-06
5.44238e-06
5.4297e-06
5.41654e-06
5.40287e-06
5.38865e-06
5.37387e-06
5.35848e-06
5.34246e-06
5.32575e-06
5.30833e-06
5.29014e-06
5.27112e-06
5.25122e-06
5.23037e-06
5.20853e-06
5.18559e-06
5.16142e-06
5.1359e-06
5.1089e-06
5.08031e-06
5.05e-06
5.01779e-06
4.98353e-06
4.94703e-06
4.90809e-06
4.86656e-06
4.82258e-06
4.77725e-06
4.73073e-06
4.68113e-06
4.62687e-06
4.5659e-06
4.49759e-06
4.42417e-06
4.35416e-06
4.28909e-06
4.2229e-06
4.15043e-06
4.06584e-06
3.96212e-06
3.81925e-06
3.61389e-06
3.37247e-06
3.08636e-06
2.77707e-06
2.55805e-06
2.11795e-06
5.53192e-06
5.52536e-06
5.51852e-06
5.51141e-06
5.50405e-06
5.49644e-06
5.48857e-06
5.48044e-06
5.47205e-06
5.4634e-06
5.45447e-06
5.44526e-06
5.43576e-06
5.42595e-06
5.41582e-06
5.40535e-06
5.39452e-06
5.38332e-06
5.37172e-06
5.3597e-06
5.34723e-06
5.3343e-06
5.32087e-06
5.30692e-06
5.29241e-06
5.27731e-06
5.26159e-06
5.24521e-06
5.22813e-06
5.2103e-06
5.19167e-06
5.17218e-06
5.15179e-06
5.13043e-06
5.108e-06
5.08446e-06
5.05973e-06
5.03368e-06
5.00616e-06
4.97703e-06
4.94617e-06
4.91341e-06
4.8786e-06
4.84156e-06
4.80207e-06
4.75991e-06
4.71481e-06
4.66648e-06
4.61457e-06
4.55881e-06
4.49933e-06
4.43598e-06
4.36736e-06
4.29374e-06
4.22124e-06
4.15419e-06
4.08685e-06
4.01026e-06
3.91891e-06
3.81009e-06
3.67351e-06
3.49911e-06
3.29694e-06
3.03212e-06
2.71993e-06
2.41398e-06
2.16658e-06
2.05693e-06
1.73611e-06
5.40357e-06
5.39637e-06
5.3889e-06
5.38116e-06
5.37315e-06
5.36488e-06
5.35632e-06
5.34746e-06
5.33831e-06
5.32884e-06
5.31906e-06
5.30894e-06
5.29848e-06
5.28766e-06
5.27647e-06
5.26488e-06
5.25288e-06
5.24045e-06
5.22757e-06
5.2142e-06
5.20032e-06
5.18591e-06
5.17093e-06
5.15534e-06
5.1391e-06
5.12219e-06
5.10455e-06
5.08613e-06
5.06689e-06
5.04676e-06
5.02569e-06
5.00361e-06
4.98044e-06
4.95611e-06
4.93052e-06
4.90361e-06
4.87524e-06
4.84527e-06
4.81356e-06
4.77995e-06
4.74427e-06
4.70634e-06
4.66595e-06
4.62289e-06
4.57691e-06
4.52771e-06
4.47497e-06
4.41836e-06
4.35754e-06
4.29241e-06
4.22275e-06
4.14726e-06
4.06554e-06
3.9889e-06
3.91599e-06
3.83664e-06
3.74198e-06
3.62556e-06
3.48432e-06
3.31988e-06
3.13028e-06
2.91887e-06
2.64818e-06
2.33908e-06
2.05824e-06
1.8695e-06
1.80092e-06
1.87905e-06
1.7078e-06
5.24246e-06
5.23433e-06
5.22595e-06
5.21729e-06
5.20837e-06
5.19916e-06
5.18966e-06
5.17983e-06
5.16968e-06
5.15919e-06
5.14833e-06
5.13709e-06
5.12545e-06
5.1134e-06
5.10092e-06
5.08798e-06
5.07455e-06
5.06063e-06
5.04616e-06
5.03114e-06
5.01552e-06
4.99927e-06
4.98234e-06
4.96471e-06
4.94632e-06
4.92712e-06
4.90706e-06
4.88608e-06
4.86412e-06
4.84111e-06
4.81698e-06
4.79163e-06
4.76498e-06
4.73693e-06
4.70738e-06
4.67623e-06
4.6433e-06
4.60847e-06
4.57152e-06
4.53229e-06
4.49056e-06
4.44613e-06
4.39876e-06
4.34816e-06
4.29403e-06
4.23606e-06
4.17394e-06
4.10742e-06
4.03628e-06
3.96049e-06
3.87839e-06
3.7883e-06
3.70324e-06
3.6152e-06
3.51381e-06
3.39538e-06
3.25211e-06
3.07717e-06
2.89551e-06
2.71071e-06
2.4899e-06
2.23252e-06
1.96329e-06
1.73645e-06
1.61788e-06
1.65617e-06
1.84174e-06
2.10308e-06
2.07378e-06
5.03585e-06
5.02652e-06
5.01693e-06
5.00705e-06
4.99688e-06
4.98641e-06
4.97562e-06
4.96449e-06
4.95299e-06
4.94112e-06
4.92883e-06
4.91612e-06
4.90296e-06
4.88933e-06
4.87519e-06
4.86052e-06
4.8453e-06
4.82948e-06
4.81303e-06
4.79592e-06
4.77811e-06
4.75955e-06
4.74019e-06
4.71999e-06
4.69889e-06
4.67682e-06
4.65373e-06
4.62953e-06
4.60415e-06
4.57752e-06
4.54952e-06
4.52006e-06
4.48903e-06
4.45632e-06
4.42179e-06
4.38527e-06
4.34662e-06
4.3057e-06
4.26224e-06
4.21603e-06
4.16683e-06
4.11438e-06
4.0584e-06
3.99853e-06
3.93452e-06
3.86616e-06
3.79314e-06
3.71501e-06
3.63122e-06
3.5405e-06
3.4398e-06
3.3376e-06
3.22932e-06
3.10261e-06
2.95152e-06
2.7826e-06
2.60967e-06
2.43907e-06
2.24632e-06
2.03264e-06
1.81235e-06
1.61379e-06
1.4753e-06
1.44952e-06
1.5796e-06
1.88489e-06
2.32707e-06
2.76021e-06
2.9545e-06
4.76374e-06
4.75294e-06
4.74185e-06
4.73044e-06
4.71871e-06
4.70663e-06
4.69419e-06
4.68137e-06
4.66814e-06
4.65447e-06
4.64035e-06
4.62573e-06
4.61061e-06
4.59493e-06
4.57867e-06
4.5618e-06
4.54428e-06
4.52607e-06
4.50711e-06
4.48738e-06
4.46682e-06
4.44537e-06
4.42297e-06
4.39957e-06
4.37509e-06
4.34946e-06
4.3226e-06
4.29441e-06
4.26481e-06
4.2337e-06
4.20094e-06
4.16642e-06
4.13001e-06
4.09158e-06
4.05092e-06
4.00786e-06
3.96233e-06
3.91398e-06
3.86259e-06
3.8079e-06
3.74968e-06
3.6876e-06
3.62133e-06
3.55055e-06
3.4751e-06
3.39463e-06
3.30823e-06
3.21446e-06
3.11157e-06
2.99766e-06
2.8714e-06
2.73403e-06
2.58673e-06
2.42858e-06
2.26745e-06
2.11229e-06
1.94294e-06
1.76462e-06
1.59134e-06
1.4403e-06
1.33291e-06
1.30986e-06
1.3893e-06
1.61062e-06
2.02415e-06
2.63645e-06
3.32897e-06
3.90536e-06
4.62253e-06
4.39453e-06
4.38197e-06
4.36908e-06
4.35583e-06
4.3422e-06
4.32817e-06
4.31372e-06
4.29883e-06
4.28346e-06
4.26758e-06
4.25118e-06
4.23421e-06
4.21664e-06
4.19844e-06
4.17957e-06
4.15997e-06
4.13962e-06
4.11846e-06
4.09643e-06
4.07349e-06
4.04956e-06
4.0246e-06
3.99851e-06
3.97124e-06
3.94269e-06
3.91277e-06
3.88139e-06
3.84845e-06
3.81382e-06
3.77738e-06
3.739e-06
3.69852e-06
3.65581e-06
3.61066e-06
3.56287e-06
3.51241e-06
3.45897e-06
3.40225e-06
3.34199e-06
3.27796e-06
3.20982e-06
3.13711e-06
3.05934e-06
2.97629e-06
2.88758e-06
2.79154e-06
2.68569e-06
2.56925e-06
2.44293e-06
2.3065e-06
2.16044e-06
2.0139e-06
1.87879e-06
1.74018e-06
1.59554e-06
1.45489e-06
1.33016e-06
1.22804e-06
1.16764e-06
1.18668e-06
1.28113e-06
1.46859e-06
1.78687e-06
2.29704e-06
3.04307e-06
3.94538e-06
4.76541e-06
5.47377e-06
7.50068e-06
3.87919e-06
3.86462e-06
3.84971e-06
3.8344e-06
3.81865e-06
3.80244e-06
3.78574e-06
3.76854e-06
3.75079e-06
3.73247e-06
3.71354e-06
3.69397e-06
3.67371e-06
3.65273e-06
3.63098e-06
3.60842e-06
3.58498e-06
3.56062e-06
3.53528e-06
3.5089e-06
3.48139e-06
3.4527e-06
3.42274e-06
3.39141e-06
3.35864e-06
3.32431e-06
3.28832e-06
3.25055e-06
3.21088e-06
3.16916e-06
3.12525e-06
3.07901e-06
3.03024e-06
2.97875e-06
2.92452e-06
2.86721e-06
2.80647e-06
2.74201e-06
2.67358e-06
2.60075e-06
2.52294e-06
2.43946e-06
2.34987e-06
2.2539e-06
2.15072e-06
2.03861e-06
1.91715e-06
1.79011e-06
1.66343e-06
1.54333e-06
1.43159e-06
1.32156e-06
1.2224e-06
1.13555e-06
1.05955e-06
1.01027e-06
1.01938e-06
1.08321e-06
1.2108e-06
1.41478e-06
1.71079e-06
2.1255e-06
2.70739e-06
3.51268e-06
4.51532e-06
5.48821e-06
6.18149e-06
7.11061e-06
1.13489e-05
3.14997e-06
3.13365e-06
3.117e-06
3.09992e-06
3.08239e-06
3.06437e-06
3.04584e-06
3.02677e-06
3.00712e-06
2.98686e-06
2.96596e-06
2.94438e-06
2.92208e-06
2.89902e-06
2.87515e-06
2.85043e-06
2.82479e-06
2.7982e-06
2.77058e-06
2.74187e-06
2.71201e-06
2.68091e-06
2.64851e-06
2.61472e-06
2.57944e-06
2.54258e-06
2.50404e-06
2.46371e-06
2.42147e-06
2.3772e-06
2.33078e-06
2.28208e-06
2.23097e-06
2.17732e-06
2.12072e-06
2.06071e-06
1.99695e-06
1.92931e-06
1.85767e-06
1.78138e-06
1.69964e-06
1.61279e-06
1.52255e-06
1.43033e-06
1.33497e-06
1.23558e-06
1.14037e-06
1.0644e-06
1.00086e-06
9.40872e-07
8.82015e-07
8.43388e-07
8.40224e-07
8.69953e-07
9.35259e-07
1.04282e-06
1.20227e-06
1.42412e-06
1.71857e-06
2.09413e-06
2.56104e-06
3.14313e-06
3.8837e-06
4.79687e-06
5.73818e-06
6.38266e-06
6.70845e-06
7.91224e-06
1.41644e-05
2.15723e-06
2.1412e-06
2.12493e-06
2.1083e-06
2.09129e-06
2.07386e-06
2.056e-06
2.03769e-06
2.01889e-06
1.99958e-06
1.97974e-06
1.95932e-06
1.93832e-06
1.91669e-06
1.89439e-06
1.8714e-06
1.84768e-06
1.82318e-06
1.79786e-06
1.77167e-06
1.74456e-06
1.71649e-06
1.68738e-06
1.65719e-06
1.62585e-06
1.59332e-06
1.55952e-06
1.52439e-06
1.48783e-06
1.4498e-06
1.41044e-06
1.3694e-06
1.32596e-06
1.28001e-06
1.23149e-06
1.1804e-06
1.1272e-06
1.07267e-06
1.0168e-06
9.59535e-07
9.02914e-07
8.49218e-07
7.99986e-07
7.57088e-07
7.21255e-07
6.90897e-07
6.66215e-07
6.5655e-07
6.76148e-07
7.13064e-07
7.69395e-07
8.48423e-07
9.54597e-07
1.09284e-06
1.26805e-06
1.48442e-06
1.7448e-06
2.05052e-06
2.40186e-06
2.79855e-06
3.24415e-06
3.75732e-06
4.36927e-06
5.0395e-06
5.52112e-06
5.5164e-06
5.37554e-06
6.51481e-06
1.25164e-05
1.02104e-06
1.01025e-06
9.99392e-07
9.88408e-07
9.773e-07
9.66073e-07
9.54726e-07
9.43254e-07
9.31646e-07
9.19889e-07
9.07969e-07
8.95868e-07
8.8357e-07
8.71055e-07
8.58306e-07
8.45304e-07
8.32031e-07
8.18466e-07
8.0459e-07
7.90383e-07
7.75823e-07
7.60884e-07
7.45541e-07
7.2979e-07
7.13613e-07
6.96975e-07
6.7987e-07
6.62295e-07
6.4425e-07
6.2574e-07
6.068e-07
5.87716e-07
5.6909e-07
5.51176e-07
5.34084e-07
5.18125e-07
5.04308e-07
4.93159e-07
4.82471e-07
4.71816e-07
4.73481e-07
4.89607e-07
5.12693e-07
5.42767e-07
5.80771e-07
6.27808e-07
6.84771e-07
7.52578e-07
8.32603e-07
9.25604e-07
1.03199e-06
1.15183e-06
1.28473e-06
1.42968e-06
1.58481e-06
1.74772e-06
1.91622e-06
2.0893e-06
2.26919e-06
2.45822e-06
2.66008e-06
2.87748e-06
3.11227e-06
3.2939e-06
3.19698e-06
2.68056e-06
2.2575e-06
2.70774e-06
5.28271e-06
2.20382e-07
2.18997e-07
2.18195e-07
2.18619e-07
2.20474e-07
2.23556e-07
2.27552e-07
2.32188e-07
2.37261e-07
2.42624e-07
2.48173e-07
2.53831e-07
2.59541e-07
2.65261e-07
2.70957e-07
2.76605e-07
2.82186e-07
2.87683e-07
2.93091e-07
2.98404e-07
3.036e-07
3.08685e-07
3.13732e-07
3.18683e-07
3.23285e-07
3.28034e-07
3.33718e-07
3.4047e-07
3.48386e-07
3.57596e-07
3.68201e-07
3.80314e-07
3.94066e-07
4.09593e-07
4.27014e-07
4.4643e-07
4.67967e-07
4.91759e-07
5.17756e-07
5.4567e-07
5.75403e-07
6.06897e-07
6.39698e-07
6.73164e-07
7.06509e-07
7.38835e-07
7.6917e-07
7.96546e-07
8.20136e-07
8.39355e-07
8.53946e-07
8.63954e-07
8.69555e-07
8.70854e-07
8.67942e-07
8.61451e-07
8.53264e-07
8.46937e-07
8.46988e-07
8.51642e-07
8.5685e-07
8.52173e-07
8.23691e-07
7.24186e-07
4.98055e-07
2.04682e-07
1.18072e-07
1.55395e-07
4.02867e-07
1.03539e-07
1.07608e-07
1.11814e-07
1.16202e-07
1.20807e-07
1.2565e-07
1.30746e-07
1.36098e-07
1.41701e-07
1.47542e-07
1.53607e-07
1.59876e-07
1.66327e-07
1.72937e-07
1.79679e-07
1.86525e-07
1.93444e-07
2.00403e-07
2.07369e-07
2.14301e-07
2.21162e-07
2.27915e-07
2.34483e-07
2.40814e-07
2.47005e-07
2.52642e-07
2.5711e-07
2.60428e-07
2.62636e-07
2.63732e-07
2.63694e-07
2.62489e-07
2.60071e-07
2.56388e-07
2.51384e-07
2.45008e-07
2.37219e-07
2.28004e-07
2.17377e-07
2.05392e-07
1.92157e-07
1.77849e-07
1.62705e-07
1.47024e-07
1.31141e-07
1.15417e-07
1.00214e-07
8.58745e-08
7.2697e-08
6.08976e-08
5.0586e-08
4.17517e-08
3.4275e-08
2.79753e-08
2.2677e-08
1.82631e-08
1.46445e-08
1.14254e-08
9.18802e-09
6.42132e-09
5.2131e-09
3.74516e-09
3.64287e-09
3.39769e-09
2.12045e-09
8.73604e-10
6.89851e-10
3.9171e-10
1.03159e-09
6.34878e-06
6.34923e-06
6.34975e-06
6.35113e-06
6.35334e-06
6.35623e-06
6.35862e-06
6.35963e-06
6.35611e-06
6.35121e-06
6.34466e-06
6.33712e-06
6.33101e-06
6.33086e-06
6.337e-06
6.33625e-06
6.31955e-06
6.29866e-06
6.29502e-06
6.30112e-06
6.29532e-06
6.27648e-06
6.29209e-06
6.29294e-06
6.30109e-06
6.29731e-06
6.28588e-06
6.2776e-06
6.2573e-06
6.26408e-06
6.26097e-06
6.26207e-06
6.25052e-06
6.24619e-06
6.24529e-06
6.23936e-06
6.2355e-06
6.23595e-06
6.23586e-06
6.23983e-06
6.24875e-06
6.24602e-06
6.23708e-06
6.24199e-06
6.24209e-06
6.24406e-06
6.24743e-06
6.24628e-06
6.23369e-06
6.22465e-06
6.22415e-06
6.2277e-06
6.23512e-06
6.23894e-06
6.24334e-06
6.24595e-06
6.23989e-06
6.23281e-06
6.22697e-06
6.32784e-06
6.32963e-06
6.33175e-06
6.33382e-06
6.33557e-06
6.33644e-06
6.33566e-06
6.33323e-06
6.3292e-06
6.32524e-06
6.32225e-06
6.32183e-06
6.32587e-06
6.32968e-06
6.3255e-06
6.30822e-06
6.29368e-06
6.2865e-06
6.29088e-06
6.28577e-06
6.27638e-06
6.27212e-06
6.28978e-06
6.29297e-06
6.29936e-06
6.28918e-06
6.27313e-06
6.26298e-06
6.24769e-06
6.25588e-06
6.25075e-06
6.25103e-06
6.23992e-06
6.23547e-06
6.23438e-06
6.22919e-06
6.22508e-06
6.22466e-06
6.22414e-06
6.22648e-06
6.23408e-06
6.23533e-06
6.22826e-06
6.22721e-06
6.2282e-06
6.2295e-06
6.23214e-06
6.23792e-06
6.23256e-06
6.22112e-06
6.21429e-06
6.21239e-06
6.21444e-06
6.21667e-06
6.21908e-06
6.22215e-06
6.2236e-06
6.2212e-06
6.21724e-06
6.30749e-06
6.30886e-06
6.31059e-06
6.31174e-06
6.31215e-06
6.31166e-06
6.31044e-06
6.30903e-06
6.30827e-06
6.30932e-06
6.31313e-06
6.31954e-06
6.32082e-06
6.31407e-06
6.29835e-06
6.28318e-06
6.27746e-06
6.27882e-06
6.27559e-06
6.26837e-06
6.26481e-06
6.27456e-06
6.28995e-06
6.29416e-06
6.29524e-06
6.27876e-06
6.25894e-06
6.24806e-06
6.23809e-06
6.24811e-06
6.23994e-06
6.23891e-06
6.22847e-06
6.22392e-06
6.22262e-06
6.21807e-06
6.21388e-06
6.2127e-06
6.21185e-06
6.21269e-06
6.21831e-06
6.222e-06
6.21806e-06
6.21403e-06
6.21326e-06
6.21394e-06
6.21583e-06
6.22048e-06
6.2244e-06
6.21662e-06
6.2071e-06
6.20034e-06
6.197e-06
6.19611e-06
6.19636e-06
6.19753e-06
6.19908e-06
6.19966e-06
6.20024e-06
6.28522e-06
6.28582e-06
6.28712e-06
6.28806e-06
6.28875e-06
6.28942e-06
6.29052e-06
6.29258e-06
6.29615e-06
6.3016e-06
6.30772e-06
6.30712e-06
6.29796e-06
6.28252e-06
6.27014e-06
6.26335e-06
6.26259e-06
6.2626e-06
6.25762e-06
6.25408e-06
6.25989e-06
6.27877e-06
6.29083e-06
6.29337e-06
6.28594e-06
6.26052e-06
6.24336e-06
6.23294e-06
6.22724e-06
6.23541e-06
6.22771e-06
6.22564e-06
6.21589e-06
6.21126e-06
6.20975e-06
6.20572e-06
6.20155e-06
6.19976e-06
6.1986e-06
6.1983e-06
6.20179e-06
6.2062e-06
6.20534e-06
6.20111e-06
6.19821e-06
6.19746e-06
6.19837e-06
6.20133e-06
6.20523e-06
6.20468e-06
6.19771e-06
6.19014e-06
6.18377e-06
6.17929e-06
6.1765e-06
6.17505e-06
6.17455e-06
6.17446e-06
6.17476e-06
6.26054e-06
6.26242e-06
6.2643e-06
6.26616e-06
6.26823e-06
6.27071e-06
6.27376e-06
6.27739e-06
6.28134e-06
6.28459e-06
6.28283e-06
6.2744e-06
6.26344e-06
6.25294e-06
6.24718e-06
6.24555e-06
6.24559e-06
6.24398e-06
6.24127e-06
6.24427e-06
6.25783e-06
6.27997e-06
6.2884e-06
6.2852e-06
6.2668e-06
6.2407e-06
6.22638e-06
6.21733e-06
6.21462e-06
6.22039e-06
6.21394e-06
6.21103e-06
6.20192e-06
6.19726e-06
6.19554e-06
6.19193e-06
6.18786e-06
6.18557e-06
6.1841e-06
6.183e-06
6.18457e-06
6.18841e-06
6.1897e-06
6.18689e-06
6.18301e-06
6.18049e-06
6.17989e-06
6.18127e-06
6.18395e-06
6.1851e-06
6.18238e-06
6.17716e-06
6.171e-06
6.16508e-06
6.16002e-06
6.156e-06
6.15298e-06
6.15081e-06
6.14939e-06
6.23647e-06
6.23904e-06
6.24156e-06
6.24408e-06
6.24669e-06
6.2493e-06
6.25169e-06
6.25344e-06
6.2539e-06
6.25211e-06
6.24705e-06
6.23961e-06
6.23265e-06
6.22816e-06
6.22681e-06
6.22692e-06
6.22665e-06
6.22584e-06
6.22761e-06
6.23636e-06
6.25262e-06
6.27054e-06
6.27363e-06
6.26302e-06
6.2412e-06
6.22004e-06
6.20804e-06
6.20081e-06
6.20009e-06
6.20394e-06
6.19846e-06
6.19488e-06
6.18637e-06
6.1817e-06
6.17979e-06
6.17649e-06
6.17256e-06
6.16989e-06
6.1681e-06
6.16647e-06
6.16648e-06
6.16903e-06
6.17121e-06
6.17022e-06
6.16672e-06
6.16305e-06
6.16075e-06
6.16034e-06
6.16152e-06
6.16275e-06
6.16223e-06
6.15956e-06
6.15522e-06
6.14995e-06
6.14446e-06
6.1392e-06
6.13446e-06
6.13028e-06
6.1269e-06
6.21051e-06
6.21307e-06
6.21556e-06
6.21778e-06
6.21973e-06
6.2212e-06
6.22194e-06
6.22167e-06
6.22011e-06
6.21716e-06
6.2131e-06
6.20906e-06
6.20643e-06
6.20564e-06
6.20607e-06
6.20657e-06
6.207e-06
6.20888e-06
6.2149e-06
6.22632e-06
6.24055e-06
6.25076e-06
6.24834e-06
6.23476e-06
6.21496e-06
6.19818e-06
6.18827e-06
6.18299e-06
6.18346e-06
6.18585e-06
6.18105e-06
6.17694e-06
6.16899e-06
6.16435e-06
6.16225e-06
6.15918e-06
6.15539e-06
6.15246e-06
6.15034e-06
6.14833e-06
6.14718e-06
6.1482e-06
6.1502e-06
6.15054e-06
6.14822e-06
6.14444e-06
6.14091e-06
6.13872e-06
6.13811e-06
6.13839e-06
6.13838e-06
6.13725e-06
6.13475e-06
6.13104e-06
6.12649e-06
6.12149e-06
6.11637e-06
6.11132e-06
6.10671e-06
6.18021e-06
6.18233e-06
6.18433e-06
6.18591e-06
6.18708e-06
6.1877e-06
6.18771e-06
6.18707e-06
6.18583e-06
6.18422e-06
6.18265e-06
6.18171e-06
6.18173e-06
6.18253e-06
6.18362e-06
6.1849e-06
6.18721e-06
6.19207e-06
6.20053e-06
6.21163e-06
6.22179e-06
6.22568e-06
6.21932e-06
6.20496e-06
6.18802e-06
6.17476e-06
6.16689e-06
6.16344e-06
6.16453e-06
6.16579e-06
6.16144e-06
6.15694e-06
6.14951e-06
6.14491e-06
6.14264e-06
6.13972e-06