/*--------------------------------*- C++ -*----------------------------------*\
| =========                 |                                                 |
| \\      /  F ield         | OpenFOAM: The Open Source CFD Toolbox           |
|  \\    /   O peration     | Version:  2312                                  |
|   \\  /    A nd           | Website:  www.openfoam.com                      |
|    \\/     M anipulation  |                                                 |
\*---------------------------------------------------------------------------*/
FoamFile
{
    version     2.0;
    format      ascii;
    arch        "LSB;label=32;scalar=64";
    class       volScalarField;
    location    "1800";
    object      nuTilda;
}
// * * * * * * * * * * * * * * * * * * * * * * * * * * * * * * * * * * * * * //

dimensions      [0 2 -1 0 0 0 0];

internalField   nonuniform List<scalar> 
76025
(
4.02857e-05
4.02749e-05
4.02674e-05
4.02671e-05
4.0275e-05
4.02828e-05
4.02953e-05
4.0296e-05
4.02922e-05
4.02912e-05
4.02933e-05
4.02945e-05
4.029e-05
4.02778e-05
4.02753e-05
4.02665e-05
4.02605e-05
4.02538e-05
4.02462e-05
4.02336e-05
4.02261e-05
4.02241e-05
4.02238e-05
4.02257e-05
4.02292e-05
4.02329e-05
4.02411e-05
4.02461e-05
4.02518e-05
4.02604e-05
4.02683e-05
4.02716e-05
4.0279e-05
4.02811e-05
4.02853e-05
4.02862e-05
4.02886e-05
4.02976e-05
4.03039e-05
4.03098e-05
4.03156e-05
4.03224e-05
4.03332e-05
4.03372e-05
4.0337e-05
4.0332e-05
4.03222e-05
4.02994e-05
4.02639e-05
4.02167e-05
4.01591e-05
4.00936e-05
4.00229e-05
3.99511e-05
3.98805e-05
3.98136e-05
3.97493e-05
3.96838e-05
3.96236e-05
3.95842e-05
3.95373e-05
3.94904e-05
3.94449e-05
3.93929e-05
3.9331e-05
3.92954e-05
3.93033e-05
3.93221e-05
3.92304e-05
4.02676e-05
4.02574e-05
4.02467e-05
4.02373e-05
4.02323e-05
4.02309e-05
4.02364e-05
4.02472e-05
4.02545e-05
4.02564e-05
4.02564e-05
4.02571e-05
4.02589e-05
4.02571e-05
4.02472e-05
4.02366e-05
4.02256e-05
4.02158e-05
4.02067e-05
4.01968e-05
4.01867e-05
4.0178e-05
4.01707e-05
4.0165e-05
4.01604e-05
4.01576e-05
4.01634e-05
4.01701e-05
4.01759e-05
4.0182e-05
4.01884e-05
4.01936e-05
4.01988e-05
4.02028e-05
4.02059e-05
4.02073e-05
4.02071e-05
4.02063e-05
4.02037e-05
4.01993e-05
4.0193e-05
4.01835e-05
4.01699e-05
4.01515e-05
4.01288e-05
4.01015e-05
4.00636e-05
4.00111e-05
3.99574e-05
3.99029e-05
3.9849e-05
3.97966e-05
3.97524e-05
3.97154e-05
3.96823e-05
3.96516e-05
3.9622e-05
3.95925e-05
3.9562e-05
3.95304e-05
3.94974e-05
3.94616e-05
3.94194e-05
3.93679e-05
3.93129e-05
3.92767e-05
3.92824e-05
3.92759e-05
3.90808e-05
4.02478e-05
4.02394e-05
4.02283e-05
4.02167e-05
4.02059e-05
4.01968e-05
4.01915e-05
4.01915e-05
4.01961e-05
4.02027e-05
4.0207e-05
4.02096e-05
4.02124e-05
4.02155e-05
4.02157e-05
4.0211e-05
4.02012e-05
4.01863e-05
4.01731e-05
4.01609e-05
4.0149e-05
4.01371e-05
4.01255e-05
4.01143e-05
4.01036e-05
4.00933e-05
4.00851e-05
4.00788e-05
4.0074e-05
4.00701e-05
4.00667e-05
4.00634e-05
4.00598e-05
4.00555e-05
4.00503e-05
4.00438e-05
4.00357e-05
4.00256e-05
4.00133e-05
3.99986e-05
3.99814e-05
3.9962e-05
3.99402e-05
3.99158e-05
3.98889e-05
3.98598e-05
3.98291e-05
3.9797e-05
3.97644e-05
3.97319e-05
3.97e-05
3.96731e-05
3.96496e-05
3.96279e-05
3.96059e-05
3.95831e-05
3.95583e-05
3.95306e-05
3.95001e-05
3.94668e-05
3.943e-05
3.93885e-05
3.93399e-05
3.92851e-05
3.9235e-05
3.92088e-05
3.92066e-05
3.91368e-05
3.88652e-05
4.0203e-05
4.02013e-05
4.01963e-05
4.01887e-05
4.01793e-05
4.0169e-05
4.01591e-05
4.01512e-05
4.01465e-05
4.01447e-05
4.01444e-05
4.01459e-05
4.01494e-05
4.01537e-05
4.01576e-05
4.01594e-05
4.0158e-05
4.01521e-05
4.01429e-05
4.01314e-05
4.01178e-05
4.01027e-05
4.00878e-05
4.00733e-05
4.00593e-05
4.00454e-05
4.00318e-05
4.00186e-05
4.0006e-05
3.99939e-05
3.99823e-05
3.9971e-05
3.99597e-05
3.99482e-05
3.99363e-05
3.99239e-05
3.99108e-05
3.98966e-05
3.98814e-05
3.98654e-05
3.98479e-05
3.98292e-05
3.98092e-05
3.97882e-05
3.97662e-05
3.97437e-05
3.97227e-05
3.9705e-05
3.96875e-05
3.96702e-05
3.96518e-05
3.9632e-05
3.96114e-05
3.959e-05
3.95667e-05
3.95402e-05
3.95102e-05
3.94773e-05
3.94417e-05
3.94027e-05
3.93595e-05
3.93112e-05
3.92573e-05
3.92029e-05
3.91592e-05
3.91325e-05
3.90983e-05
3.89542e-05
3.86313e-05
4.01517e-05
4.01516e-05
4.01502e-05
4.01469e-05
4.01416e-05
4.01343e-05
4.01255e-05
4.01161e-05
4.01072e-05
4.00996e-05
4.00935e-05
4.0089e-05
4.00858e-05
4.00838e-05
4.00833e-05
4.00857e-05
4.00883e-05
4.00887e-05
4.00861e-05
4.00809e-05
4.00732e-05
4.00633e-05
4.00519e-05
4.00395e-05
4.00264e-05
4.00128e-05
3.99987e-05
3.99841e-05
3.99691e-05
3.99538e-05
3.99381e-05
3.99224e-05
3.99068e-05
3.98916e-05
3.98771e-05
3.98634e-05
3.98501e-05
3.98362e-05
3.98247e-05
3.98146e-05
3.98012e-05
3.97847e-05
3.97675e-05
3.97502e-05
3.97332e-05
3.97161e-05
3.96985e-05
3.96802e-05
3.96605e-05
3.96395e-05
3.96176e-05
3.95946e-05
3.95701e-05
3.95436e-05
3.95141e-05
3.94811e-05
3.94451e-05
3.94068e-05
3.93657e-05
3.93208e-05
3.92714e-05
3.92176e-05
3.91618e-05
3.91103e-05
3.90686e-05
3.90264e-05
3.8936e-05
3.87146e-05
3.83832e-05
4.01058e-05
4.01024e-05
4.00997e-05
4.00969e-05
4.00933e-05
4.00886e-05
4.00825e-05
4.0075e-05
4.00665e-05
4.00576e-05
4.00487e-05
4.00404e-05
4.00329e-05
4.00262e-05
4.00204e-05
4.00159e-05
4.00123e-05
4.00091e-05
4.00067e-05
4.00049e-05
4.0002e-05
3.99973e-05
3.99909e-05
3.99829e-05
3.99737e-05
3.99634e-05
3.99521e-05
3.99402e-05
3.99275e-05
3.99142e-05
3.99003e-05
3.9886e-05
3.98716e-05
3.98573e-05
3.98435e-05
3.98304e-05
3.98174e-05
3.98043e-05
3.97924e-05
3.97814e-05
3.97687e-05
3.97539e-05
3.9738e-05
3.9721e-05
3.9703e-05
3.96837e-05
3.9663e-05
3.96409e-05
3.96177e-05
3.95932e-05
3.95671e-05
3.95393e-05
3.95094e-05
3.94768e-05
3.9441e-05
3.94023e-05
3.93616e-05
3.93188e-05
3.92727e-05
3.92222e-05
3.91675e-05
3.91109e-05
3.9056e-05
3.90054e-05
3.89514e-05
3.88697e-05
3.87164e-05
3.84393e-05
3.81564e-05
4.00651e-05
4.00578e-05
4.00515e-05
4.00461e-05
4.00412e-05
4.00363e-05
4.0031e-05
4.00249e-05
4.00179e-05
4.001e-05
4.00013e-05
3.99921e-05
3.99828e-05
3.99736e-05
3.99647e-05
3.99563e-05
3.99484e-05
3.9941e-05
3.9934e-05
3.99273e-05
3.99207e-05
3.99139e-05
3.99077e-05
3.9902e-05
3.9896e-05
3.98892e-05
3.98813e-05
3.98724e-05
3.98625e-05
3.98517e-05
3.98401e-05
3.98281e-05
3.9816e-05
3.98038e-05
3.97917e-05
3.97799e-05
3.97675e-05
3.97544e-05
3.97425e-05
3.97313e-05
3.97181e-05
3.97025e-05
3.96854e-05
3.96669e-05
3.96468e-05
3.9625e-05
3.96015e-05
3.95766e-05
3.95499e-05
3.95213e-05
3.94908e-05
3.94583e-05
3.94236e-05
3.9386e-05
3.93457e-05
3.93036e-05
3.92596e-05
3.9213e-05
3.91619e-05
3.91061e-05
3.90483e-05
3.89917e-05
3.89358e-05
3.8875e-05
3.8789e-05
3.8653e-05
3.84441e-05
3.81698e-05
3.79682e-05
4.00254e-05
4.00158e-05
4.00066e-05
3.99981e-05
3.99902e-05
3.9983e-05
3.99762e-05
3.99694e-05
3.99623e-05
3.99549e-05
3.99468e-05
3.9938e-05
3.99287e-05
3.99189e-05
3.99089e-05
3.98987e-05
3.98885e-05
3.98784e-05
3.98685e-05
3.98586e-05
3.98488e-05
3.98389e-05
3.98291e-05
3.98191e-05
3.98091e-05
3.97993e-05
3.97905e-05
3.97826e-05
3.97748e-05
3.97664e-05
3.9757e-05
3.97467e-05
3.97359e-05
3.9725e-05
3.97142e-05
3.97034e-05
3.96916e-05
3.96791e-05
3.96676e-05
3.96561e-05
3.9642e-05
3.96253e-05
3.96068e-05
3.95866e-05
3.95644e-05
3.95403e-05
3.95143e-05
3.94861e-05
3.9456e-05
3.94237e-05
3.93897e-05
3.93537e-05
3.93156e-05
3.9275e-05
3.92324e-05
3.91879e-05
3.9141e-05
3.90897e-05
3.90332e-05
3.89734e-05
3.89145e-05
3.88566e-05
3.87902e-05
3.8701e-05
3.85667e-05
3.83882e-05
3.81728e-05
3.79283e-05
3.78432e-05
3.99804e-05
3.99707e-05
3.99606e-05
3.99504e-05
3.99404e-05
3.99308e-05
3.99215e-05
3.99126e-05
3.99039e-05
3.98953e-05
3.98865e-05
3.98775e-05
3.98681e-05
3.98582e-05
3.98479e-05
3.98371e-05
3.98261e-05
3.98148e-05
3.98032e-05
3.97916e-05
3.97797e-05
3.97677e-05
3.97555e-05
3.97431e-05
3.97304e-05
3.97176e-05
3.97045e-05
3.96915e-05
3.96785e-05
3.96663e-05
3.96559e-05
3.96462e-05
3.96362e-05
3.96254e-05
3.9614e-05
3.96029e-05
3.95913e-05
3.95794e-05
3.95682e-05
3.9556e-05
3.95407e-05
3.95226e-05
3.95025e-05
3.94805e-05
3.94566e-05
3.94306e-05
3.94024e-05
3.93718e-05
3.9339e-05
3.93044e-05
3.92683e-05
3.92304e-05
3.91904e-05
3.91481e-05
3.91036e-05
3.90562e-05
3.90045e-05
3.89472e-05
3.88855e-05
3.88235e-05
3.87627e-05
3.86938e-05
3.85998e-05
3.84672e-05
3.82924e-05
3.81016e-05
3.79218e-05
3.77253e-05
3.77774e-05
3.99255e-05
3.99171e-05
3.99077e-05
3.98976e-05
3.98871e-05
3.98763e-05
3.98655e-05
3.98547e-05
3.9844e-05
3.98335e-05
3.98231e-05
3.98127e-05
3.98022e-05
3.97915e-05
3.97805e-05
3.97692e-05
3.97575e-05
3.97455e-05
3.97331e-05
3.97204e-05
3.97074e-05
3.96941e-05
3.96804e-05
3.96664e-05
3.9652e-05
3.96373e-05
3.96222e-05
3.96067e-05
3.95908e-05
3.95745e-05
3.95582e-05
3.95418e-05
3.95266e-05
3.95133e-05
3.95012e-05
3.94888e-05
3.94751e-05
3.94618e-05
3.94504e-05
3.94374e-05
3.94198e-05
3.93989e-05
3.93764e-05
3.93524e-05
3.93267e-05
3.92994e-05
3.92701e-05
3.92385e-05
3.92045e-05
3.91689e-05
3.91316e-05
3.90924e-05
3.90506e-05
3.9006e-05
3.89579e-05
3.8905e-05
3.88464e-05
3.87826e-05
3.87171e-05
3.86524e-05
3.8581e-05
3.8484e-05
3.83481e-05
3.81783e-05
3.79897e-05
3.78425e-05
3.76979e-05
3.75574e-05
3.77289e-05
3.9859e-05
3.98517e-05
3.98435e-05
3.98344e-05
3.98246e-05
3.98141e-05
3.9803e-05
3.97916e-05
3.97799e-05
3.9768e-05
3.97561e-05
3.97441e-05
3.97321e-05
3.97199e-05
3.97076e-05
3.96951e-05
3.96824e-05
3.96694e-05
3.9656e-05
3.96423e-05
3.96283e-05
3.96139e-05
3.95991e-05
3.95838e-05
3.95682e-05
3.9552e-05
3.95354e-05
3.95183e-05
3.95007e-05
3.94824e-05
3.94637e-05
3.94443e-05
3.94245e-05
3.94045e-05
3.93853e-05
3.93686e-05
3.93527e-05
3.93378e-05
3.93241e-05
3.93076e-05
3.92863e-05
3.92626e-05
3.92373e-05
3.92109e-05
3.91835e-05
3.9155e-05
3.91248e-05
3.90922e-05
3.90571e-05
3.90199e-05
3.89803e-05
3.89381e-05
3.88926e-05
3.88432e-05
3.87888e-05
3.87281e-05
3.86618e-05
3.85927e-05
3.85232e-05
3.84477e-05
3.83485e-05
3.82096e-05
3.80382e-05
3.78606e-05
3.77189e-05
3.76099e-05
3.74895e-05
3.73952e-05
3.76202e-05
3.97813e-05
3.97743e-05
3.97666e-05
3.97582e-05
3.97492e-05
3.97394e-05
3.97289e-05
3.97177e-05
3.9706e-05
3.96938e-05
3.96813e-05
3.96683e-05
3.96552e-05
3.96418e-05
3.96281e-05
3.96143e-05
3.96002e-05
3.95858e-05
3.95711e-05
3.95562e-05
3.95408e-05
3.95251e-05
3.9509e-05
3.94924e-05
3.94754e-05
3.94579e-05
3.94399e-05
3.94212e-05
3.9402e-05
3.93821e-05
3.93615e-05
3.93402e-05
3.93182e-05
3.92953e-05
3.92718e-05
3.92483e-05
3.92263e-05
3.92082e-05
3.91913e-05
3.91708e-05
3.91458e-05
3.91195e-05
3.90917e-05
3.90623e-05
3.90318e-05
3.90004e-05
3.89674e-05
3.89321e-05
3.88939e-05
3.88527e-05
3.88082e-05
3.87601e-05
3.87079e-05
3.86508e-05
3.85881e-05
3.85194e-05
3.84466e-05
3.83717e-05
3.82906e-05
3.81879e-05
3.80471e-05
3.78725e-05
3.76993e-05
3.75677e-05
3.74638e-05
3.73747e-05
3.72489e-05
3.71705e-05
3.73515e-05
3.96933e-05
3.96854e-05
3.96772e-05
3.96687e-05
3.96597e-05
3.96501e-05
3.964e-05
3.96292e-05
3.96178e-05
3.96058e-05
3.95932e-05
3.95801e-05
3.95665e-05
3.95524e-05
3.95379e-05
3.95231e-05
3.95078e-05
3.94922e-05
3.94762e-05
3.94598e-05
3.94431e-05
3.94259e-05
3.94083e-05
3.93901e-05
3.93715e-05
3.93524e-05
3.93327e-05
3.93123e-05
3.92913e-05
3.92696e-05
3.92471e-05
3.92238e-05
3.91996e-05
3.91744e-05
3.91483e-05
3.91212e-05
3.90935e-05
3.90683e-05
3.90453e-05
3.90181e-05
3.89872e-05
3.89569e-05
3.89262e-05
3.88938e-05
3.88593e-05
3.88231e-05
3.87852e-05
3.8745e-05
3.87019e-05
3.86552e-05
3.86043e-05
3.85488e-05
3.84882e-05
3.84219e-05
3.83503e-05
3.82744e-05
3.81942e-05
3.81059e-05
3.79971e-05
3.78542e-05
3.76792e-05
3.75067e-05
3.73765e-05
3.72826e-05
3.71907e-05
3.70816e-05
3.69032e-05
3.67973e-05
3.68485e-05
3.95938e-05
3.95846e-05
3.95752e-05
3.95657e-05
3.95559e-05
3.95457e-05
3.95352e-05
3.95242e-05
3.95127e-05
3.95006e-05
3.9488e-05
3.94748e-05
3.9461e-05
3.94466e-05
3.94317e-05
3.94162e-05
3.94002e-05
3.93836e-05
3.93666e-05
3.9349e-05
3.93309e-05
3.93123e-05
3.92932e-05
3.92734e-05
3.92531e-05
3.92322e-05
3.92106e-05
3.91882e-05
3.91652e-05
3.91413e-05
3.91166e-05
3.9091e-05
3.90643e-05
3.90366e-05
3.90078e-05
3.89777e-05
3.89463e-05
3.8914e-05
3.88807e-05
3.88452e-05
3.88077e-05
3.87692e-05
3.87312e-05
3.86938e-05
3.86554e-05
3.86145e-05
3.85703e-05
3.85228e-05
3.84723e-05
3.84182e-05
3.836e-05
3.82969e-05
3.82276e-05
3.81521e-05
3.80714e-05
3.79853e-05
3.78889e-05
3.77715e-05
3.76245e-05
3.74512e-05
3.72824e-05
3.71497e-05
3.70537e-05
3.69634e-05
3.68291e-05
3.66385e-05
3.63521e-05
3.61493e-05
3.59504e-05
3.94791e-05
3.94687e-05
3.94581e-05
3.94472e-05
3.94361e-05
3.94248e-05
3.94132e-05
3.94013e-05
3.93889e-05
3.93762e-05
3.93629e-05
3.93492e-05
3.93348e-05
3.93199e-05
3.93044e-05
3.92883e-05
3.92716e-05
3.92542e-05
3.92363e-05
3.92176e-05
3.91984e-05
3.91784e-05
3.91578e-05
3.91365e-05
3.91145e-05
3.90917e-05
3.90681e-05
3.90436e-05
3.90183e-05
3.89921e-05
3.89648e-05
3.89365e-05
3.8907e-05
3.88763e-05
3.88443e-05
3.88108e-05
3.87758e-05
3.87392e-05
3.87009e-05
3.86604e-05
3.86177e-05
3.85725e-05
3.85247e-05
3.84747e-05
3.84232e-05
3.83717e-05
3.83196e-05
3.82647e-05
3.82055e-05
3.81411e-05
3.80718e-05
3.79978e-05
3.79184e-05
3.78325e-05
3.77387e-05
3.76316e-05
3.7504e-05
3.73506e-05
3.71809e-05
3.70199e-05
3.68827e-05
3.67729e-05
3.66694e-05
3.65134e-05
3.6263e-05
3.59253e-05
3.54837e-05
3.51393e-05
3.44708e-05
3.93432e-05
3.93319e-05
3.93202e-05
3.93082e-05
3.92959e-05
3.92833e-05
3.92703e-05
3.9257e-05
3.92434e-05
3.92294e-05
3.92149e-05
3.92e-05
3.91845e-05
3.91686e-05
3.9152e-05
3.91348e-05
3.9117e-05
3.90985e-05
3.90794e-05
3.90595e-05
3.90388e-05
3.90174e-05
3.89952e-05
3.89722e-05
3.89482e-05
3.89234e-05
3.88976e-05
3.88708e-05
3.8843e-05
3.8814e-05
3.87838e-05
3.87524e-05
3.87196e-05
3.86853e-05
3.86495e-05
3.8612e-05
3.85727e-05
3.85314e-05
3.8488e-05
3.84421e-05
3.83935e-05
3.83419e-05
3.82872e-05
3.82291e-05
3.81672e-05
3.81014e-05
3.80321e-05
3.79612e-05
3.78891e-05
3.78133e-05
3.77311e-05
3.76421e-05
3.75468e-05
3.74428e-05
3.73244e-05
3.71844e-05
3.70232e-05
3.68589e-05
3.67063e-05
3.65627e-05
3.6426e-05
3.62871e-05
3.61022e-05
3.57964e-05
3.53579e-05
3.48317e-05
3.41603e-05
3.35746e-05
3.22492e-05
3.91782e-05
3.91662e-05
3.91537e-05
3.91407e-05
3.91273e-05
3.91135e-05
3.90992e-05
3.90845e-05
3.90694e-05
3.90539e-05
3.90378e-05
3.90213e-05
3.90043e-05
3.89867e-05
3.89686e-05
3.89498e-05
3.89303e-05
3.89101e-05
3.88892e-05
3.88675e-05
3.8845e-05
3.88216e-05
3.87973e-05
3.8772e-05
3.87458e-05
3.87184e-05
3.86899e-05
3.86603e-05
3.86294e-05
3.85971e-05
3.85634e-05
3.85282e-05
3.84913e-05
3.84527e-05
3.84122e-05
3.83697e-05
3.8325e-05
3.82779e-05
3.82282e-05
3.81755e-05
3.81197e-05
3.80603e-05
3.7997e-05
3.79296e-05
3.78576e-05
3.77805e-05
3.76978e-05
3.76092e-05
3.75148e-05
3.7417e-05
3.73159e-05
3.72075e-05
3.7088e-05
3.69526e-05
3.67995e-05
3.66333e-05
3.64731e-05
3.63227e-05
3.61682e-05
3.59971e-05
3.5795e-05
3.55433e-05
3.51894e-05
3.4665e-05
3.40224e-05
3.32194e-05
3.22927e-05
3.15928e-05
3.00509e-05
3.89747e-05
3.89618e-05
3.89483e-05
3.89342e-05
3.89197e-05
3.89046e-05
3.8889e-05
3.88729e-05
3.88563e-05
3.88391e-05
3.88214e-05
3.8803e-05
3.87841e-05
3.87645e-05
3.87443e-05
3.87234e-05
3.87017e-05
3.86792e-05
3.8656e-05
3.86318e-05
3.86067e-05
3.85806e-05
3.85535e-05
3.85253e-05
3.84959e-05
3.84653e-05
3.84333e-05
3.84e-05
3.83651e-05
3.83286e-05
3.82904e-05
3.82504e-05
3.82084e-05
3.81642e-05
3.81178e-05
3.80689e-05
3.80174e-05
3.79629e-05
3.79052e-05
3.78439e-05
3.77787e-05
3.77092e-05
3.7635e-05
3.75556e-05
3.74706e-05
3.73794e-05
3.72812e-05
3.71753e-05
3.70607e-05
3.69368e-05
3.68034e-05
3.66602e-05
3.65034e-05
3.63335e-05
3.61643e-05
3.60061e-05
3.58455e-05
3.56607e-05
3.54372e-05
3.51664e-05
3.48192e-05
3.43632e-05
3.3815e-05
3.30616e-05
3.21138e-05
3.11098e-05
3.02316e-05
2.98201e-05
2.85205e-05
3.87198e-05
3.87054e-05
3.86904e-05
3.86749e-05
3.86588e-05
3.86422e-05
3.8625e-05
3.86072e-05
3.85887e-05
3.85696e-05
3.85499e-05
3.85294e-05
3.85082e-05
3.84863e-05
3.84636e-05
3.844e-05
3.84156e-05
3.83903e-05
3.83639e-05
3.83366e-05
3.83082e-05
3.82786e-05
3.82478e-05
3.82157e-05
3.81822e-05
3.81472e-05
3.81106e-05
3.80724e-05
3.80323e-05
3.79903e-05
3.79462e-05
3.78998e-05
3.78511e-05
3.77997e-05
3.77455e-05
3.76883e-05
3.76278e-05
3.75636e-05
3.74954e-05
3.74228e-05
3.73454e-05
3.72627e-05
3.71741e-05
3.70792e-05
3.69771e-05
3.68672e-05
3.67485e-05
3.66201e-05
3.64809e-05
3.63304e-05
3.61678e-05
3.59896e-05
3.57943e-05
3.56087e-05
3.543e-05
3.5233e-05
3.49944e-05
3.46953e-05
3.43238e-05
3.38783e-05
3.33459e-05
3.27258e-05
3.18856e-05
3.08508e-05
2.98251e-05
2.90797e-05
2.87958e-05
2.91186e-05
2.8398e-05
3.83943e-05
3.83778e-05
3.83606e-05
3.83429e-05
3.83247e-05
3.83058e-05
3.82863e-05
3.82661e-05
3.82452e-05
3.82236e-05
3.82012e-05
3.8178e-05
3.8154e-05
3.8129e-05
3.81031e-05
3.80762e-05
3.80483e-05
3.80192e-05
3.7989e-05
3.79576e-05
3.79249e-05
3.78907e-05
3.78551e-05
3.78179e-05
3.7779e-05
3.77383e-05
3.76957e-05
3.76509e-05
3.7604e-05
3.75547e-05
3.75028e-05
3.74481e-05
3.73904e-05
3.73294e-05
3.7265e-05
3.71967e-05
3.71242e-05
3.70472e-05
3.69651e-05
3.68775e-05
3.67837e-05
3.66832e-05
3.65753e-05
3.64593e-05
3.63342e-05
3.6199e-05
3.60528e-05
3.58947e-05
3.57237e-05
3.55393e-05
3.5337e-05
3.51116e-05
3.48955e-05
3.46684e-05
3.44022e-05
3.40846e-05
3.36904e-05
3.31929e-05
3.26555e-05
3.20847e-05
3.13667e-05
3.04722e-05
2.94563e-05
2.85219e-05
2.7999e-05
2.81707e-05
2.89657e-05
2.99951e-05
2.98843e-05
3.79675e-05
3.79479e-05
3.79278e-05
3.79071e-05
3.78857e-05
3.78637e-05
3.78409e-05
3.78174e-05
3.77931e-05
3.7768e-05
3.77419e-05
3.77149e-05
3.76869e-05
3.76579e-05
3.76277e-05
3.75963e-05
3.75637e-05
3.75297e-05
3.74943e-05
3.74574e-05
3.74188e-05
3.73786e-05
3.73365e-05
3.72925e-05
3.72464e-05
3.7198e-05
3.71472e-05
3.70938e-05
3.70377e-05
3.69785e-05
3.6916e-05
3.685e-05
3.67802e-05
3.67063e-05
3.66279e-05
3.65445e-05
3.64558e-05
3.63612e-05
3.62602e-05
3.6152e-05
3.6036e-05
3.59113e-05
3.57771e-05
3.56322e-05
3.54756e-05
3.53066e-05
3.51238e-05
3.49256e-05
3.471e-05
3.44728e-05
3.42046e-05
3.3927e-05
3.36267e-05
3.32664e-05
3.28235e-05
3.23098e-05
3.17614e-05
3.11953e-05
3.05219e-05
2.97268e-05
2.88437e-05
2.79805e-05
2.7333e-05
2.72079e-05
2.78244e-05
2.91424e-05
3.08087e-05
3.22401e-05
3.28324e-05
3.73877e-05
3.73643e-05
3.73401e-05
3.73153e-05
3.72897e-05
3.72633e-05
3.72361e-05
3.7208e-05
3.71789e-05
3.71489e-05
3.71177e-05
3.70855e-05
3.7052e-05
3.70172e-05
3.69811e-05
3.69435e-05
3.69043e-05
3.68635e-05
3.6821e-05
3.67765e-05
3.67301e-05
3.66815e-05
3.66306e-05
3.65772e-05
3.65212e-05
3.64623e-05
3.64003e-05
3.63351e-05
3.62662e-05
3.61935e-05
3.61165e-05
3.6035e-05
3.59486e-05
3.58568e-05
3.5759e-05
3.56548e-05
3.55438e-05
3.5425e-05
3.52977e-05
3.51609e-05
3.50139e-05
3.48555e-05
3.46843e-05
3.44992e-05
3.42992e-05
3.40826e-05
3.38462e-05
3.35849e-05
3.32922e-05
3.29604e-05
3.25824e-05
3.21582e-05
3.16867e-05
3.11596e-05
3.05976e-05
3.00297e-05
2.93757e-05
2.86425e-05
2.78783e-05
2.71627e-05
2.66208e-05
2.65005e-05
2.6909e-05
2.79661e-05
2.96941e-05
3.18479e-05
3.39033e-05
3.54038e-05
3.70784e-05
3.65657e-05
3.65369e-05
3.65074e-05
3.6477e-05
3.64456e-05
3.64132e-05
3.63798e-05
3.63453e-05
3.63096e-05
3.62727e-05
3.62344e-05
3.61947e-05
3.61535e-05
3.61107e-05
3.60661e-05
3.60198e-05
3.59715e-05
3.5921e-05
3.58684e-05
3.58134e-05
3.57558e-05
3.56954e-05
3.56321e-05
3.55656e-05
3.54957e-05
3.54221e-05
3.53444e-05
3.52625e-05
3.51758e-05
3.5084e-05
3.49868e-05
3.48835e-05
3.47736e-05
3.46566e-05
3.45316e-05
3.43985e-05
3.42561e-05
3.41033e-05
3.39391e-05
3.37624e-05
3.35718e-05
3.33654e-05
3.31411e-05
3.28972e-05
3.26315e-05
3.23375e-05
3.20054e-05
3.16296e-05
3.12084e-05
3.07363e-05
3.0209e-05
2.96544e-05
2.91176e-05
2.8538e-05
2.78975e-05
2.7234e-05
2.66065e-05
2.60608e-05
2.57226e-05
2.58305e-05
2.63484e-05
2.73006e-05
2.87367e-05
3.07029e-05
3.30936e-05
3.55023e-05
3.73913e-05
3.88597e-05
4.24919e-05
3.53389e-05
3.53028e-05
3.52656e-05
3.52273e-05
3.51879e-05
3.51472e-05
3.51052e-05
3.50617e-05
3.50167e-05
3.49702e-05
3.49219e-05
3.48718e-05
3.48198e-05
3.47657e-05
3.47094e-05
3.46507e-05
3.45896e-05
3.45257e-05
3.4459e-05
3.43892e-05
3.4316e-05
3.42393e-05
3.41587e-05
3.40739e-05
3.39846e-05
3.38905e-05
3.37912e-05
3.36861e-05
3.35748e-05
3.34568e-05
3.33315e-05
3.31982e-05
3.30561e-05
3.29045e-05
3.27428e-05
3.25697e-05
3.23837e-05
3.21832e-05
3.19669e-05
3.17324e-05
3.14769e-05
3.11966e-05
3.08884e-05
3.05491e-05
3.0173e-05
2.97498e-05
2.92727e-05
2.87504e-05
2.8203e-05
2.76562e-05
2.71198e-05
2.65618e-05
2.60297e-05
2.55378e-05
2.50848e-05
2.47784e-05
2.48358e-05
2.52282e-05
2.59655e-05
2.70366e-05
2.8411e-05
3.00792e-05
3.20742e-05
3.43992e-05
3.68394e-05
3.88883e-05
4.02105e-05
4.18448e-05
4.80236e-05
3.34022e-05
3.33555e-05
3.33078e-05
3.32586e-05
3.3208e-05
3.31557e-05
3.31017e-05
3.3046e-05
3.29882e-05
3.29285e-05
3.28665e-05
3.28022e-05
3.27355e-05
3.26661e-05
3.25938e-05
3.25186e-05
3.24401e-05
3.23581e-05
3.22724e-05
3.21828e-05
3.20888e-05
3.19902e-05
3.18867e-05
3.17777e-05
3.16629e-05
3.15419e-05
3.1414e-05
3.12787e-05
3.11354e-05
3.09833e-05
3.08217e-05
3.06498e-05
3.04666e-05
3.02712e-05
3.00613e-05
2.98345e-05
2.95884e-05
2.93214e-05
2.90313e-05
2.87136e-05
2.83624e-05
2.7976e-05
2.75586e-05
2.71136e-05
2.66315e-05
2.61021e-05
2.55658e-05
2.51144e-05
2.47186e-05
2.43281e-05
2.39271e-05
2.36533e-05
2.36305e-05
2.38426e-05
2.42907e-05
2.49819e-05
2.5918e-05
2.70829e-05
2.84447e-05
2.99614e-05
3.16027e-05
3.33827e-05
3.53501e-05
3.74594e-05
3.93766e-05
4.05766e-05
4.11546e-05
4.31529e-05
5.14304e-05
3.01971e-05
3.01377e-05
3.0077e-05
3.00147e-05
2.99506e-05
2.98846e-05
2.98165e-05
2.97463e-05
2.96737e-05
2.95987e-05
2.95211e-05
2.94407e-05
2.93573e-05
2.92708e-05
2.91809e-05
2.90875e-05
2.89902e-05
2.88888e-05
2.8783e-05
2.86724e-05
2.85568e-05
2.84357e-05
2.83087e-05
2.81753e-05
2.8035e-05
2.78873e-05
2.77317e-05
2.75673e-05
2.73933e-05
2.72092e-05
2.70149e-05
2.68083e-05
2.65847e-05
2.63424e-05
2.60798e-05
2.5795e-05
2.54891e-05
2.51646e-05
2.48196e-05
2.44515e-05
2.40717e-05
2.36952e-05
2.33347e-05
2.30072e-05
2.27231e-05
2.24744e-05
2.22662e-05
2.21831e-05
2.23506e-05
2.26568e-05
2.31025e-05
2.36895e-05
2.4419e-05
2.5286e-05
2.62783e-05
2.7377e-05
2.85578e-05
2.97955e-05
3.10682e-05
3.23592e-05
3.36682e-05
3.50333e-05
3.65078e-05
3.79751e-05
3.89534e-05
3.89441e-05
3.86636e-05
4.08132e-05
4.9485e-05
2.48462e-05
2.47783e-05
2.47093e-05
2.4639e-05
2.45673e-05
2.44943e-05
2.44199e-05
2.4344e-05
2.42665e-05
2.41873e-05
2.41063e-05
2.40232e-05
2.3938e-05
2.38503e-05
2.37601e-05
2.36671e-05
2.35711e-05
2.34719e-05
2.33691e-05
2.32625e-05
2.31518e-05
2.30367e-05
2.29167e-05
2.27917e-05
2.26612e-05
2.25248e-05
2.2382e-05
2.22326e-05
2.20761e-05
2.19123e-05
2.1741e-05
2.15643e-05
2.13878e-05
2.12141e-05
2.10444e-05
2.08824e-05
2.07391e-05
2.06214e-05
2.05067e-05
2.03905e-05
2.04088e-05
2.05835e-05
2.08264e-05
2.11311e-05
2.1499e-05
2.19308e-05
2.24232e-05
2.2972e-05
2.35753e-05
2.42259e-05
2.49147e-05
2.5632e-05
2.63676e-05
2.71104e-05
2.78484e-05
2.85703e-05
2.92689e-05
2.99431e-05
3.06038e-05
3.12602e-05
3.19238e-05
3.26009e-05
3.32942e-05
3.38066e-05
3.35356e-05
3.19891e-05
3.0562e-05
3.20753e-05
3.84762e-05
1.6814e-05
1.67872e-05
1.67717e-05
1.67799e-05
1.68157e-05
1.68748e-05
1.69504e-05
1.7037e-05
1.71303e-05
1.72273e-05
1.7326e-05
1.7425e-05
1.75233e-05
1.76201e-05
1.77151e-05
1.78077e-05
1.78979e-05
1.79855e-05
1.80705e-05
1.81528e-05
1.82323e-05
1.83092e-05
1.83845e-05
1.84576e-05
1.85247e-05
1.85933e-05
1.86744e-05
1.87694e-05
1.88791e-05
1.90044e-05
1.91458e-05
1.93037e-05
1.94785e-05
1.96706e-05
1.98798e-05
2.01057e-05
2.03481e-05
2.06065e-05
2.08786e-05
2.11599e-05
2.14481e-05
2.17418e-05
2.20362e-05
2.23253e-05
2.26033e-05
2.28637e-05
2.31007e-05
2.33089e-05
2.34841e-05
2.36242e-05
2.37291e-05
2.38002e-05
2.38398e-05
2.38489e-05
2.38284e-05
2.37825e-05
2.37242e-05
2.36789e-05
2.36792e-05
2.37126e-05
2.37498e-05
2.37164e-05
2.35102e-05
2.27467e-05
2.06733e-05
1.65032e-05
1.43673e-05
1.53959e-05
1.9588e-05
1.39005e-05
1.40359e-05
1.41719e-05
1.43098e-05
1.44503e-05
1.4594e-05
1.47407e-05
1.48903e-05
1.50423e-05
1.51961e-05
1.53511e-05
1.55065e-05
1.56619e-05
1.58165e-05
1.59697e-05
1.6121e-05
1.62698e-05
1.64155e-05
1.65576e-05
1.66956e-05
1.6829e-05
1.69573e-05
1.70794e-05
1.71947e-05
1.73054e-05
1.74044e-05
1.74816e-05
1.75384e-05
1.75759e-05
1.75944e-05
1.75938e-05
1.75734e-05
1.75323e-05
1.74692e-05
1.73824e-05
1.72699e-05
1.71295e-05
1.6959e-05
1.67558e-05
1.65176e-05
1.62424e-05
1.59285e-05
1.55752e-05
1.51826e-05
1.47519e-05
1.42854e-05
1.37869e-05
1.32622e-05
1.27188e-05
1.21657e-05
1.16125e-05
1.10668e-05
1.05328e-05
1.00102e-05
9.49729e-06
8.99618e-06
8.51235e-06
7.99957e-06
7.57497e-06
6.92549e-06
6.57361e-06
6.05171e-06
6.00995e-06
5.90612e-06
5.24922e-06
4.20528e-06
3.96416e-06
3.4411e-06
4.38376e-06
4.05155e-05
4.05163e-05
4.05172e-05
4.05197e-05
4.05237e-05
4.05289e-05
4.05332e-05
4.05351e-05
4.05287e-05
4.05199e-05
4.0508e-05
4.04944e-05
4.04833e-05
4.0483e-05
4.04941e-05
4.04928e-05
4.04625e-05
4.04246e-05
4.0418e-05
4.04291e-05
4.04186e-05
4.03843e-05
4.04127e-05
4.04142e-05
4.0429e-05
4.04222e-05
4.04014e-05
4.03863e-05
4.03493e-05
4.03617e-05
4.0356e-05
4.0358e-05
4.0337e-05
4.03291e-05
4.03274e-05
4.03166e-05
4.03095e-05
4.03104e-05
4.03102e-05
4.03174e-05
4.03337e-05
4.03287e-05
4.03124e-05
4.03214e-05
4.03216e-05
4.03252e-05
4.03313e-05
4.03292e-05
4.03062e-05
4.02897e-05
4.02888e-05
4.02953e-05
4.03088e-05
4.03158e-05
4.03239e-05
4.03286e-05
4.03175e-05
4.03046e-05
4.02939e-05
4.04776e-05
4.04808e-05
4.04847e-05
4.04884e-05
4.04916e-05
4.04931e-05
4.04917e-05
4.04873e-05
4.048e-05
4.04729e-05
4.04674e-05
4.04667e-05
4.0474e-05
4.04809e-05
4.04733e-05
4.0442e-05
4.04156e-05
4.04025e-05
4.04105e-05
4.04012e-05
4.03841e-05
4.03763e-05
4.04085e-05
4.04143e-05
4.04259e-05
4.04074e-05
4.03782e-05
4.03597e-05
4.03318e-05
4.03467e-05
4.03374e-05
4.03379e-05
4.03176e-05
4.03095e-05
4.03075e-05
4.0298e-05
4.02905e-05
4.02897e-05
4.02887e-05
4.0293e-05
4.03069e-05
4.03092e-05
4.02963e-05
4.02944e-05
4.02962e-05
4.02985e-05
4.03034e-05
4.03139e-05
4.03041e-05
4.02832e-05
4.02707e-05
4.02672e-05
4.0271e-05
4.02751e-05
4.02795e-05
4.02851e-05
4.02878e-05
4.02834e-05
4.02761e-05
4.04407e-05
4.04432e-05
4.04463e-05
4.04484e-05
4.04491e-05
4.04482e-05
4.0446e-05
4.04435e-05
4.04421e-05
4.0444e-05
4.04509e-05
4.04625e-05
4.04648e-05
4.04526e-05
4.04241e-05
4.03965e-05
4.03861e-05
4.03885e-05
4.03827e-05
4.03695e-05
4.0363e-05
4.03808e-05
4.04088e-05
4.04165e-05
4.04184e-05
4.03884e-05
4.03523e-05
4.03325e-05
4.03143e-05
4.03326e-05
4.03176e-05
4.03158e-05
4.02967e-05
4.02883e-05
4.0286e-05
4.02776e-05
4.02699e-05
4.02678e-05
4.02662e-05
4.02678e-05
4.02781e-05
4.02848e-05
4.02776e-05
4.02702e-05
4.02688e-05
4.02701e-05
4.02735e-05
4.0282e-05
4.02892e-05
4.0275e-05
4.02575e-05
4.02451e-05
4.0239e-05
4.02374e-05
4.02378e-05
4.024e-05
4.02428e-05
4.02439e-05
4.02449e-05
4.04002e-05
4.04013e-05
4.04037e-05
4.04054e-05
4.04066e-05
4.04078e-05
4.04098e-05
4.04136e-05
4.04201e-05
4.043e-05
4.04411e-05
4.044e-05
4.04234e-05
4.03953e-05
4.03727e-05
4.03604e-05
4.0359e-05
4.0359e-05
4.03499e-05
4.03435e-05
4.03541e-05
4.03885e-05
4.04104e-05
4.0415e-05
4.04015e-05
4.03552e-05
4.03239e-05
4.03048e-05
4.02944e-05
4.03093e-05
4.02953e-05
4.02915e-05
4.02736e-05
4.02651e-05
4.02624e-05
4.0255e-05
4.02474e-05
4.02441e-05
4.02419e-05
4.02414e-05
4.02478e-05
4.02559e-05
4.02543e-05
4.02465e-05
4.02412e-05
4.02398e-05
4.02415e-05
4.02469e-05
4.02541e-05
4.02531e-05
4.02403e-05
4.02264e-05
4.02147e-05
4.02065e-05
4.02013e-05
4.01987e-05
4.01977e-05
4.01976e-05
4.01981e-05
4.03552e-05
4.03587e-05
4.03621e-05
4.03655e-05
4.03693e-05
4.03738e-05
4.03793e-05
4.03859e-05
4.03931e-05
4.0399e-05
4.03958e-05
4.03805e-05
4.03605e-05
4.03414e-05
4.03309e-05
4.03279e-05
4.0328e-05
4.0325e-05
4.03201e-05
4.03255e-05
4.03503e-05
4.03906e-05
4.0406e-05
4.04002e-05
4.03666e-05
4.0319e-05
4.02928e-05
4.02763e-05
4.02713e-05
4.02819e-05
4.02701e-05
4.02647e-05
4.0248e-05
4.02395e-05
4.02363e-05
4.02297e-05
4.02222e-05
4.0218e-05
4.02153e-05
4.02133e-05
4.02162e-05
4.02232e-05
4.02256e-05
4.02204e-05
4.02133e-05
4.02087e-05
4.02076e-05
4.02101e-05
4.0215e-05
4.02171e-05
4.02122e-05
4.02026e-05
4.01912e-05
4.01803e-05
4.0171e-05
4.01636e-05
4.0158e-05
4.0154e-05
4.01514e-05
4.03113e-05
4.0316e-05
4.03206e-05
4.03252e-05
4.033e-05
4.03347e-05
4.03391e-05
4.03423e-05
4.03431e-05
4.03399e-05
4.03306e-05
4.0317e-05
4.03043e-05
4.02961e-05
4.02936e-05
4.02938e-05
4.02933e-05
4.02919e-05
4.02951e-05
4.03111e-05
4.03408e-05
4.03735e-05
4.03791e-05
4.03598e-05
4.03199e-05
4.02812e-05
4.02592e-05
4.0246e-05
4.02447e-05
4.02517e-05
4.02417e-05
4.02351e-05
4.02195e-05
4.02109e-05
4.02074e-05
4.02013e-05
4.01941e-05
4.01892e-05
4.01859e-05
4.01829e-05
4.01829e-05
4.01876e-05
4.01916e-05
4.01898e-05
4.01833e-05
4.01766e-05
4.01723e-05
4.01716e-05
4.01738e-05
4.0176e-05
4.01751e-05
4.01702e-05
4.01622e-05
4.01524e-05
4.01423e-05
4.01326e-05
4.01238e-05
4.01161e-05
4.01099e-05
4.02638e-05
4.02685e-05
4.0273e-05
4.02771e-05
4.02807e-05
4.02834e-05
4.02847e-05
4.02842e-05
4.02814e-05
4.0276e-05
4.02685e-05
4.02611e-05
4.02563e-05
4.02549e-05
4.02556e-05
4.02566e-05
4.02573e-05
4.02608e-05
4.02718e-05
4.02927e-05
4.03188e-05
4.03374e-05
4.0333e-05
4.03082e-05
4.02719e-05
4.02412e-05
4.0223e-05
4.02133e-05
4.02141e-05
4.02185e-05
4.02097e-05
4.02021e-05
4.01875e-05
4.0179e-05
4.01751e-05
4.01695e-05
4.01625e-05
4.01571e-05
4.01532e-05
4.01494e-05
4.01473e-05
4.01492e-05
4.01529e-05
4.01535e-05
4.01493e-05
4.01423e-05
4.01358e-05
4.01317e-05
4.01306e-05
4.01311e-05
4.01311e-05
4.0129e-05
4.01244e-05
4.01175e-05
4.01091e-05
4.00999e-05
4.00904e-05
4.00811e-05
4.00725e-05
4.02082e-05
4.02121e-05
4.02157e-05
4.02186e-05
4.02208e-05
4.02219e-05
4.02219e-05
4.02208e-05
4.02185e-05
4.02155e-05
4.02126e-05
4.02109e-05
4.0211e-05
4.02124e-05
4.02144e-05
4.02168e-05
4.0221e-05
4.023e-05
4.02455e-05
4.02658e-05
4.02844e-05
4.02916e-05
4.02799e-05
4.02536e-05
4.02225e-05
4.01981e-05
4.01837e-05
4.01773e-05
4.01793e-05
4.01816e-05
4.01736e-05
4.01653e-05