/*--------------------------------*- C++ -*----------------------------------*\
| =========                 |                                                 |
| \\      /  F ield         | OpenFOAM: The Open Source CFD Toolbox           |
|  \\    /   O peration     | Version:  2312                                  |
|   \\  /    A nd           | Website:  www.openfoam.com                      |
|    \\/     M anipulation  |                                                 |
\*---------------------------------------------------------------------------*/
FoamFile
{
    version     2.0;
    format      ascii;
    arch        "LSB;label=32;scalar=64";
    class       volScalarField;
    location    "1800";
    object      p;
}
// * * * * * * * * * * * * * * * * * * * * * * * * * * * * * * * * * * * * * //

dimensions      [0 2 -2 0 0 0 0];

internalField   nonuniform List<scalar> 
76025
(
0.00014373
0.000136271
0.000128704
0.00012107
0.000113349
0.000105478
9.73225e-05
8.93503e-05
8.11438e-05
7.28824e-05
6.45143e-05
5.6072e-05
4.76014e-05
3.91988e-05
3.06509e-05
2.21378e-05
1.3663e-05
5.03278e-06
-3.55607e-06
-1.20121e-05
-2.04169e-05
-2.90689e-05
-3.75308e-05
-4.57719e-05
-5.39144e-05
-6.18579e-05
-6.98983e-05
-7.78754e-05
-8.53782e-05
-9.32679e-05
-0.00010103
-0.000108063
-0.000114804
-0.00012121
-0.000127528
-0.000133773
-0.000139686
-0.000145673
-0.000150901
-0.000155697
-0.000160123
-0.000164287
-0.000168433
-0.000171683
-0.000174641
-0.00017721
-0.000179565
-0.000181031
-0.000181947
-0.000182739
-0.000183174
-0.000183015
-0.00018223
-0.000180766
-0.00017867
-0.00017556
-0.000172453
-0.000168342
-0.000163725
-0.000158852
-0.00015325
-0.000146622
-0.000138745
-0.000130881
-0.000122329
-0.000112037
-0.000102453
-9.17967e-05
-7.66573e-05
0.000146356
0.000138459
0.000130547
0.000122524
0.000114343
0.000105974
9.75327e-05
8.90127e-05
8.03631e-05
7.1634e-05
6.2844e-05
5.40288e-05
4.51761e-05
3.62752e-05
2.73371e-05
1.83943e-05
9.35977e-06
3.71842e-07
-8.68063e-06
-1.76551e-05
-2.66913e-05
-3.56354e-05
-4.44428e-05
-5.30974e-05
-6.16798e-05
-7.0195e-05
-7.86323e-05
-8.68586e-05
-9.49681e-05
-0.000102953
-0.00011069
-0.000118238
-0.000125505
-0.000132465
-0.000139337
-0.000145958
-0.00015233
-0.000158321
-0.00016381
-0.000168993
-0.000173845
-0.000178443
-0.00018267
-0.000186335
-0.000189659
-0.000192591
-0.000195124
-0.000197005
-0.000198401
-0.000199477
-0.000200164
-0.000200295
-0.00019981
-0.000198697
-0.000196938
-0.000194501
-0.000191616
-0.000188049
-0.000183923
-0.00017926
-0.000173958
-0.000167751
-0.00016064
-0.000153014
-0.000144733
-0.000135415
-0.000125844
-0.000115225
-0.000102619
0.000148552
0.00014026
0.000131946
0.00012349
0.000114834
0.000106017
9.7078e-05
8.80317e-05
7.89012e-05
6.97026e-05
6.04524e-05
5.11509e-05
4.17813e-05
3.23519e-05
2.28924e-05
1.33911e-05
3.88214e-06
-5.62482e-06
-1.51272e-05
-2.46242e-05
-3.40733e-05
-4.34291e-05
-5.26907e-05
-6.18597e-05
-7.09395e-05
-7.9921e-05
-8.87577e-05
-9.74441e-05
-0.000105988
-0.000114338
-0.000122503
-0.000130467
-0.000138168
-0.000145615
-0.000152826
-0.000159751
-0.000166355
-0.000172606
-0.000178508
-0.000184079
-0.000189305
-0.000194178
-0.000198668
-0.000202732
-0.000206389
-0.000209617
-0.000212405
-0.000214698
-0.000216517
-0.000217906
-0.000218851
-0.00021928
-0.00021914
-0.000218406
-0.00021707
-0.000215116
-0.000212604
-0.000209495
-0.000205789
-0.000201495
-0.00019654
-0.000190826
-0.000184339
-0.000177199
-0.000169422
-0.000160739
-0.000151529
-0.00014132
-0.000129795
0.000150525
0.000141775
0.000132981
0.000124033
0.000114878
0.000105538
9.60679e-05
8.65108e-05
7.68854e-05
6.71898e-05
5.7421e-05
4.7578e-05
3.76667e-05
2.77026e-05
1.77092e-05
7.69996e-06
-2.30819e-06
-1.23101e-05
-2.2295e-05
-3.225e-05
-4.21508e-05
-5.1983e-05
-6.17358e-05
-7.13941e-05
-8.09421e-05
-9.03672e-05
-9.96532e-05
-0.000108785
-0.000117744
-0.000126509
-0.000135069
-0.000143399
-0.00015148
-0.000159299
-0.000166843
-0.000174094
-0.000181032
-0.000187644
-0.000193911
-0.000199819
-0.000205367
-0.000210553
-0.000215367
-0.000219781
-0.000223779
-0.000227352
-0.000230492
-0.000233176
-0.000235389
-0.000237141
-0.000238427
-0.000239211
-0.000239452
-0.000239125
-0.000238218
-0.000236723
-0.000234658
-0.000232012
-0.000228772
-0.000224926
-0.000220437
-0.000215252
-0.000209359
-0.000202822
-0.000195602
-0.000187569
-0.000178983
-0.000169406
-0.000158797
0.000152508
0.000143257
0.00013395
0.000124483
0.000114802
0.000104927
9.49236e-05
8.48395e-05
7.46858e-05
6.44546e-05
5.41412e-05
4.3752e-05
3.33024e-05
2.28104e-05
1.22933e-05
1.76531e-06
-8.76436e-06
-1.92855e-05
-2.9786e-05
-4.02501e-05
-5.06622e-05
-6.10061e-05
-7.12641e-05
-8.14188e-05
-9.14549e-05
-0.000101358
-0.000111113
-0.000120701
-0.000130104
-0.00013931
-0.000148298
-0.00015705
-0.000165552
-0.000173787
-0.000181741
-0.000189395
-0.000196727
-0.000203719
-0.000210354
-0.000216625
-0.000222535
-0.000228086
-0.000233262
-0.000238043
-0.000242412
-0.000246358
-0.000249867
-0.000252926
-0.000255523
-0.000257654
-0.000259311
-0.000260473
-0.000261112
-0.000261207
-0.000260745
-0.00025972
-0.00025813
-0.000255971
-0.00025323
-0.000249891
-0.000245931
-0.000241321
-0.000236062
-0.00023019
-0.000223593
-0.000216301
-0.000208423
-0.000199656
-0.000190219
0.000154493
0.000144711
0.000134873
0.000124865
0.000114636
0.000104207
9.36438e-05
8.29969e-05
7.22771e-05
6.14774e-05
5.05949e-05
3.96383e-05
2.86237e-05
1.75685e-05
6.48768e-06
-4.60596e-06
-1.57011e-05
-2.67848e-05
-3.78428e-05
-4.88592e-05
-5.98174e-05
-7.06998e-05
-8.14889e-05
-9.21678e-05
-0.000102721
-0.000113131
-0.000123383
-0.000133459
-0.000143344
-0.00015302
-0.000162468
-0.000171667
-0.000180607
-0.000189273
-0.000197644
-0.000205701
-0.000213422
-0.000220793
-0.000227806
-0.000234456
-0.000240746
-0.000246674
-0.000252226
-0.000257383
-0.000262131
-0.000266456
-0.000270348
-0.000273797
-0.000276793
-0.000279327
-0.00028139
-0.000282966
-0.000284036
-0.000284582
-0.000284592
-0.000284058
-0.000282977
-0.000281342
-0.000279143
-0.000276367
-0.000272999
-0.000269028
-0.000264466
-0.000259304
-0.000253409
-0.000246942
-0.000239803
-0.000231951
-0.000223652
0.000156376
0.000146035
0.000135635
0.000125056
0.000114246
0.000103227
9.20683e-05
8.08223e-05
6.95021e-05
5.81012e-05
4.66169e-05
3.50572e-05
2.34386e-05
1.17788e-05
9.40439e-08
-1.16013e-05
-2.32936e-05
-3.49683e-05
-4.66101e-05
-5.82025e-05
-6.97286e-05
-8.11711e-05
-9.2513e-05
-0.000103737
-0.000114827
-0.000125765
-0.000136535
-0.000147119
-0.000157501
-0.000167661
-0.000177579
-0.000187239
-0.000196632
-0.000205741
-0.000214545
-0.000223023
-0.000231157
-0.000238936
-0.000246353
-0.000253406
-0.000260096
-0.000266421
-0.000272366
-0.000277917
-0.00028306
-0.000287783
-0.000292079
-0.000295937
-0.00029935
-0.000302309
-0.000304802
-0.000306818
-0.000308344
-0.000309365
-0.000309872
-0.000309858
-0.000309317
-0.000308244
-0.000306631
-0.00030447
-0.000301756
-0.00029849
-0.000294687
-0.000290278
-0.000285203
-0.000279645
-0.000273321
-0.000266489
-0.000259014
0.00015811
0.000147177
0.000136181
0.000124996
0.000113569
0.000101923
9.01336e-05
7.82547e-05
6.63009e-05
5.42657e-05
4.21458e-05
2.99494e-05
1.76936e-05
5.39797e-06
-6.91937e-06
-1.92427e-05
-3.15571e-05
-4.38476e-05
-5.60981e-05
-6.82921e-05
-8.04124e-05
-9.24416e-05
-0.000104362
-0.000116157
-0.000127808
-0.000139298
-0.000150609
-0.000161723
-0.000172623
-0.000183289
-0.000193701
-0.000203848
-0.000213718
-0.000223293
-0.00023255
-0.000241469
-0.000250034
-0.000258238
-0.000266075
-0.000273543
-0.000280646
-0.00028738
-0.000293734
-0.000299694
-0.000305248
-0.000310387
-0.000315103
-0.000319389
-0.000323237
-0.00032664
-0.000329588
-0.000332071
-0.000334081
-0.000335607
-0.000336641
-0.000337177
-0.000337213
-0.000336742
-0.000335762
-0.000334272
-0.000332275
-0.000329782
-0.000326781
-0.000323189
-0.000319079
-0.00031453
-0.000309281
-0.000303699
-0.000296835
0.000159677
0.000148117
0.00013649
0.000124662
0.000112581
0.000100274
8.78171e-05
7.52696e-05
6.26466e-05
4.99416e-05
3.71511e-05
2.42837e-05
1.13577e-05
-1.60593e-06
-1.45876e-05
-2.75707e-05
-4.05394e-05
-5.34783e-05
-6.63708e-05
-7.91997e-05
-9.1947e-05
-0.000104595
-0.000117125
-0.00012952
-0.00014176
-0.000153828
-0.000165705
-0.000177374
-0.000188815
-0.000200009
-0.000210938
-0.000221591
-0.000231955
-0.00024201
-0.000251734
-0.000261107
-0.000270119
-0.000278763
-0.000287036
-0.000294938
-0.000302471
-0.000309633
-0.000316414
-0.0003228
-0.000328783
-0.000334354
-0.000339508
-0.000344239
-0.000348542
-0.000352409
-0.000355835
-0.000358812
-0.000361333
-0.000363391
-0.000364982
-0.000366103
-0.000366751
-0.000366926
-0.000366629
-0.000365868
-0.000364648
-0.000362976
-0.00036081
-0.000358136
-0.000355091
-0.000351662
-0.000347813
-0.000343873
-0.000338953
0.000161029
0.000148806
0.000136509
0.000124001
0.000111229
9.82216e-05
8.50592e-05
7.18038e-05
5.84724e-05
4.50588e-05
3.15592e-05
1.79829e-05
4.34911e-06
-9.3197e-06
-2.30029e-05
-3.66826e-05
-5.03425e-05
-6.39659e-05
-7.75356e-05
-9.10335e-05
-0.000104441
-0.000117738
-0.000130908
-0.00014393
-0.000156786
-0.000169457
-0.000181924
-0.000194169
-0.000206173
-0.000217914
-0.00022938
-0.000240558
-0.000251433
-0.000261984
-0.000272191
-0.000282037
-0.000291513
-0.000300616
-0.000309342
-0.000317692
-0.000325671
-0.000333276
-0.000340497
-0.000347323
-0.000353748
-0.000359767
-0.000365375
-0.000370569
-0.000375344
-0.000379697
-0.000383623
-0.000387118
-0.000390176
-0.000392796
-0.000394976
-0.000396715
-0.000398016
-0.000398882
-0.000399322
-0.000399342
-0.000398949
-0.00039813
-0.000396854
-0.000395213
-0.000393253
-0.000391041
-0.000388676
-0.000386544
-0.00038371
0.000162095
0.00014917
0.000136165
0.000122937
0.000109433
9.56835e-05
8.1774e-05
6.77693e-05
5.36881e-05
3.95245e-05
2.5275e-05
1.09494e-05
-3.43201e-06
-1.78455e-05
-3.2269e-05
-4.66834e-05
-6.10713e-05
-7.54151e-05
-8.96967e-05
-0.000103897
-0.000117996
-0.000131974
-0.000145812
-0.000159491
-0.000172989
-0.000186289
-0.000199371
-0.000212217
-0.000224805
-0.000237117
-0.000249141
-0.000260864
-0.000272268
-0.000283332
-0.000294038
-0.000304372
-0.000314328
-0.000323903
-0.000333095
-0.000341906
-0.000350343
-0.000358402
-0.000366076
-0.000373356
-0.000380238
-0.000386719
-0.000392797
-0.00039847
-0.000403736
-0.000408594
-0.000413041
-0.000417076
-0.000420698
-0.000423908
-0.000426708
-0.000429103
-0.000431098
-0.000432703
-0.000433926
-0.000434773
-0.000435241
-0.000435319
-0.000435041
-0.000434496
-0.000433641
-0.000432725
-0.000431677
-0.000431004
-0.000430199
0.000162799
0.000149129
0.000135373
0.000121382
0.000107103
9.25688e-05
7.78687e-05
6.30712e-05
4.8197e-05
3.32406e-05
1.81988e-05
3.08172e-06
-1.20891e-05
-2.72882e-05
-4.24923e-05
-5.76807e-05
-7.28348e-05
-8.79363e-05
-0.000102966
-0.000117903
-0.000132728
-0.00014742
-0.000161958
-0.000176322
-0.000190493
-0.000204449
-0.000218172
-0.000231642
-0.000244838
-0.000257743
-0.000270345
-0.000282631
-0.00029458
-0.000306172
-0.00031739
-0.000328226
-0.000338674
-0.000348734
-0.000358404
-0.000367688
-0.000376595
-0.000385122
-0.00039326
-0.000401006
-0.000408357
-0.000415313
-0.000421874
-0.000428041
-0.000433814
-0.000439193
-0.00044418
-0.000448777
-0.000452987
-0.000456816
-0.000460269
-0.000463356
-0.000466087
-0.000468472
-0.000470516
-0.000472223
-0.000473597
-0.000474662
-0.00047548
-0.000476045
-0.000476419
-0.000476877
-0.000477063
-0.000477626
-0.000477112
0.000163055
0.000148593
0.000134041
0.00011924
0.00010414
8.87742e-05
7.32369e-05
5.76006e-05
4.18875e-05
2.60931e-05
1.02138e-05
-5.73931e-06
-2.17436e-05
-3.7772e-05
-5.37994e-05
-6.98037e-05
-8.5765e-05
-0.000101664
-0.00011748
-0.000133192
-0.000148779
-0.000164218
-0.000179489
-0.000194571
-0.000209442
-0.000224083
-0.000238473
-0.000252591
-0.000266416
-0.000279936
-0.000293136
-0.000306001
-0.000318509
-0.000330642
-0.000342387
-0.000353737
-0.00036469
-0.000375245
-0.000385403
-0.00039517
-0.000404557
-0.000413558
-0.000422169
-0.000430389
-0.000438218
-0.000445659
-0.000452714
-0.000459386
-0.000465678
-0.000471594
-0.000477139
-0.000482318
-0.00048714
-0.000491614
-0.000495752
-0.000499565
-0.000503065
-0.000506258
-0.000509154
-0.000511768
-0.00051413
-0.000516284
-0.000518219
-0.000519969
-0.000521709
-0.000523552
-0.000525156
-0.000527608
-0.000531197
0.00016276
0.000147457
0.000132059
0.000116399
0.000100426
8.41788e-05
6.77543e-05
5.12293e-05
3.46284e-05
1.79474e-05
1.18297e-06
-1.56534e-05
-3.25377e-05
-4.94413e-05
-6.63369e-05
-8.32011e-05
-0.000100012
-0.00011675
-0.000133393
-0.000149918
-0.000166303
-0.000182525
-0.000198562
-0.000214392
-0.000229993
-0.000245344
-0.000260425
-0.000275213
-0.00028969
-0.000303843
-0.000317658
-0.000331116
-0.000344195
-0.000356882
-0.000369165
-0.000381041
-0.000392508
-0.000403568
-0.000414221
-0.00042448
-0.000434352
-0.000443834
-0.000452924
-0.000461625
-0.00046994
-0.000477873
-0.00048543
-0.000492617
-0.000499439
-0.000505905
-0.000512022
-0.000517801
-0.000523256
-0.0005284
-0.000533246
-0.000537808
-0.000542097
-0.000546125
-0.000549921
-0.000553521
-0.000556961
-0.000560236
-0.000563345
-0.000566448
-0.000569605
-0.000572828
-0.000575859
-0.000580322
-0.000584944
0.000161786
0.000145589
0.000129292
0.000112719
9.58207e-05
7.86368e-05
6.12706e-05
4.3803e-05
2.62611e-05
8.64115e-06
-9.06002e-06
-2.68305e-05
-4.46448e-05
-6.24725e-05
-8.02844e-05
-9.80552e-05
-0.000115762
-0.000133383
-0.000150894
-0.000168273
-0.000185495
-0.000202537
-0.000219375
-0.000235986
-0.000252347
-0.000268438
-0.000284235
-0.000299718
-0.000314869
-0.000329675
-0.00034412
-0.000358183
-0.000371846
-0.000385095
-0.000397925
-0.000410333
-0.000422319
-0.000433886
-0.000445038
-0.00045579
-0.000466148
-0.000476111
-0.000485682
-0.000494865
-0.000503666
-0.000512094
-0.000520156
-0.000527861
-0.000535219
-0.000542242
-0.000548943
-0.000555336
-0.000561439
-0.000567268
-0.000572837
-0.000578161
-0.000583261
-0.000588173
-0.000592941
-0.000597596
-0.000602142
-0.000606591
-0.000611055
-0.000615658
-0.000620372
-0.00062531
-0.000630351
-0.00063672
-0.0006424
0.000159984
0.000142836
0.000125585
0.000108044
9.01624e-05
7.19848e-05
5.36194e-05
3.51522e-05
1.66131e-05
-2.00105e-06
-2.06933e-05
-3.9451e-05
-5.82476e-05
-7.70504e-05
-9.58283e-05
-0.000114554
-0.000133203
-0.000151751
-0.000170174
-0.000188447
-0.000206545
-0.000224442
-0.000242114
-0.000259537
-0.000276686
-0.000293541
-0.000310077
-0.000326274
-0.000342118
-0.000357593
-0.000372679
-0.000387357
-0.00040161
-0.000415431
-0.000428814
-0.000441759
-0.000454268
-0.000466344
-0.000477997
-0.000489244
-0.000500088
-0.000510533
-0.000520583
-0.000530247
-0.000539535
-0.000548456
-0.000557023
-0.000565248
-0.000573146
-0.000580731
-0.000588022
-0.000595038
-0.000601798
-0.00060832
-0.000614624
-0.000620737
-0.0006267
-0.000632557
-0.000638334
-0.000644053
-0.000649757
-0.000655541
-0.000661533
-0.000667817
-0.000674468
-0.00068174
-0.000689516
-0.000698788
-0.000709112
0.000157164
0.000139005
0.000120739
0.000102167
8.32401e-05
6.4006e-05
4.45784e-05
2.5049e-05
5.45056e-06
-1.4219e-05
-3.39624e-05
-5.37667e-05
-7.36037e-05
-9.34386e-05
-0.000113238
-0.000132972
-0.000152615
-0.000172141
-0.000191525
-0.000210739
-0.000229756
-0.00024855
-0.000267096
-0.000285367
-0.000303339
-0.000320988
-0.000338289
-0.000355225
-0.000371781
-0.000387937
-0.000403673
-0.000418972
-0.00043382
-0.000448213
-0.000462147
-0.000475624
-0.000488648
-0.000501224
-0.000513368
-0.000525096
-0.000536413
-0.000547324
-0.00055784
-0.000567971
-0.000577731
-0.000587134
-0.000596196
-0.000604932
-0.000613361
-0.000621504
-0.000629384
-0.000637023
-0.000644446
-0.000651678
-0.000658752
-0.000665712
-0.000672589
-0.000679395
-0.000686175
-0.000693016
-0.000700006
-0.000707283
-0.000715018
-0.000723356
-0.000732487
-0.000742579
-0.000753359
-0.000765838
-0.00077888
0.00015313
0.000133895
0.000114551
9.48863e-05
7.48513e-05
5.44967e-05
3.39428e-05
1.32875e-05
-7.43299e-06
-2.82196e-05
-4.90749e-05
-6.99852e-05
-9.09205e-05
-0.000111844
-0.000132719
-0.000153515
-0.000174202
-0.000194753
-0.000215141
-0.000235336
-0.00025531
-0.000275035
-0.000294483
-0.000313628
-0.000332444
-0.000350905
-0.00036899
-0.000386681
-0.00040396
-0.000420806
-0.000437199
-0.000453123
-0.000468571
-0.000483538
-0.000498024
-0.000512032
-0.000525567
-0.00053864
-0.00055127
-0.000563473
-0.000575253
-0.000586621
-0.00059759
-0.000608177
-0.000618398
-0.00062827
-0.000637811
-0.000647043
-0.000655987
-0.00066467
-0.000673123
-0.00068138
-0.000689474
-0.00069745
-0.00070535
-0.000713189
-0.00072096
-0.000728727
-0.000736606
-0.000744673
-0.000753078
-0.0007621
-0.000771949
-0.000782803
-0.000794792
-0.000807879
-0.00082166
-0.000836834
-0.000852025
0.000147566
0.000127183
0.000106687
8.58555e-05
6.46379e-05
4.3088e-05
2.13328e-05
-5.23202e-07
-2.24396e-05
-4.44161e-05
-6.64552e-05
-8.85423e-05
-0.000110646
-0.000132726
-0.000154745
-0.000176667
-0.000198462
-0.000220099
-0.00024155
-0.000262784
-0.00028377
-0.000304477
-0.000324877
-0.00034494
-0.000364637
-0.000383944
-0.000402838
-0.0004213
-0.000439311
-0.000456847
-0.000473892
-0.000490432
-0.000506463
-0.000521984
-0.000536996
-0.000551505
-0.000565518
-0.000579054
-0.000592134
-0.000604769
-0.000616971
-0.000628754
-0.000640136
-0.000651137
-0.000661775
-0.000672072
-0.000682049
-0.000691727
-0.000701137
-0.000710313
-0.0007193
-0.000728146
-0.000736908
-0.000745638
-0.000754344
-0.000763014
-0.000771736
-0.000780625
-0.000789708
-0.000799125
-0.000809247
-0.000820385
-0.000832691
-0.000846245
-0.000861037
-0.000876884
-0.000893207
-0.000910105
-0.000926403
0.000140278
0.000118677
9.6963e-05
7.48976e-05
5.24286e-05
2.96134e-05
6.58668e-06
-1.65394e-05
-3.97201e-05
-6.29533e-05
-8.62412e-05
-0.000109568
-0.000132901
-0.000156198
-0.000179415
-0.000202516
-0.000225467
-0.000248235
-0.000270789
-0.000293095
-0.00031512
-0.000336833
-0.000358202
-0.000379198
-0.000399792
-0.000419958
-0.000439676
-0.000458922
-0.000477673
-0.000495908
-0.000513611
-0.000530774
-0.000547393
-0.000563468
-0.000579003
-0.000594006
-0.000608489
-0.000622477
-0.000635989
-0.000649035
-0.000661633
-0.000673804
-0.000685568
-0.00069695
-0.000707969
-0.000718649
-0.000729011
-0.000739084
-0.000748905
-0.000758519
-0.000767985
-0.00077737
-0.00078674
-0.000796117
-0.000805531
-0.000815119
-0.000824987
-0.000835083
-0.000845496
-0.000856613
-0.000868817
-0.00088224
-0.000896919
-0.000912843
-0.000929839
-0.000947588
-0.000965357
-0.000982806
-0.000999341
0.000130623
0.000107715
8.46882e-05
6.12965e-05
3.74847e-05
1.3312e-05
-1.10794e-05
-3.55688e-05
-6.01063e-05
-8.46883e-05
-0.000109316
-0.000133975
-0.000158628
-0.00018323
-0.000207735
-0.000232103
-0.000256295
-0.000280278
-0.000304016
-0.000327474
-0.000350615
-0.000373402
-0.0003958
-0.000417776
-0.000439299
-0.000460345
-0.00048089
-0.000500908
-0.000520376
-0.000539275
-0.000557594
-0.000575328
-0.000592477
-0.000609042
-0.000625032
-0.000640458
-0.000655343
-0.000669709
-0.000683574
-0.000696953
-0.000709869
-0.000722348
-0.000734419
-0.000746108
-0.000757439
-0.000768431
-0.000779106
-0.000789499
-0.000799656
-0.000809634
-0.0008195
-0.000829325
-0.000839154
-0.000849074
-0.000859296
-0.000869942
-0.000880927
-0.00089229
-0.000904356
-0.000917443
-0.000931645
-0.000946957
-0.000963323
-0.000980627
-0.000998521
-0.00101659
-0.00103414
-0.00105084
-0.00106659
0.000118665
9.43736e-05
6.99753e-05
4.51921e-05
1.99669e-05
-5.63554e-06
-3.14631e-05
-5.73857e-05
-8.33472e-05
-0.000109342
-0.000135371
-0.000161418
-0.000187445
-0.000213403
-0.000239242
-0.000264917
-0.000290387
-0.000315613
-0.000340559
-0.000365187
-0.000389459
-0.000413338
-0.000436788
-0.000459772
-0.000482261
-0.000504224
-0.000525631
-0.000546455
-0.000566671
-0.000586262
-0.00060522
-0.00062354
-0.000641225
-0.00065828
-0.000674719
-0.000690562
-0.00070584
-0.000720573
-0.000734781
-0.000748486
-0.000761714
-0.000774497
-0.000786868
-0.00079886
-0.000810494
-0.000821783
-0.000832737
-0.000843388
-0.000853805
-0.000864071
-0.000874262
-0.000884448
-0.000894753
-0.000905409
-0.000916544
-0.000928097
-0.000940133
-0.000952937
-0.000966682
-0.00098131
-0.000996698
-0.00101279
-0.00102948
-0.0010465
-0.00106343
-0.00107989
-0.0010954
-0.00110991
-0.00112328
0.000102863
7.70729e-05
5.11597e-05
2.48563e-05
-1.90378e-06
-2.90608e-05
-5.64547e-05
-8.39438e-05
-0.000111464
-0.000139007
-0.000166572
-0.000194142
-0.000221677
-0.000249124
-0.000276428
-0.000303538
-0.000330409
-0.000356996
-0.000383256
-0.000409145
-0.000434617
-0.000459631
-0.000484148
-0.000508133
-0.000531557
-0.000554386
-0.00057659
-0.000598141
-0.000619018
-0.000639206
-0.000658696
-0.000677486
-0.000695578
-0.00071298
-0.000729709
-0.000745799
-0.000761279
-0.00077618
-0.000790538
-0.000804395
-0.000817792
-0.000830766
-0.000843347
-0.000855562
-0.000867431
-0.000878968
-0.000890175
-0.00090106
-0.000911685
-0.000922198
-0.000932728
-0.000943393
-0.00095439
-0.000965856
-0.000977708
-0.000989995
-0.00100303
-0.00101694
-0.00103148
-0.00104635
-0.00106141
-0.00107655
-0.00109163
-0.0011064
-0.00112052
-0.00113379
-0.00114605
-0.00115764
-0.00116864
8.43127e-05
5.69747e-05
2.95475e-05
1.6981e-06
-2.66415e-05
-5.53979e-05
-8.43984e-05
-0.000113491
-0.000142605
-0.000171729
-0.000200863
-0.000229988
-0.000259062
-0.000288028
-0.000316827
-0.000345405
-0.000373714
-0.000401709
-0.000429343
-0.000456568
-0.000483335
-0.000509589
-0.000535284
-0.000560376
-0.000584826
-0.000608596
-0.000631653
-0.000653971
-0.000675533
-0.000696328
-0.000716349
-0.000735598
-0.000754077
-0.000771798
-0.000788781
-0.000805048
-0.000820621
-0.000835538
-0.000849857
-0.000863659
-0.000877041
-0.000890094
-0.000902869
-0.00091536
-0.000927529
-0.000939373
-0.000950958
-0.000962333
-0.000973464
-0.000984415
-0.000995443
-0.00100673
-0.00101837
-0.00103028
-0.00104243
-0.00105502
-0.0010682
-0.00108174
-0.00109526
-0.00110843
-0.00112111
-0.00113324
-0.00114476
-0.00115563
-0.00116576
-0.00117521
-0.00118416
-0.00119315
-0.00120268
5.89967e-05
2.98803e-05
6.32637e-07
-2.90122e-05
-5.91487e-05
-8.97277e-05
-0.000120566
-0.000151492
-0.000182422
-0.000213341
-0.000244252
-0.000275134
-0.00030594
-0.000336602
-0.00036705
-0.000397218
-0.000427052
-0.000456503
-0.000485525
-0.000514073
-0.0005421
-0.000569558
-0.000596396
-0.000622564
-0.00064801
-0.000672688
-0.000696559
-0.000719593
-0.000741769
-0.000763073
-0.000783501
-0.00080306
-0.000821765
-0.000839639
-0.000856698
-0.000872946
-0.00088838
-0.000903008
-0.000916867
-0.00093006
-0.000942777
-0.000955274
-0.000967778
-0.000980322
-0.000992696
-0.00100467
-0.00101637
-0.00102815
-0.00103993
-0.00105138
-0.00106289
-0.00107465
-0.00108639
-0.00109801
-0.00110951
-0.00112088
-0.00113205
-0.00114282
-0.00115291
-0.00116213
-0.00117039
-0.00117775
-0.00118444
-0.0011907
-0.00119678
-0.001203
-0.00120969
-0.00121721
-0.00122589
3.19291e-05
1.16276e-06
-2.96477e-05
-6.09379e-05
-9.28048e-05
-0.000125163
-0.000157804
-0.000190539
-0.000223269
-0.000255975
-0.000288659
-0.000321309
-0.000353884
-0.00038632
-0.000418542
-0.000450467
-0.000482017
-0.000513117
-0.000543702
-0.000573715
-0.000603103
-0.000631818
-0.000659811
-0.000687033
-0.00071344
-0.000738992
-0.000763656
-0.000787407
-0.000810225
-0.000832097
-0.00085302
-0.000873005
-0.000892083
-0.000910291
-0.000927668
-0.000944243
-0.000960016
-0.000974956
-0.000989013
-0.00100218
-0.00101456
-0.00102644
-0.00103834
-0.00105069
-0.00106333
-0.00107563
-0.00108726
-0.00109884
-0.00111077
-0.00112263
-0.00113409
-0.00114514
-0.00115574
-0.00116565
-0.00117456
-0.00118235
-0.00118905
-0.00119472
-0.00119938
-0.00120307
-0.0012059
-0.00120814
-0.00121014
-0.00121239
-0.00121546
-0.0012199
-0.00122591
-0.00123322
-0.00124134
-1.00385e-05
-4.29616e-05
-7.60457e-05
-0.000109502
-0.000143475
-0.000177957
-0.000212758
-0.00024767
-0.000282573
-0.000317429
-0.00035222
-0.000386914
-0.000421452
-0.00045577
-0.000489814
-0.000523535
-0.000556865
-0.000589716
-0.000622
-0.000653635
-0.00068454
-0.000714635
-0.000743848
-0.000772109
-0.000799355
-0.000825532
-0.000850602
-0.000874543
-0.000897344
-0.000918996
-0.000939505
-0.000958907
-0.000977262
-0.000994651
-0.00101118
-0.00102694
-0.00104201
-0.00105641
-0.00107011
-0.00108308
-0.00109526
-0.0011067
-0.00111778
-0.00112916
-0.00114101
-0.00115281
-0.00116398
-0.00117452
-0.00118457
-0.00119402
-0.00120262
-0.00121014
-0.00121647
-0.00122152
-0.00122523
-0.0012276
-0.00122873
-0.00122879
-0.00122801
-0.00122674
-0.0012253
-0.00122395
-0.00122297
-0.00122292
-0.0012245
-0.00122825
-0.00123422
-0.00124164
-0.00124973
-4.48783e-05
-7.95016e-05
-0.00011409
-0.000149385
-0.00018538
-0.000221852
-0.00025857
-0.000295372
-0.00033219
-0.000369008
-0.000405826
-0.000442612
-0.000479272
-0.000515667
-0.00055169
-0.000587277
-0.000622392
-0.000656997
-0.000691029
-0.000724405
-0.000757038
-0.000788843
-0.00081975
-0.000849704
-0.000878643
-0.000906467
-0.000933077
-0.000958409
-0.00098242
-0.00100509
-0.00102642
-0.00104639
-0.00106502
-0.00108236
-0.00109849
-0.00111356
-0.00112769
-0.00114093
-0.00115335
-0.00116511
-0.00117631
-0.00118685
-0.00119664
-0.00120574
-0.00121419
-0.00122197
-0.00122899
-0.00123507
-0.00124011
-0.00124407
-0.00124691
-0.00124861
-0.00124923
-0.00124888
-0.00124772
-0.0012459
-0.00124348
-0.00124046
-0.00123697
-0.00123336
-0.00122995
-0.00122685
-0.00122436
-0.00122311
-0.00122376
-0.00122658
-0.00123154
-0.0012383
-0.0012465
-0.000119516
-0.000156411
-0.000193893
-0.000232034
-0.000270843
-0.000310179
-0.000349749
-0.000389315
-0.000428797
-0.000468203
-0.00050754
-0.000546757
-0.000585784
-0.000624527
-0.000662851
-0.000700604
-0.000737666
-0.00077395
-0.000809379
-0.000843858
-0.000877273
-0.000909495
-0.00094039
-0.000969836
-0.000997763
-0.00102418
-0.00104908
-0.00107245
-0.00109423
-0.00111439
-0.00113288
-0.0011497
-0.00116483
-0.00117831
-0.00119018
-0.00120053
-0.00120945
-0.001217
-0.00122334
-0.00122868
-0.00123326
-0.00123724
-0.00124072
-0.00124379
-0.00124652
-0.00124899
-0.00125119
-0.00125308
-0.0012546
-0.00125567
-0.00125624
-0.00125626
-0.0012557
-0.00125456
-0.00125286
-0.00125063
-0.00124793
-0.00124479
-0.00124124
-0.00123743
-0.0012336
-0.00123006
-0.00122711
-0.00122503
-0.0012242
-0.00122508
-0.00122816
-0.00123447
-0.00124482
-3.53169e-05
-2.94814e-05
-2.29418e-05
-1.59334e-05
-8.41177e-06
-2.4639e-07
8.7295e-06
1.83068e-05
2.83349e-05
3.89535e-05
5.03529e-05
6.2489e-05
7.49614e-05
8.85159e-05
0.000101734
0.000115912
0.000129863
0.000144592
0.000159265
0.000173743
0.000189001
0.000203195
0.000217249
0.000230186
0.000242735
0.000254842
0.000265515
0.00027495
0.000283817
0.00029116
0.000296639
0.000300837
0.000304118
0.000306387
0.000306609
0.000305516
0.000303513
0.000300024
0.000295276
0.000290042
0.000283756
0.000276997
0.000269812
0.000262503
0.000254445
0.000246603
0.000238273
0.000230235
0.00022193
0.000213734
0.000205811
0.000198017
0.000190594
0.000183407
0.000176557
0.000169653
0.000163098
0.000156689
0.000150508
-3.81835e-05
-3.20959e-05
-2.53725e-05
-1.80976e-05
-1.01942e-05
-1.64836e-06
7.59918e-06
1.75143e-05
2.80625e-05
3.92735e-05
5.11345e-05
6.36834e-05
7.68432e-05
9.05489e-05
0.000104803
0.000119317
0.000134365
0.000149547
0.000165042
0.000180281
0.000195638
0.000210837
0.000225318
0.000239026
0.000252116
0.000264605
0.000275917
0.000285787
0.000294789
0.000302428
0.000308108
0.000312657
0.000315987
0.000317979
0.000318244
0.000316997
0.00031467
0.000311141
0.000306208
0.000300437
0.000294114
0.000287087
0.000279392
0.000271237
0.000262876
0.000254403
0.000245716
0.000237122
0.000228478
0.000219931
0.000211611
0.00020349
0.000195558
0.000187929
0.000180489
0.00017334
0.000166464
0.000159849
0.00015348
-4.07817e-05
-3.44306e-05
-2.74861e-05
-1.99356e-05
-1.17309e-05
-2.8452e-06
6.72812e-06
1.69958e-05
2.79757e-05
3.96686e-05
5.20436e-05
6.50754e-05
7.87629e-05
9.30518e-05
0.000107872
0.00012319
0.0001389
0.000154876
0.000170986
0.00018701
0.000202935
0.000218681
0.000233876
0.000248362
0.000262164
0.000275102
0.000286852
0.000297282
0.000306583
0.000314387
0.000320535
0.000325327
0.000328653
0.00033049
0.000330675
0.000329328
0.000326693
0.000322897
0.000317845
0.000311862
0.000305109
0.000297577
0.000289353
0.000280674
0.000271784
0.000262758
0.000253576
0.000244415
0.000235322
0.000226339
0.000217547
0.000208946
0.000200557
0.000192411
0.000184562
0.000177009
0.000169729
0.000162747
0.000156043
-4.35519e-05
-3.69453e-05
-2.97124e-05
-2.18563e-05
-1.33245e-05
-4.09214e-06
5.85577e-06
1.653e-05
2.79441e-05
4.01026e-05
5.29925e-05
6.65912e-05
8.08814e-05
9.58057e-05
0.000111281
0.000127272
0.000143641
0.000160328
0.000177137
0.00019395
0.000210643
0.000227042
0.000242952
0.000258184
0.00027266
0.000286138
0.000298385
0.000309336
0.000318993
0.000327051
0.000333562
0.000338551
0.000341954
0.000343768
0.000343888
0.000342434
0.000339551
0.000335415
0.000330054
0.000323682
0.000316397
0.000308318
0.000299612
0.000290474
0.000281042
0.000271444
0.000261717
0.000251983
0.000242335
0.000232812
0.000223465
0.000214333
0.000205452
0.000196844
0.000188535
0.000180531
0.000172831
0.00016546
0.000158402
-4.69843e-05
-4.01061e-05
-3.2563e-05
-2.43647e-05
-1.54601e-05
-5.82819e-06
4.55257e-06
1.56958e-05
2.76104e-05
4.02984e-05
5.3753e-05
6.79597e-05
8.28908e-05
9.84905e-05
0.000114683
0.000131388
0.000148503
0.000165937
0.000183527
0.000201141
0.00021863
0.000235793
0.000252452
0.000268423
0.000283561
0.00029764
0.000310451
0.000321905
0.000331948
0.000340329
0.00034712
0.000352286
0.000355797
0.000357631
0.000357703
0.000356123
0.000353001
0.000348508
0.000342735
0.000335869
0.000328045
0.000319434
0.000310212
0.000300541
0.000290545
0.000280357
0.000270059
0.000259751
0.00024952
0.000239424
0.000229514
0.00021984
0.000210442
0.000201344
0.000192565
0.000184118
0.000176009
0.000168253
0.000160823
-5.11052e-05
-4.39485e-05
-3.60895e-05
-2.75387e-05
-1.82439e-05
-8.18489e-06
2.66146e-06
1.43106e-05
2.67716e-05
4.00447e-05
5.41222e-05
6.89874e-05
8.46098e-05
0.000100938
0.000117899
0.000135402
0.000153347
0.000171617
0.000190058
0.000208522
0.000226847