/*--------------------------------*- C++ -*----------------------------------*\
| =========                 |                                                 |
| \\      /  F ield         | OpenFOAM: The Open Source CFD Toolbox           |
|  \\    /   O peration     | Version:  2312                                  |
|   \\  /    A nd           | Website:  www.openfoam.com                      |
|    \\/     M anipulation  |                                                 |
\*---------------------------------------------------------------------------*/
FoamFile
{
    version     2.0;
    format      ascii;
    arch        "LSB;label=32;scalar=64";
    class       surfaceScalarField;
    location    "1800";
    object      phi;
}
// * * * * * * * * * * * * * * * * * * * * * * * * * * * * * * * * * * * * * //

dimensions      [0 3 -1 0 0 0 0];

oriented        oriented;

internalField   nonuniform List<scalar> 
116611
(
0.000981874
0.000445951
-0.000966042
-0.000461784
0.000997709
0.000442899
-0.000458734
0.00101329
0.000439493
-0.000455071
0.00102879
0.000435746
-0.000451251
0.00104432
0.000431833
-0.000447361
0.00105983
0.000427583
-0.000443091
0.00107509
0.000423077
-0.000438335
0.00109033
0.000418284
-0.000433531
0.00110503
0.000413039
-0.000427742
0.00111955
0.000407393
-0.000421909
0.00113389
0.000401376
-0.000415719
0.00114807
0.000395017
-0.000409194
0.00116181
0.000388253
-0.000401987
0.00117502
0.00038103
-0.000394247
0.00118774
0.000373302
-0.000386015
0.00120018
0.000365199
-0.000377648
0.00121246
0.000356566
-0.000368845
0.00122456
0.000347687
-0.000359785
0.00123619
0.00033818
-0.000349804
0.00124732
0.000328328
-0.000339465
0.00125809
0.000317871
-0.000328637
0.00126809
0.000306932
-0.000316933
0.00127745
0.000295397
-0.000304761
0.00128634
0.000283438
-0.000292322
0.00129472
0.000270967
-0.000279349
0.00130279
0.00025802
-0.00026609
0.00131027
0.000244435
-0.000251915
0.00131712
0.000230421
-0.000237271
0.00132402
0.000215964
-0.000222868
0.00133021
0.000200956
-0.000207146
0.00133554
0.0001854
-0.000190724
0.00134052
0.000169206
-0.00017419
0.00134473
0.000152462
-0.000156668
0.00134848
0.000135346
-0.000139095
0.00135171
0.00011758
-0.000120817
0.00135416
9.93848e-05
-0.00010183
0.0013566
8.06791e-05
-8.31181e-05
0.00135777
6.12509e-05
-6.2418e-05
0.00135848
4.13764e-05
-4.20937e-05
0.0013584
2.09422e-05
-2.08599e-05
0.0013577
1.12206e-07
5.84641e-07
0.00135684
-2.13954e-05
2.2255e-05
0.00135464
-4.36829e-05
4.58843e-05
0.00135199
-6.62371e-05
6.88902e-05
0.00134837
-8.93701e-05
9.29853e-05
0.00134443
-0.000112802
0.000116745
0.00133925
-0.00013693
0.000142113
0.00133311
-0.000161261
0.000167397
0.00132637
-0.000185733
0.000192473
0.00131874
-0.000210566
0.000218197
0.00131003
-0.000235781
0.000244493
0.00130037
-0.000261137
0.000270801
0.00128968
-0.000286625
0.000297308
0.00127785
-0.000312213
0.00032405
0.00126441
-0.000337748
0.00035118
0.00125091
-0.000362661
0.000376168
0.00123562
-0.000387691
0.000402981
0.00121981
-0.00041208
0.000427884
0.00120341
-0.000435971
0.00045238
0.0011862
-0.000459288
0.000476495
0.00116734
-0.000482396
0.000501256
0.00114784
-0.000504212
0.000523713
0.00112793
-0.000524597
0.000544505
0.00110704
-0.000544255
0.000565147
0.00108478
-0.0005629
0.000585152
0.00106288
-0.000578952
0.000600856
0.00104012
-0.000592015
0.000614776
0.00101608
-0.000603055
0.000627091
-0.000611909
0.000989279
0.000638713
0.000966991
0.000429956
-0.000950996
0.000982798
0.000427092
0.000998402
0.000423889
0.0010138
0.000420353
0.00102914
0.000416493
0.00104434
0.000412377
0.00105946
0.000407958
0.0010745
0.00040324
0.00108933
0.000398212
0.0011039
0.000392822
0.00111822
0.000387059
0.00113231
0.000380925
0.00114616
0.000374402
0.0011597
0.000367491
0.00117281
0.000360198
0.00118557
0.000352437
0.00119789
0.000344245
0.00120998
0.000335598
0.00122164
0.000326514
0.00123302
0.00031695
0.00124397
0.000306925
0.00125447
0.000296435
0.00126441
0.000285454
0.00127385
0.000273997
0.00128278
0.000262041
0.00129125
0.000249549
0.00129911
0.000236567
0.00130646
0.000223075
0.00131337
0.000209053
0.00131974
0.000194582
0.00132559
0.000179558
0.00133085
0.000163942
0.00133548
0.00014783
0.00133961
0.000131219
0.0013431
0.000114094
0.00134603
9.64516e-05
0.00134841
7.82946e-05
0.00135006
5.96015e-05
0.00135107
4.03693e-05
0.00135132
2.06958e-05
0.00135094
4.86881e-07
0.0013499
-2.03533e-05
0.00134796
-4.17453e-05
0.00134533
-6.36055e-05
0.00134187
-8.59109e-05
0.00133768
-0.000108613
0.0013325
-0.000131746
0.00132646
-0.000155218
0.00131965
-0.000178926
0.00131198
-0.000202901
0.00130335
-0.000227151
0.00129379
-0.000251577
0.00128327
-0.000276108
0.00127173
-0.000300672
0.00125915
-0.000325168
0.00124586
-0.000349372
0.00123153
-0.000373357
0.00121641
-0.000396965
0.00120052
-0.000420077
0.00118388
-0.000442651
0.00116611
-0.000464628
0.00114753
-0.000485628
0.00112848
-0.000505542
0.00110876
-0.000524535
0.00108813
-0.000542271
0.0010668
-0.000557629
0.00104444
-0.000569647
0.00102179
-0.000580409
-0.0005906
0.00100048
0.000952011
0.000413912
-0.000935967
0.00096789
0.000411213
0.00098359
0.000408188
0.000999088
0.000404855
0.00101438
0.000401197
0.00102953
0.000397233
0.00104452
0.000392963
0.00105938
0.000388381
0.0010741
0.000383496
0.00108863
0.000378292
0.00110294
0.00037275
0.00111701
0.000366852
0.00113083
0.000360584
0.00114438
0.000353938
0.00115766
0.000346918
0.0011706
0.000339498
0.00118318
0.000331663
0.00119539
0.00032339
0.00120723
0.000314675
0.00121867
0.000305505
0.00122972
0.000295882
0.00124035
0.000285801
0.00125055
0.000275255
0.00126031
0.000264241
0.00126959
0.000252754
0.00127837
0.000240777
0.00128663
0.000228306
0.00129436
0.000215337
0.00130155
0.000201865
0.00130824
0.000187894
0.00131439
0.000173404
0.00131995
0.000158389
0.00132492
0.000142861
0.0013293
0.000126834
0.00133309
0.000110309
0.00133626
9.32778e-05
0.00133881
7.57488e-05
0.0013407
5.77025e-05
0.00134193
3.91433e-05
0.00134246
2.01702e-05
0.00134228
6.64191e-07
0.00134138
-1.94548e-05
0.00133971
-4.00751e-05
0.00133726
-6.11598e-05
0.00133402
-8.26658e-05
0.00132998
-0.000104569
0.00132508
-0.000126853
0.00131934
-0.000149476
0.00131278
-0.000172368
0.00130539
-0.000195506
0.00129711
-0.000218873
0.00128794
-0.00024241
0.00127788
-0.000266043
0.0012669
-0.000289695
0.00125501
-0.000313275
0.0012423
-0.000336661
0.00122874
-0.000359799
0.00121438
-0.000382605
0.00119926
-0.000404959
0.00118336
-0.00042675
0.00116659
-0.000447863
0.00114911
-0.000468141
0.00113108
-0.000487518
0.00111244
-0.000505888
0.00109284
-0.000522677
0.00107226
-0.000537051
0.00105109
-0.000548476
0.00103058
-0.000559892
-0.00057107
0.00101105
0.000937587
0.000397983
-0.000921658
0.000953431
0.000395369
0.000969152
0.000392468
0.000984715
0.000389292
0.00100009
0.000385825
0.00101527
0.000382053
0.00103026
0.000377973
0.00104506
0.00037358
0.00105968
0.000368873
0.00107412
0.00036385
0.00108837
0.000358504
0.0011024
0.000352823
0.00111619
0.000346794
0.00112972
0.000340406
0.00114299
0.000333649
0.00115597
0.000326517
0.00116864
0.000318993
0.00118097
0.000311065
0.00119293
0.000302715
0.0012045
0.000293935
0.00121566
0.000284714
0.00122642
0.000275044
0.00123675
0.000264923
0.00124665
0.000254345
0.0012561
0.000243307
0.00126507
0.0002318
0.00127356
0.000219817
0.00128155
0.000207353
0.00128901
0.000194403
0.00129594
0.00018096
0.00130233
0.000167021
0.00130813
0.000152581
0.00131335
0.000137641
0.00131798
0.000122209
0.001322
0.000106287
0.00132541
8.98732e-05
0.00132818
7.29737e-05
0.0013303
5.55788e-05
0.00133175
3.76993e-05
0.0013325
1.94197e-05
0.00133255
6.16137e-07
0.00133188
-1.87843e-05
0.00133046
-3.86563e-05
0.00132827
-5.89722e-05
0.00132531
-7.97014e-05
0.00132155
-0.000100818
0.001317
-0.000122297
0.00131163
-0.000144102
0.00130544
-0.000166185
0.00129845
-0.00018851
0.00129062
-0.000211043
0.00128194
-0.000233734
0.00127241
-0.000256516
0.00126203
-0.000279316
0.00125081
-0.000302055
0.0012388
-0.000324642
0.00122599
-0.000346998
0.00121243
-0.000369039
0.00119812
-0.000390645
0.00118306
-0.00041169
0.00116726
-0.000432069
0.00115084
-0.000451715
0.00113385
-0.000470535
0.00111616
-0.000488193
0.00109748
-0.000504003
0.00107797
-0.000517535
0.00105842
-0.000528927
0.00104002
-0.000541493
-0.000552984
0.00102193
0.000923971
0.000382189
-0.000908177
0.000939703
0.000379637
0.000955351
0.00037682
0.000970886
0.000373756
0.000986277
0.000370433
0.0010015
0.000366835
0.00101652
0.000362946
0.00103135
0.000358756
0.00104596
0.000354256
0.00106037
0.00034944
0.00107457
0.000344304
0.00108855
0.000338842
0.0011023
0.000333046
0.0011158
0.000326907
0.00112904
0.000320414
0.001142
0.000313558
0.00115466
0.000306328
0.00116701
0.000298714
0.00117902
0.000290703
0.00119067
0.000282285
0.00120194
0.000273446
0.00121281
0.00026418
0.00122325
0.000254478
0.00123326
0.000244333
0.00124283
0.00023374
0.00125194
0.000222693
0.00126057
0.000211186
0.00126871
0.000199213
0.00127634
0.000186769
0.00128345
0.00017385
0.00129002
0.000160452
0.00129603
0.000146571
0.00130147
0.000132207
0.00130631
0.000117363
0.00131056
0.00010204
0.00131419
8.62407e-05
0.00131719
6.99718e-05
0.00131955
5.32254e-05
0.00132123
3.60151e-05
0.00132224
1.84159e-05
0.00132255
3.00811e-07
0.00132215
-1.83881e-05
0.00132103
-3.75292e-05
0.00131915
-5.70984e-05
0.00131652
-7.70711e-05
0.00131313
-9.74217e-05
0.00130895
-0.000118122
0.00130399
-0.00013914
0.00129824
-0.000160437
0.0012917
-0.000181973
0.00128437
-0.000203707
0.00127623
-0.000225593
0.00126728
-0.000247569
0.00125753
-0.000269571
0.001247
-0.000291524
0.00123571
-0.00031335
0.00122368
-0.000334965
0.00121091
-0.000356274
0.00119743
-0.00037716
0.00118325
-0.000397511
0.00116844
-0.000417255
0.00115306
-0.000436335
0.00113707
-0.000454545
0.00112026
-0.000471385
0.00110255
-0.000486296
0.00108441
-0.000499398
0.00106686
-0.000511376
0.00105066
-0.000525295
-0.00053662
0.0010343
0.000911075
0.000366429
-0.000895315
0.000926736
0.000363975
0.000942303
0.000361254
0.000957766
0.000358293
0.000973109
0.00035509
0.000988309
0.000351635
0.00100334
0.000347912
0.00101819
0.000343909
0.00103283
0.000339613
0.00104726
0.000335014
0.00106146
0.000330103
0.00107543
0.000324873
0.00108916
0.000319318
0.00110263
0.000313431
0.00111585
0.000307201
0.00112878
0.000300621
0.00114143
0.000293681
0.00115377
0.000286373
0.00116579
0.000278685
0.00117746
0.000270609
0.00118878
0.000262135
0.0011997
0.000253252
0.00121023
0.000243953
0.00122033
0.000234228
0.00123
0.000224072
0.00123922
0.000213477
0.00124796
0.000202438
0.00125623
0.000190947
0.001264
0.000179002
0.00127125
0.000166597
0.00127797
0.000153728
0.00128415
0.000140394
0.00128976
0.000126594
0.0012948
0.000112328
0.00129924
9.75965e-05
0.00130308
8.24044e-05
0.00130629
6.67575e-05
0.00130887
5.06475e-05
0.00131079
3.40922e-05
0.00131205
1.71582e-05
0.00131264
-2.87266e-07
0.00131253
-1.82814e-05
0.00131172
-3.67125e-05
0.00131018
-5.55584e-05
0.0013079
-7.47975e-05
0.00130489
-9.44054e-05
0.00130112
-0.000114355
0.00129659
-0.000134616
0.00129131
-0.000155152
0.00128526
-0.000175926
0.00127845
-0.000196896
0.00127087
-0.000218015
0.00126253
-0.000239229
0.00125344
-0.000260476
0.0012436
-0.000281689
0.00123305
-0.000302792
0.00122178
-0.000323697
0.00120981
-0.000344307
0.00119717
-0.000364516
0.0011839
-0.000384241
0.00117007
-0.000403426
0.00115568
-0.000421947
0.0011406
-0.000439463
0.00112468
-0.000455468
0.00110816
-0.000469778
0.00109179
-0.000483023
0.00107641
-0.000495994
0.00106192
-0.000510807
-0.000520379
0.00104568
0.000898717
0.000350616
-0.000882904
0.000914393
0.000348299
0.000929941
0.000345706
0.000945364
0.00034287
0.00096066
0.000339795
0.000975818
0.000336476
0.000990825
0.000332905
0.00100566
0.000329071
0.00102031
0.000324964
0.00103475
0.000320571
0.00104897
0.000315883
0.00106296
0.000310889
0.0010767
0.00030558
0.00109018
0.000299949
0.00110339
0.000293988
0.00111632
0.000287687
0.00112897
0.00028104
0.0011413
0.000274037
0.00115332
0.00026667
0.001165
0.000258929
0.00117632
0.000250807
0.00118728
0.000242295
0.00119785
0.000233383
0.00120802
0.000224065
0.00121776
0.000214331
0.00122706
0.000204176
0.0012359
0.000193593
0.00124427
0.000182575
0.00125216
0.000171118
0.00125954
0.000159218
0.00126639
0.00014687
0.00127272
0.000134071
0.00127849
0.000120822
0.0012837
0.000107122
0.00128832
9.29707e-05
0.00129235
7.83732e-05
0.00129578
6.33343e-05
0.00129858
4.78455e-05
0.00130074
3.19297e-05
0.00130225
1.56441e-05
0.00130312
-1.15273e-06
0.00130331
-1.84711e-05
0.00130281
-3.6213e-05
0.00130161
-5.43582e-05
0.0012997
-7.28872e-05
0.00129707
-9.17771e-05
0.00129372
-0.000111002
0.00128964
-0.000130533
0.00128482
-0.000150338
0.00127928
-0.00017038
0.001273
-0.000190618
0.00126599
-0.000211009
0.00125826
-0.0002315
0.00124982
-0.000252034
0.00124068
-0.000272544
0.00123084
-0.000292955
0.00122032
-0.000313181
0.00120915
-0.000333131
0.00119735
-0.000352723
0.00118501
-0.000371893
0.00117213
-0.000390551
0.00115865
-0.000408468
0.00114444
-0.000425251
0.00112957
-0.000440602
0.00111461
-0.000454812
0.0011003
-0.000468718
0.00108695
-0.000482639
0.00107348
-0.000497341
-0.000503814
0.00105692
0.000886811
0.000334728
-0.000870923
0.000902551
0.000332559
0.000918141
0.000330115
0.000933583
0.000327428
0.000948876
0.000324502
0.000964017
0.000321334
0.000979002
0.00031792
0.00099382
0.000314253
0.00100846
0.000310326
0.0010229
0.000306129
0.00103713
0.000301653
0.00105113
0.000296887
0.00106489
0.000291822
0.00107839
0.000286447
0.00109162
0.000280756
0.00110457
0.000274737
0.00111723
0.000268385
0.00112958
0.000261689
0.0011416
0.000254643
0.0011533
0.000247237
0.00116464
0.000239464
0.00117562
0.000231315
0.00118622
0.000222783
0.00119642
0.00021386
0.00120622
0.000204539
0.00121558
0.000194812
0.0012245
0.000184674
0.00123296
0.000174117
0.00124094
0.000163137
0.00124843
0.000151729
0.00125541
0.000139889
0.00126187
0.000127614
0.00126779
0.000114903
0.00127315
0.000101756
0.00127795
8.81715e-05
0.00128217
7.41549e-05
0.00128579
5.97096e-05
0.00128881
4.48264e-05
0.00129121
2.95348e-05
0.00129297
1.38799e-05
0.00129411
-2.28986e-06
0.00129459
-1.89528e-05
0.00129441
-3.60272e-05
0.00129354
-5.34953e-05
0.00129199
-7.13386e-05
0.00128975
-8.95362e-05
0.00128681
-0.000108064
0.00128318
-0.000126895
0.00127884
-0.000145998
0.0012738
-0.000165339
0.00126806
-0.000184879
0.00126162
-0.000204575
0.0012545
-0.000224377
0.00124669
-0.000244229
0.00123822
-0.000264067
0.00122908
-0.000283817
0.0012193
-0.000303402
0.00120892
-0.000322748
0.00119798
-0.000341789
0.00118654
-0.000360448
0.00117455
-0.000378563
0.00116192
-0.00039584
0.00114867
-0.000411997
0.00113517
-0.000427102
0.00112212
-0.000441762
0.00110991
-0.000456507
0.00109805
-0.000470778
0.00108477
-0.000484063
-0.000486925
0.00106788
0.000875384
0.000318786
-0.000859441
0.000891187
0.000316755
0.000906841
0.000314462
0.000922337
0.000311933
0.000937669
0.00030917
0.000952835
0.000306169
0.000967829
0.000302925
0.000982648
0.000299435
0.000997282
0.000295692
0.00101172
0.00029169
0.00102595
0.000287421
0.00103996
0.000282876
0.00105374
0.000278047
0.00106726
0.000272924
0.00108052
0.000267498
0.0010935
0.00026176
0.00110618
0.000255701
0.00111856
0.000249313
0.00113061
0.000242587
0.00114233
0.000235516
0.00115371
0.00022809
0.00116472
0.000220304
0.00117535
0.000212148
0.0011856
0.000203615
0.00119544
0.000194699
0.00120486
0.000185393
0.00121384
0.00017569
0.00122237
0.000165584
0.00123044
0.00015507
0.00123803
0.000144143
0.00124512
0.000132799
0.0012517
0.000121036
0.00125775
0.00010885
0.00126326
9.62421e-05
0.00126822
8.32107e-05
0.00127262
6.97606e-05
0.00127643
5.58929e-05
0.00127966
4.15993e-05
0.00128228
2.6915e-05
0.00128429
1.18713e-05
0.00128569
-3.69408e-06
0.00128646
-1.97225e-05
0.00128659
-3.61517e-05
0.00128606
-5.29661e-05
0.00128487
-7.01487e-05
0.00128301
-8.76801e-05
0.00128049
-0.000105538
0.00127729
-0.000123696
0.00127342
-0.000142126
0.00126887
-0.000160794
0.00126366
-0.000179664
0.00125777
-0.000198694
0.00125123
-0.000217836
0.00124404
-0.000237036
0.00123621
-0.000256233
0.00122775
-0.000275362
0.00121871
-0.000294358
0.00120912
-0.00031316
0.00119903
-0.0003317
0.00118843
-0.00034985
0.00117727
-0.000367395
0.00116553
-0.0003841
0.00115348
-0.00039995
0.0011417
-0.000415323
0.00113068
-0.000430741
0.00112011
-0.000445943
0.00110885
-0.000459518
0.00109479
-0.00047
-0.000468786
0.00107665
0.00086452
0.000302822
-0.000848557
0.000880361
0.000300915
0.000896064
0.000298759
0.000911615
0.000296382
0.000927002
0.000293782
0.000942217
0.000290954
0.000957252
0.000287891
0.000972099
0.000284588
0.000986753
0.000281038
0.00100121
0.000277237
0.00101545
0.000273178
0.00102947
0.000268855
0.00104326
0.000264259
0.0010568
0.000259383
0.00107008
0.000254217
0.00108309
0.000248754
0.0010958
0.000242985
0.00110822
0.000236901
0.00112031
0.000230493
0.00113207
0.000223753
0.00114349
0.000216674
0.00115455
0.000209247
0.00116523
0.000201464
0.00117552
0.000193319
0.00118542
0.000184805
0.0011949
0.000175914
0.00120395
0.00016664
0.00121256
0.000156977
0.0012207
0.000146921
0.00122838
0.000136466
0.00123557
0.000125608
0.00124227
0.000114344
0.00124844
0.000102672
0.0012541
9.05894e-05
0.00125921
7.8097e-05
0.00126377
6.51986e-05
0.00126777
5.18921e-05
0.0012712
3.8172e-05
0.00127404
2.40785e-05
0.00127628
9.62344e-06
0.00127795
-5.35717e-06
0.001279
-2.07713e-05
0.00127942
-3.65772e-05
0.00127922
-5.27607e-05
0.00127837
-6.93063e-05
0.00127689
-8.61958e-05
0.00127476
-0.000103408
0.00127198
-0.000120919
0.00126856
-0.000138701
0.00126449
-0.000156722
0.00125977
-0.000174948
0.00125442
-0.000193339
0.00124843
-0.000211851
0.00124183
-0.000230432
0.00123462
-0.000249028
0.00122684
-0.000267585
0.00121854
-0.000286049
0.00120973
-0.000304357
0.00120044
-0.000322407
0.00119062
-0.000340034
0.00118029
-0.000357058
0.00116963
-0.00037344
0.00115911
-0.000389431
0.0011492
-0.000405418
0.00113983
-0.000421366
0.00112998
-0.000436097
0.00111829
-0.000447829
0.00110322
-0.000454934
-0.000451314
0.00108575
0.000854313
0.000286866
-0.000838357
0.000870161
0.000285067
0.000885886
0.000283034
0.000901471
0.000280796
0.000916904
0.00027835
0.000932168
0.00027569
0.000947253
0.000272806
0.000962147
0.000269693
0.000976843
0.000266343
0.00099133
0.00026275
0.0010056
0.000258907
0.00101965
0.00025481
0.00103345
0.00025045
0.00104702
0.00024582
0.00106032
0.000240914
0.00107335
0.000235723
0.0010861
0.000230239
0.00109854
0.000224454
0.00111068
0.000218359
0.00112248
0.000211947
0.00113395
0.00020521
0.00114506
0.000198138
0.0011558
0.000190725
0.00116615
0.000182964
0.00117611
0.000174846
0.00118566
0.000166366
0.00119478
0.000157516
0.00120347
0.000148291
0.0012117
0.000138686
0.00121947
0.000128694
0.00122677
0.000118313
0.00123357
0.000107539
0.00123987
9.63696e-05
0.00124566
8.48017e-05
0.00125092
7.28357e-05
0.00125565
6.04751e-05
0.00125982
4.77149e-05
0.00126344
3.45538e-05
0.00126649
2.10355e-05
0.00126897
7.14362e-06
0.00127087
-7.26629e-06
0.00127219
-2.20857e-05
0.0012729
-3.72887e-05
0.001273
-5.28625e-05
0.00127249
-6.87928e-05
0.00127136
-8.50626e-05
0.0012696
-0.000101652
0.00126722
-0.000118539
0.00126422
-0.000135697
0.00126059
-0.000153097
0.00125635
-0.000170707
0.0012515
-0.000188491
0.00124606
-0.000206405
0.00124003
-0.000224407
0.00123345
-0.00024245
0.00122636
-0.000260488
0.00121877
-0.000278464
0.00121071
-0.000296292
0.00120215
-0.000313847
0.00119311
-0.000330994
0.00118375
-0.000347701
0.00117445
-0.000364141
0.00116562
-0.000380603
0.00115727
-0.000397063
0.00114861
-0.000412713
0.00113837
-0.000425851
0.00112563
-0.000435095
0.00111022
-0.00043952
-0.000437412
0.00109632
0.000844839
0.000270927
-0.0008289
0.000860675
0.000269231
0.000876398
0.000267312
0.000891993
0.000265201
0.000907446
0.000262897
0.000922742
0.000260393
0.000937867
0.000257681
0.000952807
0.000254753
0.00096755
0.0002516
0.000982083
0.000248216
0.000996397
0.000244593
0.00101048
0.000240726
0.00102433
0.000236606
0.00103792
0.000232227
0.00105125
0.000227581
0.00106431
0.000222663
0.00107709
0.000217463
0.00108957
0.000211975
0.00110174
0.000206191
0.00111358
0.000200102
0.00112509
0.000193702
0.00113625
0.000186981
0.00114704
0.000179933
0.00115745
0.000172549
0.00116748
0.000164824
0.00117709
0.000156748
0.00118629
0.000148317
0.00119506
0.000139524
0.00120338
0.000130362
0.00121125
0.000120828
0.00121865
0.000110916
0.00122556
0.000100623
0.00123199
8.99462e-05
0.00123791
7.88822e-05
0.00124331
6.74317e-05
0.00124819
5.55962e-05
0.00125254
4.33689e-05
0.00125633
3.07545e-05
0.00125957
1.77961e-05
0.00126228
4.44164e-06
0.00126442
-9.40831e-06
0.00126598
-2.36508e-05
0.00126696
-3.82696e-05
0.00126735
-5.32532e-05
0.00126715
-6.85886e-05
0.00126635
-8.42601e-05
0.00126495
-0.00010025
0.00126294
-0.000116537
0.00126034
-0.000133098
0.00125715
-0.000149906
0.00125338
-0.000166931
0.00124903
-0.00018414
0.00124412
-0.000201497
0.00123867
-0.000218962
0.00123272
-0.000236497
0.00122628
-0.000254051
0.00121937
-0.000271553
0.00121198
-0.000288904
0.00120415
-0.000306009
0.001196
-0.000322853
0.00118787
-0.000339563
0.00118007
-0.000356344
0.00117263
-0.000373158
0.00116491
-0.00038935
0.00115581
-0.00040361
0.00114448
-0.000414523
0.00113128
-0.00042189
0.00111788
-0.000426119
-0.000429446
0.00110991
0.00083614
0.000254998
-0.000820212
0.000851964
0.000253407
0.000867676
0.0002516
0.000883265
0.000249612
0.000898719
0.000247443
0.000914025
0.000245087
0.00092917
0.000242537
0.000944139
0.000239784
0.000958917
0.000236821
0.000973493
0.000233641
0.000987852
0.000230234
0.00100198
0.000226595
0.00101587
0.000222716
0.00102951
0.000218589
0.00104288
0.000214207
0.00105598
0.000209563
0.0010688
0.00020465
0.00108131
0.00019946
0.00109352
0.000193985
0.0011054
0.000188219
0.00111695
0.000182153
0.00112815
0.00017578
0.00113899
0.000169092
0.00114946
0.000162082
0.00115954
0.000154743
0.00116922
0.000147068
0.00117849
0.000139049
0.00118733
0.000130681
0.00119574
0.000121957
0.00120369
0.000112872
0.00121119
0.000103421
0.00121821
9.36015e-05
0.00122475
8.34079e-05
0.00123079
7.28382e-05
0.00123633
6.18926e-05
0.00124136
5.05704e-05
0.00124586
3.88636e-05
0.00124983
2.67853e-05
0.00125326
1.43703e-05
0.00125617
1.53083e-06
0.00125853
-1.17708e-05
0.00126033
-2.54536e-05
0.00126157
-3.95065e-05
0.00126224
-5.39197e-05
0.00126233
-6.86812e-05
0.00126185
-8.37772e-05
0.00126079
-9.91912e-05
0.00125916
-0.000114905
0.00125695
-0.000130896
0.00125419
-0.000147141
0.00125087
-0.000163614
0.00124701
-0.000180283
0.00124264
-0.000197118
0.00123776
-0.000214084
0.0012324
-0.000231139
0.00122657
-0.000248224
0.00122028
-0.000265259
0.00121356
-0.000282184
0.00120655
-0.000299
0.00119951
-0.000315809
0.00119268
-0.000332742
0.00118606
-0.000349722
0.00117909
-0.000366185
0.00117081
-0.000381068
0.00116048
-0.000393282
0.0011485
-0.000402548
0.0011369
-0.000410289
0.0011288
-0.000418016
-0.000430995
0.00113035
0.00082823
0.000239067
-0.000812299
0.000844054
0.000237584
0.000859762
0.000235892
0.000875347
0.000234027
0.000890797
0.000231992
0.000906103
0.000229781
0.000921252
0.000227388
0.000936232
0.000224804
0.000951029
0.000222024
0.00096563
0.000219039
0.000980021
0.000215843
0.000994189
0.000212427
0.00100812
0.000208784
0.0010218
0.000204907
0.00103522
0.000200787
0.00104837
0.000196417
0.00106123
0.00019179
0.00107379
0.000186899
0.00108604
0.000181734
0.00109797
0.00017629
0.00110956
0.000170559
0.00112081
0.000164532
0.0011317
0.000158204
0.00114221
0.000151565
0.00115235
0.000144609
0.00116209
0.000137329
0.00117142
0.000129718
0.00118033
0.00012177
0.00118881
0.000113477
0.00119684
0.000104835
0.00120443
9.58389e-05
0.00121155
8.64834e-05
0.00121819
7.67645e-05
0.00122435
6.66795e-05
0.00123001
5.62283e-05
0.00123517
4.54071e-05
0.00123983
3.42093e-05
0.00124396
2.26567e-05
0.00124756
1.07652e-05
0.00125067
-1.57752e-06
0.00125324
-1.43438e-05
0.00125527
-2.74838e-05
0.00125676
-4.09894e-05
0.00125769
-5.4852e-05
0.00125807
-6.90612e-05
0.0012579
-8.36044e-05
0.00125717
-9.84672e-05
0.0012559
-0.000113633
0.00125409
-0.000129081
0.00125174
-0.000144792
0.00124886
-0.000160741
0.00124548
-0.000176901
0.00124161
-0.000193244
0.00123726
-0.000209734
0.00123244
-0.000226322
0.00122717
-0.000242951
0.00122149
-0.000259581
0.00121554
-0.000276231
0.00120952
-0.000292981
0.00120361
-0.000309899
0.00119773
-0.000326859
0.00119135
-0.000343348
0.00118366
-0.000358494
0.00117408
-0.00037149
0.00116306
-0.000382256
0.00115256
-0.00039205
0.00114562
-0.000403353
0.00114571
-0.000418106
-0.000440139
0.00115486
0.000821117
0.000223121
-0.000805171
0.000836953
0.000221748
0.000852671
0.000220173
0.000868263
0.000218435
0.000883719
0.000216536
0.000899028
0.000214472
0.000914181
0.000212235
0.000929167
0.000209819
0.000943972
0.000207218
0.000958586
0.000204425
0.000972996
0.000201434
0.000987188
0.000198235
0.00100115
0.000194824
0.00101486
0.000191191
0.00102832
0.000187328
0.00104151
0.00018323
0.00105442
0.000178886
0.00106702
0.000174291
0.00107932
0.000169436
0.0010913
0.000164313
0.00110294
0.000158915
0.00111424
0.000153235
0.00112518
0.000147264
0.00113575
0.000140995
0.00114594
0.000134421
0.00115573
0.000127534
0.00116513
0.000120327
0.0011741
0.000112795
0.00118265
0.000104929
0.00119076
9.67245e-05
0.00119842
8.81758e-05
0.00120563
7.92777e-05
0.00121237
7.00256e-05
0.00121863
6.04166e-05
0.00122441
5.04497e-05
0.0012297
4.01179e-05
0.00123449
2.94189e-05
0.00123876
1.83806e-05
0.00124254
6.9878e-06
0.00124583
-4.86766e-06
0.0012486
-1.71135e-05
0.00125085
-2.97283e-05
0.00125256
-4.27055e-05
0.00125375
-5.60376e-05
0.0012544
-6.97155e-05
0.00125453
-8.37281e-05
0.00125412
-9.80623e-05
0.00125319
-0.000112703
0.00125174
-0.000127634
0.00124979
-0.000142835
0.00124733
-0.000158286
0.00124439
-0.00017396
0.00124098
-0.00018983
0.0012371
-0.000205857
0.00123278
-0.000222004
0.00122808
-0.000238248
0.00122311
-0.000254614
0.00121804
-0.000271162
0.00121297
-0.000287903
0.00120773
-0.000304661
0.00120182
-0.000320956
0.00119457
-0.000336092
0.00118559
-0.000349519
0.0011755
-0.000361397
0.00116624
-0.000372995
0.00116076
-0.000386573
0.00116192
-0.00040451
0.00117107
-0.000427258
-0.000458765
0.0011897
0.000814824
0.000207158
-0.00079886
0.000830678
0.000205893
0.000846415
0.000204436
0.000862025
0.000202825
0.000877497
0.000201064
0.000892822
0.000199147
0.000907989
0.000197068
0.000922986
0.000194822
0.000937804
0.000192401
0.000952431
0.000189799
0.000966854
0.00018701
0.000981062
0.000184027
0.000995043
0.000180843
0.00100878
0.000177451
0.00102227
0.000173842
0.00103549
0.00017001
0.00104843
0.000165947
0.00106107
0.000161645
0.00107341
0.000157096
0.00108543
0.000152292
0.00109712
0.000147225
0.00110847
0.000141889
0.00111946
0.000136274
0.00113008
0.000130373
0.00114033
0.000124178
0.00115018
0.000117682
0.00115963
0.000110877
0.00116867
0.000103757
0.00117728
9.63145e-05
0.00118546
8.8543e-05
0.0011932
8.04368e-05
0.00120049
7.19899e-05
0.00120732
6.31976e-05
0.00121368
5.40571e-05
0.00121956
4.45646e-05
0.00122497
3.47121e-05
0.00122988
2.45046e-05
0.0012343
1.3966e-05
0.00123824
3.04221e-06
0.0012417
-8.32525e-06
0.00124465
-2.00652e-05
0.00124709
-3.21704e-05
0.00124902
-4.46359e-05
0.00125044
-5.74554e-05
0.00125135
-7.06209e-05
0.00125174
-8.41226e-05
0.00125163
-9.79491e-05
0.00125101
-0.000112087
0.0012499
-0.000126522
0.0012483
-0.000141236
0.00124622
-0.000156208
0.00124368
-0.000171414
0.00124068
-0.00018683
0.00123725
-0.000202433
0.00123346
-0.000218215
0.00122941
-0.000234197
0.00122521
-0.00025041
0.00122086
-0.000266815
0.00121615
-0.000283194
0.0012106
-0.000299107
0.00120367
-0.000314025
0.00119525
-0.00032767
0.00118616
-0.000340437
0.00117843
-0.000353661
0.0011748
-0.000369368
0.0011777
-0.000389468
0.00118791
-0.000414729
0.00120395
-0.000443294
-0.000477219
0.0012224
0.000809402
0.000191178
-0.000793422
0.000825275
0.000190021
0.000841032
0.000188679
0.000856664
0.000187194
0.000872159
0.000185569
0.000887506
0.000183799
0.000902695
0.000181879
0.000917715
0.000179802
0.000932554
0.000177562
0.000947201
0.000175152
0.000961644
0.000172567
0.000975872
0.000169799
0.000989873
0.000166843
0.00100363
0.00016369
0.00101714
0.000160333
0.00103039
0.000156766
0.00104335
0.000152981
0.00105603
0.000148969
0.0010684
0.000144723
0.00108046
0.000140235
0.00109219
0.000135498
0.00110357
0.000130502
0.0011146
0.000125241
0.00112527
0.000119706
0.00113556
0.000113888
0.00114546
0.000107781
0.00115496
0.000101376
0.00116406
9.46655e-05
0.00117273
8.76429e-05
0.00118097
8.03009e-05
0.00118877
7.26328e-05
0.00119613
6.46323e-05
0.00120303
5.62945e-05
0.00120948
4.76156e-05
0.00121545
3.85892e-05
0.00122095
2.92086e-05
0.00122597
1.94873e-05
0.00123051
9.42958e-06
0.0012346
-1.04617e-06
0.0012382
-1.19284e-05
0.00124131
-2.31772e-05
0.00124393
-3.47891e-05
0.00124605
-4.67601e-05
0.00124768
-5.90849e-05
0.00124882
-7.17565e-05
0.00124946
-8.47665e-05
0.00124962
-9.81046e-05
0.00124929
-0.000111759
0.00124849
-0.000125716
0.00124721
-0.00013996
0.00124547
-0.000154472
0.0012433
-0.000169238
0.00124071
-0.000184247
0.00123778
-0.000199499
0.00123457
-0.000215004
0.00123112
-0.000230753
0.00122738
-0.000246663
0.00122306
-0.000262499
0.00121775
-0.000277882
0.0012111
-0.000292462
0.00120331
-0.00030623
0.00119546
-0.000319826
0.00118964
-0.000334612
0.00118833
-0.000352348
0.00119337
-0.000374414
0.00120492
-0.000401014
0.00122083
-0.000430644
0.00123776
-0.000460222
-0.00048924
0.00124978
0.000804904
0.000175179
-0.000788905
0.000820796
0.000174128
0.000836574
0.000172901
0.000852228
0.00017154
0.000867747
0.00017005
0.000883119
0.000168427
0.000898335
0.000166664
0.000913381
0.000164755
0.000928248
0.000162695
0.000942922
0.000160478
0.000957393
0.000158096
0.000971648
0.000155544
0.000985675
0.000152815
0.000999462
0.000149903
0.001013
0.000146799
0.00102627
0.000143496
0.00103926
0.000139988
0.00105196
0.000136266
0.00106436
0.000132323
0.00107645
0.000128151
0.0010882
0.000123741
0.00109962
0.000119085
0.00111069
0.000114176
0.00112139
0.000109005
0.00113171
0.000103562
0.00114165
9.78415e-05