/*--------------------------------*- C++ -*----------------------------------*\
| =========                 |                                                 |
| \\      /  F ield         | OpenFOAM: The Open Source CFD Toolbox           |
|  \\    /   O peration     | Version:  2312                                  |
|   \\  /    A nd           | Website:  www.openfoam.com                      |
|    \\/     M anipulation  |                                                 |
\*---------------------------------------------------------------------------*/
FoamFile
{
    version     2.0;
    format      ascii;
    arch        "LSB;label=32;scalar=64";
    class       volVectorField;
    location    "1800";
    object      U;
}
// * * * * * * * * * * * * * * * * * * * * * * * * * * * * * * * * * * * * * //

dimensions      [0 1 -1 0 0 0 0];

internalField   nonuniform List<vector> 
76025
(
(0.0359454 -0.00355872 0)
(0.0361036 -0.00360473 -8.84865e-23)
(0.0362628 -0.00365052 0)
(0.0364203 -0.00369013 0)
(0.0365977 -0.00372856 4.34365e-22)
(0.0367726 -0.00374682 1.13172e-21)
(0.0369573 -0.00377687 -2.13572e-21)
(0.0371467 -0.00378837 9.61198e-22)
(0.0373261 -0.00380125 4.01313e-22)
(0.0375053 -0.00380408 -4.45773e-22)
(0.0376876 -0.00380126 2.52132e-23)
(0.0378745 -0.00378854 -1.63692e-21)
(0.0380621 -0.00377251 2.16258e-21)
(0.0382424 -0.00374696 0)
(0.0384082 -0.003705 -6.66223e-22)
(0.0385821 -0.00367092 0)
(0.0387496 -0.00361197 0)
(0.0389312 -0.0035573 0)
(0.0391067 -0.00348723 -8.00442e-22)
(0.0392789 -0.00341971 8.89995e-22)
(0.0394447 -0.0033352 9.34755e-22)
(0.0396046 -0.00324782 2.88698e-21)
(0.0397548 -0.00314933 -1.95797e-21)
(0.0398967 -0.00303888 -3.20341e-21)
(0.0400329 -0.00292458 -8.26456e-23)
(0.0401724 -0.00280513 -1.24714e-21)
(0.040303 -0.00266065 3.56816e-21)
(0.0404357 -0.00252056 -3.61322e-21)
(0.0405673 -0.00236151 1.24039e-21)
(0.0406995 -0.00217973 -1.28363e-21)
(0.0408194 -0.00202143 -1.33837e-21)
(0.0409335 -0.00185225 2.8699e-21)
(0.0410348 -0.00165753 -4.37187e-21)
(0.0411357 -0.00146636 -7.74242e-22)
(0.0412306 -0.00125371 3.92807e-21)
(0.0413208 -0.00104308 1.9361e-23)
(0.0414095 -0.000813361 -8.11678e-22)
(0.0414901 -0.000577585 4.40722e-22)
(0.0415585 -0.000343137 2.20609e-23)
(0.0416175 -8.90609e-05 -6.83019e-22)
(0.0416663 0.000168632 4.60511e-22)
(0.0417146 0.000430126 -2.25689e-22)
(0.0417556 0.000706043 4.49486e-22)
(0.0417809 0.000984339 -8.98003e-22)
(0.0417924 0.00127557 -9.20206e-22)
(0.0417976 0.00157289 1.74806e-21)
(0.0417926 0.00188345 1.81735e-21)
(0.0417638 0.00220558 -5.45803e-21)
(0.0417172 0.00253723 3.48096e-21)
(0.0416606 0.00287523 -9.17698e-23)
(0.0415849 0.00322296 -8.83591e-21)
(0.0414849 0.0035824 -3.40555e-21)
(0.041362 0.00394696 3.57935e-21)
(0.0412132 0.00432323 0)
(0.0410249 0.00471 -3.31981e-21)
(0.0408103 0.00511049 -3.49816e-21)
(0.0405738 0.00551779 9.6574e-23)
(0.0402981 0.00594189 -3.34166e-21)
(0.0399952 0.00638499 3.3047e-21)
(0.0396644 0.00685672 -9.63558e-21)
(0.0393232 0.00727079 -6.75029e-21)
(0.0389 0.00775204 -4.51376e-22)
(0.0384395 0.00824648 0)
(0.0379505 0.008744 1.60835e-20)
(0.0374162 0.00924135 -5.95072e-21)
(0.036822 0.00975685 3.21444e-21)
(0.0361721 0.010324 -6.17602e-21)
(0.0354131 0.010879 6.68898e-21)
(0.0347169 0.0114656 1.29761e-20)
(0.0358377 -0.00383852 -5.06748e-23)
(0.036008 -0.0038889 -3.79127e-22)
(0.0361791 -0.00393521 4.65998e-22)
(0.0363502 -0.00397663 0)
(0.0365243 -0.00401214 -1.26273e-21)
(0.0367077 -0.00404013 -1.95488e-22)
(0.036892 -0.00406166 1.21468e-21)
(0.0370844 -0.00407663 0)
(0.0372795 -0.00408528 2.42957e-23)
(0.037474 -0.00408769 4.55885e-22)
(0.0376678 -0.00408268 -5.01014e-22)
(0.0378629 -0.00407005 3.09818e-23)
(0.0380589 -0.00405011 0)
(0.0382565 -0.00402205 0)
(0.0384519 -0.00398488 -1.48741e-21)
(0.0386399 -0.00394117 3.6447e-21)
(0.0388285 -0.00388727 8.13459e-22)
(0.0390131 -0.00382646 -2.58088e-21)
(0.0392003 -0.00375579 1.71776e-21)
(0.0393837 -0.00367857 -9.06832e-22)
(0.0395675 -0.00359122 1.04733e-21)
(0.0397476 -0.00349622 -2.00041e-21)
(0.039922 -0.00339185 2.18637e-21)
(0.0400902 -0.00327769 -3.37889e-21)
(0.0402522 -0.00315449 2.28468e-21)
(0.0404095 -0.00302296 3.65213e-21)
(0.0405643 -0.00288137 -2.47785e-21)
(0.0407095 -0.00273069 0)
(0.0408518 -0.00256927 0)
(0.0409925 -0.00239757 -1.44734e-21)
(0.0411254 -0.00222145 0)
(0.041252 -0.00203546 -1.55056e-21)
(0.0413738 -0.0018377 1.57856e-21)
(0.0414869 -0.0016302 -2.42024e-21)
(0.0415957 -0.00141118 4.35936e-23)
(0.0416971 -0.00118386 -8.37814e-22)
(0.0417934 -0.000944325 0)
(0.041882 -0.000700339 -1.83691e-21)
(0.0419592 -0.000447938 1.42373e-21)
(0.0420266 -0.00018297 -1.20228e-21)
(0.0420841 9.09606e-05 7.37473e-22)
(0.0421329 0.000372479 -6.91484e-24)
(0.0421706 0.000657369 2.62436e-22)
(0.0421938 0.000952249 -2.43787e-22)
(0.042204 0.00125711 1.98679e-21)
(0.0422014 0.00157453 -9.98435e-22)
(0.0421838 0.00189791 -1.0287e-21)
(0.0421471 0.00223009 1.87764e-21)
(0.0420927 0.00257642 5.76211e-21)
(0.0420228 0.00293379 -4.65737e-23)
(0.0419342 0.00329928 5.6379e-21)
(0.0418233 0.00367413 -1.88488e-21)
(0.0416894 0.00405812 -5.50981e-21)
(0.0415302 0.00445124 3.71035e-21)
(0.0413435 0.00485258 0)
(0.0411276 0.00527441 1.09828e-20)
(0.0408874 0.00570368 -4.35377e-24)
(0.0406157 0.00614822 -3.60986e-21)
(0.040314 0.00660686 -3.70249e-21)
(0.0399848 0.00707503 0)
(0.0396197 0.00755267 3.32403e-21)
(0.0392068 0.00804598 1.03484e-20)
(0.0387545 0.00855382 0)
(0.0382715 0.0090711 -6.76022e-21)
(0.0377479 0.00959691 3.97049e-21)
(0.037152 0.0101524 -6.98186e-21)
(0.036469 0.0107488 3.50728e-21)
(0.0357077 0.0113174 -6.78753e-21)
(0.0349868 0.0119568 -6.78377e-21)
(0.0357104 -0.00412763 3.76763e-22)
(0.0358964 -0.004179 -2.10604e-22)
(0.0360821 -0.00422653 1.63371e-22)
(0.0362697 -0.00426946 -9.28527e-22)
(0.0364571 -0.00430581 1.18822e-21)
(0.0366476 -0.00433578 1.33276e-21)
(0.0368406 -0.00435787 -1.69362e-21)
(0.0370374 -0.00437294 0)
(0.0372386 -0.00438037 2.87437e-23)
(0.037443 -0.00438048 0)
(0.0376488 -0.00437298 5.73613e-22)
(0.0378553 -0.0043579 -5.87993e-22)
(0.0380622 -0.00433495 -3.39591e-21)
(0.0382698 -0.00430369 2.70992e-21)
(0.0384787 -0.00426391 -7.31914e-22)
(0.038686 -0.00421503 -2.43442e-21)
(0.0388918 -0.00415797 8.22561e-22)
(0.0390942 -0.00409198 8.75618e-22)
(0.0392944 -0.00401765 2.9265e-21)
(0.0394919 -0.00393419 -1.94706e-21)
(0.039687 -0.00384177 -1.07878e-21)
(0.039879 -0.00374012 2.2453e-21)
(0.0400677 -0.00362902 -1.06588e-21)
(0.040253 -0.00350781 -1.2318e-21)
(0.0404344 -0.00337656 0)
(0.0406106 -0.0032356 1.33501e-21)
(0.0407813 -0.00308559 1.35717e-21)
(0.0409459 -0.00292557 -1.31484e-21)
(0.0411045 -0.00275547 0)
(0.0412574 -0.00257599 3.01063e-21)
(0.041405 -0.00238668 -1.59945e-21)
(0.0415458 -0.00218747 -8.59883e-23)
(0.0416792 -0.00197833 0)
(0.041805 -0.00175815 8.36715e-22)
(0.0419236 -0.00152791 -2.65572e-21)
(0.0420344 -0.00128767 1.8096e-21)
(0.0421368 -0.00103731 0)
(0.04223 -0.000778303 1.45384e-21)
(0.0423134 -0.000509111 -1.5072e-21)
(0.0423868 -0.000226626 -2.51242e-22)
(0.042449 6.46223e-05 0)
(0.042499 0.000360145 -5.24154e-22)
(0.0425368 0.000662754 -2.6301e-22)
(0.0425609 0.000974917 2.47677e-22)
(0.0425705 0.00129662 -1.53162e-21)
(0.0425653 0.00162793 -1.06688e-21)
(0.0425442 0.00196762 2.01262e-21)
(0.0425058 0.00231749 -2.06507e-21)
(0.0424495 0.00267892 2.10343e-21)
(0.0423755 0.0030505 -2.03254e-21)
(0.0422825 0.00343114 -1.97156e-21)
(0.0421685 0.00382156 4.15148e-21)
(0.042032 0.00422219 0)
(0.0418713 0.0046334 4.10387e-21)
(0.0416847 0.00505628 1.20581e-22)
(0.0414709 0.00549326 -3.94063e-21)
(0.0412306 0.00594201 -3.90671e-21)
(0.0409616 0.00640417 7.76735e-21)
(0.040663 0.00687984 -1.20814e-22)
(0.0403327 0.00736927 3.96857e-21)
(0.0399669 0.00787001 -7.90384e-21)
(0.0395606 0.00838533 -4.07217e-21)
(0.0391164 0.00891603 -1.06789e-23)
(0.0386377 0.00945933 -3.79049e-21)
(0.0381094 0.0100189 -3.53663e-21)
(0.0375027 0.0106028 -1.1634e-20)
(0.0368095 0.0112237 0)
(0.0360664 0.0118179 -3.79242e-21)
(0.0354168 0.0124995 3.80072e-21)
(0.0355809 -0.00443669 0)
(0.0357774 -0.00448859 -1.1485e-22)
(0.0359764 -0.00453659 -9.74968e-22)
(0.036179 -0.0045799 8.01434e-22)
(0.0363828 -0.00461678 9.69654e-22)
(0.0365876 -0.00464682 -1.58111e-21)
(0.0367937 -0.00466932 3.77413e-22)
(0.0370013 -0.0046841 -4.58432e-22)
(0.0372112 -0.00469088 -4.81481e-22)
(0.0374238 -0.00468956 -2.31004e-21)
(0.037639 -0.00468003 2.3337e-21)
(0.037856 -0.0046622 2.73168e-21)
(0.0380742 -0.00463597 -5.60251e-22)
(0.0382929 -0.00460114 -3.04012e-21)
(0.0385122 -0.00455745 2.40617e-21)
(0.0387317 -0.00450459 -8.90279e-22)
(0.0389506 -0.00444275 9.43789e-22)
(0.0391679 -0.00437174 9.97323e-22)
(0.0393828 -0.0042917 -3.09052e-21)
(0.0395948 -0.00420238 9.88943e-22)
(0.0398035 -0.00410369 1.09643e-21)
(0.0400087 -0.00399528 0)
(0.0402104 -0.00387692 2.58174e-21)
(0.0404085 -0.00374838 -1.26588e-21)
(0.0406025 -0.00360964 -2.72497e-21)
(0.040792 -0.00346081 -2.8843e-21)
(0.0409763 -0.00330187 5.72928e-21)
(0.0411552 -0.00313258 -2.99894e-21)
(0.0413281 -0.00295307 0)
(0.0414945 -0.00276331 -3.21691e-21)
(0.0416543 -0.0025634 -6.52628e-23)
(0.0418066 -0.00235359 3.369e-21)
(0.041951 -0.00213353 -1.79588e-21)
(0.0420872 -0.00190286 4.60299e-21)
(0.042215 -0.00166179 -8.97445e-22)
(0.0423341 -0.00141035 0)
(0.042444 -0.0011484 0)
(0.0425441 -0.000876365 5.31345e-22)
(0.0426334 -0.000594103 5.18992e-22)
(0.0427118 -0.000299013 2.81743e-22)
(0.0427782 3.97089e-06 -8.9431e-24)
(0.0428317 0.000311673 2.71281e-22)
(0.0428724 0.000628364 0)
(0.0428991 0.000954658 -2.98722e-23)
(0.042911 0.00129082 0)
(0.0429075 0.00163702 1.0502e-21)
(0.0428879 0.00199327 9.15052e-24)
(0.0428511 0.00235989 -3.3524e-21)
(0.0427963 0.00273732 0)
(0.0427231 0.00312534 -2.18298e-21)
(0.0426306 0.00352363 2.16117e-21)
(0.0425172 0.00393239 -4.19408e-21)
(0.0423816 0.00435197 0)
(0.0422223 0.00478283 -1.28133e-20)
(0.042038 0.00522558 1.15853e-22)
(0.0418276 0.00568133 4.22662e-21)
(0.0415906 0.00615012 4.19475e-21)
(0.0413255 0.00663232 0)
(0.0410304 0.00712862 0)
(0.0407027 0.00763944 -4.00997e-21)
(0.0403393 0.00816473 7.98541e-21)
(0.039939 0.00870459 7.95447e-21)
(0.0395036 0.00925859 0)
(0.0390285 0.00982823 -8.45453e-21)
(0.0384926 0.0104195 0)
(0.0378758 0.0110363 1.20025e-20)
(0.0371866 0.0116863 -4.10494e-21)
(0.0364935 0.0123024 -4.08622e-21)
(0.0358898 0.0130153 -4.36545e-21)
(0.0354565 -0.00476876 0)
(0.0356603 -0.00482241 0)
(0.0358688 -0.00487152 -2.02997e-22)
(0.0360828 -0.00491542 1.12801e-21)
(0.0363003 -0.00495255 -1.44041e-21)
(0.0365199 -0.0049824 3.55657e-22)
(0.036741 -0.00500457 0)
(0.036963 -0.00501869 4.67492e-22)
(0.0371861 -0.0050245 0)
(0.0374105 -0.00502184 1.25088e-21)
(0.0376365 -0.00501049 1.59182e-22)
(0.0378642 -0.00499029 -1.35618e-21)
(0.0380933 -0.00496107 0)
(0.0383231 -0.00492274 1.69939e-21)
(0.0385532 -0.00487512 -5.25687e-21)
(0.0387835 -0.00481806 3.67248e-21)
(0.0390134 -0.00475144 -4.9079e-21)
(0.0392425 -0.00467517 1.01187e-21)
(0.03947 -0.00458915 -1.12993e-21)
(0.0396953 -0.00449333 1.12315e-21)
(0.0399177 -0.00438755 1.23081e-21)
(0.0401366 -0.00427166 -3.774e-21)
(0.0403518 -0.0041455 -2.64446e-21)
(0.0405626 -0.00400895 0)
(0.040769 -0.0038619 2.91885e-21)
(0.0409705 -0.00370433 1.55747e-21)
(0.0411668 -0.00353617 -4.54313e-21)
(0.0413574 -0.00335736 1.56115e-21)
(0.0415419 -0.00316791 -3.36902e-21)
(0.0417197 -0.00296781 5.0565e-21)
(0.0418905 -0.0027571 -1.82448e-21)
(0.0420535 -0.00253582 9.42363e-22)
(0.0422084 -0.00230381 0)
(0.0423547 -0.00206095 -9.5178e-22)
(0.042492 -0.00180723 -9.8139e-22)
(0.0426199 -0.00154261 0)
(0.0427379 -0.00126698 1.09866e-21)
(0.0428452 -0.000980868 -1.64709e-21)
(0.0429411 -0.000684164 1.1235e-21)
(0.0430257 -0.000374212 -5.83798e-22)
(0.0430976 -5.60553e-05 -9.99982e-24)
(0.0431561 0.000267414 -4.53249e-22)
(0.0432012 0.000600366 1.46996e-22)
(0.0432319 0.000943083 5.75822e-22)
(0.0432475 0.00129577 2.72125e-23)
(0.0432473 0.00165855 3.52958e-21)
(0.0432306 0.00203146 0)
(0.0431967 0.00241463 2.27959e-21)
(0.0431448 0.00280833 -5.92961e-23)
(0.0430742 0.00321271 -2.31687e-21)
(0.042984 0.00362778 0)
(0.0428731 0.00405374 -2.30947e-21)
(0.0427403 0.00449096 2.28915e-21)
(0.0425843 0.00493995 4.43886e-21)
(0.042404 0.00540131 0)
(0.0421983 0.00587576 -8.91827e-21)
(0.0419661 0.00636373 8.99947e-21)
(0.0417059 0.00686575 -8.95882e-21)
(0.0414153 0.0073827 -1.41971e-22)
(0.0410917 0.00791529 0)
(0.0407337 0.00846332 -4.4284e-21)
(0.040342 0.00902612 4.27174e-21)
(0.0399145 0.00960462 4.69845e-21)
(0.0394386 0.0102032 8.53214e-21)
(0.038893 0.0108277 -1.35161e-20)
(0.0382749 0.0114771 8.82225e-21)
(0.0376142 0.0121517 -4.41834e-21)
(0.0369909 0.0127905 4.7258e-21)
(0.0364191 0.0135403 1.29097e-20)
(0.0353317 -0.00512449 4.96217e-22)
(0.0355458 -0.00518054 2.51885e-22)
(0.035764 -0.00523147 -7.5685e-22)
(0.0359882 -0.0052766 0)
(0.0362169 -0.00531429 3.28244e-22)
(0.0364494 -0.00534412 0)
(0.0366844 -0.00536576 -9.91006e-22)
(0.0369211 -0.00537889 -1.28954e-22)
(0.0371591 -0.00538329 1.70923e-21)
(0.037398 -0.00537882 -6.66052e-22)
(0.0376379 -0.00536528 -6.85059e-22)
(0.0378786 -0.00534243 -7.89329e-22)
(0.03812 -0.00531008 0)
(0.038362 -0.00526803 0)
(0.0386041 -0.00521615 9.18256e-22)
(0.0388461 -0.0051543 9.76099e-22)
(0.0390876 -0.00508235 -2.18731e-21)
(0.0393283 -0.00500021 2.18068e-21)
(0.0395675 -0.00490776 2.36436e-21)
(0.0398049 -0.0048049 -2.53996e-21)
(0.0400396 -0.00469154 5.12148e-21)
(0.0402713 -0.00456756 4.5246e-23)
(0.0404992 -0.00443289 -2.8511e-21)
(0.0407228 -0.00428741 -1.51791e-21)
(0.0409418 -0.00413105 -3.12742e-21)
(0.0411555 -0.00396375 3.13146e-21)
(0.0413637 -0.00378546 3.364e-21)
(0.0415658 -0.00359616 -3.37255e-21)
(0.0417614 -0.00339581 0)
(0.04195 -0.00318439 0)
(0.0421312 -0.00296193 4.74482e-21)
(0.0423043 -0.00272841 1.03328e-22)
(0.042469 -0.00248379 -1.9953e-21)
(0.0426247 -0.00222804 -2.10749e-21)
(0.0427709 -0.00196118 2.12346e-21)
(0.0429071 -0.00168315 0)
(0.0430327 -0.00139387 -1.10982e-21)
(0.0431473 -0.00109389 -1.78493e-21)
(0.0432499 -0.000782876 1.19562e-21)
(0.0433408 -0.000458399 -1.65373e-23)
(0.0434187 -0.000125867 -9.8812e-23)
(0.0434829 0.000212439 4.62832e-22)
(0.0435333 0.000560516 3.23416e-22)
(0.0435691 0.000918618 6.32357e-22)
(0.0435895 0.00128688 -3.11053e-21)
(0.043594 0.00166542 2.62877e-23)
(0.0435819 0.00205435 0)
(0.0435524 0.00245385 -2.56628e-21)
(0.0435048 0.00286414 7.47699e-21)
(0.0434384 0.00328544 -5.0215e-21)
(0.0433523 0.00371789 -2.477e-21)
(0.0432455 0.00416172 -7.83563e-23)
(0.0431171 0.00461729 -2.38847e-21)
(0.0429658 0.00508506 -1.78536e-23)
(0.0427907 0.00556556 4.85159e-21)
(0.0425906 0.00605941 -4.9848e-21)
(0.0423641 0.00656728 -4.82294e-21)
(0.0421093 0.00708997 9.59878e-21)
(0.0418239 0.00762842 -1.35938e-22)
(0.0415062 0.00818308 4.76852e-21)
(0.0411564 0.0087536 -4.75239e-21)
(0.0407737 0.00934004 4.6004e-21)
(0.0403506 0.0099454 -9.18552e-21)
(0.03987 0.0105753 -4.73474e-21)
(0.0393198 0.0112327 9.18882e-21)
(0.0387201 0.0119117 -5.06222e-21)
(0.0381108 0.0126085 -1.45377e-20)
(0.0375561 0.0132723 -4.41889e-21)
(0.0369678 0.014061 0)
(0.0351978 -0.00550518 0)
(0.0354271 -0.00556364 1.84369e-22)
(0.0356588 -0.00561659 -2.09975e-23)
(0.0358956 -0.00566326 0)
(0.0361366 -0.00570185 0)
(0.0363815 -0.00573191 4.55752e-22)
(0.0366296 -0.00575311 -1.60275e-21)
(0.0368803 -0.00576517 2.2811e-21)
(0.0371329 -0.00576793 -1.16052e-21)
(0.0373869 -0.00576128 6.78798e-22)
(0.0376419 -0.00574507 0)
(0.0378975 -0.00571908 8.03986e-22)
(0.0381534 -0.00568309 -9.19394e-22)
(0.0384094 -0.00563689 0)
(0.0386652 -0.0055803 0)
(0.0389204 -0.00551319 1.11562e-21)
(0.0391748 -0.00543544 1.33765e-22)
(0.039428 -0.00534693 -2.34744e-21)
(0.0396796 -0.00524756 -2.53335e-21)
(0.039929 -0.00513724 2.59905e-21)
(0.0401758 -0.00501588 1.35784e-21)
(0.0404195 -0.00488339 5.89714e-21)
(0.0406596 -0.0047397 6.76464e-23)
(0.0408954 -0.00458473 -1.68604e-21)
(0.0411264 -0.00441843 3.22834e-21)
(0.0413521 -0.00424076 -1.71961e-21)
(0.0415719 -0.00405169 3.48183e-21)
(0.0417855 -0.00385119 0)
(0.0419922 -0.00363927 0)
(0.0421915 -0.00341592 0)
(0.042383 -0.00318114 -9.87162e-22)
(0.0425661 -0.00293495 -2.06198e-21)
(0.0427403 -0.00267733 2.12994e-21)
(0.0429051 -0.00240828 2.24842e-21)
(0.0430601 -0.00212783 -2.26445e-21)
(0.0432046 -0.00183591 0)
(0.0433381 -0.00153243 1.22473e-21)
(0.0434602 -0.00121798 -6.28407e-22)
(0.04357 -0.000891986 0)
(0.0436677 -0.000552337 6.60555e-22)
(0.043752 -0.000204882 -1.24801e-22)
(0.0438224 0.00014898 8.29983e-23)
(0.0438787 0.000512913 -3.25806e-22)
(0.0439201 0.000887125 0)
(0.043946 0.00127171 -1.343e-21)
(0.0439557 0.00166678 1.32716e-21)
(0.0439486 0.00207246 0)
(0.043924 0.00248891 -8.05053e-23)
(0.0438813 0.00291633 5.94795e-23)
(0.0438196 0.00335493 2.57231e-21)
(0.0437384 0.00380492 0)
(0.0436366 0.00426658 -1.46753e-22)
(0.0435134 0.00474031 -2.54449e-21)
(0.0433678 0.00522657 -7.90343e-21)
(0.0431985 0.00572595 -1.6362e-22)
(0.0430044 0.00623914 5.02786e-21)
(0.0427838 0.00676697 0)
(0.0425348 0.00731037 0)
(0.0422557 0.00787009 5.27636e-21)
(0.0419462 0.00844628 0)
(0.041606 0.00903902 0)
(0.0412307 0.00965009 -1.59526e-22)
(0.040808 0.0102843 -5.08011e-21)
(0.0403241 0.010946 -1.03325e-20)
(0.0397852 0.0116334 1.03392e-20)
(0.0392283 0.0123384 -6.62662e-22)
(0.0386826 0.0130579 4.75836e-21)
(0.0381719 0.0137544 5.07934e-21)
(0.0375083 0.0145996 0)
(0.0350506 -0.00591345 0)
(0.035298 -0.00597406 -1.88296e-22)
(0.0355469 -0.00602889 8.66741e-22)
(0.0357998 -0.00607707 -2.50815e-22)
(0.0360561 -0.00611663 0)
(0.0363155 -0.00614704 -1.50157e-21)
(0.0365779 -0.00616794 2.73869e-21)
(0.0368428 -0.00617902 1.48275e-22)
(0.03711 -0.00618012 -3.42954e-21)
(0.0373791 -0.00617117 6.59781e-22)
(0.0376494 -0.00615205 -8.54461e-22)
(0.0379207 -0.00612257 -9.24461e-22)
(0.0381922 -0.00608253 2.93637e-21)
(0.0384636 -0.00603174 -4.1247e-21)
(0.0387345 -0.00597001 2.12465e-21)
(0.0390046 -0.00589721 -1.26973e-21)
(0.0392733 -0.00581321 4.92997e-21)
(0.0395404 -0.00571789 -1.189e-21)
(0.0398055 -0.00561114 1.47285e-21)
(0.040068 -0.00549288 -1.33535e-21)
(0.0403277 -0.00536303 1.38032e-22)
(0.0405839 -0.00522151 -9.39246e-21)
(0.0408363 -0.00506826 -1.72284e-21)
(0.0410842 -0.00490323 -1.33229e-22)
(0.0413272 -0.00472639 5.27537e-21)
(0.0415646 -0.00453771 -1.7821e-21)
(0.041796 -0.00433719 3.85607e-21)
(0.0420209 -0.00412482 -5.88237e-21)
(0.0422386 -0.00390062 0)
(0.0424486 -0.0036646 -2.12737e-21)
(0.0426505 -0.00341677 2.13545e-21)
(0.0428436 -0.00315717 6.01923e-23)
(0.0430275 -0.00288579 -1.18356e-21)
(0.0432016 -0.00260267 -1.21919e-21)
(0.0433654 -0.00230787 3.72346e-21)
(0.0435184 -0.00200127 -2.4867e-21)
(0.04366 -0.0016829 1.969e-21)
(0.0437896 -0.00135335 -2.65741e-21)
(0.0439067 -0.00101182 1.35412e-21)
(0.0440114 -0.000656567 -3.41929e-22)
(0.0441022 -0.000293983 0)
(0.044179 7.57349e-05 3.57453e-22)
(0.0442415 0.000455777 -3.5291e-22)
(0.0442888 0.000846309 -7.1459e-22)
(0.0443204 0.00124741 2.13376e-21)
(0.0443357 0.00165917 -1.44404e-21)
(0.0443341 0.00208173 -1.40961e-21)
(0.044315 0.00251523 0)
(0.0442777 0.00295987 -5.73359e-21)
(0.0442216 0.00341588 5.62734e-21)
(0.0441459 0.00388352 -2.72472e-21)
(0.0440499 0.00436315 2.70646e-21)
(0.0439326 0.00485517 2.85506e-21)
(0.0437929 0.0053601 5.47617e-21)
(0.0436297 0.00587857 5.38797e-21)
(0.0434416 0.00641138 0)
(0.043227 0.00695941 -5.66737e-21)
(0.0429845 0.00752349 0)
(0.0427135 0.00810408 1.60923e-22)
(0.0424137 0.00870149 -5.2901e-21)
(0.0420825 0.00931708 5.44264e-21)
(0.0417112 0.00995446 5.28313e-21)
(0.0412882 0.0106184 -5.6136e-21)
(0.0408123 0.0113098 -1.6658e-22)
(0.0403086 0.0120228 1.62836e-22)
(0.0398134 0.0127514 1.61585e-20)
(0.0393213 0.0134965 5.627e-21)
(0.0388107 0.0142387 5.44668e-21)
(0.0380327 0.0151553 -5.50271e-21)
(0.0348904 -0.00635235 0)
(0.0351567 -0.00641488 0)
(0.0354245 -0.00647133 6.77005e-22)
(0.0356962 -0.00652079 -1.03111e-21)
(0.0359705 -0.00656115 -4.69194e-22)
(0.0362472 -0.0065918 0)
(0.0365263 -0.00661234 0)
(0.0368074 -0.00662241 7.00605e-22)
(0.0370905 -0.00662183 -1.58018e-21)
(0.0373753 -0.00661052 -2.10988e-22)
(0.0376616 -0.00658835 4.45824e-21)
(0.0379489 -0.00655516 -9.19282e-22)
(0.0382366 -0.00651077 1.08684e-21)
(0.0385243 -0.00645499 -2.15023e-21)
(0.0388114 -0.00638768 1.22299e-21)
(0.0390973 -0.00630869 0)
(0.0393818 -0.0062179 0)
(0.0396642 -0.0061152 7.12697e-23)
(0.0399442 -0.00600049 -4.37792e-21)
(0.0402213 -0.00587368 1.49832e-21)
(0.0404951 -0.00573469 -1.65835e-21)
(0.040765 -0.00558349 1.63546e-21)
(0.0410306 -0.00542 1.77048e-21)
(0.0412914 -0.00524422 -1.6958e-21)
(0.0415469 -0.00505613 -1.84069e-21)
(0.0417965 -0.00485571 0)
(0.0420398 -0.00464299 0)
(0.0422761 -0.00441798 3.12724e-21)
(0.0425049 -0.00418072 0)
(0.0427258 -0.00393125 2.27445e-21)
(0.042938 -0.0036696 -2.28223e-21)
(0.0431412 -0.00339582 -1.162e-21)
(0.0433347 -0.00310995 1.19726e-21)
(0.0435181 -0.00281206 2.53389e-21)
(0.0436908 -0.00250222 -1.26865e-21)
(0.0438522 -0.00218033 -1.35279e-21)
(0.0440019 -0.00184647 1.40035e-21)
(0.0441393 -0.00150128 0)
(0.0442638 -0.00114363 0)
(0.0443755 -0.000772257 3.83694e-22)
(0.044473 -0.000394161 0)
(0.0445565 -8.05765e-06 0)
(0.0446254 0.000388615 -1.14692e-21)
(0.0446789 0.000795957 1.52565e-21)
(0.0447165 0.00121402 -7.75564e-22)
(0.0447377 0.00164289 1.46847e-21)
(0.044742 0.00208269 0)
(0.0447287 0.00253357 4.56583e-21)
(0.0446972 0.00299573 -6.61643e-23)
(0.0446469 0.00346943 0)
(0.044577 0.00395497 -5.98032e-21)
(0.0444868 0.00445273 -7.70334e-23)
(0.0443752 0.00496317 -5.85232e-21)
(0.0442413 0.00548686 -3.04744e-21)
(0.044084 0.00602449 -5.91704e-21)
(0.0439019 0.00657689 5.87489e-21)
(0.0436938 0.00714485 5.70814e-21)
(0.0434593 0.00772901 0)
(0.0431978 0.00832989 -5.84704e-21)
(0.0429077 0.00894865 1.56867e-22)
(0.042583 0.00958826 0)
(0.0422142 0.0102529 0)
(0.0417986 0.0109449 5.64406e-21)
(0.0413515 0.0116608 0)
(0.0409051 0.0123948 0)
(0.0404699 0.0131474 -5.81819e-21)
(0.0399945 0.0139227 -5.43663e-21)
(0.0394284 0.0147265 -6.07798e-21)
(0.0384701 0.015664 0)
(0.0347197 -0.0068248 0)
(0.0350047 -0.00688907 0)
(0.0352919 -0.00694691 0)
(0.0355833 -0.00699738 -4.33419e-22)
(0.0358775 -0.00703824 -6.0078e-22)
(0.0361737 -0.00706883 -1.72002e-22)
(0.0364719 -0.00708874 1.23072e-21)
(0.0367715 -0.00709756 -7.14176e-22)
(0.0370725 -0.00709508 8.4547e-22)
(0.0373749 -0.00708118 1.79362e-21)
(0.0376784 -0.00705573 0)
(0.0379828 -0.00701857 0)
(0.0382876 -0.00696951 -7.97919e-23)
(0.0385922 -0.00690837 3.56862e-21)
(0.0388962 -0.00683501 -5.20957e-21)
(0.039199 -0.00674932 -1.64446e-22)
(0.0395001 -0.00665117 2.78212e-21)
(0.0397991 -0.00654048 1.46528e-21)
(0.0400952 -0.00641715 -9.2111e-23)
(0.0403882 -0.00628112 0)
(0.0406773 -0.00613231 3.46731e-21)
(0.0409622 -0.00597071 0)
(0.0412424 -0.00579627 3.76429e-21)
(0.0415172 -0.00560899 -5.88308e-21)
(0.0417862 -0.00540888 6.06685e-21)
(0.0420488 -0.00519596 2.16295e-21)
(0.0423046 -0.00497026 -3.33049e-21)
(0.042553 -0.00473183 3.4031e-21)
(0.0427935 -0.00448072 -2.28858e-21)
(0.0430255 -0.004217 0)
(0.0432484 -0.00394075 -2.50604e-21)
(0.0434619 -0.00365202 -1.37581e-21)
(0.0436652 -0.00335089 2.59187e-21)
(0.0438581 -0.00303747 -2.70382e-21)
(0.0440397 -0.00271182 1.40348e-21)
(0.0442098 -0.00237387 -1.4127e-21)
(0.0443677 -0.00202382 -7.14501e-22)
(0.0445129 -0.00166223 7.74569e-22)
(0.0446449 -0.0012877 3.8226e-22)
(0.0447639 -0.00089961 -1.17429e-21)
(0.0448682 -0.00050555 -1.0261e-22)
(0.0449584 -0.000102516 0)
(0.0450337 0.000311241 3.89958e-22)
(0.0450935 0.000735779 -7.80273e-22)
(0.0451372 0.00117114 7.80226e-22)
(0.0451644 0.00161742 0)
(0.0451745 0.00207472 0)
(0.0451669 0.00254322 1.65345e-21)
(0.045141 0.00302314 -3.17654e-21)
(0.0450963 0.00351473 -6.47073e-21)
(0.0450319 0.00401835 1.27145e-20)
(0.0449471 0.00453438 -3.25281e-21)
(0.044841 0.00506333 3.15171e-21)
(0.0447128 0.0056058 3.06806e-21)
(0.0445613 0.00616251 -6.30226e-21)
(0.0443857 0.00673421 6.25678e-21)
(0.0441856 0.00732154 0)
(0.0439604 0.00792516 -6.42245e-21)
(0.0437088 0.00854622 1.75357e-22)
(0.0434264 0.00918716 6.20302e-21)
(0.0431064 0.0098516 0)
(0.0427454 0.010542 0)
(0.0423547 0.0112571 0)
(0.0419581 0.0119917 1.25927e-20)
(0.0415731 0.0127451 6.41625e-21)
(0.0411651 0.0135249 6.04587e-21)
(0.0406532 0.0143405 -1.22989e-20)
(0.0399753 0.0152051 -4.25883e-22)
(0.0388558 0.0162043 6.64217e-21)
(0.0345418 -0.00733368 0)
(0.0348453 -0.00739961 -6.63884e-22)
(0.0351515 -0.00745868 8.52768e-22)
(0.0354629 -0.00750992 -8.11655e-22)
(0.0357774 -0.00755097 1.57421e-21)
(0.0360944 -0.00758116 6.59968e-22)
(0.0364132 -0.00760005 7.48152e-22)
(0.0367333 -0.00760721 0)
(0.0370544 -0.00760242 -1.78328e-21)
(0.0373764 -0.00758555 -1.97332e-21)
(0.0376991 -0.00755644 2.02251e-21)
(0.0380222 -0.0075149 -1.17775e-21)
(0.0383453 -0.00746074 1.34721e-21)
(0.0386681 -0.0073938 -1.0865e-21)
(0.03899 -0.00731391 -5.62082e-21)
(0.0393105 -0.00722098 -1.75812e-22)
(0.0396291 -0.0071149 -1.74379e-22)
(0.0399454 -0.00699559 3.16245e-21)
(0.0402586 -0.00686298 1.6564e-21)
(0.0405683 -0.00671702 3.65039e-21)
(0.0408739 -0.00655766 -3.53113e-21)
(0.0411748 -0.0063849 0)
(0.0414705 -0.00619872 1.1593e-22)
(0.0417604 -0.00599915 0)
(0.042044 -0.0057862 -2.11617e-21)
(0.0423207 -0.00555994 -2.19229e-21)
(0.04259 -0.00532042 1.1342e-21)
(0.0428513 -0.0050677 0)
(0.0431042 -0.00480189 1.27972e-21)
(0.043348 -0.00452307 2.60078e-21)
(0.0435823 -0.00423135 -2.60773e-21)
(0.0438065 -0.00392681 1.32552e-21)
(0.0440202 -0.00360958 -2.83509e-21)
(0.0442228 -0.00327979 5.70863e-21)
(0.0444138 -0.00293751 -1.46488e-21)
(0.0445926 -0.00258271 0)
(0.0447589 -0.00221574 -8.03594e-22)
(0.0449121 -0.00183701 4.35723e-23)
(0.0450516 -0.00144489 1.23081e-21)
(0.0451778 -0.00103975 -1.04943e-21)
(0.045289 -0.000629136 2.04306e-22)
(0.0453859 -0.00020863 -6.44974e-22)
(0.0454675 0.000222717 4.21779e-22)
(0.0455334 0.000664939 0)
(0.045583 0.00111807 0)
(0.0456158 0.00158219 0)
(0.0456314 0.00205741 1.74687e-21)
(0.0456291 0.00254391 1.74519e-21)
(0.0456085 0.00304189 0)
(0.0455689 0.00355165 3.37844e-21)
(0.0455096 0.00407351 3.55044e-21)
(0.0454301 0.0046079 3.4666e-21)
(0.0453295 0.00515533 0)
(0.0452071 0.00571645 0)
(0.0450623 0.0062919 -6.70626e-21)
(0.0448945 0.00688231 6.65706e-21)
(0.0447035 0.00748836 0)
(0.0444879 0.00811121 6.45857e-21)
(0.0442445 0.00875298 -6.44404e-21)
(0.0439682 0.00941668 -6.81145e-21)
(0.0436568 0.0101047 6.6182e-21)
(0.0433183 0.0108163 -6.58749e-21)
(0.0429726 0.011548 0)
(0.0426331 0.0122979 -6.39723e-21)
(0.0422821 0.0130734 2.12998e-22)
(0.0418434 0.0138864 -1.34724e-20)
(0.0412444 0.0147512 -1.36599e-20)
(0.0404294 0.0156724 1.33794e-20)
(0.0392689 0.0166932 -6.64507e-21)
(0.0343587 -0.00788215 -1.2382e-22)
(0.034681 -0.00794966 0)
(0.0350064 -0.00800983 -2.00086e-22)
(0.0353377 -0.00806166 1.36857e-21)
(0.0356728 -0.00810266 -2.68806e-21)
(0.0360108 -0.00813211 6.23909e-22)
(0.036351 -0.00814958 -7.62769e-22)
(0.0366926 -0.00815465 1.85954e-21)
(0.0370353 -0.00814707 -9.04307e-22)
(0.0373786 -0.0081267 -1.02624e-21)
(0.0377224 -0.00809339 -1.18883e-21)
(0.0380662 -0.00804694 3.7684e-21)
(0.0384095 -0.00798713 -1.18282e-21)
(0.0387521 -0.00791379 4.37487e-21)
(0.0390933 -0.00782678 1.64252e-21)
(0.0394328 -0.00772598 1.87955e-22)
(0.03977 -0.00761129 -3.24199e-21)
(0.0401045 -0.00748266 0)
(0.0404356 -0.00734002 0)
(0.0407628 -0.00718335 -1.98039e-21)
(0.0410856 -0.00701262 -1.94761e-21)
(0.0414033 -0.00682785 -4.26073e-21)
(0.0417153 -0.00662905 2.14147e-21)
(0.0420211 -0.00641626 4.58848e-21)
(0.0423201 -0.00618955 -4.58279e-21)
(0.0426117 -0.00594899 1.24437e-21)
(0.0428953 -0.00569467 1.2864e-21)
(0.0431703 -0.00542671 0)
(0.0434363 -0.00514521 -1.29538e-21)
(0.0436927 -0.00485032 -2.7822e-21)
(0.0439389 -0.00454216 -7.51275e-23)
(0.0441745 -0.00422087 2.87212e-21)
(0.0443989 -0.0038866 -1.53969e-21)
(0.0446116 -0.00353954 0)
(0.0448122 -0.00317975 8.12781e-22)
(0.045 -0.00280726 -8.34506e-22)
(0.0451749 -0.00242258 8.10772e-22)
(0.045336 -0.00202588 -1.7105e-21)
(0.0454832 -0.00161537 0)
(0.0456165 -0.00119298 -2.30091e-22)
(0.0457346 -0.000764843 2.24593e-22)
(0.045838 -0.000326252 -3.49282e-22)
(0.0459258 0.000123247 1.3535e-21)
(0.0459975 0.000583659 -2.70928e-21)
(0.0460526 0.00105501 1.79304e-21)
(0.0460908 0.00153736 1.81309e-21)
(0.0461115 0.00203083 -1.69525e-21)
(0.0461143 0.00253558 3.71799e-21)
(0.0460987 0.00305182 -3.58315e-21)
(0.0460642 0.00357983 -8.9555e-21)
(0.0460102 0.00411995 8.11229e-23)
(0.0459362 0.00467262 -3.48588e-21)
(0.0458416 0.00523837 0)
(0.045726 0.00581779 0)
(0.0455888 0.00641142 -7.12989e-21)
(0.0454299 0.00701995 1.05372e-20)
(0.0452479 0.00764449 -7.06077e-21)
(0.0450403 0.00828695 0)
(0.0448036 0.0089498 7.25304e-21)
(0.0445366 0.00963493 1.38876e-20)
(0.0442463 0.010342 -6.8137e-21)
(0.043948 0.0110681 -2.93098e-23)
(0.0436537 0.0118122 6.98409e-21)
(0.0433463 0.012579 -1.90909e-22)
(0.0429725 0.0133833 -1.40726e-20)
(0.0424459 0.0142351 1.39683e-20)
(0.041747 0.0151507 6.97262e-21)
(0.0408571 0.0161102 0)
(0.0398936 0.0172167 0)
(0.0341706 -0.00847367 1.26449e-22)
(0.034513 -0.00854273 1.04248e-21)
(0.0348587 -0.00860389 -8.36402e-22)
(0.0352105 -0.00865615 0)
(0.0355665 -0.00869685 -3.22072e-22)
(0.0359259 -0.00872526 -1.64499e-21)
(0.0362878 -0.00874095 1.17763e-21)
(0.0366515 -0.00874347 -2.535e-21)
(0.0370165 -0.00873259 2.01574e-21)
(0.0373823 -0.00870817 0)
(0.0377485 -0.00867004 5.62811e-22)
(0.0381145 -0.00861802 0)
(0.0384798 -0.00855189 1.58347e-21)
(0.0388438 -0.00847145 -4.43833e-21)
(0.0392061 -0.00837657 0)
(0.0395662 -0.00826714 0)
(0.0399236 -0.00814306 0)
(0.0402776 -0.00800428 -2.90463e-21)
(0.0406278 -0.00785076 3.86324e-21)
(0.0409737 -0.00768249 2.01017e-21)
(0.0413145 -0.00749946 0)
(0.0416498 -0.00730172 0)
(0.0419789 -0.0070893 0)
(0.0423013 -0.0068623 -6.17638e-21)
(0.0426162 -0.00662079 7.47207e-21)
(0.0429232 -0.00636489 -3.80852e-21)
(0.0432217 -0.00609473 -2.68274e-21)
(0.043511 -0.00581046 2.80692e-21)
(0.0437905 -0.00551224 -2.80887e-21)
(0.0440599 -0.00520023 1.51244e-21)
(0.0443184 -0.00487462 -3.06277e-21)