/*--------------------------------*- C++ -*----------------------------------*\
| =========                 |                                                 |
| \\      /  F ield         | OpenFOAM: The Open Source CFD Toolbox           |
|  \\    /   O peration     | Version:  2312                                  |
|   \\  /    A nd           | Website:  www.openfoam.com                      |
|    \\/     M anipulation  |                                                 |
\*---------------------------------------------------------------------------*/
FoamFile
{
    version     2.0;
    format      ascii;
    arch        "LSB;label=32;scalar=64";
    class       volScalarField;
    location    "1400";
    object      epsilon;
}
// * * * * * * * * * * * * * * * * * * * * * * * * * * * * * * * * * * * * * //

dimensions      [0 2 -3 0 0 0 0];

internalField   nonuniform List<scalar> 
76025
(
0.000247125
0.000246278
0.00024542
0.000244774
0.000244193
0.000243777
0.000243212
0.000242605
0.000241752
0.000240923
0.000240144
0.000239343
0.000238531
0.000237626
0.000236908
0.000236079
0.000235325
0.000234672
0.0002339
0.000233279
0.000232658
0.000232133
0.000231626
0.000231245
0.000230914
0.000230512
0.000230393
0.000230115
0.000229979
0.000229949
0.000229817
0.000229716
0.000229891
0.000229778
0.000229852
0.000229981
0.000230249
0.000231174
0.000231635
0.000232299
0.000233169
0.000234213
0.000236029
0.000237737
0.000239664
0.000241448
0.00024357
0.000245761
0.000247693
0.000249213
0.000251063
0.000252475
0.00025512
0.000257298
0.00026019
0.000261839
0.000264702
0.000269245
0.000271763
0.000275842
0.00028667
0.000295371
0.000315018
0.000328379
0.000360329
0.000383647
0.000432735
0.000490284
0.000554121
0.000249582
0.000248815
0.000247907
0.000247088
0.000246253
0.000245668
0.000245081
0.000244605
0.000244099
0.000243462
0.000242853
0.000242122
0.000241481
0.00024068
0.000240016
0.000239248
0.000238543
0.000237884
0.000237279
0.000236708
0.000236239
0.000235811
0.000235486
0.000235216
0.000235077
0.000234901
0.000234922
0.000234905
0.000235011
0.00023521
0.000235421
0.000235553
0.000235542
0.000235952
0.00023644
0.000237055
0.000237827
0.000238334
0.000238965
0.000239673
0.000241575
0.000242438
0.000243321
0.000244402
0.000245516
0.000247604
0.000249143
0.000253842
0.000255826
0.000256848
0.000256987
0.00025719
0.000261513
0.000262269
0.000264206
0.000265548
0.000268019
0.000271217
0.000279927
0.000286856
0.000302656
0.000313499
0.000337597
0.000354807
0.000394231
0.000423
0.000490162
0.00053866
0.000692194
0.000251781
0.000251364
0.000250761
0.000250093
0.000249334
0.000248604
0.000247937
0.000247329
0.000246843
0.000246326
0.000245871
0.000245313
0.000244799
0.00024421
0.000243643
0.000243065
0.000242491
0.00024192
0.000241401
0.000240879
0.000240413
0.000239997
0.000239646
0.000239312
0.000239284
0.00023931
0.000239345
0.000239476
0.000239658
0.000239648
0.000239908
0.000240105
0.000240271
0.000240729
0.000241144
0.000241776
0.000242515
0.000243315
0.000244257
0.000245586
0.000247688
0.000249192
0.000250951
0.000252484
0.000253433
0.00025344
0.000254199
0.000256087
0.000258771
0.000262847
0.000265433
0.00026827
0.000269923
0.000270467
0.000269645
0.000271095
0.000279029
0.000284495
0.00029721
0.000305584
0.000324189
0.000336809
0.00036507
0.000385121
0.000429829
0.000463496
0.000541191
0.000602168
0.000784969
0.000254017
0.000253873
0.000253615
0.000253262
0.000252799
0.000252239
0.000251641
0.00025101
0.000250443
0.000249885
0.000249396
0.000248932
0.000248466
0.000248025
0.000247578
0.000247173
0.000246748
0.000246318
0.000245921
0.000245507
0.000245104
0.000244682
0.000244339
0.000243906
0.000243819
0.000243718
0.000244194
0.000244387
0.000244171
0.000245124
0.000245519
0.000245385
0.000246732
0.000247334
0.000247451
0.00024821
0.000248539
0.000251015
0.000252143
0.000252131
0.00025533
0.000254257
0.00025781
0.000257271
0.000257583
0.000259226
0.000261071
0.000265648
0.000268488
0.000271564
0.00027365
0.000274412
0.000272731
0.000274238
0.000279417
0.000284937
0.000294047
0.00030167
0.0003157
0.000326188
0.000347684
0.00036273
0.000396452
0.00042011
0.000473934
0.000515321
0.000611713
0.000687672
0.000918463
0.000257048
0.000256886
0.000256758
0.000256633
0.000256483
0.000256218
0.000255894
0.000255492
0.000255047
0.000254581
0.000254109
0.000253661
0.000253226
0.000252797
0.000252373
0.000251961
0.000251608
0.000251204
0.000250915
0.000250562
0.000250304
0.000250001
0.000249715
0.000249795
0.000249557
0.000249393
0.000250063
0.000249811
0.000249683
0.000249671
0.00025012
0.000250013
0.000251895
0.000252753
0.00025305
0.000254015
0.000254809
0.000255534
0.000257501
0.00025837
0.000262189
0.000263102
0.000265154
0.000264232
0.0002651
0.0002678
0.000269805
0.000276483
0.000277769
0.000280564
0.000278502
0.00027917
0.000282926
0.000287876
0.000294811
0.000302331
0.000312428
0.000323138
0.000337845
0.000353142
0.000375696
0.000396825
0.00043518
0.000463893
0.000531241
0.000582276
0.000701252
0.000799368
0.00107168
0.000261494
0.000261156
0.00026091
0.000260781
0.000260627
0.000260789
0.000260584
0.000260381
0.000260122
0.000259845
0.000259574
0.000259268
0.000258938
0.00025859
0.000258242
0.000257897
0.000257452
0.000257563
0.000257113
0.000257433
0.000257212
0.000256926
0.000257447
0.000256915
0.000257421
0.000257006
0.000257994
0.000258252
0.000257805
0.000259123
0.000259562
0.000259005
0.000260352
0.000260503
0.000263105
0.000264238
0.000263805
0.000263314
0.000263997
0.000264987
0.000267011
0.000268462
0.00027163
0.000274138
0.00027729
0.000278524
0.000284671
0.00028709
0.000284898
0.000285265
0.000288375
0.000292776
0.00029881
0.00030547
0.000314059
0.000323332
0.000335367
0.000348548
0.000365669
0.000385002
0.000410484
0.000438797
0.000481533
0.000521308
0.000602891
0.000666992
0.000820946
0.000950882
0.00123431
0.000267613
0.000267177
0.000266784
0.000266518
0.000266197
0.000266491
0.000266575
0.000266606
0.000266642
0.0002663
0.000265857
0.000265558
0.000265256
0.00026507
0.000264714
0.000264496
0.000263989
0.000264353
0.000264661
0.000264825
0.000264459
0.000265171
0.000264747
0.000264389
0.000264437
0.000264568
0.000265496
0.00026665
0.000267375
0.000266614
0.000268733
0.000269435
0.00026834
0.000268022
0.000268814
0.000269605
0.00027127
0.000272294
0.000275319
0.000276735
0.000281861
0.000284119
0.000286762
0.000289085
0.000287853
0.000287092
0.000288576
0.000291289
0.000295174
0.000299736
0.000305401
0.000311573
0.000319232
0.000327454
0.000337903
0.000349141
0.000363701
0.000379651
0.000400321
0.000424101
0.000454455
0.000491273
0.000541002
0.000597573
0.000695231
0.00078203
0.000987082
0.00114012
0.00157415
0.000275298
0.000274901
0.000274504
0.000274178
0.000273893
0.000273565
0.000273927
0.000273562
0.000274171
0.000273683
0.000274131
0.000274385
0.000274393
0.000273941
0.00027447
0.000274639
0.000274749
0.000274785
0.000274446
0.000274553
0.000274417
0.000275777
0.000276218
0.000276804
0.00027719
0.000277761
0.000278242
0.000277318
0.000277154
0.000277142
0.00027834
0.00027935
0.000280759
0.000282189
0.000282985
0.000286937
0.00028868
0.000290717
0.000288345
0.000293199
0.000291353
0.000291154
0.000292509
0.000294686
0.000297511
0.000300852
0.000304915
0.000309445
0.000314828
0.000320655
0.000327714
0.000335233
0.000344648
0.00035456
0.000367454
0.000380891
0.000399067
0.000417954
0.00044426
0.00047254
0.000511569
0.000558066
0.000619509
0.00070161
0.000812844
0.000955004
0.00118417
0.00140828
0.00183663
0.000285551
0.000285149
0.000284563
0.000284109
0.000283839
0.000283442
0.000283398
0.000283535
0.00028329
0.000283957
0.000283885
0.000283735
0.000284825
0.000285081
0.000285402
0.000284536
0.000285562
0.000285877
0.000285277
0.000285145
0.000285401
0.000286145
0.000286516
0.000287122
0.000287792
0.000289223
0.000290007
0.00029111
0.000291293
0.000293208
0.000294324
0.000294935
0.000298931
0.000300477
0.000302395
0.000299617
0.000304581
0.000302253
0.000301407
0.000302437
0.000304257
0.000306747
0.000309792
0.000313286
0.000317354
0.000321855
0.000327103
0.000332792
0.000339515
0.000346665
0.000355409
0.000364574
0.000376243
0.000388304
0.000404349
0.000420682
0.000443576
0.000466432
0.000500614
0.000534535
0.000587989
0.000644103
0.000731611
0.000834964
0.000987087
0.00117407
0.00146222
0.00172858
0.00232462
0.000297757
0.000298099
0.000297647
0.0002975
0.000296879
0.000297203
0.000297365
0.000297328
0.00029745
0.00029756
0.000297735
0.000297863
0.00029767
0.000297507
0.000298861
0.00029921
0.000299172
0.000299178
0.000300819
0.000301414
0.000301274
0.000303552
0.00030284
0.000304596
0.000304738
0.000305422
0.000307233
0.000309105
0.000309952
0.000314255
0.000315751
0.000317511
0.000314047
0.000318663
0.000315876
0.00031462
0.000315438
0.000317026
0.000319217
0.00032193
0.000325136
0.000328802
0.000332947
0.000337517
0.000342714
0.000348382
0.000354947
0.000362003
0.000370392
0.000379207
0.000390138
0.00040141
0.000416051
0.000430922
0.000451142
0.000471497
0.000500598
0.000529635
0.000574118
0.000617963
0.000690734
0.000763206
0.000887213
0.00101915
0.00122688
0.00147375
0.00179704
0.00223101
0.00267907
0.000313925
0.000314035
0.000314308
0.000314344
0.000314419
0.000313786
0.000312969
0.00031393
0.000314138
0.000313746
0.000314795
0.000313919
0.000315075
0.000314729
0.000316652
0.000317221
0.000317044
0.000316651
0.000318979
0.000319562
0.000320348
0.000318238
0.000320286
0.000318879
0.000318589
0.000319287
0.000320222
0.000321768
0.000322959
0.000324673
0.000325823
0.000327472
0.000328794
0.00033068
0.000332639
0.0003349
0.000337585
0.000340659
0.000344135
0.000348002
0.00035232
0.00035711
0.000362425
0.000368235
0.000374784
0.000381907
0.000390131
0.000398954
0.000409488
0.000420506
0.000434301
0.000448399
0.000467029
0.000485752
0.000511753
0.000537902
0.000575807
0.00061454
0.000673467
0.000734277
0.000832889
0.000932876
0.00110495
0.00127183
0.00156656
0.00183371
0.00231314
0.00268228
0.00347034
0.000333844
0.000333508
0.000332972
0.00033426
0.000334547
0.000335189
0.000335325
0.000334601
0.000336056
0.000336436
0.000336967
0.000337155
0.000336116
0.000336029
0.00033698
0.000338075
0.000339396
0.000339671
0.000342108
0.000343039
0.00034352
0.000346962
0.000348092
0.000349234
0.000345555
0.000348809
0.000346376
0.000345619
0.000346323
0.000347775
0.000349773
0.000352021
0.000354565
0.000357401
0.000360532
0.000364009
0.000367838
0.000372037
0.000376651
0.000381697
0.000387254
0.000393375
0.000400124
0.000407498
0.000415772
0.000424797
0.00043518
0.000446371
0.000459726
0.00047379
0.000491431
0.000509561
0.000533736
0.000558134
0.000592593
0.000627518
0.000678906
0.000732607
0.000813457
0.000900749
0.00103439
0.00117823
0.00140313
0.00163184
0.00199953
0.00233839
0.00290007
0.00337028
0.00414094
0.000358875
0.000358784
0.000359165
0.000359622
0.000360019
0.000360644
0.000362503
0.000363065
0.000362655
0.000362363
0.000364484
0.000364959
0.000364593
0.000363879
0.000366669
0.000367223
0.000368226
0.000365587
0.000368647
0.000366861
0.000366193
0.000367016
0.000367806
0.000369103
0.000370089
0.000371655
0.000373255
0.000375138
0.000377378
0.000379955
0.000382858
0.000386072
0.000389606
0.000393479
0.000397707
0.000402337
0.000407362
0.000412827
0.00041879
0.000425283
0.000432405
0.000440241
0.000448861
0.000458312
0.000468886
0.000480508
0.000493821
0.000508361
0.000525605
0.00054414
0.000567223
0.000591556
0.000623847
0.000657326
0.00070466
0.000753691
0.000826172
0.000902719
0.00101745
0.00114153
0.00132561
0.00152486
0.00181627
0.00211894
0.00256392
0.00298445
0.0036358
0.00415755
0.00508234
0.000391205
0.000391529
0.000390138
0.000389429
0.000390074
0.000390885
0.000393047
0.000394764
0.000397346
0.000398517
0.000402663
0.000404203
0.000405262
0.000404961
0.00040445
0.000408824
0.000409817
0.000410702
0.0004057
0.000408828
0.000405258
0.000403708
0.000404128
0.000405574
0.000407559
0.000409957
0.000412681
0.000415717
0.000419068
0.000422741
0.000426751
0.00043111
0.00043585
0.000440984
0.000446568
0.000452613
0.000459152
0.000466246
0.000473974
0.000482389
0.000491621
0.000501794
0.000513
0.000525359
0.000539192
0.000554565
0.00057213
0.000591685
0.000614724
0.000640244
0.000671633
0.000706096
0.000750986
0.000799688
0.000866963
0.000939186
0.00104342
0.00115463
0.00131783
0.00149084
0.00174265
0.00200517
0.00238019
0.00275702
0.00329041
0.00379214
0.00452052
0.00512994
0.00611302
0.000430253
0.000430794
0.000433799
0.000434388
0.00043488
0.000433899
0.000433101
0.000433354
0.000434455
0.000435786
0.000437073
0.000438425
0.000439307
0.000440517
0.000441268
0.000442714
0.000443657
0.000445041
0.000445927
0.000447494
0.00044907
0.000450983
0.000453343
0.000456123
0.000459278
0.000462784
0.000466635
0.000470835
0.000475398
0.000480345
0.000485696
0.000491488
0.000497746
0.000504523
0.000511853
0.000519774
0.000528353
0.000537678
0.00054786
0.000558987
0.000571245
0.000584812
0.000599836
0.000616551
0.000635351
0.000656523
0.000680786
0.000708363
0.000740775
0.000777831
0.000822817
0.000874222
0.000939419
0.00101326
0.0011111
0.00121976
0.00136901
0.00153016
0.00175616
0.00199197
0.00232473
0.00265747
0.00312782
0.00357265
0.00420844
0.00476935
0.00559051
0.00627488
0.00726625
0.000485725
0.000489088
0.00049059
0.000495694
0.000497103
0.000498362
0.000494343
0.000497387
0.000494537
0.000493427
0.000493787
0.000494913
0.000496308
0.000497986
0.000499763
0.000501774
0.000503908
0.00050628
0.000508839
0.000511678
0.000514796
0.000518223
0.000521985
0.000526098
0.000530575
0.000535432
0.00054069
0.000546373
0.000552511
0.000559138
0.000566299
0.000574029
0.000582402
0.000591454
0.000601248
0.000611874
0.000623441
0.000636082
0.000649968
0.000665253
0.000682221
0.000701148
0.0007223
0.000746097
0.000773109
0.000803946
0.000839526
0.000880665
0.000929039
0.000985461
0.00105328
0.00113238
0.00122973
0.00134241
0.00148489
0.00164579
0.00185452
0.00208121
0.00238196
0.00269269
0.00311265
0.00352137
0.00408741
0.00459522
0.00533976
0.0059232
0.00690362
0.00749814
0.00891441
0.000563301
0.000562192
0.000562263
0.000563698
0.000564837
0.000566364
0.000567308
0.000568835
0.000570253
0.000571906
0.000573878
0.000576154
0.000578669
0.000581417
0.000584376
0.00058757
0.000591004
0.000594705
0.000598693
0.000602995
0.000607637
0.000612644
0.000618042
0.000623861
0.000630131
0.000636884
0.000644162
0.000652007
0.000660471
0.000669612
0.00067949
0.000690203
0.000701794
0.00071437
0.000728067
0.000743035
0.00075946
0.000777565
0.000797629
0.000819931
0.000844929
0.000873071
0.000904843
0.000940956
0.000982292
0.00102988
0.00108501
0.00114914
0.00122424
0.00131213
0.00141608
0.00153755
0.00168268
0.00185
0.00205244
0.00228056
0.00256176
0.00286534
0.00324875
0.00363948
0.0041473
0.00463178
0.00528335
0.00585877
0.0066795
0.00732667
0.00836876
0.00905476
0.0104402
0.000664344
0.00066572
0.000667256
0.000669256
0.00067145
0.000673855
0.000676377
0.00067911
0.000682044
0.00068521
0.000688629
0.000692312
0.000696266
0.000700503
0.000705037
0.000709888
0.00071508
0.00072064
0.000726597
0.000732984
0.000739837
0.000747193
0.000755096
0.000763591
0.000772729
0.00078257
0.000793178
0.00080463
0.000817002
0.000830421
0.000844948
0.000860721
0.000877907
0.000896695
0.000917315
0.000940035
0.000965171
0.000993108
0.0010243
0.00105923
0.00109863
0.0011432
0.00119373
0.00125131
0.0013172
0.00139289
0.00148006
0.00158071
0.00169709
0.00183172
0.00198765
0.00216736
0.0023757
0.00261284
0.00288892
0.00319485
0.00355605
0.00394046
0.004408
0.00487394
0.00546727
0.00601319
0.00674879
0.00737062
0.00827553
0.00895748
0.0101128
0.0108205
0.0126381
0.000821179
0.000823961
0.000826838
0.000830091
0.000833616
0.000837379
0.000841384
0.000845658
0.000850224
0.000855107
0.000860331
0.000865922
0.000871906
0.000878313
0.000885176
0.000892531
0.000900418
0.00090888
0.000917966
0.000927729
0.000938228
0.000949529
0.000961703
0.000974828
0.000989
0.00100431
0.00102089
0.00103884
0.00105829
0.00107944
0.00110248
0.00112767
0.00115527
0.00118562
0.00121909
0.00125612
0.0012972
0.00134295
0.00139403
0.0014512
0.00151548
0.00158783
0.00166936
0.00176152
0.00186588
0.00198426
0.0021186
0.0022712
0.00244434
0.00264073
0.00286301
0.00311384
0.00339667
0.00371232
0.00406782
0.00445583
0.00489725
0.00535829
0.00590271
0.00643213
0.00710236
0.00769083
0.00850844
0.00916013
0.0101505
0.0108946
0.0121347
0.0130907
0.0147656
0.00106575
0.00107037
0.00107511
0.00108034
0.00108595
0.00109192
0.00109829
0.0011051
0.0011124
0.00112023
0.00112863
0.00113765
0.00114735
0.00115779
0.00116902
0.00118112
0.00119415
0.00120819
0.00122333
0.00123964
0.00125723
0.00127619
0.00129667
0.00131874
0.00134256
0.0013683
0.00139617
0.00142639
0.00145921
0.00149492
0.00153383
0.00157632
0.00162281
0.00167377
0.00172975
0.00179137
0.00185932
0.00193442
0.00201754
0.00210972
0.00221219
0.00232609
0.00245277
0.00259389
0.00275117
0.0029265
0.00312183
0.0033393
0.00358097
0.00384913
0.00414576
0.00447298
0.00483294
0.00522611
0.00565743
0.00611984
0.00663154
0.0071593
0.00776601
0.00834345
0.00908027
0.00969089
0.0106084
0.0112533
0.0124204
0.0131591
0.014801
0.0156558
0.0190001
0.00150268
0.00151219
0.00152181
0.00153205
0.00154279
0.00155401
0.00156579
0.00157821
0.00159135
0.00160528
0.00162007
0.00163582
0.0016526
0.00167052
0.00168966
0.00171011
0.00173201
0.00175548
0.0017807
0.00180776
0.00183704
0.00186871
0.00190295
0.00193994
0.00197989
0.00202304
0.00206966
0.00212005
0.00217454
0.00223352
0.00229743
0.00236676
0.00244206
0.00252396
0.00261315
0.00271043
0.00281666
0.00293282
0.00305993
0.00319919
0.00335191
0.00351929
0.00370269
0.00390373
0.00412396
0.00436503
0.0046285
0.00491603
0.00522907
0.00556914
0.00593749
0.00633524
0.00676377
0.00722259
0.00771602
0.00823629
0.0088013
0.00937827
0.0100311
0.0106471
0.0114383
0.0120816
0.0131116
0.0137898
0.0152095
0.0161157
0.0181867
0.0196139
0.0236458
0.00239565
0.0024139
0.00243225
0.00245134
0.00247101
0.00249127
0.00251221
0.00253397
0.00255666
0.00258038
0.00260527
0.00263145
0.00265904
0.00268822
0.00271905
0.00275202
0.00278733
0.00282514
0.00286564
0.00290904
0.00295538
0.00300492
0.00305795
0.00311477
0.00317571
0.00324112
0.0033114
0.00338695
0.00346825
0.0035558
0.00365016
0.00375195
0.00386186
0.00398062
0.00410907
0.00424809
0.00439864
0.00456178
0.00473853
0.00493011
0.00513767
0.0053622
0.00560485
0.00586691
0.0061495
0.00645376
0.00678062
0.00713106
0.00750577
0.00790548
0.00833083
0.00878199
0.00926043
0.00976466
0.0103006
0.0108581
0.011461
0.012071
0.0127645
0.0134227
0.0142809
0.0150113
0.0162108
0.0170463
0.0189703
0.0201817
0.0233486
0.025592
0.032549
0.00421806
0.00424744
0.00427713
0.00430786
0.00433927
0.00437134
0.00440418
0.00443788
0.00447262
0.00450854
0.00454582
0.00458463
0.00462512
0.00466747
0.00471195
0.00475845
0.00480722
0.00485857
0.00491282
0.00497034
0.00503147
0.00509655
0.00516597
0.00524014
0.00531948
0.00540447
0.0054956
0.00559341
0.00569846
0.0058114
0.00593281
0.0060635
0.00620409
0.00635554
0.00651861
0.0066944
0.00688373
0.00708776
0.00730737
0.00754363
0.00779739
0.0080693
0.00836007
0.00867039
0.00900066
0.0093514
0.00972279
0.0101154
0.0105291
0.0109647
0.0114225
0.011903
0.0124083
0.0129382
0.0135001
0.0140848
0.0147234
0.0153698
0.0161314
0.0168715
0.0178878
0.0188325
0.0203676
0.0217258
0.0243965
0.0264718
0.0318701
0.0362359
0.0455592
0.00772652
0.00776203
0.00779688
0.00783216
0.00786755
0.00790336
0.00793934
0.00797548
0.00801251
0.00805043
0.00808993
0.00813072
0.00817295
0.0082168
0.00826253
0.00831041
0.00836076
0.00841392
0.00847023
0.00853012
0.00859391
0.00866206
0.00873505
0.00881331
0.00889738
0.00898773
0.00908481
0.00918927
0.00930154
0.00942259
0.00955281
0.00969359
0.00984459
0.010008
0.0101836
0.0103737
0.0105775
0.010798
0.0110349
0.0112894
0.0115623
0.0118534
0.0121631
0.0124917
0.0128391
0.0132057
0.0135916
0.0139978
0.014424
0.0148728
0.0153441
0.0158418
0.0163668
0.0169269
0.0175237
0.018166
0.0188709
0.019621
0.0205394
0.0215209
0.0228967
0.0243428
0.0266225
0.0289451
0.0330999
0.0371796
0.0459586
0.0525463
0.0678
0.0136049
0.0136233
0.0136413
0.01366
0.0136791
0.0136987
0.0137182
0.0137377
0.0137584
0.0137791
0.0138006
0.0138226
0.0138453
0.0138693
0.0138948
0.0139223
0.0139521
0.0139844
0.0140192
0.0140576
0.0140975
0.0141421
0.014193
0.014249
0.0143133
0.0143834
0.0144587
0.0145405
0.0146264
0.0147208
0.0148266
0.014946
0.0150781
0.0152253
0.0153866
0.0155645
0.0157573
0.0159689
0.0161975
0.0164443
0.0167098
0.016994
0.0172967
0.0176179
0.0179579
0.018318
0.018699
0.0191048
0.0195355
0.019999
0.0204941
0.0210336
0.0216149
0.0222602
0.0229611
0.0237513
0.0246222
0.0256489
0.0269524
0.028513
0.030604
0.0331162
0.0365955
0.0409842
0.0475552
0.0558729
0.0685662
0.0794972
0.10035
0.0228563
0.0228487
0.0228419
0.0228369
0.0228331
0.0228295
0.0228264
0.0228239
0.0228215
0.0228183
0.0228139
0.0228091
0.0228041
0.0227994
0.0227953
0.0227917
0.022787
0.0227757
0.0227619
0.0227404
0.0226426
0.0226001
0.0225975
0.0225889
0.0226829
0.0227227
0.022747
0.02275
0.0226301
0.0225519
0.0225383
0.0225648
0.0226215
0.0226954
0.022789
0.0229036
0.0230404
0.023195
0.0233675
0.0235567
0.0237621
0.023985
0.0242307
0.0245035
0.0248105
0.0251575
0.0255508
0.0259987
0.0265042
0.0270796
0.0277165
0.0284463
0.0292419
0.0301551
0.0311409
0.0322462
0.0334755
0.0350781
0.0372334
0.0398423
0.0432779
0.0476212
0.0538497
0.062856
0.0752568
0.0921124
0.111635
0.133994
0.160669
0.0356247
0.0355842
0.0355427
0.0355056
0.035469
0.03543
0.035383
0.035339
0.0352939
0.0352487
0.0351996
0.0351515
0.0351049
0.0350641
0.0350259
0.0349874
0.0349425
0.0349011
0.0348612
0.0348222
0.0347815
0.0347443
0.0347116
0.0346827
0.0346615
0.0346438
0.0346262
0.0346087
0.0345887
0.034569
0.0345512
0.034526
0.0344769
0.0342033
0.0340175
0.0339759
0.0340169
0.0341105
0.0342476
0.0344257
0.0346458
0.0349198
0.0352644
0.0356865
0.0361973
0.0367962
0.0374882
0.0382694
0.0391293
0.0400754
0.041049
0.0421237
0.0431615
0.0443207
0.045384
0.046631
0.0478289
0.0511852
0.0560612
0.0616893
0.0692622
0.0800155
0.0962374
0.117849
0.146438
0.180577
0.215274
0.254655
0.277513
0.0634182
0.0633183
0.0631981
0.0633747
0.0634361
0.0634392
0.0630661
0.063169
0.0631556
0.0631086
0.0627502
0.0625825
0.0624396
0.0626044
0.0626542
0.0626513
0.0622394
0.0623555
0.06236
0.0623192
0.062274
0.0621843
0.0620976
0.0619834
0.0618776
0.0617485
0.0615992
0.061431
0.0612451
0.061042
0.0608224
0.0605819
0.0603236
0.0600461
0.0597547
0.0594535
0.0591446
0.0588515
0.0586685
0.0585653
0.0582365
0.058093
0.0582706
0.0587147
0.0593685
0.0602082
0.0612022
0.062352
0.0636297
0.0650884
0.0666651
0.0685525
0.0706267
0.0731477
0.075858
0.0794223
0.0837203
0.088027
0.0929616
0.102036
0.115461
0.135218
0.161956
0.195741
0.235788
0.276601
0.314102
0.350238
0.359504
0.196292
0.19694
0.196254
0.198284
0.198955
0.199501
0.198236
0.198535
0.198159
0.199105
0.198814
0.200561
0.199882
0.201842
0.202547
0.20309
0.203745
0.204102
0.204513
0.202484
0.203802
0.201627
0.203031
0.201818
0.203385
0.202443
0.20137
0.200355
0.19941
0.198529
0.197708
0.1969
0.196093
0.195259
0.194384
0.193451
0.192431
0.191325
0.190101
0.188748
0.187218
0.185502
0.183557
0.18138
0.178924
0.17618
0.173068
0.169571
0.165582
0.161081
0.15596
0.150203
0.143711
0.136471
0.128365
0.119536
0.109914
0.100017
0.0899292
0.0803624
0.0714841
0.0644555
0.0592121
0.0582121
0.0597046
0.0640263
0.0723941
0.0832216
0.0909849
0.000260645
0.000260951
0.000261233
0.000261418
0.000261634
0.000261738
0.000261895
0.000262297
0.000262928
0.000263696
0.000264177
0.000265243
0.000265855
0.000266041
0.00026589
0.000265606
0.000266254
0.000266422
0.000266271
0.000265981
0.000266527
0.000267152
0.0002671
0.000267637
0.000267514
0.000267421
0.000268069
0.000268332
0.000268086
0.000268116
0.000269009
0.000269572
0.000269572
0.000268008
0.000267302
0.000266578
0.000266397
0.000265867
0.000264885
0.000263953
0.000263185
0.000262699
0.000261933
0.000260218
0.000259365
0.000258015
0.000256916
0.000255897
0.000254538
0.000253419
0.000252806
0.000252154
0.000251661
0.000251305
0.000250854
0.000250337
0.000249575
0.000248712
0.000247913
0.00026227
0.000262555
0.000262778
0.000263013
0.000263206
0.00026346
0.000263909
0.000264492
0.000265275
0.000265863
0.000266277
0.000266504
0.00026683
0.000266649
0.000266546
0.000266445
0.000266997
0.00026697
0.0002667
0.000266696
0.000267594
0.000267834
0.000267751
0.000268136
0.000267919
0.000267889
0.000268532
0.000268747
0.000268453
0.000268449
0.000269333
0.000269868
0.000269831
0.000268475
0.000267727
0.000266965
0.000266793
0.000266369
0.000265453
0.000264478
0.000263645
0.000263158
0.000262675
0.000261409
0.000260354
0.00025929
0.000258118
0.000257168
0.000256251
0.00025479
0.000253824
0.00025306
0.000252454
0.000252006
0.000251708
0.000251403
0.0002511
0.000250638
0.000250161
0.000264872
0.000265064
0.000265239
0.000265526
0.000265894
0.000266437
0.000266958
0.000267393
0.000267566
0.000267956
0.000267998
0.000268168
0.000268018
0.000267975
0.000267928
0.000268216
0.000268376
0.00026821
0.000267823
0.000268452
0.000269025
0.000269101
0.000269032
0.000269172
0.000268874
0.000269006
0.000269594
0.00026979
0.000269447
0.000269386
0.000270338
0.00027085
0.000270797
0.000269568
0.000268729
0.000267953
0.000267622
0.000267307
0.000266625
0.000265543
0.000264649
0.000264123
0.000263769
0.000263037
0.000261897
0.000260948
0.000259878
0.000258916
0.000258161
0.000257134
0.000255962
0.00025494
0.000254124
0.000253457
0.000253018
0.000252664
0.000252447
0.000252198
0.000251986
0.00026818
0.000268509
0.00026888
0.000269305
0.000269551
0.00026956
0.000270072
0.000270149
0.000270245
0.000270524
0.000270324
0.000270181
0.000270243
0.00027032
0.000270138
0.000270342
0.000270372
0.000270269
0.000270106
0.000270954
0.000271219
0.000271185
0.000271078
0.000271016
0.000270704
0.000271022
0.0002714
0.000271575
0.000271154
0.000271071
0.000271961
0.000272374
0.00027229
0.000271348
0.000270476
0.000269659
0.000269261
0.000268946
0.000268414
0.000267456
0.00026647
0.000265789
0.000265449
0.000265001
0.00026414
0.000263226
0.000262256
0.000261308
0.000260558
0.00025981
0.000258905
0.000257922
0.000257007
0.000256171
0.000255507
0.000254948
0.000254579
0.000254257
0.000254061
0.000272976
0.000273011
0.00027291
0.000273089
0.000273609
0.000273501
0.000273832
0.000273483
0.000273492
0.000273466
0.000273564
0.000273746
0.000273628
0.000273483
0.000273706
0.000273594
0.000273493
0.000273288
0.000273733
0.00027404
0.000274138
0.000274127
0.000273832
0.000273633
0.000273381
0.000273728
0.000273999
0.000274138
0.000273657
0.00027357
0.000274411
0.00027475
0.000274656
0.000273861
0.000272973
0.000272144
0.000271683
0.000271353
0.000270902
0.000270127
0.000269143
0.000268314
0.00026787
0.000267551
0.000267034
0.00026625
0.000265393
0.000264489
0.000263711
0.000263044
0.000262365
0.000261596
0.0002608
0.000259985
0.000259251
0.000258554
0.000258023
0.000257522
0.000257198
0.000278593
0.000278545
0.00027882
0.000278667
0.000278462
0.000278681
0.000278472
0.000278399
0.000278506
0.000278634
0.000278366
0.000278048
0.00027795
0.000278069
0.00027787
0.000278035
0.000277695
0.000277653
0.000277974
0.000278131
0.000278221
0.000278016
0.000277574
0.000277265
0.000277073
0.000277406
0.000277625
0.000277711
0.000277174
0.000277089
0.000277866
0.000278133
0.00027803
0.000277358
0.000276469
0.000275629
0.000275109
0.000274756
0.000274352
0.00027374
0.000272863
0.000271954
0.000271335
0.000270992
0.000270656
0.000270161
0.000269471
0.000268669
0.000267896
0.000267226
0.000266632
0.000266029
0.000265411
0.000264737
0.00026409
0.000263401
0.000262831
0.000262219
0.000261779
0.000284809
0.000284943
0.000285112
0.000284761
0.000284429
0.000284739
0.000284424
0.000284545
0.000284109
0.000283913
0.000283678
0.000283437
0.000283548
0.000283674
0.00028391
0.00028343
0.000283197
0.000283055
0.000283326
0.000283534
0.000283478
0.00028299
0.000282457
0.000282113
0.000281993
0.000282219
0.000282359
0.000282407
0.000281786
0.000281702
0.00028241
0.000282609
0.0002825
0.000281934
0.000281059
0.00028022
0.000279654
0.000279279
0.000278907
0.000278422
0.0002777
0.000276827
0.000276089
0.000275631
0.000275321
0.000275008
0.000274601
0.000273995
0.000273302
0.000272626
0.000272033
0.000271485
0.00027099
0.000270468
0.000269981
0.000269412
0.000268936
0.000268344
0.000267915
0.000293294
0.000293365
0.000293533
0.000293011
0.0002933
0.000293198
0.000293068
0.000292735
0.000293051
0.000292661
0.000292435
0.00029211
0.000291857
0.000291503
0.000291198
0.00029083
0.000290771
0.000290719
0.000290755
0.000290553
0.000290131
0.000289436
0.000288865
0.000288511
0.000288426
0.000288545
0.000288658
0.000288605
0.000287917
0.000287835
0.000288464
0.000288592
0.000288475
0.000287983
0.000287162
0.00028631
0.000285703
0.000285296
0.000284937
0.000284534
0.000283985
0.000283213
0.000282421
0.000281835
0.00028148
0.000281175
0.000280919
0.000280593
0.000280145
0.000279641
0.000279129
0.000278614
0.000278128
0.000277632
0.000277216
0.000276748
0.000276405
0.000275912
0.00027551
0.000304008
0.000304193
0.000304277
0.000303705
0.000303875
0.000303849
0.000304003
0.000304327
0.00030369
0.000303183
0.000302647
0.000302066
0.000301553
0.000301071
0.000300743
0.000300507
0.000300393
0.000300163
0.000299823
0.000299232
0.000298486
0.000297686
0.0002971
0.000296729
0.00029665
0.000296683
0.00029673
0.000296475
0.00029572
0.000295633
0.000296176
0.000296237
0.000296115
0.000295679
0.000294951
0.000294087
0.000293458
0.000293036
0.000292723
0.000292393
0.000291955
0.000291349
0.0002906
0.000289952
0.000289486
0.000289284
0.000289175
0.000288944
0.000288523
0.000287972
0.000287568
0.000287227
0.000287024
0.000286697
0.000286403
0.000285931
0.000285584
0.0002852
0.000285447
0.000320545
0.000321249
0.000320344
0.000319972
0.000319421
0.000318793
0.000318189
0.000317484
0.000316699
0.000315965
0.000315225
0.000314546
0.000313962
0.0003135
0.000313144
0.000312799
0.000312411
0.000311828
0.000311078
0.000310155
0.000309207
0.000308348
0.00030773
0.000307346
0.000307269
0.000307271
0.000307109
0.000306685
0.000305886
0.000305783
0.000306223
0.00030622
0.000306084
0.000305675