/*--------------------------------*- C++ -*----------------------------------*\
| =========                 |                                                 |
| \\      /  F ield         | OpenFOAM: The Open Source CFD Toolbox           |
|  \\    /   O peration     | Version:  2312                                  |
|   \\  /    A nd           | Website:  www.openfoam.com                      |
|    \\/     M anipulation  |                                                 |
\*---------------------------------------------------------------------------*/
FoamFile
{
    version     2.0;
    format      ascii;
    arch        "LSB;label=32;scalar=64";
    class       volScalarField;
    location    "1400";
    object      k;
}
// * * * * * * * * * * * * * * * * * * * * * * * * * * * * * * * * * * * * * //

dimensions      [0 2 -2 0 0 0 0];

internalField   nonuniform List<scalar> 
76025
(
0.00190008
0.00189627
0.0018924
0.00188978
0.0018873
0.00188617
0.00188423
0.00188251
0.00187939
0.00187658
0.00187385
0.00187068
0.00186739
0.00186304
0.00186049
0.00185698
0.00185484
0.00185252
0.00185036
0.0018482
0.00184637
0.0018449
0.00184346
0.00184284
0.00184178
0.00184165
0.00184226
0.00184217
0.00184266
0.00184304
0.00184319
0.00184244
0.00184691
0.00184685
0.00184824
0.00184934
0.00185126
0.00185752
0.00186191
0.00186776
0.00187404
0.00188127
0.00189158
0.00190233
0.00191204
0.00192525
0.00193693
0.00195214
0.00196215
0.00197478
0.00197995
0.00199177
0.0020072
0.0020201
0.00204152
0.0020668
0.00207081
0.00209764
0.00213957
0.00218122
0.00224416
0.00229416
0.00240601
0.00248091
0.00265221
0.00276903
0.00304152
0.00323084
0.00357249
0.00191541
0.00191229
0.00190847
0.00190493
0.00190124
0.00189874
0.0018962
0.0018944
0.00189248
0.00189042
0.00188853
0.00188626
0.0018843
0.00188149
0.00187936
0.00187657
0.0018744
0.00187226
0.00187066
0.00186898
0.00186777
0.00186641
0.00186638
0.00186654
0.00186676
0.00186645
0.00186727
0.00186766
0.00186864
0.00187059
0.00187309
0.00187621
0.00187833
0.00188119
0.00188521
0.00189106
0.00189509
0.00190066
0.00190275
0.00190551
0.00190882
0.00191548
0.00192247
0.0019354
0.00194448
0.00196549
0.00197586
0.00200735
0.002018
0.00202894
0.00201129
0.00203215
0.00202221
0.00202621
0.00204395
0.00206888
0.00210546
0.00214585
0.00219713
0.00224937
0.00232575
0.00239539
0.00252275
0.0026119
0.00281141
0.00295479
0.00326892
0.00350399
0.00415925
0.00192911
0.00192801
0.00192591
0.00192346
0.0019204
0.00191745
0.00191448
0.00191182
0.00190946
0.00190721
0.0019053
0.00190331
0.00190169
0.00189986
0.00189836
0.00189676
0.00189529
0.0018938
0.00189259
0.00189145
0.00189056
0.00188991
0.00188884
0.00189037
0.00189049
0.00189148
0.00189141
0.00189457
0.00189527
0.00190131
0.00190407
0.00190464
0.00191339
0.00191727
0.00191993
0.00192291
0.0019355
0.00193686
0.00195164
0.00194717
0.0019607
0.00195989
0.00196142
0.00197262
0.00198366
0.00199783
0.00200494
0.00202923
0.00201892
0.00204103
0.00203301
0.00203911
0.00205616
0.00208132
0.00211034
0.00214565
0.00218526
0.00223137
0.00228869
0.0023494
0.0024368
0.00251669
0.00265464
0.00276128
0.00298464
0.00314528
0.00350959
0.00378536
0.00451345
0.00194414
0.00194469
0.00194418
0.0019431
0.00194133
0.00193927
0.00193702
0.00193469
0.00193247
0.0019303
0.00192842
0.00192659
0.00192492
0.00192335
0.00192185
0.00192055
0.00191927
0.00191822
0.00191702
0.00191626
0.00191478
0.00191656
0.00191747
0.00191828
0.00191729
0.00192132
0.00192276
0.0019216
0.00192611
0.00192815
0.00192995
0.00193776
0.0019389
0.00195072
0.00195538
0.00195207
0.00195979
0.00195799
0.00196294
0.00196692
0.00198057
0.0019868
0.00201008
0.00201952
0.00203084
0.00204018
0.00203784
0.00203093
0.00203647
0.00204936
0.00206848
0.00209144
0.0021182
0.00214796
0.00218276
0.00222166
0.00226878
0.00232081
0.00238767
0.00245745
0.00255746
0.00265079
0.00280748
0.00293555
0.00318994
0.00338095
0.00381903
0.00414224
0.00499347
0.00196481
0.00196389
0.00196424
0.00196332
0.00196399
0.00196312
0.00196162
0.00195961
0.00195781
0.00195593
0.00195434
0.00195289
0.00195201
0.00195092
0.00195021
0.00194917
0.00194843
0.00194685
0.00194835
0.00194892
0.00194909
0.0019483
0.00194868
0.00194876
0.00195301
0.0019529
0.00195274
0.00195413
0.0019559
0.00196067
0.00196319
0.00197475
0.00197943
0.00198218
0.00197936
0.00198473
0.0019909
0.00199966
0.0020044
0.00202495
0.00202638
0.00203854
0.00203024
0.00202842
0.00203358
0.00204332
0.00205594
0.00207187
0.00209075
0.00211277
0.00213716
0.00216473
0.00219531
0.00223017
0.00227009
0.00231553
0.00236995
0.00243036
0.0025078
0.00258899
0.00270419
0.00281406
0.00299334
0.00314719
0.00344122
0.0036769
0.00418738
0.00458303
0.00554201
0.00199081
0.00199033
0.00198923
0.00199025
0.00199055
0.00199042
0.00198998
0.00199177
0.00199184
0.00199175
0.00199038
0.00198867
0.0019858
0.00198681
0.00198523
0.00198663
0.00198705
0.00198703
0.00198506
0.00198759
0.00198827
0.00198735
0.00198802
0.00198798
0.00199412
0.00199609
0.00199401
0.0019972
0.00199889
0.00200961
0.00201424
0.00201485
0.00201729
0.00202143
0.0020277
0.00204084
0.00204935
0.00205888
0.00204982
0.00207032
0.00206176
0.00206114
0.00206628
0.00207605
0.0020888
0.00210438
0.00212248
0.0021432
0.00216618
0.00219169
0.00221983
0.00225143
0.00228689
0.00232727
0.00237363
0.00242665
0.00248955
0.00256065
0.0026493
0.00274616
0.00287629
0.00301153
0.00321165
0.00341268
0.00373849
0.0040645
0.0046226
0.0051566
0.00607046
0.00202525
0.00202467
0.00202286
0.00202416
0.00202458
0.00202259
0.00202423
0.00202315
0.00202363
0.00202786
0.00202879
0.00202723
0.00202622
0.00202681
0.00202857
0.00203231
0.00203415
0.00203284
0.00203776
0.00203909
0.00203746
0.00203641
0.00204217
0.00204401
0.00204644
0.00204873
0.00204788
0.00204682
0.00205704
0.00205503
0.00205019
0.00205937
0.00205702
0.00205865
0.00206172
0.00206875
0.00207414
0.00208188
0.00208827
0.00209725
0.00210679
0.0021187
0.00213205
0.00214762
0.00216513
0.00218467
0.00220611
0.00223005
0.0022563
0.0022857
0.00231815
0.00235501
0.00239619
0.00244357
0.00249747
0.0025599
0.00263284
0.00271693
0.0028194
0.00293508
0.00308604
0.00325053
0.00348701
0.00373591
0.00412954
0.00452504
0.0052043
0.00576343
0.00699912
0.00207128
0.00206882
0.00206818
0.00206836
0.0020685
0.00206799
0.00206622
0.00206569
0.00206542
0.0020676
0.00207121
0.00207269
0.00207429
0.00207104
0.00207434
0.00207252
0.00207285
0.00207517
0.00207831
0.00208301
0.0020879
0.00209189
0.00209879
0.00210395
0.00210938
0.00211067
0.00212262
0.00212696
0.00212755
0.00213167
0.00213222
0.0021459
0.00213746
0.00215102
0.00214374
0.00213878
0.00214263
0.00214977
0.00216019
0.00217235
0.00218615
0.0022016
0.00221853
0.00223719
0.00225765
0.00228035
0.00230522
0.00233307
0.00236366
0.00239814
0.00243602
0.00247941
0.00252752
0.00258347
0.0026464
0.00272042
0.00280548
0.00290602
0.00302559
0.00316652
0.003344
0.00355046
0.00383173
0.00415172
0.0046143
0.00512421
0.00586225
0.00662471
0.00774044
0.00212785
0.00212785
0.00212567
0.00212331
0.00212583
0.00212456
0.00212445
0.00212456
0.00212423
0.00212906
0.0021309
0.0021325
0.00213327
0.00213236
0.00213987
0.0021369
0.00213372
0.00213338
0.00213377
0.00213591
0.00213888
0.00214196
0.0021462
0.00214961
0.00215368
0.00215674
0.00216133
0.00216508
0.00216978
0.00217483
0.00217943
0.00218607
0.00219126
0.00219882
0.00220641
0.00221559
0.00222633
0.00223864
0.00225246
0.00226766
0.0022844
0.00230283
0.00232288
0.00234485
0.00236885
0.00239546
0.0024246
0.00245726
0.00249311
0.00253377
0.00257827
0.00262963
0.00268622
0.00275272
0.00282693
0.00291538
0.00301623
0.00313774
0.00328104
0.00345512
0.00367085
0.00393226
0.00427582
0.00468105
0.00523281
0.00585484
0.00668367
0.00758254
0.00872823
0.00219409
0.00219335
0.00219202
0.00219511
0.00219307
0.00219124
0.00218915
0.00219381
0.00219512
0.00219424
0.00220049
0.00220152
0.00219686
0.00220337
0.002198
0.00220457
0.00219938
0.00219808
0.00219927
0.00220235
0.0022061
0.00220997
0.00221459
0.00221906
0.00222418
0.00222909
0.00223503
0.00224086
0.00224773
0.00225491
0.00226331
0.00227229
0.00228258
0.00229367
0.00230571
0.00231881
0.00233297
0.00234834
0.00236509
0.00238325
0.0024031
0.00242485
0.00244848
0.00247436
0.00250264
0.00253402
0.0025684
0.00260704
0.00264941
0.00269779
0.00275062
0.00281203
0.00287945
0.00295942
0.00304843
0.00315579
0.00327832
0.00342807
0.00360542
0.00382415
0.00409456
0.00442595
0.00485199
0.00535287
0.00601336
0.00673545
0.00768199
0.00867325
0.00983565
0.00227665
0.00227512
0.00227839
0.00227713
0.00227551
0.00227608
0.00227517
0.00228099
0.0022831
0.00228266
0.00229081
0.00229272
0.00229534
0.00229429
0.00229504
0.00229481
0.00230318
0.00229599
0.00230276
0.00229849
0.00229848
0.00230249
0.0023082
0.00231449
0.00232141
0.00232869
0.00233666
0.00234518
0.00235448
0.00236449
0.00237535
0.00238707
0.00239977
0.00241345
0.0024283
0.00244427
0.00246145
0.00247998
0.00250007
0.0025218
0.0025455
0.00257144
0.00259965
0.00263054
0.00266435
0.00270187
0.00274304
0.00278936
0.0028402
0.00289844
0.00296222
0.00303666
0.00311861
0.00321654
0.003326
0.00345946
0.00361281
0.00380223
0.0040279
0.00430725
0.00465097
0.005069
0.00559362
0.00620014
0.00697432
0.00779029
0.00886485
0.00986923
0.0112096
0.00237835
0.00238636
0.00238893
0.00238741
0.00239487
0.00239632
0.0023932
0.00240082
0.00240255
0.00240428
0.00240498
0.00240391
0.00240264
0.00241314
0.00241619
0.00241629
0.00242004
0.00242107
0.00243414
0.00242458
0.0024361
0.00242881
0.00242855
0.00243311
0.00244076
0.00244992
0.00246017
0.00247128
0.00248323
0.00249605
0.00250979
0.00252454
0.00254036
0.00255737
0.00257567
0.00259527
0.00261629
0.00263891
0.00266339
0.00268983
0.00271861
0.00275007
0.0027843
0.00282175
0.0028628
0.00290831
0.00295841
0.00301474
0.00307692
0.00314813
0.00322688
0.00331898
0.00342147
0.00354453
0.00368364
0.00385439
0.00405214
0.00429737
0.00458895
0.00494783
0.00538214
0.00590148
0.00653407
0.00725002
0.00813195
0.00903591
0.0102162
0.0112081
0.0127677
0.00249727
0.00249508
0.00249528
0.00249705
0.00250035
0.00250681
0.00251278
0.00251906
0.00253246
0.00253774
0.00255301
0.0025585
0.0025594
0.00255919
0.00257706
0.0025812
0.00258608
0.00256842
0.00258249
0.00256893
0.00256361
0.0025649
0.0025704
0.00257868
0.00258892
0.00260062
0.00261352
0.00262749
0.00264253
0.00265864
0.00267587
0.00269432
0.00271404
0.00273523
0.00275782
0.00278199
0.00280789
0.00283574
0.00286583
0.00289831
0.00293365
0.00297225
0.00301429
0.00306033
0.00311092
0.00316706
0.00322921
0.00329916
0.00337713
0.00346653
0.00356681
0.00368423
0.00381709
0.00397658
0.00415948
0.00438324
0.00464353
0.00496349
0.0053395
0.00579515
0.00633201
0.00696154
0.00770072
0.00852353
0.00949176
0.0104836
0.0116985
0.0127568
0.0142706
0.00266392
0.00267135
0.00267356
0.00268504
0.00268061
0.00267443
0.00267599
0.00267405
0.00267741
0.00268007
0.00268526
0.00268844
0.00269363
0.00269635
0.00270261
0.00270631
0.00271263
0.00271609
0.00272276
0.00272901
0.00273641
0.00274542
0.00275604
0.00276813
0.00278159
0.00279632
0.0028123
0.00282951
0.00284799
0.00286778
0.00288898
0.00291164
0.00293597
0.00296194
0.00298966
0.00301936
0.00305124
0.00308557
0.00312271
0.0031629
0.00320672
0.0032547
0.00330716
0.00336482
0.00342857
0.00349959
0.00357891
0.00366855
0.00376971
0.00388598
0.00401852
0.00417365
0.0043517
0.00456388
0.00480933
0.00510486
0.00544761
0.00585937
0.00633507
0.0068969
0.0075407
0.00827717
0.00911329
0.0100245
0.0110593
0.0121031
0.0133365
0.0143973
0.0158855
0.00284519
0.00285157
0.00285567
0.00286142
0.00286526
0.00286787
0.00287118
0.00287456
0.00287939
0.00288443
0.00289043
0.00289632
0.00290303
0.00290967
0.0029172
0.0029249
0.00293344
0.00294244
0.00295238
0.0029632
0.00297506
0.00298806
0.00300227
0.00301774
0.0030345
0.0030526
0.0030721
0.00309306
0.00311556
0.00313971
0.00316559
0.00319343
0.00322318
0.00325503
0.00328919
0.00332593
0.00336554
0.0034084
0.00345498
0.00350567
0.00356123
0.0036224
0.00368974
0.00376431
0.00384744
0.00394072
0.00404591
0.0041655
0.00430184
0.00445887
0.00463946
0.0048498
0.0050926
0.00537722
0.00570473
0.00608956
0.00653039
0.00704392
0.00762534
0.0082912
0.0090348
0.00986175
0.0107737
0.0117445
0.0128133
0.013874
0.0150809
0.0161311
0.0174392
0.00311322
0.00311009
0.00311098
0.00311438
0.00312012
0.00312607
0.00313318
0.00314072
0.00314886
0.00315736
0.00316636
0.00317571
0.00318558
0.0031959
0.00320683
0.00321835
0.00323059
0.0032436
0.00325749
0.00327234
0.00328825
0.00330532
0.00332363
0.00334329
0.00336437
0.00338699
0.00341125
0.00343731
0.00346526
0.00349531
0.00352761
0.00356222
0.00359938
0.00363936
0.00368249
0.00372918
0.00377986
0.0038351
0.00389555
0.00396188
0.00403515
0.00411644
0.00420671
0.00430752
0.00442079
0.00454871
0.00469378
0.00485904
0.00504778
0.00526413
0.00551197
0.0057969
0.00612267
0.00649675
0.00692115
0.00740582
0.00794893
0.00856214
0.00924113
0.00999584
0.0108177
0.0117064
0.0126614
0.0136529
0.0147175
0.0157436
0.0169096
0.0178043
0.0191998
0.00344818
0.00345222
0.00345712
0.00346345
0.00347102
0.00347942
0.00348862
0.00349851
0.0035091
0.00352034
0.00353225
0.00354482
0.0035581
0.0035721
0.00358691
0.00360256
0.00361913
0.00363671
0.00365537
0.00367522
0.00369636
0.00371891
0.00374297
0.0037687
0.00379621
0.00382567
0.00385724
0.00389113
0.00392756
0.0039666
0.00400853
0.00405368
0.00410243
0.00415523
0.00421258
0.00427512
0.00434354
0.0044187
0.00450157
0.0045932
0.00469511
0.00480875
0.00493557
0.00507765
0.00523739
0.00541739
0.00562057
0.00585012
0.00610955
0.00640261
0.00673325
0.00710573
0.00752378
0.00799239
0.00851355
0.00909313
0.00972894
0.0104281
0.0111821
0.0119972
0.0128613
0.0137732
0.0147269
0.0156971
0.0167011
0.0176705
0.0186792
0.0195459
0.0205443
0.00391171
0.00392017
0.00392886
0.00393865
0.0039493
0.00396068
0.00397282
0.00398574
0.00399949
0.00401411
0.00402962
0.00404608
0.00406353
0.00408205
0.00410171
0.00412259
0.00414478
0.00416838
0.00419351
0.00422028
0.00424885
0.00427936
0.00431198
0.00434692
0.00438432
0.00442453
0.00446764
0.00451387
0.00456358
0.00461718
0.00467512
0.00473792
0.0048062
0.00488066
0.00496206
0.00505134
0.00514949
0.00525769
0.00537723
0.00550948
0.00565626
0.0058192
0.00599993
0.00620071
0.00642395
0.00667215
0.00694804
0.00725441
0.00759433
0.0079708
0.00838699
0.00884582
0.00935006
0.00990216
0.0105033
0.0111555
0.011856
0.0126072
0.0133996
0.0142358
0.0151002
0.0159901
0.0168944
0.0177893
0.0186912
0.0195334
0.0203795
0.0210606
0.0218079
0.00456975
0.00458208
0.00459452
0.00460809
0.00462253
0.00463773
0.0046538
0.00467083
0.00468893
0.00470819
0.0047287
0.00475058
0.00477394
0.00479889
0.00482559
0.00485415
0.00488475
0.00491753
0.00495269
0.00499043
0.00503093
0.00507448
0.00512126
0.00517145
0.00522537
0.00528342
0.005346
0.00541358
0.00548669
0.0055659
0.00565186
0.00574528
0.00584695
0.00595772
0.00607854
0.00621043
0.00635451
0.006512
0.00668419
0.00687243
0.00707848
0.0073037
0.00754959
0.00781818
0.00811153
0.00843177
0.00878112
0.00916182
0.00957615
0.0100262
0.0105141
0.0110412
0.0116089
0.0122174
0.0128662
0.0135545
0.0142783
0.0150362
0.0158189
0.0166246
0.0174376
0.018255
0.0190572
0.0198273
0.0205767
0.021237
0.0218638
0.0222313
0.0226533
0.00554599
0.00556579
0.00558563
0.00560674
0.00562883
0.00565185
0.00567597
0.00570139
0.00572827
0.0057568
0.00578715
0.00581952
0.00585412
0.00589117
0.00593089
0.00597358
0.00601934
0.0060684
0.00612105
0.00617762
0.00623843
0.00630386
0.00637428
0.00645009
0.00653171
0.0066196
0.00671424
0.00681614
0.00692585
0.00704395
0.00717107
0.00730788
0.00745511
0.00761351
0.00778392
0.00796724
0.00816442
0.00837654
0.00860466
0.00885003
0.00911414
0.00939805
0.00970308
0.010031
0.0103835
0.0107621
0.0111686
0.0116044
0.0120707
0.0125686
0.0130986
0.0136609
0.0142546
0.0148786
0.0155305
0.0162074
0.0169035
0.0176159
0.0183348
0.0190549
0.0197623
0.0204546
0.021095
0.021706
0.0222309
0.0226617
0.0229197
0.0229636
0.022971
0.00713878
0.00717413
0.00720972
0.00724703
0.00728554
0.00732524
0.00736638
0.00740922
0.00745403
0.00750103
0.00755048
0.00760266
0.00765784
0.00771633
0.00777843
0.00784446
0.00791473
0.00798953
0.00806916
0.00815395
0.00824416
0.0083401
0.00844207
0.00855041
0.00866547
0.00878762
0.00891729
0.0090549
0.00920092
0.00935587
0.00952027
0.00969473
0.00987989
0.0100764
0.0102852
0.0105069
0.0107424
0.0109929
0.0112592
0.0115424
0.0118439
0.0121645
0.0125052
0.0128673
0.0132519
0.01366
0.0140922
0.014549
0.0150306
0.0155365
0.0160659
0.0166174
0.0171886
0.0177771
0.0183787
0.0189898
0.0196019
0.0202146
0.020814
0.0213945
0.0219473
0.02246
0.0228996
0.0232941
0.0235159
0.0235404
0.0234642
0.0232846
0.0235126
0.0100722
0.0101358
0.0101986
0.0102622
0.0103259
0.0103898
0.0104541
0.0105191
0.010585
0.0106521
0.0107207
0.010791
0.0108633
0.010938
0.0110154
0.0110958
0.0111794
0.0112667
0.0113579
0.0114533
0.0115535
0.0116587
0.0117694
0.011886
0.0120088
0.0121383
0.012275
0.0124192
0.0125715
0.0127324
0.0129025
0.0130823
0.0132724
0.0134736
0.0136866
0.0139122
0.0141513
0.0144047
0.0146734
0.0149583
0.0152602
0.0155797
0.0159173
0.0162737
0.0166493
0.017044
0.0174575
0.0178891
0.0183375
0.0188011
0.0192774
0.0197644
0.0202576
0.0207549
0.0212507
0.02174
0.0222133
0.0226765
0.0231074
0.0235072
0.0238603
0.0241705
0.0243009
0.0242849
0.024157
0.0238887
0.0236126
0.0233798
0.0239294
0.014903
0.0149774
0.0150494
0.0151203
0.0151895
0.0152569
0.0153228
0.0153873
0.0154507
0.0155133
0.0155755
0.0156376
0.0156998
0.0157626
0.0158261
0.0158908
0.0159571
0.0160253
0.0160961
0.0161698
0.0162469
0.0163279
0.0164132
0.0165033
0.0165986
0.0166997
0.0168069
0.0169208
0.0170417
0.0171703
0.0173069
0.0174521
0.0176062
0.01777
0.0179439
0.0181292
0.0183261
0.0185361
0.0187597
0.0189977
0.0192511
0.01952
0.0198048
0.0201051
0.0204204
0.0207493
0.0210905
0.0214419
0.0218014
0.022166
0.0225328
0.0228989
0.0232602
0.0236144
0.0239551
0.0242731
0.0245688
0.0248477
0.0250958
0.0252419
0.0252426
0.0251714
0.0249359
0.0246398
0.0242283
0.0238158
0.0237833
0.0237597
0.0261715
0.0212438
0.0213039
0.0213599
0.0214133
0.0214634
0.021511
0.0215568
0.021599
0.0216386
0.0216749
0.0217099
0.0217456
0.0217802
0.0218137
0.0218462
0.0218779
0.0219091
0.0219403
0.021972
0.0220047
0.0220387
0.0220747
0.0221129
0.0221539
0.0221982
0.0222461
0.0222979
0.0223541
0.0224146
0.0224801
0.0225499
0.0226253
0.0227034
0.0227876
0.0228756
0.0229721
0.0230709
0.0231814
0.0232961
0.0234195
0.0235572
0.023711
0.0238809
0.0240653
0.0242622
0.0244691
0.0246833
0.0249018
0.025122
0.0253381
0.025554
0.0257636
0.0259656
0.0261501
0.0263036
0.0264306
0.0264834
0.0264551
0.0263483
0.0261036
0.0257924
0.0254266
0.0248976
0.0243432
0.0238596
0.0236985
0.0242
0.0256458
0.0289698
0.0283489
0.0283666
0.0283798
0.0283903
0.0283973
0.0284052
0.0284429
0.0284509
0.0284509
0.0284219
0.0284027
0.0284354
0.0284406
0.0284408
0.0284369
0.0284294
0.0284193
0.0284073
0.0283938
0.0283789
0.0283631
0.0283463
0.0283293
0.0283126
0.0282968
0.0282822
0.0282697
0.0282588
0.0282493
0.0282409
0.0282329
0.0282249
0.0282156
0.0282057
0.0281938
0.0281784
0.0281478
0.0281123
0.0279726
0.0278346
0.0277585
0.0277291
0.0277328
0.0277588
0.0277992
0.027848
0.0279
0.0279545
0.0280048
0.0280447
0.0281214
0.0281316
0.0281124
0.0280272
0.0278658
0.0276478
0.0273779
0.0270478
0.0266378
0.0261695
0.025409
0.02466
0.0240466
0.0236318
0.0236861
0.0246329
0.0274444
0.0305133
0.0357861
0.0352981
0.0352604
0.0352106
0.0351735
0.0351228
0.0350808
0.0350345
0.0349935
0.0349281
0.0348378
0.0347146
0.034595
0.0344759
0.0343569
0.0342378
0.0341183
0.0339987
0.0338801
0.033761
0.0336407
0.0335203
0.033398
0.0332752
0.0331525
0.03303
0.0329079
0.032787
0.0326654
0.0325422
0.0324171
0.0322884
0.0321579
0.0320223
0.0318838
0.0317402
0.0315958
0.0314458
0.0312959
0.0311413
0.0309849
0.0308325
0.0306873
0.0305494
0.0304181
0.0302913
0.0301664
0.0300401
0.0299077
0.0297625
0.0295894
0.0293849
0.0291558
0.028894
0.0285767
0.0282117
0.0278056
0.0272452
0.026409
0.0254424
0.0245247
0.0238569
0.0233663
0.0233137
0.0241582
0.0266315
0.0305844
0.0352901
0.0411758
0.0471492
0.0393657
0.0392393
0.039108
0.0389752
0.0388394
0.0387013
0.0385607
0.0384177
0.0382714
0.0381194
0.0379593
0.0377926
0.0376205
0.037444
0.037264
0.0370813
0.0368972
0.0367114
0.0365242
0.0363352
0.0361446
0.0359528
0.0357599
0.0355663
0.0353726
0.0351793
0.034986
0.0347935
0.0346013
0.0344101
0.0342185
0.0340277
0.0338354
0.0336415
0.0334441
0.033244
0.033041
0.0328376
0.0326349
0.0324379
0.0322429
0.0320474
0.0318484
0.0316438
0.0314281
0.0311958
0.0309418
0.0306506
0.0303187
0.0299172
0.0294488
0.0288723
0.0281941
0.027389
0.0264881
0.0255954
0.0246892
0.0238069
0.0231471
0.0229966
0.0231936
0.0248159
0.0280291
0.0327962
0.0389
0.0457964
0.0532272
0.0605582
0.0650731
0.0389957
0.0388406
0.0386843
0.0385289
0.0383723
0.0382163
0.0380621
0.0379008
0.0377368
0.0375693
0.0373983
0.0372227
0.0370418
0.0368539
0.0366639
0.0364697
0.0362834
0.0360858
0.0358846
0.0356734
0.0354576
0.0352336
0.0350075
0.0347756
0.0345432
0.0343049
0.0340612
0.0338125
0.0335589
0.0332999
0.0330353
0.0327638
0.0324846
0.0321957
0.0318952
0.0315825
0.0312535
0.0309108
0.030546
0.0301605
0.0297519
0.0293251
0.028868
0.0283893
0.0278845
0.0273611
0.0268283
0.026282
0.025751
0.0252216
0.0247319
0.0242845
0.0239305
0.0236117
0.0233596
0.023244
0.023279
0.0236219
0.0246981
0.02675
0.029412
0.0334341
0.038232
0.0444757
0.0514024
0.0584656
0.0654928
0.0711279
0.0737838
0.0289952
0.0292193
0.029302
0.0292988
0.0292892
0.0295191
0.029603
0.0296824
0.0297514
0.0298262
0.0298921
0.0299728
0.0300354
0.0299581
0.0299734
0.0300175
0.0301221
0.0301407
0.0303712
0.0304456
0.0305282
0.0305781
0.0306411
0.0306852
0.0307413
0.0305912
0.0304513
0.0303616
0.0302962
0.030244
0.0302016
0.0301639
0.0301289
0.0300939
0.0300562
0.0300146
0.0299654
0.0299084
0.0298402
0.0297597
0.0296621
0.0295456
0.0294051
0.0292397
0.0290438
0.0288166
0.0285495
0.0282403
0.0278772
0.027456
0.0269634
0.0263939
0.025733
0.0249763
0.0240996
0.0231122
0.0219857
0.0207592
0.0194312
0.0180868
0.0167302
0.0155346
0.0145205
0.0139365
0.0140109
0.0145921
0.0158491
0.0179814
0.0198311
0.00196592
0.00196708
0.001967
0.00196729
0.00196665
0.00196602
0.00196508
0.00196565
0.00196637
0.00196692
0.00196751
0.00196768
0.00197015
0.00197102
0.00197121
0.00196945
0.00197218
0.00197329
0.00197293
0.00197154
0.00197521
0.00197867
0.00197785
0.00198006
0.00198145
0.00198243
0.00198625
0.00198776
0.00198751
0.00198678
0.00198872
0.00199076
0.00199149
0.00198629
0.00198427
0.00198126
0.00198052
0.00197827
0.00197311
0.0019691
0.00196464
0.00196352
0.00196133
0.00195452
0.00195108
0.00194481
0.00194022
0.00193651
0.00193081
0.00192524
0.00192159
0.00191872
0.00191775
0.00191704
0.00191579
0.00191394
0.00191086
0.00190702
0.00190346
0.00197626
0.001976
0.00197576
0.00197488
0.00197515
0.00197458
0.00197464
0.00197614
0.00197592
0.00197618
0.00197772
0.0019777
0.00197812
0.00197861
0.00197784
0.00197905
0.0019802
0.0019805
0.0019801
0.00198056
0.00198469
0.0019861
0.00198524
0.0019873
0.00198818
0.00198932
0.00199268
0.00199414
0.00199335
0.00199247
0.00199459
0.00199652
0.00199686
0.00199251
0.00199032
0.0019873
0.00198619
0.00198442
0.0019804
0.00197602
0.00197108
0.00196937
0.00196782
0.00196344
0.0019595
0.00195484
0.00194969
0.00194614
0.00194213
0.00193701
0.00193218
0.0019278
0.00192457
0.00192281
0.00192198
0.00192127
0.00192058
0.00191919
0.00191749
0.00198824
0.00198833
0.00198831
0.00198856
0.00198939
0.00198849
0.00198904
0.00198945
0.00198991
0.00199083
0.00199042
0.00198987
0.00199064
0.00199024
0.00199015
0.00199132
0.00199179
0.00199147
0.00199021
0.00199383
0.00199579
0.00199615
0.0019957
0.00199718
0.00199782
0.00199938
0.0020021
0.0020035
0.00200223
0.00200129
0.0020035
0.00200517
0.00200515
0.00200158
0.00199918
0.0019962
0.00199479
0.00199315
0.00199006
0.00198608
0.00198076
0.00197815
0.00197682
0.00197423
0.00197026
0.0019666
0.00196198
0.0019582
0.0019549
0.00195104
0.00194677
0.00194235
0.00193838
0.00193485
0.0019326
0.00193107
0.00193042
0.00192973
0.00192932
0.00200763
0.00200795
0.0020067
0.00200675
0.00200669
0.00200668
0.00200678
0.00200676
0.00200667
0.00200672
0.00200617
0.0020061
0.00200694
0.00200562
0.00200497
0.0020058
0.00200606
0.00200614
0.00200823
0.00201011
0.00201113
0.00201094
0.00201027
0.00201087
0.00201159
0.00201346
0.00201536
0.00201661
0.0020149
0.00201391
0.00201608
0.0020174
0.00201721
0.00201428
0.00201174
0.00200878
0.00200718
0.00200557
0.00200301
0.00199985
0.00199462
0.00199091
0.00198932
0.00198763
0.00198462
0.00198145
0.00197758
0.00197389
0.00197072
0.00196762
0.00196436
0.0019607
0.00195699
0.00195319
0.00194988
0.00194714
0.00194534
0.00194409
0.00194425
0.00202772
0.00202801
0.00202878
0.00202764
0.00202722
0.00202757
0.00202726
0.00202748
0.00202788
0.0020278
0.00202806
0.00202917
0.00202844
0.00202762
0.00202739
0.00202751
0.00202695
0.00202672
0.00202865
0.00202969
0.00202989
0.00202958
0.00202841
0.00202839
0.0020294
0.00203093
0.00203243
0.00203355
0.00203147
0.00203048
0.00203249
0.00203345
0.00203317
0.00203075
0.00202815
0.0020252
0.00202344
0.00202185
0.00201961
0.00201704
0.00201261
0.00200823
0.00200587
0.00200443
0.00200236
0.00199979
0.00199666
0.00199337
0.00199033
0.00198757
0.001985
0.00198228
0.0019794
0.00197623
0.00197308
0.00196984
0.00196749
0.00196467
0.00196462
0.00206344
0.00206266
0.00206366
0.00206135
0.00206185
0.00206399
0.00206219
0.00206129
0.00206039
0.00205915
0.00205831
0.00205759
0.00205668
0.00205574
0.00205504
0.00205424
0.00205339
0.00205302
0.00205374
0.00205425
0.0020543
0.00205372
0.00205212
0.00205197
0.00205237
0.0020538
0.00205498
0.00205574
0.00205324
0.00205227
0.00205402
0.00205463
0.0020543
0.0020523
0.00204974
0.00204681
0.00204495
0.00204342
0.00204147
0.00203929
0.00203616
0.00203134
0.00202818
0.00202657
0.00202495
0.00202308
0.00202077
0.00201806
0.00201526
0.00201258
0.00201022
0.00200806
0.00200595
0.00200362
0.00200126
0.00199845
0.00199612
0.00199336
0.00199154
0.00210338
0.00210374
0.00210351
0.00210366
0.00210493
0.00210254
0.00210043
0.00209857
0.00209687
0.00209527
0.002094
0.00209281
0.00209142
0.0020899
0.00208851
0.0020873
0.00208653
0.00208576
0.00208699
0.00208627
0.00208497
0.0020829
0.0020812
0.00208068
0.00208099
0.0020821
0.00208301
0.00208349
0.00208067
0.00207968
0.00208117
0.00208142
0.00208105
0.00207933
0.00207694
0.00207405
0.00207206
0.00207056
0.00206882
0.00206692
0.00206465
0.00206103
0.00205681
0.00205451
0.00205323
0.00205174
0.00205
0.00204808
0.00204613
0.00204406
0.00204195
0.00203991
0.00203816
0.00203638
0.00203472
0.0020327
0.00203087
0.0020283
0.00202641
0.00215983
0.00215845
0.00215585
0.00215413
0.00215172
0.00214938
0.002147
0.00214496
0.00214301
0.00214118
0.00213929
0.00213725
0.00213496
0.00213272
0.00213096
0.00212976
0.00212922
0.00212869
0.00212798
0.00212611
0.00212342
0.00212056
0.00211874
0.00211788
0.00211788
0.00211865
0.0021192
0.0021193
0.00211589
0.0021148
0.00211596
0.00211589
0.00211548
0.00211396
0.0021119
0.00210916
0.00210701
0.0021057
0.00210436
0.00210267
0.00210087
0.00209828
0.00209447
0.0020912
0.00208929
0.00208882
0.0020878
0.0020859
0.00208354
0.00208134
0.00207998
0.00207858
0.00207709
0.00207549
0.00207428
0.00207239
0.0020724
0.00207174
0.00207151
0.00222256
0.00222026
0.00221701
0.00221453
0.00221138
0.00220866
0.00220562
0.0022028
0.00219981
0.00219677
0.00219359
0.00219043
0.00218741
0.00218497
0.00218324
0.00218209
0.00218118
0.00217963
0.00217715
0.00217364
0.0021697
0.00216631
0.00216428
0.00216316
0.00216325
0.00216344
0.00216387
0.00216325
0.00215947
0.00215831
0.00215908
0.00215874
0.00215825
0.00215686
0.00215502
0.00215271
0.00215047
0.00214914
0.00214811
0.0021469
0.00214555
0.002144
0.00214137
0.00213753
0.002135
0.00213507
0.00213532
0.00213509
0.0021348
0.00213358
0.00212973
0.00212904
0.00212875
0.0021286
0.00212818
0.00212733
0.00212716
0.00212674
0.00212702
0.00229818
0.00229527
0.00229131
0.00228804
0.00228403
0.00228027
0.00227613
0.00227212
0.00226797
0.00226401
0.00226023
0.00225684
0.00225397
0.00225171
0.00224987
0.00224812
0.00224585
0.00224247
0.00223804
0.00223322
0.00222868
0.00222518
0.00222305
0.00222177
0.00222176
0.00222163
0.00222107
0.00221935
0.00221498
0.0022136
0.00221392
0.00221333
0.0022128
0.00221157
0.00220999
0.00220807
0.00220622
0.00220502
0.00220416
0.00220334
0.00220285
0.00220173
0.00220017
0.00219822
0.00219523
0.00219319
0.00219192
0.00219329
0.00219228
0.00219131
0.00219381
0.00219414
0.00219488
0.00219301
0.00219552
0.00219595
0.00219559
0.00219519
0.00219221
0.00238985
0.00238613
0.00238115
0.00237699
0.00237205
0.00236744
0.00236255
0.0023579
0.0023533
0.00234905
0.00234509
0.00234151
0.00233822
0.00233511
0.00233189
0.00232822
0.00232367
0.00231809
0.00231201
0.00230631
0.00230117
0.00229726
0.00229463
0.00229298
0.00229265
0.00229193
0.00229051
0.00228798
0.00228336
0.00228183
0.00228167
0.00228083
0.00228021
0.00227908
0.00227771
0.00227617
0.00227473
0.0022737
0.0022732
0.00227298
0.00227141
0.00227278
0.00227286
0.00227143
0.00226981
0.00226845
0.00226623
0.00226808
0.00226866
0.0022657
0.00226727
0.00226548
0.00226568
0.00226584
0.00226669
0.00226938
0.00227066
0.00227058
0.0022748
0.00250447
0.00249985
0.00249382
0.00248886
0.00248312
0.00247785
0.00247235
0.00246715
0.00246198
0.00245707
0.00245225
0.00244752
0.00244278
0.00243788
0.00243263
0.00242682
0.00242022
0.00241306
0.00240607
0.00239973
0.00239407
0.00238994
0.00238704
0.00238529
0.0023845
0.00238279
0.00238006
0.00237616
0.00237086
0.00236892
0.00236821
0.00236717
0.00236652
0.00236555
0.0023645
0.00236343
0.00236248
0.00236221
0.00236171
0.00236086
0.00236297
0.00236108
0.00236043
0.00236488
0.0023656
0.00236474
0.00236428
0.0023641
0.00236239
0.00236729
0.00236861
0.00236904
0.00236821
0.00236748
0.00236749
0.00236749
0.00237
0.00237171
0.00237506
0.00264997
0.00264455
0.00263749
0.00263169
0.002625
0.00261878
0.00261224
0.00260591
0.00259945
0.00259305
0.00258653
0.00257986
0.00257302
0.00256582
0.00255824
0.00255003
0.00254124
0.00253237
0.00252397
0.00251628
0.00250968
0.00250477
0.002501
0.00249845
0.00249639
0.00249329
0.00248936