/*--------------------------------*- C++ -*----------------------------------*\
| =========                 |                                                 |
| \\      /  F ield         | OpenFOAM: The Open Source CFD Toolbox           |
|  \\    /   O peration     | Version:  2312                                  |
|   \\  /    A nd           | Website:  www.openfoam.com                      |
|    \\/     M anipulation  |                                                 |
\*---------------------------------------------------------------------------*/
FoamFile
{
    version     2.0;
    format      ascii;
    arch        "LSB;label=32;scalar=64";
    class       volScalarField;
    location    "1400";
    object      nut;
}
// * * * * * * * * * * * * * * * * * * * * * * * * * * * * * * * * * * * * * //

dimensions      [0 2 -1 0 0 0 0];

internalField   nonuniform List<scalar> 
76025
(
0.00131484
0.00131406
0.00131329
0.0013131
0.00131278
0.00131344
0.00131379
0.00131468
0.00131494
0.00131552
0.00131596
0.0013159
0.00131573
0.0013146
0.00131498
0.00131462
0.00131579
0.00131615
0.00131742
0.00131785
0.00131874
0.00131962
0.00132045
0.00132173
0.0013221
0.00132422
0.00132579
0.00132726
0.00132875
0.00132947
0.00133045
0.00132996
0.0013354
0.00133597
0.00133756
0.0013384
0.00133961
0.00134329
0.00134696
0.00135157
0.00135559
0.00135998
0.00136436
0.00137
0.00137288
0.00138163
0.00138627
0.00139557
0.00139892
0.00140834
0.0014053
0.00141418
0.00142127
0.00142742
0.00144165
0.00146827
0.00145803
0.0014708
0.00151603
0.00155233
0.00158113
0.00160369
0.00165387
0.0016869
0.00175695
0.00179873
0.00192398
0.00191613
0.00207291
0.00132297
0.00132273
0.00132229
0.00132175
0.00132109
0.00132076
0.00132038
0.00132044
0.0013205
0.00132108
0.00132175
0.00132255
0.0013233
0.00132375
0.00132441
0.00132471
0.00132556
0.0013262
0.00132731
0.00132812
0.00132904
0.00132951
0.00133131
0.00133306
0.00133416
0.00133472
0.00133577
0.00133643
0.00133723
0.0013389
0.00134127
0.00134497
0.00134809
0.00134985
0.00135282
0.00135771
0.00135906
0.00136417
0.00136355
0.00136347
0.00135743
0.00136207
0.00136704
0.00137936
0.00138603
0.00140418
0.00141028
0.00142865
0.00143265
0.00144246
0.00141671
0.00144511
0.00140735
0.00140885
0.00142311
0.00145067
0.00148858
0.001528
0.00155205
0.00158745
0.00160849
0.00164725
0.00169665
0.00173047
0.00180444
0.00185761
0.00196206
0.00205142
0.00224929
0.00133025
0.00133094
0.00133124
0.00133139
0.0013312
0.00133102
0.00133046
0.00133003
0.00132936
0.00132902
0.00132881
0.00132904
0.00132958
0.00133022
0.0013312
0.00133213
0.0013332
0.00133426
0.00133541
0.00133669
0.00133802
0.00133942
0.00133988
0.00134392
0.00134424
0.00134551
0.00134522
0.00134897
0.00134894
0.00135761
0.00136007
0.00135977
0.00137135
0.00137429
0.00137575
0.00137641
0.00139024
0.00138762
0.00140345
0.00138946
0.00139689
0.0013873
0.00137973
0.00138706
0.00139737
0.00141737
0.00142321
0.00144716
0.00141763
0.00142639
0.00140142
0.00139493
0.00140966
0.00144147
0.00148647
0.00152841
0.00154028
0.00157511
0.00158617
0.00162564
0.00164848
0.00169246
0.00173731
0.00178183
0.00186523
0.00192095
0.00204835
0.00214161
0.00233565
0.00133917
0.00134068
0.00134135
0.00134173
0.00134173
0.00134186
0.00134192
0.00134207
0.00134202
0.00134199
0.00134202
0.00134196
0.00134215
0.00134234
0.00134267
0.00134306
0.00134358
0.00134445
0.00134493
0.00134614
0.00134627
0.00135109
0.00135427
0.00135783
0.0013569
0.00136319
0.00136257
0.00135985
0.00136745
0.00136502
0.00136537
0.00137719
0.00137128
0.00138468
0.00139064
0.0013817
0.0013908
0.00137457
0.00137534
0.00138099
0.00138268
0.00139726
0.00141049
0.00142675
0.00144104
0.00144511
0.00143161
0.00139742
0.00139018
0.00139189
0.00140717
0.0014346
0.00148061
0.00151414
0.00153462
0.00155901
0.00157548
0.0016069
0.00162523
0.00166626
0.00169308
0.00174345
0.00178931
0.00184612
0.00193236
0.00199637
0.00214586
0.0022456
0.00244335
0.00135166
0.00135125
0.00135241
0.00135179
0.00135351
0.00135372
0.00135335
0.00135271
0.00135258
0.00135246
0.00135276
0.00135315
0.00135425
0.00135503
0.00135633
0.00135709
0.00135797
0.00135794
0.0013616
0.00136432
0.00136597
0.0013665
0.00136861
0.00136827
0.00137557
0.00137631
0.00137241
0.00137575
0.00137894
0.00138574
0.00138681
0.0014038
0.00139992
0.00139904
0.00139344
0.00139568
0.0014
0.00140834
0.00140421
0.00142833
0.00140951
0.00142153
0.00139906
0.00140143
0.00140397
0.00140315
0.00140998
0.00139734
0.00141632
0.0014319
0.00147601
0.00151071
0.00153307
0.00155494
0.00157321
0.0015961
0.00161798
0.00164512
0.00167537
0.00170826
0.00175178
0.00179602
0.00185304
0.00192163
0.00200621
0.00208967
0.00225036
0.00236484
0.00257937
0.00136408
0.00136519
0.00136496
0.00136704
0.00136826
0.00136724
0.0013677
0.00137124
0.00137269
0.00137404
0.00137358
0.00137284
0.00137063
0.00137386
0.00137352
0.0013773
0.00138027
0.00137964
0.00137932
0.00138112
0.00138326
0.00138351
0.00138164
0.00138445
0.00139028
0.00139527
0.00138704
0.00139009
0.00139485
0.00140268
0.00140678
0.00141065
0.00140675
0.00141172
0.00140643
0.00141861
0.00143282
0.00144887
0.00143244
0.00145577
0.00143281
0.00142421
0.00141463
0.00141497
0.00141612
0.00143097
0.00142426
0.00143995
0.00148233
0.00151549
0.00153788
0.00155821
0.0015752
0.00159576
0.00161457
0.00163912
0.00166327
0.00169309
0.0017275
0.00176292
0.0018139
0.00186017
0.00192785
0.00201066
0.0020864
0.00222913
0.00234262
0.00251677
0.00268697
0.0013794
0.00138087
0.00138043
0.00138358
0.00138582
0.00138158
0.00138338
0.00138175
0.00138222
0.00138978
0.00139338
0.0013928
0.001393
0.00139479
0.00139909
0.00140542
0.00141066
0.0014069
0.00141208
0.00141304
0.00141274
0.0014075
0.00141773
0.00142222
0.00142533
0.00142782
0.00142165
0.00141404
0.00142432
0.0014256
0.0014077
0.00141664
0.00141917
0.00142311
0.00142315
0.00142867
0.0014273
0.00143257
0.00142554
0.00143047
0.00141726
0.00142194
0.00142665
0.00143593
0.00146568
0.00149621
0.00151788
0.00153655
0.00155223
0.00156871
0.00158363
0.00160203
0.00161875
0.00164113
0.00166131
0.00168922
0.00171532
0.00174991
0.00178709
0.00182816
0.00188606
0.00193565
0.00202279
0.00210206
0.00220759
0.00235648
0.00246953
0.00262212
0.0028008
0.00140255
0.00140124
0.0014024
0.00140431
0.00140596
0.00140696
0.00140269
0.00140384
0.00140035
0.00140581
0.00140842
0.00140912
0.00141127
0.00140916
0.00141094
0.00140759
0.00140748
0.00141045
0.00141647
0.00142232
0.00142972
0.00142811
0.00143525
0.00143927
0.00144469
0.00144348
0.00145735
0.0014682
0.00146988
0.00147563
0.00147005
0.00148358
0.00146455
0.00147568
0.00146158
0.00143479
0.00143126
0.00143072
0.00145652
0.00144857
0.00147633
0.00149829
0.00151438
0.00152859
0.00154188
0.00155558
0.00156852
0.00158313
0.00159713
0.00161418
0.00162971
0.00165041
0.00166823
0.00169418
0.00171534
0.00174869
0.00177505
0.00181849
0.00185449
0.00190971
0.0019673
0.00203295
0.00213297
0.00221107
0.00235747
0.00247452
0.0026119
0.00280471
0.00293597
0.00142705
0.00142907
0.00142907
0.00142818
0.00143294
0.00143323
0.0014333
0.00143277
0.00143355
0.00143669
0.00143955
0.00144248
0.001438
0.00143548
0.00144398
0.00144436
0.00143489
0.00143284
0.00143638
0.00143994
0.00144264
0.00144304
0.00144688
0.00144843
0.00145053
0.00144745
0.0014497
0.00144922
0.0014546
0.00145183
0.00145246
0.0014583
0.00144564
0.00144815
0.0014489
0.00147453
0.0014646
0.00149225
0.00151496
0.00153025
0.00154364
0.00155592
0.00156756
0.00157954
0.00159138
0.00160458
0.00161747
0.00163294
0.00164766
0.00166673
0.00168333
0.00170705
0.00172607
0.00175628
0.00177876
0.00181835
0.00184588
0.00189972
0.00193536
0.00200999
0.00206255
0.00216059
0.00224906
0.0023619
0.00249665
0.00262773
0.00274954
0.00299353
0.00294946
0.00145509
0.00145244
0.00145288
0.0014577
0.00145804
0.00145401
0.00145046
0.00145681
0.00145796
0.00145625
0.00146369
0.00146444
0.0014592
0.00146866
0.00145489
0.00146189
0.0014552
0.00145345
0.00144708
0.00144828
0.00145389
0.00144805
0.00145753
0.00145498
0.00146101
0.00146418
0.00146333
0.00146206
0.00146702
0.00145619
0.00146011
0.00146356
0.00149313
0.00148584
0.00151474
0.00153811
0.00155292
0.00156556
0.00157707
0.00158789
0.00159852
0.00160945
0.00162055
0.00163257
0.00164478
0.00165885
0.00167265
0.00168976
0.00170561
0.00172735
0.00174537
0.00177294
0.00179356
0.00182919
0.00185388
0.00190099
0.00193222
0.00199694
0.00203776
0.00212985
0.00218447
0.00231001
0.00238812
0.00253034
0.00265262
0.00277045
0.0029555
0.00303462
0.00324986
0.00148596
0.00148345
0.00148642
0.00148462
0.00148214
0.00148588
0.00148857
0.00149162
0.00149339
0.00149468
0.00150036
0.00150705
0.00150495
0.00150523
0.00149707
0.00149408
0.00150583
0.00149831
0.00149616
0.0014879
0.00148423
0.00149929
0.0014971
0.00151191
0.00152235
0.00152856
0.00153455
0.00153834
0.00154484
0.00154978
0.00155853
0.00156603
0.00157636
0.0015853
0.00159542
0.00160556
0.00161526
0.00162487
0.00163463
0.00164469
0.0016552
0.00166646
0.00167824
0.00169125
0.00170469
0.00172033
0.00173578
0.00175521
0.00177297
0.00179804
0.00181839
0.00185084
0.00187422
0.00191693
0.00194548
0.00200243
0.00204012
0.00211724
0.00216812
0.00227396
0.00233746
0.00247892
0.00254851
0.0027203
0.00279447
0.00297864
0.00305762
0.00326818
0.00325878
0.00152493
0.00153676
0.00154256
0.00153467
0.00154294
0.00154185
0.00153722
0.00155036
0.00154588
0.00154636
0.00154482
0.00154259
0.00154571
0.00155966
0.00155919
0.00155427
0.00155303
0.0015531
0.00155873
0.00154231
0.00155482
0.0015302
0.0015249
0.00152563
0.00155158
0.00154867
0.00157263
0.00159034
0.00160249
0.00161232
0.0016208
0.00162944
0.00163809
0.00164693
0.00165607
0.00166531
0.00167478
0.00168464
0.00169501
0.00170597
0.00171767
0.00173031
0.00174373
0.00175855
0.00177406
0.00179202
0.00181005
0.00183251
0.00185343
0.00188262
0.00190698
0.00194561
0.00197397
0.00202591
0.00206082
0.00213073
0.00217671
0.0022687
0.00232988
0.00244607
0.00252039
0.00266033
0.0027385
0.00289897
0.0029765
0.00314246
0.00323904
0.0033546
0.00354298
0.00156397
0.00156163
0.00156023
0.00156046
0.00156286
0.00156821
0.00156762
0.00157302
0.0015916
0.00159953
0.00160943
0.00161425
0.001617
0.00161991
0.00163011
0.00163288
0.00163461
0.00162399
0.00162821
0.001619
0.00161524
0.00161324
0.00161669
0.0016214
0.00162995
0.00163778
0.00164698
0.00165628
0.00166535
0.00167428
0.0016832
0.00169228
0.00170157
0.00171123
0.00172113
0.00173127
0.0017419
0.0017531
0.00176501
0.00177769
0.0017913
0.00180603
0.00182181
0.00183915
0.00185761
0.00187869
0.00190049
0.00192698
0.00195289
0.00198756
0.0020186
0.0020651
0.00210199
0.00216511
0.00220973
0.00229424
0.00234893
0.0024562
0.00252191
0.00264778
0.00272215
0.00286037
0.0029385
0.00308577
0.00316251
0.00331438
0.0033877
0.00352278
0.00360631
0.0016326
0.00164036
0.00164894
0.00166616
0.00165792
0.00164686
0.00163972
0.00163021
0.00162369
0.00162214
0.00161166
0.00160933
0.00161132
0.00161578
0.00162534
0.00161236
0.00161597
0.0016166
0.00164458
0.0016395
0.00166293
0.00168032
0.00169158
0.00170038
0.00170859
0.00171664
0.00172484
0.00173327
0.00174194
0.0017509
0.00176018
0.00176983
0.00177996
0.00179048
0.00180136
0.00181278
0.00182489
0.0018378
0.00185161
0.00186645
0.0018825
0.00189994
0.00191883
0.00193959
0.00196212
0.00198758
0.00201489
0.00204711
0.00208055
0.00212275
0.00216393
0.00222029
0.00226949
0.00234418
0.0024011
0.00249723
0.00255973
0.00267611
0.00274086
0.00287158
0.00293667
0.00307507
0.00314037
0.0032804
0.00334537
0.00347659
0.00354107
0.00363655
0.00371523
0.00169333
0.00169879
0.00169188
0.0016964
0.00169903
0.00170597
0.00171306
0.0017161
0.00171751
0.00171826
0.00172034
0.00172203
0.00172654
0.00172969
0.00173569
0.00173916
0.00174562
0.00175089
0.00175923
0.00176595
0.00177386
0.00178181
0.00178943
0.0017969
0.00180444
0.00181219
0.00182027
0.00182873
0.00183762
0.00184701
0.00185689
0.00186743
0.00187847
0.00189005
0.00190228
0.00191538
0.00192942
0.00194456
0.00196094
0.00197872
0.00199812
0.00201939
0.00204269
0.00206845
0.00209687
0.00212884
0.00216404
0.00220456
0.00224835
0.00230042
0.00235437
0.00242141
0.00248463
0.00256826
0.00263609
0.00273614
0.00280359
0.00291833
0.00297986
0.00310595
0.00316015
0.00329368
0.00333986
0.00347474
0.00351112
0.00363236
0.0036614
0.00373221
0.00376691
0.00179586
0.00177993
0.00177548
0.00176105
0.00176254
0.0017648
0.00178725
0.00178487
0.00180448
0.00181831
0.00182735
0.00183398
0.00184021
0.00184591
0.00185195
0.00185781
0.00186404
0.00187028
0.00187684
0.00188349
0.00189033
0.00189737
0.00190463
0.00191215
0.00192
0.00192826
0.00193696
0.00194621
0.00195602
0.00196651
0.00197768
0.00198953
0.00200205
0.00201545
0.00202989
0.00204554
0.00206252
0.00208105
0.0021013
0.00212353
0.00214801
0.00217509
0.002205
0.00223822
0.00227511
0.00231628
0.00236186
0.00241286
0.00246837
0.00253079
0.00259605
0.00267079
0.00274356
0.00282976
0.00290339
0.00299927
0.00306639
0.00317024
0.0032267
0.0033396
0.00338364
0.00350249
0.00352984
0.00365076
0.00365081
0.00376612
0.00372764
0.00380485
0.00372171
0.00189968
0.0019079
0.00191308
0.0019152
0.0019197
0.0019238
0.00193077
0.00193652
0.00194342
0.00195024
0.00195671
0.00196287
0.00196901
0.00197516
0.00198148
0.00198795
0.00199463
0.00200151
0.00200864
0.00201602
0.0020237
0.00203172
0.00204013
0.00204898
0.00205831
0.00206822
0.00207875
0.00208997
0.00210201
0.00211473
0.00212829
0.00214272
0.00215832
0.00217525
0.00219365
0.00221376
0.00223576
0.00225993
0.00228649
0.00231578
0.00234809
0.00238374
0.00242294
0.00246603
0.00251323
0.00256469
0.00262041
0.0026804
0.00274407
0.00281176
0.0028814
0.0029555
0.0030277
0.0031076
0.00317829
0.00326308
0.00332533
0.00341571
0.00346393
0.00355931
0.00358958
0.00368605
0.00369451
0.00378508
0.00375826
0.00383562
0.00375229
0.0037973
0.00363844
0.00207292
0.00207759
0.00208202
0.00208614
0.00209059
0.00209516
0.00210016
0.00210534
0.00211077
0.00211639
0.00212219
0.00212818
0.00213439
0.00214087
0.00214764
0.00215473
0.00216218
0.00217
0.00217823
0.00218691
0.00219609
0.00220581
0.00221612
0.00222712
0.00223883
0.00225141
0.00226479
0.002279
0.0022942
0.00231046
0.00232808
0.00234723
0.00236809
0.00239086
0.00241573
0.00244294
0.00247267
0.00250517
0.00254059
0.00257912
0.00262088
0.00266591
0.00271411
0.00276542
0.00281965
0.00287646
0.00293554
0.00299637
0.00305855
0.00312167
0.00318504
0.00324928
0.00331191
0.00337745
0.0034368
0.00350568
0.00355756
0.00363023
0.00366592
0.00374221
0.00375352
0.00382684
0.00380628
0.00386417
0.00379944
0.00383364
0.00369623
0.00368924
0.00338679
0.0022887
0.0022933
0.00229775
0.00230229
0.00230693
0.0023117
0.00231667
0.00232186
0.00232732
0.00233308
0.00233916
0.00234562
0.00235248
0.0023598
0.00236762
0.002376
0.00238497
0.00239459
0.00240491
0.002416
0.0024279
0.00244072
0.00245446
0.00246911
0.00248474
0.00250153
0.00251954
0.002539
0.0025601
0.00258295
0.00260767
0.00263441
0.00266327
0.00269436
0.00272775
0.00276348
0.00280155
0.00284192
0.00288449
0.00292911
0.00297558
0.0030236
0.00307283
0.00312296
0.0031737
0.00322465
0.00327562
0.00332622
0.00337647
0.00342605
0.00347506
0.00352355
0.00357082
0.00361869
0.00366255
0.00371094
0.00374663
0.00379748
0.00381544
0.00386716
0.00385314
0.00389971
0.00384159
0.00386251
0.0037541
0.00372579
0.00354539
0.0033979
0.00312791
0.00259744
0.00260472
0.00261175
0.0026188
0.00262583
0.00263288
0.00264001
0.00264728
0.00265478
0.00266256
0.00267068
0.00267922
0.00268824
0.00269784
0.00270807
0.00271906
0.00273074
0.00274318
0.00275646
0.0027707
0.00278599
0.00280247
0.00282017
0.00283932
0.00285999
0.00288221
0.00290602
0.00293144
0.00295849
0.00298716
0.0030174
0.00304916
0.00308235
0.00311684
0.0031525
0.00318914
0.00322656
0.00326453
0.00330284
0.00334123
0.0033795
0.00341736
0.00345466
0.00349123
0.00352704
0.00356197
0.0035961
0.00362935
0.0036619
0.00369363
0.00372468
0.00375493
0.00378392
0.00381233
0.00383701
0.00386304
0.00387775
0.00390107
0.00389579
0.0039166
0.00387095
0.00388564
0.00377532
0.00376809
0.00358115
0.00351238
0.00319425
0.00303142
0.00249945
0.00305227
0.00306319
0.0030741
0.00308524
0.00309642
0.00310765
0.00311901
0.00313056
0.00314238
0.00315453
0.00316707
0.00318009
0.00319366
0.00320783
0.00322275
0.0032385
0.0032551
0.00327256
0.00329085
0.00331008
0.00332979
0.00334998
0.00337065
0.00339178
0.00341338
0.00343542
0.00345787
0.00348068
0.00350379
0.00352712
0.00355058
0.00357405
0.00359741
0.00362055
0.00364334
0.00366564
0.00368734
0.00370834
0.00372858
0.00374797
0.00376653
0.0037842
0.00380105
0.00381711
0.00383251
0.00384728
0.00386152
0.00387522
0.00388838
0.00390088
0.00391244
0.00392291
0.00393128
0.00393796
0.00393986
0.00394051
0.0039291
0.00392147
0.00388693
0.00386917
0.00379004
0.00375786
0.0035995
0.00354141
0.00327227
0.0030947
0.00272458
0.00248781
0.0021042
0.00381122
0.00383038
0.00384875
0.00386651
0.00388353
0.00389977
0.00391527
0.00393005
0.00394415
0.00395758
0.00397039
0.00398262
0.00399432
0.00400549
0.0040163
0.00402628
0.00403544
0.00404383
0.00405148
0.00405842
0.00406496
0.00407111
0.00407684
0.00408214
0.00408698
0.00409134
0.00409518
0.00409847
0.00410117
0.00410325
0.00410466
0.00410536
0.00410532
0.0041045
0.00410291
0.00410055
0.00409746
0.00409371
0.00408939
0.00408458
0.00407942
0.00407396
0.00406835
0.00406264
0.00405692
0.00405112
0.00404519
0.00403892
0.00403204
0.0040242
0.0040147
0.00400327
0.0039883
0.00397032
0.00394572
0.00391751
0.00387478
0.00383399
0.0037648
0.00370511
0.0035879
0.00350263
0.00327857
0.00311374
0.00276856
0.00254488
0.00214917
0.0019223
0.00158332
0.0047389
0.00475323
0.00476569
0.00477642
0.00478535
0.0047925
0.00479794
0.00480167
0.00480374
0.00480417
0.00480302
0.0048004
0.00479634
0.0047909
0.00478401
0.00477606
0.0047671
0.00475716
0.00474624
0.00473438
0.00472158
0.00470788
0.00469328
0.00467779
0.00466142
0.00464415
0.00462597
0.00460687
0.00458682
0.00456582
0.00454381
0.00452081
0.00449672
0.00447163
0.00444551
0.00441864
0.00439095
0.00436285
0.00433443
0.00430591
0.00427762
0.00424977
0.00422252
0.00419583
0.00416962
0.00414356
0.00411742
0.00409061
0.00406275
0.0040329
0.00400048
0.00396474
0.00392428
0.00387904
0.00382562
0.0037648
0.0036898
0.00361533
0.00351377
0.00339884
0.00320591
0.00302795
0.0027476
0.00251503
0.00216552
0.00192837
0.00159736
0.00140212
0.00135308
0.00525682
0.00526244
0.00526646
0.00526898
0.00526987
0.00526928
0.00526776
0.00526444
0.00525936
0.00525213
0.0052434
0.00523425
0.00522381
0.00521193
0.00519854
0.00518359
0.00516708
0.00514908
0.00512964
0.00510877
0.00508657
0.00506302
0.00503812
0.00501193
0.00498443
0.00495563
0.00492555
0.00489412
0.00486127
0.0048269
0.0047907
0.00475275
0.00471222
0.00466976
0.00462473
0.00457836
0.00452888
0.00447897
0.00442632
0.00437245
0.00431963
0.00426873
0.00421984
0.00417258
0.0041264
0.00408054
0.00403439
0.00398698
0.00393791
0.00388505
0.00383018
0.00377096
0.00370745
0.0036359
0.00355342
0.00346098
0.003345
0.00321026
0.00304201
0.0028496
0.00261489
0.00239028
0.00209561
0.00184256
0.00154789
0.00135949
0.00114685
0.0011265
0.00111404
0.00531639
0.0053159
0.00531384
0.00531045
0.00530563
0.00530103
0.00530757
0.00530301
0.00529502
0.0052763
0.00526094
0.0052647
0.00525794
0.00524894
0.00523785
0.0052248
0.00520989
0.00519349
0.00517566
0.00515611
0.00513579
0.00511353
0.00508908
0.00506311
0.00503472
0.00500503
0.00497454
0.00494276
0.00491046
0.00487604
0.00483851
0.00479716
0.00475199
0.00470273
0.0046495
0.00459134
0.00452535
0.0044541
0.00434772
0.00424032
0.00415013
0.0040721
0.00400189
0.00393632
0.00387302
0.00381022
0.00374656
0.00368132
0.00361312
0.00353945
0.00347286
0.00338625
0.00329067
0.00317595
0.00304365
0.00289652
0.00273978
0.00256707
0.00236942
0.00216167
0.00189862
0.00165268
0.00142207
0.00122637
0.00106177
0.000977404
0.000988647
0.00105407
0.00114856
0.00490614
0.00489728
0.00488493
0.00487569
0.00486247
0.00485161
0.00483947
0.00482866
0.00481114
0.00478696
0.00475408
0.00472239
0.00469095
0.00465958
0.00462814
0.00459665
0.0045654
0.00453587
0.00450675
0.00447894
0.00446615
0.00444194
0.00440985
0.00437905
0.00432875
0.00428928
0.00425325
0.0042212
0.00421163
0.0041938
0.00416309
0.00412463
0.00407968
0.00403128
0.00397866
0.00392282
0.00386259
0.00380035
0.00373512
0.00366799
0.0036006
0.00353362
0.00346643
0.00339843
0.00332844
0.00325554
0.00317864
0.0030964
0.00300793
0.00290987
0.00280383
0.00268947
0.00256952
0.00243727
0.00230023
0.00215788
0.0019957
0.00178942
0.00156468
0.00135864
0.00118359
0.00103186
0.00090841
0.00083565
0.000848177
0.000913957
0.00100403
0.00113878
0.00124526
0.00391496
0.00389428
0.00387279
0.00385054
0.0038277
0.00380471
0.00378213
0.00375882
0.00373501
0.00371016
0.00368419
0.00365689
0.00362848
0.00359869
0.00356807
0.00353704
0.00350651
0.0034754
0.00344398
0.00341225
0.0033805
0.00334829
0.00331558
0.00328252
0.00324885
0.00321507
0.00318146
0.00314813
0.00311525
0.00308267
0.00305001
0.0030183
0.00298852
0.002978
0.00295924
0.00292751
0.00288837
0.00284511
0.00279883
0.00275085
0.00270061
0.00264702
0.0025887
0.00252531
0.00245585
0.0023803
0.00229847
0.00220937
0.00211427
0.00201005
0.0019014
0.00178106
0.00165753
0.00152331
0.00139137
0.00126442
0.00114701
0.00099656
0.000860147
0.000771543
0.000699008
0.000692674
0.000734712
0.000821416
0.00093001
0.0010453
0.00118446
0.00129609
0.00137329
0.00215805
0.0021443
0.00213113
0.00210814
0.00208902
0.00207196
0.00206743
0.00204661
0.00202937
0.00201289
0.002006
0.00199253
0.00197772
0.00195256
0.00193094
0.00191063
0.00190368
0.00187949
0.00185846
0.00183785
0.001817
0.0017967
0.00177619
0.00175597
0.00173553
0.00171526
0.00169507
0.00167498
0.00165496
0.00163493
0.00161486
0.00159474
0.00157438
0.00155365
0.00153222
0.00150994
0.00148636
0.00146118
0.00143135
0.00139791
0.00136797
0.00133229
0.00128714
0.00123539
0.00117872
0.00111906
0.00105843
0.000997032
0.000937931
0.000879599
0.000825768
0.000774244
0.000729753
0.000685956
0.0006474
0.000612243
0.000582561
0.000570501
0.000590561
0.000631153
0.000674305
0.000744025
0.000812271
0.000909504
0.00100853
0.00111222
0.00122902
0.00130005
0.00136289
0.00038547
0.000390165
0.000393748
0.000389632
0.000388064
0.0003931
0.00039786
0.000399397
0.000402016
0.000402119
0.000404492
0.000403136
0.000406197
0.000400182
0.000399199
0.000399303
0.000400799
0.00040059
0.000405926
0.000412003
0.000411562
0.000417362
0.000416187
0.000419897
0.000418186
0.000416037
0.000414437
0.000414087
0.000414259
0.000414664
0.00041522
0.000415885
0.000416626
0.000417433
0.000418265
0.000419118
0.00041996
0.00042078
0.000421562
0.000422298
0.000422958
0.000423525
0.000423953
0.000424227
0.000424308
0.0004242
0.00042386
0.00042328
0.000422405
0.000421185
0.000419545
0.000417421
0.0004147
0.000411393
0.000407209
0.000402184
0.000395797
0.000387781
0.000377869
0.000366366
0.000352399
0.000336963
0.000320477
0.000300286
0.000295916
0.000299309
0.000312285
0.000349666
0.000389017
0.00133452
0.00133453
0.00133298
0.00133243
0.00133046
0.00132908
0.00132701
0.00132575
0.00132354
0.00132042
0.0013188
0.00131373
0.001314
0.00131424
0.00131524
0.00131431
0.00131474
0.00131539
0.00131566
0.00131524
0.00131743
0.00131896
0.00131812
0.00131841
0.00132088
0.00132264
0.00132453
0.00132525
0.00132613
0.00132501
0.00132319
0.00132314
0.00132411
0.00132489
0.00132569
0.00132525
0.00132517
0.00132479
0.00132278
0.00132206
0.00131992
0.00132086
0.00132176
0.00132125
0.00132093
0.00131932
0.00131872
0.00131891
0.00131817
0.00131636
0.00131454
0.00131402
0.00131526
0.00131614
0.0013168
0.00131696
0.00131674
0.00131601
0.00131532
0.00134023
0.00133843
0.00133697
0.00133459
0.00133397
0.00133192
0.00132973
0.00132882
0.0013246
0.00132202
0.00132202
0.00132088
0.00131982
0.00132137
0.00132084
0.00132297
0.00132177
0.0013223
0.0013231
0.00132374
0.00132481
0.0013255
0.00132476
0.0013256
0.00132786
0.00132953
0.00133083
0.00133171
0.00133211
0.00133096
0.00132941
0.00132935
0.00132998
0.00133088
0.00133167
0.00133142
0.00133079
0.00133053
0.00132972
0.00132872
0.00132627
0.00132642
0.00132676
0.00132726
0.00132729
0.00132641
0.00132543
0.00132549
0.00132475
0.00132533
0.00132375
0.00132173
0.00132047
0.00132039
0.00132082
0.00132145
0.00132208
0.00132261
0.00132278
0.00134321
0.00134236
0.00134144
0.00134034
0.00133959
0.00133565
0.00133378
0.00133216
0.00133192
0.00133121
0.00133046
0.00132888
0.00133065
0.00133033
0.00133044
0.00133058
0.00133041
0.0013308
0.00133105
0.00133276
0.00133254
0.00133264
0.00133238
0.00133367
0.00133601
0.00133743
0.00133815
0.00133905
0.00133905
0.0013381
0.00133633
0.00133603
0.00133626
0.00133759
0.00133854
0.00133842
0.00133819
0.00133756
0.00133682
0.00133691
0.00133425
0.00133339
0.00133338
0.00133359
0.00133401
0.0013339
0.0013331
0.00133291
0.0013323
0.00133234
0.00133259
0.00133186
0.00133068
0.00132933
0.00132855
0.00132829
0.00132854
0.00132891
0.00132945
0.00135265
0.00135142
0.00134788
0.00134582
0.00134451
0.00134445
0.00134203
0.00134161
0.00134102
0.00133971
0.00133996
0.00134058
0.00134139
0.00133925
0.00133928
0.00133938
0.00133958
0.0013402
0.0013438
0.0013421
0.00134216
0.00134207
0.00134171
0.00134281
0.00134532
0.00134625
0.00134691
0.00134771
0.00134751
0.0013466
0.00134509
0.00134481
0.00134497
0.00134573
0.00134667
0.00134677
0.00134661
0.00134603
0.00134526
0.00134581
0.00134374
0.00134218
0.00134175
0.00134174
0.00134203
0.00134239
0.0013421
0.00134195
0.0013415
0.00134113
0.00134135
0.00134145
0.00134114
0.00134029
0.00133923
0.0013384
0.00133785
0.00133784
0.00133908
0.00135561
0.00135582
0.00135735
0.00135494
0.00135181
0.0013528
0.00135075
0.00135278
0.00135327
0.00135329
0.00135315
0.00135373
0.00135333
0.00135296
0.00135155
0.00135227
0.00135202
0.00135273
0.0013531
0.00135297
0.00135275
0.00135239
0.00135229
0.00135324
0.00135585
0.00135617
0.00135682
0.00135763
0.00135724
0.00135635
0.00135487
0.00135448
0.00135457
0.00135527
0.0013562
0.00135637
0.00135632
0.00135583
0.00135508
0.00135551
0.0013545
0.00135278
0.00135183
0.0013515
0.00135133
0.00135183
0.00135195
0.0013521
0.00135197
0.00135163
0.00135163
0.00135189
0.00135209
0.00135198
0.00135149
0.00135067
0.00135023
0.00134899
0.00135062
0.00137549
0.00137468
0.00137465
0.00137233
0.00137402
0.00137578
0.00137441
0.00137358
0.00137186
0.00136957
0.00136976
0.00137037
0.00136965
0.00136782
0.00136786
0.00136598
0.00136653
0.00136624
0.00136562
0.00136552
0.00136515
0.00136539
0.00136543
0.00136676
0.00136822
0.0013685
0.00136899
0.00136958
0.0013689
0.00136802
0.00136651
0.00136602
0.00136609
0.00136673
0.00136771
0.00136796
0.00136805
0.00136776
0.00136716
0.00136729
0.00136748
0.00136556
0.00136442
0.00136399
0.0013635
0.00136347
0.00136384
0.00136425
0.00136439
0.00136417
0.001364
0.00136417
0.00136447
0.00136477
0.00136489
0.00136463
0.00136439
0.00136379
0.0013636
0.00139805
0.00139787
0.00139674
0.00139866
0.00140198
0.00139728
0.00139602
0.00139295
0.00139283
0.00139168
0.00139113
0.00139073
0.00138835
0.00138572
0.00138273
0.00138346
0.00138357
0.00138325
0.00138356
0.00138159
0.00138014
0.00137977
0.00138012
0.00138112
0.00138212
0.00138248
0.001383
0.00138341
0.00138271
0.00138181
0.00138032
0.00137967
0.00137971
0.0013802
0.00138132
0.0013816
0.00138174
0.0013816
0.00138112
0.00138097
0.00138152
0.00138102
0.00137906
0.00137826
0.00137809
0.00137766
0.00137736
0.00137782
0.00137869
0.00137931
0.00137947
0.00137949
0.00137963
0.00137989
0.00138013
0.00138029
0.00138025
0.00137979
0.00137944
0.00143146
0.00142929
0.00142503
0.00142529
0.00142069
0.0014181
0.0014156
0.00141451
0.00141042
0.00140989
0.00140849
0.00140736
0.00140556
0.00140432
0.00140347
0.00140367
0.00140323
0.0014028
0.00140168
0.0014002
0.00139869
0.00139826
0.00139862
0.00139921
0.00139962
0.00140006
0.00140024
0.00140063
0.00139947
0.00139842
0.0013969
0.00139619
0.00139622
0.00139659
0.00139785
0.00139838
0.00139849
0.00139875
0.00139873
0.00139847
0.00139876
0.00139913
0.00139796
0.00139649
0.0013957
0.00139658
0.0013965
0.00139558
0.00139465
0.00139421
0.00139494
0.00139564
0.00139608
0.00139641
0.00139688
0.00139669
0.00139844
0.00140004
0.00140177
0.00146239
0.00145849
0.00145381
0.00145329
0.00144836
0.00144491
0.00144021
0.001435
0.00143411
0.00143254
0.00143093
0.00142955
0.00142804
0.00142713
0.00142643
0.00142604
0.0014254
0.00142447
0.00142283
0.00142105
0.00141944
0.00141881
0.00141895
0.00141925
0.00141975
0.00141984
0.00142019
0.00142059
0.00141924
0.00141813
0.00141655
0.0014158
0.00141575
0.00141601
0.00141709
0.0014182
0.00141828
0.00141858
0.00141872
0.00141872
0.00141907
0.00141996
0.00142014
0.00141821
0.00141714
0.00141822
0.00141909
0.00141991
0.0014216
0.00142269
0.00141955
0.00142032
0.00142094
0.00142236
0.00142325
0.00142447
0.00142597
0.00142732
0.00142646
0.00148293
0.00147594
0.00147501
0.00147251
0.00146989
0.00146793
0.00146539
0.00146347
0.00146175
0.00146002
0.00145857
0.00145734
0.00145634
0.00145556
0.00145484
0.00145417
0.00145303
0.00145138
0.00144913
0.00144719
0.00144574
0.00144521
0.00144534
0.00144548
0.00144584
0.00144565
0.00144569
0.00144545
0.00144352
0.00144221
0.00144055
0.0014398
0.00143975
0.00144007
0.00144097
0.0014424
0.00144325
0.00144364
0.00144382
0.00144394
0.00144469
0.00144524
0.00144637
0.00144766
0.00144572
0.00144411
0.00144078
0.00144237
0.00144164
0.00144124
0.00144709
0.00145098
0.00145555
0.00145291
0.00145736
0.0014562
0.00145551
0.00145544
0.00145249
0.00151079
0.00150893
0.00150715
0.00150524
0.00150333
0.00150154
0.00149969
0.00149804
0.00149645
0.00149508
0.00149387
0.00149268
0.00149145
0.00149005
0.00148857
0.00148685
0.00148463
0.00148197
0.0014793
0.00147733
0.00147576
0.00147502
0.00147469
0.00147442
0.00147459
0.00147435
0.00147446
0.0014741
0.00147217
0.00147082
0.0014691
0.00146829
0.00146816
0.00146843
0.00146923
0.00147047
0.0014719
0.00147249
0.00147283
0.0014734
0.00147237
0.00147515
0.00147668
0.0014771
0.00147865
0.00148002
0.0014772
0.0014791
0.00147659
0.00147244
0.00147617
0.00147215
0.00147229
0.00147275
0.00147485
0.00148084
0.00148019
0.00147948
0.00148435
0.00155435
0.00155288
0.00155083
0.00154916
0.00154737
0.00154567
0.00154402
0.00154238
0.00154077
0.00153911
0.00153734
0.00153528
0.00153307
0.00153066