/*--------------------------------*- C++ -*----------------------------------*\
| =========                 |                                                 |
| \\      /  F ield         | OpenFOAM: The Open Source CFD Toolbox           |
|  \\    /   O peration     | Version:  2312                                  |
|   \\  /    A nd           | Website:  www.openfoam.com                      |
|    \\/     M anipulation  |                                                 |
\*---------------------------------------------------------------------------*/
FoamFile
{
    version     2.0;
    format      ascii;
    arch        "LSB;label=32;scalar=64";
    class       volScalarField;
    location    "1400";
    object      p;
}
// * * * * * * * * * * * * * * * * * * * * * * * * * * * * * * * * * * * * * //

dimensions      [0 2 -2 0 0 0 0];

internalField   nonuniform List<scalar> 
76025
(
0.00642771
0.00034129
-0.0058409
-0.0120934
-0.0183167
-0.0246454
-0.0311422
-0.0374802
-0.0439735
-0.050394
-0.0568315
-0.0632787
-0.0697436
-0.0761624
-0.0826552
-0.0890712
-0.095379
-0.101698
-0.107991
-0.11415
-0.120207
-0.126306
-0.132209
-0.137926
-0.143537
-0.148941
-0.154384
-0.159659
-0.164551
-0.169552
-0.174262
-0.178502
-0.182622
-0.186457
-0.190088
-0.193453
-0.196418
-0.199429
-0.201879
-0.203971
-0.205652
-0.207028
-0.208373
-0.209032
-0.20939
-0.209293
-0.209009
-0.208151
-0.206741
-0.205072
-0.203092
-0.200618
-0.197706
-0.194367
-0.190575
-0.185992
-0.181442
-0.17612
-0.170481
-0.164569
-0.15827
-0.151202
-0.143602
-0.135966
-0.12784
-0.11875
-0.110029
-0.101096
-0.0903116
0.00497894
-0.00145848
-0.00792968
-0.0144947
-0.0211306
-0.0278432
-0.0345717
-0.0413267
-0.0481209
-0.0549169
-0.0617242
-0.0685311
-0.0753408
-0.0821412
-0.0888983
-0.0955972
-0.102295
-0.108909
-0.115522
-0.122019
-0.128473
-0.134795
-0.140975
-0.146997
-0.152911
-0.158704
-0.164361
-0.169783
-0.17501
-0.180057
-0.184877
-0.189519
-0.193904
-0.197969
-0.20182
-0.205379
-0.208655
-0.211632
-0.21423
-0.216512
-0.218418
-0.220005
-0.221255
-0.222035
-0.222456
-0.222491
-0.222166
-0.221355
-0.220102
-0.218509
-0.216543
-0.214117
-0.21124
-0.207917
-0.204113
-0.199791
-0.195137
-0.189978
-0.1844
-0.17844
-0.172098
-0.165176
-0.15773
-0.149991
-0.141844
-0.133144
-0.124263
-0.1151
-0.104959
0.00309971
-0.00367231
-0.0104916
-0.0174258
-0.024452
-0.0315178
-0.0386154
-0.0457498
-0.0529106
-0.0600912
-0.0672786
-0.0744644
-0.0816456
-0.0888068
-0.0959248
-0.103013
-0.110056
-0.117048
-0.123976
-0.130831
-0.137585
-0.144215
-0.150718
-0.157089
-0.163326
-0.169415
-0.175317
-0.181022
-0.186533
-0.191829
-0.196926
-0.201798
-0.206389
-0.210694
-0.214726
-0.218462
-0.221887
-0.224986
-0.227754
-0.230175
-0.232222
-0.233895
-0.235195
-0.236104
-0.236624
-0.236746
-0.236466
-0.23576
-0.234626
-0.233086
-0.231135
-0.228743
-0.225902
-0.222609
-0.218857
-0.214634
-0.209988
-0.204899
-0.199374
-0.193434
-0.187069
-0.180224
-0.172913
-0.16521
-0.157122
-0.148587
-0.139714
-0.130555
-0.120677
0.00096999
-0.00617448
-0.0133794
-0.0207049
-0.0281193
-0.0355834
-0.0430806
-0.0506061
-0.0581547
-0.0657222
-0.0732994
-0.0808767
-0.0884438
-0.0959893
-0.103501
-0.110973
-0.118392
-0.125751
-0.133035
-0.140231
-0.147323
-0.154298
-0.161145
-0.167852
-0.174402
-0.180785
-0.186985
-0.192989
-0.198783
-0.204354
-0.209694
-0.21478
-0.219593
-0.224118
-0.228344
-0.232263
-0.235862
-0.239131
-0.242054
-0.24461
-0.246785
-0.248576
-0.249985
-0.251004
-0.25162
-0.25183
-0.251627
-0.251002
-0.249944
-0.248458
-0.246546
-0.244197
-0.241401
-0.238154
-0.234452
-0.230294
-0.225695
-0.220659
-0.215185
-0.209284
-0.202952
-0.196176
-0.188955
-0.181323
-0.173303
-0.164881
-0.156108
-0.147064
-0.137434
-0.00135311
-0.00889561
-0.0165016
-0.0242347
-0.0320597
-0.0399391
-0.0478513
-0.0557897
-0.063752
-0.0717333
-0.0797242
-0.0877131
-0.0956884
-0.10364
-0.111556
-0.119426
-0.127241
-0.134987
-0.142653
-0.150223
-0.157686
-0.165027
-0.172231
-0.179283
-0.186171
-0.192881
-0.199399
-0.20571
-0.211799
-0.217652
-0.223257
-0.228597
-0.233655
-0.238417
-0.242868
-0.246998
-0.250795
-0.254245
-0.257331
-0.26004
-0.262359
-0.264283
-0.265811
-0.266937
-0.267652
-0.267951
-0.267826
-0.26727
-0.266278
-0.26485
-0.262986
-0.260682
-0.257931
-0.254728
-0.251072
-0.246967
-0.242417
-0.237429
-0.232005
-0.226151
-0.219867
-0.213155
-0.206013
-0.198466
-0.190528
-0.182216
-0.173552
-0.164662
-0.155214
-0.00392676
-0.0118916
-0.0199217
-0.0280863
-0.0363481
-0.0446662
-0.0530184
-0.0613974
-0.0698008
-0.0782232
-0.086654
-0.0950811
-0.103492
-0.111877
-0.120223
-0.12852
-0.136756
-0.144918
-0.152991
-0.160963
-0.168819
-0.176544
-0.184124
-0.191545
-0.198791
-0.205849
-0.212704
-0.219339
-0.225742
-0.231895
-0.237785
-0.243397
-0.248715
-0.253722
-0.258406
-0.262753
-0.266749
-0.270383
-0.273639
-0.276505
-0.278969
-0.281025
-0.282671
-0.283902
-0.284713
-0.285097
-0.285049
-0.284563
-0.283636
-0.282268
-0.280458
-0.278201
-0.275495
-0.272337
-0.268728
-0.26467
-0.260169
-0.255231
-0.249859
-0.24406
-0.237835
-0.231191
-0.22413
-0.216672
-0.208827
-0.200627
-0.19208
-0.183318
-0.173996
-0.00681347
-0.0152277
-0.0237106
-0.0323363
-0.041064
-0.0498499
-0.0586705
-0.0675179
-0.0763896
-0.0852796
-0.0941773
-0.10307
-0.111944
-0.120789
-0.129592
-0.138341
-0.147023
-0.155624
-0.16413
-0.172526
-0.180798
-0.18893
-0.196908
-0.204716
-0.212339
-0.219763
-0.22697
-0.233947
-0.240676
-0.247143
-0.253331
-0.259227
-0.264813
-0.270075
-0.274999
-0.27957
-0.283776
-0.287603
-0.291038
-0.294067
-0.29668
-0.298872
-0.30064
-0.301981
-0.302891
-0.303365
-0.303397
-0.302984
-0.302124
-0.300815
-0.299056
-0.296845
-0.294183
-0.291068
-0.287502
-0.283491
-0.279037
-0.274149
-0.268831
-0.26309
-0.256931
-0.25036
-0.243384
-0.236023
-0.228284
-0.22021
-0.211782
-0.203137
-0.193819
-0.0100538
-0.0189463
-0.0279116
-0.0370281
-0.0462517
-0.0555353
-0.0648538
-0.0741987
-0.0835677
-0.0929543
-0.102347
-0.111733
-0.121098
-0.130429
-0.139714
-0.148939
-0.158092
-0.167158
-0.17612
-0.184966
-0.193678
-0.202242
-0.21064
-0.218858
-0.22688
-0.234689
-0.242269
-0.249604
-0.256678
-0.263475
-0.269978
-0.276172
-0.282042
-0.287572
-0.292746
-0.297551
-0.301974
-0.306002
-0.309621
-0.312819
-0.315586
-0.317917
-0.319811
-0.321266
-0.322277
-0.322842
-0.322954
-0.322613
-0.321815
-0.320561
-0.31885
-0.316684
-0.314062
-0.310988
-0.307464
-0.303496
-0.29909
-0.294252
-0.28899
-0.28331
-0.277221
-0.270729
-0.263847
-0.256594
-0.248982
-0.241054
-0.232781
-0.224302
-0.215021
-0.0136949
-0.0230962
-0.0325739
-0.0422115
-0.0519614
-0.0617735
-0.0716211
-0.0814954
-0.0913935
-0.101308
-0.111228
-0.121138
-0.131023
-0.140871
-0.150667
-0.160398
-0.170051
-0.179608
-0.189054
-0.198375
-0.207553
-0.216573
-0.225416
-0.234068
-0.24251
-0.250726
-0.258699
-0.266413
-0.273851
-0.280995
-0.28783
-0.294339
-0.300506
-0.306315
-0.31175
-0.316798
-0.321446
-0.325682
-0.329492
-0.332865
-0.335792
-0.338267
-0.34029
-0.341859
-0.342972
-0.343624
-0.343814
-0.343539
-0.3428
-0.341597
-0.339931
-0.337804
-0.335221
-0.332183
-0.328698
-0.324771
-0.320409
-0.315621
-0.310415
-0.304798
-0.298783
-0.292378
-0.285602
-0.278468
-0.271003
-0.263238
-0.255171
-0.246944
-0.238192
-0.0178003
-0.0277434
-0.0377665
-0.0479589
-0.0582691
-0.0686433
-0.0790534
-0.0894907
-0.0999514
-0.110428
-0.120908
-0.131375
-0.141814
-0.152211
-0.162551
-0.17282
-0.183003
-0.193083
-0.203043
-0.212868
-0.22254
-0.232042
-0.241356
-0.250465
-0.259351
-0.267996
-0.276384
-0.284496
-0.292315
-0.299823
-0.307004
-0.313841
-0.320318
-0.326418
-0.332127
-0.33743
-0.342315
-0.346768
-0.350776
-0.354329
-0.357419
-0.360039
-0.36219
-0.363872
-0.365083
-0.36582
-0.366082
-0.36587
-0.365183
-0.364024
-0.362397
-0.360305
-0.357753
-0.354747
-0.351294
-0.347402
-0.343081
-0.33834
-0.333189
-0.327638
-0.321703
-0.315395
-0.308736
-0.301739
-0.294434
-0.28684
-0.27898
-0.27098
-0.262593
-0.0224416
-0.0329622
-0.0435665
-0.0543496
-0.0652561
-0.0762292
-0.0872391
-0.0982757
-0.109336
-0.120411
-0.131487
-0.142548
-0.153576
-0.164557
-0.175475
-0.186315
-0.197061
-0.207695
-0.218201
-0.228561
-0.238757
-0.24877
-0.258583
-0.268177
-0.277533
-0.286633
-0.295458
-0.303989
-0.312209
-0.3201
-0.327645
-0.334827
-0.341628
-0.348033
-0.354026
-0.359594
-0.364722
-0.369398
-0.373609
-0.377345
-0.380597
-0.383362
-0.38564
-0.387431
-0.388735
-0.389551
-0.389879
-0.38972
-0.389077
-0.387955
-0.386357
-0.38429
-0.381761
-0.378777
-0.375349
-0.371485
-0.367198
-0.3625
-0.357403
-0.351923
-0.346075
-0.339877
-0.333349
-0.326507
-0.319377
-0.311971
-0.304301
-0.296466
-0.288172
-0.0276993
-0.0388356
-0.0500588
-0.0614711
-0.073014
-0.0846258
-0.0962749
-0.107951
-0.119648
-0.13136
-0.143071
-0.154763
-0.166419
-0.178021
-0.189555
-0.201003
-0.212348
-0.223572
-0.234657
-0.245584
-0.256335
-0.266889
-0.277229
-0.287336
-0.297189
-0.306769
-0.316056
-0.325032
-0.333677
-0.341973
-0.349902
-0.357446
-0.364587
-0.37131
-0.377599
-0.38344
-0.388819
-0.393722
-0.398139
-0.402058
-0.405473
-0.40838
-0.41078
-0.412676
-0.414066
-0.414952
-0.415336
-0.41522
-0.41461
-0.413511
-0.41193
-0.409875
-0.407355
-0.404381
-0.400966
-0.39712
-0.39286
-0.388201
-0.38316
-0.377754
-0.372004
-0.365928
-0.359547
-0.352882
-0.345949
-0.338775
-0.331338
-0.323728
-0.315036
-0.0336798
-0.0454714
-0.0573527
-0.0694338
-0.0816515
-0.0939412
-0.106269
-0.118624
-0.131001
-0.14339
-0.155776
-0.16814
-0.180464
-0.192729
-0.204919
-0.217016
-0.229001
-0.240854
-0.252557
-0.264087
-0.275427
-0.286556
-0.297455
-0.308104
-0.318482
-0.328569
-0.338346
-0.347791
-0.356884
-0.365606
-0.373938
-0.381862
-0.38936
-0.396415
-0.403011
-0.409134
-0.41477
-0.419906
-0.424531
-0.428634
-0.43221
-0.435255
-0.437772
-0.439762
-0.441229
-0.442174
-0.4426
-0.442513
-0.44192
-0.440827
-0.439245
-0.437185
-0.434657
-0.431677
-0.428259
-0.42442
-0.420179
-0.415555
-0.410571
-0.405244
-0.3996
-0.393659
-0.387442
-0.380972
-0.374264
-0.367356
-0.360221
-0.353037
-0.345407
-0.0404925
-0.0529872
-0.0655749
-0.0783727
-0.0913125
-0.104326
-0.117376
-0.130453
-0.143551
-0.156659
-0.169761
-0.182838
-0.19587
-0.208838
-0.221725
-0.23451
-0.247174
-0.259696
-0.272055
-0.28423
-0.296199
-0.307942
-0.319438
-0.330665
-0.341603
-0.352229
-0.362522
-0.372462
-0.382027
-0.391198
-0.399953
-0.408275
-0.416145
-0.423545
-0.43046
-0.436873
-0.442773
-0.448144
-0.452977
-0.457263
-0.460995
-0.464171
-0.466795
-0.468869
-0.470398
-0.471385
-0.471836
-0.471757
-0.471159
-0.470051
-0.468445
-0.466356
-0.4638
-0.460794
-0.457357
-0.453513
-0.449282
-0.444689
-0.439758
-0.434513
-0.428981
-0.423182
-0.417146
-0.410889
-0.404438
-0.397816
-0.390987
-0.384094
-0.376414
-0.0482666
-0.0615124
-0.0748554
-0.0884206
-0.102135
-0.115923
-0.129749
-0.143598
-0.157466
-0.171342
-0.185209
-0.199046
-0.212833
-0.226549
-0.240175
-0.253691
-0.267076
-0.280308
-0.293364
-0.306223
-0.318862
-0.331259
-0.343389
-0.355231
-0.366762
-0.37796
-0.388802
-0.399265
-0.409329
-0.418971
-0.428172
-0.43691
-0.445168
-0.452927
-0.46017
-0.466882
-0.473049
-0.478658
-0.483698
-0.488161
-0.492042
-0.495339
-0.498056
-0.500198
-0.501769
-0.502776
-0.503227
-0.50313
-0.502499
-0.501347
-0.499689
-0.497546
-0.494936
-0.491882
-0.488409
-0.484542
-0.480309
-0.475736
-0.470853
-0.465685
-0.460263
-0.454613
-0.448766
-0.442743
-0.436581
-0.430293
-0.4239
-0.417533
-0.410945
-0.0571854
-0.0712287
-0.0853722
-0.0997509
-0.114287
-0.128902
-0.143554
-0.15823
-0.172923
-0.187622
-0.202309
-0.21696
-0.231554
-0.24607
-0.260486
-0.274783
-0.288936
-0.302925
-0.316724
-0.33031
-0.343659
-0.356748
-0.369551
-0.382046
-0.394206
-0.40601
-0.417432
-0.42845
-0.439039
-0.449179
-0.458847
-0.468022
-0.476685
-0.484816
-0.492398
-0.499415
-0.505854
-0.5117
-0.516944
-0.521577
-0.525595
-0.528997
-0.531788
-0.533975
-0.535564
-0.536563
-0.536982
-0.536835
-0.536138
-0.534908
-0.533166
-0.530936
-0.528244
-0.525116
-0.521581
-0.51767
-0.513412
-0.508842
-0.503988
-0.498885
-0.493564
-0.488059
-0.482404
-0.476629
-0.47077
-0.464854
-0.45891
-0.453011
-0.4469
-0.0674469
-0.0823471
-0.0973483
-0.112596
-0.128009
-0.143503
-0.159034
-0.174589
-0.19016
-0.205736
-0.221294
-0.236813
-0.252268
-0.267637
-0.282897
-0.298027
-0.313002
-0.327797
-0.342388
-0.35675
-0.370856
-0.384682
-0.398202
-0.411389
-0.424219
-0.436665
-0.448703
-0.460307
-0.471453
-0.482117
-0.492277
-0.501909
-0.510994
-0.519511
-0.527442
-0.534771
-0.541482
-0.547563
-0.553003
-0.557794
-0.561933
-0.56542
-0.568262
-0.570466
-0.57204
-0.572997
-0.573349
-0.573115
-0.572313
-0.570966
-0.569101
-0.566747
-0.563932
-0.560691
-0.557057
-0.553065
-0.54875
-0.544149
-0.539297
-0.534234
-0.528995
-0.523622
-0.51815
-0.512625
-0.507077
-0.501564
-0.496099
-0.490787
-0.485261
-0.079277
-0.0950973
-0.111019
-0.127199
-0.143551
-0.159985
-0.176455
-0.192948
-0.209455
-0.225963
-0.242451
-0.258894
-0.275267
-0.291545
-0.307705
-0.323723
-0.339574
-0.35523
-0.370666
-0.385855
-0.400769
-0.415382
-0.429664
-0.44359
-0.457132
-0.470262
-0.482953
-0.495179
-0.506913
-0.518131
-0.528808
-0.538919
-0.548444
-0.55736
-0.565649
-0.573293
-0.580277
-0.586587
-0.592213
-0.597148
-0.601389
-0.604937
-0.607801
-0.60999
-0.611515
-0.612391
-0.612635
-0.612268
-0.611314
-0.609801
-0.60776
-0.605225
-0.602231
-0.598819
-0.595027
-0.590898
-0.586471
-0.581792
-0.576899
-0.571839
-0.56665
-0.56138
-0.556071
-0.550778
-0.54554
-0.54044
-0.5355
-0.530862
-0.526223
-0.0929999
-0.109804
-0.126709
-0.143886
-0.161241
-0.17868
-0.196155
-0.21365
-0.231157
-0.248662
-0.266143
-0.283572
-0.300924
-0.318172
-0.335293
-0.352259
-0.369044
-0.385619
-0.401957
-0.418028
-0.433804
-0.449255
-0.464352
-0.479065
-0.493364
-0.507222
-0.520607
-0.533493
-0.54585
-0.557652
-0.568872
-0.579485
-0.589466
-0.598795
-0.60745
-0.615414
-0.622669
-0.629201
-0.635002
-0.640063
-0.644383
-0.647964
-0.650817
-0.652953
-0.654384
-0.655129
-0.655209
-0.654647
-0.653473
-0.65172
-0.649425
-0.646627
-0.643371
-0.639702
-0.635668
-0.631319
-0.626705
-0.621876
-0.616879
-0.611763
-0.606574
-0.601365
-0.596185
-0.591091
-0.586136
-0.58141
-0.576968
-0.57296
-0.569275
-0.108986
-0.126843
-0.144799
-0.16304
-0.181467
-0.199979
-0.218528
-0.237095
-0.255672
-0.274243
-0.292786
-0.31127
-0.32967
-0.347957
-0.366105
-0.384085
-0.40187
-0.419428
-0.43673
-0.453744
-0.47044
-0.486785
-0.502749
-0.5183
-0.533405
-0.548034
-0.562156
-0.575739
-0.588753
-0.601169
-0.61296
-0.624097
-0.634555
-0.644311
-0.653342
-0.66163
-0.669155
-0.675904
-0.681867
-0.687035
-0.691407
-0.694986
-0.697784
-0.699813
-0.701089
-0.701632
-0.701466
-0.70062
-0.69913
-0.697033
-0.694375
-0.691202
-0.687567
-0.683525
-0.679135
-0.674455
-0.669546
-0.664467
-0.659271
-0.654017
-0.648759
-0.643556
-0.638456
-0.633511
-0.628782
-0.624359
-0.620285
-0.616725
-0.613579
-0.127849
-0.146837
-0.165917
-0.185295
-0.204866
-0.224525
-0.24422
-0.263933
-0.283654
-0.303366
-0.323043
-0.342656
-0.362174
-0.38157
-0.400814
-0.419877
-0.438726
-0.457331
-0.475659
-0.493678
-0.511353
-0.52865
-0.545537
-0.561979
-0.577941
-0.59339
-0.608291
-0.622613
-0.636322
-0.649387
-0.661776
-0.673462
-0.684415
-0.69461
-0.704023
-0.712632
-0.720418
-0.727365
-0.733459
-0.738694
-0.743067
-0.746581
-0.74925
-0.751087
-0.752109
-0.752342
-0.751813
-0.750558
-0.748618
-0.746041
-0.742879
-0.739189
-0.735033
-0.730476
-0.725587
-0.720435
-0.715091
-0.709627
-0.704111
-0.698615
-0.693195
-0.687911
-0.682801
-0.67793
-0.673342
-0.6691
-0.665183
-0.661861
-0.658783
-0.150253
-0.170448
-0.190722
-0.211302
-0.232081
-0.25295
-0.273855
-0.294778
-0.315705
-0.336619
-0.357491
-0.378292
-0.398989
-0.419553
-0.439952
-0.460154
-0.480127
-0.499836
-0.519247
-0.538323
-0.557031
-0.575332
-0.59319
-0.610569
-0.627432
-0.643742
-0.659462
-0.674557
-0.688992
-0.702731
-0.715742
-0.727992
-0.739451
-0.750092
-0.759886
-0.768809
-0.776839
-0.783959
-0.790153
-0.795412
-0.799731
-0.803115
-0.805576
-0.807128
-0.807792
-0.807594
-0.806569
-0.804759
-0.802214
-0.798992
-0.795158
-0.790783
-0.78594
-0.780704
-0.775154
-0.76937
-0.763436
-0.757439
-0.751462
-0.745579
-0.739855
-0.734353
-0.729129
-0.724236
-0.719663
-0.715444
-0.711514
-0.708286
-0.704956
-0.176757
-0.198228
-0.219768
-0.241616
-0.263667
-0.285815
-0.308003
-0.330209
-0.352418
-0.37461
-0.396755
-0.418822
-0.440777
-0.462588
-0.484221
-0.505643
-0.526818
-0.547709
-0.56828
-0.588491
-0.608306
-0.627684
-0.646586
-0.664974
-0.682806
-0.700043
-0.716645
-0.732572
-0.747784
-0.762244
-0.775914
-0.788759
-0.800743
-0.811835
-0.822002
-0.831218
-0.839456
-0.846697
-0.852921
-0.858117
-0.862278
-0.865409
-0.86752
-0.868628
-0.868755
-0.867936
-0.866211
-0.86363
-0.860253
-0.856151
-0.851403
-0.846097
-0.840328
-0.834192
-0.827782
-0.821192
-0.814513
-0.807829
-0.801223
-0.79478
-0.788604
-0.782787
-0.777373
-0.772373
-0.767778
-0.763608
-0.759728
-0.756541
-0.75278
-0.205818
-0.228631
-0.251485
-0.27466
-0.298056
-0.321561
-0.345113
-0.368687
-0.392266
-0.415827
-0.43934
-0.462769
-0.486079
-0.509234
-0.532199
-0.554938
-0.57741
-0.599577
-0.621399
-0.642835
-0.663843
-0.684382
-0.70441
-0.723882
-0.742755
-0.760985
-0.778529
-0.795343
-0.811384
-0.82661
-0.840984
-0.854467
-0.867021
-0.878608
-0.889191
-0.898737
-0.907217
-0.914607
-0.920883
-0.92603
-0.93004
-0.932916
-0.934665
-0.935302
-0.934849
-0.933339
-0.930813
-0.927327
-0.922947
-0.917749
-0.911826
-0.905287
-0.898258
-0.89088
-0.883291
-0.875617
-0.867961
-0.860412
-0.853066
-0.846029
-0.839407
-0.833283
-0.827732
-0.822805
-0.818459
-0.814619
-0.811098
-0.808108
-0.804526
-0.239331
-0.263577
-0.287904
-0.312556
-0.337443
-0.362457
-0.387532
-0.412634
-0.437743
-0.462838
-0.487889
-0.512858
-0.537707
-0.562397
-0.586888
-0.61114
-0.635111
-0.658758
-0.682035
-0.704901
-0.727309
-0.749215
-0.770573
-0.791334
-0.811449
-0.830869
-0.849543
-0.867421
-0.884455
-0.900594
-0.915795
-0.930014
-0.943207
-0.955332
-0.966349
-0.976216
-0.984897
-0.992354
-0.998556
-1.00348
-1.0071
-1.00943
-1.01047
-1.01025
-1.00878
-1.00611
-1.00231
-0.997432
-0.991569
-0.984815
-0.977275
-0.969065
-0.960323
-0.951217
-0.941948
-0.932748
-0.923822
-0.915312
-0.90729
-0.899779
-0.892838
-0.886612
-0.881197
-0.876585
-0.872671
-0.869344
-0.866431
-0.863877
-0.861076
-0.271051
-0.296872
-0.322647
-0.34877
-0.375154
-0.401675
-0.428258
-0.454867
-0.481485
-0.508089
-0.534643
-0.561106
-0.587437
-0.613597
-0.639545
-0.665238
-0.690632
-0.715681
-0.740342
-0.76457
-0.788313
-0.811523
-0.834148
-0.856138
-0.877441
-0.898007
-0.917785
-0.936727
-0.954783
-0.971898
-0.988014
-1.00307
-1.01702
-1.02981
-1.04141
-1.05177
-1.06085
-1.0686
-1.07499
-1.07998
-1.08356
-1.08572
-1.08646
-1.0858
-1.08375
-1.08037
-1.07571
-1.06984
-1.06287
-1.0549
-1.04608
-1.03652
-1.02636
-1.01572
-1.00483
-0.994003
-0.983598
-0.973824
-0.964757
-0.956448
-0.94897
-0.942436
-0.936922
-0.93245
-0.928932
-0.926166
-0.923796
-0.921303
-0.918178
-0.318686
-0.346126
-0.373877
-0.401965
-0.430317
-0.458843
-0.487467
-0.516143
-0.544846
-0.573546
-0.602205
-0.63078
-0.659228
-0.687504
-0.715562
-0.743355
-0.770835
-0.797957
-0.824672
-0.850928
-0.87667
-0.901841
-0.926384
-0.950238
-0.973343
-0.995638
-1.01706
-1.03754
-1.05702
-1.07546
-1.09279
-1.10895
-1.12386
-1.13746
-1.14968
-1.16048
-1.16978
-1.17751
-1.18362
-1.18804
-1.19076
-1.19174
-1.191
-1.18853
-1.18436
-1.17854
-1.17112
-1.16221
-1.15194
-1.14049
-1.12809
-1.115
-1.10145
-1.0876
-1.07359
-1.05969
-1.04635
-1.03396
-1.02279
-1.01294
-1.00446
-0.997433
-0.991826
-0.987456
-0.98398
-0.980921
-0.977763
-0.973783
-0.968539
-0.337864
-0.366955
-0.395765
-0.425102
-0.454809
-0.48466
-0.514564
-0.544498
-0.574449
-0.604394
-0.634297
-0.664113
-0.693791
-0.723282
-0.752543
-0.781527
-0.810189
-0.838483
-0.866353
-0.893737
-0.92058
-0.946825
-0.972412
-0.997284
-1.02139
-1.04467
-1.06707
-1.08851
-1.1089
-1.1282
-1.14635
-1.16331
-1.17904
-1.19348
-1.20659
-1.21834
-1.2287
-1.23759
-1.24485
-1.25036
-1.25407
-1.25597
-1.25606
-1.25433
-1.2508
-1.24549
-1.23845
-1.22973
-1.21941
-1.20761
-1.19454
-1.18046
-1.16573
-1.15068
-1.13558
-1.12076
-1.10662
-1.09356
-1.08183
-1.07145
-1.06232
-1.05419
-1.0468
-1.03983
-1.033
-1.02611
-1.01898
-1.01134
-1.00233
-0.427897
-0.459593
-0.492067
-0.524988
-0.558177
-0.591547
-0.625006
-0.658487
-0.69197
-0.725449
-0.758902
-0.792279
-0.825522
-0.858576
-0.891384
-0.923897
-0.95606
-0.987816
-1.0191
-1.04986
-1.08001
-1.10951
-1.13827
-1.16622
-1.1933
-1.21942
-1.24451
-1.26849
-1.29132
-1.31288
-1.33304
-1.35172
-1.36883
-1.38428
-1.39796
-1.40974
-1.41948
-1.42713
-1.43275
-1.43637
-1.43793
-1.43735
-1.43454
-1.42943
-1.42192
-1.41198
-1.39959
-1.38478
-1.36768
-1.34843
-1.32726
-1.30446
-1.2804
-1.25551
-1.23032
-1.20537
-1.1812
-1.15831
-1.1371
-1.11784
-1.10065
-1.08549
-1.07219
-1.06043
-1.04985
-1.04013
-1.03092
-1.02213
-1.01473
0.0580895
0.0611025
0.0644244
0.0680261
0.0718874
0.0760466
0.0805654
0.0853584
0.0904237
0.0957262
0.101339
0.107279
0.113354
0.11998
0.126246
0.132835
0.139137
0.14577
0.152184
0.158452
0.164885
0.170432
0.175745
0.180279
0.184312
0.187871
0.190418
0.192098
0.193135
0.193302
0.192152
0.190166
0.187387
0.183933
0.179235
0.173839
0.167919
0.161286
0.15402
0.14653
0.138635
0.130471
0.122328
0.114264
0.105798
0.0977733
0.0895758
0.0817432
0.0739683
0.0664383
0.0592582
0.0523405
0.0457822
0.0395496
0.0336236
0.0277369
0.022238
0.0169632
0.0119542
0.0582446
0.0614351
0.0649483
0.0687341
0.0728201
0.0772118
0.0819269
0.0869483
0.0922796
0.0979157
0.10383
0.11003
0.116471
0.123141
0.129998
0.136829
0.143791
0.150685
0.157558
0.164147
0.170595
0.176693
0.182241
0.187163
0.191451
0.195113
0.197946
0.199764
0.200862
0.200989
0.199883
0.197947
0.195089
0.191262
0.186453
0.180813
0.174535
0.167641
0.160109
0.152154
0.143946
0.135473
0.126874
0.118129
0.109415
0.100812
0.0923023
0.0840253
0.0759234
0.0680602
0.0605137
0.0532741
0.0463077
0.0396706
0.0332803
0.0272053
0.0214333
0.0159637
0.0107693
0.0586297
0.061997
0.0656697
0.0696458
0.0739402
0.07856
0.0835065
0.0887808
0.0943879
0.100319
0.106549
0.113049
0.119808
0.126798
0.13397
0.141284
0.148671
0.156013
0.16324
0.170234
0.176956
0.183371
0.189269
0.194542
0.19914
0.202983
0.205973
0.207998
0.209155
0.209272
0.208265
0.206299
0.203258
0.199195
0.194166
0.188287
0.181657
0.174401
0.166549
0.158242
0.149591
0.140638
0.13151
0.122318
0.113152
0.104088
0.0951483
0.0864057
0.0778887
0.0696232
0.0616579
0.0539932
0.0466342
0.0395835
0.0328717
0.0264932
0.0204246
0.0146697
0.0091973
0.0589104
0.0624464
0.0663091
0.0704901
0.0750076
0.0798689
0.0850774
0.0906331
0.0965343
0.102775
0.109338
0.1162
0.123341
0.13072
0.138279
0.145996
0.153767
0.161525
0.169159
0.176593
0.183735
0.190486
0.196726
0.202332
0.207231
0.211312
0.214489
0.216684
0.217922
0.21806
0.217086
0.215043
0.211844
0.207593
0.202324
0.196165
0.189191
0.181528
0.173259
0.164508
0.155363
0.145919
0.136311
0.126656
0.117002
0.107439
0.0980139
0.0887862
0.0798017
0.0710861
0.0626723
0.0545798
0.0468245
0.0394089
0.0323407
0.0256137
0.0192167
0.0131507
0.00738979
0.0589063
0.0626249
0.0666915
0.0710958
0.0758565
0.0809802
0.0864723
0.0923337
0.098561
0.105146
0.112075
0.119326
0.126872
0.134669
0.142665
0.150805
0.15901
0.167206
0.175292
0.183177
0.190756
0.197904
0.204512
0.210463
0.215665
0.220013
0.223408
0.225765
0.227094
0.22727
0.226287
0.224156
0.220812
0.216363
0.210842
0.204372
0.197038
0.188956
0.180231
0.17099
0.161341
0.151403
0.141294
0.131118
0.120943
0.110854
0.100917
0.0911876
0.081713
0.0725264
0.0636579
0.0551308
0.0469591
0.0391487
0.0316998
0.0246108
0.0178736
0.0114859
0.00541904
0.0586446
0.0625573
0.0668379
0.0714768
0.0764939
0.0818958
0.0876887
0.0938745
0.10045
0.107406
0.114728
0.122391
0.130366
0.138611
0.147072
0.155685
0.164374
0.173053
0.181622
0.189979
0.19801
0.205594
0.212608
0.218934
0.224465
0.229098
0.232728
0.23526
0.236691
0.236912
0.235916
0.233694
0.230198
0.22553
0.219735
0.212931
0.205212
0.196699
0.187506
0.177766
0.167603
0.157137
0.146483
0.135747
0.125017
0.114377
0.103898
0.0936392
0.0836486
0.0739649
0.0646185
0.0556313
0.0470169
0.0387825
0.0309295
0.023456
0.0163534
0.00961867
0.00322217
0.0581153
0.0622364
0.0667466
0.0716361
0.0769263
0.0826243
0.0887374
0.0952677
0.102213
0.109563
0.117302
0.125407
0.133844
0.142568
0.151525
0.160647
0.169854
0.179054
0.188141
0.197003
0.205523
0.213575
0.221031
0.227762
0.233654
0.238594
0.242475
0.245198
0.246745
0.24702
0.246014
0.243702
0.240044
0.23514
0.229052
0.221893
0.213767
0.2048
0.195118
0.184858
0.174148
0.163115
0.151879
0.140551
0.129231
0.118006
0.10695
0.0961255
0.0855849
0.0753693
0.0655098
0.0560289
0.0469409
0.0382534
0.0299682
0.022083
0.0145889
0.00748317
0.000735325
0.0572635
0.0616089
0.066367
0.0715273
0.0771122
0.0831294
0.0895867
0.0964869
0.103828
0.1116
0.119787
0.128365
0.137296
0.146536
0.156024
0.165691
0.175451
0.185207
0.194849
0.204257
0.213305
0.221863
0.229793
0.236963
0.243244
0.248517
0.252668
0.255599
0.257275
0.257612
0.256598
0.254194
0.250368
0.245219
0.238819
0.231284
0.222726
0.213277
0.203073
0.192255
0.18096
0.169321
0.157464
0.145509
0.133561
0.121711
0.110039
0.0986113
0.0874839
0.0766997
0.0662915
0.0562828
0.0466891
0.0375185
0.0287731
0.0204502
0.0125408
0.00504155
-0.00207959
0.0560308
0.060617
0.0656408
0.0710914
0.0769926
0.0833531
0.0901814
0.0974805
0.105248
0.113475
0.122145
0.131231
0.140695
0.150488
0.160548
0.1708
0.181155
0.191509
0.201747
0.211742
0.221361
0.230463
0.238905
0.246544
0.253244
0.258876
0.263318
0.266473
0.268292
0.2687
0.267678
0.26518
0.261179
0.255772
0.249042
0.241108
0.23209
0.222127
0.211364
0.199949
0.188028
0.175741
0.163224
0.1506
0.137982
0.125467
0.113139
0.101069
0.0893164
0.0779257
0.0669323
0.0563613
0.0462292
0.0365448
0.0273099
0.0185218
0.0101704
0.00225183
-0.0052674
0.0543543
0.0591982
0.0645065
0.0702683
0.0765089
0.083238
0.090465
0.0981935
0.106421
0.115139
0.124328
0.13396
0.143998
0.154387
0.165064
0.175948
0.186945
0.197945
0.208826
0.219453
0.229686
0.239375
0.248369
0.256514
0.263664
0.269681
0.274439
0.277834
0.27981
0.280295
0.279267
0.276671
0.272486
0.266806
0.259725
0.251366
0.241858
0.231347
0.219987
0.207935
0.195345
0.182369
0.169146
0.15581
0.142478
0.129253
0.116227
0.103473
0.0910537
0.0790168
0.0673997
0.0562292
0.0455227
0.0352896
0.0255318
0.0162462
0.00742222
-0.000944612
-0.00888926
0.0521573
0.0572779
0.0628918
0.0689883
0.0755941
0.0827199
0.0903759
0.0985661
0.107289
0.116534
0.126282
0.136505
0.147161
0.158195
0.169538
0.181105
0.192794
0.204491
0.216065
0.227375
0.238272
0.248595
0.258183
0.266873
0.274508
0.280941
0.286039
0.289695
0.291841
0.292413
0.291378
0.28868
0.2843
0.278329
0.270874
0.262062
0.25203
0.240934
0.228937
0.216206
0.202904
0.189191
0.175217
0.16112
0.147025
0.133044
0.119272
0.105787
0.092655
0.0799282
0.0676454
0.0558349
0.0445151
0.0336957
0.0233789
0.0135612
0.00423164
-0.00461492
-0.0130145
0.0493516
0.0547698
0.0607127
0.0671696
0.0741689
0.0817222
0.0898405
0.0985286
0.107785
0.117599
0.127952
0.138812
0.150136
0.161866
0.173927
0.186229
0.198666
0.211115
0.223439
0.235488
0.247102
0.25811
0.26834
0.277617
0.285776
0.292658
0.298124
0.302061
0.304395
0.305061
0.304023
0.301218
0.296629
0.290349
0.282493
0.273197
0.262606
0.250885
0.238208
0.22475
0.210687
0.196187
0.181409
0.1665
0.151592
0.136802
0.122231
0.107964
0.0940698
0.0806046
0.0676097
0.0551148
0.0431393
0.0316933
0.0207795
0.0103938
0.000524437
-0.00883444
-0.0177206
0.0458362
0.0515742
0.057871
0.0647163
0.0721399
0.0801545
0.0887722
0.0979983
0.107831
0.118261
0.129267
0.140816
0.152862
0.165342
0.178178
0.191275
0.20452
0.217783
0.230919
0.243767
0.256154
0.267901
0.278823
0.288735
0.297458
0.304826
0.310691
0.314934
0.317473
0.318242
0.317202
0.314285
0.309475
0.302865
0.294581
0.284767
0.273578
0.261188
0.247783
0.233548
0.21867
0.203327
0.187689
0.17191
0.156131
0.140476
0.125051
0.109948
0.0952392
0.080984
0.0672264
0.0539981
0.0413198
0.0292025
0.0176483
0.00665248
-0.00379671
-0.0137054
-0.0231128
0.0414939
0.0475754
0.0542528
0.0615165
0.0693977
0.0779105
0.0870679
0.0968758
0.107333
0.118429
0.130141
0.142434
0.15526
0.168553
0.182228
0.196186
0.210307
0.224451
0.238463
0.252172
0.265396
0.277942
0.289612
0.300208
0.309541
0.317434
0.323732
0.328306
0.331068
0.331952
0.330912
0.327877
0.322831
0.315869
0.307127
0.296758
0.284928
0.271822
0.257635
0.242568
0.226816
0.21057
0.194009
0.177298
0.160586
0.144004
0.127665
0.111667
0.0960859
0.0809856
0.0664122
0.0524
0.03897
0.0261336
0.0138929
0.00224381
-0.00882638
-0.0193253
-0.0292934
0.0361767
0.0426281
0.0497162
0.0574322
0.0658087
0.0748609
0.0846028
0.0950412
0.106175
0.117992
0.130469
0.14357
0.157242
0.171415
0.186
0.200891
0.215958
0.231055
0.246015
0.260657
0.274786
0.288194
0.300671
0.312007
0.321999
0.33046
0.337225
0.34216
0.345165
0.346175
0.345138
0.341979
0.336681
0.329342
0.320109
0.309145
0.296626
0.28275
0.267726
0.251764
0.235075
0.217859
0.200307
0.182595
0.164883
0.147308
0.129991
0.113032
0.0965166
0.0805094
0.0650608
0.0502076
0.0359717
0.022365
0.00939014
-0.00295756
-0.0146919
-0.0258224
-0.0363912
0.0297246
0.036575
0.0441062
0.0523109
0.0612231
0.0708592
0.0812342
0.0923554
0.104221
0.11682
0.130128
0.144104
0.158693
0.17382
0.189392
0.205293
0.221387
0.237516
0.253504
0.269156
0.284262
0.298602
0.311952
0.324088
0.334793
0.343869
0.351141
0.356465
0.359736
0.360883
0.359852
0.356562
0.350995
0.343252
0.333491
0.321887
0.308629
0.293927
0.278001
0.261079
0.243382
0.225123
0.206507
0.18772
0.168933
0.150291
0.131923
0.113935
0.0964168
0.0794383
0.0630519
0.0472953
0.032193
0.0177572
0.00399115
-0.00911008
-0.021561
-0.0333729
-0.0445882
0.0219289
0.0292086
0.0372176
0.0459507
0.0554428
0.0657118
0.0767736
0.0886363
0.101298
0.114747
0.128956
0.143883
0.159469
0.175634
0.192277
0.209275
0.226482
0.243731
0.260833
0.277578
0.293743
0.309092
0.323386
0.336386
0.347863
0.357604
0.365425
0.371172
0.374732
0.376031
0.375008
0.371579
0.365723
0.357545
0.347216
0.334924
0.32087
0.305278
0.288384
0.270426
0.251645
0.232266
0.212504
0.192561
0.172617
0.152829
0.133331
0.114237
0.095643
0.077622
0.0602294
0.0435049
0.0274735
0.0121473
-0.00246974
-0.0163823