/*--------------------------------*- C++ -*----------------------------------*\
| =========                 |                                                 |
| \\      /  F ield         | OpenFOAM: The Open Source CFD Toolbox           |
|  \\    /   O peration     | Version:  2312                                  |
|   \\  /    A nd           | Website:  www.openfoam.com                      |
|    \\/     M anipulation  |                                                 |
\*---------------------------------------------------------------------------*/
FoamFile
{
    version     2.0;
    format      ascii;
    arch        "LSB;label=32;scalar=64";
    class       surfaceScalarField;
    location    "1400";
    object      phi;
}
// * * * * * * * * * * * * * * * * * * * * * * * * * * * * * * * * * * * * * //

dimensions      [0 3 -1 0 0 0 0];

oriented        oriented;

internalField   nonuniform List<scalar> 
116611
(
0.0290327
0.0115633
-0.0286266
-0.0119695
0.0294365
0.0114889
-0.0118926
0.0298338
0.0114062
-0.0118035
0.0302262
0.011315
-0.0117074
0.0306174
0.0112178
-0.0116089
0.0310073
0.0111117
-0.0115016
0.0313897
0.0109988
-0.0113812
0.0317724
0.0108784
-0.0112612
0.0321422
0.0107478
-0.0111176
0.0325078
0.0106081
-0.0109738
0.032867
0.0104585
-0.0108177
0.0332212
0.0103
-0.0106543
0.0335659
0.0101316
-0.0104762
0.0338999
0.00995209
-0.0102861
0.0342224
0.00976152
-0.0100841
0.034536
0.00956106
-0.00987463
0.0348423
0.00934756
-0.00965382
0.0351411
0.00912661
-0.00942545
0.0354273
0.0088899
-0.00917605
0.0357023
0.0086449
-0.00891994
0.0359671
0.0083848
-0.0086496
0.0362149
0.00811321
-0.00836103
0.0364479
0.00782744
-0.00806045
0.036669
0.00753079
-0.00775181
0.0368761
0.00722092
-0.00742807
0.0370747
0.00689862
-0.0070972
0.0372559
0.00656039
-0.00674162
0.037421
0.00621076
-0.00637585
0.0375808
0.00584946
-0.0060093
0.0377182
0.00547465
-0.00561201
0.037841
0.00508697
-0.00520979
0.0379526
0.0046819
-0.00479352
0.0380424
0.00426248
-0.00435228
0.0381194
0.0038329
-0.00390987
0.0381788
0.00338709
-0.00344645
0.038218
0.00292974
-0.00296899
0.0382512
0.00245968
-0.00249282
0.0382548
0.00197347
-0.00197717
0.0382452
0.00147443
-0.00146483
0.0382118
0.000958524
-0.000925111
0.0381607
0.000433406
-0.000382305
0.0381004
-0.000104649
0.00016499
0.0380076
-0.000661393
0.0007542
0.0379004
-0.0012278
0.00133497
0.0377667
-0.00180816
0.00194186
0.0376217
-0.00239711
0.00254212
0.0374498
-0.0030014
0.00317326
0.037251
-0.00361582
0.00381463
0.0370364
-0.00423545
0.00445007
0.036802
-0.00486435
0.00509877
0.0365421
-0.00550361
0.00576346
0.0362622
-0.00614834
0.0064283
0.0359607
-0.00680005
0.00710151
0.0356327
-0.00745905
0.00778705
0.0352681
-0.00812203
0.00848665
0.0348991
-0.00877675
0.00914575
0.0344874
-0.00943838
0.00985004
0.0340604
-0.0100918
0.0105189
0.0336099
-0.0107384
0.011189
0.0331377
-0.0113757
0.0118479
0.0326308
-0.012012
0.0125189
0.0321036
-0.0126326
0.0131597
0.0315573
-0.0132293
0.0137756
0.0309814
-0.0138107
0.0143866
0.0303736
-0.0143704
0.0149781
0.0297703
-0.0148892
0.0154926
0.029148
-0.0153812
0.0160034
0.0284896
-0.015851
0.0165095
-0.0162548
0.0277638
0.0169806
0.0286843
0.0111555
-0.0282764
0.0290877
0.0110854
0.0294863
0.0110076
0.0298793
0.010922
0.0302691
0.010828
0.0306539
0.0107269
0.0310348
0.0106178
0.0314124
0.0105009
0.0317841
0.0103761
0.03215
0.0102423
0.0325092
0.0100993
0.032862
0.00994718
0.0332082
0.00978539
0.0335464
0.00961392
0.0338748
0.00943312
0.0341946
0.00924123
0.0345033
0.00903884
0.0348047
0.00882529
0.0350939
0.00860069
0.0353745
0.00836427
0.0356431
0.00811617
0.0359
0.00785637
0.036143
0.00758438
0.0363734
0.00730041
0.0365905
0.00700384
0.0367951
0.00669396
0.0369839
0.00637162
0.0371582
0.00603642
0.0373195
0.00568822
0.0374658
0.00532828
0.0375986
0.0049542
0.0377151
0.00456542
0.0378138
0.00416377
0.0378975
0.00374918
0.0379633
0.00332127
0.0380131
0.00287998
0.0380471
0.00242564
0.0380625
0.00195812
0.0380604
0.00147655
0.0380375
0.00098139
0.0379969
0.000473958
0.037938
-4.56729e-05
0.0378564
-0.000579819
0.0377554
-0.00112679
0.0376328
-0.00168558
0.037491
-0.00225531
0.0373257
-0.00283613
0.0371374
-0.00342745
0.0369288
-0.0040269
0.0366989
-0.00463447
0.0364458
-0.0052505
0.0361708
-0.00587326
0.0358726
-0.00650189
0.035549
-0.00713548
0.0351991
-0.00777205
0.0348292
-0.00840689
0.0344319
-0.00904112
0.034012
-0.00967187
0.0335695
-0.010296
0.0331065
-0.0109127
0.0326167
-0.0115222
0.0321029
-0.0121188
0.0315703
-0.0126966
0.0310152
-0.0132556
0.0304377
-0.0137929
0.0298474
-0.0142989
0.0292396
-0.0147734
0.0286089
-0.0152203
-0.0156004
0.0279545
0.0283482
0.0107498
-0.0279425
0.0287508
0.0106828
0.02915
0.0106085
0.0295447
0.0105272
0.0299343
0.0104384
0.0303192
0.010342
0.0306992
0.0102378
0.0310745
0.0101257
0.031445
0.0100056
0.03181
0.00987728
0.0321688
0.00974046
0.0325212
0.00959481
0.0328666
0.00944002
0.0332046
0.0092759
0.0335353
0.00910241
0.0338575
0.0089191
0.0341706
0.00872569
0.0344742
0.00852173
0.0347678
0.00830701
0.035051
0.00808115
0.0353231
0.00784406
0.0355839
0.00759552
0.0358329
0.00733537
0.0360698
0.0070635
0.036294
0.00677968
0.0365044
0.00648357
0.0367009
0.0061751
0.0368832
0.00585413
0.0370509
0.00552058
0.0372047
0.00517442
0.0373437
0.00481521
0.0374663
0.00444279
0.0375728
0.00405731
0.0376631
0.00365894
0.0377366
0.00324775
0.037793
0.00282352
0.0378323
0.0023864
0.0378541
0.00193626
0.0378578
0.00147287
0.0378426
0.00099664
0.0378084
0.000508124
0.0377549
7.78526e-06
0.0376813
-0.000506173
0.037587
-0.0010325
0.0374718
-0.00157034
0.0373356
-0.00211914
0.0371779
-0.00267848
0.0369983
-0.00324784
0.0367974
-0.00382597
0.036575
-0.00441209
0.0363304
-0.00500592
0.0360635
-0.00560631
0.0357736
-0.00621203
0.03546
-0.00682189
0.0351221
-0.0074341
0.0347615
-0.00804629
0.0343775
-0.0086571
0.0339707
-0.00926509
0.0335422
-0.00986751
0.0330923
-0.0104628
0.0326194
-0.0110494
0.0321246
-0.0116239
0.03161
-0.012182
0.0310755
-0.0127211
0.0305211
-0.0132385
0.0299506
-0.0137284
0.0293638
-0.0141866
0.0287589
-0.0146154
-0.014981
0.0281396
0.0280331
0.0103472
-0.0276305
0.0284334
0.0102824
0.028831
0.0102109
0.0292252
0.010133
0.0296152
0.0100483
0.0300007
0.00995654
0.0303811
0.00985739
0.0307562
0.00975056
0.0311259
0.00963588
0.03149
0.00951317
0.0318482
0.00938226
0.0322001
0.00924293
0.0325452
0.00909494
0.0328831
0.00893799
0.0332136
0.00877188
0.0335363
0.00859644
0.0338506
0.00841137
0.0341559
0.00821639
0.0344518
0.00801118
0.0347375
0.00779547
0.0350125
0.00756899
0.0352765
0.00733151
0.0355291
0.00708285
0.0357697
0.00682286
0.035998
0.00655137
0.0362134
0.00626817
0.0364155
0.00597305
0.0366037
0.00566589
0.0367777
0.00534654
0.0369373
0.00501486
0.0370818
0.00467069
0.0372107
0.00431391
0.0373236
0.00394445
0.0374201
0.00356238
0.0375001
0.00316778
0.0375631
0.00276055
0.0376088
0.00234065
0.0376369
0.00190813
0.0376468
0.00146298
0.037638
0.00100546
0.0376102
0.000535935
0.0375631
5.48978e-05
0.0374961
-0.000439216
0.0374088
-0.000945221
0.037301
-0.00146254
0.0371726
-0.00199067
0.0370232
-0.00252906
0.0368524
-0.00307708
0.0366604
-0.00363394
0.0364469
-0.00419863
0.0362115
-0.00477049
0.0359538
-0.00534858
0.0356735
-0.00593174
0.0353704
-0.00651877
0.0350444
-0.00710813
0.0346962
-0.00769807
0.0343259
-0.00828683
0.0339337
-0.00887291
0.0335203
-0.00945407
0.0330859
-0.0100284
0.0326305
-0.0105939
0.0321543
-0.0111478
0.0316588
-0.0116864
0.0311446
-0.012207
0.0306123
-0.0127062
0.0300637
-0.0131798
0.0295001
-0.0136231
0.0289214
-0.0140366
-0.0143918
0.0283321
0.0277386
0.00994572
-0.0273371
0.0281372
0.00988382
0.0285329
0.00981524
0.0289255
0.00974041
0.0293146
0.00965925
0.0296996
0.00957151
0.0300801
0.00947691
0.0304555
0.00937516
0.0308254
0.00926594
0.0311895
0.00914902
0.0315476
0.00902418
0.0318993
0.00889122
0.0322444
0.00874993
0.0325823
0.00860008
0.0329127
0.00844143
0.0332354
0.00827378
0.0335499
0.00809688
0.0338557
0.00791052
0.0341525
0.00771443
0.0344396
0.00750834
0.0347166
0.00729204
0.0349828
0.00706527
0.0352378
0.0068278
0.0354812
0.00657945
0.0357126
0.00632
0.0359315
0.0060493
0.0361374
0.00576718
0.0363298
0.00547347
0.0365083
0.00516798
0.0366726
0.00485061
0.036822
0.00452124
0.0369562
0.00417971
0.0370747
0.00382595
0.0371772
0.00345995
0.0372632
0.00308178
0.0373324
0.00269136
0.0373843
0.00228869
0.0374186
0.00187383
0.0374348
0.00144682
0.0374324
0.00100786
0.0374111
0.000557178
0.0373708
9.52815e-05
0.0373108
-0.000379242
0.037231
-0.000865465
0.0371313
-0.00136278
0.0370113
-0.00187067
0.0368707
-0.00238845
0.036709
-0.00291547
0.0365261
-0.00345104
0.0363219
-0.00399434
0.0360959
-0.00454458
0.0358483
-0.00510091
0.0355788
-0.00566223
0.0352873
-0.00622736
0.0349741
-0.00679487
0.0346393
-0.00736324
0.0342832
-0.00793076
0.0339061
-0.0084958
0.0335084
-0.00905643
0.0330906
-0.00961057
0.0326528
-0.0101561
0.0321954
-0.0106904
0.0317195
-0.0112105
0.0312259
-0.0117134
0.0307151
-0.0121954
0.0301888
-0.0126534
0.0296483
-0.0130825
0.0290952
-0.0134836
-0.0138316
0.0285351
0.0274594
0.00954272
-0.0270564
0.0278587
0.00948458
0.0282543
0.00941968
0.0286461
0.00934851
0.0290343
0.0092711
0.0294185
0.00918735
0.0297983
0.00909705
0.0301735
0.00900001
0.0305435
0.00889595
0.0309079
0.00878463
0.0312663
0.00866578
0.0316183
0.00853918
0.0319636
0.00840459
0.0323019
0.0082618
0.0326327
0.0081106
0.0329558
0.00795075
0.0332706
0.00778203
0.0335769
0.00760423
0.0338742
0.00741712
0.0341621
0.00722044
0.0344402
0.00701402
0.0347078
0.00679763
0.0349646
0.006571
0.0352101
0.00633396
0.0354438
0.00608628
0.0356653
0.00582782
0.0358741
0.00555839
0.0360697
0.00527785
0.0362517
0.00498599
0.0364196
0.00468265
0.0365731
0.00436778
0.0367116
0.00404119
0.0368348
0.0037028
0.0369421
0.00335262
0.0370332
0.00299072
0.0371075
0.00261698
0.0371648
0.00223138
0.0372047
0.00183393
0.0372268
0.00142471
0.0372308
0.00100386
0.0372165
0.000571546
0.0371835
0.000128276
0.0371313
-0.000327079
0.0370597
-0.000793865
0.0369683
-0.0012714
0.0368568
-0.00175911
0.0367247
-0.0022564
0.036572
-0.0027627
0.0363983
-0.00327737
0.0362036
-0.00379969
0.0359879
-0.00432888
0.0357511
-0.0048641
0.0354932
-0.00540429
0.0352141
-0.00594831
0.0349141
-0.00649481
0.0345932
-0.00704237
0.0342518
-0.00758938
0.0338902
-0.00813419
0.0335088
-0.00867499
0.0331079
-0.00920965
0.032688
-0.00973623
0.0322494
-0.0102519
0.0317932
-0.0107543
0.03132
-0.0112402
0.0308306
-0.011706
0.0303265
-0.0121494
0.0298086
-0.0125646
0.0292793
-0.0129543
-0.0132951
0.0287428
0.0271921
0.00913733
-0.0267867
0.0275935
0.00908318
0.0279908
0.00902243
0.0283838
0.00895551
0.0287725
0.00888241
0.0291568
0.00880305
0.0295365
0.0087173
0.0299115
0.00862503
0.0302814
0.00852605
0.0306458
0.00842017
0.0310045
0.00830714
0.0313569
0.00818675
0.0317027
0.00805877
0.0320415
0.00792297
0.032373
0.00777914
0.0326967
0.00762704
0.0330123
0.00746647
0.0333193
0.00729718
0.0336175
0.00711899
0.0339062
0.00693165
0.0341853
0.00673496
0.0344542
0.00652875
0.0347125
0.00631273
0.0349597
0.00608674
0.0351954
0.00585059
0.0354191
0.00560412
0.0356303
0.00534713
0.0358287
0.0050795
0.0360137
0.004801
0.0361849
0.00451145
0.0363418
0.00421083
0.036484
0.003899
0.036611
0.00357581
0.0367224
0.00324125
0.0368178
0.00289531
0.0368969
0.00253789
0.0369594
0.00216891
0.0370049
0.00178842
0.037033
0.00139654
0.0370435
0.000993382
0.037036
0.000579106
0.03701
0.000154216
0.0369651
-0.000282212
0.036901
-0.000729749
0.0368173
-0.0011877
0.0367137
-0.00165552
0.0365901
-0.00213272
0.0364461
-0.00261878
0.0362819
-0.00311312
0.0360973
-0.00361508
0.0358923
-0.00412385
0.0356668
-0.00463861
0.0354208
-0.00515833
0.0351544
-0.00568194
0.0348678
-0.00620815
0.034561
-0.00673562
0.0342345
-0.00726282
0.0338884
-0.00778813
0.0335232
-0.00830979
0.0331393
-0.00882576
0.0327372
-0.00933413
0.0323174
-0.00983211
0.0318807
-0.0103176
0.0314278
-0.0107872
0.0309597
-0.0112379
0.0304776
-0.0116673
0.0299825
-0.0120694
0.0294759
-0.0124478
-0.0127777
0.0289585
0.0269371
0.0087302
-0.02653
0.0273406
0.00867972
0.02774
0.00862297
0.0281352
0.00856036
0.0285258
0.00849182
0.0289116
0.00841722
0.0292925
0.00833641
0.0296683
0.00824923
0.0300388
0.00815557
0.0304037
0.00805525
0.0307628
0.00794806
0.0311157
0.00783384
0.0314621
0.00771239
0.0318016
0.00758346
0.0321338
0.00744689
0.0324584
0.00730245
0.0327749
0.00714996
0.033083
0.00698915
0.0333821
0.00681982
0.033672
0.00664175
0.0339522
0.00645474
0.0342224
0.00625864
0.034482
0.00605313
0.0347306
0.00583806
0.034968
0.00561327
0.0351935
0.00537856
0.0354069
0.00513379
0.0356076
0.00487882
0.0357951
0.00461344
0.0359691
0.00433745
0.0361292
0.0040508
0.0362748
0.00375336
0.0364056
0.00344498
0.0365213
0.00312558
0.0366214
0.00279517
0.0367056
0.0024537
0.0367735
0.00210105
0.0368246
0.00173731
0.0368585
0.0013626
0.0368749
0.000976984
0.0368734
0.000580581
0.0368538
0.000173884
0.0368155
-0.000243891
0.0367582
-0.000672517
0.0366818
-0.0011113
0.0365861
-0.00155977
0.0364708
-0.00201748
0.036336
-0.00248393
0.0361814
-0.00295854
0.036007
-0.00344068
0.0358127
-0.00392959
0.0355986
-0.00442447
0.0353646
-0.00492433
0.0351108
-0.00542818
0.0348374
-0.00593475
0.0345446
-0.00644283
0.0342327
-0.00695087
0.033902
-0.00745742
0.0335529
-0.00796065
0.0331858
-0.00845873
0.0328013
-0.00894964
0.0324
-0.00943082
0.0319827
-0.00990026
0.0315499
-0.0103544
0.0311031
-0.0107911
0.0306429
-0.011207
0.0301708
-0.0115973
0.0296871
-0.0119641
-0.012284
0.0291934
0.0266972
0.00832224
-0.0262893
0.0271019
0.00827502
0.027503
0.0082219
0.0279001
0.00816331
0.0282927
0.00809918
0.0286806
0.00802931
0.0290635
0.00795354
0.0294411
0.00787164
0.0298131
0.0077835
0.0301794
0.00768894
0.0305397
0.00758776
0.0308938
0.00747983
0.0312412
0.007365
0.0315816
0.00724301
0.0319148
0.00711369
0.0322404
0.00697685
0.0325581
0.00683231
0.0328673
0.00667989
0.0331678
0.00651935
0.0334591
0.00635046
0.0337407
0.00617307
0.0340124
0.00598699
0.0342736
0.00579192
0.034524
0.00558765
0.0347632
0.00537408
0.0349907
0.00515103
0.0352062
0.00491829
0.0354093
0.00467577
0.0355994
0.00442326
0.0357763
0.00416056
0.0359396
0.00388753
0.0360888
0.00360411
0.0362236
0.00331021
0.0363435
0.00300568
0.0364481
0.00269057
0.036537
0.00236487
0.0366096
0.00202843
0.0366656
0.0016813
0.0367046
0.00132356
0.0367264
0.00095525
0.0367305
0.000576424
0.0367168
0.000187555
0.036685
-0.000212027
0.0366347
-0.000622228
0.0365658
-0.00104235
0.036478
-0.00147198
0.0363711
-0.00191067
0.0362452
-0.00235798
0.0361
-0.00281334
0.0359355
-0.00327619
0.0357517
-0.00374576
0.0355485
-0.00422134
0.0353261
-0.00470194
0.0350846
-0.00518666
0.0348241
-0.00567427
0.0345449
-0.00616363
0.0342473
-0.00665325
0.0339317
-0.00714176
0.0335983
-0.00762733
0.0332479
-0.00810833
0.0328809
-0.00858256
0.0324979
-0.00904786
0.0320996
-0.00950198
0.0316869
-0.00994172
0.031261
-0.0103652
0.0308224
-0.0107685
0.0303736
-0.0111484
0.029914
-0.0115045
-0.0118202
0.0294501
0.0264752
0.00791388
-0.0260669
0.0268806
0.0078697
0.0272825
0.00781995
0.0276807
0.00776508
0.0280749
0.00770503
0.0284646
0.00763964
0.0288494
0.00756868
0.0292291
0.00749196
0.0296033
0.00740933
0.0299716
0.0073206
0.0303338
0.00722557
0.0306896
0.00712403
0.0310387
0.00701586
0.0313809
0.00690088
0.0317157
0.00677888
0.0320429
0.00664966
0.0323621
0.00651308
0.032673
0.00636899
0.0329752
0.00621717
0.0332683
0.00605738
0.0335519
0.00588947
0.0338256
0.00571329
0.034089
0.00552851
0.0343416
0.00533498
0.0345832
0.00513252
0.0348133
0.00492097
0.0350314
0.00470011
0.0352373
0.00446985
0.0354306
0.00423002
0.0356107
0.00398045
0.0357773
0.00372097
0.0359299
0.0034515
0.0360681
0.00317201
0.0361914
0.0028823
0.0362996
0.00258238
0.0363923
0.00227221
0.036469
0.00195171
0.0365294
0.00162087
0.0365733
0.00127973
0.0366002
0.000928346
0.0366098
0.000566737
0.0366021
0.000195322
0.0365765
-0.000186467
0.0365329
-0.000578642
0.0364711
-0.000980531
0.0363909
-0.00139174
0.0362921
-0.00181187
0.0361746
-0.00224051
0.0360384
-0.00267712
0.0358834
-0.00312119
0.0357096
-0.00357197
0.0355171
-0.00402882
0.0353059
-0.00449078
0.0350763
-0.00495702
0.0348284
-0.00542634
0.0345624
-0.0058977
0.0342788
-0.00636964
0.0339779
-0.00684087
0.0336602
-0.00730959
0.0333261
-0.00777427
0.0329762
-0.00823266
0.0326113
-0.00868289
0.0322317
-0.00912245
0.0318387
-0.0095487
0.031433
-0.00995946
0.0310154
-0.010351
0.0305882
-0.0107212
0.0301515
-0.0110679
-0.0113822
0.0297135
0.0262729
0.00750521
-0.0258643
0.0266787
0.00746397
0.0270812
0.00741744
0.0274802
0.0073661
0.0278753
0.00730989
0.0282662
0.00724874
0.0286525
0.00718237
0.0290339
0.00711059
0.0294099
0.00703326
0.0297803
0.00695018
0.0301447
0.00686119
0.0305027
0.00676603
0.0308541
0.0066645
0.0311985
0.00655651
0.0315355
0.00644188
0.0318647
0.00632037
0.032186
0.00619177
0.032499
0.00605601
0.0328033
0.00591286
0.0330985
0.00576218
0.0333843
0.00560376
0.0336601
0.00543742
0.0339258
0.00526283
0.0341809
0.00507987
0.0344251
0.00488838
0.0346579
0.00468816
0.0348789
0.00447908
0.0350878
0.004261
0.035284
0.00403378
0.0354672
0.00379725
0.0356369
0.00355126
0.0357927
0.00329569
0.0359343
0.00303044
0.0360612
0.0027554
0.0361731
0.00247047
0.0362697
0.00217561
0.0363506
0.00187077
0.0364156
0.00155593
0.0364642
0.00123111
0.0364962
0.000896346
0.0365113
0.000551638
0.0365093
0.000197357
0.0364898
-0.000167004
0.0364527
-0.000541522
0.0363977
-0.000925564
0.0363247
-0.00131877
0.0362336
-0.00172077
0.0361243
-0.00213119
0.0359967
-0.00254954
0.0358509
-0.00297533
0.0356868
-0.00340788
0.0355045
-0.00384658
0.0353043
-0.00429051
0.0350862
-0.00473893
0.0348505
-0.00519066
0.0345976
-0.00564475
0.0343277
-0.00609975
0.0340413
-0.00655446
0.0337388
-0.00700711
0.0334207
-0.00745622
0.0330877
-0.00789958
0.0327402
-0.00833545
0.032379
-0.00876121
0.0320049
-0.00917463
0.0316185
-0.00957307
0.0312208
-0.00995331
0.0308127
-0.010313
0.0303944
-0.0106496
-0.0109606
0.0299728
0.0260907
0.00709612
-0.0256816
0.0264969
0.00705776
0.0269
0.00701437
0.0272996
0.00696645
0.0276955
0.00691398
0.0280874
0.00685685
0.0284749
0.00679492
0.0288576
0.00672789
0.0292352
0.00665561
0.0296074
0.00657795
0.0299738
0.0064948
0.030334
0.00640591
0.0306875
0.00631096
0.0310341
0.00620988
0.0313735
0.00610253
0.0317051
0.00598872
0.0320288
0.00586816
0.032344
0.00574075
0.0326506
0.00560627
0.0329482
0.00546455
0.0332365
0.00531547
0.0335151
0.00515885
0.0337835
0.00499443
0.0340413
0.00482203
0.0342882
0.00464151
0.0345237
0.00445265
0.0347475
0.00425532
0.0349591
0.00404937
0.0351582
0.00383466
0.0353445
0.00361104
0.0355174
0.00337835
0.0356766
0.00313648
0.0358217
0.00288529
0.0359525
0.00262468
0.0360684
0.00235455
0.0361692
0.00207482
0.0362545
0.00178545
0.036324
0.0014864
0.0363775
0.00117767
0.0364145
0.000859275
0.036435
0.000531203
0.0364385
0.000193774
0.036425
-0.00015348
0.0363942
-0.000510678
0.0363458
-0.000877229
0.0362799
-0.0012528
0.0361962
-0.00163708
0.0360947
-0.00202973
0.0359755
-0.00243028
0.0358384
-0.00283831
0.0356837
-0.00325316
0.0355114
-0.00367429
0.0353217
-0.00410083
0.0351149
-0.00453209
0.0348912
-0.00496691
0.0346509
-0.00540444
0.0343943
-0.00584323
0.034122
-0.00628214
0.0338343
-0.00671943
0.0335318
-0.00715365
0.0332149
-0.00758269
0.0328842
-0.00800478
0.0325404
-0.00841743
0.0321842
-0.00881846
0.0318162
-0.00920506
0.0314373
-0.00957436
0.0310475
-0.00992326
0.0306465
-0.0102485
-0.0105421
0.0302281
0.0259296
0.00668606
-0.0255196
0.0263368
0.00665062
0.0267408
0.00661037
0.0271413
0.00656589
0.0275381
0.00651717
0.0279309
0.0064641
0.0283193
0.00640653
0.0287029
0.00634425
0.0290815
0.00627702
0.0294548
0.00620468
0.0298224
0.00612713
0.0301841
0.00604423
0.0305394
0.00595568
0.0308879
0.00586137
0.0312293
0.00576113
0.0315633
0.00565478
0.0318894
0.00554203
0.0322074
0.00542276
0.0325168
0.00529682
0.0328174
0.00516398
0.0331087
0.00502419
0.0333902
0.00487726
0.0336617
0.00472298
0.0339226
0.00456115
0.0341725
0.00439157
0.0344111
0.00421406
0.034638
0.00402845
0.0348528
0.00383459
0.0350551
0.00363232
0.0352446
0.00342151
0.035421
0.00320202
0.0355837
0.0029737
0.0357326
0.00273643
0.0358672
0.0024901
0.0359871
0.0022346
0.0360921
0.00196984
0.0361818
0.00169577
0.0362559
0.00141232
0.0363141
0.00111947
0.0363561
0.000817228
0.0363818
0.000505556
0.0363908
0.000184733
0.036383
-0.000145704
0.0363582
-0.000485885
0.0363163
-0.000835271
0.036257
-0.00119358
0.0361805
-0.00156052
0.0360866
-0.00193581
0.0359753
-0.00231902
0.0358468
-0.00270978
0.0357011
-0.00310748
0.0355385
-0.00351164
0.035359
-0.00392138
0.035163
-0.00433612
0.0349508
-0.00475469
0.0347227
-0.00517631
0.034479
-0.0055995
0.0342201
-0.00602325
0.0339464
-0.00644576
0.0336584
-0.00686566
0.0333567
-0.00728093
0.0330416
-0.00768973
0.0327139
-0.00808974
0.0323741
-0.00847868
0.0320229
-0.00885388
0.031661
-0.00921246
0.0312893
-0.00955149
0.0309086
-0.00986785
-0.0101624
0.0305288
0.0257899
0.00627496
-0.0253788
0.0261979
0.00624258
0.0266027
0.00620558
0.027004
0.00616455
0.0274017
0.00611948
0.0277955
0.00607031
0.0281851
0.00601693
0.0285702
0.00595919
0.0289503
0.00589686
0.0293252
0.00582978
0.0296945
0.0057578
0.030058
0.00568079
0.0304152
0.00559849
0.0307658
0.00551076
0.0311095
0.00541745
0.0314458
0.0053184
0.0317745
0.00521338
0.032095
0.00510222
0.0324071
0.0049848
0.0327102
0.00486088
0.033004
0.00473035
0.0332882
0.00459303
0.0335624
0.00444876
0.0338263
0.00429733
0.0340793
0.00413856
0.0343211
0.00397226
0.0345513
0.00379826
0.0347695
0.00361638
0.0349753
0.00342649
0.0351684
0.00322842
0.0353484
0.00302203
0.0355149
0.00280718
0.0356676
0.00258373
0.0358062
0.00235157
0.0359302
0.00211058
0.0360394
0.00186066
0.0361334
0.00160173
0.036212
0.00133372
0.0362749
0.00105659
0.0363218
0.000770314
0.0363525
0.000474839
0.0363668
0.000170403
0.0363646
-0.000143478
0.0363456
-0.00046692
0.0363098
-0.000799444
0.0362571
-0.00114081
0.0361873
-0.00149079
0.0361007
-0.00184913
0.0359971
-0.00221546
0.0358767
-0.00258944
0.0357398
-0.00297051
0.0355863
-0.00335821
0.0354167
-0.00375172
0.035231
-0.00415047
0.0350297
-0.00455332
0.0348129
-0.00495953
0.034581
-0.00536762
0.0343344
-0.00577665
0.0340735
-0.00618482
0.0337986
-0.00659084
0.0335104
-0.00699267
0.0332092
-0.00738855
0.0328957
-0.00777619
0.0325703
-0.00815332
0.0322338
-0.00851738
0.0318868
-0.00886547
0.0315299
-0.00919462
0.0311638
-0.00950168
-0.00978434
0.0307858
0.0256714
0.00586263
-0.0252591
0.0260808
0.00583319
0.026487
0.00579936
0.0268898
0.00576177
0.0272889
0.00572035
0.0276841
0.00567508
0.0280752
0.00562584
0.0284619
0.0055725
0.0288438
0.00551494
0.0292206
0.005453
0.0295919
0.00538652
0.0299574
0.00531532
0.0303167
0.00523921
0.0306694
0.00515801
0.0310153
0.0050716
0.0313538
0.00497982
0.0316847
0.00488248
0.0320076
0.00477938
0.032322
0.00467038
0.0326276
0.00455529
0.032924
0.00443393
0.0332109
0.00430614
0.0334879
0.00417176
0.0337546
0.00403061
0.0340107
0.00388251
0.0342556
0.00372729
0.0344891
0.00356476
0.0347108
0.00339476
0.0349201
0.00321712
0.0351169
0.00303169
0.0353006
0.0028383
0.035471
0.00263682
0.0356276
0.0024271
0.0357701
0.00220901
0.0358983
0.00198243
0.0360117
0.00174723
0.0361101
0.00150333
0.0361932
0.00125063
0.0362607
0.000989071
0.0363124
0.0007186
0.0363481
0.000439142
0.0363676
0.000150895
0.0363708
-0.000146668
0.0363575
-0.000453625
0.0363276
-0.000769568
0.0362811
-0.00109431
0.036218
-0.00142767
0.0361383
-0.00176942
0.0360421
-0.00211926
0.0359295
-0.00247685
0.0358007
-0.00284169
0.0356558
-0.00321332
0.0354951
-0.00359099
0.0353187
-0.0039741
0.035127
-0.00436157
0.0349201
-0.00475267
0.0346985
-0.00514598
0.0344624
-0.00554057
0.0342122
-0.00593467
0.0339485
-0.00632707
0.0336715
-0.00671569
0.0333818
-0.00709889
0.03308
-0.00747436
0.0327666
-0.00783998
0.0324424
-0.00819316
0.0321083
-0.00853133
0.0317655
-0.00885186
0.0314163
-0.0091524
-0.00943831
0.0310702
0.0255752
0.00544857
-0.0251612
0.0259866
0.00542182
0.0263949
0.00539102
0.0267999
0.00535682
0.0272011
0.00531915
0.0275983
0.00527788
0.0279912
0.00523294
0.0283795
0.00518415
0.028763
0.00513141
0.0291415
0.00507457
0.0295145
0.00501351
0.0298818
0.00494805
0.0302429
0.00487804
0.0305976
0.00480331
0.0309455
0.00472371
0.0312862
0.00463909
0.0316194
0.00454928
0.0319447
0.0044541
0.0322617
0.0043534
0.03257
0.00424698
0.0328693
0.00413468
0.0331591
0.00401633
0.0334391
0.00389176
0.0337089
0.0037608
0.0339681
0.00362329
0.0342164
0.00347903
0.0344532
0.00332787
0.0346784
0.00316963
0.0348913
0.00300415
0.0350918
0.00283125
0.0352793
0.00265077
0.0354536
0.00246256
0.0356142
0.00226648
0.0357608
0.00206236
0.0358932
0.00185008
0.0360109
0.0016295
0.0361138
0.00140051
0.0362014
0.001163
0.0362736
0.000916874
0.0363301
0.000662059
0.0363708
0.000398457
0.0363955
0.000126227
0.036404
-0.000155222
0.0363963
-0.000445904
0.0363722
-0.000745486
0.0363318
-0.00105383
0.0362749
-0.00137079
0.0362016
-0.00169618
0.0361121
-0.00202973
0.0360064
-0.00237111
0.0358845
-0.00271988
0.0357468
-0.00307558
0.0355933
-0.00343752
0.0354243
-0.00380511
0.0352401
-0.00417734
0.0350409
-0.00455348
0.0348271
-0.00493217
0.034599
-0.00531249
0.0343571
-0.00569269
0.0341016
-0.00607163
0.0338332
-0.00644723
0.0335522
-0.00681796
0.0332594
-0.00718153
0.0329554
-0.00753597
0.0326409
-0.00787869
0.0323171
-0.00820751
0.0319847
-0.00851949
0.031645
-0.0088127
-0.00908521
0.0312919
0.0255047
0.00503287
-0.025089
0.0259177
0.00500887
0.0263277
0.00498105
0.0267344
0.0049501
0.0271375
0.00491604
0.0275367
0.00487871
0.0279316
0.004838
0.028322
0.00479375
0.0287076
0.00474582
0.0290881
0.00469409
0.0294631
0.00463842
0.0298325
0.00457868
0.0301959
0.00451471
0.0305528
0.00444636
0.030903
0.0043735
0.0312462
0.00429595
0.0315819
0.00421358
0.0319098
0.0041262
0.0322295
0.00403367
0.0325407
0.0039358
0.0328429
0.00383244
0.0331358
0.00372342
0.033419
0.00360857
0.0336921
0.00348771
0.0339547
0.00336068
0.0342064
0.00322731
0.0344469
0.00308742
0.0346756
0.00294084
0.0348924
0.00278741
0.0350967
0.00262694
0.0352882
0.00245927
0.0354665
0.00228424
0.0356313
0.00210168
0.0357823
0.00191143
0.035919
0.00171335
0.0360412
0.00150728
0.0361486
0.0012931
0.0362409
0.00107067
0.0363179
0.00083988
0.0363794
0.000600622
0.036425
0.000352788
0.0364548
9.64914e-05
0.0364685
-0.000168924
0.036466
-0.000443378
0.0364471
-0.000726622
0.0364118
-0.00101856
0.0363601
-0.00131909
0.036292
-0.00162805
0.0362075
-0.00194521
0.0361066
-0.00227027
0.0359896
-0.00260286
0.0358566
-0.00294254
0.0357077
-0.00328869
0.0355434
-0.00364072
0.0353637
-0.00399772
0.0351692
-0.00435894
0.0349601
-0.00472309
0.0347369
-0.00508926
0.0344999
-0.00545573
0.0342497
-0.00582141
0.0339867
-0.00618424
0.0337116
-0.00654282
0.033425
-0.00689494
0.0331277
-0.00723869
0.0328207
-0.00757165
0.032505
-0.00789179
0.0321815
-0.00819605
0.0318522
-0.00848339
-0.00874836
0.0315153
0.0254592
0.00461531
-0.0250416
0.0258739
0.00459413
0.0262857
0.0045693
0.0266942
0.00454158
0.0270992
0.00451101
0.0275005
0.00447748
0.0278976
0.00444086
0.0282904
0.00440101
0.0286784
0.0043578
0.0290614
0.0043111
0.029439
0.00426078
0.029811
0.00420669
0.030177
0.0041487
0.0305367
0.00408667
0.0308897
0.00402046
0.0312358
0.00394992
0.0315745
0.00387489
0.0319054
0.00379523
0.0322283
0.00371078
0.0325428
0.00362137
0.0328484
0.00352685
0.0331447
0.00342705
0.0334315
0.0033218
0.0337083
0.00321094
0.0339747
0.00309431
0.0342302
0.00297172
0.0344747
0.002843
0.0347075
0.00270799
0.0349284
0.0025665
0.035137
0.00241836
0.0353329
0.0022634
0.0355157
0.00210145
0.035685
0.00193233
0.0358405
0.00175589
0.0359819
0.00157195
0.0361089
0.00138037
0.036221
0.00118098
0.036318
0.00097365
0.0363996
0.000758248
0.0364656
0.000534638
0.0365157
0.00030271
0.0365497
6.25109e-05
0.0365674
-0.000186653
0.0365686
-0.000444609
0.0365532
-0.000711212
0.0365211
-0.000986422
0.0364722
-0.00127018
0.0364065
-0.00156236
0.0363241
-0.00186281
0.0362251
-0.00217128
0.0361097
-0.00248745
0.035978
-0.00281091
0.0358305
-0.00314113
0.0356673
-0.00347753
0.0354889
-0.00381929
0.0352956
-0.00416563
0.0350878
-0.00451534
0.0348661
-0.00486752
0.0346308
-0.00522049
0.0343827
-0.00557323
0.0341221
-0.00592372
0.03385
-0.00627068
0.033567
-0.00661195
0.033274
-0.00694566
0.032972
-0.00726968
0.032662
-0.00758182
0.0323452
-0.0078792
0.0320217
-0.00815995
-0.00841634
0.0316897
0.0254412
0.0041956
-0.0250215
0.0258582
0.00417718
0.0262721
0.00415532
0.0266829
0.0041308
0.0270903
0.00410367
0.0274939
0.00407384
0.0278936
0.0040412
0.0282889
0.00400564
0.0286797
0.00396702
0.0290656
0.00392522
0.0294463
0.00388012
0.0298214
0.00383157
0.0301906
0.00377946
0.0305537
0.00372364
0.0309101
0.00366398
0.0312597
0.00360033
0.0316021
0.00353256
0.0319368
0.00346051
0.0322635
0.00338403
0.0325819
0.00330298
0.0328916
0.00321719
0.0331921
0.00312651
0.0334831
0.00303078
0.0337642
0.00292983
0.0340351
0.00282349
0.0342952
0.0027116
0.0345442
0.00259399
0.0347817
0.00247048
0.0350073
0.0023409
0.0352206
0.00220507
0.0354212
0.00206283
0.0356086
0.001914
0.0357825
0.0017584
0.0359426
0.00159587
0.0360883
0.00142623
0.0362193
0.00124933
0.0363353
0.00106499
0.0364359
0.000873068
0.0365207
0.00067341
0.0365895
0.000465855
0.0366419
0.000250286
0.0366778
2.66544e-05
0.0366969
-0.000205728
0.0366989
-0.000446651
0.0366838
-0.000696088
0.0366514
-0.00095406
0.0366018
-0.00122056
0.036535
-0.00149555
0.0364511
-0.00177891
0.0363503
-0.00207048
0.0362328
-0.00236997
0.036099
-0.00267706
0.0359491
-0.00299126
0.0357836
-0.00331201
0.0356028
-0.00363856
0.0354074
-0.00397015
0.0351977
-0.00430565
0.0349743
-0.00464412
0.0347378
-0.00498401
0.0344889
-0.00532431
0.0342281
-0.005663
0.0339565
-0.00599902
0.0336746
-0.00633003
0.0333832
-0.00665431
0.0330834
-0.00696989
0.032776
-0.0072744
0.0324619
-0.0075651
0.0321414
-0.00783942
-0.00808778
0.0318128
0.0254561
0.00377363
-0.0250341
0.0258755
0.00375782
0.026292
0.0037388
0.0267055
0.00371736
0.0271156
0.00369356
0.0275221
0.00366732
0.0279247
0.00363854
0.0283233
0.00360712
0.0287173
0.00357294
0.0291067
0.0035359
0.0294909
0.00349586
0.0298698
0.00345271
0.0302429
0.00340632
0.03061
0.00335657
0.0309706
0.00330332
0.0313245
0.00324644
0.0316713
0.0031858