/*--------------------------------*- C++ -*----------------------------------*\
| =========                 |                                                 |
| \\      /  F ield         | OpenFOAM: The Open Source CFD Toolbox           |
|  \\    /   O peration     | Version:  2312                                  |
|   \\  /    A nd           | Website:  www.openfoam.com                      |
|    \\/     M anipulation  |                                                 |
\*---------------------------------------------------------------------------*/
FoamFile
{
    version     2.0;
    format      ascii;
    arch        "LSB;label=32;scalar=64";
    class       volVectorField;
    location    "1400";
    object      U;
}
// * * * * * * * * * * * * * * * * * * * * * * * * * * * * * * * * * * * * * //

dimensions      [0 1 -1 0 0 0 0];

internalField   nonuniform List<vector> 
76025
(
(1.00531 -0.164741 0)
(1.01067 -0.16458 -6.04771e-21)
(1.01602 -0.164301 0)
(1.02133 -0.16385 0)
(1.02686 -0.163291 1.694e-20)
(1.03245 -0.162216 3.89533e-20)
(1.0382 -0.161299 -7.15194e-20)
(1.04402 -0.159937 3.16017e-20)
(1.04971 -0.158543 1.22826e-20)
(1.05536 -0.156889 -1.3159e-20)
(1.06103 -0.155016 8.19207e-22)
(1.06677 -0.15285 -4.46323e-20)
(1.07253 -0.150534 5.93839e-20)
(1.07817 -0.147921 0)
(1.08361 -0.144895 -1.74954e-20)
(1.08905 -0.141944 0)
(1.09436 -0.138417 0)
(1.09975 -0.134894 0)
(1.10501 -0.130933 -1.97619e-20)
(1.11013 -0.126963 2.188e-20)
(1.11512 -0.122545 2.27153e-20)
(1.11995 -0.117964 6.88984e-20)
(1.12453 -0.113097 -4.66952e-20)
(1.1289 -0.107911 -7.51642e-20)
(1.1331 -0.102574 -1.51071e-21)
(1.13724 -0.0970278 -2.85148e-20)
(1.14117 -0.0909115 8.17441e-20)
(1.14496 -0.0847828 -8.23515e-20)
(1.14862 -0.0782094 2.79339e-20)
(1.15208 -0.0711404 -2.86947e-20)
(1.15519 -0.0644912 -2.96265e-20)
(1.15815 -0.0574535 6.29385e-20)
(1.16078 -0.0498409 -9.53942e-20)
(1.16324 -0.0422436 -1.65665e-20)
(1.16541 -0.0342126 8.45238e-20)
(1.1673 -0.0261712 3.1926e-22)
(1.16899 -0.0176503 -1.71514e-20)
(1.17037 -0.00889529 9.24143e-21)
(1.1714 -0.000222407 4.86697e-22)
(1.17204 0.00883099 -1.40401e-20)
(1.17229 0.0180047 9.57694e-21)
(1.17234 0.0275154 -4.72709e-21)
(1.17203 0.0372904 9.37159e-21)
(1.17126 0.0471657 -1.87024e-20)
(1.17001 0.0572376 -1.90464e-20)
(1.16842 0.0674683 3.61392e-20)
(1.16648 0.0779025 3.71805e-20)
(1.16395 0.0885036 -1.11775e-19)
(1.16088 0.0992748 7.08872e-20)
(1.15747 0.110191 -2.19515e-21)
(1.15359 0.121263 -1.77957e-19)
(1.14914 0.132499 -6.79434e-20)
(1.14421 0.143808 7.07291e-20)
(1.13869 0.155316 0)
(1.13231 0.16682 -6.45359e-20)
(1.1253 0.178549 -6.7262e-20)
(1.11773 0.19026 1.37179e-21)
(1.10922 0.202242 -6.30475e-20)
(1.09993 0.21448 6.06173e-20)
(1.0899 0.226944 -1.75314e-19)
(1.07951 0.2384 -1.20254e-19)
(1.06749 0.250845 -8.09698e-21)
(1.05461 0.263321 0)
(1.04088 0.275709 2.69957e-19)
(1.02594 0.287913 -9.70311e-20)
(1.00978 0.300404 5.18445e-20)
(0.993018 0.313148 -9.48803e-20)
(0.975096 0.325248 1.0023e-19)
(0.956589 0.337359 1.83636e-19)
(1.00494 -0.174076 -5.71294e-21)
(1.01066 -0.173934 -2.14721e-20)
(1.01638 -0.173615 2.74953e-20)
(1.02211 -0.173121 0)
(1.02785 -0.172447 -4.7849e-20)
(1.03373 -0.171528 -3.94928e-21)
(1.0396 -0.170401 4.24455e-20)
(1.0456 -0.169046 0)
(1.05164 -0.167478 8.47408e-22)
(1.05767 -0.165699 1.34574e-20)
(1.06369 -0.16369 -1.43491e-20)
(1.06971 -0.161436 9.97575e-22)
(1.07573 -0.158947 0)
(1.08175 -0.156203 0)
(1.08772 -0.153172 -3.86728e-20)
(1.09354 -0.149925 9.54099e-20)
(1.09933 -0.146369 2.08843e-20)
(1.105 -0.142592 -6.49826e-20)
(1.11063 -0.13852 4.31392e-20)
(1.11611 -0.13422 -2.22876e-20)
(1.12152 -0.129627 2.53571e-20)
(1.12678 -0.124779 -4.85357e-20)
(1.13187 -0.119648 5.20186e-20)
(1.13676 -0.114229 -8.01034e-20)
(1.14147 -0.108543 5.38616e-20)
(1.146 -0.102601 8.46868e-20)
(1.15038 -0.0963755 -5.74093e-20)
(1.15446 -0.0898821 0)
(1.15835 -0.0830902 0)
(1.16209 -0.0760041 -3.26415e-20)
(1.16556 -0.0687287 0)
(1.16881 -0.0611863 -3.44e-20)
(1.1718 -0.0533537 3.45771e-20)
(1.17447 -0.0452651 -5.2914e-20)
(1.17689 -0.036903 1.00115e-21)
(1.17899 -0.0283006 -1.7926e-20)
(1.18084 -0.0193896 0)
(1.18239 -0.0103072 -3.86529e-20)
(1.18359 -0.00101429 2.97757e-20)
(1.18442 0.00851296 -2.49427e-20)
(1.18486 0.0183045 1.53804e-20)
(1.18497 0.0283745 -1.57536e-22)
(1.18467 0.0385021 5.50853e-21)
(1.18391 0.0488037 -5.12693e-21)
(1.18272 0.0592893 4.13728e-20)
(1.18109 0.070016 -2.07225e-20)
(1.17901 0.0808751 -2.11788e-20)
(1.17641 0.0918538 3.85394e-20)
(1.17326 0.103081 1.17538e-19)
(1.16964 0.114504 -1.13222e-21)
(1.16552 0.126046 1.13779e-19)
(1.16081 0.137741 -3.76227e-20)
(1.15553 0.149556 -1.0896e-19)
(1.14963 0.161448 7.34715e-20)
(1.14302 0.173381 0)
(1.13566 0.18561 2.11219e-19)
(1.12766 0.197846 -8.90427e-22)
(1.11885 0.210229 -6.81228e-20)
(1.10926 0.222723 -6.85075e-20)
(1.09894 0.235293 0)
(1.08781 0.247889 5.9879e-20)
(1.07568 0.260543 1.82324e-19)
(1.06261 0.273244 0)
(1.04864 0.28598 -1.14016e-19)
(1.03366 0.298702 6.5541e-20)
(1.01744 0.311667 -1.1224e-19)
(1.00031 0.32473 5.51498e-20)
(0.981918 0.337312 -1.02159e-19)
(0.962488 0.351232 -9.70978e-20)
(1.00457 -0.183921 3.20596e-20)
(1.0106 -0.183744 -1.88796e-20)
(1.01667 -0.183389 8.41353e-21)
(1.02281 -0.182859 -3.8434e-20)
(1.02897 -0.18212 4.86812e-20)
(1.03515 -0.181168 4.6418e-20)
(1.04135 -0.179978 -5.86887e-20)
(1.0476 -0.178559 0)
(1.0539 -0.176899 9.3978e-22)
(1.06024 -0.174997 0)
(1.06659 -0.17285 1.65488e-20)
(1.07293 -0.170454 -1.64573e-20)
(1.07926 -0.167806 -9.23843e-20)
(1.08556 -0.164898 7.36107e-20)
(1.09185 -0.161722 -1.92825e-20)
(1.09809 -0.158268 -6.28642e-20)
(1.10427 -0.154546 2.14216e-20)
(1.11035 -0.150543 2.20681e-20)
(1.11634 -0.146274 7.27344e-20)
(1.12222 -0.141721 -4.82761e-20)
(1.12797 -0.136891 -2.63488e-20)
(1.13358 -0.131776 5.38937e-20)
(1.13904 -0.126374 -2.56665e-20)
(1.14435 -0.120672 -2.92057e-20)
(1.14949 -0.114679 0)
(1.15443 -0.1084 3.10873e-20)
(1.15915 -0.101849 3.09721e-20)
(1.16365 -0.095007 -3.02389e-20)
(1.16791 -0.0878716 0)
(1.17194 -0.0804577 6.76884e-20)
(1.17574 -0.0727578 -3.57295e-20)
(1.17927 -0.0647942 -2.01362e-21)
(1.18251 -0.0565733 0)
(1.18545 -0.0480648 1.81798e-20)
(1.18808 -0.0392903 -5.71295e-20)
(1.1904 -0.0302553 3.88283e-20)
(1.1924 -0.0209579 0)
(1.19405 -0.0114307 3.04755e-20)
(1.19536 -0.001668 -3.14774e-20)
(1.19629 0.00832134 -5.18509e-21)
(1.19682 0.0185562 0)
(1.19695 0.0290233 -1.10623e-20)
(1.19666 0.0396292 -5.5067e-21)
(1.19591 0.0504305 5.14786e-21)
(1.1947 0.0614233 -3.18781e-20)
(1.19301 0.0726057 -2.21009e-20)
(1.19083 0.0839516 4.14308e-20)
(1.18812 0.09546 -4.216e-20)
(1.1849 0.107159 4.29221e-20)
(1.18113 0.119027 -4.14336e-20)
(1.17683 0.131031 -3.97092e-20)
(1.17195 0.143168 8.29973e-20)
(1.16646 0.155425 0)
(1.16032 0.167781 8.03688e-20)
(1.1535 0.180242 2.77255e-21)
(1.14594 0.19285 -7.50832e-20)
(1.13768 0.205553 -7.35209e-20)
(1.12866 0.218365 1.45094e-19)
(1.11887 0.231292 -2.69485e-21)
(1.10829 0.244313 7.20831e-20)
(1.09691 0.257363 -1.41356e-19)
(1.08461 0.27046 -7.20939e-20)
(1.07136 0.283655 -1.16857e-21)
(1.05717 0.296929 -6.44729e-20)
(1.04197 0.310242 -5.85476e-20)
(1.02563 0.323639 -1.87824e-19)
(1.00829 0.337182 0)
(0.989555 0.35036 -5.69856e-20)
(0.970167 0.365089 5.56205e-20)
(1.00441 -0.194404 0)
(1.0107 -0.194201 -7.50403e-21)
(1.01706 -0.193808 -4.6245e-20)
(1.02352 -0.193232 3.74714e-20)
(1.03006 -0.19244 3.56314e-20)
(1.03662 -0.191418 -5.84919e-20)
(1.04321 -0.190155 1.26831e-20)
(1.04982 -0.188649 -1.46695e-20)
(1.05645 -0.186895 -1.47307e-20)
(1.0631 -0.184886 -6.72499e-20)
(1.06976 -0.182615 6.80846e-20)
(1.07642 -0.180079 7.55194e-20)
(1.08308 -0.177273 -1.66586e-20)
(1.08971 -0.174193 -8.15315e-20)
(1.09631 -0.170832 6.38256e-20)
(1.10288 -0.167186 -2.31384e-20)
(1.10939 -0.163254 2.41741e-20)
(1.11582 -0.159032 2.52048e-20)
(1.12217 -0.154523 -7.65895e-20)
(1.12841 -0.149721 2.45808e-20)
(1.13451 -0.144626 2.66406e-20)
(1.14048 -0.139234 0)
(1.1463 -0.13354 6.14134e-20)
(1.15195 -0.127542 -3.0236e-20)
(1.15742 -0.121242 -6.35153e-20)
(1.1627 -0.114644 -6.64104e-20)
(1.16777 -0.107745 1.32112e-19)
(1.17261 -0.100545 -6.84398e-20)
(1.17722 -0.0930465 0)
(1.18157 -0.0852532 -7.21983e-20)
(1.18565 -0.0771768 -1.37327e-21)
(1.18945 -0.0688197 7.44458e-20)
(1.19294 -0.0601818 -3.91709e-20)
(1.19612 -0.051267 9.99507e-20)
(1.19897 -0.042073 -1.94315e-20)
(1.20149 -0.0326104 0)
(1.20366 -0.0228897 0)
(1.20546 -0.0129124 1.11761e-20)
(1.20689 -0.00269467 1.07851e-20)
(1.20791 0.00776277 5.81872e-21)
(1.20851 0.0184598 -1.85382e-22)
(1.20869 0.0293918 5.7051e-21)
(1.20841 0.0404853 0)
(1.20767 0.0517738 -6.49743e-22)
(1.20644 0.063251 0)
(1.20472 0.0749133 2.16222e-20)
(1.20249 0.0867513 9.50432e-24)
(1.19973 0.0987601 -6.8951e-20)
(1.19643 0.110936 0)
(1.19258 0.123272 -4.39972e-20)
(1.18814 0.135749 4.35492e-20)
(1.18311 0.148357 -8.33069e-20)
(1.17744 0.161087 0)
(1.17111 0.173933 -2.4929e-19)
(1.16409 0.186895 2.68782e-21)
(1.15636 0.199974 8.11085e-20)
(1.14792 0.213167 7.95833e-20)
(1.13872 0.226455 0)
(1.12876 0.23985 0)
(1.118 0.253326 -7.25387e-20)
(1.10641 0.266874 1.42196e-19)
(1.09393 0.280485 1.39152e-19)
(1.08053 0.294179 0)
(1.06617 0.307949 -1.4256e-19)
(1.0508 0.321783 0)
(1.03434 0.335692 1.91811e-19)
(1.01683 0.349758 -6.44885e-20)
(0.997937 0.363556 -6.16422e-20)
(0.978396 0.378833 -6.35896e-20)
(1.00439 -0.205568 0)
(1.01097 -0.20536 0)
(1.01763 -0.204946 -1.0109e-20)
(1.02439 -0.204331 4.58096e-20)
(1.03125 -0.203487 -5.79687e-20)
(1.03817 -0.202397 1.2678e-20)
(1.04514 -0.201053 0)
(1.05214 -0.199453 1.48653e-20)
(1.05915 -0.197591 0)
(1.06617 -0.195463 3.63425e-20)
(1.07319 -0.193059 3.57202e-21)
(1.08021 -0.190376 -3.83837e-20)
(1.08721 -0.187407 0)
(1.09419 -0.184148 4.50656e-20)
(1.10113 -0.180595 -1.38285e-19)
(1.10803 -0.176744 9.49441e-20)
(1.11486 -0.172592 -1.25152e-19)
(1.12163 -0.168136 2.58829e-20)
(1.1283 -0.163374 -2.8165e-20)
(1.13488 -0.158305 2.75416e-20)
(1.14133 -0.152924 2.95206e-20)
(1.14764 -0.147232 -9.11643e-20)
(1.15379 -0.141227 -6.29863e-20)
(1.15977 -0.134909 0)
(1.16557 -0.128276 6.79219e-20)
(1.17117 -0.121328 3.54416e-20)
(1.17655 -0.114068 -1.04596e-19)
(1.18169 -0.106496 3.54908e-20)
(1.18659 -0.0986168 -7.58038e-20)
(1.19123 -0.0904305 1.13459e-19)
(1.19558 -0.0819446 -4.05914e-20)
(1.19964 -0.0731676 2.07931e-20)
(1.20338 -0.0640969 0)
(1.20679 -0.0547354 -2.05934e-20)
(1.20987 -0.0450901 -2.10681e-20)
(1.21258 -0.0351658 0)
(1.21492 -0.0249722 2.32431e-20)
(1.21688 -0.0145192 -3.43657e-20)
(1.21842 -0.00381378 2.33733e-20)
(1.21954 0.0071338 -1.20044e-20)
(1.22022 0.018324 -2.07435e-22)
(1.22045 0.0297637 -9.53878e-21)
(1.2202 0.0413745 3.09533e-21)
(1.21948 0.0531712 1.20229e-20)
(1.21825 0.0651552 6.92124e-22)
(1.21652 0.0773177 7.31811e-20)
(1.21426 0.0896551 0)
(1.21147 0.102167 4.66365e-20)
(1.2081 0.114838 -1.45385e-21)
(1.20414 0.127662 -4.68564e-20)
(1.19959 0.140627 0)
(1.19441 0.153725 -4.54602e-20)
(1.18859 0.166948 4.50956e-20)
(1.18211 0.180287 8.61528e-20)
(1.17495 0.193739 0)
(1.16707 0.207301 -1.69066e-19)
(1.15848 0.220973 1.69154e-19)
(1.14913 0.234743 -1.66267e-19)
(1.13901 0.248614 -2.14548e-21)
(1.12809 0.262572 0)
(1.11635 0.276614 -7.81201e-20)
(1.10372 0.290728 7.45178e-20)
(1.09017 0.304932 8.01237e-20)
(1.07566 0.319217 1.4301e-19)
(1.06014 0.333584 -2.21315e-19)
(1.04355 0.348041 1.41098e-19)
(1.02588 0.362635 -6.93126e-20)
(1.00688 0.377028 7.25964e-20)
(0.98733 0.392892 1.88059e-19)
(1.00427 -0.217433 3.51578e-20)
(1.01128 -0.217229 5.07972e-21)
(1.01831 -0.216803 -4.08277e-20)
(1.02545 -0.216161 0)
(1.03266 -0.215272 1.26088e-20)
(1.03993 -0.214117 0)
(1.04726 -0.212692 -3.21881e-20)
(1.05463 -0.210994 -2.55034e-21)
(1.06203 -0.209017 5.28358e-20)
(1.06945 -0.206758 -1.96666e-20)
(1.07687 -0.204211 -1.95486e-20)
(1.08428 -0.201368 -2.20678e-20)
(1.09167 -0.198225 0)
(1.09903 -0.194777 0)
(1.10634 -0.191018 2.40553e-20)
(1.1136 -0.186947 2.51615e-20)
(1.12079 -0.182557 -5.52987e-20)
(1.12791 -0.177848 5.51729e-20)
(1.13492 -0.172817 5.86826e-20)
(1.14183 -0.167461 -6.19477e-20)
(1.14862 -0.161778 1.24131e-19)
(1.15526 -0.155767 2.55344e-22)
(1.16174 -0.149429 -6.82723e-20)
(1.16805 -0.142762 -3.58295e-20)
(1.17416 -0.13577 -7.26479e-20)
(1.18006 -0.12845 7.27568e-20)
(1.18574 -0.120803 7.68405e-20)
(1.19118 -0.11283 -7.69884e-20)
(1.19635 -0.104539 0)
(1.20125 -0.0959323 0)
(1.20586 -0.0870119 1.04993e-19)
(1.21015 -0.0777848 2.04495e-21)
(1.21412 -0.0682584 -4.3654e-20)
(1.21775 -0.058435 -4.54129e-20)
(1.22101 -0.0483122 4.56908e-20)
(1.2239 -0.0379079 0)
(1.22639 -0.0272271 -2.33306e-20)
(1.22848 -0.0162807 -3.71724e-20)
(1.23013 -0.00507856 2.48246e-20)
(1.23135 0.00637635 -3.59519e-22)
(1.23211 0.0180735 -2.0263e-21)
(1.23242 0.0300138 9.72324e-21)
(1.23223 0.0421317 6.79343e-21)
(1.23155 0.0544366 1.31517e-20)
(1.23035 0.0669312 -6.45314e-20)
(1.22862 0.0796125 6.71414e-22)
(1.22634 0.0924736 0)
(1.22348 0.105499 -5.22893e-20)
(1.22004 0.118681 1.50784e-19)
(1.216 0.132014 -1.00871e-19)
(1.21134 0.145489 -4.89929e-20)
(1.20606 0.159096 -1.35106e-21)
(1.20012 0.172825 -4.61317e-20)
(1.19352 0.186671 6.30879e-22)
(1.18623 0.200628 9.34201e-20)
(1.17823 0.214693 -9.45002e-20)
(1.1695 0.228864 -8.97997e-20)
(1.16002 0.243136 1.7749e-19)
(1.14977 0.257503 -3.05982e-21)
(1.13871 0.271966 8.51745e-20)
(1.12682 0.286514 -8.46284e-20)
(1.11405 0.301152 7.99653e-20)
(1.10037 0.31588 -1.56559e-19)
(1.08573 0.330695 -7.85386e-20)
(1.07007 0.345617 1.50872e-19)
(1.05334 0.360611 -8.01435e-20)
(1.03554 0.375775 -2.25611e-19)
(1.01641 0.390721 -6.62447e-20)
(0.996798 0.407057 0)
(1.0039 -0.230052 0)
(1.01141 -0.229851 1.08197e-20)
(1.01893 -0.229413 -9.15242e-22)
(1.02653 -0.228746 0)
(1.03418 -0.227815 0)
(1.04187 -0.226599 1.61022e-20)
(1.0496 -0.225095 -5.23453e-20)
(1.05738 -0.223298 7.2189e-20)
(1.06518 -0.221204 -3.59344e-20)
(1.07301 -0.21881 1.98996e-20)
(1.08084 -0.216109 0)
(1.08866 -0.213095 2.23156e-20)
(1.09646 -0.209765 -2.50787e-20)
(1.10423 -0.206112 0)
(1.11194 -0.202133 0)
(1.1196 -0.197825 2.8226e-20)
(1.12718 -0.193183 2.53625e-21)
(1.13467 -0.188205 -5.92326e-20)
(1.14205 -0.182887 -6.21364e-20)
(1.14932 -0.177229 6.39644e-20)
(1.15645 -0.171229 3.27823e-20)
(1.16344 -0.164884 1.40875e-19)
(1.17025 -0.158197 1.26574e-21)
(1.17689 -0.151166 -3.93364e-20)
(1.18332 -0.143792 7.54887e-20)
(1.18953 -0.136075 -3.92412e-20)
(1.19551 -0.12802 7.99635e-20)
(1.20124 -0.119627 0)
(1.20669 -0.110902 0)
(1.21185 -0.101849 0)
(1.2167 -0.0924692 -2.18029e-20)
(1.22123 -0.0827688 -4.49894e-20)
(1.22542 -0.0727551 4.65276e-20)
(1.22923 -0.0624354 4.83642e-20)
(1.23268 -0.0518171 -4.86483e-20)
(1.23572 -0.0409078 0)
(1.23836 -0.0297189 2.56761e-20)
(1.24058 -0.0182595 -1.32165e-20)
(1.24236 -0.00653815 0)
(1.24368 0.00543868 1.3534e-20)
(1.24454 0.0176626 -2.56216e-21)
(1.24491 0.0301331 1.74212e-21)
(1.24478 0.0427926 -6.80003e-21)
(1.24412 0.0556396 0)
(1.24293 0.0686741 -2.76201e-20)
(1.24118 0.081892 2.73463e-20)
(1.23885 0.0952856 0)
(1.23594 0.108847 -1.44239e-21)
(1.23244 0.122566 1.47717e-21)
(1.22832 0.136432 5.12912e-20)
(1.22357 0.150435 0)
(1.21819 0.164565 -2.96672e-21)
(1.21216 0.178816 -4.94825e-20)
(1.20545 0.193181 -1.51842e-19)
(1.19804 0.207655 -2.67062e-21)
(1.18993 0.222235 9.48217e-20)
(1.18108 0.236918 0)
(1.17148 0.251702 0)
(1.1611 0.266581 9.59059e-20)
(1.14992 0.281561 0)
(1.13789 0.296628 0)
(1.12499 0.311796 -3.41452e-21)
(1.11118 0.327059 -8.67435e-20)
(1.0964 0.342417 -1.71033e-19)
(1.08062 0.357905 1.68275e-19)
(1.06375 0.373443 -1.06581e-20)
(1.04583 0.389214 7.40706e-20)
(1.02656 0.404703 7.71862e-20)
(1.00678 0.421656 0)
(1.00329 -0.2435 0)
(1.01132 -0.243297 -1.09561e-20)
(1.01937 -0.242845 3.92801e-20)
(1.02749 -0.24215 -1.20937e-20)
(1.03565 -0.241175 0)
(1.04385 -0.239899 -5.14984e-20)
(1.05207 -0.238316 9.04992e-20)
(1.06031 -0.236421 2.9038e-21)
(1.06857 -0.234209 -1.03832e-19)
(1.07684 -0.231674 1.99914e-20)
(1.08511 -0.228815 -2.43761e-20)
(1.09336 -0.225625 -2.5726e-20)
(1.1016 -0.222098 7.90737e-20)
(1.1098 -0.218232 -1.0982e-19)
(1.11794 -0.21402 5.61052e-20)
(1.12602 -0.209458 -3.22781e-20)
(1.13402 -0.204544 1.25091e-19)
(1.14192 -0.199277 -3.011e-20)
(1.1497 -0.193652 3.60535e-20)
(1.15736 -0.18767 -3.35397e-20)
(1.16487 -0.181328 2.53184e-21)
(1.17222 -0.174624 -2.24443e-19)
(1.17938 -0.167562 -3.98848e-20)
(1.18635 -0.160141 -2.37131e-21)
(1.19311 -0.152362 1.2286e-19)
(1.19964 -0.144227 -4.08877e-20)
(1.20592 -0.135736 8.75479e-20)
(1.21193 -0.126892 -1.33439e-19)
(1.21766 -0.117703 0)
(1.22308 -0.108175 -4.70666e-20)
(1.22818 -0.0983101 4.72268e-20)
(1.23294 -0.0881177 1.4243e-21)
(1.23734 -0.0776057 -2.57387e-20)
(1.24137 -0.0667761 -2.6324e-20)
(1.245 -0.0556348 7.94647e-20)
(1.24823 -0.0441951 -5.28743e-20)
(1.25104 -0.0324724 4.12474e-20)
(1.2534 -0.020471 -5.52472e-20)
(1.2553 -0.00819762 2.79666e-20)
(1.25673 0.00433123 -6.95039e-21)
(1.25766 0.0171064 0)
(1.25808 0.0301322 7.39991e-21)
(1.25798 0.0433538 -7.36315e-21)
(1.25732 0.056761 -1.47132e-20)
(1.25611 0.0703602 4.38006e-20)
(1.25433 0.0841438 -2.97958e-20)
(1.25197 0.0981015 -2.87487e-20)
(1.24902 0.112221 0)
(1.24545 0.126493 -1.1467e-19)
(1.24126 0.140906 1.11876e-19)
(1.23644 0.155452 -5.36759e-20)
(1.23097 0.170122 5.34257e-20)
(1.22484 0.184909 5.59404e-20)
(1.21802 0.199808 1.05341e-19)
(1.21051 0.214813 1.02286e-19)
(1.20227 0.229921 0)
(1.19331 0.245131 -1.0529e-19)
(1.18358 0.26044 0)
(1.17307 0.275845 2.35316e-21)
(1.16176 0.291352 -9.40818e-20)
(1.1496 0.30695 9.59205e-20)
(1.13658 0.322662 9.07628e-20)
(1.12264 0.338464 -9.45696e-20)
(1.10773 0.354391 -2.15541e-21)
(1.09183 0.370433 3.29339e-21)
(1.07485 0.386564 2.5436e-19)
(1.0568 0.402916 8.63908e-20)
(1.03743 0.419069 8.08556e-20)
(1.01747 0.436637 -7.88244e-20)
(1.00254 -0.257858 0)
(1.01109 -0.257647 0)
(1.01966 -0.257174 2.95201e-20)
(1.02831 -0.256445 -4.418e-20)
(1.03703 -0.255419 -1.75689e-20)
(1.04577 -0.254075 0)
(1.05453 -0.252404 0)
(1.0633 -0.250405 2.19944e-20)
(1.07208 -0.24807 -4.67808e-20)
(1.08086 -0.245394 -4.71336e-21)
(1.08962 -0.242371 1.26348e-19)
(1.09837 -0.238995 -2.61561e-20)
(1.10708 -0.235261 2.87034e-20)
(1.11575 -0.231168 -5.76222e-20)
(1.12435 -0.226711 3.19761e-20)
(1.13288 -0.221885 0)
(1.14132 -0.216687 0)
(1.14966 -0.211113 1.28374e-21)
(1.15787 -0.205164 -1.08586e-19)
(1.16595 -0.198837 3.64522e-20)
(1.17386 -0.192129 -4.01173e-20)
(1.18161 -0.185043 3.89481e-20)
(1.18915 -0.17758 4.13146e-20)
(1.19649 -0.169744 -3.9986e-20)
(1.2036 -0.161531 -4.26038e-20)
(1.21046 -0.152947 0)
(1.21706 -0.143994 0)
(1.22338 -0.134674 7.06746e-20)
(1.2294 -0.124995 0)
(1.23509 -0.114966 5.03573e-20)
(1.24046 -0.104592 -5.05076e-20)
(1.24546 -0.0938739 -2.53556e-20)
(1.2501 -0.0828248 2.58982e-20)
(1.25434 -0.071456 5.4438e-20)
(1.25818 -0.0597693 -2.69565e-20)
(1.26159 -0.0477721 -2.8417e-20)
(1.26455 -0.0354825 2.93821e-20)
(1.26704 -0.0229089 0)
(1.26905 -0.0100601 0)
(1.27055 0.00305341 7.78128e-21)
(1.27154 0.0164169 0)
(1.27201 0.0300316 0)
(1.27192 0.043847 -2.3696e-20)
(1.27128 0.0578464 3.15098e-20)
(1.27006 0.0720344 -1.59112e-20)
(1.26826 0.0864023 2.98558e-20)
(1.26587 0.10094 0)
(1.26286 0.115635 9.15234e-20)
(1.25923 0.130478 -1.66075e-21)
(1.25497 0.145458 0)
(1.25006 0.160566 -1.1747e-19)
(1.24449 0.175793 -1.86154e-21)
(1.23824 0.191134 -1.13147e-19)
(1.23131 0.20658 -5.82592e-20)
(1.22367 0.22213 -1.11226e-19)
(1.21532 0.237779 1.10378e-19)
(1.20622 0.253527 1.05314e-19)
(1.19637 0.269371 0)
(1.18573 0.285313 -1.04386e-19)
(1.17429 0.301357 3.48724e-21)
(1.162 0.317498 0)
(1.14885 0.333759 0)
(1.13478 0.350114 9.42026e-20)
(1.11977 0.366615 0)
(1.10374 0.383219 0)
(1.08667 0.399951 -9.15599e-20)
(1.06851 0.416896 -8.34925e-20)
(1.04911 0.433714 -8.95045e-20)
(1.02884 0.451626 0)
(1.00174 -0.273209 0)
(1.01079 -0.272986 0)
(1.01989 -0.272485 0)
(1.02908 -0.271713 -1.7571e-20)
(1.03835 -0.270628 -2.07547e-20)
(1.04765 -0.269207 -3.3355e-21)
(1.05698 -0.267442 4.13263e-20)
(1.06632 -0.265328 -2.22326e-20)
(1.07567 -0.262859 2.54282e-20)
(1.08501 -0.260029 5.20997e-20)
(1.09433 -0.256833 0)
(1.10361 -0.253264 0)
(1.11286 -0.249315 -1.47234e-21)
(1.12204 -0.244983 9.51703e-20)
(1.13115 -0.240266 -1.34991e-19)
(1.14018 -0.235161 -3.08928e-21)
(1.14911 -0.229661 7.084e-20)
(1.15792 -0.223765 3.64522e-20)
(1.1666 -0.217474 -2.48252e-21)
(1.17513 -0.210788 0)
(1.18349 -0.203702 8.35483e-20)
(1.19167 -0.196215 0)
(1.19963 -0.188332 8.88519e-20)
(1.20738 -0.180058 -1.36939e-19)
(1.21487 -0.171391 1.41062e-19)
(1.22211 -0.162335 4.9786e-20)
(1.22906 -0.152897 -7.56424e-20)
(1.23572 -0.143077 7.68597e-20)
(1.24206 -0.132881 -5.14184e-20)
(1.24806 -0.122317 0)
(1.25371 -0.111398 -5.48496e-20)
(1.25897 -0.100125 -2.96173e-20)
(1.26384 -0.0885047 5.61092e-20)
(1.26829 -0.076552 -5.77429e-20)
(1.27231 -0.0642742 2.95714e-20)
(1.27588 -0.0516798 -2.96956e-20)
(1.27897 -0.0387818 -1.47881e-20)
(1.28158 -0.0255927 1.59441e-20)
(1.28369 -0.0121246 7.69433e-21)
(1.28527 0.00160909 -2.36751e-20)
(1.28632 0.0155923 -2.08974e-21)
(1.28682 0.029825 0)
(1.28676 0.0442601 8.02845e-21)
(1.28612 0.0588763 -1.59808e-20)
(1.28489 0.0736782 1.58913e-20)
(1.28305 0.0886566 0)
(1.28061 0.1038 0)
(1.27754 0.119095 3.28284e-20)
(1.27383 0.134533 -6.33894e-20)
(1.26947 0.1501 -1.27296e-19)
(1.26446 0.16579 2.48499e-19)
(1.25878 0.181592 -6.30549e-20)
(1.25241 0.197501 6.07895e-20)
(1.24536 0.21351 5.82072e-20)
(1.23759 0.229618 -1.17753e-19)
(1.2291 0.245818 1.16806e-19)
(1.21986 0.262115 0)
(1.20988 0.278504 -1.16224e-19)
(1.19911 0.294993 3.90966e-21)
(1.18754 0.311581 1.09381e-19)
(1.17512 0.328278 0)
(1.16185 0.34509 0)
(1.14766 0.362014 0)
(1.13253 0.379086 2.03051e-19)
(1.11639 0.396262 1.00035e-19)
(1.09919 0.413609 9.18627e-20)
(1.08094 0.431105 -1.85231e-19)
(1.06142 0.448613 -5.83665e-21)
(1.04119 0.466984 9.09959e-20)
(1.00091 -0.289651 0)
(1.0105 -0.289414 -3.2045e-20)
(1.02013 -0.28888 4.0557e-20)
(1.02988 -0.28806 -3.05241e-20)
(1.03971 -0.286909 5.93044e-20)
(1.04958 -0.285399 2.25977e-20)
(1.05949 -0.283528 2.42596e-20)
(1.06942 -0.281286 0)
(1.07936 -0.27867 -5.31971e-20)
(1.08929 -0.275672 -5.59826e-20)
(1.0992 -0.272285 5.76373e-20)
(1.10907 -0.268508 -3.23806e-20)
(1.11889 -0.26433 3.5529e-20)
(1.12865 -0.259748 -2.98724e-20)
(1.13832 -0.254757 -1.45713e-19)
(1.14789 -0.249357 -3.27782e-21)
(1.15735 -0.243544 -3.23416e-21)
(1.16668 -0.237311 7.90884e-20)
(1.17588 -0.230654 4.05382e-20)
(1.1849 -0.223574 8.80135e-20)
(1.19374 -0.216078 -8.49529e-20)
(1.20238 -0.208163 0)
(1.21079 -0.199837 2.98578e-21)
(1.21896 -0.191097 0)
(1.22687 -0.181949 -4.86088e-20)
(1.23451 -0.172395 -4.98961e-20)
(1.24185 -0.162438 2.5581e-20)
(1.24887 -0.152085 0)
(1.25554 -0.14134 2.85074e-20)
(1.26186 -0.130212 5.70326e-20)
(1.2678 -0.118708 -5.71068e-20)
(1.27333 -0.106838 2.85883e-20)
(1.27844 -0.0946093 -6.04972e-20)
(1.28311 -0.0820343 1.21181e-19)
(1.28733 -0.0691243 -3.09097e-20)
(1.29106 -0.0558917 0)
(1.29431 -0.0423505 -1.66161e-20)
(1.29704 -0.0285142 9.67488e-22)
(1.29925 -0.0143964 2.48032e-20)
(1.30091 -1.08851e-05 -2.10634e-20)
(1.30202 0.0146246 4.1448e-21)
(1.30256 0.0295076 -1.31999e-20)
(1.30251 0.0445937 8.69833e-21)
(1.30186 0.0598574 0)
(1.30061 0.0753027 0)
(1.29873 0.0909192 0)
(1.29622 0.106695 3.50922e-20)
(1.29308 0.122615 3.48047e-20)
(1.28928 0.13867 0)
(1.28482 0.154847 6.65578e-20)
(1.27969 0.171138 6.94882e-20)
(1.27388 0.187532 6.6813e-20)
(1.26738 0.204026 0)
(1.26019 0.220611 0)
(1.25228 0.237288 -1.24373e-19)
(1.24365 0.254051 1.23297e-19)
(1.23428 0.270906 0)
(1.22415 0.28785 1.15614e-19)
(1.21325 0.304895 -1.13645e-19)
(1.20154 0.322036 -1.1817e-19)
(1.189 0.339294 1.11982e-19)
(1.1756 0.356663 -1.107e-19)
(1.16129 0.374164 0)
(1.14603 0.391802 -1.02462e-19)
(1.12976 0.409574 2.44027e-21)
(1.11244 0.427506 -2.06051e-19)
(1.09402 0.4456 -2.00682e-19)
(1.0743 0.463661 1.91859e-19)
(1.05397 0.482586 -8.98894e-20)
(1.00006 -0.307246 -7.72178e-21)
(1.01022 -0.306988 0)
(1.02043 -0.306419 -8.83263e-21)
(1.03076 -0.305548 5.18548e-20)
(1.04116 -0.304326 -9.71965e-20)
(1.05163 -0.302727 2.25757e-20)
(1.06213 -0.300741 -2.44398e-20)
(1.07266 -0.298369 5.59455e-20)
(1.0832 -0.2956 -2.78497e-20)
(1.09375 -0.292424 -2.93843e-20)
(1.10428 -0.288835 -3.32702e-20)
(1.11477 -0.284831 1.01792e-19)
(1.1252 -0.280409 -3.22188e-20)
(1.13556 -0.275557 1.13939e-19)
(1.14583 -0.270269 4.08434e-20)
(1.15599 -0.264543 3.47848e-21)
(1.16603 -0.258383 -8.1662e-20)
(1.17592 -0.251782 0)
(1.18565 -0.244743 0)
(1.1952 -0.23726 -4.79653e-20)
(1.20456 -0.229332 -4.64391e-20)
(1.21371 -0.22096 -1.00284e-19)
(1.22261 -0.212155 5.0763e-20)
(1.23125 -0.202917 1.05828e-19)
(1.23962 -0.193247 -1.05602e-19)
(1.24767 -0.183155 2.83411e-20)
(1.25541 -0.172643 2.90205e-20)
(1.26281 -0.161715 0)
(1.26984 -0.150378 -2.85356e-20)
(1.27649 -0.138642 -6.06559e-20)
(1.28273 -0.126516 -1.15162e-21)
(1.28855 -0.11401 6.19745e-20)
(1.29392 -0.101135 -3.28891e-20)
(1.29883 -0.087904 0)
(1.30326 -0.0743302 1.70404e-20)
(1.30718 -0.0604267 -1.73291e-20)
(1.31059 -0.046208 1.65867e-20)
(1.31345 -0.0316892 -3.47374e-20)
(1.31577 -0.0168856 0)
(1.31752 -0.00181253 -4.60475e-21)
(1.31868 0.0135106 4.53448e-21)
(1.31925 0.0290792 -7.10728e-21)
(1.31922 0.0448494 2.76319e-20)
(1.31856 0.0607933 -5.4997e-20)
(1.31727 0.0769133 3.63902e-20)
(1.31534 0.0931979 3.62344e-20)
(1.31276 0.109633 -3.38308e-20)
(1.30953 0.126205 7.33563e-20)
(1.30562 0.142902 -7.06913e-20)
(1.30105 0.15971 -1.73925e-19)
(1.29579 0.176623 2.00733e-21)
(1.28984 0.193627 -6.64997e-20)
(1.2832 0.210722 0)
(1.27586 0.227897 0)
(1.2678 0.245156 -1.30983e-19)
(1.25902 0.262492 1.92004e-19)
(1.2495 0.279915 -1.27759e-19)
(1.23923 0.297423 0)
(1.22818 0.315027 1.26544e-19)
(1.21634 0.33273 2.36835e-19)
(1.20366 0.350549 -1.14535e-19)
(1.19011 0.368482 1.16446e-21)
(1.17566 0.386556 1.13997e-19)
(1.16025 0.404762 -4.01908e-21)
(1.14384 0.423129 -2.17645e-19)
(1.12634 0.441641 2.10403e-19)
(1.10776 0.460354 1.01436e-19)
(1.08768 0.478983 0)
(1.06733 0.498797 0)
(0.99916 -0.326134 7.78876e-21)
(1.00994 -0.325867 4.82619e-20)
(1.02077 -0.325265 -3.83625e-20)
(1.03173 -0.324334 0)
(1.04277 -0.323026 -1.15024e-20)
(1.05387 -0.321319 -5.34816e-20)
(1.065 -0.319197 3.87449e-20)
(1.07617 -0.316663 -7.58874e-20)
(1.08734 -0.313712 6.01922e-20)
(1.0985 -0.310336 0)
(1.10965 -0.306524 1.54794e-20)
(1.12077 -0.302267 0)
(1.13183 -0.297568 4.11931e-20)
(1.14281 -0.292417 -1.16e-19)
(1.1537 -0.286813 0)
(1.16448 -0.280748 0)
(1.17513 -0.274227 0)
(1.18562 -0.267241 -7.05644e-20)
(1.19594 -0.259792 9.42849e-20)
(1.20607 -0.251882 4.80803e-20)
(1.21599 -0.243505 0)
(1.22568 -0.234662 0)
(1.2351 -0.225354 0)
(1.24426 -0.215589 -1.41671e-19)
(1.2531 -0.205369 1.70517e-19)
(1.26162 -0.194701 -8.61372e-20)
(1.2698 -0.183592 -6.00042e-20)
(1.2776 -0.172049 6.1937e-20)
(1.28502 -0.160081 -6.19267e-20)
(1.29203 -0.147697 3.30113e-20)
(1.29861 -0.134909 -6.57867e-20)
(1.30473 -0.121727 3.15516e-20)
(1.31038 -0.108164 6.77948e-20)
(1.31555 -0.0942344 3.55584e-20)
(1.3202 -0.0799525 -1.70051e-20)
(1.32432 -0.0653336 1.72844e-20)
(1.32789 -0.0503935 0)
(1.3309 -0.0351489 -1.11268e-21)
(1.33333 -0.0196167 9.34566e-21)
(1.33516 -0.00381434 5.38537e-23)
(1.33638 0.0122374 -4.78569e-21)
(1.33698 0.0285313 1.20514e-20)
(1.33695 0.0450234 -1.96856e-20)
(1.33627 0.0616839 -9.9582e-21)
(1.33494 0.0785136 1.98015e-20)
(1.33295 0.0954993 0)
(1.33028 0.112626 -7.58492e-20)
(1.32694 0.129878 -1.11576e-19)
(1.32292 0.147243 9.68221e-23)
(1.31821 0.164706 1.09494e-19)
(1.31281 0.182261 0)
(1.30672 0.199894 0)
(1.29992 0.217606 -7.31432e-20)
(1.29242 0.235384 1.41849e-19)
(1.2842 0.253237 1.87519e-21)
(1.27526 0.271157 -6.92022e-20)
(1.26557 0.289157 2.66749e-19)
(1.25514 0.307233 -1.31411e-19)
(1.24393 0.325402 -1.25011e-19)
(1.23192 0.343667 -2.55245e-19)
(1.21907 0.362043 -2.78114e-22)
(1.20536 0.38054 -1.18753e-21)
(1.19073 0.399173 3.01587e-21)
(1.17514 0.417948 2.28877e-19)
(1.15854 0.436887 -1.1903e-19)
(1.14083 0.455978 -1.12601e-19)
(1.12201 0.475282 1.13514e-19)
(1.10179 0.494612 1.11519e-19)
(1.08094 0.514753 0)
(0.998214 -0.346394 -3.79041e-20)
(1.00966 -0.346107 1.78707e-20)
(1.02115 -0.345461 0)
(1.03276 -0.344468 -1.25377e-20)
(1.04446 -0.343077 0)
(1.05623 -0.341258 4.34987e-20)
(1.06804 -0.339003 -2.7717e-20)
(1.07988 -0.336307 6.46124e-20)
(1.09174 -0.333164 -6.54353e-20)
(1.10359 -0.329572 -1.854e-20)
(1.11542 -0.325523 9.52457e-20)
(1.12721 -0.321005 -7.6645e-20)
(1.13894 -0.316018 0)
(1.15059 -0.310554 -8.79758e-20)
(1.16214 -0.304609 1.79067e-19)
(1.17358 -0.298179 -9.10551e-20)
(1.18487 -0.291265 0)
(1.19599 -0.283864 -1.25814e-19)
(1.20693 -0.275971 1.79391e-19)
(1.21767 -0.267589 -1.04422e-19)
(1.22817 -0.258716 0)
(1.23842 -0.249351 0)
(1.24839 -0.239499 0)
(1.25807 -0.229165 2.8775e-20)
(1.26743 -0.218354 6.16751e-20)
(1.27644 -0.207073 -6.15696e-20)
(1.28508 -0.195331 3.09271e-20)
(1.29333 -0.183135 0)
(1.30116 -0.170495 6.72719e-20)
(1.30856 -0.157423 -1.00217e-19)
(1.31549 -0.143928 0)
(1.32195 -0.130026 7.06728e-20)
(1.3279 -0.11573 -3.48359e-20)
(1.33334 -0.101056 -3.54324e-20)
(1.33823 -0.0860196 1.91623e-20)
(1.34255 -0.070638 0)
(1.3463 -0.054929 0)
(1.34946 -0.0389113 1.88255e-20)
(1.352 -0.022604 0)
(1.35392 -0.00602633 -9.96716e-21)
(1.35519 0.0107988 2.44535e-21)
(1.35582 0.027862 1.02126e-20)
(1.35578 0.0451174 -2.67953e-22)
(1.35507 0.0625348 2.03489e-20)
(1.35369 0.0801123 4.16452e-20)
(1.35161 0.0978351 2.07407e-20)
(1.34885 0.115686 -4.2156e-20)
(1.34539 0.133649 -4.06752e-20)
(1.34123 0.15171 -7.80539e-20)
(1.33638 0.169853 7.73477e-20)
(1.33082 0.188072 0)
(1.32455 0.206354 -7.76557e-20)
(1.31758 0.224699 -1.88179e-21)
(1.3099 0.243095 2.228e-21)
(1.3015 0.261554 -1.44295e-19)
(1.29237 0.280066 0)
(1.2825 0.298648 -7.17255e-20)
(1.27187 0.317294 0)
(1.26045 0.336026 0)
(1.24823 0.354847 1.27934e-19)
(1.23517 0.373774 -7.48988e-21)
(1.22124 0.392819 -1.26064e-19)
(1.20638 0.411994 1.27964e-19)
(1.19056 0.431317 -1.22631e-19)
(1.1737 0.450795 1.12309e-19)
(1.15573 0.47044 -1.18385e-19)
(1.13662 0.490291 -2.32204e-19)
(1.11608 0.510172 -2.24397e-19)
(1.09519 0.53104 -2.8196e-21)