/*--------------------------------*- C++ -*----------------------------------*\
| =========                 |                                                 |
| \\      /  F ield         | OpenFOAM: The Open Source CFD Toolbox           |
|  \\    /   O peration     | Version:  2312                                  |
|   \\  /    A nd           | Website:  www.openfoam.com                      |
|    \\/     M anipulation  |                                                 |
\*---------------------------------------------------------------------------*/
FoamFile
{
    version     2.0;
    format      ascii;
    arch        "LSB;label=32;scalar=64";
    class       volScalarField;
    location    "1100";
    object      epsilon;
}
// * * * * * * * * * * * * * * * * * * * * * * * * * * * * * * * * * * * * * //

dimensions      [0 2 -3 0 0 0 0];

internalField   nonuniform List<scalar> 
76025
(
0.000254772
0.000253726
0.000253032
0.000252524
0.00025189
0.000252054
0.000251969
0.000251534
0.000250803
0.000249925
0.000248966
0.000248082
0.000247208
0.000246859
0.000246783
0.000246776
0.000245881
0.000245059
0.000244461
0.000244303
0.000243613
0.000242415
0.000240926
0.000240525
0.000240429
0.000240211
0.000240215
0.000240028
0.000239679
0.00023977
0.000239316
0.00023869
0.00023903
0.000238821
0.00023888
0.000238964
0.000239464
0.000240008
0.000240715
0.000241456
0.000242537
0.000243834
0.00024585
0.000247906
0.000250413
0.000253366
0.000256684
0.000260284
0.000264192
0.000267771
0.000271796
0.000275259
0.000279976
0.000283244
0.00028872
0.000292051
0.000298249
0.000302225
0.000310528
0.000315973
0.000326011
0.000331977
0.000344972
0.000353949
0.000368668
0.000381252
0.000394985
0.000417804
0.000431122
0.000257493
0.000256935
0.000256167
0.000255294
0.000254582
0.00025384
0.000253418
0.000253088
0.000252616
0.000252173
0.000251512
0.000250931
0.000250235
0.00024965
0.000249111
0.000248625
0.000248175
0.000247413
0.000247532
0.000247523
0.000247556
0.000247479
0.000247258
0.000246514
0.00024592
0.000246156
0.000245867
0.000245647
0.000245674
0.000245868
0.000246357
0.000246719
0.000247408
0.000248577
0.000248931
0.000248941
0.000249384
0.000251013
0.000252616
0.000253852
0.000254846
0.000256047
0.000257485
0.000259392
0.000261797
0.000264683
0.000267618
0.000270624
0.000273445
0.000276295
0.000279384
0.000282473
0.000286315
0.000290026
0.000294895
0.000299563
0.000306398
0.000312504
0.000322137
0.00032954
0.000341814
0.000350363
0.000366253
0.000375575
0.00039432
0.000404999
0.000429321
0.000444358
0.000475773
0.000259656
0.000259345
0.000258964
0.000258573
0.000258095
0.000257631
0.00025697
0.000256431
0.00025588
0.000255478
0.000254961
0.000254494
0.000253907
0.000253422
0.000252931
0.000252513
0.000251999
0.000251692
0.000251149
0.000251376
0.000251015
0.000251512
0.000251676
0.000251458
0.000251991
0.000252194
0.000251859
0.000251832
0.000252436
0.000253653
0.000254203
0.000254086
0.00025433
0.000255299
0.000256893
0.000259109
0.000260161
0.000260122
0.000260956
0.000262077
0.000263704
0.000265399
0.000267244
0.000269494
0.000271893
0.000274776
0.000277589
0.00028079
0.000283692
0.00028694
0.000290638
0.000294418
0.000299381
0.00030383
0.000310104
0.000315436
0.000323825
0.000330388
0.000341292
0.000348971
0.000362518
0.000371928
0.00038829
0.000398274
0.000417094
0.000429493
0.000454905
0.000476275
0.000517116
0.000263815
0.000263464
0.000263002
0.000262584
0.000262192
0.000261809
0.000261491
0.000261111
0.000260721
0.00026022
0.000260175
0.000260175
0.000260112
0.000259907
0.000259748
0.000259624
0.000259507
0.000259422
0.000259012
0.00025906
0.000259097
0.000259067
0.000258981
0.000259542
0.000259772
0.000259837
0.00026078
0.000261158
0.000260938
0.000261152
0.000262222
0.000264047
0.000264812
0.000264566
0.000264708
0.000265475
0.000266316
0.000267802
0.000269512
0.000271322
0.000274199
0.000276911
0.000279593
0.000282021
0.000283937
0.000286232
0.000288481
0.000291393
0.000294548
0.000298522
0.000303473
0.000308485
0.000314713
0.00031971
0.000326781
0.000332219
0.000341363
0.000347905
0.000359536
0.000367904
0.000383203
0.000393554
0.000411632
0.000422477
0.000445159
0.000460764
0.00049233
0.000523225
0.000564794
0.000268476
0.000268725
0.000268677
0.000268634
0.000268266
0.000267881
0.000267052
0.000267119
0.000267107
0.000267019
0.000266536
0.000266119
0.000266469
0.000266591
0.000266701
0.000266747
0.000266918
0.000266999
0.000267138
0.000267216
0.0002669
0.000266734
0.000267901
0.000268421
0.000269037
0.000268725
0.000269394
0.000269257
0.0002695
0.000270036
0.000270986
0.000272289
0.000274807
0.000275811
0.000276726
0.000277333
0.000278422
0.00027998
0.000281709
0.000283613
0.00028551
0.000287671
0.000289717
0.000292445
0.000295419
0.000299135
0.00030256
0.000306187
0.000310625
0.00031525
0.000321463
0.000326903
0.000333807
0.000338822
0.000346545
0.000352566
0.000362712
0.000370232
0.000383609
0.000393751
0.000410889
0.000422501
0.000441639
0.000455095
0.000480895
0.000500431
0.000541197
0.00057232
0.000632432
0.000275619
0.000275265
0.000275454
0.000275449
0.00027548
0.000275599
0.00027558
0.000275638
0.000275592
0.000275969
0.000275627
0.000275743
0.000275704
0.000275809
0.000275854
0.000276386
0.000276585
0.000276859
0.00027707
0.000277602
0.000277938
0.000278239
0.000277814
0.000277708
0.000278219
0.000278589
0.000279644
0.000280224
0.000281428
0.000282448
0.000284175
0.000285315
0.000287619
0.000289896
0.000291292
0.000294965
0.000296568
0.000295936
0.000296406
0.000298182
0.000300586
0.000303371
0.000307092
0.000311654
0.000319311
0.000324644
0.000327676
0.000330646
0.000334774
0.000339654
0.000344695
0.000348536
0.000354454
0.000359593
0.000368815
0.000376201
0.000388699
0.000398384
0.000414523
0.00042646
0.000444133
0.000457382
0.000476683
0.000495736
0.000522651
0.000552904
0.000596555
0.000642717
0.000707526
0.00028461
0.000284636
0.000284613
0.000284624
0.000284639
0.000284332
0.000284307
0.000284503
0.000284677
0.000285139
0.000285426
0.000286473
0.000286859
0.000286867
0.000287693
0.000288203
0.000288569
0.000288053
0.000287845
0.000287968
0.000288373
0.000289668
0.000290286
0.000292138
0.00029285
0.00029256
0.000292732
0.000294043
0.000295398
0.000297092
0.000299814
0.000303229
0.000302967
0.000305556
0.000305053
0.000305366
0.00030712
0.000308489
0.000311255
0.000314004
0.000317721
0.000321765
0.00032639
0.00033164
0.000337817
0.000342327
0.000352196
0.000358794
0.000367111
0.000378972
0.000383758
0.000382001
0.000385353
0.000390785
0.00040082
0.0004094
0.000423687
0.000434609
0.000452396
0.000464861
0.000483689
0.000500395
0.000520681
0.000548841
0.000576799
0.000620777
0.000670649
0.000726769
0.00081676
0.000295644
0.000295706
0.000295419
0.000296115
0.000295694
0.000295366
0.000295298
0.000295479
0.000296092
0.000297286
0.00029758
0.000297514
0.000297516
0.000297749
0.000298268
0.000299131
0.000299939
0.00030065
0.000301498
0.00030319
0.000304401
0.000304973
0.000305176
0.000305965
0.000307534
0.000308655
0.000309394
0.00031004
0.000310797
0.000311822
0.000313253
0.000315043
0.00031608
0.000318086
0.000319769
0.000322093
0.000324766
0.000327737
0.000331358
0.000335368
0.000340061
0.000345461
0.000349897
0.000356341
0.000365297
0.000371708
0.000379739
0.000384805
0.000390931
0.000395834
0.000401558
0.000407862
0.000415567
0.00042466
0.000436879
0.000447971
0.000464533
0.000476645
0.000496992
0.000510729
0.000533085
0.000552668
0.000576761
0.000614556
0.000643442
0.000711231
0.000754801
0.00085137
0.000945324
0.000309446
0.000308953
0.000308625
0.000308615
0.000308723
0.000309216
0.000309573
0.000310608
0.000310482
0.000310694
0.000310754
0.00031096
0.000311348
0.000311819
0.00031226
0.000313126
0.000314494
0.000315696
0.000317385
0.000319652
0.000320974
0.000322885
0.000325634
0.000326723
0.000326533
0.000327135
0.000329454
0.000330996
0.000333853
0.000335769
0.000338551
0.000343185
0.000345374
0.000344576
0.000345668
0.000346675
0.000350216
0.000352806
0.000357763
0.000361944
0.000367642
0.000374152
0.000379763
0.000388981
0.000395808
0.000405114
0.000416372
0.000422955
0.000437851
0.000444575
0.000449562
0.000453921
0.000462258
0.000471887
0.000485631
0.000497624
0.000514018
0.000524971
0.000546213
0.000559005
0.000587234
0.000607899
0.000646138
0.000688842
0.000736627
0.000817913
0.000877922
0.00101093
0.00111585
0.000327676
0.000327929
0.000327324
0.000328416
0.000328637
0.000328796
0.000328735
0.000330142
0.000330319
0.000330592
0.000330689
0.000329992
0.000329505
0.000330036
0.000332269
0.000333454
0.000334289
0.000335204
0.000336935
0.000338737
0.000340791
0.000343075
0.000347482
0.000349468
0.00035342
0.000354878
0.000354189
0.000354722
0.000356596
0.000360213
0.000362672
0.000367468
0.000371658
0.000374384
0.000382067
0.000385408
0.000383731
0.000384322
0.000386576
0.000391262
0.000395193
0.000402633
0.000408608
0.000417002
0.000425333
0.000436706
0.000446111
0.000456618
0.000465548
0.000475341
0.000487085
0.000499886
0.00051392
0.000527081
0.000543262
0.000554586
0.000570118
0.00057992
0.000601396
0.000616638
0.000655008
0.000682498
0.000742319
0.000790925
0.000868617
0.000959921
0.00104999
0.00122602
0.00133323
0.000343507
0.000344543
0.000345357
0.000346599
0.000347289
0.000348749
0.000349625
0.000351427
0.000352484
0.000354211
0.000355262
0.000356993
0.000357586
0.000360103
0.000360957
0.000362027
0.000360265
0.000361698
0.000360972
0.000361442
0.000362842
0.000365246
0.000367474
0.00037063
0.000372717
0.000375947
0.000377997
0.000381843
0.000385276
0.000389365
0.000395177
0.000398885
0.000405338
0.000411314
0.000415337
0.000425205
0.000424653
0.000425859
0.000426224
0.0004309
0.000434831
0.000442352
0.000448446
0.000458283
0.000466485
0.000478571
0.000489164
0.00050288
0.000516432
0.000532017
0.000548405
0.000566255
0.000581584
0.000596986
0.000613689
0.000625927
0.000642382
0.000655558
0.000685288
0.000709107
0.000762256
0.0008012
0.000879843
0.000937636
0.00105164
0.00114717
0.00130494
0.00148321
0.00167646
0.000368816
0.000369542
0.000370179
0.000371189
0.000374161
0.000375201
0.0003753
0.000376147
0.000376562
0.000378034
0.000379405
0.000381617
0.000383425
0.000385857
0.000388154
0.00039058
0.00039292
0.000395128
0.000396433
0.000401929
0.000404164
0.000406765
0.000408751
0.000407605
0.000408098
0.000410551
0.000413737
0.000417419
0.000421611
0.000426184
0.000430472
0.000435752
0.000440914
0.000446449
0.00045376
0.000459934
0.000469376
0.000478509
0.000486895
0.000496137
0.000500675
0.000505151
0.000507735
0.000514116
0.000523937
0.000533917
0.00054924
0.000561657
0.000579115
0.00059505
0.000612106
0.000628623
0.000645881
0.000655495
0.000671188
0.000684785
0.00071408
0.000741872
0.000788933
0.000831105
0.000898455
0.000958119
0.00105577
0.00114244
0.00128922
0.00141692
0.00164129
0.00183111
0.00216231
0.000402754
0.000405473
0.000407958
0.000409507
0.000412315
0.000416247
0.000417565
0.000416816
0.00041699
0.000417775
0.000421184
0.000422862
0.000424836
0.000426231
0.00042499
0.000425065
0.000426718
0.000429535
0.000432833
0.000437558
0.000441188
0.000446881
0.000450408
0.000457268
0.000462451
0.000465402
0.000474221
0.000477748
0.00047644
0.000476615
0.000478792
0.000484885
0.000491278
0.000498864
0.000508468
0.000515776
0.000526483
0.000537976
0.000550063
0.000559063
0.000566127
0.000575199
0.00058145
0.000593693
0.000605745
0.000620552
0.000643897
0.000658701
0.00068443
0.000708425
0.000725849
0.000768429
0.000785363
0.000782675
0.000787065
0.000806306
0.00084419
0.000885138
0.000945113
0.00100576
0.00109226
0.00117988
0.00130515
0.00143315
0.00161621
0.00180398
0.00207259
0.00233722
0.00274152
0.000439958
0.000442236
0.000444525
0.000446665
0.000448554
0.000450999
0.00045254
0.000455399
0.00045924
0.000463049
0.000466666
0.000468588
0.000472047
0.000474697
0.000478293
0.000479762
0.000487397
0.00049092
0.000494529
0.000497529
0.00049518
0.000496632
0.000499004
0.000504757
0.000509274
0.000515997
0.000521972
0.000528987
0.000537637
0.00054501
0.000551851
0.000564768
0.000575742
0.000580702
0.000583689
0.000586837
0.000593278
0.000601391
0.000610852
0.000622645
0.000633148
0.000648071
0.000661121
0.000678063
0.000694949
0.000713507
0.000733327
0.000749513
0.00076729
0.000788991
0.000828947
0.000857068
0.000883677
0.00089407
0.000926585
0.000965996
0.00102266
0.00108368
0.00116627
0.00125348
0.00137036
0.0014947
0.00165983
0.00183806
0.00207031
0.00232594
0.00264616
0.00300787
0.00344628
0.000493892
0.000495933
0.000498353
0.000501218
0.000504892
0.000510149
0.000517154
0.000519751
0.000518654
0.000519264
0.000521793
0.000525534
0.000529151
0.000534068
0.000538166
0.000542876
0.00054778
0.000552396
0.000558679
0.000563795
0.000571395
0.000576393
0.000589151
0.00059476
0.000601488
0.000607006
0.000605978
0.000604918
0.000608219
0.000615138
0.000622136
0.000632565
0.000641177
0.000652243
0.000661356
0.000673757
0.000686772
0.000699878
0.000718216
0.000733087
0.000750573
0.000772243
0.000786248
0.000814792
0.000831631
0.000869833
0.000886595
0.000878507
0.000886983
0.000906426
0.000934915
0.000969257
0.00101367
0.00106452
0.00112729
0.00119564
0.00128037
0.00137189
0.00148732
0.00161152
0.00177013
0.00194031
0.00215853
0.00239221
0.00269011
0.00301028
0.00340537
0.00384961
0.00432633
0.000565236
0.000568247
0.000571428
0.000575508
0.00058036
0.000585182
0.000590211
0.000595644
0.000602474
0.000611604
0.000615257
0.000614579
0.000614587
0.000617939
0.000623775
0.000628444
0.000637282
0.000645273
0.00065375
0.00065816
0.000664637
0.000667945
0.000674933
0.000679233
0.000687701
0.000694215
0.000704795
0.000712566
0.000726068
0.000735406
0.000752018
0.000762076
0.000782013
0.000794384
0.00081682
0.000835362
0.000845975
0.000875343
0.000867235
0.000888414
0.000882851
0.000888822
0.000902399
0.000921038
0.000943782
0.000969667
0.000999648
0.00103373
0.0010734
0.00111792
0.00116961
0.00122735
0.00129471
0.00136969
0.00145795
0.00155602
0.00167281
0.00180201
0.00195756
0.00212857
0.00233633
0.00256307
0.00284043
0.00313949
0.0035094
0.00389513
0.00438979
0.00486262
0.00552417
0.000664706
0.000668441
0.00067269
0.000677502
0.000683207
0.000689607
0.00069598
0.000702609
0.000708785
0.000719685
0.000727395
0.000731906
0.000735241
0.000739397
0.000743711
0.000752568
0.00076054
0.000773337
0.000782848
0.000796999
0.000805978
0.000821463
0.000830676
0.000847662
0.000861731
0.000869274
0.000891852
0.00088534
0.000892848
0.000889603
0.000895952
0.000904898
0.000919012
0.000932225
0.000947163
0.000962081
0.000977706
0.000995555
0.00101431
0.00103574
0.00105966
0.00108669
0.00111736
0.00115173
0.00119041
0.00123351
0.00128194
0.00133569
0.00139627
0.00146359
0.00153984
0.00162464
0.00172127
0.0018287
0.00195206
0.00208896
0.00224756
0.00242278
0.00262782
0.00285294
0.0031187
0.00340871
0.0037522
0.00412557
0.00456487
0.00504155
0.00559413
0.00618819
0.00688134
0.000807534
0.000812412
0.000817749
0.000823339
0.000829943
0.000836709
0.000843859
0.000853071
0.00086319
0.000870724
0.00088824
0.000901807
0.000910308
0.00092997
0.000937526
0.000933766
0.000933863
0.000940705
0.000949477
0.000962797
0.000974553
0.000989018
0.00100186
0.00101872
0.00103353
0.00105318
0.00106811
0.00109085
0.00110695
0.0011334
0.00115975
0.00118324
0.00123561
0.00125853
0.00124892
0.00125245
0.00126739
0.00129051
0.00131976
0.00135415
0.00139334
0.00143718
0.00148595
0.00153982
0.00159942
0.00166506
0.00173773
0.0018177
0.00190625
0.00200365
0.00211201
0.00223136
0.00236487
0.00251201
0.00267781
0.00286038
0.00306802
0.00329578
0.00355782
0.00384302
0.00417518
0.00453252
0.00495293
0.00539876
0.00592522
0.00647698
0.00712199
0.00780496
0.00856087
0.00102406
0.00103121
0.00103845
0.00104663
0.00105513
0.00106493
0.00107436
0.00108632
0.00109824
0.00111185
0.00112652
0.00114295
0.0011585
0.00117416
0.00119184
0.001208
0.00122497
0.00124674
0.0012628
0.0012872
0.00132934
0.0013485
0.00134238
0.00134638
0.00135695
0.00137474
0.00139499
0.00142019
0.00144628
0.00147651
0.00150735
0.00154008
0.0015752
0.00161051
0.00164646
0.00168537
0.00172838
0.00177598
0.00182843
0.00188585
0.00194848
0.00201659
0.00209062
0.00217096
0.00225825
0.002353
0.00245617
0.00256831
0.00269097
0.00282427
0.00297037
0.00312968
0.00330548
0.00349769
0.00371153
0.0039455
0.00420833
0.00449497
0.00482064
0.0051726
0.00557772
0.0060088
0.00651218
0.00703457
0.00765714
0.00828019
0.00904795
0.00978657
0.0107172
0.00136983
0.00138155
0.00139349
0.00140647
0.00142014
0.00143531
0.00145086
0.00146853
0.00148672
0.00150705
0.00152807
0.00155101
0.0015746
0.00159839
0.00162468
0.00164986
0.00167712
0.0017059
0.00173333
0.00176316
0.00179372
0.00182168
0.00184836
0.00187715
0.00190875
0.00194357
0.00198149
0.00202228
0.00206606
0.00211228
0.00216197
0.00221415
0.00226974
0.00232886
0.00239124
0.00245734
0.00252759
0.00260242
0.00268218
0.00276719
0.00285781
0.00295448
0.00305773
0.00316809
0.00328631
0.00341308
0.00354947
0.00369634
0.00385531
0.00402734
0.00421476
0.00441785
0.00464019
0.00488216
0.00514939
0.00544043
0.00576487
0.00611646
0.00651269
0.00693681
0.00742171
0.00793076
0.00852322
0.00912618
0.00985366
0.0105573
0.011477
0.0122866
0.0135187
0.00203073
0.00205517
0.00208012
0.00210611
0.00213289
0.00216089
0.00218991
0.00222044
0.00225224
0.00228578
0.00232061
0.0023571
0.00239503
0.00243411
0.00247443
0.00251565
0.00255774
0.00260063
0.00264522
0.00269022
0.00273793
0.00278916
0.00284222
0.0028967
0.00295316
0.00301191
0.00307321
0.00313715
0.00320392
0.00327357
0.00334635
0.00342234
0.00350171
0.00358463
0.00367129
0.00376197
0.003857
0.0039568
0.00406176
0.0041723
0.00428891
0.00441217
0.00454277
0.00468144
0.00482913
0.00498678
0.00515571
0.00533712
0.00553288
0.00574447
0.00597439
0.00622445
0.00649718
0.00679337
0.00711892
0.00747224
0.00786377
0.00828513
0.00875713
0.00925614
0.00982654
0.0104144
0.0111058
0.0117924
0.0126553
0.0134654
0.0146251
0.0155944
0.0174713
0.00336359
0.00340973
0.00345695
0.00350561
0.00355564
0.00360689
0.00365951
0.00371332
0.00376855
0.00382495
0.00388277
0.00394174
0.00400208
0.00406363
0.00412603
0.00418997
0.00425464
0.00432069
0.0043882
0.004457
0.00452719
0.00459888
0.004672
0.00474657
0.00482272
0.00490062
0.00498049
0.00506251
0.00514691
0.00523388
0.00532366
0.00541644
0.00551246
0.00561197
0.00571528
0.00582273
0.00593477
0.00605194
0.00617471
0.00630374
0.00643969
0.00658328
0.00673548
0.00689727
0.00706995
0.00725462
0.00745302
0.00766657
0.00789756
0.00814776
0.00841992
0.00871663
0.00904165
0.00939478
0.0097811
0.0101998
0.0106604
0.0111535
0.0117014
0.0122758
0.0129352
0.0136083
0.014423
0.0152275
0.0163241
0.0173661
0.0190281
0.0206801
0.0240821
0.00595165
0.0060278
0.00610375
0.00617998
0.00625639
0.0063329
0.00640959
0.00648648
0.00656361
0.00664094
0.00671852
0.00679631
0.00687436
0.00695272
0.00703138
0.00711043
0.00718988
0.00726979
0.0073502
0.00743119
0.00751265
0.00759457
0.00767691
0.00775981
0.0078434
0.00792802
0.00801394
0.00810145
0.00819085
0.00828247
0.00837664
0.00847372
0.00857407
0.00867811
0.00878626
0.00889903
0.00901702
0.00914098
0.00927136
0.00940937
0.00955524
0.00970983
0.00987476
0.0100513
0.0102415
0.0104459
0.0106672
0.0109068
0.0111676
0.0114513
0.0117614
0.0121023
0.0124761
0.0128852
0.0133296
0.0138126
0.0143358
0.0148995
0.0155171
0.0161827
0.0169479
0.0177764
0.0188135
0.0199445
0.0215945
0.0234494
0.0266799
0.0313913
0.0410105
0.0104704
0.0105617
0.0106514
0.0107405
0.0108285
0.0109155
0.0110014
0.0110861
0.0111696
0.0112519
0.0113329
0.0114129
0.011492
0.0115704
0.0116484
0.0117257
0.0118027
0.011879
0.0119549
0.012031
0.0121057
0.012179
0.0122506
0.0123218
0.0123929
0.0124653
0.0125388
0.0126134
0.0126895
0.0127674
0.0128478
0.0129316
0.0130191
0.0131106
0.0132067
0.0133088
0.0134172
0.0135324
0.0136549
0.0137879
0.0139281
0.014078
0.014242
0.0144214
0.0146188
0.0148323
0.0150665
0.0153236
0.0156064
0.0159169
0.0162604
0.0166415
0.0170593
0.0175194
0.0180137
0.018559
0.0191392
0.019803
0.0205308
0.0214155
0.0224382
0.0237687
0.0254445
0.0277981
0.0312644
0.0368912
0.0464325
0.0651231
0.0964825
0.0174017
0.0174871
0.0175673
0.0176456
0.0177212
0.0177975
0.0178704
0.0179392
0.018002
0.0180612
0.0181179
0.0181746
0.0182321
0.018289
0.018347
0.0184044
0.0184602
0.018512
0.0185656
0.0186167
0.0186624
0.0187014
0.0187358
0.0187746
0.018816
0.0188605
0.0189117
0.0189615
0.0190135
0.0190624
0.0191151
0.0191802
0.019249
0.0193168
0.0193897
0.0194821
0.0195807
0.0196784
0.0197859
0.0199184
0.0200538
0.0201917
0.0203518
0.0205306
0.0207264
0.0209372
0.021171
0.0214343
0.0217301
0.0220634
0.022437
0.0228561
0.0233193
0.0238368
0.0244008
0.0250653
0.0257984
0.0267968
0.0279486
0.0296267
0.0316607
0.0348603
0.0392621
0.046527
0.0587161
0.0813862
0.114492
0.19015
0.290951
0.0276729
0.0277949
0.0277908
0.0278499
0.0278932
0.0280369
0.0280941
0.0281253
0.0280711
0.0280453
0.0280363
0.0280572
0.0280973
0.0281276
0.028207
0.0282766
0.028331
0.0283547
0.0284939
0.0285377
0.0285459
0.0284172
0.0283051
0.0283162
0.0283369
0.0283576
0.0285058
0.0285527
0.0285805
0.0284681
0.02844
0.0286112
0.0286654
0.0285834
0.0285657
0.0287972
0.0288701
0.0287558
0.0287571
0.0290618
0.0291971
0.0293066
0.0293072
0.0293707
0.0294792
0.0296314
0.0298402
0.0301166
0.0304611
0.0308789
0.0313602
0.031925
0.0325665
0.0333274
0.0342141
0.0353786
0.0369491
0.0394228
0.0427013
0.0477412
0.0547801
0.06606
0.0835648
0.108825
0.167196
0.242172
0.341232
0.437726
0.456259
0.0414281
0.0415841
0.0415479
0.0415961
0.0416298
0.0417828
0.0417788
0.0417292
0.0418603
0.0418968
0.0419063
0.0417838
0.041731
0.0418345
0.0417533
0.0417765
0.0417626
0.0419134
0.0419722
0.0420016
0.041986
0.0417724
0.0416297
0.0415754
0.0416002
0.0417687
0.0417
0.0417045
0.0418875
0.0417589
0.0419415
0.041832
0.0418992
0.0420039
0.0420323
0.0423893
0.0423288
0.042208
0.0421733
0.0423932
0.042512
0.0429506
0.0434013
0.0438385
0.0442634
0.0446949
0.0451685
0.0457029
0.0463101
0.0470224
0.0478451
0.0488574
0.0501079
0.0518271
0.0538329
0.0588268
0.0660074
0.0768944
0.0914898
0.111335
0.139677
0.179656
0.238549
0.3205
0.397774
0.464683
0.448691
0.361844
0.234454
0.0742031
0.0740176
0.0742446
0.0741056
0.0743932
0.0744958
0.0743232
0.0742817
0.0745861
0.0746674
0.0746962
0.07442
0.074308
0.0744839
0.07421
0.0743625
0.0740705
0.0742532
0.0739231
0.0740341
0.0736899
0.0737737
0.0734343
0.0735209
0.0731515
0.0732322
0.0731954
0.0731211
0.0730115
0.0728565
0.0726707
0.0724494
0.0722072
0.0720227
0.0719528
0.0719747
0.0714112
0.0720291
0.0714145
0.072617
0.0722685
0.0737769
0.0737201
0.0742453
0.0751071
0.0761764
0.0775267
0.0792072
0.0813422
0.0841268
0.0877134
0.0924833
0.0983705
0.106567
0.11685
0.130651
0.14604
0.165439
0.193176
0.229172
0.277502
0.335915
0.405149
0.409838
0.342436
0.225929
0.166125
0.124758
0.0970122
0.238338
0.240893
0.241334
0.242434
0.243172
0.244903
0.245358
0.24569
0.24804
0.247648
0.247743
0.247701
0.250059
0.250282
0.251165
0.251315
0.25358
0.254219
0.254319
0.253028
0.254827
0.254191
0.255983
0.256265
0.256622
0.255342
0.253682
0.252046
0.250415
0.248759
0.247062
0.245308
0.243497
0.24162
0.239695
0.237705
0.235666
0.233541
0.231353
0.229061
0.226674
0.224158
0.221504
0.21867
0.215641
0.212348
0.208761
0.2048
0.200379
0.195427
0.189813
0.183395
0.175905
0.167193
0.156845
0.144368
0.129339
0.11056
0.0857752
0.0592847
0.0559569
0.0759509
0.0959114
0.106489
0.108115
0.100688
0.092285
0.0865694
0.0857435
0.000251242
0.000251741
0.000252207
0.000252522
0.000252716
0.000253342
0.000253715
0.000254229
0.000254699
0.000255639
0.000256153
0.000256701
0.00025808
0.000259493
0.000260286
0.000260716
0.000261601
0.000262242
0.000262673
0.000263071
0.000263632
0.000263746
0.000264218
0.000264715
0.000265432
0.000266313
0.000267379
0.000267962
0.00026814
0.000268233
0.000269014
0.000270035
0.000271493
0.000270933
0.000270263
0.000269997
0.000270012
0.000269747
0.000269131
0.000268777
0.000268001
0.000267781
0.00026752
0.000266256
0.000265342
0.000264139
0.000263593
0.00026252
0.000261363
0.000260223
0.000259658
0.000259272
0.000258564
0.000258411
0.000257988
0.000257752
0.000257245
0.000256599
0.000255562
0.000252701
0.00025309
0.000253373
0.000253682
0.000253995
0.000254453
0.000254752
0.000255213
0.000255772
0.000256494
0.000257051
0.000258229
0.000259572
0.000260297
0.000260712
0.00026107
0.000262082
0.000262592
0.000262953
0.000263385
0.000263879
0.000264072
0.0002646
0.000265167
0.000265852
0.000266704
0.000267805
0.000268399
0.000268603
0.000268689
0.000269493
0.000270474
0.000271941
0.000271771
0.000271154
0.000270904
0.000270899
0.000270752
0.000270194
0.000269785
0.000269042
0.000268748
0.000268528
0.000267968
0.000267088
0.000265953
0.000265195
0.000264309
0.000263532
0.000262526
0.000261406
0.000260774
0.000260001
0.000259614
0.000259229
0.000258939
0.000258615
0.000258323
0.000257928
0.000255054
0.000255283
0.000255442
0.000255724
0.000256019
0.000256368
0.00025673
0.000257172
0.000257726
0.000258399
0.000259205
0.000260215
0.000260901
0.00026128
0.000261546
0.000262113
0.000262968
0.0002634
0.000263676
0.00026418
0.000264713
0.000264937
0.00026548
0.000266176
0.000266834
0.000267721
0.000268806
0.000269462
0.000269664
0.000269809
0.000270618
0.00027154
0.000273075
0.000272986
0.000272553
0.000272224
0.00027228
0.000272228
0.000271886
0.000271573
0.000270974
0.000270341
0.000270331
0.000270066
0.000269499
0.000268551
0.000267783
0.000266943
0.000266213
0.000265527
0.00026458
0.000263735
0.000262843
0.000262061
0.000261489
0.000260982
0.000260609
0.000260253
0.000259969
0.000257164
0.000257664
0.000258085
0.000258449
0.000258744
0.000259106
0.000259453
0.000259855
0.00026039
0.000260996
0.00026158
0.000262124
0.000262441
0.000262669
0.000263127
0.000264007
0.000264611
0.000264896
0.000265113
0.000265725
0.000266224
0.000266605
0.000267232
0.000267964
0.000268574
0.000269485
0.000270562
0.000271273
0.000271499
0.000271697
0.000272511
0.000273415
0.000274869
0.000275149
0.000274797
0.000274512
0.000274552
0.000274605
0.000274394
0.000274049
0.000273547
0.000272752
0.00027282
0.000272793
0.000272529
0.000271865
0.000271252
0.000270491
0.000269718
0.000269123
0.000268455
0.000267798
0.000267077
0.000266332
0.000265582
0.000264971
0.000264206
0.000263913
0.000263862
0.000260583
0.000260997
0.000261376
0.000261643
0.000261942
0.000262263
0.000262553
0.000262923
0.000263329
0.000263752
0.000264176
0.00026453
0.000264817
0.000265257
0.000265896
0.000266453
0.000266752
0.000266976
0.0002674
0.000268172
0.000268685
0.000269099
0.000269739
0.000270481
0.000271048
0.000272003
0.000273067
0.000273829
0.000274097
0.000274344
0.00027518
0.000276041
0.000277577
0.000277908
0.000277803
0.000277521
0.000277495
0.000277798
0.000277717
0.000277629
0.000277357
0.000276536
0.000276311
0.000276337
0.000276182
0.000275658
0.000275044
0.000274775
0.000274245
0.000273569
0.000273026
0.000272494
0.000271957
0.000271455
0.000270854
0.0002702
0.000269541
0.000268745
0.000268706
0.000264884
0.000265257
0.00026554
0.000265773
0.000266063
0.000266375
0.000266666
0.000267004
0.000267303
0.000267574
0.000267777
0.000268013
0.000268335
0.000268773
0.000269184
0.000269496
0.000269744
0.000270097
0.000270821
0.000271568
0.000272077
0.00027254
0.000273209
0.000273927
0.000274488
0.000275506
0.000276571
0.000277385
0.00027771
0.000278013
0.000278889
0.000279754
0.000281199
0.000282031
0.000281874
0.000281661
0.000281637
0.000281979
0.000282312
0.00028216
0.000282088
0.000281653
0.000281273
0.000281077
0.000281428
0.000281201
0.000280528
0.000280164
0.000280117
0.000279771
0.000279132
0.000278521
0.00027804
0.000277257
0.000277298
0.000277237
0.00027683
0.000275882
0.000275724
0.000269832
0.000269861
0.000270211
0.000270287
0.000270599
0.000270698
0.000271154
0.000271226
0.000271401
0.000271743
0.000272001
0.000272262
0.00027268
0.000272987
0.000273324
0.000273599
0.000273971
0.00027462
0.000275448
0.000276098
0.000276608
0.000277111
0.000277785
0.000278433
0.000279009
0.000280096
0.000281168
0.000282032
0.000282421
0.00028279
0.000283722
0.000284593
0.0002861
0.000286837
0.000287366
0.000287015
0.000286981
0.000287443
0.000287795
0.000288456
0.000288281
0.000288008
0.000287378
0.000287154
0.000287068
0.000287597
0.000287603
0.00028708
0.000286522
0.000286673
0.000286584
0.000286153
0.000286023
0.000285821
0.000285104
0.000285088
0.000285122
0.000284917
0.000284675
0.000275599
0.000275672
0.000275919
0.000275957
0.000276397
0.000276459
0.000276485
0.000276884
0.000277064
0.000277432
0.000277599
0.000277934
0.000278253
0.00027856
0.000278894
0.000279305
0.000279907
0.000280677
0.000281407
0.000282
0.000282547
0.000283103
0.000283731
0.000284336
0.000284977
0.000286146
0.000287255
0.000288175
0.000288643
0.000289098
0.000290105
0.000291019
0.000292495
0.000293634
0.000293824
0.000294258
0.000294025
0.000294305
0.00029485
0.000295393
0.000296479
0.000296361
0.000295865
0.000295913
0.000295745
0.000295975
0.000296086
0.000296769
0.00029678
0.000296805
0.000297016
0.0002971
0.000297118
0.000296521
0.000296353
0.000296053
0.000295479
0.000295736
0.000295476
0.000282492
0.000282614
0.000282848
0.000283252
0.000283301
0.000283484
0.000283851
0.000283887
0.000284176
0.000284556
0.000284945
0.000285344
0.000285692
0.000286046
0.00028645
0.000286986
0.000287695
0.000288387
0.000288996
0.000289586
0.00029012
0.000290682
0.000291266
0.000291877
0.000292597
0.000293868
0.000295005
0.000295987
0.000296544
0.000297096
0.000298196
0.000299184
0.000300677
0.000301874
0.000302948
0.000302788
0.000303356
0.000303384
0.000303979
0.00030452
0.000305377
0.000306685
0.00030676
0.00030647
0.000307021
0.000306935
0.000306929
0.000306502
0.000307223
0.000306882
0.000306936
0.000307056
0.000307406
0.00030837
0.000308627
0.000309389
0.000309401
0.000309021
0.00030942
0.000292483
0.000292689
0.000292891
0.000292867
0.000292944
0.000293046
0.000293175
0.000293265
0.000293775
0.000293856
0.000294441
0.000294811
0.000295286
0.000295724
0.000296116
0.00029678
0.000297333
0.000298062
0.000298581
0.000299182
0.000299738
0.000300314
0.000300917
0.0003016
0.000302459
0.000303854
0.000305047
0.000306117
0.000306789
0.00030747
0.000308695
0.000309796
0.000311318
0.000312724
0.000313677
0.00031485