/*--------------------------------*- C++ -*----------------------------------*\
| =========                 |                                                 |
| \\      /  F ield         | OpenFOAM: The Open Source CFD Toolbox           |
|  \\    /   O peration     | Version:  2312                                  |
|   \\  /    A nd           | Website:  www.openfoam.com                      |
|    \\/     M anipulation  |                                                 |
\*---------------------------------------------------------------------------*/
FoamFile
{
    version     2.0;
    format      ascii;
    arch        "LSB;label=32;scalar=64";
    class       volScalarField;
    location    "1100";
    object      k;
}
// * * * * * * * * * * * * * * * * * * * * * * * * * * * * * * * * * * * * * //

dimensions      [0 2 -2 0 0 0 0];

internalField   nonuniform List<scalar> 
76025
(
0.00194863
0.00194497
0.00194247
0.0019389
0.00193873
0.00193814
0.00193588
0.00193484
0.00193312
0.00193074
0.00192836
0.00192632
0.00192443
0.00192288
0.00192277
0.00192167
0.00192146
0.00191988
0.00191896
0.00191799
0.00191703
0.00191695
0.00191581
0.00191542
0.00191566
0.00191557
0.00191647
0.00191626
0.00191385
0.0019169
0.00191363
0.00191697
0.00191925
0.00192123
0.00192374
0.00192618
0.00192339
0.00192461
0.00192837
0.00193343
0.00193969
0.00194828
0.00196177
0.00197564
0.00198968
0.00200435
0.00202127
0.00203982
0.00206104
0.00208257
0.00210776
0.0021312
0.00215967
0.00218161
0.00221449
0.00223633
0.00227221
0.0022974
0.00234203
0.00237175
0.00242507
0.00246815
0.0025424
0.00258943
0.00266017
0.00272051
0.00279787
0.00291959
0.00300246
0.00196121
0.00195992
0.0019559
0.00195437
0.00195417
0.00195441
0.00195292
0.0019502
0.00195012
0.00194971
0.0019466
0.00194616
0.00194578
0.00194512
0.00194506
0.00194502
0.00194487
0.00194372
0.00194263
0.00194443
0.0019445
0.00194243
0.00194472
0.00194508
0.00194322
0.00194671
0.00194783
0.00194521
0.00194404
0.00194621
0.00194923
0.00195367
0.00195942
0.00196405
0.00197037
0.00197978
0.00199281
0.00199575
0.00199731
0.00200206
0.00201062
0.00202384
0.00204137
0.0020643
0.00207278
0.00207471
0.00208301
0.00209535
0.00211089
0.00212986
0.00215256
0.00217595
0.00220099
0.00222477
0.00225145
0.00227947
0.00231396
0.00235107
0.00239881
0.00244387
0.00251334
0.0025717
0.00265575
0.00270832
0.00279713
0.00285418
0.00297145
0.00306545
0.00321787
0.00198081
0.0019783
0.00197619
0.00197271
0.00197306
0.00197315
0.00197371
0.00197201
0.00197285
0.00197357
0.00197363
0.00197226
0.00197429
0.00197388
0.00197357
0.00197377
0.00197372
0.00197625
0.0019742
0.00197631
0.00197513
0.00197933
0.00198104
0.00198114
0.00198203
0.00198405
0.00198536
0.00198751
0.00199018
0.00199161
0.00200064
0.0020044
0.00200245
0.00200369
0.00201148
0.00201847
0.00202925
0.0020441
0.00205128
0.00206121
0.00206867
0.00207542
0.00208445
0.00209617
0.00210853
0.00212268
0.00213903
0.00215833
0.00217816
0.00220391
0.00223307
0.00226019
0.00228663
0.00230868
0.0023363
0.00236692
0.00240585
0.00245103
0.00250594
0.00256162
0.00263651
0.00269838
0.00277957
0.00283304
0.00291768
0.00298955
0.00310399
0.00323728
0.0034103
0.00200981
0.00200924
0.00200671
0.00200614
0.00200473
0.00200248
0.00200013
0.00199669
0.00199691
0.00199593
0.00199524
0.00199827
0.00199934
0.001999
0.00200286
0.00200396
0.00200336
0.00200766
0.00200473
0.00200836
0.00200615
0.00200624
0.00200713
0.00200947
0.00201141
0.00201501
0.00201936
0.00202405
0.00203027
0.00203427
0.00203892
0.00204233
0.00204781
0.00205236
0.00205769
0.00206993
0.0020793
0.00209363
0.00210945
0.00212048
0.00213415
0.00215612
0.00216675
0.0021657
0.00217219
0.00218649
0.00220586
0.002231
0.00225436
0.00228757
0.0023198
0.00235357
0.00237868
0.00240111
0.00243047
0.00246814
0.00251312
0.00256757
0.00262572
0.00268669
0.00275689
0.00281451
0.00288621
0.00293982
0.00303457
0.00312675
0.00327245
0.00343682
0.00364076
0.00203711
0.00203927
0.00203927
0.00203812
0.00203718
0.00203911
0.00203891
0.00203962
0.00204014
0.00204018
0.00204073
0.00204008
0.00204147
0.00204135
0.00204192
0.00204379
0.00204542
0.00204722
0.00205255
0.00205021
0.00205281
0.00205133
0.00205326
0.00205573
0.00205938
0.00206852
0.0020719
0.00206987
0.00207252
0.00207684
0.00208224
0.00209057
0.00210265
0.00212025
0.00212806
0.00212633
0.00212826
0.00213362
0.00214168
0.00214913
0.00216081
0.002172
0.00218867
0.00220451
0.00222616
0.00224743
0.00227124
0.00229658
0.00232348
0.00235428
0.00238392
0.00241552
0.0024489
0.00248563
0.0025276
0.00257859
0.00262857
0.00268798
0.0027416
0.00280182
0.00286075
0.00291954
0.00298978
0.00306786
0.00318892
0.00331812
0.00349938
0.00368799
0.00392678
0.00207647
0.00207745
0.00207834
0.00207907
0.002079
0.00207989
0.00208157
0.00208277
0.00208296
0.00208752
0.00208856
0.00208693
0.00208702
0.00208799
0.00209311
0.00209526
0.00209782
0.00209623
0.00209491
0.00209683
0.002098
0.00210342
0.00210746
0.00211548
0.00212257
0.00212721
0.00213951
0.00214382
0.00214386
0.00214262
0.00214809
0.00215356
0.00216887
0.00218093
0.00219341
0.00221581
0.00222547
0.00223548
0.00222963
0.00223137
0.00224038
0.00225133
0.00226809
0.00228531
0.00230942
0.00233508
0.00236425
0.00239757
0.00243252
0.00247206
0.00251059
0.00254872
0.00258421
0.0026209
0.00266297
0.00271227
0.00275752
0.00281496
0.00285588
0.0029166
0.00296484
0.00304655
0.00313093
0.00325726
0.00340077
0.00356506
0.00376713
0.00398412
0.00426415
0.00212336
0.00212451
0.00212492
0.00212363
0.00212306
0.00212373
0.00212527
0.00212809
0.00213381
0.00213231
0.00213698
0.00213508
0.00213736
0.00214004
0.00214457
0.00214855
0.00215354
0.00215815
0.00216157
0.00216524
0.00217394
0.00217692
0.00217628
0.00217637
0.00218164
0.00218696
0.00219502
0.00220685
0.00222427
0.00223079
0.00222818
0.00223156
0.00224225
0.00225568
0.00226667
0.00228926
0.00231038
0.00232342
0.00235478
0.00236846
0.00236434
0.00236895
0.00238276
0.00240184
0.00242746
0.00245525
0.00248523
0.00251515
0.00254757
0.00258074
0.00261799
0.00266213
0.00270462
0.00275426
0.00280576
0.00286172
0.0029161
0.00297303
0.00301177
0.00307187
0.00312856
0.00323934
0.00334414
0.00350835
0.00365818
0.00386429
0.00408614
0.0043499
0.00469046
0.00218057
0.00218246
0.00218804
0.00218948
0.00218968
0.00219535
0.0021971
0.00219998
0.00219844
0.00220163
0.00220056
0.00220524
0.00220138
0.00220597
0.00220393
0.00220566
0.00220943
0.00221635
0.00222238
0.00223675
0.00224799
0.0022551
0.00226998
0.00227539
0.00227249
0.0022767
0.00228463
0.00229401
0.00230619
0.00232605
0.00234142
0.00234621
0.00235572
0.00235814
0.00236606
0.0023809
0.00239917
0.00241722
0.00243396
0.00246062
0.00249012
0.00251019
0.00253087
0.00254392
0.00255995
0.0025773
0.00261352
0.00264631
0.00269891
0.00274371
0.00280818
0.00286281
0.00292782
0.00298583
0.00304006
0.0031027
0.00316229
0.00320842
0.00323547
0.00329041
0.00336926
0.0034954
0.00362194
0.00381002
0.00397463
0.00423795
0.00447187
0.0048263
0.00520765
0.00225418
0.00225504
0.00225149
0.00225468
0.00225309
0.00225411
0.0022571
0.00226192
0.00226676
0.00227437
0.0022767
0.00229051
0.00229493
0.00229866
0.00229311
0.00230091
0.00230264
0.00230868
0.00231217
0.00232777
0.00233367
0.00232961
0.00233118
0.00233708
0.00234461
0.00235529
0.00236649
0.00238122
0.00239497
0.00241292
0.00243046
0.00244934
0.00246722
0.00248201
0.00250718
0.00254455
0.00256056
0.00255582
0.00255981
0.00256557
0.00258726
0.00260333
0.0026368
0.00266018
0.0027071
0.0027397
0.00280288
0.00284583
0.00292911
0.00298155
0.0030861
0.00314937
0.00325925
0.00334438
0.0033932
0.00353519
0.00358331
0.00362765
0.00357002
0.00358565
0.0036726
0.00380206
0.00396322
0.00416653
0.00438259
0.00468913
0.00496938
0.00543411
0.00582967
0.00234156
0.00234375
0.00234094
0.00234131
0.00234346
0.00234821
0.002353
0.00235728
0.0023683
0.00236492
0.00237347
0.00237125
0.00237086
0.002376
0.00237916
0.00238562
0.00239637
0.00240485
0.00241671
0.00242811
0.00243564
0.00245308
0.00244651
0.00246182
0.00245601
0.00245847
0.00246692
0.00248149
0.00249571
0.00251537
0.00253549
0.00255772
0.00258373
0.00260094
0.00263327
0.00266867
0.00269378
0.0027113
0.00272328
0.00274305
0.00275648
0.00278321
0.00280433
0.00284484
0.00287894
0.00293279
0.00298309
0.00304842
0.00311886
0.00318823
0.00328234
0.00335765
0.00345315
0.00354642
0.00361611
0.00372267
0.00386144
0.00389765
0.00388777
0.00391647
0.00402787
0.00418297
0.00438363
0.00462072
0.00490283
0.00525453
0.00562389
0.00617681
0.00660049
0.00243279
0.00244055
0.00244543
0.00245116
0.00245415
0.00246466
0.00246765
0.00246387
0.00246538
0.00246859
0.00247702
0.00248291
0.00249395
0.00250071
0.00251524
0.00252373
0.00254034
0.00255203
0.00255958
0.00257933
0.0025721
0.00256762
0.00256941
0.0025718
0.00258138
0.00259469
0.00261274
0.00263454
0.0026696
0.00268939
0.00270181
0.00271046
0.00273046
0.00274827
0.00277632
0.00281859
0.0028533
0.00289186
0.0029424
0.00300776
0.00303714
0.00303306
0.00304421
0.00307313
0.00311629
0.00316469
0.00323223
0.00329001
0.00337063
0.0034496
0.00352877
0.00362993
0.00372426
0.00379204
0.0039043
0.00405207
0.0040892
0.00406703
0.00412163
0.00425241
0.00443125
0.00464334
0.00490685
0.00519783
0.00556883
0.00596841
0.0064765
0.00704574
0.00765284
0.00255879
0.00256502
0.00257342
0.00258004
0.00258926
0.00259928
0.00260747
0.00261478
0.00262999
0.00262572
0.00263675
0.00263097
0.00263448
0.00264073
0.00265279
0.0026633
0.00267657
0.00268756
0.00270161
0.00271929
0.00273681
0.00274569
0.00277313
0.0027821
0.00277338
0.002772
0.00278502
0.00280097
0.00282705
0.00284733
0.00287482
0.00289415
0.00292264
0.00295038
0.00298197
0.0030215
0.00306429
0.00310938
0.00314788
0.0031868
0.00322243
0.00325424
0.00330044
0.00334032
0.00340286
0.00345803
0.00352887
0.0036013
0.00366901
0.00377002
0.00384329
0.00396087
0.00406137
0.00411741
0.00425299
0.00430773
0.00430399
0.00440355
0.00455808
0.00475788
0.00499286
0.005269
0.00559362
0.00596407
0.00641331
0.00689913
0.00751817
0.00812347
0.00895187
0.00270669
0.00271536
0.00272497
0.00273444
0.00274266
0.00275097
0.00275887
0.00276823
0.00277666
0.00278567
0.00279988
0.00282122
0.00281958
0.00282627
0.00282807
0.00283544
0.00284817
0.00286119
0.00287939
0.00289587
0.00291957
0.00293883
0.00296122
0.00298789
0.00300437
0.00303194
0.00305903
0.00307486
0.00312197
0.00314038
0.00312892
0.00312794
0.00314123
0.00316689
0.00319633
0.00323584
0.00327666
0.00332292
0.00337011
0.00342152
0.00347541
0.00352817
0.0035884
0.00363897
0.00370199
0.00375014
0.00381012
0.00387127
0.00393687
0.00401403
0.00414532
0.00422787
0.0043418
0.00436334
0.00444474
0.00457486
0.00474226
0.00494383
0.00517148
0.00543628
0.0057375
0.00608775
0.00648909
0.0069513
0.00747925
0.00807333
0.00875215
0.00947617
0.0103379
0.00291067
0.00291283
0.00292015
0.00293453
0.00295183
0.00297513
0.00298937
0.0030137
0.00303145
0.00304358
0.00306892
0.00306395
0.00307597
0.00307288
0.00307831
0.00309197
0.00311263
0.00312837
0.00315488
0.00319354
0.00318688
0.00322009
0.0032121
0.00321632
0.00323255
0.00325113
0.00327992
0.00330197
0.00333465
0.00335973
0.00339489
0.00342079
0.00346509
0.00349981
0.00355556
0.00359571
0.00365895
0.003705
0.00376749
0.00383579
0.00387069
0.00396459
0.00401115
0.00406618
0.00411104
0.00409177
0.00410301
0.00415214
0.00422353
0.00431363
0.00441485
0.00453836
0.00467909
0.00484432
0.00502589
0.00523137
0.00545797
0.00571754
0.00600922
0.00634481
0.00672495
0.00715765
0.00764737
0.00819438
0.00880813
0.00948173
0.0102225
0.0110287
0.011891
0.00320847
0.00321872
0.00323069
0.00323876
0.00323274
0.00323765
0.0032476
0.00326278
0.00327755
0.00329013
0.00330453
0.00331472
0.00332776
0.0033394
0.00335697
0.00337271
0.00339638
0.00341411
0.00344257
0.00346584
0.00349642
0.00352329
0.0035625
0.0035908
0.00364792
0.00364996
0.00365266
0.00365834
0.00367037
0.00368352
0.00371324
0.00373985
0.00377643
0.00381052
0.00384973
0.00388573
0.00392667
0.00396704
0.00400869
0.00405834
0.00410743
0.00416674
0.00423173
0.0043039
0.00438597
0.00447939
0.00458307
0.00469767
0.00482138
0.00495789
0.00510655
0.00527165
0.00545279
0.00565703
0.0058847
0.00614384
0.00643431
0.00676463
0.00713416
0.00755064
0.00801408
0.00852842
0.0090974
0.00971643
0.0103971
0.0111237
0.0119098
0.0127537
0.0135831
0.0035085
0.00351703
0.0035248
0.00353213
0.0035392
0.00354932
0.00356184
0.00357635
0.00359223
0.00360943
0.00362975
0.00364945
0.00367202
0.00369318
0.00371783
0.00374211
0.00376925
0.00379495
0.00382748
0.00385905
0.00389791
0.00393251
0.00397564
0.004012
0.00405789
0.00409236
0.00413618
0.00416678
0.00421821
0.00425241
0.0043137
0.00436771
0.00439399
0.00447869
0.0044434
0.00449718
0.00447665
0.00449681
0.00454751
0.0046154
0.00469422
0.00478169
0.00487651
0.00497999
0.00509175
0.00521361
0.00534605
0.00549189
0.00565169
0.00582889
0.0060244
0.00624247
0.00648415
0.00675429
0.00705373
0.00738768
0.00775634
0.00816483
0.00861264
0.00910391
0.00963845
0.0102171
0.0108434
0.0115098
0.0122302
0.0129783
0.0137926
0.0145993
0.0155062
0.00392201
0.0039315
0.00394048
0.00394988
0.00395996
0.00397151
0.00398561
0.00400112
0.00401921
0.00403689
0.00405942
0.00408338
0.00411204
0.00413957
0.00417107
0.00419991
0.00423287
0.00426229
0.00429726
0.00432879
0.00436706
0.00440099
0.00444236
0.00447901
0.00452297
0.0045638
0.00460943
0.00465362
0.00470299
0.00474922
0.00479992
0.00485257
0.00490518
0.00496639
0.00502668
0.00509457
0.00516745
0.00524857
0.00533851
0.00543753
0.00554557
0.00566322
0.00579095
0.0059301
0.00608158
0.00624723
0.00642817
0.00662675
0.00684432
0.00708304
0.00734409
0.00763043
0.00794285
0.00828457
0.00865589
0.0090601
0.00949665
0.00996889
0.0104752
0.011019
0.0115979
0.0122144
0.0128672
0.0135546
0.014278
0.0150309
0.0158109
0.016617
0.0174288
0.00450675
0.00451839
0.00452959
0.00454169
0.00455446
0.00456941
0.00458579
0.00460228
0.00462112
0.00464229
0.00466358
0.00469073
0.00472156
0.00475558
0.00479331
0.00483267
0.00487195
0.00491148
0.00495195
0.00499297
0.00503676
0.00508112
0.0051305
0.00517851
0.00523258
0.00528511
0.00534525
0.00540417
0.00547162
0.00554012
0.00561901
0.00570383
0.00579771
0.00590256
0.00601381
0.00612993
0.00625109
0.00637848
0.00651346
0.00665735
0.00681139
0.00697692
0.0071551
0.00734732
0.00755466
0.00777858
0.00802013
0.00828089
0.00856189
0.00886488
0.00919044
0.00953948
0.0099125
0.0103113
0.0107357
0.0111877
0.0116668
0.0121749
0.012711
0.0132771
0.0138709
0.0144943
0.0151457
0.0158206
0.0165218
0.0172386
0.0179654
0.0187175
0.0194034
0.00535892
0.0053782
0.00539626
0.00541293
0.00543009
0.00544678
0.0054656
0.00548386
0.00550547
0.00552782
0.00555503
0.00558476
0.00562021
0.00566071
0.0057035
0.0057544
0.00580655
0.00586417
0.00592909
0.0059968
0.00607234
0.00615615
0.0062451
0.00633558
0.00642909
0.00652476
0.0066245
0.00672847
0.00683795
0.00695359
0.00707612
0.00720613
0.00734349
0.00748801
0.00764015
0.00780028
0.00796872
0.00814621
0.0083335
0.00853129
0.00874042
0.00896175
0.00919605
0.00944413
0.00970666
0.00998443
0.010278
0.0105883
0.0109158
0.0112616
0.0116262
0.012011
0.0124156
0.0128405
0.0132862
0.0137536
0.0142434
0.0147559
0.0152916
0.0158499
0.0164295
0.0170308
0.0176507
0.0182806
0.018929
0.019568
0.020216
0.0208433
0.0214408
0.00667015
0.00671304
0.00675477
0.00679539
0.00683581
0.00687557
0.00691634
0.00695763
0.0070017
0.00704837
0.00709997
0.00715659
0.0072198
0.00729008
0.00736688
0.00745167
0.007543
0.00764151
0.00774714
0.00785975
0.00797868
0.00810298
0.00823239
0.00836646
0.00850503
0.00864833
0.00879642
0.00894984
0.00910874
0.00927374
0.00944486
0.00962261
0.00980713
0.00999858
0.0101972
0.0104032
0.010617
0.0108388
0.0110691
0.0113081
0.011556
0.0118133
0.0120804
0.0123577
0.0126457
0.0129447
0.0132555
0.0135786
0.0139147
0.014265
0.0146299
0.015011
0.015409
0.0158262
0.0162604
0.0167126
0.0171841
0.0176728
0.018182
0.018703
0.01924
0.0197896
0.0203439
0.0208917
0.0214464
0.0219542
0.0224794
0.0229256
0.0234372
0.0089204
0.00900946
0.00909911
0.00918973
0.00928123
0.00937347
0.0094669
0.00956204
0.0096596
0.0097605
0.00986564
0.00997605
0.0100922
0.0102148
0.0103438
0.0104789
0.0106204
0.0107676
0.0109202
0.0110777
0.0112398
0.0114061
0.0115766
0.0117509
0.011929
0.0121106
0.0122957
0.0124843
0.0126763
0.0128718
0.013071
0.0132739
0.0134805
0.0136909
0.0139052
0.0141234
0.0143458
0.0145729
0.0148048
0.0150418
0.0152842
0.0155323
0.0157866
0.0160475
0.0163157
0.0165917
0.0168764
0.0171706
0.0174753
0.0177918
0.0181206
0.0184641
0.0188227
0.0191992
0.0195939
0.020005
0.0204343
0.0208739
0.0213336
0.0217797
0.0222454
0.0227094
0.0231529
0.023567
0.0239597
0.0242521
0.0246237
0.0248271
0.0254561
0.0129718
0.0131188
0.0132664
0.0134154
0.013565
0.0137152
0.0138657
0.0140167
0.0141683
0.0143209
0.0144745
0.0146297
0.0147867
0.0149457
0.0151067
0.0152698
0.0154348
0.0156017
0.0157704
0.015941
0.0161133
0.0162872
0.0164622
0.0166381
0.0168146
0.0169917
0.0171693
0.0173474
0.017526
0.0177051
0.0178848
0.0180651
0.0182461
0.0184277
0.0186102
0.0187937
0.0189784
0.0191649
0.0193533
0.0195442
0.019738
0.0199349
0.0201358
0.0203412
0.0205522
0.0207693
0.020994
0.0212268
0.0214689
0.0217217
0.0219847
0.0222632
0.022555
0.022867
0.0231905
0.0235383
0.023905
0.0242707
0.0246511
0.0249533
0.0253306
0.0256739
0.0259245
0.0261066
0.0261869
0.0262134
0.0264457
0.026763
0.027239
0.0189288
0.0191004
0.0192709
0.0194411
0.0196105
0.0197788
0.0199458
0.0201115
0.0202758
0.0204384
0.0205995
0.020759
0.0209169
0.0210735
0.0212287
0.0213827
0.0215356
0.0216874
0.0218378
0.0219872
0.0221351
0.0222812
0.0224248
0.0225656
0.0227034
0.0228385
0.0229709
0.0231011
0.0232293
0.0233555
0.0234798
0.0236022
0.023723
0.0238424
0.0239606
0.0240777
0.0241941
0.0243107
0.0244271
0.0245455
0.0246632
0.0247816
0.0249026
0.0250259
0.0251555
0.0252888
0.0254292
0.0255749
0.025729
0.0258893
0.0260566
0.0262437
0.0264383
0.0266573
0.0268648
0.0271422
0.0274285
0.0276795
0.0278936
0.0279259
0.0280838
0.0280405
0.0278722
0.0276901
0.0274991
0.0277126
0.0275346
0.0291166
0.0301534
0.0261647
0.0263272
0.0264859
0.0266417
0.026794
0.0269428
0.027088
0.0272297
0.0273676
0.0275014
0.0276311
0.0277563
0.0278775
0.0279952
0.0281095
0.0282201
0.0283282
0.0284328
0.0285346
0.0286376
0.0287359
0.0288329
0.0289214
0.0290021
0.0290739
0.0291413
0.0292033
0.0292662
0.0293254
0.0293802
0.0294305
0.0294764
0.0295184
0.0295568
0.0295919
0.0296238
0.0296531
0.0296819
0.029709
0.0297416
0.0297536
0.0297697
0.0297949
0.0298149
0.0298524
0.0298796
0.0299111
0.0299399
0.0299733
0.0299973
0.0300301
0.0300869
0.0301344
0.030195
0.0302177
0.0302987
0.0302424
0.0300976
0.0298544
0.0295112
0.0292027
0.0289205
0.0285316
0.0286997
0.0290056
0.0297756
0.0308801
0.0345212
0.0390844
0.0337359
0.0338519
0.0339615
0.0340644
0.0341614
0.034254
0.034342
0.0344266
0.0345057
0.0345778
0.0346431
0.0347028
0.0347581
0.0348105
0.034859
0.0349023
0.0349414
0.0349734
0.035002
0.0350656
0.0351052
0.0352207
0.0352584
0.0352717
0.0352404
0.0351938
0.0351534
0.0352134
0.0352249
0.0352239
0.0352112
0.0351885
0.0351574
0.0351183
0.0350714
0.0350187
0.0349625
0.0349056
0.0348432
0.0347614
0.0345576
0.0344618
0.0343778
0.0341948
0.0341022
0.0339281
0.0337345
0.0335531
0.0333683
0.0331599
0.0329477
0.0327305
0.0324864
0.0322095
0.0318889
0.0315221
0.0311421
0.0307527
0.0303378
0.0299674
0.0296966
0.0297492
0.0297253
0.0310946
0.0322871
0.0357239
0.0416491
0.0533563
0.0714724
0.040779
0.0407934
0.0408039
0.0408114
0.0408154
0.0408299
0.0408377
0.0408879
0.0409027
0.0409067
0.0409005
0.0408939
0.0408828
0.0408666
0.0408435
0.0408153
0.0406987
0.0405715
0.0404468
0.0403288
0.0402085
0.0400873
0.0399567
0.0398139
0.0396613
0.0395012
0.0393363
0.0391752
0.0390075
0.0388352
0.0386555
0.0384701
0.0382809
0.0380866
0.0378854
0.037677
0.0374644
0.0372477
0.0370232
0.0367988
0.0365629
0.0363237
0.0360796
0.0358315
0.035591
0.0353428
0.0350836
0.0348091
0.0345093
0.0341842
0.0338329
0.0334515
0.0330473
0.0325871
0.0320928
0.0316026
0.0312013
0.0307993
0.0308188
0.0307989
0.0320733
0.0327388
0.035286
0.0392814
0.0467738
0.0595965
0.0760007
0.096619
0.107174
0.044104
0.0440488
0.0439851
0.0439112
0.0438307
0.0437449
0.0436553
0.0435612
0.0434609
0.0433562
0.043244
0.0431295
0.0430111
0.0428896
0.0427666
0.0426374
0.0424972
0.0423449
0.0421822
0.042012
0.0418326
0.0416457
0.0414494
0.0412448
0.0410327
0.0408131
0.040592
0.0403636
0.0401297
0.0398952
0.0396534
0.0394091
0.0391598
0.0389088
0.0386609
0.0384095
0.0381645
0.0379176
0.0376693
0.0374128
0.0371582
0.036884
0.0365979
0.036299
0.0359838
0.0356432
0.0352613
0.0348455
0.0343499
0.0338228
0.0332542
0.032611
0.032072
0.0315452
0.0313005
0.0313495
0.0316876
0.0327498
0.034741
0.0375631
0.0410125
0.0463987
0.0547276
0.0666896
0.0806442
0.0932589
0.0991745
0.0933253
0.0818095
0.0431822
0.0430584
0.0429291
0.0428026
0.0426709
0.0425378
0.042402
0.0422608
0.0421153
0.0419676
0.0418106
0.0416519
0.0414859
0.041314
0.041143
0.0409577
0.0407763
0.0405763
0.040379
0.0401616
0.0399454
0.0397096
0.0394737
0.039217
0.0389586
0.0386846
0.038398
0.0380972
0.037784
0.0374588
0.0371213
0.0367711
0.0364094
0.0360329
0.0356485
0.0352376
0.0348395
0.0343975
0.0339814
0.0335154
0.0330767
0.0325974
0.032131
0.0316631
0.0312021
0.030766
0.0303283
0.0300386
0.029579
0.0297149
0.0297883
0.0297478
0.0310707
0.0316924
0.0330483
0.0344791
0.0371797
0.0401059
0.0445686
0.0497574
0.0565337
0.0646793
0.0743582
0.0800052
0.0770796
0.0671413
0.0577873
0.0507721
0.0464176
0.0331811
0.0332092
0.0333762
0.033412
0.0335336
0.033656
0.0337119
0.033925
0.0340767
0.0341941
0.0342271
0.0343628
0.0343654
0.0345164
0.0345175
0.0347199
0.0347996
0.034863
0.0350929
0.0351773
0.0352736
0.035352
0.035358
0.0353561
0.0355487
0.0355139
0.0354343
0.0353441
0.0352501
0.0351531
0.0350528
0.0349473
0.0348364
0.0347187
0.0345954
0.0344639
0.0343264
0.0341784
0.0340223
0.0338535
0.0336727
0.033476
0.0332621
0.0330263
0.0327661
0.0324748
0.0321454
0.0317728
0.0313393
0.0308407
0.0302575
0.0295609
0.0287326
0.0277214
0.026477
0.0248865
0.0228658
0.0201537
0.0163309
0.0135462
0.015246
0.0184781
0.02058
0.0213026
0.0210422
0.0196197
0.018493
0.0179124
0.0177595
0.00191708
0.00191752
0.00191886
0.00191866
0.00191947
0.00192101
0.0019228
0.00192456
0.00192512
0.00192622
0.00192631
0.00192706
0.00193422
0.00193843
0.00194048
0.00194032
0.00194562
0.00194893
0.00195197
0.0019545
0.00195762
0.00196028
0.00196289
0.00196521
0.0019691
0.0019736
0.00198006
0.00198604
0.00198942
0.00198936
0.00199088
0.00199473
0.00200054
0.0020002
0.00199944
0.00199901
0.00199996
0.00199908
0.00199572
0.00199472
0.00199144
0.00199025
0.00198931
0.00198514
0.00198328
0.00197892
0.00197408
0.00197018
0.00196705
0.00196469
0.00196309
0.00196283
0.00196278
0.00196191
0.00195905
0.00195753
0.00195556
0.00195306
0.00195044
0.00192449
0.00192476
0.00192544
0.00192555
0.0019268
0.00192764
0.00192958
0.00192988
0.00193089
0.0019317
0.00193284
0.00193739
0.00194233
0.00194393
0.00194494
0.00194635
0.00195266
0.00195552
0.00195792
0.00196047
0.00196373
0.00196665
0.00196894
0.00197182
0.00197544
0.0019799
0.00198652
0.00199255
0.0019957
0.00199581
0.0019977
0.00200126
0.00200695
0.00200721
0.00200733
0.002007
0.002007
0.00200757
0.00200573
0.00200427
0.0020009
0.00199886
0.00199867
0.00199679
0.00199457
0.0019921
0.00198732
0.00198285
0.00198009
0.00197568
0.0019739
0.00197466
0.00197347
0.00197155
0.00196955
0.00196786
0.00196649
0.00196481
0.00196328
0.00193325
0.00193457
0.0019349
0.00193603
0.00193721
0.00193886
0.00193901
0.00194041
0.00194173
0.00194356
0.00194582
0.00194895
0.00195105
0.00195215
0.00195333
0.0019573
0.00196214
0.00196441
0.00196624
0.00196924
0.00197306
0.00197581
0.00197803
0.00198123
0.00198459
0.00198925
0.00199584
0.00200202
0.00200498
0.00200539
0.0020076
0.00201089
0.00201659
0.00201781
0.00201754
0.00201759
0.00201922
0.00201895
0.00201755
0.00201649
0.00201405
0.00201169
0.00201213
0.00201115
0.0020089
0.0020074
0.00200491
0.00200131
0.0019982
0.00199428
0.00199138
0.0019895
0.00199022
0.00198974
0.00198916
0.00198837
0.00198788
0.00198598
0.00198358
0.00194648
0.00194893
0.00195041
0.00195173
0.00195237
0.00195307
0.00195241
0.00195301
0.00195623
0.0019579
0.00195992
0.00196201
0.00196341
0.00196462
0.00196726
0.00197184
0.00197476
0.00197651
0.00197845
0.00198224
0.00198621
0.00198875
0.00199108
0.00199433
0.0019975
0.00200242
0.00200893
0.00201516
0.00201803
0.00201874
0.00202127
0.00202434
0.00203006
0.00203153
0.00203287
0.00203239
0.00203303
0.00203565
0.00203538
0.00203413
0.00203128
0.0020292
0.00202848
0.0020295
0.0020283
0.00202618
0.00202299
0.00202035
0.00201845
0.00201656
0.00201378
0.00201213
0.00201116
0.00200952
0.00201075
0.00201048
0.00200904
0.00201016
0.00200998
0.0019668
0.0019677
0.00196804
0.00196746
0.00196774
0.00196792
0.00196813
0.00197082
0.00197342
0.00197508
0.00197704
0.00197841
0.00197984
0.00198202
0.00198535
0.00198869
0.00199061
0.0019922
0.00199472
0.00199936
0.00200279
0.00200525
0.00200774
0.00201095
0.00201405
0.00201935
0.00202583
0.0020321
0.00203501
0.00203606
0.00203889
0.00204184
0.00204746
0.00205035
0.00205056
0.00205178
0.00205283
0.00205413
0.00205458
0.0020558
0.00205421
0.00205203
0.00205117
0.00205114
0.00205229
0.00205198
0.00205099
0.00204833
0.00204425
0.00204204
0.00204261
0.00203993
0.00204015
0.0020377
0.00203788
0.00203676
0.00203573
0.00203778
0.00203803
0.00198647
0.00198789
0.00198838
0.00198978
0.00199025
0.00199122
0.00199309
0.00199507
0.0019966
0.00199808
0.0019993
0.00200068
0.00200228
0.00200492
0.00200771
0.0020098
0.00201148
0.00201334
0.00201687
0.00202144
0.00202454
0.00202703
0.00202962
0.00203272
0.00203584
0.00204149
0.00204795
0.0020542
0.00205722
0.00205863
0.0020618
0.00206475
0.0020703
0.00207377
0.00207575
0.00207539
0.00207712
0.00208014
0.00208254
0.0020825
0.00208228
0.00208095
0.00208048
0.00208058
0.0020815
0.00208323
0.00208287
0.0020824
0.00208013
0.00207705
0.00207419
0.002074
0.00207416
0.00207343
0.00207315
0.00207343
0.00207342
0.0020742
0.00207449
0.00201408
0.00201639
0.0020165
0.0020165
0.00201835
0.00201891
0.00202003
0.00202155
0.00202276
0.00202484
0.00202682
0.00202852
0.00203062
0.00203281
0.00203469
0.0020364
0.00203807
0.00204061
0.0020449
0.0020486
0.00205146
0.00205408
0.00205673
0.00205963
0.00206297
0.00206907
0.00207558
0.00208186
0.00208509
0.00208694
0.0020905
0.00209358
0.00209903
0.00210328
0.00210557
0.00210794
0.00210781
0.00210944
0.00211422
0.0021189
0.00211862
0.00211573
0.00211477
0.00211483
0.00211764
0.00211934
0.00212366
0.00212367
0.00212563
0.00212457
0.00212356
0.00212217
0.00212089
0.00211959
0.0021194
0.00211887
0.00212138
0.00212171
0.00212069
0.00205189
0.00205301
0.00205216
0.00205223
0.00205393
0.00205422
0.00205548
0.00205602
0.00205756
0.0020594
0.0020611
0.00206329
0.00206478
0.00206703
0.00206867
0.00207066
0.00207283
0.00207619
0.00208009
0.00208327
0.00208605
0.0020887
0.00209138
0.00209426
0.00209791
0.00210439
0.00211097
0.00211724
0.00212075
0.00212307
0.00212707
0.0021304
0.00213587
0.0021407
0.00214392
0.00214646
0.00214917
0.00215142
0.00215259
0.00215743
0.00216232
0.0021646
0.0021622
0.00216193
0.00216039
0.00216021
0.00216276
0.00216456
0.00216703
0.00217072
0.00217278
0.00217395
0.00217854
0.00217916
0.00217989
0.00217945
0.00217715
0.00217855
0.00217887
0.00208924
0.00209016
0.00209019
0.00209078
0.0020921
0.00209478
0.00209636
0.00209847
0.00209974
0.00210191
0.00210417
0.00210627
0.00210781
0.00210999
0.00211187
0.00211351
0.00211631
0.00211933
0.00212277
0.00212548
0.00212818
0.00213082
0.00213357
0.00213668
0.00214081
0.00214779
0.00215458
0.00216092
0.00216483
0.00216773
0.00217227
0.002176
0.00218153
0.00218704
0.00219082
0.00219474
0.00219588
0.00220016
0.00220543
0.00220744
0.00221229
0.00221582
0.00221869
0.00222129
0.00222413
0.00222692
0.0022255
0.00222796
0.00222862
0.00222807
0.00222821
0.00222934
0.00223513
0.00223865
0.00224222
0.00224825
0.00224992
0.00224962
0.00225355
0.0021451
0.0021465
0.00214771
0.00214965
0.00215339
0.00215282
0.00215288
0.00215241
0.00215173
0.00215363
0.00215505
0.00215897
0.00216
0.00216289
0.00216472
0.00216762
0.00217022
0.00217327
0.00217617
0.0021789
0.00218167
0.00218443
0.00218738
0.0021909
0.00219558
0.00220308
0.00220997
0.00221643
0.0022208
0.00222435
0.00222951
0.00223382
0.00223957
0.00224569
0.00225083
0.00225513
0.00226121
0.00226114
0.00226765
0.00227361
0.00227868
0.00228183
0.0022847
0.00228897
0.00229046
0.00229357
0.00229833
0.00230275
0.00230536
0.00230748
0.00231177
0.00231811
0.00232022
0.00232005
0.00232141
0.00232424
0.00232714
0.00233079
0.00233385
0.00223395
0.00223344
0.00223181
0.0022308
0.0022295
0.00222798
0.00222654
0.00222536
0.00222447
0.00222436
0.00222391
0.00222384
0.00222582
0.00222917
0.00223038
0.00223393
0.00223606
0.00223891
0.00224166
0.00224437
0.00224707
0.00224982
0.00225311
0.00225731
0.00226277
0.00227077
0.00227796
0.00228476
0.00228979
0.00229416
0.00230009
0.00230515
0.00231128
0.00231788
0.00232413
0.0023292
0.00233586
0.00234394
0.00234369
0.0023488
0.0023581
0.00236418
0.00236903
0.00237365
0.00238079
0.00238873
0.00238739
0.00238724
0.00238964
0.00239455
0.00239988
0.00240433
0.00240739
0.00241096
0.00241308
0.00241668
0.00242099
0.00242469
0.00242858
0.00233263
0.00233037
0.00232735
0.00232483
0.00232215
0.00231977
0.00231752
0.00231565
0.00231402
0.00231282
0.00231178
0.00231137
0.00231197
0.0023128
0.00231326
0.00231626
0.00231895
0.00232198
0.00232499
0.00232792
0.00233086
0.0023338
0.00233764
0.00234265
0.00234915
0.00235726
0.00236477
0.002372
0.00237778
0.00238309
0.00238993
0.00239602
0.00240291
0.0024104
0.00241812
0.00242466
0.0024317
0.00243979
0.00245132
0.00245317
0.00245788
0.0024647
0.00247312
0.0024813
0.00248973
0.00249509
0.00250427
0.00251343
0.00251542
0.00251246
0.00251274
0.00251344
0.00251536
0.00251803
0.00252246
0.0025279
0.00253589
0.00254383
0.00255084
0.00244983
0.00244663
0.0024428
0.00243947
0.00243609
0.00243312
0.00243031
0.00242789
0.00242571
0.00242393
0.00242245
0.00242148
0.00242098
0.00242075
0.00242084
0.00242133
0.00242353
0.00242586
0.00242857
0.00243152
0.00243432
0.00243726
0.00244167
0.0024477
0.00245526
0.00246384
0.00247199
0.00248002