/*--------------------------------*- C++ -*----------------------------------*\
| =========                 |                                                 |
| \\      /  F ield         | OpenFOAM: The Open Source CFD Toolbox           |
|  \\    /   O peration     | Version:  2312                                  |
|   \\  /    A nd           | Website:  www.openfoam.com                      |
|    \\/     M anipulation  |                                                 |
\*---------------------------------------------------------------------------*/
FoamFile
{
    version     2.0;
    format      ascii;
    arch        "LSB;label=32;scalar=64";
    class       volScalarField;
    location    "1100";
    object      nut;
}
// * * * * * * * * * * * * * * * * * * * * * * * * * * * * * * * * * * * * * //

dimensions      [0 2 -1 0 0 0 0];

internalField   nonuniform List<scalar> 
76025
(
0.00134137
0.00134185
0.00134207
0.00133984
0.00134297
0.00134128
0.00133861
0.00133948
0.001341
0.00134239
0.00134424
0.00134618
0.0013483
0.00134802
0.00134828
0.00134679
0.00135139
0.0013537
0.00135571
0.00135521
0.00135769
0.00136428
0.00137109
0.00137281
0.00137371
0.00137482
0.00137609
0.00137685
0.00137541
0.00137925
0.00137716
0.00138561
0.00138693
0.001391
0.00139429
0.00139735
0.00139039
0.001389
0.00139034
0.00139336
0.00139614
0.00140103
0.00140886
0.001417
0.00142283
0.00142706
0.00143249
0.00143873
0.00144709
0.00145773
0.00147109
0.00148508
0.00149932
0.00151229
0.00152867
0.00154119
0.00155797
0.00157176
0.00158974
0.00160225
0.00162353
0.0016515
0.00168634
0.00170494
0.00172754
0.00174716
0.00178368
0.00183618
0.0018819
0.00134438
0.00134554
0.00134404
0.00134653
0.00135001
0.00135429
0.00135448
0.00135247
0.00135489
0.0013567
0.00135593
0.00135845
0.00136171
0.00136396
0.00136684
0.00136944
0.00137172
0.00137432
0.00137212
0.00137472
0.00137462
0.00137213
0.00137659
0.00138127
0.00138195
0.00138559
0.00138881
0.00138632
0.0013845
0.0013865
0.00138805
0.00139233
0.00139663
0.00139664
0.00140365
0.00141703
0.0014332
0.0014281
0.00142125
0.00142108
0.00142765
0.00143972
0.00145657
0.00147854
0.00147701
0.00146363
0.00145918
0.00146012
0.00146657
0.00147765
0.00149262
0.00150856
0.00152277
0.00153594
0.00154704
0.00156107
0.00157278
0.00159191
0.00160766
0.00163114
0.00166324
0.00169888
0.00173315
0.00175771
0.00178574
0.00181031
0.00185096
0.00190327
0.00195875
0.00135996
0.00135816
0.00135726
0.00135452
0.00135752
0.00136008
0.00136435
0.00136486
0.00136897
0.00137212
0.00137499
0.0013756
0.00138163
0.00138369
0.00138595
0.00138852
0.00139128
0.00139655
0.00139666
0.00139839
0.00139874
0.00140191
0.00140341
0.00140477
0.00140306
0.00140479
0.00140851
0.00141172
0.00141213
0.00140737
0.0014171
0.00142308
0.00141895
0.00141532
0.00141749
0.00141515
0.00142453
0.00144568
0.0014512
0.00145901
0.00146053
0.00146067
0.00146326
0.00146739
0.00147165
0.00147582
0.00148345
0.00149313
0.00150513
0.00152349
0.00154417
0.0015616
0.00157184
0.00157885
0.00158413
0.00159845
0.00160868
0.0016365
0.00165599
0.00169232
0.00172572
0.00176193
0.00179078
0.00181371
0.00183689
0.00187283
0.00190617
0.00198036
0.00202414
0.00137802
0.00137907
0.00137801
0.00137942
0.00137954
0.00137846
0.0013769
0.00137416
0.00137653
0.00137782
0.00137711
0.00138129
0.00138311
0.00138372
0.00138992
0.00139212
0.00139191
0.00139835
0.00139648
0.00140128
0.001398
0.00139829
0.0014
0.00140022
0.00140168
0.00140636
0.00140733
0.00141182
0.00142171
0.00142616
0.00142683
0.00142172
0.00142522
0.0014329
0.00143958
0.00145254
0.00146109
0.00147309
0.00148595
0.0014915
0.00149495
0.00151095
0.00151125
0.00149678
0.0014956
0.00150321
0.00151803
0.00153732
0.00155286
0.00157766
0.00159597
0.00161608
0.00161808
0.00162297
0.00162692
0.00165028
0.00166515
0.00170539
0.00172583
0.00176581
0.00178506
0.00181152
0.00182133
0.00184111
0.00186176
0.00190963
0.00195763
0.00203173
0.00211221
0.00139112
0.00139279
0.00139303
0.00139169
0.00139231
0.00139695
0.00140101
0.00140164
0.00140242
0.00140293
0.00140624
0.00140754
0.00140761
0.0014068
0.001407
0.00140934
0.00141069
0.00141274
0.00141937
0.00141572
0.00142099
0.00141983
0.00141631
0.00141696
0.00141874
0.00143303
0.00143415
0.00143207
0.00143444
0.00143756
0.00143998
0.00144457
0.00144794
0.00146692
0.00147285
0.00146724
0.00146415
0.00146335
0.00146538
0.00146569
0.00147182
0.00147594
0.00148809
0.00149562
0.00150979
0.00151967
0.00153446
0.00155031
0.00156417
0.00158236
0.00159108
0.00160637
0.00161692
0.00164113
0.0016592
0.00169733
0.00171442
0.00175639
0.00176344
0.00179433
0.00179257
0.0018157
0.00182161
0.00186128
0.00190318
0.00198007
0.00203643
0.00213886
0.00219433
0.00140794
0.00141109
0.00141133
0.00141234
0.00141208
0.00141269
0.00141506
0.0014164
0.0014169
0.00142116
0.00142434
0.00142152
0.00142185
0.00142262
0.00142938
0.00142956
0.00143203
0.00142845
0.00142555
0.00142543
0.00142529
0.00143112
0.00143882
0.00145035
0.00145741
0.00146183
0.00147322
0.00147609
0.00146983
0.00146284
0.00146137
0.00146296
0.00147194
0.00147667
0.00148646
0.00149809
0.00150301
0.00151979
0.00150946
0.00150281
0.00150286
0.00150364
0.00150763
0.0015082
0.00150326
0.0015116
0.00153527
0.00156467
0.00159075
0.00161928
0.00164573
0.0016774
0.00169566
0.00171923
0.00173048
0.0017599
0.00176062
0.00179013
0.00177081
0.00179522
0.00178128
0.00182633
0.0018508
0.00192618
0.00199153
0.00206883
0.00214098
0.00222274
0.00231294
0.00142574
0.00142715
0.00142782
0.00142603
0.00142519
0.00142762
0.00142983
0.00143264
0.00143946
0.00143511
0.00143996
0.00143215
0.00143328
0.00143683
0.00143878
0.00144157
0.00144643
0.00145524
0.00146091
0.00146524
0.00147498
0.00147241
0.00146841
0.00145922
0.00146273
0.00147133
0.00148132
0.00149065
0.00150734
0.00150754
0.00149036
0.00147805
0.00149353
0.00149867
0.00151581
0.00154458
0.00156423
0.00157492
0.00160335
0.00160783
0.00158349
0.0015697
0.00156555
0.00156555
0.00156987
0.00158487
0.00157831
0.00158681
0.0015911
0.0015817
0.00160739
0.0016697
0.00170842
0.00174709
0.00176764
0.00180031
0.00180635
0.00183038
0.00180455
0.00182694
0.00182123
0.00188731
0.00193304
0.00201837
0.00208809
0.00216495
0.00224065
0.00234317
0.00242426
0.00144748
0.0014497
0.00145853
0.00145702
0.00145935
0.00146856
0.00147124
0.00147419
0.00146908
0.00146743
0.00146455
0.00147111
0.00146596
0.00147094
0.00146566
0.00146372
0.00146478
0.00147048
0.00147433
0.00148512
0.00149413
0.00150077
0.00151963
0.00152294
0.00151131
0.00151141
0.00151832
0.00152762
0.00154013
0.00156162
0.00157509
0.00157256
0.00158013
0.00157339
0.00157565
0.00158396
0.00159512
0.00160454
0.00160905
0.00162484
0.00164107
0.00164156
0.00164757
0.0016345
0.00161458
0.00160831
0.00161886
0.00163789
0.00167695
0.00171161
0.00176743
0.00180848
0.00185648
0.00188944
0.0019039
0.00193407
0.00193744
0.00194371
0.00189569
0.00190788
0.00191652
0.00198962
0.00204705
0.00212587
0.00220967
0.0022727
0.00238445
0.00246237
0.00258194
0.00147787
0.00148135
0.00147826
0.0014825
0.00147989
0.00147887
0.00148109
0.00148246
0.00148942
0.00149841
0.0015012
0.00151846
0.00152242
0.00152507
0.00151557
0.00152168
0.00151733
0.0015195
0.00151598
0.00152561
0.00152704
0.00151273
0.00150197
0.00150457
0.00151515
0.00152617
0.00152989
0.00154176
0.00154628
0.00156058
0.00157034
0.00157331
0.00158623
0.00160903
0.00163665
0.0016809
0.00168491
0.00166635
0.00164841
0.00163669
0.0016387
0.00163024
0.00164773
0.00163733
0.00166635
0.00166753
0.00169813
0.00172332
0.00176355
0.00179963
0.00190666
0.00196657
0.0020682
0.00213322
0.00213381
0.0022603
0.00224819
0.0022561
0.00210001
0.00206996
0.00206718
0.00214017
0.00218783
0.00226815
0.00234669
0.00241947
0.00253158
0.00262892
0.0027411
0.00150595
0.00150759
0.00150676
0.00150223
0.00150398
0.00150935
0.0015158
0.00151483
0.00152821
0.00152259
0.00153317
0.00153354
0.0015353
0.00153948
0.00153321
0.00153606
0.00154606
0.00155278
0.00156007
0.00156646
0.00156667
0.00157862
0.00155026
0.0015608
0.00153607
0.00153283
0.00154639
0.00156236
0.00157201
0.00158083
0.00159534
0.00160224
0.00161657
0.00162625
0.0016334
0.00166307
0.00170192
0.00172148
0.00172659
0.00173078
0.00173039
0.00173152
0.00173218
0.00174671
0.00175379
0.00177261
0.00179528
0.00183163
0.00188049
0.00192458
0.00199069
0.00202975
0.00208823
0.00214757
0.0021663
0.00224896
0.00235384
0.00235765
0.00226195
0.00223873
0.00222919
0.00230733
0.00232981
0.00242955
0.00249062
0.00258866
0.00271101
0.00280075
0.00294097
0.00155065
0.00155587
0.00155842
0.00156012
0.00156081
0.00156764
0.0015675
0.00155469
0.00155192
0.00154838
0.00155436
0.00155419
0.00156544
0.00156294
0.00157741
0.00158339
0.00161215
0.00162058
0.00163346
0.0016566
0.00164097
0.00162449
0.0016169
0.00160612
0.00160904
0.00161171
0.00162535
0.00163593
0.0016648
0.00167183
0.0016625
0.00165761
0.00165538
0.00165267
0.00167025
0.00168155
0.00172546
0.00176739
0.00182814
0.00188952
0.0019092
0.00187171
0.00185986
0.00185468
0.00187361
0.00188348
0.00192217
0.00193719
0.00197993
0.00201305
0.00204356
0.00209424
0.00214639
0.00216782
0.00223553
0.00236088
0.00234275
0.00227084
0.00223104
0.00229509
0.00231843
0.00242194
0.00246288
0.0025933
0.00265401
0.00279469
0.00289289
0.00301226
0.0031441
0.00159773
0.00160236
0.0016101
0.00161399
0.00161263
0.00162063
0.00163043
0.00163589
0.00165315
0.00164138
0.00164922
0.00163248
0.00162911
0.00162653
0.00163171
0.00163445
0.00164096
0.0016452
0.00165698
0.00165579
0.00166792
0.00166802
0.00169326
0.00170903
0.00169628
0.00168446
0.00168723
0.00169156
0.00170607
0.00171207
0.0017279
0.00173
0.00174357
0.0017548
0.00176369
0.00178646
0.00180045
0.00181844
0.00183166
0.00184226
0.00186661
0.00188677
0.00193085
0.00195325
0.00198907
0.0020157
0.00204057
0.00207822
0.00209207
0.00214969
0.00217181
0.00224613
0.00229845
0.00232766
0.00242542
0.00243885
0.00233474
0.00235245
0.0023701
0.0024514
0.00249716
0.00260783
0.00266722
0.00280216
0.0028713
0.00302333
0.00309944
0.00324347
0.00333544
0.00163711
0.00163657
0.00163814
0.0016433
0.00164193
0.00163631
0.00164052
0.00165464
0.00166404
0.0016717
0.00167513
0.00169402
0.00168418
0.00168665
0.00169373
0.00170227
0.00171094
0.00171529
0.00172395
0.00172491
0.00173883
0.0017394
0.00175218
0.00175712
0.00175664
0.00177768
0.00177594
0.00178112
0.00184116
0.00186226
0.00184028
0.00181602
0.00180765
0.00180936
0.00180834
0.00182708
0.00183536
0.00184723
0.00185831
0.0018846
0.00192017
0.00194771
0.00199311
0.00200742
0.00203621
0.00203967
0.0020291
0.00204767
0.00203805
0.00204696
0.00213066
0.00209354
0.00216029
0.00218927
0.00225904
0.00233613
0.00239758
0.00248518
0.00254677
0.00264454
0.00271245
0.00282695
0.00290368
0.00303448
0.00311501
0.00325175
0.00332628
0.00345787
0.00350842
0.00173308
0.00172671
0.00172646
0.00173515
0.00174828
0.00176636
0.00177723
0.00179494
0.00180096
0.00180047
0.00181638
0.00180308
0.00180394
0.00179026
0.00178309
0.00179345
0.00178901
0.00179419
0.00181141
0.00184488
0.00184591
0.00187907
0.00186087
0.0018445
0.00184664
0.00184359
0.0018549
0.00185501
0.00186146
0.00186401
0.00187963
0.00186477
0.00187692
0.00189835
0.00194929
0.00198287
0.00203094
0.00205429
0.00209127
0.00212673
0.00212968
0.00218281
0.00219028
0.00219455
0.00218874
0.00211187
0.0020661
0.00207018
0.00209235
0.00212254
0.00211615
0.00216284
0.00222983
0.00236231
0.00245348
0.00254976
0.00262165
0.00271495
0.00278664
0.00289042
0.00297021
0.00308482
0.00317105
0.00328787
0.00337268
0.00347872
0.00355419
0.00363943
0.00369259
0.00187589
0.00188012
0.00188493
0.00188354
0.00186288
0.00184929
0.00183547
0.00184341
0.00186408
0.00187621
0.0018835
0.00188163
0.00188351
0.00187925
0.00188461
0.00188582
0.00189526
0.0018991
0.00190917
0.00191751
0.00192554
0.0019383
0.00193877
0.00195111
0.00199116
0.00197527
0.00198155
0.0019912
0.00199344
0.00198517
0.00199463
0.00198997
0.00200184
0.00200355
0.00201683
0.0020169
0.0020206
0.00202373
0.00201369
0.00202201
0.00202297
0.0020234
0.00204984
0.00204607
0.00208182
0.00207608
0.00213221
0.0022608
0.00235868
0.00244064
0.0025103
0.00258046
0.00263988
0.00270561
0.00276476
0.00284133
0.00291012
0.00300199
0.00307981
0.00318401
0.00326546
0.00337371
0.00345079
0.00355187
0.00361655
0.00369942
0.00374874
0.00380278
0.00383812
0.00196
0.0019591
0.00195681
0.00195103
0.00194247
0.00193749
0.00193456
0.00193257
0.00192767
0.00191712
0.00192726
0.00195038
0.00197456
0.00198655
0.00199432
0.00200544
0.00200642
0.00200868
0.00201677
0.00203645
0.00205741
0.00208373
0.00210764
0.00213277
0.00215498
0.00217118
0.00218463
0.0021929
0.00220557
0.00221303
0.00222697
0.00225295
0.00222201
0.00227256
0.00217544
0.00217896
0.00213202
0.00207909
0.00214611
0.00215797
0.00224638
0.00231521
0.00237172
0.00242338
0.00247232
0.00252288
0.00257312
0.00262592
0.00267816
0.0027353
0.00279272
0.0028575
0.00292265
0.00299765
0.00307141
0.00315678
0.00323676
0.00332951
0.00341035
0.00350437
0.00357869
0.00366551
0.00372556
0.00379767
0.00383598
0.00389185
0.00390024
0.00394489
0.0039173
0.00208272
0.00208111
0.00207743
0.00207252
0.00206572
0.0020585
0.00205417
0.00205065
0.00205121
0.00203795
0.00203892
0.00205035
0.0020698
0.00208581
0.00210539
0.00210949
0.00212027
0.00211427
0.00212299
0.00211601
0.0021296
0.00212205
0.00213815
0.00213002
0.00213658
0.00215644
0.0021441
0.00220148
0.00222953
0.00228187
0.00231433
0.00234199
0.00235631
0.00238124
0.00240093
0.00242799
0.00245803
0.00249035
0.00252878
0.00256918
0.00261198
0.00265621
0.00270115
0.002748
0.00279626
0.00284757
0.00290103
0.00295894
0.00301949
0.00308506
0.0031524
0.0032254
0.00329873
0.00337784
0.0034544
0.00353655
0.00361138
0.00369166
0.00375812
0.00383031
0.00388174
0.00393909
0.00397124
0.00400805
0.00401926
0.00403319
0.0040218
0.00401589
0.00397285
0.00226364
0.0022617
0.00225809
0.00225475
0.0022494
0.00224589
0.00224286
0.00223462
0.00222654
0.00222755
0.0022037
0.00219589
0.00220407
0.00218867
0.00220562
0.00225101
0.00228752
0.00230788
0.0023244
0.00233037
0.00234282
0.0023494
0.0023646
0.00236918
0.00238424
0.00238699
0.00240748
0.00240955
0.00243414
0.00243724
0.00245018
0.00247458
0.00244836
0.0024915
0.00260619
0.00270018
0.00277488
0.00283736
0.00289315
0.00294563
0.0029968
0.00304831
0.00310078
0.00315523
0.00321151
0.00327049
0.00333137
0.00339528
0.00346101
0.00352993
0.00359931
0.00367048
0.0037394
0.00380929
0.00387369
0.00393825
0.00399291
0.00404779
0.00408711
0.00412832
0.00414742
0.00417157
0.00416829
0.00417246
0.00414621
0.00412928
0.00407865
0.00403988
0.00395804
0.00252389
0.00252447
0.00252373
0.00251951
0.00251507
0.00250728
0.00250247
0.00249148
0.0024839
0.00247344
0.00246533
0.00245597
0.00245387
0.00245617
0.00245645
0.00246703
0.00247716
0.00248245
0.00250544
0.0025144
0.00249643
0.00252936
0.00261485
0.00268316
0.00274143
0.00278709
0.00283125
0.00286898
0.00290965
0.0029473
0.00298963
0.0030346
0.00308114
0.00313338
0.00319076
0.00324913
0.0033066
0.00336291
0.00341837
0.00347349
0.00352867
0.00358435
0.00364057
0.00369756
0.003755
0.00381301
0.00387082
0.00392869
0.00398517
0.00404146
0.00409551
0.00414857
0.00419704
0.00424257
0.00428044
0.00431496
0.00433869
0.00435962
0.00436562
0.00437107
0.00435547
0.00434435
0.00430568
0.0042755
0.00421145
0.00416194
0.0040652
0.00399526
0.00386051
0.00292312
0.00293572
0.00294686
0.0029549
0.00296137
0.00296424
0.00296735
0.00296675
0.00296769
0.00296683
0.00296901
0.00297195
0.00297935
0.00299242
0.00300636
0.00302902
0.00305328
0.00308068
0.00311633
0.00315333
0.00319411
0.00324384
0.00329994
0.00335604
0.00341071
0.00346343
0.0035145
0.00356478
0.00361424
0.00366438
0.0037135
0.00376376
0.00381374
0.00386345
0.00391363
0.00396382
0.00401363
0.00406284
0.00411131
0.00415892
0.00420555
0.00425113
0.00429543
0.00433832
0.00437942
0.00441858
0.00445523
0.00448932
0.00451995
0.00454742
0.00457037
0.00459041
0.00460525
0.00461724
0.00462115
0.00462058
0.00461005
0.0045957
0.00456842
0.00453841
0.004489
0.00444429
0.00437024
0.00430429
0.004201
0.00410889
0.00396264
0.00384991
0.00365695
0.00352661
0.0035546
0.00358222
0.00360884
0.00363484
0.0036594
0.00368325
0.003706
0.00372861
0.00375105
0.00377477
0.00379998
0.00382742
0.00385796
0.00389159
0.00392847
0.0039689
0.00401237
0.00405731
0.00410541
0.00415277
0.00419805
0.00424371
0.00429024
0.00433673
0.00438262
0.00442752
0.0044713
0.00451382
0.00455512
0.00459503
0.00463358
0.00467065
0.00470613
0.00473997
0.00477204
0.00480223
0.00483047
0.00485661
0.00488052
0.00490205
0.00492107
0.00493739
0.00495083
0.00496117
0.00496827
0.0049718
0.00497172
0.00496751
0.00495943
0.00494645
0.00492943
0.00490773
0.0048834
0.00485367
0.00482023
0.00477894
0.00473316
0.00467744
0.00461228
0.00453232
0.00445677
0.00434413
0.00423883
0.00408256
0.00393118
0.00373122
0.00355736
0.00333812
0.00450238
0.00454266
0.00458204
0.00462044
0.00465766
0.00469367
0.00472826
0.00476181
0.00479408
0.00482564
0.00485634
0.00488684
0.00491701
0.00494721
0.00497795
0.00500836
0.00503941
0.00507027
0.00510082
0.00513132
0.0051616
0.00519139
0.00522055
0.00524892
0.00527626
0.00530233
0.00532694
0.0053499
0.00537107
0.00539032
0.00540755
0.00542263
0.00543546
0.00544592
0.00545391
0.00545933
0.00546208
0.00546211
0.00545926
0.00545356
0.0054448
0.00543286
0.00541767
0.00539904
0.00537705
0.00535147
0.00532232
0.00528943
0.00525256
0.00521186
0.00516623
0.00511763
0.00506384
0.00500927
0.00494852
0.00488876
0.00482445
0.00475331
0.0046739
0.00456509
0.00446438
0.00435935
0.00419379
0.00402824
0.00378076
0.00356114
0.00330793
0.00311717
0.00277287
0.00541814
0.00544715
0.00547584
0.00550425
0.00553219
0.00555954
0.00558619
0.00561206
0.00563707
0.00566119
0.00568437
0.00570665
0.00572803
0.00574857
0.00576832
0.00578726
0.00580545
0.00582283
0.00583932
0.00585498
0.00586964
0.00588322
0.00589539
0.00590591
0.00591453
0.00592123
0.00592586
0.00592851
0.00592906
0.00592734
0.00592324
0.00591662
0.00590739
0.00589546
0.00588075
0.00586313
0.00584252
0.00581895
0.00579217
0.00576269
0.0057293
0.0056923
0.00565206
0.00560787
0.00556092
0.00551001
0.0054558
0.00539728
0.00533494
0.0052678
0.00519542
0.00512181
0.00504235
0.00496346
0.00487297
0.00480018
0.00472307
0.00462792
0.00451275
0.00433718
0.00418828
0.0039808
0.00371635
0.00345993
0.00315163
0.00294757
0.0025575
0.00243061
0.00199535
0.00588451
0.00590638
0.00592739
0.00594758
0.00596689
0.00598526
0.00600273
0.00601932
0.006035
0.00604963
0.00606311
0.00607536
0.00608636
0.00609621
0.00610494
0.00611255
0.00611923
0.00612495
0.00612971
0.00613497
0.00613904
0.00614335
0.00614499
0.00614367
0.00613874
0.00613139
0.00612137
0.00611144
0.00609936
0.00608482
0.00606748
0.00604699
0.00602348
0.00599701
0.0059675
0.00593449
0.0058982
0.00585937
0.00581741
0.00577397
0.00572046
0.00566566
0.00560991
0.00554756
0.00548643
0.00541729
0.00534433
0.00526481
0.00518098
0.00508803
0.00499143
0.00489559
0.00479077
0.00468374
0.00456206
0.00445181
0.00430081
0.00411695
0.00390707
0.00366005
0.0034206
0.00316699
0.00287939
0.00266675
0.0024219
0.00216292
0.00184833
0.00164694
0.00142496
0.00588619
0.00589782
0.00590895
0.00591844
0.0059268
0.00593341
0.00593961
0.00594604
0.00595253
0.00595788
0.00596167
0.00596357
0.00596374
0.0059631
0.00596084
0.00595701
0.00595233
0.00594657
0.00593908
0.00594431
0.00594316
0.00596987
0.00597167
0.00596382
0.00594014
0.00591047
0.00588095
0.00588554
0.00587328
0.00585785
0.00583751
0.0058102
0.00577918
0.00574611
0.00570923
0.00566509
0.00561848
0.00557241
0.00552232
0.00545988
0.00535962
0.00529354
0.0052263
0.00512582
0.00504991
0.00494816
0.0048378
0.00472715
0.00461158
0.00448537
0.00435439
0.00421838
0.00407315
0.00391707
0.00375076
0.00356779
0.00338334
0.00317634
0.00296381
0.00272808
0.0025069
0.00228487
0.00202545
0.00187028
0.00159788
0.00141127
0.00136357
0.00134747
0.00158015
0.00540831
0.00538837
0.00539194
0.00538246
0.00537516
0.00535142
0.00534258
0.00534978
0.005364
0.00536996
0.00537006
0.00536432
0.00535376
0.00534376
0.00532268
0.00530227
0.0052619
0.00522469
0.00516724
0.00512925
0.00509724
0.00508951
0.0050764
0.00503821
0.00499602
0.00495213
0.00488537
0.00483747
0.00479146
0.00476799
0.00472863
0.00465535
0.00460096
0.00456744
0.00452211
0.00443655
0.00437555
0.00434228
0.00428988
0.0041936
0.00412082
0.00405188
0.00399753
0.00393421
0.00386729
0.00379394
0.00371236
0.00362093
0.0035186
0.00340591
0.00328506
0.00315458
0.00301818
0.0028677
0.00270928
0.00254067
0.00237129
0.00216559
0.00200185
0.00178822
0.00169008
0.00146026
0.00134099
0.00127611
0.00117766
0.00131996
0.00152345
0.0019194
0.00226573
0.00422575
0.00419936
0.00419087
0.00417197
0.00415332
0.00412192
0.00410545
0.00409262
0.00406105
0.00403798
0.0040162
0.00400668
0.00398974
0.00395742
0.00394239
0.00391644
0.00389203
0.00385027
0.0038154
0.00378201
0.00375117
0.00373674
0.00371429
0.00368251
0.00364257
0.00358914
0.00355621
0.00351593
0.00346011
0.00343032
0.00337411
0.00334139
0.00329396
0.00324375
0.0032004
0.00313231
0.00309688
0.00306571
0.00302818
0.00297158
0.00292307
0.00285069
0.00277749
0.00270506
0.00263276
0.00255823
0.00247744
0.00239108
0.00229307
0.00218956
0.00208016
0.00195903
0.00184752
0.00172803
0.00163794
0.00150359
0.00136908
0.00125535
0.00118728
0.0011406
0.0010838
0.00107848
0.00113
0.00124891
0.00147148
0.00168448
0.00197286
0.00216631
0.00256917
0.00226168
0.00225436
0.00223399
0.00222501
0.00220279
0.00218605
0.00217717
0.0021639
0.00214025
0.00212295
0.00210628
0.00209808
0.00208453
0.00206241
0.00205292
0.00203029
0.00202028
0.0019956
0.00198506
0.00196079
0.0019488
0.00192367
0.00190968
0.00188269
0.00186735
0.00183915
0.00181291
0.00178643
0.00175982
0.00173333
0.00170659
0.00167966
0.0016523
0.00162245
0.00158956
0.00155266
0.00152975
0.00147839
0.00145525
0.00139218
0.0013625
0.00129624
0.00126039
0.00121529
0.00116662
0.00111832
0.00106779
0.00102527
0.000968039
0.000944618
0.000910475
0.000861168
0.00088324
0.000848257
0.000841222
0.000818925
0.00085189
0.000875025
0.000925436
0.000972291
0.00103655
0.00112084
0.00122825
0.00140562
0.0015615
0.00179577
0.00180914
0.00185963
0.00199885
0.000415749
0.000412036
0.00041543
0.000414433
0.000416189
0.000416267
0.000416877
0.000421595
0.000421344
0.000424923
0.00042558
0.000429035
0.000425053
0.000428414
0.000426935
0.000431699
0.000429809
0.000430292
0.000435816
0.000440149
0.000439436
0.000442497
0.000439549
0.000439017
0.000443196
0.000444548
0.000445453
0.000446063
0.000446584
0.000447087
0.000447591
0.000448084
0.000448555
0.000448989
0.000449387
0.000449711
0.00044999
0.000450176
0.000450293
0.000450297
0.000450189
0.000449941
0.000449532
0.000448925
0.000448084
0.000446978
0.000445482
0.000443633
0.000441133
0.000438032
0.000434092
0.000428836
0.000422391
0.00041367
0.000402263
0.000386101
0.00036382
0.000330639
0.000279836
0.000278571
0.000373851
0.000404598
0.000397432
0.000383532
0.000368585
0.000344071
0.000333524
0.00033357
0.000331059
0.00131653
0.00131452
0.00131394
0.00131203
0.00131212
0.00131097
0.00131149
0.00131124
0.00130958
0.00130626
0.00130375
0.00130198
0.00130467
0.00130323
0.001302
0.00129964
0.00130232
0.00130356
0.00130549
0.0013069
0.00130828
0.00131127
0.00131242
0.00131305
0.00131469
0.00131633
0.0013197
0.00132479
0.00132842
0.00132788
0.00132605
0.00132614
0.00132672
0.00132901
0.00133129
0.00133203
0.00133322
0.00133335
0.00133192
0.00133234
0.00133181
0.0013313
0.00133135
0.00133207
0.00133415
0.00133434
0.00133057
0.00133073
0.00133238
0.001335
0.00133573
0.00133738
0.00134096
0.00134057
0.00133885
0.00133801
0.00133795
0.00133789
0.00133971
0.00131907
0.00131741
0.00131687
0.00131541
0.0013155
0.00131428
0.00131537
0.00131341
0.00131192
0.00130932
0.00130802
0.0013082
0.00130808
0.00130657
0.00130586
0.00130596
0.00130935
0.00131064
0.00131207
0.00131332
0.00131523
0.00131818
0.00131862
0.00131964
0.00132108
0.00132281
0.00132621
0.00133131
0.00133451
0.00133423
0.00133277
0.00133268
0.00133303
0.00133421
0.00133741
0.0013382
0.00133823
0.00133972
0.00134002
0.0013401
0.00133928
0.00133802
0.00133886
0.00133913
0.00134056
0.00134295
0.00134033
0.00133879
0.00133899
0.00133815
0.00134145
0.00134575
0.00134812
0.00134751
0.00134677
0.00134596
0.00134578
0.00134499
0.00134495
0.00131883
0.00131944
0.00131906
0.00131915
0.00131924
0.00131969
0.00131803
0.00131766
0.00131662
0.00131568
0.00131463
0.00131375
0.00131312
0.00131269
0.00131294
0.00131543
0.00131764
0.00131853
0.00131961
0.00132112
0.00132357
0.00132614
0.00132641
0.00132722
0.00132844
0.00133026
0.00133369
0.00133869
0.00134165
0.00134148
0.00134042
0.00134025
0.00134028
0.00134235
0.00134411
0.00134581
0.00134771
0.0013476
0.00134743
0.00134756
0.00134727
0.00134726
0.0013479
0.00134791
0.00134773
0.00135046
0.00135098
0.00135037
0.00134987
0.00134804
0.00134894
0.00135071
0.00135628
0.00135967
0.00136185
0.00136341
0.00136469
0.00136395
0.00136213
0.00132596
0.00132673
0.00132658
0.0013265
0.00132585
0.00132495
0.0013223
0.00132106
0.00132269
0.00132188
0.00132165
0.00132172
0.001322
0.00132248
0.00132374
0.00132548
0.00132637
0.00132729
0.00132881
0.00133083
0.00133366
0.00133517
0.00133515
0.00133586
0.00133706
0.00133912
0.00134247
0.00134728
0.00134999
0.00134996
0.00134929
0.00134892
0.00134938
0.00134995
0.00135348
0.00135423
0.0013549
0.00135813
0.0013588
0.00135885
0.00135754
0.0013587
0.00135741
0.0013589
0.00135861
0.00135908
0.00135787
0.00135813
0.00135947
0.00135993
0.00135954
0.00136065
0.00136302
0.0013646
0.00137012
0.00137292
0.00137492
0.00137798
0.001378
0.00133604
0.00133514
0.00133366
0.00133151
0.00133037
0.00132899
0.00132779
0.00132956
0.00133102
0.00133111
0.00133162
0.00133168
0.00133217
0.00133288
0.00133415
0.00133584
0.00133693
0.00133793
0.00133919
0.00134156
0.00134361
0.00134483
0.00134497
0.00134558
0.00134691
0.00134925
0.00135263
0.00135723
0.00135979
0.00135996
0.0013596
0.00135929
0.00135922
0.00136143
0.00136222
0.00136524
0.00136676
0.001367
0.001368
0.00137006
0.00136929
0.00137043
0.0013704
0.00137023
0.00137253
0.00137473
0.00137647
0.00137425
0.00137142
0.00137184
0.00137534
0.00137441
0.00137743
0.00137666
0.00137996
0.00138177
0.00138374
0.00139064
0.00139119
0.00134075
0.00134079
0.00134002
0.00134073
0.0013399
0.00133964
0.00134068
0.00134165
0.00134222
0.00134284
0.00134346
0.00134413
0.00134467
0.00134601
0.00134771
0.00134895
0.00134996
0.00135069
0.00135181
0.00135421
0.00135583
0.00135686
0.00135699
0.00135757
0.00135896
0.00136146
0.00136481
0.00136913
0.00137155
0.00137194
0.00137184
0.00137151
0.00137181
0.00137236
0.00137574
0.0013763
0.00137872
0.00138106
0.00138261
0.0013833
0.00138337
0.00138373
0.00138498
0.00138608
0.00138557
0.001389
0.00139184
0.00139303
0.00139022
0.00138783
0.00138717
0.00138995
0.00139258
0.00139554
0.00139495
0.00139563
0.00139767
0.00140352
0.00140472
0.00135301
0.00135597
0.00135436
0.00135398
0.00135491
0.00135516
0.00135439
0.00135606
0.00135682
0.0013579
0.00135926
0.00136024
0.00136097
0.00136237
0.0013632
0.00136412
0.00136451
0.00136468
0.0013663
0.00136802
0.00136931
0.00137032
0.00137054
0.0013712
0.00137281
0.00137559
0.00137898
0.00138308
0.00138547
0.00138611
0.00138628
0.00138611
0.00138599
0.00138804
0.00138851
0.00139332
0.00139332
0.00139324
0.00139785
0.00140083
0.00140131
0.00139882
0.00140061
0.00140177
0.00140592
0.00140559
0.0014113
0.00141388
0.00141925
0.0014171
0.00141618
0.00141646
0.0014154
0.00141467
0.00141796
0.00141733
0.00142053
0.00142198
0.00142183
0.00137491
0.00137605
0.00137367
0.00137357
0.00137366
0.00137374
0.00137531
0.00137404
0.0013752
0.00137584
0.00137728
0.00137855
0.00137896
0.00138043
0.00138097
0.0013816
0.00138151
0.00138219
0.00138379
0.00138511
0.00138612
0.00138691
0.0013874
0.00138827
0.00138997
0.00139286
0.00139618
0.0014
0.00140236
0.00140322
0.00140363
0.0014036
0.0014037
0.00140459
0.0014079
0.00140915
0.00141384
0.00141546
0.00141437
0.00141813
0.00141934
0.00142291
0.00142214
0.00142155
0.00142033
0.00141899
0.00142181
0.00142089
0.00142409
0.00142883
0.00143053
0.00143166
0.00143762
0.00144134
0.00144311
0.001444
0.00144376
0.00144436
0.00144605
0.00139064
0.00139125
0.00139015
0.00138895
0.00139046
0.00139312
0.00139343
0.00139605
0.00139632
0.00139734
0.00139844
0.00139928
0.00139962
0.00140077
0.00140129
0.00140085
0.00140109
0.00140174
0.00140331
0.00140404
0.00140502
0.00140578
0.00140658
0.00140774
0.00140971
0.00141278
0.00141625
0.00141987
0.00142233
0.0014235
0.00142419
0.00142437
0.00142451
0.00142603
0.0014259
0.00143176
0.00143056
0.00143602
0.00144007
0.00144014
0.00144242
0.00144086
0.00144423
0.001449
0.00145009
0.00145413
0.00145231
0.00145755
0.00145499
0.00145589
0.00145581
0.00145673
0.00146264
0.00146265
0.00146611
0.00147037
0.0014725
0.00147392
0.00147716
0.00141591
0.00141676
0.00141738
0.00142006
0.00142463
0.00142338
0.00142284
0.00142177
0.00141841
0.00142054
0.00141957
0.00142296
0.00142203
0.00142371
0.00142424
0.00142487
0.00142563
0.00142614
0.00142747
0.00142818
0.00142915
0.00143003
0.00143102
0.00143238
0.00143441
0.0014376
0.00144095
0.00144432
0.00144684
0.00144826
0.00144921
0.00144965
0.00145001
0.00145138
0.00145359
0.00145372
0.00146232
0.00146087
0.00146596
0.00147038
0.00147354
0.00147078
0.00147185
0.00147629
0.0014768
0.00147668
0.00147808
0.00148359
0.00148875
0.00149133
0.00149453
0.00149797
0.00149935
0.0015004
0.00149942
0.00149959
0.00149989
0.00150112
0.00150259
0.00147197
0.00147221
0.00147119
0.00147045
0.00146937
0.00146738
0.00146357
0.00146072
0.00145618
0.00145462
0.00145113
0.00145037
0.00144979
0.00145286
0.00145075
0.00145302
0.00145339
0.00145377
0.00145498
0.00145574
0.00145664
0.00145753
0.00145881
0.00146056
0.00146289
0.00146632
0.00146973
0.00147308
0.00147586
0.00147767
0.00147897
0.00147969
0.00148027
0.00148149
0.00148331
0.00148626
0.00148769
0.0014995
0.0014959
0.00149731
0.00150594
0.00150731
0.00150799
0.00151064
0.0015162
0.00152332
0.00151693
0.00151382
0.0015153
0.00151938
0.00152185
0.0015238
0.00152672
0.00152563
0.00153239
0.0015348
0.00154181
0.00154638
0.00154838
0.0015164
0.0015152
0.00151313
0.00151074
0.0015081
0.00150503
0.001502
0.00149979
0.00149734
0.00149628
0.00149346
0.00149069
0.0014881