/*--------------------------------*- C++ -*----------------------------------*\
| =========                 |                                                 |
| \\      /  F ield         | OpenFOAM: The Open Source CFD Toolbox           |
|  \\    /   O peration     | Version:  2312                                  |
|   \\  /    A nd           | Website:  www.openfoam.com                      |
|    \\/     M anipulation  |                                                 |
\*---------------------------------------------------------------------------*/
FoamFile
{
    version     2.0;
    format      ascii;
    arch        "LSB;label=32;scalar=64";
    class       volScalarField;
    location    "1100";
    object      p;
}
// * * * * * * * * * * * * * * * * * * * * * * * * * * * * * * * * * * * * * //

dimensions      [0 2 -2 0 0 0 0];

internalField   nonuniform List<scalar> 
76025
(
-0.0432005
-0.0497147
-0.0563683
-0.0630643
-0.0696895
-0.0764124
-0.0833263
-0.0899977
-0.0968329
-0.103538
-0.110277
-0.117033
-0.123817
-0.130552
-0.137346
-0.144066
-0.150636
-0.157209
-0.163776
-0.170168
-0.176433
-0.182739
-0.188885
-0.194851
-0.20072
-0.20639
-0.212156
-0.217781
-0.222957
-0.228274
-0.233117
-0.237738
-0.242494
-0.247041
-0.251333
-0.25527
-0.258805
-0.262534
-0.265956
-0.269168
-0.271967
-0.274521
-0.27732
-0.279777
-0.281935
-0.283656
-0.285378
-0.287003
-0.288095
-0.289053
-0.289944
-0.290517
-0.291064
-0.291677
-0.292127
-0.291884
-0.292113
-0.291911
-0.29175
-0.291572
-0.291215
-0.290921
-0.290901
-0.290945
-0.290834
-0.290447
-0.290563
-0.291452
-0.292304
-0.0468014
-0.0536975
-0.0606405
-0.0676512
-0.0746998
-0.0817938
-0.0888798
-0.0959717
-0.103094
-0.11021
-0.117342
-0.124464
-0.131575
-0.138658
-0.145674
-0.152617
-0.159551
-0.166381
-0.173199
-0.179868
-0.186496
-0.19299
-0.199364
-0.205596
-0.211733
-0.217763
-0.223662
-0.229314
-0.23476
-0.240045
-0.245139
-0.250172
-0.255012
-0.259549
-0.263891
-0.267967
-0.271841
-0.275515
-0.278959
-0.282216
-0.285173
-0.287928
-0.290507
-0.292807
-0.294875
-0.296698
-0.298356
-0.299802
-0.300985
-0.302013
-0.302897
-0.303577
-0.304148
-0.304632
-0.304938
-0.305034
-0.305176
-0.305174
-0.305072
-0.304921
-0.304851
-0.304882
-0.304891
-0.304994
-0.305139
-0.305357
-0.305827
-0.306743
-0.307521
-0.050715
-0.0579477
-0.0652402
-0.0726181
-0.0800431
-0.0874624
-0.0948909
-0.102347
-0.109822
-0.11731
-0.124794
-0.132255
-0.139686
-0.147073
-0.154396
-0.161678
-0.168902
-0.176059
-0.183133
-0.190119
-0.197
-0.203755
-0.21039
-0.216898
-0.223277
-0.229508
-0.235549
-0.241396
-0.247062
-0.252539
-0.257858
-0.262996
-0.267884
-0.272526
-0.276947
-0.281136
-0.285086
-0.288793
-0.292276
-0.295524
-0.298508
-0.301244
-0.30376
-0.306067
-0.308154
-0.31001
-0.311645
-0.313074
-0.314287
-0.315303
-0.316146
-0.316824
-0.317366
-0.317797
-0.318113
-0.318301
-0.318425
-0.31849
-0.318501
-0.318516
-0.318588
-0.31874
-0.318956
-0.3193
-0.31977
-0.320382
-0.321179
-0.322412
-0.323444
-0.0548513
-0.0624498
-0.0701183
-0.0778731
-0.0856644
-0.0934609
-0.101269
-0.109095
-0.116933
-0.124773
-0.132601
-0.140406
-0.148177
-0.155907
-0.163586
-0.171208
-0.178761
-0.186235
-0.193618
-0.200898
-0.208064
-0.215107
-0.222017
-0.228783
-0.235391
-0.241831
-0.24809
-0.254161
-0.260036
-0.265709
-0.271176
-0.276421
-0.281429
-0.286198
-0.290726
-0.295008
-0.299038
-0.302818
-0.306347
-0.309621
-0.312633
-0.315391
-0.317915
-0.320212
-0.322274
-0.324097
-0.325691
-0.327068
-0.328234
-0.329205
-0.330006
-0.330654
-0.331167
-0.331565
-0.33186
-0.332062
-0.332203
-0.332317
-0.332421
-0.332555
-0.332762
-0.333074
-0.333502
-0.334078
-0.334824
-0.335779
-0.336948
-0.338555
-0.339963
-0.0593684
-0.06736
-0.0754226
-0.0835748
-0.0917632
-0.0999582
-0.108161
-0.116378
-0.124603
-0.132826
-0.141033
-0.149213
-0.157357
-0.165455
-0.173497
-0.181473
-0.189371
-0.197179
-0.204888
-0.212484
-0.219956
-0.227294
-0.234484
-0.241515
-0.248375
-0.255055
-0.261544
-0.267831
-0.273905
-0.279757
-0.285381
-0.290768
-0.29591
-0.300797
-0.305425
-0.309788
-0.313883
-0.317709
-0.321264
-0.324547
-0.32756
-0.330306
-0.332799
-0.335046
-0.337051
-0.338816
-0.340348
-0.341658
-0.34276
-0.34367
-0.344411
-0.345
-0.345457
-0.345804
-0.346061
-0.34625
-0.346402
-0.34655
-0.346725
-0.346963
-0.3473
-0.347766
-0.348384
-0.349187
-0.350206
-0.351499
-0.353054
-0.355111
-0.35708
-0.0643592
-0.0727692
-0.0812511
-0.0898257
-0.0984364
-0.107051
-0.115672
-0.124304
-0.132943
-0.141576
-0.150188
-0.158769
-0.167308
-0.175794
-0.184216
-0.192563
-0.200822
-0.208982
-0.21703
-0.224955
-0.232744
-0.240386
-0.247866
-0.255174
-0.262298
-0.269225
-0.275945
-0.282445
-0.288715
-0.294747
-0.300531
-0.306062
-0.311328
-0.316322
-0.321037
-0.325466
-0.329609
-0.333463
-0.337028
-0.340305
-0.343297
-0.346008
-0.34845
-0.350633
-0.352565
-0.35425
-0.355698
-0.356922
-0.357937
-0.358761
-0.359414
-0.359916
-0.360292
-0.360567
-0.360768
-0.360923
-0.361065
-0.361229
-0.361453
-0.36177
-0.362214
-0.362816
-0.363607
-0.364629
-0.365919
-0.367542
-0.369483
-0.372003
-0.374512
-0.0698659
-0.07872
-0.0876474
-0.0966707
-0.10573
-0.11479
-0.123853
-0.132925
-0.142
-0.151066
-0.160106
-0.169108
-0.178061
-0.186954
-0.195776
-0.204514
-0.213154
-0.221683
-0.230088
-0.238357
-0.246477
-0.254435
-0.262218
-0.269813
-0.277208
-0.284391
-0.291347
-0.298066
-0.304535
-0.310745
-0.316688
-0.322355
-0.327738
-0.33283
-0.337622
-0.342111
-0.346294
-0.350169
-0.353737
-0.356996
-0.35995
-0.362605
-0.364973
-0.367069
-0.368903
-0.370483
-0.371818
-0.372922
-0.373813
-0.374511
-0.375041
-0.375425
-0.375691
-0.375869
-0.375988
-0.376083
-0.376189
-0.376346
-0.37659
-0.376956
-0.377478
-0.378194
-0.379144
-0.380376
-0.381933
-0.383873
-0.38619
-0.389141
-0.392069
-0.0759399
-0.0852659
-0.094667
-0.104167
-0.113703
-0.123238
-0.132771
-0.142311
-0.15185
-0.161374
-0.170865
-0.180313
-0.189704
-0.199026
-0.208269
-0.217417
-0.226456
-0.235373
-0.244154
-0.252785
-0.261254
-0.269545
-0.277644
-0.285538
-0.293214
-0.300657
-0.307855
-0.314796
-0.321468
-0.32786
-0.333961
-0.339764
-0.34526
-0.350441
-0.355299
-0.359831
-0.364035
-0.367912
-0.37146
-0.374682
-0.377578
-0.380157
-0.38243
-0.384414
-0.38612
-0.387558
-0.388741
-0.389685
-0.390413
-0.390948
-0.391317
-0.391547
-0.391671
-0.391719
-0.391731
-0.391738
-0.391778
-0.391894
-0.392123
-0.392503
-0.393073
-0.393881
-0.394973
-0.3964
-0.398208
-0.400459
-0.403151
-0.406509
-0.409869
-0.0826581
-0.0924878
-0.102393
-0.112401
-0.122444
-0.132482
-0.142517
-0.152554
-0.162586
-0.172596
-0.182571
-0.192493
-0.202351
-0.212131
-0.22182
-0.231402
-0.240862
-0.250187
-0.259362
-0.268372
-0.277202
-0.285839
-0.294266
-0.302471
-0.310435
-0.318147
-0.325591
-0.332756
-0.339629
-0.346201
-0.352461
-0.358396
-0.364
-0.369264
-0.374179
-0.378741
-0.38295
-0.386804
-0.390305
-0.393459
-0.396267
-0.398735
-0.400878
-0.402709
-0.404245
-0.405499
-0.406489
-0.407235
-0.40776
-0.408095
-0.408265
-0.408308
-0.408256
-0.408143
-0.408009
-0.407887
-0.407818
-0.407849
-0.408021
-0.408378
-0.408967
-0.409841
-0.411051
-0.412653
-0.414695
-0.417256
-0.420339
-0.424164
-0.428157
-0.09011
-0.100476
-0.110918
-0.121465
-0.132047
-0.142621
-0.153187
-0.163753
-0.17431
-0.184843
-0.195332
-0.205761
-0.216118
-0.226386
-0.23655
-0.246594
-0.256503
-0.266261
-0.275852
-0.285261
-0.294472
-0.30347
-0.312239
-0.320762
-0.329024
-0.33701
-0.344705
-0.352096
-0.359167
-0.365912
-0.372319
-0.378377
-0.384076
-0.389409
-0.394369
-0.39895
-0.403149
-0.406964
-0.410396
-0.413449
-0.416128
-0.418443
-0.42041
-0.422043
-0.423364
-0.424388
-0.425134
-0.425631
-0.425902
-0.425982
-0.425906
-0.425707
-0.425425
-0.4251
-0.424765
-0.424466
-0.424252
-0.424165
-0.424247
-0.424549
-0.425125
-0.426032
-0.42733
-0.429076
-0.431334
-0.434186
-0.437657
-0.442037
-0.446828
-0.0984018
-0.10934
-0.120355
-0.131479
-0.142637
-0.153781
-0.164913
-0.17604
-0.187153
-0.198236
-0.209269
-0.220235
-0.231118
-0.241903
-0.252572
-0.263108
-0.273495
-0.283715
-0.293752
-0.303588
-0.313204
-0.322584
-0.33171
-0.340565
-0.349135
-0.357403
-0.365355
-0.372975
-0.38025
-0.387168
-0.393717
-0.399886
-0.405664
-0.411043
-0.41602
-0.420588
-0.424745
-0.42849
-0.431823
-0.434749
-0.437271
-0.439396
-0.441142
-0.442531
-0.443582
-0.444319
-0.444769
-0.444958
-0.444921
-0.44469
-0.444305
-0.443802
-0.443223
-0.442617
-0.442021
-0.441493
-0.441079
-0.440821
-0.440764
-0.440967
-0.441489
-0.442392
-0.443741
-0.445601
-0.448041
-0.451152
-0.454964
-0.459831
-0.465172
-0.107629
-0.119182
-0.130812
-0.142553
-0.154327
-0.166084
-0.177824
-0.189552
-0.201261
-0.212932
-0.224545
-0.236079
-0.24752
-0.25885
-0.270053
-0.281109
-0.292001
-0.30271
-0.313217
-0.323501
-0.333544
-0.343326
-0.35283
-0.362036
-0.37093
-0.379491
-0.387704
-0.395557
-0.403034
-0.410121
-0.416805
-0.423074
-0.428918
-0.434325
-0.439295
-0.443821
-0.447902
-0.451539
-0.454735
-0.457493
-0.459808
-0.461691
-0.463161
-0.464247
-0.464974
-0.465369
-0.465465
-0.465287
-0.464876
-0.464269
-0.463504
-0.462632
-0.461696
-0.460746
-0.45983
-0.459001
-0.458307
-0.457802
-0.457541
-0.457589
-0.458007
-0.458862
-0.460222
-0.462159
-0.464745
-0.468076
-0.472179
-0.477369
-0.482736
-0.117939
-0.130148
-0.142434
-0.154835
-0.167268
-0.179677
-0.192064
-0.204436
-0.216783
-0.229086
-0.241319
-0.253463
-0.2655
-0.277414
-0.289186
-0.300796
-0.312223
-0.323448
-0.334447
-0.345201
-0.355692
-0.365898
-0.375799
-0.385376
-0.394607
-0.403476
-0.411965
-0.420058
-0.427741
-0.434996
-0.44181
-0.44817
-0.454066
-0.459486
-0.464424
-0.46888
-0.47285
-0.476333
-0.479332
-0.481847
-0.483886
-0.485461
-0.486595
-0.487321
-0.487669
-0.487664
-0.487336
-0.486718
-0.485849
-0.484779
-0.483554
-0.482229
-0.480851
-0.479469
-0.478143
-0.476929
-0.475883
-0.475066
-0.474541
-0.474375
-0.474632
-0.475385
-0.476704
-0.478669
-0.481356
-0.48487
-0.489244
-0.494766
-0.500681
-0.129511
-0.142416
-0.155399
-0.168502
-0.181636
-0.194745
-0.207827
-0.220888
-0.233917
-0.246892
-0.259787
-0.272582
-0.285258
-0.297795
-0.310171
-0.322368
-0.334364
-0.346137
-0.357662
-0.368918
-0.379886
-0.390541
-0.400859
-0.410817
-0.420396
-0.42958
-0.43835
-0.446688
-0.454577
-0.461997
-0.46893
-0.475364
-0.481287
-0.486692
-0.491572
-0.495925
-0.499749
-0.503041
-0.505807
-0.508048
-0.509775
-0.511
-0.511747
-0.512047
-0.511932
-0.511431
-0.510573
-0.509404
-0.507966
-0.506316
-0.504514
-0.502616
-0.500679
-0.498763
-0.496933
-0.495251
-0.493777
-0.492576
-0.491715
-0.491263
-0.491292
-0.491876
-0.493093
-0.495028
-0.49776
-0.501395
-0.505973
-0.511812
-0.518222
-0.1425
-0.156155
-0.169887
-0.183745
-0.197633
-0.21149
-0.225314
-0.239111
-0.252872
-0.266569
-0.280175
-0.293667
-0.307022
-0.320222
-0.333243
-0.346066
-0.358669
-0.371028
-0.383118
-0.394914
-0.406389
-0.417519
-0.428277
-0.438642
-0.448594
-0.45811
-0.46717
-0.475754
-0.483839
-0.491409
-0.498447
-0.504934
-0.510865
-0.51623
-0.521024
-0.525245
-0.528887
-0.531949
-0.534433
-0.53634
-0.537675
-0.538457
-0.538711
-0.538469
-0.537768
-0.536646
-0.535145
-0.533317
-0.531213
-0.528889
-0.526407
-0.523833
-0.521237
-0.518688
-0.516252
-0.513997
-0.511991
-0.510305
-0.509011
-0.508183
-0.507899
-0.508235
-0.509277
-0.511106
-0.513813
-0.517492
-0.522206
-0.528148
-0.534997
-0.157119
-0.171581
-0.186117
-0.200779
-0.215468
-0.23012
-0.244731
-0.259312
-0.273851
-0.288321
-0.30269
-0.316931
-0.331019
-0.344934
-0.358651
-0.372145
-0.385396
-0.398375
-0.411057
-0.423418
-0.43543
-0.447065
-0.458301
-0.469112
-0.479472
-0.489353
-0.498731
-0.507581
-0.51588
-0.523609
-0.530753
-0.537296
-0.543225
-0.548527
-0.553194
-0.55722
-0.5606
-0.563337
-0.565432
-0.566892
-0.567724
-0.567947
-0.567596
-0.566703
-0.56531
-0.563464
-0.561213
-0.558613
-0.555721
-0.5526
-0.549318
-0.545948
-0.542566
-0.539248
-0.536072
-0.533115
-0.530455
-0.528169
-0.526335
-0.525031
-0.524336
-0.524332
-0.525103
-0.526737
-0.529327
-0.532976
-0.537754
-0.543796
-0.550635
-0.173653
-0.188979
-0.204378
-0.219907
-0.235458
-0.250962
-0.266419
-0.281838
-0.297205
-0.312492
-0.327669
-0.342708
-0.357583
-0.372267
-0.386733
-0.400952
-0.414895
-0.428536
-0.441848
-0.454806
-0.467384
-0.47955
-0.491277
-0.502539
-0.513304
-0.523548
-0.533242
-0.54236
-0.550879
-0.558777
-0.566034
-0.57263
-0.578544
-0.58376
-0.58826
-0.592039
-0.595098
-0.597442
-0.599079
-0.600016
-0.600263
-0.599841
-0.598782
-0.597127
-0.594921
-0.592213
-0.58906
-0.585521
-0.581666
-0.577569
-0.573308
-0.568966
-0.56463
-0.560387
-0.556324
-0.552527
-0.549081
-0.54607
-0.543575
-0.541677
-0.540456
-0.539994
-0.540377
-0.541698
-0.544056
-0.547572
-0.552349
-0.558626
-0.566145
-0.192427
-0.208678
-0.225002
-0.24146
-0.257937
-0.274361
-0.290731
-0.307053
-0.32331
-0.339472
-0.355513
-0.3714
-0.387108
-0.402611
-0.417877
-0.432876
-0.447578
-0.461952
-0.475962
-0.489581
-0.502779
-0.51552
-0.52777
-0.539501
-0.550684
-0.561292
-0.571296
-0.58067
-0.589388
-0.597423
-0.604749
-0.611343
-0.617185
-0.622255
-0.626541
-0.630035
-0.632734
-0.63464
-0.635757
-0.636088
-0.635645
-0.634453
-0.632549
-0.62998
-0.626795
-0.623053
-0.618816
-0.614154
-0.609147
-0.60388
-0.598446
-0.592941
-0.587463
-0.582112
-0.576986
-0.57218
-0.567787
-0.563896
-0.560591
-0.557954
-0.556064
-0.555003
-0.554856
-0.555716
-0.55769
-0.56091
-0.565511
-0.57177
-0.579582
-0.213884
-0.231137
-0.248461
-0.265925
-0.283406
-0.300826
-0.318181
-0.335477
-0.352698
-0.369813
-0.386784
-0.403583
-0.420184
-0.436557
-0.452673
-0.468501
-0.484007
-0.499154
-0.513906
-0.52823
-0.542089
-0.555446
-0.568269
-0.580523
-0.592176
-0.603193
-0.613542
-0.623192
-0.63211
-0.640267
-0.647636
-0.654193
-0.659915
-0.664786
-0.668797
-0.671933
-0.674186
-0.675553
-0.676034
-0.67563
-0.674356
-0.672241
-0.669325
-0.66566
-0.661304
-0.65632
-0.650781
-0.64477
-0.638377
-0.631704
-0.624858
-0.61795
-0.611095
-0.604406
-0.597996
-0.591972
-0.586434
-0.581476
-0.577184
-0.573639
-0.570918
-0.569097
-0.568257
-0.568489
-0.569896
-0.572615
-0.576791
-0.582696
-0.590291
-0.238506
-0.256852
-0.275267
-0.29383
-0.312407
-0.330915
-0.349349
-0.367712
-0.385987
-0.404139
-0.42213
-0.439928
-0.457502
-0.474823
-0.491855
-0.508568
-0.524924
-0.540882
-0.556411
-0.571469
-0.586017
-0.600023
-0.613452
-0.626262
-0.638414
-0.649868
-0.660585
-0.670528
-0.679662
-0.687952
-0.695369
-0.701882
-0.707468
-0.712104
-0.715774
-0.718463
-0.720161
-0.720863
-0.720564
-0.719268
-0.716991
-0.713764
-0.709634
-0.704656
-0.698892
-0.692414
-0.685306
-0.677663
-0.669593
-0.661214
-0.652651
-0.644037
-0.635505
-0.627192
-0.619225
-0.611728
-0.60481
-0.598572
-0.593098
-0.588465
-0.584742
-0.581996
-0.580297
-0.579727
-0.580379
-0.582383
-0.585876
-0.591096
-0.598009
-0.267067
-0.286594
-0.306192
-0.325948
-0.345718
-0.36541
-0.385017
-0.404541
-0.423961
-0.443239
-0.462336
-0.481217
-0.499848
-0.518196
-0.536225
-0.553899
-0.57118
-0.588025
-0.604397
-0.620255
-0.635557
-0.650262
-0.66433
-0.677718
-0.690383
-0.70228
-0.713368
-0.723602
-0.732944
-0.741354
-0.748795
-0.755232
-0.760636
-0.764979
-0.768237
-0.77039
-0.771425
-0.771333
-0.770104
-0.767743
-0.764267
-0.75971
-0.754121
-0.747557
-0.740089
-0.731796
-0.722776
-0.713141
-0.703017
-0.692547
-0.681881
-0.671177
-0.660598
-0.650305
-0.640452
-0.631183
-0.622623
-0.614874
-0.60802
-0.602125
-0.597242
-0.593418
-0.590707
-0.589174
-0.588905
-0.590021
-0.592654
-0.597024
-0.603027
-0.300254
-0.321034
-0.341882
-0.362901
-0.383932
-0.40488
-0.425734
-0.446495
-0.467136
-0.487619
-0.507901
-0.527945
-0.547713
-0.567169
-0.586275
-0.60499
-0.623273
-0.64108
-0.658369
-0.675093
-0.691207
-0.706665
-0.721422
-0.735429
-0.74864
-0.761007
-0.772481
-0.783015
-0.792561
-0.801077
-0.808517
-0.814842
-0.820014
-0.823998
-0.826763
-0.828282
-0.828536
-0.827507
-0.825185
-0.82157
-0.816678
-0.810546
-0.803223
-0.794768
-0.785258
-0.774783
-0.763455
-0.751404
-0.738786
-0.725769
-0.712537
-0.699284
-0.686209
-0.673512
-0.661383
-0.649996
-0.639497
-0.629999
-0.621576
-0.614272
-0.608106
-0.603094
-0.599263
-0.596655
-0.595351
-0.595478
-0.597205
-0.60079
-0.606272
-0.338594
-0.360699
-0.382875
-0.405228
-0.427596
-0.449877
-0.472058
-0.494136
-0.516082
-0.537856
-0.559413
-0.580711
-0.60171
-0.622369
-0.642647
-0.662499
-0.681881
-0.700744
-0.71904
-0.736719
-0.75373
-0.770023
-0.785547
-0.800251
-0.81408
-0.82698
-0.838897
-0.849775
-0.859562
-0.868205
-0.875653
-0.881858
-0.886775
-0.890359
-0.89257
-0.89337
-0.892729
-0.890622
-0.887027
-0.881938
-0.87537
-0.867359
-0.85795
-0.847207
-0.835212
-0.822069
-0.807905
-0.79288
-0.777185
-0.761028
-0.744635
-0.728249
-0.712125
-0.696516
-0.68166
-0.667775
-0.655036
-0.64356
-0.63341
-0.62459
-0.617077
-0.610835
-0.605851
-0.602153
-0.599828
-0.598981
-0.599799
-0.602484
-0.607461
-0.380345
-0.403878
-0.427458
-0.451238
-0.475043
-0.498758
-0.522367
-0.545862
-0.569216
-0.592385
-0.615326
-0.63799
-0.660332
-0.682306
-0.70387
-0.724976
-0.745573
-0.765605
-0.785023
-0.803765
-0.821773
-0.838995
-0.855376
-0.870861
-0.885386
-0.898888
-0.911307
-0.92258
-0.932646
-0.941443
-0.948912
-0.954993
-0.959637
-0.962792
-0.964398
-0.964404
-0.96277
-0.959459
-0.954444
-0.947709
-0.939277
-0.929183
-0.917454
-0.904152
-0.889361
-0.873192
-0.855783
-0.837324
-0.818043
-0.798189
-0.778045
-0.757928
-0.73817
-0.719101
-0.701036
-0.684249
-0.668952
-0.655272
-0.643256
-0.632864
-0.624
-0.616556
-0.610506
-0.60589
-0.602797
-0.601191
-0.60109
-0.602204
-0.605243
-0.429396
-0.454436
-0.479603
-0.504982
-0.530393
-0.555718
-0.580931
-0.606026
-0.630972
-0.655724
-0.680232
-0.704439
-0.7283
-0.751765
-0.774793
-0.797334
-0.819329
-0.840727
-0.861466
-0.881472
-0.900683
-0.919045
-0.936496
-0.952967
-0.968385
-0.982685
-0.995797
-1.00765
-1.01817
-1.02729
-1.03494
-1.04105
-1.04556
-1.04838
-1.04946
-1.04873
-1.04611
-1.04156
-1.035
-1.02642
-1.01579
-1.00313
-0.9885
-0.971951
-0.953567
-0.933473
-0.911826
-0.888838
-0.864778
-0.839972
-0.814793
-0.789664
-0.765043
-0.741401
-0.71919
-0.698807
-0.680543
-0.664547
-0.650813
-0.639166
-0.629312
-0.620986
-0.614121
-0.608791
-0.605099
-0.602787
-0.601502
-0.600377
-0.601002
-0.474711
-0.501604
-0.528394
-0.555398
-0.582441
-0.609379
-0.636185
-0.662859
-0.689371
-0.715671
-0.741704
-0.767417
-0.792763
-0.817691
-0.842149
-0.866075
-0.889409
-0.91209
-0.934046
-0.95521
-0.975527
-0.994926
-1.01333
-1.03067
-1.04687
-1.06186
-1.07555
-1.08787
-1.09873
-1.10807
-1.11579
-1.12181
-1.12606
-1.12845
-1.1289
-1.12731
-1.12362
-1.11772
-1.10959
-1.0992
-1.08652
-1.07155
-1.05435
-1.03494
-1.01338
-0.989768
-0.964265
-0.937079
-0.908496
-0.878898
-0.848745
-0.81857
-0.78898
-0.760642
-0.734239
-0.71041
-0.689638
-0.672129
-0.657745
-0.645952
-0.635921
-0.626935
-0.618846
-0.612005
-0.606772
-0.602972
-0.600276
-0.598082
-0.598072
-0.546439
-0.574949
-0.60393
-0.633115
-0.662328
-0.691465
-0.720501
-0.749426
-0.778206
-0.806784
-0.835103
-0.863106
-0.890738
-0.917942
-0.944654
-0.970806
-0.996329
-1.02115
-1.04521
-1.06843
-1.09074
-1.11207
-1.13233
-1.15143
-1.1693
-1.18584
-1.20097
-1.21459
-1.22662
-1.23697
-1.24554
-1.25224
-1.25698
-1.25967
-1.2602
-1.2584
-1.25408
-1.24707
-1.23718
-1.22436
-1.20861
-1.18995
-1.16841
-1.14403
-1.11684
-1.08695
-1.05451
-1.01974
-0.982964
-0.944638
-0.905325
-0.865727
-0.82668
-0.789167
-0.754289
-0.723207
-0.696957
-0.676149
-0.6607
-0.649509
-0.640539
-0.632008
-0.623463
-0.615653
-0.609523
-0.605118
-0.602299
-0.601225
-0.602737
-0.573024
-0.603643
-0.633686
-0.664127
-0.694739
-0.725245
-0.755601
-0.785822
-0.815883
-0.845734
-0.875305
-0.904532
-0.933358
-0.961725
-0.989574
-1.01684
-1.04345
-1.06933
-1.0944
-1.11859
-1.14182
-1.164
-1.18505
-1.20488
-1.2234
-1.24052
-1.25613
-1.27012
-1.28237
-1.2928
-1.30129
-1.30777
-1.31216
-1.31444
-1.31459
-1.31251
-1.308
-1.30085
-1.29078
-1.27758
-1.26111
-1.24134
-1.21822
-1.19171
-1.16177
-1.12842
-1.09173
-1.05183
-1.00898
-0.96358
-0.916272
-0.867962
-0.819879
-0.773623
-0.731135
-0.694527
-0.665788
-0.646283
-0.636038
-0.633105
-0.633495
-0.633308
-0.631036
-0.627458
-0.623858
-0.620451
-0.616959
-0.613986
-0.613324
-0.702236
-0.735978
-0.770652
-0.805425
-0.839998
-0.874371
-0.908599
-0.9427
-0.97665
-1.0104
-1.04387
-1.077
-1.1097
-1.14192
-1.17358
-1.20462
-1.23495
-1.26449
-1.29316
-1.32086
-1.34751
-1.37302
-1.39728
-1.42018
-1.44163
-1.4615
-1.47967
-1.49603
-1.51044
-1.52276
-1.53283
-1.54046
-1.54546
-1.54753
-1.54644
-1.54206
-1.5344
-1.52354
-1.50954
-1.49237
-1.47177
-1.44733
-1.4187
-1.38557
-1.34776
-1.30515
-1.25774
-1.20564
-1.14918
-1.08895
-1.02587
-0.961245
-0.896888
-0.835021
-0.778196
-0.729086
-0.69008
-0.662703
-0.646941
-0.640818
-0.640432
-0.641652
-0.641741
-0.640153
-0.637211
-0.633209
-0.62831
-0.623736
-0.623231
0.118993
0.121874
0.12495
0.128232
0.131698
0.135386
0.139314
0.14338
0.147587
0.15195
0.156498
0.161204
0.165925
0.171022
0.175698
0.180432
0.184703
0.189186
0.19326
0.197115
0.200855
0.203593
0.205949
0.207478
0.208361
0.208557
0.207653
0.205902
0.203371
0.199917
0.195095
0.189522
0.183204
0.176229
0.168099
0.159431
0.150321
0.140681
0.130624
0.120448
0.110009
0.0994276
0.0891387
0.0790552
0.0686491
0.0588659
0.0490302
0.0397714
0.0307579
0.0221328
0.0139563
0.00616884
-0.00116182
-0.00805423
-0.0145535
-0.0209362
-0.0267749
-0.0323008
-0.0374577
0.120767
0.123818
0.127099
0.130568
0.134246
0.138141
0.142251
0.146544
0.151019
0.155681
0.160496
0.165436
0.170463
0.175586
0.180735
0.185701
0.190575
0.195273
0.199731
0.203779
0.207504
0.210662
0.213176
0.214966
0.21599
0.216165
0.215438
0.213654
0.211087
0.207442
0.202544
0.19684
0.190332
0.182878
0.174553
0.165537
0.155989
0.145946
0.135502
0.124772
0.113864
0.102909
0.0920703
0.0812056
0.0705421
0.0601277
0.0499919
0.0402627
0.0308636
0.0218351
0.0132459
0.00509169
-0.00267756
-0.0100067
-0.0169848
-0.0235262
-0.0296494
-0.0353773
-0.0407464
0.122618
0.125858
0.129318
0.132996
0.136898
0.141023
0.145364
0.149914
0.154669
0.159616
0.164721
0.169945
0.175266
0.180662
0.186079
0.19146
0.196743
0.201801
0.206552
0.21091
0.214817
0.218246
0.220999
0.222992
0.22417
0.224419
0.223735
0.222003
0.219322
0.215554
0.210586
0.20469
0.197831
0.190031
0.18137
0.171992
0.16199
0.151491
0.140576
0.129367
0.117965
0.106448
0.0949586
0.0836
0.0724368
0.0615483
0.050957
0.0407147
0.030846
0.021375
0.012343
0.00374504
-0.00442045
-0.0121613
-0.0194419
-0.0262724
-0.0326873
-0.0386996
-0.0443481
0.12431
0.127741
0.131409
0.135311
0.139451
0.143828
0.148438
0.153275
0.158327
0.16358
0.169009
0.17458
0.180264
0.186018
0.191775
0.197506
0.203116
0.208521
0.213617
0.218334
0.22257
0.226244
0.229227
0.231421
0.23276
0.233129
0.2325
0.230783
0.228013
0.224128
0.219022
0.212886
0.205705
0.197576
0.188537
0.178737
0.168269
0.157258
0.14581
0.134055
0.122093
0.110021
0.0979742
0.0860792
0.0743694
0.0629322
0.0518103
0.0410476
0.0306847
0.0207476
0.011263
0.00224145
-0.00630973
-0.0143959
-0.022017
-0.0291868
-0.0359249
-0.0422441
-0.0481703
0.125883
0.129519
0.133409
0.137546
0.141937
0.14658
0.151474
0.156611
0.16198
0.167564
0.173339
0.179276
0.185336
0.191469
0.197613
0.203713
0.209687
0.215457
0.220926
0.226005
0.230582
0.234544
0.237779
0.24019
0.241699
0.2422
0.241647
0.239937
0.237096
0.233085
0.227806
0.22142
0.213935
0.20545
0.196009
0.185749
0.174786
0.163241
0.151231
0.138892
0.126344
0.1137
0.10108
0.0885887
0.0762924
0.0642699
0.0525834
0.0412807
0.0304021
0.019976
0.0100249
0.000561745
-0.00840925
-0.016891
-0.0248922
-0.0324229
-0.0394973
-0.0461302
-0.0523479
0.12738
0.131237
0.135362
0.13975
0.144407
0.149333
0.154525
0.159979
0.165681
0.171614
0.177754
0.184068
0.190516
0.197047
0.203602
0.210111
0.216493
0.222662
0.228522
0.233969
0.23889
0.243167
0.246682
0.249334
0.251028
0.251665
0.251192
0.249496
0.246592
0.242451
0.236989
0.230349
0.222547
0.213678
0.203805
0.193062
0.181573
0.169467
0.156872
0.143926
0.130759
0.117493
0.104242
0.0911122
0.0781902
0.0655544
0.0532715
0.0413939
0.0299637
0.0190113
0.00855758
-0.0013851
-0.0108133
-0.0197289
-0.0281382
-0.0360511
-0.0434824
-0.0504485
-0.056977
0.128758
0.132851
0.13723
0.141888
0.146833
0.152063
0.157579
0.163372
0.169431
0.175737
0.182266
0.188983
0.195847
0.202805
0.209794
0.21674
0.223559
0.230157
0.236432
0.242272
0.247559
0.252172
0.255989
0.258898
0.260793
0.261574
0.261183
0.259507
0.256542
0.252268
0.246616
0.239708
0.231567
0.222289
0.211957
0.2007
0.188651
0.17595
0.162731
0.149137
0.135306
0.121364
0.107434
0.0936271
0.0800384
0.0667505
0.0538321
0.0413391
0.0293156
0.0177951
0.00679956
-0.00365835
-0.0135738
-0.0229486
-0.0317892
-0.0401069
-0.0479176
-0.055239
-0.0620989
0.129975
0.134321
0.138971
0.143919
0.149172
0.15473
0.160593
0.166752
0.173195
0.179905
0.186853
0.194006
0.201318
0.208734
0.216188
0.223603
0.230888
0.237945
0.244665
0.250929
0.256612
0.261586
0.265724
0.268907
0.271018
0.271955
0.271651
0.269996
0.266972
0.262558
0.256701
0.249504
0.241003
0.231292
0.220469
0.208664
0.196018
0.182676
0.168787
0.154497
0.139951
0.125286
0.110631
0.0961029
0.0818032
0.0678189
0.0542228
0.0410741
0.0284187
0.0162918
0.00471792
-0.00628904
-0.0167232
-0.0265864
-0.035886
-0.0446348
-0.05285
-0.06055
-0.0677631
0.131001
0.135617
0.140556
0.145812
0.151394
0.157302
0.163535
0.170087
0.176944
0.184086
0.191487
0.199107
0.206902
0.214811
0.222765
0.230683
0.23847
0.24602
0.253218
0.259938
0.266047
0.271411
0.275894
0.279369
0.281714
0.282819
0.282608
0.280976
0.277891
0.273329
0.267249
0.259744
0.250856
0.240684
0.229335
0.216943
0.203657
0.189632
0.175023
0.159987
0.144678
0.12924
0.11381
0.0985122
0.0834525
0.0687237
0.0544038
0.0405555
0.0272279
0.0144568
0.00226798
-0.00932366
-0.0203119
-0.0306976
-0.0404891
-0.0496998
-0.0583477
-0.0664521
-0.074043
0.131791
0.136695
0.141942
0.147529
0.153464
0.159747
0.166379
0.173351
0.180651
0.188259
0.196144
0.204267
0.212578
0.221017
0.229509
0.237967
0.246293
0.254373
0.262085
0.269295
0.275863
0.281646
0.286501
0.290292
0.292889
0.294175
0.294066
0.292459
0.289309
0.28459
0.27827
0.270433
0.261132
0.250467
0.238553
0.225534
0.211562
0.196805
0.181427
0.165594
0.149469
0.133206
0.116949
0.100826
0.0849533
0.0694282
0.0543335
0.0397355
0.0256869
0.0122265
-0.000620136
-0.012837
-0.024417
-0.0353619
-0.0456802
-0.0553855
-0.0644959
-0.0730328
-0.0810276
0.132295
0.137509
0.143091
0.149034
0.155348
0.162035
0.169094
0.176518
0.184293
0.192398
0.200802
0.209463
0.21833
0.227336
0.236405
0.245444
0.254348
0.262998
0.271261
0.278998
0.286059
0.292293
0.297548
0.30168
0.304549
0.306031
0.306033
0.304453
0.301236
0.296349
0.289772
0.281579
0.271835
0.260642
0.248124
0.234431
0.219726
0.204183
0.18798
0.171296
0.154297
0.137149
0.120005
0.103
0.0862566
0.0698788
0.0539542
0.038554
0.0237331
0.00953244
-0.00401993
-0.0169069
-0.0291211
-0.0406655
-0.0515484
-0.0617834
-0.0713905
-0.0803921
-0.0888199
0.132465
0.138013
0.143953
0.150278
0.157
0.16412
0.171637
0.179545
0.187829
0.196468
0.205429
0.214668
0.22413
0.233746
0.243434
0.253097
0.262622
0.271883
0.280739
0.289042
0.296634
0.303353
0.309039
0.313537
0.316699
0.318394
0.318516
0.316965
0.313676
0.308611
0.301757
0.293184
0.282965
0.271206
0.25804
0.243625
0.228134
0.21175
0.194661
0.177058
0.159123
0.141026
0.122929
0.104977
0.0872992
0.0700059
0.0531915
0.0369309
0.0212818
0.00628793
-0.00801953
-0.0216228
-0.0345153
-0.0466992
-0.0581833
-0.0689834
-0.0791209
-0.0886189
-0.0975107
0.132232
0.138138
0.14446
0.151196
0.158354
0.165938
0.173947
0.182375
0.191207
0.20042
0.209979
0.21984
0.229943
0.240215
0.250569
0.260902
0.271094
0.281012
0.290506
0.299418
0.30758
0.314821
0.320971
0.325864
0.329342
0.331264
0.331517
0.329996
0.326631
0.321376
0.314223
0.305243
0.294514
0.282148
0.268286
0.253096
0.23676
0.219474
0.201436
0.182845
0.163898
0.144781
0.125662
0.106694
0.0880128
0.0697361
0.0519638
0.0347768
0.0182373
0.00239162
-0.012727
-0.0270997
-0.0407204
-0.0535907
-0.0657207
-0.0771267
-0.0878312
-0.09786
-0.107248
0.131508
0.137797
0.14453
0.151706
0.159333
0.167416
0.175955
0.184943
0.194364
0.204195
0.214399
0.224928
0.235721
0.246699
0.25777
0.268824
0.279735
0.290359
0.300539
0.310106
0.318882
0.326686
0.333335
0.338653
0.34247
0.344638
0.34503
0.343543
0.340095
0.334636
0.327162
0.317745
0.306468
0.293449
0.278839
0.262813
0.245568
0.227311
0.208255
0.188606
0.168571
0.148351
0.128127
0.108065
0.0883067
0.0689757
0.0501756
0.0319928
0.0144951
-0.00226786
-0.018261
-0.0334645
-0.0478726
-0.0614852
-0.0743125
-0.086373
-0.0976896
-0.10829
-0.11821
0.130188
0.136888
0.144065
0.151714
0.159846
0.168467
0.177576
0.187167
0.197223
0.20772
0.218618
0.229869
0.241404
0.253143
0.264987
0.276817
0.288501
0.299886
0.310805
0.321078
0.330516
0.338925
0.346111
0.351886
0.356069
0.3585
0.359044
0.357592
0.354054
0.348374
0.340554
0.330665
0.318797
0.305075
0.289658
0.272734
0.25451
0.235206
0.215049
0.194265
0.173067
0.151662
0.130248
0.109003
0.0880801
0.0676117
0.0477068
0.028455
0.00992844
-0.00781946
-0.024752
-0.0408489
-0.0561013
-0.0705103
-0.0840882
-0.0968535
-0.10883
-0.120047
-0.130541
0.128156
0.1353
0.142952
0.151111
0.159787
0.168986
0.17871
0.18895
0.19969
0.210904
0.222551
0.234578
0.246915
0.259473
0.272149
0.284818
0.297335
0.309541
0.321257
0.33229
0.342441
0.351502
0.359268
0.365535
0.370111
0.372825
0.373531
0.372116
0.368481
0.362562
0.354367
0.343968
0.331463
0.316983
0.300696
0.282801
0.263521
0.243088
0.221743
0.199726
0.177273
0.154601
0.131911
0.109394
0.0872155
0.0655174
0.0444185
0.0240143
0.00437994
-0.0144272
-0.0323699
-0.0494256
-0.0655849
-0.080851
-0.095236
-0.108759
-0.121446
-0.133329
-0.144448
0.125257
0.132878
0.141043
0.149751
0.159013
0.168837
0.179222
0.190163
0.201642
0.21363
0.226085
0.238951
0.252151
0.265595
0.27917
0.292743
0.306161
0.319252
0.331827
0.343681
0.354599
0.364363
0.372751
0.379548
0.384547
0.387565
0.388447
0.387069
0.383326
0.377148
0.368545
0.357594
0.3444
0.329101
0.311874
0.292932
0.27251
0.250858
0.228232
0.204886
0.18107
0.157023
0.132959
0.109077
0.085549
0.0625268
0.0401377
0.0184874
-0.00234513
-0.0222996
-0.0413351
-0.0594286
-0.0765709
-0.092765
-0.108023
-0.122367
-0.135823
-0.148426
-0.160218
0.121325
0.129458
0.138175
0.147474
0.157367
0.167862
0.178962
0.190658