/*--------------------------------*- C++ -*----------------------------------*\
| =========                 |                                                 |
| \\      /  F ield         | OpenFOAM: The Open Source CFD Toolbox           |
|  \\    /   O peration     | Version:  2312                                  |
|   \\  /    A nd           | Website:  www.openfoam.com                      |
|    \\/     M anipulation  |                                                 |
\*---------------------------------------------------------------------------*/
FoamFile
{
    version     2.0;
    format      ascii;
    arch        "LSB;label=32;scalar=64";
    class       surfaceScalarField;
    location    "1100";
    object      phi;
}
// * * * * * * * * * * * * * * * * * * * * * * * * * * * * * * * * * * * * * //

dimensions      [0 3 -1 0 0 0 0];

oriented        oriented;

internalField   nonuniform List<scalar> 
116611
(
0.032027
0.0114087
-0.0316182
-0.0118175
0.0324321
0.0113252
-0.0117303
0.0328318
0.0112342
-0.0116339
0.0332259
0.0111348
-0.0115289
0.0336154
0.0110271
-0.0114167
0.0340051
0.0109098
-0.0112994
0.0343824
0.0107841
-0.0111615
0.0347623
0.0106502
-0.0110301
0.0351311
0.0105061
-0.0108749
0.0354968
0.010353
-0.0107187
0.0358541
0.0101885
-0.0105458
0.0362063
0.0100139
-0.010366
0.0365505
0.00982845
-0.0101726
0.0368876
0.00963142
-0.00996856
0.0372163
0.00942359
-0.00975223
0.0375339
0.00920493
-0.00952259
0.0378447
0.00897189
-0.00928264
0.0381462
0.00873007
-0.00903154
0.0384348
0.00847101
-0.00875967
0.038714
0.00820349
-0.00848265
0.0389855
0.00791855
-0.00819005
0.0392444
0.00762234
-0.00788126
0.0394905
0.00731108
-0.00755718
0.0397264
0.00698686
-0.00722274
0.0399485
0.00664767
-0.00686977
0.0401626
0.00629377
-0.0065079
0.040362
0.00592219
-0.00612156
0.0405415
0.00553667
-0.00571616
0.0407155
0.00513613
-0.00531012
0.0408638
0.00471967
-0.00486803
0.0410072
0.00429112
-0.00443454
0.0411386
0.00383999
-0.0039713
0.041251
0.00337161
-0.00348408
0.0413484
0.00288912
-0.00298654
0.0414268
0.00238597
-0.00246434
0.041486
0.00186849
-0.00192768
0.0415376
0.00133193
-0.00138355
0.0415697
0.000779033
-0.000811097
0.0415878
0.000208069
-0.000226151
0.0415813
-0.00038632
0.000392789
0.0415576
-0.000993771
0.00101748
0.0415268
-0.00161962
0.00165046
0.0414747
-0.00226446
0.00231651
0.0414024
-0.00292775
0.0030001
0.0413071
-0.00361031
0.00370561
0.0411991
-0.00430855
0.00441654
0.0410769
-0.00502517
0.00514736
0.0409257
-0.00576273
0.0059139
0.0407595
-0.00651587
0.0066821
0.0405752
-0.00728575
0.00747003
0.0403686
-0.00807352
0.00828009
0.0401495
-0.008875
0.00909413
0.0399156
-0.00969334
0.00992723
0.0396603
-0.0105305
0.0107858
0.0393751
-0.0113833
0.0116685
0.0390848
-0.0122452
0.0125355
0.0387668
-0.013125
0.013443
0.0384363
-0.0140157
0.0143462
0.0380871
-0.0149158
0.0152649
0.0377196
-0.0158216
0.0161891
0.0373486
-0.0167332
0.0171043
0.0369632
-0.0176599
0.0180453
0.0365591
-0.0185893
0.0189935
0.0361426
-0.0195222
0.0199387
0.0357124
-0.0204548
0.020885
0.0352754
-0.0213865
0.0218235
0.0348476
-0.0223134
0.0227411
0.0344272
-0.0232357
0.0236561
-0.0242139
0.0339844
0.0246566
0.0316826
0.0110016
-0.0312755
0.0320861
0.0109217
0.0324856
0.0108347
0.0328805
0.0107399
0.0332715
0.0106361
0.0336568
0.0105245
0.0340368
0.0104042
0.0344121
0.0102748
0.0347816
0.0101366
0.0351461
0.00998857
0.0355039
0.00983068
0.035855
0.0096627
0.0361993
0.00948415
0.036536
0.00929478
0.0368643
0.00909526
0.0371852
0.00888397
0.0374958
0.00866136
0.0377992
0.00842663
0.0380903
0.00817989
0.0383737
0.00792014
0.038645
0.00764724
0.0389059
0.00736142
0.039155
0.00706203
0.0393929
0.00674893
0.0396189
0.00642162
0.0398336
0.00607911
0.0400336
0.00572217
0.0402201
0.00535022
0.0403932
0.00496298
0.0405516
0.00456131
0.0406995
0.00414319
0.0408318
0.00370771
0.0409473
0.00325614
0.0410485
0.00278786
0.0411323
0.00230222
0.0412013
0.00179942
0.0412541
0.00127915
0.0412911
0.00074203
0.0413129
0.000186308
0.041315
-0.000388411
0.0413012
-0.00097997
0.0412702
-0.0015887
0.0412208
-0.00221503
0.0411533
-0.00286026
0.041067
-0.00352397
0.0409637
-0.00420526
0.0408425
-0.00490396
0.0407012
-0.00562146
0.040542
-0.00635662
0.0403644
-0.0071082
0.0401676
-0.00787668
0.0399539
-0.00866127
0.0397225
-0.009462
0.0394715
-0.0102794
0.0392011
-0.0111129
0.0389158
-0.0119599
0.0386113
-0.0128205
0.0382898
-0.0136942
0.0379523
-0.0145783
0.0376022
-0.0154715
0.0372418
-0.0163727
0.0368653
-0.0172835
0.0364762
-0.0182002
0.036076
-0.0191219
0.0356677
-0.0200466
0.0352537
-0.0209724
0.034838
-0.0218977
0.0344212
-0.0228189
-0.0237768
0.0339842
0.0313612
0.0105979
-0.0309576
0.0317621
0.0105209
0.0321599
0.0104368
0.0325542
0.0103456
0.0329438
0.0102465
0.0333289
0.0101394
0.0337089
0.0100241
0.0340837
0.00990005
0.0344531
0.00976718
0.0348166
0.00962509
0.0351738
0.00947351
0.0355243
0.00931219
0.0358676
0.00914082
0.0362033
0.00895907
0.0365318
0.00876681
0.036852
0.00856368
0.037164
0.00834944
0.037467
0.00812363
0.0377608
0.00788605
0.0380447
0.00763623
0.0383181
0.0073739
0.0385808
0.00709872
0.0388324
0.00681042
0.0390726
0.00650867
0.0393011
0.00619312
0.0395168
0.0058634
0.0397197
0.00551928
0.0399095
0.00516047
0.0400857
0.00478677
0.040249
0.00439798
0.0403986
0.00399359
0.0405331
0.00357325
0.0406526
0.00313662
0.0407571
0.00268342
0.0408458
0.00221343
0.0409188
0.00172643
0.0409756
0.00122236
0.0410167
0.000700936
0.0410415
0.000161555
0.0410488
-0.000395696
0.0410387
-0.000969944
0.0410115
-0.00156144
0.0409672
-0.00217073
0.0409052
-0.00279832
0.0408253
-0.003444
0.0407274
-0.00410742
0.0406119
-0.00478843
0.0404779
-0.00548746
0.0403253
-0.00620402
0.0401544
-0.00693733
0.0399652
-0.00768745
0.0397582
-0.00845428
0.0395338
-0.0092376
0.0392917
-0.0100374
0.0390319
-0.0108531
0.0387555
-0.0116835
0.0384628
-0.0125278
0.0381541
-0.0133855
0.0378308
-0.014255
0.037494
-0.0151347
0.0371448
-0.0160235
0.0367828
-0.0169215
0.0364099
-0.0178273
0.0360276
-0.0187396
0.035638
-0.019657
0.0352433
-0.0205777
0.0348461
-0.0215005
0.0344466
-0.0224194
-0.0233715
0.0340412
0.0310623
0.0101963
-0.0306607
0.0314609
0.0101223
0.0318564
0.0100414
0.0322484
0.00995354
0.0326365
0.00985836
0.0330204
0.00975553
0.0333997
0.00964482
0.0337738
0.00952588
0.0341426
0.00939843
0.0345055
0.0092622
0.0348621
0.00911687
0.0352122
0.00896214
0.0355552
0.00879776
0.0358909
0.00862342
0.0362189
0.00843878
0.0365389
0.00824366
0.0368506
0.00803773
0.0371536
0.00782066
0.0374475
0.00759213
0.0377319
0.0073519
0.0380062
0.00709959
0.0382701
0.00683484
0.0385231
0.00655741
0.0387648
0.00626696
0.0389948
0.00596311
0.0392126
0.00564555
0.039418
0.00531394
0.0396104
0.00496807
0.0397895
0.00460763
0.0399552
0.00423229
0.040107
0.00384179
0.0402445
0.00343578
0.0403672
0.00301385
0.0404749
0.00257574
0.0405671
0.00212121
0.0406436
0.00165001
0.0407041
0.00116184
0.0407485
0.000656454
0.0407766
0.000133459
0.0407879
-0.000406955
0.0407822
-0.00096421
0.0407595
-0.00153882
0.04072
-0.00213114
0.040663
-0.00274132
0.0405882
-0.00336927
0.0404957
-0.00401492
0.0403855
-0.00467821
0.0402573
-0.00535923
0.0401109
-0.00605766
0.0399467
-0.00677308
0.0397647
-0.0075055
0.0395654
-0.00825495
0.0393491
-0.0090213
0.0391159
-0.00980418
0.0388659
-0.0106031
0.0385999
-0.0114174
0.0383184
-0.0122463
0.0380219
-0.013089
0.0377111
-0.0139443
0.0373872
-0.0148108
0.0370514
-0.0156877
0.0367045
-0.0165746
0.036348
-0.0174708
0.0359834
-0.0183751
0.0356125
-0.019286
0.0352365
-0.0202018
0.0348572
-0.0211212
0.0344748
-0.022037
-0.0229853
0.0340886
0.0307828
0.009795
-0.0303816
0.0311805
0.00972456
0.0315746
0.00964736
0.0319649
0.00956322
0.0323514
0.00947192
0.0327337
0.00937326
0.0331114
0.00926703
0.0334844
0.00915294
0.0338521
0.00903072
0.0342142
0.00890012
0.0345702
0.00876085
0.0349197
0.00861258
0.0352625
0.00845501
0.035598
0.00828789
0.0359259
0.00811088
0.0362458
0.00792375
0.0365574
0.00772616
0.0368603
0.00751777
0.0371541
0.00729829
0.0374386
0.00706745
0.0377133
0.00682492
0.0379777
0.00657038
0.0382315
0.0063036
0.0384742
0.00602424
0.0387054
0.00573192
0.0389247
0.0054263
0.0391316
0.00510707
0.0393257
0.00477392
0.0395068
0.00442654
0.0396745
0.00406459
0.0398285
0.00368779
0.0399684
0.00329591
0.0400937
0.00288855
0.040204
0.00246539
0.0402991
0.00202617
0.0403785
0.00157053
0.0404423
0.00109811
0.04049
0.000608697
0.0405216
0.000101917
0.0405366
-0.000421961
0.0405349
-0.000962547
0.0405164
-0.00152035
0.040481
-0.00209572
0.0404285
-0.00268878
0.0403586
-0.00329943
0.0402714
-0.00392767
0.0401667
-0.00457355
0.0400445
-0.00523703
0.0399047
-0.00591788
0.0397475
-0.00661581
0.0395729
-0.00733094
0.0393814
-0.00806341
0.0391732
-0.00881311
0.0389487
-0.00957966
0.0387081
-0.0103626
0.0384522
-0.0111615
0.0381815
-0.0119756
0.0378967
-0.0128041
0.0375984
-0.0136461
0.0372879
-0.0145002
0.0369662
-0.015366
0.0366344
-0.0162428
0.0362939
-0.0171303
0.0359456
-0.0180269
0.035591
-0.0189313
0.0352313
-0.0198421
0.0348686
-0.0207585
0.0345052
-0.0216736
-0.022626
0.0341459
0.0305193
0.00939316
-0.0301175
0.0309174
0.00932644
0.0313116
0.00925321
0.0317016
0.0091732
0.0320873
0.00908619
0.0324686
0.00899198
0.0328452
0.00889042
0.0332169
0.00878124
0.0335834
0.00866423
0.0339444
0.00853914
0.0342995
0.00840575
0.0346483
0.00826376
0.0349905
0.00811286
0.0353256
0.00795277
0.0356532
0.00778322
0.035973
0.00760395
0.0362846
0.00741461
0.0365875
0.00721483
0.0368815
0.00700434
0.0371661
0.00678285
0.037441
0.00655003
0.0377057
0.00630561
0.03796
0.00604938
0.0382032
0.00578098
0.0384351
0.00550001
0.0386553
0.00520617
0.0388632
0.00489915
0.0390586
0.00457855
0.039241
0.00424405
0.0394103
0.00389532
0.039566
0.00353208
0.0397078
0.00315412
0.0398353
0.00276106
0.0399482
0.00235251
0.0400461
0.00192829
0.0401287
0.00148793
0.0401958
0.00103101
0.0402471
0.000557389
0.0402823
6.66935e-05
0.0403011
-0.000440729
0.0403032
-0.000964722
0.0402887
-0.00150578
0.0402573
-0.0020643
0.0402089
-0.00264044
0.0401435
-0.00323396
0.0400608
-0.00384498
0.0399609
-0.00447363
0.0398437
-0.0051199
0.0397096
-0.00578373
0.0395586
-0.00646481
0.0393909
-0.0071633
0.039207
-0.00787943
0.0390069
-0.0086131
0.0387913
-0.00936401
0.0385604
-0.0101317
0.0383147
-0.0109158
0.038055
-0.0117159
0.0377818
-0.0125309
0.0374957
-0.01336
0.0371977
-0.0142022
0.0368889
-0.0150572
0.0365703
-0.0159243
0.0362431
-0.0168031
0.0359083
-0.0176921
0.0355677
-0.0185907
0.0352233
-0.0194977
0.0348777
-0.0204129
0.0345341
-0.02133
-0.0222882
0.0341964
0.0302708
0.00899069
-0.0298684
0.0306697
0.00892755
0.0310647
0.00885823
0.0314554
0.00878247
0.0318417
0.00869997
0.0322232
0.00861048
0.0325997
0.00851388
0.032971
0.00840992
0.0333369
0.00829832
0.0336972
0.0081789
0.0340515
0.00805142
0.0343996
0.00791564
0.0347411
0.00777134
0.0350757
0.00761823
0.0354029
0.00745602
0.0357223
0.00728447
0.0360337
0.00710326
0.0363366
0.00691197
0.0366305
0.00671038
0.0369152
0.00649819
0.0371902
0.00627501
0.0374552
0.00604061
0.0377098
0.00579478
0.0379536
0.00553719
0.0381861
0.00526746
0.0384071
0.00498526
0.038616
0.00469024
0.0388125
0.00438206
0.0389962
0.00406033
0.0391669
0.00372465
0.0393241
0.00337479
0.0394677
0.00301061
0.039597
0.00263177
0.0397117
0.00223781
0.0398115
0.00182846
0.0398962
0.00140323
0.0399655
0.000961657
0.0400193
0.000503604
0.0400573
2.87423e-05
0.040079
-0.000462462
0.0400844
-0.000970144
0.0400733
-0.00149467
0.0400455
-0.00203646
0.0400008
-0.00259573
0.0399391
-0.00317234
0.0398607
-0.00376655
0.0397656
-0.00437853
0.039654
-0.00500832
0.0395261
-0.00565584
0.0393821
-0.00632076
0.039222
-0.00700322
0.0390461
-0.0077035
0.0388545
-0.00842152
0.0386476
-0.00915716
0.0384257
-0.00990979
0.0381893
-0.0106794
0.0379389
-0.0114656
0.0376754
-0.0122673
0.0373992
-0.0130838
0.0371114
-0.0139144
0.0368132
-0.014759
0.0365056
-0.0156167
0.03619
-0.0164875
0.0358682
-0.0173702
0.0355423
-0.0182648
0.0352147
-0.0191701
0.0348877
-0.020086
0.0345645
-0.0210068
-0.021968
0.0342443
0.0300386
0.00858805
-0.029636
0.0304379
0.00852831
0.0308334
0.00846269
0.0312249
0.00839097
0.031612
0.00831289
0.0319943
0.00822813
0.0323717
0.00813655
0.0327437
0.00803791
0.0331101
0.00793188
0.0334707
0.00781829
0.0338252
0.00769696
0.0341732
0.00756759
0.0345146
0.00742998
0.0348489
0.00728391
0.0351758
0.00712911
0.035495
0.00696533
0.035806
0.00679221
0.0361086
0.00660936
0.0364025
0.00641657
0.0366871
0.00621354
0.0369622
0.00599994
0.0372273
0.00577551
0.037482
0.00554003
0.037726
0.00529317
0.037959
0.00503454
0.0381804
0.00476382
0.0383899
0.0044807
0.0385872
0.00418477
0.0387719
0.00387566
0.0389436
0.00355299
0.0391019
0.00321643
0.0392467
0.00286586
0.0393775
0.00250095
0.0394939
0.00212144
0.0395953
0.00172698
0.0396817
0.00131685
0.0397527
0.000890664
0.0398081
0.000448208
0.0398478
-1.09307e-05
0.0398714
-0.000486109
0.039879
-0.000977734
0.0398704
-0.00148608
0.0398455
-0.00201156
0.0398043
-0.00255451
0.0397469
-0.00311491
0.0396734
-0.00369304
0.0395838
-0.00428895
0.0394783
-0.00490278
0.0393569
-0.00553445
0.0392197
-0.00618362
0.0390669
-0.00685036
0.0388984
-0.007535
0.0387141
-0.00823726
0.0385144
-0.00895749
0.0382995
-0.00969483
0.0380698
-0.0104497
0.0378265
-0.0112222
0.0375703
-0.0120111
0.0373021
-0.0128156
0.037023
-0.0136353
0.0367344
-0.0144703
0.0364378
-0.0153201
0.036135
-0.0161847
0.035828
-0.0170632
0.0355189
-0.0179558
0.03521
-0.0188612
0.034903
-0.019779
0.0345993
-0.020703
-0.0216682
0.0342994
0.0298245
0.00818568
-0.0294221
0.0302236
0.00812915
0.0306193
0.00806704
0.0310111
0.00799913
0.0313988
0.00792518
0.031782
0.00784494
0.0321604
0.0077582
0.0325335
0.00766478
0.032901
0.00756435
0.0332626
0.0074567
0.0336179
0.00734165
0.0339666
0.0072189
0.0343084
0.00708814
0.0346431
0.00694922
0.0349704
0.00680188
0.0352898
0.00664593
0.035601
0.00648095
0.0359038
0.00630662
0.0361977
0.00612268
0.0364824
0.00592882
0.0367575
0.00572477
0.0370228
0.00551025
0.0372778
0.00528508
0.0375219
0.00504899
0.037755
0.00480151
0.0379766
0.00454224
0.0381863
0.00427093
0.0383839
0.00398721
0.038569
0.00369057
0.0387413
0.00338068
0.0389004
0.00305728
0.0390461
0.00272016
0.0391781
0.002369
0.0392958
0.00200366
0.0393989
0.0016239
0.039487
0.00122874
0.03956
0.000817747
0.0396174
0.000390814
0.0396591
-5.26607e-05
0.039685
-0.000512054
0.0396952
-0.000987908
0.0396895
-0.00148043
0.039668
-0.00198997
0.0396303
-0.00251688
0.0395767
-0.00306126
0.039507
-0.00362338
0.0394213
-0.00420326
0.0393196
-0.00480112
0.0392021
-0.00541689
0.0390688
-0.00605029
0.0389197
-0.0067013
0.0387551
-0.00737037
0.038575
-0.0080572
0.0383799
-0.00876235
0.0381701
-0.00948512
0.0379465
-0.010226
0.0377098
-0.0109856
0.0374611
-0.0117624
0.0372014
-0.0125559
0.0369321
-0.013366
0.0366549
-0.0141932
0.0363716
-0.0150367
0.036084
-0.015897
0.0357939
-0.0167731
0.0355031
-0.0176651
0.0352134
-0.0185714
0.0349261
-0.0194917
0.0346408
-0.0204178
-0.0213873
0.03436
0.0296309
0.00778355
-0.0292287
0.0300299
0.00773013
0.0304255
0.00767143
0.0308174
0.00760722
0.0312052
0.00753732
0.0315887
0.00746146
0.0319675
0.00737947
0.0323411
0.00729113
0.0327093
0.00719614
0.0330717
0.00709427
0.033428
0.00698534
0.0337779
0.00686908
0.0341208
0.00674516
0.0344567
0.00661339
0.0347851
0.00647349
0.0351056
0.00632535
0.035418
0.00616861
0.0357217
0.00600287
0.0360164
0.00582799
0.0363017
0.00564351
0.0365773
0.00544917
0.0368429
0.00524468
0.0370982
0.00502975
0.0373429
0.00480426
0.0375766
0.00456782
0.0377989
0.00432
0.0380093
0.00406051
0.0382075
0.00378901
0.0383932
0.00350488
0.0385661
0.00320779
0.0387257
0.00289766
0.0388717
0.00257416
0.0390039
0.00223684
0.0391221
0.00188545
0.0392261
0.00151987
0.0393156
0.00113926
0.0393903
0.000743034
0.0394499
0.000331211
0.0394941
-9.68745e-05
0.0395226
-0.000540584
0.0395353
-0.00100055
0.0395319
-0.00147703
0.0395124
-0.00197047
0.0394768
-0.0024813
0.0394253
-0.0030097
0.0393577
-0.00355586
0.0392743
-0.00411981
0.0391749
-0.00470173
0.0390594
-0.00530144
0.0389281
-0.00591895
0.038781
-0.00655422
0.0386184
-0.00720775
0.0384409
-0.0078797
0.0382488
-0.00857022
0.038043
-0.00927932
0.0378246
-0.0100077
0.0375945
-0.0107555
0.037354
-0.0115219
0.0371046
-0.0123065
0.0368476
-0.013109
0.0365844
-0.0139299
0.0363164
-0.0147687
0.0360451
-0.0156257
0.0357718
-0.0164999
0.035498
-0.0173913
0.0352248
-0.0182983
0.0349535
-0.0192203
0.0346847
-0.020149
-0.0211292
0.0344267
0.0294591
0.00738141
-0.0290569
0.0298581
0.00733111
0.0302537
0.00727586
0.0306455
0.00721537
0.0310333
0.00714952
0.0314168
0.007078
0.0317956
0.00700062
0.0321696
0.00691716
0.0325384
0.00682737
0.0329015
0.00673111
0.0332587
0.00662815
0.0336096
0.00651821
0.0339537
0.00640104
0.0342907
0.00627641
0.0346201
0.00614407
0.0349417
0.00600379
0.035255
0.00585534
0.0355596
0.00569825
0.0358552
0.00553238
0.0361414
0.00535729
0.0364181
0.00517251
0.0366848
0.00497797
0.0369412
0.00477336
0.0371869
0.0045585
0.0374216
0.00433317
0.0376447
0.00409686
0.037856
0.00384925
0.038055
0.00358999
0.0382414
0.00331844
0.038415
0.00303421
0.0385754
0.00273722
0.0387224
0.0024272
0.0388555
0.00210375
0.0389745
0.00176644
0.0390792
0.00141515
0.0391693
0.00104916
0.0392445
0.000667888
0.0393043
0.000271349
0.0393486
-0.0001412
0.0393772
-0.000569162
0.0393901
-0.00101345
0.0393874
-0.00147431
0.0393691
-0.00195216
0.0393351
-0.00244729
0.0392852
-0.00295983
0.0392193
-0.00349
0.0391373
-0.00403779
0.0390393
-0.00460368
0.0389253
-0.00518746
0.0387956
-0.00578924
0.0386506
-0.00640923
0.0384905
-0.00704766
0.0383162
-0.00770536
0.0381281
-0.00838214
0.0379276
-0.00907883
0.0377163
-0.0097964
0.0374952
-0.0105344
0.0372653
-0.011292
0.0370277
-0.0120689
0.0367835
-0.0128648
0.0365337
-0.0136802
0.0362795
-0.0145145
0.0360219
-0.0153682
0.035762
-0.0162399
0.0355007
-0.0171299
0.0352385
-0.0180361
0.0349761
-0.018958
0.0347151
-0.019888
-0.0208766
0.0344624
0.0293091
0.00697912
-0.0289068
0.0297082
0.006932
0.0301038
0.0068802
0.0304958
0.00682337
0.0308839
0.00676148
0.0312676
0.00669427
0.0316467
0.0066215
0.032021
0.00654294
0.03239
0.00645836
0.0327535
0.0063676
0.0331112
0.00627045
0.0334627
0.00616666
0.0338076
0.00605614
0.0341454
0.00593864
0.0344756
0.00581383
0.034798
0.00568139
0.0351123
0.00554109
0.035418
0.00539253
0.0357149
0.00523543
0.0360027
0.00506955
0.0362808
0.00489444
0.0365488
0.00470999
0.0368062
0.0045159
0.0370529
0.00431179
0.0372885
0.00409756
0.0375127
0.00387272
0.037725
0.0036369
0.0379252
0.00338983
0.0381128
0.00313083
0.0382874
0.00285961
0.0384486
0.00257597
0.0385962
0.00227959
0.0387298
0.0019702
0.038849
0.00164723
0.0389537
0.00131047
0.0390435
0.000959335
0.0391182
0.000593167
0.0391778
0.000211809
0.039222
-0.00018542
0.0392508
-0.000597975
0.0392641
-0.00102678
0.0392619
-0.00147211
0.0392441
-0.00193427
0.0392102
-0.00241343
0.0391601
-0.00290974
0.0390936
-0.00342353
0.0390108
-0.0039549
0.0389118
-0.00450474
0.0387976
-0.00507324
0.0386685
-0.00566016
0.0385254
-0.00626608
0.0383689
-0.00689115
0.0381998
-0.00753628
0.0380193
-0.00820166
0.0378286
-0.00888813
0.0376283
-0.00959607
0.0374185
-0.0103247
0.0371999
-0.0110734
0.0369734
-0.0118423
0.0367399
-0.0126313
0.0365006
-0.0134409
0.0362565
-0.0142704
0.0360083
-0.01512
0.0357568
-0.0159884
0.0355023
-0.0168754
0.0352446
-0.0177784
0.0349832
-0.0186966
0.0347179
-0.0196226
-0.0206039
0.0344453
0.0291816
0.00657615
-0.0287786
0.0295814
0.00653219
0.0299778
0.00648375
0.0303706
0.00643062
0.0307594
0.00637267
0.0311439
0.00630978
0.0315237
0.00624168
0.0318986
0.00616802
0.0322683
0.00608865
0.0326324
0.00600352
0.0329905
0.00591234
0.0333423
0.00581486
0.0336875
0.00571094
0.0340258
0.00560037
0.0343568
0.00548285
0.0346801
0.00535806
0.0349955
0.00522572
0.0353023
0.00508564
0.0356004
0.00493742
0.0358892
0.00478071
0.0361683
0.00461532
0.0364372
0.00444112
0.0366955
0.00425762
0.0369429
0.00406434
0.0371793
0.00386119
0.0374042
0.00364785
0.0376171
0.00342392
0.0378178
0.00318913
0.0380058
0.00294288
0.0381807
0.00268475
0.0383423
0.00241435
0.0384904
0.00213145
0.0386247
0.00183587
0.038745
0.00152697
0.0388511
0.0012044
0.0389426
0.000867778
0.0390193
0.000516531
0.0390808
0.000150308
0.0391265
-0.000231177
0.0391563
-0.000627705
0.0391695
-0.00104003
0.0391662
-0.00146876
0.0391463
-0.00191437
0.0391098
-0.00237699
0.0390572
-0.00285709
0.0389885
-0.00335489
0.0389045
-0.00387089
0.0388057
-0.00440587
0.0386928
-0.00496039
0.0385668
-0.00553419
0.0384284
-0.00612766
0.0382783
-0.00674101
0.0381169
-0.0073749
0.037945
-0.00802979
0.0377629
-0.00870601
0.0375704
-0.00940354
0.0373679
-0.0101222
0.0371563
-0.0108618
0.0369367
-0.0116227
0.0367101
-0.0124047
0.0364773
-0.0132081
0.036239
-0.014032
0.0359953
-0.0148763
0.0357464
-0.0157395
0.0354918
-0.0166208
0.0352311
-0.0175177
0.0349633
-0.0184289
0.034687
-0.0193463
-0.0203109
0.0343939
0.0290786
0.00617206
-0.0286745
0.0294797
0.00613116
0.0298773
0.00608608
0.0302713
0.00603666
0.0306611
0.00598283
0.0310465
0.00592441
0.0314271
0.00586112
0.0318026
0.00579255
0.0321727
0.0057185
0.0325372
0.00563902
0.0328957
0.00555381
0.033248
0.00546259
0.0335937
0.00536519
0.0339327
0.00526143
0.0342645
0.00515107
0.0345887
0.00503382
0.034905
0.0049094
0.0352129
0.00477775
0.0355118
0.00463857
0.0358013
0.00449121
0.0360812
0.00433541
0.0363511
0.00417123
0.0366105
0.00399821
0.0368591
0.00381578
0.0370964
0.00362386
0.037322
0.00342219
0.0375357
0.0032103
0.037737
0.00298783
0.0379255
0.00275431
0.038101
0.0025093
0.0382631
0.00225223
0.0384117
0.00198284
0.0385465
0.0017011
0.038667
0.00140642
0.038773
0.00109843
0.0388639
0.000776841
0.0389393
0.000441147
0.0389989
9.0772e-05
0.0390421
-0.000274417
0.0390691
-0.000654739
0.0390801
-0.00105101
0.0390751
-0.00146379
0.0390546
-0.00189388
0.0390191
-0.00234148
0.0389689
-0.0028069
0.0389043
-0.0032903
0.0388258
-0.0037923
0.0387333
-0.0043134
0.038627
-0.00485408
0.0385075
-0.00541466
0.0383752
-0.0059954
0.0382305
-0.00659632
0.0380736
-0.00721804
0.0379051
-0.00786127
0.0377255
-0.00852636
0.0375353
-0.00921338
0.0373356
-0.00992247
0.0371273
-0.0106535
0.036911
-0.0114065
0.0366874
-0.0121811
0.0364565
-0.0129772
0.0362183
-0.0137938
0.0359723
-0.0146304
0.035718
-0.0154852
0.0354546
-0.0163573
0.0351812
-0.0172444
0.0348974
-0.018145
0.0346056
-0.0190545
-0.0200122
0.0343069
0.0289993
0.0057675
-0.0285948
0.0294007
0.00572974
0.0297988
0.00568806
0.0301932
0.00564223
0.0305838
0.00559224
0.0309702
0.00553798
0.0313521
0.00547923
0.031729
0.00541566
0.0321005
0.00534702
0.0324662
0.00527325
0.032826
0.00519401
0.0331796
0.00510906
0.0335265
0.00501822
0.0338666
0.00492137
0.0341994
0.00481829
0.0345245
0.00470867
0.0348417
0.00459223
0.0351505
0.00446892
0.0354507
0.00433845
0.0357416
0.00420027
0.036023
0.00405396
0.0362946
0.00389965
0.0365558
0.00373706
0.0368059
0.00356564
0.0370447
0.00338511
0.0372717
0.00319515
0.0374867
0.00299532
0.0376893
0.00278526
0.0378791
0.0025645
0.0380556
0.00233272
0.0382184
0.0020895
0.0383669
0.00183436
0.0385006
0.00156737
0.0386193
0.00128768
0.0387229
0.00099482
0.0388112
0.000688615
0.0388841
0.000368214
0.0389417
3.31219e-05
0.0389841
-0.000316794
0.0390115
-0.000682138
0.0390241
-0.00106362
0.039022
-0.00146162
0.039005
-0.00187686
0.0389732
-0.00230975
0.0389267
-0.00276033
0.0388653
-0.00322891
0.0387891
-0.00371618
0.0386985
-0.0042228
0.0385938
-0.0047493
0.0384752
-0.00529609
0.0383433
-0.00586353
0.0381989
-0.00645188
0.0380426
-0.00706179
0.0378752
-0.00769384
0.0376972
-0.00834834
0.0375091
-0.00902532
0.0373115
-0.0097248
0.0371045
-0.0104465
0.0368882
-0.0111902
0.0366624
-0.0119554
0.0364268
-0.0127415
0.0361806
-0.0135476
0.0359232
-0.0143729
0.0356538
-0.0152158
0.0353714
-0.016075
0.0350753
-0.0169483
0.0347645
-0.0178342
0.0344375
-0.0187275
-0.0196656
0.034091
0.0289449
0.00536218
-0.0285395
0.0293471
0.00532753
0.0297459
0.00528918
0.0301412
0.00524693
0.0305327
0.00520074
0.0309202
0.00515057
0.0313032
0.00509621
0.0316815
0.00503732
0.0320548
0.00497369
0.0324227
0.00490536
0.0327845
0.00483222
0.0331398
0.00475383
0.0334881
0.00466984
0.0338294
0.00458011
0.0341632
0.00448444
0.0344894
0.00438252
0.0348076
0.00427406
0.0351175
0.004159
0.0354187
0.00403719
0.0357107
0.00390831
0.0359927
0.00377193
0.0362645
0.00362787
0.0365258
0.00347578
0.0367762
0.00331524
0.0370154
0.00314593
0.0372431
0.0029674
0.037459
0.00277946
0.0376625
0.00258169
0.0378535
0.00237357
0.0380312
0.00215496
0.0381951
0.00192556
0.0383448
0.00168472
0.0384798
0.00143232
0.0386001
0.0011674
0.0387058
0.00088917
0.0387967
0.000597629
0.0388729
0.000292008
0.0389341
-2.80637e-05
0.0389799
-0.000362584
0.0390102
-0.000712461
0.0390249
-0.00107831
0.039024
-0.00146065
0.0390071
-0.00186005
0.0389744
-0.002277
0.0389259
-0.00271183
0.0388621
-0.00316511
0.0387835
-0.00363757
0.0386906
-0.00412989
0.0385839
-0.00464261
0.038464
-0.00517621
0.0383315
-0.00573106
0.0381872
-0.00630751
0.0380314
-0.00690597
0.0378643
-0.00752676
0.037686
-0.00817004
0.0374964
-0.00883577
0.0372954
-0.00952382
0.0370828
-0.0102338
0.036858
-0.0109654
0.0366206
-0.011718
0.0363699
-0.0124908
0.0361052
-0.013283
0.0358259
-0.0140936
0.0355313
-0.0149212
0.0352209
-0.0157645
0.0348943
-0.0166217
0.0345514
-0.0174913
0.0341909
-0.018367
-0.0192802
0.0338055
0.0289206
0.00495544
-0.0285139
0.0293242
0.00492391
0.0297245
0.00488892
0.0301211
0.00485031
0.0305139
0.004808
0.0309025
0.00476193
0.0312868
0.0047119
0.0316664
0.00465776
0.0320408
0.00459921
0.0324101
0.00453608
0.0327737
0.00446864
0.0331309
0.0043966
0.0334814
0.00431941
0.0338246
0.00423689
0.0341603
0.00414871
0.0344883
0.00405451
0.0348082
0.00395417
0.0351196
0.00384764
0.0354221
0.00373472
0.0357151
0.00361525
0.0359981
0.0034889
0.0362708
0.00335516
0.0365331
0.00321357
0.0367845
0.00306381
0.0370247
0.00290569
0.0372533
0.00273879
0.0374698
0.00256295
0.0376738
0.00237779
0.0378647
0.00218263
0.0380425
0.00197715
0.038207
0.00176106
0.038358
0.00153375
0.0384952
0.00129514
0.0386182
0.00104437
0.0387268
0.000780602
0.0388206
0.000503797
0.0388991
0.000213486
0.0389619
-9.09021e-05
0.0390088
-0.000409443
0.0390396
-0.000743239
0.0390542
-0.00109296
0.0390528
-0.00145922
0.0390354
-0.00184262
0.0390021
-0.00224374
0.0389534
-0.00266311
0.0388896
-0.00310135
0.0388112
-0.00355912
0.0387183
-0.00403703
0.0386113
-0.00453563
0.0384905
-0.0050554
0.0383562
-0.00559672
0.0382085
-0.00615989
0.0380478
-0.00674519
0.0378738
-0.00735277
0.0376864
-0.00798265
0.0374853
-0.00863471
0.0372702
-0.00930872
0.0370406
-0.0100042
0.036796
-0.0107208
0.0365358
-0.0114578
0.0362594
-0.0122144
0.0359662
-0.0129898
0.0356557
-0.0137831
0.0353275
-0.0145931
0.0349819
-0.0154189
0.0346196
-0.0162594
0.0342428
-0.0171145
0.0338565
-0.0179808
-0.0188917
0.033468
0.0289306
0.00454699
-0.0285222
0.0293361
0.00451848
0.0297382
0.0044868
0.0301367
0.00445182
0.0305312
0.00441343
0.0309216
0.00437156
0.0313075
0.004326
0.0316887
0.0042766
0.0320646
0.00422324
0.0324352
0.00416554
0.0328003
0.00410355
0.0331595
0.00403737
0.0335123
0.00396659
0.0338583
0.00389095
0.0341967
0.00381028
0.0345272
0.00372404
0.0348494
0.00363193
0.0351631
0.00353398
0.035468
0.00342981
0.0357639
0.00331938
0.0360501
0.00320265
0.0363264
0.00307884
0.0365925
0.00294744
0.036848
0.00280836
0.0370923
0.00266142
0.0373247
0.00250634
0.0375449
0.00234276
0.0377525
0.00217021
0.037947
0.00198806
0.0381284
0.00179581
0.0382963
0.00159318
0.0384504
0.00137966
0.0385903
0.00115524
0.0387153
0.000919295
0.0388251
0.000670895
0.0389192
0.000409653
0.0389976
0.000135075
0.0390601
-0.000153425
0.0391067
-0.000455997
0.0391371
-0.00077365
0.0391512
-0.00110707
0.0391489
-0.00145694
0.0391302
-0.00182392
0.0390952
-0.00220867
0.0390439
-0.0026118
0.0389765
-0.00303397
0.0388932
-0.00347582
0.0387941
-0.00393794
0.0386794
-0.00442088
0.038549
-0.00492508
0.0384033
-0.00545093
0.0382421
-0.0059987
0.0380654
-0.00656857
0.0378733
-0.00716061
0.0376654
-0.00777477
0.0374415
-0.00841083
0.0372013
-0.00906848
0.0369443
-0.00974722
0.03667
-0.0104466
0.036378
-0.0111657
0.0360676
-0.0119041
0.0357385
-0.0126607
0.0353903
-0.013435
0.0350235
-0.0142262
0.0346389
-0.0150344
0.0342392
-0.0158597
0.033829
-0.0167042
0.0334157
-0.0175675
-0.0184845
0.0330086
0.0289827
0.00413619
-0.0285719
0.0293905
0.00411064
0.0297952
0.00408217
0.0301963
0.0040507
0.0305936
0.0040161
0.0309869
0.0039783
0.0313757
0.00393713
0.0317599
0.00389242
0.0321391
0.00384403
0.0325129
0.00379174
0.0328811
0.00373543
0.0332433
0.00367509
0.0335993
0.00361059
0.0339487
0.00354159
0.034291
0.00346795
0.0346258
0.00338927
0.0349526
0.00330508
0.0352712
0.00321536
0.0355813
0.00311973
0.0358827
0.00301801
0.0361749
0.00291047
0.0364572
0.00279655
0.036729
0.00267565
0.0369898
0.00254752
0.0372393
0.00241192
0.0374771
0.00226857
0.0377027
0.0021171
0.0379159
0.00195708
0.0381159
0.00178801
0.0383023
0.00160945
0.0384744
0.00142106
0.0386316
0.00122243
0.0387736
0.00101324
0.0389
0.000792887
0.0390103
0.000560595
0.0391042
0.000315747
0.0391816
5.77587e-05
0.039242
-0.000213871
0.0392855
-0.000499495
0.0393118
-0.000799952
0.0393207
-0.00111596
0.039312
-0.00144821
0.0392854
-0.00179741
0.0392411
-0.00216427
0.0391787
-0.00254949
0.0390985
-0.00295376
0.0390004
-0.00337774
0.0388846
-0.00382206
0.038751
-0.00428729
0.0385998
-0.0047739
0.0384311
-0.00528227
0.0382451
-0.00581267
0.0380417
-0.00636523
0.0378211
-0.00693995
0.037583
-0.0075367
0.0373273
-0.00815516
0.0370538
-0.00879493
0.036762
-0.00945543
0.0364515
-0.0101361
0.0361219
-0.0108361
0.0357727
-0.0115549
0.0354039
-0.0122918
0.0350158
-0.0130469
0.0346099
-0.0138203
0.0341891
-0.0146136
0.0337586
-0.0154293
0.033326
-0.0162715
0.0329004
-0.017142
-0.0180722
0.032488
0.0290887
0.00372162
-0.0286742
0.0295005
0.00369888
0.0299092
0.00367349
0.0303145
0.00364536
0.0307162
0.00361437
0.0311141
0.00358044
0.0315078
0.00354343
0.031897
0.00350319
0.0322815
0.0034596
0.0326607
0.00341247
0.0330345
0.00336169
0.0334024
0.00330712
0.0337644
0.00324868
0.0341199
0.0031861
0.0344686
0.0031192
0.0348101
0.00304773
0.0351439
0.00297135
0.0354694
0.00288988
0.035786
0.00280309
0.0360932
0.0027108
0.0363907
0.00261298
0.036678
0.00250929