/*--------------------------------*- C++ -*----------------------------------*\
| =========                 |                                                 |
| \\      /  F ield         | OpenFOAM: The Open Source CFD Toolbox           |
|  \\    /   O peration     | Version:  2312                                  |
|   \\  /    A nd           | Website:  www.openfoam.com                      |
|    \\/     M anipulation  |                                                 |
\*---------------------------------------------------------------------------*/
FoamFile
{
    version     2.0;
    format      ascii;
    arch        "LSB;label=32;scalar=64";
    class       volVectorField;
    location    "1100";
    object      U;
}
// * * * * * * * * * * * * * * * * * * * * * * * * * * * * * * * * * * * * * //

dimensions      [0 1 -1 0 0 0 0];

internalField   nonuniform List<vector> 
76025
(
(1.06118 -0.230914 0)
(1.06744 -0.230216 -6.20869e-21)
(1.07372 -0.229334 0)
(1.08 -0.228293 0)
(1.08622 -0.227087 1.62477e-20)
(1.09267 -0.22546 3.63508e-20)
(1.09908 -0.223865 -6.62728e-20)
(1.10556 -0.221884 2.9138e-20)
(1.11201 -0.219826 1.11238e-20)
(1.11845 -0.217558 -1.18086e-20)
(1.12488 -0.215057 6.38207e-22)
(1.13132 -0.212276 -3.93746e-20)
(1.1378 -0.209333 5.24354e-20)
(1.14424 -0.206088 0)
(1.1507 -0.202508 -1.5218e-20)
(1.157 -0.198911 0)
(1.16329 -0.194853 0)
(1.1695 -0.190727 0)
(1.17563 -0.186209 -1.70345e-20)
(1.1816 -0.181678 1.86597e-20)
(1.18752 -0.176705 1.93126e-20)
(1.19344 -0.171523 5.86087e-20)
(1.19916 -0.166129 -3.96324e-20)
(1.20476 -0.160455 -6.34886e-20)
(1.21023 -0.154615 -1.20758e-21)
(1.21556 -0.148611 -2.39083e-20)
(1.22088 -0.142096 6.87624e-20)
(1.22593 -0.135547 -6.94915e-20)
(1.23081 -0.128605 2.36405e-20)
(1.23549 -0.121293 -2.42847e-20)
(1.23994 -0.114235 -2.50439e-20)
(1.2443 -0.106815 5.28904e-20)
(1.24856 -0.098846 -8.02018e-20)
(1.25259 -0.0909844 -1.40985e-20)
(1.25636 -0.0827626 7.12428e-20)
(1.2598 -0.074632 3.18532e-22)
(1.26306 -0.0660626 -1.46515e-20)
(1.26624 -0.057038 7.80045e-21)
(1.26926 -0.0482529 2.96238e-22)
(1.27196 -0.0391211 -1.19719e-20)
(1.27431 -0.0299768 7.94635e-21)
(1.27651 -0.0203944 -3.92214e-21)
(1.27867 -0.0102658 7.81089e-21)
(1.28057 -0.000243755 -1.5702e-20)
(1.28206 0.00998824 -1.60102e-20)
(1.28327 0.0202802 3.09117e-20)
(1.28437 0.0310309 3.17625e-20)
(1.28525 0.0417409 -9.54453e-20)
(1.28572 0.0525976 6.20804e-20)
(1.28596 0.0636289 -7.20839e-22)
(1.28597 0.0748597 -1.56792e-19)
(1.28571 0.0863967 -6.14632e-20)
(1.28532 0.0981941 6.31002e-20)
(1.28471 0.110314 0)
(1.28368 0.12247 -6.11082e-20)
(1.28232 0.134696 -6.27489e-20)
(1.28078 0.147259 1.04274e-21)
(1.27885 0.160199 -6.1352e-20)
(1.27653 0.173651 6.19097e-20)
(1.27381 0.187484 -1.82391e-19)
(1.27119 0.201164 -1.24614e-19)
(1.26814 0.215785 -3.83488e-21)
(1.26468 0.230813 0)
(1.26073 0.24627 3.11036e-19)
(1.25636 0.262187 -1.20614e-19)
(1.25166 0.278273 6.23426e-20)
(1.2465 0.295573 -1.23711e-19)
(1.24086 0.314028 1.28937e-19)
(1.23758 0.331992 2.54213e-19)
(1.06208 -0.241635 -6.01734e-21)
(1.06867 -0.240916 -2.15306e-20)
(1.07528 -0.239978 2.7725e-20)
(1.08194 -0.238835 0)
(1.08858 -0.237526 -4.52239e-20)
(1.09531 -0.235954 -3.10149e-21)
(1.10201 -0.234184 3.94403e-20)
(1.10875 -0.232176 0)
(1.11553 -0.229941 6.97467e-22)
(1.1223 -0.227497 1.20529e-20)
(1.12909 -0.224828 -1.2754e-20)
(1.13587 -0.221919 8.04846e-22)
(1.14262 -0.218779 0)
(1.14936 -0.215395 0)
(1.15609 -0.211716 -3.34082e-20)
(1.16273 -0.207845 8.24089e-20)
(1.16935 -0.203664 1.78617e-20)
(1.17587 -0.199282 -5.54407e-20)
(1.18234 -0.194603 3.68462e-20)
(1.18868 -0.18972 -1.89801e-20)
(1.19494 -0.184558 2.13617e-20)
(1.20109 -0.179139 -4.10557e-20)
(1.2071 -0.173463 4.37735e-20)
(1.213 -0.167525 -6.72824e-20)
(1.21876 -0.161333 4.52411e-20)
(1.22438 -0.15492 7.09891e-20)
(1.22988 -0.148233 -4.80732e-20)
(1.23515 -0.14133 0)
(1.24024 -0.134156 0)
(1.24516 -0.126713 -2.70497e-20)
(1.2499 -0.119046 0)
(1.25452 -0.111162 -2.84823e-20)
(1.25891 -0.103041 2.8837e-20)
(1.26304 -0.0947422 -4.40156e-20)
(1.26695 -0.0862243 6.35093e-22)
(1.27062 -0.0774933 -1.50597e-20)
(1.27409 -0.0684922 0)
(1.27734 -0.0592937 -3.24324e-20)
(1.28038 -0.0499451 2.50208e-20)
(1.28317 -0.0404303 -2.09014e-20)
(1.28569 -0.0306657 1.25897e-20)
(1.28798 -0.0206323 -1.60774e-22)
(1.29002 -0.0104848 4.47236e-21)
(1.2918 -0.000267029 -4.1616e-21)
(1.29331 0.0101102 3.38019e-20)
(1.29456 0.020725 -1.69742e-20)
(1.29558 0.031545 -1.72944e-20)
(1.29635 0.0424393 3.26398e-20)
(1.29683 0.0535508 9.93744e-20)
(1.29705 0.0649063 -4.05836e-22)
(1.297 0.0764534 9.7953e-20)
(1.29669 0.0882377 -3.28403e-20)
(1.29614 0.100228 -9.71615e-20)
(1.29534 0.112348 6.47534e-20)
(1.29427 0.124591 0)
(1.29287 0.137198 1.94362e-19)
(1.29123 0.150035 5.9562e-22)
(1.2893 0.163138 -6.41906e-20)
(1.28707 0.176517 -6.53893e-20)
(1.28458 0.190232 0)
(1.28183 0.204491 6.19189e-20)
(1.27883 0.219124 1.90844e-19)
(1.27551 0.234065 0)
(1.27184 0.249451 -1.27665e-19)
(1.26783 0.265385 7.0044e-20)
(1.26341 0.281973 -1.31284e-19)
(1.25871 0.299336 6.5501e-20)
(1.25355 0.3172 -1.30826e-19)
(1.2493 0.335383 -1.30778e-19)
(1.06319 -0.25315 3.29718e-20)
(1.07004 -0.252378 -1.95132e-20)
(1.07695 -0.251381 8.19843e-21)
(1.08393 -0.250174 -3.65021e-20)
(1.09095 -0.248755 4.61059e-20)
(1.098 -0.247116 4.26821e-20)
(1.10507 -0.245244 -5.38408e-20)
(1.11216 -0.243142 0)
(1.11926 -0.240802 7.35229e-22)
(1.12638 -0.23822 0)
(1.1335 -0.235397 1.44881e-20)
(1.1406 -0.232328 -1.4424e-20)
(1.14767 -0.229009 -7.98764e-20)
(1.15471 -0.225441 6.36802e-20)
(1.16171 -0.221611 -1.66104e-20)
(1.16867 -0.217517 -5.36635e-20)
(1.17558 -0.213162 1.82201e-20)
(1.18243 -0.208538 1.87637e-20)
(1.1892 -0.203656 6.11875e-20)
(1.19588 -0.198502 -4.06639e-20)
(1.20244 -0.193091 -2.19818e-20)
(1.20889 -0.187414 4.49711e-20)
(1.21521 -0.181472 -2.15721e-20)
(1.2214 -0.175261 -2.41678e-20)
(1.22744 -0.168788 0)
(1.23333 -0.162061 2.56131e-20)
(1.23903 -0.155094 2.56998e-20)
(1.24455 -0.147873 -2.51589e-20)
(1.24989 -0.140388 0)
(1.25504 -0.132651 5.57382e-20)
(1.26002 -0.124658 -2.92265e-20)
(1.26479 -0.11645 -1.29047e-21)
(1.26932 -0.108041 0)
(1.27361 -0.0994112 1.50714e-20)
(1.27768 -0.0905692 -4.71929e-20)
(1.2815 -0.0815049 3.20035e-20)
(1.28509 -0.0722342 0)
(1.28843 -0.0627814 2.52586e-20)
(1.29153 -0.053157 -2.59794e-20)
(1.29439 -0.0433678 -4.30074e-21)
(1.29697 -0.0333598 0)
(1.29929 -0.0231502 -8.75514e-21)
(1.30135 -0.012765 -4.38763e-21)
(1.30316 -0.00220535 4.2132e-21)
(1.30471 0.00853628 -2.57518e-20)
(1.30598 0.0194653 -1.76532e-20)
(1.307 0.030567 3.40021e-20)
(1.30776 0.0418219 -3.45779e-20)
(1.30824 0.053256 3.48413e-20)
(1.30844 0.0648743 -3.40175e-20)
(1.30837 0.0766622 -3.34809e-20)
(1.30803 0.0886318 6.88178e-20)
(1.30745 0.100779 0)
(1.30662 0.1131 6.83843e-20)
(1.30554 0.125619 7.42183e-22)
(1.30419 0.138377 -6.73203e-20)
(1.3026 0.151362 -6.71691e-20)
(1.30076 0.164608 1.33456e-19)
(1.29867 0.178168 -6.26574e-22)
(1.29631 0.192104 6.75534e-20)
(1.2937 0.206433 -1.35137e-19)
(1.29085 0.221124 -6.82356e-20)
(1.28772 0.236241 9.38682e-22)
(1.28429 0.251854 -6.6711e-20)
(1.28058 0.268019 -6.48868e-20)
(1.27657 0.284754 -2.05817e-19)
(1.27236 0.30221 0)
(1.26752 0.320242 -6.98485e-20)
(1.26372 0.339055 6.83775e-20)
(1.06448 -0.265424 0)
(1.07163 -0.264606 -7.4827e-21)
(1.07883 -0.26355 -4.43134e-20)
(1.08611 -0.262276 3.58118e-20)
(1.09345 -0.260775 3.27026e-20)
(1.10084 -0.259039 -5.38077e-20)
(1.10826 -0.257063 1.15131e-20)
(1.11571 -0.254845 -1.30702e-20)
(1.12317 -0.252382 -1.30988e-20)
(1.13063 -0.249668 -5.88001e-20)
(1.13809 -0.246699 5.94312e-20)
(1.14553 -0.24347 6.51198e-20)
(1.15294 -0.239975 -1.45754e-20)
(1.16032 -0.236214 -6.96948e-20)
(1.16765 -0.232183 5.43136e-20)
(1.17493 -0.227876 -1.95209e-20)
(1.18215 -0.223296 2.03015e-20)
(1.1893 -0.218441 2.10788e-20)
(1.19637 -0.213312 -6.4041e-20)
(1.20335 -0.207904 2.06525e-20)
(1.21021 -0.202221 2.2224e-20)
(1.21696 -0.196263 0)
(1.22357 -0.190029 5.04583e-20)
(1.23004 -0.183524 -2.48751e-20)
(1.23636 -0.176752 -5.21454e-20)
(1.2425 -0.169717 -5.43362e-20)
(1.24847 -0.162418 1.08168e-19)
(1.25424 -0.154855 -5.58849e-20)
(1.25982 -0.147034 0)
(1.2652 -0.138962 -5.87873e-20)
(1.27036 -0.130648 -9.34034e-22)
(1.2753 -0.122104 6.07368e-20)
(1.28 -0.113333 -3.18347e-20)
(1.28447 -0.104335 8.10974e-20)
(1.28868 -0.0951214 -1.58919e-20)
(1.29263 -0.0857006 0)
(1.29632 -0.0760808 0)
(1.29976 -0.066265 9.00777e-21)
(1.30293 -0.056272 8.84515e-21)
(1.30583 -0.0460973 4.65964e-21)
(1.30846 -0.0357155 -1.45359e-22)
(1.31081 -0.0251527 4.47121e-21)
(1.3129 -0.0144176 0)
(1.31472 -0.00351491 -3.29058e-22)
(1.31627 0.00754832 0)
(1.31754 0.0187703 1.74728e-20)
(1.31853 0.0301478 1.36343e-22)
(1.31925 0.0416713 -5.41227e-20)
(1.31969 0.0533482 0)
(1.31986 0.065192 -3.54945e-20)
(1.31976 0.0772002 3.50854e-20)
(1.3194 0.0893701 -6.90738e-20)
(1.3188 0.101705 0)
(1.31797 0.114216 -2.09412e-19)
(1.3169 0.126915 7.37568e-22)
(1.31559 0.139825 6.89896e-20)
(1.31406 0.152968 6.87869e-20)
(1.3123 0.166373 0)
(1.31031 0.180075 0)
(1.30809 0.194121 -6.77634e-20)
(1.30564 0.20854 1.3566e-19)
(1.30297 0.223358 1.35953e-19)
(1.30009 0.23861 0)
(1.29698 0.254345 -1.41343e-19)
(1.29367 0.270627 0)
(1.29008 0.287495 2.10026e-19)
(1.2863 0.305092 -7.03873e-20)
(1.28185 0.323272 -7.2446e-20)
(1.27847 0.342333 -7.49353e-20)
(1.06588 -0.278423 0)
(1.07341 -0.277567 0)
(1.08097 -0.276456 -9.62144e-21)
(1.08859 -0.27511 4.24969e-20)
(1.09627 -0.273526 -5.36741e-20)
(1.10399 -0.271691 1.15354e-20)
(1.11175 -0.269603 0)
(1.11955 -0.26726 1.32099e-20)
(1.12736 -0.264659 0)
(1.13518 -0.261793 3.15072e-20)
(1.143 -0.258657 2.75358e-21)
(1.1508 -0.255248 -3.30577e-20)
(1.15858 -0.251563 0)
(1.16631 -0.247595 3.8119e-20)
(1.174 -0.243345 -1.16693e-19)
(1.18163 -0.238809 7.98524e-20)
(1.18918 -0.233985 -1.04691e-19)
(1.19666 -0.228875 2.1577e-20)
(1.20404 -0.223478 -2.32833e-20)
(1.21131 -0.217794 2.28402e-20)
(1.21848 -0.211825 2.43128e-20)
(1.22551 -0.205571 -7.4878e-20)
(1.23241 -0.199029 -5.15851e-20)
(1.23916 -0.192204 0)
(1.24574 -0.185099 5.52289e-20)
(1.25215 -0.177721 2.87346e-20)
(1.25836 -0.17007 -8.49406e-20)
(1.26438 -0.162149 2.88341e-20)
(1.27018 -0.153968 -6.11249e-20)
(1.27576 -0.145534 9.16618e-20)
(1.28111 -0.136853 -3.2501e-20)
(1.28623 -0.127929 1.66204e-20)
(1.2911 -0.118773 0)
(1.29571 -0.109394 -1.66075e-20)
(1.30005 -0.0998011 -1.69846e-20)
(1.30412 -0.0899985 0)
(1.30792 -0.0800017 1.85138e-20)
(1.31143 -0.0698204 -2.76903e-20)
(1.31467 -0.0594693 1.88036e-20)
(1.31762 -0.0489406 -9.56703e-21)
(1.32029 -0.0382148 -1.57836e-22)
(1.32267 -0.0273124 -7.2411e-21)
(1.32477 -0.0162513 2.36138e-21)
(1.32659 -0.00504191 9.28887e-21)
(1.32813 0.00631375 2.73867e-22)
(1.32938 0.017813 5.61852e-20)
(1.33036 0.0294582 0)
(1.33106 0.0412477 3.65094e-20)
(1.33148 0.0531861 -4.8979e-22)
(1.33164 0.0652785 -3.66007e-20)
(1.33152 0.077522 0)
(1.33116 0.0899148 -3.64964e-20)
(1.33055 0.102457 3.61024e-20)
(1.32972 0.115159 7.10897e-20)
(1.32867 0.128033 0)
(1.3274 0.141101 -1.42334e-19)
(1.32593 0.154388 1.42642e-19)
(1.32426 0.167928 -1.42237e-19)
(1.3224 0.181754 -1.31616e-21)
(1.32034 0.195916 0)
(1.31808 0.21044 -7.16688e-20)
(1.31566 0.225365 7.04454e-20)
(1.31306 0.24072 7.42379e-20)
(1.31029 0.256565 1.41986e-19)
(1.30732 0.27296 -2.20051e-19)
(1.30409 0.289937 1.45773e-19)
(1.30071 0.307648 -7.26866e-20)
(1.2967 0.325967 7.56316e-20)
(1.29393 0.345239 2.18912e-19)
(1.06727 -0.292179 3.44923e-20)
(1.07524 -0.291286 3.98685e-21)
(1.08323 -0.290122 -3.90156e-20)
(1.09127 -0.288709 0)
(1.09934 -0.28704 1.15507e-20)
(1.10745 -0.285105 0)
(1.11559 -0.2829 -2.84799e-20)
(1.12375 -0.280425 -1.94206e-21)
(1.13193 -0.277675 4.62134e-20)
(1.14012 -0.274644 -1.69869e-20)
(1.14831 -0.271328 -1.68348e-20)
(1.15648 -0.267724 -1.87908e-20)
(1.16462 -0.263832 0)
(1.17273 -0.259645 0)
(1.18078 -0.255161 2.02284e-20)
(1.18877 -0.250378 2.10604e-20)
(1.19668 -0.245295 -4.58359e-20)
(1.20449 -0.239914 4.57581e-20)
(1.21221 -0.234232 4.83604e-20)
(1.21981 -0.228249 -5.07504e-20)
(1.22729 -0.221966 1.01652e-19)
(1.23463 -0.215386 1.77833e-22)
(1.24182 -0.20851 -5.53291e-20)
(1.24885 -0.201341 -2.88744e-20)
(1.25569 -0.193886 -5.84796e-20)
(1.26235 -0.186144 5.85651e-20)
(1.26881 -0.178124 6.15091e-20)
(1.27505 -0.169832 -6.16977e-20)
(1.28107 -0.161267 0)
(1.28685 -0.152443 0)
(1.29239 -0.14337 8.36204e-20)
(1.29768 -0.134054 1.36668e-21)
(1.3027 -0.124504 -3.46516e-20)
(1.30746 -0.114727 -3.59244e-20)
(1.31193 -0.104734 3.614e-20)
(1.31613 -0.0945457 0)
(1.32003 -0.084168 -1.85673e-20)
(1.32364 -0.0736097 -2.93338e-20)
(1.32695 -0.0628807 1.9644e-20)
(1.32997 -0.0519719 -1.99384e-22)
(1.33268 -0.0408787 -1.55769e-21)
(1.33508 -0.0296244 7.33607e-21)
(1.33719 -0.0182263 5.0376e-21)
(1.339 -0.00669289 9.88409e-21)
(1.34052 0.00498828 -4.87367e-20)
(1.34174 0.0168182 2.63724e-22)
(1.34268 0.0287816 0)
(1.34332 0.0408694 -3.91627e-20)
(1.3437 0.0530851 1.14952e-19)
(1.3438 0.0654353 -7.65403e-20)
(1.34366 0.0779141 -3.78895e-20)
(1.34328 0.0905154 -6.78162e-22)
(1.34268 0.103244 -3.70556e-20)
(1.34186 0.116117 -4.78024e-22)
(1.34084 0.129152 7.383e-20)
(1.33964 0.142366 -7.47893e-20)
(1.33826 0.155787 -7.39078e-20)
(1.3367 0.16945 1.46915e-19)
(1.33497 0.183389 -6.16805e-22)
(1.33307 0.197652 7.39176e-20)
(1.33101 0.212261 -7.32215e-20)
(1.3288 0.227263 7.27741e-20)
(1.32645 0.242687 -1.46016e-19)
(1.32393 0.258596 -7.48669e-20)
(1.32126 0.275045 1.45687e-19)
(1.31838 0.292083 -7.78857e-20)
(1.31545 0.309869 -2.30107e-19)
(1.31197 0.328284 -7.49717e-20)
(1.30999 0.347684 0)
(1.06858 -0.306757 0)
(1.07703 -0.305829 1.03649e-20)
(1.0855 -0.304613 -8.08194e-22)
(1.09401 -0.303131 0)
(1.10255 -0.301379 0)
(1.11112 -0.299344 1.43946e-20)
(1.11969 -0.29702 -4.61095e-20)
(1.12828 -0.294407 6.31946e-20)
(1.13688 -0.291502 -3.13886e-20)
(1.14547 -0.2883 1.71655e-20)
(1.15405 -0.284799 0)
(1.16262 -0.280991 1.89887e-20)
(1.17115 -0.276876 -2.11252e-20)
(1.17963 -0.272453 0)
(1.18806 -0.267718 0)
(1.19642 -0.262669 2.33574e-20)
(1.2047 -0.257303 1.84477e-21)
(1.21287 -0.251628 -4.88248e-20)
(1.22094 -0.24564 -5.08693e-20)
(1.22888 -0.239343 5.22416e-20)
(1.23668 -0.232737 2.66855e-20)
(1.24433 -0.22582 1.1387e-19)
(1.25183 -0.218587 9.00603e-22)
(1.25915 -0.211044 -3.13885e-20)
(1.26628 -0.203203 6.05411e-20)
(1.27321 -0.195072 -3.13019e-20)
(1.27992 -0.186651 6.36713e-20)
(1.2864 -0.177954 0)
(1.29263 -0.168994 0)
(1.29862 -0.159774 0)
(1.30434 -0.150291 -1.72418e-20)
(1.30981 -0.140548 -3.54646e-20)
(1.31499 -0.130564 3.6464e-20)
(1.31988 -0.120361 3.7708e-20)
(1.32448 -0.109939 -3.7903e-20)
(1.32876 -0.0993175 0)
(1.33274 -0.0885197 1.98845e-20)
(1.33642 -0.0775482 -1.01722e-20)
(1.33978 -0.0664247 0)
(1.34282 -0.0551309 1.036e-20)
(1.34556 -0.0436552 -1.93e-21)
(1.34797 -0.0320193 1.28307e-21)
(1.35007 -0.0202415 -5.0391e-21)
(1.35186 -0.00833251 0)
(1.35334 0.00370206 -2.03983e-20)
(1.35451 0.0158433 2.01734e-20)
(1.3554 0.0280892 0)
(1.35601 0.0404457 -7.35993e-22)
(1.35636 0.052916 5.21756e-22)
(1.35646 0.0655148 3.88812e-20)
(1.35631 0.0782315 0)
(1.35594 0.0910514 -1.13541e-21)
(1.35536 0.103984 -3.80621e-20)
(1.35457 0.11704 -1.15906e-19)
(1.35359 0.130241 -1.27071e-21)
(1.35242 0.143602 7.5051e-20)
(1.3511 0.157145 0)
(1.3496 0.17091 0)
(1.34796 0.184934 7.67475e-20)
(1.34616 0.199261 0)
(1.34425 0.213918 0)
(1.3422 0.228953 -3.7846e-22)
(1.34005 0.244401 -7.54763e-20)
(1.33779 0.26033 -1.54073e-19)
(1.33547 0.276805 1.53473e-19)
(1.33304 0.293884 -4.10031e-21)
(1.33066 0.311739 7.46193e-20)
(1.32784 0.330225 7.76069e-20)
(1.32667 0.349802 0)
(1.06988 -0.322226 0)
(1.07881 -0.321256 -1.04705e-20)
(1.08776 -0.319981 3.64687e-20)
(1.09677 -0.318425 -1.13338e-20)
(1.10582 -0.316581 0)
(1.11488 -0.314439 -4.56692e-20)
(1.12395 -0.311992 7.96617e-20)
(1.13303 -0.309239 2.17938e-21)
(1.1421 -0.306179 -8.96645e-20)
(1.15116 -0.302805 1.73042e-20)
(1.16019 -0.299111 -2.06996e-20)
(1.16919 -0.295097 -2.16912e-20)
(1.17815 -0.290754 6.62353e-20)
(1.18705 -0.286082 -9.16116e-20)
(1.19589 -0.281079 4.66863e-20)
(1.20464 -0.275744 -2.64537e-20)
(1.2133 -0.270078 1.02719e-19)
(1.22186 -0.264084 -2.47957e-20)
(1.23029 -0.257759 2.91217e-20)
(1.23859 -0.251107 -2.73646e-20)
(1.24674 -0.244134 1.763e-21)
(1.25472 -0.236843 -1.8016e-19)
(1.26253 -0.229235 -3.17192e-20)
(1.27014 -0.22131 -1.61715e-21)
(1.27755 -0.213069 9.76766e-20)
(1.28475 -0.20452 -3.248e-20)
(1.29172 -0.195675 6.88829e-20)
(1.29844 -0.18654 -1.04749e-19)
(1.3049 -0.177124 0)
(1.3111 -0.167447 -3.66124e-20)
(1.31701 -0.157523 3.67406e-20)
(1.32263 -0.147351 9.10042e-22)
(1.32796 -0.136934 -1.97585e-20)
(1.33299 -0.126283 -2.0127e-20)
(1.3377 -0.115412 6.07257e-20)
(1.34208 -0.104338 -4.0478e-20)
(1.34612 -0.0930841 3.14157e-20)
(1.34983 -0.0816678 -4.21587e-20)
(1.35321 -0.0700949 2.13586e-20)
(1.35626 -0.0583496 -5.27784e-21)
(1.35898 -0.046455 0)
(1.36137 -0.0344256 5.35956e-21)
(1.36343 -0.0222791 -5.30586e-21)
(1.36518 -0.0100305 -1.06347e-20)
(1.36663 0.00233341 3.16955e-20)
(1.36777 0.014806 -2.12732e-20)
(1.36864 0.0273738 -2.07934e-20)
(1.36924 0.0400303 0)
(1.36958 0.0527721 -8.26806e-20)
(1.36967 0.0656058 8.1211e-20)
(1.36953 0.0785423 -3.96114e-20)
(1.36915 0.0915713 3.91378e-20)
(1.36857 0.104704 3.99142e-20)
(1.36777 0.117937 7.80158e-20)
(1.36677 0.131295 7.7225e-20)
(1.36558 0.144789 0)
(1.36423 0.158431 -7.87464e-20)
(1.36274 0.172264 0)
(1.36113 0.186339 1.3399e-21)
(1.3594 0.200697 -7.6915e-20)
(1.3576 0.215366 7.73345e-20)
(1.35573 0.230401 7.67812e-20)
(1.35384 0.245843 -7.87383e-20)
(1.35195 0.261773 -1.67319e-21)
(1.35009 0.278257 2.29116e-22)
(1.34824 0.295372 2.35876e-19)
(1.34652 0.313277 8.05971e-20)
(1.34447 0.331876 8.159e-20)
(1.34397 0.351572 -7.92533e-20)
(1.07121 -0.338658 0)
(1.08063 -0.337635 0)
(1.09008 -0.336292 2.72185e-20)
(1.09959 -0.334656 -4.0671e-20)
(1.10915 -0.332716 -1.58187e-20)
(1.11874 -0.330461 0)
(1.12833 -0.327886 0)
(1.13794 -0.324985 1.91046e-20)
(1.14753 -0.321758 -4.00714e-20)
(1.15711 -0.318197 -3.63473e-21)
(1.16665 -0.314294 1.06905e-19)
(1.17614 -0.310051 -2.2101e-20)
(1.18557 -0.305464 2.38153e-20)
(1.19494 -0.300528 -4.79938e-20)
(1.20423 -0.295242 2.63749e-20)
(1.21342 -0.289605 0)
(1.22251 -0.28362 0)
(1.23147 -0.277292 8.77287e-22)
(1.2403 -0.270624 -8.78472e-20)
(1.24897 -0.263611 2.93837e-20)
(1.25748 -0.256258 -3.20898e-20)
(1.26582 -0.248562 3.11717e-20)
(1.27397 -0.240525 3.27729e-20)
(1.28191 -0.232159 -3.18969e-20)
(1.28962 -0.223478 -3.36684e-20)
(1.29709 -0.214486 0)
(1.30431 -0.205183 0)
(1.31127 -0.195585 5.50052e-20)
(1.31795 -0.185706 0)
(1.32434 -0.175558 3.87467e-20)
(1.33043 -0.165148 -3.88594e-20)
(1.33622 -0.154479 -1.94791e-20)
(1.3417 -0.14357 1.98196e-20)
(1.34686 -0.132424 4.12837e-20)
(1.35168 -0.121065 -2.04727e-20)
(1.35615 -0.109529 -2.13817e-20)
(1.36027 -0.0978191 2.20439e-20)
(1.36403 -0.0859397 0)
(1.36744 -0.0739235 0)
(1.37051 -0.0617444 5.74404e-21)
(1.37322 -0.0494235 0)
(1.3756 -0.0369732 0)
(1.37764 -0.0244158 -1.67532e-20)
(1.37936 -0.0117644 2.22166e-20)
(1.38076 0.000972231 -1.11357e-20)
(1.38186 0.0137752 2.13365e-20)
(1.38266 0.0266504 0)
(1.38318 0.0395865 6.43149e-20)
(1.38343 0.0525977 -5.82669e-22)
(1.38342 0.065703 0)
(1.38316 0.0788883 -8.22636e-20)
(1.38266 0.0921356 -4.94615e-22)
(1.38195 0.105455 -7.98169e-20)
(1.38105 0.118831 -4.0421e-20)
(1.37995 0.132315 -7.96027e-20)
(1.37872 0.145897 7.88203e-20)
(1.37735 0.159587 7.81611e-20)
(1.37587 0.173464 0)
(1.37432 0.187572 -7.98841e-20)
(1.37271 0.201939 5.0177e-22)
(1.37111 0.216597 0)
(1.36954 0.231613 0)
(1.36804 0.247033 7.85066e-20)
(1.36664 0.262951 0)
(1.36537 0.279432 0)
(1.3642 0.296568 -7.95163e-20)
(1.36321 0.314509 -7.8339e-20)
(1.36192 0.333222 -8.31087e-20)
(1.36199 0.352799 0)
(1.07264 -0.356154 0)
(1.08257 -0.355077 0)
(1.09254 -0.353664 0)
(1.10258 -0.351936 -1.60298e-20)
(1.11267 -0.349888 -1.83751e-20)
(1.12278 -0.347503 -2.48336e-21)
(1.13291 -0.344778 3.63746e-20)
(1.14305 -0.341709 -1.92543e-20)
(1.15318 -0.338296 2.18013e-20)
(1.16329 -0.334531 4.43343e-20)
(1.17337 -0.330408 0)
(1.1834 -0.32592 0)
(1.19336 -0.321075 -1.03676e-21)
(1.20324 -0.315864 7.88797e-20)
(1.21303 -0.310287 -1.10806e-19)
(1.22272 -0.304335 -2.17392e-21)
(1.23229 -0.298019 5.76562e-20)
(1.24172 -0.291334 2.94461e-20)
(1.25099 -0.284283 -1.9056e-21)
(1.26009 -0.276872 0)
(1.26901 -0.269102 6.63901e-20)
(1.27772 -0.260987 0)
(1.28622 -0.252523 7.01649e-20)
(1.2945 -0.243707 -1.07653e-19)
(1.30254 -0.234551 1.10557e-19)
(1.31032 -0.225072 3.86846e-20)
(1.31783 -0.215282 -5.84837e-20)
(1.32505 -0.205185 5.91949e-20)
(1.33197 -0.194803 -3.95507e-20)
(1.33858 -0.184137 0)
(1.34487 -0.173204 -4.16636e-20)
(1.35081 -0.162017 -2.21701e-20)
(1.35642 -0.150588 4.25105e-20)
(1.36167 -0.138925 -4.35165e-20)
(1.36659 -0.12703 2.21352e-20)
(1.37114 -0.114956 -2.22062e-20)
(1.37532 -0.102739 -1.10736e-20)
(1.37914 -0.0903765 1.17541e-20)
(1.3826 -0.0778831 5.73522e-21)
(1.38569 -0.0652244 -1.73348e-20)
(1.38841 -0.0524364 -1.48186e-21)
(1.39076 -0.0395423 0)
(1.39274 -0.0265585 5.62749e-21)
(1.39438 -0.0135081 -1.11782e-20)
(1.39569 -0.000397715 1.10923e-20)
(1.39667 0.012766 0)
(1.39735 0.0259809 0)
(1.39773 0.0392387 2.22814e-20)
(1.39782 0.0525339 -4.32723e-20)
(1.39765 0.0658757 -8.62795e-20)
(1.3972 0.0792625 1.69121e-19)
(1.39654 0.0926911 -4.23886e-20)
(1.39564 0.10618 4.13059e-20)
(1.39456 0.119709 4.04908e-20)
(1.39334 0.133322 -8.14761e-20)
(1.39199 0.147012 8.04254e-20)
(1.39059 0.16075 0)
(1.38918 0.174623 -8.14477e-20)
(1.38777 0.188708 4.32564e-22)
(1.38641 0.203049 8.02112e-20)
(1.38514 0.217676 0)
(1.38398 0.232658 0)
(1.38299 0.248045 0)
(1.38216 0.263935 1.63173e-19)
(1.3815 0.280386 8.3699e-20)
(1.38099 0.297502 8.28297e-20)
(1.38068 0.315423 -1.63019e-19)
(1.38005 0.334126 -1.80499e-21)
(1.38111 0.353764 8.41758e-20)
(1.07418 -0.374813 0)
(1.08466 -0.373681 -2.98997e-20)
(1.09519 -0.372189 3.77811e-20)
(1.10577 -0.370362 -2.74531e-20)
(1.11641 -0.368195 5.33533e-20)
(1.12707 -0.365673 1.99767e-20)
(1.13775 -0.362789 2.12156e-20)
(1.14845 -0.359544 0)
(1.15914 -0.355929 -4.56205e-20)
(1.16982 -0.35194 -4.73778e-20)
(1.18046 -0.347575 4.8827e-20)
(1.19104 -0.342829 -2.71188e-20)
(1.20156 -0.337701 2.93157e-20)
(1.21199 -0.332185 -2.50594e-20)
(1.22232 -0.326283 -1.19328e-19)
(1.23253 -0.319986 -2.27444e-21)
(1.24261 -0.313296 -2.2181e-21)
(1.25253 -0.306224 6.35944e-20)
(1.26228 -0.298763 3.23469e-20)
(1.27184 -0.290933 6.96264e-20)
(1.28119 -0.282733 -6.74567e-20)
(1.29033 -0.274159 0)
(1.29924 -0.265224 2.22036e-21)
(1.3079 -0.255921 0)
(1.31631 -0.246266 -3.792e-20)
(1.32443 -0.23627 -3.87355e-20)
(1.33225 -0.225943 1.97572e-20)
(1.33976 -0.215297 0)
(1.34694 -0.204367 2.16419e-20)
(1.35377 -0.193172 4.31576e-20)
(1.36025 -0.1817 -4.33238e-20)
(1.36638 -0.16996 2.16466e-20)
(1.37215 -0.157978 -4.53423e-20)
(1.37753 -0.145768 9.08727e-20)
(1.38254 -0.133336 -2.30731e-20)
(1.38716 -0.120712 0)
(1.39138 -0.107924 -1.21438e-20)
(1.39521 -0.0949786 5.41485e-22)
(1.39863 -0.0819265 1.80396e-20)
(1.40165 -0.068761 -1.50286e-20)
(1.40428 -0.0555018 2.92909e-21)
(1.40654 -0.0421462 -9.01708e-21)
(1.40842 -0.0287176 5.91571e-21)
(1.40995 -0.0152368 0)
(1.41114 -0.00171987 0)
(1.41199 0.0118246 0)
(1.41251 0.025388 2.3167e-20)
(1.41271 0.0389625 2.28939e-20)
(1.41261 0.0525575 0)
(1.41224 0.0661662 4.40135e-20)
(1.4116 0.079794 4.46972e-20)
(1.41076 0.093438 4.35301e-20)
(1.4097 0.107076 0)
(1.4085 0.12075 0)
(1.40719 0.13444 -8.343e-20)
(1.40584 0.148114 8.26546e-20)
(1.40453 0.161865 0)
(1.40327 0.175763 8.17269e-20)
(1.4021 0.18984 -8.15446e-20)
(1.40104 0.204146 -8.26853e-20)
(1.40014 0.218725 8.23439e-20)
(1.39941 0.23365 -8.11213e-20)
(1.39889 0.248973 0)
(1.39855 0.264782 -8.10635e-20)
(1.39842 0.281145 1.65573e-21)
(1.39843 0.298152 -1.64991e-19)
(1.39865 0.315954 -1.68691e-19)
(1.39847 0.334457 1.66846e-19)
(1.40041 0.353827 -8.32006e-20)
(1.07583 -0.394704 -7.43881e-21)
(1.08691 -0.393506 0)
(1.09803 -0.391922 -8.15129e-21)
(1.10921 -0.389984 4.67684e-20)
(1.12044 -0.387682 -8.68927e-20)
(1.1317 -0.385004 2.01941e-20)
(1.14298 -0.381948 -2.12862e-20)
(1.15426 -0.378511 4.79621e-20)
(1.16552 -0.374691 -2.40188e-20)
(1.17676 -0.37048 -2.48761e-20)
(1.18797 -0.365865 -2.80014e-20)
(1.19914 -0.360846 8.48142e-20)
(1.21023 -0.355413 -2.69405e-20)
(1.22123 -0.349569 9.36727e-20)
(1.23211 -0.343309 3.29832e-20)
(1.24287 -0.336635 2.38511e-21)
(1.25349 -0.329545 -6.61919e-20)
(1.26393 -0.322052 0)
(1.2742 -0.314153 0)
(1.28427 -0.305855 -3.79573e-20)
(1.29411 -0.297182 -3.65562e-20)
(1.30371 -0.288121 -7.81987e-20)
(1.31305 -0.278683 3.96991e-20)
(1.32211 -0.268873 8.18243e-20)
(1.33089 -0.258687 -8.18607e-20)
(1.33937 -0.248147 2.1771e-20)
(1.34752 -0.23726 2.2177e-20)
(1.35534 -0.226045 0)
(1.36281 -0.214518 -2.16755e-20)
(1.36991 -0.202696 -4.55826e-20)
(1.37663 -0.190604 -5.8596e-22)
(1.38294 -0.178248 4.64136e-20)
(1.38886 -0.165643 -2.43281e-20)
(1.39436 -0.152817 0)
(1.39945 -0.139779 1.2465e-20)
(1.4041 -0.126568 -1.25958e-20)
(1.40833 -0.113209 1.21405e-20)
(1.41212 -0.099709 -2.51475e-20)
(1.41549 -0.0861071 0)
(1.41845 -0.0723703 -3.22245e-21)
(1.421 -0.0585539 3.12642e-21)
(1.42315 -0.0446866 -4.73753e-21)
(1.42491 -0.0307867 1.83648e-20)
(1.42629 -0.0168609 -3.63509e-20)
(1.42728 -0.00291086 2.39624e-20)
(1.42791 0.0110459 2.36791e-20)
(1.42817 0.0250019 -2.26401e-20)
(1.42811 0.0389261 4.69505e-20)
(1.42773 0.0528238 -4.57155e-20)
(1.4271 0.0666943 -1.12348e-19)
(1.42626 0.0805479 6.18477e-22)
(1.42522 0.0943854 -4.32744e-20)
(1.42407 0.108159 0)
(1.42287 0.121902 0)
(1.42164 0.13561 -8.51673e-20)
(1.42048 0.149322 1.26714e-19)
(1.41939 0.163104 -8.42514e-20)
(1.41838 0.176994 0)
(1.41747 0.191036 8.40815e-20)
(1.41669 0.205286 1.65504e-19)
(1.4161 0.219786 -8.21223e-20)
(1.41569 0.234606 -1.07362e-21)
(1.41553 0.249801 8.17423e-20)
(1.41556 0.265459 2.93203e-22)
(1.4158 0.28165 -1.6553e-19)
(1.41614 0.298451 1.64659e-19)
(1.41665 0.316011 8.3324e-20)
(1.41668 0.334186 0)
(1.41893 0.353126 0)
(1.07757 -0.415948 7.4862e-21)
(1.08929 -0.414687 4.50232e-20)
(1.10106 -0.413019 -3.57279e-20)
(1.11288 -0.41098 0)
(1.12475 -0.408558 -1.02814e-20)
(1.13666 -0.405729 -4.69163e-20)
(1.14858 -0.40249 3.40666e-20)
(1.1605 -0.398846 -6.5264e-20)
(1.17241 -0.394786 5.17614e-20)
(1.18429 -0.390309 0)
(1.19612 -0.385408 1.29675e-20)
(1.20788 -0.38008 0)
(1.21956 -0.374314 3.39035e-20)
(1.23115 -0.36811 -9.57265e-20)
(1.24262 -0.361468 0)
(1.25395 -0.354397 0)
(1.26513 -0.346894 0)
(1.27613 -0.338966 -5.62412e-20)
(1.28693 -0.330618 7.52452e-20)
(1.29751 -0.321842 3.80097e-20)
(1.30786 -0.312644 0)
(1.31794 -0.303032 0)
(1.32774 -0.293015 0)
(1.33723 -0.282614 -1.09195e-19)
(1.34642 -0.271827 1.31237e-19)
(1.35527 -0.260672 -6.59976e-20)
(1.36377 -0.249168 -4.55537e-20)
(1.3719 -0.237319 4.65406e-20)
(1.37964 -0.225169 -4.65717e-20)
(1.38697 -0.212725 2.45852e-20)
(1.3939 -0.199987 -4.87786e-20)
(1.40041 -0.18698 2.36342e-20)
(1.40649 -0.173728 4.99724e-20)
(1.41213 -0.160262 2.59567e-20)
(1.41733 -0.146592 -1.24555e-20)
(1.42209 -0.132742 1.2588e-20)
(1.4264 -0.118759 0)
(1.43025 -0.104653 -6.30196e-22)
(1.43365 -0.0904471 6.62745e-21)
(1.43659 -0.0761173 1.30849e-23)
(1.43905 -0.0617238 -3.24899e-21)
(1.44106 -0.047279 7.99057e-21)
(1.44259 -0.0328134 -1.28345e-20)
(1.44371 -0.0183488 -6.40541e-21)
(1.4444 -0.00389912 1.2662e-20)
(1.44472 0.0104999 0)
(1.44468 0.0248486 -4.86485e-20)
(1.44434 0.039109 -7.157e-20)
(1.44375 0.0532827 1.46789e-22)
(1.44293 0.0674189 6.98799e-20)
(1.44197 0.0814575 0)
(1.4409 0.095396 0)
(1.43979 0.109282 -4.53432e-20)
(1.43864 0.123126 8.8903e-20)
(1.43752 0.13693 4.32529e-22)
(1.43645 0.15071 -4.37129e-20)
(1.43544 0.164503 1.71143e-19)
(1.43452 0.178367 -8.45298e-20)
(1.43373 0.192342 -8.33645e-20)
(1.43311 0.206487 -1.67622e-19)
(1.43271 0.220848 1.85968e-22)
(1.43252 0.235497 1.02377e-21)
(1.43258 0.250491 9.57182e-22)
(1.43281 0.265912 1.65182e-19)
(1.43322 0.28183 -8.14161e-20)
(1.43367 0.298312 -8.23371e-20)
(1.43419 0.31549 8.45314e-20)
(1.43419 0.333275 8.57204e-20)
(1.43552 0.351292 0)
(1.07939 -0.438732 -3.60364e-20)
(1.09182 -0.43741 1.72122e-20)
(1.10429 -0.435657 0)
(1.11683 -0.433496 -1.14087e-20)
(1.12942 -0.430922 0)
(1.14203 -0.427915 3.78628e-20)
(1.15464 -0.424475 -2.43182e-20)
(1.16724 -0.420607 5.49899e-20)
(1.17981 -0.416301 -5.5752e-20)
(1.19235 -0.411538 -1.56001e-20)
(1.20484 -0.40632 7.90932e-20)
(1.21725 -0.400646 -6.3761e-20)
(1.22957 -0.394516 0)
(1.24179 -0.387925 -7.16705e-20)
(1.25388 -0.380875 1.45383e-19)
(1.26583 -0.373368 -7.37048e-20)
(1.2776 -0.365408 0)
(1.28919 -0.356984 -9.98511e-20)
(1.30057 -0.348107 1.41724e-19)
(1.31169 -0.3388 -8.22947e-20)
(1.32254 -0.329059 0)
(1.33312 -0.318878 0)
(1.3434 -0.308278 0)
(1.35336 -0.297268 2.21917e-20)
(1.36297 -0.285854 4.70873e-20)
(1.37223 -0.274043 -4.70627e-20)
(1.3811 -0.261858 2.34543e-20)
(1.38956 -0.249321 0)
(1.39761 -0.236451 5.01638e-20)
(1.40522 -0.223279 -7.48349e-20)
(1.41238 -0.209843 0)
(1.41908 -0.196143 5.20316e-20)
(1.42533 -0.182177 -2.55553e-20)
(1.4311 -0.167984 -2.57843e-20)
(1.43639 -0.153599 1.36933e-20)
(1.44119 -0.139036 0)
(1.44548 -0.124328 0)
(1.44926 -0.109498 1.32914e-20)
(1.45252 -0.0945694 0)
(1.45528 -0.0795697 -6.75934e-21)
(1.45753 -0.0645219 1.6365e-21)
(1.45931 -0.0494909 6.61128e-21)
(1.46064 -0.0344965 -1.36096e-22)
(1.46156 -0.0195426 1.30006e-20)
(1.46211 -0.00467675 2.61948e-20)
(1.46232 0.0101346 1.28842e-20)
(1.46222 0.0248682 -2.60877e-20)
(1.46185 0.0394995 -2.52042e-20)
(1.46124 0.0539885 -4.87418e-20)
(1.46043 0.0683277 4.82678e-20)
(1.45944 0.0825714 0)
(1.45834 0.0967524 -4.72026e-20)
(1.45714 0.11082 -4.51064e-22)
(1.4559 0.124754 5.34451e-22)
(1.45467 0.138588 -8.83713e-20)
(1.45348 0.152361 0)
(1.45238 0.166114 -4.33154e-20)
(1.45142 0.179896 0)
(1.45065 0.193749 0)
(1.45007 0.207731 8.28574e-20)
(1.44973 0.22189 -8.06284e-22)
(1.44959 0.236296 -8.28978e-20)
(1.44965 0.251001 8.27189e-20)
(1.44983 0.266084 -8.15579e-20)
(1.4501 0.281599 8.29713e-20)
(1.45033 0.297611 -8.22116e-20)
(1.45053 0.314233 -1.68057e-19)
(1.45023 0.331389 -1.72103e-19)