/*--------------------------------*- C++ -*----------------------------------*\
| =========                 |                                                 |
| \\      /  F ield         | OpenFOAM: The Open Source CFD Toolbox           |
|  \\    /   O peration     | Version:  2312                                  |
|   \\  /    A nd           | Website:  www.openfoam.com                      |
|    \\/     M anipulation  |                                                 |
\*---------------------------------------------------------------------------*/
FoamFile
{
    version     2.0;
    format      ascii;
    arch        "LSB;label=32;scalar=64";
    class       volScalarField;
    location    "300";
    object      k;
}
// * * * * * * * * * * * * * * * * * * * * * * * * * * * * * * * * * * * * * //

dimensions      [0 2 -2 0 0 0 0];

internalField   nonuniform List<scalar> 
76025
(
4.80278e-06
4.80396e-06
4.80525e-06
4.80659e-06
4.807e-06
4.80866e-06
4.80913e-06
4.81069e-06
4.81162e-06
4.81329e-06
4.81468e-06
4.81617e-06
4.81825e-06
4.82017e-06
4.82284e-06
4.82549e-06
4.82812e-06
4.83148e-06
4.83418e-06
4.83762e-06
4.84104e-06
4.84518e-06
4.84882e-06
4.85308e-06
4.85734e-06
4.86177e-06
4.86682e-06
4.8711e-06
4.87655e-06
4.88146e-06
4.88616e-06
4.89187e-06
4.89744e-06
4.90416e-06
4.91083e-06
4.91808e-06
4.9266e-06
4.93499e-06
4.94499e-06
4.95529e-06
4.96692e-06
4.98046e-06
4.99481e-06
5.01147e-06
5.02952e-06
5.05051e-06
5.07287e-06
5.09829e-06
5.1265e-06
5.15675e-06
5.19059e-06
5.22687e-06
5.26626e-06
5.30675e-06
5.3549e-06
5.40213e-06
5.4564e-06
5.5147e-06
5.58047e-06
5.65069e-06
5.72508e-06
5.81193e-06
5.91207e-06
6.01818e-06
6.1478e-06
6.27399e-06
6.41519e-06
6.59114e-06
6.84667e-06
4.83449e-06
4.8356e-06
4.83671e-06
4.83821e-06
4.83923e-06
4.84082e-06
4.84197e-06
4.84345e-06
4.84482e-06
4.84639e-06
4.84804e-06
4.84976e-06
4.85162e-06
4.85364e-06
4.85595e-06
4.85846e-06
4.86116e-06
4.86413e-06
4.86723e-06
4.87048e-06
4.87392e-06
4.87766e-06
4.88159e-06
4.88577e-06
4.89029e-06
4.89483e-06
4.89987e-06
4.90501e-06
4.91051e-06
4.91638e-06
4.92259e-06
4.92905e-06
4.93611e-06
4.94362e-06
4.95181e-06
4.96069e-06
4.97032e-06
4.98085e-06
4.99247e-06
5.00512e-06
5.01927e-06
5.03457e-06
5.05169e-06
5.0703e-06
5.09105e-06
5.11358e-06
5.1383e-06
5.16525e-06
5.19447e-06
5.22631e-06
5.26043e-06
5.29764e-06
5.33723e-06
5.38136e-06
5.42841e-06
5.48094e-06
5.53827e-06
5.60127e-06
5.6698e-06
5.74402e-06
5.82725e-06
5.91936e-06
6.01999e-06
6.13098e-06
6.25732e-06
6.38957e-06
6.54719e-06
6.78195e-06
7.06274e-06
4.86841e-06
4.86992e-06
4.87123e-06
4.87276e-06
4.87411e-06
4.87568e-06
4.87721e-06
4.87886e-06
4.88054e-06
4.88231e-06
4.88417e-06
4.88611e-06
4.88818e-06
4.89031e-06
4.89268e-06
4.89519e-06
4.89796e-06
4.90091e-06
4.90413e-06
4.90755e-06
4.9112e-06
4.91507e-06
4.91923e-06
4.92363e-06
4.92841e-06
4.93341e-06
4.93878e-06
4.94448e-06
4.95058e-06
4.95709e-06
4.96413e-06
4.97162e-06
4.97974e-06
4.98849e-06
4.99798e-06
5.00828e-06
5.01945e-06
5.03162e-06
5.04483e-06
5.05923e-06
5.07492e-06
5.09196e-06
5.11054e-06
5.13071e-06
5.15267e-06
5.17645e-06
5.20232e-06
5.23026e-06
5.26069e-06
5.2935e-06
5.32932e-06
5.36798e-06
5.41043e-06
5.45653e-06
5.50715e-06
5.56257e-06
5.62326e-06
5.68913e-06
5.76105e-06
5.83955e-06
5.92654e-06
6.02192e-06
6.12895e-06
6.24661e-06
6.38188e-06
6.51852e-06
6.7073e-06
6.9696e-06
7.26241e-06
4.90237e-06
4.90474e-06
4.90685e-06
4.90887e-06
4.91076e-06
4.91265e-06
4.91454e-06
4.91649e-06
4.9185e-06
4.92058e-06
4.92275e-06
4.92501e-06
4.9274e-06
4.92988e-06
4.93251e-06
4.93529e-06
4.93827e-06
4.94145e-06
4.94487e-06
4.94854e-06
4.95249e-06
4.95671e-06
4.96124e-06
4.96608e-06
4.97127e-06
4.97681e-06
4.98273e-06
4.98908e-06
4.99589e-06
5.00319e-06
5.01105e-06
5.0195e-06
5.02861e-06
5.03845e-06
5.04908e-06
5.06057e-06
5.07298e-06
5.08639e-06
5.10087e-06
5.11654e-06
5.13349e-06
5.15185e-06
5.17169e-06
5.1932e-06
5.21645e-06
5.24171e-06
5.26901e-06
5.29868e-06
5.33083e-06
5.36578e-06
5.40379e-06
5.44515e-06
5.49026e-06
5.53952e-06
5.59328e-06
5.65234e-06
5.71659e-06
5.78658e-06
5.86297e-06
5.94659e-06
6.03903e-06
6.14158e-06
6.25441e-06
6.38052e-06
6.5156e-06
6.66707e-06
6.90015e-06
7.18673e-06
7.54911e-06
4.93848e-06
4.94129e-06
4.94402e-06
4.94664e-06
4.94916e-06
4.95161e-06
4.95401e-06
4.95642e-06
4.95885e-06
4.96134e-06
4.96392e-06
4.96659e-06
4.96938e-06
4.9723e-06
4.97537e-06
4.9786e-06
4.98201e-06
4.98562e-06
4.98946e-06
4.99355e-06
4.99792e-06
5.00258e-06
5.00758e-06
5.01292e-06
5.01864e-06
5.02476e-06
5.03131e-06
5.03833e-06
5.04587e-06
5.05395e-06
5.06263e-06
5.07196e-06
5.082e-06
5.0928e-06
5.10443e-06
5.11693e-06
5.13041e-06
5.14491e-06
5.16053e-06
5.17738e-06
5.19558e-06
5.21523e-06
5.23645e-06
5.25942e-06
5.28424e-06
5.31118e-06
5.3403e-06
5.37195e-06
5.40626e-06
5.44356e-06
5.48417e-06
5.52828e-06
5.57652e-06
5.62899e-06
5.68644e-06
5.7494e-06
5.81779e-06
5.89218e-06
5.97365e-06
6.06265e-06
6.16174e-06
6.26985e-06
6.38934e-06
6.52113e-06
6.66021e-06
6.8524e-06
7.13219e-06
7.42904e-06
7.98802e-06
4.97952e-06
4.9821e-06
4.98485e-06
4.98766e-06
4.99051e-06
4.99338e-06
4.99624e-06
4.99912e-06
5.00203e-06
5.00498e-06
5.00801e-06
5.01114e-06
5.01439e-06
5.0178e-06
5.02137e-06
5.02513e-06
5.02908e-06
5.03325e-06
5.03764e-06
5.04228e-06
5.0472e-06
5.05241e-06
5.05796e-06
5.06386e-06
5.07016e-06
5.07687e-06
5.08406e-06
5.09175e-06
5.1e-06
5.10884e-06
5.11832e-06
5.12848e-06
5.1394e-06
5.1511e-06
5.16369e-06
5.17719e-06
5.19173e-06
5.20731e-06
5.22413e-06
5.24222e-06
5.26179e-06
5.28285e-06
5.30565e-06
5.33027e-06
5.35691e-06
5.38579e-06
5.41702e-06
5.45101e-06
5.48777e-06
5.52785e-06
5.57135e-06
5.6187e-06
5.67038e-06
5.72659e-06
5.78814e-06
5.8556e-06
5.92862e-06
6.0084e-06
6.09578e-06
6.19142e-06
6.29741e-06
6.41172e-06
6.53932e-06
6.67612e-06
6.83595e-06
7.0919e-06
7.38498e-06
7.75843e-06
8.75603e-06
5.02723e-06
5.02946e-06
5.03193e-06
5.03457e-06
5.03737e-06
5.04031e-06
5.04336e-06
5.04651e-06
5.04974e-06
5.05306e-06
5.05648e-06
5.06001e-06
5.06369e-06
5.06753e-06
5.07156e-06
5.07579e-06
5.08025e-06
5.08494e-06
5.08989e-06
5.09509e-06
5.10058e-06
5.10637e-06
5.1125e-06
5.119e-06
5.1259e-06
5.13325e-06
5.14109e-06
5.14947e-06
5.15845e-06
5.16805e-06
5.17834e-06
5.18936e-06
5.20119e-06
5.21386e-06
5.22747e-06
5.24206e-06
5.25776e-06
5.27457e-06
5.29273e-06
5.31223e-06
5.33335e-06
5.35605e-06
5.38067e-06
5.40718e-06
5.43595e-06
5.46705e-06
5.50074e-06
5.53734e-06
5.57692e-06
5.62007e-06
5.6668e-06
5.7177e-06
5.77317e-06
5.83352e-06
5.89971e-06
5.97219e-06
6.05068e-06
6.13679e-06
6.23096e-06
6.33372e-06
6.44645e-06
6.56772e-06
6.70406e-06
6.85039e-06
7.0655e-06
7.37037e-06
7.67898e-06
8.26692e-06
1.02288e-05
5.08075e-06
5.08294e-06
5.0853e-06
5.08782e-06
5.09053e-06
5.09342e-06
5.0965e-06
5.09975e-06
5.10315e-06
5.10671e-06
5.11042e-06
5.11428e-06
5.11832e-06
5.12254e-06
5.12698e-06
5.13164e-06
5.13655e-06
5.14171e-06
5.14716e-06
5.15289e-06
5.15893e-06
5.1653e-06
5.17204e-06
5.17916e-06
5.18672e-06
5.19475e-06
5.20331e-06
5.21245e-06
5.2222e-06
5.23265e-06
5.24382e-06
5.25579e-06
5.26861e-06
5.28235e-06
5.29708e-06
5.31289e-06
5.32987e-06
5.34808e-06
5.36774e-06
5.38886e-06
5.41172e-06
5.43628e-06
5.46293e-06
5.49158e-06
5.52272e-06
5.55627e-06
5.59269e-06
5.63213e-06
5.67479e-06
5.72125e-06
5.77148e-06
5.8263e-06
5.88597e-06
5.951e-06
6.02256e-06
6.10087e-06
6.18583e-06
6.2794e-06
6.38072e-06
6.49092e-06
6.61027e-06
6.74151e-06
6.88803e-06
7.07039e-06
7.36377e-06
7.66756e-06
8.11326e-06
9.14093e-06
1.32178e-05
5.14029e-06
5.14271e-06
5.14526e-06
5.1479e-06
5.15069e-06
5.15365e-06
5.1568e-06
5.16014e-06
5.16367e-06
5.16739e-06
5.17131e-06
5.17544e-06
5.17977e-06
5.18433e-06
5.18912e-06
5.19417e-06
5.19949e-06
5.2051e-06
5.21101e-06
5.21724e-06
5.22382e-06
5.23077e-06
5.23812e-06
5.2459e-06
5.25414e-06
5.2629e-06
5.27223e-06
5.28219e-06
5.29281e-06
5.30417e-06
5.31631e-06
5.32931e-06
5.34322e-06
5.35814e-06
5.3741e-06
5.39126e-06
5.40964e-06
5.42941e-06
5.4507e-06
5.47363e-06
5.49837e-06
5.52499e-06
5.55383e-06
5.58481e-06
5.61849e-06
5.65466e-06
5.69401e-06
5.73645e-06
5.78247e-06
5.8325e-06
5.88664e-06
5.94586e-06
6.01035e-06
6.08078e-06
6.15879e-06
6.24381e-06
6.33638e-06
6.43805e-06
6.54639e-06
6.66412e-06
6.79227e-06
6.93764e-06
7.10863e-06
7.36779e-06
7.70475e-06
8.01501e-06
8.76211e-06
1.09111e-05
1.91995e-05
5.20523e-06
5.20806e-06
5.211e-06
5.214e-06
5.21711e-06
5.22036e-06
5.22378e-06
5.22736e-06
5.23114e-06
5.23512e-06
5.23932e-06
5.24375e-06
5.24841e-06
5.25333e-06
5.25851e-06
5.26398e-06
5.26974e-06
5.27583e-06
5.28225e-06
5.28903e-06
5.29619e-06
5.30376e-06
5.31177e-06
5.32027e-06
5.32926e-06
5.33883e-06
5.349e-06
5.35986e-06
5.37143e-06
5.3838e-06
5.397e-06
5.41114e-06
5.42622e-06
5.44243e-06
5.45973e-06
5.47835e-06
5.49824e-06
5.51971e-06
5.54274e-06
5.5676e-06
5.59434e-06
5.62316e-06
5.65429e-06
5.68776e-06
5.7241e-06
5.7631e-06
5.80558e-06
5.85129e-06
5.90106e-06
5.9551e-06
6.01374e-06
6.07805e-06
6.14816e-06
6.22506e-06
6.3109e-06
6.40341e-06
6.50442e-06
6.61386e-06
6.72916e-06
6.85631e-06
6.99918e-06
7.16913e-06
7.40289e-06
7.73911e-06
8.07113e-06
8.48341e-06
9.98236e-06
1.46756e-05
3.12536e-05
5.27715e-06
5.28042e-06
5.28379e-06
5.28722e-06
5.29077e-06
5.29444e-06
5.29826e-06
5.30225e-06
5.30641e-06
5.31077e-06
5.31535e-06
5.32015e-06
5.32522e-06
5.33055e-06
5.33616e-06
5.34209e-06
5.34834e-06
5.35494e-06
5.3619e-06
5.36927e-06
5.37705e-06
5.38529e-06
5.394e-06
5.40325e-06
5.41304e-06
5.42346e-06
5.43454e-06
5.44635e-06
5.45894e-06
5.47238e-06
5.48671e-06
5.50205e-06
5.51842e-06
5.53598e-06
5.55472e-06
5.57488e-06
5.59641e-06
5.61967e-06
5.64456e-06
5.67146e-06
5.70032e-06
5.73149e-06
5.76507e-06
5.80125e-06
5.84048e-06
5.88264e-06
5.92863e-06
5.97811e-06
6.0322e-06
6.0909e-06
6.15485e-06
6.22522e-06
6.30192e-06
6.38692e-06
6.48152e-06
6.58182e-06
6.69142e-06
6.80793e-06
6.93244e-06
7.07523e-06
7.24471e-06
7.46871e-06
7.79477e-06
8.12854e-06
8.54006e-06
9.27509e-06
1.25287e-05
2.26852e-05
5.632e-05
5.3562e-06
5.3599e-06
5.36372e-06
5.36763e-06
5.37165e-06
5.37581e-06
5.38013e-06
5.38461e-06
5.38927e-06
5.39414e-06
5.39922e-06
5.40455e-06
5.41013e-06
5.41599e-06
5.42215e-06
5.42864e-06
5.43547e-06
5.44267e-06
5.45027e-06
5.4583e-06
5.46679e-06
5.47576e-06
5.48525e-06
5.49532e-06
5.50598e-06
5.51731e-06
5.52937e-06
5.54222e-06
5.5559e-06
5.57048e-06
5.58604e-06
5.60267e-06
5.62042e-06
5.63942e-06
5.65974e-06
5.68154e-06
5.70486e-06
5.73003e-06
5.75696e-06
5.78608e-06
5.81729e-06
5.85106e-06
5.8874e-06
5.92666e-06
5.96919e-06
6.01505e-06
6.06509e-06
6.11904e-06
6.17821e-06
6.24245e-06
6.31271e-06
6.39035e-06
6.47489e-06
6.56989e-06
6.67246e-06
6.78059e-06
6.89862e-06
7.02389e-06
7.16546e-06
7.33645e-06
7.55891e-06
7.87321e-06
8.23374e-06
8.51508e-06
9.2511e-06
1.09673e-05
1.81597e-05
3.88853e-05
8.22058e-05
5.44524e-06
5.44934e-06
5.45358e-06
5.45791e-06
5.46236e-06
5.46697e-06
5.47175e-06
5.47671e-06
5.48187e-06
5.48724e-06
5.49284e-06
5.4987e-06
5.50483e-06
5.51126e-06
5.518e-06
5.52509e-06
5.53255e-06
5.5404e-06
5.54869e-06
5.55742e-06
5.56665e-06
5.5764e-06
5.58672e-06
5.59764e-06
5.60923e-06
5.62153e-06
5.63463e-06
5.64856e-06
5.66341e-06
5.67921e-06
5.6961e-06
5.7141e-06
5.73335e-06
5.75394e-06
5.77597e-06
5.79959e-06
5.82493e-06
5.8522e-06
5.88148e-06
5.91308e-06
5.94703e-06
5.98376e-06
6.02335e-06
6.0662e-06
6.11262e-06
6.16286e-06
6.21768e-06
6.27697e-06
6.34212e-06
6.41296e-06
6.49085e-06
6.57706e-06
6.67123e-06
6.77614e-06
6.88515e-06
7.0017e-06
7.1303e-06
7.2732e-06
7.44676e-06
7.66893e-06
7.98363e-06
8.33901e-06
8.6521e-06
8.99995e-06
1.07162e-05
1.50034e-05
3.03955e-05
6.8475e-05
9.49821e-05
5.54456e-06
5.54914e-06
5.55386e-06
5.55867e-06
5.56362e-06
5.56872e-06
5.574e-06
5.57948e-06
5.58516e-06
5.59107e-06
5.59723e-06
5.60367e-06
5.6104e-06
5.61744e-06
5.62482e-06
5.63258e-06
5.64073e-06
5.64929e-06
5.65833e-06
5.66784e-06
5.6779e-06
5.6885e-06
5.69974e-06
5.7116e-06
5.72421e-06
5.73758e-06
5.75183e-06
5.76695e-06
5.7831e-06
5.80026e-06
5.81862e-06
5.83817e-06
5.85911e-06
5.88148e-06
5.90547e-06
5.93116e-06
5.95881e-06
5.98852e-06
6.02053e-06
6.055e-06
6.09221e-06
6.13237e-06
6.17584e-06
6.22288e-06
6.27395e-06
6.32933e-06
6.38978e-06
6.45545e-06
6.52768e-06
6.6065e-06
6.69348e-06
6.78971e-06
6.89369e-06
7.00543e-06
7.12211e-06
7.25138e-06
7.40031e-06
7.57925e-06
7.80433e-06
8.1132e-06
8.48572e-06
8.7301e-06
9.21779e-06
1.00382e-05
1.40994e-05
2.44054e-05
5.50612e-05
8.56961e-05
9.97991e-05
5.65771e-06
5.66284e-06
5.66811e-06
5.67348e-06
5.67897e-06
5.68463e-06
5.69046e-06
5.69649e-06
5.70273e-06
5.7092e-06
5.71594e-06
5.72296e-06
5.7303e-06
5.73796e-06
5.74599e-06
5.75441e-06
5.76326e-06
5.77256e-06
5.78236e-06
5.79268e-06
5.80358e-06
5.81508e-06
5.82726e-06
5.84013e-06
5.85382e-06
5.86834e-06
5.88381e-06
5.90025e-06
5.91779e-06
5.93647e-06
5.95645e-06
5.97775e-06
6.00059e-06
6.025e-06
6.05122e-06
6.07933e-06
6.10964e-06
6.14217e-06
6.17738e-06
6.21518e-06
6.25624e-06
6.30039e-06
6.34847e-06
6.40035e-06
6.45696e-06
6.51837e-06
6.58553e-06
6.65889e-06
6.73953e-06
6.82791e-06
6.92522e-06
7.03119e-06
7.14186e-06
7.26233e-06
7.39302e-06
7.54697e-06
7.73766e-06
7.96898e-06
8.27201e-06
8.63817e-06
8.90088e-06
9.16145e-06
1.03463e-05
1.27914e-05
2.20063e-05
4.52964e-05
7.61002e-05
9.27607e-05
9.89803e-05
5.7847e-06
5.7905e-06
5.79646e-06
5.80252e-06
5.80873e-06
5.8151e-06
5.82166e-06
5.82842e-06
5.83539e-06
5.84261e-06
5.85011e-06
5.85789e-06
5.866e-06
5.87445e-06
5.88329e-06
5.89253e-06
5.90223e-06
5.9124e-06
5.92311e-06
5.93438e-06
5.94627e-06
5.95881e-06
5.97207e-06
5.98611e-06
6.00103e-06
6.01687e-06
6.03373e-06
6.05167e-06
6.07081e-06
6.09122e-06
6.11304e-06
6.13636e-06
6.16135e-06
6.18812e-06
6.2169e-06
6.24779e-06
6.28118e-06
6.31699e-06
6.3559e-06
6.39759e-06
6.44313e-06
6.49193e-06
6.54546e-06
6.60304e-06
6.66624e-06
6.73489e-06
6.8101e-06
6.89281e-06
6.98304e-06
7.08219e-06
7.1886e-06
7.30123e-06
7.42278e-06
7.56031e-06
7.7211e-06
7.92238e-06
8.16942e-06
8.45743e-06
8.82535e-06
9.02879e-06
9.43073e-06
1.00605e-05
1.31724e-05
1.99306e-05
4.01484e-05
6.83918e-05
8.53392e-05
9.41915e-05
9.2672e-05
5.93149e-06
5.93794e-06
5.94457e-06
5.95134e-06
5.95826e-06
5.96536e-06
5.97268e-06
5.9802e-06
5.98797e-06
5.99599e-06
6.0043e-06
6.01291e-06
6.02187e-06
6.0312e-06
6.04093e-06
6.05109e-06
6.06173e-06
6.07288e-06
6.0846e-06
6.09692e-06
6.10991e-06
6.12361e-06
6.13808e-06
6.15343e-06
6.16971e-06
6.18702e-06
6.20543e-06
6.22506e-06
6.24598e-06
6.26836e-06
6.29227e-06
6.31789e-06
6.34537e-06
6.37484e-06
6.4066e-06
6.44071e-06
6.47768e-06
6.51731e-06
6.56055e-06
6.6068e-06
6.65762e-06
6.71197e-06
6.77195e-06
6.83649e-06
6.90762e-06
6.98518e-06
7.06986e-06
7.16349e-06
7.26292e-06
7.37215e-06
7.4845e-06
7.612e-06
7.7569e-06
7.92931e-06
8.14312e-06
8.40186e-06
8.68498e-06
9.00903e-06
9.2254e-06
9.44411e-06
1.05854e-05
1.27277e-05
2.03321e-05
3.77507e-05
6.19622e-05
7.73097e-05
8.74053e-05
8.82733e-05
8.29534e-05
6.09872e-06
6.10594e-06
6.11336e-06
6.12095e-06
6.12873e-06
6.13672e-06
6.14495e-06
6.15342e-06
6.16216e-06
6.17118e-06
6.18052e-06
6.19019e-06
6.20023e-06
6.21066e-06
6.22152e-06
6.23285e-06
6.24469e-06
6.25708e-06
6.27007e-06
6.28371e-06
6.29805e-06
6.31318e-06
6.32913e-06
6.34607e-06
6.36399e-06
6.38306e-06
6.40332e-06
6.42494e-06
6.44797e-06
6.4726e-06
6.49896e-06
6.52721e-06
6.55757e-06
6.59015e-06
6.6254e-06
6.66324e-06
6.70442e-06
6.74857e-06
6.79695e-06
6.84874e-06
6.90588e-06
6.96714e-06
7.03492e-06
7.10823e-06
7.18875e-06
7.27706e-06
7.37165e-06
7.4757e-06
7.58242e-06
7.70411e-06
7.83369e-06
7.99409e-06
8.18001e-06
8.4035e-06
8.67143e-06
8.93783e-06
9.22025e-06
9.34276e-06
9.7926e-06
1.05698e-05
1.37963e-05
2.02993e-05
3.82791e-05
5.76695e-05
7.00433e-05
7.9216e-05
8.17797e-05
7.89974e-05
7.22953e-05
6.29678e-06
6.30465e-06
6.31277e-06
6.32108e-06
6.3296e-06
6.33837e-06
6.3474e-06
6.35672e-06
6.36633e-06
6.37626e-06
6.38654e-06
6.39721e-06
6.40827e-06
6.41978e-06
6.43176e-06
6.44427e-06
6.45732e-06
6.471e-06
6.48531e-06
6.50036e-06
6.51616e-06
6.53286e-06
6.55046e-06
6.56914e-06
6.58891e-06
6.60996e-06
6.63234e-06
6.65622e-06
6.68175e-06
6.70904e-06
6.73838e-06
6.76976e-06
6.80369e-06
6.84004e-06
6.87958e-06
6.92201e-06
6.96835e-06
7.01818e-06
7.07282e-06
7.13175e-06
7.19658e-06
7.26681e-06
7.34385e-06
7.42809e-06
7.51854e-06
7.61811e-06
7.72086e-06
7.83621e-06
7.95853e-06
8.10936e-06
8.27344e-06
8.48486e-06
8.7103e-06
8.97023e-06
9.21755e-06
9.3881e-06
9.58393e-06
9.89925e-06
1.13921e-05
1.42654e-05
2.25845e-05
4.00307e-05
5.41584e-05
6.35267e-05
7.11476e-05
7.37274e-05
7.24077e-05
6.79904e-05
6.34008e-05
6.52681e-06
6.53577e-06
6.54499e-06
6.55443e-06
6.5641e-06
6.57405e-06
6.58428e-06
6.59482e-06
6.60568e-06
6.6169e-06
6.6285e-06
6.64051e-06
6.65295e-06
6.66589e-06
6.67932e-06
6.69334e-06
6.70794e-06
6.72324e-06
6.73921e-06
6.75601e-06
6.77361e-06
6.79222e-06
6.81183e-06
6.83263e-06
6.85464e-06
6.87806e-06
6.90298e-06
6.92952e-06
6.95796e-06
6.98829e-06
7.02108e-06
7.05606e-06
7.09418e-06
7.13498e-06
7.17966e-06
7.22774e-06
7.28035e-06
7.33752e-06
7.39973e-06
7.46809e-06
7.54182e-06
7.62359e-06
7.71026e-06
7.80667e-06
7.90543e-06
8.01783e-06
8.13405e-06
8.27804e-06
8.43186e-06
8.62733e-06
8.82902e-06
9.06812e-06
9.28096e-06
9.46926e-06
9.58155e-06
9.73786e-06
1.04938e-05
1.19852e-05
1.61889e-05
2.52741e-05
4.04018e-05
5.06006e-05
5.78493e-05
6.36173e-05
6.49192e-05
6.42138e-05
6.16613e-05
5.85527e-05
5.66678e-05
6.80577e-06
6.81553e-06
6.82559e-06
6.83588e-06
6.84643e-06
6.8573e-06
6.86849e-06
6.88004e-06
6.89195e-06
6.90427e-06
6.91702e-06
6.93024e-06
6.94397e-06
6.95824e-06
6.9731e-06
6.9886e-06
7.00479e-06
7.02173e-06
7.03948e-06
7.05813e-06
7.07774e-06
7.09847e-06
7.12034e-06
7.14357e-06
7.16818e-06
7.19444e-06
7.22245e-06
7.2524e-06
7.28462e-06
7.31903e-06
7.35644e-06
7.39632e-06
7.44012e-06
7.4869e-06
7.53851e-06
7.59408e-06
7.65494e-06
7.7216e-06
7.79305e-06
7.87324e-06
7.95636e-06
8.05124e-06
8.14639e-06
8.25696e-06
8.36924e-06
8.51069e-06
8.65345e-06
8.84089e-06
9.02181e-06
9.23763e-06
9.41661e-06
9.58759e-06
9.66547e-06
9.7758e-06
1.01955e-05
1.11089e-05
1.35703e-05
1.86107e-05
3.02083e-05
4.03243e-05
4.69522e-05
5.23579e-05
5.50636e-05
5.52195e-05
5.49249e-05
5.39924e-05
5.24825e-05
5.142e-05
5.14792e-05
7.1401e-06
7.15177e-06
7.16375e-06
7.17598e-06
7.18848e-06
7.20131e-06
7.21447e-06
7.22799e-06
7.2419e-06
7.25622e-06
7.27101e-06
7.28626e-06
7.30208e-06
7.31844e-06
7.33547e-06
7.35314e-06
7.37159e-06
7.39083e-06
7.41097e-06
7.43209e-06
7.4543e-06
7.47775e-06
7.50243e-06
7.5287e-06
7.55643e-06
7.58606e-06
7.61752e-06
7.65125e-06
7.68755e-06
7.72641e-06
7.76902e-06
7.81433e-06
7.86499e-06
7.91851e-06
7.97891e-06
8.04274e-06
8.11398e-06
8.19048e-06
8.2728e-06
8.36462e-06
8.45771e-06
8.56684e-06
8.67673e-06
8.81405e-06
8.95246e-06
9.12675e-06
9.28468e-06
9.4805e-06
9.617e-06
9.75275e-06
9.80934e-06
9.91665e-06
1.01871e-05
1.09092e-05
1.24421e-05
1.58797e-05
2.28309e-05
3.23095e-05
3.85205e-05
4.343e-05
4.66503e-05
4.64331e-05
4.5555e-05
4.55369e-05
4.57461e-05
4.5674e-05
4.55691e-05
4.59752e-05
4.70637e-05
7.55561e-06
7.56807e-06
7.58095e-06
7.59414e-06
7.60771e-06
7.62167e-06
7.63609e-06
7.65094e-06
7.66631e-06
7.68217e-06
7.69864e-06
7.71565e-06
7.7334e-06
7.75176e-06
7.77099e-06
7.79094e-06
7.81189e-06
7.83372e-06
7.85671e-06
7.88087e-06
7.90632e-06
7.93332e-06
7.96176e-06
7.99223e-06
8.02444e-06
8.05927e-06
8.09634e-06
8.13637e-06
8.17966e-06
8.2258e-06
8.27702e-06
8.33029e-06
8.39136e-06
8.45292e-06
8.52534e-06
8.59649e-06
8.68058e-06
8.76405e-06
8.86056e-06
8.96135e-06
9.07278e-06
9.20133e-06
9.33277e-06
9.48524e-06
9.62309e-06
9.76854e-06
9.87216e-06
9.96232e-06
1.00083e-05
1.01309e-05
1.0389e-05
1.10825e-05
1.21956e-05
1.48509e-05
1.91213e-05
2.64317e-05
3.17272e-05
3.6323e-05
3.90733e-05
3.87761e-05
3.69957e-05
3.61738e-05
3.66443e-05
3.7706e-05
3.87068e-05
3.95462e-05
4.0424e-05
4.15368e-05
4.28593e-05
8.08763e-06
8.10365e-06
8.12003e-06
8.13669e-06
8.15372e-06
8.17111e-06
8.18896e-06
8.20721e-06
8.226e-06
8.24526e-06
8.26517e-06
8.28561e-06
8.30686e-06
8.32872e-06
8.35155e-06
8.37512e-06
8.39982e-06
8.42549e-06
8.45245e-06
8.48072e-06
8.51037e-06
8.54185e-06
8.5748e-06
8.61016e-06
8.64709e-06
8.68701e-06
8.72916e-06
8.77448e-06
8.82353e-06
8.87491e-06
8.93273e-06
8.99054e-06
9.05919e-06
9.12349e-06
9.20453e-06
9.27595e-06
9.37074e-06
9.4542e-06
9.56565e-06
9.66853e-06
9.78721e-06
9.90361e-06
1.00072e-05
1.00983e-05
1.01528e-05
1.02371e-05
1.03141e-05
1.04995e-05
1.08146e-05
1.15438e-05
1.25008e-05
1.45757e-05
1.74008e-05
2.21988e-05
2.59157e-05
3.00344e-05
3.24867e-05
3.2059e-05
2.96883e-05
2.77592e-05
2.77455e-05
2.88718e-05
3.05169e-05
3.22054e-05
3.37497e-05
3.51304e-05
3.64057e-05
3.76201e-05
3.87622e-05
8.77862e-06
8.79527e-06
8.81261e-06
8.83047e-06
8.84888e-06
8.86791e-06
8.88761e-06
8.90798e-06
8.92911e-06
8.95101e-06
8.97381e-06
8.99747e-06
9.02223e-06
9.04794e-06
9.07498e-06
9.10313e-06
9.13286e-06
9.16393e-06
9.19673e-06
9.23124e-06
9.26735e-06
9.30573e-06
9.3453e-06
9.38808e-06
9.43134e-06
9.47852e-06
9.5257e-06
9.57699e-06
9.62843e-06
9.68213e-06
9.73848e-06
9.79465e-06
9.85849e-06
9.91672e-06
9.9877e-06
1.00514e-05
1.01301e-05
1.01998e-05
1.02806e-05
1.03402e-05
1.04136e-05
1.04877e-05
1.05365e-05
1.06507e-05
1.08826e-05
1.12799e-05
1.1685e-05
1.23424e-05
1.30609e-05
1.42686e-05
1.58644e-05
1.84397e-05
2.10818e-05
2.43546e-05
2.62162e-05
2.54732e-05
2.24251e-05
1.9877e-05
1.95992e-05
2.068e-05
2.2416e-05
2.43924e-05
2.64467e-05
2.84296e-05
3.02254e-05
3.17703e-05
3.30492e-05
3.4076e-05
3.48736e-05
9.75883e-06
9.78382e-06
9.80923e-06
9.83514e-06
9.86152e-06
9.88848e-06
9.91588e-06
9.94384e-06
9.97219e-06
1.00011e-05
1.00304e-05
1.00601e-05
1.00903e-05
1.01207e-05
1.01515e-05
1.01822e-05
1.02132e-05
1.02434e-05
1.02731e-05
1.03024e-05
1.03299e-05
1.0358e-05
1.03825e-05
1.04097e-05
1.04305e-05
1.04595e-05
1.04786e-05
1.05115e-05
1.05262e-05
1.05587e-05
1.05688e-05
1.0607e-05
1.06173e-05
1.06666e-05
1.06809e-05
1.07423e-05
1.0782e-05
1.09116e-05
1.09684e-05
1.11886e-05
1.15039e-05
1.17243e-05
1.20156e-05
1.22846e-05
1.24348e-05
1.26434e-05
1.27932e-05
1.31749e-05
1.39532e-05
1.52936e-05
1.68336e-05
1.89847e-05
1.9458e-05
1.81381e-05
1.4025e-05
1.13202e-05
1.12304e-05
1.26423e-05
1.46515e-05
1.6775e-05
1.89687e-05
2.11918e-05
2.33846e-05
2.54509e-05
2.72862e-05
2.8807e-05
2.99681e-05
3.07602e-05
3.12074e-05
1.12344e-05
1.12406e-05
1.12386e-05
1.12377e-05
1.12363e-05
1.12346e-05
1.1232e-05
1.12288e-05
1.12248e-05
1.12198e-05
1.12151e-05
1.12173e-05
1.12006e-05
1.11922e-05
1.11911e-05
1.11672e-05
1.11627e-05
1.1141e-05
1.11204e-05
1.11154e-05
1.10759e-05
1.10686e-05
1.10305e-05
1.10154e-05
1.10093e-05
1.10322e-05
1.10373e-05
1.10941e-05
1.1118e-05
1.12325e-05
1.1291e-05
1.14916e-05
1.15954e-05
1.19077e-05
1.20349e-05
1.25236e-05
1.30597e-05
1.35553e-05
1.37899e-05
1.36997e-05
1.35541e-05
1.32471e-05
1.30613e-05
1.2742e-05
1.24457e-05
1.20995e-05
1.15679e-05
1.15943e-05
1.16638e-05
1.10406e-05
9.53225e-06
6.54932e-06
5.2014e-06
4.60673e-06
4.30295e-06
4.89502e-06
6.53052e-06
8.63677e-06
1.09166e-05
1.32209e-05
1.5506e-05
1.77672e-05
1.99555e-05
2.19902e-05
2.37756e-05
2.52253e-05
2.62845e-05
2.69279e-05
2.7149e-05
1.07799e-05
1.07937e-05
1.08068e-05
1.08207e-05
1.08321e-05
1.08512e-05
1.08435e-05
1.08528e-05
1.08721e-05
1.08635e-05
1.08739e-05
1.08876e-05
1.08981e-05
1.09121e-05
1.09247e-05
1.09292e-05
1.09907e-05
1.11184e-05
1.13072e-05
1.157e-05
1.18921e-05
1.22832e-05
1.27303e-05
1.3254e-05
1.38266e-05
1.44633e-05
1.51437e-05
1.58695e-05
1.66349e-05
1.73661e-05
1.8147e-05
1.87453e-05
1.93911e-05
1.96564e-05
1.95693e-05
1.91382e-05
1.8301e-05
1.70661e-05
1.54426e-05
1.37638e-05
1.19742e-05
1.01708e-05
8.32066e-06
6.28079e-06
4.02799e-06
2.62568e-06
1.92682e-06
1.82671e-06
1.83362e-06
1.65521e-06
1.30951e-06
9.73263e-07
8.25521e-07
7.89588e-07
9.40843e-07
1.35918e-06
2.13527e-06
3.38538e-06
5.06174e-06
6.96315e-06
8.8659e-06
1.0796e-05
1.27264e-05
1.45218e-05
1.60794e-05
1.73055e-05
1.81522e-05
1.86276e-05
1.89356e-05
3.29619e-05
3.39195e-05
3.48799e-05
3.58393e-05
3.67985e-05
3.77543e-05
3.87058e-05
3.96532e-05
4.05894e-05
4.15235e-05
4.24355e-05
4.33493e-05
4.4231e-05
4.51134e-05
4.59626e-05
4.68065e-05
4.75775e-05
4.82343e-05
4.87585e-05
4.92992e-05
4.93213e-05
4.92135e-05
4.90192e-05
4.85619e-05
4.8173e-05
4.723e-05
4.64326e-05
4.51537e-05
4.35376e-05
4.15241e-05
3.90712e-05
3.61331e-05
3.26844e-05
2.87184e-05
2.42575e-05
1.94084e-05
1.4358e-05
9.39908e-06
5.09313e-06
2.14136e-06
8.12998e-07
6.33961e-07
6.78703e-07
6.48049e-07
5.36542e-07
4.53935e-07
3.72847e-07
3.1802e-07
2.8231e-07
2.54408e-07
2.17779e-07
1.8864e-07
1.75352e-07
1.88529e-07
2.33395e-07
3.13857e-07
4.32978e-07
5.87242e-07
7.63317e-07
9.49957e-07
1.16529e-06
1.39826e-06
1.61175e-06
1.78904e-06
1.91804e-06
2.0094e-06
2.14595e-06
2.32742e-06
2.47049e-06
4.7632e-06
4.76345e-06
4.76452e-06
4.76565e-06
4.76788e-06
4.77022e-06
4.77188e-06
4.77249e-06
4.77165e-06
4.77003e-06
4.76957e-06
4.7709e-06
4.77625e-06
4.77958e-06
4.78093e-06
4.77829e-06
4.77881e-06
4.78115e-06
4.78218e-06
4.78038e-06
4.77803e-06
4.78002e-06
4.77938e-06
4.78028e-06
4.78028e-06
4.77814e-06
4.7799e-06
4.78041e-06
4.78168e-06
4.78338e-06
4.78303e-06
4.785e-06
4.78575e-06
4.78574e-06
4.78644e-06
4.7848e-06
4.78616e-06
4.78751e-06
4.78747e-06
4.78871e-06
4.78616e-06
4.78756e-06
4.78688e-06
4.78655e-06
4.78775e-06
4.78694e-06
4.78631e-06
4.78451e-06
4.7852e-06
4.78785e-06
4.79082e-06
4.79542e-06
4.7985e-06
4.79978e-06
4.79889e-06
4.79865e-06
4.7995e-06
4.80048e-06
4.80158e-06
4.79722e-06
4.79807e-06
4.7992e-06
4.8001e-06
4.80067e-06
4.8007e-06
4.79925e-06
4.79845e-06
4.79777e-06
4.79796e-06
4.80009e-06
4.80342e-06
4.80562e-06
4.80647e-06
4.80454e-06
4.80431e-06
4.80567e-06
4.80678e-06
4.8066e-06
4.80382e-06
4.80301e-06
4.80396e-06
4.80351e-06
4.80421e-06
4.80353e-06
4.80208e-06
4.80352e-06
4.80432e-06
4.80505e-06
4.8063e-06
4.80651e-06
4.80844e-06
4.80925e-06
4.80912e-06
4.81019e-06
4.80937e-06
4.80999e-06
4.81189e-06
4.81262e-06
4.8133e-06
4.81219e-06
4.81332e-06
4.8136e-06
4.81347e-06
4.81322e-06
4.81326e-06
4.81302e-06
4.81239e-06
4.81269e-06
4.81426e-06
4.81629e-06
4.81973e-06
4.82366e-06
4.82692e-06
4.82933e-06
4.83083e-06
4.83189e-06
4.83292e-06
4.83368e-06
4.83358e-06
4.83354e-06
4.83337e-06
4.83274e-06
4.83185e-06
4.83074e-06
4.83005e-06
4.82999e-06
4.83014e-06
4.83263e-06
4.83456e-06
4.83585e-06
4.83606e-06
4.83438e-06
4.83366e-06
4.83423e-06
4.8351e-06
4.83529e-06
4.83318e-06
4.83073e-06
4.83071e-06
4.83119e-06
4.83077e-06
4.83102e-06
4.8299e-06
4.82896e-06
4.8301e-06
4.83108e-06
4.83142e-06
4.83235e-06
4.83309e-06
4.83492e-06
4.83589e-06
4.83576e-06
4.837e-06
4.83686e-06
4.8371e-06
4.83906e-06
4.84056e-06
4.84154e-06
4.84121e-06
4.84229e-06
4.84334e-06
4.84383e-06
4.84399e-06
4.84376e-06
4.8435e-06
4.84325e-06
4.84383e-06
4.84497e-06
4.84638e-06
4.84848e-06
4.85153e-06
4.85482e-06
4.8581e-06
4.86104e-06
4.86342e-06
4.86549e-06
4.86706e-06
4.87012e-06
4.86902e-06
4.86794e-06
4.86681e-06
4.8661e-06
4.86584e-06
4.86615e-06
4.86731e-06
4.86858e-06
4.86949e-06
4.86977e-06
4.86866e-06
4.86754e-06
4.86635e-06
4.86661e-06
4.86705e-06
4.8668e-06
4.86519e-06
4.86259e-06
4.86092e-06
4.8613e-06
4.86139e-06
4.86077e-06
4.86058e-06
4.85924e-06
4.85866e-06
4.8596e-06
4.8606e-06
4.86064e-06
4.86135e-06
4.86236e-06
4.86406e-06
4.86523e-06
4.86518e-06
4.8667e-06
4.86703e-06
4.86712e-06
4.86893e-06
4.87081e-06
4.87268e-06
4.87301e-06
4.87392e-06
4.87546e-06
4.87683e-06
4.87752e-06
4.87814e-06
4.87879e-06
4.87922e-06
4.87978e-06
4.88052e-06
4.88146e-06
4.88268e-06
4.88452e-06
4.88687e-06
4.88955e-06
4.89244e-06
4.8952e-06
4.89788e-06
4.90017e-06
4.91006e-06
4.90916e-06
4.90872e-06
4.90849e-06
4.90859e-06
4.90819e-06
4.90852e-06
4.90859e-06
4.90787e-06
4.90753e-06
4.9064e-06
4.90465e-06
4.90352e-06
4.90311e-06
4.90344e-06
4.90252e-06
4.90119e-06
4.89855e-06
4.89614e-06
4.8952e-06
4.89554e-06
4.89521e-06
4.89431e-06
4.89364e-06
4.89216e-06
4.89183e-06
4.89255e-06
4.89344e-06
4.89328e-06
4.89388e-06
4.8951e-06
4.89672e-06
4.89822e-06
4.89827e-06
4.89999e-06
4.90082e-06
4.90095e-06
4.90257e-06
4.90448e-06
4.90711e-06
4.90838e-06
4.90933e-06
4.91093e-06
4.91292e-06
4.91442e-06
4.91558e-06
4.9167e-06
4.9178e-06
4.91891e-06
4.91999e-06
4.92108e-06
4.92218e-06
4.92348e-06
4.92507e-06
4.92694e-06
4.92911e-06
4.93138e-06
4.93383e-06
4.93611e-06
4.95446e-06
4.95374e-06
4.95347e-06
4.95314e-06
4.95287e-06
4.95234e-06
4.95182e-06
4.95082e-06
4.94938e-06
4.94781e-06
4.94607e-06
4.94443e-06
4.94362e-06
4.9432e-06
4.94253e-06
4.94066e-06
4.93822e-06
4.93535e-06
4.93345e-06
4.93302e-06
4.93316e-06
4.93216e-06
4.93103e-06
4.92994e-06
4.9285e-06
4.92839e-06
4.92889e-06
4.92963e-06
4.92929e-06
4.92975e-06
4.93101e-06
4.9325e-06
4.93425e-06
4.93443e-06
4.93624e-06
4.93756e-06
4.93792e-06
4.93945e-06
4.94122e-06
4.94428e-06
4.94661e-06
4.94808e-06
4.94967e-06
4.9519e-06
4.95411e-06
4.95601e-06
4.95767e-06
4.95924e-06
4.96084e-06
4.96242e-06
4.96397e-06
4.96546e-06
4.96692e-06
4.96844e-06
4.97002e-06
4.97177e-06
4.97356e-06
4.97557e-06
4.97749e-06
5.00483e-06
5.00392e-06
5.00331e-06
5.00238e-06
5.0014e-06
5.00006e-06
4.99852e-06
4.99665e-06
4.99466e-06
4.99277e-06
4.99112e-06
4.98978e-06
4.98887e-06
4.98771e-06
4.98581e-06
4.98296e-06
4.98002e-06
4.97744e-06
4.97606e-06
4.97572e-06
4.97525e-06
4.9738e-06
4.97227e-06
4.97079e-06
4.96938e-06
4.9693e-06
4.96956e-06
4.97008e-06
4.9696e-06
4.97002e-06
4.97141e-06
4.97287e-06
4.9749e-06
4.97529e-06
4.97715e-06
4.9789e-06
4.97959e-06
4.98115e-06
4.98273e-06
4.98578e-06
4.98891e-06
4.99124e-06
4.9931e-06
4.99534e-06
4.99789e-06
5.00043e-06
5.00276e-06
5.00489e-06
5.00694e-06
5.00895e-06
5.01093e-06
5.01287e-06
5.01474e-06
5.01658e-06
5.01835e-06
5.02016e-06
5.02189e-06
5.02376e-06
5.02551e-06
5.05953e-06
5.05798e-06
5.05663e-06
5.05486e-06
5.05309e-06
5.051e-06
5.04889e-06
5.04669e-06
5.04462e-06
5.04274e-06
5.04108e-06
5.03947e-06
5.03772e-06
5.03538e-06
5.03234e-06
5.02898e-06
5.02608e-06
5.02393e-06
5.02282e-06
5.02223e-06
5.0211e-06
5.01917e-06
5.01734e-06
5.01564e-06
5.01435e-06
5.01431e-06
5.01439e-06
5.01471e-06
5.01409e-06
5.01438e-06
5.01568e-06
5.017e-06
5.0192e-06
5.01979e-06
5.02166e-06