/*--------------------------------*- C++ -*----------------------------------*\
| =========                 |                                                 |
| \\      /  F ield         | OpenFOAM: The Open Source CFD Toolbox           |
|  \\    /   O peration     | Version:  2312                                  |
|   \\  /    A nd           | Website:  www.openfoam.com                      |
|    \\/     M anipulation  |                                                 |
\*---------------------------------------------------------------------------*/
FoamFile
{
    version     2.0;
    format      ascii;
    arch        "LSB;label=32;scalar=64";
    class       volScalarField;
    location    "300";
    object      nut;
}
// * * * * * * * * * * * * * * * * * * * * * * * * * * * * * * * * * * * * * //

dimensions      [0 2 -1 0 0 0 0];

internalField   nonuniform List<scalar> 
76025
(
7.5922e-05
7.61936e-05
7.63233e-05
7.7427e-05
7.71067e-05
7.80422e-05
7.88479e-05
7.83725e-05
7.95693e-05
7.96914e-05
8.0356e-05
8.05353e-05
8.08793e-05
8.09196e-05
8.26371e-05
8.20484e-05
8.3554e-05
8.30672e-05
8.5937e-05
8.43678e-05
8.50079e-05
8.60447e-05
8.71814e-05
8.77726e-05
8.95775e-05
8.85742e-05
9.16077e-05
9.23719e-05
9.21913e-05
9.85359e-05
9.95592e-05
9.87597e-05
0.000102284
0.000101562
0.000105893
0.000105156
0.000106069
0.00011074
0.000110965
0.000115765
0.000115169
0.000116001
0.000120884
0.000121427
0.00012382
0.000123617
0.000126919
0.000129016
0.00013021
0.000131682
0.000133545
0.000135872
0.000139812
0.000144403
0.000148709
0.000150309
0.000152911
0.00015088
0.000148985
0.000146403
0.000143982
0.000140791
0.00013749
0.000133015
0.000128741
0.00012301
0.000117792
0.000109605
0.000103025
7.16799e-05
7.18304e-05
7.21659e-05
7.26538e-05
7.31385e-05
7.33789e-05
7.40646e-05
7.44135e-05
7.48823e-05
7.53708e-05
7.59159e-05
7.64812e-05
7.71801e-05
7.75562e-05
7.79479e-05
7.86816e-05
7.8987e-05
7.9835e-05
8.04102e-05
8.14688e-05
8.20331e-05
8.28651e-05
8.35735e-05
8.42481e-05
8.51865e-05
8.64393e-05
8.71385e-05
8.8405e-05
8.94324e-05
9.00406e-05
9.14346e-05
9.31342e-05
9.39709e-05
9.58804e-05
9.69044e-05
9.88608e-05
0.000100825
0.000102013
0.000103889
0.00010509
0.000106949
0.000109033
0.000109887
0.000111637
0.000112532
0.000114771
0.000116149
0.000118089
0.000120029
0.000122892
0.000126329
0.000130011
0.000134007
0.00013816
0.000142081
0.00014793
0.000149651
0.000147625
0.000145272
0.000142757
0.000139671
0.0001365
0.000132509
0.000128367
0.000123237
0.000117722
0.000111171
0.000102547
9.53631e-05
6.70257e-05
6.73253e-05
6.77756e-05
6.82116e-05
6.87196e-05
6.91234e-05
6.95909e-05
7.00665e-05
7.05469e-05
7.10621e-05
7.16014e-05
7.21622e-05
7.2799e-05
7.34463e-05
7.3968e-05
7.46186e-05
7.51732e-05
7.58727e-05
7.64834e-05
7.72517e-05
7.8042e-05
7.88668e-05
7.96738e-05
8.04697e-05
8.13232e-05
8.23515e-05
8.33188e-05
8.4362e-05
8.54453e-05
8.65277e-05
8.76095e-05
8.88839e-05
9.00957e-05
9.13723e-05
9.26666e-05
9.40557e-05
9.547e-05
9.68793e-05
9.8355e-05
9.98761e-05
0.000101465
0.000103116
0.000104799
0.000106612
0.000108497
0.00011063
0.000112928
0.000115501
0.000118237
0.000121319
0.000124778
0.000128539
0.000132716
0.000137303
0.000142197
0.000147738
0.000146494
0.000144207
0.000141849
0.000138901
0.000135846
0.00013217
0.000128188
0.000123368
0.000118027
0.000112248
0.000104563
9.67602e-05
8.83741e-05
6.28456e-05
6.31223e-05
6.36109e-05
6.41327e-05
6.46254e-05
6.51053e-05
6.55837e-05
6.60799e-05
6.65959e-05
6.71322e-05
6.76866e-05
6.8254e-05
6.88438e-05
6.94714e-05
7.01116e-05
7.07683e-05
7.14464e-05
7.21371e-05
7.28546e-05
7.35839e-05
7.43513e-05
7.51457e-05
7.59716e-05
7.68253e-05
7.77186e-05
7.8653e-05
7.96283e-05
8.06263e-05
8.16566e-05
8.2734e-05
8.38222e-05
8.49666e-05
8.61536e-05
8.73796e-05
8.8683e-05
9.0029e-05
9.14423e-05
9.29244e-05
9.44461e-05
9.60519e-05
9.77164e-05
9.9474e-05
0.000101339
0.000103279
0.00010535
0.000107581
0.000110028
0.000112665
0.00011551
0.000118632
0.000122085
0.000125873
0.000130023
0.000134579
0.000139624
0.000145054
0.000142794
0.000140448
0.0001377
0.000134649
0.000131169
0.000127332
0.000122925
0.000117688
0.000112328
0.000105762
9.75958e-05
9.01133e-05
7.92063e-05
5.93145e-05
5.94454e-05
5.98235e-05
6.02944e-05
6.07593e-05
6.12365e-05
6.17361e-05
6.22546e-05
6.27879e-05
6.33378e-05
6.39067e-05
6.44935e-05
6.50972e-05
6.57218e-05
6.63709e-05
6.70425e-05
6.77406e-05
6.846e-05
6.92058e-05
6.99733e-05
7.0765e-05
7.15809e-05
7.24249e-05
7.32985e-05
7.42054e-05
7.51486e-05
7.61281e-05
7.71385e-05
7.81823e-05
7.92576e-05
8.03734e-05
8.15307e-05
8.27365e-05
8.40066e-05
8.53291e-05
8.67031e-05
8.81429e-05
8.96472e-05
9.1215e-05
9.28599e-05
9.45879e-05
9.64107e-05
9.83316e-05
0.000100357
0.000102514
0.000104821
0.000107297
0.000109946
0.000112792
0.000115869
0.000119224
0.000122893
0.00012695
0.00013149
0.000136715
0.000141265
0.000138855
0.000136288
0.000133356
0.000130034
0.000126323
0.00012225
0.000117418
0.000111948
0.000106436
9.86925e-05
9.08779e-05
8.24088e-05
6.93948e-05
5.6091e-05
5.61794e-05
5.6473e-05
5.68531e-05
5.72429e-05
5.76628e-05
5.81273e-05
5.86291e-05
5.91584e-05
5.97108e-05
6.02859e-05
6.08834e-05
6.15026e-05
6.21432e-05
6.28061e-05
6.34928e-05
6.42053e-05
6.49441e-05
6.57097e-05
6.65025e-05
6.73224e-05
6.81694e-05
6.90446e-05
6.99496e-05
7.08866e-05
7.18581e-05
7.28648e-05
7.3906e-05
7.49828e-05
7.60964e-05
7.72562e-05
7.8452e-05
7.97023e-05
8.10143e-05
8.23727e-05
8.37837e-05
8.52579e-05
8.67975e-05
8.84066e-05
9.00894e-05
9.18532e-05
9.37013e-05
9.56415e-05
9.76809e-05
9.98306e-05
0.000102104
0.000104512
0.000107076
0.000109817
0.000112778
0.00011601
0.000119585
0.000123603
0.000128177
0.000133564
0.000137116
0.000134502
0.00013176
0.000128563
0.000124997
0.000120994
0.000116713
0.0001113
0.000105982
9.95417e-05
9.12085e-05
8.37256e-05
7.28999e-05
5.87071e-05
5.28655e-05
5.30237e-05
5.33396e-05
5.3706e-05
5.40619e-05
5.44369e-05
5.48542e-05
5.53142e-05
5.58111e-05
5.6341e-05
5.69016e-05
5.74915e-05
5.81096e-05
5.8755e-05
5.94271e-05
6.01261e-05
6.08523e-05
6.16065e-05
6.23892e-05
6.32008e-05
6.40419e-05
6.49129e-05
6.58146e-05
6.6748e-05
6.77146e-05
6.87152e-05
6.97513e-05
7.08236e-05
7.19329e-05
7.30824e-05
7.4276e-05
7.5506e-05
7.67948e-05
7.81376e-05
7.95252e-05
8.09643e-05
8.24631e-05
8.40227e-05
8.56469e-05
8.73363e-05
8.90969e-05
9.09296e-05
9.28428e-05
9.48394e-05
9.69311e-05
9.91286e-05
0.00010145
0.00010392
0.000106568
0.000109447
0.000112613
0.000116152
0.000120172
0.000124786
0.00013023
0.000132553
0.000129776
0.00012681
0.00012341
0.000119503
0.000115405
0.000110665
0.000105008
9.96213e-05
9.18147e-05
8.37744e-05
7.54475e-05
6.25405e-05
4.86897e-05
4.96136e-05
4.98457e-05
5.02201e-05
5.06289e-05
5.10113e-05
5.13945e-05
5.18035e-05
5.22438e-05
5.27151e-05
5.32183e-05
5.3754e-05
5.43227e-05
5.49243e-05
5.55584e-05
5.62244e-05
5.69218e-05
5.76504e-05
5.84103e-05
5.92016e-05
6.00245e-05
6.08794e-05
6.17668e-05
6.26874e-05
6.36417e-05
6.46308e-05
6.56554e-05
6.67165e-05
6.78154e-05
6.8952e-05
7.01311e-05
7.13516e-05
7.26113e-05
7.39289e-05
7.5293e-05
7.66991e-05
7.8154e-05
7.96622e-05
8.12242e-05
8.28423e-05
8.45166e-05
8.62521e-05
8.80495e-05
8.9918e-05
9.18605e-05
9.38932e-05
9.60266e-05
9.8286e-05
0.000100698
0.000103298
0.00010614
0.000109277
0.000112797
0.000116802
0.000121377
0.000126665
0.000127608
0.000124634
0.000121498
0.000117807
0.000113641
0.000109434
0.000104072
9.85557e-05
9.22314e-05
8.35759e-05
7.587e-05
6.57038e-05
5.16827e-05
4.09301e-05
4.64822e-05
4.67429e-05
4.71454e-05
4.75868e-05
4.80052e-05
4.84203e-05
4.88519e-05
4.93039e-05
4.9777e-05
5.02737e-05
5.07973e-05
5.13506e-05
5.19357e-05
5.25537e-05
5.32054e-05
5.38911e-05
5.46111e-05
5.53656e-05
5.61546e-05
5.69785e-05
5.78374e-05
5.87316e-05
5.96616e-05
6.06277e-05
6.16305e-05
6.26707e-05
6.37487e-05
6.48656e-05
6.60209e-05
6.72196e-05
6.8456e-05
6.97358e-05
7.10683e-05
7.24413e-05
7.38535e-05
7.53118e-05
7.68172e-05
7.83713e-05
7.99748e-05
8.16297e-05
8.33403e-05
8.51097e-05
8.69479e-05
8.88601e-05
9.08652e-05
9.29733e-05
9.52135e-05
9.76073e-05
0.000100192
0.000103011
0.000106114
0.000109579
0.000113463
0.000117794
0.000122689
0.000122235
0.000119076
0.000115796
0.000111724
0.000107479
0.000102917
9.714e-05
9.16182e-05
8.36417e-05
7.53132e-05
6.65456e-05
5.50454e-05
4.22436e-05
3.59464e-05
4.35557e-05
4.38164e-05
4.42147e-05
4.46586e-05
4.50899e-05
4.55238e-05
4.59756e-05
4.64463e-05
4.69344e-05
4.74413e-05
4.79695e-05
4.85224e-05
4.91027e-05
4.97127e-05
5.03545e-05
5.10294e-05
5.17386e-05
5.24833e-05
5.32641e-05
5.40816e-05
5.49363e-05
5.58287e-05
5.6759e-05
5.77278e-05
5.87351e-05
5.97816e-05
6.08675e-05
6.19931e-05
6.31585e-05
6.43668e-05
6.56109e-05
6.69035e-05
6.82425e-05
6.96192e-05
7.10351e-05
7.24959e-05
7.4001e-05
7.55536e-05
7.71534e-05
7.88051e-05
8.05119e-05
8.22801e-05
8.41183e-05
8.60337e-05
8.80432e-05
9.01547e-05
9.23951e-05
9.47772e-05
9.7336e-05
0.000100103
0.000103118
0.000106428
0.000109996
0.000113835
0.000118287
0.000116419
0.000113144
0.00010966
0.000105238
0.000100973
9.5759e-05
8.99773e-05
8.34694e-05
7.44131e-05
6.64696e-05
5.5725e-05
4.45596e-05
3.5579e-05
4.07379e-05
4.08452e-05
4.11003e-05
4.1484e-05
4.19146e-05
4.23398e-05
4.27735e-05
4.32292e-05
4.37068e-05
4.4204e-05
4.47204e-05
4.52573e-05
4.58168e-05
4.64012e-05
4.70126e-05
4.7653e-05
4.83245e-05
4.90287e-05
4.97672e-05
5.05414e-05
5.13526e-05
5.22017e-05
5.30895e-05
5.40166e-05
5.49837e-05
5.59909e-05
5.7039e-05
5.81281e-05
5.9258e-05
6.04299e-05
6.16441e-05
6.2897e-05
6.4201e-05
6.55472e-05
6.69321e-05
6.83584e-05
6.98307e-05
7.1348e-05
7.29142e-05
7.45285e-05
7.61974e-05
7.79221e-05
7.97105e-05
8.15674e-05
8.35001e-05
8.55198e-05
8.76311e-05
8.98552e-05
9.21978e-05
9.46902e-05
9.73461e-05
0.000100177
0.000103171
0.000106229
0.000109594
0.000113707
0.000110162
0.000106865
0.000103028
9.84577e-05
9.38206e-05
8.81015e-05
8.21535e-05
7.38845e-05
6.4782e-05
5.65236e-05
4.46377e-05
3.58982e-05
3.28309e-05
6.34226e-05
3.83148e-05
3.85667e-05
3.89369e-05
3.93526e-05
3.97665e-05
4.01916e-05
4.06408e-05
4.11146e-05
4.16107e-05
4.21286e-05
4.26689e-05
4.3233e-05
4.38222e-05
4.44383e-05
4.50827e-05
4.57572e-05
4.64633e-05
4.72029e-05
4.79775e-05
4.87887e-05
4.96376e-05
5.05256e-05
5.14536e-05
5.24224e-05
5.34327e-05
5.44851e-05
5.55801e-05
5.67174e-05
5.78989e-05
5.91226e-05
6.03918e-05
6.17114e-05
6.30726e-05
6.44754e-05
6.59229e-05
6.74177e-05
6.89591e-05
7.05504e-05
7.21907e-05
7.38856e-05
7.56348e-05
7.74447e-05
7.93162e-05
8.12546e-05
8.32652e-05
8.53506e-05
8.75261e-05
8.97912e-05
9.21634e-05
9.46225e-05
9.71399e-05
9.96684e-05
0.000102333
0.000105803
0.00010733
0.000103526
0.000100161
9.59887e-05
9.12224e-05
8.57816e-05
8.00785e-05
7.28215e-05
6.32272e-05
5.4547e-05
4.56023e-05
3.49226e-05
3.02866e-05
4.39287e-05
8.64801e-05
3.59514e-05
3.62012e-05
3.656e-05
3.69624e-05
3.73653e-05
3.77806e-05
3.82204e-05
3.86857e-05
3.91749e-05
3.96878e-05
4.02252e-05
4.07883e-05
4.13784e-05
4.19967e-05
4.26446e-05
4.33234e-05
4.40346e-05
4.47797e-05
4.55602e-05
4.63776e-05
4.72335e-05
4.81289e-05
4.90652e-05
5.00433e-05
5.10642e-05
5.21287e-05
5.32372e-05
5.43899e-05
5.55887e-05
5.68308e-05
5.81238e-05
5.94649e-05
6.08486e-05
6.22763e-05
6.37508e-05
6.52726e-05
6.68413e-05
6.84583e-05
7.01231e-05
7.18386e-05
7.36037e-05
7.54215e-05
7.72908e-05
7.92146e-05
8.11944e-05
8.32314e-05
8.53312e-05
8.74779e-05
8.96567e-05
9.18207e-05
9.39653e-05
9.62242e-05
9.91968e-05
0.000103496
0.000100528
9.65193e-05
9.29475e-05
8.86049e-05
8.29375e-05
7.71123e-05
7.10864e-05
6.14641e-05
5.2309e-05
4.33483e-05
3.57281e-05
2.8252e-05
3.45924e-05
6.99703e-05
9.78416e-05
3.37295e-05
3.39776e-05
3.43263e-05
3.47167e-05
3.51094e-05
3.55155e-05
3.59459e-05
3.64018e-05
3.68823e-05
3.73875e-05
3.79185e-05
3.84768e-05
3.90636e-05
3.96806e-05
4.03288e-05
4.10097e-05
4.17248e-05
4.24754e-05
4.32631e-05
4.40892e-05
4.49554e-05
4.58626e-05
4.68125e-05
4.78055e-05
4.88434e-05
4.99263e-05
5.10551e-05
5.22299e-05
5.34523e-05
5.47216e-05
5.60436e-05
5.74115e-05
5.88233e-05
6.02801e-05
6.17833e-05
6.33317e-05
6.49253e-05
6.65631e-05
6.82457e-05
6.99724e-05
7.17435e-05
7.35578e-05
7.54157e-05
7.73158e-05
7.92578e-05
8.12321e-05
8.32242e-05
8.51942e-05
8.71214e-05
8.90334e-05
9.11384e-05
9.39701e-05
9.80138e-05
9.66602e-05
9.33476e-05
8.89624e-05
8.52957e-05
8.03476e-05
7.33627e-05
6.63215e-05
5.80302e-05
4.90882e-05
4.17194e-05
3.28779e-05
2.83558e-05
2.78535e-05
5.44957e-05
8.4377e-05
0.000102567
3.165e-05
3.18962e-05
3.22353e-05
3.26143e-05
3.29974e-05
3.33944e-05
3.38155e-05
3.4262e-05
3.47333e-05
3.52298e-05
3.57529e-05
3.63041e-05
3.68853e-05
3.74978e-05
3.81434e-05
3.88234e-05
3.95396e-05
4.02935e-05
4.10867e-05
4.19206e-05
4.2797e-05
4.37169e-05
4.46818e-05
4.56926e-05
4.67505e-05
4.78559e-05
4.90094e-05
5.02112e-05
5.14611e-05
5.2761e-05
5.41113e-05
5.55062e-05
5.69456e-05
5.843e-05
5.99595e-05
6.15318e-05
6.31472e-05
6.48029e-05
6.65009e-05
6.8237e-05
7.00147e-05
7.18278e-05
7.36796e-05
7.55576e-05
7.74539e-05
7.93366e-05
8.11816e-05
8.29802e-05
8.48325e-05
8.69906e-05
8.99595e-05
9.40497e-05
9.20872e-05
8.93336e-05
8.56753e-05
8.06186e-05
7.70379e-05
7.03467e-05
5.87454e-05
5.23516e-05
4.62653e-05
3.76581e-05
3.17718e-05
2.53166e-05
2.48112e-05
4.35912e-05
7.20878e-05
9.06531e-05
0.000107918
2.96927e-05
2.9936e-05
3.02653e-05
3.06328e-05
3.1006e-05
3.13936e-05
3.18052e-05
3.22419e-05
3.27035e-05
3.31906e-05
3.37048e-05
3.42479e-05
3.48216e-05
3.54278e-05
3.60684e-05
3.67449e-05
3.74594e-05
3.82135e-05
3.90092e-05
3.98481e-05
4.07319e-05
4.16621e-05
4.264e-05
4.36667e-05
4.47433e-05
4.587e-05
4.7047e-05
4.82755e-05
4.95561e-05
5.08908e-05
5.22752e-05
5.37048e-05
5.51795e-05
5.66981e-05
5.82593e-05
5.98605e-05
6.1502e-05
6.31805e-05
6.48999e-05
6.66534e-05
6.84474e-05
7.02673e-05
7.21146e-05
7.39578e-05
7.57863e-05
7.75762e-05
7.93805e-05
8.13547e-05
8.38074e-05
8.70767e-05
9.04327e-05
8.85546e-05
8.42294e-05
8.1551e-05
7.6988e-05
7.13378e-05
6.31819e-05
5.19805e-05
4.94282e-05
4.33972e-05
3.43276e-05
2.77378e-05
2.43456e-05
2.16138e-05
3.73512e-05
6.24274e-05
7.99869e-05
9.70324e-05
0.000113731
2.78768e-05
2.81157e-05
2.84347e-05
2.87904e-05
2.91533e-05
2.95313e-05
2.9933e-05
3.03598e-05
3.08117e-05
3.12894e-05
3.17947e-05
3.23294e-05
3.28957e-05
3.34954e-05
3.41308e-05
3.48037e-05
3.55163e-05
3.62707e-05
3.70692e-05
3.79136e-05
3.8806e-05
3.97481e-05
4.07415e-05
4.17876e-05
4.28874e-05
4.40413e-05
4.52491e-05
4.65101e-05
4.78237e-05
4.91902e-05
5.06049e-05
5.20663e-05
5.35737e-05
5.51252e-05
5.67193e-05
5.83529e-05
6.00271e-05
6.17373e-05
6.34886e-05
6.52692e-05
6.70844e-05
6.89069e-05
7.07381e-05
7.25517e-05
7.4394e-05
7.63491e-05
7.86466e-05
8.15619e-05
8.52695e-05
8.63692e-05
8.25994e-05
8.07473e-05
7.56424e-05
7.27817e-05
6.66456e-05
5.45135e-05
4.62541e-05
4.55304e-05
3.89534e-05
3.06552e-05
2.49274e-05
2.0928e-05
2.08313e-05
3.37655e-05
5.45758e-05
6.98062e-05
8.62485e-05
0.000102177
0.000118258
2.61736e-05
2.64062e-05
2.67132e-05
2.70554e-05
2.74061e-05
2.77726e-05
2.81626e-05
2.85776e-05
2.90177e-05
2.94841e-05
2.99785e-05
3.0503e-05
3.10597e-05
3.16508e-05
3.22786e-05
3.29454e-05
3.36536e-05
3.44057e-05
3.5204e-05
3.6051e-05
3.69488e-05
3.78997e-05
3.89053e-05
3.99676e-05
4.10871e-05
4.22644e-05
4.35017e-05
4.48027e-05
4.61653e-05
4.75851e-05
4.90563e-05
5.05758e-05
5.21409e-05
5.3747e-05
5.53928e-05
5.70737e-05
5.87924e-05
6.05415e-05
6.23263e-05
6.41292e-05
6.59585e-05
6.77963e-05
6.9689e-05
7.16935e-05
7.39927e-05
7.67672e-05
8.01917e-05
8.33962e-05
8.04275e-05
7.8453e-05
7.41452e-05
7.18611e-05
6.58048e-05
5.70631e-05
4.74738e-05
4.33346e-05
4.10753e-05
3.25562e-05
2.74198e-05
2.11163e-05
1.89913e-05
1.93033e-05
3.24605e-05
4.87974e-05
6.09917e-05
7.58359e-05
9.15734e-05
0.000106694
0.000123011
2.46334e-05
2.48591e-05
2.5155e-05
2.54848e-05
2.58243e-05
2.61799e-05
2.65589e-05
2.69628e-05
2.73921e-05
2.78481e-05
2.83327e-05
2.88482e-05
2.93969e-05
2.99814e-05
3.06042e-05
3.12681e-05
3.19757e-05
3.27302e-05
3.35343e-05
3.43912e-05
3.53034e-05
3.62742e-05
3.73054e-05
3.83996e-05
3.95575e-05
4.07793e-05
4.20611e-05
4.34016e-05
4.48017e-05
4.62589e-05
4.77711e-05
4.93348e-05
5.09483e-05
5.26043e-05
5.4302e-05
5.60323e-05
5.77968e-05
5.9586e-05
6.14082e-05
6.32627e-05
6.51947e-05
6.72594e-05
6.96046e-05
7.2356e-05
7.56391e-05
7.94048e-05
7.72562e-05
7.54897e-05
7.18498e-05
6.95491e-05
6.43579e-05
5.81288e-05
4.83605e-05
4.24348e-05
4.08659e-05
3.48716e-05
2.78558e-05
2.20517e-05
1.90518e-05
1.5978e-05
1.95785e-05
3.21586e-05
4.38124e-05
5.36062e-05
6.71832e-05
8.18607e-05
9.59088e-05
0.000110099
0.000129685
2.31702e-05
2.33881e-05
2.36705e-05
2.39849e-05
2.431e-05
2.46515e-05
2.50162e-05
2.54056e-05
2.58204e-05
2.6262e-05
2.67326e-05
2.72344e-05
2.777e-05
2.83424e-05
2.89541e-05
2.96084e-05
3.03082e-05
3.10571e-05
3.18583e-05
3.27156e-05
3.36318e-05
3.46109e-05
3.56556e-05
3.67692e-05
3.79529e-05
3.92156e-05
4.05637e-05
4.19913e-05
4.34918e-05
4.50557e-05
4.66783e-05
4.83481e-05
5.00606e-05
5.18018e-05
5.35708e-05
5.53586e-05
5.71758e-05
5.9038e-05
6.09858e-05
6.30892e-05
6.54533e-05
6.81773e-05
7.13184e-05
7.48019e-05
7.33922e-05
7.20069e-05
6.84034e-05
6.65947e-05
6.1748e-05
5.68357e-05
4.80688e-05
4.22468e-05
4.0137e-05
3.47261e-05
2.76356e-05
2.27839e-05
1.82962e-05
1.56076e-05
1.47544e-05
1.98029e-05
3.07761e-05
3.91812e-05
4.75683e-05
6.07525e-05
7.35565e-05
8.62338e-05
9.9063e-05
0.000114932
0.000141508
2.19462e-05
2.21545e-05
2.24263e-05
2.27298e-05
2.30444e-05
2.33754e-05
2.37294e-05
2.41079e-05
2.45121e-05
2.49436e-05
2.54048e-05
2.58983e-05
2.64271e-05
2.69943e-05
2.76034e-05
2.82579e-05
2.89616e-05
2.97189e-05
3.0534e-05
3.14115e-05
3.23557e-05
3.33712e-05
3.44613e-05
3.56297e-05
3.68739e-05
3.81874e-05
3.95718e-05
4.1034e-05
4.25745e-05
4.41881e-05
4.58717e-05
4.76106e-05
4.94005e-05
5.12243e-05
5.30898e-05
5.50045e-05
5.70125e-05
5.9176e-05
6.15589e-05
6.42342e-05
6.71543e-05
7.01892e-05
6.90004e-05
6.75482e-05
6.45011e-05
6.25557e-05
5.79765e-05
5.33251e-05
4.62248e-05
4.15463e-05
3.79654e-05
3.28926e-05
2.65007e-05
2.1991e-05
1.76153e-05
1.49568e-05
1.31932e-05
1.44603e-05
2.17402e-05
2.91896e-05
3.5054e-05
4.32643e-05
5.46779e-05
6.58421e-05
7.73758e-05
8.93681e-05
0.000103323
0.00012434
0.000157925
2.06807e-05
2.08844e-05
2.11427e-05
2.14296e-05
2.17284e-05
2.2044e-05
2.23819e-05
2.27438e-05
2.31308e-05
2.35448e-05
2.39881e-05
2.44635e-05
2.49743e-05
2.55236e-05
2.61155e-05
2.67536e-05
2.74427e-05
2.81872e-05
2.89927e-05
2.98648e-05
3.08097e-05
3.18342e-05
3.29443e-05
3.41494e-05
3.54687e-05
3.69102e-05
3.84614e-05
4.0113e-05
4.18537e-05
4.36704e-05
4.55554e-05
4.74896e-05
4.94801e-05
5.15159e-05
5.36373e-05
5.58594e-05
5.82261e-05
6.07099e-05
6.32155e-05
6.54884e-05
6.39089e-05
6.24716e-05
5.97341e-05
5.72219e-05
5.36834e-05
4.8281e-05
4.3191e-05
4.02352e-05
3.42578e-05
2.96019e-05
2.41848e-05
2.00967e-05
1.62743e-05
1.38768e-05
1.20182e-05
1.19511e-05
1.547e-05
2.17129e-05
2.63599e-05
3.18278e-05
4.02506e-05
4.96698e-05
5.92992e-05
6.98955e-05
8.12111e-05
9.42411e-05
0.000111862
0.000137505
0.000171335
1.98991e-05
2.00808e-05
2.03257e-05
2.06022e-05
2.08904e-05
2.11951e-05
2.15223e-05
2.18739e-05
2.22514e-05
2.26567e-05
2.30926e-05
2.3562e-05
2.40688e-05
2.46165e-05
2.52099e-05
2.58532e-05
2.65523e-05
2.73121e-05
2.81389e-05
2.90387e-05
3.00181e-05
3.10844e-05
3.22433e-05
3.34885e-05
3.48144e-05
3.62437e-05
3.77907e-05
3.94638e-05
4.12662e-05
4.3197e-05
4.52688e-05
4.74605e-05
4.9786e-05
5.21685e-05
5.45842e-05
5.68163e-05
5.87167e-05
5.97953e-05
5.84322e-05
5.63082e-05
5.38354e-05
5.09794e-05
4.69885e-05
4.31209e-05
3.91325e-05
3.37586e-05
2.96653e-05
2.47084e-05
2.08374e-05
1.72696e-05
1.43326e-05
1.22753e-05
1.07187e-05
1.03681e-05
1.20663e-05
1.64045e-05
1.99588e-05
2.42311e-05
2.97252e-05
3.72679e-05
4.51768e-05
5.40334e-05
6.41941e-05
7.52912e-05
8.76813e-05
0.000102919
0.000122737
0.000147824
0.000176608
1.87523e-05
1.89498e-05
1.91886e-05
1.94497e-05
1.97225e-05
2.00113e-05
2.0321e-05
2.06531e-05
2.10094e-05
2.1392e-05
2.1804e-05
2.22482e-05
2.27289e-05
2.32496e-05
2.3816e-05
2.44332e-05
2.51087e-05
2.58496e-05
2.66652e-05
2.75659e-05
2.85624e-05
2.96648e-05
3.09006e-05
3.23053e-05
3.3876e-05
3.56193e-05
3.75413e-05
3.96505e-05
4.19434e-05
4.43812e-05
4.69207e-05
4.94063e-05
5.16897e-05
5.34234e-05
5.43893e-05
5.26619e-05
5.15316e-05
4.84623e-05
4.63741e-05
4.26662e-05
3.926e-05
3.51757e-05
3.10105e-05
2.68443e-05
2.30252e-05
1.93745e-05
1.67152e-05
1.37743e-05
1.20875e-05
1.03103e-05
9.22611e-06
9.01405e-06
9.95835e-06
1.26904e-05
1.49656e-05
1.84371e-05
2.23593e-05
2.79743e-05
3.42041e-05
4.111e-05
5.03345e-05
6.1045e-05
7.22554e-05
8.37053e-05
9.65486e-05
0.000111923
0.000130407
0.000151499
0.000173137
1.87215e-05
1.88561e-05
1.90674e-05
1.9316e-05
1.95764e-05
1.98522e-05
2.01495e-05
2.04706e-05
2.08165e-05
2.11893e-05
2.15921e-05
2.20278e-05
2.25005e-05
2.3014e-05
2.35735e-05
2.41838e-05
2.4851e-05
2.55829e-05
2.63899e-05
2.72887e-05
2.83001e-05
2.94267e-05
3.06624e-05
3.20447e-05
3.35996e-05
3.53513e-05
3.72771e-05
3.93548e-05
4.1484e-05
4.35262e-05
4.52745e-05
4.64781e-05
4.64369e-05
4.38295e-05
4.20251e-05
3.85511e-05
3.60131e-05
3.2112e-05
2.89415e-05
2.5229e-05
2.19845e-05
1.89621e-05
1.61658e-05
1.4021e-05
1.20907e-05
1.08973e-05
9.41029e-06
8.45135e-06
7.55358e-06
7.47272e-06
8.08547e-06
9.47275e-06
1.12161e-05
1.36351e-05
1.68972e-05
2.08703e-05
2.47206e-05
2.87383e-05
3.6416e-05
4.6977e-05
5.82453e-05
6.92732e-05
7.97976e-05
9.06597e-05
0.000102658
0.000116217
0.000130856
0.000145989
0.000160246
1.7731e-05
1.79552e-05
1.81966e-05
1.84492e-05
1.87145e-05
1.89993e-05
1.93071e-05
1.964e-05
2e-05
2.03911e-05
2.0817e-05
2.12831e-05
2.17956e-05
2.23628e-05
2.29988e-05
2.37237e-05
2.45582e-05
2.55042e-05
2.65641e-05
2.77315e-05
2.90205e-05
3.04522e-05
3.19895e-05
3.36008e-05
3.52097e-05
3.68153e-05
3.83219e-05
3.88942e-05
3.71348e-05
3.51355e-05
3.28906e-05
3.04085e-05
2.78548e-05
2.51027e-05
2.25156e-05
1.98443e-05
1.7543e-05
1.53346e-05
1.34349e-05
1.18164e-05
1.05967e-05
9.39301e-06
8.50618e-06
7.65494e-06
7.00244e-06
6.20183e-06
5.6921e-06
5.78517e-06
6.21846e-06
7.01016e-06
8.10872e-06
1.01294e-05
1.25159e-05
1.5171e-05
1.48104e-05
1.47905e-05
1.8464e-05
2.61408e-05
3.63211e-05
4.743e-05
5.77695e-05
6.7254e-05
7.65295e-05
8.59072e-05
9.56014e-05
0.000105703
0.000116366
0.000126564
0.000135557
2.03975e-05
2.05304e-05
2.07839e-05
2.1095e-05
2.14166e-05
2.17566e-05
2.21265e-05
2.25312e-05
2.29737e-05
2.34587e-05
2.3995e-05
2.46019e-05
2.5228e-05
2.59312e-05
2.67034e-05
2.74597e-05
2.82675e-05
2.78159e-05
2.72975e-05
2.66915e-05
2.5863e-05
2.49774e-05
2.38975e-05
2.27436e-05
2.14993e-05
2.01674e-05
1.86958e-05
1.72688e-05
1.57764e-05
1.44536e-05
1.30974e-05
1.19811e-05
1.08191e-05
9.92857e-06
8.96981e-06
8.34135e-06
7.81489e-06
7.27553e-06
6.72699e-06
6.06732e-06
5.57089e-06
5.03885e-06
4.73042e-06
4.36827e-06
4.26858e-06
4.27775e-06
4.34944e-06
4.73052e-06
5.27225e-06
5.8659e-06
6.40624e-06
5.48037e-06
5.507e-06
5.82769e-06
6.00576e-06
7.29912e-06
1.06079e-05
1.57656e-05
2.27689e-05
3.08759e-05
3.85907e-05
4.61705e-05
5.37304e-05
6.10807e-05
6.80744e-05
7.45024e-05
8.00216e-05
8.46016e-05
8.90746e-05
8.64217e-06
8.53701e-06
8.43356e-06
8.33113e-06
8.22935e-06
8.13242e-06
8.01869e-06
7.91505e-06
7.82273e-06
7.70572e-06
7.60705e-06
7.50464e-06
7.40299e-06
7.2996e-06
7.19088e-06
7.08187e-06
6.96451e-06
6.84902e-06
6.72883e-06
6.62053e-06
6.51964e-06
6.43043e-06
6.34641e-06
6.27644e-06
6.20879e-06
6.15175e-06
6.09569e-06
6.0432e-06
5.9897e-06
5.9148e-06
5.83995e-06
5.69796e-06
5.56983e-06
5.35241e-06
5.06082e-06
4.73145e-06
4.33906e-06
3.92617e-06
3.46255e-06
3.06861e-06
2.69285e-06
2.32099e-06
1.99841e-06
1.61757e-06
1.19313e-06
9.45741e-07
8.65018e-07
1.02775e-06
1.23562e-06
1.25419e-06
1.05857e-06
7.94665e-07
6.50861e-07
5.72002e-07
6.42979e-07
8.99517e-07
1.42928e-06
2.44906e-06
4.15294e-06
6.60862e-06
9.17201e-06
1.16516e-05
1.43093e-05
1.68731e-05
1.9171e-05
2.10238e-05
2.23345e-05
2.31741e-05
2.45451e-05
3.95124e-06
4.06713e-06
4.18381e-06
4.30091e-06
4.41854e-06
4.53641e-06
4.65441e-06
4.77265e-06
4.89032e-06
5.00852e-06
5.12502e-06
5.24254e-06
5.35733e-06
5.47305e-06
5.58601e-06
5.69931e-06
5.80535e-06
5.89959e-06
5.9791e-06
6.06274e-06
6.08723e-06
6.0974e-06
6.09842e-06
6.06648e-06
6.0506e-06
5.9611e-06
5.89334e-06
5.76629e-06
5.5978e-06
5.37931e-06
5.10399e-06
4.76407e-06
4.35366e-06
3.86866e-06
3.30809e-06
2.68193e-06
2.0116e-06
1.33524e-06
7.32939e-07
3.11442e-07
1.19165e-07
9.34668e-08
1.00621e-07
9.663e-08
8.04776e-08
6.84873e-08
5.65843e-08
4.85445e-08
4.33423e-08
3.92823e-08
3.38188e-08
2.94594e-08
2.75367e-08
2.97671e-08
3.70466e-08
5.00748e-08
6.9424e-08
9.46112e-08
1.23551e-07
1.54451e-07
1.9027e-07
2.29248e-07
2.65302e-07
2.95625e-07
3.18133e-07
3.34484e-07
3.58371e-07
3.89829e-07
4.14954e-07
6.97843e-05
6.99529e-05
6.93405e-05
7.01312e-05
6.96835e-05
6.86873e-05
6.75971e-05
6.78043e-05
6.88041e-05
6.89561e-05
6.96919e-05
6.90645e-05
6.75045e-05
6.64173e-05
6.71634e-05
6.97858e-05
6.84467e-05
6.75999e-05
6.73825e-05
6.78099e-05
6.7559e-05
6.77968e-05
6.78112e-05
6.68959e-05
6.7616e-05
6.78527e-05
6.72683e-05
6.68713e-05
6.81266e-05
6.86124e-05
6.80626e-05
6.80824e-05
6.84796e-05
6.92075e-05
6.82674e-05
6.85629e-05
6.9375e-05
6.88547e-05
6.89884e-05
7.1057e-05
7.03368e-05
6.93148e-05
7.06062e-05
7.19497e-05
7.15626e-05
7.1619e-05
7.27088e-05
7.30501e-05
7.31632e-05
7.33947e-05
7.29952e-05
7.17237e-05
7.29189e-05
7.21498e-05
7.35339e-05
7.48181e-05
7.5069e-05
7.51605e-05
7.56873e-05
6.51193e-05
6.50267e-05
6.48264e-05
6.46283e-05
6.4181e-05
6.3731e-05
6.36762e-05
6.42382e-05
6.48628e-05
6.48915e-05
6.44336e-05
6.35926e-05
6.31272e-05
6.29668e-05
6.42151e-05
6.42775e-05
6.319e-05
6.27076e-05
6.31825e-05
6.34011e-05
6.30895e-05
6.2902e-05
6.2878e-05
6.25658e-05
6.29754e-05
6.29589e-05
6.29041e-05
6.23982e-05
6.32171e-05
6.37725e-05
6.30885e-05
6.33823e-05
6.36654e-05
6.43496e-05
6.40263e-05
6.41089e-05
6.49374e-05
6.48751e-05
6.46546e-05
6.53045e-05
6.55459e-05
6.53633e-05
6.55532e-05
6.64879e-05
6.72515e-05
6.72092e-05
6.77962e-05
6.83811e-05
6.89117e-05
6.92978e-05
6.92016e-05
6.88291e-05
6.85572e-05
6.86284e-05
6.87146e-05
6.96846e-05
7.04592e-05
7.08398e-05
7.13113e-05
6.05433e-05
6.05651e-05
6.03019e-05
6.01116e-05
6.00257e-05
6.01026e-05
6.03531e-05
6.06023e-05
6.05627e-05
6.01585e-05
5.95674e-05
5.91795e-05
5.92304e-05
5.94482e-05
5.9839e-05
5.92198e-05
5.87453e-05
5.87565e-05
5.91969e-05
5.91637e-05
5.86253e-05
5.84048e-05
5.83717e-05
5.83587e-05
5.86059e-05
5.8455e-05
5.85256e-05
5.81382e-05
5.87071e-05
5.90817e-05
5.86438e-05
5.89924e-05
5.91639e-05
5.96001e-05
5.96053e-05
5.96704e-05
6.02673e-05
6.0535e-05
6.04893e-05
6.06841e-05
6.11053e-05
6.13624e-05
6.13458e-05
6.15636e-05
6.2419e-05
6.27152e-05
6.30745e-05
6.35572e-05
6.41924e-05
6.47874e-05
6.51083e-05
6.52403e-05
6.50719e-05
6.50683e-05
6.50153e-05
6.52112e-05
6.55908e-05
6.59182e-05
6.6468e-05
5.64889e-05
5.6607e-05
5.6466e-05
5.64759e-05
5.65418e-05
5.66163e-05
5.66157e-05
5.64626e-05
5.61346e-05
5.5736e-05
5.54545e-05
5.54248e-05
5.55793e-05
5.56566e-05
5.54832e-05
5.5021e-05
5.49139e-05
5.50922e-05
5.52626e-05
5.50539e-05
5.45645e-05
5.4386e-05
5.43815e-05
5.44714e-05
5.46111e-05
5.4449e-05
5.45063e-05
5.42857e-05
5.46916e-05
5.49232e-05
5.47278e-05
5.5049e-05
5.51268e-05
5.54273e-05
5.55457e-05
5.56435e-05
5.60643e-05
5.64442e-05
5.65756e-05
5.66995e-05
5.70612e-05
5.74705e-05
5.75852e-05
5.76306e-05
5.81204e-05
5.8601e-05
5.89922e-05
5.93724e-05
5.98631e-05
6.0422e-05
6.09254e-05
6.13413e-05
6.15945e-05
6.17467e-05
6.18205e-05
6.18616e-05
6.19692e-05
6.20591e-05
6.24209e-05
5.29786e-05
5.31592e-05
5.30685e-05
5.30656e-05
5.30178e-05
5.28899e-05
5.26824e-05
5.24134e-05
5.21443e-05
5.19709e-05
5.19298e-05
5.19794e-05
5.19896e-05
5.18414e-05
5.15585e-05
5.13361e-05
5.13809e-05
5.14916e-05
5.14536e-05
5.11758e-05
5.08212e-05
5.06998e-05
5.07213e-05
5.08289e-05
5.08813e-05
5.07519e-05
5.07972e-05
5.06837e-05
5.09822e-05
5.11446e-05
5.10823e-05
5.13617e-05
5.1416e-05
5.1662e-05
5.18342e-05
5.19626e-05
5.22784e-05
5.26576e-05
5.28843e-05
5.30108e-05
5.32741e-05
5.36901e-05
5.3977e-05
5.41005e-05
5.4364e-05
5.47712e-05
5.51907e-05
5.55723e-05
5.59668e-05
5.64112e-05
5.68832e-05
5.73524e-05
5.77814e-05
5.81365e-05
5.84121e-05
5.86079e-05
5.87675e-05
5.88169e-05
5.90572e-05
4.971e-05
4.98424e-05
4.96839e-05
4.95739e-05
4.94135e-05
4.92173e-05
4.9013e-05
4.8834e-05
4.87137e-05
4.86631e-05
4.86463e-05
4.8593e-05
4.84485e-05
4.82283e-05
4.80336e-05
4.79706e-05
4.80186e-05
4.80051e-05
4.78462e-05
4.75695e-05
4.73286e-05
4.72564e-05
4.72954e-05
4.73795e-05
4.73705e-05
4.72763e-05
4.73156e-05
4.72626e-05
4.74887e-05
4.76153e-05
4.76188e-05
4.78594e-05
4.79261e-05
4.81392e-05
4.83398e-05
4.84947e-05
4.87486e-05
4.9094e-05
4.93725e-05
4.95397e-05
4.97444e-05
5.00962e-05
5.04571e-05
5.06972e-05
5.09162e-05
5.12178e-05
5.15885e-05
5.19722e-05
5.23482e-05
5.27318e-05
5.3135e-05
5.35555e-05
5.3982e-05
5.43942e-05
5.47725e-05
5.51018e-05
5.53912e-05
5.5545e-05
5.58353e-05
4.65034e-05
4.65673e-05
4.63631e-05
4.62178e-05
4.60578e-05
4.5905e-05
4.57762e-05
4.5679e-05
4.5609e-05
4.55438e-05
4.54492e-05
4.53013e-05
4.51162e-05
4.49473e-05
4.4853e-05
4.48338e-05
4.48117e-05
4.46954e-05
4.44863e-05
4.42501e-05
4.40914e-05
4.40561e-05
4.40947e-05
4.41381e-05
4.40936e-05
4.40264e-05
4.40585e-05
4.40417e-05
4.42173e-05
4.43239e-05
4.43658e-05
4.45739e-05
4.46585e-05
4.48445e-05
4.50523e-05
4.52281e-05
4.5448e-05
4.57545e-05
4.60553e-05
4.62772e-05
4.64759e-05
4.67606e-05
4.71094e-05
4.74207e-05
4.76795e-05
4.7944e-05
4.82541e-05
4.86027e-05
4.89649e-05
4.93284e-05
4.96947e-05
5.0068e-05
5.04492e-05
5.08344e-05
5.12139e-05
5.15764e-05
5.19262e-05
5.21622e-05
5.25305e-05
4.34272e-05
4.34702e-05
4.32781e-05
4.31568e-05
4.30369e-05
4.29291e-05
4.28341e-05
4.27437e-05
4.26456e-05
4.25253e-05
4.23775e-05
4.22139e-05
4.20651e-05
4.196e-05
4.19005e-05
4.18481e-05
4.17471e-05
4.15749e-05
4.13684e-05
4.11884e-05
4.10887e-05
4.10724e-05
4.10962e-05
4.11001e-05
4.10413e-05
4.09954e-05
4.10212e-05
4.10273e-05
4.11665e-05
4.12613e-05
4.13245e-05
4.15033e-05
4.16014e-05