/*--------------------------------*- C++ -*----------------------------------*\
| =========                 |                                                 |
| \\      /  F ield         | OpenFOAM: The Open Source CFD Toolbox           |
|  \\    /   O peration     | Version:  2312                                  |
|   \\  /    A nd           | Website:  www.openfoam.com                      |
|    \\/     M anipulation  |                                                 |
\*---------------------------------------------------------------------------*/
FoamFile
{
    version     2.0;
    format      ascii;
    arch        "LSB;label=32;scalar=64";
    class       volScalarField;
    location    "300";
    object      omega;
}
// * * * * * * * * * * * * * * * * * * * * * * * * * * * * * * * * * * * * * //

dimensions      [0 0 -1 0 0 0 0];

internalField   nonuniform List<scalar> 
76025
(
0.028671
0.0286825
0.0286889
0.0286906
0.0287009
0.0287015
0.0286982
0.0287122
0.0287234
0.0287427
0.0287535
0.0287644
0.0287783
0.0287928
0.0288133
0.0288345
0.0288526
0.0288783
0.0288928
0.0289191
0.0289432
0.0289762
0.0290014
0.0290355
0.0290664
0.0291001
0.0291396
0.0291684
0.0292092
0.0292426
0.0292705
0.0293133
0.0293486
0.029398
0.0294456
0.0294989
0.0295664
0.0296342
0.0297161
0.0298107
0.0299124
0.0300494
0.0301848
0.0303635
0.0305474
0.0307878
0.0310237
0.0313127
0.0316263
0.031978
0.0323675
0.0328027
0.0332701
0.0337728
0.0343565
0.0350023
0.0356835
0.0365502
0.0374565
0.0385968
0.0397625
0.0412805
0.0430001
0.0452444
0.0477533
0.0510041
0.0544618
0.0601355
0.0664566
0.0289902
0.0289945
0.0290018
0.0290109
0.0290178
0.0290291
0.0290334
0.0290426
0.0290506
0.0290628
0.0290744
0.0290874
0.0290998
0.0291139
0.0291305
0.0291488
0.0291685
0.0291904
0.0292127
0.0292357
0.0292602
0.0292876
0.0293168
0.0293479
0.0293834
0.0294175
0.0294572
0.0294972
0.0295402
0.0295866
0.029637
0.0296884
0.0297472
0.0298096
0.0298799
0.0299579
0.0300446
0.030142
0.0302544
0.0303792
0.0305255
0.0306857
0.0308716
0.0310769
0.0313093
0.0315666
0.0318471
0.0321631
0.032501
0.0328813
0.0332912
0.0337457
0.034252
0.0348104
0.0354612
0.036168
0.0370079
0.0379425
0.0390288
0.0402363
0.0417211
0.0433652
0.0454307
0.0477615
0.0507746
0.0542767
0.0588929
0.0661351
0.0740616
0.0293643
0.0293721
0.0293776
0.0293862
0.0293931
0.0294036
0.029413
0.0294241
0.0294351
0.0294476
0.0294607
0.0294748
0.0294898
0.0295046
0.0295218
0.0295395
0.02956
0.0295815
0.0296055
0.0296307
0.0296581
0.0296868
0.0297187
0.0297524
0.0297907
0.0298308
0.0298751
0.0299225
0.0299745
0.0300303
0.0300926
0.0301595
0.0302337
0.0303149
0.0304052
0.0305048
0.0306158
0.0307388
0.0308777
0.0310307
0.0312034
0.0313918
0.0316036
0.0318331
0.0320884
0.032366
0.03267
0.0330075
0.0333708
0.0337858
0.034229
0.0347423
0.0353016
0.0359413
0.0366589
0.0374713
0.0383856
0.0394512
0.0406138
0.0420411
0.043627
0.0455618
0.0478123
0.050634
0.0540715
0.0580727
0.064146
0.0720296
0.082178
0.0297572
0.0297781
0.0297942
0.0298084
0.0298205
0.0298326
0.0298449
0.029858
0.0298719
0.0298867
0.0299029
0.02992
0.0299388
0.0299583
0.0299793
0.0300014
0.0300253
0.030051
0.0300788
0.0301085
0.0301408
0.0301752
0.0302127
0.030253
0.0302971
0.0303448
0.0303969
0.0304534
0.030515
0.0305822
0.0306559
0.0307366
0.0308252
0.0309224
0.0310297
0.0311472
0.0312775
0.0314202
0.0315801
0.0317533
0.0319486
0.0321568
0.0323938
0.0326425
0.0329287
0.0332281
0.033573
0.0339403
0.0343567
0.0348161
0.0353239
0.0359004
0.0365371
0.0372514
0.0380746
0.0389671
0.0400337
0.0412009
0.0425778
0.0441637
0.0460402
0.048233
0.0508799
0.0542153
0.0580053
0.0630385
0.0707013
0.0797522
0.0953095
0.030194
0.0302228
0.0302497
0.0302738
0.0302954
0.0303151
0.0303336
0.0303514
0.0303693
0.0303877
0.0304072
0.0304278
0.0304502
0.0304743
0.0305002
0.0305281
0.030558
0.0305901
0.0306246
0.0306615
0.0307009
0.030743
0.0307879
0.0308362
0.0308879
0.030944
0.0310043
0.0310702
0.0311413
0.0312199
0.0313048
0.0313991
0.0315008
0.0316141
0.0317361
0.0318723
0.032019
0.0321834
0.0323612
0.0325586
0.0327742
0.0330093
0.0332715
0.0335508
0.0338714
0.0342061
0.0345984
0.0350078
0.0354843
0.0359987
0.0365737
0.0372289
0.0379363
0.0387603
0.0396717
0.0406994
0.0418983
0.0432332
0.0447946
0.0466237
0.0487778
0.0512873
0.0544154
0.0582512
0.0625746
0.0694318
0.0784811
0.0901486
0.11511
0.0307211
0.030747
0.0307751
0.0308034
0.0308314
0.0308586
0.0308848
0.03091
0.0309345
0.0309587
0.0309833
0.0310086
0.0310352
0.0310636
0.031094
0.0311268
0.0311622
0.0312004
0.0312415
0.0312857
0.0313327
0.0313831
0.0314366
0.0314939
0.0315547
0.0316206
0.0316908
0.0317676
0.0318495
0.0319409
0.0320383
0.0321477
0.0322635
0.0323946
0.0325321
0.032689
0.0328526
0.0330416
0.0332377
0.0334644
0.033701
0.0339718
0.0342607
0.0345828
0.0349405
0.0353235
0.0357688
0.0362301
0.036779
0.0373522
0.0380164
0.0387514
0.0395577
0.0404978
0.0415281
0.0427053
0.0440782
0.0456012
0.0474146
0.0495326
0.0520473
0.0549356
0.0587539
0.0629932
0.0686743
0.0777548
0.0882045
0.106426
0.149148
0.0313865
0.0314053
0.0314277
0.0314524
0.0314793
0.031508
0.0315376
0.0315677
0.031598
0.0316285
0.0316593
0.0316907
0.031723
0.0317568
0.0317923
0.0318302
0.0318707
0.0319142
0.031961
0.0320114
0.0320653
0.0321232
0.032185
0.0322515
0.0323223
0.0323988
0.0324805
0.0325693
0.0326644
0.0327693
0.0328812
0.0330057
0.0331377
0.0332859
0.0334416
0.0336191
0.0338035
0.0340186
0.0342387
0.0345
0.0347642
0.0350808
0.0354019
0.0357817
0.0361787
0.0366285
0.0371267
0.0376589
0.0382825
0.0389309
0.0396934
0.0405233
0.0414426
0.0425233
0.0436859
0.0450552
0.0466241
0.0483936
0.0504899
0.0530006
0.0558592
0.0593476
0.0638436
0.0687643
0.0769539
0.0879788
0.101779
0.132185
0.210081
0.032182
0.0321981
0.0322168
0.0322374
0.0322605
0.0322865
0.0323149
0.0323456
0.032378
0.0324121
0.0324476
0.0324845
0.0325229
0.0325629
0.0326049
0.0326492
0.0326961
0.0327462
0.0327997
0.032857
0.0329185
0.0329844
0.0330554
0.0331313
0.0332133
0.0333009
0.033396
0.0334973
0.0336084
0.0337274
0.033858
0.0339983
0.0341523
0.0343188
0.0345008
0.0347004
0.0349167
0.03516
0.035417
0.0357151
0.0360199
0.0363847
0.0367482
0.0371898
0.0376316
0.0381566
0.0387095
0.0393253
0.0400283
0.0407643
0.0416419
0.0425768
0.0436399
0.0448795
0.0462123
0.0478096
0.0496318
0.0516831
0.0541626
0.0571176
0.0604039
0.0647775
0.0698897
0.0766592
0.0881087
0.101062
0.123482
0.176866
0.322937
0.0331408
0.0331597
0.0331799
0.0332006
0.033223
0.0332476
0.0332746
0.0333042
0.0333363
0.0333709
0.0334081
0.0334477
0.0334899
0.0335345
0.0335819
0.033632
0.0336854
0.033742
0.0338028
0.0338675
0.0339373
0.0340115
0.0340922
0.0341777
0.0342715
0.0343702
0.0344797
0.0345939
0.0347229
0.0348566
0.0350093
0.0351666
0.0353478
0.0355342
0.0357495
0.0359727
0.0362298
0.0365011
0.0368054
0.037138
0.0374946
0.0379044
0.0383212
0.0388245
0.0393204
0.0399284
0.040543
0.0412604
0.0420512
0.0428992
0.0439111
0.044976
0.0462181
0.047651
0.0491956
0.0510802
0.0532131
0.0555982
0.0585942
0.0620037
0.0659978
0.071419
0.0775897
0.0880875
0.102303
0.120444
0.15918
0.25829
0.534114
0.0342289
0.0342546
0.0342812
0.0343077
0.0343349
0.0343636
0.034394
0.0344265
0.0344613
0.0344986
0.0345388
0.034582
0.0346283
0.0346778
0.0347307
0.0347871
0.0348475
0.0349117
0.0349809
0.0350542
0.0351338
0.0352178
0.0353099
0.0354067
0.035514
0.0356258
0.0357513
0.0358809
0.0360298
0.0361817
0.0363588
0.0365371
0.0367485
0.0369587
0.0372112
0.0374614
0.037764
0.0380653
0.0384238
0.0387912
0.0392099
0.0396647
0.0401494
0.0407171
0.0412841
0.0419852
0.042678
0.0435187
0.0444135
0.0454049
0.0465761
0.0478063
0.0492684
0.0509422
0.0527442
0.0550029
0.0574878
0.0603127
0.0639426
0.0679027
0.0730916
0.079677
0.0886899
0.104002
0.121426
0.152237
0.224022
0.41248
0.767186
0.0355364
0.0355683
0.0356013
0.035634
0.0356674
0.0357019
0.0357379
0.0357757
0.0358154
0.0358575
0.0359023
0.0359501
0.0360013
0.036056
0.0361147
0.0361773
0.0362447
0.0363164
0.0363939
0.0364761
0.0365655
0.03666
0.0367637
0.0368729
0.0369937
0.0371205
0.037262
0.0374099
0.0375781
0.0377519
0.0379526
0.0381568
0.0383971
0.038637
0.0389256
0.0392096
0.0395573
0.0398961
0.0403112
0.0407214
0.0412098
0.0417179
0.0422848
0.042926
0.0435855
0.0443928
0.0451893
0.0461757
0.0472027
0.0483714
0.0497387
0.0511748
0.0529115
0.0548874
0.057002
0.0597466
0.0626156
0.0660782
0.0704104
0.0754123
0.0822315
0.0909117
0.105499
0.125475
0.151088
0.207786
0.349006
0.690973
0.888011
0.0370241
0.0370631
0.0371034
0.0371436
0.0371845
0.0372267
0.0372704
0.0373158
0.0373633
0.037413
0.0374656
0.0375212
0.0375805
0.0376434
0.0377108
0.0377825
0.0378596
0.0379416
0.0380301
0.0381242
0.038226
0.0383346
0.0384522
0.0385781
0.0387146
0.0388613
0.0390206
0.0391929
0.0393817
0.0395846
0.0398096
0.0400481
0.0403177
0.0405975
0.0409224
0.0412528
0.0416465
0.0420382
0.0425127
0.0429836
0.043549
0.0441294
0.0447938
0.0455271
0.0463048
0.0472364
0.048174
0.0493266
0.0505345
0.051907
0.0535355
0.055209
0.0573161
0.0596442
0.0621678
0.0654965
0.0688752
0.0731741
0.0785494
0.0855247
0.0943938
0.108117
0.130225
0.156105
0.202865
0.314046
0.599595
0.885192
0.950575
0.0388701
0.0389136
0.0389586
0.0390037
0.0390496
0.0390971
0.0391464
0.0391975
0.0392509
0.0393068
0.0393658
0.0394279
0.0394941
0.0395642
0.0396393
0.0397193
0.0398051
0.039897
0.0399954
0.0401017
0.0402149
0.0403384
0.0404691
0.0406133
0.0407651
0.040934
0.0411115
0.0413115
0.0415218
0.0417582
0.0420089
0.042288
0.0425889
0.0429176
0.0432818
0.0436712
0.0441142
0.0445767
0.0451148
0.0456705
0.0463194
0.0470011
0.0477752
0.0486314
0.0495515
0.0506359
0.0517573
0.0531009
0.0545557
0.0561558
0.058143
0.0600806
0.0627056
0.0654104
0.0684896
0.072542
0.0767132
0.0820858
0.0897877
0.0994514
0.112309
0.135673
0.165404
0.207619
0.299938
0.531055
0.878677
0.978628
0.970774
0.0409999
0.0410506
0.0411031
0.0411555
0.041209
0.041264
0.041321
0.04138
0.0414416
0.0415058
0.0415735
0.0416446
0.0417202
0.0418003
0.0418856
0.0419771
0.042074
0.0421795
0.0422903
0.0424127
0.0425402
0.042683
0.0428304
0.0429976
0.0431691
0.0433655
0.0435672
0.0438001
0.0440397
0.0443156
0.0446018
0.0449287
0.0452722
0.0456599
0.0460759
0.0465389
0.0470439
0.0475991
0.0482119
0.0488839
0.0496254
0.0504504
0.0513445
0.0523731
0.0534546
0.054743
0.0560881
0.057669
0.0594459
0.0613154
0.0637831
0.0660367
0.0693289
0.0724748
0.0762966
0.0815107
0.0867607
0.0943308
0.10638
0.119352
0.142101
0.177845
0.220947
0.305316
0.497233
0.876205
1.01038
1.01563
0.973017
0.0436947
0.0437518
0.0438107
0.0438693
0.0439287
0.0439896
0.0440525
0.0441175
0.0441851
0.0442556
0.0443296
0.0444077
0.0444899
0.0445783
0.0446709
0.0447721
0.0448776
0.0449949
0.0451163
0.0452532
0.045394
0.0455546
0.0457191
0.0459082
0.046102
0.0463248
0.0465561
0.0468212
0.0470987
0.0474142
0.0477476
0.0481241
0.0485253
0.0489772
0.0494623
0.0500095
0.0505943
0.0512617
0.0519654
0.0527856
0.053633
0.0546484
0.0556744
0.0569372
0.0581986
0.0597625
0.061372
0.0632626
0.0654508
0.0676515
0.0707675
0.0733615
0.0775554
0.0812945
0.0862912
0.0936133
0.10044
0.113281
0.131282
0.15148
0.192388
0.243279
0.325645
0.505256
0.886948
1.03912
1.05566
1.02325
0.917185
0.046816
0.0468861
0.0469582
0.0470299
0.0471025
0.0471766
0.0472527
0.047331
0.0474117
0.0474959
0.047583
0.0476755
0.0477711
0.0478746
0.0479815
0.0480991
0.0482203
0.0483556
0.0484952
0.0486521
0.0488149
0.0489981
0.04919
0.049405
0.049633
0.0498869
0.0501615
0.0504638
0.050795
0.0511559
0.0515553
0.0519889
0.0524695
0.0529966
0.0535747
0.0542223
0.0549131
0.0557165
0.0565387
0.0575422
0.0585245
0.0597785
0.060971
0.0625292
0.0640194
0.065933
0.0678842
0.0701699
0.0729022
0.0755079
0.0794911
0.0824489
0.0881258
0.0927066
0.10029
0.111054
0.12128
0.144779
0.170568
0.20805
0.274727
0.362702
0.541058
0.922124
1.07489
1.09554
1.06691
0.970722
0.814835
0.0508146
0.0508932
0.0509741
0.0510549
0.0511367
0.0512205
0.0513063
0.051395
0.051486
0.0515815
0.0516797
0.0517846
0.0518926
0.0520096
0.0521306
0.052263
0.052401
0.0525527
0.0527129
0.0528884
0.053077
0.0532816
0.0535061
0.0537466
0.0540157
0.0543024
0.0546282
0.0549721
0.0553664
0.0557816
0.0562579
0.0567626
0.0573363
0.057958
0.0586469
0.0594197
0.0602406
0.0612103
0.0621846
0.0634074
0.0645729
0.0661063
0.0675391
0.069435
0.0712684
0.0735793
0.076033
0.0787856
0.0822688
0.0853563
0.0906121
0.0942695
0.102547
0.108946
0.122185
0.137911
0.157765
0.197868
0.236832
0.308075
0.424651
0.608165
0.976035
1.11803
1.13534
1.10749
1.01341
0.863926
0.701461
0.0555477
0.055642
0.0557394
0.0558373
0.0559365
0.0560385
0.0561428
0.0562509
0.0563616
0.0564776
0.0565969
0.0567234
0.0568545
0.0569942
0.0571409
0.0572974
0.0574646
0.057642
0.0578358
0.0580396
0.0582673
0.0585043
0.0587746
0.0590534
0.0593772
0.0597118
0.0601016
0.0605072
0.0609754
0.0614711
0.0620331
0.0626433
0.0633198
0.0640772
0.0648924
0.0658358
0.0668169
0.0679981
0.0691785
0.070663
0.0720993
0.07395
0.0757618
0.0780184
0.0804169
0.0831275
0.0863935
0.0896409
0.0942766
0.0982003
0.105653
0.111244
0.124307
0.135195
0.159141
0.184299
0.224472
0.286973
0.357136
0.500552
0.726452
1.0516
1.17925
1.18182
1.14841
1.04457
0.89305
0.740413
0.587712
0.0617066
0.0618093
0.0619153
0.0620217
0.0621295
0.0622404
0.0623542
0.062472
0.0625938
0.0627208
0.0628538
0.0629929
0.0631412
0.063296
0.0634641
0.0636388
0.0638328
0.0640328
0.0642596
0.0644915
0.0647596
0.0650326
0.0653516
0.0656777
0.066061
0.0664585
0.0669178
0.0674088
0.0679577
0.0685697
0.0692253
0.0699892
0.0707811
0.0717303
0.072699
0.0738663
0.0750666
0.0764975
0.0779932
0.0797583
0.081634
0.0838117
0.0862417
0.088858
0.0921898
0.0952423
0.0999383
0.103805
0.110766
0.116599
0.128554
0.138791
0.161678
0.182436
0.225556
0.269219
0.344055
0.448911
0.59795
0.892816
1.15354
1.24479
1.23614
1.18506
1.05901
0.900644
0.754964
0.61754
0.488882
0.0692293
0.0693625
0.0695
0.0696376
0.0697777
0.0699201
0.070067
0.0702165
0.0703724
0.0705313
0.0706996
0.0708711
0.0710561
0.0712446
0.0714517
0.0716623
0.0718982
0.0721376
0.0724108
0.0726877
0.0730083
0.0733341
0.0737142
0.0741063
0.0745612
0.0750425
0.0755849
0.0761851
0.0768284
0.0775863
0.0783519
0.0793096
0.0802412
0.0814298
0.0826029
0.0840346
0.0855645
0.087253
0.0892703
0.0912824
0.0939089
0.0963863
0.0998301
0.102855
0.107715
0.111348
0.118913
0.124305
0.136553
0.14716
0.168925
0.190321
0.231232
0.272684
0.34671
0.427401
0.57355
0.767909
1.09723
1.27628
1.31276
1.29145
1.21613
1.04716
0.882576
0.744648
0.622445
0.509454
0.400457
0.0790239
0.0791654
0.0793124
0.0794589
0.079609
0.0797612
0.07992
0.0800817
0.0802523
0.080427
0.0806135
0.0808062
0.0810139
0.0812304
0.0814657
0.081713
0.0819842
0.0822704
0.0825883
0.0829234
0.083302
0.0836986
0.084156
0.0846348
0.0851901
0.0857793
0.0864496
0.0871927
0.0879915
0.0889441
0.0898908
0.0911137
0.09226
0.0937859
0.0952511
0.0970607
0.0990585
0.101101
0.1039
0.106225
0.110042
0.112975
0.118063
0.122238
0.129753
0.13605
0.149258
0.160173
0.183993
0.206512
0.248031
0.291482
0.364725
0.444537
0.578786
0.742732
1.02859
1.28702
1.38952
1.38146
1.33943
1.21019
1.00705
0.838665
0.709846
0.604158
0.507948
0.413542
0.325973
0.0916699
0.0918838
0.0921021
0.0923202
0.0925399
0.0927627
0.0929884
0.0932196
0.0934539
0.0936975
0.0939443
0.0942062
0.0944713
0.0947584
0.0950492
0.0953696
0.095697
0.0960596
0.0964392
0.0968538
0.0973068
0.0977868
0.0983416
0.0989082
0.0995904
0.100278
0.101104
0.101976
0.102956
0.10411
0.105252
0.106806
0.108155
0.11019
0.1119
0.114411
0.116822
0.119726
0.123405
0.126772
0.13234
0.137132
0.145256
0.154033
0.166764
0.183333
0.207174
0.235627
0.280724
0.329464
0.4056
0.493447
0.625961
0.78615
1.03527
1.32873
1.47582
1.48803
1.46133
1.36453
1.159
0.934835
0.768223
0.6515
0.563299
0.484651
0.407371
0.334353
0.274689
0.107889
0.108097
0.108312
0.108533
0.108754
0.108989
0.109223
0.109477
0.109728
0.110005
0.110278
0.110588
0.110889
0.111239
0.11158
0.111979
0.112374
0.112832
0.113305
0.11383
0.114413
0.115021
0.115753
0.116469
0.117385
0.118267
0.119385
0.120534
0.121837
0.123424
0.124878
0.127126
0.128745
0.131877
0.133868
0.13809
0.140977
0.146568
0.151638
0.159148
0.168528
0.180491
0.196596
0.219435
0.245911
0.289365
0.332785
0.403195
0.480303
0.586636
0.72485
0.90283
1.13779
1.43237
1.58468
1.61124
1.58964
1.49902
1.31448
1.04047
0.81891
0.66947
0.570837
0.500802
0.441449
0.384247
0.329354
0.280989
0.242681
0.131004
0.131381
0.131755
0.132133
0.132503
0.132885
0.133258
0.133649
0.134028
0.134437
0.134829
0.135264
0.135677
0.136148
0.136596
0.137114
0.137617
0.138189
0.13878
0.139419
0.140139
0.140863
0.141762
0.14261
0.143724
0.144788
0.14614
0.147615
0.149203
0.151433
0.153261
0.156766
0.159013
0.164435
0.167808
0.176141
0.181845
0.195084
0.206271
0.226609
0.249292
0.281547
0.322705
0.37618
0.440944
0.52838
0.617051
0.762256
0.894695
1.11964
1.35494
1.617
1.74736
1.74926
1.73168
1.62902
1.45294
1.14602
0.867975
0.675242
0.551222
0.472959
0.422347
0.384748
0.349562
0.31388
0.27917
0.248319
0.223882
0.160044
0.160384
0.160748
0.161119
0.161502
0.161899
0.162307
0.162737
0.163174
0.163646
0.16412
0.164645
0.165169
0.165764
0.16636
0.167042
0.167743
0.16854
0.169396
0.170341
0.171415
0.172553
0.173928
0.175371
0.17717
0.179134
0.181534
0.184489
0.187773
0.192553
0.197186
0.205349
0.212299
0.226257
0.23766
0.26073
0.281289
0.317632
0.355221
0.409853
0.473681
0.553091
0.651776
0.759619
0.900079
1.03511
1.24172
1.4604
1.7291
1.90942
1.96209
1.94661
1.8796
1.78616
1.55151
1.22055
0.907143
0.686241
0.538203
0.440215
0.384856
0.352118
0.331422
0.313586
0.294429
0.273371
0.252561
0.233414
0.217625
0.206999
0.207692
0.208406
0.209132
0.209891
0.21067
0.211489
0.212335
0.213231
0.214164
0.215161
0.21621
0.217338
0.21854
0.219844
0.221245
0.222774
0.22443
0.226209
0.228179
0.230332
0.232951
0.236161
0.240143
0.245097
0.251484
0.259678
0.270259
0.28346
0.300513
0.321331
0.348818
0.381164
0.424919
0.474377
0.541331
0.6146
0.711566
0.81641
0.946872
1.08561
1.2482
1.41258
1.60479
1.77578
2.03866
2.24754
2.27736
2.24384
2.18164
2.07599
1.87421
1.55466
1.19558
0.946965
0.765369
0.608234
0.483622
0.403388
0.35368
0.328352
0.315101
0.305564
0.296261
0.285416
0.272527
0.257532
0.24304
0.230216
0.332833
0.335471
0.338178
0.340977
0.343846
0.346846
0.34994
0.35321
0.356597
0.360223
0.364
0.368094
0.372384
0.377113
0.382072
0.387691
0.393469
0.400526
0.40738
0.416439
0.428251
0.443143
0.461575
0.484328
0.512076
0.547031
0.590364
0.642434
0.704726
0.777144
0.86208
0.959147
1.07175
1.19933
1.34171
1.50138
1.67113
1.86313
2.04993
2.25794
2.43302
2.62899
2.76113
2.91695
2.91565
2.82846
2.65962
2.45096
2.2123
1.88216
1.48796
1.19505
0.944506
0.790489
0.71647
0.670632
0.615631
0.547824
0.479455
0.428196
0.401807
0.384818
0.3714
0.360019
0.349258
0.338584
0.328468
0.31829
0.304789
1.24736
1.26435
1.2814
1.29883
1.31628
1.33432
1.35228
1.37116
1.38981
1.4098
1.42945
1.45078
1.47212
1.49489
1.51924
1.54326
1.5781
1.62336
1.68041
1.74759
1.82405
1.91017
2.0059
2.11171
2.22694
2.35109
2.48432
2.62601
2.77725
2.93605
3.1074
3.28983
3.48144
3.67243
3.86682
4.04488
4.21774
4.34676
4.45989
4.48536
4.44666
4.38208
4.16364
3.88284
3.37599
2.77632
2.22749
1.77739
1.48396
1.31974
1.23706
1.22475
1.26835
1.38039
1.46325
1.51101
1.49395
1.38232
1.21883
1.05365
0.966625
0.926562
0.889382
0.860647
0.838736
0.823141
0.81274
0.803813
0.771461
8.34216
8.33993
8.33688
8.33296
8.3282
8.32252
8.31594
8.30844
8.29995
8.29057
8.28007
8.26875
8.25617
8.24281
8.22816
8.21266
8.19546
8.17588
8.15482
8.13151
8.10242
8.07122
8.03802
8.00495
7.96169
7.92302
7.87883
7.83063
7.77762
7.71923
7.65503
7.58451
7.50733
7.42335
7.33276
7.23675
7.13759
7.03922
6.94891
6.87561
6.82243
6.78274
6.74512
6.7065
6.66697
6.62801
6.58923
6.55109
6.51351
6.47639
6.43959
6.4034
6.36795
6.33346
6.30004
6.26776
6.23672
6.2069
6.17818
6.15053
6.1244
6.09935
6.07516
6.05173
6.02903
6.00746
5.98807
5.97035
5.95364
0.0283915
0.0283923
0.0284096
0.0284249
0.0284592
0.0284918
0.0285108
0.0285153
0.0284903
0.0284688
0.0284588
0.0284648
0.0285379
0.0285784
0.0285879
0.0285412
0.028543
0.0285809
0.0285994
0.0285848
0.0285632
0.0285868
0.0285808
0.0285908
0.0285851
0.0285618
0.0285903
0.0285973
0.0285962
0.0286159
0.0286018
0.0286163
0.0286182
0.0286056
0.0286179
0.0285866
0.0286007
0.0286117
0.0286066
0.0286334
0.0285984
0.0286178
0.0286078
0.0285842
0.0285865
0.0285804
0.028568
0.0285446
0.0285401
0.028558
0.0285904
0.0286448
0.0286821
0.0286748
0.0286703
0.0286408
0.0286415
0.028647
0.0286592
0.0287296
0.0287467
0.0287657
0.0287784
0.0287865
0.0287739
0.0287664
0.0287454
0.0287362
0.02873
0.0287627
0.0288135
0.028843
0.028847
0.028808
0.0288019
0.028829
0.028849
0.0288524
0.0288217
0.0288193
0.0288313
0.0288256
0.028836
0.0288197
0.0288054
0.0288294
0.0288389
0.0288315
0.0288453
0.0288415
0.0288561
0.0288579
0.0288431
0.0288583
0.0288383
0.028839
0.0288588
0.0288597
0.0288783
0.0288618
0.0288729
0.0288701
0.028859
0.0288474
0.0288435
0.0288365
0.0288259
0.0288126
0.0288166
0.0288323
0.0288645
0.028912
0.0289442
0.0289732
0.0289822
0.0289842
0.0289872
0.0289886
0.0291147
0.0291091
0.029102
0.0290962
0.0290837
0.0290707
0.0290607
0.0290604
0.0290654
0.0291141
0.0291481
0.0291669
0.0291483
0.0291256
0.0291191
0.0291294
0.0291516
0.029162
0.0291364
0.0291165
0.0291223
0.0291295
0.0291293
0.0291308
0.0291119
0.0291064
0.0291264
0.0291397
0.0291254
0.0291318
0.0291343
0.0291456
0.0291465
0.0291307
0.0291446
0.0291345
0.0291285
0.0291475
0.029158
0.0291723
0.0291703
0.0291767
0.0291799
0.0291778
0.0291679
0.0291611
0.029156
0.0291504
0.0291511
0.0291509
0.0291579
0.0291697
0.0292005
0.0292339
0.0292703
0.0293026
0.0293258
0.0293448
0.0293575
0.029501
0.0294991
0.0294934
0.0294952
0.029471
0.0294683
0.0294775
0.0295031
0.0295391
0.0295558
0.029547
0.0295182
0.0295039
0.0294996
0.0295065
0.0295266
0.0295391
0.0295125
0.0294812
0.0294766
0.0294893
0.0294939
0.0294831
0.0294838
0.0294573
0.0294584
0.0294736
0.0294868
0.0294675
0.0294729
0.0294836
0.0294934
0.0294968
0.0294822
0.0294939
0.0294906
0.0294836
0.0294981
0.0295116
0.0295352
0.0295362
0.0295469
0.0295487
0.0295482
0.0295467
0.0295475
0.0295387
0.0295334
0.0295271
0.0295357
0.0295474
0.0295554
0.0295709
0.0295933
0.0296209
0.0296527
0.029683
0.0297125
0.0297374
0.0299609
0.0299665
0.0299601
0.0299747
0.0299679
0.0299898
0.030015
0.0300228
0.030002
0.0299832
0.0299744
0.0299582
0.0299603
0.0299597
0.0299703
0.0299825
0.0299476
0.0299201
0.0299002
0.0299095
0.0299188
0.0299134
0.0299103
0.0298992
0.0298767
0.0298839
0.0298973
0.0299102
0.0298856
0.0298864
0.029897
0.0299023
0.0299072
0.0298939
0.029906
0.0299071
0.0299022
0.029913
0.0299254
0.029958
0.0299688
0.029979
0.0299892
0.0300028
0.0300088
0.0300111
0.030011
0.0300136
0.0300148
0.0300193
0.0300271
0.0300338
0.0300421
0.0300548
0.0300712
0.0300932
0.0301169
0.0301442
0.0301702
0.030608
0.0306141
0.0306116
0.0305918
0.0305779
0.0305739
0.0305594
0.0305371
0.0305346
0.0305426
0.0305169
0.0305116
0.0305193
0.0305246
0.0305269
0.030479
0.0304546
0.0304231
0.0304242
0.0304286
0.0304314
0.0304342
0.0304076
0.0303912
0.0303687
0.0303769
0.0303857
0.0303948
0.0303667
0.0303695
0.0303869
0.0303913
0.0304005
0.0303894
0.0304012
0.0304018
0.0304008
0.0304086
0.0304159
0.0304513
0.0304748
0.0304878
0.0304984
0.0305177
0.0305371
0.0305507
0.0305577
0.0305635
0.0305702
0.0305779
0.0305872
0.0305969
0.0306062
0.0306173
0.0306289
0.0306446
0.0306608
0.0306819
0.0307027
0.0312396
0.031234
0.0312297
0.0312136
0.0312083
0.0312005
0.0312069
0.031214
0.0312055
0.0311711
0.0311567
0.03116
0.0311576
0.0311491
0.0310976
0.0310701
0.0310359
0.0310186
0.0310313
0.0310384
0.0310488
0.0310162
0.0309992
0.0309774
0.0309631
0.0309749
0.030982
0.0309896
0.0309571
0.0309549
0.0309674
0.0309665
0.0309766
0.0309674
0.0309787
0.0309863
0.0309872
0.0309984
0.0310012
0.0310347
0.0310706
0.0310949
0.0311087
0.0311274
0.0311535
0.0311799
0.0312005
0.0312156
0.0312286
0.0312412
0.031254
0.0312679
0.0312811
0.0312956
0.0313089
0.0313246
0.0313388
0.031357
0.0313744
0.0320981
0.032092
0.0320783
0.0320675
0.0320211
0.0320051
0.0319692
0.0319596
0.0319608
0.0319733
0.0319672
0.0319358
0.0318982
0.031852
0.0318184
0.0317873
0.0317588
0.03177
0.0317831
0.0317846
0.0317447
0.0317333
0.0316993
0.031674
0.0316611
0.0316663
0.0316689
0.0316696
0.0316343
0.0316359
0.0316571
0.0316562
0.0316705
0.0316646
0.0316733
0.0316847
0.0316863
0.031692
0.0316941
0.0317185
0.0317575
0.0317935
0.031816
0.0318347
0.0318596
0.0318903
0.0319215
0.0319491
0.031973
0.0319945
0.0320142
0.0320343
0.0320532
0.0320735
0.032092
0.0321126
0.0321306
0.0321515
0.0321708
0.0329517
0.0329383
0.0329334
0.0329209
0.0329056
0.0328889
0.0328659
0.0328554
0.0328462
0.0328381
0.0328237
0.0327938
0.0327447
0.0326913
0.0326615
0.0326289
0.0326381
0.0326498
0.0326276
0.0326064
0.032602
0.0325585
0.0325282
0.0325046
0.0324973
0.0325119
0.03251
0.0325105
0.0324704
0.032465
0.0324755
0.0324683
0.032481
0.0324779
0.032486
0.0325041
0.0325121
0.0325274
0.0325305
0.0325485
0.032586
0.0326316
0.0326688
0.0326963
0.0327228
0.0327533
0.0327879
0.0328236
0.0328576
0.0328898
0.0329191
0.0329475
0.0329738
0.0330008
0.0330256
0.0330521
0.033076
0.0331019
0.0331263
0.0339974
0.0339828
0.0339799
0.0339661
0.0339591
0.0339439
0.0339305
0.033914
0.0338967
0.0338732
0.0338433
0.0337997
0.0337463
0.0337004
0.0336856
0.0336927
0.0337146
0.0336738
0.0336643
0.0336454
0.0336115
0.0335587
0.0335217
0.0334967
0.0334975
0.0334831
0.0334819
0.03347
0.0334268
0.0334272
0.0334503
0.0334452
0.0334637
0.0334626
0.0334671
0.0334846
0.0334923
0.0335091
0.0335126
0.0335218
0.0335487
0.0335924
0.0336384
0.0336774
0.0337112
0.033744
0.0337792
0.0338174
0.0338567
0.0338968
0.0339352
0.0339732
0.0340088
0.0340445
0.0340778
0.0341121
0.0341436
0.0341766
0.0342085
0.0352892
0.0352723
0.035268
0.0352494
0.0352391
0.0352166
0.0351966
0.0351666
0.0351356
0.0350963
0.0350548
0.0350087
0.0349707
0.0349558
0.0349695
0.0349369
0.0349054
0.0348863
0.0348644
0.0348324
0.0347768
0.0347312
0.0347034
0.0346842
0.0346754
0.034688
0.0346723
0.0346645
0.0346196
0.0346087
0.0346136
0.0345999
0.0346157
0.0346169
0.0346224
0.0346456
0.0346617
0.0346886
0.0347048
0.0347183
0.0347416
0.0347818
0.0348324
0.034883
0.0349294
0.0349716
0.0350121
0.0350534
0.0350955
0.0351394
0.035183
0.0352273
0.0352699
0.0353129
0.0353534
0.0353946
0.0354331
0.0354722
0.0355109
0.03681
0.03679
0.036784
0.0367594
0.0367441
0.0367137
0.0366872
0.0366492
0.0366134
0.0365716
0.0365342
0.036499
0.0364764
0.0364665
0.0364613
0.0364308
0.0363954
0.0363768
0.0363344
0.0362836
0.0362229
0.0361752
0.036131
0.0361045
0.036121
0.0360755
0.0360637
0.0360377
0.0359836
0.0359806
0.0360048
0.035996
0.0360159
0.0360203
0.0360218
0.0360396
0.0360514
0.0360748
0.0360935
0.0361073
0.0361244
0.0361548
0.0361996
0.0362522
0.0363067
0.0363597
0.0364101
0.0364593
0.0365076
0.0365568
0.0366057
0.0366559
0.0367051
0.0367552
0.0368034
0.0368524
0.036899
0.0369459
0.0369928
0.0386592
0.0386301
0.0386165
0.0385806
0.0385562
0.0385147
0.0384803
0.0384348
0.0383955
0.0383521
0.0383167
0.0382839
0.0382605
0.0382394
0.0382145
0.0381749
0.038134
0.0380981
0.0380374
0.0379718
0.037909
0.0378568
0.0378305
0.037836
0.0377899
0.0377973
0.0377743
0.0377527
0.0377046
0.0376851
0.03768
0.0376598
0.0376729
0.0376805
0.0376868
0.0377121
0.0377347
0.0377687
0.037803
0.0378322
0.0378585
0.0378902
0.037933
0.0379856
0.0380446
0.0381061
0.0381672
0.0382272
0.0382853
0.0383428
0.038399
0.0384555
0.0385108
0.0385667
0.038621
0.0386759
0.0387289
0.0387816
0.0388352
0.0408199
0.040786
0.0407719
0.0407321
0.0407083
0.040666
0.0406353
0.0405932
0.0405611
0.0405243
0.0404966
0.040468
0.0404445
0.0404162
0.0403815
0.040335
0.0402836
0.0402253
0.0401478
0.0400725
0.0400135
0.0399671
0.0399333
0.0398846
0.0399007
0.0398338
0.0397934
0.0397526
0.039681
0.0396695
0.0396937
0.0396815
0.0396962
0.0397054
0.0397073
0.0397233
0.0397369
0.0397611
0.0397917
0.0398231
0.0398524
0.0398838
0.0399229
0.0399715
0.0400291
0.0400933
0.0401613
0.0402311
0.0403008
0.0403704
0.0404387
0.0405068
0.0405733
0.0406399
0.0407047
0.0407696
0.0408328
0.0408949
0.0409589
0.0434949
0.0434551
0.0434392
0.0433938
0.0433684
0.0433217
0.0432897
0.0432437
0.043209
0.0431656
0.0431299
0.0430875
0.0430465
0.0429959
0.0429389
0.0428711
0.0427984
0.0427193
0.0426347
0.0425598
0.0424995
0.042434
0.0423892
0.0424257
0.0423288
0.0423064
0.0422914
0.0422508
0.0422012
0.0421699
0.0421498
0.0421222
0.0421265
0.0421385
0.0421501
0.0421793
0.0422097
0.0422482
0.0422938
0.0423425
0.0423894
0.0424346
0.0424821
0.0425346
0.0425938
0.0426595
0.0427307
0.0428059
0.0428834
0.0429623
0.0430412
0.0431203
0.0431983
0.043276
0.0433521
0.0434275
0.0435015
0.0435733
0.0436479
0.0466817
0.0466419
0.0466329
0.0465887
0.0465705
0.0465261
0.0465002
0.0464561
0.0464243
0.0463795
0.0463411
0.046291
0.0462405
0.0461771
0.0461074
0.0460268
0.0459411
0.0458509
0.0457603
0.0456784
0.0456023
0.0455481
0.045582
0.0454333
0.0454392
0.0453779
0.0452917
0.0452294
0.0451288
0.0450974
0.0451185
0.0451048
0.0451074
0.0451159
0.0451192
0.0451336
0.0451498
0.0451742
0.0452091
0.0452542
0.0453047
0.0453577
0.0454137
0.0454736
0.045539
0.04561
0.0456869
0.0457686
0.0458545
0.0459432
0.0460338
0.0461256
0.0462176
0.0463096
0.046401
0.0464913
0.046581
0.0466674
0.0467584
0.0507217
0.0506749
0.0506665
0.0506217
0.0505951
0.0505422
0.0505068
0.0504462
0.0504007
0.0503323
0.0502707
0.0501917
0.0501117
0.0500173
0.0499201
0.0498139
0.0497088
0.0496013
0.0494981
0.0493991
0.0493374
0.0493496
0.0491786
0.0492106
0.0491182
0.0490107
0.0489999
0.0489414
0.0488917
0.0488477
0.0488069
0.0487663
0.0487566
0.0487672
0.0487864
0.0488246
0.0488689
0.0489186
0.0489732
0.0490346
0.0491011
0.0491698
0.0492408
0.0493138
0.0493904
0.0494704
0.0495552
0.0496439
0.049737
0.0498331
0.0499322
0.0500331
0.0501356
0.0502383
0.0503418
0.0504438
0.0505467
0.050645
0.0507501
0.0555515
0.0555569
0.0556014
0.0553871
0.055422
0.0553451
0.0553179
0.0552586
0.0551979
0.0551221
0.0550527
0.0549605
0.0548745
0.0547718
0.0546685
0.0545565
0.0544393
0.0543231
0.0542165
0.054166
0.0541677
0.0540124
0.0540288
0.0538548
0.0537594
0.0537304
0.053604
0.0535057
0.0533564
0.0532804
0.0532909
0.0532827
0.0532701
0.0532665
0.0532658