/*--------------------------------*- C++ -*----------------------------------*\
| =========                 |                                                 |
| \\      /  F ield         | OpenFOAM: The Open Source CFD Toolbox           |
|  \\    /   O peration     | Version:  2312                                  |
|   \\  /    A nd           | Website:  www.openfoam.com                      |
|    \\/     M anipulation  |                                                 |
\*---------------------------------------------------------------------------*/
FoamFile
{
    version     2.0;
    format      ascii;
    arch        "LSB;label=32;scalar=64";
    class       volScalarField;
    location    "300";
    object      p;
}
// * * * * * * * * * * * * * * * * * * * * * * * * * * * * * * * * * * * * * //

dimensions      [0 2 -2 0 0 0 0];

internalField   nonuniform List<scalar> 
76025
(
0.000299876
0.000293032
0.000286027
0.000279019
0.000271928
0.000264807
0.000257286
0.000250009
0.000242493
0.000235022
0.000227417
0.000219707
0.000211897
0.000204069
0.000196169
0.000188194
0.000180337
0.000172247
0.000164219
0.000156241
0.000148263
0.000140037
0.000131879
0.000123805
0.000115672
0.000107635
9.95185e-05
9.12123e-05
8.32408e-05
7.49336e-05
6.70882e-05
5.90538e-05
5.10444e-05
4.30374e-05
3.51879e-05
2.73705e-05
1.96989e-05
1.17659e-05
3.93965e-06
-3.70489e-06
-1.11656e-05
-1.85952e-05
-2.62309e-05
-3.37655e-05
-4.09017e-05
-4.81553e-05
-5.53501e-05
-6.26315e-05
-6.94513e-05
-7.63348e-05
-8.31142e-05
-8.97124e-05
-9.63163e-05
-0.000102795
-0.000108978
-0.00011501
-0.000120986
-0.000126968
-0.000132713
-0.000138138
-0.000143017
-0.000148267
-0.000153053
-0.000157203
-0.000160988
-0.00016504
-0.000168091
-0.000169925
-0.00017246
0.000302356
0.000295157
0.000287891
0.000280582
0.000273177
0.000265624
0.000258019
0.000250355
0.000242571
0.00023471
0.000226757
0.000218752
0.000210702
0.000202589
0.000194436
0.000186277
0.00017802
0.000169784
0.000161466
0.000153209
0.000144855
0.000136522
0.000128208
0.000119912
0.000111588
0.000103253
9.49111e-05
8.6673e-05
7.84572e-05
7.02398e-05
6.21242e-05
5.38881e-05
4.57209e-05
3.76849e-05
2.96338e-05
2.16735e-05
1.3702e-05
5.81675e-06
-1.92439e-06
-9.64138e-06
-1.72504e-05
-2.4853e-05
-3.23481e-05
-3.96828e-05
-4.69722e-05
-5.42086e-05
-6.13829e-05
-6.84078e-05
-7.53148e-05
-8.21561e-05
-8.88984e-05
-9.54792e-05
-0.00010192
-0.000108197
-0.000114268
-0.000120214
-0.000126039
-0.000131658
-0.000137056
-0.000142147
-0.000146886
-0.000151577
-0.000155868
-0.000159622
-0.000162974
-0.000166062
-0.000168564
-0.00016997
-0.000171663
0.000305009
0.000297493
0.00028989
0.00028223
0.000274473
0.00026663
0.0002587
0.000250674
0.000242564
0.000234373
0.000226117
0.000217813
0.000209458
0.000201058
0.000192627
0.000184142
0.000175628
0.000167091
0.000158539
0.000149968
0.000141396
0.000132841
0.000124291
0.000115746
0.000107206
9.86802e-05
9.02029e-05
8.17675e-05
7.33511e-05
6.49719e-05
5.66215e-05
4.82927e-05
4.00307e-05
3.1845e-05
2.37122e-05
1.56517e-05
7.65886e-06
-2.43314e-07
-8.07123e-06
-1.5836e-05
-2.35094e-05
-3.10962e-05
-3.85828e-05
-4.59848e-05
-5.33099e-05
-6.05326e-05
-6.76538e-05
-7.46629e-05
-8.15615e-05
-8.8332e-05
-9.49704e-05
-0.000101455
-0.00010778
-0.000113938
-0.000119903
-0.000125677
-0.000131252
-0.000136608
-0.000141723
-0.000146543
-0.000151034
-0.000155236
-0.000159042
-0.00016235
-0.000165183
-0.000167531
-0.000169333
-0.000170111
-0.000170973
0.000307508
0.000299638
0.00029167
0.000283652
0.000275551
0.000267353
0.00025906
0.000250682
0.00024223
0.000233713
0.000225137
0.000216507
0.000207828
0.000199106
0.00019035
0.000181563
0.000172757
0.000163937
0.00015511
0.000146283
0.000137462
0.000128653
0.000119857
0.000111082
0.000102335
9.36205e-05
8.4945e-05
7.63091e-05
6.77164e-05
5.91719e-05
5.06785e-05
4.22379e-05
3.38582e-05
2.55592e-05
1.7342e-05
9.20417e-06
1.14608e-06
-6.8307e-06
-1.47231e-05
-2.25252e-05
-3.02304e-05
-3.78381e-05
-4.53503e-05
-5.27639e-05
-6.00728e-05
-6.72716e-05
-7.43605e-05
-8.13316e-05
-8.81737e-05
-9.48765e-05
-0.000101434
-0.000107832
-0.000114054
-0.000120086
-0.000125909
-0.000131508
-0.000136876
-0.000142
-0.000146851
-0.000151386
-0.000155562
-0.000159356
-0.000162712
-0.00016555
-0.000167852
-0.000169552
-0.000170669
-0.000170669
-0.000170553
0.000309758
0.000301511
0.000293166
0.000284775
0.000276305
0.000267737
0.000259077
0.000250338
0.00024153
0.00023266
0.000223736
0.000214762
0.000205747
0.000196698
0.000187623
0.00017853
0.000169425
0.000160316
0.00015121
0.000142113
0.000133031
0.000123972
0.00011494
0.000105943
9.69845e-05
8.80698e-05
7.92032e-05
7.03907e-05
6.16363e-05
5.29421e-05
4.43102e-05
3.57417e-05
2.72497e-05
1.8852e-05
1.05476e-05
2.33105e-06
-5.7969e-06
-1.38322e-05
-2.17696e-05
-2.96059e-05
-3.73391e-05
-4.49673e-05
-5.2489e-05
-5.99007e-05
-6.71993e-05
-7.43809e-05
-8.14405e-05
-8.83702e-05
-9.51609e-05
-0.000101803
-0.000108286
-0.000114595
-0.000120714
-0.000126626
-0.000132309
-0.000137746
-0.000142924
-0.000147832
-0.00015244
-0.000156701
-0.000160564
-0.000163983
-0.000166908
-0.000169274
-0.00017105
-0.000172134
-0.000172574
-0.000171757
-0.000170887
0.000311793
0.000303145
0.000294404
0.00028562
0.00027676
0.000267806
0.000258763
0.000249644
0.000240461
0.000231223
0.000221935
0.000212606
0.000203244
0.000193858
0.000184454
0.000175042
0.000165627
0.000156219
0.000146824
0.000137449
0.000128102
0.00011879
0.000109519
0.000100294
9.11202e-05
8.20037e-05
7.2949e-05
6.39608e-05
5.50423e-05
4.61961e-05
3.74247e-05
2.87321e-05
2.01345e-05
1.16431e-05
3.25415e-06
-5.03607e-06
-1.32259e-05
-2.13112e-05
-2.92885e-05
-3.71554e-05
-4.49102e-05
-5.25509e-05
-6.00755e-05
-6.74818e-05
-7.47661e-05
-8.1924e-05
-8.89497e-05
-9.58363e-05
-0.000102575
-0.000109156
-0.000115566
-0.000121791
-0.000127814
-0.000133614
-0.000139167
-0.000144453
-0.00014946
-0.000154173
-0.000158557
-0.000162559
-0.000166118
-0.00016918
-0.000171694
-0.000173598
-0.000174852
-0.000175336
-0.000175117
-0.000173581
-0.000172475
0.00031357
0.000304497
0.000295334
0.000286133
0.000276861
0.000267498
0.000258051
0.000248533
0.000238957
0.000229332
0.000219666
0.000209967
0.000200244
0.000190504
0.000180758
0.000171013
0.000161278
0.000151561
0.000141869
0.000132212
0.000122595
0.000113026
0.000103511
9.40569e-05
8.46687e-05
7.53517e-05
6.61107e-05
5.69497e-05
4.78722e-05
3.88814e-05
2.99793e-05
2.11728e-05
1.24783e-05
3.90109e-06
-4.5638e-06
-1.29187e-05
-2.11616e-05
-2.9289e-05
-3.72983e-05
-4.51878e-05
-5.29562e-05
-6.06021e-05
-6.81238e-05
-7.5519e-05
-8.27843e-05
-8.99152e-05
-9.69063e-05
-0.000103751
-0.00011044
-0.000116963
-0.000123306
-0.000129455
-0.00013539
-0.000141089
-0.000146525
-0.000151677
-0.000156533
-0.000161075
-0.000165259
-0.00016902
-0.000172293
-0.000175017
-0.000177136
-0.000178584
-0.000179311
-0.000179191
-0.000178327
-0.000176294
-0.000175488
0.000315023
0.0003055
0.00029589
0.000286248
0.000276538
0.000266743
0.000256869
0.000246931
0.000236942
0.000226912
0.000216849
0.000206764
0.000196663
0.000186558
0.000176457
0.00016637
0.000156305
0.000146272
0.000136278
0.000126333
0.000116443
0.000106615
9.68576e-05
8.71757e-05
7.75753e-05
6.80616e-05
5.86391e-05
4.93117e-05
4.0083e-05
3.09559e-05
2.19318e-05
1.30207e-05
4.2378e-06
-4.41701e-06
-1.2949e-05
-2.13596e-05
-2.96465e-05
-3.7807e-05
-4.58395e-05
-5.3743e-05
-6.1517e-05
-6.91607e-05
-7.66728e-05
-8.40513e-05
-9.12931e-05
-9.83942e-05
-0.000105349
-0.000112152
-0.000118793
-0.000125263
-0.000131546
-0.000137627
-0.000143485
-0.000149096
-0.000154432
-0.000159472
-0.000164205
-0.000168603
-0.000172611
-0.000176156
-0.000179166
-0.000181572
-0.000183308
-0.000184291
-0.000184464
-0.000183708
-0.000182229
-0.00017994
-0.000178912
0.000316088
0.000306089
0.000296008
0.000285899
0.000275728
0.000265476
0.000255152
0.00024477
0.000234347
0.000223891
0.000213414
0.000202924
0.000192432
0.000181947
0.00017148
0.00016104
0.000150637
0.000140281
0.00012998
0.000119743
0.000109577
9.9491e-05
8.94911e-05
7.95839e-05
6.9775e-05
6.00695e-05
5.04718e-05
4.09855e-05
3.16138e-05
2.23592e-05
1.32237e-05
4.21997e-06
-4.64094e-06
-1.33628e-05
-2.19509e-05
-3.04055e-05
-3.87248e-05
-4.69072e-05
-5.4952e-05
-6.28595e-05
-7.06297e-05
-7.82627e-05
-8.57577e-05
-9.31133e-05
-0.000100327
-0.000107395
-0.000114313
-0.000121075
-0.000127672
-0.000134092
-0.000140323
-0.000146347
-0.000152141
-0.000157681
-0.000162938
-0.000167894
-0.000172534
-0.000176821
-0.000180686
-0.000184046
-0.000186822
-0.000188934
-0.000190294
-0.000190799
-0.000190376
-0.00018892
-0.00018682
-0.000184354
-0.000184389
0.000316691
0.00030619
0.00029561
0.000285008
0.00027435
0.000263618
0.000252819
0.000241971
0.00023109
0.000220189
0.000209277
0.000198366
0.000187465
0.000176586
0.00016574
0.000154937
0.000144187
0.000133501
0.000122887
0.000112355
0.000101913
9.15687e-05
8.13291e-05
7.12007e-05
6.1189e-05
5.1299e-05
4.15347e-05
3.18994e-05
2.23958e-05
1.30253e-05
3.79231e-06
-5.28949e-06
-1.42153e-05
-2.29912e-05
-3.16216e-05
-4.01065e-05
-4.84447e-05
-5.66359e-05
-6.46809e-05
-7.25807e-05
-8.03366e-05
-8.79493e-05
-9.54188e-05
-0.000102744
-0.000109925
-0.000116956
-0.000123836
-0.000130556
-0.000137111
-0.000143489
-0.000149675
-0.000155653
-0.000161401
-0.00016689
-0.000172095
-0.000177001
-0.000181588
-0.000185802
-0.000189561
-0.000192775
-0.000195355
-0.000197201
-0.000198209
-0.000198246
-0.000197243
-0.0001951
-0.00019236
-0.000189295
-0.000188462
0.000316744
0.00030571
0.000294603
0.000283481
0.000272308
0.000261069
0.00024977
0.000238433
0.000227072
0.000215704
0.000204338
0.000192986
0.000181661
0.000170373
0.000159135
0.000147958
0.000136853
0.000125831
0.000114901
0.000104072
9.3354e-05
8.27539e-05
7.22792e-05
6.1936e-05
5.17298e-05
4.16652e-05
3.17457e-05
2.19742e-05
1.23527e-05
2.88169e-06
-6.43164e-06
-1.55752e-05
-2.45503e-05
-3.33642e-05
-4.20204e-05
-5.0519e-05
-5.886e-05
-6.70448e-05
-7.50752e-05
-8.29538e-05
-9.06827e-05
-9.82635e-05
-0.000105697
-0.000112984
-0.000120124
-0.000127114
-0.000133952
-0.000140632
-0.000147147
-0.000153488
-0.00015964
-0.000165587
-0.000171306
-0.000176769
-0.000181956
-0.000186854
-0.000191432
-0.000195616
-0.000199315
-0.000202431
-0.000204861
-0.000206488
-0.000207199
-0.000206862
-0.000205448
-0.000202868
-0.00019978
-0.000196128
-0.000194279
0.000316146
0.000304547
0.000292881
0.000281208
0.000269492
0.000257717
0.000245893
0.00023404
0.000222178
0.00021032
0.000198479
0.00018667
0.000174903
0.000163192
0.000151551
0.00013999
0.000128523
0.000117159
0.00010591
9.47846e-05
8.37925e-05
7.29414e-05
6.22384e-05
5.16895e-05
4.12999e-05
3.10736e-05
2.10137e-05
1.11221e-05
1.39994e-06
-8.15224e-06
-1.75249e-05
-2.67109e-05
-3.57164e-05
-4.45486e-05
-5.32105e-05
-6.1703e-05
-7.00278e-05
-7.81877e-05
-8.61863e-05
-9.40272e-05
-0.000101714
-0.000109249
-0.000116634
-0.000123872
-0.000130962
-0.000137904
-0.000144697
-0.000151335
-0.000157814
-0.000164124
-0.000170253
-0.000176185
-0.000181897
-0.000187364
-0.000192576
-0.000197516
-0.000202132
-0.000206335
-0.000210027
-0.000213102
-0.00021544
-0.00021693
-0.00021747
-0.000216985
-0.000215482
-0.000212985
-0.000210381
-0.000206334
-0.000200679
0.000314782
0.000302582
0.000290323
0.000278065
0.000265775
0.000253435
0.000241057
0.000228663
0.000216272
0.000203902
0.000191567
0.000179281
0.000167057
0.000154909
0.000142853
0.0001309
0.000119064
0.000107355
9.57865e-05
8.43669e-05
7.31056e-05
6.20109e-05
5.10896e-05
4.03474e-05
2.97891e-05
1.94179e-05
9.23612e-06
-7.5519e-07
-1.05565e-05
-2.01656e-05
-2.95728e-05
-3.87782e-05
-4.77906e-05
-5.66169e-05
-6.526e-05
-7.37226e-05
-8.2008e-05
-9.01211e-05
-9.80669e-05
-0.00010585
-0.000113476
-0.000120949
-0.000128271
-0.000135446
-0.000142477
-0.000149363
-0.000156105
-0.0001627
-0.000169144
-0.000175431
-0.00018155
-0.000187484
-0.000193213
-0.000198723
-0.000204012
-0.000209043
-0.000213742
-0.000218013
-0.000221758
-0.000224858
-0.000227201
-0.000228718
-0.000229351
-0.000229073
-0.000227847
-0.000225869
-0.000223524
-0.000219123
-0.000215927
0.000312515
0.000299675
0.000286786
0.00027391
0.000261011
0.000248073
0.000235111
0.000222147
0.000209203
0.000196297
0.000183446
0.000170664
0.000157967
0.00014537
0.000132888
0.000120535
0.000108326
9.62725e-05
8.43859e-05
7.2677e-05
6.1155e-05
4.9828e-05
3.87027e-05
2.77843e-05
1.70769e-05
6.58279e-06
-3.69685e-06
-1.37621e-05
-2.3615e-05
-3.32509e-05
-4.26639e-05
-5.18607e-05
-6.08514e-05
-6.96425e-05
-7.8238e-05
-8.66425e-05
-9.48617e-05
-0.000102902
-0.000110771
-0.000118474
-0.000126017
-0.000133407
-0.000140649
-0.000147746
-0.000154703
-0.000161523
-0.000168207
-0.000174757
-0.000181169
-0.00018744
-0.000193559
-0.000199512
-0.000205291
-0.000210897
-0.00021631
-0.000221471
-0.000226292
-0.000230683
-0.000234544
-0.000237779
-0.000240331
-0.00024218
-0.00024331
-0.000243618
-0.000242983
-0.000241467
-0.000238166
-0.000232758
-0.000227343
0.000309183
0.000295663
0.000282105
0.000268571
0.000255027
0.000241457
0.000227878
0.000214314
0.000200788
0.000187322
0.000173932
0.000160636
0.000147449
0.000134389
0.000121473
0.000108716
9.61314e-05
8.37337e-05
7.15347e-05
5.95454e-05
4.77751e-05
3.62318e-05
2.49218e-05
1.38496e-05
3.01838e-06
-7.57075e-06
-1.7918e-05
-2.80255e-05
-3.78949e-05
-4.75209e-05
-5.6905e-05
-6.60582e-05
-7.49911e-05
-8.37107e-05
-9.22232e-05
-0.000100535
-0.000108656
-0.000116593
-0.000124355
-0.00013195
-0.000139386
-0.00014667
-0.000153809
-0.00016081
-0.000167678
-0.000174419
-0.000181037
-0.000187536
-0.000193916
-0.000200174
-0.000206302
-0.000212298
-0.000218175
-0.000223921
-0.000229483
-0.000234796
-0.00023978
-0.000244362
-0.000248479
-0.00025208
-0.000255171
-0.00025778
-0.000259765
-0.000260784
-0.000260643
-0.000258866
-0.000254843
-0.000249165
-0.000240914
0.0003046
0.000290354
0.000276083
0.000261851
0.000247624
0.000233386
0.000219155
0.000204959
0.000190823
0.00017677
0.000162819
0.000148989
0.000135298
0.000121764
0.000108406
9.52406e-05
8.22824e-05
6.95463e-05
5.70448e-05
4.47894e-05
3.27894e-05
2.10524e-05
9.58434e-06
-1.61125e-06
-1.25326e-05
-2.318e-05
-3.35555e-05
-4.36637e-05
-5.3505e-05
-6.30778e-05
-7.23912e-05
-8.14589e-05
-9.0292e-05
-9.88988e-05
-0.000107288
-0.00011547
-0.000123455
-0.000131254
-0.000138876
-0.000146333
-0.000153632
-0.000160783
-0.000167795
-0.000174677
-0.000181436
-0.000188083
-0.000194623
-0.000201062
-0.000207402
-0.000213644
-0.000219797
-0.000225882
-0.000231888
-0.000237775
-0.000243483
-0.000248977
-0.000254228
-0.00025918
-0.00026379
-0.000268106
-0.000272197
-0.000275881
-0.000278621
-0.000279953
-0.000279611
-0.000277079
-0.000272423
-0.000266138
-0.000259008
0.000298535
0.000283516
0.000268485
0.00025351
0.000238556
0.000223609
0.000208689
0.000193826
0.000179048
0.00016438
0.000149844
0.00013546
0.000121248
0.000107229
9.34229e-05
7.98469e-05
6.65181e-05
5.34517e-05
4.06613e-05
2.81584e-05
1.59523e-05
4.05027e-06
-7.54278e-06
-1.88244e-05
-2.97946e-05
-4.04555e-05
-5.0812e-05
-6.08694e-05
-7.0628e-05
-8.00936e-05
-8.92817e-05
-9.8208e-05
-0.000106885
-0.000115325
-0.000123539
-0.000131541
-0.000139344
-0.000146961
-0.000154403
-0.000161683
-0.00016881
-0.000175796
-0.000182651
-0.000189388
-0.000196016
-0.000202546
-0.000208987
-0.000215344
-0.00022163
-0.000227871
-0.000234084
-0.000240261
-0.000246363
-0.000252364
-0.000258265
-0.000264086
-0.000269777
-0.000275313
-0.000280816
-0.00028633
-0.000291616
-0.000296026
-0.000298864
-0.000299917
-0.000298771
-0.000295142
-0.000289393
-0.000282337
-0.000275123
0.000290735
0.000274889
0.00025905
0.000243285
0.00022756
0.000211862
0.000196215
0.00018065
0.000165199
0.000149889
0.000134745
0.00011979
0.000105045
9.05331e-05
7.62764e-05
6.22944e-05
4.86053e-05
3.52255e-05
2.2169e-05
9.44785e-06
-2.92881e-06
-1.49543e-05
-2.66249e-05
-3.79398e-05
-4.89011e-05
-5.95138e-05
-6.97864e-05
-7.97253e-05
-8.93355e-05
-9.8632e-05
-0.000107634
-0.00011636
-0.000124824
-0.000133041
-0.000141028
-0.000148802
-0.000156377
-0.000163768
-0.000170989
-0.000178052
-0.00018497
-0.000191755
-0.000198421
-0.000204979
-0.000211443
-0.000217821
-0.000224128
-0.000230392
-0.000236642
-0.000242892
-0.000249122
-0.000255318
-0.0002615
-0.00026771
-0.000273968
-0.000280241
-0.000286586
-0.000293172
-0.000299965
-0.000306619
-0.000312464
-0.000316723
-0.000319165
-0.000319381
-0.000316896
-0.000311989
-0.000305309
-0.000297966
-0.000291328
0.000280847
0.000264114
0.000247407
0.000230797
0.000214247
0.000197748
0.000181326
0.000165016
0.000148853
0.000132868
0.000117087
0.000101535
8.62397e-05
7.12242e-05
5.65126e-05
4.21268e-05
2.80869e-05
1.44102e-05
1.11176e-06
-1.17962e-05
-2.43047e-05
-3.6408e-05
-4.8104e-05
-5.93939e-05
-7.02826e-05
-8.07784e-05
-9.08906e-05
-0.000100627
-0.000110001
-0.000119037
-0.000127759
-0.000136189
-0.000144346
-0.000152253
-0.000159931
-0.000167399
-0.000174677
-0.000181779
-0.000188722
-0.000195516
-0.000202176
-0.000208714
-0.000215142
-0.000221471
-0.000227718
-0.000233912
-0.000240087
-0.000246265
-0.00025244
-0.000258603
-0.000264782
-0.000271039
-0.000277426
-0.000283943
-0.000290628
-0.000297651
-0.000305124
-0.000312911
-0.000320581
-0.00032744
-0.000332847
-0.000336563
-0.000337976
-0.000336637
-0.000332817
-0.000327
-0.000320028
-0.000313175
-0.000307748
0.000268582
0.000250904
0.000233277
0.00021577
0.000198349
0.000181006
0.000163769
0.000146679
0.000129774
0.000113087
9.66504e-05
8.04918e-05
6.46401e-05
4.91231e-05
3.39673e-05
1.91973e-05
4.83494e-06
-9.10058e-06
-2.25932e-05
-3.56304e-05
-4.82032e-05
-6.03071e-05
-7.19417e-05
-8.31113e-05
-9.38251e-05
-0.000104099
-0.000113946
-0.000123383
-0.000132434
-0.000141128
-0.000149493
-0.000157556
-0.000165342
-0.000172878
-0.000180191
-0.000187304
-0.000194237
-0.000201005
-0.000207625
-0.000214105
-0.00022046
-0.000226696
-0.000232829
-0.000238887
-0.000244904
-0.000250909
-0.000256904
-0.000262886
-0.00026889
-0.000274973
-0.000281193
-0.000287575
-0.000294165
-0.000301119
-0.000308611
-0.000316633
-0.000324949
-0.000333129
-0.000340508
-0.000346664
-0.000351308
-0.000353649
-0.000353355
-0.000350742
-0.000346064
-0.000339981
-0.000333526
-0.000327729
-0.000323623
0.000253245
0.000234538
0.000215903
0.000197419
0.00017905
0.00016079
0.000142671
0.000124739
0.000107035
8.95977e-05
7.24621e-05
5.56609e-05
3.92262e-05
2.31897e-05
7.58101e-06
-7.57224e-06
-2.22456e-05
-3.6418e-05
-5.00721e-05
-6.31949e-05
-7.57781e-05
-8.78184e-05
-9.93175e-05
-0.000110282
-0.000120723
-0.000130654
-0.000140093
-0.000149071
-0.000157624
-0.000165792
-0.000173614
-0.000181127
-0.00018837
-0.000195378
-0.000202185
-0.000208817
-0.000215294
-0.000221631
-0.000227838
-0.00023392
-0.00023989
-0.000245776
-0.000251604
-0.000257387
-0.000263122
-0.000268822
-0.000274519
-0.000280265
-0.000286132
-0.000292168
-0.000298408
-0.000304977
-0.000312027
-0.000319616
-0.000327645
-0.000335885
-0.000343897
-0.000351252
-0.000357688
-0.000362668
-0.000365552
-0.000366248
-0.000364874
-0.000361468
-0.000356593
-0.000351079
-0.000345679
-0.000341133
-0.00033825
0.000234876
0.000215085
0.000195405
0.000175905
0.000156549
0.000137336
0.000118305
9.95044e-05
8.09822e-05
6.27821e-05
4.49439e-05
2.75053e-05
1.05035e-05
-6.02552e-06
-2.20473e-05
-3.75305e-05
-5.24469e-05
-6.67726e-05
-8.04881e-05
-9.35795e-05
-0.000106039
-0.000117865
-0.000129065
-0.000139655
-0.00014966
-0.000159104
-0.000168016
-0.000176435
-0.000184406
-0.000191975
-0.000199191
-0.000206102
-0.000212756
-0.000219197
-0.000225463
-0.000231584
-0.000237578
-0.000243456
-0.000249222
-0.000254893
-0.000260483
-0.000266013
-0.000271494
-0.000276927
-0.000282322
-0.000287715
-0.000293149
-0.000298664
-0.000304338
-0.000310305
-0.00031668
-0.000323509
-0.000330717
-0.000338176
-0.000345626
-0.000352779
-0.000359484
-0.000365499
-0.000370214
-0.000373328
-0.000374925
-0.000374714
-0.000372578
-0.000369039
-0.000364738
-0.000360258
-0.000356165
-0.000352889
-0.000350957
0.000211397
0.00019039
0.000169506
0.000148848
0.000128378
0.000108093
8.80344e-05
6.82584e-05
4.88188e-05
2.97648e-05
1.11421e-05
-7.00564e-06
-2.46357e-05
-4.17062e-05
-5.81775e-05
-7.40131e-05
-8.91806e-05
-0.000103652
-0.000117406
-0.000130425
-0.000142699
-0.000154224
-0.000165004
-0.000175048
-0.000184378
-0.000193036
-0.000201073
-0.000208551
-0.000215538
-0.000222101
-0.000228309
-0.000234231
-0.000239932
-0.000245475
-0.000250913
-0.000256288
-0.000261624
-0.000266927
-0.000272188
-0.000277394
-0.000282517
-0.000287551
-0.000292531
-0.000297505
-0.000302531
-0.000307658
-0.000312926
-0.000318351
-0.000323923
-0.00032963
-0.000335518
-0.000341674
-0.000348002
-0.000354195
-0.000359991
-0.000365328
-0.000370047
-0.000374032
-0.000377335
-0.000379589
-0.000380256
-0.000379297
-0.000377091
-0.000374057
-0.000370613
-0.000367279
-0.000364523
-0.000362554
-0.000361631
0.000185149
0.000162884
0.000140823
0.000119015
9.74243e-05
7.60606e-05
5.49761e-05
3.42336e-05
1.38941e-05
-5.98559e-06
-2.53525e-05
-4.41553e-05
-6.23438e-05
-7.98684e-05
-9.66818e-05
-0.00011274
-0.000128005
-0.000142444
-0.000156035
-0.000168763
-0.000180623
-0.000191623
-0.000201782
-0.000211122
-0.000219669
-0.000227468
-0.000234582
-0.000241088
-0.000247076
-0.000252643
-0.000257881
-0.000262878
-0.000267711
-0.000272465
-0.000277214
-0.000282005
-0.000286849
-0.000291733
-0.000296624
-0.000301469
-0.000306224
-0.000310859
-0.00031537
-0.000319782
-0.000324189
-0.00032873
-0.000333542
-0.000338664
-0.000343903
-0.00034883
-0.000353183
-0.000357214
-0.000361393
-0.000365563
-0.00036915
-0.000372229
-0.000375387
-0.000378534
-0.000380959
-0.00038213
-0.00038214
-0.000381139
-0.000379253
-0.000376772
-0.000374186
-0.000372005
-0.00037056
-0.00036991
-0.000370197
0.000148393
0.000124683
0.000101118
7.78896e-05
5.49486e-05
3.22849e-05
9.95408e-06
-1.19697e-05
-3.34156e-05
-5.43181e-05
-7.46151e-05
-9.42462e-05
-0.000113152
-0.000131274
-0.000148554
-0.000164936
-0.000180368
-0.000194801
-0.000208196
-0.000220526
-0.000231771
-0.000241925
-0.000251007
-0.000259054
-0.000266121
-0.000272278
-0.000277609
-0.000282213
-0.000286237
-0.000289853
-0.000293217
-0.000296464
-0.000299715
-0.000303075
-0.000306628
-0.000310414
-0.000314448
-0.000318703
-0.000323124
-0.000327621
-0.000332105
-0.000336472
-0.000340611
-0.0003444
-0.00034778
-0.000350829
-0.000353856
-0.000357403
-0.000361588
-0.000365418
-0.000367564
-0.000368244
-0.000369405
-0.000371556
-0.000373868
-0.000376146
-0.000378395
-0.000380269
-0.000381634
-0.000382338
-0.000382202
-0.000381187
-0.000379505
-0.000377569
-0.000375854
-0.000374768
-0.000374507
-0.000375038
-0.00037641
0.000113374
8.8129e-05
6.32826e-05
3.87748e-05
1.45624e-05
-9.32023e-06
-3.27992e-05
-5.57942e-05
-7.82268e-05
-0.000100021
-0.000121104
-0.000141404
-0.000160851
-0.000179375
-0.00019691
-0.000213398
-0.000228786
-0.000243035
-0.000256118
-0.000268001
-0.000278633
-0.000287982
-0.000296053
-0.000302895
-0.000308589
-0.000313236
-0.00031696
-0.000319916
-0.000322284
-0.000324251
-0.000326015
-0.000327784
-0.00032975
-0.000332057
-0.00033478
-0.000337925
-0.000341439
-0.00034521
-0.000349096
-0.000352967
-0.000356762
-0.000360523
-0.000364316
-0.000368053
-0.000371266
-0.000373103
-0.000373063
-0.000372224
-0.000372656
-0.000374449
-0.000375219
-0.000374291
-0.000374276
-0.000375724
-0.000377014
-0.000378061
-0.000379258
-0.000380533
-0.000381442
-0.000381675
-0.000381167
-0.000380021
-0.000378498
-0.000376978
-0.000375872
-0.000375517
-0.000376054
-0.000377434
-0.000379646
5.25913e-05
2.56089e-05
-1.31443e-06
-2.77432e-05
-5.37296e-05
-7.93081e-05
-0.000104414
-0.000128953
-0.000152828
-0.000175948
-0.000198224
-0.000219569
-0.000239892
-0.000259095
-0.000277063
-0.000293643
-0.000308691
-0.000322169
-0.000334157
-0.000344679
-0.00035368
-0.000361131
-0.000367043
-0.00037146
-0.000374469
-0.000376194
-0.000376796
-0.000376475
-0.000375434
-0.000373895
-0.000372124
-0.000370431
-0.000369135
-0.000368532
-0.000368838
-0.000370152
-0.000372414
-0.000375369
-0.000378564
-0.000381423
-0.000383403
-0.00038429
-0.000384446
-0.000384655
-0.000385301
-0.000385641
-0.000384216
-0.000380841
-0.000377996
-0.000377704
-0.000378433
-0.000378587
-0.000378355
-0.000378185
-0.000378372
-0.000379054
-0.000379883
-0.000380517
-0.000380688
-0.00038025
-0.000379194
-0.000377654
-0.000375901
-0.000374309
-0.000373271
-0.000373109
-0.000373987
-0.000375861
-0.000378654
1.25947e-05
-1.59657e-05
-4.37721e-05
-7.13754e-05
-9.8735e-05
-0.000125657
-0.000152015
-0.000177722
-0.000202682
-0.000226794
-0.000249959
-0.000272096
-0.000293149
-0.000313096
-0.000332026
-0.000349915
-0.000366379
-0.000380962
-0.000393401
-0.000403669
-0.00041186
-0.000418009
-0.000422102
-0.000424141
-0.000424176
-0.000422331
-0.000418819
-0.000413949
-0.00040812
-0.000401829
-0.000395659
-0.000390251
-0.000386243
-0.000384166
-0.000384338
-0.000386749
-0.000390959
-0.000396109
-0.000401013
-0.00040442
-0.000405259
-0.000402793
-0.000397393
-0.000391186
-0.000386658
-0.000385109
-0.000385613
-0.000386089
-0.000385462
-0.000383681
-0.000381702
-0.000380414
-0.000379885
-0.00037969
-0.000379678
-0.000379815
-0.000379941
-0.000379825
-0.000379245
-0.000378069
-0.000376319
-0.000374179
-0.000371973
-0.000370105
-0.000368966
-0.00036885
-0.000369846
-0.000371883
-0.000374817
-8.76382e-05
-0.00011872
-0.000149724
-0.000180011
-0.000209629
-0.000238692
-0.000267131
-0.00029478
-0.000321474
-0.000347068
-0.000371413
-0.000394338
-0.000415637
-0.000435079
-0.000452357
-0.000467358
-0.000480374
-0.000491624
-0.000500958
-0.000508068
-0.000512716
-0.000514808
-0.000514341
-0.000511341
-0.000505863
-0.000498034
-0.000488078
-0.000476335
-0.000463274
-0.000449494
-0.000435705
-0.000422682
-0.000411211
-0.000402006
-0.000395617
-0.000392328
-0.000392058
-0.0003943
-0.000398141
-0.000402341
-0.000405553
-0.000406875
-0.000405727
-0.000402208
-0.000397206
-0.000392163
-0.00038858
-0.000386646
-0.000385298
-0.000384064
-0.00038294
-0.000382054
-0.00038143
-0.000380974
-0.000380621
-0.000380319
-0.00037998
-0.000379449
-0.000378516
-0.000376993
-0.000374832
-0.000372212
-0.00036952
-0.000367232
-0.000365776
-0.000365393
-0.000366152
-0.000368022
-0.000371036
0.000194534
0.000201853
0.000209539
0.000217609
0.00022614
0.000235218
0.000244897
0.000254953
0.000265336
0.000276223
0.000287681
0.000299632
0.000311768
0.000324857
0.000337395
0.000350483
0.000363049
0.000376281
0.000389175
0.000401762
0.000414887
0.000426601
0.000437825
0.000448141
0.000457667
0.000466314
0.000473413
0.000479346
0.000484379
0.000487709
0.000489307
0.000489726
0.000489041
0.000487269
0.000483732
0.000479205
0.000473826
0.000467349
0.000460049
0.000452359
0.00044385
0.000435018
0.000426354
0.000417745
0.000408249
0.000399397
0.000390167
0.00038138
0.000372696
0.00036434
0.00035637
0.000348707
0.000341567
0.000334724
0.0003283
0.000321867
0.000316052
0.000310582
0.000305566
0.000193842
0.000201402
0.000209426
0.0002179
0.000226859
0.000236321
0.000246312
0.000256786
0.00026775
0.000279209
0.000291142
0.000303531
0.000316289
0.000329478
0.000342915
0.000356445
0.000370114
0.000383777
0.000397407
0.000410587
0.000423718
0.000436246
0.000447972
0.000458845
0.000468728
0.000477602
0.000485206
0.000491332
0.000496409
0.000499848
0.000501504
0.000501983
0.00050117
0.00049899
0.000495387
0.000490598
0.000484823
0.000478114
0.00047052
0.00046226
0.000453486
0.000444374
0.000435082
0.000425487
0.000415853
0.000406304
0.000396863
0.000387671
0.000378662
0.000369941
0.000361588
0.0003536
0.000345928
0.000338697
0.000331785
0.000325328
0.000319318
0.000313694
0.000308433
0.000192778
0.000200672
0.000209028
0.000217887
0.000227259
0.000237159
0.000247584
0.000258529
0.000270004
0.000282009
0.000294502
0.000307436
0.000320781
0.000334501
0.000348524
0.000362813
0.000377217
0.000391598
0.000405809
0.000419711
0.000433288
0.000446381
0.000458699
0.000470097
0.000480471
0.000489698
0.000497615
0.000504094
0.000509276
0.000512777
0.000514607
0.000515071
0.000514035
0.000511583
0.000507734
0.00050268
0.000496521
0.00048944
0.000481491
0.000472874
0.000463696
0.000454047
0.00044412
0.000434038
0.000423923
0.000413906
0.00040401
0.000394317
0.000384881
0.000375758
0.000367004
0.000358612
0.000350598
0.00034298
0.000335817
0.000329098
0.000322793
0.000316888
0.000311373
0.000191429
0.000199664
0.000208388
0.000217637
0.000227424
0.000237766
0.000248665
0.000260121
0.000272134
0.000284694
0.000297773
0.000311334
0.000325339
0.000339727
0.000354417
0.000369364
0.00038442
0.000399491
0.000414396
0.000429042
0.000443291
0.000456958
0.000469855
0.000481805
0.00049269
0.000502345
0.00051061
0.000517402
0.000522748
0.000526353
0.000528279
0.000528698
0.000527505
0.00052486
0.000520755
0.000515388
0.000508857
0.000501331
0.000492921
0.000483815
0.000474118
0.000463948
0.000453504
0.000442941
0.000432309
0.000421753
0.000411334
0.000401128
0.000391211
0.00038163
0.000372428
0.000363626
0.00035525
0.000347309
0.000339815
0.00033276
0.000326135
0.000319933
0.000314159
0.00018978
0.000198381
0.000207497
0.000217164
0.000227396
0.000238208
0.000249609
0.000261599
0.000274174
0.00028732
0.000301014
0.000315224
0.000329905
0.000344991
0.000360401
0.000376049
0.000391821
0.000407611
0.000423261
0.000438643
0.000453594
0.00046791
0.000481421
0.000493952
0.000505355
0.000515465
0.000524119
0.000531211
0.000536747
0.000540475
0.000542455
0.000542826
0.000541508
0.000538664
0.000534299
0.000528589
0.000521659
0.000513669
0.000504755
0.000495096
0.000484838
0.000474129
0.000463138
0.000452002
0.000440809
0.000429682
0.000418716
0.000407988
0.000397566
0.000387501
0.000377834
0.000368595
0.000359805
0.000351475
0.000343609
0.000336207
0.000329265
0.00032277
0.000316727
0.000187748
0.00019674
0.000206273
0.000216386
0.000227094
0.000238411
0.000250345
0.000262899
0.000276069
0.000289839
0.000304187
0.000319079
0.000334468
0.000350287
0.000366456
0.000382874
0.000399431
0.000415999
0.000432429
0.000448568
0.000464246
0.000479265
0.000493438
0.000506582
0.00051853
0.000529114
0.000538176
0.000545584
0.000551326
0.000555185
0.000557213
0.000557532
0.000556079
0.000553008
0.000548355
0.000542278
0.000534918
0.00052644