/*--------------------------------*- C++ -*----------------------------------*\
| =========                 |                                                 |
| \\      /  F ield         | OpenFOAM: The Open Source CFD Toolbox           |
|  \\    /   O peration     | Version:  2312                                  |
|   \\  /    A nd           | Website:  www.openfoam.com                      |
|    \\/     M anipulation  |                                                 |
\*---------------------------------------------------------------------------*/
FoamFile
{
    version     2.0;
    format      ascii;
    arch        "LSB;label=32;scalar=64";
    class       surfaceScalarField;
    location    "300";
    object      phi;
}
// * * * * * * * * * * * * * * * * * * * * * * * * * * * * * * * * * * * * * //

dimensions      [0 3 -1 0 0 0 0];

oriented        oriented;

internalField   nonuniform List<scalar> 
116611
(
0.0011019
0.000408206
-0.00108587
-0.000424239
0.00111779
0.000403507
-0.000419394
0.00113354
0.000398463
-0.000414218
0.00114914
0.000393039
-0.000408637
0.00116448
0.000387216
-0.000402554
0.00117985
0.000380931
-0.000396298
0.00119472
0.000374242
-0.000389117
0.00120965
0.000367123
-0.000382053
0.00122424
0.000359527
-0.000374114
0.00123866
0.000351485
-0.000365906
0.00125277
0.000342922
-0.000357028
0.00126666
0.000333851
-0.000347743
0.00128027
0.000324267
-0.000337876
0.00129365
0.000314133
-0.000327513
0.00130678
0.000303464
-0.000316596
0.00131947
0.000292279
-0.000304969
0.00133201
0.00028042
-0.000292958
0.00134408
0.000268059
-0.000280134
0.0013558
0.000254952
-0.000266672
0.00136712
0.000241345
-0.000252663
0.0013782
0.000226958
-0.00023804
0.00138881
0.000211962
-0.000222566
0.00139898
0.000196264
-0.000206441
0.00140879
0.000179897
-0.000189707
0.00141807
0.000162789
-0.000172069
0.00142694
0.000144933
-0.000153804
0.00143535
0.000126251
-0.000134663
0.001443
0.00010687
-0.00011452
0.00145041
8.6647e-05
-9.4049e-05
0.00145686
6.55566e-05
-7.20123e-05
0.00146292
4.38091e-05
-4.98675e-05
0.00146818
2.10287e-05
-2.62847e-05
0.00147285
-2.59073e-06
-2.07941e-06
0.00147679
-2.7003e-05
2.30547e-05
0.00148005
-5.24594e-05
4.91985e-05
0.00148251
-7.87292e-05
7.62724e-05
0.00148436
-0.000106061
0.000104212
0.0014853
-0.000134341
0.000133401
0.0014854
-0.000163512
0.000163408
0.0014846
-0.000193759
0.000194566
0.00148296
-0.000224926
0.000226564
0.00148051
-0.000257206
0.000259654
0.00147707
-0.000290506
0.000293951
0.00147261
-0.000324763
0.000329215
0.00146732
-0.000360123
0.000365413
0.00146099
-0.000396538
0.00040287
0.00145371
-0.000434103
0.000441381
0.00144527
-0.000472702
0.000481146
0.00143588
-0.000512399
0.000521783
0.00142535
-0.000553232
0.000563762
0.0014137
-0.000595223
0.000606878
0.00140089
-0.000638331
0.000651137
0.0013868
-0.000682574
0.000696665
0.0013714
-0.000727941
0.000743347
0.00135471
-0.000774385
0.000791069
0.00133669
-0.000821994
0.000840021
0.00131731
-0.000870809
0.000890187
0.00129644
-0.00092077
0.000941637
0.00127396
-0.000971947
0.000994426
0.00124969
-0.00102426
0.00104853
0.00122391
-0.00107754
0.00110333
0.00119625
-0.00113206
0.00115971
0.00116677
-0.00118767
0.00121715
0.00113527
-0.00124428
0.00127578
0.00110177
-0.00130174
0.00133523
0.00106567
-0.00136001
0.00139612
0.00102678
-0.00141897
0.00145786
0.000986383
-0.00147944
0.00151984
-0.00154483
0.000948101
0.00158311
0.00108498
0.00039226
-0.00106904
0.00110078
0.000387711
0.00111643
0.000382806
0.00113194
0.000377536
0.0011473
0.000371854
0.00116245
0.00036578
0.0011774
0.000359294
0.00119216
0.000352366
0.00120668
0.000344999
0.001221
0.000337165
0.00123507
0.000328854
0.00124887
0.000320054
0.0012624
0.00031074
0.00127563
0.000300897
0.00128856
0.000290538
0.00130123
0.000279612
0.00131352
0.000268126
0.00132553
0.000256051
0.0013371
0.000243377
0.00134837
0.000230075
0.0013592
0.000216129
0.00136963
0.000201539
0.00137962
0.000186276
0.00138918
0.000170331
0.00139829
0.000153681
0.00140694
0.000136285
0.00141503
0.000118157
0.00142262
9.92792e-05
0.00142966
7.96098e-05
0.00143606
5.91605e-05
0.00144196
3.79045e-05
0.00144719
1.57986e-05
0.00145175
-7.15074e-06
0.0014557
-3.09558e-05
0.00145891
-5.56672e-05
0.00146146
-8.12758e-05
0.00146322
-0.000107823
0.00146417
-0.000135295
0.00146438
-0.000163714
0.00146373
-0.000193112
0.00146229
-0.000223485
0.00145995
-0.000254862
0.00145668
-0.000287237
0.00145253
-0.000320622
0.00144746
-0.000355048
0.00144143
-0.000390512
0.00143437
-0.000427041
0.00142629
-0.000464624
0.00141717
-0.00050328
0.00140695
-0.000543012
0.00139557
-0.000583839
0.00138299
-0.000625751
0.00136916
-0.000668747
0.00135406
-0.000712832
0.00133767
-0.000758002
0.00131996
-0.000804279
0.00130082
-0.000851675
0.00128022
-0.000900168
0.00125804
-0.000949766
0.00123421
-0.00100043
0.00120877
-0.0010521
0.00118153
-0.00110482
0.00115242
-0.00115855
0.0011213
-0.00121316
0.00108803
-0.00126846
0.00105235
-0.00132434
0.00101444
-0.00138105
0.000976017
-0.00144102
-0.00150814
0.000939332
0.00106849
0.000376393
-0.00105262
0.00108421
0.000371988
0.00109979
0.00036723
0.00111521
0.000362109
0.00113046
0.000356605
0.00114553
0.00035071
0.00116042
0.000344411
0.00117509
0.000337691
0.00118955
0.000330539
0.00120378
0.000322937
0.00121776
0.000314873
0.00123148
0.000306331
0.00124493
0.000297297
0.00125807
0.000287752
0.00127092
0.000277685
0.00128346
0.000267078
0.00129567
0.000255917
0.00130753
0.000244185
0.00131904
0.000231868
0.00133017
0.000218945
0.00134089
0.000205404
0.00135121
0.000191226
0.00136109
0.000176393
0.00137053
0.000160889
0.00137952
0.000144698
0.001388
0.000127798
0.00139598
0.000110177
0.00140345
9.18147e-05
0.00141036
7.26966e-05
0.00141672
5.28054e-05
0.0014225
3.21246e-05
0.00142766
1.0638e-05
0.00143218
-1.16788e-05
0.00143607
-3.48418e-05
0.00143927
-5.8871e-05
0.00144178
-8.37835e-05
0.00144355
-0.000109594
0.00144458
-0.00013632
0.00144484
-0.000163973
0.00144429
-0.000192569
0.00144293
-0.000222121
0.00144071
-0.000252641
0.00143761
-0.000284143
0.00143363
-0.000316635
0.00142871
-0.000350129
0.00142283
-0.000384635
0.00141596
-0.000420166
0.00140806
-0.000456726
0.0013991
-0.00049432
0.00138904
-0.000532955
0.00137784
-0.000572638
0.00136546
-0.00061337
0.00135187
-0.000655151
0.00133702
-0.000697984
0.00132089
-0.000741871
0.00130343
-0.000786819
0.00128457
-0.000832821
0.00126426
-0.000879859
0.00124242
-0.000927919
0.00121896
-0.000976975
0.00119385
-0.00102699
0.00116699
-0.00107796
0.00113826
-0.00112982
0.00110749
-0.0011824
0.00107451
-0.00123548
0.00103929
-0.00128912
0.00100259
-0.00134435
0.000966729
-0.00140516
-0.00147417
0.000932758
0.00105245
0.00036061
-0.00103667
0.0010681
0.000356338
0.0010836
0.000351729
0.00109895
0.000346766
0.00111412
0.000341436
0.0011291
0.000335722
0.0011439
0.000329615
0.00115849
0.000323101
0.00117286
0.000316167
0.001187
0.000308797
0.0012009
0.000300978
0.00121453
0.000292695
0.00122789
0.000283934
0.00124097
0.000274679
0.00125374
0.000264915
0.00126619
0.000254627
0.00127831
0.000243798
0.00129008
0.000232414
0.00130149
0.000220458
0.00131252
0.000207915
0.00132315
0.000194768
0.00133338
0.000181001
0.00134318
0.000166597
0.00135253
0.000151539
0.00136141
0.000135811
0.00136982
0.000119395
0.00137772
0.000102274
0.0013851
8.44327e-05
0.00139194
6.58542e-05
0.00139823
4.65218e-05
0.00140393
2.64198e-05
0.00140904
5.53135e-06
0.00141352
-1.61653e-05
0.00141737
-3.86883e-05
0.00142055
-6.20538e-05
0.00142305
-8.6279e-05
0.00142483
-0.000111379
0.00142588
-0.00013737
0.00142617
-0.000164264
0.00142568
-0.000192075
0.00142437
-0.000220816
0.00142223
-0.0002505
0.00141923
-0.000281138
0.00141533
-0.000312739
0.00141052
-0.000345313
0.00140475
-0.00037887
0.001398
-0.000413417
0.00139024
-0.000448962
0.00138142
-0.000485508
0.00137153
-0.00052306
0.00136051
-0.000561623
0.00134834
-0.0006012
0.00133498
-0.000641789
0.00132039
-0.000683392
0.00130453
-0.000726011
0.00128736
-0.000769646
0.0012688
-0.000814269
0.00124881
-0.000859863
0.0012273
-0.000906407
0.0012042
-0.000953881
0.00117946
-0.00100225
0.00115298
-0.00105148
0.00112461
-0.00110144
0.00109416
-0.00115194
0.00106153
-0.00120285
0.0010271
-0.0012547
0.000992387
-0.00130964
0.000959916
-0.00137269
-0.00144245
0.000928198
0.00103702
0.000344974
-0.00102139
0.00105255
0.000340815
0.00106794
0.000336338
0.00108318
0.000331524
0.00109826
0.000326358
0.00111316
0.000320824
0.00112786
0.00031491
0.00114236
0.000308601
0.00115664
0.000301885
0.0011707
0.000294747
0.0011845
0.000287172
0.00119805
0.000279148
0.00121132
0.000270659
0.00122431
0.000261692
0.00123699
0.00025223
0.00124936
0.000242259
0.0012614
0.000231763
0.00127308
0.000220727
0.00128441
0.000209134
0.00129535
0.00019697
0.0013059
0.000184217
0.00131604
0.00017086
0.00132576
0.000156884
0.00133503
0.00014227
0.00134383
0.000127004
0.00135216
0.000111068
0.00135999
9.44448e-05
0.0013673
7.71198e-05
0.00137408
5.90763e-05
0.00138031
4.02978e-05
0.00138596
2.07685e-05
0.00139102
4.71954e-07
0.00139546
-2.06124e-05
0.00139928
-4.25022e-05
0.00140244
-6.5213e-05
0.00140492
-8.87607e-05
0.0014067
-0.00011316
0.00140775
-0.000138425
0.00140806
-0.00016457
0.00140759
-0.000191608
0.00140633
-0.000219551
0.00140424
-0.000248409
0.0014013
-0.000278195
0.00139747
-0.000308916
0.00139274
-0.000340583
0.00138708
-0.000373203
0.00138044
-0.000406784
0.00137281
-0.00044133
0.00136415
-0.000476847
0.00135443
-0.000513338
0.00134361
-0.000550805
0.00133166
-0.00058925
0.00131854
-0.000628672
0.00130422
-0.000669068
0.00128864
-0.000710435
0.00127176
-0.000752766
0.00125352
-0.000796023
0.00123384
-0.000840188
0.00121268
-0.000885241
0.00118995
-0.000931159
0.0011656
-0.000977898
0.00113948
-0.00102536
0.00111143
-0.00107339
0.00108128
-0.0011218
0.00104921
-0.00117078
0.00101622
-0.00122171
0.000984498
-0.00127791
0.000955703
-0.0013439
-0.00141039
0.000923639
0.00102234
0.000329506
-0.00100688
0.0010377
0.000325455
0.00105294
0.0003211
0.00106804
0.000316423
0.00108299
0.000311409
0.00109777
0.000306044
0.00111237
0.000300314
0.00112676
0.000294206
0.00114094
0.000287704
0.0011549
0.000280795
0.0011686
0.000273464
0.00118205
0.000265697
0.00119523
0.000257481
0.00120813
0.000248799
0.00122072
0.000239638
0.00123299
0.000229983
0.00124494
0.000219818
0.00125654
0.000209128
0.00126778
0.000197897
0.00127864
0.00018611
0.0012891
0.000173751
0.00129916
0.000160804
0.00130879
0.000147253
0.00131798
0.000133082
0.00132671
0.000118274
0.00133496
0.000102815
0.00134272
8.66866e-05
0.00134996
6.98739e-05
0.00135668
5.23608e-05
0.00136285
3.41313e-05
0.00136845
1.51699e-05
0.00137346
-4.53972e-06
0.00137786
-2.50181e-05
0.00138164
-4.62812e-05
0.00138477
-6.83443e-05
0.00138723
-9.12221e-05
0.001389
-0.000114929
0.00139006
-0.000139479
0.00139037
-0.000164886
0.00138993
-0.00019116
0.00138869
-0.000218315
0.00138664
-0.000246361
0.00138375
-0.000275308
0.00138
-0.000305165
0.00137536
-0.000335939
0.0013698
-0.00036764
0.00136328
-0.000400272
0.0013558
-0.000433841
0.0013473
-0.00046835
0.00133776
-0.000503802
0.00132716
-0.000540197
0.00131544
-0.000577534
0.00130258
-0.000615808
0.00128852
-0.000655014
0.00127323
-0.000695144
0.00125665
-0.000736181
0.00123871
-0.00077809
0.00121938
-0.00082085
0.00119857
-0.000864439
0.00117624
-0.00090882
0.00115225
-0.000953915
0.00112646
-0.000999573
0.00109869
-0.00104562
0.00106897
-0.00109207
0.00103795
-0.00113977
0.00100739
-0.00119114
0.000979546
-0.00125007
0.000953202
-0.00131755
-0.00137249
0.000915305
0.0010084
0.000314172
-0.000993069
0.00102362
0.000310243
0.0010387
0.000306016
0.00105365
0.000301477
0.00106844
0.000296613
0.00108307
0.000291411
0.00109753
0.000285859
0.00111179
0.000279943
0.00112585
0.000273649
0.00113968
0.000266963
0.00115327
0.000259871
0.00116661
0.000252358
0.00117968
0.00024441
0.00119247
0.000236012
0.00120496
0.00022715
0.00121713
0.000217808
0.00122898
0.000207972
0.00124048
0.000197626
0.00125162
0.000186755
0.00126239
0.000175344
0.00127276
0.000163376
0.00128273
0.000150836
0.00129227
0.000137709
0.00130138
0.000123978
0.00131002
0.000109627
0.0013182
9.46409e-05
0.00132588
7.90036e-05
0.00133306
6.26993e-05
0.0013397
4.57123e-05
0.00134581
2.80272e-05
0.00135135
9.62883e-06
0.00135631
-9.49973e-06
0.00136067
-2.93781e-05
0.00136441
-5.00213e-05
0.00136751
-7.14439e-05
0.00136995
-9.36602e-05
0.0013717
-0.000116684
0.00137275
-0.000140529
0.00137307
-0.000165207
0.00137264
-0.000190731
0.00137144
-0.000217111
0.00136944
-0.000244358
0.00136661
-0.000272482
0.00136294
-0.00030149
0.00135839
-0.000331391
0.00135294
-0.000362191
0.00134656
-0.000393895
0.00133923
-0.000426507
0.00133091
-0.00046003
0.00132157
-0.000494464
0.00131118
-0.000529806
0.0012997
-0.000566053
0.00128709
-0.000603197
0.0012733
-0.000641229
0.00125829
-0.000680138
0.00124201
-0.0007199
0.00122441
-0.000760486
0.00120543
-0.00080187
0.001185
-0.000844017
0.00116304
-0.000886858
0.00113939
-0.000930264
0.00111388
-0.000974057
0.00108645
-0.00101819
0.00105753
-0.00106316
0.00102848
-0.00111071
0.00100147
-0.00116414
0.000977385
-0.00122598
0.000949325
-0.00128949
-0.00132006
0.000896892
0.000995108
0.000298928
-0.000979864
0.00101022
0.000295135
0.00102518
0.000291052
0.00103999
0.000286664
0.00105465
0.000281959
0.00106913
0.000276925
0.00108344
0.000271553
0.00109755
0.000265828
0.00111146
0.00025974
0.00112515
0.000253273
0.00113861
0.000246415
0.00115182
0.000239151
0.00116476
0.000231468
0.00117742
0.00022335
0.00118979
0.000214782
0.00120185
0.000205751
0.00121358
0.000196241
0.00122497
0.000186236
0.001236
0.000175722
0.00124666
0.000164683
0.00125693
0.000153104
0.0012668
0.000140968
0.00127625
0.000128261
0.00128526
0.000114967
0.00129382
0.00010107
0.0013019
8.65537e-05
0.0013095
7.14033e-05
0.0013166
5.56031e-05
0.00132317
3.91376e-05
0.00132921
2.19917e-05
0.00133469
4.15067e-06
0.00133959
-1.44035e-05
0.0013439
-3.36887e-05
0.0013476
-5.37195e-05
0.00135067
-7.45099e-05
0.00135308
-9.60738e-05
0.00135482
-0.000118425
0.00135587
-0.000141575
0.0013562
-0.000165538
0.00135579
-0.000190324
0.00135462
-0.000215943
0.00135267
-0.000242407
0.00134991
-0.000269723
0.00134632
-0.000297901
0.00134188
-0.000326945
0.00133655
-0.000356863
0.00133031
-0.000387658
0.00132314
-0.000419333
0.001315
-0.000451888
0.00130586
-0.000485321
0.00129568
-0.000519628
0.00128443
-0.000554803
0.00127206
-0.000590834
0.00125855
-0.00062771
0.00124383
-0.000665423
0.00122787
-0.000703939
0.00121062
-0.000743232
0.00119201
-0.000783265
0.00117197
-0.00082397
0.00115034
-0.000865233
0.00112696
-0.000906888
0.00110175
-0.000948841
0.00107497
-0.000991413
0.00104769
-0.00103588
0.00102186
-0.00108487
0.000999032
-0.00114131
0.000976208
-0.00120316
0.000938249
-0.00125153
-0.00124072
0.000858915
0.000982386
0.000283757
-0.000967215
0.000997414
0.000280106
0.00101229
0.000276176
0.00102701
0.000271949
0.00104155
0.000267414
0.00105592
0.00026256
0.00107009
0.000257375
0.00108407
0.00025185
0.00109784
0.000245971
0.00111139
0.000239727
0.0011247
0.000233104
0.00113776
0.000226088
0.00115056
0.000218667
0.00116308
0.000210827
0.00117532
0.000202552
0.00118724
0.000193828
0.00119884
0.00018464
0.0012101
0.000174974
0.00122101
0.000164813
0.00123155
0.000154143
0.00124171
0.000142949
0.00125146
0.000131215
0.0012608
0.000118924
0.0012697
0.000106063
0.00127816
9.26147e-05
0.00128614
7.85642e-05
0.00129365
6.38958e-05
0.00130066
4.85945e-05
0.00130715
3.26449e-05
0.00131311
1.60323e-05
0.00131852
-1.25821e-06
0.00132336
-1.92456e-05
0.00132762
-3.79456e-05
0.00133127
-5.73726e-05
0.0013343
-7.75401e-05
0.00133669
-9.84618e-05
0.00133842
-0.000120151
0.00133946
-0.000142619
0.0013398
-0.000165879
0.00133942
-0.000189941
0.00133829
-0.000214815
0.00133639
-0.00024051
0.00133371
-0.000267036
0.00133021
-0.000294398
0.00132586
-0.000322604
0.00132066
-0.000351657
0.00131456
-0.000381559
0.00130754
-0.000412313
0.00129957
-0.000443917
0.00129061
-0.000476367
0.00128064
-0.000509658
0.00126962
-0.000543779
0.0012575
-0.000578719
0.00124426
-0.000614467
0.00122986
-0.000651018
0.00121424
-0.000688324
0.00119736
-0.000726349
0.00117912
-0.00076503
0.00115941
-0.000804258
0.00113806
-0.00084388
0.00111496
-0.000883788
0.00109031
-0.000924194
0.00106497
-0.000966073
0.00104064
-0.00101154
0.00101909
-0.00106332
0.000999215
-0.00112144
0.000971231
-0.00117517
0.000912179
-0.00119248
-0.00112858
0.00080003
0.000970237
0.000268663
-0.000955144
0.000985189
0.000265155
0.000999987
0.000261378
0.00101462
0.000257316
0.00102908
0.000252957
0.00104335
0.000248289
0.00105742
0.000243302
0.00107129
0.000237983
0.00108494
0.000232323
0.00109836
0.000226307
0.00111154
0.000219925
0.00112446
0.000213162
0.00113712
0.000206007
0.0011495
0.000198445
0.00116159
0.000190463
0.00117337
0.000182046
0.00118484
0.00017318
0.00119596
0.000163849
0.00120673
0.00015404
0.00121714
0.000143737
0.00122716
0.000132925
0.00123679
0.000121588
0.001246
0.000109711
0.00125479
9.72778e-05
0.00126313
8.42741e-05
0.00127101
7.06842e-05
0.00127841
5.64926e-05
0.00128532
4.16843e-05
0.00129172
2.62443e-05
0.0012976
1.0158e-05
0.00130293
-6.58992e-06
0.0013077
-2.40185e-05
0.0013119
-4.21423e-05
0.0013155
-6.09749e-05
0.00131849
-8.05298e-05
0.00132085
-0.00010082
0.00132256
-0.000121859
0.0013236
-0.000143657
0.00132394
-0.000166227
0.00132358
-0.000189578
0.00132249
-0.000213721
0.00132064
-0.000238663
0.00131802
-0.000264412
0.00131459
-0.000290975
0.00131035
-0.000318357
0.00130525
-0.00034656
0.00129928
-0.000375587
0.0012924
-0.000405437
0.00128459
-0.000436109
0.00127582
-0.000467595
0.00126605
-0.00049989
0.00125526
-0.000532983
0.0012434
-0.000566863
0.00123046
-0.000601525
0.00121639
-0.000636946
0.00120113
-0.000673066
0.00118461
-0.000709823
0.00116669
-0.000747118
0.00114724
-0.000784808
0.00112615
-0.000822787
0.00110357
-0.000861211
0.00108025
-0.000900872
0.0010577
-0.000943518
0.00103769
-0.000991532
0.00102007
-0.00104571
0.000998287
-0.00109965
0.000954342
-0.00113123
0.000863159
-0.0011013
-0.000982171
0.000716755
0.000958713
0.000253656
-0.000943706
0.000973578
0.000250289
0.000988291
0.000246665
0.00100284
0.000242768
0.00101721
0.000238586
0.00103139
0.000234107
0.00104537
0.00022932
0.00105914
0.000224214
0.00107269
0.000218776
0.001086
0.000212996
0.00109906
0.00020686
0.00111187
0.000200357
0.0011244
0.000193472
0.00113666
0.000186194
0.00114861
0.000178508
0.00116026
0.000170401
0.00117158
0.000161858
0.00118256
0.000152865
0.0011932
0.000143407
0.00120346
0.00013347
0.00121335
0.000123038
0.00122284
0.000112096
0.00123192
0.000100629
0.00124058
8.86215e-05
0.0012488
7.60584e-05
0.00125655
6.29244e-05
0.00126384
4.92044e-05
0.00127064
3.48833e-05
0.00127694
1.99464e-05
0.00128272
4.37946e-06
0.00128797
-1.18344e-05
0.00129266
-2.87126e-05
0.00129679
-4.62689e-05
0.00130033
-6.45168e-05
0.00130327
-8.34695e-05
0.00130559
-0.00010314
0.00130727
-0.000123539
0.00130829
-0.00014468
0.00130864
-0.000166572
0.00130828
-0.000189226
0.00130721
-0.00021265
0.0013054
-0.000236853
0.00130283
-0.00026184
0.00129947
-0.000287618
0.00129531
-0.000314191
0.00129031
-0.000341562
0.00128445
-0.000369731
0.00127771
-0.000398697
0.00127006
-0.000428456
0.00126147
-0.000459003
0.00125191
-0.00049033
0.00124135
-0.000522428
0.00122978
-0.000555293
0.00121717
-0.000588909
0.00120344
-0.000623217
0.00118851
-0.000658142
0.00117228
-0.000693594
0.00115461
-0.000729447
0.00113541
-0.000765603
0.00111482
-0.000802196
0.00109352
-0.00083992
0.00107292
-0.000880271
0.00105472
-0.000925312
0.00103921
-0.000976027
0.00102176
-0.00102826
0.000988238
-0.00106613
0.000915508
-0.0010585
0.000787866
-0.000973657
-0.000815337
0.000621032
0.000947875
0.000238746
-0.000932964
0.000962645
0.000235519
0.000977263
0.000232048
0.000991715
0.000228316
0.00100599
0.00022431
0.00102008
0.00022002
0.00103396
0.000215434
0.00104764
0.000210542
0.00106108
0.00020533
0.00107429
0.000199788
0.00108725
0.000193903
0.00109994
0.000187662
0.00111236
0.000181054
0.00112449
0.000174063
0.00113632
0.000166678
0.00114784
0.000158884
0.00115903
0.000150668
0.00116988
0.000142015
0.00118037
0.00013291
0.0011905
0.00012334
0.00120025
0.000113289
0.00120961
0.000102742
0.00121855
9.16839e-05
0.00122707
8.00999e-05
0.00123516
6.79746e-05
0.00124279
5.52931e-05
0.00124995
4.20402e-05
0.00125663
2.82013e-05
0.00126282
1.37618e-05
0.00126849
-1.29263e-06
0.00127364
-1.69801e-05
0.00127824
-3.33158e-05
0.00128228
-5.03133e-05
0.00128575
-6.79857e-05
0.00128863
-8.63459e-05
0.0012909
-0.000105406
0.00129253
-0.000125178
0.00129353
-0.000145672
0.00129385
-0.000166899
0.0012935
-0.000188868
0.00129243
-0.000211587
0.00129065
-0.000235064
0.00128811
-0.000259305
0.00128481
-0.000284314
0.00128071
-0.000310097
0.0012758
-0.000336653
0.00127006
-0.000363985
0.00126345
-0.000392089
0.00125595
-0.000420962
0.00124755
-0.000450598
0.00123821
-0.000480993
0.00122793
-0.000512143
0.00121667
-0.000544032
0.00120437
-0.000576609
0.00119094
-0.000609786
0.00117627
-0.000643473
0.00116024
-0.000677569
0.0011428
-0.000712004
0.0011241
-0.000746907
0.00110482
-0.000782915
0.00108628
-0.000821381
0.0010701
-0.000864085
0.00105672
-0.000911937
0.0010425
-0.000961805
0.00101603
-0.00100179
0.000957154
-0.00100725
0.000847067
-0.000948413
0.000690324
-0.000816914
-0.000639305
0.000514292
0.000937788
0.000223934
-0.000922976
0.000952457
0.00022085
0.000966972
0.000217533
0.000981321
0.000213967
0.000995492
0.000210139
0.00100947
0.000206038
0.00102325
0.000201655
0.00103682
0.000196977
0.00105016
0.000191993
0.00106325
0.00018669
0.0010761
0.000181058
0.00108868
0.000175083
0.00110098
0.000168752
0.00111299
0.000162053
0.0011247
0.000154971
0.00113609
0.000147494
0.00114715
0.000139608
0.00115786
0.000131298
0.00116823
0.000122549
0.00117822
0.000113348
0.00118783
0.000103679
0.00119704
9.35277e-05
0.00120585
8.28789e-05
0.00121423
7.17175e-05
0.00122218
6.00286e-05
0.00122967
4.77972e-05
0.0012367
3.50084e-05
0.00124326
2.16477e-05
0.00124932
7.70075e-06
0.00125487
-6.84742e-06
0.00125991
-2.20149e-05
0.00126441
-3.78153e-05
0.00126836
-5.4262e-05
0.00127174
-7.13678e-05
0.00127454
-8.91451e-05
0.00127674
-0.000107606
0.00127832
-0.000126761
0.00127927
-0.000146621
0.00127956
-0.000167195
0.00127919
-0.000188492
0.00127812
-0.000210521
0.00127634
-0.000233287
0.00127384
-0.000256798
0.00127058
-0.000281057
0.00126655
-0.000306068
0.00126173
-0.000331832
0.00125609
-0.000358348
0.00124962
-0.000385617
0.00124229
-0.000413634
0.00123409
-0.000442399
0.00122501
-0.000471907
0.00121501
-0.000502144
0.00120403
-0.000533053
0.00119197
-0.000564549
0.00117873
-0.000596547
0.00116422
-0.000628962
0.00114841
-0.000661759
0.00113151
-0.000695109
0.00111422
-0.000729617
0.00109784
-0.000766526
0.00108385
-0.000807398
0.00107268
-0.000852916
0.0010611
-0.000900358
0.00103924
-0.000939937
0.000989525
-0.000952078
0.000893043
-0.000910772
0.000747606
-0.000802976
0.000577408
-0.000646716
-0.000474565
0.000412668
0.000928505
0.000209222
-0.000913792
0.000943072
0.000206283
0.000957482
0.000203123
0.000971724
0.000199725
0.000985786
0.000196077
0.000999656
0.000192168
0.00101332
0.000187989
0.00102677
0.000183528
0.00103999
0.000178773
0.00105297
0.000173712
0.00106569
0.000168335
0.00107815
0.000162627
0.00109032
0.000156577
0.0011022
0.000150171
0.00111378
0.000143396
0.00112503
0.000136239
0.00113596
0.000128685
0.00114654
0.00012072
0.00115676
0.000112329
0.0011666
0.000103499
0.00117607
9.42145e-05
0.00118514
8.446e-05
0.00119379
7.42209e-05
0.00120203
6.34822e-05
0.00120983
5.22289e-05
0.00121718
4.0446e-05
0.00122407
2.8119e-05
0.00123048
1.52331e-05
0.00123641
1.7746e-06
0.00124184
-1.22733e-05
0.00124675
-2.69266e-05
0.00125113
-4.21987e-05
0.00125497
-5.81025e-05
0.00125825
-7.46505e-05
0.00126096
-9.18547e-05
0.00126308
-0.000109726
0.0012646
-0.000128276
0.00126549
-0.000147514
0.00126575
-0.000167449
0.00126534
-0.00018809
0.00126427
-0.000209443
0.0012625
-0.000231516
0.00126001
-0.000254315
0.0012568
-0.000277843
0.00125283
-0.000302103
0.0012481
-0.000327097
0.00124258
-0.000352826
0.00123625
-0.00037929
0.00122911
-0.000406491
0.00122113
-0.000434424
0.00121229
-0.000463068
0.00120252
-0.000492372
0.00119171
-0.000522243
0.00117977
-0.000552609
0.00116664
-0.000583417
0.00115235
-0.00061467
0.00113718
-0.000646588
0.00112187
-0.000679803
0.00110772
-0.00071547
0.00109611
-0.000754913
0.00108722
-0.000798505
0.00107783
-0.000843525
0.00105888
-0.000881406
0.00101468
-0.000895743
0.000927551
-0.000864948
0.00079166
-0.000774881
0.000624764
-0.00063608
0.000454505
-0.000476457
-0.000320845
0.000300785
0.000920077
0.000194605
-0.00090546
0.000934544
0.000191815
0.000948851
0.000188816
0.000962986
0.00018559
0.000976937
0.000182126
0.000990693
0.000178413
0.00100424
0.000174441
0.00101757
0.0001702
0.00103066
0.000165677
0.00104351
0.000160862
0.00105611
0.000155742
0.00106843
0.000150305
0.00108047
0.000144539
0.00109221
0.00013843
0.00110364
0.000131964
0.00111475
0.000125129
0.00112552
0.00011791
0.00113595
0.000110293
0.00114602
0.000102264
0.00115571
9.38067e-05
0.00116502
8.49077e-05
0.00117392
7.55514e-05
0.00118242
6.57229e-05
0.0011905
5.54069e-05
0.00119814
4.45886e-05
0.00120533
3.3253e-05
0.00121206
2.13854e-05
0.00121833
8.97141e-06
0.0012241
-4.00325e-06
0.00122939
-1.75563e-05
0.00123416
-3.17018e-05
0.00123842
-4.64529e-05
0.00124214
-6.18223e-05
0.00124531
-7.7822e-05
0.00124792
-9.44636e-05
0.00124995
-0.000111758
0.00125139
-0.000129715
0.00125222
-0.000148344
0.00125242
-0.000167655
0.00125199
-0.000187654
0.00125089
-0.000208349
0.00124912
-0.000229746
0.00124666
-0.000251851
0.00124348
-0.000274668
0.00123958
-0.0002982
0.00123494
-0.000322452
0.00122954
-0.000347426
0.00122337
-0.000373123
0.00121642
-0.000399539
0.00120864
-0.000426644
0.00119995
-0.00045438
0.00119025
-0.000482677
0.00117948
-0.000511468
0.00116761
-0.000540735
0.00115474
-0.000570552
0.00114126
-0.000601193
0.00112799
-0.000633319
0.00111621
-0.000668019
0.0011071
-0.000706362
0.00110046
-0.00074827
0.00109277
-0.000790816
0.0010752
-0.000825955
0.00103342
-0.000839629
0.000951467
-0.000813787
0.000822492
-0.000735973
0.000660281
-0.000612671
0.000490986
-0.000466785
0.000335148
-0.000320619
-0.00019019
0.000204493
0.000912553
0.000180081
-0.000898029
0.000926925
0.000177444
0.000941131
0.000174609
0.000955161
0.00017156
0.000969003
0.000168283
0.000982645
0.000164771
0.000996075
0.000161012
0.00100928
0.000156995
0.00102225
0.000152709
0.00103497
0.000148144
0.00104742
0.000143286
0.0010596
0.000138125
0.0010715
0.000132646
0.00108309
0.000126838
0.00109437
0.000120686
0.00110532
0.000114177
0.00111593
0.000107297
0.00112619
0.000100031
0.00113609
9.23657e-05
0.00114561
8.42849e-05
0.00115475
7.5774e-05
0.00116348
6.68178e-05
0.0011718
5.7401e-05
0.0011797
4.75084e-05
0.00118716
3.71247e-05
0.00119418
2.62351e-05
0.00120074
1.48246e-05
0.00120684
2.87911e-06
0.00121245
-9.61726e-06
0.00121757
-2.26809e-05
0.0012222
-3.63253e-05
0.00122631
-5.05633e-05
0.00122989
-6.54072e-05
0.00123294
-8.08689e-05
0.00123544
-9.69593e-05
0.00123737
-0.000113689
0.00123872
-0.000131066
0.00123948
-0.000149102
0.00123962
-0.000167803
0.00123915
-0.000187176
0.00123803
-0.00020723
0.00123625
-0.00022797
0.0012338
-0.000249402
0.00123066
-0.000271531
0.00122683
-0.000294363
0.00122228
-0.000317904
0.001217
-0.000342151
0.00121098
-0.000367096
0.00120414
-0.000392701
0.00119641
-0.000418913
0.0011877
-0.000445669
0.00117797
-0.000472946
0.00116726
-0.000500762
0.00115578
-0.000529252
0.00114402
-0.000558797
0.00113291
-0.000590081
0.00112366
-0.000624072
0.00111715
-0.000661504
0.00111254
-0.000701756
0.00110577
-0.000741498
0.001088
-0.000773049
0.00104577
-0.000783724
0.000964951
-0.000758808
0.000839559
-0.000688395
0.000681079
-0.000577493
0.000513493
-0.000445085
0.000357507
-0.000310799
0.000225966
-0.000189079
-9.1393e-05
0.000127169
0.000905994
0.000165645
-0.000891558
0.000920273
0.000163165
0.000934383
0.0001605
0.000948311
0.000157631
0.000962047
0.000154548
0.000975577
0.000151241
0.00098889
0.000147699
0.00100197
0.000143912
0.00101481
0.00013987
0.0010274
0.000135559
0.00103971
0.00013097
0.00105175
0.000126089
0.00106349
0.000120904
0.00107493
0.000115402
0.00108604
0.00010957
0.00109683
0.000103392
0.00110727
9.68566e-05
0.00111735
8.99474e-05
0.00112707
8.26501e-05
0.0011364
7.49495e-05
0.00114535
6.68302e-05
0.00115389
5.82769e-05
0.00116201
4.92738e-05
0.00116972
3.98057e-05
0.00117698
2.98569e-05
0.00118381
1.94124e-05
0.00119017
8.45726e-06
0.00119608
-3.02306e-06
0.00120151
-1.50461e-05
0.00120645
-2.76264e-05
0.0012109
-4.07772e-05
0.00121485
-5.45112e-05
0.00121828
-6.88402e-05
0.00122119
-8.37754e-05
0.00122356
-9.93272e-05
0.00122538
-0.000115505
0.00122663
-0.000132318
0.0012273
-0.000149774
0.00122738
-0.000167882
0.00122685
-0.000186647
0.0012257
-0.000206077
0.00122391
-0.00022618
0.00122147
-0.000246962
0.00121837
-0.000268431
0.00121459
-0.000290589
0.00121012
-0.000313434
0.00120491
-0.000336942
0.0011989
-0.000361079
0.00119199
-0.000385795
0.00118414
-0.000411067
0.00117537
-0.000436896
0.00116579
-0.000463369
0.00115574
-0.000490712
0.00114585
-0.000519362
0.0011371
-0.00055004
0.00113054
-0.000583521
0.00112653
-0.00062006
0.00112345
-0.000658426
0.00111645
-0.000694761
0.00109647
-0.000721511
0.00105085
-0.000727437
0.00096749
-0.00070036
0.000842259
-0.000633576
0.000686221
-0.000532358
0.000521261
-0.000412532
0.000366946
-0.00029077
0.000235283
-0.000179135
0.000131985
-8.57807e-05
-1.83132e-05
5.89052e-05
0.000900462
0.000151292
-0.000886109
0.000914654
0.000148974
0.000928671
0.000146482
0.000942502
0.0001438
0.000956134
0.000140916
0.000969555
0.000137819
0.000982753
0.000134501
0.000995714
0.000130951
0.00100843
0.000127157
0.00102088
0.000123109
0.00103305
0.000118795
0.00104494
0.000114202
0.00105653
0.000109318
0.0010678
0.000104129
0.00107875
9.86229e-05
0.00108935
9.27845e-05
0.00109961
8.65996e-05
0.0011095
8.00534e-05
0.00111902
7.31306e-05
0.00112816
6.58157e-05
0.00113689
5.80932e-05
0.00114522
4.99469e-05
0.00115314
4.13611e-05
0.00116062
3.23198e-05
0.00116767
2.28071e-05
0.00117428