/*--------------------------------*- C++ -*----------------------------------*\
| =========                 |                                                 |
| \\      /  F ield         | OpenFOAM: The Open Source CFD Toolbox           |
|  \\    /   O peration     | Version:  2312                                  |
|   \\  /    A nd           | Website:  www.openfoam.com                      |
|    \\/     M anipulation  |                                                 |
\*---------------------------------------------------------------------------*/
FoamFile
{
    version     2.0;
    format      ascii;
    arch        "LSB;label=32;scalar=64";
    class       volVectorField;
    location    "300";
    object      U;
}
// * * * * * * * * * * * * * * * * * * * * * * * * * * * * * * * * * * * * * //

dimensions      [0 1 -1 0 0 0 0];

internalField   nonuniform List<vector> 
76025
(
(0.0370774 -0.0073283 0)
(0.0372561 -0.00740645 9.7635e-22)
(0.0374388 -0.00748084 0)
(0.0376247 -0.00755239 0)
(0.0378067 -0.00762051 -1.79062e-21)
(0.0379979 -0.00768224 -3.42292e-21)
(0.0381858 -0.007743 5.90919e-21)
(0.038379 -0.00779659 -2.4981e-21)
(0.0385728 -0.00784899 -7.93055e-22)
(0.0387692 -0.00789756 7.67752e-22)
(0.0389651 -0.007942 -2.44628e-25)
(0.0391632 -0.0079806 2.11057e-21)
(0.0393638 -0.00801779 -2.82526e-21)
(0.0395658 -0.0080477 0)
(0.0397739 -0.00807297 6.42555e-22)
(0.0399777 -0.00809941 0)
(0.0401863 -0.0081147 0)
(0.0403945 -0.00813272 0)
(0.0406043 -0.0081414 5.55427e-22)
(0.0408113 -0.0081528 -5.26079e-22)
(0.0410222 -0.00815337 -5.01551e-22)
(0.0412377 -0.00815157 -1.42973e-21)
(0.0414521 -0.00814434 9.44121e-22)
(0.041668 -0.00813279 1.28272e-21)
(0.0418837 -0.00812002 -4.70442e-23)
(0.0420984 -0.00810719 3.40105e-22)
(0.0423188 -0.00807986 -1.09904e-21)
(0.0425344 -0.00805517 1.0747e-21)
(0.0427518 -0.00802304 -3.32577e-22)
(0.0429695 -0.00798119 3.10754e-22)
(0.043182 -0.00794694 2.85369e-22)
(0.0433916 -0.00791162 -4.93532e-22)
(0.0436023 -0.00786036 7.17779e-22)
(0.0438111 -0.00781812 8.56186e-23)
(0.0440187 -0.0077631 -4.5514e-22)
(0.0442232 -0.00771542 1.17429e-23)
(0.0444275 -0.00766258 7.14967e-23)
(0.0446318 -0.00759702 -2.58621e-23)
(0.0448333 -0.00753723 3.87506e-24)
(0.0450301 -0.00747104 2.49221e-23)
(0.0452239 -0.00740934 -1.49476e-23)
(0.0454186 -0.00734487 4.90468e-24)
(0.0456118 -0.00726661 -5.76116e-24)
(0.0458024 -0.00719734 2.21709e-24)
(0.0459903 -0.00712136 -1.30035e-23)
(0.0461792 -0.00705307 1.85919e-23)
(0.0463668 -0.00697518 5.41998e-23)
(0.046554 -0.00690118 -1.88745e-22)
(0.0467397 -0.00682784 1.2982e-22)
(0.0469266 -0.00675858 -2.22841e-24)
(0.0471142 -0.00669036 -4.65653e-22)
(0.0473015 -0.00662182 -1.92451e-22)
(0.0474879 -0.00655466 2.35566e-22)
(0.0476722 -0.00648959 0)
(0.0478553 -0.00642562 -2.35089e-22)
(0.0480401 -0.00637223 -2.70617e-22)
(0.0482256 -0.00631773 1.71933e-23)
(0.048412 -0.00627076 -2.67885e-22)
(0.048599 -0.0062335 2.80522e-22)
(0.0487797 -0.00620282 -8.15953e-22)
(0.0489563 -0.00618104 -5.74304e-22)
(0.0491391 -0.00617327 -3.18742e-23)
(0.0493194 -0.00617758 0)
(0.0494973 -0.00619746 1.29112e-21)
(0.0496694 -0.00622806 -4.64436e-22)
(0.049838 -0.00628004 2.35483e-22)
(0.0499856 -0.00636438 -4.00154e-22)
(0.0501231 -0.00646882 3.33096e-22)
(0.0503266 -0.00661715 4.85987e-22)
(0.0369463 -0.00764955 1.04461e-21)
(0.0371345 -0.00773027 3.02338e-21)
(0.0373252 -0.00780676 -4.01871e-21)
(0.0375187 -0.00787855 0)
(0.0377128 -0.00794769 4.63263e-21)
(0.0379112 -0.00801125 -9.46927e-23)
(0.0381104 -0.00807152 -3.56978e-21)
(0.0383109 -0.00812714 0)
(0.0385138 -0.00817839 -1.72233e-24)
(0.0387183 -0.00822563 -7.9843e-22)
(0.0389248 -0.00826878 7.71952e-22)
(0.0391325 -0.00830726 1.39075e-24)
(0.0393407 -0.00834188 0)
(0.0395502 -0.00837204 0)
(0.0397617 -0.00839606 1.28444e-21)
(0.0399735 -0.00841797 -3.2529e-21)
(0.0401877 -0.00843328 -6.12399e-22)
(0.040402 -0.00844621 1.74241e-21)
(0.0406177 -0.00845289 -1.15505e-21)
(0.040833 -0.00845702 5.44077e-22)
(0.0410495 -0.00845582 -4.8574e-22)
(0.041266 -0.00845048 1.00679e-21)
(0.0414826 -0.00844071 -9.0802e-22)
(0.0416996 -0.00842637 1.32234e-21)
(0.0419173 -0.00840783 -8.62049e-22)
(0.0421351 -0.00838627 -1.16453e-21)
(0.0423532 -0.00835899 7.66503e-22)
(0.0425699 -0.00832907 0)
(0.0427863 -0.00829495 0)
(0.0430014 -0.0082569 2.92002e-22)
(0.0432157 -0.0082146 0)
(0.0434302 -0.00816915 2.44922e-22)
(0.0436429 -0.00811914 -2.16972e-22)
(0.0438542 -0.00806651 3.09203e-22)
(0.0440644 -0.00801031 8.82951e-24)
(0.0442733 -0.00795151 7.83195e-23)
(0.044481 -0.0078893 0)
(0.0446859 -0.00782504 9.4229e-23)
(0.0448888 -0.00775945 -5.60614e-23)
(0.0450901 -0.00769147 3.87341e-23)
(0.0452903 -0.00762113 -1.46481e-23)
(0.0454892 -0.00754871 2.36356e-24)
(0.0456857 -0.00747546 1.26715e-24)
(0.0458806 -0.00740196 -1.30238e-24)
(0.046075 -0.00732632 4.3679e-23)
(0.0462692 -0.00725 -2.90759e-23)
(0.0464621 -0.00717324 -4.4902e-23)
(0.0466537 -0.00709735 7.09557e-23)
(0.0468445 -0.00702061 2.79256e-22)
(0.0470351 -0.00694415 -8.1374e-25)
(0.0472245 -0.00686875 3.30515e-22)
(0.047412 -0.00679474 -1.26489e-22)
(0.0475978 -0.00672304 -3.88847e-22)
(0.0477818 -0.00665408 2.63188e-22)
(0.0479646 -0.00658743 0)
(0.0481474 -0.00652422 8.81675e-22)
(0.0483296 -0.00646597 1.02283e-23)
(0.0485106 -0.00641445 -2.98781e-22)
(0.0486902 -0.00637073 -3.19946e-22)
(0.0488667 -0.00633562 0)
(0.0490405 -0.00630779 2.91295e-22)
(0.0492136 -0.006291 8.96045e-22)
(0.0493834 -0.00628698 0)
(0.0495478 -0.00629686 -5.50083e-22)
(0.0497032 -0.00632038 2.78504e-22)
(0.0498469 -0.00636154 -4.79387e-22)
(0.0499705 -0.0064278 2.2719e-22)
(0.0501323 -0.00653072 -3.48002e-22)
(0.0504479 -0.00670748 -2.59301e-22)
(0.036806 -0.00798892 -5.34835e-21)
(0.0370038 -0.00807145 3.22631e-21)
(0.0372041 -0.00814971 -1.03323e-21)
(0.0374067 -0.00822305 3.94454e-21)
(0.0376114 -0.00829216 -4.89387e-21)
(0.0378181 -0.0083569 -3.70175e-21)
(0.0380269 -0.00841718 4.59367e-21)
(0.0382377 -0.0084729 0)
(0.0384502 -0.00852402 -9.32487e-25)
(0.0386642 -0.00857053 0)
(0.0388797 -0.00861246 -7.9035e-22)
(0.0390965 -0.00864973 7.63442e-22)
(0.0393142 -0.00868227 3.61689e-21)
(0.0395326 -0.00871028 -2.87769e-21)
(0.0397518 -0.0087334 6.80799e-22)
(0.039972 -0.00875176 1.92955e-21)
(0.0401929 -0.00876546 -6.47313e-22)
(0.0404146 -0.00877437 -6.00561e-22)
(0.0406367 -0.00877874 -1.67904e-21)
(0.0408594 -0.0087782 1.11388e-21)
(0.041082 -0.00877324 5.11415e-22)
(0.0413043 -0.00876378 -9.5614e-22)
(0.0415265 -0.00874982 4.98871e-22)
(0.0417487 -0.00873128 4.32816e-22)
(0.0419708 -0.00870836 0)
(0.0421924 -0.0086812 -3.81378e-22)
(0.0424132 -0.00865013 -3.4647e-22)
(0.0426332 -0.00861482 3.74577e-22)
(0.0428526 -0.0085753 0)
(0.0430711 -0.00853201 -5.79535e-22)
(0.0432889 -0.00848424 2.56184e-22)
(0.0435058 -0.00843294 -1.89658e-23)
(0.0437211 -0.00837845 0)
(0.0439352 -0.00832043 -9.7613e-23)
(0.0441479 -0.00825968 2.30375e-22)
(0.0443592 -0.00819606 -1.44017e-22)
(0.0445687 -0.00813012 0)
(0.0447764 -0.00806205 -5.92116e-23)
(0.0449827 -0.00799132 4.80988e-23)
(0.0451875 -0.00791849 5.97341e-24)
(0.0453908 -0.00784361 0)
(0.0455924 -0.00776728 -4.85251e-25)
(0.0457923 -0.00768969 -3.60832e-24)
(0.0459909 -0.00761028 3.26112e-24)
(0.0461882 -0.00752968 -3.37467e-23)
(0.0463841 -0.00744837 -3.9288e-23)
(0.0465785 -0.00736696 7.49041e-23)
(0.0467713 -0.00728519 -1.03644e-22)
(0.0469626 -0.00720329 1.16802e-22)
(0.0471523 -0.00712201 -1.13488e-22)
(0.0473402 -0.00704192 -1.22073e-22)
(0.0475262 -0.00696326 2.94732e-22)
(0.0477103 -0.00688637 0)
(0.0478926 -0.00681174 3.21882e-22)
(0.0480733 -0.00673991 9.21668e-24)
(0.0482529 -0.00667199 -3.31326e-22)
(0.0484312 -0.00660918 -3.331e-22)
(0.0486075 -0.00655197 6.67565e-22)
(0.0487814 -0.00650141 -9.11613e-24)
(0.0489519 -0.00645848 3.52821e-22)
(0.0491187 -0.00642366 -6.99666e-22)
(0.0492823 -0.00639935 -3.59949e-22)
(0.0494414 -0.00638726 -1.17097e-23)
(0.0495922 -0.00638775 -3.12455e-22)
(0.0497283 -0.00640148 -2.83028e-22)
(0.0498475 -0.00643129 -8.09867e-22)
(0.0499622 -0.00649195 0)
(0.0501804 -0.00660813 -1.62974e-22)
(0.0506242 -0.00679669 1.61482e-22)
(0.0366573 -0.00834641 0)
(0.0368659 -0.00843017 1.09504e-21)
(0.0370772 -0.00850954 5.27235e-21)
(0.0372902 -0.00858391 -4.18458e-21)
(0.0375053 -0.00865354 -2.94804e-21)
(0.0377222 -0.00871857 4.89313e-21)
(0.0379412 -0.0087788 -9.33851e-22)
(0.038162 -0.00883418 9.03644e-22)
(0.0383845 -0.00888466 8.7158e-22)
(0.0386083 -0.00893023 3.30656e-21)
(0.0388334 -0.00897086 -3.29179e-21)
(0.0390596 -0.0090065 -3.0601e-21)
(0.0392869 -0.00903709 8.30811e-22)
(0.039515 -0.00906265 2.87473e-21)
(0.0397436 -0.00908317 -2.09128e-21)
(0.0399728 -0.00909864 6.55254e-22)
(0.0402023 -0.00910918 -6.25686e-22)
(0.040432 -0.00911471 -5.96431e-22)
(0.0406618 -0.00911537 1.69699e-21)
(0.0408916 -0.0091111 -5.79684e-22)
(0.0411212 -0.00910203 -5.23145e-22)
(0.0413505 -0.00908813 0)
(0.0415795 -0.00906948 -8.8272e-22)
(0.0418079 -0.0090462 4.5627e-22)
(0.0420356 -0.00901843 7.89483e-22)
(0.0422625 -0.00898629 7.07506e-22)
(0.0424884 -0.00894984 -1.44911e-21)
(0.0427133 -0.00890905 6.57857e-22)
(0.0429372 -0.00886411 0)
(0.0431598 -0.00881514 5.54331e-22)
(0.0433812 -0.00876229 -2.31129e-23)
(0.0436011 -0.00870581 -4.76583e-22)
(0.0438197 -0.00864596 1.84547e-22)
(0.0440368 -0.00858289 -4.1584e-22)
(0.0442523 -0.00851691 8.845e-23)
(0.0444661 -0.00844819 0)
(0.0446783 -0.00837693 0)
(0.0448887 -0.0083032 -1.32464e-23)
(0.0450975 -0.00822713 -1.27606e-23)
(0.0453045 -0.00814907 -1.01007e-24)
(0.0455097 -0.00806919 -4.9332e-26)
(0.0457131 -0.00798769 1.44729e-24)
(0.0459148 -0.00790466 0)
(0.0461146 -0.00782029 -5.06311e-24)
(0.0463128 -0.00773497 0)
(0.0465091 -0.00764891 3.87305e-23)
(0.0467036 -0.00756237 7.71712e-24)
(0.0468962 -0.00747554 -1.81335e-22)
(0.0470869 -0.00738878 0)
(0.0472756 -0.00730248 -1.45877e-22)
(0.0474624 -0.00721704 1.43419e-22)
(0.047647 -0.00713284 -2.99325e-22)
(0.0478297 -0.00705035 0)
(0.0480103 -0.00697016 -1.03879e-21)
(0.0481893 -0.00689295 8.00557e-24)
(0.0483666 -0.00681958 3.55594e-22)
(0.0485415 -0.00675053 3.59298e-22)
(0.0487135 -0.00668656 0)
(0.048882 -0.0066285 0)
(0.0490464 -0.00657756 -3.6001e-22)
(0.0492062 -0.00653479 7.14479e-22)
(0.049361 -0.00650169 7.01176e-22)
(0.0495083 -0.0064794 0)
(0.0496424 -0.00646823 -6.9626e-22)
(0.0497565 -0.00646991 0)
(0.0498583 -0.00649027 8.18308e-22)
(0.0499928 -0.00655204 -2.67633e-22)
(0.0503218 -0.00668697 -1.77228e-22)
(0.0509189 -0.00686531 -1.36646e-22)
(0.0365073 -0.00872386 0)
(0.0367251 -0.0088084 0)
(0.0369464 -0.00888836 1.10564e-21)
(0.03717 -0.00896309 -4.20895e-21)
(0.0373956 -0.00903285 5.21739e-21)
(0.0376234 -0.00909774 -9.94974e-22)
(0.0378531 -0.0091576 0)
(0.0380844 -0.00921231 -9.27364e-22)
(0.0383172 -0.0092618 0)
(0.0385514 -0.00930604 -1.69079e-21)
(0.0387867 -0.00934498 6.33274e-23)
(0.039023 -0.00937861 1.61852e-21)
(0.0392601 -0.0094069 0)
(0.0394979 -0.00942984 -1.42985e-21)
(0.0397361 -0.00944744 4.18821e-21)
(0.0399746 -0.00945973 -2.67693e-21)
(0.0402132 -0.00946675 3.18428e-21)
(0.0404517 -0.00946853 -6.2986e-22)
(0.04069 -0.00946512 5.68222e-22)
(0.0409278 -0.00945659 -5.51331e-22)
(0.0411652 -0.009443 -4.93847e-22)
(0.041402 -0.0094244 1.48027e-21)
(0.0416379 -0.00940091 9.13636e-22)
(0.041873 -0.00937262 0)
(0.042107 -0.00933965 -7.71945e-22)
(0.0423399 -0.00930213 -3.23166e-22)
(0.0425715 -0.00926016 1.07215e-21)
(0.0428017 -0.00921386 -3.2664e-22)
(0.0430304 -0.00916338 5.51256e-22)
(0.0432576 -0.00910885 -8.2706e-22)
(0.0434832 -0.00905043 2.23956e-22)
(0.043707 -0.00898826 -9.83625e-23)
(0.0439292 -0.00892269 0)
(0.0441496 -0.00885397 7.98204e-23)
(0.0443681 -0.0087823 6.56482e-23)
(0.0445847 -0.00870786 0)
(0.0447994 -0.00863084 -2.76054e-23)
(0.0450121 -0.00855142 2.91228e-23)
(0.0452228 -0.00846982 -1.54178e-23)
(0.0454315 -0.00838621 -7.96992e-25)
(0.0456382 -0.00830078 -2.26679e-25)
(0.0458429 -0.0082137 -1.02124e-23)
(0.0460455 -0.00812519 3.26976e-24)
(0.046246 -0.00803544 1.72749e-23)
(0.0464445 -0.00794469 1.40149e-24)
(0.046641 -0.00785315 1.63221e-22)
(0.0468353 -0.0077611 0)
(0.0470276 -0.0076688 1.28675e-22)
(0.0472177 -0.00757657 -4.02114e-24)
(0.0474058 -0.00748472 -1.54746e-22)
(0.0475917 -0.00739365 0)
(0.0477755 -0.00730376 -1.84657e-22)
(0.0479573 -0.00721549 1.81512e-22)
(0.0481368 -0.00712936 3.66898e-22)
(0.0483144 -0.00704598 0)
(0.0484895 -0.00696616 -7.86671e-22)
(0.0486611 -0.00689002 8.09191e-22)
(0.0488288 -0.00681832 -8.19731e-22)
(0.0489922 -0.00675195 -2.12351e-23)
(0.0491506 -0.0066921 0)
(0.0493033 -0.00663993 -4.05886e-22)
(0.0494487 -0.00659641 3.81072e-22)
(0.0495818 -0.00656212 4.16361e-22)
(0.0496961 -0.00653764 7.13548e-22)
(0.0497896 -0.00652726 -1.05576e-21)
(0.0498935 -0.0065429 6.2867e-22)
(0.0500982 -0.00661621 -2.97436e-22)
(0.0505977 -0.00677038 2.81398e-22)
(0.0512965 -0.00690364 5.197e-22)
(0.0363603 -0.00912359 -4.74986e-21)
(0.0365865 -0.00920881 1.24206e-22)
(0.0368167 -0.00928907 4.62141e-21)
(0.0370497 -0.00936376 0)
(0.0372853 -0.00943316 -1.06068e-21)
(0.0375233 -0.00949739 0)
(0.0377636 -0.00955634 1.94459e-21)
(0.0380056 -0.00960986 -6.34433e-23)
(0.0382491 -0.00965786 -2.77537e-21)
(0.038494 -0.00970029 8.76813e-22)
(0.0387398 -0.00973711 8.45815e-22)
(0.0389866 -0.00976829 8.04876e-22)
(0.0392339 -0.00979383 0)
(0.0394817 -0.00981371 0)
(0.0397298 -0.00982796 -7.10417e-22)
(0.0399779 -0.00983659 -6.77583e-22)
(0.0402259 -0.00983965 1.24745e-21)
(0.0404735 -0.0098372 -1.24555e-21)
(0.0407207 -0.00982929 -1.14834e-21)
(0.0409671 -0.009816 1.05483e-21)
(0.0412127 -0.00979742 -2.06352e-21)
(0.0414573 -0.00977365 4.45713e-23)
(0.0417007 -0.0097448 9.12751e-22)
(0.0419429 -0.00971097 4.09482e-22)
(0.0421837 -0.00967231 7.49495e-22)
(0.0424229 -0.00962895 -7.51333e-22)
(0.0426604 -0.00958103 -6.32225e-22)
(0.0428962 -0.00952869 6.34521e-22)
(0.0431302 -0.00947209 0)
(0.0433623 -0.00941138 0)
(0.0435923 -0.00934673 -5.32403e-22)
(0.0438203 -0.00927831 4.18227e-23)
(0.0440463 -0.00920656 1.70591e-22)
(0.04427 -0.00913166 1.12702e-22)
(0.0444915 -0.00905383 -1.10827e-22)
(0.0447108 -0.00897327 0)
(0.0449279 -0.00889016 2.79962e-23)
(0.0451427 -0.00880472 5.22875e-24)
(0.0453552 -0.00871713 -3.66022e-24)
(0.0455655 -0.00862757 -3.09473e-24)
(0.0457734 -0.00853624 -2.40519e-24)
(0.0459791 -0.00844333 1.05604e-23)
(0.0461825 -0.00834905 1.23496e-23)
(0.0463836 -0.00825358 2.82329e-23)
(0.0465824 -0.00815714 -1.46707e-22)
(0.0467791 -0.00805997 1.23032e-24)
(0.0469735 -0.0079623 0)
(0.0471658 -0.0078644 -1.74561e-22)
(0.0473559 -0.00776653 5.31697e-22)
(0.0475439 -0.007669 -3.75409e-22)
(0.0477297 -0.00757212 -2.00674e-22)
(0.0479132 -0.00747626 -1.70373e-23)
(0.0480945 -0.0073818 -2.08184e-22)
(0.0482733 -0.00728919 -1.71406e-23)
(0.0484494 -0.00719894 4.3102e-22)
(0.0486222 -0.0071118 -4.65734e-22)
(0.0487905 -0.00702779 -4.55261e-22)
(0.0489543 -0.00694747 9.12038e-22)
(0.049113 -0.00687193 -1.60087e-23)
(0.0492658 -0.0068022 4.57874e-22)
(0.0494112 -0.00673921 -4.56482e-22)
(0.0495451 -0.00668334 4.28516e-22)
(0.0496606 -0.00663493 -8.30849e-22)
(0.0497537 -0.00659623 -4.00408e-22)
(0.0498388 -0.00657673 7.74549e-22)
(0.0499856 -0.00659671 -3.75605e-22)
(0.0503284 -0.00669129 -9.47469e-22)
(0.0510225 -0.00685073 -2.06123e-22)
(0.0516297 -0.00689322 0)
(0.0362154 -0.00954686 0)
(0.0364515 -0.0096328 -1.2183e-21)
(0.0366913 -0.00971329 5.27923e-24)
(0.0369337 -0.00978775 0)
(0.0371789 -0.0098565 0)
(0.0374268 -0.00991969 -1.05253e-21)
(0.0376771 -0.00997723 3.00427e-21)
(0.0379295 -0.010029 -3.89528e-21)
(0.0381835 -0.0100749 1.90817e-21)
(0.0384389 -0.0101149 -8.98894e-22)
(0.0386953 -0.010149 0)
(0.0389526 -0.0101772 -8.24835e-22)
(0.0392104 -0.0101993 7.78759e-22)
(0.0394685 -0.0102155 0)
(0.0397266 -0.0102258 0)
(0.0399846 -0.0102302 -6.4985e-22)
(0.0402422 -0.0102287 6.71689e-23)
(0.0404993 -0.0102214 1.24625e-21)
(0.0407555 -0.0102084 1.1282e-21)
(0.0410107 -0.0101898 -1.11026e-21)
(0.0412647 -0.0101656 -5.1408e-22)
(0.0415174 -0.0101361 -1.85591e-21)
(0.0417686 -0.0101013 3.41728e-23)
(0.0420181 -0.0100613 3.65878e-22)
(0.0422657 -0.0100164 -7.8556e-22)
(0.0425115 -0.00996664 3.26496e-22)
(0.0427552 -0.00991222 -6.61217e-22)
(0.0429968 -0.00985331 0)
(0.0432361 -0.00979007 0)
(0.0434731 -0.0097227 0)
(0.0437077 -0.00965136 1.03826e-22)
(0.0439398 -0.00957633 1.6278e-22)
(0.0441695 -0.00949798 -1.46345e-22)
(0.0443967 -0.00941652 -8.72626e-23)
(0.0446212 -0.00933216 8.5817e-23)
(0.0448432 -0.0092451 0)
(0.0450627 -0.00915557 -2.79374e-24)
(0.0452796 -0.00906375 1.21947e-24)
(0.0454939 -0.00896984 0)
(0.0457057 -0.00887405 1.33868e-23)
(0.045915 -0.00877655 -3.60683e-24)
(0.0461218 -0.00867756 2.60549e-24)
(0.0463261 -0.00857726 -1.25317e-23)
(0.0465281 -0.00847585 0)
(0.0467277 -0.00837354 -7.78032e-23)
(0.046925 -0.00827053 7.65652e-23)
(0.04712 -0.00816706 0)
(0.0473128 -0.00806333 -1.92866e-23)
(0.0475034 -0.00795958 4.16872e-24)
(0.0476918 -0.00785607 2.00108e-22)
(0.0478778 -0.00775304 0)
(0.0480614 -0.0076508 -2.35369e-23)
(0.0482424 -0.00754966 -2.24815e-22)
(0.0484203 -0.00745 -7.43661e-22)
(0.048595 -0.00735222 -3.20622e-23)
(0.0487655 -0.00725688 4.74129e-22)
(0.0489309 -0.0071642 0)
(0.0490914 -0.00707452 0)
(0.049246 -0.00698885 5.36701e-22)
(0.0493932 -0.00690799 0)
(0.0495295 -0.00683226 0)
(0.0496482 -0.00676165 -3.12375e-23)
(0.0497435 -0.0066975 -4.92111e-22)
(0.0498228 -0.00664615 -9.39901e-22)
(0.0499319 -0.00662486 9.14703e-22)
(0.050186 -0.00666104 -8.30904e-23)
(0.0507261 -0.00677874 3.5061e-22)
(0.0515287 -0.0069072 3.28888e-22)
(0.0516386 -0.00678638 0)
(0.0360681 -0.00999472 0)
(0.0363165 -0.0100814 1.25064e-21)
(0.0365681 -0.0101621 -3.58945e-21)
(0.0368218 -0.0102363 1.20057e-21)
(0.0370778 -0.0103043 0)
(0.0373364 -0.0103662 3.20084e-21)
(0.0375972 -0.010422 -5.18381e-21)
(0.03786 -0.0104716 7.29062e-23)
(0.0381244 -0.010515 4.76807e-21)
(0.0383902 -0.010552 -9.52996e-22)
(0.0386572 -0.0105828 8.66458e-22)
(0.0389249 -0.0106072 8.25738e-22)
(0.039193 -0.0106253 -2.34598e-21)
(0.0394614 -0.0106372 3.01359e-21)
(0.0397297 -0.0106428 -1.46603e-21)
(0.0399977 -0.0106422 6.34187e-22)
(0.040265 -0.0106354 -2.5597e-21)
(0.0405314 -0.0106226 6.48691e-22)
(0.0407968 -0.0106038 -5.22811e-22)
(0.0410609 -0.0105791 5.89914e-22)
(0.0413234 -0.0105488 6.94128e-23)
(0.0415843 -0.0105128 2.7669e-21)
(0.0418432 -0.0104714 3.69955e-22)
(0.0421001 -0.0104246 -6.77585e-23)
(0.0423548 -0.0103728 -1.10099e-21)
(0.0426071 -0.0103161 3.39944e-22)
(0.042857 -0.0102546 -5.576e-22)
(0.0431044 -0.0101885 8.07562e-22)
(0.0433491 -0.0101181 0)
(0.043591 -0.0100435 1.84471e-22)
(0.0438301 -0.00996498 -1.85397e-22)
(0.0440665 -0.00988282 1.53048e-23)
(0.0443 -0.00979738 4.39979e-23)
(0.0445305 -0.00970888 2.86065e-23)
(0.0447582 -0.00961754 -4.40706e-23)
(0.0449829 -0.00952359 2.96069e-23)
(0.0452049 -0.00942723 1.82226e-23)
(0.045424 -0.00932868 -3.54539e-23)
(0.0456402 -0.00922815 2.35912e-23)
(0.0458538 -0.00912583 -8.49302e-24)
(0.0460646 -0.00902192 0)
(0.0462728 -0.00891661 1.66825e-23)
(0.0464785 -0.0088101 -1.6418e-23)
(0.0466816 -0.00870256 -4.22164e-23)
(0.0468823 -0.00859418 1.33958e-22)
(0.0470807 -0.00848516 -9.37762e-23)
(0.0472767 -0.00837566 -9.82338e-23)
(0.0474704 -0.00826588 0)
(0.0476618 -0.00815598 -4.80614e-22)
(0.0478507 -0.00804617 4.80238e-22)
(0.0480371 -0.00793662 -2.35574e-22)
(0.0482207 -0.00782757 2.33787e-22)
(0.0484012 -0.00771925 2.67276e-22)
(0.0485782 -0.00761195 5.21981e-22)
(0.0487516 -0.00750611 5.2247e-22)
(0.0489202 -0.00740193 0)
(0.0490835 -0.00729981 -5.88736e-22)
(0.0492415 -0.00719999 0)
(0.0493922 -0.00710305 2.48906e-23)
(0.0495325 -0.00700923 -5.42992e-22)
(0.0496561 -0.00691833 5.70562e-22)
(0.0497562 -0.00683082 5.36209e-22)
(0.0498355 -0.00675134 -5.74809e-22)
(0.0499273 -0.00669312 -9.21286e-24)
(0.0501204 -0.00668154 3.865e-23)
(0.0505552 -0.00674229 1.35926e-21)
(0.0512821 -0.00686436 4.36679e-22)
(0.0518987 -0.00688861 3.21641e-22)
(0.0508697 -0.00651074 -3.31847e-22)
(0.0359154 -0.0104687 0)
(0.0361778 -0.0105561 0)
(0.0364433 -0.0106369 -2.45013e-21)
(0.0367104 -0.0107107 3.62912e-21)
(0.0369794 -0.0107778 1.14917e-21)
(0.0372504 -0.0108383 0)
(0.0375233 -0.0108922 0)
(0.0377977 -0.0109393 -1.00964e-21)
(0.0380735 -0.0109797 1.89943e-21)
(0.0383505 -0.0110134 -8.79383e-23)
(0.0386283 -0.0110403 -4.41637e-21)
(0.0389067 -0.0110604 8.72609e-22)
(0.0391855 -0.0110739 -7.67303e-22)
(0.0394643 -0.0110807 1.55102e-21)
(0.0397427 -0.0110809 -7.05815e-22)
(0.0400206 -0.0110746 0)
(0.0402977 -0.0110618 0)
(0.0405736 -0.0110427 3.55146e-23)
(0.0408482 -0.0110173 1.70027e-21)
(0.0411211 -0.0109858 -5.31664e-22)
(0.0413921 -0.0109484 4.70029e-22)
(0.0416611 -0.0109053 -4.58971e-22)
(0.0419278 -0.0108565 -3.89707e-22)
(0.0421921 -0.0108023 4.26144e-22)
(0.0424537 -0.0107428 3.53963e-22)
(0.0427127 -0.0106784 0)
(0.0429687 -0.0106091 0)
(0.0432218 -0.0105352 -3.64266e-22)
(0.0434718 -0.010457 0)
(0.0437187 -0.0103746 -1.56334e-22)
(0.0439624 -0.0102882 1.56828e-22)
(0.0442029 -0.0101984 6.09704e-23)
(0.0444401 -0.0101053 -4.45842e-23)
(0.0446741 -0.0100093 -4.13287e-23)
(0.0449049 -0.00991056 1.41601e-23)
(0.0451325 -0.0098093 -1.45405e-23)
(0.045357 -0.00970576 2.24543e-23)
(0.0455784 -0.00960016 0)
(0.0457967 -0.0094927 0)
(0.0460122 -0.00938359 1.62708e-23)
(0.0462248 -0.00927301 0)
(0.0464346 -0.00916115 0)
(0.0466417 -0.00904819 -6.9612e-23)
(0.0468463 -0.0089343 9.6917e-23)
(0.0470483 -0.00881962 -5.57534e-23)
(0.0472478 -0.00870432 1.04197e-22)
(0.0474449 -0.00858854 0)
(0.0476394 -0.00847239 3.89742e-22)
(0.0478315 -0.00835602 -5.89967e-24)
(0.0480209 -0.00823956 0)
(0.0482075 -0.00812312 -5.63333e-22)
(0.048391 -0.00800685 -8.96036e-24)
(0.048571 -0.00789088 -5.72132e-22)
(0.0487474 -0.00777547 -3.15388e-22)
(0.04892 -0.00766116 -6.17166e-22)
(0.0490877 -0.00754777 6.10339e-22)
(0.0492501 -0.00743548 6.0134e-22)
(0.0494058 -0.00732445 0)
(0.0495515 -0.00721454 -6.42371e-22)
(0.0496812 -0.00710533 2.65532e-23)
(0.0497881 -0.00699683 0)
(0.0498722 -0.00689211 0)
(0.0499582 -0.00680206 5.90255e-22)
(0.0501187 -0.00674783 0)
(0.050476 -0.0067574 0)
(0.0511237 -0.00683515 -5.57561e-22)
(0.0518579 -0.00690368 -4.43403e-22)
(0.0517201 -0.00670751 -4.58997e-22)
(0.04881 -0.00600969 0)
(0.0357569 -0.010971 0)
(0.0360344 -0.0110587 0)
(0.0363149 -0.0111395 0)
(0.0365969 -0.0112126 1.2263e-21)
(0.0368805 -0.0112785 1.13432e-21)
(0.0371659 -0.0113373 -8.39315e-23)
(0.0374526 -0.011389 -2.19958e-21)
(0.0377406 -0.0114334 1.0344e-21)
(0.0380294 -0.0114705 -9.76646e-22)
(0.0383189 -0.0115003 -1.87065e-21)
(0.0386089 -0.0115229 0)
(0.0388991 -0.0115383 0)
(0.0391893 -0.0115466 -3.91361e-23)
(0.0394791 -0.0115477 -2.29794e-21)
(0.0397682 -0.0115418 2.80775e-21)
(0.0400565 -0.011529 -8.06018e-23)
(0.0403436 -0.0115095 -1.29609e-21)
(0.0406292 -0.0114832 -5.98196e-22)
(0.040913 -0.0114505 -2.62881e-23)
(0.0411949 -0.0114114 0)
(0.0414745 -0.0113662 -9.31963e-22)
(0.0417516 -0.011315 0)
(0.0420261 -0.011258 -7.78995e-22)
(0.0422977 -0.0111954 1.03771e-21)
(0.0425663 -0.0111275 -9.69472e-22)
(0.0428317 -0.0110546 -2.62655e-22)
(0.0430938 -0.0109768 3.40508e-22)
(0.0433525 -0.0108944 -3.06935e-22)
(0.0436078 -0.0108076 1.92979e-22)
(0.0438595 -0.0107167 0)
(0.0441076 -0.010622 9.00805e-23)
(0.0443522 -0.0105238 -6.33965e-24)
(0.0445931 -0.0104226 -5.50299e-23)
(0.0448305 -0.0103186 6.78647e-24)
(0.0450643 -0.010212 1.82261e-23)
(0.0452947 -0.0101029 -1.79322e-23)
(0.0455217 -0.00999182 -1.49994e-23)
(0.0457454 -0.00987878 3.01244e-23)
(0.0459659 -0.00976404 1.6557e-23)
(0.0461832 -0.0096478 -5.05235e-23)
(0.0463975 -0.00953024 -5.85256e-24)
(0.0466089 -0.00941153 0)
(0.0468175 -0.00929183 2.40273e-23)
(0.0470233 -0.00917128 -5.24614e-23)
(0.0472264 -0.00905001 5.65727e-23)
(0.0474269 -0.00892813 0)
(0.0476247 -0.00880575 0)
(0.0478199 -0.00868295 1.57514e-22)
(0.0480125 -0.00855981 -2.87317e-22)
(0.0482021 -0.0084364 -6.35131e-22)
(0.0483889 -0.00831276 1.26169e-21)
(0.0485723 -0.00818895 -3.37368e-22)
(0.0487523 -0.00806508 3.24e-22)
(0.0489289 -0.00794135 3.20854e-22)
(0.049102 -0.00781831 -6.88011e-22)
(0.0492698 -0.00769525 6.82309e-22)
(0.0494315 -0.00757192 0)
(0.0495836 -0.00744804 -7.46299e-22)
(0.0497205 -0.00732279 3.30936e-23)
(0.0498355 -0.0071957 7.20411e-22)
(0.0499273 -0.00706898 0)
(0.0500164 -0.00695138 0)
(0.0501633 -0.00686172 0)
(0.0504771 -0.00682506 1.3871e-21)
(0.0510575 -0.00685627 6.51467e-22)
(0.0518142 -0.00690875 5.24525e-22)
(0.0520965 -0.00681497 -1.11681e-21)
(0.0503978 -0.00628855 -8.19596e-23)
(0.0450853 -0.00522238 5.40019e-22)
(0.0355942 -0.0115042 0)
(0.0358873 -0.0115919 2.68835e-21)
(0.0361834 -0.0116721 -3.32229e-21)
(0.0364812 -0.0117442 1.83667e-21)
(0.0367805 -0.0118085 -3.64793e-21)
(0.0370813 -0.0118652 -1.14404e-21)
(0.0373834 -0.0119141 -1.09045e-21)
(0.0376863 -0.0119553 0)
(0.0379897 -0.0119887 1.98587e-21)
(0.0382934 -0.0120142 1.8594e-21)
(0.0385971 -0.012032 -1.83356e-21)
(0.0389005 -0.012042 8.3515e-22)
(0.0392034 -0.0120444 -7.45175e-22)
(0.0395054 -0.0120393 8.49062e-22)
(0.0398063 -0.0120267 2.79823e-21)
(0.0401058 -0.0120067 -8.54521e-23)
(0.0404037 -0.0119796 -8.46413e-23)
(0.0406996 -0.0119455 -1.1869e-21)
(0.0409932 -0.0119046 -5.4351e-22)
(0.0412844 -0.011857 -9.34239e-22)
(0.0415728 -0.0118031 9.65813e-22)
(0.0418584 -0.0117429 0)
(0.0421407 -0.0116769 3.48737e-23)
(0.0424197 -0.0116051 0)
(0.0426952 -0.011528 3.05337e-22)
(0.0429671 -0.0114457 2.67984e-22)
(0.0432352 -0.0113585 -1.15615e-22)
(0.0434995 -0.0112668 0)
(0.0437599 -0.0111707 -5.97242e-23)
(0.0440162 -0.0110706 -8.74441e-23)
(0.0442686 -0.0109668 8.666e-23)
(0.0445171 -0.0108598 -2.66361e-23)
(0.0447615 -0.0107498 -1.49225e-23)
(0.0450021 -0.0106372 4.33601e-23)
(0.0452388 -0.0105221 -2.25241e-23)
(0.0454718 -0.0104049 0)
(0.0457011 -0.0102857 -3.38393e-23)
(0.0459268 -0.0101648 9.54342e-24)
(0.0461491 -0.0100423 6.24008e-23)
(0.046368 -0.00991857 -5.58592e-23)
(0.0465838 -0.00979366 1.10599e-23)
(0.0467964 -0.00966774 -4.51655e-23)
(0.047006 -0.00954096 2.9323e-23)
(0.0472127 -0.00941344 0)
(0.0474165 -0.00928527 0)
(0.0476176 -0.00915655 0)
(0.0478159 -0.00902733 1.62974e-22)
(0.0480116 -0.00889765 1.69287e-22)
(0.0482044 -0.00876754 0)
(0.0483944 -0.00863699 3.37082e-22)
(0.0485814 -0.00850599 3.78541e-22)
(0.0487654 -0.00837453 3.78192e-22)
(0.0489463 -0.00824279 0)
(0.0491248 -0.00811088 0)
(0.0492993 -0.00797862 -7.66828e-22)
(0.0494672 -0.00784502 7.62569e-22)
(0.0496263 -0.00770916 0)
(0.0497708 -0.00757021 7.64136e-22)
(0.0498945 -0.0074272 -7.72687e-22)
(0.0499962 -0.00728163 -8.53445e-22)
(0.0500939 -0.00714115 8.11857e-22)
(0.0502421 -0.00702247 -8.13849e-22)
(0.050538 -0.00694902 0)
(0.051081 -0.00693678 -7.39188e-22)
(0.0518279 -0.00696081 1.85672e-23)
(0.0523272 -0.00689335 -1.49287e-21)
(0.0513941 -0.00649875 -1.38727e-21)
(0.0473996 -0.00555554 1.31209e-21)
(0.0398701 -0.00418537 -5.87355e-22)
(0.0354288 -0.0120714 7.23721e-22)
(0.0357383 -0.0121587 0)
(0.0360508 -0.0122379 6.71283e-22)
(0.036365 -0.0123083 -3.15824e-21)
(0.0366807 -0.0123704 5.51575e-21)
(0.0369978 -0.0124243 -1.21082e-21)
(0.037316 -0.01247 1.11687e-21)
(0.0376348 -0.0125073 -2.06309e-21)
(0.037954 -0.0125362 1.04123e-21)
(0.038273 -0.0125568 9.56608e-22)
(0.0385916 -0.012569 8.82827e-22)
(0.0389096 -0.012573 -2.49442e-21)
(0.0392264 -0.0125688 8.53772e-22)
(0.0395419 -0.0125566 -2.16801e-21)
(0.0398558 -0.0125364 -6.15967e-22)
(0.0401677 -0.0125085 9.05394e-23)
(0.0404773 -0.0124731 1.24352e-21)
(0.0407843 -0.0124302 0)
(0.0410886 -0.0123802 0)
(0.0413897 -0.0123233 4.44087e-22)
(0.0416876 -0.0122597 4.37468e-22)
(0.0419819 -0.0121898 7.13528e-22)
(0.0422725 -0.0121137 -3.59011e-22)
(0.0425591 -0.0120319 -5.49296e-22)
(0.0428417 -0.0119446 5.49565e-22)
(0.0431201 -0.011852 -9.62997e-23)
(0.0433942 -0.0117547 -7.67334e-23)
(0.043664 -0.0116527 0)
(0.0439293 -0.0115466 6.08559e-23)
(0.0441902 -0.0114365 4.56381e-23)
(0.0444467 -0.0113229 -3.55331e-23)
(0.0446987 -0.0112063 -9.29839e-24)
(0.0449464 -0.0110869 -3.22259e-23)
(0.0451898 -0.010965 0)
(0.045429 -0.010841 3.1265e-23)
(0.0456641 -0.0107149 -3.82123e-23)
(0.0458953 -0.0105871 3.42565e-23)
(0.0461227 -0.0104579 -9.14971e-23)
(0.0463463 -0.0103273 0)
(0.0465664 -0.0101956 -1.55505e-23)
(0.0467831 -0.010063 1.55889e-23)
(0.0469964 -0.00992951 -2.83613e-23)
(0.0472067 -0.00979535 1.08701e-22)
(0.0474138 -0.00966058 -2.30143e-22)
(0.0476181 -0.0095253 1.54583e-22)
(0.0478195 -0.00938955 1.7196e-22)
(0.0480182 -0.00925336 -1.50847e-22)
(0.0482142 -0.00911671 3.87978e-22)
(0.0484075 -0.00897956 -3.64092e-22)
(0.0485982 -0.00884184 -9.58275e-22)
(0.0487862 -0.00870352 9.63668e-24)
(0.0489718 -0.00856468 -3.84428e-22)
(0.0491555 -0.00842537 0)
(0.0493366 -0.00828529 0)
(0.0495114 -0.00814285 -8.55545e-22)
(0.049677 -0.00799697 1.27342e-21)
(0.0498289 -0.00784642 -8.70378e-22)
(0.0499614 -0.00769025 0)
(0.0500742 -0.00752929 9.51428e-22)
(0.0501849 -0.00737033 1.79482e-21)
(0.0503454 -0.00722924 -8.71254e-22)
(0.0506446 -0.00712799 7.10659e-24)
(0.0511757 -0.00708234 9.16111e-22)
(0.0519172 -0.00707476 -6.92214e-23)
(0.0525193 -0.00701144 -1.73111e-21)
(0.0520535 -0.00668313 1.66748e-21)
(0.0490384 -0.00587283 7.9449e-22)
(0.0425663 -0.00452469 0)
(0.0336276 -0.00303877 0)
(0.0352623 -0.012676 -7.42056e-22)
(0.0355891 -0.0127624 -3.5256e-21)
(0.0359191 -0.01284 2.78833e-21)
(0.0362505 -0.0129082 0)
(0.0365834 -0.0129675 6.24053e-22)
(0.0369176 -0.013018 2.31076e-21)
(0.0372528 -0.0130596 -1.73903e-21)
(0.0375883 -0.0130922 2.59779e-21)
(0.0379239 -0.0131158 -2.05928e-21)
(0.0382591 -0.0131305 0)
(0.0385936 -0.0131363 -4.6495e-22)
(0.0389269 -0.0131333 0)
(0.0392587 -0.0131216 -7.18652e-22)
(0.0395887 -0.0131014 2.25153e-21)
(0.0399164 -0.0130727 0)
(0.0402416 -0.0130358 0)
(0.0405638 -0.012991 0)
(0.0408829 -0.0129384 7.56569e-22)
(0.0411985 -0.0128782 -1.00754e-21)
(0.0415103 -0.0128109 -4.53181e-22)
(0.0418182 -0.0127367 0)
(0.0421218 -0.0126559 0)
(0.042421 -0.0125689 0)
(0.0427156 -0.0124759 5.88561e-22)
(0.0430055 -0.0123774 -6.66955e-22)
(0.0432905 -0.0122737 2.92855e-22)
(0.0435707 -0.0121652 1.32225e-22)
(0.0438458 -0.0120522 -7.4766e-23)