/*--------------------------------*- C++ -*----------------------------------*\
| =========                 |                                                 |
| \\      /  F ield         | OpenFOAM: The Open Source CFD Toolbox           |
|  \\    /   O peration     | Version:  2312                                  |
|   \\  /    A nd           | Website:  www.openfoam.com                      |
|    \\/     M anipulation  |                                                 |
\*---------------------------------------------------------------------------*/
FoamFile
{
    version     2.0;
    format      ascii;
    arch        "LSB;label=32;scalar=64";
    class       volScalarField;
    location    "1100";
    object      k;
}
// * * * * * * * * * * * * * * * * * * * * * * * * * * * * * * * * * * * * * //

dimensions      [0 2 -2 0 0 0 0];

internalField   nonuniform List<scalar> 
76025
(
4.80976e-06
4.81335e-06
4.81733e-06
4.82039e-06
4.82281e-06
4.82302e-06
4.82265e-06
4.82462e-06
4.82641e-06
4.82899e-06
4.83074e-06
4.8329e-06
4.83586e-06
4.83907e-06
4.84347e-06
4.84782e-06
4.85163e-06
4.85582e-06
4.85856e-06
4.86202e-06
4.86493e-06
4.86814e-06
4.87032e-06
4.87313e-06
4.87555e-06
4.87872e-06
4.88227e-06
4.88506e-06
4.89023e-06
4.89462e-06
4.89911e-06
4.90392e-06
4.90706e-06
4.91181e-06
4.91592e-06
4.92119e-06
4.92772e-06
4.93401e-06
4.94189e-06
4.94959e-06
4.95909e-06
4.97045e-06
4.98306e-06
4.99846e-06
5.01543e-06
5.03422e-06
5.05489e-06
5.07744e-06
5.10489e-06
5.13382e-06
5.16767e-06
5.20116e-06
5.23917e-06
5.27534e-06
5.32656e-06
5.37613e-06
5.43823e-06
5.50431e-06
5.58103e-06
5.66227e-06
5.74675e-06
5.84019e-06
5.95186e-06
6.04698e-06
6.18148e-06
6.31077e-06
6.5067e-06
6.61056e-06
6.90591e-06
4.83789e-06
4.83999e-06
4.84248e-06
4.84538e-06
4.84812e-06
4.85078e-06
4.85263e-06
4.85473e-06
4.85647e-06
4.85854e-06
4.86039e-06
4.86237e-06
4.86451e-06
4.86701e-06
4.87005e-06
4.87361e-06
4.87722e-06
4.88089e-06
4.88422e-06
4.88732e-06
4.89022e-06
4.89322e-06
4.89605e-06
4.89902e-06
4.90214e-06
4.90537e-06
4.9091e-06
4.91287e-06
4.91732e-06
4.92201e-06
4.92699e-06
4.93176e-06
4.9368e-06
4.94208e-06
4.94816e-06
4.95493e-06
4.96257e-06
4.97096e-06
4.98053e-06
4.991e-06
5.00381e-06
5.0181e-06
5.03474e-06
5.05229e-06
5.07188e-06
5.09256e-06
5.11631e-06
5.14293e-06
5.1729e-06
5.20382e-06
5.2358e-06
5.26885e-06
5.30498e-06
5.34745e-06
5.3968e-06
5.45381e-06
5.51895e-06
5.59057e-06
5.66953e-06
5.75201e-06
5.84348e-06
5.94052e-06
6.04625e-06
6.16244e-06
6.3055e-06
6.43529e-06
6.63069e-06
6.78588e-06
7.18172e-06
4.87526e-06
4.87578e-06
4.87639e-06
4.8774e-06
4.87856e-06
4.88012e-06
4.88177e-06
4.88361e-06
4.88553e-06
4.8875e-06
4.88978e-06
4.89237e-06
4.89477e-06
4.89675e-06
4.89881e-06
4.90118e-06
4.90401e-06
4.90709e-06
4.91037e-06
4.91369e-06
4.91702e-06
4.92047e-06
4.92403e-06
4.9277e-06
4.93166e-06
4.93575e-06
4.94026e-06
4.94506e-06
4.95032e-06
4.95587e-06
4.96193e-06
4.96822e-06
4.97517e-06
4.98266e-06
4.99095e-06
4.99996e-06
5.00984e-06
5.02036e-06
5.03211e-06
5.04484e-06
5.05947e-06
5.07537e-06
5.09327e-06
5.11258e-06
5.13471e-06
5.15887e-06
5.18675e-06
5.21538e-06
5.24518e-06
5.27351e-06
5.30432e-06
5.33699e-06
5.37752e-06
5.42361e-06
5.47916e-06
5.5398e-06
5.60812e-06
5.68013e-06
5.7586e-06
5.84123e-06
5.93259e-06
6.02861e-06
6.13859e-06
6.25328e-06
6.38829e-06
6.53135e-06
6.74221e-06
6.89321e-06
7.33709e-06
4.91145e-06
4.91304e-06
4.91425e-06
4.91522e-06
4.916e-06
4.91679e-06
4.91769e-06
4.91879e-06
4.92015e-06
4.92166e-06
4.92363e-06
4.92588e-06
4.92855e-06
4.93127e-06
4.93374e-06
4.93587e-06
4.93798e-06
4.94031e-06
4.943e-06
4.9461e-06
4.94958e-06
4.95343e-06
4.95767e-06
4.96221e-06
4.96712e-06
4.97227e-06
4.97776e-06
4.9836e-06
4.98987e-06
4.99658e-06
5.00383e-06
5.01162e-06
5.0201e-06
5.02929e-06
5.03913e-06
5.04976e-06
5.06107e-06
5.07303e-06
5.0863e-06
5.10032e-06
5.11619e-06
5.13352e-06
5.15306e-06
5.17498e-06
5.19974e-06
5.22653e-06
5.25518e-06
5.28295e-06
5.311e-06
5.33979e-06
5.37313e-06
5.41177e-06
5.45826e-06
5.5105e-06
5.56989e-06
5.63312e-06
5.70224e-06
5.77469e-06
5.85321e-06
5.93647e-06
6.02818e-06
6.1286e-06
6.24182e-06
6.36571e-06
6.5112e-06
6.67635e-06
6.86997e-06
7.06054e-06
7.81183e-06
4.94487e-06
4.94775e-06
4.95028e-06
4.95242e-06
4.9542e-06
4.95574e-06
4.95709e-06
4.95831e-06
4.95958e-06
4.96092e-06
4.96252e-06
4.96434e-06
4.96653e-06
4.96894e-06
4.97142e-06
4.97377e-06
4.97611e-06
4.97864e-06
4.98143e-06
4.98467e-06
4.98833e-06
4.99252e-06
4.99727e-06
5.0025e-06
5.00836e-06
5.01458e-06
5.02137e-06
5.02848e-06
5.03607e-06
5.04402e-06
5.05239e-06
5.06121e-06
5.07061e-06
5.08059e-06
5.09121e-06
5.10269e-06
5.11487e-06
5.12806e-06
5.14267e-06
5.15831e-06
5.17609e-06
5.19556e-06
5.21743e-06
5.24155e-06
5.26754e-06
5.29433e-06
5.32192e-06
5.34918e-06
5.37927e-06
5.41275e-06
5.45279e-06
5.49786e-06
5.54989e-06
5.60561e-06
5.66729e-06
5.73147e-06
5.80166e-06
5.87412e-06
5.95334e-06
6.03604e-06
6.12852e-06
6.22862e-06
6.34595e-06
6.47793e-06
6.62227e-06
6.80158e-06
6.99874e-06
7.26132e-06
8.65737e-06
4.98025e-06
4.98349e-06
4.98674e-06
4.98982e-06
4.9927e-06
4.99539e-06
4.9979e-06
5.00021e-06
5.00228e-06
5.00419e-06
5.00606e-06
5.00796e-06
5.00998e-06
5.01214e-06
5.01438e-06
5.01668e-06
5.01906e-06
5.02172e-06
5.02474e-06
5.02827e-06
5.03236e-06
5.03696e-06
5.04217e-06
5.04783e-06
5.05417e-06
5.06095e-06
5.06847e-06
5.0764e-06
5.08496e-06
5.09388e-06
5.10325e-06
5.11295e-06
5.12326e-06
5.1339e-06
5.14548e-06
5.15779e-06
5.17108e-06
5.18573e-06
5.20152e-06
5.21908e-06
5.23845e-06
5.2595e-06
5.28271e-06
5.30712e-06
5.33269e-06
5.3587e-06
5.3866e-06
5.41751e-06
5.45375e-06
5.49471e-06
5.54145e-06
5.59202e-06
5.64765e-06
5.70597e-06
5.76935e-06
5.83511e-06
5.90636e-06
5.97993e-06
6.06044e-06
6.14443e-06
6.2401e-06
6.34217e-06
6.4666e-06
6.60469e-06
6.76337e-06
6.9449e-06
7.23404e-06
7.63319e-06
1.0716e-05
5.0224e-06
5.02492e-06
5.02783e-06
5.03088e-06
5.03405e-06
5.03722e-06
5.0404e-06
5.04357e-06
5.0467e-06
5.04979e-06
5.05289e-06
5.05597e-06
5.05905e-06
5.06209e-06
5.06508e-06
5.06802e-06
5.0709e-06
5.07392e-06
5.07717e-06
5.08085e-06
5.08506e-06
5.08984e-06
5.09526e-06
5.10121e-06
5.10785e-06
5.11491e-06
5.12268e-06
5.13087e-06
5.13969e-06
5.14893e-06
5.15873e-06
5.16904e-06
5.18004e-06
5.19173e-06
5.20437e-06
5.218e-06
5.23284e-06
5.24885e-06
5.26627e-06
5.28526e-06
5.30584e-06
5.32803e-06
5.35159e-06
5.37663e-06
5.40356e-06
5.4333e-06
5.46679e-06
5.50458e-06
5.54693e-06
5.59319e-06
5.64346e-06
5.6969e-06
5.75424e-06
5.8144e-06
5.8793e-06
5.94692e-06
6.0201e-06
6.0962e-06
6.17943e-06
6.26694e-06
6.36675e-06
6.47326e-06
6.60405e-06
6.74522e-06
6.91423e-06
7.0874e-06
7.59931e-06
8.47238e-06
1.63929e-05
5.07194e-06
5.07382e-06
5.0761e-06
5.07867e-06
5.08161e-06
5.0848e-06
5.08815e-06
5.09162e-06
5.09512e-06
5.09868e-06
5.10228e-06
5.10603e-06
5.10982e-06
5.11371e-06
5.11761e-06
5.12159e-06
5.12554e-06
5.12964e-06
5.13386e-06
5.13832e-06
5.14306e-06
5.14817e-06
5.1538e-06
5.15992e-06
5.16672e-06
5.17408e-06
5.1822e-06
5.19096e-06
5.20045e-06
5.21056e-06
5.22132e-06
5.23275e-06
5.24495e-06
5.25801e-06
5.27201e-06
5.28712e-06
5.30333e-06
5.32078e-06
5.33943e-06
5.35962e-06
5.38116e-06
5.40459e-06
5.42983e-06
5.45785e-06
5.48862e-06
5.52325e-06
5.56134e-06
5.60368e-06
5.64959e-06
5.69925e-06
5.75195e-06
5.80782e-06
5.86705e-06
5.92974e-06
5.99711e-06
6.06815e-06
6.14482e-06
6.2252e-06
6.31306e-06
6.40586e-06
6.51232e-06
6.62471e-06
6.76664e-06
6.90516e-06
7.09968e-06
7.2749e-06
8.32401e-06
1.09525e-05
3.04511e-05
5.12925e-06
5.13112e-06
5.13317e-06
5.13542e-06
5.13792e-06
5.14083e-06
5.14404e-06
5.14758e-06
5.15144e-06
5.15552e-06
5.15983e-06
5.16437e-06
5.16908e-06
5.17392e-06
5.17879e-06
5.18377e-06
5.18882e-06
5.19395e-06
5.1993e-06
5.20486e-06
5.21075e-06
5.21691e-06
5.2234e-06
5.23016e-06
5.23732e-06
5.24491e-06
5.25311e-06
5.26201e-06
5.27176e-06
5.28248e-06
5.2942e-06
5.30703e-06
5.32091e-06
5.33592e-06
5.35189e-06
5.36899e-06
5.38697e-06
5.40614e-06
5.42635e-06
5.44819e-06
5.47143e-06
5.49707e-06
5.52478e-06
5.55589e-06
5.58969e-06
5.62763e-06
5.66857e-06
5.71387e-06
5.76214e-06
5.81433e-06
5.86912e-06
5.92751e-06
5.98952e-06
6.05592e-06
6.12742e-06
6.20338e-06
6.28512e-06
6.37154e-06
6.46547e-06
6.56617e-06
6.68034e-06
6.80417e-06
6.95524e-06
7.09868e-06
7.37207e-06
7.53209e-06
9.91323e-06
1.76737e-05
5.59989e-05
5.19146e-06
5.19381e-06
5.19623e-06
5.19868e-06
5.20123e-06
5.20401e-06
5.20709e-06
5.21045e-06
5.21425e-06
5.21836e-06
5.22279e-06
5.22744e-06
5.23239e-06
5.23755e-06
5.24298e-06
5.24867e-06
5.25474e-06
5.26107e-06
5.26773e-06
5.27474e-06
5.28203e-06
5.28967e-06
5.29752e-06
5.30559e-06
5.31395e-06
5.32259e-06
5.33178e-06
5.34165e-06
5.35234e-06
5.36401e-06
5.37687e-06
5.39118e-06
5.40692e-06
5.4241e-06
5.44234e-06
5.46164e-06
5.48161e-06
5.50264e-06
5.52451e-06
5.54805e-06
5.57295e-06
5.60056e-06
5.63028e-06
5.66376e-06
5.69986e-06
5.74047e-06
5.78381e-06
5.83186e-06
5.88265e-06
5.9379e-06
5.99593e-06
6.05831e-06
6.12489e-06
6.1965e-06
6.27345e-06
6.35527e-06
6.44335e-06
6.53684e-06
6.63876e-06
6.74931e-06
6.87431e-06
7.01595e-06
7.17819e-06
7.35201e-06
7.79469e-06
8.04221e-06
1.35393e-05
3.22721e-05
0.000100035
5.26051e-06
5.2635e-06
5.26652e-06
5.26958e-06
5.27266e-06
5.27595e-06
5.27939e-06
5.28306e-06
5.28703e-06
5.2914e-06
5.29617e-06
5.30135e-06
5.30684e-06
5.31271e-06
5.31881e-06
5.32526e-06
5.33206e-06
5.33922e-06
5.34672e-06
5.35459e-06
5.36283e-06
5.37129e-06
5.38014e-06
5.3892e-06
5.39861e-06
5.40841e-06
5.41879e-06
5.42986e-06
5.44182e-06
5.45483e-06
5.46914e-06
5.485e-06
5.50238e-06
5.52126e-06
5.54125e-06
5.56236e-06
5.58416e-06
5.60712e-06
5.6309e-06
5.65647e-06
5.68339e-06
5.71325e-06
5.74519e-06
5.78124e-06
5.81986e-06
5.86337e-06
5.9095e-06
5.96087e-06
6.01503e-06
6.07437e-06
6.13682e-06
6.20429e-06
6.27627e-06
6.35354e-06
6.43655e-06
6.52499e-06
6.62065e-06
6.72257e-06
6.83503e-06
6.95852e-06
7.10217e-06
7.26866e-06
7.46375e-06
7.6928e-06
8.50485e-06
9.42755e-06
2.11433e-05
5.79954e-05
0.000150449
5.33585e-06
5.33916e-06
5.34268e-06
5.34627e-06
5.35002e-06
5.35396e-06
5.35812e-06
5.36244e-06
5.36695e-06
5.37176e-06
5.37686e-06
5.38242e-06
5.38823e-06
5.39443e-06
5.40087e-06
5.40749e-06
5.41445e-06
5.42165e-06
5.42921e-06
5.43712e-06
5.44549e-06
5.45425e-06
5.46356e-06
5.47339e-06
5.48382e-06
5.49502e-06
5.50708e-06
5.52009e-06
5.53429e-06
5.54978e-06
5.56681e-06
5.58535e-06
5.60531e-06
5.62663e-06
5.64904e-06
5.67252e-06
5.69666e-06
5.7219e-06
5.74779e-06
5.77544e-06
5.80438e-06
5.83649e-06
5.87079e-06
5.90964e-06
5.95121e-06
5.99813e-06
6.04775e-06
6.10324e-06
6.16148e-06
6.22561e-06
6.29307e-06
6.36608e-06
6.44371e-06
6.52701e-06
6.61725e-06
6.71348e-06
6.81844e-06
6.93077e-06
7.05821e-06
7.20094e-06
7.37977e-06
7.57113e-06
7.88159e-06
8.14897e-06
9.82969e-06
1.28944e-05
3.66748e-05
9.99739e-05
0.000186383
5.42465e-06
5.42823e-06
5.43203e-06
5.43588e-06
5.43991e-06
5.44422e-06
5.44874e-06
5.45353e-06
5.4585e-06
5.46373e-06
5.46921e-06
5.47506e-06
5.48117e-06
5.48768e-06
5.4944e-06
5.50148e-06
5.50882e-06
5.51654e-06
5.52477e-06
5.53342e-06
5.5428e-06
5.55285e-06
5.5635e-06
5.57529e-06
5.58751e-06
5.60117e-06
5.61555e-06
5.63119e-06
5.64786e-06
5.66571e-06
5.68482e-06
5.70506e-06
5.72656e-06
5.74936e-06
5.77318e-06
5.79784e-06
5.82292e-06
5.84894e-06
5.87562e-06
5.90446e-06
5.93514e-06
5.96976e-06
6.00718e-06
6.04983e-06
6.09543e-06
6.1469e-06
6.20103e-06
6.26149e-06
6.3245e-06
6.39403e-06
6.46681e-06
6.54599e-06
6.63018e-06
6.72102e-06
6.8195e-06
6.92432e-06
7.04035e-06
7.16753e-06
7.31754e-06
7.49503e-06
7.72097e-06
7.9492e-06
8.46708e-06
8.83777e-06
1.2741e-05
2.12201e-05
6.51601e-05
0.000152709
0.000208996
5.52329e-06
5.52761e-06
5.532e-06
5.53636e-06
5.54075e-06
5.54538e-06
5.55017e-06
5.55522e-06
5.56053e-06
5.56606e-06
5.57196e-06
5.5782e-06
5.58483e-06
5.59192e-06
5.5994e-06
5.60737e-06
5.6158e-06
5.6247e-06
5.63425e-06
5.6443e-06
5.6551e-06
5.66658e-06
5.67873e-06
5.6917e-06
5.70533e-06
5.71989e-06
5.73522e-06
5.7514e-06
5.76839e-06
5.78623e-06
5.80492e-06
5.82459e-06
5.84519e-06
5.86701e-06
5.88994e-06
5.91439e-06
5.94036e-06
5.96865e-06
5.9991e-06
6.03298e-06
6.06961e-06
6.11065e-06
6.15458e-06
6.20355e-06
6.25511e-06
6.31237e-06
6.3719e-06
6.43789e-06
6.50622e-06
6.58175e-06
6.66031e-06
6.7467e-06
6.83809e-06
6.93695e-06
7.04406e-06
7.16019e-06
7.29317e-06
7.44577e-06
7.63087e-06
7.86191e-06
8.12374e-06
8.44641e-06
9.40383e-06
1.03164e-05
1.95137e-05
4.06885e-05
0.000110953
0.000190614
0.000221518
5.63633e-06
5.64176e-06
5.64712e-06
5.65235e-06
5.65744e-06
5.66261e-06
5.66784e-06
5.67321e-06
5.67878e-06
5.68457e-06
5.69068e-06
5.69717e-06
5.70405e-06
5.71145e-06
5.71928e-06
5.72769e-06
5.73661e-06
5.74611e-06
5.75619e-06
5.76687e-06
5.77815e-06
5.7901e-06
5.80266e-06
5.81591e-06
5.82986e-06
5.84461e-06
5.86015e-06
5.87656e-06
5.89389e-06
5.91222e-06
5.93168e-06
5.95242e-06
5.97456e-06
5.9984e-06
6.02401e-06
6.05183e-06
6.082e-06
6.11506e-06
6.15084e-06
6.19017e-06
6.23234e-06
6.27863e-06
6.32774e-06
6.3815e-06
6.43797e-06
6.49993e-06
6.56459e-06
6.63587e-06
6.70978e-06
6.79146e-06
6.8767e-06
6.97107e-06
7.07061e-06
7.17953e-06
7.29939e-06
7.43506e-06
7.59711e-06
7.78817e-06
8.0199e-06
8.31474e-06
8.65421e-06
9.25776e-06
1.12808e-05
1.47857e-05
3.41907e-05
7.62752e-05
0.000158764
0.000211453
0.000226518
5.76031e-06
5.76667e-06
5.77301e-06
5.7792e-06
5.78521e-06
5.79119e-06
5.79715e-06
5.80312e-06
5.80919e-06
5.81539e-06
5.82184e-06
5.82858e-06
5.8357e-06
5.84326e-06
5.85132e-06
5.85991e-06
5.8691e-06
5.87887e-06
5.88929e-06
5.90033e-06
5.91206e-06
5.92446e-06
5.93761e-06
5.95148e-06
5.96626e-06
5.98191e-06
5.99862e-06
6.01635e-06
6.03536e-06
6.05564e-06
6.07748e-06
6.10089e-06
6.12622e-06
6.15351e-06
6.18305e-06
6.21503e-06
6.24976e-06
6.28734e-06
6.32787e-06
6.37172e-06
6.41857e-06
6.46927e-06
6.52311e-06
6.58137e-06
6.64299e-06
6.71e-06
6.78067e-06
6.85785e-06
6.9387e-06
7.028e-06
7.12184e-06
7.22558e-06
7.33591e-06
7.46057e-06
7.60278e-06
7.77268e-06
7.97824e-06
8.22131e-06
8.51214e-06
8.95048e-06
9.5215e-06
1.14665e-05
1.5841e-05
2.85578e-05
6.18519e-05
0.000128232
0.000186009
0.000220601
0.000224897
5.90726e-06
5.91418e-06
5.92115e-06
5.92797e-06
5.93467e-06
5.94134e-06
5.948e-06
5.95467e-06
5.9614e-06
5.96823e-06
5.97525e-06
5.9825e-06
5.99009e-06
5.99804e-06
6.00645e-06
6.01536e-06
6.02483e-06
6.03491e-06
6.04565e-06
6.05709e-06
6.06928e-06
6.08227e-06
6.09612e-06
6.11088e-06
6.12675e-06
6.14372e-06
6.16202e-06
6.18164e-06
6.20288e-06
6.2257e-06
6.25045e-06
6.27701e-06
6.30584e-06
6.3367e-06
6.37014e-06
6.40605e-06
6.44488e-06
6.4865e-06
6.53126e-06
6.57919e-06
6.63053e-06
6.68554e-06
6.74439e-06
6.80754e-06
6.87515e-06
6.94797e-06
7.02579e-06
7.10994e-06
7.19941e-06
7.29732e-06
7.40124e-06
7.51809e-06
7.64785e-06
7.80224e-06
7.98237e-06
8.21101e-06
8.46777e-06
8.77239e-06
9.15181e-06
1.01705e-05
1.17056e-05
1.75953e-05
2.91711e-05
5.89673e-05
0.000109968
0.000156807
0.000197698
0.000220496
0.000218872
6.07456e-06
6.08219e-06
6.0899e-06
6.09746e-06
6.10491e-06
6.11233e-06
6.11974e-06
6.12713e-06
6.13458e-06
6.1421e-06
6.14981e-06
6.1577e-06
6.16593e-06
6.1745e-06
6.18353e-06
6.19305e-06
6.20319e-06
6.21397e-06
6.2255e-06
6.23781e-06
6.25104e-06
6.26519e-06
6.28043e-06
6.29681e-06
6.31455e-06
6.33363e-06
6.35432e-06
6.37652e-06
6.40058e-06
6.42634e-06
6.4542e-06
6.48397e-06
6.51613e-06
6.55039e-06
6.58744e-06
6.62704e-06
6.66972e-06
6.71531e-06
6.7643e-06
6.81664e-06
6.87283e-06
6.93293e-06
6.99759e-06
7.06685e-06
7.14148e-06
7.22152e-06
7.30752e-06
7.39993e-06
7.49961e-06
7.60982e-06
7.733e-06
7.87733e-06
8.04357e-06
8.24662e-06
8.48583e-06
8.77983e-06
9.04696e-06
9.57953e-06
1.0334e-05
1.30802e-05
1.80169e-05
3.16967e-05
5.90881e-05
9.76209e-05
0.00013068
0.000167018
0.000199536
0.000214521
0.000207938
6.27327e-06
6.28144e-06
6.28967e-06
6.29776e-06
6.30577e-06
6.3138e-06
6.32188e-06
6.33002e-06
6.33826e-06
6.34666e-06
6.35527e-06
6.36416e-06
6.3734e-06
6.38306e-06
6.3932e-06
6.40393e-06
6.41528e-06
6.42739e-06
6.44029e-06
6.4541e-06
6.46886e-06
6.4847e-06
6.50169e-06
6.52001e-06
6.5397e-06
6.5609e-06
6.58373e-06
6.60825e-06
6.63472e-06
6.66309e-06
6.69371e-06
6.72645e-06
6.76175e-06
6.79939e-06
6.84012e-06
6.88352e-06
6.93039e-06
6.98031e-06
7.03418e-06
7.09168e-06
7.15372e-06
7.22019e-06
7.29194e-06
7.36885e-06
7.45156e-06
7.54023e-06
7.63579e-06
7.7403e-06
7.85842e-06
7.99448e-06
8.15272e-06
8.34086e-06
8.56053e-06
8.82494e-06
9.11291e-06
9.45659e-06
9.8857e-06
1.13658e-05
1.3956e-05
2.12989e-05
3.61276e-05
6.43473e-05
8.94608e-05
0.000111311
0.000138123
0.000169823
0.000195617
0.000203544
0.000193944
6.50425e-06
6.51334e-06
6.52251e-06
6.53146e-06
6.54032e-06
6.54917e-06
6.5581e-06
6.56712e-06
6.57632e-06
6.58574e-06
6.59546e-06
6.60555e-06
6.61607e-06
6.62711e-06
6.63872e-06
6.65099e-06
6.66397e-06
6.67776e-06
6.69242e-06
6.70805e-06
6.72473e-06
6.74253e-06
6.76166e-06
6.78211e-06
6.80413e-06
6.82769e-06
6.85307e-06
6.88017e-06
6.90941e-06
6.94055e-06
6.97419e-06
7.00999e-06
7.04871e-06
7.08997e-06
7.13481e-06
7.18255e-06
7.23445e-06
7.28977e-06
7.34986e-06
7.41411e-06
7.48377e-06
7.55829e-06
7.63851e-06
7.72433e-06
7.81666e-06
7.91793e-06
8.03194e-06
8.16312e-06
8.31653e-06
8.49498e-06
8.70267e-06
8.9523e-06
9.21312e-06
9.52899e-06
9.84425e-06
1.07159e-05
1.21672e-05
1.66768e-05
2.50089e-05
4.34687e-05
6.70116e-05
8.16416e-05
9.49109e-05
0.000113898
0.000139757
0.000167183
0.000186263
0.000190206
0.000178008
6.78366e-06
6.79356e-06
6.8035e-06
6.81328e-06
6.82289e-06
6.83256e-06
6.84223e-06
6.85206e-06
6.86203e-06
6.87229e-06
6.88289e-06
6.89396e-06
6.90556e-06
6.91778e-06
6.93072e-06
6.94443e-06
6.95901e-06
6.97453e-06
6.99105e-06
7.00868e-06
7.02743e-06
7.04752e-06
7.06894e-06
7.09189e-06
7.11639e-06
7.14264e-06
7.17075e-06
7.20088e-06
7.23328e-06
7.2679e-06
7.30531e-06
7.34519e-06
7.3885e-06
7.43471e-06
7.48512e-06
7.53874e-06
7.59735e-06
7.65967e-06
7.72766e-06
7.79971e-06
7.87815e-06
7.96121e-06
8.05147e-06
8.15043e-06
8.26309e-06
8.39156e-06
8.54255e-06
8.71828e-06
8.9174e-06
9.15075e-06
9.40407e-06
9.69574e-06
9.98108e-06
1.05078e-05
1.15759e-05
1.44449e-05
1.99693e-05
3.22824e-05
5.27768e-05
6.54104e-05
7.42145e-05
8.19776e-05
9.41299e-05
0.000113645
0.000137751
0.000160475
0.000174989
0.00017576
0.000161689
7.11943e-06
7.1311e-06
7.14284e-06
7.15443e-06
7.1659e-06
7.17745e-06
7.18906e-06
7.20086e-06
7.21282e-06
7.22512e-06
7.23775e-06
7.25088e-06
7.26454e-06
7.27886e-06
7.29394e-06
7.3098e-06
7.32663e-06
7.34439e-06
7.36328e-06
7.38328e-06
7.40457e-06
7.42725e-06
7.45136e-06
7.47707e-06
7.50444e-06
7.53359e-06
7.56464e-06
7.59769e-06
7.63313e-06
7.6709e-06
7.71177e-06
7.75534e-06
7.803e-06
7.85387e-06
7.9098e-06
7.96938e-06
8.03499e-06
8.10442e-06
8.18072e-06
8.26095e-06
8.35058e-06
8.44896e-06
8.5628e-06
8.6918e-06
8.84523e-06
9.01771e-06
9.21572e-06
9.4408e-06
9.67515e-06
9.94916e-06
1.02324e-05
1.06827e-05
1.15882e-05
1.35883e-05
1.77517e-05
2.6591e-05
4.18948e-05
5.42395e-05
6.22552e-05
6.61755e-05
6.88359e-05
7.6058e-05
9.06486e-05
0.000110695
0.000132968
0.000152482
0.000163652
0.000162014
0.00014736
7.53073e-06
7.54287e-06
7.55538e-06
7.56766e-06
7.58011e-06
7.59263e-06
7.60555e-06
7.61868e-06
7.63231e-06
7.64631e-06
7.66093e-06
7.67607e-06
7.69194e-06
7.70847e-06
7.72586e-06
7.74406e-06
7.76323e-06
7.7834e-06
7.80467e-06
7.82719e-06
7.85101e-06
7.87633e-06
7.9032e-06
7.93183e-06
7.9624e-06
7.99514e-06
8.03037e-06
8.06812e-06
8.10892e-06
8.15261e-06
8.20007e-06
8.25075e-06
8.30641e-06
8.36552e-06
8.43019e-06
8.49908e-06
8.57449e-06
8.65418e-06
8.7454e-06
8.84508e-06
8.96257e-06
9.0954e-06
9.25084e-06
9.42282e-06
9.61726e-06
9.82855e-06
1.00563e-05
1.03138e-05
1.05876e-05
1.11096e-05
1.19487e-05
1.3784e-05
1.68961e-05
2.38086e-05
3.5487e-05
4.61833e-05
5.38716e-05
5.57646e-05
5.51656e-05
5.5134e-05
5.977e-05
7.13698e-05
8.78467e-05
0.000107425
0.000127522
0.000144257
0.000153144
0.000150225
0.000135478
8.06776e-06
8.08355e-06
8.09943e-06
8.11515e-06
8.13081e-06
8.14664e-06
8.16269e-06
8.17904e-06
8.19576e-06
8.2129e-06
8.23063e-06
8.24887e-06
8.26788e-06
8.2875e-06
8.30806e-06
8.32936e-06
8.35177e-06
8.37511e-06
8.39978e-06
8.42569e-06
8.45317e-06
8.48218e-06
8.51306e-06
8.54577e-06
8.58055e-06
8.61738e-06
8.65674e-06
8.69865e-06
8.74383e-06
8.79217e-06
8.84495e-06
8.90142e-06
8.96407e-06
9.02942e-06
9.10149e-06
9.17971e-06
9.27015e-06
9.36994e-06
9.48924e-06
9.61965e-06
9.7752e-06
9.94116e-06
1.0131e-05
1.03275e-05
1.05383e-05
1.08032e-05
1.11931e-05
1.18072e-05
1.28028e-05
1.45005e-05
1.75248e-05
2.27649e-05
3.13441e-05
3.96453e-05
4.71282e-05
4.85379e-05
4.66786e-05
4.06623e-05
4.08378e-05
4.62755e-05
5.66627e-05
7.01502e-05
8.62014e-05
0.000103988
0.000121714
0.000136394
0.000144361
0.000142236
0.000130896
8.75242e-06
8.76894e-06
8.78601e-06
8.80299e-06
8.82016e-06
8.8375e-06
8.85537e-06
8.87351e-06
8.89238e-06
8.91165e-06
8.93186e-06
8.95264e-06
8.97453e-06
8.9972e-06
9.02109e-06
9.04602e-06
9.07227e-06
9.09992e-06
9.12895e-06
9.15976e-06
9.19215e-06
9.22667e-06
9.2632e-06
9.30232e-06
9.34409e-06
9.38871e-06
9.43642e-06
9.48709e-06
9.5409e-06
9.59786e-06
9.65926e-06
9.72506e-06
9.79556e-06
9.87328e-06
9.96063e-06
1.00585e-05
1.01724e-05
1.02958e-05
1.04425e-05
1.05899e-05
1.0781e-05
1.09893e-05
1.12852e-05
1.15969e-05
1.21822e-05
1.31462e-05
1.45522e-05
1.62443e-05
1.8932e-05
2.20975e-05
2.78254e-05
3.25315e-05
3.94242e-05
4.14613e-05
3.88492e-05
3.05266e-05
2.48285e-05
2.7233e-05
3.46185e-05
4.47712e-05
5.65448e-05
6.97171e-05
8.44234e-05
0.000100307
0.000116107
0.000129553
0.00013774
0.000137538
0.000130168
9.7104e-06
9.73437e-06
9.7589e-06
9.78344e-06
9.80842e-06
9.83364e-06
9.85942e-06
9.88548e-06
9.91212e-06
9.93914e-06
9.96678e-06
9.99489e-06
1.00237e-05
1.00531e-05
1.00832e-05
1.01138e-05
1.01453e-05
1.01769e-05
1.02088e-05
1.02409e-05
1.02733e-05
1.0306e-05
1.03392e-05
1.03734e-05
1.0409e-05
1.04467e-05
1.04876e-05
1.05303e-05
1.05758e-05
1.06238e-05
1.068e-05
1.07437e-05
1.08171e-05
1.09131e-05
1.10114e-05
1.11409e-05
1.13108e-05
1.15255e-05
1.17685e-05
1.21679e-05
1.27969e-05
1.34474e-05
1.42936e-05
1.51048e-05
1.6344e-05
1.70968e-05
1.81677e-05
1.95048e-05
2.20376e-05
2.51675e-05
3.00486e-05
3.24847e-05
3.0057e-05
2.14128e-05
1.33672e-05
1.19749e-05
1.55787e-05
2.38599e-05
3.41252e-05
4.49681e-05
5.62937e-05
6.85229e-05
8.19388e-05
9.63738e-05
0.000110905
0.000123797
0.000132883
0.000135195
0.000131074
1.1355e-05
1.13636e-05
1.1371e-05
1.1377e-05
1.13818e-05
1.13862e-05
1.13901e-05
1.13939e-05
1.13972e-05
1.14004e-05
1.14032e-05
1.1406e-05
1.14082e-05
1.14104e-05
1.14121e-05
1.14135e-05
1.14151e-05
1.14147e-05
1.14138e-05
1.1414e-05
1.14173e-05
1.14238e-05
1.14362e-05
1.14541e-05
1.14824e-05
1.15196e-05
1.15736e-05
1.1644e-05
1.17426e-05
1.18675e-05
1.20318e-05
1.22572e-05
1.24759e-05
1.28999e-05
1.30937e-05
1.38168e-05
1.45335e-05
1.52746e-05
1.59417e-05
1.64162e-05
1.65363e-05
1.668e-05
1.68487e-05
1.69331e-05
1.67495e-05
1.66498e-05
1.70227e-05
1.85209e-05
1.92671e-05
1.88591e-05
1.60485e-05
1.07066e-05
6.4009e-06
4.09077e-06
3.69931e-06
6.78561e-06
1.2624e-05
2.07934e-05
3.0902e-05
4.18257e-05
5.29875e-05
6.46186e-05
7.71162e-05
9.05646e-05
0.000104283
0.000116878
0.000126739
0.00013223
0.000132688
1.13129e-05
1.13648e-05
1.14186e-05
1.14666e-05
1.15178e-05
1.15627e-05
1.16099e-05
1.16529e-05
1.16958e-05
1.1738e-05
1.17772e-05
1.18185e-05
1.18563e-05
1.18951e-05
1.19347e-05
1.19717e-05
1.20101e-05
1.21219e-05
1.22998e-05
1.25534e-05
1.28769e-05
1.32629e-05
1.37316e-05
1.42544e-05
1.48798e-05
1.55323e-05
1.6286e-05
1.7109e-05
1.79473e-05
1.88292e-05
1.96896e-05
2.06215e-05
2.12407e-05
2.22207e-05
2.21095e-05
2.14479e-05
2.08518e-05
1.97964e-05
1.85359e-05
1.68308e-05
1.51808e-05
1.34085e-05
1.13813e-05
9.33982e-06
6.13311e-06
4.02987e-06
3.1686e-06
3.35527e-06
3.58034e-06
3.27687e-06
2.32902e-06
1.32074e-06
8.55991e-07
7.16504e-07
1.3053e-06
2.71051e-06
5.51914e-06
1.06213e-05
1.83404e-05
2.84624e-05
3.96886e-05
5.11513e-05
6.23114e-05
7.43566e-05
8.67583e-05
9.88201e-05
0.000109425
0.00011784
0.000122713
3.54327e-05
3.65646e-05
3.76879e-05
3.88004e-05
3.99014e-05
4.09909e-05
4.20667e-05
4.31329e-05
4.41792e-05
4.5223e-05
4.62304e-05
4.72541e-05
4.82098e-05
4.92084e-05
5.01275e-05
5.10254e-05
5.20404e-05
5.27177e-05
5.25356e-05
5.2954e-05
5.25158e-05
5.22654e-05
5.18982e-05
5.17827e-05
5.15738e-05
4.97851e-05
4.95243e-05
4.87006e-05
4.70872e-05
4.51204e-05
4.2746e-05
3.98235e-05
3.62836e-05
3.21244e-05
2.73254e-05
2.1992e-05
1.63084e-05
1.07833e-05
5.98269e-06
2.62099e-06
1.03727e-06
8.10966e-07
8.965e-07
8.8148e-07
7.27664e-07
6.20103e-07
5.1149e-07
4.52845e-07
4.2249e-07
3.62409e-07
2.53017e-07
1.67688e-07
1.33947e-07
2.02951e-07
4.67135e-07
1.06583e-06
2.1272e-06
3.68704e-06
5.68603e-06
8.05609e-06
1.07627e-05
1.3939e-05
1.79886e-05
2.21871e-05
2.66358e-05
3.12802e-05
3.62749e-05
4.24289e-05
4.66653e-05
4.69612e-06
4.69592e-06
4.69618e-06
4.69934e-06
4.70335e-06
4.70856e-06
4.71451e-06
4.71868e-06
4.721e-06
4.7214e-06
4.7214e-06
4.72189e-06
4.7291e-06
4.73585e-06
4.73863e-06
4.73802e-06
4.7394e-06
4.74433e-06
4.74735e-06
4.74781e-06
4.74475e-06
4.74715e-06
4.74762e-06
4.75029e-06
4.75138e-06
4.75074e-06
4.75285e-06
4.75254e-06
4.75326e-06
4.75736e-06
4.7577e-06
4.76056e-06
4.76158e-06
4.7635e-06
4.76458e-06
4.76334e-06
4.76585e-06
4.76975e-06
4.7722e-06
4.7749e-06
4.77474e-06
4.77891e-06
4.77888e-06
4.77899e-06
4.78182e-06
4.78156e-06
4.78098e-06
4.78004e-06
4.78234e-06
4.7893e-06
4.79646e-06
4.80593e-06
4.80652e-06
4.80497e-06
4.80384e-06
4.80131e-06
4.8001e-06
4.80236e-06
4.80605e-06
4.72646e-06
4.72806e-06
4.73163e-06
4.73578e-06
4.74062e-06
4.74481e-06
4.74713e-06
4.74757e-06
4.74627e-06
4.74745e-06
4.74704e-06
4.7532e-06
4.75984e-06
4.76285e-06
4.76346e-06
4.76321e-06
4.76556e-06
4.77015e-06
4.77131e-06
4.76999e-06
4.76895e-06
4.77052e-06
4.7713e-06
4.77371e-06
4.77441e-06
4.77415e-06
4.77581e-06
4.77589e-06
4.77642e-06
4.77966e-06
4.78055e-06
4.78348e-06
4.78464e-06
4.78653e-06
4.78833e-06
4.78795e-06
4.78968e-06
4.79405e-06
4.79742e-06
4.80101e-06
4.80079e-06
4.80498e-06
4.80583e-06
4.8051e-06
4.80795e-06
4.80807e-06
4.80759e-06
4.80694e-06
4.80741e-06
4.81108e-06
4.817e-06
4.82599e-06
4.83264e-06
4.83846e-06
4.83831e-06
4.83826e-06
4.83744e-06
4.83545e-06
4.8363e-06
4.76611e-06
4.769e-06
4.7728e-06
4.77641e-06
4.77836e-06
4.77837e-06
4.77749e-06
4.77622e-06
4.77757e-06
4.77712e-06
4.7816e-06
4.78779e-06
4.79088e-06
4.7916e-06
4.78976e-06
4.79127e-06
4.79596e-06
4.79796e-06
4.79781e-06
4.7955e-06
4.79584e-06
4.79651e-06
4.79814e-06
4.79996e-06
4.80041e-06
4.80058e-06
4.80179e-06
4.80218e-06
4.80265e-06
4.80518e-06
4.80652e-06
4.80945e-06
4.81086e-06
4.81273e-06
4.81539e-06
4.81553e-06
4.81666e-06
4.82097e-06
4.82489e-06
4.82986e-06
4.83061e-06
4.83435e-06
4.83652e-06
4.83653e-06
4.83771e-06
4.8396e-06
4.84162e-06
4.84029e-06
4.84118e-06
4.84281e-06
4.84566e-06
4.85091e-06
4.85706e-06
4.86373e-06
4.8687e-06
4.87206e-06
4.87438e-06
4.87487e-06
4.87509e-06
4.80981e-06
4.81044e-06
4.81178e-06
4.81052e-06
4.8105e-06
4.81144e-06
4.81109e-06
4.81059e-06
4.80948e-06
4.8132e-06
4.81952e-06
4.82268e-06
4.82293e-06
4.82088e-06
4.82192e-06
4.82384e-06
4.82689e-06
4.82756e-06
4.82579e-06
4.82387e-06
4.82453e-06
4.82612e-06
4.82781e-06
4.82894e-06
4.8292e-06
4.82956e-06
4.83042e-06
4.83093e-06
4.83128e-06
4.83336e-06
4.83494e-06
4.83777e-06
4.83946e-06
4.84138e-06
4.84483e-06
4.84576e-06
4.84653e-06
4.85045e-06
4.85432e-06
4.86028e-06
4.86256e-06
4.86611e-06
4.86931e-06
4.87085e-06
4.87147e-06
4.87279e-06
4.87502e-06
4.87679e-06
4.87816e-06
4.87931e-06
4.88072e-06
4.88315e-06
4.88673e-06
4.89138e-06
4.89619e-06
4.90071e-06
4.90458e-06
4.90764e-06
4.90981e-06
4.84978e-06
4.84952e-06
4.84919e-06
4.84797e-06
4.84804e-06
4.84886e-06
4.84904e-06
4.84837e-06
4.85287e-06
4.85672e-06
4.85815e-06
4.85625e-06
4.85621e-06
4.85671e-06
4.85652e-06
4.86056e-06
4.86246e-06
4.8606e-06
4.85711e-06
4.85679e-06
4.85753e-06
4.85962e-06
4.86075e-06
4.86141e-06
4.86161e-06
4.862e-06
4.86267e-06
4.86322e-06
4.86355e-06
4.86532e-06
4.86699e-06
4.86977e-06
4.87179e-06
4.87372e-06
4.8776e-06
4.87939e-06
4.88012e-06
4.88363e-06
4.88714e-06
4.8934e-06
4.89712e-06
4.90087e-06
4.90469e-06
4.90775e-06
4.90929e-06
4.9104e-06
4.91184e-06
4.91385e-06
4.91597e-06
4.91778e-06
4.91937e-06
4.92101e-06
4.92303e-06
4.92577e-06
4.92895e-06
4.93248e-06
4.93594e-06
4.9393e-06
4.94218e-06
4.8954e-06
4.8947e-06
4.8924e-06
4.89382e-06
4.89427e-06
4.89444e-06
4.895e-06
4.89563e-06
4.89742e-06
4.89769e-06
4.89675e-06
4.89356e-06
4.89328e-06
4.89422e-06
4.8978e-06
4.90075e-06
4.89693e-06
4.89409e-06
4.89192e-06
4.89275e-06
4.89462e-06
4.89639e-06
4.89699e-06
4.89709e-06
4.89704e-06
4.89743e-06
4.89788e-06
4.89833e-06
4.89856e-06
4.90008e-06
4.90177e-06
4.90438e-06
4.90669e-06
4.90867e-06
4.91294e-06
4.91564e-06
4.91659e-06
4.91974e-06
4.92276e-06
4.9288e-06
4.93365e-06
4.93789e-06
4.94199e-06
4.94602e-06
4.94907e-06
4.95115e-06
4.9527e-06
4.95434e-06
4.95635e-06
4.95841e-06
4.96039e-06
4.96219e-06
4.96388e-06
4.96574e-06
4.96776e-06
4.97012e-06
4.97253e-06
4.9752e-06
4.97771e-06
4.9436e-06
4.94312e-06
4.94314e-06
4.94354e-06
4.94272e-06
4.94455e-06
4.94229e-06
4.94357e-06
4.94334e-06
4.94116e-06
4.94265e-06
4.93968e-06
4.94084e-06
4.94227e-06
4.94303e-06
4.93787e-06
4.93528e-06
4.93324e-06
4.93352e-06
4.9337e-06
4.93643e-06
4.93716e-06
4.93716e-06
4.93719e-06
4.93734e-06
4.93735e-06
4.93768e-06
4.93809e-06
4.93833e-06
4.93967e-06
4.94134e-06
4.94384e-06
4.94637e-06
4.9483e-06
4.95256e-06
4.95608e-06
4.95756e-06
4.9606e-06
4.96314e-06
4.96849e-06
4.97394e-06
4.97886e-06
4.98324e-06
4.98754e-06
4.9915e-06
4.99481e-06
4.99739e-06
4.99943e-06
5.00148e-06
5.00354e-06
5.00567e-06
5.00776e-06
5.0097e-06
5.01156e-06
5.0133e-06
5.01512e-06
5.01687e-06
5.01882e-06
5.02066e-06
4.99652e-06
4.99971e-06
4.9967e-06
4.99942e-06
4.99906e-06
4.99458e-06
4.99474e-06
4.9941e-06
4.99508e-06
4.99402e-06
4.99036e-06
4.98958e-06
4.98845e-06
4.98697e-06
4.98451e-06
4.9809e-06
4.97948e-06
4.98014e-06
4.98011e-06
4.98051e-06
4.98182e-06
4.98247e-06
4.98219e-06
4.98112e-06
4.98027e-06
4.98091e-06
4.98102e-06
4.98125e-06
4.98138e-06
4.98253e-06
4.98408e-06
4.9864e-06
4.98914e-06
4.99114e-06