/*--------------------------------*- C++ -*----------------------------------*\
| =========                 |                                                 |
| \\      /  F ield         | OpenFOAM: The Open Source CFD Toolbox           |
|  \\    /   O peration     | Version:  2312                                  |
|   \\  /    A nd           | Website:  www.openfoam.com                      |
|    \\/     M anipulation  |                                                 |
\*---------------------------------------------------------------------------*/
FoamFile
{
    version     2.0;
    format      ascii;
    arch        "LSB;label=32;scalar=64";
    class       volScalarField;
    location    "1100";
    object      nut;
}
// * * * * * * * * * * * * * * * * * * * * * * * * * * * * * * * * * * * * * //

dimensions      [0 2 -1 0 0 0 0];

internalField   nonuniform List<scalar> 
76025
(
8.05948e-05
8.04056e-05
7.95852e-05
8.1009e-05
8.07835e-05
8.25601e-05
8.40109e-05
8.36133e-05
8.45801e-05
8.46215e-05
8.61371e-05
8.65046e-05
8.67859e-05
8.58123e-05
8.78029e-05
8.66805e-05
8.88617e-05
8.84436e-05
9.21319e-05
8.9217e-05
8.99885e-05
9.06463e-05
9.13301e-05
9.1782e-05
9.38295e-05
9.25975e-05
9.66982e-05
9.73988e-05
9.78675e-05
0.000106089
0.000105056
0.000105646
0.000109976
0.000107444
0.000112638
0.000110225
0.000112758
0.000117809
0.000117431
0.000122183
0.000120597
0.000124466
0.00013151
0.000130759
0.000134395
0.000134888
0.000141125
0.000141826
0.000144413
0.000146851
0.000149017
0.000152272
0.000151627
0.000150714
0.000148782
0.000147841
0.000145869
0.000137769
0.00012639
0.000116669
0.000105677
9.24558e-05
8.39138e-05
7.44387e-05
6.53689e-05
5.86561e-05
5.18577e-05
4.55271e-05
4.55491e-05
7.54458e-05
7.5492e-05
7.5758e-05
7.61169e-05
7.65766e-05
7.69741e-05
7.78182e-05
7.86214e-05
7.92478e-05
7.97082e-05
8.0337e-05
8.11714e-05
8.21515e-05
8.26686e-05
8.30611e-05
8.36264e-05
8.39955e-05
8.48539e-05
8.56157e-05
8.68611e-05
8.7573e-05
8.83926e-05
8.9055e-05
8.97847e-05
9.07657e-05
9.223e-05
9.30461e-05
9.43958e-05
9.58789e-05
9.69877e-05
9.86996e-05
0.000101362
0.000102701
0.000105153
0.000106523
0.000109453
0.000113163
0.000115428
0.000117907
0.000119776
0.000122705
0.000126664
0.000128968
0.000131431
0.000132717
0.000136355
0.000139696
0.000143063
0.000146697
0.000151897
0.000151782
0.000150523
0.000148975
0.000147585
0.000145877
0.00014428
0.000142204
0.000140279
0.000137865
0.00013561
0.000132912
0.000114937
9.86385e-05
8.49826e-05
7.29778e-05
6.18948e-05
5.49966e-05
5.06764e-05
5.00263e-05
6.92007e-05
6.96798e-05
7.0535e-05
7.12587e-05
7.19036e-05
7.23525e-05
7.28347e-05
7.34462e-05
7.41061e-05
7.47918e-05
7.54607e-05
7.61737e-05
7.69917e-05
7.78844e-05
7.85965e-05
7.94036e-05
8.007e-05
8.08636e-05
8.15205e-05
8.24199e-05
8.33745e-05
8.43533e-05
8.53194e-05
8.63144e-05
8.73686e-05
8.8665e-05
8.98854e-05
9.12246e-05
9.27323e-05
9.42993e-05
9.59067e-05
9.77408e-05
9.94816e-05
0.000101253
0.000103175
0.000105348
0.000107725
0.000110003
0.000112215
0.00011455
0.000117215
0.000120171
0.000123136
0.000126162
0.000129499
0.000133591
0.000138294
0.000143584
0.000149694
0.000150445
0.000148766
0.000147418
0.000145537
0.000144068
0.000142019
0.000140393
0.000138213
0.000136425
0.000134034
0.000131999
0.000129136
0.000117721
9.96647e-05
8.45576e-05
7.21663e-05
6.1422e-05
5.37663e-05
5.06245e-05
5.0921e-05
6.40297e-05
6.43952e-05
6.5316e-05
6.63396e-05
6.7193e-05
6.79159e-05
6.85652e-05
6.91947e-05
6.98468e-05
7.05325e-05
7.12432e-05
7.19604e-05
7.27001e-05
7.35013e-05
7.43317e-05
7.51847e-05
7.60474e-05
7.69056e-05
7.77654e-05
7.86245e-05
7.95319e-05
8.04798e-05
8.14751e-05
8.25236e-05
8.36344e-05
8.48062e-05
8.60427e-05
8.7326e-05
8.86889e-05
9.01441e-05
9.16251e-05
9.31824e-05
9.47926e-05
9.64679e-05
9.83174e-05
0.000100284
0.000102409
0.000104632
0.000106908
0.000109379
0.0001121
0.000115128
0.000118446
0.00012202
0.000126088
0.000130825
0.0001364
0.000142717
0.000148311
0.000146888
0.000145059
0.000143475
0.000141494
0.000139824
0.000137744
0.000136048
0.000133893
0.000132065
0.000129679
0.00012745
0.00012469
0.00012206
0.000105505
8.74004e-05
7.36682e-05
6.24243e-05
5.49171e-05
5.56251e-05
5.52143e-05
6.06091e-05
6.04669e-05
6.09752e-05
6.17678e-05
6.25358e-05
6.32938e-05
6.40655e-05
6.48301e-05
6.55766e-05
6.63128e-05
6.70531e-05
6.77997e-05
6.8556e-05
6.93297e-05
7.01322e-05
7.0963e-05
7.18252e-05
7.2711e-05
7.36221e-05
7.45527e-05
7.55063e-05
7.64875e-05
7.75051e-05
7.8566e-05
7.968e-05
8.08468e-05
8.20718e-05
8.33472e-05
8.46835e-05
8.60747e-05
8.754e-05
8.90691e-05
9.06477e-05
9.23553e-05
9.41984e-05
9.61693e-05
9.82808e-05
0.000100534
0.000102946
0.00010557
0.000108481
0.00011171
0.000115294
0.000119289
0.000123827
0.000129025
0.000134997
0.000141805
0.000144206
0.000142585
0.000140591
0.000138877
0.00013677
0.000135026
0.000132926
0.000131288
0.000129239
0.000127554
0.000125226
0.000123133
0.000120286
0.000117572
0.000111647
9.04469e-05
7.54359e-05
6.41453e-05
5.77034e-05
6.28477e-05
4.62098e-05
5.80216e-05
5.76456e-05
5.78176e-05
5.82558e-05
5.8721e-05
5.92531e-05
5.989e-05
6.06067e-05
6.13636e-05
6.21371e-05
6.2919e-05
6.3709e-05
6.45093e-05
6.53213e-05
6.61481e-05
6.69945e-05
6.7865e-05
6.87651e-05
6.96968e-05
7.06627e-05
7.16635e-05
7.26988e-05
7.37723e-05
7.48859e-05
7.60481e-05
7.72604e-05
7.85303e-05
7.98545e-05
8.12416e-05
8.26874e-05
8.42248e-05
8.58158e-05
8.74712e-05
8.92651e-05
9.11814e-05
9.32138e-05
9.5382e-05
9.77117e-05
0.000100222
0.000102965
0.000105984
0.000109312
0.000113003
0.000117096
0.000121677
0.000126832
0.00013271
0.000139549
0.000139664
0.000137936
0.000135875
0.00013406
0.000131862
0.000130033
0.000127977
0.000126429
0.000124572
0.000122953
0.000120718
0.000118493
0.00011557
0.000112698
0.000109238
9.48105e-05
7.95598e-05
6.83748e-05
6.46162e-05
6.11588e-05
4.01213e-05
5.51847e-05
5.4956e-05
5.51368e-05
5.54717e-05
5.5766e-05
5.60947e-05
5.65287e-05
5.70715e-05
5.77011e-05
5.83955e-05
5.9139e-05
5.99205e-05
6.07338e-05
6.15742e-05
6.24381e-05
6.33245e-05
6.42333e-05
6.51683e-05
6.61324e-05
6.71303e-05
6.81655e-05
6.92404e-05
7.03583e-05
7.152e-05
7.27309e-05
7.39903e-05
7.53054e-05
7.66751e-05
7.81064e-05
7.96011e-05
8.11837e-05
8.28142e-05
8.45315e-05
8.63838e-05
8.83455e-05
9.04197e-05
9.26274e-05
9.4989e-05
9.75323e-05
0.000100287
0.000103283
0.000106549
0.000110112
0.000114018
0.000118343
0.000123208
0.000128767
0.00013528
0.000135182
0.0001334
0.000131198
0.000129165
0.000126696
0.000124726
0.000122704
0.000121322
0.000119673
0.000118134
0.00011595
0.000113586
0.000110648
0.000107533
0.000104128
0.000100519
8.77964e-05
7.73475e-05
7.38836e-05
4.56651e-05
4.66198e-05
5.18432e-05
5.18412e-05
5.2195e-05
5.26412e-05
5.29844e-05
5.32987e-05
5.36637e-05
5.41012e-05
5.46098e-05
5.51855e-05
5.58238e-05
5.65215e-05
5.72732e-05
5.80749e-05
5.89205e-05
5.98064e-05
6.07278e-05
6.16849e-05
6.26766e-05
6.37043e-05
6.47694e-05
6.58744e-05
6.7023e-05
6.82169e-05
6.94609e-05
7.07561e-05
7.21079e-05
7.35182e-05
7.49899e-05
7.65319e-05
7.81522e-05
7.98227e-05
8.15964e-05
8.34875e-05
8.54737e-05
8.756e-05
8.97602e-05
9.2093e-05
9.45737e-05
9.7224e-05
0.000100057
0.000103101
0.000106379
0.000109953
0.000113886
0.0001183
0.000123319
0.000129194
0.000130376
0.000128426
0.000125952
0.000123593
0.000120905
0.000119005
0.000117246
0.000116201
0.00011476
0.000113244
0.000110985
0.000108425
0.00010537
0.000102081
9.8658e-05
9.49029e-05
9.15799e-05
8.55561e-05
6.41098e-05
4.17651e-05
8.56475e-05
4.83851e-05
4.84954e-05
4.89597e-05
4.95214e-05
4.99781e-05
5.03837e-05
5.08038e-05
5.12578e-05
5.17495e-05
5.22819e-05
5.28603e-05
5.349e-05
5.41743e-05
5.49136e-05
5.57059e-05
5.65497e-05
5.74421e-05
5.83809e-05
5.93659e-05
6.0396e-05
6.14722e-05
6.25933e-05
6.37607e-05
6.49742e-05
6.62365e-05
6.75495e-05
6.8917e-05
7.03429e-05
7.18288e-05
7.33917e-05
7.50241e-05
7.67106e-05
7.85033e-05
8.03927e-05
8.23569e-05
8.44002e-05
8.65275e-05
8.87541e-05
9.1087e-05
9.35459e-05
9.61377e-05
9.88965e-05
0.000101842
0.000105041
0.00010854
0.000112458
0.000116885
0.000122041
0.000125145
0.000122951
0.000120269
0.000117787
0.000115271
0.000113738
0.000112332
0.000111459
0.000109915
0.000108155
0.000105636
0.000102822
9.9671e-05
9.62694e-05
9.2937e-05
8.90654e-05
8.69385e-05
7.74314e-05
4.31893e-05
5.78301e-05
9.30646e-05
4.5125e-05
4.52534e-05
4.573e-05
4.63221e-05
4.68364e-05
4.73118e-05
4.78e-05
4.83101e-05
4.88411e-05
4.9393e-05
4.99705e-05
5.05803e-05
5.12304e-05
5.1926e-05
5.26708e-05
5.34666e-05
5.43154e-05
5.52161e-05
5.61694e-05
5.71754e-05
5.82327e-05
5.93418e-05
6.0501e-05
6.171e-05
6.29695e-05
6.42796e-05
6.56437e-05
6.70642e-05
6.85413e-05
7.00916e-05
7.16962e-05
7.33612e-05
7.51252e-05
7.69664e-05
7.88654e-05
8.08234e-05
8.28402e-05
8.4929e-05
8.70933e-05
8.93544e-05
9.17182e-05
9.42229e-05
9.68835e-05
9.97643e-05
0.000102895
0.000106377
0.000110259
0.000114698
0.000119708
0.000117415
0.0001148
0.000112615
0.000110562
0.000109331
0.000107925
0.000106687
0.000104667
0.000102503
9.96835e-05
9.67257e-05
9.35026e-05
9.0181e-05
8.69529e-05
8.32109e-05
8.26232e-05
5.89589e-05
3.78881e-05
7.33152e-05
0.000118979
4.21593e-05
4.22809e-05
4.27295e-05
4.32991e-05
4.38122e-05
4.43039e-05
4.48184e-05
4.53611e-05
4.59254e-05
4.65081e-05
4.711e-05
4.77354e-05
4.83896e-05
4.90791e-05
4.98067e-05
5.05775e-05
5.13941e-05
5.22592e-05
5.31745e-05
5.41414e-05
5.51609e-05
5.62319e-05
5.73563e-05
5.85318e-05
5.97597e-05
6.10399e-05
6.23741e-05
6.37624e-05
6.52076e-05
6.67178e-05
6.82723e-05
6.98979e-05
7.16069e-05
7.33768e-05
7.51945e-05
7.70617e-05
7.89782e-05
8.09569e-05
8.29988e-05
8.51247e-05
8.7336e-05
8.96686e-05
9.2126e-05
9.47632e-05
9.75852e-05
0.000100667
0.000104013
0.000107714
0.000111866
0.000112295
0.000109885
0.000108039
0.000106097
0.000104659
0.00010276
0.000100849
9.84718e-05
9.60407e-05
9.31225e-05
9.01239e-05
8.69747e-05
8.37948e-05
8.105e-05
7.66485e-05
7.80696e-05
4.0134e-05
4.87879e-05
8.24597e-05
0.00016283
3.94323e-05
3.95491e-05
3.99686e-05
4.05047e-05
4.09957e-05
4.1474e-05
4.19823e-05
4.25251e-05
4.30953e-05
4.36883e-05
4.43021e-05
4.49397e-05
4.56027e-05
4.62959e-05
4.70214e-05
4.77813e-05
4.858e-05
4.94193e-05
5.03029e-05
5.1233e-05
5.22124e-05
5.32418e-05
5.43236e-05
5.5458e-05
5.66461e-05
5.78894e-05
5.91889e-05
6.05432e-05
6.19595e-05
6.34362e-05
6.49618e-05
6.65649e-05
6.8239e-05
6.9966e-05
7.17382e-05
7.35577e-05
7.54234e-05
7.73442e-05
7.93156e-05
8.13537e-05
8.3453e-05
8.56426e-05
8.79129e-05
9.03054e-05
9.28004e-05
9.54474e-05
9.82118e-05
0.000101144
0.000104228
0.00010685
0.000104453
0.000102411
0.000100074
9.79554e-05
9.58313e-05
9.37996e-05
9.15703e-05
8.90735e-05
8.61869e-05
8.32085e-05
8.02586e-05
7.72306e-05
7.55276e-05
6.90877e-05
4.55027e-05
3.93428e-05
7.46777e-05
0.00011111
0.000194291
3.69389e-05
3.70547e-05
3.74505e-05
3.79571e-05
3.84246e-05
3.88832e-05
3.93728e-05
3.98997e-05
4.04575e-05
4.10422e-05
4.16518e-05
4.22876e-05
4.29511e-05
4.36455e-05
4.43713e-05
4.51314e-05
4.59267e-05
4.67606e-05
4.76361e-05
4.8555e-05
4.95219e-05
5.05382e-05
5.16047e-05
5.27277e-05
5.39012e-05
5.51355e-05
5.64239e-05
5.77704e-05
5.91783e-05
6.06402e-05
6.2157e-05
6.37462e-05
6.53965e-05
6.70952e-05
6.88357e-05
7.06163e-05
7.24315e-05
7.42854e-05
7.61701e-05
7.80993e-05
8.00624e-05
8.20813e-05
8.41334e-05
8.62451e-05
8.8374e-05
9.05487e-05
9.27013e-05
9.48539e-05
9.69087e-05
9.89228e-05
9.80802e-05
9.57784e-05
9.34612e-05
9.14169e-05
8.94461e-05
8.72325e-05
8.48671e-05
8.20719e-05
7.91479e-05
7.62401e-05
6.98906e-05
6.28696e-05
6.53376e-05
5.47773e-05
3.32688e-05
5.44942e-05
8.30188e-05
0.000156662
0.000214561
3.46091e-05
3.47271e-05
3.51041e-05
3.55864e-05
3.60342e-05
3.6475e-05
3.69459e-05
3.74534e-05
3.79932e-05
3.85616e-05
3.91581e-05
3.97834e-05
4.04398e-05
4.113e-05
4.18549e-05
4.26167e-05
4.34163e-05
4.42555e-05
4.51376e-05
4.60631e-05
4.70359e-05
4.80572e-05
4.91285e-05
5.02521e-05
5.14276e-05
5.26578e-05
5.39412e-05
5.52785e-05
5.66721e-05
5.8113e-05
5.9612e-05
6.11739e-05
6.27823e-05
6.44288e-05
6.61081e-05
6.78223e-05
6.95677e-05
7.13481e-05
7.31534e-05
7.49889e-05
7.68342e-05
7.8696e-05
8.05389e-05
8.23716e-05
8.41371e-05
8.58447e-05
8.74047e-05
8.88221e-05
8.99887e-05
9.09677e-05
9.17884e-05
8.95832e-05
8.73023e-05
8.50614e-05
8.28591e-05
8.03213e-05
7.78395e-05
7.49251e-05
6.70562e-05
5.56819e-05
4.98992e-05
5.33603e-05
5.9477e-05
3.87107e-05
3.74398e-05
6.28417e-05
0.000114722
0.000187783
0.000225674
3.24398e-05
3.2561e-05
3.29224e-05
3.33839e-05
3.38152e-05
3.42409e-05
3.46951e-05
3.51846e-05
3.57059e-05
3.62564e-05
3.68359e-05
3.74457e-05
3.80883e-05
3.87669e-05
3.94826e-05
4.02377e-05
4.10332e-05
4.18711e-05
4.27529e-05
4.36804e-05
4.46553e-05
4.56794e-05
4.67535e-05
4.7879e-05
4.90565e-05
5.0287e-05
5.15694e-05
5.29053e-05
5.42939e-05
5.57284e-05
5.72208e-05
5.87672e-05
6.03529e-05
6.19717e-05
6.36195e-05
6.52962e-05
6.69969e-05
6.87183e-05
7.04468e-05
7.21774e-05
7.3885e-05
7.55649e-05
7.7178e-05
7.8717e-05
8.01201e-05
8.13754e-05
8.24001e-05
8.32133e-05
8.37808e-05
8.42607e-05
8.47884e-05
8.3263e-05
8.1097e-05
7.87452e-05
7.63804e-05
7.37119e-05
6.81586e-05
5.6171e-05
4.6436e-05
4.25006e-05
4.71629e-05
5.61151e-05
4.35212e-05
3.72513e-05
6.20086e-05
8.18651e-05
0.000153919
0.000206441
0.000233594
3.03798e-05
3.05018e-05
3.08473e-05
3.12876e-05
3.17024e-05
3.21128e-05
3.25507e-05
3.30219e-05
3.35239e-05
3.40548e-05
3.46146e-05
3.5205e-05
3.58288e-05
3.64889e-05
3.71876e-05
3.79269e-05
3.87087e-05
3.95345e-05
4.04065e-05
4.13261e-05
4.22953e-05
4.33152e-05
4.43873e-05
4.55119e-05
4.66905e-05
4.79224e-05
4.92075e-05
5.05462e-05
5.19384e-05
5.33827e-05
5.48859e-05
5.64359e-05
5.80203e-05
5.96308e-05
6.12635e-05
6.2913e-05
6.4573e-05
6.62329e-05
6.78797e-05
6.95005e-05
7.10717e-05
7.25776e-05
7.39787e-05
7.52508e-05
7.63404e-05
7.72384e-05
7.7928e-05
7.85015e-05
7.90382e-05
7.97089e-05
7.97112e-05
7.77058e-05
7.52704e-05
7.25967e-05
6.97973e-05
5.90055e-05
4.80351e-05
4.02912e-05
3.81666e-05
4.59908e-05
5.2841e-05
5.0913e-05
3.64365e-05
5.17509e-05
6.74704e-05
0.000124165
0.000178075
0.000216494
0.000238111
2.84797e-05
2.85999e-05
2.89289e-05
2.9348e-05
2.97458e-05
3.0141e-05
3.05626e-05
3.10165e-05
3.15005e-05
3.2013e-05
3.25544e-05
3.31263e-05
3.37317e-05
3.43735e-05
3.50545e-05
3.57768e-05
3.65426e-05
3.73541e-05
3.82136e-05
3.91231e-05
4.00847e-05
4.11e-05
4.21706e-05
4.32972e-05
4.44811e-05
4.57216e-05
4.70187e-05
4.83711e-05
4.97728e-05
5.12264e-05
5.27335e-05
5.42783e-05
5.58528e-05
5.74471e-05
5.90582e-05
6.06762e-05
6.22937e-05
6.38963e-05
6.5471e-05
6.69983e-05
6.8455e-05
6.98132e-05
7.10414e-05
7.21195e-05
7.305e-05
7.38828e-05
7.47042e-05
7.56137e-05
7.66195e-05
7.55507e-05
7.3283e-05
7.09625e-05
6.84372e-05
6.20196e-05
5.12377e-05
4.1894e-05
3.62789e-05
3.646e-05
4.9202e-05
4.92542e-05
4.61024e-05
3.97586e-05
4.74326e-05
6.36279e-05
0.000107343
0.000150043
0.000179311
0.000214229
0.00023925
2.66856e-05
2.68022e-05
2.71135e-05
2.75096e-05
2.78882e-05
2.82656e-05
2.86684e-05
2.91019e-05
2.95647e-05
3.00554e-05
3.05749e-05
3.11245e-05
3.17076e-05
3.23269e-05
3.29856e-05
3.36859e-05
3.44307e-05
3.52221e-05
3.60631e-05
3.69559e-05
3.79032e-05
3.89066e-05
3.99683e-05
4.10893e-05
4.22708e-05
4.35114e-05
4.48115e-05
4.61768e-05
4.76045e-05
4.90927e-05
5.06333e-05
5.22075e-05
5.38065e-05
5.54177e-05
5.70361e-05
5.86484e-05
6.02461e-05
6.18119e-05
6.33322e-05
6.47858e-05
6.61534e-05
6.7422e-05
6.86035e-05
6.97428e-05
7.0918e-05
7.21946e-05
7.35939e-05
7.28857e-05
7.11826e-05
6.90926e-05
6.71264e-05
6.42398e-05
5.43892e-05
4.45776e-05
3.73314e-05
3.43432e-05
3.79011e-05
4.65587e-05
4.25345e-05
4.19909e-05
4.02645e-05
4.2939e-05
6.07183e-05
9.42709e-05
0.000126118
0.000151529
0.000180748
0.000217754
0.000236179
2.50733e-05
2.51853e-05
2.54809e-05
2.58575e-05
2.62198e-05
2.65823e-05
2.69694e-05
2.73863e-05
2.7832e-05
2.83058e-05
2.88083e-05
2.93415e-05
2.99085e-05
3.05127e-05
3.1157e-05
3.18447e-05
3.25784e-05
3.33615e-05
3.41967e-05
3.50876e-05
3.60369e-05
3.70474e-05
3.81216e-05
3.92614e-05
4.04679e-05
4.17401e-05
4.3075e-05
4.44628e-05
4.59044e-05
4.7402e-05
4.89449e-05
5.05192e-05
5.21177e-05
5.37278e-05
5.53425e-05
5.69442e-05
5.85227e-05
6.00568e-05
6.15415e-05
6.29734e-05
6.4372e-05
6.57886e-05
6.72884e-05
6.89286e-05
7.07249e-05
6.9999e-05
6.8404e-05
6.65641e-05
6.49538e-05
6.27397e-05
5.64428e-05
4.70099e-05
3.92455e-05
3.4759e-05
3.49529e-05
4.45724e-05
3.9878e-05
3.83209e-05
3.49396e-05
3.60188e-05
3.99263e-05
6.08543e-05
8.41501e-05
0.000106578
0.000131258
0.000156171
0.000191445
0.000226324
0.00022973
2.35165e-05
2.3623e-05
2.38995e-05
2.42516e-05
2.45929e-05
2.49357e-05
2.53023e-05
2.56977e-05
2.61212e-05
2.65725e-05
2.70525e-05
2.75633e-05
2.81079e-05
2.86896e-05
2.93119e-05
2.99778e-05
3.06905e-05
3.14535e-05
3.22702e-05
3.31441e-05
3.40786e-05
3.50767e-05
3.61416e-05
3.72749e-05
3.84777e-05
3.97522e-05
4.11164e-05
4.2564e-05
4.40908e-05
4.5682e-05
4.73212e-05
4.89881e-05
5.06706e-05
5.2348e-05
5.40106e-05
5.56382e-05
5.72333e-05
5.87949e-05
6.03681e-05
6.19957e-05
6.37391e-05
6.56449e-05
6.77118e-05
6.6678e-05
6.51261e-05
6.37506e-05
6.20611e-05
6.01913e-05
5.66323e-05
4.8145e-05
4.07496e-05
3.59785e-05
3.49175e-05
4.16046e-05
3.83957e-05
3.48626e-05
3.0978e-05
3.17345e-05
3.11801e-05
4.06008e-05
5.90723e-05
7.34297e-05
8.98199e-05
0.000116067
0.000139606
0.000171975
0.000207588
0.000221933
0.000220258
2.22554e-05
2.23511e-05
2.26127e-05
2.29484e-05
2.32749e-05
2.36039e-05
2.39557e-05
2.43356e-05
2.47433e-05
2.51792e-05
2.56444e-05
2.61415e-05
2.66738e-05
2.7245e-05
2.78591e-05
2.85197e-05
2.92309e-05
2.99967e-05
3.08215e-05
3.17103e-05
3.26673e-05
3.36978e-05
3.48054e-05
3.59942e-05
3.72643e-05
3.86055e-05
4.00042e-05
4.1469e-05
4.30075e-05
4.46079e-05
4.62594e-05
4.7945e-05
4.96512e-05
5.13566e-05
5.30612e-05
5.47612e-05
5.64942e-05
5.82845e-05
6.01819e-05
6.22216e-05
6.37514e-05
6.26848e-05
6.13285e-05
6.0084e-05
5.84446e-05
5.68402e-05
5.43957e-05
4.72969e-05
4.10664e-05
3.69808e-05
3.62152e-05
3.96002e-05
3.59004e-05
3.15588e-05
2.83752e-05
2.7054e-05
2.63348e-05
3.01197e-05
4.3099e-05
5.3885e-05
6.39191e-05
7.85191e-05
0.000102103
0.000129345
0.000160705
0.000188799
0.000207508
0.000214871
0.000208942
2.0877e-05
2.09759e-05
2.12223e-05
2.15354e-05
2.18425e-05
2.21537e-05
2.24866e-05
2.28458e-05
2.32313e-05
2.36438e-05
2.40844e-05
2.45558e-05
2.50612e-05
2.56046e-05
2.61902e-05
2.68218e-05
2.7504e-05
2.82411e-05
2.90383e-05
2.99004e-05
3.08332e-05
3.18418e-05
3.29322e-05
3.41066e-05
3.5384e-05
3.67935e-05
3.83259e-05
3.99689e-05
4.17063e-05
4.35153e-05
4.53776e-05
4.72689e-05
4.91747e-05
5.10853e-05
5.30128e-05
5.49542e-05
5.69432e-05
5.89424e-05
5.85496e-05
5.75071e-05
5.64561e-05
5.5232e-05
5.38387e-05
5.22805e-05
4.97222e-05
4.42845e-05
3.98479e-05
3.7432e-05
3.83765e-05
3.57793e-05
3.21907e-05
2.82634e-05
2.52506e-05
2.31602e-05
2.24602e-05
2.44792e-05
3.18077e-05
4.0448e-05
4.78409e-05
5.55217e-05
6.91279e-05
8.95871e-05
0.000116091
0.000143864
0.000169847
0.000190591
0.000203738
0.000206705
0.00019796
2.00797e-05
2.0142e-05
2.0364e-05
2.0658e-05
2.09486e-05
2.12439e-05
2.15624e-05
2.19081e-05
2.2282e-05
2.26841e-05
2.31165e-05
2.35813e-05
2.40824e-05
2.46234e-05
2.52094e-05
2.58446e-05
2.65348e-05
2.72855e-05
2.81037e-05
2.89968e-05
2.99722e-05
3.10371e-05
3.21988e-05
3.34558e-05
3.47851e-05
3.6185e-05
3.76858e-05
3.92984e-05
4.10228e-05
4.28566e-05
4.48002e-05
4.68387e-05
4.89559e-05
5.1098e-05
5.32179e-05
5.44358e-05
5.36942e-05
5.27428e-05
5.1798e-05
5.05311e-05
4.9203e-05
4.74542e-05
4.4006e-05
4.03715e-05
3.8117e-05
3.75568e-05
3.42378e-05
3.1025e-05
2.72552e-05
2.44261e-05
2.15154e-05
2.0003e-05
1.8576e-05
2.00503e-05
2.46773e-05
3.09985e-05
3.69057e-05
4.1134e-05
4.82993e-05
6.06726e-05
7.9311e-05
0.000104596
0.000131003
0.000155378
0.000175349
0.000190276
0.000199003
0.000198694
0.000187639
1.88481e-05
1.89446e-05
1.91672e-05
1.94425e-05
1.97138e-05
1.99896e-05
2.02847e-05
2.06035e-05
2.0947e-05
2.13165e-05
2.17142e-05
2.21424e-05
2.26052e-05
2.31063e-05
2.36506e-05
2.42421e-05
2.48863e-05
2.55884e-05
2.63568e-05
2.72002e-05
2.81311e-05
2.91595e-05
3.03048e-05
3.16103e-05
3.31041e-05
3.47816e-05
3.66419e-05
3.86815e-05
4.08912e-05
4.32426e-05
4.56773e-05
4.8097e-05
5.00121e-05
4.93016e-05
4.85416e-05
4.7554e-05
4.64649e-05
4.50166e-05
4.34334e-05
4.13623e-05
3.92207e-05
3.64574e-05
3.38388e-05
3.06578e-05
2.7705e-05
2.46905e-05
2.19909e-05
1.98006e-05
1.74133e-05
1.65011e-05
1.54929e-05
1.61608e-05
1.92947e-05
2.38619e-05
2.89887e-05
3.14993e-05
3.56854e-05
3.94911e-05
5.04288e-05
6.91506e-05
9.52698e-05
0.000122182
0.000145921
0.000164825
0.000179408
0.000189538
0.000195029
0.000193624
0.000185243
1.87222e-05
1.87381e-05
1.89209e-05
1.91827e-05
1.94445e-05
1.97104e-05
1.99966e-05
2.03066e-05
2.06417e-05
2.1002e-05
2.13903e-05
2.18086e-05
2.22619e-05
2.2754e-05
2.32917e-05
2.38807e-05
2.45277e-05
2.52405e-05
2.60251e-05
2.68912e-05
2.78534e-05
2.89216e-05
3.00823e-05
3.13409e-05
3.27381e-05
3.43078e-05
3.60546e-05
3.79536e-05
3.99406e-05
4.19014e-05
4.36605e-05
4.36786e-05
4.26066e-05
4.1314e-05
3.97402e-05
3.78791e-05
3.57254e-05
3.32844e-05
3.07404e-05
2.7926e-05
2.5369e-05
2.25103e-05
2.04233e-05
1.787e-05
1.6491e-05
1.49312e-05
1.43074e-05
1.29842e-05
1.25086e-05
1.25167e-05
1.47816e-05
1.74409e-05
2.15755e-05
2.46779e-05
2.6797e-05
2.62212e-05
2.58074e-05
3.41422e-05
5.15487e-05
7.68837e-05
0.000105658
0.000132385
0.000153879
0.000170211
0.000182135
0.000189802
0.000186649
0.000174382
0.000168752
1.77323e-05
1.78326e-05
1.80397e-05
1.82835e-05
1.85282e-05
1.87843e-05
1.90637e-05
1.93688e-05
1.97016e-05
2.00634e-05
2.04573e-05
2.08864e-05
2.13561e-05
2.18725e-05
2.24448e-05
2.30862e-05
2.38173e-05
2.46574e-05
2.5624e-05
2.67238e-05
2.79603e-05
2.93569e-05
3.09111e-05
3.25825e-05
3.43083e-05
3.6042e-05
3.77323e-05
3.70086e-05
3.57766e-05
3.43522e-05
3.27002e-05
3.08795e-05
2.88455e-05
2.67315e-05
2.44623e-05
2.22155e-05
2.0033e-05
1.80225e-05
1.61707e-05
1.46246e-05
1.34985e-05
1.23466e-05
1.1629e-05
1.06529e-05
1.03273e-05
9.21781e-06
8.58208e-06
8.83984e-06
1.01371e-05
1.18092e-05
1.49686e-05
1.79749e-05
2.00226e-05
1.69496e-05
1.20471e-05
1.23283e-05
1.78661e-05
3.09468e-05
5.1126e-05
7.68e-05
0.000103071
0.000127794
0.000147932
0.000164078
0.000176416
0.00018475
0.000166104
0.00014754
0.000137124
2.02713e-05
2.02899e-05
2.05338e-05
2.08765e-05
2.12117e-05
2.15488e-05
2.19124e-05
2.23127e-05
2.27527e-05
2.32377e-05
2.37718e-05
2.43629e-05
2.50164e-05
2.57402e-05
2.65304e-05
2.73969e-05
2.7786e-05
2.74149e-05
2.69952e-05
2.6578e-05
2.60297e-05
2.53461e-05
2.45428e-05
2.35865e-05
2.24573e-05
2.12055e-05
1.9883e-05
1.85326e-05
1.71996e-05
1.58995e-05
1.4669e-05
1.35391e-05
1.24366e-05
1.15668e-05
1.05458e-05
9.99523e-06
9.45436e-06
8.95528e-06
8.43252e-06
7.88366e-06
7.25851e-06
6.75321e-06
6.37931e-06
5.99831e-06
5.86431e-06
5.98081e-06
6.50213e-06
7.69634e-06
8.91394e-06
1.03689e-05
1.08574e-05
8.82861e-06
5.94054e-06
3.69678e-06
3.09498e-06
5.41223e-06
1.02368e-05
1.87606e-05
3.28044e-05
5.31571e-05
7.67917e-05
9.93525e-05
0.00011944
0.000136787
0.000151138
0.000161912
0.00014412
0.000125901
0.000113981
8.67263e-06
8.59034e-06
8.51211e-06
8.43239e-06
8.35705e-06
8.27898e-06
8.20413e-06
8.1269e-06
8.05085e-06
7.97352e-06
7.89496e-06
7.81598e-06
7.7341e-06
7.65096e-06
7.56498e-06
7.4749e-06
7.3815e-06
7.28437e-06
7.18467e-06
7.08839e-06
7.00111e-06
6.92192e-06
6.85698e-06
6.79645e-06
6.75844e-06
6.70876e-06
6.67893e-06
6.65501e-06
6.61814e-06
6.57662e-06
6.51177e-06
6.4483e-06
6.28014e-06
6.21845e-06
5.87019e-06
5.42038e-06
5.04116e-06
4.61123e-06
4.18849e-06
3.75476e-06
3.40642e-06
3.07967e-06
2.69136e-06
2.42043e-06
1.81273e-06
1.46544e-06
1.44715e-06
1.91992e-06
2.4319e-06
2.48021e-06
1.82132e-06
1.01512e-06
5.64626e-07
3.59075e-07
5.80281e-07
1.12999e-06
2.25753e-06
4.60922e-06
8.94434e-06
1.6532e-05
2.81207e-05
4.22242e-05
5.23522e-05
6.36451e-05
7.458e-05
8.45194e-05
9.23326e-05
9.84895e-05
9.4987e-05
4.22851e-06
4.36371e-06
4.49841e-06
4.63239e-06
4.76564e-06
4.89821e-06
5.02987e-06
5.16118e-06
5.29095e-06
5.42126e-06
5.54826e-06
5.67802e-06
5.80104e-06
5.92971e-06
6.05083e-06
6.16974e-06
6.30362e-06
6.40499e-06
6.40149e-06
6.47492e-06
6.44047e-06
6.43526e-06
6.4171e-06
6.43637e-06
6.44219e-06
6.24516e-06
6.24519e-06
6.17951e-06
6.01637e-06
5.8069e-06
5.54559e-06
5.21375e-06
4.79928e-06
4.29814e-06
3.70311e-06
3.02236e-06
2.27524e-06
1.52725e-06
8.5931e-07
3.80831e-07
1.51971e-07
1.19514e-07
1.3284e-07
1.31361e-07
1.09091e-07
9.35183e-08
7.75983e-08
6.91033e-08
6.4844e-08
5.59467e-08
3.92881e-08
2.61878e-08
2.10346e-08
3.20377e-08
7.40915e-08
1.69723e-07
3.39759e-07
5.90085e-07
9.11002e-07
1.29107e-06
1.72385e-06
2.22831e-06
2.8667e-06
3.52295e-06
4.21195e-06
4.92364e-06
5.67663e-06
6.58614e-06
7.25038e-06
6.40738e-05
6.42512e-05
6.4382e-05
6.55472e-05
6.53379e-05
6.43211e-05
6.30258e-05
6.30534e-05
6.42501e-05
6.48478e-05
6.59088e-05
6.55577e-05
6.44964e-05
6.31015e-05
6.39502e-05
6.64408e-05
6.58388e-05
6.52958e-05
6.49469e-05
6.56312e-05
6.61849e-05
6.66636e-05
6.63663e-05
6.56504e-05
6.63258e-05
6.66803e-05
6.65216e-05
6.62869e-05
6.78178e-05
6.82357e-05
6.81452e-05
6.83243e-05
6.90689e-05
6.98541e-05
6.90895e-05
6.94099e-05
7.0516e-05
6.96936e-05
6.98364e-05
7.23092e-05
7.12432e-05
7.03735e-05
7.22882e-05
7.41278e-05
7.41889e-05
7.39865e-05
7.49455e-05
7.62635e-05
7.61813e-05
7.47348e-05
7.29533e-05
7.04858e-05
7.18809e-05
7.22183e-05
7.57213e-05
7.86977e-05
7.90901e-05
7.88353e-05
8.01364e-05
5.95701e-05
5.98061e-05
5.97636e-05
5.97388e-05
5.93425e-05
5.8854e-05
5.88337e-05
5.96106e-05
6.06119e-05
6.10367e-05
6.08042e-05
6.01509e-05
5.98071e-05
5.95209e-05
6.09609e-05
6.13303e-05
6.08162e-05
6.03547e-05
6.08103e-05
6.16808e-05
6.17565e-05
6.16369e-05
6.14385e-05
6.13721e-05
6.17431e-05
6.19576e-05
6.22234e-05
6.19806e-05
6.27579e-05
6.36118e-05
6.31988e-05
6.36315e-05
6.40579e-05
6.50266e-05
6.4797e-05
6.49696e-05
6.60464e-05
6.59549e-05
6.56149e-05
6.63693e-05
6.65882e-05
6.63465e-05
6.67616e-05
6.82962e-05
6.94028e-05
6.95594e-05
7.0003e-05
7.10545e-05
7.20914e-05
7.2094e-05
7.10541e-05
6.94403e-05
6.81798e-05
6.79439e-05
6.85978e-05
7.05674e-05
7.24805e-05
7.34415e-05
7.46076e-05
5.49767e-05
5.52281e-05
5.50094e-05
5.49354e-05
5.4934e-05
5.51572e-05
5.56659e-05
5.62527e-05
5.65708e-05
5.63809e-05
5.59737e-05
5.57021e-05
5.58057e-05
5.61602e-05
5.68047e-05
5.65947e-05
5.6351e-05
5.63938e-05
5.70812e-05
5.76569e-05
5.73321e-05
5.69777e-05
5.69764e-05
5.71468e-05
5.74298e-05
5.75504e-05
5.78601e-05
5.76861e-05
5.82223e-05
5.8893e-05
5.86861e-05
5.91148e-05
5.93933e-05
6.01287e-05
6.02097e-05
6.0347e-05
6.11629e-05
6.14769e-05
6.13397e-05
6.15633e-05
6.19949e-05
6.22099e-05
6.22659e-05
6.27595e-05
6.39561e-05
6.45369e-05
6.4973e-05
6.56353e-05
6.67187e-05
6.75867e-05
6.77615e-05
6.7342e-05
6.62956e-05
6.55202e-05
6.50308e-05
6.51964e-05
6.59517e-05
6.66569e-05
6.79496e-05
5.08192e-05
5.11345e-05
5.108e-05
5.12482e-05
5.15263e-05
5.18835e-05
5.21776e-05
5.22862e-05
5.21479e-05
5.19211e-05
5.17894e-05
5.1873e-05
5.21706e-05
5.24907e-05
5.26346e-05
5.24376e-05
5.24419e-05
5.27832e-05
5.33243e-05
5.3544e-05
5.31176e-05
5.28551e-05
5.29737e-05
5.31985e-05
5.34327e-05
5.35364e-05
5.37986e-05
5.37534e-05
5.41643e-05
5.4643e-05
5.467e-05
5.5042e-05
5.52209e-05
5.57774e-05
5.59834e-05
5.61414e-05
5.67465e-05
5.72355e-05
5.7325e-05
5.74483e-05
5.7846e-05
5.82424e-05
5.83534e-05
5.8515e-05
5.92544e-05
6.00161e-05
6.05952e-05
6.1116e-05
6.18596e-05
6.27504e-05
6.34985e-05
6.39596e-05
6.39627e-05
6.36499e-05
6.31882e-05
6.27747e-05
6.2633e-05
6.2537e-05
6.32093e-05
4.73255e-05
4.7762e-05
4.78162e-05
4.80373e-05
4.82369e-05
4.83697e-05
4.83799e-05
4.82771e-05
4.8189e-05
4.81552e-05
4.8237e-05
4.84291e-05
4.86734e-05
4.88083e-05
4.87566e-05
4.87324e-05
4.8928e-05
4.9292e-05
4.9598e-05
4.95733e-05
4.9218e-05
4.91119e-05
4.92799e-05
4.95076e-05
4.96965e-05
4.98148e-05
5.00437e-05
5.00829e-05
5.04104e-05
5.07938e-05
5.09369e-05
5.12629e-05
5.14112e-05
5.18851e-05
5.21574e-05
5.23474e-05
5.28156e-05
5.33379e-05
5.35783e-05
5.36953e-05
5.39947e-05
5.4429e-05
5.46967e-05
5.486e-05
5.52697e-05
5.58986e-05
5.65332e-05
5.70755e-05
5.76284e-05
5.82887e-05
5.90163e-05
5.97209e-05
6.02863e-05
6.06215e-05
6.07155e-05
6.06184e-05
6.04676e-05
6.01066e-05
6.03445e-05
4.42963e-05
4.47177e-05
4.47023e-05
4.48266e-05
4.48709e-05
4.48559e-05
4.48063e-05
4.4764e-05
4.4786e-05
4.48755e-05
4.50251e-05
4.51661e-05
4.52649e-05
4.52759e-05
4.52837e-05
4.54021e-05
4.56257e-05
4.58929e-05
4.60036e-05
4.58632e-05
4.56401e-05
4.56512e-05
4.58352e-05
4.60392e-05
4.61908e-05
4.63208e-05
4.65222e-05
4.66025e-05
4.68749e-05
4.72024e-05
4.73948e-05
4.76837e-05
4.78394e-05
4.82592e-05
4.8571e-05
4.87941e-05
4.91734e-05
4.96654e-05
5.00019e-05
5.01731e-05
5.04013e-05
5.07851e-05
5.11401e-05
5.13816e-05
5.16672e-05
5.21104e-05
5.26627e-05
5.32155e-05
5.37331e-05
5.42578e-05
5.48295e-05
5.54463e-05
5.60727e-05
5.66483e-05
5.71133e-05
5.74348e-05
5.76448e-05
5.7523e-05
5.78424e-05
4.13479e-05
4.16798e-05
4.16095e-05
4.16431e-05
4.16285e-05
4.16343e-05
4.16225e-05
4.16783e-05
4.17659e-05
4.18682e-05
4.19992e-05
4.20501e-05
4.20805e-05
4.2097e-05
4.21688e-05
4.22985e-05
4.25066e-05
4.26456e-05
4.26322e-05
4.24708e-05
4.23768e-05
4.24547e-05
4.26301e-05
4.28027e-05
4.29323e-05
4.30618e-05
4.32376e-05
4.33393e-05
4.35749e-05
4.38625e-05
4.40773e-05
4.43356e-05
4.45031e-05
4.48739e-05
4.51967e-05
4.54471e-05
4.57721e-05
4.6214e-05
4.6599e-05
4.68487e-05
4.70668e-05
4.7384e-05
4.77437e-05
4.80484e-05
4.83259e-05
4.8663e-05
4.90965e-05
4.95899e-05
5.009e-05
5.05759e-05
5.10625e-05
5.15682e-05
5.20986e-05
5.26416e-05
5.31683e-05
5.36479e-05
5.40855e-05
5.423e-05
5.47879e-05
3.84689e-05
3.87716e-05
3.86653e-05
3.87179e-05
3.87369e-05
3.8741e-05
3.88022e-05
3.88773e-05
3.89747e-05
3.90482e-05
3.9075e-05
3.90963e-05
3.91098e-05
3.91572e-05
3.92629e-05
3.94054e-05
3.95374e-05
3.95805e-05
3.95014e-05
3.93916e-05
3.93831e-05
3.94977e-05
3.96528e-05
3.97855e-05
3.98917e-05
4.00241e-05
4.01768e-05
4.02884e-05
4.04956e-05
4.07538e-05
4.09764e-05
4.12067e-05
4.13817e-05
4.17122e-05
4.20297e-05
4.22975e-05