/*--------------------------------*- C++ -*----------------------------------*\
| =========                 |                                                 |
| \\      /  F ield         | OpenFOAM: The Open Source CFD Toolbox           |
|  \\    /   O peration     | Version:  2312                                  |
|   \\  /    A nd           | Website:  www.openfoam.com                      |
|    \\/     M anipulation  |                                                 |
\*---------------------------------------------------------------------------*/
FoamFile
{
    version     2.0;
    format      ascii;
    arch        "LSB;label=32;scalar=64";
    class       volScalarField;
    location    "1100";
    object      omega;
}
// * * * * * * * * * * * * * * * * * * * * * * * * * * * * * * * * * * * * * //

dimensions      [0 0 -1 0 0 0 0];

internalField   nonuniform List<scalar> 
76025
(
0.0288494
0.0288974
0.0289611
0.0289747
0.0289747
0.0289794
0.0289686
0.0289949
0.0290221
0.0290615
0.0290854
0.0291105
0.0291418
0.0291722
0.0292189
0.0292578
0.0292983
0.0293389
0.0293714
0.0294151
0.029455
0.029507
0.0295477
0.029597
0.0296316
0.0296652
0.0297015
0.0297217
0.0297624
0.0297809
0.0298107
0.0298514
0.0298811
0.0299212
0.0299617
0.0299941
0.0300509
0.0300834
0.0301585
0.0302086
0.030321
0.0304204
0.0305936
0.0307538
0.0310154
0.0312623
0.0316245
0.0319431
0.0324345
0.0328358
0.0334315
0.0338921
0.0345529
0.0350023
0.035801
0.0363642
0.0372816
0.0380831
0.0392464
0.0403576
0.0418466
0.0430936
0.0449342
0.0465688
0.0491079
0.0518823
0.0552912
0.0575387
0.0652182
0.0291491
0.0291779
0.0292138
0.02925
0.0292771
0.0293062
0.0293206
0.029338
0.0293516
0.0293725
0.0293921
0.0294139
0.0294346
0.0294582
0.0294851
0.0295155
0.0295475
0.0295806
0.0296118
0.029644
0.0296736
0.0297081
0.0297437
0.0297804
0.0298199
0.0298546
0.0298954
0.0299317
0.0299746
0.0300152
0.0300629
0.030105
0.0301646
0.0302162
0.030289
0.0303535
0.0304457
0.0305287
0.0306558
0.030776
0.030956
0.0311276
0.0313694
0.0316051
0.0319255
0.0322386
0.0326389
0.0330276
0.0335059
0.0339564
0.0344956
0.0350036
0.0356099
0.036233
0.0369954
0.0378003
0.0388101
0.0398532
0.0411239
0.0424158
0.0439096
0.0455647
0.0475915
0.0496356
0.0525386
0.0546328
0.0590599
0.0626268
0.0712302
0.0295324
0.0295434
0.0295584
0.0295764
0.029593
0.0296143
0.0296344
0.0296567
0.0296757
0.0296951
0.0297127
0.0297314
0.0297503
0.0297697
0.0297916
0.0298149
0.029842
0.0298711
0.0299029
0.0299368
0.0299727
0.03001
0.0300513
0.0300945
0.0301426
0.0301916
0.030247
0.0303026
0.0303669
0.0304287
0.0305045
0.0305754
0.0306665
0.0307505
0.0308614
0.0309618
0.0310974
0.0312204
0.0313943
0.0315554
0.0317818
0.0319915
0.0322814
0.032552
0.032917
0.0332523
0.0336899
0.0340845
0.0345949
0.0350528
0.0356555
0.0362031
0.0369496
0.0376461
0.0385805
0.0394593
0.0405759
0.0416354
0.0429638
0.044252
0.0459407
0.0475934
0.0497015
0.0518373
0.0546004
0.0576413
0.0621058
0.0656179
0.0743536
0.0300293
0.0300426
0.03005
0.0300546
0.0300565
0.0300608
0.0300674
0.0300787
0.0300923
0.0301075
0.0301228
0.030138
0.0301548
0.0301723
0.0301925
0.0302136
0.0302374
0.0302631
0.0302926
0.0303248
0.0303627
0.0304047
0.0304526
0.030506
0.0305657
0.0306295
0.0307019
0.0307756
0.0308612
0.0309452
0.0310464
0.0311429
0.031263
0.0313749
0.0315178
0.0316495
0.0318213
0.0319812
0.0321951
0.032396
0.0326629
0.0329158
0.0332463
0.0335599
0.0339588
0.0343346
0.0348044
0.0352496
0.0358098
0.0363528
0.0370409
0.0377193
0.0385759
0.0394101
0.0404364
0.0414053
0.0425882
0.043726
0.0451363
0.046579
0.0483455
0.0502099
0.052547
0.0549967
0.0583061
0.0615818
0.0662734
0.0713342
0.0852125
0.030442
0.0304833
0.0305165
0.0305399
0.0305557
0.0305656
0.030573
0.03058
0.0305887
0.0305999
0.0306129
0.0306279
0.0306455
0.0306662
0.0306921
0.0307221
0.0307577
0.0307961
0.03084
0.0308854
0.0309364
0.0309897
0.0310488
0.0311108
0.031181
0.0312526
0.0313362
0.0314185
0.0315171
0.0316121
0.0317292
0.03184
0.031979
0.0321098
0.0322771
0.0324337
0.0326366
0.0328277
0.0330788
0.0333168
0.0336275
0.0339238
0.0343032
0.0346652
0.0351208
0.0355574
0.0361029
0.0366345
0.0373026
0.0379617
0.0387847
0.039588
0.0405784
0.0415151
0.042635
0.0436557
0.0448908
0.046052
0.0475409
0.0490205
0.0509493
0.0529772
0.0555118
0.058369
0.0616457
0.0658818
0.0702101
0.077887
0.0986685
0.0309447
0.030988
0.0310308
0.0310689
0.0311028
0.0311323
0.0311566
0.0311774
0.0311952
0.0312119
0.0312292
0.0312466
0.0312669
0.0312885
0.0313154
0.0313464
0.0313841
0.0314266
0.0314752
0.0315281
0.0315866
0.0316501
0.0317195
0.031794
0.031877
0.0319628
0.0320615
0.0321602
0.0322759
0.0323921
0.0325296
0.0326663
0.0328294
0.0329894
0.0331835
0.0333703
0.0336032
0.0338271
0.0341117
0.0343852
0.0347336
0.0350707
0.0354969
0.035915
0.0364401
0.03696
0.0376075
0.0382547
0.0390491
0.0398352
0.0407834
0.0417129
0.04283
0.043881
0.045081
0.0461532
0.0474132
0.0486361
0.0502035
0.0518548
0.0539941
0.0562759
0.0591973
0.0623586
0.0662663
0.071054
0.0752497
0.0901055
0.129414
0.0316435
0.0316954
0.0317422
0.0317832
0.031819
0.0318531
0.0318854
0.0319146
0.0319429
0.0319682
0.0319932
0.0320174
0.0320425
0.03207
0.0320998
0.032136
0.0321769
0.0322262
0.0322809
0.032343
0.0324094
0.0324822
0.0325595
0.0326429
0.0327343
0.032831
0.03294
0.0330542
0.0331831
0.0333208
0.0334748
0.0336376
0.0338206
0.0340108
0.0342292
0.0344504
0.0347141
0.0349784
0.0353019
0.0356227
0.0360182
0.0364104
0.0368971
0.0373872
0.0379978
0.0386127
0.0393719
0.0401248
0.0410329
0.0419279
0.0430148
0.0441055
0.0454177
0.0466174
0.0479144
0.0490176
0.0503047
0.051604
0.0532937
0.0551736
0.0575404
0.0601979
0.0634223
0.0671038
0.071381
0.0768858
0.08201
0.113476
0.194294
0.0322493
0.0322841
0.032355
0.0324265
0.032496
0.0325605
0.032622
0.0326798
0.0327341
0.0327872
0.0328371
0.0328862
0.0329324
0.0329792
0.0330246
0.0330734
0.0331237
0.0331801
0.033241
0.0333103
0.0333842
0.0334667
0.0335545
0.0336498
0.0337539
0.0338655
0.0339892
0.0341223
0.0342699
0.0344313
0.0346083
0.0347997
0.0350102
0.0352339
0.0354831
0.035744
0.0360425
0.036354
0.0367182
0.0370958
0.0375429
0.0380068
0.0385665
0.039149
0.0398593
0.0405802
0.041451
0.042304
0.0433331
0.0443777
0.0456678
0.0469916
0.0485262
0.0498275
0.0511498
0.0522209
0.0535451
0.0549717
0.0568822
0.0590809
0.061804
0.0648963
0.0685868
0.0727602
0.0775244
0.0850308
0.093175
0.163332
0.346716
0.0333505
0.0333628
0.0333902
0.0334295
0.0334777
0.0335336
0.0335928
0.0336556
0.0337189
0.0337834
0.0338498
0.0339173
0.0339859
0.0340558
0.0341247
0.0341962
0.0342668
0.0343429
0.0344205
0.0345068
0.0345975
0.0346957
0.0348007
0.0349111
0.0350299
0.0351559
0.0352913
0.0354371
0.0355978
0.035772
0.0359681
0.0361771
0.036417
0.0366679
0.0369563
0.0372589
0.037605
0.0379754
0.0383973
0.0388514
0.0393715
0.0399309
0.0405836
0.041275
0.0420943
0.0429142
0.043896
0.044856
0.0460437
0.0472898
0.0488
0.0503239
0.0519603
0.0532443
0.0545474
0.0556561
0.0571814
0.058911
0.0612051
0.0638595
0.0670239
0.0706785
0.0748382
0.0797019
0.0847963
0.0972743
0.118248
0.264486
0.601721
0.0345878
0.034619
0.0346523
0.0346847
0.0347208
0.0347612
0.0348074
0.0348581
0.034915
0.034977
0.0350446
0.0351211
0.0352032
0.0352947
0.0353906
0.0354905
0.0355943
0.035697
0.035806
0.0359147
0.0360325
0.0361553
0.036284
0.0364249
0.036564
0.0367241
0.0368787
0.0370606
0.0372444
0.0374574
0.0376813
0.037932
0.038202
0.038498
0.0388186
0.0391704
0.0395581
0.0399845
0.0404631
0.0409818
0.0415786
0.042213
0.0429565
0.0437267
0.0446422
0.0455361
0.0466635
0.0477576
0.0491417
0.0505718
0.0522293
0.0537965
0.0553979
0.0566764
0.0581279
0.0595691
0.0615604
0.063772
0.0665984
0.0697779
0.07352
0.0777986
0.0825526
0.0883539
0.0943402
0.118157
0.174009
0.440183
0.840783
0.0359572
0.0360015
0.03605
0.0360975
0.0361464
0.0361981
0.0362523
0.0363097
0.0363692
0.0364344
0.0365002
0.0365743
0.0366507
0.036737
0.0368287
0.0369316
0.0370392
0.0371589
0.0372793
0.0374154
0.037548
0.0377027
0.03785
0.0380251
0.0381903
0.0383873
0.0385774
0.0387995
0.0390282
0.0392838
0.0395572
0.039851
0.0401727
0.0405127
0.0408884
0.0412903
0.0417433
0.0422279
0.0427872
0.0433715
0.0440675
0.0447749
0.0456354
0.0464927
0.0475371
0.0485514
0.0498554
0.0510606
0.0525788
0.0540931
0.0558474
0.0574263
0.0591558
0.0607068
0.0626369
0.0647003
0.067234
0.0699971
0.0733983
0.0772107
0.0816579
0.0867435
0.0920882
0.100365
0.107585
0.157677
0.284651
0.703319
0.923962
0.0376008
0.0376598
0.037715
0.037773
0.0378257
0.0378885
0.0379491
0.0380228
0.038095
0.0381812
0.0382677
0.0383645
0.0384628
0.038567
0.0386728
0.0387854
0.0389001
0.0390274
0.0391544
0.0393013
0.0394426
0.0396133
0.039772
0.0399705
0.0401508
0.0403793
0.0405869
0.0408496
0.0410982
0.0414017
0.0417007
0.042049
0.0424083
0.0428091
0.0432396
0.0437127
0.0442388
0.0448071
0.0454547
0.0461375
0.0469412
0.0477618
0.0487475
0.049741
0.0509263
0.0521334
0.0535815
0.0549344
0.0566586
0.0582648
0.0602477
0.0621621
0.0643896
0.0666325
0.0690511
0.0715726
0.0744613
0.0778095
0.0818942
0.0865409
0.0919498
0.0980328
0.104354
0.117951
0.130443
0.236665
0.491108
0.89977
0.959301
0.0395471
0.0396169
0.0396907
0.039758
0.039829
0.039896
0.0399713
0.0400411
0.0401244
0.0401996
0.040296
0.0403828
0.0404971
0.0406015
0.0407359
0.0408616
0.0410154
0.0411648
0.0413369
0.0415122
0.0417014
0.0419057
0.0421118
0.0423473
0.0425702
0.0428364
0.0430783
0.0433799
0.0436548
0.0439985
0.0443206
0.0447171
0.0451039
0.0455679
0.0460414
0.0465977
0.0471915
0.0478616
0.0486036
0.0494154
0.0503305
0.0513109
0.0524336
0.0536046
0.0549674
0.0563605
0.0579847
0.0595831
0.0615504
0.0635284
0.0659339
0.0683451
0.0709405
0.0735205
0.0762414
0.0793777
0.0829574
0.0873323
0.092454
0.0983082
0.105078
0.112467
0.1215
0.146104
0.180216
0.386539
0.784883
0.974771
0.974067
0.041899
0.0419853
0.0420694
0.0421506
0.0422288
0.0423108
0.0423953
0.0424849
0.0425783
0.0426777
0.0427819
0.0428931
0.0430093
0.043135
0.0432648
0.0434086
0.0435555
0.0437218
0.0438888
0.0440796
0.0442685
0.0444865
0.0447032
0.0449557
0.0452095
0.0455038
0.0458023
0.0461489
0.0465023
0.046904
0.0473197
0.0477837
0.0482744
0.0488179
0.0494036
0.0500654
0.0507729
0.0515804
0.0524449
0.0534183
0.0544735
0.0556412
0.0569168
0.0583057
0.0598617
0.0614476
0.0633291
0.065193
0.0674265
0.0697021
0.0724945
0.0753121
0.0783265
0.0815523
0.0850125
0.0891444
0.0936949
0.0993762
0.105748
0.113492
0.121925
0.13286
0.147035
0.197992
0.299507
0.647477
0.967148
1.01507
0.981584
0.0447607
0.044867
0.0449739
0.0450724
0.0451698
0.0452617
0.04536
0.045453
0.0455583
0.0456583
0.0457778
0.0458926
0.0460331
0.0461696
0.0463382
0.0465036
0.0467056
0.046905
0.0471426
0.0473771
0.0476475
0.0479145
0.0482119
0.0485098
0.0488303
0.0491615
0.0495105
0.0498902
0.0502818
0.0507245
0.0511809
0.0517081
0.0522569
0.0528954
0.0535678
0.0543577
0.0551782
0.0561399
0.0571498
0.0582853
0.0595275
0.0608684
0.0623442
0.0639465
0.0656941
0.0675466
0.0696293
0.07182
0.0744996
0.0773185
0.0805652
0.0837235
0.0871871
0.0911742
0.0955663
0.100866
0.106709
0.114205
0.122723
0.133692
0.144554
0.164978
0.195724
0.308709
0.551387
0.931718
1.03147
1.02428
0.969709
0.048215
0.0483501
0.048484
0.0486088
0.0487333
0.0488548
0.0489825
0.0491114
0.0492498
0.0493928
0.0495487
0.0497125
0.0498882
0.0500764
0.0502711
0.0504859
0.0507009
0.0509437
0.0511813
0.0514555
0.0517182
0.0520265
0.0523145
0.0526594
0.0529787
0.0533691
0.0537435
0.0542012
0.0546551
0.055198
0.0557508
0.0563984
0.0570627
0.0578399
0.0586412
0.0595799
0.0605409
0.0616645
0.0628315
0.0641386
0.0655739
0.0670804
0.0687726
0.0705709
0.072555
0.0746565
0.0770278
0.0796808
0.0827727
0.0858479
0.0893456
0.0929863
0.0974607
0.102767
0.108508
0.115329
0.123322
0.133649
0.146147
0.161233
0.180192
0.225218
0.314242
0.551833
0.916727
1.03276
1.04455
1.01405
0.944503
0.0524932
0.0526543
0.0528187
0.0529719
0.0531189
0.0532621
0.0534008
0.0535397
0.0536772
0.0538222
0.0539698
0.0541356
0.0543051
0.0544996
0.0547002
0.0549256
0.0551637
0.0554263
0.0557064
0.0560158
0.0563426
0.0567126
0.0570962
0.0575385
0.0579851
0.0585015
0.0590179
0.0596057
0.0601893
0.0608515
0.0615107
0.062272
0.0630329
0.0639347
0.0648519
0.0659254
0.0670514
0.0683232
0.0696945
0.0711974
0.0728358
0.074603
0.0765391
0.0786563
0.080928
0.0834953
0.086248
0.0894575
0.0928216
0.0965884
0.100995
0.105945
0.11175
0.118242
0.125286
0.13445
0.146327
0.161274
0.180323
0.20649
0.253905
0.368024
0.615002
0.926753
1.02446
1.04508
1.03143
0.983761
0.914824
0.0576052
0.0577721
0.0579403
0.0581039
0.058264
0.0584336
0.0586025
0.0587908
0.0589781
0.0591939
0.0594109
0.0596648
0.05992
0.0602159
0.0605147
0.0608512
0.0611905
0.0615689
0.0619494
0.0623744
0.0627973
0.0632674
0.0637278
0.0642366
0.0647292
0.0652873
0.0658271
0.066453
0.067064
0.0677882
0.0685096
0.0693645
0.070243
0.0712678
0.0723538
0.0735737
0.0749108
0.0763504
0.0779925
0.0796884
0.0816823
0.0837118
0.0860841
0.0885538
0.0913493
0.0944137
0.0976868
0.101528
0.105357
0.110139
0.115201
0.121383
0.128207
0.136952
0.147354
0.16244
0.182084
0.205752
0.242956
0.3115
0.447464
0.73818
0.973151
1.03554
1.03618
1.02449
0.994432
0.943396
0.880426
0.0644566
0.064675
0.0649022
0.0651046
0.0653034
0.0654916
0.0656785
0.0658677
0.0660607
0.0662671
0.0664869
0.0667277
0.0669929
0.067276
0.0675974
0.0679276
0.0683041
0.0686826
0.0691142
0.0695478
0.0700362
0.0705295
0.0710778
0.0716412
0.0722633
0.0729208
0.0736287
0.0743891
0.0751874
0.0760611
0.0769675
0.0779785
0.0790414
0.080241
0.0815248
0.0829619
0.0845421
0.0862654
0.0882232
0.0902677
0.0926728
0.0950722
0.0979645
0.100812
0.104212
0.107719
0.111628
0.116284
0.120985
0.127423
0.133878
0.143259
0.153169
0.168403
0.186176
0.212162
0.247899
0.296595
0.399433
0.591329
0.904857
1.0574
1.06311
1.04441
1.00155
0.972636
0.942797
0.89935
0.844226
0.0725926
0.0728828
0.0731606
0.0734493
0.0737195
0.0740025
0.074275
0.0745584
0.0748373
0.0751298
0.0754292
0.0757452
0.0760841
0.07644
0.0768307
0.077242
0.0776915
0.0781674
0.0786773
0.0792256
0.0797997
0.0804286
0.0810704
0.0817843
0.0825062
0.08331
0.0841102
0.0850076
0.0859007
0.0869221
0.0879504
0.0891478
0.0903794
0.0918116
0.0933114
0.0950306
0.0968835
0.0989319
0.101228
0.103621
0.106429
0.109192
0.11259
0.115845
0.120023
0.124202
0.12942
0.13562
0.142472
0.152284
0.162729
0.179076
0.196376
0.224385
0.256389
0.307376
0.392769
0.525509
0.80208
1.07064
1.1344
1.11183
1.05668
0.971617
0.927738
0.909341
0.890048
0.857041
0.80818
0.0832466
0.083525
0.0838278
0.0840979
0.0844008
0.0846762
0.0849986
0.085298
0.0856431
0.0859753
0.0863456
0.0867205
0.0871218
0.0875466
0.0879898
0.0884675
0.088968
0.0895023
0.0900727
0.0906765
0.0913314
0.0920179
0.0927752
0.0935679
0.0944458
0.0953609
0.0963742
0.0974422
0.0986085
0.0998516
0.101179
0.102629
0.104158
0.105878
0.1077
0.109791
0.112025
0.114543
0.117281
0.120211
0.123576
0.127004
0.131284
0.13565
0.141383
0.147634
0.155717
0.165815
0.17785
0.195407
0.214713
0.244841
0.278021
0.332959
0.407957
0.533928
0.758285
1.0718
1.22455
1.21389
1.16107
1.04405
0.921913
0.86317
0.849279
0.849977
0.843285
0.817979
0.773848
0.0973089
0.0977273
0.098164
0.0985548
0.0989596
0.0993307
0.0997312
0.100103
0.100518
0.100909
0.101354
0.101783
0.102263
0.102745
0.103262
0.103806
0.104366
0.104977
0.105598
0.106278
0.106991
0.107756
0.108596
0.109493
0.110489
0.111558
0.11274
0.114022
0.115424
0.116975
0.118649
0.120557
0.122575
0.124933
0.127359
0.130208
0.133059
0.136371
0.139723
0.143651
0.147913
0.152972
0.159045
0.166253
0.175441
0.186915
0.201558
0.220742
0.244977
0.27807
0.317868
0.37797
0.458927
0.586711
0.790362
1.08627
1.31713
1.34097
1.3013
1.19189
0.995776
0.848984
0.780844
0.769445
0.782868
0.800047
0.803247
0.783794
0.744392
0.114749
0.115255
0.115698
0.116181
0.116573
0.117014
0.117376
0.117793
0.118149
0.118562
0.118945
0.119388
0.119835
0.12035
0.120896
0.121518
0.122191
0.122945
0.12377
0.124667
0.12567
0.126736
0.127927
0.129198
0.130573
0.132071
0.133668
0.135426
0.137279
0.139353
0.141556
0.144055
0.146666
0.149633
0.152633
0.15613
0.159691
0.164083
0.168837
0.175042
0.182155
0.191667
0.203089
0.21805
0.237252
0.261698
0.29372
0.332437
0.388461
0.454827
0.555358
0.689096
0.909569
1.18744
1.43804
1.48985
1.45971
1.35568
1.14216
0.908713
0.753616
0.682341
0.67057
0.691377
0.727249
0.758143
0.769555
0.756062
0.722017
0.14014
0.140822
0.141515
0.142154
0.142797
0.143397
0.144016
0.144599
0.145217
0.145818
0.146454
0.147111
0.1478
0.148551
0.149323
0.150191
0.151075
0.152073
0.153085
0.1542
0.155337
0.156574
0.157836
0.159229
0.160658
0.162277
0.163974
0.165925
0.168
0.170407
0.172979
0.175992
0.179238
0.183147
0.187499
0.193038
0.199509
0.208144
0.218478
0.23257
0.249236
0.272679
0.29939
0.336865
0.380375
0.437544
0.508987
0.596302
0.735233
0.878759
1.13115
1.40865
1.62449
1.66145
1.62574
1.54092
1.30806
1.02966
0.809812
0.669199
0.594761
0.574147
0.590739
0.630897
0.67842
0.719612
0.740203
0.734596
0.706619
0.171502
0.172211
0.172915
0.173624
0.174282
0.174979
0.175623
0.176346
0.177001
0.17778
0.178489
0.179352
0.18016
0.181135
0.18209
0.183189
0.184338
0.185583
0.186975
0.188406
0.190036
0.191668
0.193478
0.195348
0.197371
0.199601
0.202053
0.204902
0.208171
0.212104
0.216832
0.222651
0.229907
0.238981
0.250644
0.265543
0.284739
0.309328
0.339701
0.379215
0.424966
0.488188
0.552566
0.648962
0.738718
0.880449
1.01711
1.25109
1.51352
1.76544
1.88244
1.86524
1.82727
1.6801
1.44976
1.1642
0.962071
0.797636
0.67157
0.582324
0.535168
0.526625
0.548634
0.589309
0.63748
0.682567
0.712421
0.717475
0.705795
0.221075
0.222186
0.223258
0.224356
0.225395
0.226492
0.22754
0.228662
0.229755
0.230936
0.232118
0.233406
0.234723
0.236169
0.237674
0.239316
0.241067
0.242937
0.244938
0.247084
0.249375
0.251912
0.254898
0.25851
0.263037
0.268662
0.275762
0.284538
0.295608
0.30926
0.326604
0.347922
0.374999
0.408247
0.450138
0.501491
0.564607
0.639506
0.727769
0.83201
0.948029
1.08916
1.22913
1.41791
1.58259
1.85476
2.11694
2.20646
2.17395
2.13119
2.00744
1.80723
1.50115
1.26332
1.10958
0.971336
0.871968
0.770995
0.667473
0.585522
0.546166
0.536197
0.553895
0.587367
0.628659
0.670079
0.704386
0.721696
0.717409
0.35249
0.355485
0.358488
0.361513
0.364529
0.367608
0.370724
0.373932
0.377229
0.38065
0.384228
0.387966
0.391955
0.396136
0.400696
0.405494
0.410821
0.416367
0.422808
0.429455
0.438627
0.450711
0.465969
0.48562
0.511298
0.543238
0.582088
0.628295
0.682729
0.746406
0.820214
0.905318
1.00316
1.11525
1.24161
1.38234
1.53723
1.70566
1.89051
2.08231
2.27819
2.46993
2.64114
2.82298
2.85617
2.78387
2.61802
2.40645
2.16145
1.81881
1.47811
1.21271
1.07749
1.10658
1.19526
1.25375
1.2332
1.10835
0.942007
0.786832
0.690015
0.650397
0.645647
0.662085
0.689982
0.72186
0.751468
0.773643
0.776263
1.30444
1.32297
1.34145
1.35983
1.37821
1.39663
1.41513
1.43387
1.45274
1.47212
1.49173
1.51209
1.53299
1.55472
1.57762
1.60159
1.62706
1.6641
1.71195
1.77098
1.83926
1.91607
2.00257
2.09734
2.20167
2.31523
2.43842
2.57084
2.71184
2.86304
3.0237
3.19798
3.38221
3.57335
3.76641
3.9569
4.13631
4.29309
4.42544
4.48252
4.45654
4.35388
4.22884
3.85874
3.38335
2.74994
2.18955
1.74761
1.47224
1.32121
1.27875
1.30107
1.51603
1.99542
2.24943
2.39869
2.44477
2.30435
2.0505
1.72165
1.41137
1.21142
1.19023
1.1683
1.16329
1.1692
1.18512
1.19648
1.17554
8.37949
8.37925
8.37806
8.37588
8.37272
8.36854
8.36336
8.35719
8.34996
8.34178
8.3324
8.32228
8.31055
8.29862
8.2844
8.27028
8.25564
8.23073
8.20678
8.17833
8.15403
8.12173
8.08748
8.04532
8.00563
7.97178
7.92999
7.88098
7.82651
7.77013
7.70811
7.63817
7.56022
7.47401
7.37905
7.27642
7.16776
7.0606
6.9622
6.88231
6.82547
6.78555
6.74871
6.71035
6.67025
6.63082
6.59151
6.55317
6.51548
6.47775
6.44004
6.4033
6.36794
6.33474
6.30484
6.27982
6.2609
6.24832
6.24152
6.23985
6.24338
6.2554
6.27502
6.29788
6.32386
6.35307
6.39022
6.44215
6.43625
0.0280589
0.0280763
0.0280576
0.0280934
0.0280901
0.0281717
0.0282195
0.028246
0.0282698
0.0282503
0.028258
0.028254
0.0283198
0.0283796
0.028392
0.028356
0.0283605
0.028399
0.0284454
0.028449
0.0284092
0.0284253
0.0284232
0.0284412
0.0284404
0.0284283
0.0284544
0.0284541
0.0284397
0.0284776
0.0284559
0.0284793
0.0284756
0.0284841
0.0284989
0.0284664
0.0284878
0.0285263
0.0285335
0.0285648
0.0285354
0.028568
0.0285562
0.0285313
0.0285439
0.0285388
0.0285313
0.0284926
0.0285201
0.0286113
0.0287043
0.0288445
0.0288615
0.0288543
0.0288034
0.028765
0.0287115
0.0287363
0.0287922
0.0283277
0.0283184
0.0283763
0.0284296
0.0285026
0.0285321
0.0285344
0.028497
0.0284993
0.0284963
0.0285029
0.0285464
0.0286209
0.0286473
0.028607
0.028605
0.0286099
0.0286673
0.028686
0.0286682
0.0286409
0.0286445
0.028654
0.0286757
0.0286736
0.0286676
0.0286885
0.0286909
0.0286737
0.0286997
0.0286841
0.0287101
0.0287101
0.0287156
0.0287324
0.0287076
0.0287109
0.0287551
0.0287827
0.0288099
0.0288072
0.0288208
0.0288145
0.0287896
0.0288072
0.0288176
0.0288125
0.0288074
0.0287813
0.0288113
0.0288755
0.0289965
0.0290995
0.0291808
0.0292133
0.0291749
0.029166
0.0291154
0.0291248
0.0287513
0.0288019
0.0288541
0.0288815
0.0288788
0.0288472
0.0288161
0.0288179
0.0288293
0.0288108
0.028855
0.0289297
0.0289583
0.0289127
0.0289077
0.0289067
0.0289445
0.0289849
0.0289854
0.0289327
0.0289211
0.0289314
0.0289509
0.0289624
0.0289566
0.0289557
0.0289691
0.0289713
0.0289507
0.0289674
0.0289639
0.028983
0.0289817
0.0289819
0.0290117
0.0290006
0.0289958
0.0290335
0.0290675
0.0291124
0.0291194
0.0291386
0.0291482
0.0291498
0.0291358
0.0291447
0.0291231
0.0291105
0.0291186
0.0291314
0.0291598
0.0292236
0.0293133
0.0294122
0.0294944
0.0295647
0.0295674
0.0295709
0.0295614
0.0292342
0.0292491
0.0292394
0.0292023
0.0291731
0.0291599
0.0291597
0.029178
0.029168
0.029232
0.0293088
0.0293349
0.0292813
0.0292689
0.0292705
0.029282
0.029321
0.029336
0.0292837
0.0292508
0.0292547
0.0292749
0.0292984
0.0293079
0.0292954
0.0292946
0.02931
0.0293141
0.0292924
0.0293019
0.0292999
0.0293224
0.0293263
0.0293233
0.0293494
0.0293443
0.029335
0.0293653
0.0294063
0.0294721
0.0294962
0.0295258
0.0295226
0.0295173
0.0295262
0.0295331
0.0295409
0.0295446
0.029554
0.0295621
0.0295739
0.0295993
0.029646
0.0297128
0.0297865
0.0298655
0.0299285
0.0299794
0.0300152
0.0297102
0.0296991
0.0297018
0.0296824
0.029635
0.0296451
0.0296445
0.0297008
0.0297531
0.0297987
0.0297625
0.0297154
0.0296962
0.0297019
0.0296981
0.0297352
0.0297835
0.0297302
0.0296729
0.0296695
0.0296728
0.0297082
0.0297199
0.0297049
0.0297003
0.0297044
0.0297111
0.0297119
0.0296846
0.0296922
0.0296969
0.0297098
0.0297173
0.0297128
0.0297563
0.0297578
0.029751
0.0297688
0.0297982
0.0298665
0.0299124
0.0299573
0.0299873
0.0300037
0.0300153
0.030017
0.0300236
0.0300312
0.0300444
0.0300581
0.0300706
0.0300857
0.030107
0.0301421
0.0301858
0.0302406
0.0302956
0.030353
0.0304023
0.0302915
0.0303152
0.0302723
0.030292
0.0302731
0.0303179
0.0303074
0.0302632
0.0302554
0.0302477
0.0302401
0.0302605
0.0302723
0.0302832
0.0302627
0.0302923
0.0302254
0.0301696
0.0301351
0.03015
0.0301827
0.0302015
0.0302018
0.0302098
0.030184
0.0301898
0.0301956
0.0301963
0.0301678
0.0301715
0.0301741
0.0301903
0.0302004
0.030192
0.0302225
0.0302388
0.0302368
0.0302555
0.0302792
0.0303446
0.0303989
0.0304506
0.0304925
0.0305309
0.0305611
0.0305782
0.03059
0.0306022
0.0306177
0.0306382
0.0306574
0.0306779
0.0306963
0.0307194
0.0307459
0.0307823
0.0308191
0.0308668
0.0309091
0.0309914
0.031014
0.0310109
0.0309964
0.0309946
0.0309546
0.0309446
0.0309779
0.0309696
0.0309449
0.0309381
0.0309284
0.0309217
0.0308564
0.0308621
0.0308478
0.0307769
0.0307498
0.0307548
0.0307553
0.0307909
0.0308158
0.0308179
0.0307581
0.0307562
0.0307693
0.030762
0.0307572
0.0307234
0.0307279
0.0307349
0.0307411
0.0307584
0.0307505
0.0307963
0.0308231
0.0308195
0.030831
0.0308471
0.0309026
0.0309687
0.0310326
0.031091
0.0311436
0.0311925
0.0312283
0.0312526
0.0312698
0.0312851
0.0313059
0.0313294
0.031356
0.0313836
0.0314206
0.0314467
0.0314835
0.0315159
0.0315647
0.0316056
0.0318195
0.0318704
0.031821
0.031868
0.0317747
0.0317384
0.0316944
0.0316729
0.0316774
0.0316717
0.0317262
0.0316599
0.0316608
0.0316458
0.0315834
0.0314757
0.0314474
0.0314686
0.0314806
0.0314834
0.0315374
0.0314958
0.0314606
0.0314739
0.0314536
0.0314453
0.031455
0.0314405
0.0314087
0.0314099
0.0314131
0.0314196
0.0314341
0.0314201
0.0314437
0.0314912
0.0315031
0.0315199
0.0315278
0.0315712
0.0316278
0.0316959
0.0317605
0.0318272
0.0318933
0.0319545
0.0320052
0.0320464
0.0320755
0.0321025
0.0321249
0.0321626
0.0321443
0.0321428
0.0321903
0.0322262
0.0322585
0.0322466
0.0322719
0.0327517
0.0327514
0.0327101
0.0327104
0.0327037
0.0327415
0.0327337
0.0327215
0.0327179
0.0326346
0.0325964
0.0325613
0.032509
0.0323964
0.032389
0.0324038
0.0323985
0.0323946
0.0323495
0.0323329
0.0323286
0.0323554
0.0323508
0.0322695
0.0322613
0.0322814
0.0322459
0.0322424
0.032202
0.0322043
0.0322103
0.03221
0.0322351
0.0322274
0.0322603
0.0323009
0.0323205
0.0323457
0.0323603
0.0323929
0.0324487
0.0325136
0.0325857
0.0326535
0.0327265
0.0327977
0.0328636
0.0329259
0.0329792
0.0330274
0.0330679
0.0331126
0.0331475
0.0331803
0.0332151
0.0332532
0.033283
0.0333176
0.0333482
0.0339526
0.0339152
0.0338872
0.0338452
0.0338037
0.0337768
0.0337566
0.0337267
0.0337041
0.0336194
0.0335554
0.0335071
0.0334964
0.0335351
0.0335116
0.0333668
0.033346
0.0333462
0.0333641
0.0334031
0.0334256
0.033312
0.033253
0.0332703
0.0332706
0.0332259
0.0332425
0.0332105
0.0331769
0.0331748
0.0331755
0.0331698
0.0331848
0.0331688
0.0331812
0.0332385
0.0332661
0.0332968
0.0333142
0.0333468
0.0333905
0.0334564
0.0335267
0.0336047
0.0336816
0.0337672
0.0338473
0.0339253
0.033996
0.034063
0.03412
0.0341784
0.0342313
0.0342884
0.0343409
0.0344006
0.0344511
0.0345117
0.0345624
0.0354245
0.0353969
0.0353533
0.035317
0.0351752
0.0351579
0.0351516
0.0350873
0.0348912
0.0348698
0.0349011
0.0348688
0.0347462
0.0346506
0.0346094
0.0346241
0.0346868
0.0346997
0.0347435
0.0346493
0.0345028
0.0344857
0.0345289
0.034451
0.0344144
0.0344409
0.034373
0.0343683
0.0343191
0.0343174
0.0343192
0.0343134
0.034342
0.034338
0.0343537
0.0343951
0.0344367
0.0344819
0.0345126
0.0345443
0.0345897
0.0346474
0.034723
0.0348004
0.0348827
0.0349656
0.035057
0.0351468
0.0352342
0.0353211
0.0353996
0.0354765
0.0355435
0.0356131
0.0356734
0.0357408
0.035797
0.0358651
0.0359238
0.0367984
0.0369422
0.0367413
0.0367595
0.0367035
0.0367283
0.0366802
0.0365538
0.0365169
0.0364823
0.03637
0.0363757
0.0363611
0.0363498
0.0363239
0.0362247
0.0361784
0.0361671
0.0360224
0.0360193
0.0360543
0.0359809
0.0358433
0.0358286
0.0358718
0.0357859
0.0358116
0.0357543
0.03572
0.0357095
0.0357043
0.0356849
0.0356953
0.0356804
0.0356836
0.035729
0.035763
0.0358109
0.0358555
0.0359003
0.0359447
0.0360041
0.0360717
0.0361568
0.036246
0.0363404
0.0364341
0.036538
0.0366358
0.036738
0.0368327
0.0369319
0.0370223
0.0371186
0.0372055
0.0373007
0.0373826
0.0374757
0.0375556
0.0384457
0.0383495
0.0383268
0.0382992
0.038333
0.0384167
0.03838
0.0382107
0.0383596
0.038456
0.0383246
0.0382211
0.0381398
0.0380907
0.0380113
0.0380241
0.0380427
0.037955
0.0379582
0.0378545
0.0376858
0.0376199
0.0376672
0.0376351
0.0375247
0.0375596
0.037455
0.0374478
0.0373854
0.0373707
0.0373667
0.0373549
0.0373804
0.037381
0.0373874
0.0374262
0.0374757
0.0375293
0.03758
0.0376364
0.037696
0.0377628
0.0378426
0.0379239
0.0380192
0.0381181
0.0382194
0.038326
0.038438
0.0385541
0.0386665
0.038781
0.0388866
0.0389953
0.0390933
0.0391996
0.0392918
0.0393981
0.039491
0.0406842
0.0407879
0.040728
0.0409688
0.0409905
0.0410132
0.0408811
0.0409963
0.0409415
0.0408395
0.0404283
0.040292
0.0402548
0.0403332
0.040435
0.0403128
0.040204
0.0400818
0.039962
0.0398125
0.0398259
0.0398459
0.0396405
0.0396318
0.0396536
0.0395195
0.0395561
0.0394629
0.0394245
0.0393999
0.0393823
0.0393489
0.0393478
0.0393323
0.039328
0.039354
0.039392
0.039452
0.0395138
0.0395753
0.039639
0.0397101
0.0397973
0.0399009
0.0400075
0.0401303
0.0402499
0.0403743
0.0404947
0.0406254
0.0407543
0.0408943
0.0410291
0.0411735
0.041306
0.0414488
0.0415729
0.0417105
0.0418289
0.0439754
0.0439776
0.0438403
0.0439801
0.0437477
0.0437354
0.0436152
0.0435395
0.043359
0.0432969
0.0433481
0.0433655
0.043375
0.0431669
0.0430055
0.0427976
0.0426815
0.0426218
0.0426837
0.0426186
0.0423509
0.042274
0.0423269
0.0422404
0.042105
0.042149
0.0419909
0.0419775
0.0418941
0.041855
0.0418375
0.0418166
0.04183
0.0418344
0.0418439
0.0418814
0.0419269
0.0419875
0.0420634
0.0421476
0.0422305
0.0423117
0.0423937
0.0424933
0.0426047
0.042731
0.0428705
0.043019
0.0431667
0.0433186
0.043464
0.0436178
0.0437635
0.043921
0.044067
0.0442274
0.0443702
0.0445312
0.0446737
0.0475655
0.047623
0.0475577
0.0473545
0.0472889
0.0474287
0.0473758
0.047106
0.0471215
0.0471429
0.047061
0.0466851
0.0463441
0.046182
0.0460501
0.0460629
0.0461604
0.0461093
0.045712
0.0455438
0.0455588
0.0456055
0.0453088
0.0452305
0.0452761
0.0450647
0.0451105
0.0449695
0.0449177
0.0448654
0.0448313
0.0447834
0.0447617
0.0447342
0.0447215
0.044736
0.0447784
0.0448381
0.0449118
0.0450041
0.0451105
0.045227
0.0453458
0.0454629
0.0455891
0.045724
0.0458694
0.0460292
0.0461985
0.0463791
0.0465607
0.0467508
0.0469383
0.0471362
0.0473266
0.0475306
0.0477173
0.0479214
0.0481029
0.0520124
0.0519727
0.0516611
0.0517998
0.0518776
0.0518046
0.0513802
0.0511603
0.0509354
0.0507259
0.0506175
0.0505316
0.0505031
0.0506532
0.0503014
0.0500954
0.0499432
0.0497056
0.0497612
0.0497097
0.0493841
0.0491824
0.0492511
0.0492154
0.0489645
0.0490335
0.0488057
0.0487723
0.048658
0.0485805
0.0485318
0.0484937
0.04849
0.0484914
0.0485064
0.0485475
0.0485949
0.0486686
0.0487622
0.0488601
0.0489723
0.0490954
0.0492359
0.0493922
0.0495448
0.0497165
0.0498849
0.0500714
0.0502542
0.0504577
0.0506543
0.0508689
0.0510715
0.051291
0.0514944
0.0517192
0.0519218
0.0521529
0.0523596
0.057228
0.0570988
0.0570585
0.0569268
0.0567483
0.0565674
0.0563773
0.0561895
0.056319
0.0563262
0.0559447
0.0560413
0.0553946
0.0551988
0.0550013
0.0549252
0.0549151
0.055029
0.0545776
0.0543168
0.0541875
0.0543147
0.0539427
0.0537872
0.0538318
0.0535006
0.0535464
0.0533483
0.0532581
0.0531569
0.0530939
0.0530348
0.0529784
0.0529201
0.0528962
0.0529022
0.05295
0.0530067
0.0531084
0.0532393
0.0533786