/*--------------------------------*- C++ -*----------------------------------*\
| =========                 |                                                 |
| \\      /  F ield         | OpenFOAM: The Open Source CFD Toolbox           |
|  \\    /   O peration     | Version:  2312                                  |
|   \\  /    A nd           | Website:  www.openfoam.com                      |
|    \\/     M anipulation  |                                                 |
\*---------------------------------------------------------------------------*/
FoamFile
{
    version     2.0;
    format      ascii;
    arch        "LSB;label=32;scalar=64";
    class       volScalarField;
    location    "1100";
    object      p;
}
// * * * * * * * * * * * * * * * * * * * * * * * * * * * * * * * * * * * * * //

dimensions      [0 2 -2 0 0 0 0];

internalField   nonuniform List<scalar> 
76025
(
0.000399217
0.000393749
0.000388127
0.000382622
0.000376977
0.000371343
0.000365309
0.000359507
0.000353541
0.000347629
0.00034151
0.000335287
0.000328981
0.000322651
0.000316317
0.000309888
0.00030356
0.000297059
0.000290603
0.000284299
0.000277942
0.000271347
0.000264786
0.000258293
0.000251763
0.00024531
0.000238834
0.00023221
0.00022586
0.000219279
0.000213267
0.000206872
0.000200442
0.000194167
0.000188091
0.000182225
0.000176465
0.000170624
0.000164864
0.000159233
0.000153917
0.00014872
0.00014349
0.000138355
0.000133737
0.000129191
0.000124848
0.000120429
0.000116633
0.000113015
0.000109669
0.000106729
0.00010397
0.000101435
9.93317e-05
9.74067e-05
9.57268e-05
9.40319e-05
9.25797e-05
9.16794e-05
9.13402e-05
8.99376e-05
8.80124e-05
8.63289e-05
8.37961e-05
7.85063e-05
7.24899e-05
6.54077e-05
4.85279e-05
0.000402676
0.000396867
0.000391006
0.000385199
0.00037933
0.000373311
0.000367245
0.000361134
0.000354897
0.000348577
0.000342144
0.000335681
0.000329196
0.000322667
0.000316098
0.000309529
0.000302869
0.000296252
0.000289567
0.000282965
0.000276239
0.00026954
0.000262865
0.000256199
0.000249515
0.000242849
0.000236205
0.000229677
0.000223166
0.00021666
0.000210261
0.000203723
0.000197308
0.000191101
0.000184917
0.000178863
0.000172831
0.000166993
0.000161351
0.000155778
0.000150402
0.000145118
0.000140067
0.000135278
0.00013068
0.000126246
0.000122008
0.000118046
0.000114413
0.000111067
0.000108032
0.000105368
0.000103053
0.000101114
9.95949e-05
9.836e-05
9.74633e-05
9.69327e-05
9.68219e-05
9.72055e-05
9.79906e-05
9.84667e-05
9.87886e-05
9.90358e-05
9.85878e-05
9.66208e-05
9.31102e-05
8.79638e-05
7.56303e-05
0.000406758
0.00040066
0.00039449
0.000388363
0.000382188
0.000375931
0.000369578
0.000363124
0.000356583
0.000349963
0.000343287
0.000336579
0.000329833
0.00032305
0.000316235
0.00030937
0.000302483
0.000295585
0.000288681
0.000281759
0.000274837
0.000267942
0.000261059
0.000254185
0.000247331
0.000240508
0.000233749
0.000227037
0.000220347
0.0002137
0.000207096
0.000200542
0.000194084
0.000187725
0.00018146
0.000175333
0.000169355
0.000163558
0.000157903
0.000152374
0.000147013
0.000141838
0.000136882
0.000132131
0.000127588
0.00012329
0.000119265
0.000115531
0.000112114
0.00010906
0.000106385
0.000104117
0.000102273
0.000100865
9.99175e-05
9.94393e-05
9.94735e-05
0.000100034
0.000101164
0.000102894
0.000105146
0.000107645
0.000110238
0.000112809
0.000114954
0.000116148
0.000115676
0.000113603
0.000105062
0.000410706
0.000404289
0.000397785
0.000391334
0.00038485
0.000378269
0.000371574
0.000364785
0.000357928
0.000351015
0.000344054
0.000337049
0.000329999
0.000322909
0.000315787
0.000308639
0.00030148
0.000294316
0.000287154
0.000279997
0.000272855
0.000265731
0.000258629
0.000251555
0.00024452
0.000237527
0.000230583
0.000223688
0.000216847
0.000210068
0.000203358
0.000196721
0.000190159
0.000183712
0.000177415
0.000171285
0.000165322
0.000159514
0.000153857
0.000148356
0.000143035
0.000137915
0.000133013
0.000128343
0.000123925
0.000119783
0.000115936
0.000112409
0.000109241
0.000106474
0.000104134
0.00010225
0.000100854
9.99783e-05
9.96627e-05
9.9951e-05
0.000100887
0.000102514
0.00010489
0.000108052
0.000111974
0.000116513
0.000121485
0.0001267
0.000131795
0.000136358
0.000139465
0.000141359
0.000137275
0.000414346
0.00040758
0.000400726
0.000393932
0.000387112
0.00038019
0.000373156
0.000366033
0.000358845
0.000351607
0.000344324
0.000336998
0.000329634
0.000322241
0.000314827
0.000307403
0.000299974
0.00029255
0.000285137
0.000277741
0.000270368
0.000263024
0.000255716
0.000248451
0.000241234
0.000234071
0.000226966
0.000219929
0.000212963
0.000206073
0.00019926
0.000192527
0.00018589
0.000179396
0.000173073
0.000166925
0.000160943
0.000155122
0.000149464
0.00014398
0.00013869
0.000133617
0.00012878
0.000124198
0.000119888
0.000115874
0.000112182
0.000108847
0.000105909
0.00010341
0.000101386
9.98725e-05
9.89138e-05
9.85577e-05
9.88611e-05
9.98891e-05
0.000101712
0.000104402
0.000108035
0.000112674
0.000118344
0.000125003
0.000132522
0.000140672
0.000149078
0.00015738
0.000164589
0.000171138
0.000171601
0.000417829
0.000410687
0.000403463
0.00039631
0.000389136
0.000381864
0.000374481
0.00036701
0.000359477
0.000351897
0.000344279
0.000336626
0.000328945
0.000321244
0.000313532
0.000305819
0.000298111
0.000290416
0.000282743
0.000275096
0.000267485
0.000259915
0.000252394
0.000244928
0.000237522
0.000230183
0.000222918
0.000215732
0.000208628
0.00020161
0.000194682
0.000187848
0.000181135
0.000174584
0.000168219
0.000162037
0.00015603
0.000150195
0.000144536
0.000139068
0.00013381
0.000128785
0.000124012
0.000119511
0.000115301
0.000111409
0.000107864
0.000104705
0.000101976
9.97228e-05
9.79875e-05
9.68159e-05
9.62617e-05
9.63914e-05
9.72813e-05
9.90197e-05
0.000101702
0.000105432
0.000110316
0.000116455
0.000123929
0.000132773
0.000142954
0.000154293
0.000166394
0.000178907
0.000190841
0.000202635
0.00020754
0.000421146
0.000413598
0.000405977
0.00039844
0.00039089
0.000383246
0.000375492
0.000367653
0.000359757
0.00035182
0.000343852
0.000335858
0.000327843
0.000319817
0.000311789
0.000303769
0.000295764
0.000287785
0.000279837
0.00027193
0.00026407
0.000256265
0.000248522
0.000240848
0.000233249
0.000225731
0.0002183
0.00021096
0.000203716
0.000196573
0.000189535
0.000182608
0.000175826
0.000169226
0.000162823
0.000156614
0.00015059
0.000144748
0.000139094
0.000133644
0.000128417
0.000123437
0.000118722
0.000114294
0.000110173
0.000106386
0.000102967
9.99568e-05
9.74041e-05
9.5359e-05
9.3871e-05
9.29952e-05
9.27976e-05
9.3362e-05
9.47852e-05
9.71796e-05
0.000100669
0.00010539
0.00011149
0.000119121
0.00012842
0.0001395
0.00015242
0.000167141
0.000183333
0.000200651
0.000218114
0.000235636
0.000244932
0.000424216
0.000416234
0.000408187
0.000400237
0.000392282
0.000384237
0.000376087
0.000367856
0.000359574
0.000351261
0.000342925
0.000334571
0.000326207
0.00031784
0.000309481
0.000301142
0.000292831
0.000284557
0.000276328
0.000268154
0.000260042
0.000251999
0.000244033
0.000236151
0.000228359
0.000220664
0.00021307
0.000205582
0.000198206
0.000190945
0.000183804
0.000176793
0.00016995
0.000163306
0.000156871
0.000150638
0.000144597
0.000138746
0.000133094
0.000127658
0.000122458
0.000117516
0.00011285
0.000108483
0.000104435
0.000100733
9.74138e-05
9.452e-05
9.21041e-05
9.02216e-05
8.8929e-05
8.82901e-05
8.83841e-05
8.93108e-05
9.11891e-05
9.41554e-05
9.83652e-05
0.000103994
0.000111236
0.000120302
0.000131404
0.000144741
0.000160477
0.000178724
0.000199339
0.000222146
0.000245977
0.000269535
0.000283893
0.000426974
0.000418534
0.000410035
0.000401644
0.000393257
0.000384783
0.00037621
0.000367562
0.000358871
0.000350158
0.000341434
0.000332703
0.000323972
0.000315251
0.00030655
0.000297882
0.000289256
0.000280681
0.000272166
0.000263721
0.000255353
0.00024707
0.000238881
0.000230792
0.000222809
0.000214938
0.000207185
0.000199555
0.00019205
0.000184677
0.000177438
0.00017035
0.000163452
0.00015677
0.000150306
0.00014405
0.000137993
0.000132135
0.000126485
0.000121062
0.000115886
0.000110976
0.000106351
0.000102031
9.80376e-05
9.43979e-05
9.11475e-05
8.83318e-05
8.60055e-05
8.42288e-05
8.30656e-05
8.25882e-05
8.28884e-05
8.40817e-05
8.63072e-05
8.97268e-05
9.45293e-05
0.000100932
0.000109186
0.000119571
0.000132387
0.000147948
0.000166555
0.000188479
0.000213798
0.000242647
0.000273239
0.000302892
0.000321507
0.000429356
0.000420431
0.000411452
0.000402596
0.00039375
0.000384824
0.000375802
0.000366712
0.000357587
0.000348452
0.000339317
0.000330188
0.000321073
0.000311981
0.000302924
0.000293915
0.000284963
0.000276079
0.000267272
0.000258551
0.000249924
0.000241401
0.000232988
0.000224693
0.000216522
0.00020848
0.000200573
0.000192806
0.000185181
0.000177702
0.000170374
0.00016322
0.000156278
0.000149565
0.000143077
0.000136802
0.000130732
0.000124869
0.000119223
0.000113812
0.000108655
0.000103771
9.91755e-05
9.4887e-05
9.09263e-05
8.732e-05
8.41033e-05
8.13217e-05
7.90309e-05
7.72943e-05
7.61822e-05
7.57755e-05
7.61767e-05
7.75149e-05
7.9947e-05
8.36597e-05
8.88759e-05
9.58583e-05
0.000104919
0.000116419
0.000130769
0.000148422
0.000169857
0.000195541
0.000225782
0.00026082
0.000297845
0.000333373
0.000355961
0.000431279
0.000421838
0.000412352
0.000403002
0.000393672
0.000384267
0.000374771
0.000365214
0.000355631
0.00034605
0.000336482
0.000326935
0.000317416
0.000307936
0.000298508
0.000289145
0.000279857
0.000270655
0.000261549
0.000252548
0.000243661
0.000234897
0.000226263
0.000217766
0.000209412
0.000201207
0.000193155
0.000185259
0.000177524
0.00016995
0.000162546
0.000155341
0.000148367
0.000141632
0.000135127
0.000128839
0.000122761
0.000116896
0.000111255
0.000105856
0.000100715
9.58487e-05
9.12704e-05
8.69961e-05
8.30449e-05
7.94419e-05
7.6221e-05
7.34262e-05
7.11121e-05
6.93434e-05
6.81945e-05
6.77532e-05
6.81296e-05
6.94624e-05
7.19232e-05
7.57218e-05
8.11133e-05
8.84055e-05
9.79759e-05
0.000110277
0.000125847
0.000145314
0.000169356
0.000198634
0.000233663
0.000274342
0.000316892
0.000356875
0.000381319
0.000432648
0.000422659
0.000412632
0.000402758
0.000392915
0.000383003
0.000373007
0.000362957
0.000352892
0.000342841
0.000332819
0.000322832
0.000312891
0.000303006
0.000293192
0.000283462
0.000273828
0.000264301
0.000254891
0.000245608
0.000236461
0.000227458
0.000218607
0.000209914
0.000201386
0.000193027
0.00018484
0.000176829
0.000168996
0.000161342
0.000153878
0.000146639
0.000139646
0.000132901
0.000126388
0.000120095
0.000114016
0.000108155
0.000102524
9.71386e-05
9.20121e-05
8.71571e-05
8.25848e-05
7.8308e-05
7.43431e-05
7.07128e-05
6.74482e-05
6.45904e-05
6.21911e-05
6.03128e-05
5.90309e-05
5.84361e-05
5.86409e-05
5.97894e-05
6.20644e-05
6.56927e-05
7.09562e-05
7.82047e-05
8.78837e-05
0.000100538
0.000116849
0.000137634
0.000163764
0.000196059
0.000235065
0.000280039
0.000326393
0.000368785
0.000395128
0.000433356
0.000422781
0.000412179
0.000401748
0.00039136
0.000380911
0.000370385
0.000359815
0.000349242
0.000338698
0.000328198
0.000317752
0.00030737
0.000297065
0.000286851
0.000276743
0.000266753
0.000256895
0.000247177
0.00023761
0.000228204
0.000218966
0.000209905
0.000201026
0.000192334
0.000183833
0.000175526
0.000167415
0.000159502
0.000151785
0.000144285
0.000137032
0.000130038
0.000123296
0.000116789
0.000110503
0.000104435
9.85886e-05
9.29758e-05
8.76084e-05
8.2497e-05
7.76498e-05
7.30744e-05
6.87798e-05
6.4779e-05
6.10908e-05
5.77425e-05
5.47702e-05
5.22203e-05
5.01504e-05
4.86312e-05
4.77509e-05
4.76199e-05
4.83818e-05
5.02224e-05
5.33768e-05
5.81471e-05
6.49198e-05
7.42018e-05
8.66218e-05
0.00010298
0.000124264
0.000151494
0.000185574
0.000226943
0.000274273
0.000321962
0.000364303
0.00038867
0.000433279
0.000422078
0.000410862
0.000399837
0.00038887
0.000377851
0.000366765
0.000355645
0.000344536
0.000333472
0.000322472
0.000311547
0.000300706
0.000289965
0.000279338
0.000268842
0.00025849
0.000248296
0.000238269
0.000228421
0.00021876
0.000209296
0.000200034
0.000190982
0.000182142
0.000173517
0.000165111
0.000156921
0.000148949
0.000141196
0.000133687
0.000126444
0.00011947
0.00011275
0.000106266
0.000100004
9.39623e-05
8.81453e-05
8.25619e-05
7.72207e-05
7.2128e-05
6.72874e-05
6.27021e-05
5.83767e-05
5.43196e-05
5.05449e-05
4.70739e-05
4.39358e-05
4.1169e-05
3.88219e-05
3.69562e-05
3.56506e-05
3.50064e-05
3.51581e-05
3.62859e-05
3.86255e-05
4.24891e-05
4.82837e-05
5.654e-05
6.79426e-05
8.33785e-05
0.00010391
0.000130592
0.000164464
0.000205979
0.000253018
0.000300047
0.000341104
0.000365513
0.000432267
0.000420396
0.000408526
0.000396867
0.000385283
0.000373659
0.000361978
0.000350276
0.000338602
0.000326992
0.000315468
0.000304042
0.000292724
0.000281531
0.000270479
0.000259587
0.000248868
0.000238336
0.000228002
0.000217878
0.000207972
0.000198293
0.000188847
0.000179639
0.000170672
0.000161948
0.000153466
0.000145225
0.000137223
0.000129467
0.000121981
0.000114778
0.000107851
0.000101178
9.47413e-05
8.85276e-05
8.2535e-05
7.67671e-05
7.123e-05
6.59279e-05
6.0862e-05
5.60311e-05
5.14334e-05
4.70686e-05
4.29397e-05
3.90543e-05
3.5426e-05
3.20747e-05
2.90274e-05
2.63199e-05
2.39988e-05
2.21259e-05
2.07845e-05
2.00924e-05
2.02148e-05
2.13734e-05
2.38577e-05
2.80607e-05
3.45047e-05
4.38901e-05
5.70952e-05
7.50495e-05
9.88798e-05
0.000130102
0.000169232
0.000213487
0.000257881
0.00029616
0.000322178
0.000430147
0.000417559
0.000404988
0.000392654
0.000380413
0.000368146
0.000355835
0.000343517
0.000331246
0.000319063
0.000306989
0.00029504
0.000283228
0.000271569
0.000260083
0.000248788
0.0002377
0.000226834
0.0002162
0.000205811
0.000195675
0.0001858
0.000176193
0.000166856
0.000157792
0.000149
0.000140479
0.000132223
0.00012423
0.000116513
0.00010909
0.000101963
9.51142e-05
8.85192e-05
8.21582e-05
7.60205e-05
7.01034e-05
6.44085e-05
5.8938e-05
5.36913e-05
4.86643e-05
4.38506e-05
3.92431e-05
3.48361e-05
3.0626e-05
2.66127e-05
2.28004e-05
1.91973e-05
1.58159e-05
1.26747e-05
9.79877e-06
7.22494e-06
5.01091e-06
3.24887e-06
2.06497e-06
1.63577e-06
2.19835e-06
4.1105e-06
7.84418e-06
1.39723e-05
2.31279e-05
3.62805e-05
5.51832e-05
8.18179e-05
0.000116384
0.000156465
0.000196829
0.000232027
0.000256075
0.000426703
0.000413346
0.000400024
0.000386968
0.000374025
0.000361073
0.000348091
0.00033512
0.000322218
0.000309429
0.000296779
0.000284283
0.000271957
0.000259818
0.000247887
0.000236184
0.000224726
0.00021353
0.000202606
0.000191967
0.000181621
0.000171575
0.000161835
0.000152403
0.000143279
0.000134459
0.00012594
0.000117715
0.000109781
0.000102156
9.48476e-05
8.78434e-05
8.11182e-05
7.4645e-05
6.8404e-05
6.23843e-05
5.6582e-05
5.09955e-05
4.56224e-05
4.04569e-05
3.54898e-05
3.07095e-05
2.6104e-05
2.16613e-05
1.73712e-05
1.32253e-05
9.21645e-06
5.33942e-06
1.58947e-06
-2.03843e-06
-5.54697e-06
-8.9275e-06
-1.21602e-05
-1.52073e-05
-1.80053e-05
-2.04393e-05
-2.23499e-05
-2.34744e-05
-2.35423e-05
-2.22621e-05
-1.88824e-05
-1.17243e-05
1.41024e-06
2.23122e-05
5.13044e-05
8.64997e-05
0.000122954
0.000155442
0.000178109
0.000421698
0.000407517
0.000393392
0.000379565
0.000365876
0.000352195
0.000338503
0.000324843
0.000311276
0.000297852
0.0002846
0.000271537
0.000258682
0.000246052
0.000233672
0.000221562
0.000209743
0.00019823
0.000187036
0.000176173
0.00016565
0.000155472
0.000145645
0.000136168
0.000127038
0.000118251
0.000109797
0.000101666
9.38618e-05
8.63934e-05
7.92555e-05
7.24244e-05
6.58688e-05
5.95607e-05
5.34805e-05
4.76171e-05
4.19645e-05
3.65177e-05
3.12695e-05
2.62093e-05
2.13231e-05
1.65948e-05
1.20077e-05
7.54423e-06
3.18698e-06
-1.08077e-06
-5.27856e-06
-9.4288e-06
-1.35566e-05
-1.76906e-05
-2.18633e-05
-2.61159e-05
-3.04935e-05
-3.50258e-05
-3.97216e-05
-4.45611e-05
-4.94946e-05
-5.45165e-05
-5.95706e-05
-6.40123e-05
-6.63797e-05
-6.47968e-05
-5.74107e-05
-4.24511e-05
-1.87785e-05
1.2112e-05
4.47878e-05
7.28195e-05
9.05032e-05
0.000414788
0.000399716
0.000384722
0.000370063
0.000355569
0.000341105
0.00032665
0.000312251
0.000297975
0.000283875
0.000269985
0.000256327
0.000242918
0.00022978
0.000216939
0.000204419
0.000192241
0.000180422
0.000168977
0.000157916
0.000147248
0.000136979
0.000127111
0.000117641
0.000108564
9.98704e-05
9.15485e-05
8.35895e-05
7.59982e-05
6.87724e-05
6.18907e-05
5.5318e-05
4.90176e-05
4.29593e-05
3.7122e-05
3.14922e-05
2.60599e-05
2.08156e-05
1.57474e-05
1.08407e-05
6.07876e-06
1.44264e-06
-3.0877e-06
-7.53342e-06
-1.19195e-05
-1.62734e-05
-2.06259e-05
-2.50121e-05
-2.94722e-05
-3.40731e-05
-3.89089e-05
-4.40825e-05
-4.97043e-05
-5.58789e-05
-6.26923e-05
-7.02898e-05
-7.88584e-05
-8.83631e-05
-9.81638e-05
-0.00010704
-0.000113653
-0.000116614
-0.000114003
-0.000103193
-8.3021e-05
-5.59823e-05
-2.84444e-05
-7.81713e-06
1.09323e-06
0.000405741
0.000389718
0.000373802
0.000358261
0.000342917
0.000327628
0.000312371
0.000297199
0.000282182
0.000267381
0.000252834
0.000238565
0.000224596
0.000210951
0.000197659
0.000184746
0.000172236
0.000160149
0.000148499
0.000137298
0.000126554
0.000116271
0.00010645
9.70844e-05
8.81655e-05
7.96782e-05
7.1602e-05
6.39285e-05
5.66532e-05
4.9757e-05
4.32035e-05
3.69499e-05
3.09563e-05
2.51919e-05
1.96344e-05
1.42683e-05
9.08082e-06
4.05921e-06
-8.10748e-07
-5.54523e-06
-1.01605e-05
-1.46761e-05
-1.9117e-05
-2.3511e-05
-2.78872e-05
-3.22745e-05
-3.67032e-05
-4.12287e-05
-4.59384e-05
-5.09561e-05
-5.64275e-05
-6.25041e-05
-6.93598e-05
-7.7224e-05
-8.63815e-05
-9.70486e-05
-0.000109042
-0.000121697
-0.000134077
-0.000145332
-0.000154526
-0.000159954
-0.000159047
-0.000149814
-0.000132289
-0.000109529
-8.9057e-05
-7.86772e-05
-8.19691e-05
0.000393756
0.000376685
0.000359745
0.000343226
0.000326943
0.000310743
0.000294606
0.000278586
0.000262759
0.000247195
0.000231936
0.00021701
0.000202442
0.00018826
0.000174496
0.000161179
0.000148337
0.000135991
0.000124156
0.000112846
0.000102068
9.18235e-05
8.21107e-05
7.29205e-05
6.42389e-05
5.60479e-05
4.83315e-05
4.10795e-05
3.42717e-05
2.7868e-05
2.18157e-05
1.6061e-05
1.05565e-05
5.26463e-06
1.5666e-07
-4.78901e-06
-9.59021e-06
-1.42615e-05
-1.88163e-05
-2.32709e-05
-2.76433e-05
-3.19541e-05
-3.62283e-05
-4.04869e-05
-4.47484e-05
-4.90433e-05
-5.34282e-05
-5.79936e-05
-6.28488e-05
-6.81317e-05
-7.40246e-05
-8.07975e-05
-8.88161e-05
-9.84166e-05
-0.00010968
-0.000122327
-0.000135711
-0.000149234
-0.000162427
-0.000174325
-0.000183495
-0.000188269
-0.000187142
-0.000178749
-0.000163431
-0.000145469
-0.000133681
-0.000134701
-0.000150876
0.000379227
0.000361055
0.000343061
0.000325534
0.00030828
0.000291142
0.000274098
0.000257207
0.000240554
0.000224215
0.000208241
0.000192666
0.000177517
0.000162829
0.000148636
0.000134974
0.000121874
0.00010936
9.74499e-05
8.6158e-05
7.54912e-05
6.54509e-05
5.60313e-05
4.72179e-05
3.89851e-05
3.1299e-05
2.4136e-05
1.74696e-05
1.12561e-05
5.43603e-06
-5.52658e-08
-5.27803e-06
-1.02834e-05
-1.51137e-05
-1.98014e-05
-2.43694e-05
-2.88359e-05
-3.32176e-05
-3.75265e-05
-4.17709e-05
-4.5958e-05
-5.00941e-05
-5.41978e-05
-5.83024e-05
-6.24428e-05
-6.66515e-05
-7.09656e-05
-7.5438e-05
-8.01684e-05
-8.53782e-05
-9.14106e-05
-9.86508e-05
-0.000107369
-0.000117626
-0.000129185
-0.000141641
-0.000154703
-0.0001679
-0.00018035
-0.00019085
-0.000198572
-0.000202414
-0.000200504
-0.000192099
-0.000179047
-0.000166908
-0.000163324
-0.000173807
-0.000199714
0.000359329
0.000339908
0.000320667
0.000301964
0.000283591
0.000265376
0.000247292
0.000229405
0.000211806
0.000194581
0.000177788
0.000161466
0.00014565
0.000130377
0.000115691
0.000101631
8.8233e-05
7.55265e-05
6.3533e-05
5.22671e-05
4.1736e-05
3.19395e-05
2.28692e-05
1.4511e-05
6.84443e-06
-1.57833e-07
-6.52783e-06
-1.23171e-05
-1.75995e-05
-2.24614e-05
-2.6989e-05
-3.1261e-05
-3.53448e-05
-3.93028e-05
-4.31902e-05
-4.70479e-05
-5.09007e-05
-5.47572e-05
-5.86114e-05
-6.24508e-05
-6.62721e-05
-7.0097e-05
-7.3966e-05
-7.79179e-05
-8.19556e-05
-8.60386e-05
-9.0141e-05
-9.43149e-05
-9.87051e-05
-0.000103542
-0.00010908
-0.000115579
-0.000123221
-0.000132077
-0.000142193
-0.000153362
-0.000165097
-0.000176749
-0.000187662
-0.000197215
-0.000204086
-0.00020649
-0.000203456
-0.000195708
-0.000185775
-0.000178655
-0.000180822
-0.000197103
-0.000228281
0.000337959
0.000317225
0.00029678
0.000276915
0.000257418
0.000238122
0.000219005
0.000200136
0.000181619
0.000163548
0.000145992
0.000128997
0.000112605
9.68602e-05
8.18128e-05
6.75112e-05
5.39988e-05
4.13115e-05
2.94768e-05
1.85139e-05
8.43206e-06
-7.71196e-07
-9.11605e-06
-1.66417e-05
-2.33898e-05
-2.94012e-05
-3.47357e-05
-3.94778e-05
-4.37312e-05
-4.76076e-05
-5.12149e-05
-5.46511e-05
-5.80081e-05
-6.13672e-05
-6.47837e-05
-6.82844e-05
-7.1866e-05
-7.55017e-05
-7.91604e-05
-8.28282e-05
-8.65243e-05
-9.03003e-05
-9.42082e-05
-9.82698e-05
-0.000102461
-0.00010668
-0.000110789
-0.000114722
-0.000118521
-0.000122249
-0.000125989
-0.000130103
-0.000135248
-0.000141768
-0.000149583
-0.000158543
-0.000168368
-0.000178849
-0.000189159
-0.000197785
-0.000203168
-0.000204378
-0.000201405
-0.000195055
-0.000187571
-0.00018329
-0.000188145
-0.000206699
-0.000239808
0.000304779
0.000282563
0.000260534
0.000239199
0.000218324
0.000197696
0.000177287
0.000157174
0.000137475
0.0001183
9.97298e-05
8.18217e-05
6.46265e-05
4.81985e-05
3.25965e-05
1.78795e-05
4.10031e-06
-8.69734e-06
-2.04793e-05
-3.12197e-05
-4.09e-05
-4.95055e-05
-5.70333e-05
-6.35015e-05
-6.89503e-05
-7.34451e-05
-7.70807e-05
-7.99817e-05
-8.23006e-05
-8.42068e-05
-8.58709e-05
-8.7455e-05
-8.91056e-05
-9.0932e-05
-9.29941e-05
-9.53042e-05
-9.7827e-05
-0.000100488
-0.000103198
-0.000105902
-0.000108618
-0.000111471
-0.000114668
-0.000118363
-0.000122503
-0.000126687
-0.000130353
-0.000133276
-0.000135681
-0.000137681
-0.000139081
-0.000140452
-0.000143121
-0.000147346
-0.000152817
-0.000159998
-0.000168786
-0.00017827
-0.000187261
-0.000194429
-0.000198712
-0.00019953
-0.000196774
-0.000191016
-0.000184217
-0.000180399
-0.000185307
-0.000203317
-0.000235774
0.000275729
0.000251888
0.000228567
0.000205961
0.00018383
0.000162004
0.000140463
0.000119283
9.85895e-05
7.8506e-05
5.91292e-05
4.05303e-05
2.27716e-05
5.92021e-06
-9.94946e-06
-2.47596e-05
-3.84355e-05
-5.09162e-05
-6.21646e-05
-7.21681e-05
-8.09298e-05
-8.84586e-05
-9.47688e-05
-9.98856e-05
-0.000103868
-0.000106814
-0.000108857
-0.000110162
-0.000110915
-0.000111321
-0.000111598
-0.000111969
-0.000112634
-0.000113749
-0.000115401
-0.000117571
-0.00012012
-0.000122793
-0.000125276
-0.000127299
-0.000128812
-0.000130126
-0.000131859
-0.000134624
-0.000138458
-0.000142342
-0.000144606
-0.000144821
-0.000144713
-0.00014541
-0.000145759
-0.00014553
-0.000146665
-0.000149705
-0.000154312
-0.000160485
-0.000168072
-0.000176268
-0.000183826
-0.00018955
-0.000192516
-0.000192182
-0.00018841
-0.000181704
-0.0001739
-0.000168964
-0.00017221
-0.000187599
-0.000216888
0.000219295
0.000193486
0.000167775
0.000143008
0.000118931
9.52641e-05
7.1955e-05
4.9089e-05
2.68064e-05
5.2477e-06
-1.54752e-05
-3.52783e-05
-5.4088e-05
-7.18273e-05
-8.84103e-05
-0.000103739
-0.000117687
-0.000130099
-0.000140847
-0.000149876
-0.00015716
-0.000162693
-0.000166536
-0.000168803
-0.00016964
-0.000169221
-0.000167745
-0.000165438
-0.000162546
-0.000159346
-0.000156151
-0.000153302
-0.000151143
-0.000149992
-0.000150095
-0.000151541
-0.000154171
-0.000157511
-0.000160768
-0.000162966
-0.000163338
-0.000161858
-0.00015946
-0.000157623
-0.000157398
-0.00015829
-0.000158007
-0.000155265
-0.000152536
-0.000151653
-0.000151406
-0.000151058
-0.000151208
-0.000152714
-0.000156156
-0.000161475
-0.000167996
-0.000174696
-0.000180365
-0.000183809
-0.000184122
-0.000180856
-0.000174064
-0.000164549
-0.000154479
-0.000147865
-0.000148972
-0.000161029
-0.000186754
0.000184605
0.000157487
0.000131218
0.000105462
8.006e-05
5.50316e-05
3.04243e-05
6.33367e-06
-1.70868e-05
-3.96756e-05
-6.13031e-05
-8.18717e-05
-0.000101298
-0.000119512
-0.000136473
-0.000152228
-0.000166834
-0.000180119
-0.000191727
-0.000201334
-0.000208732
-0.000213825
-0.00021657
-0.000216974
-0.000215106
-0.00021111
-0.000205217
-0.000197756
-0.00018916
-0.000179978
-0.000170893
-0.000162681
-0.000156155
-0.000152075
-0.000151016
-0.000153212
-0.000158376
-0.000165558
-0.00017313
-0.000179027
-0.000181443
-0.000179749
-0.000174706
-0.000168444
-0.000163566
-0.000161639
-0.000161762
-0.000161848
-0.00016079
-0.000158743
-0.000156749
-0.000155707
-0.000155735
-0.000156807
-0.00015915
-0.000162895
-0.000167739
-0.000172777
-0.000176561
-0.000177452
-0.000174162
-0.000166202
-0.000153955
-0.000138897
-0.000123984
-0.000113366
-0.000110977
-0.000120031
-0.00014348
9.02699e-05
6.00031e-05
3.02349e-05
1.75019e-06
-2.5885e-05
-5.31136e-05
-7.99712e-05
-0.000106243
-0.000131673
-0.000156052
-0.000179221
-0.000201031
-0.000221315
-0.000239865
-0.000256424
-0.000270666
-0.000282348
-0.000291576
-0.00029864
-0.000303683
-0.000306668
-0.000307434
-0.000305767
-0.000301477
-0.000294468
-0.000284778
-0.000272612
-0.000258356
-0.000242582
-0.000226027
-0.000209547
-0.000194076
-0.000180573
-0.000169912
-0.000162771
-0.000159509
-0.000160051
-0.000163782
-0.000169493
-0.000175516
-0.00018013
-0.000182392
-0.000181872
-0.000178683
-0.000173829
-0.000168852
-0.000165284
-0.000163191
-0.000161512
-0.000160072
-0.000159024
-0.000158533
-0.000158609
-0.000159299
-0.000160792
-0.000163247
-0.000166492
-0.000169765
-0.00017171
-0.000170618
-0.000164761
-0.00015299
-0.000135629
-0.000115035
-9.5298e-05
-8.05975e-05
-7.37825e-05
-7.73009e-05
-9.46216e-05
0.000156615
0.000165518
0.000174789
0.000184411
0.000194565
0.000205401
0.000216943
0.000228886
0.000241159
0.000254071
0.000267684
0.000281879
0.000296317
0.000311831
0.000326956
0.000342699
0.00035804
0.000374107
0.000389904
0.000405369
0.000421628
0.000436568
0.000450914
0.000464498
0.000477307
0.000489159
0.000499446
0.000508598
0.000516857
0.000523147
0.000527842
0.000531279
0.000533566
0.000534646
0.000534
0.000532303
0.000529645
0.000525774
0.000521097
0.000515936
0.000509686
0.000503195
0.000496872
0.000490471
0.00048308
0.000476205
0.000468936
0.000462031
0.000455169
0.000448597
0.0004423
0.000436265
0.000430722
0.000425356
0.000420355
0.000415369
0.000410985
0.000406923
0.000403351
0.000152574
0.000161756
0.000171431
0.000181621
0.000192358
0.000203672
0.000215593
0.000228074
0.000241113
0.000254743
0.000268944
0.000283703
0.000298924
0.000314677
0.000330766
0.000347077
0.000363633
0.000380267
0.000396936
0.000413182
0.000429542
0.000445345
0.000460364
0.000474585
0.000487809
0.000500003
0.000510901
0.000520317
0.000528649
0.000535226
0.000539997
0.000543496
0.000545657
0.000546446
0.000545778
0.000543861
0.000540871
0.000536838
0.00053187
0.000526154
0.000519755
0.000513034
0.000506078
0.000498701
0.000491219
0.000483718
0.000476293
0.000469032
0.000461859
0.000454923
0.000448286
0.000441947
0.000435864
0.000430183
0.000424779
0.000419821
0.000415301
0.000411121
0.000407279
0.000147827
0.000157423
0.000167528
0.000178209
0.000189475
0.000201346
0.000213818
0.000226889
0.000240579
0.000254896
0.000269805
0.000285256
0.000301214
0.000317643
0.000334464
0.000351659
0.00036908
0.00038658
0.000403976
0.00042112
0.000438054
0.000454546
0.000470288
0.00048513
0.000498949
0.000511623
0.000522961
0.000532834
0.000541356
0.000548099
0.000553105
0.00055663
0.000558622
0.00055919
0.000558321
0.000556176
0.000552856
0.000548532
0.000543255
0.000537243
0.000530574
0.000523376
0.000515825
0.000508019
0.000500101
0.000492198
0.000484337
0.000476594
0.000469038
0.000461744
0.000454763
0.000448084
0.000441729
0.000435722
0.000430132
0.000424952
0.000420152
0.000415707
0.000411633
0.000142806
0.00015283
0.000163389
0.000174547
0.000186321
0.00019873
0.000211781
0.00022548
0.000239832
0.000254833
0.00027046
0.000286671
0.000303429
0.00032067
0.000338313
0.000356317
0.000374537
0.000392866
0.000411103
0.000429153
0.000446896
0.000464105
0.000480565
0.000496089
0.000510551
0.000523786
0.000535603
0.000545908
0.000554696
0.000561645
0.000566824
0.00057038
0.000572291
0.000572727
0.000571656
0.000569251
0.000565615
0.00056092
0.000555257
0.000548827
0.000541729
0.000534074
0.000526059
0.000517829
0.000509435
0.000501031
0.000492679
0.000484463
0.00047647
0.000468757
0.000461366
0.000454318
0.000447642
0.00044135
0.000435461
0.000429968
0.000424864
0.000420138
0.000415832
0.000137394
0.00014788
0.000158929
0.000170606
0.000182928
0.000195915
0.000209583
0.000223936
0.000238976
0.00025469
0.000271059
0.000288051
0.000305622
0.000323705
0.000342219
0.000361075
0.000380159
0.000399353
0.000418484
0.000437425
0.000456012
0.000474013
0.000491234
0.000507484
0.000522608
0.000536429
0.00054876
0.000559487
0.000568576
0.000575752
0.000581072
0.000584669
0.000586539
0.000586849
0.000585584
0.000582904
0.000578935
0.00057384
0.000567743
0.000560823
0.000553219
0.000545075
0.000536558
0.000527798
0.000518884
0.000509946
0.000501086
0.000492389
0.000483928
0.000475761
0.000467929
0.000460465
0.000453394
0.000446734
0.000440493
0.000434675
0.00042928
0.000424293
0.000419752
0.000131374
0.000142359
0.00015394
0.000166184
0.000179106
0.000192728
0.000207062
0.000222116
0.000237888
0.000254367
0.000271531
0.000289349
0.000307773
0.000326741
0.000346168
0.000365951
0.000385974
0.0004061
0.000426168
0.000446024
0.000465487
0.000484337
0.000502368
0.000519379
0.00053519
0.000549614
0.000562478
0.000573642
0.000583051
0.000590463
0.000595924
0.000599557
0.000601376
0.000601537
0.000600059
0.000597084
0.000592754
0.000587234
0.00058067
0.000573234
0.000565088
0.000556391
0.000547302
0.000537958
0.000528481
0.000518991
0.000509597
0.000500384
0.000491424
0.000482775
0.000474483
0.000466582
0.000459099
0.000452052
0.000445453
0.000439306
0.000433608
0.000428342
0.000423545
0.000124683
0.000136195
0.00014834
0.000161184
0.000174743
0.000189038
0.000204083
0.000219885
0.000236442
0.000253743
0.000271765
0.000290474
0.000309819
0.000329733
0.000350129
0.000370901
0.000391924
0.000413051
0.000434116
0.000454946
0.000475346
0.000495099
0.000513988
0.000531798
0.000548334
0.000563397
0.000576814
0.000588437
0.000598183
0.00060584
0.000611444
0.000615102
0.000616849
0.00061684
0.000615119
0.000611823
0.000607099
0.00060112
0.00059405
0.000586066
0.000577341
0.000568045
0.000558343
0.000548387
0.000538309
0.000528233
0.000518265