/*--------------------------------*- C++ -*----------------------------------*\
| =========                 |                                                 |
| \\      /  F ield         | OpenFOAM: The Open Source CFD Toolbox           |
|  \\    /   O peration     | Version:  2312                                  |
|   \\  /    A nd           | Website:  www.openfoam.com                      |
|    \\/     M anipulation  |                                                 |
\*---------------------------------------------------------------------------*/
FoamFile
{
    version     2.0;
    format      ascii;
    arch        "LSB;label=32;scalar=64";
    class       surfaceScalarField;
    location    "1100";
    object      phi;
}
// * * * * * * * * * * * * * * * * * * * * * * * * * * * * * * * * * * * * * //

dimensions      [0 3 -1 0 0 0 0];

oriented        oriented;

internalField   nonuniform List<scalar> 
116611
(
0.00106481
0.00041725
-0.00104871
-0.000433354
0.00108075
0.000412579
-0.000428518
0.00109665
0.000407585
-0.000423479
0.00111243
0.000402233
-0.000418013
0.0011279
0.000396453
-0.000411923
0.00114338
0.000390189
-0.000405672
0.00115831
0.000383509
-0.000398444
0.00117325
0.000376365
-0.0003913
0.00118791
0.00036874
-0.000383399
0.00120241
0.000360685
-0.000375188
0.00121654
0.000352075
-0.000366207
0.00123043
0.000342944
-0.000356836
0.00124407
0.000333276
-0.000346907
0.00125755
0.000323056
-0.000336537
0.00127084
0.000312301
-0.000325597
0.00128371
0.000301032
-0.000313901
0.00129642
0.000289065
-0.000301772
0.00130867
0.000276586
-0.000288833
0.00132054
0.000263349
-0.000275219
0.00133208
0.000249613
-0.000261155
0.00134342
0.000235051
-0.000246393
0.00135436
0.000219888
-0.000230825
0.00136493
0.00020403
-0.000214598
0.00137515
0.000187461
-0.000197685
0.00138485
0.00017013
-0.000179831
0.00139413
0.000152021
-0.000161302
0.00140295
0.000133064
-0.000141885
0.00141102
0.000113399
-0.000121468
0.00141875
9.28149e-05
-0.000100541
0.00142553
7.13155e-05
-7.80969e-05
0.00143186
4.91424e-05
-5.5472e-05
0.00143728
2.58972e-05
-3.13207e-05
0.00144202
1.76723e-06
-6.50195e-06
0.00144605
-2.31438e-05
1.91104e-05
0.00144926
-4.91699e-05
4.59581e-05
0.00145167
-7.6065e-05
7.36591e-05
0.00145321
-0.000104167
0.000102621
0.00145378
-0.000133233
0.000132664
0.00145347
-0.000163191
0.0001635
0.00145218
-0.000194297
0.000195591
0.00144996
-0.000226408
0.000228629
0.00144668
-0.000259764
0.000263046
0.0014423
-0.00029419
0.000298564
0.00143692
-0.000329604
0.000334984
0.00143065
-0.000366204
0.000372478
0.00142318
-0.000404021
0.000411493
0.00141461
-0.000443135
0.000451699
0.00140493
-0.000483399
0.000493087
0.00139418
-0.000524949
0.000535699
0.00138214
-0.000567837
0.000579869
0.00136886
-0.000612085
0.000625369
0.00135418
-0.000657704
0.000672389
0.00133796
-0.000704674
0.000720885
0.00132028
-0.000752994
0.000770679
0.00130123
-0.000802701
0.000821748
0.0012803
-0.000854082
0.00087501
0.00125778
-0.000907102
0.000929624
0.00123328
-0.000961971
0.000986469
0.00120659
-0.00101892
0.00104562
0.00117754
-0.00107801
0.00110706
0.00114661
-0.00113904
0.00116997
0.00111328
-0.00120267
0.001236
0.00107737
-0.00126917
0.00130508
0.00103869
-0.00133868
0.00137736
0.000997703
-0.00141153
0.00145252
0.00095284
-0.00148906
0.00153392
0.000904261
-0.00157231
0.00162089
0.000855877
-0.00166404
0.00171242
-0.00176295
0.000808486
0.00181034
0.00104805
0.000401199
-0.001032
0.00106393
0.000396697
0.00107969
0.00039183
0.00109533
0.000386597
0.00111083
0.000380948
0.00112612
0.000374896
0.0011412
0.000368431
0.00115606
0.000361509
0.00117067
0.000354129
0.00118509
0.000346269
0.00119924
0.000337925
0.0012131
0.000329079
0.00122667
0.000319704
0.00123995
0.000309779
0.00125293
0.000299322
0.00126567
0.000288289
0.00127805
0.000276687
0.00129015
0.000264486
0.00130182
0.000251681
0.0013132
0.000238227
0.00132414
0.000224113
0.00133469
0.000209343
0.00134483
0.000193888
0.00135456
0.000177727
0.00136385
0.000160845
0.00137267
0.000143196
0.00138094
0.000124794
0.00138872
0.000105619
0.00139592
8.56185e-05
0.00140243
6.48009e-05
0.00140843
4.31472e-05
0.0014137
2.06224e-05
0.00141825
-2.77794e-06
0.00142217
-2.7065e-05
0.00142531
-5.23056e-05
0.00142774
-7.85026e-05
0.00142928
-0.000105705
0.00142993
-0.00013388
0.00142977
-0.000163036
0.00142871
-0.000193232
0.00142678
-0.000224481
0.00142384
-0.000256818
0.00141987
-0.00029022
0.00141496
-0.000324696
0.00140906
-0.000360306
0.00140212
-0.000397078
0.00139402
-0.000435042
0.00138481
-0.000474187
0.00137443
-0.000514565
0.00136279
-0.000556198
0.0013498
-0.000599099
0.00133537
-0.000643274
0.00131943
-0.000688736
0.00130196
-0.000735515
0.00128292
-0.000783669
0.00126217
-0.000833327
0.00123963
-0.00088456
0.00121516
-0.000937502
0.00118855
-0.000992314
0.00115962
-0.00104909
0.00112848
-0.00110789
0.00109482
-0.00116901
0.00105839
-0.00123275
0.00101905
-0.00129934
0.000976718
-0.0013692
0.000931197
-0.00144354
0.000883168
-0.00152428
0.000834398
-0.00161527
-0.0017087
0.000780156
0.00103144
0.000385084
-0.00101533
0.00104737
0.000380772
0.00106311
0.000376089
0.00107868
0.000371022
0.00109407
0.000365557
0.00110928
0.000359688
0.0011243
0.000353406
0.00113912
0.000346696
0.0011537
0.000339542
0.00116805
0.000331925
0.00118214
0.000323834
0.00119596
0.000315254
0.0012095
0.000306168
0.00122272
0.000296557
0.00123564
0.000286407
0.00124823
0.0002757
0.00126049
0.000264426
0.0012724
0.000252567
0.00128397
0.000240112
0.00129516
0.000227037
0.00130594
0.000213332
0.00131631
0.000198974
0.00132626
0.000183945
0.00133576
0.000168228
0.0013448
0.000151804
0.00135334
0.000134653
0.00136137
0.000116759
0.00136889
9.8103e-05
0.00137584
7.86661e-05
0.00138221
5.84293e-05
0.00138798
3.73778e-05
0.00139311
1.5497e-05
0.00139758
-7.24455e-06
0.00140138
-3.08664e-05
0.00140447
-5.53945e-05
0.00140681
-8.08517e-05
0.00140837
-0.000107256
0.00140911
-0.000134624
0.00140904
-0.000162966
0.00140811
-0.000192307
0.0014063
-0.000222669
0.00140355
-0.000254067
0.00139985
-0.000286516
0.00139518
-0.000320026
0.0013895
-0.000354625
0.00138275
-0.000390333
0.00137488
-0.000427176
0.00136586
-0.000465165
0.00135562
-0.000504325
0.00134409
-0.00054467
0.0013312
-0.000586201
0.00131686
-0.00062894
0.00130103
-0.000672907
0.00128365
-0.000718136
0.00126466
-0.000764678
0.00124395
-0.000812614
0.00122141
-0.000862026
0.00119693
-0.000913013
0.0011703
-0.000965689
0.00114137
-0.00102015
0.00110999
-0.00107651
0.00107596
-0.00113498
0.00103904
-0.00119582
0.000999022
-0.00125932
0.000955872
-0.00132605
0.000909731
-0.0013974
0.000861509
-0.00147606
0.000811796
-0.00156555
-0.00164933
0.000752427
0.00101489
0.000368939
-0.000998747
0.00103087
0.000364792
0.00104666
0.000360299
0.00106226
0.00035543
0.00107764
0.000350171
0.00109282
0.00034451
0.00110779
0.000338436
0.00112254
0.000331942
0.00113707
0.000325015
0.00115136
0.00031764
0.00116539
0.000309803
0.00117915
0.000301489
0.00119264
0.000292684
0.00120582
0.000283372
0.00121869
0.000273538
0.00123123
0.000263164
0.00124342
0.000252234
0.00125525
0.000240734
0.00126672
0.000228647
0.0012778
0.000215958
0.00128848
0.000202652
0.00129874
0.00018871
0.00130857
0.000174116
0.00131794
0.000158852
0.00132685
0.000142899
0.00133526
0.000126239
0.00134317
0.000108855
0.00135054
9.07293e-05
0.00135736
7.18458e-05
0.00136361
5.21855e-05
0.00136925
3.17325e-05
0.00137428
1.04688e-05
0.00137866
-1.16293e-05
0.00138238
-3.45851e-05
0.00138541
-5.84193e-05
0.00138771
-8.31531e-05
0.00138926
-0.000108805
0.00139002
-0.000135391
0.00138999
-0.000162927
0.00138911
-0.000191431
0.00138736
-0.00022092
0.00138471
-0.000251412
0.00138111
-0.000282919
0.00137654
-0.000315454
0.00137095
-0.000349035
0.00136429
-0.000383679
0.00135652
-0.000419404
0.00134758
-0.000456224
0.00133742
-0.000494159
0.00132596
-0.000533214
0.00131315
-0.000573391
0.00129892
-0.000614714
0.00128322
-0.0006572
0.00126596
-0.00070088
0.00124708
-0.000745795
0.00122647
-0.000792002
0.00120401
-0.000839566
0.00117955
-0.00088856
0.00115293
-0.00093907
0.00112397
-0.000991184
0.00109246
-0.00104501
0.00105819
-0.0011007
0.00102085
-0.00115849
0.000980266
-0.00121874
0.000936507
-0.0012823
0.000890042
-0.00135093
0.000841858
-0.00142787
0.000790752
-0.00151445
-0.00158203
0.000723445
0.000998824
0.00035297
-0.000982855
0.0010147
0.000348919
0.00103044
0.000344558
0.00104601
0.000339854
0.0010614
0.000334784
0.00107658
0.000329331
0.00109154
0.000323479
0.00110626
0.000317215
0.00112075
0.000310526
0.00113499
0.0003034
0.00114897
0.000295822
0.00116268
0.00028778
0.00117611
0.000279259
0.00118924
0.000270246
0.00120205
0.000260724
0.00121453
0.000250679
0.00122667
0.000240095
0.00123845
0.000228956
0.00124985
0.000217245
0.00126086
0.000204947
0.00127147
0.000192046
0.00128165
0.000178526
0.0012914
0.000164369
0.00130069
0.000149559
0.00130951
0.000134079
0.00131784
0.000117911
0.00132566
0.000101038
0.00133294
8.34445e-05
0.00133968
6.51122e-05
0.00134584
4.60242e-05
0.00135141
2.61638e-05
0.00135636
5.51363e-06
0.00136068
-1.59483e-05
0.00136434
-3.82455e-05
0.00136732
-6.13968e-05
0.00136959
-8.54204e-05
0.00137111
-0.000110333
0.00137187
-0.000136152
0.00137184
-0.000162891
0.00137097
-0.000190566
0.00136925
-0.000219194
0.00136662
-0.000248788
0.00136306
-0.00027936
0.00135853
-0.000310924
0.00135299
-0.000343491
0.00134639
-0.000377076
0.00133867
-0.000411692
0.0013298
-0.000447354
0.00131972
-0.000484077
0.00130837
-0.00052186
0.00129569
-0.000560712
0.00128162
-0.000600645
0.00126609
-0.00064167
0.00124902
-0.000683811
0.00123032
-0.000727096
0.00120988
-0.000771563
0.00118757
-0.000817254
0.00116323
-0.000864219
0.00113668
-0.000912517
0.00110771
-0.00096222
0.00107612
-0.00101341
0.00104162
-0.00106621
0.00100396
-0.00112082
0.000962984
-0.00117777
0.000918941
-0.00123825
0.000872543
-0.00130454
0.000824445
-0.00137978
0.000770315
-0.00146032
-0.00150172
0.000690004
0.000983719
0.000337288
-0.000968037
0.000999336
0.000333301
0.00101487
0.000329027
0.00103028
0.000324437
0.00104556
0.000319511
0.00106066
0.00031423
0.00107556
0.000308575
0.00109025
0.000302528
0.0011047
0.000296074
0.0011189
0.000289197
0.00113284
0.000281883
0.00114651
0.000274117
0.00115988
0.000265885
0.00117295
0.000257174
0.00118571
0.000247968
0.00119813
0.000238253
0.00121021
0.000228014
0.00122193
0.000217235
0.00123328
0.0002059
0.00124423
0.000193994
0.00125478
0.000181501
0.0012649
0.000168403
0.00127458
0.000154687
0.00128381
0.000140333
0.00129256
0.000125327
0.00130082
0.000109652
0.00130857
9.32902e-05
0.00131579
7.62261e-05
0.00132245
5.84431e-05
0.00132855
3.99244e-05
0.00133406
2.06543e-05
0.00133896
6.15543e-07
0.00134323
-2.02152e-05
0.00134684
-4.18583e-05
0.00134978
-6.43314e-05
0.00135201
-8.76505e-05
0.0013535
-0.000111831
0.00135424
-0.000136889
0.00135419
-0.000162839
0.00135332
-0.000189694
0.00135159
-0.000217469
0.00134898
-0.000246175
0.00134544
-0.000275824
0.00134095
-0.000306427
0.00133545
-0.000337994
0.00132891
-0.000370537
0.00132128
-0.000404066
0.00131252
-0.000438593
0.00130258
-0.00047413
0.00129139
-0.000510675
0.00127891
-0.000548229
0.00126506
-0.000586796
0.00124977
-0.000626381
0.00123295
-0.000666994
0.00121451
-0.00070865
0.00119431
-0.000751369
0.00117223
-0.000795169
0.00114809
-0.000840079
0.0011217
-0.000886127
0.00109283
-0.000933352
0.00106122
-0.000981801
0.00102659
-0.00103158
0.000988726
-0.00108296
0.000947657
-0.0011367
0.000903795
-0.00119439
0.000857883
-0.00125862
0.000809368
-0.00133126
0.000748588
-0.00139954
-0.00140194
0.000648809
0.000969679
0.000321834
-0.000954225
0.000985044
0.000317936
0.00100031
0.000313756
0.00101548
0.00030927
0.00103053
0.000304464
0.00104544
0.000299323
0.00106018
0.000293832
0.00107474
0.000287972
0.00108908
0.000281728
0.0011032
0.000275082
0.00111706
0.000268019
0.00113066
0.000260521
0.00114397
0.000252575
0.00115698
0.000244164
0.00116967
0.000235274
0.00118204
0.000225889
0.00119405
0.000215995
0.00120571
0.000205577
0.00121699
0.000194618
0.00122788
0.000183103
0.00123837
0.000171018
0.00124843
0.000158344
0.00125805
0.000145068
0.00126721
0.000131172
0.00127589
0.00011664
0.00128409
0.000101456
0.00129178
8.56051e-05
0.00129893
6.90698e-05
0.00130554
5.18346e-05
0.00131158
3.38836e-05
0.00131703
1.52018e-05
0.00132188
-4.22871e-06
0.00132609
-2.44314e-05
0.00132966
-4.54242e-05
0.00133255
-6.72231e-05
0.00133474
-8.98431e-05
0.00133621
-0.000113299
0.00133693
-0.000137604
0.00133686
-0.000162774
0.00133599
-0.000188819
0.00133427
-0.000215753
0.00133168
-0.000243586
0.00132819
-0.000272329
0.00132375
-0.000301992
0.00131834
-0.000332582
0.00131191
-0.000364109
0.00130443
-0.00039658
0.00129584
-0.000430001
0.00128609
-0.00046438
0.00127513
-0.000499718
0.0012629
-0.000536001
0.00124933
-0.000573226
0.00123434
-0.000611388
0.00121783
-0.000650488
0.00119971
-0.000690524
0.00117983
-0.000731497
0.00115807
-0.000773403
0.00113423
-0.000816243
0.00110812
-0.000860012
0.00107947
-0.000904704
0.001048
-0.000950327
0.00101343
-0.000997005
0.000975662
-0.0010452
0.000934965
-0.001096
0.000891878
-0.0011513
0.00084667
-0.00121341
0.000795906
-0.0012805
0.000721461
-0.00132509
-0.00127428
0.000593808
0.000956481
0.000306493
-0.00094114
0.000971693
0.000302724
0.000986776
0.000298673
0.00100173
0.000294317
0.00101655
0.000289646
0.00103122
0.000284649
0.00104574
0.000279313
0.00106009
0.000273625
0.00107424
0.000267572
0.00108819
0.000261136
0.00110191
0.000254303
0.00111537
0.000247057
0.00112856
0.00023938
0.00114147
0.000231258
0.00115407
0.000222675
0.00116634
0.000213615
0.00117828
0.000204061
0.00118985
0.000194
0.00120106
0.000183415
0.00121187
0.00017229
0.00122228
0.00016061
0.00123226
0.000148359
0.00124181
0.000135522
0.0012509
0.000122082
0.00125952
0.000108023
0.00126764
9.33301e-05
0.00127526
7.79872e-05
0.00128235
6.19788e-05
0.0012889
4.52892e-05
0.00129488
2.79032e-05
0.00130027
9.80609e-06
0.00130507
-9.02077e-06
0.00130923
-2.85998e-05
0.00131276
-4.89475e-05
0.00131561
-7.00786e-05
0.00131778
-9.20074e-05
0.00131923
-0.000114747
0.00131993
-0.000138312
0.00131987
-0.000162713
0.00131902
-0.000187964
0.00131734
-0.000214074
0.00131481
-0.000241055
0.00131139
-0.000268915
0.00130706
-0.000297662
0.00130178
-0.000327303
0.00129552
-0.000357843
0.00128822
-0.000389285
0.00127985
-0.00042163
0.00127035
-0.000454881
0.00125967
-0.000489036
0.00124774
-0.000524074
0.0012345
-0.000559981
0.00121986
-0.000596746
0.00120372
-0.000634356
0.00118599
-0.000672793
0.00116654
-0.000712038
0.0011452
-0.000752064
0.00112179
-0.000792838
0.00109609
-0.000834311
0.00106781
-0.000876428
0.00103667
-0.000919187
0.00100248
-0.000962817
0.000965359
-0.00100807
0.00092575
-0.00105639
0.000884089
-0.00110964
0.000839257
-0.00116858
0.000782407
-0.00122365
0.000685849
-0.00122853
-0.00111505
0.000526614
0.000943878
0.0002912
-0.000928586
0.000959022
0.00028758
0.000974011
0.000283684
0.00098884
0.000279488
0.00100351
0.00027498
0.001018
0.000270151
0.00103233
0.000264989
0.00104647
0.000259484
0.00106042
0.000253624
0.00107416
0.000247396
0.00108767
0.000240786
0.00110095
0.000233779
0.00111397
0.00022636
0.00112672
0.000218514
0.00113917
0.000210225
0.0011513
0.000201478
0.00116311
0.000192256
0.00117457
0.000182543
0.00118566
0.000172324
0.00119636
0.000161583
0.00120667
0.000150304
0.00121656
0.000138471
0.00122601
0.000126068
0.00123501
0.00011308
0.00124354
9.9491e-05
0.00125159
8.5285e-05
0.00125913
7.04468e-05
0.00126615
5.4961e-05
0.00127262
3.88124e-05
0.00127854
2.19865e-05
0.00128388
4.4684e-06
0.00128862
-1.37619e-05
0.00129275
-3.27247e-05
0.00129623
-5.24357e-05
0.00129906
-7.29087e-05
0.00130121
-9.41571e-05
0.00130266
-0.000116194
0.00130338
-0.000139031
0.00130335
-0.000162682
0.00130254
-0.000187157
0.00130093
-0.000212465
0.00129849
-0.000238616
0.0012952
-0.000265618
0.00129101
-0.000293476
0.0012859
-0.000322194
0.00127983
-0.000351774
0.00127276
-0.000382215
0.00126464
-0.000413512
0.00125542
-0.000445662
0.00124505
-0.000478662
0.00123346
-0.000512485
0.00122059
-0.000547109
0.00120636
-0.000582512
0.00119067
-0.000618669
0.00117342
-0.000655544
0.00115448
-0.000693099
0.0011337
-0.000731279
0.00111087
-0.000770008
0.00108574
-0.000809183
0.00105803
-0.000848721
0.00102753
-0.000888691
0.000994284
-0.000929566
0.000958656
-0.000972446
0.000921102
-0.00101884
0.00088126
-0.0010698
0.000835097
-0.00112242
0.000765755
-0.00115431
0.00064294
-0.00110572
-0.00093677
0.00046466
0.000931777
0.000275948
-0.000916525
0.000946879
0.000272478
0.000961818
0.000268745
0.000976585
0.000264722
0.000991171
0.000260395
0.00100557
0.000255753
0.00101977
0.000250787
0.00103377
0.000245486
0.00104756
0.000239837
0.00106112
0.00023383
0.00107446
0.000227451
0.00108755
0.000220689
0.00110038
0.000213528
0.00111294
0.000205956
0.0011252
0.000197956
0.00113717
0.000189515
0.00114881
0.000180616
0.00116011
0.000171244
0.00117105
0.000161383
0.00118161
0.000151018
0.00119179
0.000140132
0.00120155
0.000128709
0.00121088
0.000116735
0.00121977
0.000104192
0.0012282
9.10655e-05
0.00123614
7.73399e-05
0.00124359
6.29996e-05
0.00125052
4.80295e-05
0.00125692
3.24147e-05
0.00126276
1.61409e-05
0.00126804
-8.07002e-07
0.00127273
-1.8451e-05
0.00127681
-3.68086e-05
0.00128027
-5.58945e-05
0.00128308
-7.57222e-05
0.00128523
-9.63044e-05
0.00128669
-0.000117654
0.00128744
-0.000139782
0.00128746
-0.000162701
0.00128672
-0.000186419
0.0012852
-0.000210947
0.00128288
-0.000236291
0.00127972
-0.000262458
0.00127569
-0.00028945
0.00127077
-0.000317269
0.00126491
-0.000345915
0.00125808
-0.000375382
0.00125023
-0.000405663
0.00124131
-0.000436745
0.00123127
-0.000468623
0.00122006
-0.000501271
0.00120761
-0.000534658
0.00119384
-0.000568749
0.00117868
-0.000603506
0.00116202
-0.00063888
0.00114372
-0.000674807
0.00112364
-0.000711193
0.00110154
-0.000747911
0.00107718
-0.00078482
0.00105034
-0.000821887
0.00102105
-0.000859398
0.000989668
-0.000898182
0.000956724
-0.000939502
0.000922142
-0.000984256
0.000883577
-0.00103124
0.000831384
-0.00107023
0.000740542
-0.00106347
0.000588308
-0.000953484
-0.00074329
0.000394829
0.00092021
0.000260753
-0.000905015
0.000935259
0.00025743
0.000950148
0.000253856
0.000964864
0.000250005
0.000979396
0.000245863
0.000993731
0.000241418
0.00100786
0.000236659
0.00102177
0.000231574
0.00103546
0.000226152
0.00104891
0.000220381
0.00106211
0.000214249
0.00107505
0.000207743
0.00108773
0.000200852
0.00110013
0.00019356
0.00111223
0.000185855
0.00112402
0.000177722
0.00113549
0.000169146
0.00114662
0.000160113
0.0011574
0.000150607
0.0011678
0.000140612
0.00117782
0.000130114
0.00118743
0.000119096
0.00119663
0.000107543
0.00120538
9.54383e-05
0.00121368
8.27671e-05
0.0012215
6.95138e-05
0.00122884
5.56629e-05
0.00123567
4.11996e-05
0.00124198
2.6109e-05
0.00124774
1.03771e-05
0.00125295
-6.01278e-06
0.00125758
-2.30824e-05
0.00126162
-4.08476e-05
0.00126504
-5.93224e-05
0.00126784
-7.85196e-05
0.00126999
-9.84516e-05
0.00127146
-0.00011913
0.00127225
-0.000140567
0.00127232
-0.000162772
0.00127165
-0.000185754
0.00127023
-0.000209521
0.00126802
-0.000234078
0.00126499
-0.000259431
0.00126112
-0.000285581
0.00125638
-0.000312527
0.00125073
-0.000340266
0.00124414
-0.00036879
0.00123656
-0.00039809
0.00122797
-0.000428147
0.00121829
-0.000458949
0.0012075
-0.000490476
0.00119552
-0.000522685
0.00118231
-0.000555533
0.00116777
-0.000588969
0.00115181
-0.000622923
0.0011343
-0.000657296
0.00111506
-0.000691948
0.00109386
-0.000726714
0.00107054
-0.000761499
0.00104512
-0.000796469
0.00101801
-0.000832282
0.000989846
-0.000870022
0.00096082
-0.000910477
0.000929284
-0.000952719
0.000889019
-0.00099097
0.000822315
-0.00100352
0.000701814
-0.000942964
0.000522809
-0.00077448
-0.00055076
0.000330279
0.000909259
0.000245632
-0.000894137
0.000924237
0.000242451
0.000939058
0.000239035
0.00095371
0.000235354
0.000968178
0.000231394
0.000982452
0.000227145
0.000996516
0.000222594
0.00101036
0.00021773
0.00102397
0.000212541
0.00103734
0.000207014
0.00105045
0.000201138
0.00106329
0.000194901
0.00107585
0.000188288
0.00108813
0.000181288
0.0011001
0.000173886
0.00111175
0.000166069
0.00112307
0.000157823
0.00113405
0.000149132
0.00114468
0.000139984
0.00115493
0.000130361
0.00116479
0.000120249
0.00117426
0.000109634
0.0011833
9.84978e-05
0.00119191
8.68268e-05
0.00120007
7.4605e-05
0.00120777
6.18171e-05
0.00121499
4.84479e-05
0.0012217
3.44826e-05
0.00122791
1.99067e-05
0.00123358
4.70597e-06
0.0012387
-1.11382e-05
0.00124326
-2.76457e-05
0.00124725
-4.48315e-05
0.00125064
-6.27087e-05
0.00125341
-8.12898e-05
0.00125554
-0.000100587
0.00125702
-0.000120611
0.00125783
-0.000141372
0.00125793
-0.000162881
0.00125733
-0.000185144
0.00125598
-0.00020817
0.00125386
-0.000231963
0.00125095
-0.000256526
0.00124723
-0.000281859
0.00124267
-0.000307961
0.00123723
-0.000334827
0.00123088
-0.000362447
0.0012236
-0.000390809
0.00121535
-0.000419895
0.00120608
-0.000449683
0.00119576
-0.000480154
0.00118434
-0.000511264
0.00117177
-0.000542958
0.00115796
-0.000575164
0.00114282
-0.000607783
0.0011262
-0.00064067
0.00110791
-0.000673665
0.00108785
-0.000706649
0.00106609
-0.000739737
0.00104309
-0.00077347
0.00101964
-0.000808835
0.00099617
-0.000846551
0.000971398
-0.000885705
0.000940545
-0.000921867
0.000890936
-0.000941361
0.000798552
-0.000911139
0.000645597
-0.000790008
0.000451068
-0.000579951
-0.000364127
0.000264435
0.000899014
0.000230595
-0.000883978
0.000913908
0.000227557
0.000928646
0.000224297
0.000943216
0.000220784
0.000957604
0.000217006
0.000971798
0.000212951
0.000985785
0.000208607
0.000999552
0.000203963
0.00101308
0.000199008
0.00102637
0.000193728
0.0010394
0.000188112
0.00105215
0.000182146
0.00106462
0.000175818
0.00107679
0.000169116
0.00108866
0.000162024
0.00110019
0.00015453
0.0011114
0.00014662
0.00112225
0.000138279
0.00113274
0.000129492
0.00114286
0.000120245
0.00115259
0.000110523
0.00116191
0.00010031
0.00117081
8.9592e-05
0.00117929
7.83529e-05
0.00118732
6.65777e-05
0.00119488
5.42512e-05
0.00120197
4.13586e-05
0.00120857
2.7885e-05
0.00121466
1.38164e-05
0.00122023
-8.62025e-07
0.00122526
-1.61706e-05
0.00122974
-3.21267e-05
0.00123365
-4.87445e-05
0.00123698
-6.60365e-05
0.00123971
-8.40148e-05
0.00124181
-0.000102691
0.00124328
-0.000122075
0.00124408
-0.000142179
0.00124421
-0.00016301
0.00124364
-0.000184576
0.00124236
-0.000206883
0.00124033
-0.000229936
0.00123754
-0.000253736
0.00123396
-0.000278284
0.00122958
-0.000303578
0.00122436
-0.00032961
0.00121829
-0.000356372
0.00121133
-0.00038385
0.00120346
-0.000412027
0.00119466
-0.000440877
0.00118488
-0.000470375
0.00117409
-0.000500476
0.00116223
-0.000531104
0.00114923
-0.000562158
0.00113495
-0.000593506
0.00111928
-0.000624995
0.00110214
-0.000656534
0.00108371
-0.000688218
0.00106455
-0.000720572
0.00104559
-0.000754512
0.00102748
-0.000790726
0.00100914
-0.000828205
0.000986183
-0.000862752
0.000948664
-0.000884348
0.000877165
-0.000869861
0.000750096
-0.00078407
0.000569718
-0.00060963
0.00037878
-0.000389013
-0.000202007
0.000216659
0.00088957
0.000215651
-0.000874625
0.000904371
0.000212756
0.000919015
0.000209652
0.000933491
0.000206309
0.000947785
0.000202712
0.000961884
0.000198851
0.000975777
0.000194714
0.000989449
0.000190291
0.00100289
0.000185569
0.00101608
0.000180536
0.00102901
0.00017518
0.00104167
0.000169489
0.00105404
0.000163449
0.00106611
0.000157046
0.00107786
0.000150269
0.00108929
0.000143102
0.00110038
0.000135531
0.00111111
0.000127543
0.00112148
0.000119123
0.00113147
0.000110255
0.00114107
0.000100926
0.00115026
9.11188e-05
0.00115903
8.08197e-05
0.00116737
7.00132e-05
0.00117527
5.86841e-05
0.0011827
4.68173e-05
0.00118966
3.43982e-05
0.00119613
2.14122e-05
0.00120211
7.84524e-06
0.00120756
-6.31841e-06
0.00121249
-2.10994e-05
0.00121688
-3.65133e-05
0.00122071
-5.25735e-05
0.00122396
-6.92924e-05
0.00122663
-8.66815e-05
0.00122869
-0.000104752
0.00123013
-0.000123515
0.00123093
-0.000142979
0.00123107
-0.000163153
0.00123054
-0.000184044
0.00122932
-0.000205658
0.00122738
-0.000227999
0.00122471
-0.000251069
0.00122129
-0.000274867
0.00121711
-0.000299392
0.00121213
-0.000324637
0.00120636
-0.000350594
0.00119976
-0.00037725
0.00119232
-0.000404588
0.00118402
-0.000432581
0.00117484
-0.000461191
0.00116472
-0.000490357
0.0011536
-0.00051998
0.00114137
-0.000549936
0.00112798
-0.00058011
0.00111342
-0.00061044
0.00109798
-0.00064109
0.00108233
-0.000672571
0.00106756
-0.0007058
0.00105447
-0.000741428
0.00104204
-0.000778295
0.00102581
-0.000811967
0.000996669
-0.000833615
0.000938428
-0.000826107
0.000831455
-0.000762888
0.000670301
-0.000622916
0.000479461
-0.00041879
0.000301362
-0.000210913
-5.15722e-05
0.000150927
0.000881015
0.000200801
-0.000866165
0.00089572
0.000198052
0.000910266
0.000195106
0.000924641
0.000191934
0.000938832
0.000188521
0.000952828
0.000184856
0.000966614
0.000180928
0.000980178
0.000176727
0.000993507
0.00017224
0.00100659
0.000167456
0.00101941
0.000162362
0.00103195
0.000156945
0.0010442
0.000151194
0.00105616
0.000145094
0.00106779
0.000138633
0.0010791
0.000131795
0.00109006
0.000124568
0.00110067
0.000116936
0.00111091
0.000108884
0.00112077
0.000100399
0.00113023
9.14642e-05
0.00113928
8.20652e-05
0.00114791
7.21867e-05
0.00115611
6.18134e-05
0.00116387
5.093e-05
0.00117116
3.95218e-05
0.00117799
2.75738e-05
0.00118433
1.50717e-05
0.00119017
2.0015e-06
0.00119551
-1.1655e-05
0.00120032
-2.59165e-05
0.00120461
-4.07978e-05
0.00120835
-5.63119e-05
0.00121153
-7.24706e-05
0.00121413
-8.92853e-05
0.00121614
-0.000106767
0.00121756
-0.000124926
0.00121835
-0.000143771
0.00121851
-0.000163311
0.00121802
-0.000183553
0.00121686
-0.000204501
0.00121502
-0.000226161
0.00121248
-0.000248534
0.00120924
-0.000271621
0.00120527
-0.000295421
0.00120056
-0.00031993
0.00119511
-0.00034514
0.0011889
-0.000371041
0.00118192
-0.00039761
0.00117415
-0.000424812
0.00116555
-0.000452587
0.00115605
-0.000480855
0.00114558
-0.000509516
0.00113413
-0.000538488
0.00112182
-0.000567792
0.00110904
-0.000597661
0.00109663
-0.000628687
0.00108579
-0.000661725
0.00107728
-0.000697293
0.00106987
-0.000734019
0.00105882
-0.000767241
0.00103529
-0.000788438
0.000985029
-0.000783357
0.000891047
-0.000732125
0.000745245
-0.000617086
0.000563648
-0.000441319
0.000383754
-0.000238896
0.000227317
-5.44762e-05
8.09416e-05
9.48027e-05
0.000873427
0.000186041
-0.000858667
0.000888038
0.000183441
0.000902487
0.000180657
0.000916761
0.00017766
0.000930848
0.000174434
0.000944736
0.000170968
0.000958411
0.000167253
0.000971861
0.000163277
0.000985072
0.000159028
0.000998032
0.000154496
0.00101073
0.000149667
0.00102314
0.000144529
0.00103527
0.00013907
0.00104709
0.000133276
0.00105859
0.000127133
0.00106975
0.000120628
0.00108058
0.000113746
0.00109104
0.000106472
0.00110113
9.87926e-05
0.00111084
9.06916e-05
0.00112015
8.2154e-05
0.00112905
7.31643e-05
0.00113753
6.37072e-05
0.00114558
5.37672e-05
0.00115318
4.3329e-05
0.00116032
3.23774e-05
0.001167
2.08976e-05
0.00117319
8.875e-06
0.0011789
-3.70486e-06
0.00118411
-1.68622e-05
0.0011888
-3.06135e-05
0.00119298
-4.4973e-05
0.00119662
-5.99531e-05
0.00119972
-7.55658e-05
0.00120225
-9.18222e-05
0.00120422
-0.000108733
0.0012056
-0.000126308
0.00120639
-0.000144557
0.00120656
-0.000163487
0.00120611
-0.000183105
0.00120503
-0.000203417
0.0012033
-0.000224427
0.0012009
-0.00024614
0.00119784
-0.000268557
0.0011941
-0.00029168
0.00118967
-0.000315505
0.00118456
-0.000340025
0.00117874
-0.000365222
0.00117219
-0.000391061
0.00116487
-0.000417491
0.00115673
-0.000444444
0.00114773
-0.000471863
0.00113794
-0.000499725
0.00112759
-0.000528135
0.00111723
-0.000557436
0.00110788
-0.00058831
0.0011007
-0.000621507
0.00109618
-0.000657201
0.00109258
-0.000693693
0.00108468
-0.000726124
0.00106355
-0.000746104
0.00101629
-0.00074118
0.000928332
-0.000695399
0.000793006
-0.0005968
0.000622595
-0.000446675
0.000446908
-0.000265633
0.000290373
-8.23607e-05
0.000157984
7.79129e-05
0.000188978
4.99479e-05
0.000866868
0.000171362
-0.000852189
0.000881394
0.000168915
0.000895753
0.000166299
0.000909932
0.000163481
0.000923919
0.000160446
0.000937702
0.000157185
0.000951268
0.000153687
0.000964603
0.000149941
0.000977695
0.000145936
0.000990531
0.00014166
0.0010031
0.000137101
0.00101538
0.000132247
0.00102736
0.000127084
0.00103904
0.0001216
0.00105039
0.000115781
0.00106141
0.000109612
0.00107207
0.00010308
0.00108238
9.61693e-05
0.0010923
8.88648e-05
0.00110184
8.11512e-05
0.00111098
7.3013e-05
0.00111971
6.44345e-05
0.00112802
5.53999e-05
0.0011359
4.58934e-05
0.00114333
3.58993e-05
0.0011503
2.54023e-05
0.00115681
1.43872e-05
0.00116285
2.8396e-06
0.0011684
-9.25763e-06
0.00117346
-2.19241e-05
0.00117802
-3.51756e-05
0.00118208
-4.90255e-05
0.00118561
-6.34861e-05
0.00118861
-7.8569e-05
0.00119107
-9.42852e-05
0.00119299
-0.000110645
0.00119434
-0.000127658
0.00119511
-0.000145333
0.0011953
-0.000163678
0.0011949
-0.0001827
0.00119389
-0.000202405
0.00119226
-0.0002228
0.00119001
-0.00024389
0.00118713
-0.000265679
0.00118362
-0.000288167
0.00117946
-0.000311347
0.00117464
-0.000335201
0.00116911
-0.000359697
0.00116285
-0.000384797
0.00115582
-0.000410464
0.00114806
-0.000436684
0.00113972
-0.00046352
0.00113117
-0.000491176
0.00112316
-0.000520123
0.00111674
-0.000551022
0.00111293
-0.000584501
0.00111165
-0.000620228
0.00111042
-0.000655969
0.00110334
-0.000686612
0.00108113
-0.000703912
0.0010318
-0.000696772
0.000943407
-0.000652789
0.000812724
-0.000564716
0.00065169
-0.000435766
0.000485359
-0.000280343
0.000333673
-0.000113947
0.000201814
4.94987e-05
9.12324e-05
0.000188494
0.00028184
-1.6302e-06
0.000861385
0.000156751
-0.000846775
0.000875837
0.000154463
0.000890116
0.000152019
0.000904211
0.000149387
0.000918107
0.00014655
0.000931793
0.000143499
0.000945256
0.000140224
0.000958483
0.000136715
0.000971459
0.00013296
0.000984173
0.000128946
0.000996611
0.000124664
0.00100876
0.000120099
0.0010206
0.00011524
0.00103213
0.000110073
0.00104333
0.000104583
0.00105418
9.87576e-05
0.00106468
9.2581e-05
0.00107481
8.60384e-05
0.00108456
7.91142e-05
0.00109392
7.17927e-05
0.00110288
6.40579e-05
0.00111142