/*--------------------------------*- C++ -*----------------------------------*\
| =========                 |                                                 |
| \\      /  F ield         | OpenFOAM: The Open Source CFD Toolbox           |
|  \\    /   O peration     | Version:  2312                                  |
|   \\  /    A nd           | Website:  www.openfoam.com                      |
|    \\/     M anipulation  |                                                 |
\*---------------------------------------------------------------------------*/
FoamFile
{
    version     2.0;
    format      ascii;
    arch        "LSB;label=32;scalar=64";
    class       volVectorField;
    location    "1100";
    object      U;
}
// * * * * * * * * * * * * * * * * * * * * * * * * * * * * * * * * * * * * * //

dimensions      [0 1 -1 0 0 0 0];

internalField   nonuniform List<vector> 
76025
(
(0.0366323 -0.00625334 0)
(0.0367924 -0.00634247 1.34211e-21)
(0.0369601 -0.00642765 0)
(0.0371338 -0.00651067 0)
(0.0372989 -0.00658932 -2.53819e-21)
(0.0374753 -0.00666754 -4.92389e-21)
(0.0376436 -0.00674009 8.53681e-21)
(0.0378166 -0.00680923 -3.62908e-21)
(0.0379907 -0.00687578 -1.17891e-21)
(0.0381699 -0.00693915 1.15701e-21)
(0.0383464 -0.00699925 -6.04548e-24)
(0.0385237 -0.00705513 3.29355e-21)
(0.0387029 -0.00710988 -4.40639e-21)
(0.0388848 -0.00715818 0)
(0.0390776 -0.00720509 1.05301e-21)
(0.0392644 -0.00725029 0)
(0.0394585 -0.00728888 0)
(0.0396505 -0.00732876 0)
(0.0398443 -0.00736246 9.7745e-22)
(0.0400355 -0.00739881 -9.63362e-22)
(0.0402328 -0.00742606 -9.43825e-22)
(0.0404377 -0.00745059 -2.76594e-21)
(0.0406435 -0.00747078 1.84177e-21)
(0.0408524 -0.00748912 2.66284e-21)
(0.0410623 -0.00750624 -3.64848e-23)
(0.04127 -0.00752415 8.26326e-22)
(0.041486 -0.00753015 -2.52518e-21)
(0.0416955 -0.00753792 2.51616e-21)
(0.0419066 -0.00754215 -8.19464e-22)
(0.0421174 -0.00753841 8.0182e-22)
(0.0423235 -0.0075395 7.85733e-22)
(0.0425235 -0.007545 -1.52993e-21)
(0.0427246 -0.00753299 2.28212e-21)
(0.0429224 -0.0075302 3.54661e-22)
(0.0431189 -0.00751665 -1.76454e-21)
(0.04331 -0.00751362 7.55847e-24)
(0.0434987 -0.00751162 3.30522e-22)
(0.0436846 -0.00749632 -1.55796e-22)
(0.0438663 -0.00748492 2.17239e-24)
(0.0440446 -0.00747095 2.19119e-22)
(0.0442189 -0.0074635 -1.43171e-22)
(0.0443906 -0.00746085 6.89622e-23)
(0.0445573 -0.00744896 -1.33264e-22)
(0.0447217 -0.00744334 2.59395e-22)
(0.0448863 -0.00743565 2.48847e-22)
(0.0450518 -0.00744252 -4.93521e-22)
(0.0452144 -0.00744992 -4.73165e-22)
(0.0453786 -0.00746209 1.39657e-21)
(0.0455453 -0.00748121 -9.22876e-22)
(0.045714 -0.00751236 -6.03112e-24)
(0.0458852 -0.0075536 2.23923e-21)
(0.0460578 -0.00760564 8.89348e-22)
(0.0462288 -0.00766806 -8.83665e-22)
(0.0463991 -0.00774212 0)
(0.0465748 -0.00782674 9.00313e-22)
(0.0467543 -0.00793576 9.19162e-22)
(0.0469363 -0.00806439 -1.86642e-23)
(0.0471265 -0.00822408 9.48051e-22)
(0.0473252 -0.00842667 -1.01666e-21)
(0.0475256 -0.0086707 3.04201e-21)
(0.0477264 -0.00893359 2.1949e-21)
(0.0479677 -0.00926787 1.09093e-22)
(0.0482329 -0.00965578 0)
(0.0485263 -0.0101138 -6.34114e-21)
(0.0488563 -0.010637 2.47792e-21)
(0.0492551 -0.0112455 -1.36401e-21)
(0.0497048 -0.0120179 2.79806e-21)
(0.0503438 -0.0128654 -3.2506e-21)
(0.0510421 -0.0138477 -6.47434e-21)
(0.0364969 -0.00655457 1.42633e-21)
(0.0366677 -0.00664702 4.19307e-21)
(0.0368413 -0.00673574 -5.56335e-21)
(0.0370184 -0.00681944 0)
(0.0371964 -0.00690134 6.61657e-21)
(0.0373785 -0.00697847 -7.36693e-23)
(0.0375618 -0.0070528 -5.16262e-21)
(0.0377446 -0.00712342 0)
(0.0379289 -0.00719 -9.3129e-24)
(0.0381148 -0.00725329 -1.20519e-21)
(0.0383031 -0.00731302 1.18199e-21)
(0.0384919 -0.00736895 -6.52412e-24)
(0.0386804 -0.00742174 0)
(0.0388691 -0.00747121 0)
(0.0390602 -0.00751522 2.15415e-21)
(0.0392528 -0.00755812 -5.42066e-21)
(0.039448 -0.00759534 -1.05601e-21)
(0.0396441 -0.00763102 3.08543e-21)
(0.0398418 -0.00766104 -2.04831e-21)
(0.0400393 -0.00769003 9.94847e-22)
(0.0402386 -0.00771462 -9.55217e-22)
(0.0404385 -0.00773578 1.93397e-21)
(0.0406393 -0.00775369 -1.85879e-21)
(0.0408416 -0.00776845 2.76452e-21)
(0.0410455 -0.00777996 -1.82842e-21)
(0.04125 -0.00778986 -2.64577e-21)
(0.041455 -0.00779498 1.76171e-21)
(0.0416596 -0.00779851 0)
(0.0418641 -0.00779969 0)
(0.0420668 -0.00779792 8.20881e-22)
(0.0422683 -0.00779316 0)
(0.0424701 -0.00778624 7.93062e-22)
(0.0426692 -0.0077761 -7.74624e-22)
(0.0428665 -0.00776461 1.13469e-21)
(0.0430627 -0.00775167 4.60214e-24)
(0.0432577 -0.0077381 3.49009e-22)
(0.0434505 -0.00772386 0)
(0.0436388 -0.00770882 6.35987e-22)
(0.0438241 -0.00769378 -4.61254e-22)
(0.044008 -0.00767919 3.73274e-22)
(0.0441906 -0.0076659 -2.15605e-22)
(0.0443711 -0.0076542 5.46064e-24)
(0.044548 -0.00764401 -7.06788e-23)
(0.0447229 -0.00763617 6.54257e-23)
(0.0448981 -0.00763076 -5.03433e-22)
(0.045074 -0.00762994 2.45788e-22)
(0.0452488 -0.00763354 2.36766e-22)
(0.0454226 -0.00764282 -4.75285e-22)
(0.0455967 -0.00765879 -1.39559e-21)
(0.045771 -0.00768268 -2.3102e-24)
(0.0459446 -0.00771512 -1.35909e-21)
(0.0461158 -0.00775731 4.53543e-22)
(0.0462842 -0.00781062 1.36574e-21)
(0.0464506 -0.00787647 -9.02545e-22)
(0.0466166 -0.00795697 0)
(0.0467847 -0.00805849 -2.83582e-21)
(0.0469536 -0.00818225 -3.27886e-23)
(0.0471259 -0.00833604 9.73221e-22)
(0.047302 -0.00852538 1.03568e-21)
(0.0474811 -0.00875519 0)
(0.0476672 -0.00902897 -1.0484e-21)
(0.0478681 -0.00935393 -3.49637e-21)
(0.0480871 -0.00974079 0)
(0.0483277 -0.0101982 2.63943e-21)
(0.0485978 -0.010737 -1.68184e-21)
(0.0489325 -0.011381 3.09597e-21)
(0.0493418 -0.0121672 -1.59019e-21)
(0.0500064 -0.0130574 3.34361e-21)
(0.0507105 -0.0141249 3.45894e-21)
(0.0363396 -0.00687228 -7.37076e-21)
(0.0365239 -0.00696817 4.43935e-21)
(0.0367097 -0.00706017 -1.44775e-21)
(0.0368959 -0.00714676 5.60706e-21)
(0.0370838 -0.00722951 -6.96413e-21)
(0.0372735 -0.00730835 -5.38695e-21)
(0.0374656 -0.00738341 6.69533e-21)
(0.0376596 -0.00745442 0)
(0.037855 -0.00752145 -8.75989e-24)
(0.0380513 -0.00758456 0)
(0.0382487 -0.00764384 -1.22861e-21)
(0.0384471 -0.00769916 1.19729e-21)
(0.0386462 -0.00775044 5.83908e-21)
(0.0388456 -0.00779803 -4.64842e-21)
(0.0390451 -0.00784149 1.12618e-21)
(0.0392454 -0.00788116 3.2922e-21)
(0.0394464 -0.00791697 -1.10452e-21)
(0.0396483 -0.00794885 -1.05993e-21)
(0.0398511 -0.0079769 -3.09391e-21)
(0.0400547 -0.0080009 2.05613e-21)
(0.0402587 -0.00802148 9.94563e-22)
(0.0404624 -0.00803858 -1.93176e-21)
(0.0406664 -0.00805221 9.80622e-22)
(0.0408707 -0.00806244 9.34492e-22)
(0.0410753 -0.00806946 0)
(0.0412799 -0.0080734 -8.96981e-22)
(0.0414839 -0.00807452 -8.67813e-22)
(0.0416878 -0.00807253 8.9167e-22)
(0.0418914 -0.00806768 0)
(0.0420943 -0.00806033 -1.66841e-21)
(0.0422965 -0.00804969 8.1441e-22)
(0.0424977 -0.0080367 -1.04128e-23)
(0.0426973 -0.00802188 0)
(0.0428961 -0.00800473 -3.79942e-22)
(0.0430937 -0.00798648 1.08128e-21)
(0.0432897 -0.00796729 -7.03233e-22)
(0.0434835 -0.00794819 0)
(0.0436748 -0.00792907 -4.79541e-22)
(0.0438642 -0.00790929 4.65208e-22)
(0.0440524 -0.00789 7.5059e-23)
(0.0442389 -0.00787157 0)
(0.0444234 -0.00785487 1.38525e-22)
(0.0446057 -0.00783994 6.67003e-23)
(0.0447866 -0.00782634 -6.62181e-23)
(0.0449665 -0.00781541 3.82786e-22)
(0.0451451 -0.00780831 2.44289e-22)
(0.045322 -0.00780616 -4.85536e-22)
(0.045497 -0.00780906 4.72589e-22)
(0.0456701 -0.00781811 -4.61817e-22)
(0.0458411 -0.0078346 4.55862e-22)
(0.0460088 -0.00785936 4.55159e-22)
(0.0461727 -0.00789369 -9.03129e-22)
(0.0463331 -0.00793914 0)
(0.0464902 -0.00799744 -9.25003e-22)
(0.046645 -0.00807122 1.56179e-23)
(0.0467984 -0.00816475 9.77379e-22)
(0.0469508 -0.00828206 1.01263e-21)
(0.0471034 -0.00842817 -2.05269e-21)
(0.0472566 -0.0086092 -1.2678e-23)
(0.047411 -0.0088306 -1.12337e-21)
(0.0475673 -0.00909698 2.37647e-21)
(0.0477297 -0.00941902 1.25594e-21)
(0.0479029 -0.00980698 -8.82956e-23)
(0.0480918 -0.0102698 1.41328e-21)
(0.0483053 -0.010823 1.42604e-21)
(0.0485806 -0.0114843 5.13128e-21)
(0.0489556 -0.01231 0)
(0.0496354 -0.0132654 1.99073e-21)
(0.0501676 -0.0143382 -1.95474e-21)
(0.0361588 -0.00720558 0)
(0.0363585 -0.00730365 1.52446e-21)
(0.0365599 -0.00739793 7.45172e-21)
(0.0367605 -0.00748681 -5.91502e-21)
(0.0369613 -0.00757108 -4.27528e-21)
(0.037163 -0.00765124 7.08391e-21)
(0.037366 -0.00772714 -1.37215e-21)
(0.0375705 -0.00779861 1.35268e-21)
(0.0377763 -0.00786566 1.31559e-21)
(0.0379832 -0.00792836 5.12141e-21)
(0.0381909 -0.00798677 -5.10589e-21)
(0.0383995 -0.00804087 -4.90189e-21)
(0.0386088 -0.00809061 1.27974e-21)
(0.0388188 -0.00813603 4.7351e-21)
(0.039029 -0.00817719 -3.4971e-21)
(0.0392394 -0.00821409 1.13257e-21)
(0.0394497 -0.00824688 -1.10745e-21)
(0.0396601 -0.00827548 -1.08292e-21)
(0.0398704 -0.00830004 3.16069e-21)
(0.0400808 -0.00832054 -1.06261e-21)
(0.0402911 -0.00833714 -1.0175e-21)
(0.0405013 -0.00834984 0)
(0.0407113 -0.00835878 -1.91715e-21)
(0.0409209 -0.00836411 9.71201e-22)
(0.04113 -0.00836603 1.8428e-21)
(0.0413385 -0.00836465 1.78184e-21)
(0.0415463 -0.00836005 -3.598e-21)
(0.0417533 -0.00835226 1.75196e-21)
(0.0419595 -0.00834152 0)
(0.0421647 -0.008328 1.68438e-21)
(0.0423687 -0.00831182 -1.53613e-23)
(0.0425715 -0.00829323 -1.64e-21)
(0.0427731 -0.00827254 7.78825e-22)
(0.0429735 -0.00825019 -1.8866e-21)
(0.0431724 -0.00822677 3.746e-22)
(0.0433695 -0.00820269 0)
(0.0435648 -0.00817824 0)
(0.0437583 -0.00815341 -1.58837e-22)
(0.04395 -0.00812835 -1.55914e-22)
(0.0441401 -0.00810366 -7.34931e-23)
(0.0443284 -0.00807979 2.21325e-24)
(0.0445147 -0.00805712 -6.98951e-23)
(0.0446989 -0.00803587 0)
(0.0448811 -0.00801644 -2.93623e-24)
(0.0450611 -0.00799968 0)
(0.0452389 -0.00798634 -2.50437e-22)
(0.045414 -0.00797709 5.36921e-25)
(0.0455863 -0.00797263 6.9883e-22)
(0.0457554 -0.00797409 0)
(0.0459208 -0.00798247 4.58426e-22)
(0.0460817 -0.00799844 -4.51971e-22)
(0.0462384 -0.00802371 9.1977e-22)
(0.0463905 -0.00805977 0)
(0.0465384 -0.00810872 2.83414e-21)
(0.0466823 -0.00817341 1.49082e-23)
(0.0468225 -0.00825744 -9.63806e-22)
(0.0469592 -0.00836481 -9.99267e-22)
(0.0470925 -0.00850027 0)
(0.0472223 -0.00866959 0)
(0.0473487 -0.00887875 1.1496e-21)
(0.047473 -0.00913453 -2.42456e-21)
(0.0475967 -0.00944571 -2.58196e-21)
(0.0477205 -0.0098241 0)
(0.0478517 -0.0102828 3.17268e-21)
(0.0480043 -0.0108411 0)
(0.0482287 -0.0115214 -5.48805e-21)
(0.0485844 -0.0123884 1.9091e-21)
(0.049261 -0.0133809 2.19049e-21)
(0.0495177 -0.0143642 2.48266e-21)
(0.0359727 -0.00755819 0)
(0.0361818 -0.00765711 0)
(0.0363953 -0.00775232 1.56772e-21)
(0.0366094 -0.00784212 -6.05763e-21)
(0.0368243 -0.00792721 7.5146e-21)
(0.0370401 -0.00800804 -1.45373e-21)
(0.0372566 -0.00808444 0)
(0.0374738 -0.00815618 -1.39039e-21)
(0.0376916 -0.00822314 0)
(0.03791 -0.00828532 -2.64135e-21)
(0.0381291 -0.00834273 4.34803e-23)
(0.0383487 -0.00839543 2.57062e-21)
(0.0385687 -0.00844342 0)
(0.0387891 -0.00848673 -2.40751e-21)
(0.0390097 -0.00852541 7.12859e-21)
(0.0392302 -0.00855954 -4.64476e-21)
(0.0394506 -0.00858916 5.67271e-21)
(0.0396706 -0.00861435 -1.13155e-21)
(0.0398901 -0.00863517 1.08084e-21)
(0.0401091 -0.00865173 -1.06043e-21)
(0.0403275 -0.0086641 -1.01382e-21)
(0.0405452 -0.00867239 3.05296e-21)
(0.0407622 -0.00867671 1.9756e-21)
(0.0409783 -0.00867723 0)
(0.0411934 -0.00867408 -1.86665e-21)
(0.0414076 -0.00866743 -8.82928e-22)
(0.0416205 -0.00865741 2.74011e-21)
(0.0418322 -0.00864419 -8.90183e-22)
(0.0420425 -0.00862795 1.71158e-21)
(0.0422514 -0.00860887 -2.57478e-21)
(0.0424588 -0.00858711 8.24972e-22)
(0.0426646 -0.00856283 -4.04425e-22)
(0.042869 -0.00853651 0)
(0.0430717 -0.00850863 3.80583e-22)
(0.0432727 -0.00847951 3.64991e-22)
(0.0434717 -0.00844944 0)
(0.0436689 -0.00841867 -3.28693e-22)
(0.0438641 -0.00838745 4.77491e-22)
(0.0440573 -0.00835608 -3.10395e-22)
(0.0442485 -0.00832493 1.47494e-22)
(0.0444375 -0.0082944 2.13354e-24)
(0.0446241 -0.00826485 1.01659e-22)
(0.0448081 -0.00823666 -3.34089e-23)
(0.0449895 -0.00821027 -1.30046e-22)
(0.045168 -0.00818622 2.84768e-24)
(0.0453435 -0.00816514 -7.28823e-22)
(0.0455156 -0.00814774 0)
(0.0456841 -0.00813491 -4.70113e-22)
(0.0458489 -0.00812766 -8.51604e-24)
(0.0460091 -0.00812671 4.51042e-22)
(0.0461643 -0.00813311 0)
(0.0463149 -0.00814818 4.64375e-22)
(0.0464602 -0.00817355 -4.60622e-22)
(0.0466002 -0.00821136 -9.55116e-22)
(0.0467345 -0.00826426 0)
(0.0468628 -0.00833556 2.03203e-21)
(0.0469846 -0.00842925 -2.08593e-21)
(0.0470992 -0.00855 2.17652e-21)
(0.0472057 -0.00870345 3.16e-23)
(0.0473035 -0.00889599 0)
(0.0473922 -0.0091351 1.33119e-21)
(0.0474729 -0.00942996 -1.36807e-21)
(0.0475454 -0.00979245 -1.58015e-21)
(0.0476166 -0.0102395 -3.22135e-21)
(0.0477116 -0.0107977 5.56682e-21)
(0.0478971 -0.0114951 -3.96436e-21)
(0.0482482 -0.0123993 2.05918e-21)
(0.0488793 -0.0133868 -2.36079e-21)
(0.0486189 -0.0141722 -7.29885e-21)
(0.0357985 -0.00793462 -6.62778e-21)
(0.0360118 -0.00803397 1.00886e-22)
(0.0362314 -0.00812933 6.53567e-21)
(0.0364538 -0.00821904 0)
(0.0366788 -0.00830387 -1.54061e-21)
(0.0369062 -0.00838436 0)
(0.0371354 -0.00846032 2.92851e-21)
(0.0373655 -0.00853149 -5.19379e-23)
(0.0375963 -0.00859769 -4.25524e-21)
(0.0378275 -0.00865885 1.37786e-21)
(0.0380589 -0.00871495 1.34017e-21)
(0.0382906 -0.00876599 1.31173e-21)
(0.0385223 -0.00881198 0)
(0.0387539 -0.00885295 0)
(0.0389853 -0.00888895 -1.21837e-21)
(0.0392164 -0.00892002 -1.18956e-21)
(0.0394471 -0.00894624 2.29471e-21)
(0.0396771 -0.0089677 -2.29048e-21)
(0.0399064 -0.00898448 -2.2088e-21)
(0.0401348 -0.00899669 2.13095e-21)
(0.0403622 -0.00900445 -4.21657e-21)
(0.0405884 -0.00900788 4.20346e-23)
(0.0408134 -0.00900713 2.02064e-21)
(0.041037 -0.00900235 9.7288e-22)
(0.0412592 -0.0089937 1.88692e-21)
(0.0414798 -0.00898134 -1.89098e-21)
(0.0416989 -0.00896545 -1.8001e-21)
(0.0419162 -0.0089462 1.80605e-21)
(0.0421317 -0.00892377 0)
(0.0423454 -0.00889835 0)
(0.0425571 -0.00887011 -2.07798e-21)
(0.0427667 -0.00883926 2.99203e-23)
(0.0429746 -0.0088064 7.9325e-22)
(0.0431803 -0.00877192 7.39758e-22)
(0.0433837 -0.00873611 -7.26615e-22)
(0.0435849 -0.00869925 0)
(0.0437837 -0.00866164 3.33317e-22)
(0.0439803 -0.00862357 4.67851e-22)
(0.0441744 -0.00858534 -3.06677e-22)
(0.044366 -0.00854726 -2.15224e-24)
(0.0445549 -0.00850968 2.16767e-23)
(0.0447411 -0.00847295 -1.02657e-22)
(0.0449242 -0.00843741 -6.41685e-23)
(0.0451043 -0.00840347 -1.25805e-22)
(0.0452811 -0.00837161 6.17317e-22)
(0.0454544 -0.00834243 2.7394e-24)
(0.0456241 -0.00831661 0)
(0.0457899 -0.00829496 4.49981e-22)
(0.0459515 -0.00827843 -1.35505e-21)
(0.0461083 -0.00826762 8.88426e-22)
(0.04626 -0.00826354 4.56748e-22)
(0.0464064 -0.00826734 -2.5879e-24)
(0.0465468 -0.00828053 4.8665e-22)
(0.0466805 -0.00830507 3.14454e-23)
(0.0468066 -0.00834354 -9.62126e-22)
(0.0469243 -0.00839904 1.00248e-21)
(0.0470321 -0.00847532 1.08434e-21)
(0.0471288 -0.00857687 -2.21727e-21)
(0.0472125 -0.00870924 -3.39181e-23)
(0.0472817 -0.00887901 -1.2888e-21)
(0.0473339 -0.00909425 1.28332e-21)
(0.0473681 -0.0093651 -1.42106e-21)
(0.0473861 -0.0097049 3.07773e-21)
(0.0474 -0.0101336 1.79454e-21)
(0.0474473 -0.0106848 -3.57315e-21)
(0.0476104 -0.011396 2.2687e-21)
(0.0479632 -0.0123176 7.10453e-21)
(0.0484274 -0.0132359 2.49534e-21)
(0.0472315 -0.0137304 0)
(0.0356379 -0.0083363 0)
(0.0358567 -0.00843625 -1.72077e-21)
(0.0360815 -0.00853166 1.55121e-23)
(0.0363094 -0.00862089 0)
(0.0365409 -0.00870485 0)
(0.036776 -0.00878416 -1.56803e-21)
(0.0370142 -0.0088587 4.55431e-21)
(0.0372546 -0.00892823 -5.95722e-21)
(0.0374965 -0.00899261 2.92809e-21)
(0.0377394 -0.00905174 -1.41458e-21)
(0.0379828 -0.00910559 0)
(0.0382265 -0.00915414 -1.34614e-21)
(0.0384702 -0.00919737 1.31321e-21)
(0.0387136 -0.00923529 0)
(0.0389566 -0.00926793 0)
(0.0391989 -0.00929532 -1.19033e-21)
(0.0394404 -0.00931755 5.56451e-23)
(0.0396809 -0.00933469 2.33686e-21)
(0.0399204 -0.00934685 2.22984e-21)
(0.0401585 -0.00935416 -2.21981e-21)
(0.0403953 -0.00935673 -1.0723e-21)
(0.0406304 -0.00935473 -4.13573e-21)
(0.0408639 -0.0093483 2.79912e-23)
(0.0410956 -0.00933761 9.57142e-22)
(0.0413253 -0.00932285 -1.95404e-21)
(0.041553 -0.0093042 9.22597e-22)
(0.0417786 -0.00928184 -1.8591e-21)
(0.042002 -0.00925597 0)
(0.0422231 -0.00922679 0)
(0.0424419 -0.00919452 0)
(0.0426582 -0.00915935 4.20998e-22)
(0.0428719 -0.00912156 8.09764e-22)
(0.0430834 -0.0090818 -7.86023e-22)
(0.0432921 -0.0090404 -7.31161e-22)
(0.0434981 -0.00899763 7.18191e-22)
(0.0437014 -0.00895378 0)
(0.043902 -0.00890913 -3.20479e-22)
(0.0440999 -0.00886396 1.5707e-22)
(0.0442949 -0.00881854 0)
(0.0444871 -0.00877318 -1.42903e-22)
(0.0446762 -0.00872817 2.57805e-23)
(0.0448623 -0.00868385 -1.67304e-23)
(0.0450452 -0.00864055 6.51222e-23)
(0.0452248 -0.00859868 0)
(0.0454009 -0.00855866 2.39788e-22)
(0.0455735 -0.00852102 -2.35241e-22)
(0.0457424 -0.00848634 0)
(0.0459073 -0.00845529 -6.63723e-24)
(0.0460679 -0.00842873 9.27887e-24)
(0.0462235 -0.00840737 -4.49956e-22)
(0.0463736 -0.00839172 0)
(0.0465176 -0.00838284 -1.6369e-23)
(0.0466546 -0.00838207 4.68458e-22)
(0.0467834 -0.00839121 1.42979e-21)
(0.0469028 -0.00841257 1.72494e-24)
(0.0470113 -0.00844899 -1.02444e-21)
(0.0471067 -0.0085039 0)
(0.0471869 -0.00858157 0)
(0.0472491 -0.00868727 -1.17453e-21)
(0.0472901 -0.00882744 0)
(0.0473058 -0.00901036 0)
(0.0472935 -0.00924738 -7.063e-23)
(0.0472579 -0.00955606 1.54859e-21)
(0.047225 -0.00996038 3.65603e-21)
(0.0472439 -0.0104987 -3.88769e-21)
(0.0474021 -0.0112126 1.3007e-22)
(0.0477243 -0.0121058 -2.21601e-21)
(0.0477326 -0.0128582 -2.6498e-21)
(0.0449821 -0.0129538 0)
(0.0354809 -0.0087634 0)
(0.0357102 -0.0088643 1.76658e-21)
(0.0359441 -0.00896003 -5.1633e-21)
(0.03618 -0.00904891 1.71508e-21)
(0.0364187 -0.00913192 0)
(0.036661 -0.00920977 4.80255e-21)
(0.0369065 -0.00928239 -7.86158e-21)
(0.0371548 -0.0093496 6.07687e-23)
(0.0374054 -0.0094113 7.47455e-21)
(0.0376576 -0.00946743 -1.48651e-21)
(0.037911 -0.009518 1.42017e-21)
(0.0381651 -0.00956299 1.38239e-21)
(0.0384196 -0.00960242 -4.00904e-21)
(0.038674 -0.00963627 5.24282e-21)
(0.0389279 -0.00966458 -2.58156e-21)
(0.0391812 -0.00968738 1.20934e-21)
(0.0394335 -0.00970475 -4.83213e-21)
(0.0396845 -0.00971678 1.20972e-21)
(0.0399342 -0.00972357 -1.11015e-21)
(0.0401822 -0.00972524 1.16474e-21)
(0.0404284 -0.00972195 5.766e-23)
(0.0406726 -0.00971385 6.31672e-21)
(0.0409147 -0.00970111 9.74439e-22)
(0.0411545 -0.00968391 -5.56041e-23)
(0.0413919 -0.00966245 -2.92961e-21)
(0.0416269 -0.00963695 9.52219e-22)
(0.0418592 -0.00960759 -1.81302e-21)
(0.0420888 -0.00957461 2.70335e-21)
(0.0423157 -0.00953822 0)
(0.0425397 -0.00949865 8.38592e-22)
(0.0427607 -0.00945611 -8.42357e-22)
(0.0429788 -0.00941099 1.09282e-23)
(0.043194 -0.00936389 3.76535e-22)
(0.0434061 -0.00931511 3.59099e-22)
(0.043615 -0.00926493 -1.03027e-21)
(0.0438208 -0.00921363 6.7555e-22)
(0.0440235 -0.00916149 -4.70411e-22)
(0.0442231 -0.00910876 6.09506e-22)
(0.0444197 -0.00905574 -2.9551e-22)
(0.0446131 -0.00900271 7.1259e-23)
(0.0448034 -0.00894997 0)
(0.0449904 -0.00889782 -6.41436e-23)
(0.0451742 -0.00884658 6.30076e-23)
(0.0453547 -0.0087966 1.2017e-22)
(0.0455318 -0.00874825 -3.51707e-22)
(0.0457054 -0.00870192 2.23986e-22)
(0.0458753 -0.00865806 2.23774e-22)
(0.0460412 -0.00861715 0)
(0.0462026 -0.0085799 8.56732e-22)
(0.0463587 -0.00854704 -8.65221e-22)
(0.0465087 -0.00851873 4.49143e-22)
(0.0466519 -0.00849576 -4.41317e-22)
(0.046787 -0.00847932 -4.2753e-22)
(0.0469127 -0.00847093 -9.32835e-22)
(0.0470271 -0.00847257 -9.80946e-22)
(0.0471282 -0.00848667 0)
(0.0472133 -0.00851626 1.03269e-21)
(0.0472793 -0.00856517 0)
(0.0473221 -0.00863817 -3.60589e-23)
(0.0473364 -0.0087413 1.30673e-21)
(0.0473165 -0.00888306 -1.33441e-21)
(0.0472609 -0.00907679 -1.5206e-21)
(0.0471824 -0.00934444 1.66027e-21)
(0.0471225 -0.00971644 1.07137e-22)
(0.0471411 -0.0102341 8.37185e-23)
(0.0473047 -0.0109205 -6.80132e-21)
(0.0474722 -0.011709 -2.64616e-21)
(0.0465156 -0.0121162 -3.18479e-21)
(0.0415964 -0.0116827 3.31205e-21)
(0.0353179 -0.00921659 0)
(0.0355615 -0.00931867 0)
(0.035809 -0.00941497 -3.55856e-21)
(0.0360573 -0.00950374 5.2757e-21)
(0.0363073 -0.009586 1.71142e-21)
(0.0365598 -0.00966249 0)
(0.0368147 -0.00973316 0)
(0.037072 -0.00979785 -1.58037e-21)
(0.0373312 -0.0098565 3.04036e-21)
(0.037592 -0.00990911 -6.38993e-23)
(0.0378542 -0.0099557 -7.27738e-21)
(0.0381174 -0.00999634 1.44847e-21)
(0.0383812 -0.010031 -1.34679e-21)
(0.0386451 -0.0100599 2.71058e-21)
(0.0389088 -0.0100828 -1.29783e-21)
(0.0391719 -0.0101 0)
(0.039434 -0.0101115 0)
(0.0396948 -0.0101175 3.01155e-23)
(0.0399541 -0.0101179 3.50459e-21)
(0.0402114 -0.010113 -1.13243e-21)
(0.0404667 -0.0101029 1.0863e-21)
(0.0407197 -0.0100879 -1.06976e-21)
(0.0409702 -0.010068 -1.0117e-21)
(0.0412181 -0.0100435 1.04212e-21)
(0.0414631 -0.0100146 9.82676e-22)
(0.0417052 -0.00998146 0)
(0.0419442 -0.00994441 0)
(0.0421801 -0.00990364 -1.34556e-21)
(0.0424128 -0.00985938 0)
(0.0426422 -0.00981189 -8.33297e-22)
(0.042868 -0.00976136 8.36794e-22)
(0.0430907 -0.00970834 4.00442e-22)
(0.0433099 -0.00965334 -3.81789e-22)
(0.0435257 -0.00959669 -7.15708e-22)
(0.0437379 -0.00953866 3.47494e-22)
(0.0439467 -0.00947952 3.21169e-22)
(0.0441522 -0.00941956 -3.09224e-22)
(0.0443544 -0.00935903 0)
(0.0445533 -0.00929821 0)
(0.044749 -0.00923737 -6.63426e-23)
(0.0449414 -0.00917679 0)
(0.0451307 -0.00911674 0)
(0.0453167 -0.00905747 1.79012e-22)
(0.0454995 -0.00899926 -2.31799e-22)
(0.0456791 -0.00894236 1.10217e-22)
(0.0458551 -0.00888706 -2.26941e-22)
(0.0460274 -0.00883361 0)
(0.0461956 -0.00878231 -6.30913e-22)
(0.0463592 -0.00873363 -1.27597e-23)
(0.046517 -0.00868828 0)
(0.0466682 -0.0086462 8.42122e-22)
(0.046812 -0.00860787 -2.06428e-23)
(0.0469469 -0.00857418 8.8481e-22)
(0.0470714 -0.00854633 4.38371e-22)
(0.0471832 -0.00852579 9.63487e-22)
(0.0472797 -0.00851449 -9.56306e-22)
(0.0473577 -0.00851488 -1.05541e-21)
(0.0474128 -0.00853005 0)
(0.0474391 -0.00856388 1.23121e-21)
(0.0474293 -0.00862199 6.77886e-23)
(0.0473777 -0.00871379 0)
(0.0472896 -0.00885584 0)
(0.0471932 -0.00907459 -1.70668e-21)
(0.0471425 -0.00940257 0)
(0.047187 -0.00987755 0)
(0.047322 -0.0104842 2.22387e-21)
(0.0470477 -0.0110368 2.63302e-21)
(0.0444787 -0.0108689 3.29158e-21)
(0.0373453 -0.00978923 0)
(0.0351453 -0.00969743 0)
(0.035405 -0.00980061 0)
(0.0356685 -0.00989747 0)
(0.0359323 -0.00998617 1.81513e-21)
(0.0361971 -0.0100677 1.7317e-21)
(0.0364636 -0.0101429 -7.0577e-23)
(0.0367317 -0.0102117 -3.3714e-21)
(0.0370011 -0.0102739 1.61986e-21)
(0.0372717 -0.0103294 -1.57759e-21)
(0.0375432 -0.0103783 -3.06521e-21)
(0.0378156 -0.0104206 0)
(0.0380886 -0.0104564 0)
(0.0383619 -0.0104858 -3.36676e-23)
(0.0386351 -0.0105089 -4.12599e-21)
(0.0389081 -0.0105258 5.26434e-21)
(0.0391804 -0.0105365 -6.88377e-23)
(0.0394516 -0.0105412 -2.52953e-21)
(0.0397214 -0.01054 -1.21602e-21)
(0.0399895 -0.0105331 -1.46499e-23)
(0.0402555 -0.0105206 0)
(0.0405193 -0.0105027 -2.20526e-21)
(0.0407805 -0.0104797 0)
(0.0410389 -0.0104516 -2.07267e-21)
(0.0412944 -0.0104188 2.9955e-21)
(0.0415467 -0.0103815 -2.94434e-21)
(0.0417956 -0.01034 -9.33086e-22)
(0.0420412 -0.0102944 1.35463e-21)
(0.0422831 -0.010245 -1.32933e-21)
(0.0425215 -0.0101921 8.77936e-22)
(0.0427562 -0.010136 0)
(0.042987 -0.0100768 7.99874e-22)
(0.0432142 -0.0100154 3.54069e-22)
(0.0434377 -0.00995199 -7.48295e-22)
(0.0436574 -0.00988701 6.99166e-22)
(0.0438733 -0.00982074 -3.27921e-22)
(0.0440857 -0.00975343 3.223e-22)
(0.0442945 -0.00968535 1.54438e-22)
(0.0444999 -0.00961678 -1.40215e-22)
(0.044702 -0.00954795 -6.8802e-23)
(0.0449008 -0.00947913 2.00819e-22)
(0.0450964 -0.00941053 1.52722e-23)
(0.0452887 -0.00934237 0)
(0.045478 -0.00927483 -5.99227e-23)
(0.045664 -0.0092081 1.15826e-22)
(0.0458467 -0.00914232 -1.12304e-22)
(0.0460259 -0.00907762 0)
(0.0462013 -0.00901412 0)
(0.0463726 -0.0089519 -1.97179e-22)
(0.046539 -0.00889116 3.99453e-22)
(0.0466996 -0.00883253 7.84863e-22)
(0.0468533 -0.00877586 -1.60974e-21)
(0.0469995 -0.00872122 3.97193e-22)
(0.0471363 -0.00866907 -4.13345e-22)
(0.0472622 -0.00862015 -4.47039e-22)
(0.0473745 -0.00857535 9.24132e-22)
(0.0474703 -0.00853594 -9.18072e-22)
(0.0475454 -0.00850347 0)
(0.0475938 -0.00847985 1.02941e-21)
(0.0476074 -0.00846796 9.09738e-23)
(0.0475785 -0.00847345 -1.20366e-21)
(0.0475074 -0.00850798 0)
(0.047414 -0.00859222 0)
(0.0473446 -0.00875444 0)
(0.0473492 -0.00902237 -3.90377e-21)
(0.0474242 -0.00941174 -2.39823e-21)
(0.0473765 -0.00984697 -2.82211e-21)
(0.0461164 -0.00996749 5.79869e-21)
(0.0413206 -0.00913494 -3.95965e-23)
(0.032152 -0.00756119 -3.91469e-21)
(0.0349644 -0.0102083 0)
(0.0352405 -0.0103122 3.91435e-21)
(0.0355208 -0.0104094 -4.84688e-21)
(0.0358015 -0.0104977 2.77391e-21)
(0.0360829 -0.0105784 -5.4926e-21)
(0.0363657 -0.0106521 -1.76848e-21)
(0.0366496 -0.0107187 -1.71684e-21)
(0.0369343 -0.0107782 0)
(0.0372195 -0.0108304 3.23282e-21)
(0.0375048 -0.0108754 3.10294e-21)
(0.0377901 -0.0109132 -3.08354e-21)
(0.0380753 -0.0109439 1.47317e-21)
(0.0383602 -0.0109676 -1.39143e-21)
(0.0386445 -0.0109845 1.4675e-21)
(0.0389279 -0.0109947 5.37124e-21)
(0.0392102 -0.0109982 -7.3708e-23)
(0.039491 -0.0109954 -7.30092e-23)
(0.03977 -0.0109863 -2.48213e-21)
(0.040047 -0.0109711 -1.19196e-21)
(0.0403217 -0.0109501 -2.25708e-21)
(0.0405937 -0.0109235 2.27407e-21)
(0.0408628 -0.0108915 0)
(0.0411288 -0.0108543 2.32869e-23)
(0.0413915 -0.0108123 0)
(0.0416507 -0.0107657 9.84169e-22)
(0.0419062 -0.0107147 9.53308e-22)
(0.0421579 -0.0106596 -4.61785e-22)
(0.0424057 -0.0106008 0)
(0.0426496 -0.0105385 -4.18821e-22)
(0.0428894 -0.010473 -8.12681e-22)
(0.043125 -0.0104046 8.10037e-22)
(0.0433569 -0.0103341 -3.84893e-22)
(0.0435846 -0.0102617 7.04197e-22)
(0.0438083 -0.0101879 -1.37386e-21)
(0.0440281 -0.010113 3.28549e-22)
(0.0442442 -0.0100371 0)
(0.0444566 -0.00996049 1.41421e-22)
(0.0446656 -0.00988351 8.10234e-24)
(0.0448711 -0.00980635 -1.97991e-22)
(0.0450733 -0.00972921 1.58982e-22)
(0.0452722 -0.00965225 -3.15552e-23)
(0.0454679 -0.00957564 8.47759e-23)
(0.0456604 -0.00949948 -5.60783e-23)
(0.0458497 -0.00942386 0)
(0.0460358 -0.00934882 0)
(0.0462183 -0.00927437 0)
(0.0463972 -0.00920047 -1.86368e-22)
(0.0465718 -0.00912704 -1.82305e-22)
(0.046742 -0.00905397 0)
(0.0469065 -0.00898161 -3.68894e-22)
(0.0470645 -0.00890992 -3.38411e-22)
(0.0472151 -0.00883845 -3.63531e-22)
(0.0473568 -0.0087671 0)
(0.0474876 -0.00869605 0)
(0.0476048 -0.00862553 8.69301e-22)
(0.0477048 -0.00855577 -8.64684e-22)
(0.0477819 -0.00848701 0)
(0.0478279 -0.00841977 -1.05419e-21)
(0.0478344 -0.00835643 1.14194e-21)
(0.0477992 -0.00830415 1.15723e-21)
(0.047738 -0.00827824 -1.41494e-21)
(0.0476919 -0.0083018 1.41478e-21)
(0.0477118 -0.00839703 0)
(0.0478008 -0.00857496 1.92001e-21)
(0.0478283 -0.00881018 -1.21777e-22)
(0.0472176 -0.00891637 5.02822e-21)
(0.044227 -0.00837342 6.25223e-21)
(0.0368651 -0.00691713 -7.14207e-21)
(0.0263918 -0.00503748 4.17234e-21)
(0.0347773 -0.0107523 1.04531e-21)
(0.0350704 -0.0108566 0)
(0.0353679 -0.0109535 9.89551e-22)
(0.0356658 -0.011041 -4.77597e-21)
(0.0359646 -0.0111202 8.41675e-21)
(0.0362647 -0.0111919 -1.86027e-21)
(0.0365658 -0.0112559 1.76019e-21)
(0.0368674 -0.0113122 -3.3743e-21)
(0.0371691 -0.0113607 1.69621e-21)
(0.0374704 -0.0114012 1.60557e-21)
(0.0377712 -0.011434 1.54905e-21)
(0.0380712 -0.0114591 -4.47583e-21)
(0.0383701 -0.0114767 1.50329e-21)
(0.0386677 -0.0114869 -4.17958e-21)
(0.0389638 -0.0114898 -1.28989e-21)
(0.0392579 -0.0114856 7.88992e-23)
(0.03955 -0.0114746 2.58821e-21)
(0.0398396 -0.0114568 0)
(0.0401266 -0.0114327 0)
(0.0404107 -0.0114024 1.13721e-21)
(0.0406916 -0.0113662 1.12182e-21)
(0.0409691 -0.0113243 2.10909e-21)
(0.041243 -0.0112771 -1.05921e-21)
(0.0415132 -0.0112249 -1.96501e-21)
(0.0417793 -0.011168 1.96528e-21)
(0.0420413 -0.0111068 -4.57592e-22)
(0.0422991 -0.0110414 -4.41228e-22)
(0.0425527 -0.0109723 0)
(0.0428018 -0.0108998 4.27453e-22)
(0.0430466 -0.0108241 7.95649e-22)
(0.043287 -0.0107458 -2.91551e-23)
(0.0435231 -0.0106655 -7.45416e-22)
(0.043755 -0.0105836 3.36531e-22)
(0.0439825 -0.0105003 0)
(0.044206 -0.0104161 -1.50309e-22)
(0.0444255 -0.0103311 1.42102e-22)
(0.0446413 -0.0102455 -1.43477e-22)
(0.0448534 -0.0101597 2.63537e-22)
(0.045062 -0.0100737 0)
(0.0452672 -0.00998781 2.86148e-23)
(0.0454691 -0.0099021 -2.83463e-23)
(0.0456678 -0.00981667 3.83128e-23)
(0.0458633 -0.00973157 -1.5541e-22)
(0.0460558 -0.0096468 2.98707e-22)
(0.0462451 -0.0095623 -1.94497e-22)
(0.0464312 -0.00947798 -1.85129e-22)
(0.0466138 -0.00939365 2.01117e-22)
(0.0467928 -0.00930906 -3.34797e-22)
(0.0469678 -0.00922389 3.48426e-22)
(0.047138 -0.00913795 8.73432e-22)
(0.0473027 -0.00905128 2.15928e-23)
(0.0474608 -0.008963 3.71011e-22)
(0.0476111 -0.00887242 0)
(0.0477515 -0.0087789 0)
(0.0478787 -0.00868171 7.98311e-22)
(0.0479875 -0.00857966 -1.2597e-21)
(0.0480703 -0.00847156 8.43135e-22)
(0.0481192 -0.0083571 0)
(0.0481317 -0.00823988 -9.62721e-22)
(0.0481217 -0.00813048 -2.38368e-21)
(0.0481295 -0.00804719 1.34552e-21)
(0.0482074 -0.00800795 1.73122e-22)
(0.0483663 -0.00801569 -1.50812e-21)
(0.0484879 -0.00805152 -2.0884e-22)
(0.0481913 -0.00801327 4.39973e-21)
(0.0463227 -0.00757567 -5.19222e-21)
(0.0408946 -0.00629285 -3.20875e-21)
(0.0312125 -0.00421256 0)
(0.0204448 -0.0024599 0)
(0.0345866 -0.0113332 -1.07287e-21)
(0.0348973 -0.0114374 -5.23243e-21)
(0.0352127 -0.0115335 4.13896e-21)
(0.0355285 -0.0116195 0)
(0.0358451 -0.0116966 9.60775e-22)
(0.036163 -0.0117655 3.68388e-21)
(0.036482 -0.0118262 -2.75432e-21)
(0.0368012 -0.0118786 4.32289e-21)
(0.0371204 -0.0119225 -3.42689e-21)
(0.0374389 -0.0119579 0)
(0.0377564 -0.0119849 -7.98132e-22)
(0.0380727 -0.0120036 0)
(0.0383874 -0.0120143 -1.42681e-21)
(0.0387002 -0.0120169 4.32876e-21)
(0.0390106 -0.0120118 0)
(0.0393186 -0.0119991 0)
(0.0396236 -0.011979 0)
(0.0399255 -0.0119519 1.82026e-21)
(0.040224 -0.0119179 -2.42469e-21)
(0.0405189 -0.0118774 -1.16134e-21)
(0.0408099 -0.0118307 0)
(0.0410968 -0.0117781 0)
(0.0413794 -0.01172 0)
(0.0416576 -0.0116568 2.42726e-21)
(0.0419312 -0.0115888 -2.87604e-21)
(0.0422001 -0.0115163 1.40163e-21)
(0.0424642 -0.0114397 8.81435e-22)