/*--------------------------------*- C++ -*----------------------------------*\
| =========                 |                                                 |
| \\      /  F ield         | OpenFOAM: The Open Source CFD Toolbox           |
|  \\    /   O peration     | Version:  2312                                  |
|   \\  /    A nd           | Website:  www.openfoam.com                      |
|    \\/     M anipulation  |                                                 |
\*---------------------------------------------------------------------------*/
FoamFile
{
    version     2.0;
    format      ascii;
    arch        "LSB;label=32;scalar=64";
    class       volScalarField;
    location    "800";
    object      k;
}
// * * * * * * * * * * * * * * * * * * * * * * * * * * * * * * * * * * * * * //

dimensions      [0 2 -2 0 0 0 0];

internalField   nonuniform List<scalar> 
76025
(
4.82197e-06
4.82236e-06
4.8241e-06
4.8258e-06
4.82678e-06
4.82865e-06
4.82956e-06
4.83184e-06
4.83446e-06
4.83732e-06
4.83923e-06
4.84267e-06
4.84479e-06
4.84709e-06
4.84771e-06
4.84812e-06
4.8511e-06
4.85209e-06
4.85025e-06
4.85431e-06
4.85494e-06
4.85286e-06
4.85728e-06
4.85932e-06
4.85867e-06
4.86642e-06
4.86903e-06
4.86842e-06
4.87575e-06
4.87636e-06
4.87961e-06
4.87747e-06
4.87712e-06
4.88075e-06
4.88669e-06
4.89288e-06
4.89742e-06
4.91003e-06
4.91503e-06
4.91313e-06
4.91744e-06
4.92579e-06
4.94002e-06
4.95454e-06
4.97252e-06
4.98929e-06
5.01264e-06
5.03551e-06
5.07036e-06
5.10155e-06
5.14873e-06
5.18835e-06
5.24153e-06
5.28012e-06
5.34077e-06
5.3814e-06
5.44312e-06
5.49016e-06
5.55771e-06
5.61392e-06
5.6911e-06
5.74928e-06
5.84254e-06
5.91747e-06
6.02357e-06
6.11405e-06
6.21538e-06
6.3318e-06
6.44649e-06
4.84497e-06
4.84489e-06
4.84572e-06
4.84753e-06
4.84907e-06
4.85059e-06
4.85319e-06
4.85605e-06
4.85897e-06
4.86122e-06
4.86307e-06
4.86598e-06
4.86859e-06
4.87219e-06
4.87526e-06
4.87774e-06
4.88062e-06
4.88245e-06
4.88573e-06
4.88776e-06
4.88967e-06
4.89061e-06
4.89605e-06
4.89338e-06
4.89834e-06
4.89592e-06
4.89564e-06
4.89701e-06
4.90029e-06
4.90401e-06
4.90864e-06
4.91389e-06
4.91908e-06
4.92385e-06
4.92848e-06
4.93285e-06
4.93932e-06
4.94712e-06
4.95678e-06
4.96746e-06
4.98081e-06
4.99471e-06
5.01305e-06
5.03018e-06
5.05021e-06
5.06879e-06
5.09301e-06
5.1183e-06
5.15082e-06
5.18441e-06
5.22516e-06
5.26528e-06
5.31257e-06
5.3595e-06
5.4139e-06
5.46588e-06
5.52724e-06
5.58529e-06
5.6523e-06
5.71689e-06
5.78873e-06
5.86332e-06
5.94429e-06
6.02342e-06
6.1224e-06
6.20546e-06
6.33717e-06
6.44571e-06
6.61907e-06
4.87778e-06
4.87844e-06
4.87857e-06
4.87854e-06
4.88058e-06
4.88126e-06
4.88125e-06
4.88324e-06
4.88549e-06
4.88798e-06
4.89116e-06
4.89543e-06
4.90048e-06
4.90249e-06
4.90216e-06
4.90361e-06
4.90575e-06
4.90839e-06
4.91085e-06
4.91413e-06
4.91646e-06
4.91916e-06
4.92286e-06
4.92568e-06
4.93077e-06
4.93512e-06
4.93964e-06
4.94626e-06
4.95051e-06
4.95865e-06
4.96458e-06
4.97305e-06
4.98589e-06
4.99174e-06
4.99075e-06
4.99335e-06
5.00184e-06
5.01167e-06
5.02462e-06
5.04106e-06
5.05806e-06
5.07706e-06
5.10014e-06
5.11766e-06
5.1346e-06
5.14918e-06
5.17242e-06
5.19601e-06
5.23064e-06
5.26351e-06
5.30796e-06
5.34763e-06
5.40002e-06
5.44481e-06
5.50324e-06
5.55202e-06
5.61584e-06
5.66871e-06
5.73803e-06
5.79672e-06
5.87307e-06
5.9426e-06
6.0257e-06
6.11205e-06
6.2034e-06
6.31322e-06
6.42433e-06
6.55045e-06
6.69238e-06
4.91287e-06
4.91406e-06
4.91511e-06
4.91575e-06
4.91618e-06
4.91806e-06
4.91841e-06
4.91818e-06
4.92005e-06
4.92269e-06
4.92561e-06
4.92931e-06
4.93315e-06
4.93727e-06
4.94197e-06
4.94358e-06
4.94291e-06
4.94442e-06
4.94704e-06
4.95073e-06
4.95498e-06
4.95999e-06
4.96744e-06
4.97288e-06
4.97645e-06
4.97848e-06
4.98142e-06
4.98709e-06
4.99165e-06
4.99887e-06
5.00524e-06
5.01353e-06
5.02214e-06
5.03139e-06
5.04249e-06
5.05408e-06
5.07039e-06
5.08373e-06
5.10211e-06
5.12522e-06
5.14231e-06
5.16819e-06
5.20133e-06
5.21303e-06
5.21006e-06
5.21863e-06
5.24221e-06
5.26981e-06
5.30767e-06
5.34454e-06
5.39048e-06
5.43269e-06
5.48482e-06
5.53122e-06
5.58928e-06
5.64007e-06
5.70424e-06
5.76048e-06
5.83131e-06
5.8946e-06
5.97375e-06
6.04512e-06
6.13549e-06
6.21643e-06
6.32366e-06
6.42035e-06
6.54886e-06
6.6695e-06
6.85008e-06
4.94667e-06
4.94903e-06
4.95091e-06
4.9524e-06
4.95408e-06
4.95667e-06
4.95994e-06
4.9609e-06
4.96036e-06
4.96109e-06
4.96343e-06
4.9659e-06
4.97086e-06
4.97532e-06
4.97973e-06
4.98454e-06
4.99026e-06
4.99247e-06
4.9919e-06
4.99397e-06
4.9991e-06
5.00439e-06
5.01162e-06
5.0196e-06
5.02579e-06
5.03174e-06
5.03547e-06
5.04112e-06
5.045e-06
5.05187e-06
5.05861e-06
5.06757e-06
5.07857e-06
5.0887e-06
5.10437e-06
5.11764e-06
5.13591e-06
5.15359e-06
5.17047e-06
5.18983e-06
5.21327e-06
5.24108e-06
5.25246e-06
5.25215e-06
5.26845e-06
5.29078e-06
5.32309e-06
5.35592e-06
5.3969e-06
5.43563e-06
5.48304e-06
5.52633e-06
5.57986e-06
5.62743e-06
5.68713e-06
5.73904e-06
5.80484e-06
5.86189e-06
5.93352e-06
5.99787e-06
6.07527e-06
6.1505e-06
6.23593e-06
6.32586e-06
6.42644e-06
6.53394e-06
6.6613e-06
6.79443e-06
6.95811e-06
4.98726e-06
4.99016e-06
4.99289e-06
4.99483e-06
4.99655e-06
4.99795e-06
4.9993e-06
5.00011e-06
5.0012e-06
5.00255e-06
5.00438e-06
5.00714e-06
5.01098e-06
5.01485e-06
5.01971e-06
5.02439e-06
5.02873e-06
5.03268e-06
5.03899e-06
5.04476e-06
5.05049e-06
5.05369e-06
5.05679e-06
5.062e-06
5.06722e-06
5.07362e-06
5.07996e-06
5.08688e-06
5.09505e-06
5.10252e-06
5.11383e-06
5.12406e-06
5.13636e-06
5.15084e-06
5.16554e-06
5.18211e-06
5.20405e-06
5.22185e-06
5.23506e-06
5.2538e-06
5.2684e-06
5.27454e-06
5.29136e-06
5.31303e-06
5.34218e-06
5.37282e-06
5.40964e-06
5.44609e-06
5.48891e-06
5.53004e-06
5.57851e-06
5.62379e-06
5.678e-06
5.72705e-06
5.78723e-06
5.84e-06
5.90649e-06
5.96378e-06
6.03707e-06
6.10135e-06
6.18222e-06
6.25807e-06
6.34842e-06
6.44117e-06
6.54738e-06
6.66016e-06
6.79637e-06
6.92885e-06
7.1142e-06
5.02959e-06
5.03222e-06
5.03565e-06
5.03928e-06
5.04282e-06
5.04617e-06
5.04941e-06
5.05204e-06
5.05422e-06
5.05664e-06
5.05899e-06
5.06132e-06
5.06531e-06
5.06892e-06
5.07281e-06
5.07743e-06
5.08396e-06
5.08836e-06
5.09065e-06
5.09301e-06
5.09752e-06
5.1025e-06
5.10788e-06
5.11375e-06
5.11895e-06
5.12593e-06
5.1323e-06
5.14071e-06
5.15063e-06
5.16069e-06
5.17336e-06
5.18721e-06
5.20065e-06
5.21659e-06
5.23421e-06
5.25014e-06
5.26722e-06
5.28294e-06
5.29725e-06
5.31074e-06
5.32775e-06
5.34764e-06
5.3727e-06
5.40019e-06
5.43249e-06
5.46625e-06
5.50466e-06
5.54361e-06
5.58743e-06
5.6308e-06
5.67978e-06
5.727e-06
5.78133e-06
5.832e-06
5.89233e-06
5.94644e-06
6.01381e-06
6.07227e-06
6.14797e-06
6.21349e-06
6.29867e-06
6.3765e-06
6.47223e-06
6.56946e-06
6.67952e-06
6.80087e-06
6.93816e-06
7.07931e-06
7.27271e-06
5.07986e-06
5.08227e-06
5.08515e-06
5.08788e-06
5.09061e-06
5.09362e-06
5.09723e-06
5.10146e-06
5.10553e-06
5.11026e-06
5.11447e-06
5.11897e-06
5.12291e-06
5.12693e-06
5.13251e-06
5.13764e-06
5.14309e-06
5.1492e-06
5.15623e-06
5.16439e-06
5.16795e-06
5.16792e-06
5.1707e-06
5.17681e-06
5.1831e-06
5.19194e-06
5.20163e-06
5.21347e-06
5.22589e-06
5.2371e-06
5.24792e-06
5.25831e-06
5.26922e-06
5.28067e-06
5.29364e-06
5.3074e-06
5.32293e-06
5.33964e-06
5.35877e-06
5.38006e-06
5.4044e-06
5.43121e-06
5.46105e-06
5.49323e-06
5.52825e-06
5.56536e-06
5.60517e-06
5.64672e-06
5.69099e-06
5.73654e-06
5.78527e-06
5.83453e-06
5.88829e-06
5.9411e-06
6.00114e-06
6.05755e-06
6.12593e-06
6.1866e-06
6.26594e-06
6.33294e-06
6.42552e-06
6.50351e-06
6.61032e-06
6.70671e-06
6.82893e-06
6.95168e-06
7.0951e-06
7.24547e-06
7.44223e-06
5.13836e-06
5.14065e-06
5.14306e-06
5.14605e-06
5.14919e-06
5.15246e-06
5.15571e-06
5.15908e-06
5.162e-06
5.16571e-06
5.16946e-06
5.1745e-06
5.17936e-06
5.18442e-06
5.19054e-06
5.1962e-06
5.20214e-06
5.20777e-06
5.21405e-06
5.21954e-06
5.22512e-06
5.23152e-06
5.239e-06
5.24709e-06
5.25463e-06
5.26224e-06
5.27056e-06
5.27975e-06
5.29006e-06
5.30072e-06
5.31207e-06
5.32383e-06
5.33667e-06
5.35054e-06
5.36597e-06
5.38304e-06
5.40196e-06
5.42303e-06
5.44609e-06
5.47169e-06
5.4992e-06
5.52946e-06
5.56142e-06
5.59625e-06
5.63247e-06
5.67163e-06
5.71184e-06
5.75511e-06
5.7992e-06
5.84657e-06
5.8948e-06
5.94645e-06
5.9996e-06
6.05581e-06
6.11548e-06
6.17667e-06
6.24552e-06
6.3123e-06
6.39388e-06
6.46749e-06
6.56517e-06
6.6486e-06
6.76436e-06
6.86281e-06
6.99857e-06
7.11683e-06
7.2763e-06
7.42222e-06
7.65999e-06
5.20187e-06
5.20461e-06
5.20739e-06
5.21062e-06
5.21394e-06
5.21781e-06
5.2218e-06
5.22605e-06
5.2302e-06
5.23445e-06
5.23852e-06
5.24307e-06
5.2475e-06
5.25252e-06
5.25762e-06
5.26333e-06
5.2692e-06
5.27495e-06
5.28181e-06
5.28931e-06
5.29763e-06
5.30705e-06
5.31791e-06
5.32784e-06
5.33863e-06
5.35012e-06
5.36082e-06
5.37211e-06
5.38335e-06
5.39367e-06
5.40389e-06
5.41456e-06
5.42663e-06
5.44058e-06
5.45665e-06
5.47515e-06
5.49568e-06
5.51888e-06
5.54387e-06
5.57167e-06
5.60094e-06
5.63321e-06
5.66659e-06
5.70309e-06
5.7403e-06
5.78094e-06
5.82186e-06
5.86675e-06
5.91145e-06
5.96088e-06
6.00971e-06
6.06425e-06
6.11814e-06
6.17865e-06
6.23939e-06
6.30678e-06
6.37726e-06
6.45223e-06
6.53632e-06
6.61945e-06
6.72082e-06
6.81419e-06
6.93455e-06
7.04228e-06
7.18117e-06
7.30561e-06
7.46481e-06
7.64345e-06
7.98538e-06
5.27287e-06
5.27552e-06
5.27861e-06
5.28196e-06
5.28566e-06
5.28967e-06
5.29428e-06
5.29941e-06
5.30464e-06
5.31032e-06
5.31589e-06
5.32162e-06
5.32756e-06
5.33345e-06
5.34021e-06
5.34684e-06
5.35517e-06
5.36477e-06
5.37368e-06
5.38118e-06
5.3876e-06
5.39407e-06
5.40181e-06
5.41008e-06
5.41925e-06
5.42917e-06
5.43954e-06
5.45032e-06
5.46171e-06
5.47348e-06
5.4862e-06
5.50007e-06
5.51553e-06
5.53285e-06
5.55208e-06
5.57343e-06
5.59661e-06
5.62218e-06
5.64949e-06
5.67924e-06
5.71045e-06
5.74416e-06
5.77901e-06
5.81648e-06
5.85484e-06
5.8966e-06
5.93884e-06
5.98538e-06
6.03171e-06
6.08348e-06
6.13428e-06
6.19217e-06
6.24852e-06
6.31387e-06
6.37763e-06
6.45184e-06
6.52579e-06
6.60957e-06
6.6978e-06
6.79081e-06
6.89763e-06
7.0011e-06
7.12756e-06
7.24633e-06
7.38518e-06
7.53452e-06
7.67063e-06
8.05506e-06
8.55765e-06
5.35078e-06
5.35334e-06
5.35575e-06
5.35857e-06
5.36163e-06
5.36502e-06
5.36893e-06
5.37327e-06
5.37835e-06
5.38306e-06
5.38894e-06
5.39468e-06
5.4007e-06
5.40736e-06
5.41457e-06
5.42257e-06
5.43133e-06
5.44094e-06
5.45192e-06
5.46238e-06
5.47578e-06
5.48793e-06
5.49591e-06
5.50199e-06
5.50867e-06
5.51684e-06
5.52684e-06
5.53825e-06
5.55123e-06
5.56526e-06
5.5809e-06
5.59779e-06
5.61648e-06
5.63663e-06
5.65865e-06
5.68232e-06
5.70784e-06
5.73512e-06
5.76422e-06
5.79503e-06
5.82765e-06
5.8623e-06
5.89854e-06
5.93696e-06
5.97706e-06
6.02068e-06
6.06517e-06
6.11444e-06
6.16344e-06
6.2186e-06
6.27248e-06
6.33462e-06
6.39477e-06
6.46563e-06
6.53388e-06
6.61543e-06
6.69407e-06
6.78752e-06
6.88034e-06
6.98484e-06
7.09766e-06
7.21347e-06
7.34853e-06
7.48522e-06
7.62157e-06
7.84166e-06
7.95204e-06
8.89716e-06
9.6924e-06
5.44276e-06
5.44544e-06
5.44858e-06
5.45171e-06
5.45545e-06
5.45972e-06
5.46426e-06
5.47004e-06
5.47567e-06
5.4826e-06
5.48924e-06
5.49718e-06
5.50528e-06
5.5135e-06
5.52366e-06
5.5326e-06
5.54348e-06
5.55488e-06
5.56599e-06
5.57851e-06
5.5915e-06
5.60402e-06
5.61413e-06
5.62926e-06
5.6416e-06
5.65137e-06
5.65863e-06
5.66485e-06
5.67332e-06
5.6845e-06
5.6987e-06
5.71556e-06
5.73481e-06
5.75622e-06
5.77956e-06
5.80473e-06
5.83177e-06
5.8605e-06
5.89111e-06
5.92352e-06
5.95761e-06
5.99416e-06
6.032e-06
6.07301e-06
6.11483e-06
6.16124e-06
6.20769e-06
6.26025e-06
6.31154e-06
6.37098e-06
6.42805e-06
6.49539e-06
6.55989e-06
6.63686e-06
6.71072e-06
6.79974e-06
6.88457e-06
6.98797e-06
7.08672e-06
7.20472e-06
7.32508e-06
7.45873e-06
7.60654e-06
7.77267e-06
7.90228e-06
8.35978e-06
8.45614e-06
1.09925e-05
1.3014e-05
5.54351e-06
5.54686e-06
5.551e-06
5.55504e-06
5.55966e-06
5.56491e-06
5.57028e-06
5.57692e-06
5.5833e-06
5.59098e-06
5.59836e-06
5.60659e-06
5.61505e-06
5.62347e-06
5.63284e-06
5.64173e-06
5.6512e-06
5.66112e-06
5.67087e-06
5.68118e-06
5.69171e-06
5.70238e-06
5.71276e-06
5.72409e-06
5.73569e-06
5.74755e-06
5.75979e-06
5.77297e-06
5.78758e-06
5.80403e-06
5.82237e-06
5.84259e-06
5.86463e-06
5.88834e-06
5.91383e-06
5.94091e-06
5.96976e-06
6.00043e-06
6.03259e-06
6.06718e-06
6.10281e-06
6.14174e-06
6.18123e-06
6.22518e-06
6.26893e-06
6.31835e-06
6.36633e-06
6.42292e-06
6.47703e-06
6.54183e-06
6.60248e-06
6.67593e-06
6.74542e-06
6.82915e-06
6.90998e-06
7.00663e-06
7.09989e-06
7.21355e-06
7.32142e-06
7.45612e-06
7.58788e-06
7.74962e-06
7.90566e-06
8.14215e-06
8.27887e-06
9.35627e-06
9.43162e-06
1.67737e-05
2.40546e-05
5.65899e-06
5.66286e-06
5.66731e-06
5.67182e-06
5.67663e-06
5.68194e-06
5.68741e-06
5.69362e-06
5.69993e-06
5.70691e-06
5.71409e-06
5.72168e-06
5.72964e-06
5.7377e-06
5.74628e-06
5.75493e-06
5.76404e-06
5.7735e-06
5.78346e-06
5.79383e-06
5.80495e-06
5.81653e-06
5.82894e-06
5.84198e-06
5.85613e-06
5.87103e-06
5.88724e-06
5.90442e-06
5.92315e-06
5.94304e-06
5.96461e-06
5.98746e-06
6.01193e-06
6.03779e-06
6.06525e-06
6.09436e-06
6.125e-06
6.15767e-06
6.1916e-06
6.22833e-06
6.26574e-06
6.307e-06
6.34849e-06
6.39491e-06
6.4408e-06
6.49348e-06
6.54482e-06
6.60584e-06
6.66324e-06
6.733e-06
6.79792e-06
6.87756e-06
6.95372e-06
7.04441e-06
7.13492e-06
7.2388e-06
7.34513e-06
7.46889e-06
7.59421e-06
7.74802e-06
7.90168e-06
8.09982e-06
8.2524e-06
8.75211e-06
8.95013e-06
1.14657e-05
1.19337e-05
3.25157e-05
6.5963e-05
5.78625e-06
5.79044e-06
5.79504e-06
5.79968e-06
5.80458e-06
5.80978e-06
5.81526e-06
5.8211e-06
5.82728e-06
5.83386e-06
5.8409e-06
5.84836e-06
5.85639e-06
5.8648e-06
5.87387e-06
5.88335e-06
5.89355e-06
5.90423e-06
5.91575e-06
5.92782e-06
5.94089e-06
5.95459e-06
5.96943e-06
5.98497e-06
6.00178e-06
6.01939e-06
6.03838e-06
6.05826e-06
6.07958e-06
6.10194e-06
6.12574e-06
6.15076e-06
6.17716e-06
6.20507e-06
6.23436e-06
6.26541e-06
6.298e-06
6.33239e-06
6.36851e-06
6.40693e-06
6.44673e-06
6.48971e-06
6.53396e-06
6.5824e-06
6.63166e-06
6.68766e-06
6.74287e-06
6.80762e-06
6.86953e-06
6.94482e-06
7.01586e-06
7.10301e-06
7.18785e-06
7.28703e-06
7.38987e-06
7.50287e-06
7.62772e-06
7.76611e-06
7.91816e-06
8.09979e-06
8.27455e-06
8.54802e-06
8.71843e-06
9.90304e-06
1.02848e-05
1.66512e-05
2.09323e-05
7.83554e-05
0.000180601
5.93754e-06
5.94199e-06
5.9468e-06
5.95171e-06
5.95683e-06
5.96222e-06
5.96791e-06
5.97391e-06
5.98028e-06
5.98704e-06
5.99426e-06
6.00201e-06
6.01033e-06
6.01931e-06
6.02893e-06
6.03928e-06
6.05042e-06
6.06233e-06
6.07519e-06
6.08885e-06
6.1036e-06
6.11914e-06
6.13587e-06
6.15333e-06
6.17211e-06
6.19162e-06
6.21253e-06
6.23422e-06
6.25744e-06
6.28158e-06
6.30736e-06
6.33413e-06
6.36263e-06
6.39228e-06
6.42374e-06
6.45657e-06
6.49126e-06
6.5276e-06
6.56599e-06
6.60623e-06
6.649e-06
6.694e-06
6.74166e-06
6.79296e-06
6.84603e-06
6.90517e-06
6.96499e-06
7.03451e-06
7.10289e-06
7.18529e-06
7.26339e-06
7.35998e-06
7.45449e-06
7.56607e-06
7.68316e-06
7.81236e-06
7.96209e-06
8.12677e-06
8.30977e-06
8.53628e-06
8.69844e-06
9.32972e-06
9.56608e-06
1.2563e-05
1.37726e-05
3.11083e-05
5.92342e-05
0.000172215
0.000245292
6.10559e-06
6.11042e-06
6.11567e-06
6.1211e-06
6.12686e-06
6.13293e-06
6.13944e-06
6.14631e-06
6.15366e-06
6.16146e-06
6.16985e-06
6.17878e-06
6.18839e-06
6.1987e-06
6.20979e-06
6.22169e-06
6.23446e-06
6.24806e-06
6.26263e-06
6.27797e-06
6.2944e-06
6.31149e-06
6.3298e-06
6.34874e-06
6.36905e-06
6.39003e-06
6.41249e-06
6.43567e-06
6.46046e-06
6.48607e-06
6.51335e-06
6.54165e-06
6.57165e-06
6.60299e-06
6.63607e-06
6.67093e-06
6.70741e-06
6.74631e-06
6.78684e-06
6.83029e-06
6.87603e-06
6.92459e-06
6.9769e-06
7.03195e-06
7.09159e-06
7.15552e-06
7.2235e-06
7.2993e-06
7.37711e-06
7.46751e-06
7.55571e-06
7.66265e-06
7.7682e-06
7.89785e-06
8.03287e-06
8.19162e-06
8.37161e-06
8.57906e-06
8.77222e-06
9.11337e-06
9.3054e-06
1.09334e-05
1.17138e-05
1.95782e-05
2.59001e-05
7.48048e-05
0.000169128
0.000242279
0.000239341
6.30865e-06
6.31394e-06
6.31966e-06
6.32559e-06
6.33188e-06
6.33858e-06
6.34573e-06
6.35341e-06
6.36155e-06
6.3703e-06
6.37962e-06
6.38958e-06
6.40023e-06
6.41158e-06
6.42374e-06
6.43669e-06
6.4506e-06
6.46526e-06
6.48106e-06
6.49756e-06
6.51532e-06
6.53379e-06
6.55355e-06
6.57403e-06
6.59588e-06
6.61841e-06
6.64245e-06
6.66715e-06
6.69361e-06
6.72077e-06
6.74982e-06
6.7797e-06
6.81169e-06
6.84472e-06
6.88012e-06
6.91681e-06
6.95619e-06
6.99728e-06
7.04158e-06
7.088e-06
7.13844e-06
7.19118e-06
7.24957e-06
7.30965e-06
7.37772e-06
7.4471e-06
7.52586e-06
7.60703e-06
7.69803e-06
7.79516e-06
7.89957e-06
8.02083e-06
8.14975e-06
8.30811e-06
8.47107e-06
8.67118e-06
8.88403e-06
9.14205e-06
9.31275e-06
1.01618e-05
1.07228e-05
1.5083e-05
1.82048e-05
4.02158e-05
7.31041e-05
0.000172639
0.000233514
0.000233659
0.000213765
6.5406e-06
6.54691e-06
6.55367e-06
6.56066e-06
6.56807e-06
6.57591e-06
6.58429e-06
6.59327e-06
6.60281e-06
6.61303e-06
6.62393e-06
6.63554e-06
6.64799e-06
6.66116e-06
6.67528e-06
6.69002e-06
6.70581e-06
6.72217e-06
6.73959e-06
6.75758e-06
6.77668e-06
6.79654e-06
6.81765e-06
6.83964e-06
6.86304e-06
6.88722e-06
6.91298e-06
6.93938e-06
6.96754e-06
6.99634e-06
7.0271e-06
7.05871e-06
7.09256e-06
7.1276e-06
7.16531e-06
7.20455e-06
7.24704e-06
7.29149e-06
7.34016e-06
7.39087e-06
7.44719e-06
7.50588e-06
7.57181e-06
7.64004e-06
7.71786e-06
7.79666e-06
7.88882e-06
7.98104e-06
8.09083e-06
8.20302e-06
8.33592e-06
8.48264e-06
8.64726e-06
8.83951e-06
9.03526e-06
9.27242e-06
9.54216e-06
9.90348e-06
1.03985e-05
1.28713e-05
1.51524e-05
2.74556e-05
4.32536e-05
0.000101066
0.000177068
0.000211952
0.000216862
0.000206764
0.000177875
6.82333e-06
6.83019e-06
6.83749e-06
6.84509e-06
6.85307e-06
6.86157e-06
6.87059e-06
6.8803e-06
6.89059e-06
6.90168e-06
6.9134e-06
6.92606e-06
6.93942e-06
6.95372e-06
6.96878e-06
6.98479e-06
7.00167e-06
7.01949e-06
7.03823e-06
7.05787e-06
7.07845e-06
7.09994e-06
7.12243e-06
7.14597e-06
7.17065e-06
7.19642e-06
7.22363e-06
7.25191e-06
7.28203e-06
7.31322e-06
7.34653e-06
7.38125e-06
7.41829e-06
7.45731e-06
7.49908e-06
7.54324e-06
7.59082e-06
7.64156e-06
7.69652e-06
7.75459e-06
7.8189e-06
7.88666e-06
7.96262e-06
8.04187e-06
8.13202e-06
8.2246e-06
8.3334e-06
8.44485e-06
8.58031e-06
8.71862e-06
8.89041e-06
9.0708e-06
9.27696e-06
9.49944e-06
9.74977e-06
1.00574e-05
1.07602e-05
1.18338e-05
1.41487e-05
2.10898e-05
3.25021e-05
6.7268e-05
0.000120188
0.000161102
0.000183774
0.000192461
0.000191105
0.00017091
0.000143255
7.16208e-06
7.17068e-06
7.17993e-06
7.18938e-06
7.19939e-06
7.20982e-06
7.22099e-06
7.23266e-06
7.24513e-06
7.2582e-06
7.27203e-06
7.28657e-06
7.30191e-06
7.31799e-06
7.33493e-06
7.35264e-06
7.37125e-06
7.39076e-06
7.41116e-06
7.43242e-06
7.45468e-06
7.47796e-06
7.50254e-06
7.52824e-06
7.55542e-06
7.58368e-06
7.61359e-06
7.64453e-06
7.67725e-06
7.7114e-06
7.74743e-06
7.78559e-06
7.82591e-06
7.86931e-06
7.91545e-06
7.96542e-06
8.01902e-06
8.07673e-06
8.13965e-06
8.20669e-06
8.28103e-06
8.35983e-06
8.4477e-06
8.54225e-06
8.64862e-06
8.76426e-06
8.89818e-06
9.04397e-06
9.21172e-06
9.3921e-06
9.59819e-06
9.81333e-06
1.00631e-05
1.03559e-05
1.09935e-05
1.19847e-05
1.47398e-05
1.88992e-05
2.9434e-05
5.29208e-05
9.00147e-05
0.000123544
0.000142038
0.000154339
0.000164898
0.000167711
0.000160102
0.000140588
0.000114294
7.58049e-06
7.58959e-06
7.59964e-06
7.60965e-06
7.62039e-06
7.63135e-06
7.64314e-06
7.65535e-06
7.66845e-06
7.68209e-06
7.69669e-06
7.71188e-06
7.72816e-06
7.74511e-06
7.76322e-06
7.78208e-06
7.80215e-06
7.8231e-06
7.84532e-06
7.86859e-06
7.89312e-06
7.91897e-06
7.94597e-06
7.9746e-06
8.00427e-06
8.03589e-06
8.06885e-06
8.10375e-06
8.14034e-06
8.17952e-06
8.22028e-06
8.26474e-06
8.31137e-06
8.36272e-06
8.41699e-06
8.4762e-06
8.53953e-06
8.60787e-06
8.68259e-06
8.76253e-06
8.85254e-06
8.94868e-06
9.05952e-06
9.17973e-06
9.31893e-06
9.47078e-06
9.64455e-06
9.82998e-06
1.00293e-05
1.02548e-05
1.05023e-05
1.08496e-05
1.14854e-05
1.25586e-05
1.48555e-05
1.92928e-05
2.88552e-05
4.70603e-05
7.54942e-05
9.85521e-05
0.0001102
0.000118009
0.000126986
0.000138167
0.000145477
0.000145771
0.000136097
0.000117511
9.29859e-05
8.12403e-06
8.1369e-06
8.15028e-06
8.16404e-06
8.17813e-06
8.19276e-06
8.20793e-06
8.22359e-06
8.24004e-06
8.25693e-06
8.27476e-06
8.29311e-06
8.31232e-06
8.3323e-06
8.35294e-06
8.37462e-06
8.39685e-06
8.42028e-06
8.44445e-06
8.46976e-06
8.49621e-06
8.5239e-06
8.5528e-06
8.58339e-06
8.61527e-06
8.64888e-06
8.68448e-06
8.72179e-06
8.76162e-06
8.80386e-06
8.84915e-06
8.89808e-06
8.95067e-06
9.00787e-06
9.06978e-06
9.13716e-06
9.21167e-06
9.29262e-06
9.38523e-06
9.48458e-06
9.60277e-06
9.72613e-06
9.87698e-06
1.00294e-05
1.02161e-05
1.04032e-05
1.06263e-05
1.08557e-05
1.11755e-05
1.16492e-05
1.24342e-05
1.37694e-05
1.63531e-05
2.01203e-05
3.02451e-05
4.59089e-05
6.72694e-05
8.34724e-05
8.80199e-05
8.73828e-05
9.26487e-05
0.000102764
0.000114442
0.00012497
0.00012979
0.000128761
0.000118747
0.000101713
7.97284e-05
8.81023e-06
8.82342e-06
8.83785e-06
8.85257e-06
8.86808e-06
8.88399e-06
8.90075e-06
8.91796e-06
8.93597e-06
8.95469e-06
8.97404e-06
8.99442e-06
9.01538e-06
9.03754e-06
9.06049e-06
9.08473e-06
9.10989e-06
9.13658e-06
9.16425e-06
9.19351e-06
9.22412e-06
9.25666e-06
9.29097e-06
9.32753e-06
9.36655e-06
9.40763e-06
9.45179e-06
9.49789e-06
9.54749e-06
9.59948e-06
9.6554e-06
9.71503e-06
9.77944e-06
9.84916e-06
9.92554e-06
1.00102e-05
1.01047e-05
1.0211e-05
1.03314e-05
1.04646e-05
1.06198e-05
1.07812e-05
1.0974e-05
1.1173e-05
1.14627e-05
1.18169e-05
1.23607e-05
1.31255e-05
1.43098e-05
1.60901e-05
1.85623e-05
2.40232e-05
3.27903e-05
4.55906e-05
6.01393e-05
7.13378e-05
6.98681e-05
6.37713e-05
6.49485e-05
7.19831e-05
8.20209e-05
9.33276e-05
0.000104367
0.000113301
0.000116911
0.000115782
0.000107471
9.33152e-05
7.51512e-05
9.7921e-06
9.8116e-06
9.83192e-06
9.85252e-06
9.87382e-06
9.89561e-06
9.91814e-06
9.94126e-06
9.9651e-06
9.98966e-06
1.00149e-05
1.0041e-05
1.00678e-05
1.00957e-05
1.01241e-05
1.0154e-05
1.0184e-05
1.02159e-05
1.02477e-05
1.02814e-05
1.03152e-05
1.03509e-05
1.03868e-05
1.04246e-05
1.04637e-05
1.05041e-05
1.05478e-05
1.05925e-05
1.06422e-05
1.06944e-05
1.07528e-05
1.08172e-05
1.08879e-05
1.09668e-05
1.10559e-05
1.11599e-05
1.1284e-05
1.14238e-05
1.16039e-05
1.18383e-05
1.21312e-05
1.25105e-05
1.29591e-05
1.37461e-05
1.49511e-05
1.63735e-05
1.81431e-05
2.0361e-05
2.33614e-05
2.7472e-05
3.43282e-05
4.17079e-05
5.31498e-05
5.75091e-05
5.06046e-05
3.97114e-05
4.03538e-05
4.616e-05
5.45482e-05
6.4035e-05
7.42014e-05
8.46367e-05
9.45828e-05
0.000102804
0.000107202
0.000107838
0.000103207
9.33324e-05
7.85453e-05
1.14427e-05
1.145e-05
1.1458e-05
1.14662e-05
1.14739e-05
1.14823e-05
1.14903e-05
1.14989e-05
1.15073e-05
1.15161e-05
1.15251e-05
1.15339e-05
1.15432e-05
1.15524e-05
1.15616e-05
1.15719e-05
1.15808e-05
1.15922e-05
1.1602e-05
1.16158e-05
1.16297e-05
1.16494e-05
1.16714e-05
1.17016e-05
1.17358e-05
1.17774e-05
1.18264e-05
1.18845e-05
1.19587e-05
1.20485e-05
1.21637e-05
1.23091e-05
1.24919e-05
1.2728e-05
1.30243e-05
1.33838e-05
1.38711e-05
1.42974e-05
1.53749e-05
1.64423e-05
1.75417e-05
1.86507e-05
1.98782e-05
2.08508e-05
2.16375e-05
2.26421e-05
2.34939e-05
2.51762e-05
2.74991e-05
3.27449e-05
3.89977e-05
3.15732e-05
2.09897e-05
1.88506e-05
1.83355e-05
2.09053e-05
2.78769e-05
3.62612e-05
4.55496e-05
5.51209e-05
6.47867e-05
7.456e-05
8.41078e-05
9.26041e-05
9.8879e-05
0.000101698
0.000100681
9.50663e-05
8.60012e-05
1.19103e-05
1.19564e-05
1.19805e-05
1.20245e-05
1.20483e-05
1.20916e-05
1.21179e-05
1.21534e-05
1.21959e-05
1.22138e-05
1.22675e-05
1.22805e-05
1.2334e-05
1.23473e-05
1.23986e-05
1.24226e-05
1.2459e-05
1.2516e-05
1.26225e-05
1.28037e-05
1.30424e-05
1.33632e-05
1.3743e-05
1.4203e-05
1.47225e-05
1.536e-05
1.60305e-05
1.68164e-05
1.76888e-05
1.86705e-05
1.96689e-05
2.07541e-05
2.19028e-05
2.3115e-05
2.43268e-05
2.55229e-05
2.64975e-05
2.75386e-05
2.71285e-05
2.61374e-05
2.51685e-05
2.38034e-05
2.21916e-05
2.04108e-05
1.86379e-05
1.59333e-05
1.11023e-05
6.97311e-06
7.39543e-06
8.2661e-06
8.08536e-06
6.25824e-06
4.19053e-06
3.95318e-06
5.01762e-06
7.25502e-06
1.1429e-05
1.81358e-05
2.69572e-05
3.70173e-05
4.68517e-05
5.58022e-05
6.47911e-05
7.31886e-05
8.03445e-05
8.52733e-05
8.7504e-05
8.62688e-05
8.12323e-05
4.45295e-05
4.5615e-05
4.6697e-05
4.77806e-05
4.88598e-05
4.99403e-05
5.10167e-05
5.20927e-05
5.31648e-05
5.42346e-05
5.52973e-05
5.63593e-05
5.74069e-05
5.84571e-05
5.94844e-05
6.05165e-05
6.15254e-05
6.25244e-05
6.34061e-05
6.42876e-05
6.48532e-05
6.58269e-05
6.55145e-05
6.52789e-05
6.49107e-05
6.51959e-05
6.36011e-05
6.27348e-05
6.24996e-05
6.16874e-05
5.79304e-05
5.66304e-05
5.41292e-05
5.13634e-05
4.75766e-05
4.27922e-05
3.68338e-05
2.95348e-05
2.10516e-05
1.28387e-05
5.99255e-06
2.17543e-06
1.48279e-06
1.85065e-06
2.22084e-06
2.22667e-06
2.0535e-06
1.73794e-06
1.43855e-06
1.29086e-06
1.15423e-06
9.1344e-07
7.5631e-07
7.93592e-07
1.07928e-06
1.60359e-06
2.46694e-06
3.73272e-06
5.39524e-06
7.44357e-06
9.94207e-06
1.30361e-05
1.6175e-05
1.92274e-05
2.20097e-05
2.46348e-05
2.71778e-05
2.92454e-05
2.85994e-05
4.68671e-06
4.68695e-06
4.68746e-06
4.68936e-06
4.69067e-06
4.69461e-06
4.70031e-06
4.70407e-06
4.70577e-06
4.70624e-06
4.70571e-06
4.70608e-06
4.71036e-06
4.71691e-06
4.72168e-06
4.7227e-06
4.72572e-06
4.72985e-06
4.73466e-06
4.73852e-06
4.73883e-06
4.74086e-06
4.74319e-06
4.74603e-06
4.74988e-06
4.75164e-06
4.755e-06
4.75733e-06
4.75978e-06
4.7644e-06
4.76514e-06
4.77005e-06
4.7737e-06
4.7789e-06
4.7835e-06
4.78473e-06
4.78829e-06
4.79215e-06
4.79415e-06
4.80072e-06
4.79993e-06
4.80088e-06
4.80066e-06
4.80206e-06
4.80659e-06
4.81021e-06
4.81028e-06
4.80931e-06
4.80975e-06
4.81191e-06
4.81371e-06
4.8169e-06
4.81745e-06
4.81874e-06
4.81767e-06
4.81645e-06
4.81773e-06
4.81862e-06
4.81985e-06
4.71833e-06
4.71942e-06
4.72096e-06
4.72273e-06
4.72538e-06
4.72773e-06
4.72969e-06
4.7302e-06
4.72994e-06
4.72949e-06
4.73039e-06
4.73431e-06
4.73914e-06
4.74292e-06
4.74477e-06
4.74591e-06
4.74953e-06
4.75445e-06
4.75809e-06
4.75997e-06
4.76034e-06
4.7623e-06
4.76514e-06
4.76839e-06
4.77144e-06
4.77326e-06
4.77659e-06
4.77912e-06
4.78139e-06
4.78577e-06
4.78716e-06
4.79144e-06
4.79539e-06
4.8002e-06
4.80577e-06
4.80767e-06
4.81076e-06
4.81503e-06
4.817e-06
4.82307e-06
4.82497e-06
4.82651e-06
4.82679e-06
4.82676e-06
4.8284e-06
4.83191e-06
4.83486e-06
4.83584e-06
4.83599e-06
4.83727e-06
4.83851e-06
4.84056e-06
4.84211e-06
4.84305e-06
4.84539e-06
4.84547e-06
4.84467e-06
4.84505e-06
4.8443e-06
4.75376e-06
4.75507e-06
4.75648e-06
4.75788e-06
4.75839e-06
4.75884e-06
4.75865e-06
4.757e-06
4.75653e-06
4.75758e-06
4.76171e-06
4.76495e-06
4.76787e-06
4.76959e-06
4.77066e-06
4.77257e-06
4.77726e-06
4.781e-06
4.78306e-06
4.78399e-06
4.78474e-06
4.787e-06
4.79017e-06
4.79328e-06
4.79574e-06
4.79767e-06
4.80093e-06
4.80372e-06
4.80595e-06
4.8101e-06
4.81218e-06
4.81597e-06
4.81998e-06
4.82449e-06
4.83045e-06
4.83347e-06
4.83625e-06
4.84054e-06
4.84275e-06
4.84798e-06
4.85184e-06
4.85375e-06
4.85561e-06
4.85636e-06
4.85701e-06
4.85828e-06
4.86134e-06
4.8633e-06
4.86432e-06
4.86591e-06
4.86736e-06
4.86891e-06
4.87144e-06
4.87307e-06
4.87503e-06
4.87739e-06
4.87796e-06
4.87938e-06
4.87892e-06
4.7944e-06
4.7946e-06
4.79447e-06
4.79418e-06
4.79256e-06
4.79091e-06
4.78932e-06
4.78893e-06
4.79001e-06
4.79258e-06
4.79502e-06
4.79677e-06
4.79819e-06
4.79917e-06
4.80038e-06
4.80349e-06
4.80712e-06
4.80919e-06
4.8102e-06
4.81084e-06
4.81208e-06
4.81469e-06
4.81789e-06
4.82057e-06
4.8227e-06
4.82478e-06
4.82795e-06
4.83093e-06
4.83321e-06
4.83729e-06
4.83968e-06
4.84308e-06
4.84737e-06
4.85172e-06
4.8577e-06
4.86133e-06
4.86441e-06
4.8688e-06
4.87095e-06
4.8755e-06
4.88004e-06
4.88333e-06
4.88552e-06
4.8874e-06
4.88869e-06
4.89017e-06
4.89184e-06
4.89449e-06
4.89608e-06
4.89706e-06
4.89835e-06
4.89962e-06
4.90191e-06
4.90389e-06
4.90567e-06
4.90763e-06
4.90869e-06
4.91018e-06
4.91134e-06
4.83685e-06
4.83499e-06
4.83269e-06
4.83015e-06
4.82774e-06
4.82591e-06
4.82518e-06
4.82555e-06
4.82758e-06
4.82926e-06
4.83062e-06
4.83145e-06
4.83215e-06
4.83307e-06
4.8349e-06
4.83746e-06
4.83933e-06
4.84036e-06
4.84081e-06
4.84154e-06
4.84333e-06
4.84624e-06
4.84896e-06
4.85117e-06
4.85308e-06
4.85523e-06
4.85832e-06
4.86144e-06
4.86386e-06
4.86785e-06
4.87067e-06
4.87375e-06
4.87808e-06
4.88235e-06
4.88832e-06
4.89276e-06
4.89581e-06
4.90059e-06
4.9033e-06
4.90695e-06
4.91101e-06
4.9152e-06
4.91859e-06
4.92109e-06
4.92301e-06
4.92466e-06
4.92633e-06
4.92797e-06
4.93039e-06
4.93228e-06
4.93347e-06
4.93422e-06
4.93522e-06
4.9365e-06
4.9376e-06
4.93931e-06
4.94077e-06
4.94298e-06
4.94495e-06
4.88025e-06
4.87729e-06
4.87418e-06
4.87138e-06
4.8692e-06
4.86782e-06
4.86737e-06
4.86779e-06
4.86847e-06
4.86899e-06
4.86934e-06
4.86949e-06
4.86981e-06
4.87098e-06
4.87235e-06
4.87364e-06
4.87447e-06
4.87478e-06
4.87498e-06
4.87613e-06
4.87835e-06
4.88089e-06
4.88307e-06
4.88489e-06
4.88667e-06
4.88895e-06
4.89191e-06
4.8951e-06
4.89766e-06
4.90163e-06
4.90457e-06
4.90744e-06
4.91198e-06
4.91623e-06
4.92186e-06
4.92668e-06
4.93012e-06
4.93489e-06
4.93837e-06
4.94235e-06
4.9461e-06
4.94974e-06
4.9539e-06
4.95758e-06
4.9605e-06
4.96256e-06
4.96434e-06
4.96578e-06
4.96786e-06
4.97057e-06
4.9732e-06
4.97515e-06
4.97655e-06
4.97795e-06
4.97902e-06
4.98045e-06
4.98164e-06
4.98355e-06
4.98558e-06
4.92956e-06
4.92634e-06
4.9231e-06
4.9203e-06
4.91806e-06
4.91638e-06
4.91516e-06
4.91429e-06
4.91352e-06
4.91273e-06
4.91211e-06
4.91179e-06
4.91207e-06
4.91279e-06
4.91342e-06
4.91387e-06
4.914e-06
4.91397e-06
4.91432e-06
4.91586e-06
4.91792e-06
4.91988e-06
4.92157e-06
4.92303e-06
4.92472e-06
4.92699e-06
4.92986e-06
4.93313e-06
4.93589e-06
4.9398e-06
4.94314e-06
4.94581e-06
4.9503e-06
4.95467e-06
4.96022e-06
4.96538e-06
4.969e-06
4.97405e-06
4.9777e-06
4.98176e-06
4.98607e-06
4.98962e-06
4.99351e-06
4.99821e-06
5.00242e-06
5.00562e-06
5.0079e-06
5.00955e-06
5.0108e-06
5.01284e-06
5.01547e-06
5.01809e-06
5.01985e-06
5.02127e-06
5.02191e-06
5.02296e-06
5.02415e-06
5.02592e-06
5.02791e-06
4.98545e-06
4.98199e-06
4.97849e-06
4.97525e-06
4.97235e-06
4.96972e-06
4.96733e-06
4.96516e-06
4.96317e-06
4.96146e-06
4.96013e-06
4.95923e-06
4.95877e-06
4.95857e-06
4.95833e-06
4.95794e-06
4.95753e-06
4.95746e-06
4.95807e-06
4.95942e-06
4.96109e-06
4.96263e-06
4.96396e-06
4.96518e-06
4.96682e-06
4.96903e-06
4.97182e-06
4.97505e-06
4.97795e-06
4.98184e-06
4.98521e-06
4.98783e-06
4.99237e-06