/*--------------------------------*- C++ -*----------------------------------*\
| =========                 |                                                 |
| \\      /  F ield         | OpenFOAM: The Open Source CFD Toolbox           |
|  \\    /   O peration     | Version:  2312                                  |
|   \\  /    A nd           | Website:  www.openfoam.com                      |
|    \\/     M anipulation  |                                                 |
\*---------------------------------------------------------------------------*/
FoamFile
{
    version     2.0;
    format      ascii;
    arch        "LSB;label=32;scalar=64";
    class       volScalarField;
    location    "800";
    object      nut;
}
// * * * * * * * * * * * * * * * * * * * * * * * * * * * * * * * * * * * * * //

dimensions      [0 2 -1 0 0 0 0];

internalField   nonuniform List<scalar> 
76025
(
7.25274e-05
7.15399e-05
7.07377e-05
7.22057e-05
7.10345e-05
7.2825e-05
7.33527e-05
7.31381e-05
7.38116e-05
7.37086e-05
7.42845e-05
7.43804e-05
7.4462e-05
7.33515e-05
7.59298e-05
7.40423e-05
7.6707e-05
7.56677e-05
7.89691e-05
7.63757e-05
7.70119e-05
7.77457e-05
7.83073e-05
7.91661e-05
8.14726e-05
8.04695e-05
8.45821e-05
8.45759e-05
8.62741e-05
9.36931e-05
9.2136e-05
9.02063e-05
9.55054e-05
9.40578e-05
9.9886e-05
9.82124e-05
0.000100161
0.000103527
0.000101226
0.000105768
0.000104585
0.000104973
0.000105739
0.000104916
0.000105669
0.000104221
0.000101868
9.9998e-05
9.831e-05
9.65787e-05
9.45262e-05
9.15919e-05
8.8955e-05
8.64828e-05
8.46024e-05
8.31099e-05
8.13094e-05
8.03938e-05
8.05208e-05
7.95853e-05
7.67577e-05
6.95934e-05
6.82184e-05
6.43111e-05
5.99217e-05
5.67953e-05
5.34323e-05
4.69941e-05
4.52573e-05
6.79568e-05
6.71809e-05
6.7356e-05
6.77769e-05
6.81513e-05
6.84249e-05
6.89909e-05
6.95054e-05
6.97928e-05
7.00553e-05
7.03909e-05
7.09012e-05
7.15361e-05
7.17744e-05
7.20734e-05
7.24212e-05
7.27454e-05
7.32811e-05
7.38192e-05
7.47041e-05
7.51723e-05
7.57246e-05
7.63483e-05
7.69061e-05
7.7793e-05
7.88876e-05
7.9637e-05
8.08454e-05
8.20087e-05
8.27e-05
8.36853e-05
8.51864e-05
8.58337e-05
8.74023e-05
8.81098e-05
8.97114e-05
9.10049e-05
9.09335e-05
9.17976e-05
9.20717e-05
9.2836e-05
9.2937e-05
9.18205e-05
9.14806e-05
9.04805e-05
8.98229e-05
8.83623e-05
8.77205e-05
8.70272e-05
8.63944e-05
8.58837e-05
8.50589e-05
8.4165e-05
8.31919e-05
8.25534e-05
8.23784e-05
8.18405e-05
8.14381e-05
8.07335e-05
7.88491e-05
7.53726e-05
7.32289e-05
7.06711e-05
6.70413e-05
6.27997e-05
5.88397e-05
5.43089e-05
4.82439e-05
4.67426e-05
6.26397e-05
6.21567e-05
6.25753e-05
6.29877e-05
6.34863e-05
6.38248e-05
6.41573e-05
6.45479e-05
6.49354e-05
6.53286e-05
6.57412e-05
6.61878e-05
6.67093e-05
6.72424e-05
6.75612e-05
6.80029e-05
6.83477e-05
6.8801e-05
6.91487e-05
6.96588e-05
7.02101e-05
7.07483e-05
7.12982e-05
7.18646e-05
7.24975e-05
7.32857e-05
7.39835e-05
7.47691e-05
7.55322e-05
7.62452e-05
7.68306e-05
7.77053e-05
7.84463e-05
7.9041e-05
7.95677e-05
8.01507e-05
8.07127e-05
8.09962e-05
8.13513e-05
8.17743e-05
8.20931e-05
8.22082e-05
8.21254e-05
8.20821e-05
8.19807e-05
8.17749e-05
8.14982e-05
8.14062e-05
8.14923e-05
8.14494e-05
8.14348e-05
8.11088e-05
8.08296e-05
8.04586e-05
8.03207e-05
7.99675e-05
7.95759e-05
7.89594e-05
7.82865e-05
7.68019e-05
7.4776e-05
7.23234e-05
6.98401e-05
6.65813e-05
6.25604e-05
5.84625e-05
5.3816e-05
4.86635e-05
4.79381e-05
5.84854e-05
5.801e-05
5.84601e-05
5.90065e-05
5.94735e-05
5.99103e-05
6.02969e-05
6.06677e-05
6.10871e-05
6.15348e-05
6.19956e-05
6.24592e-05
6.29243e-05
6.34238e-05
6.39315e-05
6.44077e-05
6.48494e-05
6.53097e-05
6.57798e-05
6.62528e-05
6.67534e-05
6.72766e-05
6.78576e-05
6.84384e-05
6.90168e-05
6.95915e-05
7.01812e-05
7.08052e-05
7.1412e-05
7.20521e-05
7.26386e-05
7.33088e-05
7.39067e-05
7.44416e-05
7.50992e-05
7.57314e-05
7.63736e-05
7.68703e-05
7.73877e-05
7.79758e-05
7.8402e-05
7.8879e-05
7.93669e-05
7.94739e-05
7.93118e-05
7.9256e-05
7.93624e-05
7.95193e-05
7.97952e-05
7.99514e-05
8.0118e-05
8.00794e-05
8.00642e-05
7.98894e-05
7.98214e-05
7.95803e-05
7.94436e-05
7.90679e-05
7.86396e-05
7.76298e-05
7.62687e-05
7.43377e-05
7.20784e-05
6.87785e-05
6.49113e-05
6.02942e-05
5.54768e-05
5.0124e-05
4.95874e-05
5.53152e-05
5.46431e-05
5.49217e-05
5.53826e-05
5.58091e-05
5.62415e-05
5.66878e-05
5.71086e-05
5.75188e-05
5.79555e-05
5.84212e-05
5.88932e-05
5.93976e-05
5.9901e-05
6.04147e-05
6.09435e-05
6.14902e-05
6.19925e-05
6.24609e-05
6.29589e-05
6.34948e-05
6.40349e-05
6.461e-05
6.52087e-05
6.57947e-05
6.63841e-05
6.6946e-05
6.75305e-05
6.8084e-05
6.86653e-05
6.9229e-05
6.98396e-05
7.0434e-05
7.09486e-05
7.16058e-05
7.22259e-05
7.289e-05
7.35014e-05
7.40571e-05
7.46249e-05
7.52183e-05
7.58115e-05
7.60884e-05
7.61395e-05
7.63878e-05
7.6667e-05
7.7026e-05
7.73291e-05
7.7684e-05
7.79082e-05
7.81471e-05
7.82166e-05
7.83447e-05
7.83371e-05
7.84848e-05
7.85094e-05
7.86932e-05
7.86654e-05
7.8671e-05
7.825e-05
7.75565e-05
7.6221e-05
7.4228e-05
7.12677e-05
6.72991e-05
6.25743e-05
5.72544e-05
5.18169e-05
5.14878e-05
5.24528e-05
5.17182e-05
5.18716e-05
5.21946e-05
5.25024e-05
5.28297e-05
5.31939e-05
5.35823e-05
5.39974e-05
5.44341e-05
5.489e-05
5.53674e-05
5.58671e-05
5.6376e-05
5.69057e-05
5.7443e-05
5.79836e-05
5.8526e-05
5.91036e-05
5.9682e-05
6.02635e-05
6.0816e-05
6.13698e-05
6.19551e-05
6.25471e-05
6.31594e-05
6.37735e-05
6.43937e-05
6.50263e-05
6.56455e-05
6.63158e-05
6.69521e-05
6.76013e-05
6.8246e-05
6.89175e-05
6.96164e-05
7.03755e-05
7.10466e-05
7.16115e-05
7.22078e-05
7.26915e-05
7.29989e-05
7.33989e-05
7.3809e-05
7.42634e-05
7.46701e-05
7.50886e-05
7.54277e-05
7.5785e-05
7.60436e-05
7.63334e-05
7.65221e-05
7.68033e-05
7.70112e-05
7.73985e-05
7.77153e-05
7.82462e-05
7.86372e-05
7.91748e-05
7.93784e-05
7.94487e-05
7.88329e-05
7.75174e-05
7.49927e-05
7.11356e-05
6.62012e-05
6.02898e-05
5.45582e-05
5.52064e-05
4.94167e-05
4.87788e-05
4.89483e-05
4.92496e-05
4.95141e-05
4.97889e-05
5.01007e-05
5.04462e-05
5.08244e-05
5.12371e-05
5.16737e-05
5.21297e-05
5.26205e-05
5.31239e-05
5.3645e-05
5.41894e-05
5.4769e-05
5.53356e-05
5.58864e-05
5.64466e-05
5.70399e-05
5.7647e-05
5.82655e-05
5.88956e-05
5.95233e-05
6.01765e-05
6.08256e-05
6.15007e-05
6.21949e-05
6.28905e-05
6.36337e-05
6.43378e-05
6.50185e-05
6.57477e-05
6.64955e-05
6.72052e-05
6.79038e-05
6.85481e-05
6.91257e-05
6.96406e-05
7.01503e-05
7.06445e-05
7.11515e-05
7.16296e-05
7.21079e-05
7.2539e-05
7.29663e-05
7.33395e-05
7.37242e-05
7.40565e-05
7.44298e-05
7.47635e-05
7.52011e-05
7.56254e-05
7.62416e-05
7.68536e-05
7.77334e-05
7.85679e-05
7.96848e-05
8.06151e-05
8.16323e-05
8.20609e-05
8.18464e-05
8.02023e-05
7.67086e-05
7.16691e-05
6.4833e-05
5.91661e-05
6.10761e-05
4.63048e-05
4.57871e-05
4.60144e-05
4.63416e-05
4.66118e-05
4.68748e-05
4.71635e-05
4.74867e-05
4.78411e-05
4.82342e-05
4.86515e-05
4.9097e-05
4.95601e-05
5.00463e-05
5.05697e-05
5.11089e-05
5.167e-05
5.22562e-05
5.28683e-05
5.35042e-05
5.41024e-05
5.46732e-05
5.52843e-05
5.59413e-05
5.66084e-05
5.73105e-05
5.80282e-05
5.87759e-05
5.95347e-05
6.02807e-05
6.10433e-05
6.1738e-05
6.2393e-05
6.31004e-05
6.38105e-05
6.45006e-05
6.5178e-05
6.58308e-05
6.64696e-05
6.70877e-05
6.76968e-05
6.82851e-05
6.88554e-05
6.93961e-05
6.99128e-05
7.03971e-05
7.08609e-05
7.12986e-05
7.17329e-05
7.21568e-05
7.26104e-05
7.30781e-05
7.36365e-05
7.42419e-05
7.50334e-05
7.58994e-05
7.70802e-05
7.83426e-05
8.00673e-05
8.18177e-05
8.40448e-05
8.59175e-05
8.75477e-05
8.75196e-05
8.51356e-05
8.0304e-05
7.23998e-05
6.76981e-05
6.9824e-05
4.33026e-05
4.28585e-05
4.31175e-05
4.34791e-05
4.37857e-05
4.40757e-05
4.43729e-05
4.46867e-05
4.50175e-05
4.53787e-05
4.57636e-05
4.61838e-05
4.66262e-05
4.70941e-05
4.75961e-05
4.81174e-05
4.86635e-05
4.92279e-05
4.98194e-05
5.0422e-05
5.10416e-05
5.16842e-05
5.23525e-05
5.30411e-05
5.37368e-05
5.44433e-05
5.51651e-05
5.59026e-05
5.66572e-05
5.74175e-05
5.81915e-05
5.89342e-05
5.9639e-05
6.03889e-05
6.11468e-05
6.1894e-05
6.2627e-05
6.33474e-05
6.40497e-05
6.47375e-05
6.54004e-05
6.60457e-05
6.66582e-05
6.72512e-05
6.78069e-05
6.83462e-05
6.88509e-05
6.93523e-05
6.98327e-05
7.03332e-05
7.08396e-05
7.14014e-05
7.20224e-05
7.27512e-05
7.36382e-05
7.47055e-05
7.61031e-05
7.77802e-05
8.00678e-05
8.27605e-05
8.63899e-05
9.03236e-05
9.48279e-05
9.80174e-05
9.8155e-05
9.47404e-05
8.64289e-05
8.49914e-05
6.93693e-05
4.04881e-05
4.0087e-05
4.03511e-05
4.07185e-05
4.10402e-05
4.13528e-05
4.16728e-05
4.20061e-05
4.23539e-05
4.27191e-05
4.30996e-05
4.3502e-05
4.39232e-05
4.43709e-05
4.48416e-05
4.53411e-05
4.58654e-05
4.64111e-05
4.69891e-05
4.75953e-05
4.82299e-05
4.88948e-05
4.95929e-05
5.03004e-05
5.10327e-05
5.17865e-05
5.25447e-05
5.33183e-05
5.41006e-05
5.48845e-05
5.56406e-05
5.63862e-05
5.71355e-05
5.79074e-05
5.86916e-05
5.94785e-05
6.02548e-05
6.10247e-05
6.17758e-05
6.25167e-05
6.32295e-05
6.39287e-05
6.45908e-05
6.52373e-05
6.58396e-05
6.64302e-05
6.69756e-05
6.75233e-05
6.8033e-05
6.85711e-05
6.90913e-05
6.96857e-05
7.0311e-05
7.1088e-05
7.19997e-05
7.31861e-05
7.47125e-05
7.67175e-05
7.9472e-05
8.3095e-05
8.82146e-05
9.47875e-05
9.99865e-05
9.76963e-05
9.3997e-05
9.16156e-05
8.71611e-05
8.42623e-05
5.66524e-05
3.78877e-05
3.7513e-05
3.77677e-05
3.81231e-05
3.84436e-05
3.87587e-05
3.9088e-05
3.94341e-05
3.97962e-05
4.01772e-05
4.05721e-05
4.09832e-05
4.14126e-05
4.18601e-05
4.23347e-05
4.28293e-05
4.33603e-05
4.39257e-05
4.45098e-05
4.51059e-05
4.5715e-05
4.63453e-05
4.70074e-05
4.76949e-05
4.84103e-05
4.91502e-05
4.99097e-05
5.06863e-05
5.14797e-05
5.2301e-05
5.3091e-05
5.38694e-05
5.4699e-05
5.55406e-05
5.63859e-05
5.72325e-05
5.80704e-05
5.89007e-05
5.97134e-05
6.05125e-05
6.12839e-05
6.20347e-05
6.27464e-05
6.34318e-05
6.40695e-05
6.4686e-05
6.52501e-05
6.58067e-05
6.63127e-05
6.68393e-05
6.73315e-05
6.78988e-05
6.84793e-05
6.92301e-05
7.00986e-05
7.12966e-05
7.2838e-05
7.50063e-05
7.80481e-05
8.23593e-05
8.87054e-05
9.77373e-05
9.48364e-05
9.23261e-05
8.88115e-05
8.61463e-05
8.1723e-05
7.23213e-05
3.35709e-05
3.5461e-05
3.51108e-05
3.53474e-05
3.56819e-05
3.59866e-05
3.62898e-05
3.66088e-05
3.69458e-05
3.73048e-05
3.7678e-05
3.80751e-05
3.84865e-05
3.89159e-05
3.93678e-05
3.98431e-05
4.03447e-05
4.08733e-05
4.14308e-05
4.20222e-05
4.26345e-05
4.32963e-05
4.39736e-05
4.46397e-05
4.53115e-05
4.60087e-05
4.6738e-05
4.75018e-05
4.82953e-05
4.91175e-05
4.99685e-05
5.08143e-05
5.16477e-05
5.25382e-05
5.3444e-05
5.43535e-05
5.52588e-05
5.61571e-05
5.7042e-05
5.79091e-05
5.87524e-05
5.95677e-05
6.03516e-05
6.1094e-05
6.17965e-05
6.24493e-05
6.30695e-05
6.36285e-05
6.41688e-05
6.46435e-05
6.51282e-05
6.556e-05
6.60583e-05
6.65478e-05
6.7201e-05
6.79448e-05
6.90326e-05
7.04478e-05
7.25803e-05
7.56097e-05
8.00575e-05
8.65223e-05
9.25761e-05
8.94008e-05
8.68822e-05
8.34131e-05
8.06191e-05
7.68017e-05
3.68161e-05
2.14597e-05
3.32207e-05
3.28949e-05
3.31236e-05
3.34433e-05
3.37398e-05
3.40386e-05
3.43528e-05
3.46916e-05
3.50477e-05
3.54309e-05
3.58297e-05
3.62543e-05
3.66977e-05
3.71611e-05
3.76585e-05
3.8169e-05
3.87155e-05
3.92893e-05
3.98848e-05
4.05155e-05
4.11765e-05
4.18601e-05
4.25511e-05
4.33082e-05
4.40704e-05
4.48351e-05
4.55996e-05
4.63742e-05
4.71896e-05
4.80203e-05
4.88761e-05
4.97664e-05
5.06926e-05
5.16405e-05
5.25959e-05
5.35483e-05
5.44923e-05
5.54203e-05
5.6328e-05
5.72082e-05
5.80529e-05
5.88627e-05
5.96196e-05
6.03361e-05
6.09835e-05
6.15953e-05
6.21244e-05
6.26323e-05
6.30484e-05
6.34726e-05
6.38107e-05
6.42036e-05
6.4548e-05
6.50327e-05
6.5574e-05
6.64476e-05
6.76241e-05
6.95008e-05
7.20659e-05
7.56341e-05
8.01177e-05
8.58587e-05
8.37354e-05
8.1425e-05
7.75233e-05
7.63037e-05
4.47991e-05
2.34934e-05
1.67428e-05
3.11076e-05
3.08081e-05
3.10304e-05
3.13388e-05
3.16274e-05
3.19206e-05
3.22293e-05
3.25625e-05
3.29135e-05
3.32922e-05
3.36881e-05
3.41079e-05
3.45488e-05
3.50102e-05
3.54999e-05
3.60096e-05
3.65471e-05
3.71124e-05
3.7702e-05
3.83215e-05
3.89698e-05
3.96468e-05
4.03491e-05
4.10854e-05
4.18515e-05
4.26466e-05
4.34696e-05
4.43225e-05
4.52185e-05
4.61153e-05
4.70216e-05
4.79885e-05
4.89791e-05
4.998e-05
5.09865e-05
5.1988e-05
5.29781e-05
5.39501e-05
5.48941e-05
5.58108e-05
5.66793e-05
5.75126e-05
5.82773e-05
5.90032e-05
5.96395e-05
6.02372e-05
6.07252e-05
6.11959e-05
6.15419e-05
6.18911e-05
6.21063e-05
6.23585e-05
6.2517e-05
6.27949e-05
6.31127e-05
6.37304e-05
6.45681e-05
6.58253e-05
6.71167e-05
6.83438e-05
6.91013e-05
7.04627e-05
7.60825e-05
7.57832e-05
7.13682e-05
5.05059e-05
2.21049e-05
2.03452e-05
2.71059e-05
2.91379e-05
2.88624e-05
2.90744e-05
2.93689e-05
2.96455e-05
2.9927e-05
3.02244e-05
3.05431e-05
3.08818e-05
3.12446e-05
3.16284e-05
3.20342e-05
3.24629e-05
3.29142e-05
3.33921e-05
3.38951e-05
3.44264e-05
3.49865e-05
3.55773e-05
3.61991e-05
3.68551e-05
3.75444e-05
3.82697e-05
3.90299e-05
3.98285e-05
4.06629e-05
4.15365e-05
4.24458e-05
4.33883e-05
4.43453e-05
4.53195e-05
4.63406e-05
4.73877e-05
4.84435e-05
4.95011e-05
5.05534e-05
5.15907e-05
5.26088e-05
5.35925e-05
5.45461e-05
5.54417e-05
5.62981e-05
5.70743e-05
5.7804e-05
5.84302e-05
5.90121e-05
5.94682e-05
5.98918e-05
6.01562e-05
6.04027e-05
6.04809e-05
6.05814e-05
6.05827e-05
6.06916e-05
6.08339e-05
6.11017e-05
6.12603e-05
6.1055e-05
5.99374e-05
5.8007e-05
5.60591e-05
5.67849e-05
6.49888e-05
7.06276e-05
5.14761e-05
2.6265e-05
1.69578e-05
2.8042e-05
7.6976e-05
2.7276e-05
2.70222e-05
2.72231e-05
2.75019e-05
2.77652e-05
2.80333e-05
2.83178e-05
2.86213e-05
2.89457e-05
2.92925e-05
2.96619e-05
3.00538e-05
3.04702e-05
3.09117e-05
3.13814e-05
3.18795e-05
3.24089e-05
3.29697e-05
3.35653e-05
3.41953e-05
3.48637e-05
3.55695e-05
3.63165e-05
3.71028e-05
3.79323e-05
3.88021e-05
3.97153e-05
4.06747e-05
4.165e-05
4.26472e-05
4.36981e-05
4.47797e-05
4.58833e-05
4.69994e-05
4.8116e-05
4.92266e-05
5.03201e-05
5.13884e-05
5.2421e-05
5.34122e-05
5.43436e-05
5.52198e-05
5.60149e-05
5.67436e-05
5.73669e-05
5.79256e-05
5.83442e-05
5.87027e-05
5.88894e-05
5.90478e-05
5.90454e-05
5.9083e-05
5.9038e-05
5.90273e-05
5.88427e-05
5.82144e-05
5.67151e-05
5.39989e-05
5.03863e-05
4.71973e-05
4.64758e-05
5.28155e-05
6.46865e-05
5.94486e-05
2.4706e-05
1.90878e-05
2.64807e-05
6.77719e-05
0.000116375
2.55672e-05
2.53332e-05
2.55243e-05
2.57892e-05
2.60409e-05
2.62982e-05
2.65717e-05
2.68635e-05
2.7176e-05
2.75107e-05
2.78679e-05
2.82485e-05
2.8654e-05
2.90867e-05
2.95482e-05
3.00409e-05
3.05667e-05
3.11274e-05
3.17255e-05
3.23621e-05
3.30404e-05
3.37605e-05
3.4526e-05
3.53356e-05
3.61931e-05
3.70959e-05
3.80472e-05
3.90433e-05
4.00643e-05
4.11085e-05
4.22158e-05
4.33546e-05
4.45173e-05
4.56908e-05
4.68698e-05
4.80402e-05
4.91942e-05
5.03188e-05
5.14047e-05
5.24378e-05
5.34111e-05
5.43102e-05
5.51266e-05
5.58564e-05
5.64724e-05
5.69996e-05
5.73874e-05
5.77111e-05
5.78926e-05
5.80812e-05
5.81538e-05
5.82529e-05
5.80936e-05
5.75635e-05
5.61207e-05
5.33749e-05
4.9408e-05
4.49432e-05
4.15051e-05
4.12568e-05
4.81072e-05
6.23276e-05
5.75986e-05
2.81616e-05
1.61105e-05
2.95823e-05
5.81828e-05
0.000107032
0.000160678
2.39469e-05
2.37309e-05
2.39112e-05
2.41615e-05
2.44015e-05
2.46478e-05
2.49106e-05
2.51916e-05
2.54933e-05
2.58171e-05
2.6164e-05
2.65346e-05
2.69307e-05
2.73546e-05
2.78087e-05
2.82953e-05
2.88165e-05
2.93744e-05
2.99717e-05
3.06096e-05
3.12919e-05
3.20185e-05
3.27942e-05
3.36174e-05
3.44933e-05
3.54189e-05
3.64041e-05
3.74215e-05
3.84831e-05
3.96058e-05
4.078e-05
4.19911e-05
4.32313e-05
4.44854e-05
4.57441e-05
4.69947e-05
4.82224e-05
4.94188e-05
5.05636e-05
5.16522e-05
5.26657e-05
5.35947e-05
5.44344e-05
5.51669e-05
5.58019e-05
5.63402e-05
5.67939e-05
5.72145e-05
5.75728e-05
5.79296e-05
5.80544e-05
5.78287e-05
5.66444e-05
5.41879e-05
5.01933e-05
4.53389e-05
4.08364e-05
3.82232e-05
3.94996e-05
5.22872e-05
5.41156e-05
5.47241e-05
2.21656e-05
2.04825e-05
2.36824e-05
6.75587e-05
0.000104892
0.000156027
0.000180477
2.25e-05
2.23006e-05
2.24727e-05
2.27113e-05
2.29417e-05
2.31793e-05
2.34332e-05
2.37052e-05
2.39975e-05
2.43122e-05
2.46498e-05
2.50115e-05
2.53991e-05
2.58149e-05
2.62617e-05
2.67418e-05
2.72584e-05
2.78131e-05
2.84103e-05
2.90508e-05
2.97401e-05
3.04783e-05
3.12711e-05
3.21181e-05
3.30247e-05
3.39893e-05
3.50164e-05
3.60767e-05
3.71825e-05
3.83602e-05
3.95921e-05
4.08623e-05
4.21688e-05
4.34935e-05
4.48305e-05
4.61575e-05
4.7467e-05
4.87341e-05
4.99515e-05
5.1094e-05
5.21602e-05
5.31271e-05
5.40158e-05
5.48032e-05
5.55545e-05
5.62442e-05
5.69511e-05
5.7597e-05
5.81136e-05
5.81851e-05
5.73522e-05
5.51518e-05
5.12966e-05
4.64091e-05
4.14576e-05
3.79459e-05
3.72677e-05
4.29872e-05
5.00951e-05
5.00539e-05
3.15322e-05
2.02101e-05
1.93908e-05
3.1905e-05
6.16733e-05
0.000110531
0.00015041
0.000175396
0.000181268
2.10992e-05
2.09154e-05
2.10755e-05
2.12981e-05
2.1515e-05
2.17399e-05
2.1981e-05
2.22404e-05
2.25198e-05
2.28215e-05
2.31463e-05
2.34953e-05
2.38707e-05
2.42744e-05
2.47098e-05
2.51783e-05
2.56842e-05
2.62286e-05
2.68164e-05
2.74489e-05
2.81316e-05
2.88665e-05
2.96592e-05
3.0511e-05
3.14274e-05
3.24118e-05
3.34579e-05
3.457e-05
3.57717e-05
3.70453e-05
3.83864e-05
3.97766e-05
4.12092e-05
4.26622e-05
4.41259e-05
4.55734e-05
4.69944e-05
4.836e-05
4.96671e-05
5.08877e-05
5.20419e-05
5.31132e-05
5.41536e-05
5.51499e-05
5.61632e-05
5.70878e-05
5.78693e-05
5.81018e-05
5.74367e-05
5.52667e-05
5.15633e-05
4.67232e-05
4.18267e-05
3.81511e-05
3.68848e-05
4.05676e-05
4.56461e-05
4.31404e-05
3.9473e-05
2.09223e-05
1.77445e-05
2.31614e-05
4.34703e-05
7.09865e-05
0.000106534
0.000132746
0.000169176
0.000178322
0.0001667
1.99674e-05
1.97922e-05
1.99447e-05
2.01571e-05
2.03644e-05
2.05798e-05
2.08107e-05
2.10593e-05
2.13274e-05
2.16175e-05
2.19303e-05
2.22681e-05
2.26321e-05
2.30256e-05
2.3451e-05
2.39118e-05
2.44111e-05
2.49525e-05
2.55398e-05
2.61771e-05
2.68689e-05
2.76199e-05
2.84352e-05
2.93203e-05
3.02803e-05
3.13108e-05
3.2392e-05
3.35375e-05
3.47774e-05
3.60954e-05
3.7491e-05
3.89534e-05
4.04754e-05
4.20381e-05
4.3625e-05
4.52099e-05
4.67746e-05
4.82968e-05
4.97696e-05
5.11812e-05
5.25547e-05
5.38711e-05
5.51382e-05
5.62369e-05
5.70258e-05
5.71036e-05
5.61367e-05
5.37004e-05
4.99585e-05
4.53552e-05
4.10046e-05
3.7778e-05
3.68936e-05
4.05553e-05
4.24331e-05
3.98877e-05
3.77911e-05
2.07195e-05
1.63817e-05
1.91164e-05
3.31182e-05
5.01926e-05
7.49905e-05
9.11023e-05
0.000121011
0.000163779
0.00017302
0.000165176
0.00014639
1.87123e-05
1.85592e-05
1.87005e-05
1.88966e-05
1.90909e-05
1.92938e-05
1.95126e-05
1.97478e-05
2.00022e-05
2.02771e-05
2.05741e-05
2.08942e-05
2.12399e-05
2.16135e-05
2.20183e-05
2.24573e-05
2.29343e-05
2.34531e-05
2.40179e-05
2.46332e-05
2.53045e-05
2.60371e-05
2.68379e-05
2.77124e-05
2.86715e-05
2.97232e-05
3.08849e-05
3.21687e-05
3.35674e-05
3.50718e-05
3.66749e-05
3.83639e-05
4.012e-05
4.19246e-05
4.37499e-05
4.55766e-05
4.73807e-05
4.91451e-05
5.08532e-05
5.24548e-05
5.38792e-05
5.49382e-05
5.53938e-05
5.48945e-05
5.31806e-05
5.0179e-05
4.63081e-05
4.22026e-05
3.87146e-05
3.66292e-05
3.70956e-05
4.05303e-05
3.79472e-05
3.51038e-05
3.15952e-05
2.05567e-05
1.62572e-05
1.73268e-05
2.73329e-05
3.83265e-05
5.68586e-05
6.55813e-05
8.35167e-05
0.000126922
0.000160011
0.000165286
0.000162862
0.000149457
0.000126577
1.80595e-05
1.78853e-05
1.80116e-05
1.81931e-05
1.83728e-05
1.85601e-05
1.87631e-05
1.89822e-05
1.92207e-05
1.94795e-05
1.97612e-05
2.0066e-05
2.03975e-05
2.07573e-05
2.11498e-05
2.15775e-05
2.20456e-05
2.25576e-05
2.31199e-05
2.37378e-05
2.44185e-05
2.51695e-05
2.59979e-05
2.69173e-05
2.79044e-05
2.89488e-05
3.00869e-05
3.13409e-05
3.27177e-05
3.42274e-05
3.58707e-05
3.76547e-05
3.95612e-05
4.158e-05
4.36671e-05
4.57791e-05
4.78301e-05
4.97021e-05
5.12214e-05
5.21263e-05
5.21434e-05
5.09897e-05
4.86525e-05
4.53675e-05
4.17513e-05
3.84876e-05
3.63116e-05
3.59876e-05
3.86651e-05
3.63855e-05
3.33167e-05
3.06184e-05
2.80454e-05
1.752e-05
1.51546e-05
1.65402e-05
2.48358e-05
3.09975e-05
4.48745e-05
5.16099e-05
6.18119e-05
9.28775e-05
0.000141172
0.000154404
0.000159571
0.000159454
0.000151538
0.000135459
0.000111409
1.6842e-05
1.67317e-05
1.68637e-05
1.70393e-05
1.72137e-05
1.73958e-05
1.75904e-05
1.77987e-05
1.80234e-05
1.82659e-05
1.85287e-05
1.88126e-05
1.91206e-05
1.94553e-05
1.98196e-05
2.02182e-05
2.06538e-05
2.11325e-05
2.16586e-05
2.22392e-05
2.28817e-05
2.35957e-05
2.43925e-05
2.5294e-05
2.63255e-05
2.75091e-05
2.88546e-05
3.03606e-05
3.20394e-05
3.3897e-05
3.59335e-05
3.81294e-05
4.04324e-05
4.27461e-05
4.49128e-05
4.67156e-05
4.78985e-05
4.74884e-05
4.69338e-05
4.58466e-05
4.3488e-05
4.07892e-05
3.83589e-05
3.66894e-05
3.67583e-05
3.59569e-05
3.33871e-05
3.0398e-05
2.75876e-05
2.50684e-05
1.96925e-05
1.54807e-05
1.46517e-05
1.78369e-05
2.13302e-05
2.59868e-05
3.68899e-05
4.28189e-05
4.80589e-05
6.85163e-05
0.000118362
0.000137245
0.000148572
0.000154636
0.000155016
0.000152227
0.000141889
0.000125521
0.000102844
1.6914e-05
1.67094e-05
1.67986e-05
1.69493e-05
1.71012e-05
1.72612e-05
1.74359e-05
1.76252e-05
1.78309e-05
1.80544e-05
1.82968e-05
1.856e-05
1.88453e-05
1.91565e-05
1.94959e-05
1.98685e-05
2.02782e-05
2.07315e-05
2.12329e-05
2.179e-05
2.24093e-05
2.31032e-05
2.38692e-05
2.46897e-05
2.55828e-05
2.65894e-05
2.77353e-05
2.9036e-05
3.05056e-05
3.21354e-05
3.38992e-05
3.57281e-05
3.74989e-05
3.902e-05
4.00667e-05
4.04489e-05
4.01231e-05
3.92825e-05
3.8359e-05
3.66901e-05
3.48078e-05
3.25423e-05
3.02401e-05
2.75533e-05
2.52128e-05
2.26091e-05
2.07363e-05
1.85102e-05
1.51203e-05
1.38871e-05
1.50011e-05
1.55767e-05
1.76457e-05
2.23171e-05
2.94661e-05
3.43843e-05
3.77924e-05
5.1835e-05
8.65319e-05
0.000109474
0.000128076
0.00014094
0.000148245
0.000151621
0.000149868
0.000145922
0.000135727
0.000121271
0.000102534
1.58051e-05
1.57429e-05
1.5874e-05
1.603e-05
1.61854e-05
1.63501e-05
1.6528e-05
1.67201e-05
1.6929e-05
1.71571e-05
1.74061e-05
1.76784e-05
1.7976e-05
1.83028e-05
1.86612e-05
1.9058e-05
1.94981e-05
1.9997e-05
2.0565e-05
2.12163e-05
2.19564e-05
2.28046e-05
2.37839e-05
2.49021e-05
2.61452e-05
2.74968e-05
2.89426e-05
3.04537e-05
3.20155e-05
3.35893e-05
3.51717e-05
3.56952e-05
3.43741e-05
3.28691e-05
3.12259e-05
2.94429e-05
2.75489e-05
2.5521e-05
2.34831e-05
2.14765e-05
1.95682e-05
1.78232e-05
1.62066e-05
1.50114e-05
1.42273e-05
1.34694e-05
1.31471e-05
1.20493e-05
1.20353e-05
1.23697e-05
1.45888e-05
1.77437e-05
2.33939e-05
2.56692e-05
2.85955e-05
3.40241e-05
4.77806e-05
6.70221e-05
8.76058e-05
0.000106327
0.000122342
0.000133349
0.000140855
0.000145033
0.000144855
0.000142207
0.00013512
0.000118483
0.000105923
1.83336e-05
1.81193e-05
1.82552e-05
1.84688e-05
1.86766e-05
1.88908e-05
1.91197e-05
1.93681e-05
1.96378e-05
1.99331e-05
2.02573e-05
2.06135e-05
2.1008e-05
2.14449e-05
2.19285e-05
2.24613e-05
2.30386e-05
2.36516e-05
2.42635e-05
2.48828e-05
2.548e-05
2.60691e-05
2.67143e-05
2.64815e-05
2.57211e-05
2.48159e-05
2.37893e-05
2.26548e-05
2.14625e-05
2.02222e-05
1.89696e-05
1.77273e-05
1.65169e-05
1.53666e-05
1.42906e-05
1.32871e-05
1.24109e-05
1.15013e-05
1.10989e-05
1.06541e-05
1.02029e-05
9.76232e-06
9.3407e-06
8.87841e-06
8.34208e-06
8.13433e-06
7.58199e-06
8.3783e-06
9.87798e-06
1.23701e-05
1.61879e-05
1.5728e-05
1.45317e-05
1.77599e-05
1.89276e-05
2.24348e-05
3.16558e-05
4.4504e-05
6.14896e-05
7.93464e-05
9.46341e-05
0.000107166
0.000117115
0.000124201
0.000128079
0.000128653
0.000113664
9.94322e-05
9.32777e-05
8.86306e-06
8.80454e-06
8.73154e-06
8.6734e-06
8.60181e-06
8.54399e-06
8.47467e-06
8.41137e-06
8.35249e-06
8.27667e-06
8.22358e-06
8.14266e-06
8.08662e-06
8.00259e-06
7.94064e-06
7.85742e-06
7.78212e-06
7.70279e-06
7.62146e-06
7.55043e-06
7.48146e-06
7.43049e-06
7.38499e-06
7.35512e-06
7.32875e-06
7.3313e-06
7.32135e-06
7.32945e-06
7.34568e-06
7.37356e-06
7.37283e-06
7.37909e-06
7.37575e-06
7.36568e-06
7.32373e-06
7.2495e-06
7.10326e-06
6.97775e-06
6.51673e-06
5.98216e-06
5.52373e-06
5.06427e-06
4.60583e-06
4.3017e-06
4.05645e-06
3.77357e-06
3.24984e-06
2.81435e-06
3.97532e-06
5.36763e-06
5.67067e-06
4.44418e-06
2.79891e-06
2.28991e-06
2.73526e-06
3.79462e-06
5.95833e-06
1.0071e-05
1.69292e-05
2.72707e-05
3.88667e-05
4.70817e-05
5.55562e-05
6.29432e-05
6.88386e-05
7.25605e-05
7.39268e-05
7.2785e-05
7.00415e-05
5.25081e-06
5.37948e-06
5.50836e-06
5.63802e-06
5.76787e-06
5.89856e-06
6.02954e-06
6.16127e-06
6.29339e-06
6.42615e-06
6.55904e-06
6.6928e-06
6.82598e-06
6.96048e-06
7.09356e-06
7.22825e-06
7.36165e-06
7.49493e-06
7.60323e-06
7.71994e-06
7.80863e-06
7.95798e-06
7.95643e-06
7.95888e-06
7.94756e-06
8.01909e-06
7.85739e-06
7.78482e-06
7.80466e-06
7.75684e-06
7.32336e-06
7.22912e-06
6.9565e-06
6.65776e-06
6.22834e-06
5.6669e-06
4.94422e-06
4.02755e-06
2.92575e-06
1.82009e-06
8.65935e-07
3.19187e-07
2.19459e-07
2.75398e-07
3.32057e-07
3.34736e-07
3.1053e-07
2.64427e-07
2.20274e-07
1.98869e-07
1.78871e-07
1.42401e-07
1.18615e-07
1.25145e-07
1.71037e-07
2.55227e-07
3.94047e-07
5.97811e-07
8.65537e-07
1.19509e-06
1.59598e-06
2.08914e-06
2.58704e-06
3.06906e-06
3.50737e-06
3.92082e-06
4.32077e-06
4.64626e-06
4.5605e-06
7.45993e-05
7.57026e-05
7.60857e-05
7.8319e-05
7.92244e-05
7.82168e-05
7.55886e-05
7.40864e-05
7.48945e-05
7.57492e-05
7.70767e-05
7.71018e-05
7.57248e-05
7.31198e-05
7.30933e-05
7.49272e-05
7.48191e-05
7.38588e-05
7.24428e-05
7.18774e-05
7.27529e-05
7.41769e-05
7.24311e-05
7.09639e-05
7.11123e-05
7.11773e-05
7.01916e-05
6.99462e-05
7.14878e-05
7.05149e-05
6.97409e-05
7.01329e-05
7.03433e-05
7.02091e-05
6.8407e-05
6.8391e-05
6.90672e-05
6.80701e-05
6.7773e-05
6.83399e-05
6.67915e-05
6.64582e-05
6.78657e-05
6.9111e-05
6.82976e-05
6.86417e-05
6.94978e-05
6.98477e-05
6.95184e-05
6.8165e-05
6.64494e-05
6.40945e-05
6.56971e-05
6.52057e-05
6.79075e-05
7.01792e-05
7.02198e-05
6.99457e-05
7.21758e-05
7.03248e-05
7.16412e-05
7.15531e-05
7.19552e-05
7.12307e-05
6.96468e-05
6.86253e-05
6.92206e-05
7.07889e-05
7.14237e-05
7.11698e-05
7.03667e-05
6.94465e-05
6.81192e-05
6.89128e-05
6.93954e-05
6.88739e-05
6.77543e-05
6.74345e-05
6.74521e-05
6.79435e-05
6.77572e-05
6.68876e-05
6.61365e-05
6.60488e-05
6.59748e-05
6.55792e-05
6.50062e-05
6.56843e-05
6.55202e-05
6.43994e-05
6.49503e-05
6.48918e-05
6.52671e-05
6.42967e-05
6.39516e-05
6.46336e-05
6.43411e-05
6.37986e-05
6.34827e-05
6.26798e-05
6.24711e-05
6.2723e-05
6.35209e-05
6.40638e-05
6.3993e-05
6.45956e-05
6.54087e-05
6.59736e-05
6.56789e-05
6.47724e-05
6.33827e-05
6.24202e-05
6.22638e-05
6.26908e-05
6.40636e-05
6.53694e-05
6.55348e-05
6.70716e-05
6.52398e-05
6.62995e-05
6.55099e-05
6.50312e-05
6.43731e-05
6.40503e-05
6.44524e-05
6.53665e-05
6.60142e-05
6.58122e-05
6.51415e-05
6.43997e-05
6.38559e-05
6.35288e-05
6.4078e-05
6.39624e-05
6.34292e-05
6.28371e-05
6.28752e-05
6.3055e-05
6.28684e-05
6.22813e-05
6.17681e-05
6.13213e-05
6.12312e-05
6.09697e-05
6.07979e-05
6.02166e-05
6.06218e-05
6.04165e-05
5.9652e-05
6.00261e-05
5.99535e-05
6.0121e-05
5.97137e-05
5.93131e-05
5.96942e-05
5.98111e-05
5.95518e-05
5.92301e-05
5.87233e-05
5.84175e-05
5.83621e-05
5.84854e-05
5.91754e-05
5.9345e-05
5.96054e-05
6.01489e-05
6.08987e-05
6.13731e-05
6.13674e-05
6.09884e-05
6.02061e-05
5.97173e-05
5.94324e-05
5.95283e-05
5.99877e-05
6.00033e-05
6.1437e-05
5.97594e-05
6.05332e-05
5.97667e-05
5.95949e-05
5.96011e-05
5.99114e-05
6.0381e-05
6.06972e-05
6.05857e-05
6.01094e-05
5.95527e-05
5.91531e-05
5.90105e-05
5.91049e-05
5.92836e-05
5.89996e-05
5.85943e-05
5.83752e-05
5.84934e-05
5.8568e-05
5.81104e-05
5.75545e-05
5.71958e-05
5.69006e-05
5.68065e-05
5.65248e-05
5.64033e-05
5.597e-05
5.61953e-05
5.59702e-05
5.5477e-05
5.5732e-05
5.56235e-05
5.56822e-05
5.55079e-05
5.51754e-05
5.53177e-05
5.55539e-05
5.55261e-05
5.53621e-05
5.50989e-05
5.48418e-05
5.46694e-05
5.46113e-05
5.49667e-05
5.53144e-05
5.5563e-05
5.58744e-05
5.63714e-05
5.69253e-05
5.73485e-05
5.75872e-05
5.75617e-05
5.73712e-05
5.71199e-05
5.68858e-05
5.68278e-05
5.64093e-05
5.74781e-05
5.48725e-05
5.57037e-05
5.52494e-05
5.53791e-05
5.55693e-05
5.57725e-05
5.58484e-05
5.5707e-05
5.5392e-05
5.50294e-05
5.4768e-05
5.46776e-05
5.47335e-05
5.4822e-05
5.47474e-05
5.44499e-05
5.42075e-05
5.41724e-05
5.42794e-05
5.4195e-05
5.37128e-05
5.32642e-05
5.29984e-05
5.27998e-05
5.26954e-05
5.2458e-05
5.23583e-05
5.2043e-05
5.2152e-05
5.19645e-05
5.1613e-05
5.17936e-05
5.16899e-05
5.17283e-05
5.16753e-05
5.14398e-05
5.14435e-05
5.16508e-05
5.17477e-05
5.17021e-05
5.1586e-05
5.14547e-05
5.13206e-05
5.12279e-05
5.13497e-05
5.16268e-05
5.19146e-05
5.21768e-05
5.25002e-05
5.29053e-05
5.33331e-05
5.37254e-05
5.40314e-05
5.42092e-05
5.42651e-05
5.42291e-05
5.42165e-05
5.37237e-05
5.45958e-05
5.08532e-05
5.1749e-05
5.14106e-05
5.15213e-05
5.1555e-05
5.15057e-05
5.13476e-05
5.11171e-05
5.0886e-05
5.0726e-05
5.06709e-05
5.06984e-05
5.07364e-05
5.0696e-05
5.05187e-05
5.03027e-05
5.0206e-05
5.02386e-05
5.02669e-05
5.00618e-05
4.96301e-05
4.92852e-05
4.90892e-05
4.89505e-05
4.88408e-05
4.8649e-05
4.85644e-05
4.83298e-05
4.83755e-05
4.82247e-05
4.79591e-05
4.80879e-05
4.80208e-05
4.80525e-05
4.80698e-05
4.79293e-05
4.78787e-05
4.80171e-05
4.81638e-05
4.82182e-05
4.81998e-05
4.81593e-05
4.81061e-05
4.80477e-05
4.8078e-05
4.82365e-05
4.84777e-05
4.8733e-05
4.89987e-05
4.93005e-05
4.96393e-05
4.99929e-05
5.03368e-05
5.0644e-05
5.08888e-05
5.10577e-05
5.12226e-05
5.08688e-05
5.17769e-05
4.72954e-05
4.81086e-05
4.77212e-05
4.77032e-05
4.75956e-05
4.7448e-05
4.72789e-05
4.71283e-05
4.70277e-05
4.69878e-05
4.69914e-05
4.69955e-05
4.69518e-05
4.68343e-05
4.66751e-05
4.65642e-05
4.65477e-05
4.65676e-05
4.64998e-05
4.62374e-05
4.58769e-05
4.56198e-05
4.54743e-05
4.53675e-05
4.52575e-05
4.50998e-05
4.50241e-05
4.4851e-05
4.48647e-05
4.47414e-05
4.45442e-05
4.46355e-05
4.46021e-05
4.463e-05
4.46843e-05
4.46261e-05
4.45711e-05
4.46554e-05
4.47993e-05
4.49146e-05
4.49777e-05
4.50064e-05
4.50188e-05
4.50222e-05
4.50504e-05
4.5145e-05
4.53148e-05
4.55318e-05
4.57648e-05
4.60156e-05
4.62872e-05
4.6576e-05
4.68693e-05
4.71597e-05
4.74293e-05
4.76643e-05
4.79244e-05
4.77e-05
4.86701e-05
4.38864e-05
4.45683e-05
4.41413e-05
4.40644e-05
4.3935e-05
4.38141e-05
4.37124e-05
4.36438e-05
4.36076e-05
4.35902e-05
4.35676e-05
4.35145e-05
4.34203e-05
4.33022e-05
4.32027e-05
4.31584e-05
4.31546e-05
4.31237e-05
4.29847e-05
4.27178e-05
4.24341e-05
4.22459e-05
4.21345e-05
4.2044e-05
4.1938e-05
4.18066e-05
4.17366e-05
4.16102e-05
4.16084e-05
4.15074e-05
4.13611e-05
4.14259e-05
4.14184e-05