/*--------------------------------*- C++ -*----------------------------------*\
| =========                 |                                                 |
| \\      /  F ield         | OpenFOAM: The Open Source CFD Toolbox           |
|  \\    /   O peration     | Version:  2312                                  |
|   \\  /    A nd           | Website:  www.openfoam.com                      |
|    \\/     M anipulation  |                                                 |
\*---------------------------------------------------------------------------*/
FoamFile
{
    version     2.0;
    format      ascii;
    arch        "LSB;label=32;scalar=64";
    class       volScalarField;
    location    "800";
    object      omega;
}
// * * * * * * * * * * * * * * * * * * * * * * * * * * * * * * * * * * * * * //

dimensions      [0 0 -1 0 0 0 0];

internalField   nonuniform List<scalar> 
76025
(
0.02912
0.0291404
0.0291766
0.0292016
0.0292119
0.0292266
0.0292264
0.0292347
0.0292398
0.0292516
0.0292615
0.0292901
0.0293027
0.0293061
0.029315
0.0293456
0.0293674
0.0294169
0.02945
0.0294997
0.0295257
0.0295443
0.0295911
0.0296152
0.029638
0.0296555
0.0296633
0.0296753
0.0296352
0.0296079
0.0296179
0.0296505
0.029678
0.0297247
0.0297838
0.0298328
0.0299286
0.0299899
0.0301228
0.0302137
0.0303838
0.0305198
0.0307653
0.0309634
0.0312773
0.0315122
0.0319106
0.0321759
0.0326748
0.0329857
0.0335792
0.0339035
0.0344936
0.0347988
0.035483
0.0358546
0.0366963
0.0371872
0.0382454
0.0388985
0.0401041
0.0408371
0.0423329
0.0432783
0.0451234
0.0464899
0.0482043
0.0505518
0.0531206
0.0293475
0.0293571
0.0293703
0.029395
0.029416
0.0294446
0.0294647
0.0294824
0.029497
0.0295076
0.0295211
0.0295383
0.0295511
0.0295633
0.0295748
0.0295898
0.0296081
0.0296432
0.029683
0.0297277
0.0297786
0.0298349
0.02986
0.0298539
0.0298675
0.0298825
0.0299072
0.0299383
0.0299689
0.030009
0.0300515
0.0301105
0.0301802
0.0302599
0.0303563
0.0304492
0.0305777
0.0306901
0.0308589
0.0310014
0.0312344
0.0314327
0.031737
0.0319698
0.0323022
0.0325363
0.0328914
0.0331454
0.0335654
0.0338628
0.0343711
0.0347249
0.0353585
0.0358055
0.0365983
0.0371468
0.0380908
0.0387412
0.0398209
0.0405712
0.0418366
0.0428269
0.0443452
0.0456344
0.0475561
0.049053
0.0517596
0.0536523
0.0571598
0.0297569
0.0297602
0.0297582
0.0297643
0.0297762
0.0297962
0.0298235
0.02985
0.0298793
0.029906
0.0299262
0.0299547
0.029985
0.0300126
0.0300453
0.0300767
0.030102
0.0301338
0.0301724
0.0302124
0.0302429
0.0302746
0.0303057
0.0303428
0.0303847
0.0304349
0.0304853
0.0305441
0.0306
0.03067
0.030749
0.0308438
0.0309593
0.0310778
0.0312203
0.0313498
0.0315147
0.0316501
0.0318516
0.0320096
0.0322595
0.0324432
0.0327376
0.0329345
0.0332602
0.0334626
0.0338409
0.0340867
0.0345579
0.0348721
0.0354631
0.0358555
0.0365791
0.037052
0.0379098
0.0384546
0.039459
0.0400987
0.0412833
0.0420798
0.0434927
0.0445107
0.0461543
0.0475052
0.0493445
0.0512684
0.0534646
0.0558897
0.0590865
0.0301672
0.0301794
0.0301878
0.0301973
0.0302093
0.0302226
0.0302451
0.0302732
0.0303061
0.0303494
0.0303829
0.0304164
0.0304447
0.0304708
0.0305031
0.0305384
0.0305735
0.0306115
0.0306531
0.0306953
0.0307424
0.0307901
0.0308464
0.0309084
0.0309801
0.0310493
0.0311271
0.0312075
0.0313027
0.0313965
0.0315102
0.0316127
0.031744
0.0318559
0.0320083
0.0321297
0.0323126
0.0324535
0.0326715
0.0328274
0.0330727
0.0332351
0.0335132
0.0336971
0.0340392
0.034277
0.0347191
0.0350292
0.0355835
0.0359641
0.0366331
0.0370837
0.0378793
0.0384067
0.0393452
0.0399679
0.0410699
0.0418179
0.0431008
0.0440155
0.0455093
0.0466384
0.0484346
0.0498203
0.0520927
0.0538755
0.0567606
0.0591897
0.0633024
0.0307434
0.0307611
0.0307834
0.0307985
0.0308142
0.0308264
0.0308389
0.0308547
0.0308771
0.0309137
0.0309651
0.031022
0.0310803
0.0311284
0.03117
0.0312096
0.0312475
0.0312874
0.0313284
0.0313703
0.0314121
0.0314602
0.031512
0.0315798
0.0316615
0.031761
0.0318613
0.0319833
0.0321007
0.0322326
0.0323716
0.0325115
0.0326635
0.0328215
0.0330037
0.0331762
0.0334095
0.0335931
0.0338429
0.0340057
0.0342572
0.0344132
0.034712
0.0349165
0.03531
0.0355863
0.0360855
0.0364286
0.0370338
0.0374417
0.0381666
0.03865
0.0395157
0.0400872
0.0411114
0.0417835
0.0429774
0.0437801
0.0451488
0.0461528
0.0476996
0.0490146
0.0507843
0.0525045
0.0546659
0.0568379
0.0597191
0.0624461
0.0665515
0.0313661
0.0313884
0.0314165
0.0314521
0.0314854
0.0315209
0.0315564
0.031589
0.0316269
0.0316581
0.0316967
0.0317356
0.0317738
0.0318117
0.0318523
0.0318941
0.0319403
0.0319962
0.0320621
0.0321409
0.0322154
0.0323093
0.032399
0.0324996
0.032583
0.0326773
0.0327672
0.0328788
0.0329807
0.0331206
0.0332438
0.0334011
0.0335644
0.0337373
0.0339463
0.0341389
0.0344185
0.034649
0.0349664
0.0351868
0.0355083
0.0357236
0.0360911
0.0363451
0.0367949
0.0371023
0.0376423
0.0380019
0.0386457
0.0390738
0.0398521
0.0403691
0.0413057
0.0419192
0.0430272
0.0437433
0.0450364
0.0458825
0.0473789
0.0484247
0.050145
0.0515093
0.053502
0.055326
0.0577344
0.0601576
0.0633523
0.0664082
0.071244
0.0321008
0.0321317
0.0321621
0.0322004
0.0322419
0.0322811
0.0323266
0.0323657
0.0324154
0.0324667
0.0325175
0.0325713
0.0326232
0.0326772
0.0327308
0.0327882
0.0328594
0.0329269
0.0329926
0.0330506
0.0331177
0.0331908
0.0332891
0.0334078
0.0335421
0.0336573
0.0337691
0.0338711
0.0339933
0.0341109
0.0342727
0.03443
0.0346233
0.0348273
0.0350688
0.0352958
0.0355994
0.0358717
0.0362426
0.036533
0.0369483
0.0372551
0.0377199
0.0380394
0.0385497
0.0388766
0.0394409
0.0397982
0.040471
0.0409129
0.0417483
0.0422997
0.0433156
0.0439725
0.0451746
0.0459392
0.0473453
0.0482499
0.0498901
0.0510132
0.0529224
0.0543943
0.056637
0.05862
0.0613413
0.0640393
0.0675716
0.0710069
0.0765744
0.0330907
0.033123
0.0331601
0.0331978
0.0332489
0.0333045
0.033366
0.033423
0.033471
0.0335217
0.0335634
0.0336089
0.0336561
0.0337104
0.0337619
0.0338221
0.0338922
0.0339839
0.0340772
0.034177
0.0342736
0.0343823
0.0344804
0.0346088
0.0347361
0.0348827
0.0350236
0.0351607
0.0353068
0.0354391
0.0356068
0.0357666
0.0359824
0.0361882
0.0364682
0.036719
0.0370478
0.0373511
0.0377363
0.0380554
0.0385218
0.0388859
0.0394161
0.0397706
0.0403174
0.0406491
0.041246
0.0416252
0.0423673
0.0428598
0.0437893
0.044397
0.0455134
0.0462232
0.0475353
0.0483577
0.049899
0.0508765
0.052698
0.05391
0.0560771
0.0576441
0.0602552
0.0623513
0.0655349
0.0685126
0.0723765
0.0766623
0.0824668
0.034034
0.0340691
0.0341055
0.0341442
0.0341861
0.0342459
0.0343231
0.0344129
0.0345112
0.0346045
0.0346934
0.0347701
0.0348459
0.0349204
0.0350035
0.0350848
0.035172
0.0352462
0.0353364
0.035417
0.0355253
0.035629
0.035761
0.0358899
0.0360381
0.0361972
0.0363643
0.0365298
0.0367198
0.0369041
0.0371373
0.0373568
0.0376313
0.0378639
0.0381599
0.0383942
0.0387349
0.0389963
0.0394044
0.0397165
0.0401949
0.0405261
0.041041
0.0413789
0.0419636
0.0423546
0.0430746
0.0435626
0.0444451
0.0450273
0.0460753
0.0467453
0.0479738
0.0487433
0.0501869
0.0510896
0.0527965
0.0538923
0.0559185
0.0572973
0.0597258
0.0614845
0.0645034
0.0667146
0.0706465
0.0735454
0.0785168
0.0830515
0.0898307
0.0354302
0.0354673
0.0355008
0.0355323
0.0355731
0.0356204
0.0356799
0.0357425
0.0358108
0.0358891
0.0359735
0.0360694
0.0361711
0.0362906
0.0364207
0.0365362
0.0366666
0.0367949
0.0369191
0.0370459
0.0371522
0.0372638
0.0373703
0.0374925
0.037619
0.0377763
0.0379341
0.0381274
0.0383145
0.0385444
0.0387862
0.039043
0.0393416
0.0396438
0.0399871
0.0403404
0.0407928
0.0411913
0.0417045
0.0421113
0.0426411
0.0430054
0.0435478
0.0439409
0.0445851
0.0450076
0.0457597
0.046223
0.0471106
0.0476654
0.0487605
0.0494491
0.0507878
0.0516229
0.0532332
0.0542413
0.0561623
0.0574091
0.0596817
0.061291
0.0639642
0.0660974
0.0693549
0.0720834
0.0763979
0.079742
0.0856439
0.0907102
0.0995578
0.0368873
0.036952
0.037017
0.0370708
0.0371342
0.0371954
0.0372764
0.0373634
0.0374393
0.0375181
0.0375894
0.0376693
0.0377406
0.0378412
0.0379517
0.0380815
0.0382126
0.0383499
0.0384949
0.0386272
0.0387745
0.0389031
0.0390447
0.0391902
0.0393551
0.0395147
0.0397372
0.03993
0.0401919
0.0404609
0.0407578
0.0410715
0.0414453
0.041792
0.042213
0.0426925
0.0432435
0.0436462
0.0440802
0.0444438
0.0449138
0.0453441
0.0459818
0.0467431
0.0475493
0.0481252
0.0489081
0.049294
0.0501249
0.0506404
0.0518072
0.0525485
0.0540496
0.0549868
0.0568166
0.0579548
0.0601511
0.0615549
0.0641676
0.0659814
0.0690471
0.0715177
0.0751563
0.0784862
0.0831557
0.0874619
0.0938613
0.101504
0.113645
0.0386171
0.038648
0.0387006
0.0387556
0.038821
0.0388986
0.0389784
0.0390823
0.0392004
0.0393176
0.0394544
0.0395879
0.0397276
0.0398687
0.04001
0.0401668
0.0403288
0.0404946
0.0406462
0.0407886
0.0409154
0.0410503
0.0411924
0.041356
0.0415558
0.0417595
0.0420134
0.0422766
0.0425437
0.0428841
0.0431573
0.0435543
0.0438746
0.0443113
0.0447143
0.0451939
0.0457122
0.0462457
0.0468563
0.047653
0.0483612
0.0491898
0.0500791
0.0519102
0.0527331
0.0535597
0.05407
0.0537124
0.0540016
0.0543579
0.0555075
0.0562881
0.0579675
0.0590183
0.0610996
0.0623895
0.0649076
0.0664957
0.0695249
0.0715499
0.0751604
0.0779193
0.0821975
0.0861537
0.0913714
0.097268
0.10354
0.118475
0.135446
0.0409259
0.0410026
0.0410848
0.0411586
0.0412301
0.0413057
0.0413773
0.0414551
0.0415357
0.0416295
0.041709
0.0418244
0.0419188
0.0420681
0.042181
0.0423741
0.0425364
0.0427872
0.0429694
0.0432234
0.0433789
0.0436104
0.0437483
0.0439828
0.044145
0.0444161
0.0446346
0.0449503
0.0452502
0.0455866
0.0459994
0.0463341
0.0468692
0.0472443
0.0478575
0.0483624
0.0490329
0.0497078
0.0503831
0.0512544
0.0521103
0.0528765
0.053854
0.0549767
0.0564981
0.0571621
0.0571479
0.0575047
0.0581442
0.0586722
0.0599134
0.0607834
0.0626912
0.0638848
0.0662595
0.0677364
0.0706218
0.0724531
0.0759454
0.0782665
0.0825093
0.0856433
0.0908403
0.095458
0.101934
0.109559
0.116744
0.150481
0.187633
0.0433504
0.0434369
0.0435205
0.0436156
0.0437168
0.0438075
0.0439374
0.0440379
0.0441722
0.0442975
0.0444518
0.0445998
0.0447927
0.0449697
0.0451953
0.0453891
0.0456282
0.0458156
0.0460469
0.046211
0.0464317
0.0465849
0.0468236
0.0469989
0.0472881
0.0475112
0.0478673
0.0481505
0.0485772
0.0489305
0.0494183
0.0498645
0.0503901
0.0509714
0.0515165
0.0522643
0.052856
0.0537045
0.0544595
0.055322
0.0563131
0.0571646
0.058205
0.0590916
0.0600205
0.0617925
0.0641617
0.0649127
0.0643076
0.0646272
0.0655228
0.0664475
0.0685929
0.0699279
0.0726126
0.0743008
0.0775875
0.0797384
0.0837197
0.0865049
0.0914138
0.0952814
0.101523
0.10744
0.116002
0.125641
0.141849
0.221497
0.362942
0.04667
0.0467865
0.0469077
0.0470182
0.0471553
0.0472734
0.0474141
0.0475587
0.0477052
0.047864
0.0479868
0.0481408
0.0482754
0.0484634
0.0486377
0.0488618
0.0490514
0.0492856
0.0494614
0.0496957
0.0498601
0.050116
0.0502946
0.050607
0.0508269
0.0512228
0.0514974
0.0519895
0.0523225
0.0529135
0.0533037
0.053994
0.0544453
0.0552389
0.0557603
0.0566709
0.057285
0.0582766
0.0591345
0.0600623
0.0613404
0.0622029
0.063649
0.0647091
0.0663818
0.0685383
0.0691716
0.0692216
0.0694664
0.0703501
0.0724979
0.0738525
0.0762576
0.0776834
0.0806335
0.0825398
0.0862584
0.0888251
0.0933464
0.0968216
0.102574
0.107692
0.115419
0.123919
0.136337
0.15014
0.220806
0.392344
0.856929
0.0502962
0.0504291
0.0505915
0.0507793
0.0509533
0.0511499
0.0513283
0.0515484
0.0517383
0.0519487
0.0520984
0.0522534
0.0523577
0.0525033
0.0525988
0.0527818
0.0529102
0.0531559
0.0533387
0.0536512
0.0538793
0.0542517
0.0545159
0.0549463
0.0552455
0.0557376
0.0560782
0.0566439
0.0570436
0.0576819
0.0581565
0.0588413
0.0594157
0.0601294
0.0608181
0.0616328
0.0623544
0.0634295
0.0642688
0.0653314
0.0667544
0.0677945
0.0694523
0.0712134
0.0726553
0.0734632
0.0749047
0.0763465
0.0785548
0.080838
0.0833933
0.0848234
0.0867876
0.0880453
0.0910422
0.0932151
0.0974154
0.100577
0.105705
0.11028
0.117238
0.124624
0.13478
0.150095
0.169301
0.220548
0.433257
0.841993
1.55189
0.0549978
0.0551325
0.0552592
0.0553901
0.055541
0.0556889
0.0558539
0.0560487
0.0562512
0.0564767
0.0567044
0.0569157
0.0571571
0.0573636
0.0576573
0.0579075
0.0582302
0.0585324
0.0588568
0.0591914
0.059509
0.0598863
0.0602226
0.0606719
0.061033
0.0615968
0.0620149
0.0626562
0.0630712
0.0637422
0.064125
0.0648396
0.0652353
0.066057
0.0665574
0.0675314
0.0682445
0.0694193
0.0703612
0.0718839
0.073024
0.0748582
0.0765119
0.0782975
0.0809711
0.0830425
0.0859116
0.0883985
0.0905866
0.0938475
0.0990462
0.10094
0.100533
0.101653
0.104696
0.107522
0.112416
0.116498
0.122454
0.128729
0.138117
0.149689
0.166082
0.204281
0.245445
0.489407
0.861547
1.609
1.52661
0.0608042
0.061
0.0611898
0.0613813
0.0615352
0.0617544
0.0619275
0.0621719
0.0623957
0.0626595
0.0629067
0.0631861
0.0634519
0.0637125
0.0639595
0.0641849
0.0644174
0.0646487
0.0649042
0.0652194
0.0655328
0.0659859
0.0663649
0.0669381
0.0673729
0.0680395
0.0685153
0.0692564
0.0697589
0.0705678
0.0711112
0.0719969
0.072631
0.0736008
0.0744199
0.0754592
0.0766112
0.0776806
0.0792686
0.080439
0.0823033
0.0839327
0.085773
0.0879804
0.0900823
0.0923768
0.0947223
0.0967437
0.0990229
0.101741
0.105754
0.109581
0.113903
0.117349
0.122865
0.127442
0.133552
0.139245
0.146753
0.156089
0.171954
0.193907
0.23553
0.333923
0.503295
1.02538
1.6124
1.5528
1.32616
0.0678331
0.0680359
0.0682333
0.0684508
0.0686448
0.0688746
0.0691237
0.0693786
0.0697002
0.0699945
0.0703503
0.0707168
0.0711098
0.0715313
0.0719555
0.0723636
0.0727626
0.0731907
0.0735489
0.0739718
0.0742827
0.0746889
0.0750123
0.0754583
0.0758525
0.0764089
0.0768775
0.0775826
0.0781136
0.0789738
0.0796064
0.0806343
0.0814
0.0826308
0.0835778
0.085034
0.0862226
0.0878419
0.0893226
0.0910434
0.0929304
0.0947644
0.0969232
0.0991859
0.101524
0.104318
0.107404
0.110955
0.114601
0.119833
0.125849
0.131094
0.134797
0.140158
0.148561
0.155923
0.164243
0.173523
0.185901
0.203018
0.240982
0.299358
0.436936
0.685147
1.18534
1.5619
1.4997
1.33218
1.17927
0.0764553
0.0766488
0.076908
0.0771579
0.0774182
0.0777239
0.0780309
0.0783423
0.078719
0.0790718
0.0794684
0.0798171
0.0801554
0.0804639
0.0807583
0.0811281
0.0814539
0.0819262
0.0823948
0.083012
0.0835912
0.084188
0.0847126
0.085221
0.0856811
0.0862219
0.0867155
0.0874306
0.0880604
0.0890055
0.0898424
0.0910444
0.0921199
0.0935904
0.0948733
0.0966543
0.0981866
0.100176
0.101943
0.104328
0.10635
0.108681
0.111033
0.113177
0.116052
0.11868
0.122045
0.125528
0.129786
0.13453
0.139793
0.145419
0.153163
0.166531
0.181861
0.194795
0.209046
0.229564
0.263433
0.307591
0.427491
0.609371
0.995015
1.42373
1.51697
1.41228
1.28187
1.1595
1.06704
0.0880094
0.0882413
0.0885768
0.0888826
0.089232
0.0896115
0.0900098
0.0904296
0.0908775
0.0913305
0.0918448
0.0922389
0.0927746
0.0931914
0.0937449
0.0941616
0.0946509
0.0950317
0.0954897
0.0959184
0.09646
0.0969879
0.0976643
0.0982499
0.0990552
0.0997108
0.100598
0.101434
0.102395
0.103457
0.104575
0.10587
0.107228
0.10872
0.110249
0.112135
0.113902
0.115794
0.118177
0.120742
0.123053
0.125546
0.127851
0.130611
0.13364
0.137413
0.141746
0.146472
0.152945
0.161085
0.168776
0.179482
0.194428
0.210744
0.229768
0.252144
0.284728
0.335277
0.44157
0.613872
0.968116
1.3402
1.49221
1.40486
1.24928
1.17512
1.10453
1.03472
0.978587
0.102254
0.102623
0.102952
0.103364
0.103675
0.104113
0.104429
0.104882
0.105239
0.105704
0.106155
0.106626
0.107135
0.107678
0.10822
0.108843
0.109451
0.110053
0.110774
0.111556
0.112352
0.113085
0.113761
0.114377
0.115
0.11567
0.116382
0.117273
0.118233
0.119343
0.120698
0.122038
0.123725
0.125159
0.127062
0.128655
0.130791
0.132859
0.135229
0.137922
0.140632
0.144152
0.147969
0.152236
0.157613
0.163733
0.170644
0.179137
0.19112
0.205452
0.218101
0.242123
0.265186
0.295006
0.347949
0.408093
0.507281
0.676682
1.00968
1.38079
1.54272
1.42918
1.21273
1.05887
1.03054
1.01467
0.983055
0.940654
0.902954
0.120391
0.1208
0.121061
0.121595
0.121941
0.122559
0.123039
0.123718
0.124304
0.125059
0.125712
0.126576
0.127251
0.128191
0.128875
0.129898
0.130607
0.131644
0.13234
0.133329
0.134044
0.13491
0.135749
0.136478
0.13758
0.138382
0.139654
0.140984
0.142407
0.144021
0.146073
0.147663
0.149526
0.150705
0.152434
0.153973
0.156172
0.158621
0.161618
0.165181
0.169217
0.174066
0.179976
0.186269
0.195426
0.205445
0.218568
0.234847
0.259389
0.281838
0.315227
0.354349
0.405405
0.485368
0.616223
0.803497
1.15211
1.5182
1.63704
1.54574
1.27478
0.963183
0.899518
0.894846
0.911679
0.914185
0.898104
0.867503
0.834633
0.146727
0.147099
0.147618
0.148024
0.148544
0.149014
0.149538
0.150122
0.150616
0.151331
0.151826
0.152628
0.153233
0.15405
0.154869
0.155725
0.156768
0.157723
0.158887
0.160069
0.161265
0.162581
0.164053
0.165276
0.167052
0.168432
0.170041
0.171853
0.173585
0.175575
0.17732
0.179022
0.180742
0.182715
0.185016
0.188028
0.19117
0.195682
0.199968
0.206502
0.21287
0.222599
0.232817
0.247949
0.265247
0.289324
0.318276
0.357118
0.405093
0.464698
0.546441
0.669063
0.821605
1.09458
1.41795
1.76662
1.82352
1.71735
1.34474
0.913939
0.782759
0.74876
0.770277
0.80816
0.837266
0.845847
0.836899
0.810326
0.77524
0.178443
0.178875
0.179228
0.179794
0.180189
0.180888
0.181393
0.18222
0.182914
0.183801
0.184748
0.185663
0.186842
0.187855
0.189082
0.190262
0.191564
0.192797
0.194303
0.195739
0.197286
0.198625
0.200066
0.20124
0.202649
0.204033
0.205637
0.207435
0.209559
0.212019
0.214929
0.218318
0.222307
0.226984
0.232422
0.239003
0.246872
0.256803
0.269203
0.285215
0.305097
0.331299
0.362896
0.405505
0.45464
0.522661
0.59609
0.701796
0.83388
0.981514
1.23739
1.54225
1.85826
2.04286
2.0237
1.8633
1.38352
0.912005
0.750573
0.657535
0.640409
0.662179
0.704014
0.747265
0.780096
0.793453
0.791818
0.769477
0.732942
0.229663
0.230313
0.230917
0.231634
0.232278
0.233091
0.23383
0.234751
0.235618
0.236634
0.237637
0.238743
0.239881
0.241052
0.242338
0.243515
0.245002
0.246187
0.247867
0.249168
0.251024
0.252412
0.254567
0.25638
0.259134
0.262092
0.265796
0.270512
0.276163
0.283188
0.291913
0.303045
0.316748
0.333652
0.354062
0.379036
0.409597
0.447624
0.49414
0.55122
0.619944
0.701923
0.799618
0.915711
1.05087
1.21561
1.38
1.68981
1.94107
2.22092
2.35305
2.35057
2.27195
1.88576
1.32994
1.0556
0.844565
0.688728
0.622656
0.602243
0.606507
0.6347
0.671491
0.708831
0.740063
0.758313
0.763811
0.752706
0.724444
0.357316
0.359275
0.361269
0.363295
0.365332
0.367433
0.369569
0.371784
0.374067
0.376434
0.378892
0.381478
0.384161
0.387018
0.390051
0.393261
0.396742
0.400503
0.404573
0.409183
0.414413
0.421465
0.430492
0.44188
0.456271
0.47459
0.497133
0.524588
0.557191
0.595806
0.641224
0.69436
0.756311
0.828289
0.911394
1.00728
1.11765
1.24311
1.38527
1.54327
1.71929
1.91048
2.12813
2.34849
2.59377
2.78352
3.09865
3.00493
2.78388
2.64709
2.21182
1.59372
1.27972
1.06142
0.968721
0.931824
0.880625
0.814785
0.740768
0.694687
0.684602
0.695742
0.718163
0.745599
0.772015
0.790479
0.799726
0.794455
0.77381
1.34382
1.35798
1.37209
1.38637
1.40067
1.41522
1.4299
1.44488
1.46015
1.47569
1.49174
1.50817
1.52523
1.54292
1.56141
1.581
1.60098
1.62487
1.65618
1.69576
1.74329
1.79842
1.86094
1.93104
2.00887
2.09512
2.18955
2.29436
2.40805
2.53208
2.66775
2.81256
2.96957
3.1382
3.32164
3.52064
3.73033
3.94663
4.1629
4.36922
4.55642
4.70027
4.81815
4.74481
4.59464
4.22234
3.41626
2.38693
1.79934
1.53999
1.42582
1.40819
1.4972
1.72635
1.83442
1.91192
1.91816
1.8008
1.59235
1.3574
1.20545
1.18522
1.16623
1.16277
1.16714
1.1752
1.18366
1.18526
1.15977
8.4805
8.47943
8.47747
8.4747
8.47103
8.46653
8.46112
8.45487
8.44771
8.43967
8.43071
8.42088
8.41005
8.39842
8.38568
8.37222
8.35756
8.34222
8.32504
8.30638
8.28535
8.26437
8.23415
8.20203
8.16738
8.13008
8.09443
8.05861
8.00799
7.95264
7.91037
7.83365
7.7811
7.71481
7.63873
7.55126
7.44986
7.33319
7.19528
7.05388
6.92033
6.81553
6.75656
6.7199
6.68813
6.65201
6.6129
6.57249
6.53074
6.49101
6.45284
6.41457
6.37618
6.34136
6.31022
6.28299
6.26052
6.24397
6.23341
6.22847
6.22943
6.23996
6.2523
6.26491
6.27529
6.28306
6.29003
6.29438
6.2711
0.0278963
0.0278926
0.0278965
0.0279008
0.0279147
0.0279501
0.0280097
0.0280432
0.0280554
0.0280398
0.0280275
0.0280273
0.028067
0.0281396
0.02818
0.0281743
0.0281915
0.0282198
0.0282663
0.0283096
0.0283077
0.0283062
0.0283329
0.0283564
0.0283867
0.0284013
0.0284409
0.0284624
0.0284696
0.0285102
0.0284996
0.0285453
0.028578
0.0286104
0.028651
0.0286458
0.028676
0.0287197
0.0287394
0.0288268
0.0288199
0.0288281
0.0288144
0.0288195
0.0288504
0.0288901
0.0288889
0.0288698
0.0288812
0.0289246
0.0289662
0.0290388
0.0290667
0.0290949
0.0290887
0.0290785
0.0290796
0.029088
0.0290966
0.0281551
0.0281632
0.0281734
0.0281902
0.0282211
0.0282457
0.0282577
0.0282468
0.0282299
0.028226
0.0282397
0.0282765
0.0283347
0.0283674
0.0283764
0.0283741
0.0284004
0.0284503
0.0284908
0.0285107
0.0285032
0.0285067
0.0285447
0.0285737
0.0285975
0.0286143
0.0286551
0.0286788
0.0286852
0.0287187
0.0287351
0.0287731
0.0287976
0.0288247
0.0288867
0.0289018
0.0289251
0.0289718
0.0289823
0.0290465
0.0290823
0.0291087
0.0291207
0.029122
0.0291327
0.0291793
0.0291927
0.029186
0.0291754
0.0291889
0.0292095
0.0292513
0.0292885
0.0293169
0.0293348
0.0293457
0.0293444
0.029351
0.0293483
0.0284865
0.0284921
0.0285095
0.0285212
0.0285282
0.0285204
0.0284998
0.0284905
0.0284902
0.0285143
0.0285473
0.0285913
0.0286183
0.0286298
0.0286285
0.0286349
0.0286895
0.0287289
0.0287496
0.0287575
0.0287535
0.0287703
0.0288118
0.0288403
0.0288617
0.0288827
0.028923
0.0289508
0.0289576
0.0289982
0.0290103
0.0290454
0.0290911
0.0291121
0.0291733
0.029194
0.0292158
0.0292703
0.0293018
0.0293602
0.0294124
0.0294514
0.0294512
0.0294526
0.0294484
0.0294727
0.0295109
0.0295388
0.0295519
0.0295668
0.0295849
0.0296093
0.0296462
0.0296787
0.029709
0.0297355
0.0297439
0.0297576
0.029762
0.0288441
0.0288499
0.0288562
0.0288458
0.0288279
0.0288121
0.0288051
0.0288068
0.0288338
0.0288649
0.0288959
0.0289171
0.0289269
0.0289293
0.0289297
0.0289695
0.029015
0.0290376
0.0290477
0.029051
0.0290589
0.0290867
0.0291267
0.0291523
0.0291729
0.0291981
0.029239
0.029271
0.0292809
0.0293158
0.0293571
0.0293843
0.0294203
0.0294455
0.0295145
0.0295605
0.0295855
0.0296303
0.0296499
0.029706
0.0297691
0.029835
0.0298853
0.0299123
0.0299173
0.0299234
0.0299375
0.0299571
0.02997
0.0299811
0.0299913
0.0300017
0.030021
0.0300458
0.0300699
0.0301007
0.030121
0.0301451
0.0301646
0.0292946
0.0292752
0.0292596
0.0292323
0.0292185
0.0292106
0.0292151
0.02924
0.0292664
0.0292909
0.0293068
0.0293137
0.029315
0.0293121
0.0293358
0.029375
0.029399
0.0294103
0.0294133
0.0294178
0.0294371
0.0294761
0.0295105
0.0295349
0.0295573
0.0295868
0.0296276
0.0296618
0.0296751
0.029721
0.0297488
0.0297808
0.02984
0.0298641
0.0299243
0.0299678
0.0300039
0.0300668
0.0301073
0.0301526
0.0302079
0.0302689
0.0303085
0.030351
0.0303821
0.0304082
0.0304378
0.0304702
0.0305061
0.0305359
0.0305606
0.0305818
0.0305997
0.0306221
0.030639
0.0306665
0.0306843
0.0307122
0.030735
0.029758
0.0297327
0.0297124
0.0296961
0.0296893
0.0296952
0.0297154
0.0297384
0.0297586
0.0297683
0.0297684
0.0297662
0.0297602
0.0297783
0.0298093
0.0298326
0.0298449
0.0298482
0.0298486
0.029863
0.0298974
0.0299335
0.029961
0.0299819
0.0300054
0.030039
0.0300814
0.0301199
0.0301392
0.0301796
0.0302405
0.0302627
0.0303142
0.0303467
0.0304147
0.0304834
0.0305226
0.0305744
0.0306101
0.030669
0.0307276
0.030814
0.0308959
0.0309509
0.0309891
0.0310075
0.0310227
0.0310413
0.0310621
0.031094
0.0311224
0.0311545
0.0311867
0.031223
0.0312529
0.031285
0.0313099
0.031337
0.0313616
0.0303347
0.030318
0.0303138
0.030316
0.0303291
0.0303338
0.0303531
0.0303558
0.0303378
0.0303334
0.0303398
0.030337
0.0303359
0.0303578
0.0303743
0.0303833
0.030385
0.0303834
0.0303879
0.0304159
0.0304521
0.0304836
0.0305084
0.0305317
0.0305594
0.0305959
0.0306372
0.0306767
0.0307009
0.0307529
0.0307955
0.0308299
0.0309005
0.0309421
0.0309955
0.0310498
0.0311052
0.031192
0.0312504
0.0312974
0.0313477
0.0313977
0.0314644
0.0315516
0.0316317
0.0317022
0.0317525
0.0317922
0.0318257
0.0318548
0.0318823
0.0319068
0.0319272
0.0319501
0.03197
0.0319996
0.0320205
0.0320558
0.0320899
0.0310195
0.0310046
0.031001
0.0309951
0.0309992
0.0310073
0.031023
0.0309979
0.0310138
0.0310108
0.0310108
0.0310146
0.0310187
0.0310265
0.0310292
0.0310317
0.0310281
0.0310273
0.0310438
0.0310766
0.0311085
0.0311354
0.0311564
0.0311753
0.031204
0.0312438
0.0312893
0.0313351
0.031367
0.031415
0.0314942
0.0315179
0.031583
0.0316305
0.0317062
0.0317925
0.031832
0.0318899
0.0319657
0.0320492
0.0321189
0.0322047
0.0322686
0.0323253
0.0323972
0.032461
0.032527
0.0325804
0.0326294
0.0326799
0.0327282
0.0327764
0.0328231
0.0328714
0.0329124
0.032956
0.0329922
0.0330379
0.0330794
0.0319093
0.0318903
0.0318813
0.0318627
0.031856
0.0318443
0.031838
0.031829
0.0318363
0.0318523
0.0318466
0.0318192
0.0318197
0.0318197
0.0318297
0.0318089
0.0318063
0.0318169
0.0318384
0.0318679
0.0318972
0.0319215
0.0319422
0.0319661
0.0320008
0.0320414
0.0320847
0.0321296
0.0321661
0.0322253
0.032284
0.0323259
0.0324061
0.0324741
0.0325249
0.0325944
0.0326805
0.0327689
0.0328364
0.032911
0.0329889
0.0330588
0.0331546
0.033229
0.0333131
0.0334053
0.0334912
0.0335742
0.033638
0.0336887
0.0337352
0.033774
0.0338058
0.0338418
0.0338758
0.0339161
0.0339442
0.0339823
0.0340232
0.0329097
0.0328843
0.0328692
0.0328402
0.0328254
0.0328036
0.0327906
0.0327773
0.0327722
0.0327718
0.0327775
0.0327942
0.0327917
0.0327613
0.0327489
0.032742
0.0327551
0.0327667
0.0327888
0.0328155
0.0328401
0.0328593
0.0328759
0.0328969
0.0329282
0.0329715
0.0330232
0.0330782
0.0331251
0.0331833
0.0332799
0.0333136
0.033386
0.0334567
0.0335536
0.0336514
0.0336955
0.033774
0.0338755
0.0339658
0.0340666
0.0341705
0.0342631
0.0343511
0.0344242
0.0344937
0.0345712
0.0346555
0.0347513
0.0348373
0.0349216
0.0350037
0.0350681
0.0351343
0.0351862
0.0352551
0.0353
0.0353629
0.0354144
0.0341703
0.03414
0.0341212
0.0340851
0.0340657
0.0340365
0.0340173
0.0339949
0.0339778
0.0339614
0.0339477
0.0339348
0.0339167
0.0338927
0.0338827
0.0338975
0.033898
0.0339104
0.0339309
0.0339543
0.0339754
0.0339931
0.0340115
0.0340377
0.0340763
0.034122
0.0341673
0.0342177
0.0342671
0.034336
0.0344122
0.0344686
0.0345612
0.0346537
0.0347142
0.0348175
0.0349402
0.0350184
0.0351116
0.0352107
0.0352992
0.0354016
0.0355258
0.0356442
0.0357696
0.035887
0.0359845
0.0360667
0.0361448
0.0362166
0.036282
0.0363593
0.0364241
0.0364941
0.0365621
0.0366374
0.0367098
0.0367825
0.036859
0.0355924
0.0355569
0.035536
0.0354931
0.0354702
0.0354339
0.0354091
0.0353785
0.0353539
0.0353292
0.0353086
0.0352914
0.0352783
0.0352732
0.0352836
0.0352673
0.0352894
0.0352969
0.0353135
0.0353307
0.0353445
0.035355
0.0353678
0.0353897
0.0354242
0.0354686
0.0355265
0.0355936
0.0356582
0.0357302
0.035845
0.0358966
0.0359696
0.0360718
0.0361955
0.0362953
0.0363852
0.0364933
0.0365973
0.0367191
0.0368411
0.0369517
0.0370631
0.0371902
0.0373006
0.0374133
0.0375556
0.0376761
0.0378137
0.0379284
0.0380307
0.0381272
0.0382156
0.0383
0.0383677
0.0384499
0.0384987
0.0385874
0.0386179
0.0373682
0.0373294
0.0373086
0.03726
0.0372349
0.0371913
0.0371606
0.0371199
0.037085
0.0370461
0.0370095
0.0369735
0.0369432
0.0369343
0.0369654
0.0369587
0.0369372
0.0369635
0.0369755
0.0369864
0.0369949
0.0370064
0.0370232
0.0370523
0.0370949
0.0371444
0.0371935
0.0372475
0.0373106
0.0373928
0.0374865
0.0375711
0.0376843
0.0377883
0.037885
0.0380239
0.0381711
0.0383059
0.0384167
0.0385351
0.0386651
0.0388
0.0389297
0.0390678
0.0392476
0.0393683
0.0395052
0.039634
0.0397538
0.0398931
0.0400091
0.0401249
0.0402287
0.040339
0.0404313
0.0405458
0.0406364
0.0407657
0.040871
0.0393872
0.0393429
0.0393212
0.0392658
0.0392394
0.0391903
0.0391585
0.0391153
0.039082
0.0390463
0.0390189
0.0389992
0.0389967
0.0390163
0.03897
0.0389807
0.0390126
0.0390075
0.039007
0.0390087
0.0390142
0.0390113
0.0390208
0.0390421
0.0390775
0.0391247
0.0391854
0.0392647
0.039351
0.0394411
0.0395752
0.0396453
0.0397268
0.0398612
0.0400099
0.0401355
0.0402538
0.0404019
0.0405711
0.0407098
0.0408652
0.0410143
0.0411765
0.0412953
0.041455
0.041629
0.0417916
0.0419683
0.042141
0.0423059
0.0424772
0.0426262
0.0427536
0.0428768
0.0429693
0.0430668
0.0431427
0.0432291
0.0433286
0.0419669
0.0419176
0.0418951
0.0418322
0.0418029
0.0417452
0.0417072
0.041653
0.0416085
0.0415566
0.0415104
0.04147
0.0414635
0.0415179
0.0415254
0.0414517
0.041431
0.0414638
0.0414689
0.041465
0.0414323
0.0414553
0.0414676
0.0414995
0.0415467
0.0416007
0.0416519
0.0417074
0.0417855
0.0418839
0.041998
0.0421311
0.0422733
0.0423851
0.0425211
0.0427252
0.042915
0.0430864
0.043251
0.043433
0.0435985
0.0437701
0.0439671
0.0441629
0.0443256
0.0444932
0.0446501
0.044794
0.0449495
0.0451074
0.0452801
0.0454773
0.0456568
0.0458425
0.0460104
0.0461701
0.046317
0.0464632
0.0466141
0.0450059
0.0449477
0.0449226
0.0448504
0.0448195
0.0447559
0.0447185
0.0446636
0.0446254
0.0445857
0.0445682
0.044583
0.0446386
0.0446067
0.0444643
0.0444914
0.0445607
0.0445536
0.044482
0.0444479
0.0444783
0.0444463
0.0444653
0.044484
0.0445173
0.0445635
0.0446242
0.0447128
0.0448267
0.044941
0.0450884
0.0451727
0.0452909
0.0454669
0.0456256
0.0457569
0.0459459
0.0461554
0.0463902
0.0465921
0.0468163
0.0469991
0.0471817
0.0474138
0.047653
0.0479026
0.048146
0.0483875
0.0485793
0.048772
0.0489125
0.0490751
0.0492336
0.0494006
0.0495694
0.0497492
0.049901
0.050067
0.0502187
0.0489208
0.0488544
0.048827
0.0487415
0.0487037
0.0486239
0.0485748
0.0485025
0.0484499
0.0483865
0.0483298
0.0482716
0.0482687
0.0483475
0.0483537
0.0483404
0.0481954
0.0481659
0.0481373
0.0481802
0.0481026
0.0481429
0.0481556
0.0481906
0.0482436
0.0483035
0.0483543
0.0484057
0.0484977
0.0486149
0.0487608
0.0489588
0.0491309
0.0492739
0.0494996
0.0497566
0.0499608
0.0501783
0.0504179
0.0507064
0.0509553
0.0512485
0.0514558
0.05166
0.0518712
0.0520876
0.0523171
0.0525854
0.0528534
0.0531217
0.0533717
0.0535911
0.0537981
0.0539985
0.0541762
0.0543615
0.0545388
0.054735
0.0549306
0.0535455
0.0534697
0.0534447
0.0533533
0.0533234
0.0532453
0.0532044
0.0531299
0.0530665
0.0529946
0.0529812
0.0530985
0.0532383
0.0531922
0.0529808
0.0528416
0.0528109
0.0528126
0.0528655
0.0527332
0.0527928
0.0527428
0.0527679
0.0527806
0.0528061
0.0528428
0.0528933
0.0529847
0.0531369
0.0532823
0.0534244
0.0535263
0.0537227
0.0539205
0.0540836