/*--------------------------------*- C++ -*----------------------------------*\
| =========                 |                                                 |
| \\      /  F ield         | OpenFOAM: The Open Source CFD Toolbox           |
|  \\    /   O peration     | Version:  2312                                  |
|   \\  /    A nd           | Website:  www.openfoam.com                      |
|    \\/     M anipulation  |                                                 |
\*---------------------------------------------------------------------------*/
FoamFile
{
    version     2.0;
    format      ascii;
    arch        "LSB;label=32;scalar=64";
    class       volScalarField;
    location    "800";
    object      p;
}
// * * * * * * * * * * * * * * * * * * * * * * * * * * * * * * * * * * * * * //

dimensions      [0 2 -2 0 0 0 0];

internalField   nonuniform List<scalar> 
76025
(
0.000307356
0.000300878
0.000294141
0.000287467
0.000280738
0.000273982
0.000266824
0.000260007
0.000252982
0.000246091
0.000239018
0.000231829
0.000224532
0.000217213
0.000209864
0.000202449
0.000195188
0.000187774
0.000180361
0.000173141
0.000165909
0.000158454
0.000151039
0.000143706
0.000136321
0.000129016
0.000121613
0.000114076
0.000106927
9.95074e-05
9.27677e-05
8.55034e-05
7.7931e-05
7.0361e-05
6.30175e-05
5.59481e-05
4.91009e-05
4.19553e-05
3.47663e-05
2.76537e-05
2.09442e-05
1.43772e-05
7.36303e-06
1.09762e-07
-6.63365e-06
-1.32362e-05
-1.994e-05
-2.7282e-05
-3.40315e-05
-4.0795e-05
-4.76034e-05
-5.41949e-05
-6.11926e-05
-6.87346e-05
-7.63343e-05
-8.36747e-05
-9.17334e-05
-0.00010006
-0.000108694
-0.000117391
-0.000126121
-0.000136775
-0.000148968
-0.000161706
-0.000175973
-0.000193168
-0.000212308
-0.000236018
-0.000267999
0.000307442
0.000300547
0.000293534
0.000286526
0.000279469
0.000272308
0.000265123
0.000257918
0.00025061
0.000243239
0.000235763
0.000228253
0.000220724
0.000213168
0.000205611
0.00019807
0.000190456
0.000182901
0.000175288
0.000167789
0.000160193
0.000152637
0.000145097
0.000137572
0.000130016
0.000122462
0.000114936
0.000107541
0.000100205
9.28701e-05
8.55817e-05
7.80563e-05
7.05981e-05
6.32825e-05
5.59608e-05
4.87351e-05
4.15112e-05
3.43881e-05
2.73495e-05
2.03235e-05
1.34601e-05
6.59987e-06
-2.18294e-07
-7.00251e-06
-1.3743e-05
-2.04834e-05
-2.72686e-05
-3.41302e-05
-4.09218e-05
-4.77095e-05
-5.45072e-05
-6.12738e-05
-6.81948e-05
-7.53275e-05
-8.25547e-05
-8.99624e-05
-9.77158e-05
-0.000105668
-0.000113787
-0.000122145
-0.000131072
-0.000141237
-0.000152404
-0.000164636
-0.000178509
-0.000194907
-0.000213908
-0.000236798
-0.000265216
0.000308183
0.00030095
0.000293581
0.000286206
0.000278801
0.000271373
0.000263886
0.000256317
0.000248676
0.000240963
0.000233206
0.000225433
0.000217648
0.000209853
0.000202058
0.00019423
0.000186396
0.000178567
0.000170753
0.000162944
0.000155153
0.000147399
0.000139661
0.000131937
0.000124233
0.000116561
0.000108961
0.000101416
9.38928e-05
8.63956e-05
7.8896e-05
7.14009e-05
6.39695e-05
5.65714e-05
4.91871e-05
4.18689e-05
3.46447e-05
2.75389e-05
2.0502e-05
1.35195e-05
6.62416e-06
-2.03708e-07
-6.9811e-06
-1.37609e-05
-2.0533e-05
-2.72722e-05
-3.39891e-05
-4.0723e-05
-4.7453e-05
-5.41474e-05
-6.08319e-05
-6.75291e-05
-7.43016e-05
-8.12112e-05
-8.82552e-05
-9.54296e-05
-0.000102773
-0.000110317
-0.000118075
-0.00012615
-0.00013473
-0.00014412
-0.000154474
-0.000166009
-0.000179128
-0.000194459
-0.000212547
-0.00023446
-0.000261047
0.000308854
0.00030126
0.00029352
0.000285784
0.000278044
0.000270267
0.000262421
0.0002545
0.000246521
0.000238501
0.000230453
0.000222384
0.000214299
0.000206198
0.000198088
0.000189971
0.000181862
0.000173766
0.000165693
0.000157643
0.000149625
0.000141639
0.000133685
0.000125769
0.000117896
0.000110071
0.000102295
9.45645e-05
8.68774e-05
7.92332e-05
7.16297e-05
6.40641e-05
5.6528e-05
4.90228e-05
4.15774e-05
3.42291e-05
2.69977e-05
1.98779e-05
1.28484e-05
5.89601e-06
-9.80983e-07
-7.79164e-06
-1.4554e-05
-2.1283e-05
-2.79738e-05
-3.4625e-05
-4.12509e-05
-4.78694e-05
-5.44744e-05
-6.10546e-05
-6.76266e-05
-7.42096e-05
-8.08302e-05
-8.75229e-05
-9.42992e-05
-0.000101163
-0.000108142
-0.000115275
-0.00012259
-0.000130167
-0.000138153
-0.000146761
-0.000156191
-0.000166691
-0.00017865
-0.000192644
-0.000209328
-0.000229616
-0.000254255
0.000309044
0.000301059
0.000292929
0.000284812
0.000276699
0.000268553
0.000260343
0.000252067
0.000243738
0.000235376
0.000226992
0.000218592
0.000210181
0.000201763
0.000193348
0.000184943
0.000176557
0.000168196
0.000159867
0.000151577
0.000143328
0.000135125
0.000126972
0.000118872
0.000110828
0.000102841
9.49133e-05
8.7047e-05
7.92428e-05
7.14972e-05
6.38055e-05
5.61604e-05
4.85581e-05
4.10139e-05
3.35603e-05
2.6223e-05
1.90108e-05
1.19159e-05
4.92142e-06
-1.98921e-06
-8.82556e-06
-1.55944e-05
-2.23037e-05
-2.89608e-05
-3.55713e-05
-4.21413e-05
-4.86787e-05
-5.51898e-05
-6.16751e-05
-6.81322e-05
-7.45675e-05
-8.09928e-05
-8.74234e-05
-9.38785e-05
-0.000100371
-0.000106906
-0.000113499
-0.000120174
-0.000126961
-0.000133924
-0.00014117
-0.000148853
-0.000157163
-0.00016636
-0.000176823
-0.000189093
-0.000203871
-0.000222007
-0.000244615
0.000308822
0.00030042
0.000291877
0.000283357
0.000274851
0.00026632
0.000257734
0.000249087
0.000240393
0.000231673
0.000222939
0.000214198
0.000205458
0.000196724
0.000188004
0.000179308
0.000170643
0.000162016
0.000153435
0.000144905
0.000136431
0.000128018
0.00011967
0.00011139
0.000103181
9.50447e-05
8.69836e-05
7.89985e-05
7.1088e-05
6.32483e-05
5.54753e-05
4.77646e-05
4.01155e-05
3.25467e-05
2.50888e-05
1.77623e-05
1.0571e-05
3.50462e-06
-3.4537e-06
-1.03202e-05
-1.71056e-05
-2.38162e-05
-3.04577e-05
-3.70362e-05
-4.3558e-05
-5.00296e-05
-5.6457e-05
-6.28446e-05
-6.91941e-05
-7.55053e-05
-8.17804e-05
-8.80255e-05
-9.42476e-05
-0.000100454
-0.000106649
-0.000112832
-0.000119006
-0.00012518
-0.000131371
-0.000137616
-0.000143985
-0.000150585
-0.000157576
-0.000165195
-0.000173797
-0.000183898
-0.00019623
-0.00021159
-0.000231402
0.000308191
0.000299347
0.000290367
0.000281423
0.000272502
0.000263567
0.000254584
0.000245547
0.000236471
0.000227377
0.00021828
0.000209189
0.000200109
0.000191047
0.000182013
0.000173016
0.000164064
0.000155164
0.000146325
0.000137552
0.000128851
0.000120228
0.000111687
0.00010323
9.48615e-05
8.65829e-05
7.83954e-05
7.02986e-05
6.22907e-05
5.43688e-05
4.65293e-05
3.87685e-05
3.10869e-05
2.35076e-05
1.60603e-05
8.76184e-06
1.6117e-06
-5.40337e-06
-1.23015e-05
-1.90993e-05
-2.58084e-05
-3.24362e-05
-3.8988e-05
-4.54689e-05
-5.18847e-05
-5.82418e-05
-6.45463e-05
-7.08016e-05
-7.70082e-05
-8.31648e-05
-8.92705e-05
-9.53248e-05
-0.000101327
-0.000107274
-0.00011316
-0.000118975
-0.000124706
-0.000130343
-0.000135881
-0.000141324
-0.000146699
-0.000152067
-0.000157536
-0.000163295
-0.000169661
-0.000177104
-0.000186383
-0.000198222
-0.000214476
0.000307059
0.000297747
0.000288305
0.00027891
0.00026955
0.000260186
0.000250783
0.000241334
0.000231854
0.000222368
0.000212891
0.000203432
0.000193998
0.000184597
0.000175237
0.000165929
0.000156683
0.000147506
0.000138407
0.000129391
0.000120467
0.000111638
0.00010291
9.42858e-05
8.57685e-05
7.73596e-05
6.90594e-05
6.0867e-05
5.27807e-05
4.47972e-05
3.69126e-05
2.91226e-05
2.14315e-05
1.38668e-05
6.45597e-06
-7.88708e-07
-7.87272e-06
-1.48129e-05
-2.16294e-05
-2.83396e-05
-3.49555e-05
-4.14848e-05
-4.79325e-05
-5.43027e-05
-6.06007e-05
-6.68331e-05
-7.30052e-05
-7.91196e-05
-8.51756e-05
-9.117e-05
-9.70983e-05
-0.000102955
-0.000108731
-0.000114415
-0.000119989
-0.00012543
-0.000130706
-0.000135785
-0.000140631
-0.000145212
-0.000149503
-0.000153505
-0.00015726
-0.000160885
-0.000164632
-0.00016889
-0.000174416
-0.000181791
-0.000193615
0.00030533
0.000295523
0.00028559
0.000275718
0.000265893
0.000256073
0.000246226
0.000236341
0.000226437
0.00021654
0.000206665
0.000196823
0.000187021
0.000177268
0.000167574
0.000157949
0.000148405
0.000138949
0.00012959
0.000120336
0.000111193
0.000102166
9.32616e-05
8.44817e-05
7.58292e-05
6.73052e-05
5.89096e-05
5.06409e-05
4.24968e-05
3.44732e-05
2.65655e-05
1.87691e-05
1.10946e-05
3.57198e-06
-3.77505e-06
-1.09402e-05
-1.79342e-05
-2.47773e-05
-3.14912e-05
-3.80939e-05
-4.45974e-05
-5.10092e-05
-5.73343e-05
-6.35767e-05
-6.97418e-05
-7.58359e-05
-8.18641e-05
-8.78285e-05
-9.37272e-05
-9.95553e-05
-0.000105305
-0.000110964
-0.000116519
-0.000121947
-0.000127219
-0.000132294
-0.000137123
-0.000141645
-0.000145789
-0.000149476
-0.000152624
-0.000155159
-0.000157034
-0.00015827
-0.000159022
-0.000159562
-0.000160602
-0.000162349
-0.000167727
0.000302912
0.000292579
0.000282128
0.000271749
0.00026143
0.000251129
0.000240811
0.000230467
0.000220117
0.000209786
0.000199495
0.000189253
0.00017907
0.000168953
0.000158916
0.000148968
0.000139121
0.000129386
0.000119769
0.00011028
0.000100925
9.17095e-05
8.26387e-05
7.37159e-05
6.49433e-05
5.63216e-05
4.78501e-05
3.95267e-05
3.13478e-05
2.33087e-05
1.54036e-05
7.62887e-06
2.69462e-09
-7.44545e-06
-1.46972e-05
-2.17529e-05
-2.86287e-05
-3.53478e-05
-4.19336e-05
-4.84041e-05
-5.47715e-05
-6.10436e-05
-6.72257e-05
-7.33223e-05
-7.93388e-05
-8.52818e-05
-9.11564e-05
-9.69644e-05
-0.000102703
-0.000108365
-0.00011394
-0.000119413
-0.000124761
-0.000129952
-0.000134946
-0.000139686
-0.000144099
-0.000148095
-0.000151562
-0.000154368
-0.00015636
-0.000157372
-0.000157246
-0.000155872
-0.000153282
-0.000149602
-0.000145512
-0.000140747
-0.000139509
0.000299693
0.000288802
0.000277799
0.000266883
0.000256041
0.000245231
0.000234416
0.000223588
0.000212767
0.000201982
0.000191254
0.000180595
0.000170014
0.000159522
0.000149131
0.000138853
0.0001287
0.000118683
0.00010881
9.90909e-05
8.95318e-05
8.01388e-05
7.09164e-05
6.1868e-05
5.2995e-05
4.42978e-05
3.57748e-05
2.74231e-05
1.9238e-05
1.12134e-05
3.34261e-06
-4.37459e-06
-1.19141e-05
-1.92493e-05
-2.63689e-05
-3.32807e-05
-4.00058e-05
-4.65705e-05
-5.29992e-05
-5.93103e-05
-6.55162e-05
-7.16251e-05
-7.76428e-05
-8.35745e-05
-8.94263e-05
-9.52054e-05
-0.000100917
-0.000106564
-0.000112141
-0.000117643
-0.000123055
-0.000128359
-0.000133525
-0.000138516
-0.000143278
-0.000147737
-0.000151798
-0.000155337
-0.0001582
-0.000160195
-0.000161085
-0.000160595
-0.000158429
-0.000154317
-0.000148131
-0.000139801
-0.000129988
-0.000118001
-0.000110052
0.000295538
0.000284051
0.00027246
0.000260974
0.000249578
0.000238229
0.000226889
0.000215551
0.000204235
0.000192972
0.000181787
0.000170693
0.0001597
0.00014882
0.000138065
0.00012745
0.000116987
0.000106688
9.65634e-05
8.66209e-05
7.68683e-05
6.73116e-05
5.79554e-05
4.88025e-05
3.98542e-05
3.11096e-05
2.25661e-05
1.42193e-05
6.06316e-06
-1.90977e-06
-9.70753e-06
-1.73235e-05
-2.47313e-05
-3.19097e-05
-3.88558e-05
-4.55849e-05
-5.2123e-05
-5.84988e-05
-6.47376e-05
-7.08584e-05
-7.68738e-05
-8.27926e-05
-8.86216e-05
-9.4367e-05
-0.000100036
-0.000105638
-0.000111178
-0.000116659
-0.000122078
-0.000127429
-0.000132696
-0.000137858
-0.000142883
-0.000147726
-0.000152323
-0.000156585
-0.000160396
-0.000163601
-0.000165997
-0.000167328
-0.000167268
-0.00016542
-0.000161328
-0.000154522
-0.000144653
-0.000131384
-0.000115287
-9.53801e-05
-8.03767e-05
0.000290293
0.000278169
0.000265952
0.000253859
0.000241874
0.000229953
0.000218058
0.00020618
0.000194343
0.00018258
0.000170917
0.000159369
0.000147949
0.000136669
0.000125542
0.000114585
0.000103812
9.3234e-05
8.2863e-05
7.27078e-05
6.2776e-05
5.30737e-05
4.36056e-05
3.43741e-05
2.53796e-05
1.66201e-05
8.0919e-06
-2.11017e-07
-8.2966e-06
-1.61742e-05
-2.38515e-05
-3.13143e-05
-3.85378e-05
-4.55087e-05
-5.22335e-05
-5.87346e-05
-6.50426e-05
-7.11889e-05
-7.71994e-05
-8.30935e-05
-8.88844e-05
-9.45821e-05
-0.000100195
-0.00010573
-0.000111197
-0.000116606
-0.000121965
-0.000127278
-0.000132544
-0.000137757
-0.000142903
-0.00014796
-0.000152896
-0.000157661
-0.000162185
-0.00016637
-0.00017008
-0.000173131
-0.000175277
-0.000176198
-0.000175476
-0.000172585
-0.00016689
-0.000157675
-0.000144289
-0.000126046
-0.000103332
-7.48433e-05
-4.91659e-05
0.000283781
0.000270977
0.000258091
0.00024535
0.000232738
0.00022021
0.000207727
0.000195279
0.000182892
0.000170603
0.00015844
0.00014642
0.000134557
0.000122865
0.00011136
0.000100057
8.89741e-05
7.81232e-05
6.75163e-05
5.71632e-05
4.70718e-05
3.72483e-05
2.76969e-05
1.84195e-05
9.41535e-06
6.81671e-07
-7.787e-06
-1.59986e-05
-2.39633e-05
-3.1693e-05
-3.91914e-05
-4.64392e-05
-5.34172e-05
-6.01222e-05
-6.65702e-05
-7.27911e-05
-7.88198e-05
-8.46898e-05
-9.04278e-05
-9.60538e-05
-0.000101582
-0.000107024
-0.000112389
-0.000117688
-0.000122931
-0.000128132
-0.0001333
-0.000138443
-0.000143561
-0.000148652
-0.000153705
-0.000158701
-0.00016361
-0.000168384
-0.000172953
-0.000177214
-0.000181021
-0.00018417
-0.000186382
-0.000187279
-0.000186362
-0.000182971
-0.000176276
-0.000165267
-0.0001489
-0.00012605
-9.69137e-05
-6.04697e-05
-2.83354e-05
0.000275793
0.000262258
0.000248657
0.000235225
0.000221945
0.00020877
0.000195661
0.00018261
0.000169642
0.000156799
0.000144111
0.0001316
0.000119278
0.000107163
9.52714e-05
8.36217e-05
7.22313e-05
6.11152e-05
5.0286e-05
3.97541e-05
2.95279e-05
1.96134e-05
1.00146e-05
7.32452e-07
-8.23478e-06
-1.68917e-05
-2.52459e-05
-3.33079e-05
-4.10904e-05
-4.86072e-05
-5.58549e-05
-6.28144e-05
-6.9475e-05
-7.58453e-05
-8.19515e-05
-8.78306e-05
-9.35217e-05
-9.906e-05
-0.000104473
-0.000109783
-0.000115004
-0.00012015
-0.000125232
-0.000130263
-0.000135258
-0.000140231
-0.000145197
-0.000150164
-0.000155138
-0.000160122
-0.000165111
-0.000170093
-0.000175045
-0.000179928
-0.000184678
-0.0001892
-0.00019335
-0.000196923
-0.000199625
-0.000201048
-0.000200624
-0.000197572
-0.000190855
-0.000179142
-0.000160941
-0.000134552
-9.95721e-05
-5.48717e-05
-1.0796e-05
0.000266081
0.000251763
0.000237395
0.000223223
0.000209228
0.000195364
0.000181589
0.000167896
0.000154315
0.000140888
0.00012765
0.000114625
0.00010183
8.92808e-05
7.69978e-05
6.50012e-05
5.33104e-05
4.1942e-05
3.09097e-05
2.02249e-05
9.89623e-06
-7.0088e-08
-9.67077e-06
-1.89057e-05
-2.77781e-05
-3.62947e-05
-4.44658e-05
-5.23048e-05
-5.98282e-05
-6.70486e-05
-7.39566e-05
-8.0539e-05
-8.67971e-05
-9.27522e-05
-9.84408e-05
-0.000103907
-0.000109193
-0.000114337
-0.000119367
-0.000124305
-0.00012917
-0.000133975
-0.000138735
-0.000143465
-0.000148184
-0.000152907
-0.000157654
-0.000162437
-0.000167269
-0.000172158
-0.000177108
-0.00018212
-0.000187184
-0.000192276
-0.000197353
-0.000202339
-0.000207118
-0.000211507
-0.000215236
-0.0002179
-0.000218903
-0.000217359
-0.000212053
-0.000201354
-0.000183255
-0.000155309
-0.000116507
-6.6461e-05
-1.63949e-05
0.00025435
0.000239189
0.000223995
0.000209028
0.000194267
0.000179664
0.000165179
0.000150803
0.000136568
0.000122524
0.000108708
9.51459e-05
8.18578e-05
6.88628e-05
5.61827e-05
4.38403e-05
3.18572e-05
2.02518e-05
9.0396e-06
-1.76722e-06
-1.21594e-05
-2.21308e-05
-3.16787e-05
-4.08042e-05
-4.95124e-05
-5.78126e-05
-6.57183e-05
-7.32468e-05
-8.04183e-05
-8.72398e-05
-9.37014e-05
-9.98005e-05
-0.000105553
-0.000110994
-0.000116171
-0.000121134
-0.000125931
-0.0001306
-0.000135173
-0.000139673
-0.00014412
-0.00014853
-0.00015292
-0.000157309
-0.000161715
-0.000166161
-0.000170667
-0.000175251
-0.000179932
-0.000184727
-0.000189654
-0.000194727
-0.000199957
-0.000205346
-0.000210884
-0.000216541
-0.000222253
-0.000227903
-0.000233282
-0.000238041
-0.00024159
-0.000243011
-0.000241011
-0.000233585
-0.000217929
-0.000190918
-0.000151204
-9.93308e-05
-4.68067e-05
0.000240265
0.000224196
0.000208116
0.000192295
0.000176712
0.000161319
0.000146075
0.000130972
0.000116047
0.00010135
8.69268e-05
7.2806e-05
5.901e-05
4.55607e-05
3.24827e-05
1.98017e-05
7.54185e-06
-4.27577e-06
-1.5634e-05
-2.65192e-05
-3.69215e-05
-4.68346e-05
-5.62566e-05
-6.51897e-05
-7.36416e-05
-8.16245e-05
-8.91562e-05
-9.62588e-05
-0.000102954
-0.000109244
-0.000115127
-0.000120615
-0.000125743
-0.000130558
-0.000135119
-0.000139483
-0.000143701
-0.000147815
-0.000151857
-0.000155852
-0.000159823
-0.000163787
-0.000167763
-0.00017177
-0.000175831
-0.000179968
-0.000184205
-0.000188567
-0.000193078
-0.000197767
-0.000202665
-0.000207805
-0.000213226
-0.000218968
-0.000225076
-0.00023159
-0.000238535
-0.000245896
-0.000253566
-0.000261287
-0.000268579
-0.000274596
-0.0002778
-0.000275483
-0.000264077
-0.000240384
-0.000203158
-0.000154049
-0.000104322
0.000223379
0.000206325
0.000189281
0.000172533
0.000156059
0.00013981
0.000123746
0.000107859
9.21895e-05
7.67944e-05
6.1723e-05
4.70094e-05
3.26793e-05
1.8758e-05
5.27311e-06
-7.7461e-06
-2.02721e-05
-3.22809e-05
-4.37529e-05
-5.46729e-05
-6.50298e-05
-7.48174e-05
-8.40342e-05
-9.26843e-05
-0.000100778
-0.000108331
-0.000115367
-0.000121912
-0.000127983
-0.000133584
-0.000138727
-0.000143444
-0.000147786
-0.00015182
-0.000155614
-0.000159234
-0.000162738
-0.000166171
-0.000169569
-0.000172961
-0.000176368
-0.000179811
-0.000183306
-0.000186875
-0.000190539
-0.00019432
-0.000198244
-0.000202339
-0.000206638
-0.000211179
-0.000216008
-0.000221184
-0.00022678
-0.000232893
-0.000239635
-0.000247145
-0.000255557
-0.000264971
-0.000275425
-0.000286864
-0.000298876
-0.000310369
-0.00031925
-0.000322397
-0.00031633
-0.000298189
-0.000266959
-0.000224517
-0.000183147
0.000203309
0.000185197
0.000167122
0.000149383
0.000131957
0.000114798
9.78628e-05
8.1147e-05
6.46933e-05
4.85656e-05
3.28195e-05
1.74944e-05
2.62032e-06
-1.17736e-05
-2.56552e-05
-3.89913e-05
-5.175e-05
-6.39032e-05
-7.54283e-05
-8.63073e-05
-9.65279e-05
-0.000106083
-0.000114972
-0.0001232
-0.00013078
-0.000137734
-0.000144091
-0.000149882
-0.000155122
-0.000159829
-0.000164036
-0.000167798
-0.000171189
-0.000174291
-0.000177184
-0.000179944
-0.000182633
-0.0001853
-0.000187986
-0.000190719
-0.00019352
-0.000196406
-0.000199393
-0.000202495
-0.000205729
-0.000209117
-0.000212683
-0.00021646
-0.000220488
-0.00022482
-0.00022952
-0.000234675
-0.000240399
-0.000246843
-0.000254197
-0.000262692
-0.000272593
-0.000284181
-0.000297636
-0.000312834
-0.00032896
-0.000344655
-0.000357872
-0.000365841
-0.000365569
-0.000353982
-0.000330591
-0.000298555
-0.000270866
0.000179139
0.000159851
0.000140621
0.000121773
0.000103284
8.51067e-05
6.71999e-05
4.95599e-05
3.22343e-05
1.52941e-05
-1.19768e-06
-1.71955e-05
-3.26641e-05
-4.75695e-05
-6.18749e-05
-7.55416e-05
-8.85326e-05
-0.000100815
-0.000112362
-0.000123152
-0.00013317
-0.000142409
-0.000150867
-0.000158552
-0.00016548
-0.000171678
-0.000177178
-0.000182008
-0.000186187
-0.000189749
-0.000192755
-0.000195286
-0.000197442
-0.000199325
-0.000201037
-0.000202665
-0.000204287
-0.000205962
-0.000207734
-0.000209634
-0.000211682
-0.000213886
-0.000216254
-0.00021879
-0.000221505
-0.000224414
-0.000227545
-0.000230935
-0.000234632
-0.000238694
-0.000243199
-0.000248241
-0.000253955
-0.000260531
-0.000268244
-0.000277484
-0.000288656
-0.000302024
-0.00031747
-0.000334501
-0.00035229
-0.000369728
-0.000385261
-0.000396387
-0.000400216
-0.000394393
-0.000379576
-0.000361323
-0.000350365
0.000151067
0.000130543
0.000110119
9.01205e-05
7.05271e-05
5.12939e-05
3.23804e-05
1.3785e-05
-4.43883e-06
-2.22116e-05
-3.9461e-05
-5.61333e-05
-7.21865e-05
-8.75802e-05
-0.000102271
-0.000116213
-0.000129362
-0.000141679
-0.00015313
-0.00016369
-0.00017334
-0.000182068
-0.000189872
-0.000196762
-0.000202757
-0.000207891
-0.000212204
-0.000215729
-0.000218508
-0.00022061
-0.000222129
-0.00022318
-0.000223889
-0.000224383
-0.000224783
-0.000225193
-0.000225702
-0.000226378
-0.000227265
-0.000228388
-0.000229753
-0.000231353
-0.000233175
-0.00023521
-0.000237462
-0.000239946
-0.000242699
-0.000245766
-0.000249188
-0.000253001
-0.000257248
-0.000262001
-0.000267415
-0.000273761
-0.000281415
-0.000290772
-0.000302075
-0.000315347
-0.000330446
-0.000346863
-0.000364001
-0.000380963
-0.000396256
-0.000407706
-0.000412663
-0.000410397
-0.000404533
-0.000401732
-0.000407803
0.000115861
9.3897e-05
7.20316e-05
5.06563e-05
2.97509e-05
9.2667e-06
-1.08375e-05
-3.05615e-05
-4.98466e-05
-6.86044e-05
-8.67531e-05
-0.00010423
-0.000120985
-0.000136971
-0.000152136
-0.000166426
-0.000179789
-0.000192175
-0.000203544
-0.000213862
-0.000223104
-0.000231256
-0.000238312
-0.000244281
-0.000249184
-0.000253049
-0.000255906
-0.000257791
-0.000258773
-0.000258954
-0.000258466
-0.000257465
-0.000256119
-0.000254596
-0.000253055
-0.000251641
-0.000250474
-0.000249645
-0.000249212
-0.000249198
-0.000249591
-0.000250355
-0.000251448
-0.000252837
-0.000254513
-0.000256497
-0.000258832
-0.000261566
-0.000264701
-0.000268218
-0.000272117
-0.000276427
-0.000281234
-0.000286732
-0.000293193
-0.000300923
-0.000310356
-0.000321694
-0.000334902
-0.000349519
-0.000364899
-0.000379989
-0.000392467
-0.000400227
-0.000403197
-0.000404051
-0.000408098
-0.000420046
-0.000441776
7.81168e-05
5.46586e-05
3.14068e-05
8.67975e-06
-1.35366e-05
-3.5275e-05
-5.65705e-05
-7.74188e-05
-9.77529e-05
-0.000117473
-0.000136484
-0.000154712
-0.000172098
-0.000188583
-0.000204106
-0.000218602
-0.000232007
-0.00024426
-0.000255308
-0.000265107
-0.000273621
-0.000280826
-0.00028671
-0.00029128
-0.000294564
-0.000296599
-0.000297429
-0.00029713
-0.000295815
-0.000293635
-0.000290775
-0.00028744
-0.000283847
-0.000280218
-0.000276762
-0.000273669
-0.000271096
-0.000269151
-0.000267885
-0.000267287
-0.000267279
-0.000267744
-0.000268552
-0.000269613
-0.000270905
-0.000272501
-0.000274538
-0.000277116
-0.000280203
-0.000283668
-0.000287367
-0.000291074
-0.00029452
-0.000297902
-0.000301785
-0.000306733
-0.000313673
-0.000322936
-0.000334427
-0.000347655
-0.000360587
-0.000370997
-0.000377819
-0.00038128
-0.000383492
-0.000388379
-0.00040095
-0.000424506
-0.000458632
2.42021e-05
-9.68958e-07
-2.60778e-05
-5.05584e-05
-7.44292e-05
-9.77526e-05
-0.00012057
-0.000142872
-0.000164584
-0.000185591
-0.000205783
-0.000225073
-0.000243388
-0.000260657
-0.000276805
-0.000291755
-0.000305425
-0.000317741
-0.000328634
-0.000338045
-0.000345924
-0.000352234
-0.000356943
-0.000360033
-0.000361498
-0.000361349
-0.000359633
-0.000356449
-0.000351949
-0.000346334
-0.000339845
-0.000332763
-0.000325393
-0.000318068
-0.000311121
-0.000304865
-0.000299558
-0.000295376
-0.000292377
-0.000290484
-0.000289481
-0.000289051
-0.000288861
-0.000288702
-0.000288609
-0.000288887
-0.000289956
-0.000291987
-0.00029462
-0.000297362
-0.000300027
-0.000302304
-0.000303506
-0.000304319
-0.000306178
-0.000309562
-0.000315638
-0.000324556
-0.000334591
-0.000344034
-0.000351979
-0.000357665
-0.000361138
-0.000363337
-0.00036641
-0.000374094
-0.000390942
-0.000420039
-0.000460824
-2.2915e-05
-5.01203e-05
-7.68509e-05
-0.000102937
-0.000128389
-0.000153209
-0.000177426
-0.000201037
-0.000223962
-0.000246077
-0.000267256
-0.000287393
-0.000306401
-0.000324196
-0.000340688
-0.000355782
-0.000369378
-0.000381376
-0.000391681
-0.000400209
-0.00040689
-0.000411678
-0.000414543
-0.000415464
-0.000414432
-0.000411473
-0.00040667
-0.000400168
-0.000392169
-0.000382934
-0.000372774
-0.000362049
-0.000351168
-0.000340585
-0.000330777
-0.000322216
-0.00031531
-0.00031034
-0.000307386
-0.000306249
-0.000306419
-0.000307107
-0.000307448
-0.000306896
-0.000305555
-0.000304229
-0.000303981
-0.000305131
-0.000306418
-0.000306756
-0.000306869
-0.000307394
-0.000307109
-0.000307072
-0.000309515
-0.00031414
-0.000319746
-0.00032587
-0.000332219
-0.000338059
-0.000342842
-0.000346367
-0.000348848
-0.000351028
-0.000354583
-0.000362511
-0.000378862
-0.000406975
-0.000447278
-0.000110517
-0.000139738
-0.000169152
-0.00019777
-0.000225574
-0.000252647
-0.000279037
-0.000304731
-0.000329635
-0.000353606
-0.000376498
-0.000398188
-0.000418569
-0.000437538
-0.000454988
-0.000470807
-0.000484882
-0.00049709
-0.000507282
-0.000515293
-0.00052097
-0.000524175
-0.00052479
-0.000522743
-0.000518027
-0.000510705
-0.000500906
-0.000488828
-0.000474737
-0.000458973
-0.000441957
-0.000424184
-0.000406215
-0.000388685
-0.000372311
-0.000357872
-0.000346143
-0.000337794
-0.000333224
-0.000332329
-0.000334267
-0.000337344
-0.00033932
-0.000338532
-0.00033484
-0.00032971
-0.000325525
-0.000323687
-0.000322136
-0.000319007
-0.000316034
-0.000315187
-0.000315717
-0.000316524
-0.000317666
-0.000319734
-0.000322652
-0.000326057
-0.000329598
-0.00033281
-0.000335323
-0.000337012
-0.000338094
-0.000339182
-0.000341563
-0.000347574
-0.000360756
-0.000384525
-0.000420293
-0.000163311
-0.000194681
-0.000225047
-0.000254964
-0.000284364
-0.000313053
-0.000341002
-0.000368196
-0.000394525
-0.000419818
-0.000443904
-0.000466639
-0.000487893
-0.000507538
-0.000525443
-0.000541489
-0.000555594
-0.000567738
-0.000577855
-0.000585759
-0.000591188
-0.000593866
-0.000593557
-0.000590067
-0.000583256
-0.00057304
-0.000559396
-0.000542391
-0.000522189
-0.000499086
-0.000473576
-0.000446361
-0.000418364
-0.000390736
-0.000364824
-0.000342127
-0.000324181
-0.00031236
-0.000307572
-0.000309828
-0.000317781
-0.000328351
-0.0003371
-0.000340917
-0.000339462
-0.000334674
-0.000329892
-0.000327834
-0.000327985
-0.000328399
-0.000327809
-0.00032654
-0.000325458
-0.000324746
-0.000324446
-0.00032469
-0.000325439
-0.000326527
-0.000327649
-0.000328318
-0.00032804
-0.00032655
-0.000324054
-0.000321312
-0.00031963
-0.000321336
-0.000330062
-0.000349682
-0.000381488
-0.000303428
-0.000338609
-0.000373742
-0.000407529
-0.000440046
-0.000471652
-0.000502502
-0.000532523
-0.000561526
-0.000589296
-0.000615633
-0.000640361
-0.000663306
-0.000684275
-0.000703038
-0.000719317
-0.000732776
-0.000743049
-0.000749894
-0.000753286
-0.000753296
-0.00075
-0.000743403
-0.000733413
-0.000719859
-0.000702525
-0.000681216
-0.000655815
-0.000626366
-0.000593139
-0.000556655
-0.000517759
-0.000477668
-0.00043793
-0.00040033
-0.000366773
-0.000339131
-0.000319017
-0.000307511
-0.000304826
-0.000309929
-0.000320089
-0.000330782
-0.000338405
-0.000341838
-0.000341562
-0.000338836
-0.000335564
-0.000333337
-0.000331957
-0.000330752
-0.000329692
-0.00032889
-0.000328243
-0.000327633
-0.000327044
-0.000326391
-0.000325533
-0.000324266
-0.000322316
-0.00031939
-0.000315128
-0.000309295
-0.000302431
-0.000296367
-0.000294252
-0.000299434
-0.000314132
-0.000340106
0.000259611
0.000267623
0.000275891
0.000284438
0.000293399
0.000302886
0.000312869
0.000323068
0.000333453
0.000344327
0.000355704
0.000367406
0.000379165
0.00039173
0.00040376
0.000416063
0.000427724
0.000439934
0.000451613
0.000462989
0.00047474
0.000484873
0.00049418
0.000502604
0.000510129
0.00051649
0.000521157
0.000524611
0.000527001
0.000527549
0.000526488
0.000524381
0.000521189
0.000516774
0.00051068
0.000503769
0.000496029
0.00048734
0.000478078
0.000468522
0.000458228
0.000447747
0.000437711
0.000427838
0.000417113
0.000407194
0.000397021
0.000387529
0.000378323
0.000369598
0.000361348
0.000353537
0.000346346
0.000339537
0.000333221
0.000327014
0.00032161
0.000316663
0.000312338
0.000259262
0.000267532
0.000276177
0.000285199
0.000294633
0.000304496
0.00031479
0.000325459
0.000336511
0.000347992
0.000359856
0.000372036
0.000384452
0.000397181
0.000410035
0.000422841
0.000435612
0.000448274
0.000460692
0.000472591
0.00048431
0.000495141
0.000504967
0.000513875
0.000521656
0.000528138
0.000533204
0.000536677
0.000538973
0.000539531
0.000538426
0.000536189
0.000532729
0.000527841
0.000521624
0.000514357
0.000506164
0.000497116
0.000487414
0.000477163
0.000466431
0.000455579
0.000444771
0.00043378
0.00042291
0.000412255
0.00040189
0.000391947
0.000382325
0.000373129
0.000364436
0.000356241
0.000348475
0.000341259
0.000334468
0.000328273
0.000322671
0.000317569
0.000312939
0.000258121
0.00026678
0.000275829
0.000285314
0.000295235
0.0003056
0.000316397
0.000327619
0.000339274
0.000351366
0.000363839
0.000376629
0.000389694
0.000403004
0.000416475
0.000430053
0.000443608
0.000456982
0.000470002
0.000482582
0.000494682
0.000506069
0.000516453
0.000525787
0.00053392
0.000540671
0.000545961
0.000549641
0.000551867
0.000552407
0.000551317
0.000548901
0.000545045
0.000539784
0.000533215
0.00052556
0.000516885
0.000507383
0.000497167
0.000486419
0.000475249
0.000463774
0.000452199
0.000440669
0.000429265
0.000418126
0.000407271
0.00039676
0.000386652
0.000377012
0.000367895
0.000359284
0.000351184
0.0003436
0.000336602
0.000330179
0.000324291
0.0003189
0.000314
0.000256611
0.000265675
0.000275157
0.000285102
0.000295512
0.000306394
0.000317746
0.000329564
0.000341844
0.00035457
0.000367702
0.00038119
0.000394986
0.000409022
0.000423206
0.000437487
0.000451723
0.000465795
0.000479519
0.000492825
0.000505551
0.000517476
0.000528403
0.000538203
0.000546741
0.000553837
0.000559375
0.000563233
0.000565466
0.000565996
0.000564843
0.000562226
0.000558056
0.00055247
0.000545511
0.000537401
0.000528232
0.000518182
0.000507391
0.000496053
0.0004843
0.000472244
0.000460081
0.000447991
0.000436004
0.000424264
0.000412828
0.000401764
0.000391147
0.000381031
0.000371456
0.000362432
0.000353977
0.000346089
0.000338776
0.000332022
0.000325811
0.000320114
0.000314958
0.000254992
0.000264488
0.000274425
0.000284849
0.000295767
0.000307187
0.000319112
0.000331537
0.000344451
0.00035783
0.000371642
0.000385842
0.000400374
0.000415161
0.000430111
0.000445133
0.000460106
0.000474909
0.00048938
0.000503402
0.00051679
0.000529318
0.000540815
0.000551123
0.000560091
0.000567549
0.000573365
0.000577392
0.000579675
0.000580185
0.000578933
0.000576117
0.000571674
0.000565742
0.000558378
0.00054978
0.000540079
0.000529445
0.000518041
0.000506053
0.000493646
0.000480968
0.000468182
0.000455434
0.00044281
0.000430426
0.00041838
0.000406744
0.000395587
0.000384956
0.000374887
0.000365401
0.00035651
0.000348215
0.000340514
0.0003334
0.000326863
0.000320874
0.000315458
0.000253135
0.000263098
0.000273528
0.000284474
0.000295943
0.000307943
0.000320476
0.000333538
0.000347114
0.000361182
0.000375706
0.000390643
0.000405933
0.000421499
0.000437249
0.000453073
0.000468849
0.000484438
0.000499682
0.000514434
0.000528507
0.000541688
0.00055379
0.000564635
0.000574056
0.000581882
0.000587981
0.000592188
0.000594534
0.000595018
0.000593659
0.000590636
0.000585903
0.00057959
0.000571787
0.000562673
0.000552401
0.000541146