/*--------------------------------*- C++ -*----------------------------------*\
| =========                 |                                                 |
| \\      /  F ield         | OpenFOAM: The Open Source CFD Toolbox           |
|  \\    /   O peration     | Version:  2312                                  |
|   \\  /    A nd           | Website:  www.openfoam.com                      |
|    \\/     M anipulation  |                                                 |
\*---------------------------------------------------------------------------*/
FoamFile
{
    version     2.0;
    format      ascii;
    arch        "LSB;label=32;scalar=64";
    class       surfaceScalarField;
    location    "800";
    object      phi;
}
// * * * * * * * * * * * * * * * * * * * * * * * * * * * * * * * * * * * * * //

dimensions      [0 3 -1 0 0 0 0];

oriented        oriented;

internalField   nonuniform List<scalar> 
116611
(
0.00117997
0.000420031
-0.0011637
-0.000436296
0.00119601
0.000415366
-0.000431401
0.00121197
0.000410393
-0.000426359
0.0012278
0.000405073
-0.000420903
0.00124332
0.0003993
-0.000414818
0.00125892
0.000393063
-0.000408663
0.00127385
0.000386396
-0.000401325
0.00128885
0.000379275
-0.000394277
0.00130357
0.000371693
-0.000386415
0.00131817
0.000363702
-0.0003783
0.00133237
0.000355139
-0.000369334
0.00134632
0.000346056
-0.000360011
0.00136002
0.00033644
-0.000350137
0.00137362
0.000326272
-0.000339867
0.00138705
0.0003156
-0.000329035
0.00140002
0.000304412
-0.000317382
0.00141283
0.000292523
-0.00030533
0.00142518
0.000280143
-0.000292492
0.0014371
0.000266992
-0.000278919
0.00144873
0.000253376
-0.000265006
0.00146018
0.000238923
-0.000250371
0.00147128
0.000223906
-0.000235009
0.00148204
0.000208201
-0.00021896
0.00149249
0.000191792
-0.000202241
0.00150243
0.000174634
-0.000184568
0.00151195
0.000156694
-0.000166213
0.00152108
0.000137939
-0.00014707
0.00152939
0.000118459
-0.000126772
0.00153737
9.80918e-05
-0.000106074
0.00154431
7.68614e-05
-8.38019e-05
0.00155113
5.50378e-05
-6.18546e-05
0.00155709
3.20631e-05
-3.80294e-05
0.00156246
8.25368e-06
-1.36166e-05
0.00156708
-1.63491e-05
1.17259e-05
0.00157086
-4.20061e-05
3.8228e-05
0.00157384
-6.84806e-05
6.55029e-05
0.00157608
-9.60653e-05
9.38215e-05
0.00157766
-0.000124466
0.000122886
0.00157843
-0.000153803
0.000153038
0.00157819
-0.000184285
0.000184521
0.00157707
-0.000215688
0.000216807
0.00157518
-0.000248213
0.000250103
0.00157268
-0.000281633
0.000284137
0.00156905
-0.000316151
0.000319776
0.00156467
-0.00035176
0.000356141
0.00155929
-0.000388488
0.000393864
0.00155348
-0.000426268
0.000432078
0.00154655
-0.000465279
0.000472213
0.00153887
-0.000505486
0.000513163
0.00153028
-0.000546892
0.000555483
0.00152081
-0.000589519
0.000598993
0.00151064
-0.000633318
0.000643488
0.00149974
-0.000678366
0.000689269
0.00148801
-0.000724794
0.000736521
0.00147542
-0.000772607
0.000785194
0.00146182
-0.000822014
0.000835614
0.00144747
-0.000872947
0.000887295
0.001432
-0.000925604
0.000941073
0.00141534
-0.000979959
0.000996624
0.00139764
-0.00103592
0.00105362
0.00137979
-0.0010934
0.00111126
0.0013611
-0.00115344
0.00117213
0.00134126
-0.00121602
0.00123586
0.00132101
-0.00128095
0.0013012
0.0013006
-0.00134857
0.00136897
0.00127862
-0.00141995
0.00144193
0.00125724
-0.00149457
0.00151595
0.00123815
-0.00157218
0.00159127
-0.0016614
0.00121821
0.00168135
0.00116357
0.000403829
-0.00114737
0.0011796
0.000399338
0.00119548
0.00039451
0.00121123
0.000389322
0.00122682
0.000383709
0.0012422
0.000377692
0.00125733
0.000371259
0.00127224
0.000364369
0.0012869
0.000357029
0.00130139
0.000349213
0.00131562
0.000340914
0.00132956
0.000332115
0.0013432
0.000322793
0.00135655
0.000312924
0.00136962
0.000302534
0.00138245
0.000291575
0.00139493
0.000280052
0.00140713
0.000267938
0.00141889
0.000255229
0.00143039
0.000241881
0.00144143
0.000227879
0.00145211
0.000213231
0.0014624
0.000197906
0.00147231
0.000181883
0.0014818
0.000165148
0.00149084
0.000147653
0.00149936
0.000129419
0.0015074
0.00011042
0.00151487
9.06158e-05
0.00152172
7.00162e-05
0.00152816
4.8599e-05
0.00153391
2.63096e-05
0.00153901
3.15385e-06
0.00154351
-2.085e-05
0.00154727
-4.57673e-05
0.00155039
-7.15964e-05
0.0015527
-9.83769e-05
0.0015543
-0.000126064
0.00155521
-0.00015471
0.00155529
-0.000184373
0.00155464
-0.000215036
0.00155315
-0.000246719
0.0015509
-0.000279388
0.00154787
-0.000313119
0.00154405
-0.000347945
0.00153943
-0.000383864
0.00153404
-0.000420878
0.0015278
-0.000459041
0.00152072
-0.000498402
0.00151276
-0.000538934
0.00150391
-0.000580664
0.00149419
-0.000623606
0.00148363
-0.000667797
0.00147216
-0.000713327
0.00145982
-0.000760266
0.0014465
-0.000808699
0.00143221
-0.000858656
0.00141686
-0.000910254
0.00140044
-0.00096354
0.00138308
-0.00101856
0.00136511
-0.00107544
0.00134622
-0.00113454
0.00132633
-0.00119613
0.00130571
-0.00126033
0.00128457
-0.00132743
0.00126261
-0.00139799
0.00124039
-0.00147236
0.00121849
-0.00155027
-0.00163809
0.00119518
0.00114758
0.000387644
-0.00113139
0.0011636
0.000383318
0.00117945
0.000378659
0.00119514
0.00037363
0.00121064
0.00036821
0.00122594
0.000362386
0.00124105
0.000356148
0.00125594
0.000349481
0.0012706
0.000342371
0.00128501
0.000334799
0.00129917
0.000326754
0.00131307
0.000318223
0.00132667
0.00030919
0.00133996
0.000299635
0.00135294
0.000289547
0.00136561
0.000278906
0.00137796
0.000267705
0.00138997
0.000255926
0.00140165
0.000243556
0.00141295
0.000230576
0.00142386
0.000216971
0.00143437
0.00020272
0.00144447
0.000187805
0.00145415
0.000172207
0.00146339
0.000155909
0.00147215
0.000138891
0.00148043
0.000121137
0.00148822
0.000102629
0.00149549
8.33489e-05
0.00150223
6.32788e-05
0.00150842
4.24037e-05
0.00151403
2.07025e-05
0.00151905
-1.86589e-06
0.00152346
-2.52626e-05
0.00152723
-4.95347e-05
0.00153034
-7.47043e-05
0.00153275
-0.000100788
0.00153448
-0.000127798
0.00153553
-0.000155755
0.00153584
-0.000184687
0.00153541
-0.000214607
0.00153422
-0.000245524
0.00153228
-0.000277453
0.00152958
-0.00031042
0.00152609
-0.000344452
0.00152178
-0.000379561
0.00151667
-0.000415765
0.00151073
-0.000453095
0.00150391
-0.00049158
0.0014962
-0.000531229
0.0014876
-0.000572063
0.00147811
-0.000614114
0.00146773
-0.000657417
0.00145644
-0.000702038
0.00144421
-0.000748043
0.00143101
-0.000795497
0.00141682
-0.000844468
0.00140161
-0.000895044
0.00138538
-0.000947303
0.00136816
-0.00100134
0.00135003
-0.00105731
0.00133095
-0.00111546
0.00131087
-0.00117606
0.00128989
-0.00123935
0.00126812
-0.00130565
0.00124556
-0.00137542
0.00122243
-0.00144923
0.00119909
-0.00152694
-0.00161385
0.00117486
0.00113204
0.000371533
-0.00111592
0.00114801
0.000367348
0.00116381
0.000362851
0.00117945
0.000357996
0.0011949
0.000352762
0.00121015
0.000347133
0.0012252
0.000341099
0.00124003
0.000334647
0.00125464
0.000327766
0.001269
0.000320439
0.0012831
0.000312651
0.00129694
0.000304388
0.00131049
0.000295636
0.00132375
0.00028638
0.00133669
0.000276603
0.00134931
0.00026629
0.00136159
0.000255426
0.00137351
0.000243997
0.00138509
0.000231985
0.00139629
0.000219377
0.0014071
0.000206156
0.00141752
0.000192304
0.00142752
0.000177805
0.00143708
0.000162639
0.0014462
0.000146789
0.00145486
0.000130235
0.00146304
0.00011296
0.00147072
9.49464e-05
0.00147789
7.61774e-05
0.00148454
5.66343e-05
0.00149064
3.62992e-05
0.00149619
1.51509e-05
0.00150117
-6.84007e-06
0.00150554
-2.96383e-05
0.0015093
-5.32903e-05
0.00151241
-7.78218e-05
0.00151488
-0.000103251
0.00151668
-0.000129597
0.00151779
-0.000156873
0.00151821
-0.0001851
0.0015179
-0.000214296
0.00151685
-0.000244476
0.00151505
-0.000275658
0.00151249
-0.000307861
0.00150915
-0.000341108
0.00150501
-0.000375418
0.00150005
-0.000410809
0.00149426
-0.000447304
0.00148761
-0.000484928
0.00148008
-0.000523703
0.00147167
-0.000563651
0.00146236
-0.000604806
0.00145215
-0.000647206
0.00144102
-0.000690904
0.00142893
-0.00073596
0.00141587
-0.000782438
0.00140181
-0.000830405
0.00138671
-0.000879944
0.00137056
-0.000931147
0.00135334
-0.000984131
0.00133509
-0.00103906
0.00131577
-0.00109614
0.00129537
-0.00115566
0.0012739
-0.00121789
0.00125145
-0.0012832
0.00122805
-0.00135202
0.0012038
-0.00142498
0.00117889
-0.00150202
-0.00158781
0.00115285
0.00111733
0.000355635
-0.00110144
0.00113313
0.000351548
0.00114881
0.000347176
0.00116433
0.00034247
0.00117969
0.000337403
0.00119486
0.000331961
0.00120984
0.000326127
0.00122459
0.000319889
0.00123913
0.000313233
0.00125342
0.000306145
0.00126746
0.00029861
0.00128124
0.000290614
0.00129473
0.000282142
0.00130793
0.00027318
0.00132082
0.000263712
0.00133339
0.000253723
0.00134562
0.000243198
0.00135749
0.000232119
0.00136901
0.000220472
0.00138014
0.000208241
0.00139089
0.000195408
0.00140123
0.00018196
0.00141116
0.000167877
0.00142066
0.000153142
0.00142971
0.000137738
0.0014383
0.000121646
0.00144641
0.000104848
0.00145403
8.7327e-05
0.00146114
6.90648e-05
0.00146774
5.00428e-05
0.00147379
3.02416e-05
0.0014793
9.64108e-06
0.00148423
-1.17706e-05
0.00148858
-3.39804e-05
0.00149231
-5.70273e-05
0.00149543
-8.09366e-05
0.0014979
-0.000105727
0.00149972
-0.000131418
0.00150087
-0.000158023
0.00150133
-0.00018556
0.00150109
-0.000214048
0.00150011
-0.000243504
0.00149841
-0.000273949
0.00149594
-0.000305399
0.00149271
-0.000337875
0.00148869
-0.000371394
0.00148385
-0.000405978
0.0014782
-0.000441647
0.00147169
-0.000478425
0.00146433
-0.000516338
0.00145609
-0.000555409
0.00144695
-0.000595673
0.00143691
-0.000637165
0.00142594
-0.000679933
0.00141401
-0.000724028
0.00140108
-0.000769511
0.00138712
-0.000816446
0.0013721
-0.000864915
0.00135596
-0.000915013
0.0013387
-0.000966867
0.00132028
-0.00102064
0.00130068
-0.00107654
0.00127986
-0.00113484
0.00125784
-0.00119586
0.00123461
-0.00125997
0.00121021
-0.00132763
0.00118469
-0.00139946
0.00115814
-0.00147548
-0.00155967
0.00113
0.0011037
0.000339981
-0.00108805
0.00111927
0.000335982
0.00113473
0.000331715
0.00115007
0.000327132
0.00116526
0.00032221
0.00118029
0.000316932
0.00119514
0.000311282
0.00120978
0.000305244
0.00122421
0.000298804
0.00123841
0.000291948
0.00125236
0.000284659
0.00126605
0.000276925
0.00127946
0.000268729
0.00129258
0.000260058
0.0013054
0.000250895
0.0013179
0.000241225
0.00133006
0.000231033
0.00134188
0.000220302
0.00135333
0.000209017
0.00136441
0.000197162
0.0013751
0.00018472
0.00138539
0.000171675
0.00139525
0.000158009
0.00140469
0.000143705
0.00141368
0.000128746
0.00142222
0.000113113
0.00143028
9.67898e-05
0.00143784
7.97576e-05
0.00144491
6.19979e-05
0.00145146
4.34926e-05
0.00145748
2.42225e-05
0.00146296
4.16565e-06
0.00146785
-1.66687e-05
0.00147217
-3.82966e-05
0.00147589
-6.07479e-05
0.001479
-8.40444e-05
0.00148148
-0.000108205
0.00148331
-0.000133249
0.00148448
-0.000159191
0.00148497
-0.00018605
0.00148476
-0.000213845
0.00148385
-0.000242593
0.00148222
-0.000272311
0.00147984
-0.000303019
0.0014767
-0.000334734
0.00147278
-0.000367477
0.00146807
-0.000401266
0.00146254
-0.000436124
0.00145619
-0.000472072
0.00144899
-0.000509135
0.00144092
-0.000547339
0.00143196
-0.000586714
0.00142209
-0.000627294
0.00141127
-0.000669119
0.00139948
-0.000712236
0.00138667
-0.000756699
0.00137279
-0.00080257
0.00135781
-0.000849928
0.00134166
-0.000898868
0.00132431
-0.000949515
0.0013057
-0.00100203
0.00128579
-0.00105663
0.00126453
-0.00111357
0.00124186
-0.00117319
0.00121778
-0.00123588
0.00119226
-0.00130211
0.00116527
-0.00137247
0.00113684
-0.00144705
-0.00152863
0.0011058
0.00109105
0.000324492
-0.00107556
0.00110642
0.000320604
0.00112168
0.000316455
0.00113682
0.000311999
0.00115181
0.000307216
0.00116665
0.000302091
0.00118132
0.000296611
0.00119581
0.00029076
0.00121009
0.000284524
0.00122415
0.000277888
0.00123797
0.000270837
0.00125154
0.000263355
0.00126484
0.000255428
0.00127786
0.00024704
0.00129058
0.000238176
0.00130298
0.00022882
0.00131506
0.000218957
0.00132679
0.000208569
0.00133816
0.000197642
0.00134917
0.000186159
0.00135979
0.000174103
0.00137
0.000161458
0.0013798
0.000148207
0.00138918
0.000134331
0.00139811
0.000119815
0.00140658
0.000104639
0.00141459
8.87863e-05
0.0014221
7.2239e-05
0.00142912
5.49786e-05
0.00143563
3.69866e-05
0.00144161
1.82449e-05
0.00144704
-1.27066e-06
0.00145191
-2.15349e-05
0.0014562
-4.25852e-05
0.0014599
-6.44466e-05
0.00146299
-8.71383e-05
0.00146547
-0.000110679
0.0014673
-0.000135087
0.00146849
-0.000160379
0.00146901
-0.000186573
0.00146886
-0.000213688
0.001468
-0.000241739
0.00146644
-0.000270745
0.00146414
-0.000300724
0.0014611
-0.000331694
0.0014573
-0.000363674
0.00145272
-0.000396684
0.00144734
-0.000430743
0.00144114
-0.000465873
0.0014341
-0.000502096
0.00142619
-0.000539436
0.0014174
-0.000577921
0.00140769
-0.000617581
0.00139702
-0.000658451
0.00138535
-0.000700571
0.00137265
-0.000743991
0.00135884
-0.000788768
0.00134389
-0.000834975
0.00132773
-0.000882702
0.00131028
-0.000932071
0.00129149
-0.000983236
0.00127126
-0.0010364
0.00124952
-0.00109183
0.00122618
-0.00114985
0.00120115
-0.00121086
0.00117438
-0.00127534
0.00114574
-0.00134383
0.00111509
-0.00141639
-0.00149401
0.00108047
0.00107913
0.000309088
-0.00106372
0.00109439
0.000305336
0.00110952
0.000301327
0.0011245
0.000297017
0.00113933
0.000292387
0.001154
0.000287424
0.00116849
0.000282117
0.0011828
0.000276452
0.00119691
0.000270415
0.0012108
0.000263993
0.00122447
0.000257172
0.00123789
0.000249936
0.00125105
0.000242269
0.00126393
0.000234158
0.00127652
0.000225585
0.0012888
0.000216537
0.00130077
0.000206996
0.00131239
0.000196946
0.00132366
0.000186372
0.00133456
0.000175255
0.00134508
0.000163581
0.00135521
0.000151331
0.00136493
0.00013849
0.00137422
0.000125038
0.00138308
0.00011096
0.00139148
9.62364e-05
0.00139941
8.08503e-05
0.00140687
6.47837e-05
0.00141383
4.80181e-05
0.00142028
3.05353e-05
0.00142621
1.2317e-05
0.00143159
-6.65623e-06
0.00143642
-2.63624e-05
0.00144068
-4.68433e-05
0.00144436
-6.8123e-05
0.00144744
-9.02201e-05
0.00144991
-0.000113152
0.00145176
-0.000136937
0.00145297
-0.000161591
0.00145353
-0.000187133
0.00145343
-0.000213579
0.00145263
-0.000240947
0.00145114
-0.000269255
0.00144894
-0.000298519
0.001446
-0.000328757
0.00144232
-0.000359988
0.00143786
-0.000392229
0.00143262
-0.0004255
0.00142656
-0.000459819
0.00141968
-0.000495208
0.00141193
-0.000531687
0.00140329
-0.000569281
0.00139372
-0.000608015
0.00138319
-0.00064792
0.00137165
-0.000689031
0.00135905
-0.00073139
0.00134533
-0.000775048
0.00133042
-0.000820069
0.00131426
-0.000866535
0.00129674
-0.000914555
0.00127777
-0.000964271
0.00125725
-0.00101588
0.00123503
-0.00106962
0.001211
-0.00112582
0.001185
-0.00118486
0.00115687
-0.00124721
0.00112631
-0.00131327
0.00109283
-0.00138291
-0.00145452
0.00105333
0.0010678
0.000293738
-0.00105245
0.001083
0.00029013
0.00109805
0.000286276
0.00111294
0.000282128
0.00112766
0.000277667
0.00114221
0.000272882
0.00115656
0.00026776
0.00117073
0.00026229
0.00118468
0.00025646
0.00119842
0.000250256
0.00121193
0.000243665
0.00122519
0.000236673
0.00123819
0.000229265
0.00125092
0.000221427
0.00126337
0.000213142
0.00127551
0.000204396
0.00128733
0.000195172
0.00129882
0.000185455
0.00130997
0.000175228
0.00132075
0.000164473
0.00133115
0.000153175
0.00134117
0.000141316
0.00135078
0.000128879
0.00135997
0.000115847
0.00136873
0.000102201
0.00137704
8.79249e-05
0.00138489
7.29998e-05
0.00139227
5.74079e-05
0.00139916
4.1131e-05
0.00140554
2.41504e-05
0.00141141
6.44678e-06
0.00141674
-1.19841e-05
0.00142152
-3.1144e-05
0.00142574
-5.10665e-05
0.00142939
-7.17748e-05
0.00143246
-9.32876e-05
0.00143493
-0.000115622
0.00143679
-0.000138795
0.00143802
-0.000162823
0.00143861
-0.000187725
0.00143855
-0.000213516
0.00143782
-0.000240213
0.0014364
-0.000267834
0.00143427
-0.000296396
0.00143143
-0.000325914
0.00142785
-0.000356407
0.00142351
-0.00038789
0.00141839
-0.000420381
0.00141247
-0.000453898
0.00140572
-0.000488458
0.00139811
-0.00052408
0.00138962
-0.000560785
0.00138019
-0.000598594
0.00136981
-0.000637532
0.0013584
-0.000677628
0.00134593
-0.000718917
0.00133232
-0.000761438
0.0013175
-0.000805245
0.00130137
-0.000850406
0.00128382
-0.00089701
0.00126473
-0.000945179
0.00124394
-0.000995088
0.00122129
-0.00104697
0.00119658
-0.00110111
0.00116961
-0.00115789
0.00114009
-0.00121769
0.00110732
-0.0012805
0.00106989
-0.00134548
-0.00140679
0.00102216
0.00105706
0.000278447
-0.00104177
0.00107221
0.000274982
0.0010872
0.000271284
0.00110202
0.000267304
0.00111667
0.000263021
0.00113113
0.000258423
0.00114539
0.000253498
0.00115945
0.000248234
0.00117329
0.000242621
0.0011869
0.000236644
0.00120027
0.000230291
0.0012134
0.000223549
0.00122626
0.000216403
0.00123885
0.00020884
0.00125114
0.000200844
0.00126314
0.0001924
0.00127482
0.000183493
0.00128617
0.000174105
0.00129718
0.000164222
0.00130782
0.000153826
0.0013181
0.0001429
0.00132799
0.000131427
0.00133747
0.000119391
0.00134655
0.000106773
0.00135519
9.35554e-05
0.0013634
7.97208e-05
0.00137115
6.52509e-05
0.00137843
5.01277e-05
0.00138522
3.43329e-05
0.00139153
1.78477e-05
0.00139732
6.50507e-07
0.00140258
-1.72446e-05
0.00140731
-3.58667e-05
0.00141148
-5.52415e-05
0.0014151
-7.53891e-05
0.00141814
-9.63282e-05
0.00142059
-0.000118076
0.00142244
-0.000140648
0.00142368
-0.000164062
0.00142429
-0.000188335
0.00142426
-0.000213483
0.00142357
-0.000239522
0.0014222
-0.000266468
0.00142015
-0.000294339
0.00141738
-0.000323148
0.00141389
-0.000352913
0.00140965
-0.000383649
0.00140464
-0.000415371
0.00139883
-0.000448095
0.00139221
-0.000481836
0.00138474
-0.000516611
0.00137639
-0.000552436
0.00136713
-0.000589328
0.0013569
-0.000627306
0.00134567
-0.000666392
0.00133336
-0.000706608
0.0013199
-0.000747984
0.00130522
-0.000790557
0.00128918
-0.000834374
0.00127167
-0.0008795
0.00125252
-0.000926027
0.00123154
-0.000974102
0.0012085
-0.00102393
0.00118318
-0.00107579
0.00115533
-0.00113003
0.00112439
-0.00118675
0.00108904
-0.00124515
0.00104646
-0.0013029
-0.00134809
0.000987758
0.001047
0.000263231
-0.00103178
0.00106207
0.000259907
0.00107699
0.000256363
0.00109175
0.000252549
0.00110633
0.000248444
0.00112071
0.000244036
0.0011349
0.000239312
0.00114887
0.000234262
0.00116262
0.000228871
0.00117613
0.000223129
0.0011894
0.000217023
0.00120241
0.000210538
0.00121516
0.000203661
0.00122762
0.000196378
0.00123979
0.000188676
0.00125165
0.000180537
0.00126319
0.000171948
0.00127441
0.000162893
0.00128527
0.000153354
0.00129578
0.000143316
0.00130592
0.000132762
0.00131567
0.000121674
0.00132503
0.000110035
0.00133397
9.78284e-05
0.00134249
8.50353e-05
0.00135058
7.16378e-05
0.00135821
5.76181e-05
0.00136538
4.29579e-05
0.00137207
2.76389e-05
0.00137828
1.16424e-05
0.00138398
-5.05057e-06
0.00138916
-2.24238e-05
0.00139381
-4.05166e-05
0.00139792
-5.93523e-05
0.00140148
-7.89492e-05
0.00140448
-9.93247e-05
0.0014069
-0.000120496
0.00140873
-0.000142478
0.00140995
-0.000165289
0.00141056
-0.000188944
0.00141054
-0.00021346
0.00140987
-0.000238852
0.00140854
-0.000265136
0.00140653
-0.000292328
0.00140382
-0.000320441
0.0014004
-0.000349492
0.00139624
-0.000379493
0.00139133
-0.00041046
0.00138564
-0.000442406
0.00137915
-0.000475344
0.00137183
-0.000509288
0.00136364
-0.00054425
0.00135455
-0.000580241
0.00134452
-0.000617274
0.00133349
-0.000655361
0.0013214
-0.000694514
0.00130816
-0.000734748
0.00129368
-0.000776077
0.00127783
-0.000818523
0.00126045
-0.000862117
0.00124134
-0.000906917
0.00122027
-0.000953039
0.00119702
-0.00100068
0.00117134
-0.00105011
0.00114277
-0.00110146
0.00111022
-0.0011542
0.00107124
-0.00120617
0.00102074
-0.00125239
-0.00127269
0.000945334
0.00103771
0.000248103
-0.00102258
0.0010527
0.000244918
0.00106753
0.000241527
0.00108221
0.000237878
0.0010967
0.00023395
0.001111
0.000229731
0.00112511
0.00022521
0.001139
0.000220373
0.00115266
0.000215209
0.00116608
0.000209705
0.00117926
0.000203849
0.00119217
0.000197626
0.00120481
0.000191023
0.00121716
0.000184027
0.00122921
0.000176622
0.00124095
0.000168795
0.00125237
0.000160528
0.00126346
0.000151808
0.0012742
0.000142617
0.00128457
0.000132939
0.00129458
0.000122758
0.0013042
0.000112056
0.00131342
0.000100815
0.00132223
8.90187e-05
0.00133061
7.66479e-05
0.00133857
6.3685e-05
0.00134607
5.01121e-05
0.00135312
3.59108e-05
0.00135969
2.10627e-05
0.00136579
5.54804e-06
0.00137138
-1.06383e-05
0.00137645
-2.75017e-05
0.00138101
-4.50746e-05
0.00138504
-6.33794e-05
0.00138852
-8.24342e-05
0.00139146
-0.000102256
0.00139382
-0.00012286
0.0013956
-0.000144263
0.0013968
-0.000166482
0.00139738
-0.000189531
0.00139735
-0.000213428
0.00139669
-0.000238186
0.00139537
-0.000263821
0.00139339
-0.000290348
0.00139073
-0.00031778
0.00138737
-0.000346132
0.00138329
-0.000375417
0.00137848
-0.000405647
0.00137291
-0.000436835
0.00136655
-0.000468991
0.00135939
-0.000502125
0.00135139
-0.000536246
0.00134251
-0.000571361
0.00133271
-0.000607473
0.00132193
-0.000644587
0.00131012
-0.000682699
0.00129718
-0.000721806
0.00128299
-0.000761895
0.00126743
-0.000802958
0.00125031
-0.000844994
0.00123143
-0.00088804
0.00121059
-0.0009322
0.00118756
-0.000977651
0.00116194
-0.00102449
0.0011327
-0.00107222
0.00109761
-0.00111912
0.00105223
-0.00116078
0.000987388
-0.00118755
-0.00117113
0.000885831
0.00102928
0.000233068
-0.00101425
0.00104418
0.000230022
0.00105892
0.000226784
0.0010735
0.0002233
0.0010879
0.00021955
0.00110211
0.000215521
0.00111612
0.000211201
0.00112991
0.000206579
0.00114348
0.000201642
0.00115681
0.000196378
0.00116988
0.000190774
0.00118269
0.000184816
0.00119523
0.000178491
0.00120747
0.000171785
0.00121941
0.000164683
0.00123103
0.00015717
0.00124233
0.00014923
0.00125329
0.000140849
0.0012639
0.000132009
0.00127414
0.000122695
0.00128401
0.000112889
0.00129349
0.000102575
0.00130257
9.17333e-05
0.00131124
8.03482e-05
0.00131949
6.84006e-05
0.0013273
5.58722e-05
0.00133467
4.27448e-05
0.00134158
2.90001e-05
0.00134802
1.46196e-05
0.00135399
-4.17448e-07
0.00135945
-1.61008e-05
0.00136441
-3.24603e-05
0.00136886
-4.95215e-05
0.00137278
-6.73037e-05
0.00137617
-8.5825e-05
0.00137902
-0.000105102
0.00138131
-0.00012515
0.00138303
-0.000145985
0.00138417
-0.000167623
0.00138472
-0.00019008
0.00138466
-0.00021337
0.00138399
-0.000237509
0.00138268
-0.000262511
0.00138072
-0.00028839
0.0013781
-0.000315159
0.0013748
-0.000342832
0.0013708
-0.00037142
0.00136609
-0.000400935
0.00136064
-0.000431387
0.00135444
-0.000462786
0.00134745
-0.000495138
0.00133965
-0.000528449
0.00133101
-0.000562721
0.00132149
-0.000597949
0.00131103
-0.000634127
0.00129956
-0.000671235
0.001287
-0.000709244
0.00127322
-0.000748118
0.00125809
-0.000787826
0.00124146
-0.000828364
0.00122321
-0.000869782
0.00120317
-0.000912165
0.001181
-0.000955484
0.00115571
-0.000999191
0.00112504
-0.00104155
0.00108469
-0.00107878
0.00102648
-0.00110257
0.000933911
-0.00109499
-0.00102134
0.000784123
0.0010218
0.000218124
-0.00100685
0.0010366
0.00021522
0.00105125
0.000212137
0.00106573
0.00020882
0.00108003
0.000205249
0.00109414
0.000201411
0.00110804
0.000197295
0.00112173
0.000192889
0.00113519
0.000188181
0.00114841
0.000183159
0.00116137
0.00017781
0.00117407
0.00017212
0.00118649
0.000166075
0.00119861
0.000159662
0.00121043
0.000152866
0.00122193
0.000145671
0.00123309
0.000138062
0.00124392
0.000130024
0.00125439
0.000121539
0.00126449
0.000112592
0.00127422
0.000103165
0.00128355
9.32408e-05
0.00129248
8.28011e-05
0.001301
7.18285e-05
0.0013091
6.03045e-05
0.00131676
4.82104e-05
0.00132398
3.55278e-05
0.00133074
2.22382e-05
0.00133703
8.32288e-06
0.00134285
-6.233e-06
0.00134817
-2.14241e-05
0.001353
-3.72857e-05
0.00135732
-5.38415e-05
0.00136112
-7.11093e-05
0.00136441
-8.91059e-05
0.00136715
-0.000107848
0.00136935
-0.00012735
0.001371
-0.00014763
0.00137207
-0.000168701
0.00137257
-0.000190579
0.00137248
-0.000213278
0.00137179
-0.000236814
0.00137047
-0.0002612
0.00136853
-0.000286449
0.00136595
-0.000312574
0.0013627
-0.000339587
0.00135878
-0.000367501
0.00135417
-0.000396325
0.00134885
-0.000426068
0.00134281
-0.00045674
0.00133601
-0.000488344
0.00132845
-0.000520884
0.00132008
-0.000554355
0.00131088
-0.000588747
0.00130079
-0.000624036
0.00128974
-0.000660185
0.00127765
-0.000697149
0.00126441
-0.000734886
0.00124998
-0.000773387
0.0012343
-0.00081269
0.00121737
-0.000852849
0.00119896
-0.000893754
0.00117813
-0.000934658
0.0011525
-0.000973556
0.00111755
-0.0010066
0.00106538
-0.0010266
0.000981356
-0.00101855
0.000841661
-0.000955292
-0.000807306
0.000627626
0.00101529
0.000203266
-0.00100044
0.00103001
0.000200506
0.00104456
0.000197581
0.00105895
0.000194435
0.00107315
0.000191046
0.00108716
0.000187403
0.00110096
0.000183494
0.00111454
0.000179308
0.00112789
0.000174833
0.00114099
0.000170056
0.00115384
0.000164965
0.00116641
0.000159546
0.0011787
0.000153785
0.0011907
0.000147669
0.00120238
0.000141182
0.00121374
0.00013431
0.00122477
0.000127036
0.00123544
0.000119345
0.00124576
0.00011122
0.00125571
0.000102643
0.00126528
9.35985e-05
0.00127445
8.40675e-05
0.00128322
7.40322e-05
0.00129158
6.34744e-05
0.00129951
5.23753e-05
0.001307
4.07164e-05
0.00131405
2.84786e-05
0.00132064
1.56433e-05
0.00132678
2.19e-06
0.00133242
-1.18803e-05
0.00133759
-2.65873e-05
0.00134226
-4.19588e-05
0.00134644
-5.80164e-05
0.0013501
-7.47778e-05
0.00135326
-9.22593e-05
0.00135589
-0.000110477
0.00135798
-0.000129446
0.00135953
-0.000149182
0.00136053
-0.0001697
0.00136097
-0.000191014
0.00136083
-0.000213139
0.00136011
-0.000236089
0.00135878
-0.000259877
0.00135685
-0.000284515
0.00135429
-0.000310017
0.0013511
-0.000336393
0.00134725
-0.000363656
0.00134275
-0.000391816
0.00133756
-0.000420882
0.00133168
-0.000450861
0.00132509
-0.000481758
0.00131778
-0.000513571
0.00130972
-0.00054629
0.00130086
-0.000579891
0.00129117
-0.000614342
0.00128058
-0.000649603
0.00126908
-0.000685648
0.00125669
-0.000722493
0.00124351
-0.000760207
0.00122967
-0.000798846
0.00121505
-0.000838235
0.00119879
-0.000877495
0.00117837
-0.000914234
0.001149
-0.000944185
0.0011026
-0.000960205
0.00102547
-0.000949477
0.000895641
-0.000888716
0.000688009
-0.00074766
-0.000516369
0.000397071
0.00100983
0.000188482
-0.000995043
0.00102446
0.000185872
0.00103893
0.000183109
0.00105323
0.000180138
0.00106734
0.000176936
0.00108125
0.000173492
0.00109495
0.000169795
0.00110842
0.000165834
0.00112166
0.000161596
0.00113465
0.000157069
0.00114737
0.000152241
0.00115982
0.000147099
0.00117198
0.000141627
0.00118383
0.000135813
0.00119537
0.000129642
0.00120658
0.000123097
0.00121746
0.000116163
0.00122798
0.000108824
0.00123813
0.000101063
0.00124792
9.28627e-05
0.00125731
8.42049e-05
0.0012663
7.50717e-05
0.00127489
6.54446e-05
0.00128306
5.53049e-05
0.0012908
4.46335e-05
0.00129811
3.34113e-05
0.00130497
2.16191e-05
0.00131137
9.23746e-06
0.00131732
-3.75127e-06
0.00132278
-1.73418e-05
0.00132776
-3.15694e-05
0.00133226
-4.64572e-05
0.00133627
-6.20241e-05
0.00133978
-7.82876e-05
0.00134278
-9.52639e-05
0.00134527
-0.000112969
0.00134724
-0.000131417
0.00134868
-0.000150624
0.00134959
-0.000170603
0.00134994
-0.00019137
0.00134974
-0.000212938
0.00134897
-0.00023532
0.00134763
-0.000258529
0.00134569
-0.000282578
0.00134315
-0.000307478
0.00134
-0.000333242
0.00133622
-0.000359882
0.00133182
-0.000387408
0.00132676
-0.00041583
0.00132106
-0.000445154
0.00131468
-0.000475382
0.00130761
-0.000506505
0.00129983
-0.000538507
0.0012913
-0.000571364
0.00128203
-0.000605064
0.00127204
-0.000639619
0.0012615
-0.000675103
0.00125064
-0.000711637
0.00123975
-0.000749315
0.00122879
-0.000787884
0.00121679
-0.000826234
0.00120101
-0.000861715
0.00117622
-0.000889445
0.00113419
-0.00090216
0.00106144
-0.000887447
0.000938233
-0.000826275
0.000741695
-0.000692178
0.000467631
-0.000473596
-0.000214673
0.000165936
0.00100544
0.000173762
-0.000990724
0.00102001
0.000171305
0.00103441
0.000168711
0.00104863
0.000165919
0.00106265
0.00016291
0.00107647
0.000159671
0.00109008
0.000156192
0.00110345
0.000152461
0.00111658
0.000148466
0.00112945
0.000144197
0.00114206
0.000139638
0.00115438
0.000134779
0.0011664
0.000129604
0.00117811
0.000124099
0.00118951
0.000118249
0.00120056
0.000112039
0.00121127
0.000105453
0.00122163
9.84735e-05
0.0012316
9.10838e-05
0.0012412
8.32658e-05
0.00125041
7.50016e-05
0.0012592
6.62723e-05
0.00126759
5.70589e-05
0.00127555
4.73422e-05
0.00128308
3.71024e-05
0.00129018
2.632e-05
0.00129682
1.49751e-05
0.00130301
3.04696e-06
0.00130873
-9.46908e-06
0.00131397
-2.2589e-05
0.00131875
-3.63431e-05
0.00132304
-5.07529e-05
0.00132686
-6.5837e-05
0.00133018
-8.16121e-05
0.00133301
-9.80941e-05
0.00133534
-0.000115298
0.00133716
-0.00013324
0.00133847
-0.000151933
0.00133926
-0.000171391
0.00133952
-0.000191628
0.00133924
-0.000212658
0.00133841
-0.000234492
0.00133702
-0.000257143
0.00133507
-0.000280624
0.00133254
-0.000304948
0.00132942
-0.000330126
0.00132571
-0.000356171
0.0013214
-0.000383093
0.00131647
-0.000410899
0.00131091
-0.000439592
0.00130469
-0.000469169
0.00129781
-0.000499623
0.00129026
-0.000530954
0.00128208
-0.000563188
0.00127342
-0.000596405
0.00126455
-0.00063075
0.00125587
-0.000666415
0.0012477
-0.000703474
0.00123999
-0.000741599
0.00123147
-0.000779368
0.00121888
-0.000813646
0.00119655
-0.000839378
0.00115561
-0.000848509
0.00108285
-0.0008294
0.000960058
-0.000764655
0.0007688
-0.000635016
0.000505426
-0.000428804
0.000207224
-0.000175394
2.88638e-05
-3.63124e-05
0.00100221
0.000159095
-0.000987541
0.00101672
0.000156796
0.00103105
0.000154374
0.0010452
0.000151769
0.00105916
0.000148958
0.0010729
0.00014593
0.00108641
0.000142675
0.00109969
0.000139181
0.00111272
0.000135438
0.00112549
0.000131432
0.00113797
0.000127152
0.00115017
0.000122584
0.00116206
0.000117713
0.00117363
0.000112526
0.00118487
0.000107008
0.00119577
0.000101142
0.00120631
9.49127e-05
0.00121648
8.83022e-05
0.00122627
8.1293e-05
0.00123567
7.38669e-05
0.00124467
6.6005e-05
0.00125325
5.7688e-05
0.00126141
4.88961e-05
0.00126915
3.96093e-05
0.00127644
2.98072e-05
0.00128329
1.94693e-05
0.00128969
8.5748e-06
0.00129563
-2.8953e-06
0.0013011
-1.49392e-05
0.00130611
-2.75918e-05
0.00131064
-4.08768e-05
0.0013147
-5.48146e-05
0.00131829