/*--------------------------------*- C++ -*----------------------------------*\
| =========                 |                                                 |
| \\      /  F ield         | OpenFOAM: The Open Source CFD Toolbox           |
|  \\    /   O peration     | Version:  2312                                  |
|   \\  /    A nd           | Website:  www.openfoam.com                      |
|    \\/     M anipulation  |                                                 |
\*---------------------------------------------------------------------------*/
FoamFile
{
    version     2.0;
    format      ascii;
    arch        "LSB;label=32;scalar=64";
    class       volVectorField;
    location    "800";
    object      U;
}
// * * * * * * * * * * * * * * * * * * * * * * * * * * * * * * * * * * * * * //

dimensions      [0 1 -1 0 0 0 0];

internalField   nonuniform List<vector> 
76025
(
(0.0390912 -0.00848455 0)
(0.0392904 -0.00854012 1.35336e-21)
(0.0394958 -0.00858947 0)
(0.0397082 -0.00863575 0)
(0.0399075 -0.00867534 -2.57708e-21)
(0.0401247 -0.00871358 -5.0259e-21)
(0.0403297 -0.00874435 8.7323e-21)
(0.040539 -0.00877044 -3.71529e-21)
(0.0407515 -0.00879286 -1.21148e-21)
(0.040968 -0.00881218 1.1924e-21)
(0.0411815 -0.00882654 -6.84141e-24)
(0.0413956 -0.00883502 3.42469e-21)
(0.0416114 -0.00884084 -4.57879e-21)
(0.0418297 -0.00883869 0)
(0.042063 -0.00883425 1.10029e-21)
(0.0422852 -0.0088267 0)
(0.0425176 -0.00881155 0)
(0.0427443 -0.00879493 0)
(0.0429742 -0.00877072 1.03063e-21)
(0.0431988 -0.00874887 -1.01917e-21)
(0.0434306 -0.00871532 -1.00148e-21)
(0.0436713 -0.00867632 -2.93747e-21)
(0.0439124 -0.0086335 1.95654e-21)
(0.044157 -0.00858675 2.83807e-21)
(0.0444031 -0.00853659 -3.58346e-23)
(0.0446442 -0.00848708 8.85336e-22)
(0.0448965 -0.00842196 -2.69958e-21)
(0.0451397 -0.00835875 2.68398e-21)
(0.0453832 -0.00828815 -8.71886e-22)
(0.0456238 -0.00820875 8.54115e-22)
(0.0458615 -0.00813237 8.37818e-22)
(0.0460968 -0.00805552 -1.6372e-21)
(0.0463375 -0.00795721 2.4364e-21)
(0.0465721 -0.007869 3.75194e-22)
(0.0468034 -0.00776678 -1.8873e-21)
(0.0470268 -0.00767454 1.02762e-23)
(0.0472468 -0.00757411 3.46736e-22)
(0.0474698 -0.00745101 -1.65432e-22)
(0.0476925 -0.00733674 -1.60428e-25)
(0.0479101 -0.00721444 2.26062e-22)
(0.0481212 -0.00709892 -1.48137e-22)
(0.0483288 -0.00697609 6.96209e-23)
(0.0485424 -0.00683075 -1.33425e-22)
(0.0487566 -0.00669522 2.55068e-22)
(0.048968 -0.00655303 2.40384e-22)
(0.0491772 -0.00641918 -4.67485e-22)
(0.0493923 -0.00626788 -4.37577e-22)
(0.0496166 -0.00612096 1.2825e-21)
(0.0498421 -0.00597272 -8.0853e-22)
(0.0500717 -0.00582481 2.07493e-23)
(0.050308 -0.0056751 1.84981e-21)
(0.0505526 -0.00551901 6.91565e-22)
(0.0508088 -0.00535503 -6.69383e-22)
(0.0510776 -0.00518563 0)
(0.051362 -0.00501622 5.79977e-22)
(0.0516567 -0.00485941 5.62749e-22)
(0.0519663 -0.00469258 3.09125e-24)
(0.0522943 -0.00453 4.90295e-22)
(0.0526338 -0.0043698 -4.1315e-22)
(0.0529858 -0.00420866 1.14316e-21)
(0.0533586 -0.00402743 7.42944e-22)
(0.0537895 -0.00386561 1.04532e-22)
(0.0542535 -0.00370236 0)
(0.0547509 -0.00353736 -9.16185e-22)
(0.0553109 -0.00336019 9.17373e-23)
(0.0559364 -0.00320733 -7.95425e-23)
(0.0566085 -0.00303309 -2.02529e-22)
(0.0573969 -0.00277626 2.52314e-22)
(0.0584126 -0.00263467 1.33147e-21)
(0.0390095 -0.00884042 1.42739e-21)
(0.039222 -0.00889812 4.20752e-21)
(0.0394371 -0.00894986 -5.58563e-21)
(0.039655 -0.00899478 0)
(0.0398725 -0.0090372 6.68216e-21)
(0.0400935 -0.00907266 -6.32571e-23)
(0.0403156 -0.00910462 -5.23067e-21)
(0.0405364 -0.00913101 0)
(0.0407588 -0.00915189 -9.38409e-24)
(0.0409828 -0.00916828 -1.23416e-21)
(0.0412095 -0.00918023 1.21414e-21)
(0.0414364 -0.00918702 -7.12462e-24)
(0.0416627 -0.00918928 0)
(0.0418889 -0.00918699 0)
(0.0421173 -0.00917717 2.24215e-21)
(0.0423474 -0.0091655 -5.64362e-21)
(0.0425795 -0.00914633 -1.10551e-21)
(0.0428124 -0.00912435 3.23937e-21)
(0.0430462 -0.0090951 -2.15073e-21)
(0.0432794 -0.00906319 1.0486e-21)
(0.0435138 -0.00902542 -1.01481e-21)
(0.0437483 -0.00898234 2.04955e-21)
(0.0439839 -0.0089346 -1.98009e-21)
(0.0442209 -0.00888214 2.94919e-21)
(0.0444593 -0.00882459 -1.95168e-21)
(0.0446981 -0.00876399 -2.83264e-21)
(0.0449371 -0.00869648 1.88744e-21)
(0.0451754 -0.00862613 0)
(0.0454128 -0.00855114 0)
(0.045648 -0.00847075 8.88643e-22)
(0.0458837 -0.00838358 0)
(0.0461207 -0.00829341 8.60383e-22)
(0.0463551 -0.00819867 -8.35058e-22)
(0.0465874 -0.00810081 1.24031e-21)
(0.046818 -0.00799872 -7.38313e-26)
(0.0470473 -0.00789206 3.77099e-22)
(0.0472746 -0.00778034 0)
(0.0474994 -0.00766314 6.891e-22)
(0.0477239 -0.00754411 -4.99085e-22)
(0.0479476 -0.00742257 4.00586e-22)
(0.0481704 -0.00729715 -2.30211e-22)
(0.0483922 -0.00716702 5.48471e-24)
(0.0486142 -0.00703241 -7.35495e-23)
(0.0488382 -0.00689826 6.822e-23)
(0.0490643 -0.00676048 -5.10736e-22)
(0.049293 -0.00661928 2.46353e-22)
(0.0495252 -0.00647265 2.32771e-22)
(0.0497627 -0.00632641 -4.46733e-22)
(0.0500042 -0.00617815 -1.27475e-21)
(0.0502502 -0.00602666 9.61863e-24)
(0.0505013 -0.00587211 -1.15963e-21)
(0.0507583 -0.00571379 3.60771e-22)
(0.0510236 -0.00555236 1.02001e-21)
(0.0512993 -0.00539066 -6.75611e-22)
(0.0515861 -0.00522899 0)
(0.0518849 -0.00506762 -1.7456e-21)
(0.0521957 -0.00490564 3.04589e-23)
(0.0525215 -0.00474845 5.26173e-22)
(0.0528622 -0.00459496 4.9337e-22)
(0.0532204 -0.00444211 0)
(0.0536054 -0.00428481 -3.78233e-22)
(0.054028 -0.00413138 -1.0442e-21)
(0.0544885 -0.0039892 0)
(0.0549896 -0.00385205 4.51761e-22)
(0.0555447 -0.00371609 -3.16722e-22)
(0.0561698 -0.0035902 2.33877e-22)
(0.0568681 -0.00346775 -7.52338e-23)
(0.0576597 -0.00331503 -2.56762e-22)
(0.0586279 -0.00331179 -5.69229e-22)
(0.0389103 -0.00922361 -7.34805e-21)
(0.0391353 -0.00928286 4.42719e-21)
(0.039363 -0.00933597 -1.45049e-21)
(0.0395914 -0.00938213 5.63785e-21)
(0.0398213 -0.00942337 -7.0084e-21)
(0.040052 -0.0094594 -5.44671e-21)
(0.0402845 -0.0094905 6.7749e-21)
(0.0405183 -0.00951625 0)
(0.0407531 -0.00953672 -1.06253e-23)
(0.0409886 -0.00955187 0)
(0.0412249 -0.00956194 -1.26181e-21)
(0.041462 -0.00956675 1.2313e-21)
(0.0416993 -0.00956619 6.04053e-21)
(0.0419365 -0.00956063 -4.81208e-21)
(0.0421734 -0.00954953 1.17026e-21)
(0.0424111 -0.00953325 3.4406e-21)
(0.0426491 -0.00951166 -1.1564e-21)
(0.0428878 -0.0094847 -1.11304e-21)
(0.0431269 -0.00945248 -3.2745e-21)
(0.0433668 -0.00941465 2.17649e-21)
(0.0436065 -0.0093719 1.06189e-21)
(0.0438457 -0.00932415 -2.06714e-21)
(0.0440849 -0.00927141 1.04449e-21)
(0.0443241 -0.00921383 1.00932e-21)
(0.0445632 -0.00915154 0)
(0.044802 -0.00908466 -9.75689e-22)
(0.0450399 -0.00901339 -9.40141e-22)
(0.0452774 -0.00893744 9.64288e-22)
(0.0455146 -0.00885678 0)
(0.0457511 -0.0087717 -1.82651e-21)
(0.0459875 -0.00868143 8.98467e-22)
(0.0462232 -0.00858779 -5.61214e-25)
(0.0464575 -0.00849131 0)
(0.0466917 -0.00838918 -4.20295e-22)
(0.0469253 -0.00828263 1.20062e-21)
(0.0471582 -0.00817158 -7.84752e-22)
(0.0473898 -0.00805691 0)
(0.0476205 -0.00793839 -5.30573e-22)
(0.0478513 -0.00781598 5.1814e-22)
(0.0480822 -0.00769062 8.20155e-23)
(0.048313 -0.00756183 0)
(0.0485439 -0.00743 1.50736e-22)
(0.0487757 -0.00729477 7.12167e-23)
(0.0490094 -0.00715625 -6.80518e-23)
(0.0492453 -0.00701467 3.98677e-22)
(0.0494832 -0.00687048 2.53712e-22)
(0.0497238 -0.00672385 -4.82172e-22)
(0.0499681 -0.00657525 4.54341e-22)
(0.0502162 -0.00642463 -4.43254e-22)
(0.050468 -0.00627195 4.27422e-22)
(0.0507244 -0.00611728 3.97166e-22)
(0.0509865 -0.00596048 -7.69363e-22)
(0.051256 -0.00580178 0)
(0.0515344 -0.0056422 -6.98852e-22)
(0.0518228 -0.00548252 -2.37833e-23)
(0.0521222 -0.00532444 6.06498e-22)
(0.0524341 -0.00516879 5.72746e-22)
(0.0527606 -0.00501672 -1.10497e-21)
(0.0531035 -0.00486817 3.23084e-23)
(0.0534658 -0.00472293 -5.11172e-22)
(0.0538533 -0.00458117 9.64802e-22)
(0.0542739 -0.00444817 4.99823e-22)
(0.054732 -0.00432619 3.71602e-23)
(0.0552329 -0.00421464 3.57445e-22)
(0.0557876 -0.00411451 2.30689e-22)
(0.0564101 -0.00402835 8.04152e-22)
(0.0571109 -0.00395778 0)
(0.0579067 -0.00387553 -2.63873e-23)
(0.0588625 -0.00392366 2.57519e-23)
(0.0388004 -0.00963008 0)
(0.0390382 -0.00968957 1.51531e-21)
(0.0392792 -0.00974289 7.43934e-21)
(0.0395203 -0.00978939 -5.91478e-21)
(0.0397622 -0.00983022 -4.30198e-21)
(0.0400052 -0.00986578 7.13298e-21)
(0.0402495 -0.00989594 -1.38699e-21)
(0.040495 -0.0099206 1.37345e-21)
(0.0407415 -0.00993971 1.33873e-21)
(0.0409887 -0.00995328 5.24213e-21)
(0.0412363 -0.0099613 -5.23187e-21)
(0.0414843 -0.0099637 -5.05507e-21)
(0.0417327 -0.00996043 1.31202e-21)
(0.0419812 -0.00995148 4.91352e-21)
(0.0422296 -0.00993691 -3.64158e-21)
(0.0424778 -0.0099167 1.18721e-21)
(0.0427257 -0.00989095 -1.16609e-21)
(0.0429733 -0.00985957 -1.14542e-21)
(0.0432206 -0.00982272 3.35159e-21)
(0.0434676 -0.00978037 -1.12412e-21)
(0.0437143 -0.00973265 -1.08464e-21)
(0.0439607 -0.0096796 0)
(0.0442064 -0.00962135 -2.07808e-21)
(0.0444515 -0.0095581 1.0517e-21)
(0.0446959 -0.00948997 2.00692e-21)
(0.0449394 -0.00941708 1.95158e-21)
(0.045182 -0.00933946 -3.94002e-21)
(0.0454238 -0.00925708 1.92699e-21)
(0.0456648 -0.00917015 0)
(0.0459049 -0.00907881 1.86459e-21)
(0.0461443 -0.00898325 -1.14363e-23)
(0.0463829 -0.00888384 -1.8171e-21)
(0.0466206 -0.00878097 8.76281e-22)
(0.0468583 -0.00867249 -2.13247e-21)
(0.0470953 -0.00855993 4.20536e-22)
(0.0473314 -0.00844374 0)
(0.0475668 -0.00832418 0)
(0.0478016 -0.00820115 -1.81026e-22)
(0.0480364 -0.00807478 -1.7396e-22)
(0.0482713 -0.00794546 -8.33439e-23)
(0.0485064 -0.00781324 2.49794e-24)
(0.0487418 -0.00767805 -7.66241e-23)
(0.0489782 -0.00753985 0)
(0.049216 -0.00739895 2.18924e-25)
(0.0494555 -0.00725572 0)
(0.0496971 -0.00711026 -2.53058e-22)
(0.0499414 -0.00696251 7.65556e-24)
(0.0501887 -0.00681265 7.1265e-22)
(0.0504396 -0.00666102 0)
(0.0506944 -0.00650765 4.23652e-22)
(0.0509538 -0.00635258 -4.17927e-22)
(0.0512189 -0.00619608 7.79103e-22)
(0.051491 -0.00603861 0)
(0.0517714 -0.00588109 2.13749e-21)
(0.0520613 -0.00572454 -2.21832e-23)
(0.0523619 -0.00557009 -6.63467e-22)
(0.0526748 -0.00541851 -6.32893e-22)
(0.0530017 -0.00527101 0)
(0.0533447 -0.00512869 0)
(0.0537069 -0.0049928 5.17e-22)
(0.054093 -0.00486499 -9.75049e-22)
(0.0545087 -0.00474844 -9.12563e-22)
(0.05496 -0.00464636 0)
(0.0554542 -0.00456135 9.40441e-22)
(0.0560013 -0.00449585 0)
(0.0566155 -0.00445127 -8.60982e-22)
(0.0573084 -0.00443471 2.99147e-22)
(0.0581004 -0.00441946 1.25056e-22)
(0.059035 -0.00454764 1.89847e-22)
(0.0386988 -0.0100607 0)
(0.0389453 -0.0101192 0)
(0.0391967 -0.0101715 1.55709e-21)
(0.0394492 -0.0102168 -6.04535e-21)
(0.039703 -0.0102564 7.50958e-21)
(0.0399582 -0.0102905 -1.45949e-21)
(0.0402146 -0.010319 0)
(0.0404721 -0.0103419 -1.40679e-21)
(0.0407304 -0.0103589 0)
(0.0409894 -0.0103701 -2.69968e-21)
(0.0412488 -0.0103754 3.33335e-23)
(0.0415084 -0.0103747 2.63996e-21)
(0.0417683 -0.010368 0)
(0.0420281 -0.0103554 -2.50261e-21)
(0.0422877 -0.0103369 7.42883e-21)
(0.0425468 -0.0103124 -4.85814e-21)
(0.0428054 -0.0102821 5.96397e-21)
(0.0430633 -0.010246 -1.19339e-21)
(0.0433204 -0.0102042 1.15071e-21)
(0.0435765 -0.0101567 -1.12882e-21)
(0.0438318 -0.0101037 -1.08845e-21)
(0.0440862 -0.0100451 3.28905e-21)
(0.0443396 -0.00998124 2.13985e-21)
(0.0445918 -0.00991218 0)
(0.0448429 -0.00983812 -2.045e-21)
(0.0450927 -0.00975918 -9.73445e-22)
(0.0453413 -0.00967548 3.01583e-21)
(0.0455886 -0.00958719 -9.81941e-22)
(0.0458347 -0.0094945 1.90785e-21)
(0.0460795 -0.00939759 -2.86886e-21)
(0.0463232 -0.00929667 9.31522e-22)
(0.0465659 -0.00919193 -4.58115e-22)
(0.0468073 -0.00908361 0)
(0.0470483 -0.00897018 4.31895e-22)
(0.0472884 -0.00885288 4.14728e-22)
(0.0475277 -0.00873214 0)
(0.0477662 -0.00860814 -3.81412e-22)
(0.0480042 -0.00848097 5.45714e-22)
(0.0482419 -0.00835069 -3.56781e-22)
(0.0484798 -0.00821743 1.68899e-22)
(0.0487178 -0.00808135 2.52738e-24)
(0.0489563 -0.00794256 1.16011e-22)
(0.0491956 -0.00780124 -3.78006e-23)
(0.0494363 -0.00765756 -1.42814e-22)
(0.0496786 -0.00751166 -4.08395e-24)
(0.049923 -0.00736365 -7.90563e-22)
(0.0501699 -0.00721364 0)
(0.0504197 -0.00706188 -4.79245e-22)
(0.0506731 -0.00690862 8.39064e-24)
(0.0509305 -0.00675405 4.47408e-22)
(0.0511927 -0.00659839 0)
(0.0514607 -0.00644203 3.98798e-22)
(0.0517355 -0.00628544 -3.93489e-22)
(0.0520183 -0.00612938 -7.34749e-22)
(0.05231 -0.00597471 0)
(0.0526119 -0.00582253 1.35066e-21)
(0.0529251 -0.00567394 -1.32051e-21)
(0.0532513 -0.00553043 1.27266e-21)
(0.0535925 -0.0053936 1.40461e-23)
(0.0539515 -0.00526549 0)
(0.0543324 -0.00514864 5.70616e-22)
(0.0547402 -0.0050467 -5.23164e-22)
(0.0551814 -0.00496369 -6.17011e-22)
(0.0556639 -0.00490364 -9.49681e-22)
(0.0561974 -0.0048708 1.58636e-21)
(0.0567968 -0.00486768 -9.15216e-22)
(0.0574723 -0.00490484 4.3507e-22)
(0.0582507 -0.00495346 -5.78387e-22)
(0.0591462 -0.00516742 -6.09454e-22)
(0.0386131 -0.0105186 -6.54683e-21)
(0.0388664 -0.0105762 8.52524e-23)
(0.0391255 -0.010627 6.46619e-21)
(0.0393868 -0.0106705 0)
(0.0396503 -0.0107079 -1.53582e-21)
(0.0399159 -0.0107396 0)
(0.0401834 -0.0107657 2.94705e-21)
(0.0404522 -0.0107858 -4.27145e-23)
(0.040722 -0.0108 -4.30831e-21)
(0.0409925 -0.010808 1.40354e-21)
(0.0412635 -0.0108099 1.36959e-21)
(0.0415347 -0.0108055 1.34901e-21)
(0.0418059 -0.0107949 0)
(0.0420769 -0.0107781 0)
(0.0423475 -0.0107551 -1.26815e-21)
(0.0426175 -0.0107259 -1.24412e-21)
(0.0428868 -0.0106907 2.42189e-21)
(0.0431551 -0.0106494 -2.41907e-21)
(0.0434223 -0.0106022 -2.35127e-21)
(0.0436883 -0.0105491 2.286e-21)
(0.0439529 -0.0104903 -4.53038e-21)
(0.044216 -0.0104259 4.24899e-23)
(0.0444777 -0.010356 2.20281e-21)
(0.0447378 -0.0102809 1.07012e-21)
(0.0449964 -0.0102006 2.08252e-21)
(0.0452532 -0.0101154 -2.0888e-21)
(0.0455084 -0.0100254 -2.0085e-21)
(0.0457618 -0.00993096 2.01707e-21)
(0.0460136 -0.00983213 0)
(0.0462638 -0.00972917 0)
(0.0465125 -0.00962231 -2.35733e-21)
(0.0467598 -0.00951182 2.44578e-23)
(0.0470056 -0.00939725 9.17023e-22)
(0.0472504 -0.0092781 8.59459e-22)
(0.0474941 -0.00915516 -8.46312e-22)
(0.0477367 -0.00902885 0)
(0.0479784 -0.00889941 3.86098e-22)
(0.0482194 -0.00876704 5.50455e-22)
(0.0484599 -0.00863183 -3.60287e-22)
(0.0487003 -0.00849396 -2.28947e-25)
(0.0489408 -0.0083536 2.50815e-23)
(0.0491819 -0.0082109 -1.1857e-22)
(0.0494238 -0.00806607 -7.54037e-23)
(0.0496669 -0.00791921 -1.42778e-22)
(0.0499117 -0.00777046 6.91979e-22)
(0.0501585 -0.00761997 -4.10556e-24)
(0.0504078 -0.00746791 0)
(0.0506603 -0.00731445 4.90466e-22)
(0.0509163 -0.00715982 -1.40186e-21)
(0.0511767 -0.00700423 9.09299e-22)
(0.051442 -0.00684794 4.27149e-22)
(0.051713 -0.00669134 -2.70899e-24)
(0.0519906 -0.00653491 3.87308e-22)
(0.0522755 -0.00637939 -1.77846e-23)
(0.0525687 -0.00622562 -7.52285e-22)
(0.052871 -0.00607477 7.31299e-22)
(0.0531835 -0.00592811 6.9261e-22)
(0.0535076 -0.00578739 -1.35833e-21)
(0.053845 -0.0056546 2.39614e-23)
(0.0541983 -0.00553247 -6.49244e-22)
(0.0545711 -0.0054243 6.40563e-22)
(0.0549681 -0.00533445 -5.98621e-22)
(0.0553953 -0.0052679 1.17348e-21)
(0.0558609 -0.00523015 6.22007e-22)
(0.0563742 -0.0052275 -1.11984e-21)
(0.0569505 -0.00526388 7.45872e-22)
(0.0575978 -0.00535334 1.88743e-21)
(0.0583503 -0.00546539 3.36017e-22)
(0.0591837 -0.00575797 0)
(0.038538 -0.0110044 0)
(0.0388006 -0.0110615 -1.69544e-21)
(0.0390687 -0.0111112 1.43392e-23)
(0.0393387 -0.0111528 0)
(0.0396111 -0.0111879 0)
(0.0398861 -0.0112169 -1.56493e-21)
(0.0401634 -0.0112398 4.56903e-21)
(0.0404424 -0.0112565 -5.99492e-21)
(0.0407228 -0.011267 2.95322e-21)
(0.0410042 -0.011271 -1.43596e-21)
(0.0412861 -0.0112686 0)
(0.0415683 -0.0112598 -1.37977e-21)
(0.0418506 -0.0112444 1.35607e-21)
(0.0421325 -0.0112226 0)
(0.042414 -0.0111944 0)
(0.0426947 -0.0111597 -1.2518e-21)
(0.0429744 -0.0111187 4.59241e-23)
(0.043253 -0.0110715 2.47297e-21)
(0.0435301 -0.0110181 2.38009e-21)
(0.0438058 -0.0109587 -2.37825e-21)
(0.0440798 -0.0108934 -1.1555e-21)
(0.044352 -0.0108224 -4.50771e-21)
(0.0446223 -0.0107458 2.3587e-23)
(0.0448906 -0.0106638 1.06652e-21)
(0.0451569 -0.0105767 -2.16286e-21)
(0.0454211 -0.0104846 1.03016e-21)
(0.0456831 -0.0103878 -2.08508e-21)
(0.0459431 -0.0102865 0)
(0.0462009 -0.0101809 0)
(0.0464568 -0.0100712 0)
(0.0467107 -0.00995772 4.81012e-22)
(0.0469625 -0.00984089 9.34506e-22)
(0.0472129 -0.00971937 -9.23225e-22)
(0.0474618 -0.00959381 -8.6534e-22)
(0.047709 -0.00946481 8.52167e-22)
(0.0479549 -0.0093327 0)
(0.0481997 -0.00919773 -3.83774e-22)
(0.0484436 -0.00906013 1.91069e-22)
(0.0486869 -0.00892009 0)
(0.04893 -0.00877774 -1.72261e-22)
(0.0491732 -0.0086333 3.07763e-23)
(0.0494169 -0.00848689 -2.01277e-23)
(0.0496615 -0.00833863 7.63248e-23)
(0.0499073 -0.00818865 0)
(0.0501549 -0.00803708 2.77353e-22)
(0.0504046 -0.00788409 -2.73494e-22)
(0.0506569 -0.00772981 0)
(0.0509125 -0.00757442 -5.35413e-24)
(0.0511719 -0.00741809 -7.73212e-24)
(0.0514355 -0.00726107 -4.58118e-22)
(0.0517039 -0.00710362 0)
(0.0519778 -0.00694612 5.1741e-24)
(0.0522578 -0.00678906 4.08601e-22)
(0.0525445 -0.00663313 1.19256e-21)
(0.0528385 -0.00647919 2.21818e-24)
(0.0531406 -0.00632842 -7.40073e-22)
(0.0534515 -0.00618224 0)
(0.0537723 -0.00604259 0)
(0.0541047 -0.00591184 -7.30032e-22)
(0.0544506 -0.00579322 0)
(0.0548131 -0.00569068 0)
(0.0551964 -0.00560939 2.60457e-23)
(0.055606 -0.0055555 7.0874e-22)
(0.0560493 -0.00553603 1.52236e-21)
(0.0565351 -0.00555945 -1.53935e-21)
(0.0570792 -0.00563146 3.03033e-22)
(0.0576855 -0.00577027 -5.85079e-22)
(0.0583973 -0.00594159 -7.48535e-22)
(0.0591257 -0.00631301 0)
(0.0384646 -0.011518 0)
(0.0387404 -0.011575 1.73601e-21)
(0.0390209 -0.0116237 -5.09323e-21)
(0.0393024 -0.0116638 1.69159e-21)
(0.0395857 -0.0116967 0)
(0.0398713 -0.0117229 4.78904e-21)
(0.0401589 -0.0117425 -7.86209e-21)
(0.0404483 -0.0117555 4.8947e-23)
(0.0407391 -0.0117618 7.54215e-21)
(0.041031 -0.0117612 -1.50016e-21)
(0.0413235 -0.0117539 1.44876e-21)
(0.0416163 -0.0117397 1.41818e-21)
(0.0419092 -0.0117188 -4.13688e-21)
(0.0422018 -0.0116911 5.43515e-21)
(0.0424937 -0.0116566 -2.68551e-21)
(0.0427848 -0.0116156 1.2791e-21)
(0.0430748 -0.0115679 -5.10482e-21)
(0.0433634 -0.0115138 1.27549e-21)
(0.0436503 -0.0114534 -1.19987e-21)
(0.0439354 -0.0113868 1.24557e-21)
(0.0442185 -0.0113142 4.7531e-23)
(0.0444995 -0.0112358 6.91481e-21)
(0.0447782 -0.0111516 1.08456e-21)
(0.0450545 -0.0110621 -4.69706e-23)
(0.0453284 -0.0109674 -3.28006e-21)
(0.0455998 -0.0108677 1.06809e-21)
(0.0458687 -0.0107633 -2.06812e-21)
(0.046135 -0.0106544 3.0984e-21)
(0.0463989 -0.0105413 0)
(0.0466602 -0.0104244 9.7743e-22)
(0.0469192 -0.0103038 -9.83099e-22)
(0.0471755 -0.01018 3.16104e-24)
(0.0474304 -0.0100513 4.56768e-22)
(0.0476832 -0.00991902 4.38939e-22)
(0.0479342 -0.00978369 -1.25848e-21)
(0.0481836 -0.00964558 8.24082e-22)
(0.0484316 -0.00950494 -5.81439e-22)
(0.0486787 -0.00936199 7.5223e-22)
(0.0489251 -0.00921693 -3.66019e-22)
(0.0491712 -0.00906992 8.7011e-23)
(0.0494175 -0.00892111 0)
(0.0496642 -0.00877064 -7.91069e-23)
(0.0499117 -0.00861867 7.79832e-23)
(0.0501606 -0.00846531 1.45985e-22)
(0.0504113 -0.0083107 -4.24469e-22)
(0.0506642 -0.00815497 2.79821e-22)
(0.0509199 -0.00799824 2.65904e-22)
(0.0511787 -0.00784065 0)
(0.0514413 -0.00768235 9.67091e-22)
(0.051708 -0.00752355 -9.37277e-22)
(0.0519794 -0.00736448 4.51145e-22)
(0.0522558 -0.00720549 -4.42967e-22)
(0.0525378 -0.00704702 -4.32573e-22)
(0.0528258 -0.00688973 -8.21085e-22)
(0.0531202 -0.00673446 -7.91298e-22)
(0.0534216 -0.0065824 0)
(0.0537305 -0.00643504 7.8058e-22)
(0.0540477 -0.00629445 0)
(0.0543743 -0.00616326 -2.60764e-23)
(0.0547117 -0.00604507 7.41925e-22)
(0.0550623 -0.00594439 -7.58736e-22)
(0.0554294 -0.00586725 -7.50511e-22)
(0.0558175 -0.00582093 8.50086e-22)
(0.0562332 -0.00581413 7.4762e-23)
(0.0566838 -0.00585747 -4.06525e-23)
(0.0571852 -0.00595846 -2.66632e-21)
(0.0577342 -0.00614035 -1.05086e-21)
(0.0583803 -0.00636304 -9.79492e-22)
(0.0589335 -0.00680536 9.56136e-22)
(0.0383875 -0.0120606 0)
(0.038679 -0.0121174 0)
(0.0389748 -0.0121654 -3.49737e-21)
(0.039271 -0.0122039 5.19235e-21)
(0.0395682 -0.0122347 1.69212e-21)
(0.0398671 -0.0122582 0)
(0.0401674 -0.0122745 0)
(0.0404689 -0.0122836 -1.58468e-21)
(0.0407715 -0.0122855 3.07013e-21)
(0.0410749 -0.01228 -4.87251e-23)
(0.0413786 -0.0122672 -7.40951e-21)
(0.0416825 -0.0122472 1.47751e-21)
(0.0419862 -0.01222 -1.39347e-21)
(0.0422895 -0.0121857 2.80284e-21)
(0.0425919 -0.0121443 -1.35741e-21)
(0.0428933 -0.012096 0)
(0.0431933 -0.0120409 0)
(0.0434917 -0.011979 2.40483e-23)
(0.0437882 -0.0119106 3.76264e-21)
(0.0440825 -0.0118359 -1.22253e-21)
(0.0443746 -0.0117551 1.1921e-21)
(0.0446641 -0.0116683 -1.17314e-21)
(0.044951 -0.0115758 -1.12626e-21)
(0.0452351 -0.0114778 1.15206e-21)
(0.0455163 -0.0113747 1.1044e-21)
(0.0457947 -0.0112666 0)
(0.0460701 -0.0111538 0)
(0.0463425 -0.0110367 -1.55913e-21)
(0.0466121 -0.0109155 0)
(0.0468788 -0.0107906 -9.88331e-22)
(0.0471428 -0.0106622 9.93814e-22)
(0.0474038 -0.0105305 4.80754e-22)
(0.0476629 -0.0103943 -4.61988e-22)
(0.0479198 -0.0102549 -8.8444e-22)
(0.0481745 -0.0101127 4.26744e-22)
(0.0484274 -0.00996823 4.03998e-22)
(0.0486788 -0.00982154 -3.96571e-22)
(0.0489291 -0.0096729 0)
(0.0491786 -0.00952251 0)
(0.0494278 -0.00937052 -8.70075e-23)
(0.0496771 -0.00921711 0)
(0.0499268 -0.00906242 0)
(0.0501774 -0.00890657 2.30443e-22)
(0.0504293 -0.00874969 -2.99662e-22)
(0.050683 -0.00859187 1.43015e-22)
(0.050939 -0.00843321 -2.76014e-22)
(0.0511977 -0.0082738 0)
(0.0514596 -0.00811374 -7.60928e-22)
(0.0517251 -0.00795313 6.24835e-24)
(0.0519947 -0.00779212 0)
(0.0522686 -0.0076309 9.19287e-22)
(0.0525473 -0.00746976 4.47287e-24)
(0.0528312 -0.00730909 8.66651e-22)
(0.0531204 -0.00714947 4.23608e-22)
(0.0534154 -0.00699167 8.23253e-22)
(0.0537163 -0.00683684 -8.11923e-22)
(0.0540235 -0.00668644 -7.90023e-22)
(0.0543372 -0.00654257 0)
(0.0546579 -0.00640798 8.12188e-22)
(0.0549864 -0.00628651 -9.86559e-24)
(0.0553239 -0.00618311 0)
(0.0556725 -0.00610458 0)
(0.0560355 -0.00605938 -8.54611e-22)
(0.056418 -0.00605762 0)
(0.0568252 -0.00611191 0)
(0.0572735 -0.00623064 1.03664e-21)
(0.0577431 -0.00644339 9.0833e-22)
(0.0582828 -0.00669634 1.35772e-21)
(0.0585377 -0.0071786 0)
(0.0383064 -0.0126348 0)
(0.0386146 -0.0126911 0)
(0.0389272 -0.012738 0)
(0.0392399 -0.0127748 1.77906e-21)
(0.0395534 -0.0128032 1.71195e-21)
(0.0398679 -0.0128238 -5.57901e-23)
(0.0401833 -0.0128367 -3.34592e-21)
(0.0404995 -0.0128417 1.61928e-21)
(0.0408161 -0.0128389 -1.58646e-21)
(0.041133 -0.0128282 -3.09888e-21)
(0.0414497 -0.0128097 0)
(0.041766 -0.0127834 0)
(0.0420818 -0.0127495 -2.61499e-23)
(0.0423967 -0.012708 -4.27304e-21)
(0.0427104 -0.012659 5.50904e-21)
(0.0430227 -0.0126027 -5.37855e-23)
(0.0433332 -0.0125393 -2.6742e-21)
(0.0436417 -0.0124689 -1.2969e-21)
(0.0439479 -0.0123917 -6.48614e-24)
(0.0442515 -0.012308 0)
(0.0445525 -0.012218 -2.42339e-21)
(0.0448505 -0.0121219 0)
(0.0451455 -0.01202 -2.32187e-21)
(0.0454373 -0.0119126 3.39108e-21)
(0.0457258 -0.0118001 -3.3621e-21)
(0.0460109 -0.0116826 -1.08631e-21)
(0.0462926 -0.0115606 1.58979e-21)
(0.046571 -0.0114344 -1.57114e-21)
(0.046846 -0.0113043 1.04067e-21)
(0.0471178 -0.0111707 0)
(0.0473863 -0.0110339 9.78195e-22)
(0.047652 -0.0108933 4.53697e-22)
(0.0479151 -0.010749 -9.33743e-22)
(0.0481756 -0.0106019 8.86146e-22)
(0.0484338 -0.0104525 -4.21185e-22)
(0.0486899 -0.0103011 4.14917e-22)
(0.0489444 -0.010148 1.97908e-22)
(0.0491977 -0.00999325 -1.88677e-22)
(0.0494501 -0.00983719 -8.93715e-23)
(0.049702 -0.00967995 2.65461e-22)
(0.049954 -0.00952167 2.09777e-23)
(0.0502064 -0.0093625 0)
(0.0504597 -0.00920254 -7.81647e-23)
(0.0507143 -0.00904189 1.50339e-22)
(0.0509706 -0.0088806 -1.44625e-22)
(0.0512293 -0.00871875 0)
(0.0514907 -0.00855638 0)
(0.0517552 -0.00839354 -2.52412e-22)
(0.0520234 -0.00823028 5.03903e-22)
(0.0522955 -0.00806669 9.58656e-22)
(0.0525719 -0.00790289 -1.86631e-21)
(0.052853 -0.00773907 4.5468e-22)
(0.053139 -0.00757552 -4.43945e-22)
(0.0534301 -0.00741267 -4.28784e-22)
(0.0537263 -0.0072512 8.45717e-22)
(0.0540276 -0.00709205 -8.34125e-22)
(0.0543339 -0.0069366 0)
(0.054645 -0.00678682 8.3739e-22)
(0.0549605 -0.00664542 5.897e-24)
(0.0552801 -0.0065163 -8.41084e-22)
(0.0556037 -0.0064047 0)
(0.0559319 -0.00631802 0)
(0.0562662 -0.00626559 0)
(0.0566097 -0.0062591 -2.19188e-21)
(0.0569672 -0.00631461 -1.31102e-21)
(0.057353 -0.00643717 -1.29142e-21)
(0.0577148 -0.00666198 2.57508e-21)
(0.0580922 -0.00690138 2.57387e-22)
(0.0578367 -0.00741222 -1.75402e-21)
(0.0382239 -0.013244 0)
(0.0385493 -0.0132993 3.79309e-21)
(0.0388794 -0.0133446 -4.703e-21)
(0.0392095 -0.0133791 2.71212e-21)
(0.0395402 -0.0134047 -5.37751e-21)
(0.0398718 -0.0134219 -1.74227e-21)
(0.040204 -0.0134308 -1.70099e-21)
(0.0405366 -0.0134313 0)
(0.0408692 -0.0134233 3.24104e-21)
(0.0412015 -0.0134069 3.1374e-21)
(0.0415331 -0.0133821 -3.12185e-21)
(0.0418638 -0.0133491 1.50776e-21)
(0.0421933 -0.0133078 -1.44451e-21)
(0.0425214 -0.0132584 1.49997e-21)
(0.0428477 -0.0132012 5.62267e-21)
(0.043172 -0.0131362 -5.65207e-23)
(0.043494 -0.0130638 -5.59139e-23)
(0.0438135 -0.0129839 -2.6527e-21)
(0.0441301 -0.0128971 -1.28655e-21)
(0.0444436 -0.0128035 -2.48133e-21)
(0.0447539 -0.0127033 2.48964e-21)
(0.0450607 -0.012597 0)
(0.0453639 -0.0124848 1.0869e-23)
(0.0456634 -0.012367 0)
(0.045959 -0.0122441 1.12924e-21)
(0.0462508 -0.0121164 1.10599e-21)
(0.0465387 -0.0119842 -5.41772e-22)
(0.0468227 -0.0118479 0)
(0.047103 -0.011708 -5.1466e-22)
(0.0473796 -0.0115648 -1.00347e-21)
(0.0476522 -0.0114188 1.00759e-21)
(0.0479222 -0.0112686 -4.81974e-22)
(0.0481889 -0.0111156 9.10761e-22)
(0.0484527 -0.0109603 -1.7804e-21)
(0.0487139 -0.0108031 4.31368e-22)
(0.0489729 -0.0106443 0)
(0.04923 -0.0104842 1.96058e-22)
(0.0494857 -0.010323 1.97885e-24)
(0.0497404 -0.0101609 -2.71965e-22)
(0.0499946 -0.00999803 2.21059e-22)
(0.0502487 -0.00983457 -4.29388e-23)
(0.0505032 -0.00967062 1.20641e-22)
(0.0507585 -0.00950627 -7.91178e-23)
(0.0510152 -0.00934159 0)
(0.0512738 -0.00917663 0)
(0.0515347 -0.00901139 0)
(0.0517984 -0.00884589 -2.68218e-22)
(0.0520654 -0.00868011 -2.58968e-22)
(0.0523361 -0.00851404 0)
(0.0526109 -0.00834767 -4.89513e-22)
(0.0528902 -0.00818101 -4.74247e-22)
(0.0531742 -0.00801412 -4.57424e-22)
(0.0534631 -0.00784714 0)
(0.053757 -0.00768029 0)
(0.0540557 -0.00751402 8.62866e-22)
(0.0543589 -0.00734902 -8.51182e-22)
(0.0546659 -0.00718641 0)
(0.054976 -0.00702786 -8.48151e-22)
(0.0552876 -0.00687584 8.59676e-22)
(0.0555992 -0.00673405 9.0094e-22)
(0.0559089 -0.00660775 -9.66887e-22)
(0.0562158 -0.0065045 9.46975e-22)
(0.0565196 -0.00643514 0)
(0.0568242 -0.00641313 1.11065e-21)
(0.0571313 -0.00645414 -1.38792e-22)
(0.0574396 -0.00655948 2.86183e-21)
(0.0576434 -0.00676725 3.40998e-21)
(0.0577422 -0.0069429 -3.40966e-21)
(0.0566614 -0.00743862 1.86334e-21)
(0.038143 -0.013892 1.00166e-21)
(0.0384863 -0.0139459 0)
(0.0388344 -0.0139889 9.5692e-22)
(0.0391824 -0.0140205 -4.64437e-21)
(0.0395311 -0.0140425 8.21436e-21)
(0.0398806 -0.0140556 -1.81616e-21)
(0.0402305 -0.0140598 1.73749e-21)
(0.0405806 -0.0140549 -3.36032e-21)
(0.0409304 -0.0140411 1.68644e-21)
(0.0412794 -0.0140183 1.61503e-21)
(0.0416273 -0.0139864 1.57139e-21)
(0.0419739 -0.0139457 -4.57988e-21)
(0.0423186 -0.0138963 1.53419e-21)
(0.0426614 -0.0138384 -4.35221e-21)
(0.0430017 -0.013772 -1.37073e-21)
(0.0433394 -0.0136975 5.93321e-23)
(0.0436741 -0.013615 2.74873e-21)
(0.0440056 -0.0135249 0)
(0.0443336 -0.0134274 0)
(0.0446578 -0.0133228 1.25893e-21)
(0.0449782 -0.0132116 1.24267e-21)
(0.0452943 -0.013094 2.39101e-21)
(0.0456062 -0.0129705 -1.20312e-21)
(0.0459136 -0.0128414 -2.28607e-21)
(0.0462166 -0.0127071 2.28866e-21)
(0.0465151 -0.0125681 -5.49611e-22)
(0.0468091 -0.0124248 -5.38022e-22)
(0.0470988 -0.0122775 0)
(0.047384 -0.0121269 5.23204e-22)
(0.0476651 -0.0119732 1.0071e-21)
(0.0479418 -0.0118168 -2.43154e-23)
(0.0482152 -0.0116566 -9.67368e-22)
(0.0484851 -0.011494 4.55933e-22)
(0.0487517 -0.0113297 0)
(0.0490153 -0.0111641 -2.10988e-22)
(0.0492764 -0.0109973 2.03045e-22)
(0.0495354 -0.0108298 -1.97896e-22)
(0.0497928 -0.0106616 3.7846e-22)
(0.0500492 -0.010493 0)
(0.0503049 -0.0103242 4.3535e-23)
(0.0505605 -0.0101552 -4.21463e-23)
(0.0508164 -0.00998626 5.95934e-23)
(0.0510734 -0.00981735 -2.33601e-22)
(0.0513317 -0.00964854 4.50028e-22)
(0.0515921 -0.00947982 -2.93605e-22)
(0.051855 -0.00931116 -2.7675e-22)
(0.0521209 -0.00914252 2.75561e-22)
(0.0523904 -0.0089738 -5.14184e-22)
(0.052664 -0.00880491 5.09731e-22)
(0.052942 -0.00863572 1.21816e-21)
(0.0532248 -0.0084661 -2.79725e-24)
(0.0535127 -0.00829594 4.62786e-22)
(0.0538057 -0.00812514 0)
(0.0541039 -0.00795367 0)
(0.0544068 -0.00778166 8.73203e-22)
(0.0547139 -0.00760942 -1.30155e-21)
(0.0550239 -0.00743759 8.57786e-22)
(0.0553352 -0.00726733 0)
(0.0556452 -0.0071006 -8.8619e-22)
(0.0559508 -0.00694056 -1.86453e-21)
(0.0562489 -0.00679211 9.75784e-22)
(0.0565382 -0.00666288 9.60208e-23)
(0.056819 -0.00656414 -1.0651e-21)
(0.0570937 -0.00650913 -6.6181e-23)
(0.057347 -0.00651085 2.84122e-21)
(0.0575375 -0.00656674 -3.05142e-21)
(0.0574724 -0.00671202 -1.75313e-21)
(0.0570311 -0.00678444 0)
(0.0545525 -0.00726589 0)
(0.0380662 -0.014583 -1.02386e-21)
(0.0384283 -0.0146349 -5.00945e-21)
(0.0387954 -0.0146751 3.96974e-21)
(0.0391624 -0.0147031 0)
(0.0395298 -0.0147208 9.33081e-22)
(0.0398979 -0.014729 3.60619e-21)
(0.0402664 -0.0147275 -2.69669e-21)
(0.0406347 -0.0147165 4.28604e-21)
(0.0410025 -0.0146958 -3.40299e-21)
(0.0413692 -0.0146655 0)
(0.0417344 -0.0146256 -8.0531e-22)
(0.0420978 -0.0145763 0)
(0.0424589 -0.0145177 -1.48212e-21)
(0.0428173 -0.01445 4.47778e-21)
(0.0431727 -0.0143734 0)
(0.0435248 -0.0142882 0)
(0.0438733 -0.0141946 0)
(0.0442177 -0.014093 1.98155e-21)
(0.0445579 -0.0139837 -2.64066e-21)
(0.0448936 -0.013867 -1.281e-21)
(0.0452246 -0.0137434 0)
(0.0455506 -0.0136134 0)
(0.0458716 -0.0134772 0)
(0.0461875 -0.0133355 2.8675e-21)
(0.0464981 -0.0131887 -3.415e-21)
(0.0468034 -0.0130373 1.68063e-21)
(0.0471034 -0.0128817 1.0845e-21)
(0.0473984 -0.0127225 -1.04997e-21)
(0.0476884 -0.0125601 1.05338e-21)
(0.0479734 -0.0123952 -5.05294e-22)
(0.0482541 -0.012227 9.7525e-22)