/*--------------------------------*- C++ -*----------------------------------*\
| =========                 |                                                 |
| \\      /  F ield         | OpenFOAM: The Open Source CFD Toolbox           |
|  \\    /   O peration     | Version:  2312                                  |
|   \\  /    A nd           | Website:  www.openfoam.com                      |
|    \\/     M anipulation  |                                                 |
\*---------------------------------------------------------------------------*/
FoamFile
{
    version     2.0;
    format      ascii;
    arch        "LSB;label=32;scalar=64";
    class       volScalarField;
    location    "1900";
    object      k;
}
// * * * * * * * * * * * * * * * * * * * * * * * * * * * * * * * * * * * * * //

dimensions      [0 2 -2 0 0 0 0];

internalField   nonuniform List<scalar> 
76025
(
4.93513e-06
4.9319e-06
4.92753e-06
4.92379e-06
4.92259e-06
4.92312e-06
4.92247e-06
4.9215e-06
4.91895e-06
4.91531e-06
4.91535e-06
4.91521e-06
4.91435e-06
4.91145e-06
4.91115e-06
4.90958e-06
4.90914e-06
4.90926e-06
4.90997e-06
4.91121e-06
4.91382e-06
4.91734e-06
4.92094e-06
4.92608e-06
4.93406e-06
4.94044e-06
4.95261e-06
4.96176e-06
4.97608e-06
4.98886e-06
5.00518e-06
5.01971e-06
5.04064e-06
5.05974e-06
5.08257e-06
5.10523e-06
5.13126e-06
5.16067e-06
5.19056e-06
5.22221e-06
5.25536e-06
5.29278e-06
5.33286e-06
5.37541e-06
5.42127e-06
5.4726e-06
5.52851e-06
5.59143e-06
5.66395e-06
5.74396e-06
5.84044e-06
5.94904e-06
6.08044e-06
6.23006e-06
6.42719e-06
6.65486e-06
6.94612e-06
7.31696e-06
7.80846e-06
8.53054e-06
9.45018e-06
1.08298e-05
1.26962e-05
1.50997e-05
1.81004e-05
2.14647e-05
2.53729e-05
2.97997e-05
3.50299e-05
5.02138e-06
5.02338e-06
5.02341e-06
5.02286e-06
5.02235e-06
5.02223e-06
5.02181e-06
5.02088e-06
5.02202e-06
5.02197e-06
5.02197e-06
5.02056e-06
5.0222e-06
5.0224e-06
5.02238e-06
5.02111e-06
5.02449e-06
5.02554e-06
5.02413e-06
5.02409e-06
5.02634e-06
5.02978e-06
5.03464e-06
5.04038e-06
5.04828e-06
5.05619e-06
5.0666e-06
5.07774e-06
5.09082e-06
5.10548e-06
5.12198e-06
5.13889e-06
5.15848e-06
5.1791e-06
5.2019e-06
5.22663e-06
5.25323e-06
5.28229e-06
5.31328e-06
5.34679e-06
5.38364e-06
5.4232e-06
5.46682e-06
5.51445e-06
5.56779e-06
5.62715e-06
5.69355e-06
5.76923e-06
5.85512e-06
5.9549e-06
6.06876e-06
6.20386e-06
6.36121e-06
6.55344e-06
6.78627e-06
7.07883e-06
7.45766e-06
7.95749e-06
8.64977e-06
9.58051e-06
1.08733e-05
1.25803e-05
1.47385e-05
1.73785e-05
2.04745e-05
2.40547e-05
2.81589e-05
3.2522e-05
3.77475e-05
5.12123e-06
5.12284e-06
5.12455e-06
5.12608e-06
5.12669e-06
5.13156e-06
5.13297e-06
5.13161e-06
5.13118e-06
5.13152e-06
5.13296e-06
5.13506e-06
5.13558e-06
5.14239e-06
5.14473e-06
5.14284e-06
5.14257e-06
5.14317e-06
5.14458e-06
5.14678e-06
5.15025e-06
5.15479e-06
5.16061e-06
5.16747e-06
5.17583e-06
5.18514e-06
5.19587e-06
5.20788e-06
5.22148e-06
5.23659e-06
5.25355e-06
5.27196e-06
5.29229e-06
5.3145e-06
5.3388e-06
5.36538e-06
5.39445e-06
5.42618e-06
5.46076e-06
5.49853e-06
5.54005e-06
5.58571e-06
5.63611e-06
5.69205e-06
5.75455e-06
5.82462e-06
5.90383e-06
5.99358e-06
6.09666e-06
6.21509e-06
6.35342e-06
6.51573e-06
6.71045e-06
6.94725e-06
7.24221e-06
7.6203e-06
8.11367e-06
8.7765e-06
9.66621e-06
1.08656e-05
1.24347e-05
1.44231e-05
1.68531e-05
1.97341e-05
2.30521e-05
2.67918e-05
3.09249e-05
3.53231e-05
4.01897e-05
5.24184e-06
5.24227e-06
5.24305e-06
5.2446e-06
5.24654e-06
5.24949e-06
5.25202e-06
5.25375e-06
5.25541e-06
5.257e-06
5.25927e-06
5.26196e-06
5.26429e-06
5.26764e-06
5.27067e-06
5.27298e-06
5.27544e-06
5.27833e-06
5.28187e-06
5.28614e-06
5.29137e-06
5.29757e-06
5.30488e-06
5.31327e-06
5.3229e-06
5.33374e-06
5.34588e-06
5.3594e-06
5.37449e-06
5.39121e-06
5.40974e-06
5.43014e-06
5.4526e-06
5.47732e-06
5.50442e-06
5.5342e-06
5.56693e-06
5.60287e-06
5.64236e-06
5.68579e-06
5.73377e-06
5.78681e-06
5.84568e-06
5.91135e-06
5.98492e-06
6.06785e-06
6.16173e-06
6.26889e-06
6.39206e-06
6.53519e-06
6.70324e-06
6.9038e-06
7.14733e-06
7.44937e-06
7.83297e-06
8.33016e-06
8.98661e-06
9.85828e-06
1.10104e-05
1.25013e-05
1.43731e-05
1.66496e-05
1.93299e-05
2.24147e-05
2.58705e-05
2.96907e-05
3.38259e-05
3.81408e-05
4.25675e-05
5.39559e-06
5.39372e-06
5.39615e-06
5.39697e-06
5.39582e-06
5.39643e-06
5.39824e-06
5.40046e-06
5.40297e-06
5.40562e-06
5.40866e-06
5.41202e-06
5.41553e-06
5.41937e-06
5.42341e-06
5.42758e-06
5.43206e-06
5.43698e-06
5.44256e-06
5.44889e-06
5.45608e-06
5.46421e-06
5.47339e-06
5.48367e-06
5.49518e-06
5.50797e-06
5.52212e-06
5.53777e-06
5.55508e-06
5.57419e-06
5.59528e-06
5.6185e-06
5.64409e-06
5.67225e-06
5.70319e-06
5.73724e-06
5.77477e-06
5.81611e-06
5.86174e-06
5.91211e-06
5.96795e-06
6.02989e-06
6.0989e-06
6.17613e-06
6.26303e-06
6.36135e-06
6.47338e-06
6.60207e-06
6.75143e-06
6.92689e-06
7.13608e-06
7.38987e-06
7.70377e-06
8.10004e-06
8.60924e-06
9.27264e-06
1.014e-05
1.12671e-05
1.27038e-05
1.44883e-05
1.66392e-05
1.91621e-05
2.20469e-05
2.5287e-05
2.88439e-05
3.27065e-05
3.67839e-05
4.09178e-05
4.46617e-05
5.57926e-06
5.57896e-06
5.57655e-06
5.58032e-06
5.58096e-06
5.57844e-06
5.5771e-06
5.57807e-06
5.5805e-06
5.58372e-06
5.58752e-06
5.59177e-06
5.59636e-06
5.60134e-06
5.60673e-06
5.61256e-06
5.61887e-06
5.62576e-06
5.63334e-06
5.64171e-06
5.65096e-06
5.66121e-06
5.67254e-06
5.68505e-06
5.69886e-06
5.71403e-06
5.7307e-06
5.74902e-06
5.76918e-06
5.79135e-06
5.81575e-06
5.84259e-06
5.87213e-06
5.90463e-06
5.94038e-06
5.97976e-06
6.02322e-06
6.0712e-06
6.12429e-06
6.18309e-06
6.24845e-06
6.32123e-06
6.40264e-06
6.4942e-06
6.59782e-06
6.71593e-06
6.85171e-06
7.00946e-06
7.19502e-06
7.41646e-06
7.6851e-06
8.01672e-06
8.43315e-06
8.96367e-06
9.64579e-06
1.0524e-05
1.16454e-05
1.30532e-05
1.47784e-05
1.68392e-05
1.92373e-05
2.19686e-05
2.50174e-05
2.83704e-05
3.19816e-05
3.58254e-05
3.97627e-05
4.35374e-05
4.64175e-05
5.79496e-06
5.79579e-06
5.7953e-06
5.79564e-06
5.79744e-06
5.79779e-06
5.80219e-06
5.79979e-06
5.79872e-06
5.80003e-06
5.80313e-06
5.80752e-06
5.81286e-06
5.81901e-06
5.82584e-06
5.83331e-06
5.84145e-06
5.85031e-06
5.85996e-06
5.8705e-06
5.88202e-06
5.89462e-06
5.90841e-06
5.92352e-06
5.93999e-06
5.95799e-06
5.97766e-06
5.9992e-06
6.02281e-06
6.04871e-06
6.07714e-06
6.10838e-06
6.14275e-06
6.18055e-06
6.22216e-06
6.26807e-06
6.31881e-06
6.37495e-06
6.43726e-06
6.50653e-06
6.58385e-06
6.67043e-06
6.76783e-06
6.87821e-06
7.00424e-06
7.14946e-06
7.31859e-06
7.51799e-06
7.75639e-06
8.04567e-06
8.40205e-06
8.84713e-06
9.40889e-06
1.01217e-05
1.10246e-05
1.21576e-05
1.35563e-05
1.52466e-05
1.7242e-05
1.95461e-05
2.21508e-05
2.50472e-05
2.82149e-05
3.16324e-05
3.52436e-05
3.89947e-05
4.26648e-05
4.58478e-05
4.7651e-05
6.0596e-06
6.06025e-06
6.0568e-06
6.05406e-06
6.05449e-06
6.05876e-06
6.06777e-06
6.06513e-06
6.06196e-06
6.06142e-06
6.06339e-06
6.06742e-06
6.07304e-06
6.07996e-06
6.08794e-06
6.09687e-06
6.10671e-06
6.11748e-06
6.12923e-06
6.14203e-06
6.15598e-06
6.17116e-06
6.18773e-06
6.20573e-06
6.22529e-06
6.24658e-06
6.26981e-06
6.29517e-06
6.32292e-06
6.35332e-06
6.38666e-06
6.4233e-06
6.46362e-06
6.50798e-06
6.55693e-06
6.61103e-06
6.671e-06
6.73762e-06
6.81186e-06
6.89487e-06
6.98807e-06
7.0933e-06
7.21272e-06
7.34948e-06
7.50759e-06
7.69233e-06
7.91078e-06
8.1724e-06
8.48982e-06
8.87966e-06
9.36333e-06
9.96732e-06
1.07228e-05
1.16637e-05
1.28232e-05
1.42301e-05
1.59045e-05
1.78571e-05
2.00889e-05
2.25953e-05
2.53628e-05
2.83793e-05
3.16186e-05
3.50467e-05
3.85901e-05
4.21412e-05
4.53497e-05
4.76256e-05
4.82493e-05
6.37151e-06
6.37825e-06
6.37464e-06
6.37779e-06
6.37371e-06
6.37255e-06
6.3738e-06
6.38763e-06
6.39207e-06
6.38808e-06
6.38545e-06
6.38632e-06
6.39014e-06
6.39635e-06
6.40447e-06
6.41416e-06
6.42525e-06
6.43766e-06
6.45136e-06
6.46641e-06
6.48285e-06
6.50083e-06
6.52037e-06
6.5416e-06
6.56468e-06
6.58982e-06
6.61724e-06
6.6472e-06
6.67999e-06
6.71594e-06
6.75541e-06
6.79887e-06
6.84677e-06
6.89961e-06
6.95811e-06
7.02304e-06
7.09534e-06
7.17611e-06
7.26672e-06
7.36886e-06
7.48457e-06
7.61665e-06
7.76828e-06
7.94424e-06
8.15057e-06
8.39517e-06
8.68835e-06
9.04345e-06
9.47741e-06
1.00111e-05
1.06693e-05
1.14797e-05
1.24709e-05
1.36699e-05
1.50989e-05
1.67729e-05
1.86997e-05
2.08789e-05
2.33052e-05
2.59688e-05
2.8853e-05
3.19418e-05
3.5199e-05
3.85702e-05
4.19504e-05
4.51326e-05
4.75951e-05
4.84367e-05
4.84277e-05
6.74908e-06
6.75135e-06
6.75395e-06
6.76583e-06
6.768e-06
6.76218e-06
6.76093e-06
6.76475e-06
6.77179e-06
6.78804e-06
6.79244e-06
6.78677e-06
6.78498e-06
6.78778e-06
6.79403e-06
6.80302e-06
6.81431e-06
6.82761e-06
6.84281e-06
6.85984e-06
6.87876e-06
6.89954e-06
6.92227e-06
6.9471e-06
6.97424e-06
7.00392e-06
7.03641e-06
7.07203e-06
7.11114e-06
7.15417e-06
7.20158e-06
7.25398e-06
7.31198e-06
7.37629e-06
7.44788e-06
7.52785e-06
7.61755e-06
7.7186e-06
7.83302e-06
7.96338e-06
8.11283e-06
8.28555e-06
8.48661e-06
8.72277e-06
9.00305e-06
9.33858e-06
9.74325e-06
1.02339e-05
1.08305e-05
1.15554e-05
1.24324e-05
1.34849e-05
1.47338e-05
1.61957e-05
1.78812e-05
1.97947e-05
2.19357e-05
2.42976e-05
2.68722e-05
2.96452e-05
3.25967e-05
3.57036e-05
3.89118e-05
4.21308e-05
4.52008e-05
4.77435e-05
4.87456e-05
4.89348e-05
4.8424e-05
7.22972e-06
7.22424e-06
7.22283e-06
7.22445e-06
7.24107e-06
7.24582e-06
7.24191e-06
7.24101e-06
7.24575e-06
7.25737e-06
7.27842e-06
7.28452e-06
7.27718e-06
7.27463e-06
7.27772e-06
7.28509e-06
7.29596e-06
7.30981e-06
7.32632e-06
7.34541e-06
7.36686e-06
7.39071e-06
7.41711e-06
7.44622e-06
7.4783e-06
7.51363e-06
7.55257e-06
7.59553e-06
7.64298e-06
7.6955e-06
7.75375e-06
7.81853e-06
7.89072e-06
7.97141e-06
8.062e-06
8.16413e-06
8.27982e-06
8.41159e-06
8.56255e-06
8.73659e-06
8.93861e-06
9.17466e-06
9.45245e-06
9.78095e-06
1.01723e-05
1.06406e-05
1.12021e-05
1.1875e-05
1.26785e-05
1.36324e-05
1.47548e-05
1.60611e-05
1.75629e-05
1.9267e-05
2.1176e-05
2.32872e-05
2.55963e-05
2.80921e-05
3.07657e-05
3.35959e-05
3.65579e-05
3.96163e-05
4.26784e-05
4.55999e-05
4.8114e-05
4.93955e-05
4.95007e-05
4.904e-05
4.71269e-05
7.81578e-06
7.81182e-06
7.81098e-06
7.816e-06
7.8354e-06
7.84204e-06
7.83632e-06
7.83368e-06
7.83706e-06
7.84952e-06
7.87879e-06
7.88955e-06
7.88223e-06
7.87871e-06
7.8807e-06
7.88754e-06
7.8988e-06
7.91392e-06
7.93252e-06
7.95423e-06
7.97904e-06
8.00702e-06
8.03833e-06
8.07322e-06
8.11201e-06
8.1551e-06
8.203e-06
8.25627e-06
8.31562e-06
8.38185e-06
8.45598e-06
8.53917e-06
8.63275e-06
8.73847e-06
8.85843e-06
8.99518e-06
9.15184e-06
9.33225e-06
9.54112e-06
9.78415e-06
1.00683e-05
1.0402e-05
1.0795e-05
1.12589e-05
1.18061e-05
1.24527e-05
1.32141e-05
1.4106e-05
1.51439e-05
1.63408e-05
1.77076e-05
1.92518e-05
2.09773e-05
2.28846e-05
2.4971e-05
2.72306e-05
2.96563e-05
3.22335e-05
3.49516e-05
3.77766e-05
4.06792e-05
4.35939e-05
4.63484e-05
4.8762e-05
5.00862e-05
4.99598e-05
4.9714e-05
4.83818e-05
4.3733e-05
8.54365e-06
8.54743e-06
8.55512e-06
8.57535e-06
8.58369e-06
8.57943e-06
8.57779e-06
8.58084e-06
8.59319e-06
8.625e-06
8.63912e-06
8.63423e-06
8.63231e-06
8.63376e-06
8.63916e-06
8.64899e-06
8.66343e-06
8.68192e-06
8.70436e-06
8.73071e-06
8.76103e-06
8.79551e-06
8.83443e-06
8.87819e-06
8.92728e-06
8.98232e-06
9.04406e-06
9.1134e-06
9.1914e-06
9.27934e-06
9.37878e-06
9.49153e-06
9.6197e-06
9.76602e-06
9.93369e-06
1.01265e-05
1.03492e-05
1.0607e-05
1.09066e-05
1.12553e-05
1.16619e-05
1.21361e-05
1.26888e-05
1.33315e-05
1.40763e-05
1.49355e-05
1.59205e-05
1.70439e-05
1.8315e-05
1.97397e-05
2.13229e-05
2.30668e-05
2.497e-05
2.70297e-05
2.92394e-05
3.15927e-05
3.40778e-05
3.66776e-05
3.93738e-05
4.21132e-05
4.48617e-05
4.74612e-05
4.9667e-05
5.07941e-05
5.06636e-05
5.04792e-05
4.88274e-05
4.6168e-05
3.86838e-05
9.48411e-06
9.49048e-06
9.50378e-06
9.53411e-06
9.54482e-06
9.53835e-06
9.53504e-06
9.53608e-06
9.5422e-06
9.55385e-06
9.56604e-06
9.57631e-06
9.58649e-06
9.59799e-06
9.61232e-06
9.63011e-06
9.65181e-06
9.67772e-06
9.70811e-06
9.7433e-06
9.78365e-06
9.8296e-06
9.88174e-06
9.94074e-06
1.00075e-05
1.00829e-05
1.01682e-05
1.02649e-05
1.03747e-05
1.04995e-05
1.06417e-05
1.08041e-05
1.099e-05
1.12031e-05
1.1448e-05
1.17299e-05
1.20546e-05
1.24288e-05
1.28601e-05
1.33565e-05
1.3927e-05
1.45808e-05
1.53273e-05
1.6176e-05
1.7136e-05
1.82153e-05
1.94211e-05
2.0759e-05
2.22331e-05
2.38446e-05
2.55966e-05
2.74874e-05
2.9511e-05
3.16642e-05
3.39363e-05
3.63225e-05
3.88001e-05
4.13534e-05
4.39353e-05
4.64799e-05
4.89094e-05
5.08559e-05
5.16928e-05
5.17089e-05
5.09659e-05
4.97165e-05
4.567e-05
4.07295e-05
3.25409e-05
1.07186e-05
1.07258e-05
1.07353e-05
1.07485e-05
1.076e-05
1.07685e-05
1.07762e-05
1.07848e-05
1.07954e-05
1.08083e-05
1.0824e-05
1.08417e-05
1.08613e-05
1.08835e-05
1.0909e-05
1.09385e-05
1.09727e-05
1.10121e-05
1.10574e-05
1.11093e-05
1.11686e-05
1.12361e-05
1.13128e-05
1.13998e-05
1.14987e-05
1.16109e-05
1.17384e-05
1.18833e-05
1.2048e-05
1.22356e-05
1.24493e-05
1.26927e-05
1.297e-05
1.3286e-05
1.36459e-05
1.40555e-05
1.45209e-05
1.50488e-05
1.5646e-05
1.63199e-05
1.70775e-05
1.79259e-05
1.8872e-05
1.99218e-05
2.10809e-05
2.23537e-05
2.37437e-05
2.52529e-05
2.68817e-05
2.86295e-05
3.04926e-05
3.24669e-05
3.4544e-05
3.67236e-05
3.89895e-05
4.13384e-05
4.37263e-05
4.61401e-05
4.84647e-05
5.06542e-05
5.2316e-05
5.27454e-05
5.25812e-05
5.17243e-05
5.00626e-05
4.64285e-05
3.95556e-05
3.39813e-05
2.86343e-05
1.23871e-05
1.2399e-05
1.2412e-05
1.24269e-05
1.24427e-05
1.2459e-05
1.24762e-05
1.2495e-05
1.25157e-05
1.2539e-05
1.25655e-05
1.25955e-05
1.26294e-05
1.26681e-05
1.27121e-05
1.27624e-05
1.28197e-05
1.2885e-05
1.29593e-05
1.30436e-05
1.31392e-05
1.32474e-05
1.33697e-05
1.3508e-05
1.36641e-05
1.38402e-05
1.4039e-05
1.4263e-05
1.45154e-05
1.47996e-05
1.51191e-05
1.5478e-05
1.58806e-05
1.63316e-05
1.68357e-05
1.73981e-05
1.80241e-05
1.87189e-05
1.94879e-05
2.03364e-05
2.12692e-05
2.22912e-05
2.34065e-05
2.46187e-05
2.59305e-05
2.7344e-05
2.886e-05
3.04784e-05
3.21969e-05
3.40135e-05
3.59203e-05
3.79138e-05
3.99734e-05
4.21058e-05
4.42872e-05
4.65105e-05
4.87001e-05
5.08156e-05
5.26768e-05
5.39518e-05
5.39084e-05
5.35843e-05
5.24918e-05
5.04391e-05
4.58138e-05
3.95176e-05
3.24957e-05
2.92744e-05
2.66486e-05
1.4736e-05
1.47612e-05
1.47875e-05
1.48158e-05
1.48459e-05
1.48781e-05
1.49129e-05
1.49508e-05
1.49926e-05
1.50389e-05
1.50906e-05
1.51482e-05
1.52127e-05
1.5285e-05
1.5366e-05
1.54569e-05
1.55587e-05
1.56728e-05
1.58003e-05
1.59427e-05
1.61015e-05
1.62784e-05
1.64752e-05
1.6694e-05
1.69368e-05
1.72061e-05
1.75043e-05
1.78343e-05
1.81989e-05
1.86013e-05
1.90447e-05
1.95325e-05
2.00685e-05
2.06565e-05
2.13003e-05
2.20039e-05
2.27713e-05
2.36064e-05
2.45132e-05
2.54952e-05
2.65557e-05
2.76978e-05
2.89238e-05
3.02357e-05
3.16345e-05
3.31202e-05
3.46921e-05
3.63479e-05
3.80831e-05
3.98944e-05
4.17677e-05
4.37008e-05
4.56627e-05
4.76606e-05
4.96611e-05
5.16302e-05
5.34554e-05
5.49473e-05
5.54178e-05
5.51775e-05
5.4642e-05
5.31582e-05
5.0169e-05
4.50425e-05
3.84564e-05
3.19982e-05
2.85022e-05
2.66501e-05
2.54857e-05
1.82537e-05
1.83105e-05
1.83699e-05
1.84328e-05
1.8499e-05
1.85691e-05
1.86439e-05
1.8724e-05
1.88104e-05
1.89037e-05
1.9005e-05
1.9115e-05
1.92348e-05
1.93654e-05
1.95079e-05
1.96633e-05
1.9833e-05
2.00181e-05
2.02199e-05
2.04397e-05
2.06792e-05
2.09397e-05
2.12231e-05
2.15309e-05
2.18653e-05
2.22282e-05
2.26218e-05
2.30485e-05
2.35107e-05
2.4011e-05
2.45522e-05
2.51373e-05
2.57691e-05
2.64509e-05
2.71859e-05
2.79773e-05
2.88281e-05
2.97416e-05
3.07205e-05
3.17674e-05
3.28847e-05
3.40741e-05
3.53368e-05
3.66732e-05
3.80829e-05
3.95641e-05
4.11146e-05
4.27292e-05
4.44004e-05
4.61247e-05
4.7875e-05
4.96569e-05
5.14207e-05
5.31598e-05
5.48563e-05
5.63276e-05
5.70015e-05
5.68735e-05
5.65327e-05
5.54715e-05
5.34766e-05
4.95189e-05
4.38391e-05
3.67205e-05
3.09381e-05
2.71221e-05
2.63148e-05
2.34697e-05
2.29582e-05
2.39893e-05
2.41007e-05
2.42144e-05
2.43317e-05
2.44523e-05
2.4577e-05
2.47065e-05
2.48416e-05
2.4983e-05
2.51314e-05
2.52878e-05
2.5453e-05
2.56278e-05
2.58131e-05
2.60099e-05
2.62192e-05
2.64419e-05
2.66794e-05
2.69325e-05
2.72027e-05
2.74911e-05
2.77992e-05
2.81285e-05
2.84806e-05
2.88573e-05
2.92605e-05
2.96921e-05
3.01544e-05
3.06496e-05
3.11801e-05
3.17485e-05
3.23575e-05
3.30099e-05
3.37084e-05
3.4456e-05
3.52554e-05
3.61093e-05
3.70201e-05
3.799e-05
3.90207e-05
4.01137e-05
4.12696e-05
4.2488e-05
4.37679e-05
4.51068e-05
4.65011e-05
4.7947e-05
4.94328e-05
5.095e-05
5.24932e-05
5.4007e-05
5.55331e-05
5.69479e-05
5.82332e-05
5.90732e-05
5.88532e-05
5.84999e-05
5.75934e-05
5.60111e-05
5.30462e-05
4.81879e-05
4.19239e-05
3.46102e-05
2.88773e-05
2.54028e-05
2.42516e-05
2.25796e-05
1.88565e-05
1.90693e-05
3.33299e-05
3.34608e-05
3.3594e-05
3.37299e-05
3.38679e-05
3.40074e-05
3.41481e-05
3.42911e-05
3.44371e-05
3.4587e-05
3.47417e-05
3.4902e-05
3.50686e-05
3.52425e-05
3.54245e-05
3.56155e-05
3.58166e-05
3.60289e-05
3.62535e-05
3.64918e-05
3.67452e-05
3.7015e-05
3.7303e-05
3.76109e-05
3.79405e-05
3.82937e-05
3.86725e-05
3.90792e-05
3.9516e-05
3.99853e-05
4.04898e-05
4.10322e-05
4.1615e-05
4.22411e-05
4.29129e-05
4.3633e-05
4.44035e-05
4.52261e-05
4.61023e-05
4.70327e-05
4.80182e-05
4.90575e-05
5.01476e-05
5.1286e-05
5.24665e-05
5.36856e-05
5.49346e-05
5.6188e-05
5.74474e-05
5.86894e-05
5.98109e-05
6.08923e-05
6.12708e-05
6.11967e-05
6.06671e-05
5.97741e-05
5.82728e-05
5.57001e-05
5.16062e-05
4.59301e-05
3.91087e-05
3.19575e-05
2.6143e-05
2.30976e-05
2.16692e-05
1.84954e-05
1.44546e-05
1.49059e-05
1.77324e-05
4.67622e-05
4.68097e-05
4.68594e-05
4.69108e-05
4.6963e-05
4.70157e-05
4.7069e-05
4.7123e-05
4.71779e-05
4.72342e-05
4.72923e-05
4.73528e-05
4.74164e-05
4.74835e-05
4.75542e-05
4.76299e-05
4.7712e-05
4.78019e-05
4.7901e-05
4.80108e-05
4.8133e-05
4.82691e-05
4.84211e-05
4.85906e-05
4.87797e-05
4.89899e-05
4.92231e-05
4.94819e-05
4.97688e-05
5.00863e-05
5.04376e-05
5.08248e-05
5.12508e-05
5.17184e-05
5.22299e-05
5.2787e-05
5.33908e-05
5.40424e-05
5.47425e-05
5.54904e-05
5.62867e-05
5.71249e-05
5.79957e-05
5.89015e-05
5.98254e-05
6.07755e-05
6.17136e-05
6.26e-05
6.34887e-05
6.39746e-05
6.39204e-05
6.3705e-05
6.29996e-05
6.19636e-05
6.03887e-05
5.79035e-05
5.40394e-05
4.89161e-05
4.23356e-05
3.54536e-05
2.83741e-05
2.29695e-05
2.01362e-05
1.82757e-05
1.37556e-05
1.07737e-05
1.16798e-05
1.42e-05
2.01889e-05
6.34415e-05
6.33174e-05
6.31928e-05
6.30675e-05
6.29408e-05
6.28126e-05
6.26832e-05
6.25528e-05
6.24215e-05
6.22898e-05
6.21582e-05
6.20271e-05
6.18972e-05
6.17693e-05
6.1644e-05
6.15225e-05
6.14056e-05
6.12948e-05
6.11913e-05
6.10965e-05
6.10118e-05
6.09389e-05
6.08796e-05
6.08354e-05
6.08079e-05
6.07963e-05
6.08026e-05
6.08327e-05
6.08919e-05
6.09772e-05
6.11001e-05
6.1254e-05
6.14476e-05
6.16828e-05
6.19599e-05
6.22787e-05
6.26384e-05
6.30407e-05
6.34867e-05
6.39717e-05
6.44999e-05
6.50399e-05
6.55772e-05
6.61553e-05
6.67063e-05
6.7304e-05
6.74642e-05
6.73165e-05
6.70717e-05
6.63729e-05
6.54121e-05
6.41636e-05
6.22944e-05
5.96026e-05
5.56824e-05
5.06406e-05
4.43469e-05
3.74266e-05
3.05018e-05
2.40257e-05
1.89043e-05
1.67375e-05
1.36211e-05
9.53853e-06
7.71019e-06
8.49317e-06
1.17648e-05
1.83742e-05
2.41667e-05
8.19161e-05
8.15557e-05
8.11957e-05
8.08349e-05
8.04719e-05
8.01062e-05
7.97377e-05
7.93664e-05
7.89925e-05
7.86165e-05
7.82385e-05
7.78593e-05
7.74795e-05
7.70999e-05
7.67212e-05
7.63445e-05
7.59708e-05
7.56014e-05
7.52372e-05
7.48795e-05
7.45282e-05
7.41854e-05
7.38532e-05
7.35338e-05
7.32294e-05
7.29419e-05
7.26722e-05
7.24104e-05
7.22028e-05
7.19651e-05
7.18418e-05
7.16709e-05
7.1588e-05
7.15372e-05
7.15205e-05
7.15287e-05
7.15639e-05
7.16431e-05
7.17648e-05
7.19077e-05
7.20876e-05
7.21545e-05
7.20872e-05
7.19557e-05
7.14855e-05
7.09135e-05
7.00621e-05
6.90383e-05
6.77339e-05
6.60591e-05
6.36551e-05
6.04705e-05
5.61881e-05
5.09743e-05
4.46671e-05
3.79181e-05
3.08563e-05
2.44199e-05
1.86106e-05
1.43216e-05
1.20728e-05
8.49693e-06
6.20425e-06
5.43874e-06
6.06363e-06
9.17969e-06
1.61443e-05
2.24978e-05
2.80729e-05
0.000100204
9.96069e-05
9.9008e-05
9.84062e-05
9.78001e-05
9.71891e-05
9.6573e-05
9.59517e-05
9.53255e-05
9.46945e-05
9.40591e-05
9.34199e-05
9.27775e-05
9.21326e-05
9.14856e-05
9.08375e-05
9.01891e-05
8.95416e-05
8.88943e-05
8.8248e-05
8.76046e-05
8.69657e-05
8.63335e-05
8.57097e-05
8.50966e-05
8.44959e-05
8.39098e-05
8.33399e-05
8.27926e-05
8.22658e-05
8.1771e-05
8.13014e-05
8.08638e-05
8.04572e-05
8.0082e-05
7.97102e-05
7.93248e-05
7.88894e-05
7.83777e-05
7.7772e-05
7.70504e-05
7.61344e-05
7.51639e-05
7.40721e-05
7.28045e-05
7.12789e-05
6.93852e-05
6.69251e-05
6.37558e-05
5.98307e-05
5.49415e-05
4.9355e-05
4.29939e-05
3.6259e-05
2.94327e-05
2.28988e-05
1.71597e-05
1.22538e-05
9.09612e-06
6.58361e-06
4.97523e-06
3.9043e-06
3.72924e-06
4.31273e-06
6.96497e-06
1.23153e-05
1.89592e-05
2.54737e-05
3.07366e-05
0.000115971
0.000115176
0.000114375
0.000113567
0.000112753
0.00011193
0.000111099
0.000110259
0.000109411
0.000108554
0.000107688
0.000106815
0.000105935
0.000105047
0.000104148
0.000103242
0.000102328
0.000101409
0.000100485
9.95578e-05
9.86284e-05
9.76977e-05
9.6767e-05
9.58373e-05
9.49102e-05
9.39857e-05
9.30709e-05
9.21655e-05
9.12647e-05
9.03627e-05
8.94536e-05
8.85293e-05
8.75789e-05
8.65921e-05
8.55411e-05
8.44441e-05
8.33111e-05
8.2125e-05
8.08494e-05
7.94677e-05
7.79195e-05
7.6197e-05
7.41764e-05
7.17239e-05
6.8861e-05
6.53251e-05
6.12281e-05
5.63881e-05
5.09318e-05
4.49658e-05
3.85435e-05
3.22188e-05
2.55947e-05
1.92446e-05
1.3818e-05
9.50289e-06
6.63987e-06
4.76376e-06
3.58253e-06
2.86589e-06
2.49277e-06
2.37456e-06
2.8464e-06
4.62167e-06
8.12971e-06
1.37156e-05
2.04502e-05
2.68566e-05
3.22546e-05
0.000126027
0.000125094
0.000124155
0.000123208
0.000122252
0.000121281
0.000120295
0.000119294
0.000118277
0.000117246
0.0001162
0.00011514
0.000114065
0.000112976
0.000111873
0.000110757
0.000109626
0.000108482
0.000107325
0.000106155
0.000104973
0.000103778
0.000102571
0.000101354
0.000100127
9.88864e-05
9.76187e-05
9.63208e-05
9.49905e-05
9.36225e-05
9.2209e-05
9.07393e-05
8.91994e-05
8.75721e-05
8.58378e-05
8.39708e-05
8.19121e-05
7.96529e-05
7.71104e-05
7.42959e-05
7.10888e-05
6.74999e-05
6.34519e-05
5.89017e-05
5.39695e-05
4.85332e-05
4.28605e-05
3.70264e-05
3.10704e-05
2.49871e-05
1.9227e-05
1.36068e-05
9.52305e-06
6.62465e-06
4.60176e-06
3.189e-06
2.27498e-06
1.77454e-06
1.49682e-06
1.50303e-06
1.52655e-06
1.69649e-06
2.51606e-06
4.51199e-06
8.11515e-06
1.37223e-05
2.05966e-05
2.68816e-05
3.27268e-05
0.000123177
0.000122224
0.000121255
0.000120271
0.000119271
0.000118254
0.000117221
0.00011617
0.000115101
0.000114014
0.000112907
0.000111782
0.000110636
0.000109471
0.000108284
0.000107076
0.000105846
0.000104592
0.000103315
0.000102013
0.000100687
9.93371e-05
9.79599e-05
9.65643e-05
9.51084e-05
9.35854e-05
9.19809e-05
9.02729e-05
8.84379e-05
8.64494e-05
8.42794e-05
8.19034e-05
7.92899e-05
7.64324e-05
7.32952e-05
6.99133e-05
6.62479e-05
6.23806e-05
5.82722e-05
5.40153e-05
4.96239e-05
4.50764e-05
4.05092e-05
3.56716e-05
3.09298e-05
2.584e-05
2.09533e-05
1.59453e-05
1.14826e-05
8.09982e-06
5.63345e-06
3.90441e-06
2.68149e-06
1.78524e-06
1.19173e-06
8.40873e-07
6.5654e-07
6.78069e-07
7.21921e-07
6.97459e-07
6.42332e-07
6.59114e-07
1.11196e-06
2.41314e-06
5.04397e-06
9.62983e-06
1.61531e-05
2.32274e-05
3.04344e-05
9.69825e-05
9.60837e-05
9.51613e-05
9.42193e-05
9.32566e-05
9.22727e-05
9.12672e-05
9.02404e-05
8.9191e-05
8.81197e-05
8.7024e-05
8.59059e-05
8.47608e-05
8.3592e-05
8.23945e-05
8.11681e-05
7.99167e-05
7.86261e-05
7.73166e-05
7.59534e-05
7.45749e-05
7.31441e-05
7.16488e-05
7.00567e-05
6.83927e-05
6.66528e-05
6.48373e-05
6.29453e-05
6.09819e-05
5.89469e-05
5.68474e-05
5.46818e-05
5.24521e-05
5.01531e-05
4.77701e-05
4.52907e-05
4.26706e-05
3.98949e-05
3.68732e-05
3.35935e-05
2.99646e-05
2.60265e-05
2.17543e-05
1.73978e-05
1.29459e-05
9.0196e-06
6.05e-06
3.96292e-06
2.55437e-06
1.63608e-06
1.06965e-06
7.02956e-07
4.50659e-07
2.71891e-07
1.93602e-07
1.7042e-07
1.91355e-07
2.21718e-07
2.45759e-07
2.13042e-07
1.69446e-07
1.33531e-07
2.004e-07
4.18113e-07
1.03597e-06
2.52806e-06
5.55707e-06
1.06889e-05
1.71984e-05
5.01676e-05
5.02451e-05
5.05506e-05
5.09748e-05
5.14484e-05
5.19452e-05
5.24487e-05
5.29521e-05
5.34473e-05
5.39334e-05
5.44024e-05
5.48578e-05
5.52867e-05
5.56995e-05
5.60854e-05
5.6373e-05
5.70606e-05
5.72081e-05
5.78009e-05
5.78345e-05
5.82639e-05
5.82002e-05
5.80778e-05
5.78971e-05
5.76399e-05
5.72879e-05
5.6821e-05
5.62164e-05
5.54494e-05
5.44925e-05
5.33176e-05
5.18934e-05
5.01881e-05
4.81671e-05
4.57957e-05
4.304e-05
3.98668e-05
3.62586e-05
3.21983e-05
2.77253e-05
2.28746e-05
1.78403e-05
1.27578e-05
7.85346e-06
3.83649e-06
1.38096e-06
4.53673e-07
2.93224e-07
2.75936e-07
2.61116e-07
2.37131e-07
2.09653e-07
1.80083e-07
1.61233e-07
1.50339e-07
1.31116e-07
1.05304e-07
7.81976e-08
5.51232e-08
3.74054e-08
2.72129e-08
2.30284e-08
2.57305e-08
4.93702e-08
2.14683e-07
7.92321e-07
1.73163e-06
2.49166e-06
2.6847e-06
5.16645e-06
5.16352e-06
5.15935e-06
5.15373e-06
5.14904e-06
5.14202e-06
5.13549e-06
5.12727e-06
5.12143e-06
5.11549e-06
5.10596e-06
5.10265e-06
5.10044e-06
5.09753e-06
5.08606e-06
5.0733e-06
5.07228e-06
5.06869e-06
5.06032e-06
5.05136e-06
5.05494e-06
5.06152e-06
5.04785e-06
5.04252e-06
5.0288e-06
5.01711e-06
5.02165e-06
5.02346e-06
5.02608e-06
5.02256e-06
5.01761e-06
5.01562e-06
5.01613e-06
5.00883e-06
5.00578e-06
4.99847e-06
4.99718e-06
4.99477e-06
4.99166e-06
4.99065e-06
4.97971e-06
4.98006e-06
4.9762e-06
4.9694e-06
4.96972e-06
4.963e-06
4.95407e-06
4.95181e-06
4.94927e-06
4.94454e-06
4.93741e-06
4.93378e-06
4.93373e-06
4.93437e-06
4.93608e-06
4.93986e-06
4.94e-06
4.93856e-06
4.93665e-06
5.27994e-06
5.27537e-06
5.2689e-06
5.26265e-06
5.25582e-06
5.24823e-06
5.24111e-06
5.23396e-06
5.22826e-06
5.22185e-06
5.21489e-06
5.21062e-06
5.20312e-06
5.19328e-06
5.17846e-06
5.17244e-06
5.17249e-06
5.16355e-06
5.15347e-06
5.14999e-06
5.15332e-06
5.15339e-06
5.13672e-06
5.13135e-06
5.1145e-06
5.10643e-06
5.11007e-06
5.11291e-06
5.11179e-06
5.10636e-06
5.1035e-06
5.10122e-06
5.10001e-06
5.0926e-06
5.08992e-06
5.08425e-06
5.0801e-06
5.07797e-06
5.07576e-06
5.07329e-06
5.06685e-06
5.0633e-06
5.06008e-06
5.0552e-06
5.05248e-06
5.04972e-06
5.04414e-06
5.03812e-06
5.0355e-06
5.03253e-06
5.02824e-06
5.0226e-06
5.01891e-06
5.01621e-06
5.0161e-06
5.01705e-06
5.01847e-06
5.01924e-06
5.02035e-06
5.41199e-06
5.40601e-06
5.39868e-06
5.3919e-06
5.38455e-06
5.37736e-06
5.37046e-06
5.36357e-06
5.35673e-06
5.34885e-06
5.34047e-06
5.33151e-06
5.31963e-06
5.30774e-06
5.29674e-06
5.29453e-06
5.28886e-06
5.27674e-06
5.2686e-06
5.26861e-06
5.26886e-06
5.26251e-06
5.24408e-06
5.23736e-06
5.21944e-06
5.21376e-06
5.21655e-06
5.21925e-06
5.21494e-06
5.20834e-06
5.20678e-06
5.20355e-06
5.20091e-06
5.19403e-06
5.19063e-06
5.1858e-06
5.18096e-06
5.17775e-06
5.17557e-06
5.17318e-06
5.16895e-06
5.16465e-06
5.16072e-06
5.15699e-06
5.15272e-06
5.15031e-06
5.14776e-06
5.14367e-06
5.13902e-06
5.13502e-06
5.13154e-06
5.12766e-06
5.12421e-06
5.1203e-06
5.11812e-06
5.11866e-06
5.11873e-06
5.11893e-06
5.11992e-06
5.56946e-06
5.56294e-06
5.55518e-06
5.548e-06
5.54029e-06
5.5326e-06
5.52453e-06
5.5159e-06
5.50649e-06
5.49597e-06
5.48471e-06
5.47259e-06
5.46001e-06
5.44948e-06
5.44133e-06
5.43653e-06
5.42522e-06
5.41342e-06
5.40832e-06
5.40836e-06
5.40498e-06
5.39105e-06
5.37239e-06
5.3636e-06
5.34557e-06
5.3419e-06
5.34355e-06
5.34504e-06
5.33812e-06
5.33077e-06
5.32945e-06
5.32514e-06
5.32146e-06
5.31488e-06
5.31103e-06
5.30647e-06
5.30137e-06
5.2973e-06
5.29455e-06
5.29222e-06
5.28904e-06
5.28505e-06
5.2813e-06
5.27803e-06
5.27452e-06
5.27104e-06
5.26853e-06
5.26633e-06
5.26407e-06
5.26143e-06
5.2583e-06
5.25392e-06
5.24971e-06
5.24627e-06
5.2433e-06
5.24131e-06
5.24183e-06
5.24197e-06
5.24161e-06
5.75921e-06
5.75186e-06
5.74299e-06
5.73454e-06
5.72524e-06
5.71553e-06
5.705e-06
5.69367e-06
5.68151e-06
5.66867e-06
5.65559e-06
5.64269e-06
5.63084e-06
5.62089e-06
5.61185e-06
5.60237e-06
5.58892e-06
5.57963e-06
5.57608e-06
5.57307e-06
5.56282e-06
5.54372e-06
5.52535e-06
5.51425e-06
5.49681e-06
5.49434e-06
5.49461e-06
5.49439e-06
5.48504e-06
5.47709e-06
5.47526e-06
5.46987e-06
5.46529e-06
5.45874e-06
5.45451e-06
5.44999e-06
5.44481e-06
5.44019e-06
5.43683e-06
5.43439e-06
5.43186e-06
5.42851e-06
5.42502e-06
5.42204e-06
5.41907e-06
5.41629e-06
5.41404e-06
5.41209e-06
5.4094e-06
5.40748e-06
5.40414e-06
5.40273e-06
5.40131e-06
5.39975e-06
5.3982e-06
5.39684e-06
5.39602e-06
5.39548e-06
5.39557e-06
5.98615e-06
5.97712e-06
5.96618e-06
5.9555e-06
5.94375e-06
5.93144e-06
5.91831e-06
5.90461e-06
5.89048e-06
5.87626e-06
5.86236e-06
5.84914e-06
5.8369e-06
5.82534e-06
5.81345e-06
5.80079e-06
5.78795e-06
5.78033e-06
5.7749e-06
5.76593e-06
5.74879e-06
5.72666e-06
5.70841e-06
5.69507e-06
5.67865e-06
5.6766e-06
5.67531e-06
5.67242e-06
5.66098e-06
5.65238e-06
5.64953e-06
5.64304e-06
5.6375e-06
5.63081e-06
5.6261e-06
5.62147e-06
5.61629e-06
5.61135e-06
5.60748e-06
5.60482e-06
5.60266e-06
5.6e-06
5.59702e-06
5.59435e-06
5.59192e-06
5.58978e-06
5.58805e-06
5.58664e-06
5.58517e-06
5.58391e-06
5.58241e-06
5.58073e-06
5.58004e-06
5.57965e-06
5.57936e-06
5.57914e-06
5.57879e-06
5.57814e-06
5.57708e-06
6.25711e-06
6.24587e-06
6.23237e-06
6.2192e-06
6.20494e-06
6.19023e-06
6.17495e-06
6.1594e-06
6.14375e-06
6.12829e-06
6.11321e-06
6.0986e-06
6.08434e-06
6.07008e-06
6.05563e-06
6.04162e-06
6.02941e-06
6.02048e-06
6.00991e-06
5.9938e-06
5.9711e-06
5.94733e-06
5.92866e-06
5.91331e-06
5.89797e-06
5.89544e-06
5.89189e-06
5.88592e-06
5.8726e-06
5.86319e-06
5.85892e-06
5.85121e-06
5.8446e-06
5.83758e-06
5.83229e-06
5.82744e-06
5.82223e-06
5.81712e-06
5.81287e-06
5.8099e-06
5.80786e-06
5.80582e-06
5.80353e-06
5.80138e-06
5.79952e-06
5.79798e-06
5.79687e-06
5.79626e-06
5.7962e-06
5.79602e-06
5.79574e-06
5.79497e-06
5.79295e-06
5.79218e-06
5.79236e-06
5.7921e-06
5.79442e-06
5.79293e-06
5.79547e-06
6.58367e-06
6.57007e-06
6.55394e-06
6.53829e-06
6.52161e-06
6.50463e-06
6.48723e-06
6.46968e-06
6.45209e-06
6.43462e-06
6.41731e-06
6.40016e-06
6.38312e-06
6.36622e-06
6.3498e-06
6.33452e-06
6.32066e-06
6.30705e-06
6.28943e-06
6.26648e-06
6.23977e-06
6.21489e-06
6.19514e-06
6.178e-06
6.16334e-06
6.15929e-06
6.15278e-06
6.14342e-06
6.12828e-06
6.11776e-06
6.1117e-06
6.10261e-06
6.09477e-06
6.0872e-06
6.08125e-06