/*--------------------------------*- C++ -*----------------------------------*\
| =========                 |                                                 |
| \\      /  F ield         | OpenFOAM: The Open Source CFD Toolbox           |
|  \\    /   O peration     | Version:  2312                                  |
|   \\  /    A nd           | Website:  www.openfoam.com                      |
|    \\/     M anipulation  |                                                 |
\*---------------------------------------------------------------------------*/
FoamFile
{
    version     2.0;
    format      ascii;
    arch        "LSB;label=32;scalar=64";
    class       volScalarField;
    location    "1900";
    object      nut;
}
// * * * * * * * * * * * * * * * * * * * * * * * * * * * * * * * * * * * * * //

dimensions      [0 2 -1 0 0 0 0];

internalField   nonuniform List<scalar> 
76025
(
0.000169653
0.000169645
0.000169616
0.000169575
0.000169634
0.000169684
0.00016972
0.000169752
0.000169765
0.00016972
0.000169789
0.000169855
0.000169894
0.0001699
0.00016996
0.000169993
0.000170027
0.000170078
0.000170147
0.000170226
0.000170337
0.000170462
0.000170587
0.000170737
0.000170938
0.000171111
0.000171386
0.000171608
0.000171923
0.000172211
0.000172564
0.000172884
0.000173313
0.00017371
0.000174171
0.000174631
0.000175147
0.000175719
0.0001763
0.000176912
0.000177549
0.000178256
0.00017901
0.000179807
0.00018066
0.000181609
0.000182629
0.000183767
0.000185061
0.000186472
0.00018815
0.000189999
0.000192201
0.000194662
0.000197892
0.000201582
0.000206211
0.000212121
0.00021977
0.000231165
0.000245081
0.00026533
0.000290454
0.00031919
0.000350859
0.000376485
0.000402319
0.000413023
0.000423244
0.000171139
0.000171258
0.000171344
0.000171402
0.000171473
0.000171522
0.000171565
0.000171578
0.000171671
0.000171735
0.000171794
0.000171809
0.000171904
0.000171974
0.000171997
0.000172011
0.000172138
0.000172181
0.000172151
0.00017217
0.000172214
0.000172349
0.000172518
0.000172695
0.000172903
0.000173108
0.000173354
0.00017361
0.000173899
0.000174215
0.000174563
0.000174917
0.000175318
0.000175736
0.000176191
0.00017668
0.0001772
0.000177763
0.000178358
0.000178995
0.000179689
0.000180429
0.000181236
0.00018211
0.000183077
0.000184142
0.000185319
0.000186644
0.000188126
0.000189826
0.000191736
0.000193979
0.000196555
0.000199674
0.000203406
0.000208044
0.000214021
0.000221837
0.000232497
0.000246568
0.00026511
0.000288353
0.000314543
0.000342723
0.000370377
0.00039248
0.000412962
0.00041634
0.000418386
0.000172856
0.00017292
0.000172997
0.0001731
0.000173198
0.000173427
0.000173533
0.000173512
0.000173552
0.000173569
0.000173667
0.000173748
0.000173784
0.000174063
0.000174125
0.000174058
0.000174045
0.000174104
0.000174169
0.000174229
0.000174259
0.000174426
0.000174624
0.000174832
0.000175056
0.000175289
0.000175542
0.000175813
0.000176109
0.000176429
0.00017678
0.000177155
0.000177562
0.000178002
0.000178477
0.000178991
0.000179547
0.000180148
0.000180797
0.000181499
0.000182263
0.000183095
0.000184005
0.000185003
0.000186106
0.000187328
0.000188693
0.00019022
0.000191953
0.000193917
0.000196185
0.000198813
0.000201933
0.00020569
0.000210326
0.000216237
0.000223865
0.000234012
0.000247279
0.00026461
0.00028574
0.000310608
0.000336841
0.00036364
0.000387865
0.00040506
0.000419274
0.00041477
0.000406971
0.000174943
0.000174936
0.000174956
0.000175009
0.000175117
0.000175229
0.000175378
0.000175437
0.000175527
0.000175595
0.000175687
0.000175737
0.000175801
0.000175906
0.000176003
0.000176099
0.000176098
0.000176168
0.000176299
0.000176361
0.000176481
0.000176723
0.000176977
0.00017723
0.000177489
0.000177756
0.000178037
0.000178335
0.000178656
0.000179002
0.000179376
0.000179781
0.00018022
0.000180696
0.000181213
0.000181774
0.000182384
0.000183047
0.000183769
0.000184554
0.000185413
0.000186352
0.000187384
0.000188521
0.000189781
0.000191185
0.000192754
0.000194525
0.000196536
0.000198846
0.00020153
0.000204701
0.000208519
0.00021322
0.000219147
0.000226765
0.000236685
0.000249583
0.000265966
0.000286082
0.000309117
0.000334511
0.00035936
0.000383446
0.000402384
0.000413764
0.000420908
0.000407369
0.000390631
0.0001776
0.000177536
0.000177615
0.000177665
0.000177634
0.000177648
0.000177704
0.000177777
0.00017781
0.00017788
0.000177981
0.000178117
0.000178156
0.000178261
0.000178411
0.000178588
0.000178737
0.000178727
0.000178909
0.000179096
0.000179303
0.000179538
0.000179793
0.00018006
0.000180341
0.000180636
0.000180948
0.000181279
0.000181635
0.000182017
0.00018243
0.000182878
0.000183363
0.00018389
0.000184462
0.000185084
0.000185762
0.000186502
0.000187309
0.000188191
0.000189158
0.00019022
0.000191389
0.000192684
0.000194125
0.000195737
0.000197554
0.000199619
0.000201992
0.000204752
0.000208015
0.000211945
0.000216772
0.000222825
0.000230532
0.000240434
0.000253074
0.000268918
0.000287983
0.000309961
0.000333557
0.000357928
0.000379957
0.000400032
0.00041246
0.000417662
0.000416714
0.000393647
0.000368113
0.000180663
0.000180658
0.000180577
0.000180694
0.000180711
0.000180631
0.000180623
0.000180676
0.000180741
0.000180795
0.000180803
0.00018091
0.000181074
0.000181112
0.000181264
0.00018151
0.000181739
0.000181922
0.00018212
0.000182336
0.00018257
0.000182823
0.000183093
0.000183381
0.000183687
0.000184011
0.000184356
0.000184725
0.00018512
0.000185546
0.000186007
0.000186505
0.000187045
0.000187632
0.000188269
0.000188963
0.000189721
0.000190548
0.000191454
0.000192447
0.00019354
0.000194744
0.000196078
0.000197562
0.000199226
0.000201104
0.000203243
0.000205705
0.000208579
0.000211983
0.000216087
0.00022112
0.000227397
0.000235314
0.000245335
0.000257922
0.000273388
0.000291775
0.000312616
0.000335151
0.000357828
0.000379689
0.000397569
0.000412418
0.000417166
0.000416051
0.000405573
0.00037298
0.000339525
0.000184073
0.000184105
0.000184117
0.000184149
0.00018415
0.000184145
0.000184332
0.000184235
0.000184252
0.000184304
0.000184367
0.000184432
0.000184438
0.000184562
0.000184824
0.000185082
0.000185331
0.00018557
0.000185812
0.000186063
0.000186328
0.000186608
0.000186906
0.000187222
0.000187559
0.000187918
0.000188301
0.000188712
0.000189153
0.000189629
0.000190142
0.000190698
0.000191302
0.000191958
0.000192671
0.000193449
0.000194301
0.000195233
0.000196258
0.000197386
0.000198634
0.000200018
0.000201562
0.000203296
0.000205259
0.000207503
0.000210097
0.000213135
0.000216744
0.000221098
0.000226429
0.000233036
0.000241281
0.000251558
0.000264227
0.000279504
0.000297332
0.000317309
0.000338599
0.000360179
0.000380416
0.000398314
0.000410818
0.000419236
0.000415448
0.000408045
0.000386163
0.000345255
0.000305684
0.000188212
0.000188233
0.00018813
0.000188055
0.0001881
0.000188237
0.000188528
0.000188347
0.000188229
0.000188204
0.000188285
0.000188398
0.000188406
0.000188657
0.000188938
0.000189217
0.000189491
0.000189764
0.00019004
0.000190324
0.000190621
0.000190934
0.000191266
0.000191618
0.000191993
0.000192392
0.00019282
0.00019328
0.000193774
0.000194307
0.000194884
0.000195509
0.000196189
0.000196929
0.000197736
0.00019862
0.000199589
0.000200656
0.000201835
0.000203142
0.000204597
0.000206228
0.000208063
0.00021015
0.000212546
0.000215328
0.000218599
0.000222496
0.000227197
0.000232933
0.000239985
0.000248673
0.000259318
0.000272182
0.000287375
0.000304766
0.000323927
0.000344126
0.000364328
0.000383391
0.00039971
0.000412289
0.000418311
0.000419152
0.000406504
0.000392546
0.00035749
0.00031128
0.000266758
0.000192946
0.000193179
0.000192997
0.000193066
0.000192936
0.000192964
0.000193014
0.000193456
0.00019342
0.00019324
0.000193117
0.000193178
0.000193104
0.000193297
0.000193626
0.00019395
0.000194264
0.000194575
0.000194889
0.000195211
0.000195546
0.000195897
0.000196269
0.000196662
0.000197082
0.000197531
0.000198012
0.000198529
0.000199088
0.000199692
0.000200347
0.00020106
0.000201837
0.000202686
0.000203616
0.000204639
0.000205768
0.000207019
0.000208412
0.000209969
0.000211721
0.000213707
0.000215973
0.000218587
0.000221636
0.000225232
0.00022952
0.000234684
0.000240945
0.00024856
0.000257795
0.000268895
0.000282019
0.000297175
0.000314165
0.000332535
0.000351602
0.000370445
0.00038797
0.000402997
0.000414011
0.000420051
0.000418628
0.000410918
0.00038973
0.000368012
0.000319795
0.000271324
0.000226181
0.000198343
0.000198447
0.000198428
0.000198735
0.000198779
0.000198599
0.00019865
0.000198808
0.000198974
0.000199269
0.00019941
0.000199272
0.000198943
0.000198921
0.000199065
0.000199475
0.000199862
0.000200221
0.000200575
0.000200935
0.000201308
0.000201699
0.000202113
0.000202553
0.000203024
0.00020353
0.000204075
0.000204664
0.000205303
0.000205997
0.000206753
0.00020758
0.000208487
0.000209482
0.000210581
0.000211798
0.000213153
0.000214668
0.000216371
0.000218299
0.000220495
0.000223021
0.000225946
0.000229365
0.000233404
0.000238212
0.00024397
0.000250881
0.000259164
0.000269024
0.000280616
0.000294002
0.000309097
0.000325636
0.00034316
0.000361006
0.00037836
0.000394229
0.00040754
0.000417117
0.00042158
0.000420056
0.000410395
0.000393588
0.000364528
0.000332862
0.000273394
0.000232007
0.000181951
0.000205136
0.000205052
0.000205029
0.000205053
0.00020552
0.000205499
0.000205355
0.00020539
0.000205366
0.000205625
0.000206201
0.000206455
0.0002063
0.000205871
0.000205814
0.000205947
0.000206423
0.000206889
0.000207317
0.000207737
0.000208164
0.000208606
0.000209074
0.000209572
0.000210107
0.000210685
0.000211312
0.000211993
0.000212736
0.00021355
0.000214443
0.000215426
0.000216512
0.000217716
0.000219057
0.000220558
0.000222247
0.000224158
0.000226336
0.000228834
0.00023172
0.000235077
0.000239009
0.000243634
0.000249105
0.00025559
0.000263261
0.000272283
0.000282786
0.000294837
0.000308401
0.000323317
0.000339269
0.000355789
0.00037226
0.000387925
0.000401933
0.000413282
0.000420966
0.000423838
0.000420714
0.000410868
0.000392429
0.000366682
0.000329928
0.000285829
0.00022844
0.000190054
0.000135735
0.00021322
0.000213107
0.000212938
0.000213029
0.000213542
0.000213826
0.000213679
0.000213572
0.000213565
0.000213894
0.000214405
0.000214738
0.000214438
0.000214218
0.000214165
0.000213972
0.000214373
0.000214871
0.00021538
0.00021589
0.000216405
0.000216934
0.000217487
0.000218074
0.000218704
0.000219385
0.000220127
0.000220939
0.000221831
0.000222815
0.000223906
0.000225119
0.000226473
0.000227991
0.000229703
0.000231643
0.000233855
0.000236389
0.000239311
0.000242696
0.000246635
0.000251234
0.000256611
0.000262896
0.000270209
0.000278696
0.000288449
0.000299519
0.000311888
0.000325439
0.000339947
0.000355068
0.000370337
0.00038518
0.000398913
0.000410767
0.000419895
0.000425335
0.000426169
0.000421315
0.000409886
0.000391286
0.000363983
0.000330135
0.000283728
0.000233575
0.000184834
0.000147053
9.80086e-05
0.000222676
0.000222788
0.000222878
0.000223351
0.00022337
0.000223309
0.000223353
0.000223459
0.000223729
0.000224426
0.000224392
0.000224127
0.000224169
0.000224176
0.000224114
0.000223793
0.000223944
0.000224583
0.000225234
0.000225872
0.00022651
0.000227162
0.000227842
0.000228562
0.000229336
0.000230175
0.000231095
0.000232109
0.000233233
0.000234486
0.000235889
0.000237468
0.000239252
0.000241277
0.000243586
0.00024623
0.00024927
0.000252776
0.000256827
0.000261513
0.000266931
0.000273181
0.00028036
0.00028855
0.000297813
0.00030817
0.000319588
0.000331993
0.000345207
0.000358956
0.000372889
0.000386564
0.00039944
0.000410922
0.000420308
0.000426871
0.000429779
0.000428162
0.000421189
0.000407938
0.000387932
0.000360486
0.000325123
0.00028129
0.000229425
0.000186451
0.000141651
0.000106595
6.80793e-05
0.000234413
0.000234574
0.000234857
0.00023549
0.000235439
0.000235198
0.000235235
0.000235316
0.000235359
0.000235289
0.000235589
0.000235801
0.000235981
0.000236036
0.000235776
0.000235922
0.000236517
0.000237146
0.000237819
0.00023853
0.000239278
0.000240071
0.000240919
0.000241833
0.00024283
0.000243924
0.000245136
0.000246487
0.000248001
0.000249707
0.000251636
0.000253825
0.000256317
0.000259162
0.000262415
0.000266139
0.000270402
0.000275276
0.000280836
0.000287153
0.000294293
0.000302305
0.000311218
0.000321027
0.000331688
0.000343107
0.00035513
0.000367544
0.000380067
0.000392345
0.000403982
0.000414498
0.000423336
0.000429921
0.000433562
0.00043361
0.000429232
0.000419753
0.000404373
0.000382594
0.000354188
0.000318193
0.000273727
0.000225918
0.000179634
0.000141137
9.99648e-05
7.18842e-05
4.38268e-05
0.000248878
0.000249075
0.000249298
0.000249549
0.000249638
0.000249426
0.000249482
0.000249782
0.000250066
0.000249864
0.000250207
0.000250558
0.000250938
0.000251312
0.00025167
0.000252103
0.00025266
0.00025332
0.000254073
0.000254914
0.000255842
0.000256863
0.000257988
0.00025923
0.000260609
0.000262145
0.000263865
0.000265798
0.000267976
0.000270437
0.000273221
0.000276372
0.000279938
0.000283972
0.000288525
0.000293649
0.000299396
0.000305808
0.00031292
0.000320752
0.000329302
0.000338544
0.000348421
0.000358839
0.000369661
0.000380706
0.000391745
0.000402499
0.000412635
0.000421777
0.000429486
0.000435296
0.00043868
0.000439119
0.000435929
0.000428582
0.000416239
0.000398543
0.000374672
0.00034497
0.000307989
0.000263171
0.000216985
0.000172608
0.00013424
9.78149e-05
6.53024e-05
4.49151e-05
3.22723e-05
0.000267674
0.00026786
0.000268061
0.000268279
0.000268479
0.000268643
0.000268842
0.000269106
0.000269417
0.000269683
0.000270026
0.000270446
0.000270942
0.000271509
0.000272145
0.000272865
0.000273687
0.000274621
0.000275677
0.000276861
0.000278186
0.000279663
0.00028131
0.000283145
0.00028519
0.000287473
0.000290021
0.000292865
0.00029604
0.000299579
0.000303518
0.00030789
0.000312731
0.000318071
0.000323933
0.000330337
0.000337289
0.000344784
0.000352799
0.000361294
0.000370202
0.000379433
0.000388865
0.000398346
0.000407686
0.000416661
0.000425009
0.000432429
0.000438575
0.000443076
0.000445499
0.000445416
0.000442327
0.000435746
0.00042506
0.000409875
0.000389429
0.000363677
0.000332143
0.000294158
0.000248961
0.00020515
0.000162824
0.000125795
9.06073e-05
6.12109e-05
4.01154e-05
3.1076e-05
2.66464e-05
0.000292209
0.000292544
0.000292897
0.000293272
0.000293662
0.00029407
0.00029451
0.000295
0.000295546
0.000296144
0.000296811
0.000297562
0.000298409
0.000299363
0.000300433
0.000301629
0.000302966
0.000304455
0.000306109
0.000307944
0.000309971
0.000312208
0.00031467
0.000317375
0.000320342
0.000323591
0.000327142
0.000331013
0.000335225
0.000339793
0.00034473
0.000350047
0.000355747
0.000361828
0.000368279
0.000375078
0.000382192
0.000389572
0.000397154
0.000404854
0.000412566
0.000420165
0.000427496
0.00043438
0.000440607
0.00044594
0.000450108
0.000452808
0.000453706
0.000452441
0.000448617
0.000441839
0.000431693
0.000417631
0.000399336
0.000376402
0.000348474
0.0003153
0.000274746
0.000231529
0.000190172
0.00015038
0.000114278
8.19476e-05
5.51207e-05
3.64744e-05
2.79754e-05
2.47523e-05
2.41494e-05
0.000326478
0.000327178
0.000327914
0.000328693
0.000329516
0.000330386
0.000331312
0.000332305
0.000333375
0.000334529
0.000335778
0.000337132
0.000338603
0.0003402
0.000341934
0.000343816
0.000345854
0.000348059
0.00035044
0.000353005
0.000355764
0.000358724
0.000361893
0.000365279
0.000368887
0.000372724
0.000376793
0.000381096
0.000385633
0.000390398
0.000395384
0.000400576
0.000405955
0.000411494
0.000417155
0.000422894
0.00042865
0.000434353
0.000439916
0.000445233
0.000450183
0.000454622
0.000458386
0.000461284
0.000463103
0.000463599
0.000462514
0.000459539
0.000454378
0.000446676
0.000436118
0.000422323
0.000405033
0.000383492
0.00035835
0.00032826
0.000291839
0.000251125
0.000210945
0.000171818
0.000134943
0.000101087
7.18402e-05
4.79602e-05
3.20873e-05
2.45369e-05
2.27832e-05
2.06998e-05
2.15414e-05
0.000379081
0.000380314
0.000381579
0.000382886
0.000384233
0.000385625
0.000387067
0.000388567
0.000390129
0.000391761
0.000393467
0.000395254
0.000397128
0.000399094
0.000401158
0.000403324
0.000405597
0.000407978
0.000410472
0.00041308
0.000415802
0.000418639
0.000421591
0.000424653
0.000427824
0.000431098
0.000434466
0.000437919
0.000441444
0.000445022
0.000448632
0.000452248
0.000455836
0.000459355
0.000462756
0.000465981
0.000468958
0.000471603
0.00047382
0.000475495
0.000476496
0.000476675
0.000475859
0.000473854
0.000470445
0.000465397
0.000458466
0.000449337
0.000437802
0.000423486
0.00040625
0.000385674
0.000361754
0.000333507
0.000301385
0.000262399
0.000224682
0.000186429
0.000150749
0.000116643
8.61822e-05
6.06618e-05
4.03693e-05
2.69658e-05
2.10779e-05
1.94932e-05
1.85693e-05
1.66748e-05
2.1152e-05
0.00045522
0.000456374
0.000457542
0.000458724
0.000459917
0.000461116
0.000462318
0.000463528
0.000464748
0.000465983
0.000467233
0.000468502
0.000469791
0.000471102
0.000472434
0.000473788
0.000475164
0.000476562
0.000477979
0.000479414
0.000480863
0.000482322
0.000483786
0.000485246
0.000486694
0.000488118
0.000489503
0.000490832
0.000492084
0.000493235
0.000494257
0.000495116
0.000495771
0.000496174
0.00049627
0.000495993
0.000495262
0.000493989
0.000492069
0.00048938
0.000485791
0.000481144
0.000475256
0.00046794
0.00045898
0.000448176
0.000435298
0.000420032
0.000402381
0.000381857
0.000358646
0.000331931
0.000300653
0.000265378
0.000229721
0.000193531
0.000159531
0.000126472
9.66012e-05
7.00439e-05
4.90252e-05
3.24619e-05
2.18948e-05
1.74712e-05
1.62812e-05
1.42229e-05
1.22006e-05
1.67284e-05
2.82094e-05
0.000540727
0.000540774
0.000540812
0.000540836
0.000540836
0.000540811
0.000540756
0.000540671
0.000540552
0.000540397
0.000540205
0.000539974
0.000539702
0.000539386
0.000539021
0.000538607
0.000538142
0.000537623
0.000537047
0.000536409
0.000535703
0.000534923
0.000534058
0.000533098
0.00053203
0.000530832
0.000529484
0.000527965
0.000526256
0.000524325
0.000522145
0.000519673
0.000516868
0.000513677
0.000510039
0.000505881
0.000501114
0.000495643
0.00048936
0.000482138
0.00047385
0.000464313
0.000453336
0.000440773
0.000426421
0.000410194
0.000391786
0.000371013
0.000348312
0.000321302
0.000291061
0.000258415
0.000225502
0.000192016
0.000159854
0.000129642
0.000100476
7.58346e-05
5.3532e-05
3.77032e-05
2.44697e-05
1.70838e-05
1.40122e-05
1.27789e-05
9.98719e-06
8.81638e-06
1.3509e-05
2.24775e-05
4.0698e-05
0.000609091
0.000607617
0.000606091
0.00060451
0.000602869
0.000601167
0.0005994
0.000597566
0.000595662
0.000593685
0.000591631
0.000589496
0.000587278
0.000584972
0.000582574
0.000580081
0.000577486
0.000574785
0.000571974
0.000569047
0.000565993
0.000562798
0.000559449
0.00055593
0.000552217
0.000548267
0.000544057
0.000539594
0.000534877
0.00052982
0.000524471
0.000518699
0.000512516
0.000505854
0.000498636
0.000490773
0.000482162
0.00047272
0.000462342
0.000450893
0.000438278
0.000424187
0.000408501
0.000391291
0.000372297
0.000351755
0.000327377
0.000300553
0.000272385
0.000241875
0.000211692
0.000181034
0.000152165
0.000124401
9.77128e-05
7.54338e-05
5.44352e-05
3.88273e-05
2.63108e-05
1.75841e-05
1.26142e-05
1.08346e-05
8.91871e-06
6.50803e-06
6.37879e-06
1.01442e-05
1.90798e-05
3.76015e-05
5.86156e-05
0.000639084
0.000636119
0.000633097
0.00063001
0.000626847
0.000623601
0.000620267
0.00061684
0.000613316
0.000609689
0.000605956
0.000602111
0.00059815
0.000594067
0.000589858
0.000585516
0.000581036
0.000576409
0.000571628
0.000566682
0.000561552
0.000556229
0.000550698
0.000544946
0.000538953
0.000532698
0.000526146
0.000519182
0.00051209
0.000504214
0.000496516
0.000487798
0.000478927
0.000469441
0.000459272
0.000448283
0.000436396
0.000423641
0.000409888
0.000394968
0.000378849
0.000360725
0.000340703
0.000318826
0.000294883
0.000269337
0.000242633
0.000215651
0.00018804
0.000161325
0.000135486
0.000110716
8.84531e-05
6.81998e-05
5.05256e-05
3.64995e-05
2.49894e-05
1.69452e-05
1.17895e-05
8.7166e-06
7.34801e-06
5.25546e-06
4.1153e-06
4.74856e-06
7.20063e-06
1.37401e-05
2.8954e-05
4.84073e-05
7.05182e-05
0.000616325
0.000612442
0.000608481
0.000604435
0.000600296
0.000596057
0.000591715
0.000587262
0.000582696
0.000578011
0.000573201
0.000568263
0.00056319
0.000557976
0.000552615
0.000547099
0.00054142
0.000535571
0.000529533
0.000523294
0.000516842
0.000510165
0.00050325
0.00049608
0.000488637
0.000480896
0.000472828
0.000464396
0.000455584
0.000446328
0.000436625
0.000426378
0.000415547
0.000404058
0.000391829
0.00037866
0.000364379
0.000348834
0.000331803
0.000313406
0.000293469
0.000271965
0.000249883
0.000226369
0.000203552
0.000179021
0.000155837
0.000132804
0.000110357
9.04429e-05
7.19981e-05
5.58867e-05
4.21046e-05
3.03458e-05
2.11984e-05
1.43052e-05
9.96902e-06
6.95462e-06
5.17889e-06
3.80823e-06
2.95316e-06
2.61916e-06
3.51967e-06
5.22666e-06
9.6674e-06
1.98819e-05
3.61564e-05
5.88369e-05
8.06713e-05
0.000534769
0.000530685
0.000526512
0.000522247
0.000517885
0.000513421
0.000508851
0.00050417
0.000499375
0.00049446
0.000489421
0.000484253
0.000478951
0.000473507
0.000467904
0.000462135
0.000456195
0.000450076
0.000443769
0.000437264
0.000430548
0.00042361
0.000416432
0.000408996
0.000401278
0.000393236
0.000384848
0.00037606
0.000366795
0.000356975
0.000346517
0.000335334
0.000323332
0.000310436
0.000296505
0.000281629
0.000265777
0.000249089
0.000231294
0.000212912
0.000193563
0.000173956
0.000154333
0.000133928
0.000115696
9.62623e-05
8.03391e-05
6.46906e-05
5.1156e-05
4.01768e-05
3.01839e-05
2.22033e-05
1.53175e-05
1.03065e-05
7.1079e-06
4.88561e-06
3.47237e-06
2.56998e-06
2.006e-06
1.74527e-06
1.88585e-06
2.48716e-06
3.53572e-06
6.14604e-06
1.13983e-05
2.13065e-05
3.70536e-05
5.74932e-05
7.99849e-05
0.000395542
0.000392078
0.000388543
0.000384937
0.000381255
0.000377486
0.000373624
0.000369669
0.000365617
0.000361465
0.000357209
0.000352845
0.000348369
0.000343776
0.000339058
0.000334208
0.00032922
0.000324083
0.000318795
0.000313336
0.000307706
0.000301891
0.000295861
0.000289597
0.000283054
0.000276114
0.00026867
0.00026067
0.000252069
0.000242818
0.000232871
0.000222191
0.00021074
0.000198532
0.000185542
0.000171906
0.000157536
0.000142856
0.000127702
0.000112824
9.79925e-05
8.39006e-05
7.07466e-05
5.84075e-05
4.80352e-05
3.81079e-05
3.05466e-05
2.34675e-05
1.79056e-05
1.33471e-05
9.02137e-06
6.03162e-06
4.22621e-06
3.00027e-06
2.17054e-06
1.57027e-06
1.24304e-06
1.11521e-06
1.13948e-06
1.5322e-06
2.06752e-06
2.42547e-06
3.1212e-06
4.98728e-06
8.70277e-06
1.63223e-05
2.9181e-05
4.64988e-05
6.85014e-05
0.000220381
0.000218258
0.000216088
0.000213873
0.000211611
0.000209301
0.000206941
0.000204529
0.000202061
0.000199538
0.000196954
0.000194308
0.000191595
0.000188813
0.000185955
0.000183017
0.000179999
0.000176877
0.000173679
0.00017034
0.000166929
0.00016338
0.000159597
0.000155605
0.0001511
0.000146074
0.00014051
0.000134381
0.000127685
0.000120427
0.000112645
0.000104405
9.57755e-05
8.69268e-05
7.79325e-05
6.90682e-05
6.04052e-05
5.22115e-05
4.45679e-05
3.75865e-05
3.14382e-05
2.59293e-05
2.12895e-05
1.71588e-05
1.37175e-05
1.0685e-05
8.12156e-06
5.90223e-06
4.06649e-06
2.86288e-06
2.04435e-06
1.51302e-06
1.11896e-06
8.2858e-07
6.50814e-07
5.70241e-07
5.54425e-07
7.94875e-07
1.0616e-06
1.12099e-06
1.04493e-06
8.5497e-07
1.0492e-06
1.89215e-06
3.73003e-06
7.47438e-06
1.45564e-05
2.57674e-05
4.25859e-05
6.67645e-05
6.605e-05
6.53135e-05
6.45582e-05
6.37848e-05
6.29937e-05
6.21852e-05
6.13599e-05
6.05163e-05
5.96561e-05
5.87748e-05
5.78772e-05
5.69542e-05
5.60141e-05
5.50462e-05
5.40514e-05
5.30414e-05
5.1968e-05
5.09263e-05
4.97329e-05
4.86756e-05
4.73309e-05
4.56517e-05
4.36547e-05
4.14336e-05
3.90395e-05
3.65277e-05
3.39484e-05
3.13555e-05
2.87879e-05
2.62899e-05
2.38853e-05
2.16017e-05
1.94508e-05
1.74351e-05
1.55618e-05
1.38138e-05
1.21948e-05
1.06704e-05
9.23951e-06
7.87443e-06
6.56975e-06
5.32417e-06
4.15581e-06
3.061e-06
2.14459e-06
1.46267e-06
9.94719e-07
6.90868e-07
4.98303e-07
3.86265e-07
3.1038e-07
2.45561e-07
1.78747e-07
1.48696e-07
1.43338e-07
1.71574e-07
2.16924e-07
2.56644e-07
2.23985e-07
1.6795e-07
1.13393e-07
1.30789e-07
1.99068e-07
4.25172e-07
9.84236e-07
2.26222e-06
4.95856e-06
9.72732e-06
5.88152e-06
5.89684e-06
5.939e-06
5.99554e-06
6.05851e-06
6.12494e-06
6.19296e-06
6.26184e-06
6.3307e-06
6.39943e-06
6.46719e-06
6.53437e-06
6.59956e-06
6.66389e-06
6.72654e-06
6.77741e-06
6.87968e-06
6.91365e-06
7.00788e-06
7.03157e-06
7.10714e-06
7.12594e-06
7.13892e-06
7.14604e-06
7.14512e-06
7.13394e-06
7.11003e-06
7.07053e-06
7.01228e-06
6.93168e-06
6.82491e-06
6.68759e-06
6.51509e-06
6.30216e-06
6.04321e-06
5.73239e-06
5.3634e-06
4.93146e-06
4.43123e-06
3.86431e-06
3.23161e-06
2.5559e-06
1.85417e-06
1.15761e-06
5.726e-07
2.08104e-07
6.8849e-08
4.47626e-08
4.23649e-08
4.03183e-08
3.68233e-08
3.27406e-08
2.82803e-08
2.54599e-08
2.38686e-08
2.09283e-08
1.6897e-08
1.26124e-08
8.93551e-09
6.09307e-09
4.45373e-09
3.78603e-09
4.2487e-09
8.18531e-09
3.57107e-08
1.3209e-07
2.89103e-07
4.16721e-07
4.50199e-07
0.000173281
0.000173212
0.000173121
0.000173006
0.000172904
0.000172762
0.000172624
0.000172453
0.000172318
0.000172179
0.000171972
0.000171881
0.000171807
0.00017169
0.00017145
0.000171196
0.000171152
0.000171035
0.000170885
0.000170723
0.00017077
0.000170881
0.000170623
0.000170494
0.000170231
0.000170003
0.000170051
0.000170073
0.000170129
0.00017006
0.000169946
0.000169885
0.00016989
0.000169794
0.000169765
0.000169687
0.00016971
0.000169702
0.000169684
0.000169705
0.000169545
0.000169595
0.000169565
0.000169528
0.000169579
0.000169499
0.000169394
0.000169422
0.000169433
0.000169418
0.000169347
0.000169323
0.000169394
0.000169413
0.000169456
0.000169583
0.000169616
0.00016963
0.000169635
0.000175226
0.000175129
0.000175
0.000174872
0.000174732
0.000174576
0.000174425
0.00017427
0.000174137
0.000173992
0.000173838
0.000173732
0.000173562
0.000173345
0.000173058
0.000172935
0.000172933
0.00017269
0.000172534
0.000172458
0.000172506
0.000172507
0.000172187
0.000172061
0.00017175
0.000171581
0.000171622
0.000171662
0.000171655
0.000171555
0.000171475
0.000171412
0.000171389
0.000171287
0.000171269
0.000171208
0.000171189
0.000171192
0.000171185
0.000171175
0.000171107
0.000171079
0.000171063
0.000171046
0.000171054
0.000171053
0.000171011
0.000170945
0.00017095
0.000170961
0.000170957
0.000170902
0.000170888
0.000170883
0.000170916
0.000170962
0.000170988
0.000171019
0.000171083
0.000177433
0.000177311
0.000177166
0.000177028
0.000176878
0.000176728
0.000176582
0.000176434
0.000176288
0.000176124
0.000175951
0.000175766
0.000175527
0.000175291
0.000175076
0.00017502
0.000174904
0.000174646
0.000174519
0.000174514
0.000174504
0.000174384
0.000174035
0.000173892
0.000173567
0.000173441
0.000173472
0.00017351
0.00017345
0.000173331
0.000173274
0.000173197
0.000173151
0.000173056
0.000173027
0.000172974
0.000172943
0.000172939
0.000172938
0.000172924
0.000172881
0.000172856
0.000172832
0.000172816
0.000172798
0.000172804
0.000172821
0.000172815
0.000172762
0.000172725
0.000172714
0.000172704
0.000172698
0.000172675
0.000172682
0.000172757
0.000172796
0.000172792
0.000172822
0.000180001
0.00017987
0.00017972
0.000179576
0.000179423
0.000179269
0.000179108
0.000178937
0.000178752
0.000178548
0.00017833
0.000178096
0.000177854
0.00017765
0.000177491
0.000177392
0.000177181
0.000176955
0.000176883
0.000176887
0.000176794
0.000176549
0.0001762
0.000176028
0.000175706
0.000175615
0.000175632
0.000175652
0.000175549
0.000175418
0.000175366
0.000175273
0.000175212
0.000175118
0.000175086
0.000175036
0.000174992
0.00017498
0.000174981
0.000174969
0.000174939
0.000174906
0.000174896
0.000174898
0.000174901
0.000174878
0.00017488
0.000174907
0.000174938
0.000174945
0.000174929
0.000174878
0.000174833
0.000174816
0.000174805
0.000174814
0.000174888
0.000174944
0.000174925
0.000183031
0.00018289
0.000182726
0.000182565
0.000182391
0.000182208
0.000182011
0.0001818
0.000181574
0.000181337
0.000181094
0.000180854
0.000180634
0.000180449
0.000180282
0.000180109
0.00017987
0.000179703
0.000179652
0.00017959
0.000179396
0.000179066
0.000178729
0.000178525
0.000178216
0.00017815
0.000178148
0.00017814
0.000177999
0.000177859
0.0001778
0.000177693
0.000177618
0.000177525
0.000177486
0.000177439
0.000177388
0.000177363
0.000177363
0.000177361
0.000177342
0.000177313
0.000177293
0.0001773
0.000177321
0.000177344
0.000177355
0.000177361
0.000177347
0.000177377
0.000177359
0.000177397
0.000177428
0.000177454
0.00017748
0.000177505
0.000177536
0.000177589
0.000177616
0.000186579
0.000186416
0.000186222
0.000186031
0.000185822
0.000185602
0.000185368
0.000185124
0.000184873
0.00018462
0.000184373
0.000184138
0.000183922
0.000183718
0.000183511
0.000183293
0.000183072
0.000182942
0.000182854
0.000182692
0.000182394
0.000182017
0.000181691
0.000181457
0.00018117
0.000181115
0.000181091
0.000181042
0.000180869
0.00018072
0.000180647
0.000180525
0.000180436
0.000180342
0.000180293
0.000180247
0.000180197
0.000180161
0.000180152
0.000180157
0.00018015
0.000180134
0.000180119
0.000180116
0.000180129
0.000180169
0.000180226
0.000180274
0.000180303
0.000180294
0.000180293
0.000180319
0.000180384
0.000180448
0.000180507
0.000180578
0.000180591
0.00018063
0.000180594
0.000190716
0.000190522
0.000190294
0.000190069
0.000189826
0.000189575
0.000189315
0.00018905
0.000188784
0.000188522
0.000188267
0.00018802
0.000187781
0.000187542
0.000187301
0.000187069
0.000186867
0.00018672
0.000186546
0.000186273
0.000185894
0.000185497
0.000185175
0.000184915
0.000184651
0.000184594
0.000184536
0.000184442
0.000184241
0.000184081
0.000183988
0.000183851
0.000183747
0.000183649
0.000183591
0.000183543
0.000183494
0.000183454
0.000183437
0.000183439
0.000183442
0.00018344
0.000183436
0.000183438
0.000183452
0.000183482
0.000183525
0.000183599
0.000183697
0.000183792
0.000183805
0.000183833
0.000183795
0.000183831
0.000183867
0.000183923
0.000184016
0.000183997
0.000184106
0.000195571
0.000195347
0.000195087
0.000194832
0.000194561
0.000194284
0.000194002
0.000193717
0.000193433
0.000193151
0.000192872
0.000192597
0.000192323
0.000192051
0.000191788
0.000191544
0.000191323
0.000191106
0.000190823
0.00019045
0.000190019
0.000189613
0.000189286
0.000189004
0.000188759
0.000188683
0.000188583
0.00018844
0.000188214
0.00018804
0.000187923
0.000187768
0.000187648