/*--------------------------------*- C++ -*----------------------------------*\
| =========                 |                                                 |
| \\      /  F ield         | OpenFOAM: The Open Source CFD Toolbox           |
|  \\    /   O peration     | Version:  2312                                  |
|   \\  /    A nd           | Website:  www.openfoam.com                      |
|    \\/     M anipulation  |                                                 |
\*---------------------------------------------------------------------------*/
FoamFile
{
    version     2.0;
    format      ascii;
    arch        "LSB;label=32;scalar=64";
    class       volScalarField;
    location    "1900";
    object      omega;
}
// * * * * * * * * * * * * * * * * * * * * * * * * * * * * * * * * * * * * * //

dimensions      [0 0 -1 0 0 0 0];

internalField   nonuniform List<scalar> 
76025
(
0.0290896
0.0290719
0.0290511
0.0290361
0.0290189
0.0290135
0.0290034
0.0289923
0.028975
0.0289612
0.0289497
0.0289377
0.0289259
0.0289078
0.0288959
0.0288811
0.0288727
0.0288647
0.0288572
0.028851
0.0288477
0.0288471
0.028847
0.0288518
0.0288646
0.0288728
0.0288974
0.0289133
0.0289437
0.0289694
0.0290049
0.0290351
0.0290841
0.0291275
0.0291815
0.0292345
0.0292969
0.0293689
0.0294416
0.0295188
0.0295996
0.029692
0.0297909
0.0298954
0.0300081
0.030134
0.0302718
0.0304267
0.0306058
0.0308033
0.0310414
0.0313109
0.0316359
0.0320046
0.0324783
0.0330132
0.0336845
0.0344942
0.0355302
0.0369023
0.0385595
0.0408166
0.0437116
0.0473063
0.0515889
0.0570134
0.0630666
0.0721503
0.0827653
0.029341
0.0293322
0.0293177
0.0293046
0.0292894
0.0292803
0.0292706
0.0292629
0.0292538
0.0292425
0.0292325
0.0292217
0.0292151
0.0292044
0.0292003
0.0291906
0.0291888
0.0291875
0.0291844
0.029181
0.0291866
0.0291837
0.0291833
0.0291866
0.0291971
0.0292083
0.029227
0.029248
0.0292745
0.0293056
0.0293418
0.0293789
0.0294236
0.0294709
0.0295241
0.0295825
0.0296457
0.0297154
0.02979
0.0298711
0.0299608
0.0300573
0.0301641
0.0302809
0.0304124
0.0305588
0.030723
0.0309104
0.0311235
0.0313703
0.0316516
0.0319821
0.0323636
0.0328207
0.0333632
0.0340257
0.0348455
0.0358709
0.0372038
0.0388555
0.0410141
0.0436281
0.0468568
0.0507072
0.0552801
0.0612891
0.0681875
0.078114
0.0902216
0.0296271
0.0296255
0.0296221
0.0296133
0.0296002
0.0295891
0.0295792
0.0295749
0.0295657
0.0295647
0.0295563
0.0295547
0.0295515
0.0295434
0.0295461
0.0295467
0.0295473
0.0295409
0.0295379
0.0295403
0.0295551
0.0295528
0.0295528
0.0295568
0.0295667
0.0295804
0.029599
0.0296217
0.0296492
0.029681
0.0297181
0.0297591
0.0298053
0.0298564
0.0299131
0.0299758
0.0300448
0.0301207
0.0302039
0.0302951
0.0303959
0.0305071
0.0306303
0.0307673
0.0309208
0.0310931
0.0312879
0.0315086
0.0317613
0.0320502
0.0323849
0.0327732
0.0332311
0.0337754
0.0344332
0.0352405
0.0362435
0.0375044
0.0390903
0.0410627
0.0435177
0.0464349
0.0500328
0.0542683
0.0594334
0.0661427
0.0737582
0.0851631
0.0987534
0.0299631
0.0299667
0.0299678
0.0299676
0.0299603
0.0299578
0.0299469
0.0299466
0.0299408
0.0299382
0.0299354
0.0299423
0.0299445
0.0299458
0.0299465
0.0299432
0.0299575
0.0299619
0.0299598
0.0299733
0.0299827
0.0299767
0.029975
0.0299795
0.0299901
0.030006
0.0300268
0.0300524
0.0300829
0.0301182
0.0301587
0.0302042
0.0302553
0.0303123
0.0303755
0.0304455
0.0305231
0.0306088
0.0307036
0.0308082
0.0309243
0.031053
0.0311963
0.0313564
0.0315359
0.0317382
0.0319667
0.0322267
0.0325236
0.0328655
0.0332618
0.0337262
0.0342766
0.0349375
0.035743
0.0367347
0.0379687
0.039499
0.0413977
0.0436983
0.0464971
0.0497728
0.0537898
0.058456
0.0642931
0.0717576
0.0803641
0.0936272
0.108971
0.0303805
0.030381
0.0303811
0.0303773
0.030376
0.0303771
0.0303777
0.0303776
0.0303862
0.0303891
0.030389
0.0303847
0.0303977
0.0304014
0.0303984
0.0303917
0.0303913
0.0304206
0.0304209
0.0304244
0.0304294
0.0304348
0.0304428
0.0304546
0.030471
0.030492
0.0305178
0.0305483
0.0305838
0.0306245
0.0306708
0.0307228
0.030781
0.0308459
0.030918
0.030998
0.0310868
0.0311853
0.0312945
0.0314155
0.03155
0.0316996
0.0318664
0.0320531
0.0322628
0.0324994
0.0327676
0.0330733
0.0334243
0.0338306
0.0343055
0.0348669
0.0355386
0.0363515
0.0373452
0.0385663
0.0400674
0.041898
0.0441128
0.0467423
0.0498842
0.0535361
0.0580247
0.0632126
0.0699314
0.0783084
0.0882712
0.103945
0.121326
0.0308822
0.0308814
0.0308818
0.0308827
0.0308834
0.030883
0.0308769
0.0308733
0.0308757
0.0308843
0.0309039
0.0309091
0.0309065
0.0309275
0.0309314
0.0309214
0.0309173
0.0309241
0.0309321
0.0309413
0.0309524
0.0309656
0.0309816
0.0310012
0.0310249
0.0310526
0.0310849
0.0311221
0.0311645
0.0312124
0.0312664
0.0313268
0.0313942
0.0314693
0.0315526
0.0316451
0.0317478
0.0318617
0.0319883
0.0321287
0.0322851
0.0324592
0.0326536
0.0328717
0.0331173
0.0333953
0.033712
0.0340752
0.0344954
0.0349861
0.0355649
0.036255
0.0370856
0.0380923
0.0393168
0.0408031
0.0425968
0.0447373
0.0472734
0.0502436
0.0537612
0.0578595
0.0629258
0.0687903
0.0766641
0.0861082
0.098041
0.116728
0.136713
0.0314819
0.0314808
0.0314762
0.0314725
0.0314821
0.031485
0.0314768
0.0314804
0.0314717
0.0314698
0.031476
0.0314887
0.0315167
0.0315288
0.031521
0.0315174
0.0315191
0.0315261
0.0315371
0.0315511
0.0315682
0.0315883
0.0316117
0.0316389
0.03167
0.0317052
0.0317452
0.0317903
0.0318409
0.0318977
0.031961
0.0320316
0.0321102
0.0321975
0.0322942
0.0324016
0.0325208
0.032653
0.0328001
0.0329635
0.0331457
0.0333491
0.033577
0.0338335
0.0341239
0.0344547
0.0348343
0.0352734
0.035786
0.0363896
0.0371067
0.0379646
0.0389956
0.040236
0.0417239
0.0434971
0.0455932
0.0480498
0.0509214
0.0542676
0.0582279
0.062883
0.0686799
0.0754524
0.0848327
0.0955647
0.110484
0.132794
0.155883
0.0321956
0.0321954
0.0321947
0.032193
0.0321876
0.0321868
0.0321851
0.0322019
0.0322052
0.0322068
0.0322033
0.0322053
0.0322338
0.0322276
0.0322219
0.0322216
0.0322269
0.0322374
0.0322524
0.0322715
0.0322944
0.032321
0.0323515
0.032386
0.0324246
0.0324679
0.0325163
0.0325703
0.0326304
0.0326973
0.0327716
0.0328542
0.0329458
0.0330474
0.03316
0.0332849
0.0334237
0.0335779
0.0337496
0.0339411
0.0341552
0.0343955
0.034666
0.0349725
0.0353221
0.0357237
0.0361885
0.0367307
0.0373677
0.0381212
0.0390163
0.0400821
0.04135
0.0428524
0.0446219
0.0466917
0.049099
0.0518911
0.0551395
0.0589353
0.063453
0.0688336
0.0755863
0.0836133
0.0949316
0.107354
0.126856
0.152999
0.180873
0.0330223
0.0330172
0.0330298
0.0330343
0.0330353
0.0330246
0.0330225
0.0330185
0.0330476
0.0330578
0.0330651
0.0330592
0.0330917
0.0330908
0.0330765
0.0330711
0.0330748
0.0330857
0.0331027
0.0331252
0.0331526
0.0331849
0.0332217
0.0332631
0.0333094
0.033361
0.0334184
0.0334822
0.033553
0.0336315
0.0337185
0.0338151
0.0339222
0.0340409
0.0341727
0.0343191
0.0344822
0.034664
0.0348671
0.0350949
0.0353511
0.0356406
0.0359688
0.0363436
0.0367746
0.0372734
0.0378544
0.0385346
0.0393343
0.0402765
0.0413868
0.042692
0.0442201
0.0459993
0.0480603
0.0504395
0.0531843
0.0563618
0.0600697
0.0644391
0.0696915
0.0760426
0.0840817
0.0938635
0.10764
0.122639
0.14883
0.17852
0.21411
0.0340273
0.0340209
0.0340374
0.0340445
0.0340479
0.0340493
0.0340344
0.0340265
0.0340335
0.0340648
0.0340627
0.0340578
0.0341051
0.0341229
0.0341297
0.0341047
0.0340951
0.0341003
0.0341159
0.0341397
0.0341704
0.0342071
0.0342496
0.0342977
0.0343518
0.0344123
0.0344795
0.0345543
0.0346373
0.0347295
0.0348318
0.0349454
0.0350717
0.035212
0.0353682
0.0355425
0.0357375
0.0359561
0.0362018
0.0364793
0.0367936
0.0371515
0.0375604
0.0380301
0.0385729
0.0392028
0.0399363
0.0407919
0.0417901
0.042953
0.0443039
0.0458666
0.0476674
0.0497355
0.0521076
0.0548321
0.0579758
0.0616332
0.0659375
0.0710717
0.0773203
0.084997
0.0948156
0.107043
0.123998
0.143434
0.178298
0.210919
0.266137
0.0352436
0.0352312
0.0352283
0.0352322
0.0352329
0.0352597
0.0352653
0.0352549
0.0352822
0.0352942
0.0352977
0.0352839
0.0352747
0.0353359
0.0353607
0.0353736
0.0353447
0.0353321
0.0353387
0.0353591
0.0353898
0.035429
0.0354761
0.0355306
0.0355928
0.0356628
0.0357414
0.0358291
0.035927
0.0360361
0.0361577
0.0362933
0.0364447
0.0366138
0.0368032
0.0370158
0.0372551
0.0375252
0.0378311
0.0381787
0.0385751
0.0390283
0.0395485
0.040146
0.0408353
0.0416316
0.0425514
0.0436126
0.0448344
0.0462371
0.0478427
0.0496759
0.0517668
0.0541529
0.0568849
0.0600301
0.063683
0.0679733
0.0730837
0.0792659
0.0868948
0.0964209
0.108754
0.124358
0.145832
0.172814
0.21669
0.258032
0.347199
0.0366559
0.0366568
0.0366819
0.0366899
0.0366926
0.0366749
0.0366734
0.0366793
0.0366964
0.0366981
0.0367473
0.0367403
0.0367576
0.0367789
0.0367974
0.0368625
0.036846
0.0368311
0.0368303
0.0368439
0.0368709
0.03691
0.03696
0.0370205
0.0370913
0.0371725
0.0372648
0.037369
0.0374862
0.0376179
0.0377657
0.0379318
0.0381182
0.0383281
0.0385647
0.038832
0.0391348
0.0394783
0.0398691
0.0403145
0.0408228
0.0414035
0.0420674
0.0428263
0.0436923
0.0446821
0.0458108
0.0470955
0.0485555
0.0502116
0.0520893
0.0542199
0.0566437
0.0594127
0.0625975
0.0662922
0.070628
0.0757838
0.0820134
0.0896636
0.0992451
0.111412
0.127337
0.147703
0.176529
0.213892
0.268965
0.32901
0.446215
0.0383681
0.0383658
0.0383847
0.0383941
0.0384281
0.0384196
0.0384047
0.0384001
0.0384089
0.0384314
0.0385001
0.0385238
0.0385081
0.0385133
0.0385481
0.0386472
0.0386857
0.038658
0.0386458
0.0386534
0.0386784
0.0387191
0.0387744
0.0388437
0.0389267
0.0390238
0.0391357
0.0392635
0.0394087
0.0395731
0.0397592
0.0399696
0.0402074
0.0404764
0.040781
0.0411263
0.0415179
0.0419623
0.0424668
0.0430393
0.0436889
0.0444253
0.045259
0.0462015
0.0472655
0.048465
0.0498155
0.0513382
0.0530551
0.0549919
0.057183
0.0596715
0.0625124
0.0657782
0.0695665
0.07401
0.0792915
0.0856629
0.0934827
0.103234
0.115643
0.131659
0.152763
0.180576
0.220829
0.270737
0.344702
0.433118
0.568216
0.040459
0.0404584
0.0404663
0.0404863
0.0405406
0.0405545
0.040534
0.0405245
0.0405432
0.0406047
0.0406047
0.0406118
0.040624
0.0406633
0.0407688
0.040819
0.0408082
0.0408091
0.0408214
0.0408474
0.0408882
0.0409445
0.0410169
0.0411058
0.0412119
0.0413361
0.0414799
0.0416449
0.0418332
0.0420473
0.0422903
0.0425654
0.0428765
0.0432283
0.0436257
0.0440743
0.0445803
0.0451505
0.0457922
0.0465136
0.0473236
0.0482319
0.0492494
0.0503884
0.0516629
0.0530894
0.0546873
0.0564803
0.0584979
0.0607745
0.0633609
0.0663149
0.0697108
0.073651
0.0782732
0.0837677
0.0903943
0.0985185
0.10865
0.121486
0.138089
0.159827
0.188848
0.228884
0.283722
0.352257
0.456861
0.566599
0.742488
0.0430679
0.0430624
0.0430621
0.0430717
0.0431026
0.043173
0.0431944
0.0431769
0.04317
0.0432569
0.04326
0.0432701
0.043283
0.0433069
0.0433466
0.0433891
0.0434286
0.043471
0.0435206
0.0435808
0.0436544
0.0437435
0.04385
0.0439758
0.0441224
0.0442919
0.0444863
0.0447079
0.0449594
0.0452439
0.0455649
0.045926
0.0463316
0.0467864
0.0472956
0.0478649
0.0485007
0.0492098
0.0500001
0.0508801
0.0518597
0.0529501
0.0541643
0.0555175
0.0570277
0.0587165
0.06061
0.0627401
0.0651464
0.0678783
0.070998
0.0745858
0.0787452
0.0836302
0.0894401
0.0964538
0.105051
0.115772
0.129352
0.146837
0.169863
0.200423
0.242327
0.299663
0.372933
0.474657
0.605729
0.756567
0.887271
0.0462766
0.0462893
0.0463029
0.0463206
0.0463449
0.0463776
0.0464073
0.0464315
0.0464547
0.0464954
0.0465344
0.0465729
0.046613
0.046658
0.0467108
0.0467718
0.0468408
0.0469193
0.0470092
0.0471125
0.0472317
0.047369
0.0475266
0.0477069
0.0479121
0.0481445
0.0484068
0.0487016
0.0490319
0.0494012
0.049813
0.0502712
0.0507805
0.0513458
0.0519728
0.0526678
0.0534381
0.0542917
0.0552379
0.0562876
0.057453
0.0587488
0.0601918
0.0618022
0.0636041
0.0656264
0.0679044
0.0704819
0.0734127
0.0767669
0.0806293
0.0851201
0.0903709
0.0966293
0.104191
0.113475
0.125055
0.139727
0.158597
0.183411
0.216533
0.261196
0.322383
0.400962
0.505631
0.645597
0.810054
0.942028
1.00008
0.0504299
0.050458
0.050487
0.050519
0.0505544
0.0505938
0.0506362
0.0506808
0.0507284
0.0507824
0.0508423
0.0509078
0.0509794
0.0510583
0.0511462
0.0512446
0.0513548
0.0514781
0.0516164
0.0517714
0.0519451
0.0521396
0.0523572
0.0526002
0.052871
0.0531723
0.0535069
0.0538779
0.0542887
0.0547431
0.0552451
0.0557997
0.0564124
0.0570892
0.0578373
0.0586648
0.0595808
0.0605958
0.0617222
0.0629738
0.0643672
0.0659213
0.0676588
0.0696066
0.0717974
0.0742705
0.077075
0.0802723
0.0839378
0.0881758
0.0931033
0.0989067
0.105776
0.114121
0.124359
0.137168
0.153398
0.17427
0.201706
0.238317
0.287329
0.353493
0.439007
0.54965
0.697677
0.877278
1.01883
1.07667
1.05533
0.055911
0.0559652
0.0560206
0.0560789
0.0561398
0.0562043
0.0562728
0.0563459
0.0564241
0.0565084
0.0565998
0.0566989
0.0568065
0.0569237
0.0570516
0.0571915
0.0573449
0.0575134
0.0576985
0.0579021
0.0581261
0.0583728
0.0586445
0.0589439
0.0592737
0.0596372
0.0600378
0.0604794
0.0609665
0.0615039
0.0620972
0.0627527
0.0634777
0.0642803
0.0651697
0.0661567
0.0672532
0.0684732
0.0698327
0.0713502
0.0730475
0.0749504
0.0770897
0.0795025
0.0822342
0.0853411
0.0888938
0.0929827
0.0977168
0.103262
0.109775
0.11758
0.126954
0.13862
0.15308
0.171595
0.195318
0.226475
0.267998
0.32285
0.39629
0.489865
0.610231
0.765645
0.964183
1.10536
1.15501
1.13382
1.06577
0.0632828
0.0633705
0.0634585
0.063548
0.0636392
0.0637329
0.0638299
0.0639312
0.0640376
0.06415
0.0642693
0.0643965
0.0645328
0.0646791
0.0648369
0.0650076
0.0651927
0.0653941
0.0656135
0.0658533
0.0661158
0.0664037
0.06672
0.067068
0.0674514
0.0678744
0.0683416
0.0688583
0.0694303
0.0700642
0.0707673
0.0715481
0.0724161
0.0733821
0.0744582
0.0756585
0.0769991
0.0784984
0.080178
0.0820634
0.0841846
0.086578
0.089287
0.0923658
0.0958811
0.0999169
0.104581
0.110013
0.116377
0.123955
0.13294
0.14399
0.157422
0.174609
0.196006
0.224289
0.260367
0.30893
0.371551
0.454772
0.55914
0.691108
0.857338
1.07089
1.20519
1.2441
1.21596
1.13084
0.901536
0.0732171
0.0733188
0.0734229
0.0735298
0.0736392
0.0737503
0.0738629
0.0739785
0.0740984
0.0742238
0.0743562
0.0744968
0.0746472
0.0748087
0.074983
0.0751719
0.0753774
0.0756018
0.0758476
0.0761176
0.076415
0.0767433
0.0771065
0.0775089
0.0779555
0.0784516
0.0790036
0.0796182
0.0803033
0.0810674
0.0819206
0.0828739
0.0839401
0.0851336
0.0864709
0.0879712
0.0896565
0.0915528
0.0936907
0.0961068
0.0988453
0.10196
0.105517
0.109599
0.114311
0.119787
0.1262
0.133771
0.142769
0.153695
0.166768
0.183449
0.203793
0.230602
0.26409
0.308861
0.365276
0.440413
0.534219
0.655733
0.797727
0.984459
1.19403
1.32204
1.33093
1.3004
1.18475
0.891052
0.628598
0.0864802
0.0865605
0.0866463
0.0867377
0.0868341
0.0869356
0.0870429
0.0871565
0.0872773
0.0874064
0.087545
0.0876945
0.0878566
0.0880325
0.0882232
0.0884316
0.0886606
0.0889133
0.0891933
0.0895042
0.0898501
0.0902357
0.0906662
0.0911475
0.091686
0.0922889
0.0929644
0.0937218
0.0945714
0.0955253
0.0965968
0.0978014
0.0991565
0.100683
0.102404
0.104347
0.106544
0.109035
0.111866
0.115092
0.118786
0.123031
0.127931
0.133632
0.140296
0.148163
0.157519
0.168727
0.182275
0.199111
0.219612
0.246522
0.279375
0.3227
0.377775
0.446641
0.537837
0.645037
0.790847
0.940336
1.15956
1.34451
1.43704
1.43015
1.37733
1.222
0.864594
0.631742
0.496068
0.104158
0.104206
0.104263
0.104328
0.104402
0.104485
0.104577
0.104679
0.104793
0.104921
0.105062
0.10522
0.105397
0.105594
0.105813
0.106058
0.106333
0.106639
0.106983
0.107366
0.107796
0.108279
0.108821
0.10943
0.110116
0.110888
0.111758
0.112738
0.113843
0.11509
0.116499
0.118091
0.119894
0.121938
0.124259
0.126899
0.129911
0.133357
0.137315
0.141878
0.147167
0.153328
0.160531
0.169069
0.179175
0.191338
0.206075
0.223975
0.246238
0.27441
0.308997
0.35443
0.409387
0.479118
0.569858
0.671325
0.814674
0.963925
1.15929
1.36633
1.49865
1.54481
1.52725
1.46566
1.20872
0.837242
0.61661
0.488655
0.412291
0.128177
0.128208
0.128252
0.128307
0.128376
0.128457
0.128554
0.128666
0.128796
0.128945
0.129116
0.129311
0.129532
0.129783
0.130067
0.130388
0.130751
0.131159
0.131619
0.132137
0.132718
0.133372
0.134108
0.134938
0.135873
0.136929
0.138122
0.13947
0.140997
0.142727
0.144692
0.146927
0.149476
0.152388
0.155726
0.159562
0.163988
0.169113
0.175084
0.18206
0.19028
0.200026
0.211583
0.225689
0.24242
0.263289
0.288757
0.320139
0.36021
0.409477
0.469827
0.546178
0.63523
0.747425
0.884049
1.03887
1.23478
1.44111
1.57857
1.64302
1.643
1.61678
1.50761
1.14534
0.842098
0.668095
0.557585
0.46476
0.398094
0.162583
0.162639
0.162713
0.162807
0.16292
0.163053
0.163209
0.163388
0.163594
0.163828
0.164094
0.164396
0.164736
0.165119
0.16555
0.166035
0.166579
0.167189
0.167873
0.16864
0.1695
0.170466
0.171552
0.172774
0.174151
0.175705
0.177464
0.179459
0.181729
0.184317
0.18728
0.190679
0.194596
0.199123
0.20438
0.210506
0.217698
0.226152
0.236217
0.248151
0.26255
0.279942
0.300796
0.327219
0.35767
0.39816
0.445241
0.503937
0.577722
0.66153
0.763096
0.883125
1.02112
1.19486
1.38844
1.60073
1.7213
1.76196
1.75638
1.72879
1.68472
1.49067
1.05954
0.825141
0.720459
0.619423
0.524366
0.432954
0.38101
0.216863
0.217032
0.217231
0.217459
0.217718
0.218008
0.218333
0.218694
0.219095
0.21954
0.220032
0.220577
0.22118
0.221848
0.222585
0.223402
0.224308
0.225315
0.226435
0.227684
0.229076
0.230631
0.232372
0.234323
0.23652
0.239006
0.241838
0.245082
0.248816
0.253135
0.258151
0.264003
0.270864
0.278937
0.288498
0.299842
0.313462
0.329702
0.349552
0.373242
0.402554
0.438025
0.480626
0.535541
0.595187
0.678616
0.762121
0.871659
0.995617
1.1192
1.27696
1.45108
1.67095
1.86723
1.94404
1.94508
1.9122
1.85362
1.7859
1.64209
1.32183
0.954728
0.80504
0.751976
0.713239
0.643728
0.551909
0.467127
0.403259
0.318619
0.319055
0.319539
0.320073
0.320656
0.321287
0.321969
0.322705
0.323501
0.324364
0.3253
0.326317
0.327425
0.328633
0.329954
0.3314
0.332987
0.334735
0.336659
0.338791
0.341147
0.34376
0.346686
0.349982
0.353739
0.358136
0.363341
0.369513
0.376843
0.385566
0.395965
0.408384
0.423268
0.441099
0.462633
0.488471
0.51996
0.557576
0.603831
0.65851
0.725452
0.804522
0.896889
1.00846
1.12354
1.27357
1.40312
1.57777
1.73523
1.8721
2.13127
2.25591
2.25333
2.20802
2.1201
2.03086
1.83018
1.59122
1.3136
0.980966
0.738347
0.699448
0.806119
0.904699
0.932479
0.840709
0.705823
0.578113
0.477754
0.558927
0.56
0.561137
0.562346
0.563631
0.564995
0.566446
0.567989
0.569633
0.571389
0.573268
0.575282
0.577451
0.579786
0.582314
0.58506
0.588035
0.591326
0.594859
0.598879
0.603169
0.608013
0.613797
0.620573
0.629438
0.640671
0.654622
0.671769
0.692626
0.717856
0.748184
0.78448
0.827873
0.879273
0.940496
1.01224
1.09673
1.19477
1.30749
1.43709
1.57846
1.73844
1.90278
2.07891
2.25476
2.41834
2.57997
2.70157
2.82372
2.82925
2.75562
2.58055
2.39641
2.15457
1.83113
1.47459
1.18418
0.853051
0.68003
0.622183
0.614716
0.770922
1.05981
1.27534
1.35226
1.28838
1.10969
0.901427
0.71466
1.45261
1.45471
1.45699
1.45945
1.46205
1.46479
1.46767
1.47067
1.47383
1.47713
1.48064
1.48428
1.48823
1.49234
1.49682
1.50168
1.50669
1.51297
1.51821
1.52723
1.53208
1.54538
1.56947
1.60479
1.65066
1.70732
1.77502
1.85415
1.94486
2.04763
2.16233
2.28935
2.42814
2.57847
2.73989
2.91037
3.08898
3.27147
3.45565
3.63585
3.80531
3.96156
4.08595
4.18639
4.22931
4.20575
4.13627
3.98395
3.69733
3.28332
2.76921
2.26482
1.83522
1.52109
1.302
1.18894
1.11529
1.0221
0.957587
0.951141
1.00891
1.17759
1.53224
2.10036
2.43659
2.56855
2.45647
2.15565
1.76805
8.5297
8.52068
8.51163
8.50212
8.49192
8.48094
8.46908
8.45631
8.44256
8.42784
8.41206
8.39527
8.37733
8.35842
8.33794
8.31779
8.29407
8.27467
8.24799
8.22498
8.19794
8.16737
8.13538
8.10199
8.06703
8.03033
7.99167
7.95081
7.90747
7.86137
7.81221
7.75965
7.70336
7.64295
7.57804
7.50821
7.43312
7.35251
7.26621
7.17472
7.07841
6.98006
6.88057
6.78417
6.70011
6.63591
6.58939
6.55065
6.51333
6.47635
6.43969
6.40348
6.36778
6.33284
6.29861
6.26499
6.2321
6.20007
6.16901
6.13901
6.11014
6.08247
6.05609
6.03156
6.01172
5.99834
5.98966
5.97921
5.96337
0.0298155
0.0298105
0.029802
0.0297894
0.0297797
0.0297637
0.0297496
0.0297313
0.0297209
0.0297102
0.0296906
0.0296871
0.029687
0.0296904
0.029665
0.0296344
0.0296362
0.0296354
0.0296125
0.0295879
0.0296008
0.0296201
0.0295849
0.0295759
0.0295411
0.0295119
0.0295303
0.0295372
0.0295427
0.029534
0.0295248
0.0295236
0.0295257
0.0294995
0.0294865
0.029457
0.0294453
0.0294327
0.0294174
0.0294077
0.0293711
0.0293644
0.0293468
0.0293131
0.0293062
0.0292803
0.0292459
0.0292277
0.0292108
0.0291854
0.0291557
0.0291382
0.0291258
0.0291262
0.029129
0.0291294
0.0291247
0.0291137
0.0291016
0.0301321
0.0301227
0.030108
0.0300943
0.0300793
0.0300627
0.030048
0.0300337
0.0300239
0.0300121
0.0299986
0.0299923
0.0299785
0.0299591
0.0299232
0.0299098
0.0299103
0.0299008
0.0298693
0.0298623
0.0298733
0.0298736
0.0298322
0.0298229
0.0297787
0.029761
0.0297752
0.0297848
0.0297794
0.0297652
0.0297623
0.0297601
0.0297569
0.0297313
0.0297189
0.0296963
0.0296753
0.0296624
0.0296507
0.029638
0.0296122
0.0295963
0.0295803
0.0295547
0.0295373
0.0295214
0.029496
0.0294721
0.0294561
0.0294366
0.0294122
0.0293887
0.0293697
0.0293546
0.0293483
0.0293461
0.0293498
0.0293491
0.0293444
0.0305015
0.0304888
0.0304724
0.030458
0.0304422
0.0304273
0.0304134
0.0303998
0.0303863
0.0303698
0.030352
0.0303329
0.0303065
0.0302796
0.030254
0.0302511
0.0302387
0.0302138
0.0301893
0.0301902
0.0301934
0.0301777
0.0301322
0.0301185
0.0300716
0.0300608
0.0300714
0.0300804
0.0300659
0.0300485
0.0300494
0.0300442
0.0300368
0.0300136
0.0299989
0.0299802
0.0299576
0.0299398
0.0299273
0.029916
0.0298988
0.0298783
0.0298597
0.0298408
0.0298193
0.0298044
0.0297867
0.029764
0.0297463
0.0297295
0.0297112
0.0296905
0.0296715
0.0296528
0.0296389
0.0296293
0.0296229
0.0296248
0.0296255
0.0309413
0.0309275
0.0309102
0.0308949
0.0308783
0.030862
0.0308447
0.030826
0.0308052
0.0307814
0.0307559
0.0307283
0.0306994
0.0306754
0.030657
0.0306469
0.0306197
0.0305921
0.0305758
0.0305752
0.0305721
0.0305358
0.0304903
0.0304702
0.0304234
0.0304182
0.0304247
0.0304298
0.0304082
0.030389
0.0303905
0.030382
0.0303716
0.0303502
0.0303338
0.0303165
0.030295
0.0302738
0.0302579
0.0302466
0.0302336
0.0302166
0.0301969
0.0301777
0.0301572
0.0301413
0.0301265
0.0301093
0.030091
0.0300748
0.0300597
0.0300433
0.030027
0.0300103
0.0299952
0.0299822
0.0299726
0.0299638
0.0299648
0.0314658
0.0314498
0.0314296
0.0314109
0.03139
0.0313681
0.0313442
0.0313183
0.0312902
0.0312605
0.0312302
0.0312002
0.0311726
0.0311495
0.0311283
0.0311054
0.0310721
0.0310492
0.0310383
0.0310321
0.0310086
0.0309592
0.0309147
0.0308879
0.0308434
0.0308411
0.0308429
0.030843
0.030815
0.0307945
0.0307945
0.0307827
0.03077
0.0307492
0.0307321
0.0307148
0.0306944
0.0306727
0.0306537
0.0306403
0.0306293
0.0306154
0.0305992
0.0305811
0.0305608
0.0305412
0.0305266
0.0305145
0.0305018
0.0304858
0.03047
0.0304556
0.0304423
0.0304289
0.0304159
0.0304038
0.0303939
0.0303818
0.0303777
0.0320837
0.0320634
0.0320379
0.0320135
0.0319863
0.0319578
0.0319273
0.0318954
0.0318623
0.031829
0.0317962
0.0317649
0.0317358
0.0317081
0.031679
0.0316476
0.0316156
0.0315965
0.031582
0.0315609
0.0315185
0.0314623
0.0314181
0.0313853
0.0313443
0.0313424
0.0313396
0.031332
0.0312988
0.031277
0.031274
0.0312591
0.0312438
0.031223
0.0312052
0.0311876
0.0311675
0.0311463
0.0311264
0.0311108
0.0310999
0.0310879
0.0310741
0.0310597
0.0310439
0.0310252
0.0310057
0.0309896
0.0309765
0.0309712
0.030963
0.0309492
0.0309343
0.0309211
0.0309094
0.030896
0.0308919
0.0308815
0.0308818
0.0328086
0.0327829
0.0327512
0.0327207
0.0326874
0.0326531
0.0326173
0.0325808
0.0325438
0.0325071
0.032471
0.0324359
0.0324013
0.0323665
0.032331
0.0322962
0.0322658
0.0322433
0.0322167
0.0321776
0.032121
0.0320616
0.0320165
0.0319786
0.0319411
0.0319374
0.0319281
0.0319121
0.0318746
0.031851
0.031844
0.0318259
0.0318079
0.0317866
0.0317678
0.0317496
0.0317298
0.0317088
0.0316886
0.0316722
0.0316604
0.0316496
0.031638
0.0316259
0.0316132
0.0315998
0.0315863
0.0315702
0.031553
0.0315357
0.031532
0.031523
0.0315185
0.0315081
0.0315029
0.031492
0.0314888
0.0314838
0.031479
0.0336639
0.0336328
0.033595
0.0335587
0.0335197
0.0334799
0.033439
0.0333975
0.0333557
0.0333139
0.0332723
0.0332309
0.0331896
0.0331485
0.0331084
0.0330708
0.0330366
0.0330028
0.0329595
0.0329036
0.0328377
0.0327767
0.032729
0.0326871
0.032652
0.0326436
0.0326264
0.0326015
0.0325602
0.0325343
0.0325224
0.0325008
0.0324798
0.0324575
0.0324374
0.0324186
0.0323988
0.0323781
0.032358
0.0323409
0.0323283
0.0323181
0.0323083
0.0322986
0.0322889
0.032279
0.0322692
0.0322586
0.0322477
0.0322367
0.032227
0.0322107
0.0322072
0.0322024
0.0322002
0.032198
0.0321964
0.0321945
0.0321938
0.0346801
0.0346433
0.0345992
0.0345568
0.0345116
0.0344657
0.0344186
0.0343708
0.0343224
0.0342739
0.0342252
0.0341767
0.0341287
0.0340814
0.0340355
0.033991
0.0339459
0.0338958
0.0338352
0.0337658
0.0336939
0.0336309
0.0335794
0.033534
0.0334989
0.0334832
0.0334567
0.0334227
0.0333777
0.0333486
0.0333311
0.0333055
0.0332812
0.0332572
0.0332357
0.0332159
0.033196
0.0331757
0.0331558
0.0331385
0.0331253
0.0331153
0.033107
0.0330995
0.0330925
0.0330859
0.0330796
0.0330735
0.0330675
0.0330616
0.0330559
0.0330491
0.0330441
0.0330396
0.0330348
0.0330325
0.03303
0.0330191
0.0330253
0.0358932
0.0358502
0.0357988
0.0357493
0.0356969
0.0356435
0.0355888
0.0355332
0.0354769
0.0354203
0.0353635
0.0353069
0.0352507
0.0351948
0.0351389
0.0350816
0.0350205
0.0349525
0.0348765
0.0347968
0.03472
0.0346536
0.0345971
0.0345476
0.0345095
0.0344838
0.0344468
0.0344035
0.0343545
0.0343212
0.0342973
0.0342673
0.0342393
0.034213
0.0341896
0.0341685
0.0341483
0.0341283
0.0341089
0.0340918
0.0340784
0.0340686
0.0340614
0.0340559
0.0340517
0.034049
0.0340469
0.0340443
0.0340436
0.0340429
0.0340418
0.0340419
0.0340423
0.0340424
0.0340417
0.0340404
0.0340378
0.0340251
0.0340309
0.0373481
0.0372976
0.0372379
0.0371799
0.0371189
0.0370565
0.0369926
0.0369275
0.0368616
0.036795
0.036728
0.0366605
0.0365925
0.0365235
0.0364525
0.0363781
0.0362987
0.0362136
0.0361244
0.036036
0.0359538
0.0358818
0.0358186
0.0357633
0.0357185
0.0356804
0.0356318
0.0355791
0.0355255
0.0354867
0.0354556
0.0354203
0.0353881
0.0353588
0.0353331
0.0353104
0.0352896
0.0352698
0.0352511
0.0352346
0.0352214
0.0352121
0.035206
0.0352023
0.0352
0.0351945
0.0351931
0.0352036
0.0351956
0.0351974
0.035209
0.0352016
0.0352008
0.0352017
0.0352079
0.0352274
0.0352327
0.0352346
0.0352413
0.0391032
0.0390438
0.0389741
0.0389058
0.038834
0.0387605
0.038685
0.0386079
0.0385293
0.0384494
0.0383682
0.0382855
0.0382011
0.0381142
0.0380242
0.0379304
0.0378323
0.0377312
0.0376297
0.0375323
0.0374424
0.0373621
0.0372901
0.037226
0.0371705
0.0371177
0.0370565
0.0369938
0.0369344
0.0368888
0.0368494
0.0368079
0.0367709
0.036738
0.0367094
0.0366847
0.036663
0.0366432
0.0366252
0.0366096
0.0365974
0.0365889
0.0365839
0.0365825
0.0365846
0.0365851
0.0365767
0.0365744
0.0365938
0.036587
0.03661
0.0366147
0.0366051
0.0366013
0.0366042
0.0366109
0.0366192
0.0366264
0.0366435
0.0412361
0.0411654
0.041083
0.0410013
0.0409156
0.0408274
0.0407364
0.040643
0.0405473
0.0404493
0.040349
0.0402463
0.0401408
0.0400323
0.0399206
0.0398058
0.0396888
0.0395715
0.0394567
0.0393477
0.0392467
0.0391546
0.0390702
0.0389934
0.038923
0.0388533
0.0387783
0.0387048
0.0386379
0.0385838
0.0385349
0.0384859
0.0384432
0.0384059
0.0383738
0.0383467
0.0383237
0.0383038
0.0382866
0.0382723
0.0382615
0.0382548
0.0382526
0.0382518
0.0382453
0.0382533
0.0382561
0.038269
0.038265
0.0382644
0.0382971
0.0382931
0.038317
0.0383122
0.0383191
0.0383232
0.03835
0.0383503
0.0383634
0.0438537
0.0437673
0.0436678
0.0435679
0.0434632
0.0433548
0.0432427
0.0431273
0.0430085
0.0428866
0.0427615
0.0426334
0.0425024
0.0423685
0.0422322
0.0420943
0.0419563
0.0418203
0.0416886
0.0415635
0.0414464
0.0413375
0.0412362
0.0411417
0.0410521
0.0409632
0.0408724
0.0407865
0.0407099
0.0406451
0.0405851
0.0405272
0.0404776
0.040435
0.0403987
0.0403687
0.0403442
0.040324
0.0403077
0.0402951
0.0402865
0.0402813
0.040274
0.0402853
0.0402761
0.0402784
0.0402847
0.0403217
0.0403282
0.0403152
0.0403519
0.0403452
0.0403859
0.0403883
0.0404172
0.0404157
0.0404249
0.0404304
0.0404512
0.0471166
0.0470073
0.0468831
0.0467571
0.0466252
0.0464884
0.0463467
0.0462007
0.0460506
0.0458967
0.0457393
0.0455787
0.0454156
0.0452504
0.0450841
0.0449179
0.0447534
0.0445925
0.0444371
0.0442889
0.0441486
0.0440163
0.0438914
0.0437731
0.0436595
0.043548
0.0434388
0.043338
0.0432483
0.0431701
0.0430969
0.043028
0.0429703
0.0429212
0.04288
0.0428466
0.0428203
0.0427999
0.0427848
0.0427746
0.0427693
0.0427694
0.0427705
0.0427635
0.0427841
0.0427784
0.0427827
0.0428016
0.0428474
0.0428392
0.0428877
0.0428845
0.0429133
0.0429286
0.0429479
0.0429645
0.0429819
0.042996
0.0430235
0.051293
0.0511474
0.0509856
0.0508196
0.0506463
0.0504663
0.0502804
0.0500892
0.0498932
0.0496931
0.0494896
0.0492835
0.0490757
0.0488672
0.0486592
0.0484531
0.0482506
0.0480532
0.0478626
0.0476799
0.0475057
0.0473399
0.0471823
0.0470319
0.0468877
0.0467485
0.0466161
0.0464963
0.046389
0.0462935
0.046204
0.0461216
0.0460537
0.0459969
0.0459499
0.0459127
0.0458846
0.0458644
0.0458512
0.0458445
0.0458436
0.0458384
0.0458416
0.0458646
0.0458648
0.045901
0.0458998
0.0459198
0.0459523
0.0459712
0.0460026
0.0460263
0.0460566
0.0460861
0.0461162
0.0461465
0.0461776
0.0462058
0.0462504
0.0568334
0.0566306
0.0564105
0.0561823
0.0559441
0.0556969
0.0554417
0.0551792
0.0549108
0.0546377
0.0543612
0.0540827
0.0538036
0.0535256
0.0532502
0.0529791
0.0527141
0.0524569
0.0522088
0.0519708
0.0517434
0.0515269
0.0513209
0.0511251
0.0509389
0.0507627
0.0505994
0.0504524
0.0503202
0.0502014
0.0500909
0.0499909
0.0499102
0.0498441
0.0497905
0.0497494
0.04972
0.0497012
0.0496919
0.0496907
0.0496881
0.0497085
0.0497092
0.0497396
0.0497569
0.0497902
0.0498169
0.0498508
0.0498921
0.0499325
0.0499764
0.0500206
0.0500675
0.0501161
0.0501662
0.0502179
0.0502711
0.0503231
0.0503915
0.0643264
0.0640461
0.0637542
0.0634492
0.0631281
0.0627914
0.0624407
0.0620778
0.0617045
0.0613229
0.0609353
0.0605442
0.0601522
0.0597622
0.0593756
0.058995
0.0586228
0.0582612
0.0579122
0.0575773
0.0572575
0.0569536
0.0566659
0.0563947
0.0561403
0.0559046
0.0556911
0.0554985
0.0553258
0.0551711
0.0550297
0.0549048
0.0548065
0.0547287
0.0546686
0.0546256
0.0545987
0.0545868