/*--------------------------------*- C++ -*----------------------------------*\
| =========                 |                                                 |
| \\      /  F ield         | OpenFOAM: The Open Source CFD Toolbox           |
|  \\    /   O peration     | Version:  2312                                  |
|   \\  /    A nd           | Website:  www.openfoam.com                      |
|    \\/     M anipulation  |                                                 |
\*---------------------------------------------------------------------------*/
FoamFile
{
    version     2.0;
    format      ascii;
    arch        "LSB;label=32;scalar=64";
    class       volScalarField;
    location    "1900";
    object      p;
}
// * * * * * * * * * * * * * * * * * * * * * * * * * * * * * * * * * * * * * //

dimensions      [0 2 -2 0 0 0 0];

internalField   nonuniform List<scalar> 
76025
(
0.000185845
0.000177806
0.00016968
0.000161479
0.00015326
0.000145036
0.000136345
0.000127855
0.000119166
0.000110548
0.000101878
9.31411e-05
8.432e-05
7.55231e-05
6.66668e-05
5.76535e-05
4.88938e-05
3.98648e-05
3.1e-05
2.20681e-05
1.32788e-05
4.34238e-06
-4.44868e-06
-1.309e-05
-2.17616e-05
-3.02971e-05
-3.87686e-05
-4.73307e-05
-5.55384e-05
-6.38957e-05
-7.18475e-05
-7.9796e-05
-8.74996e-05
-9.52242e-05
-0.000102596
-0.000109894
-0.000116868
-0.000124031
-0.000130979
-0.000137497
-0.000143713
-0.000149797
-0.000155935
-0.000161672
-0.000166934
-0.000171996
-0.000176891
-0.000181474
-0.00018539
-0.000189083
-0.000192461
-0.000195368
-0.000197851
-0.000199749
-0.000200901
-0.000201204
-0.000201092
-0.000200036
-0.000198196
-0.000195417
-0.000191521
-0.00018625
-0.000179162
-0.000170811
-0.000160689
-0.000148298
-0.000134705
-0.000117947
-9.54751e-05
0.000187492
0.000179131
0.000170703
0.000162154
0.000153494
0.000144711
0.00013587
0.000126964
0.000117986
0.000108951
9.98604e-05
9.07225e-05
8.15518e-05
7.23355e-05
6.31137e-05
5.38925e-05
4.46403e-05
3.54083e-05
2.6152e-05
1.69658e-05
7.77912e-06
-1.34483e-06
-1.03995e-05
-1.93619e-05
-2.82756e-05
-3.71333e-05
-4.59106e-05
-5.45244e-05
-6.30211e-05
-7.14358e-05
-7.9674e-05
-8.7861e-05
-9.58675e-05
-0.000103672
-0.000111324
-0.000118771
-0.000126088
-0.000133261
-0.000140199
-0.000146924
-0.000153385
-0.000159666
-0.000165723
-0.000171445
-0.000176906
-0.000182086
-0.000186997
-0.00019151
-0.000195642
-0.000199452
-0.000202896
-0.00020587
-0.000208341
-0.000210236
-0.000211464
-0.000211988
-0.000211857
-0.000210843
-0.000208933
-0.000206007
-0.000201881
-0.000196389
-0.000189304
-0.000180649
-0.00017016
-0.000157536
-0.000142858
-0.000125031
-0.000103684
0.000189042
0.000180305
0.00017148
0.000162513
0.000153425
0.000144263
0.000135029
0.000125718
0.000116337
0.000106891
9.73982e-05
8.78716e-05
7.83113e-05
6.87287e-05
5.91432e-05
4.95402e-05
3.99394e-05
3.03492e-05
2.07803e-05
1.12453e-05
1.75774e-06
-7.66669e-06
-1.70263e-05
-2.63083e-05
-3.55139e-05
-4.4635e-05
-5.36347e-05
-6.25081e-05
-7.12658e-05
-7.98951e-05
-8.8395e-05
-9.67549e-05
-0.000104935
-0.000112929
-0.00012075
-0.000128389
-0.000135853
-0.000143128
-0.000150205
-0.000157068
-0.000163686
-0.000170067
-0.000176203
-0.000182074
-0.000187668
-0.000192961
-0.000197944
-0.000202586
-0.000206868
-0.000210776
-0.000214283
-0.000217334
-0.00021988
-0.000221866
-0.000223219
-0.000223876
-0.000223798
-0.000222872
-0.000221007
-0.000218082
-0.000213945
-0.000208452
-0.000201407
-0.000192678
-0.000182069
-0.000169307
-0.000154118
-0.000135843
-0.000114372
0.000190388
0.00018123
0.000171977
0.000162581
0.000153073
0.000143483
0.000133817
0.00012408
0.00011428
0.000104426
9.45272e-05
8.45947e-05
7.46358e-05
6.46602e-05
5.46782e-05
4.46952e-05
3.47241e-05
2.47742e-05
1.48571e-05
4.98363e-06
-4.83311e-06
-1.45841e-05
-2.42598e-05
-3.38479e-05
-4.33393e-05
-5.27252e-05
-6.1992e-05
-7.11321e-05
-8.01371e-05
-8.89981e-05
-9.77072e-05
-0.000106252
-0.00011462
-0.0001228
-0.000130798
-0.00013861
-0.000146232
-0.000153657
-0.000160874
-0.000167866
-0.00017462
-0.000181128
-0.000187387
-0.000193379
-0.000199087
-0.000204496
-0.000209593
-0.000214356
-0.000218761
-0.000222786
-0.000226404
-0.000229574
-0.000232246
-0.000234364
-0.000235866
-0.000236683
-0.000236752
-0.000235977
-0.000234255
-0.00023147
-0.000227488
-0.000222156
-0.000215299
-0.000206734
-0.00019626
-0.000183578
-0.000168338
-0.00015007
-0.000128619
0.000191501
0.000181902
0.000172205
0.000162364
0.000152409
0.000142368
0.000132256
0.000122078
0.00011184
0.000101551
9.12227e-05
8.08639e-05
7.04851e-05
6.0096e-05
4.9707e-05
3.93288e-05
2.89715e-05
1.86463e-05
8.36427e-06
-1.86301e-06
-1.20243e-05
-2.21086e-05
-3.21047e-05
-4.20016e-05
-5.17894e-05
-6.14585e-05
-7.09985e-05
-8.03986e-05
-8.96491e-05
-9.8742e-05
-0.000107668
-0.000116418
-0.00012498
-0.000133348
-0.000141526
-0.00014951
-0.000157293
-0.000164867
-0.000172224
-0.000179351
-0.00018624
-0.00019288
-0.000199265
-0.000205381
-0.000211214
-0.000216751
-0.000221976
-0.000226872
-0.000231415
-0.000235582
-0.000239346
-0.000242669
-0.000245504
-0.0002478
-0.000249496
-0.000250526
-0.000250816
-0.000250279
-0.000248817
-0.000246317
-0.000242651
-0.000237669
-0.000231198
-0.000223032
-0.000212953
-0.000200628
-0.00018571
-0.000167772
-0.000146365
0.000192369
0.000182299
0.000172133
0.000161818
0.000151389
0.000140875
0.000130293
0.000119649
0.000108948
9.82009e-05
8.74187e-05
7.66126e-05
6.57935e-05
5.49724e-05
4.41604e-05
3.33688e-05
2.26087e-05
1.18918e-05
1.22958e-06
-9.3661e-06
-1.98836e-05
-3.03114e-05
-4.06382e-05
-5.08531e-05
-6.09456e-05
-7.09053e-05
-8.07216e-05
-9.03844e-05
-9.98842e-05
-0.000109212
-0.000118359
-0.000127317
-0.000136074
-0.000144628
-0.000152984
-0.000161136
-0.000169079
-0.000176803
-0.000184302
-0.000191567
-0.00019859
-0.000205364
-0.000211878
-0.000218123
-0.000224088
-0.000229761
-0.000235126
-0.000240167
-0.000244865
-0.000249196
-0.000253134
-0.000256644
-0.000259683
-0.000262203
-0.000264148
-0.000265454
-0.000266052
-0.00026586
-0.000264788
-0.000262729
-0.00025956
-0.000255131
-0.000249266
-0.00024175
-0.000232345
-0.000220693
-0.000206486
-0.000189291
-0.000168322
0.000192931
0.000182362
0.000171697
0.00016088
0.000149948
0.000138935
0.000127857
0.00011672
0.000105531
9.43018e-05
8.30436e-05
7.17686e-05
6.04889e-05
4.92163e-05
3.79626e-05
2.674e-05
1.55603e-05
4.43597e-06
-6.62082e-06
-1.75979e-05
-2.84833e-05
-3.9265e-05
-4.99316e-05
-6.04717e-05
-7.08744e-05
-8.11291e-05
-9.12253e-05
-0.000101153
-0.000110903
-0.000120467
-0.000129834
-0.000138998
-0.00014795
-0.000156689
-0.00016522
-0.000173538
-0.000181637
-0.00018951
-0.00019715
-0.000204553
-0.00021171
-0.000218616
-0.000225262
-0.000231642
-0.000237744
-0.000243559
-0.000249075
-0.000254277
-0.000259147
-0.000263664
-0.000267805
-0.000271536
-0.000274821
-0.000277616
-0.000279872
-0.000281532
-0.000282535
-0.000282808
-0.000282269
-0.000280817
-0.000278333
-0.000274669
-0.000269648
-0.000263052
-0.000254621
-0.000244001
-0.000230916
-0.000214832
-0.000194556
0.000193122
0.000182023
0.00017083
0.000159482
0.00014802
0.00013648
0.000124877
0.000113221
0.000101519
8.97836e-05
7.80262e-05
6.626e-05
5.44981e-05
4.27533e-05
3.10386e-05
1.93668e-05
7.75088e-06
-3.79631e-06
-1.52619e-05
-2.66332e-05
-3.78976e-05
-4.9043e-05
-6.00574e-05
-7.09291e-05
-8.16471e-05
-9.22005e-05
-0.000102579
-0.000112773
-0.000122773
-0.000132571
-0.000142158
-0.000151526
-0.000160668
-0.000169589
-0.000178291
-0.000186771
-0.000195022
-0.000203039
-0.000210818
-0.000218355
-0.000225645
-0.000232682
-0.000239461
-0.000245976
-0.00025222
-0.000258185
-0.000263861
-0.000269235
-0.000274294
-0.00027902
-0.00028339
-0.000287378
-0.000290953
-0.000294079
-0.000296716
-0.000298818
-0.000300332
-0.000301198
-0.000301338
-0.000300662
-0.000299056
-0.000296377
-0.00029245
-0.000287058
-0.000279929
-0.000270758
-0.000259217
-0.000244534
-0.000225191
0.000192876
0.000181215
0.000169461
0.000157552
0.000145529
0.00013343
0.000121275
0.000109072
9.68297e-05
8.45612e-05
7.22798e-05
5.99989e-05
4.77326e-05
3.54948e-05
2.32993e-05
1.11601e-05
-9.09132e-07
-1.28946e-05
-2.47829e-05
-3.65606e-05
-4.82148e-05
-5.97327e-05
-7.1102e-05
-8.2311e-05
-9.33481e-05
-0.000104203
-0.000114865
-0.000125324
-0.000135572
-0.000145601
-0.000155403
-0.00016497
-0.000174298
-0.000183394
-0.000192261
-0.000200895
-0.000209292
-0.000217447
-0.000225359
-0.000233024
-0.000240441
-0.000247606
-0.000254516
-0.000261167
-0.000267555
-0.000273675
-0.000279518
-0.000285077
-0.00029034
-0.000295293
-0.00029992
-0.000304201
-0.000308114
-0.000311632
-0.000314726
-0.000317362
-0.000319497
-0.000321079
-0.000322045
-0.00032231
-0.000321773
-0.000320299
-0.00031772
-0.000313828
-0.000308362
-0.000301066
-0.000291434
-0.000278606
-0.000261537
0.000192111
0.000179852
0.000167505
0.000155001
0.000142384
0.000129696
0.000116956
0.000104175
9.13637e-05
7.85348e-05
6.57026e-05
5.28819e-05
4.0088e-05
2.73354e-05
1.4639e-05
2.01379e-06
-1.05255e-05
-2.29643e-05
-3.52884e-05
-4.7484e-05
-5.95375e-05
-7.14357e-05
-8.31659e-05
-9.4716e-05
-0.000106075
-0.000117231
-0.000128175
-0.000138897
-0.000149388
-0.000159642
-0.000169652
-0.000179409
-0.000188915
-0.000198179
-0.000207201
-0.00021598
-0.000224511
-0.000232795
-0.00024083
-0.000248616
-0.000256153
-0.000263439
-0.000270476
-0.00027726
-0.000283792
-0.000290067
-0.000296083
-0.000301835
-0.000307314
-0.000312515
-0.000317427
-0.00032204
-0.00032634
-0.000330313
-0.000333939
-0.000337195
-0.000340051
-0.000342467
-0.000344391
-0.000345754
-0.000346468
-0.000346414
-0.000345439
-0.000343361
-0.000339933
-0.000334853
-0.000327362
-0.000316825
-0.000302342
0.000190723
0.000177832
0.000164856
0.000151721
0.000138477
0.000125166
0.00011181
9.84202e-05
8.50092e-05
7.15904e-05
5.81793e-05
4.47923e-05
3.14458e-05
1.81558e-05
4.93788e-06
-8.19193e-06
-2.1218e-05
-3.41248e-05
-4.68977e-05
-5.95218e-05
-7.19832e-05
-8.42682e-05
-9.63637e-05
-0.000108257
-0.000119938
-0.000131393
-0.000142615
-0.000153594
-0.000164322
-0.000174793
-0.000184999
-0.000194937
-0.000204609
-0.000214027
-0.000223192
-0.000232101
-0.000240754
-0.000249152
-0.000257298
-0.000265193
-0.000272838
-0.000280237
-0.000287391
-0.000294303
-0.000300973
-0.000307403
-0.000313592
-0.000319542
-0.000325251
-0.000330719
-0.000335945
-0.000340927
-0.000345661
-0.000350143
-0.000354365
-0.000358316
-0.000361977
-0.000365324
-0.000368321
-0.00037092
-0.000373051
-0.000374621
-0.000375513
-0.000375573
-0.000374538
-0.000371958
-0.000366974
-0.000359371
-0.000348135
0.000188592
0.000175028
0.000161387
0.000147586
0.000133677
0.000119707
0.000105701
9.16708e-05
7.76297e-05
6.35915e-05
4.95729e-05
3.55927e-05
2.16688e-05
7.8183e-06
-5.94193e-06
-1.95949e-05
-3.31241e-05
-4.65133e-05
-5.9747e-05
-7.28099e-05
-8.5687e-05
-9.83642e-05
-0.000110828
-0.000123065
-0.000135065
-0.000146816
-0.00015831
-0.000169537
-0.00018049
-0.000191164
-0.000201554
-0.000211656
-0.00022148
-0.000231036
-0.000240325
-0.000249346
-0.000258103
-0.000266599
-0.000274838
-0.000282824
-0.000290563
-0.000298059
-0.000305318
-0.000312345
-0.000319144
-0.000325722
-0.000332085
-0.000338238
-0.000344187
-0.00034994
-0.000355502
-0.000360882
-0.000366085
-0.000371115
-0.000375977
-0.000380672
-0.000385198
-0.000389549
-0.000393708
-0.000397652
-0.00040134
-0.000404723
-0.000407723
-0.000410198
-0.00041184
-0.000412181
-0.000410665
-0.000407123
-0.000398746
0.00018558
0.000171303
0.000156954
0.000142445
0.000127834
0.000113169
9.84776e-05
8.37726e-05
6.90668e-05
5.43763e-05
3.97208e-05
2.51206e-05
1.05941e-05
-3.84044e-06
-1.81643e-05
-3.23589e-05
-4.6407e-05
-6.02923e-05
-7.39984e-05
-8.75089e-05
-0.000100808
-0.000113881
-0.000126714
-0.000139293
-0.000151607
-0.000163646
-0.000175401
-0.000186863
-0.000198028
-0.000208888
-0.000219442
-0.00022969
-0.000239647
-0.000249318
-0.000258708
-0.000267818
-0.000276655
-0.000285224
-0.000293532
-0.000301587
-0.000309396
-0.000316969
-0.000324313
-0.000331438
-0.000338355
-0.000345074
-0.000351605
-0.000357962
-0.000364156
-0.000370201
-0.000376111
-0.0003819
-0.000387584
-0.000393178
-0.000398698
-0.000404159
-0.000409578
-0.000414969
-0.000420342
-0.000425703
-0.000431056
-0.000436398
-0.000441669
-0.000446722
-0.000451288
-0.000455177
-0.000458259
-0.000460543
-0.000460958
0.000181523
0.000166487
0.000151386
0.000136128
0.000120772
0.000105373
8.99575e-05
7.45397e-05
5.91343e-05
4.37597e-05
2.84373e-05
1.31877e-05
-1.96879e-06
-1.70119e-05
-3.19208e-05
-4.66765e-05
-6.12611e-05
-7.5657e-05
-8.98467e-05
-0.000103813
-0.000117538
-0.000131008
-0.000144208
-0.000157124
-0.000169745
-0.00018206
-0.000194062
-0.000205743
-0.000217098
-0.000228123
-0.000238817
-0.000249187
-0.000259248
-0.000269005
-0.000278465
-0.000287632
-0.000296515
-0.000305125
-0.00031347
-0.000321561
-0.000329412
-0.000337033
-0.000344439
-0.000351643
-0.00035866
-0.000365505
-0.000372195
-0.000378745
-0.000385175
-0.000391502
-0.000397749
-0.000403936
-0.000410088
-0.00041623
-0.000422393
-0.000428607
-0.000434908
-0.000441333
-0.000447925
-0.00045473
-0.000461798
-0.000469149
-0.000476746
-0.00048452
-0.000492443
-0.000500656
-0.00050893
-0.000517307
-0.000523892
0.000176199
0.000160355
0.000144456
0.000128403
0.000112261
9.6086e-05
7.99064e-05
6.37383e-05
4.75981e-05
3.15062e-05
1.54852e-05
-4.42812e-07
-1.62562e-05
-3.19328e-05
-4.74506e-05
-6.2789e-05
-7.79282e-05
-9.28489e-05
-0.000107532
-0.00012196
-0.000136115
-0.00014998
-0.000163542
-0.000176786
-0.000189701
-0.000202277
-0.000214505
-0.000226381
-0.0002379
-0.000249059
-0.00025986
-0.000270317
-0.000280443
-0.000290245
-0.000299731
-0.000308912
-0.000317798
-0.000326405
-0.000334745
-0.000342835
-0.000350689
-0.000358326
-0.000365763
-0.000373017
-0.000380107
-0.000387052
-0.000393872
-0.000400589
-0.000407225
-0.000413803
-0.000420351
-0.000426897
-0.000433473
-0.000440118
-0.000446871
-0.000453784
-0.00046091
-0.000468314
-0.000476075
-0.000484278
-0.000493
-0.000502305
-0.000512275
-0.00052308
-0.000534984
-0.000548186
-0.000562169
-0.000576523
-0.000586949
0.000169323
0.000152618
0.000135874
0.000118981
0.000102008
8.5013e-05
6.80268e-05
5.10678e-05
3.41547e-05
1.73098e-05
5.56932e-07
-1.60806e-05
-3.25793e-05
-4.89153e-05
-6.50651e-05
-8.10059e-05
-9.6716e-05
-0.000112174
-0.00012736
-0.000142254
-0.000156838
-0.000171095
-0.000185009
-0.000198566
-0.000211755
-0.000224566
-0.000236992
-0.000249027
-0.000260669
-0.000271917
-0.000282778
-0.000293271
-0.000303407
-0.000313197
-0.000322653
-0.00033179
-0.000340625
-0.000349175
-0.000357459
-0.000365497
-0.000373309
-0.000380916
-0.000388338
-0.000395597
-0.000402715
-0.000409715
-0.000416619
-0.000423453
-0.000430242
-0.000437015
-0.000443803
-0.000450641
-0.00045757
-0.000464635
-0.00047189
-0.000479401
-0.000487243
-0.00049551
-0.000504308
-0.000513754
-0.000523984
-0.00053521
-0.000547723
-0.000561913
-0.000578062
-0.000596171
-0.000615587
-0.000635495
-0.000653687
0.00016053
0.000142911
0.000125268
0.000107483
8.96281e-05
7.17653e-05
5.39266e-05
3.61328e-05
1.84046e-05
7.66103e-07
-1.67566e-05
-3.41379e-05
-5.13523e-05
-6.83743e-05
-8.51785e-05
-0.00010174
-0.000118034
-0.000134039
-0.00014973
-0.000165088
-0.000180092
-0.000194725
-0.000208969
-0.000222811
-0.000236238
-0.000249242
-0.000261816
-0.000273956
-0.000285661
-0.000296935
-0.00030779
-0.000318249
-0.000328323
-0.000338028
-0.000347382
-0.000356404
-0.000365115
-0.000373539
-0.000381698
-0.000389616
-0.000397319
-0.00040483
-0.000412174
-0.000419374
-0.000426457
-0.000433446
-0.000440367
-0.000447248
-0.000454118
-0.000461006
-0.00046795
-0.000474987
-0.000482164
-0.000489534
-0.000497161
-0.000505122
-0.000513511
-0.000522442
-0.000532058
-0.00054255
-0.00055421
-0.000567416
-0.000582571
-0.000600008
-0.000619787
-0.000641556
-0.000664168
-0.000686455
-0.000705476
0.000149243
0.000130645
0.000112047
9.33157e-05
7.45281e-05
5.5748e-05
3.70105e-05
1.83387e-05
-2.44374e-07
-1.87124e-05
-3.7037e-05
-5.51898e-05
-7.31427e-05
-9.08678e-05
-0.000108337
-0.000125524
-0.000142401
-0.000158942
-0.000175124
-0.000190923
-0.000206317
-0.000221288
-0.000235818
-0.000249893
-0.0002635
-0.000276632
-0.000289283
-0.000301451
-0.000313137
-0.000324351
-0.000335114
-0.000345446
-0.000355364
-0.000364889
-0.000374043
-0.000382853
-0.000391346
-0.000399548
-0.00040749
-0.0004152
-0.000422707
-0.000430038
-0.000437221
-0.000444283
-0.000451249
-0.000458147
-0.000465003
-0.000471844
-0.000478702
-0.000485608
-0.0004926
-0.000499719
-0.000507012
-0.000514535
-0.000522357
-0.000530563
-0.000539266
-0.00054862
-0.000558864
-0.000570314
-0.000583367
-0.000598386
-0.000615682
-0.00063539
-0.000657205
-0.000680232
-0.000702924
-0.000724276
-0.000741835
0.000134528
0.000114909
9.53213e-05
7.56166e-05
5.58697e-05
3.61479e-05
1.64902e-05
-3.07713e-06
-2.25286e-05
-4.18352e-05
-6.0966e-05
-7.98898e-05
-9.85755e-05
-0.000116992
-0.00013511
-0.000152898
-0.000170328
-0.00018737
-0.000203999
-0.000220189
-0.000235918
-0.000251164
-0.000265909
-0.000280139
-0.000293842
-0.000307011
-0.000319642
-0.000331735
-0.000343296
-0.000354341
-0.000364896
-0.000374982
-0.000384622
-0.000393844
-0.000402677
-0.000411154
-0.000419308
-0.000427175
-0.000434788
-0.000442183
-0.000449391
-0.000456443
-0.000463371
-0.0004702
-0.000476959
-0.000483674
-0.00049037
-0.000497077
-0.000503821
-0.000510634
-0.00051755
-0.000524606
-0.000531849
-0.000539332
-0.00054713
-0.000555352
-0.000564165
-0.000573809
-0.000584596
-0.000596852
-0.000610869
-0.000626905
-0.000645128
-0.000665347
-0.000686703
-0.000708006
-0.000728086
-0.000746739
-0.000762494
0.000115581
9.49434e-05
7.43773e-05
5.37165e-05
3.30292e-05
1.23842e-05
-8.17446e-06
-2.86165e-05
-4.89132e-05
-6.90328e-05
-8.89415e-05
-0.000108605
-0.000127989
-0.00014706
-0.000165783
-0.000184127
-0.000202059
-0.000219547
-0.000236562
-0.000253078
-0.000269068
-0.00028451
-0.000299386
-0.00031368
-0.000327381
-0.000340482
-0.000352981
-0.000364882
-0.000376195
-0.000386945
-0.000397159
-0.000406861
-0.000416084
-0.000424862
-0.000433233
-0.000441238
-0.00044892
-0.00045632
-0.000463479
-0.000470438
-0.000477233
-0.000483897
-0.000490463
-0.000496958
-0.000503409
-0.00050984
-0.000516277
-0.000522744
-0.000529263
-0.000535859
-0.000542558
-0.000549389
-0.000556397
-0.000563655
-0.000571269
-0.000579405
-0.000588267
-0.000598094
-0.000609094
-0.000621476
-0.000635457
-0.000651224
-0.000668579
-0.000686839
-0.000704987
-0.000722484
-0.000739503
-0.000756346
-0.000771313
9.27207e-05
7.10785e-05
4.95526e-05
2.79602e-05
6.35599e-06
-1.51908e-05
-3.66302e-05
-5.79275e-05
-7.90507e-05
-9.99649e-05
-0.000120633
-0.000141017
-0.000161078
-0.000180781
-0.000200086
-0.000218958
-0.00023736
-0.000255258
-0.00027262
-0.000289415
-0.000305615
-0.000321196
-0.000336136
-0.00035042
-0.000364036
-0.000376977
-0.000389244
-0.000400842
-0.00041179
-0.000422116
-0.000431849
-0.000441024
-0.000449679
-0.00045786
-0.000465615
-0.000472995
-0.000480052
-0.00048684
-0.000493406
-0.000499797
-0.000506054
-0.000512216
-0.000518312
-0.000524368
-0.000530405
-0.000536443
-0.0005425
-0.000548597
-0.000554751
-0.000560985
-0.000567327
-0.000573816
-0.000580521
-0.000587542
-0.000595008
-0.000603043
-0.000611743
-0.000621198
-0.000631535
-0.000642974
-0.000655627
-0.000669292
-0.000683382
-0.000697322
-0.000711242
-0.000725908
-0.000741633
-0.000757812
-0.000772322
6.76938e-05
4.49975e-05
2.24638e-05
-1.09847e-07
-2.26832e-05
-4.51856e-05
-6.7561e-05
-8.97696e-05
-0.000111776
-0.000133541
-0.000155025
-0.000176184
-0.000196976
-0.00021736
-0.000237294
-0.000256737
-0.000275648
-0.000293989
-0.000311722
-0.000328813
-0.000345231
-0.000360946
-0.000375936
-0.00039018
-0.000403667
-0.000416389
-0.000428348
-0.000439553
-0.000450028
-0.000459806
-0.00046892
-0.000477414
-0.000485339
-0.000492751
-0.000499712
-0.00050629
-0.000512549
-0.000518555
-0.00052437
-0.000530049
-0.00053564
-0.000541181
-0.000546701
-0.000552216
-0.000557734
-0.000563262
-0.000568804
-0.000574377
-0.000580022
-0.000585792
-0.000591764
-0.000598005
-0.000604566
-0.000611463
-0.000618692
-0.000626225
-0.000634046
-0.000642239
-0.000650927
-0.000660104
-0.000669524
-0.000678841
-0.000688144
-0.000698195
-0.000709906
-0.000723631
-0.000738908
-0.000754566
-0.00076835
4.22541e-05
1.83769e-05
-5.30963e-06
-2.90124e-05
-5.27021e-05
-7.63072e-05
-9.97659e-05
-0.000123034
-0.000146071
-0.000168833
-0.000191276
-0.000213352
-0.000235014
-0.000256214
-0.000276905
-0.000297041
-0.000316574
-0.000335461
-0.000353659
-0.000371127
-0.000387828
-0.000403728
-0.000418797
-0.000433012
-0.000446357
-0.000458823
-0.00047041
-0.000481134
-0.000491023
-0.000500111
-0.000508442
-0.000516073
-0.000523067
-0.000529499
-0.000535451
-0.000541007
-0.000546254
-0.000551277
-0.000556151
-0.000560944
-0.000565707
-0.000570474
-0.000575267
-0.000580094
-0.000584965
-0.000589892
-0.000594891
-0.000599994
-0.000605248
-0.000610709
-0.000616453
-0.000622518
-0.000628865
-0.00063535
-0.000641808
-0.000648157
-0.000654396
-0.000660446
-0.000666082
-0.000671097
-0.000675674
-0.000680478
-0.000686634
-0.000695087
-0.000706155
-0.000719537
-0.000734377
-0.000749176
-0.000761732
1.84388e-05
-6.85779e-06
-3.19319e-05
-5.70046e-05
-8.2052e-05
-0.000106999
-0.000131779
-0.000156341
-0.000180642
-0.000204633
-0.000228262
-0.000251478
-0.000274226
-0.000296453
-0.000318104
-0.000339127
-0.000359468
-0.000379076
-0.0003979
-0.000415892
-0.000433008
-0.000449205
-0.000464446
-0.000478701
-0.000491946
-0.000504168
-0.000515368
-0.000525562
-0.000534778
-0.000543056
-0.000550451
-0.000557033
-0.000562886
-0.000568107
-0.0005728
-0.000577078
-0.00058105
-0.000584823
-0.000588493
-0.000592144
-0.000595841
-0.00059963
-0.000603544
-0.000607606
-0.000611838
-0.00061627
-0.000620933
-0.000625849
-0.000631
-0.000636308
-0.000641685
-0.0006471
-0.000652587
-0.000658096
-0.000663386
-0.000668043
-0.000671683
-0.0006741
-0.000675347
-0.000675898
-0.00067685
-0.000679409
-0.000684476
-0.000692396
-0.000702986
-0.000715723
-0.000729531
-0.000742815
-0.000753634
-4.85031e-06
-3.17281e-05
-5.84492e-05
-8.51665e-05
-0.000111851
-0.000138426
-0.000164819
-0.000190972
-0.000216833
-0.000242349
-0.00026746
-0.000292107
-0.000316227
-0.000339759
-0.00036264
-0.000384807
-0.000406198
-0.00042675
-0.000446402
-0.000465095
-0.000482772
-0.000499377
-0.00051486
-0.000529179
-0.000542297
-0.000554194
-0.000564869
-0.00057434
-0.000582635
-0.000589804
-0.000595914
-0.000601052
-0.000605324
-0.000608855
-0.000611784
-0.000614266
-0.000616463
-0.000618539
-0.000620655
-0.000622954
-0.000625553
-0.000628526
-0.000631893
-0.000635612
-0.000639585
-0.000643696
-0.000647885
-0.000652174
-0.00065664
-0.000661286
-0.00066592
-0.000670315
-0.000674417
-0.000678242
-0.00068139
-0.000683141
-0.000683279
-0.000682168
-0.00068031
-0.000678536
-0.000678124
-0.00068001
-0.000684411
-0.000691486
-0.000701093
-0.000712542
-0.000724729
-0.00073612
-0.00074492
-2.14033e-05
-5.03965e-05
-7.91176e-05
-0.000107824
-0.000136487
-0.00016502
-0.000193343
-0.000221395
-0.000249121
-0.00027646
-0.000303347
-0.000329714
-0.000355492
-0.00038061
-0.000404998
-0.000428584
-0.000451299
-0.000473073
-0.000493842
-0.00051354
-0.000532099
-0.000549441
-0.000565489
-0.00058018
-0.000593464
-0.000605306
-0.000615688
-0.000624607
-0.000632082
-0.000638158
-0.000642911
-0.00064645
-0.000648917
-0.000650492
-0.000651385
-0.000651831
-0.000652086
-0.000652404
-0.000653017
-0.000654113
-0.000655808
-0.000658126
-0.000661001
-0.000664279
-0.000667748
-0.000671172
-0.000674372
-0.000677326
-0.000680215
-0.000683234
-0.000686238
-0.00068877
-0.000690524
-0.000691659
-0.00069219
-0.000691656
-0.000689747
-0.000686933
-0.000684222
-0.000682341
-0.000681636
-0.000682627
-0.000685958
-0.000691887
-0.000700148
-0.000709996
-0.000720265
-0.000729462
-0.000735937
-5.0382e-05
-8.1401e-05
-0.000112531
-0.000143677
-0.000174778
-0.00020575
-0.000236504
-0.000266969
-0.000297079
-0.000326762
-0.000355941
-0.000384536
-0.000412463
-0.000439638
-0.000465973
-0.000491377
-0.000515757
-0.000539019
-0.000561066
-0.000581799
-0.000601111
-0.00061889
-0.000635048
-0.000649515
-0.000662225
-0.000673141
-0.000682252
-0.000689571
-0.000695133
-0.000699005
-0.000701289
-0.000702125
-0.000701697
-0.000700228
-0.00069798
-0.000695247
-0.000692348
-0.000689614
-0.000687373
-0.000685921
-0.000685479
-0.000686138
-0.000687801
-0.000690154
-0.000692708
-0.0006949
-0.000696295
-0.000696885
-0.000697
-0.000696942
-0.000696856
-0.000696764
-0.000696692
-0.000696632
-0.000696339
-0.000695403
-0.000693533
-0.000690941
-0.000688323
-0.000686453
-0.000685796
-0.000686412
-0.000688589
-0.000692788
-0.000699138
-0.000707113
-0.000715503
-0.000722669
-0.000727064
-5.98092e-05
-9.31882e-05
-0.000126092
-0.000159193
-0.000192339
-0.000225314
-0.000258016
-0.00029039
-0.000322375
-0.000353896
-0.000384872
-0.000415214
-0.000444834
-0.000473641
-0.000501544
-0.000528453
-0.000554286
-0.000578985
-0.00060252
-0.000624865
-0.00064593
-0.000665443
-0.000683106
-0.000698768
-0.000712355
-0.0007238
-0.000733037
-0.000740014
-0.000744707
-0.000747133
-0.000747363
-0.000745536
-0.000741882
-0.000736729
-0.000730517
-0.000723785
-0.000717145
-0.000711236
-0.000706646
-0.000703828
-0.000702996
-0.000704051
-0.000706519
-0.000709519
-0.000711851
-0.000712315
-0.000710342
-0.000706733
-0.000703181
-0.00070071
-0.000699465
-0.000699105
-0.000699034
-0.000698629
-0.000697612
-0.000696165
-0.00069451
-0.000692734
-0.000691109
-0.00068999
-0.000689496
-0.000689637
-0.000690586
-0.000692784
-0.000696772
-0.000702634
-0.000709461
-0.000715504
-0.000718685
-0.000143953
-0.000179823
-0.000216093
-0.000252328
-0.000288384
-0.000324218
-0.000359752
-0.000394891
-0.000429555
-0.000463663
-0.000497122
-0.000529824
-0.000561654
-0.000592489
-0.000622198
-0.000650634
-0.00067763
-0.000702987
-0.000726483
-0.00074789
-0.000767051
-0.000784024
-0.000798903
-0.000811614
-0.000822012
-0.000829931
-0.000835218
-0.000837759
-0.000837497
-0.000834447
-0.0008287
-0.000820436
-0.000809941
-0.000797617
-0.000783996
-0.000769724
-0.000755543
-0.000742237
-0.00073057
-0.000721193
-0.000714554
-0.000710797
-0.000709702
-0.00071066
-0.000712697
-0.000714596
-0.00071536
-0.000714519
-0.000711951
-0.00070816
-0.000704168
-0.00070102
-0.000699048
-0.000697623
-0.000696102
-0.000694461
-0.000692935
-0.000691759
-0.000691075
-0.000690892
-0.000691091
-0.00069152
-0.000692097
-0.000693003
-0.000695029
-0.000699037
-0.000704724
-0.000710769
-0.000716077
0.000139377
0.000145225
0.000151432
0.000158133
0.00016535
0.000173066
0.000181377
0.000190113
0.000199349
0.000209089
0.000219292
0.000230054
0.000241006
0.000252998
0.000264384
0.000276595
0.00028817
0.000300334
0.000312223
0.000323975
0.000336267
0.000346886
0.000357404
0.000366925
0.000375704
0.000383704
0.000390192
0.000395566
0.00039988
0.000402761
0.000403932
0.000403778
0.000402424
0.000400032
0.000395838
0.000390619
0.000384489
0.000377249
0.000369163
0.000360612
0.000351397
0.000341548
0.000331807
0.000322218
0.000311632
0.000301815
0.000291496
0.00028165
0.000271954
0.000262479
0.000253418
0.000244628
0.000236329
0.000228284
0.000220781
0.000213175
0.000206113
0.000199413
0.000193066
0.000139122
0.000145178
0.000151746
0.000158795
0.000166352
0.00017443
0.000183052
0.00019218
0.000201847
0.00021204
0.000222717
0.000233895
0.000245474
0.000257497
0.000269832
0.000282318
0.000294974
0.000307606
0.000320251
0.000332553
0.000344744
0.000356391
0.000367337
0.000377438
0.000386623
0.000394826
0.000401808
0.000407441
0.000411892
0.000414834
0.000416102
0.000416066
0.000414662
0.000411841
0.000407586
0.000402106
0.000395582
0.000388091
0.000379681
0.000370581
0.000360963
0.000350846
0.000340515
0.000329925
0.00031923
0.000308617
0.000298069
0.000287751
0.000277628
0.000267749
0.000258212
0.000249031
0.000240171
0.000231719
0.0002236
0.000215881
0.000208538
0.000201567
0.000194932
0.000138877
0.000145212
0.000152052
0.000159419
0.000167323
0.000175774
0.000184776
0.000194328
0.000204441
0.000215106
0.000226287
0.000237951
0.000250071
0.000262603
0.000275465
0.000288642
0.000301959
0.000315309
0.00032855
0.000341533
0.000354183
0.000366363
0.000377899
0.000388551
0.000398231
0.000406797
0.000414104
0.000420073
0.000424681
0.000427719
0.000429161
0.000429128
0.000427566
0.000424527
0.000420049
0.000414304
0.000407399
0.000399504
0.000390702
0.000381169
0.000371053
0.000360409
0.000349446
0.000338316
0.000327101
0.000315957
0.000304917
0.000294065
0.000283446
0.000273098
0.000263091
0.000253433
0.000244149
0.000235252
0.00022678
0.000218718
0.000211042
0.000203745
0.000196808
0.000138334
0.000144949
0.000152096
0.000159793
0.000168054
0.000176893
0.000186316
0.000196324
0.000206917
0.000218086
0.000229806
0.000242047
0.000254775
0.000267927
0.00028142
0.000295219
0.000309162
0.000323171
0.000337075
0.000350765
0.000364085
0.000376842
0.000388936
0.000400132
0.000410317
0.000419321
0.00042699
0.000433258
0.000438054
0.000441225
0.000442772
0.000442713
0.000441028
0.000437816
0.000433094
0.000427039
0.000419756
0.000411406
0.000402123
0.000392073
0.000381396
0.000370204
0.00035869
0.00034702
0.000335244
0.000323518
0.000311904
0.000300483
0.000289321
0.000278463
0.000267957
0.000257834
0.000248116
0.000238812
0.000229934
0.000221475
0.000213425
0.000205776
0.000198517
0.000137389
0.0001443
0.000151773
0.000159824
0.00016847
0.000177722
0.00018759
0.000198078
0.000209182
0.000220892
0.000233186
0.000246035
0.000259395
0.000273205
0.000287386
0.000301858
0.000316499
0.000331204
0.000345822
0.000360221
0.000374232
0.000387655
0.000400352
0.000412123
0.000422826
0.000432293
0.000440363
0.000446938
0.000451945
0.000455262
0.000456881
0.000456797
0.000455005
0.0004516
0.000446619
0.000440225
0.000432543
0.000423725
0.000413928
0.000403321
0.000392063
0.000380301
0.000368202
0.000355917
0.00034354
0.000331198
0.000318986
0.000306982
0.000295254
0.000283856
0.00027283
0.000262209
0.000252015
0.000242259
0.000232945
0.000224074
0.000215638
0.000207626
0.000200023
0.000136026
0.00014325
0.000151065
0.000159491
0.000168542
0.000178233
0.000188574
0.000199568
0.000211214
0.000223499