/*--------------------------------*- C++ -*----------------------------------*\
| =========                 |                                                 |
| \\      /  F ield         | OpenFOAM: The Open Source CFD Toolbox           |
|  \\    /   O peration     | Version:  2312                                  |
|   \\  /    A nd           | Website:  www.openfoam.com                      |
|    \\/     M anipulation  |                                                 |
\*---------------------------------------------------------------------------*/
FoamFile
{
    version     2.0;
    format      ascii;
    arch        "LSB;label=32;scalar=64";
    class       surfaceScalarField;
    location    "1900";
    object      phi;
}
// * * * * * * * * * * * * * * * * * * * * * * * * * * * * * * * * * * * * * //

dimensions      [0 3 -1 0 0 0 0];

oriented        oriented;

internalField   nonuniform List<scalar> 
116611
(
0.00109258
0.00040771
-0.00107686
-0.000423432
0.00110821
0.000403397
-0.000419031
0.00112367
0.00039874
-0.000414197
0.00113898
0.000393733
-0.000409042
0.0011541
0.000388389
-0.00040351
0.00116923
0.000382664
-0.000397796
0.00118396
0.000376562
-0.000391293
0.00119865
0.000370054
-0.000384735
0.00121293
0.000363101
-0.000377386
0.00122704
0.000355705
-0.00036981
0.0012409
0.000347869
-0.000361728
0.00125454
0.000339579
-0.000353227
0.00126786
0.000330832
-0.000344147
0.00128081
0.000321569
-0.000334525
0.00129349
0.000311822
-0.000324497
0.00130567
0.000301553
-0.00031373
0.0013177
0.000290731
-0.000302768
0.00132924
0.000279402
-0.000290935
0.00134048
0.00026745
-0.00027869
0.0013512
0.000254985
-0.000265707
0.0013616
0.000241876
-0.000252276
0.00137143
0.000228174
-0.000238001
0.00138076
0.000213828
-0.000223159
0.00138969
0.000198905
-0.000207838
0.00139811
0.00018333
-0.000191748
0.00140603
0.000167082
-0.000175003
0.00141344
0.000150125
-0.000157534
0.0014202
0.00013254
-0.000139301
0.00142662
0.000114278
-0.000120702
0.00143221
9.5272e-05
-0.000100855
0.00143736
7.56234e-05
-8.07814e-05
0.00144179
5.51121e-05
-5.95357e-05
0.00144568
3.38934e-05
-3.77847e-05
0.00144881
1.19549e-05
-1.50839e-05
0.00145137
-1.07929e-05
8.22629e-06
0.00145316
-3.42451e-05
3.24636e-05
0.00145447
-5.84936e-05
5.71817e-05
0.00145489
-8.35864e-05
8.31692e-05
0.00145449
-0.000109465
0.000109856
0.00145326
-0.000136201
0.000137434
0.00145131
-0.000163642
0.000165598
0.00144864
-0.000191914
0.000194579
0.00144491
-0.000221052
0.000224786
0.00144028
-0.000250919
0.000255546
0.00143476
-0.000281597
0.000287115
0.00142836
-0.000313011
0.000319413
0.00142088
-0.000345272
0.00035275
0.00141225
-0.000378228
0.000386862
0.00140269
-0.000411852
0.000421404
0.00139205
-0.000446187
0.00045683
0.00138022
-0.000481234
0.000493064
0.00136723
-0.000516892
0.00052988
0.00135296
-0.000553157
0.000567428
0.00133731
-0.000589976
0.000605629
0.00132022
-0.000627223
0.000644317
0.00130205
-0.000664743
0.000682913
0.00128227
-0.00070272
0.000722496
0.00126123
-0.000740847
0.000761889
0.00123872
-0.000779166
0.000801676
0.0012145
-0.000817578
0.000841797
0.00118851
-0.000855826
0.000881816
0.00116039
-0.000893701
0.000921824
0.00113023
-0.000930597
0.000960749
0.00109742
-0.000966362
0.000999172
0.00106168
-0.00100052
0.00103627
0.00102343
-0.00103242
0.00107067
0.000981251
-0.00106253
0.0011047
0.000933709
-0.00109005
0.00113759
-0.00111357
0.000882281
0.00116499
0.00107651
0.00039205
-0.00106085
0.00109202
0.000387886
0.00110738
0.000383383
0.00112257
0.000378536
0.00113764
0.000373325
0.00115253
0.000367771
0.00116725
0.000361844
0.00118177
0.000355529
0.00119606
0.000348812
0.0012101
0.000341663
0.00122389
0.000334078
0.00123742
0.000326053
0.00125068
0.000317568
0.00126364
0.000308612
0.00127628
0.000299187
0.00128858
0.000289246
0.00130052
0.000278793
0.00131212
0.000267804
0.0013233
0.000256269
0.00133411
0.000244172
0.00134449
0.0002315
0.00135442
0.000218243
0.00136387
0.000204379
0.00137286
0.000189913
0.00138137
0.000174819
0.00138939
0.000159068
0.00139684
0.000142672
0.00140376
0.000125618
0.00141015
0.000107888
0.00141594
8.94814e-05
0.0014212
7.03652e-05
0.0014258
5.05134e-05
0.00142975
2.99432e-05
0.00143306
8.64857e-06
0.00143567
-1.3403e-05
0.00143762
-3.62017e-05
0.00143889
-5.9762e-05
0.0014394
-8.40943e-05
0.00143915
-0.000109216
0.00143808
-0.000135128
0.00143623
-0.000161796
0.00143355
-0.000189237
0.00142997
-0.000217463
0.0014255
-0.000246458
0.00142012
-0.000276209
0.0014138
-0.000306697
0.00140646
-0.000337927
0.0013981
-0.000369866
0.00138872
-0.000402477
0.00137828
-0.000435742
0.00136669
-0.000469652
0.00135395
-0.000504153
0.00134
-0.000539206
0.00132478
-0.000574758
0.00130829
-0.000610728
0.00129057
-0.000647023
0.00127148
-0.000683633
0.00125107
-0.000720433
0.00122922
-0.000757317
0.00120577
-0.000794125
0.00118052
-0.000830582
0.0011532
-0.000866381
0.00112366
-0.000901057
0.00109157
-0.000934273
0.0010567
-0.000965648
0.00101896
-0.000994683
0.000977759
-0.00102133
0.000932621
-0.00104491
-0.00106496
0.000884015
0.00106087
0.000376484
-0.0010453
0.0010763
0.000372456
0.00109159
0.000368097
0.00110672
0.000363404
0.00112167
0.000358368
0.00113646
0.000352983
0.00115107
0.000347235
0.00116549
0.000341111
0.0011797
0.000334602
0.00119368
0.000327688
0.0012074
0.000320356
0.00122086
0.000312594
0.00123404
0.000304388
0.00124692
0.000295725
0.00125951
0.000286596
0.00127178
0.000276981
0.0012837
0.000266869
0.00129527
0.000256241
0.00130645
0.000245084
0.00131724
0.000233383
0.00132761
0.000221126
0.00133756
0.0002083
0.00134705
0.000194889
0.00135608
0.000180884
0.00136463
0.00016627
0.00137267
0.00015103
0.00138018
0.000135155
0.00138717
0.000118634
0.0013936
0.000101456
0.00139947
8.36081e-05
0.00140476
6.50754e-05
0.00140943
4.5845e-05
0.00141346
2.5909e-05
0.00141685
5.26425e-06
0.00141956
-1.61158e-05
0.00142159
-3.8233e-05
0.00142292
-6.10888e-05
0.00142352
-8.46937e-05
0.00142336
-0.000109057
0.00142241
-0.000134177
0.00142066
-0.000160046
0.00141808
-0.000186662
0.00141465
-0.00021403
0.00141034
-0.000242143
0.00140511
-0.000270984
0.00139895
-0.000300541
0.00139183
-0.000330802
0.00138371
-0.000361746
0.00137457
-0.000393341
0.00136439
-0.000425562
0.00135313
-0.000458386
0.00134075
-0.000491773
0.00132722
-0.000525677
0.00131251
-0.000560047
0.0012966
-0.000594818
0.00127949
-0.000629913
0.00126112
-0.000665262
0.00124143
-0.000700744
0.0012203
-0.000736193
0.00119756
-0.000771386
0.001173
-0.000806022
0.00114638
-0.000839755
0.0011175
-0.000872175
0.00108614
-0.000902922
0.00105212
-0.000931626
0.00101529
-0.000957845
0.000975351
-0.000981391
0.000932031
-0.00100159
-0.00101801
0.000885076
0.00104575
0.00036099
-0.00103026
0.00106111
0.000357096
0.00107633
0.000352882
0.00109138
0.000348346
0.00110627
0.000343481
0.00112098
0.000338273
0.0011355
0.000332713
0.00114982
0.000326789
0.00116394
0.000320489
0.00117782
0.000313802
0.00119146
0.000306713
0.00120485
0.00029921
0.00121796
0.000291279
0.00123078
0.000282906
0.00124329
0.000274077
0.00125549
0.000264781
0.00126736
0.000255002
0.00127888
0.000244727
0.00129002
0.00023394
0.00130077
0.000222628
0.00131112
0.000210777
0.00132105
0.000198374
0.00133053
0.000185406
0.00133956
0.000171858
0.00134811
0.00015772
0.00135616
0.000142976
0.0013637
0.000127614
0.00137071
0.000111623
0.00137718
9.49909e-05
0.00138308
7.77062e-05
0.0013884
5.97569e-05
0.00139311
4.11312e-05
0.0013972
2.18198e-05
0.00140065
1.81797e-06
0.00140343
-1.8902e-05
0.00140554
-4.03385e-05
0.00140694
-6.24948e-05
0.00140763
-8.53777e-05
0.00140756
-0.000108992
0.00140672
-0.000133339
0.00140509
-0.000158415
0.00140265
-0.000184219
0.00139937
-0.000210747
0.00139522
-0.000237993
0.00139018
-0.000265945
0.00138423
-0.00029459
0.00137734
-0.000323911
0.00136948
-0.000353888
0.00136064
-0.000384496
0.00135078
-0.000415707
0.00133989
-0.000447492
0.00132793
-0.000479815
0.00131489
-0.000512634
0.00130074
-0.000545897
0.00128546
-0.00057954
0.00126902
-0.000613479
0.00125137
-0.000647606
0.00123239
-0.000681767
0.00121195
-0.000715752
0.00118986
-0.000749296
0.00116592
-0.000782082
0.00113993
-0.000813768
0.00111174
-0.000843977
0.00108118
-0.000872364
0.00104811
-0.000898557
0.00101241
-0.000922143
0.000973917
-0.000942902
0.000932443
-0.000960116
-0.00097332
0.000887758
0.00103113
0.000345552
-0.00101569
0.00104643
0.000341796
0.00106158
0.000337731
0.00107657
0.000333354
0.00109139
0.000328657
0.00110604
0.000323631
0.00112049
0.000318264
0.00113473
0.000312544
0.00114876
0.00030646
0.00116256
0.0003
0.00117612
0.000293154
0.00118943
0.000285906
0.00120246
0.000278246
0.00121521
0.000270159
0.00122765
0.000261632
0.00123978
0.000252652
0.00125158
0.000243204
0.00126303
0.000233277
0.00127411
0.000222855
0.00128482
0.000211925
0.00129512
0.000200474
0.00130501
0.000188488
0.00131446
0.000175955
0.00132346
0.000162859
0.00133199
0.00014919
0.00134003
0.000134933
0.00134757
0.000120076
0.00135458
0.000104608
0.00136106
8.85163e-05
0.00136697
7.17896e-05
0.00137231
5.44167e-05
0.00137706
3.63869e-05
0.00138119
1.76916e-05
0.00138468
-1.67773e-06
0.00138753
-2.17459e-05
0.0013897
-4.25102e-05
0.00139118
-6.39747e-05
0.00139194
-8.61447e-05
0.00139198
-0.000109024
0.00139125
-0.000132613
0.00138975
-0.000156912
0.00138744
-0.000181916
0.00138432
-0.000207623
0.00138035
-0.000234024
0.00137551
-0.000261109
0.00136979
-0.000288865
0.00136315
-0.000317275
0.00135558
-0.000346319
0.00134706
-0.000375975
0.00133757
-0.000406216
0.00132709
-0.000437013
0.00131561
-0.000468332
0.0013031
-0.000500128
0.00128955
-0.000532346
0.00127492
-0.00056491
0.00125916
-0.000597715
0.00124217
-0.000630617
0.00122383
-0.000663426
0.00120398
-0.000695902
0.00118245
-0.000727767
0.00115908
-0.00075871
0.00113372
-0.000788408
0.00110625
-0.00081651
0.00107658
-0.000842695
0.0010446
-0.000866577
0.00101024
-0.000887777
0.00097338
-0.000906046
0.000933843
-0.000920579
-0.0009308
0.000891323
0.00101699
0.000330161
-0.0010016
0.00103224
0.000326547
0.00104734
0.000322633
0.00106227
0.000318418
0.00107704
0.000313893
0.00109162
0.00030905
0.00110601
0.000303877
0.00112019
0.000298364
0.00113415
0.000292499
0.00114788
0.000286271
0.00116136
0.000279668
0.00117459
0.000272678
0.00118755
0.000265289
0.00120022
0.000257487
0.00121259
0.00024926
0.00122465
0.000240595
0.00123638
0.000231477
0.00124776
0.000221895
0.00125878
0.000211835
0.00126942
0.000201284
0.00127966
0.000190228
0.0012895
0.000178655
0.0012989
0.00016655
0.00130786
0.000153901
0.00131636
0.000140694
0.00132437
0.000126918
0.00133189
0.000112559
0.00133889
9.76066e-05
0.00134536
8.20478e-05
0.00135128
6.58718e-05
0.00135663
4.90678e-05
0.00136139
3.16254e-05
0.00136554
1.35369e-05
0.00136908
-5.21108e-06
0.00137197
-2.46371e-05
0.0013742
-4.47396e-05
0.00137574
-6.55232e-05
0.00137659
-8.69924e-05
0.00137672
-0.00010915
0.0013761
-0.000131998
0.00137473
-0.000155535
0.00137257
-0.000179758
0.00136961
-0.000204663
0.00136583
-0.000230242
0.0013612
-0.000256485
0.00135572
-0.00028338
0.00134936
-0.000310912
0.0013421
-0.000339061
0.00133393
-0.000367808
0.00132484
-0.000397128
0.00131482
-0.00042699
0.00130385
-0.000457359
0.0012919
-0.000488183
0.00127895
-0.000519394
0.00126493
-0.000550894
0.00124977
-0.00058255
0.00123334
-0.000614189
0.00121552
-0.000645601
0.00119615
-0.000676537
0.00117511
-0.000706728
0.00115228
-0.000735882
0.00112758
-0.0007637
0.00110092
-0.000789854
0.00107226
-0.000814038
0.00104154
-0.00083585
0.00100872
-0.000854956
0.000973715
-0.000871045
0.000936403
-0.000883268
-0.000890978
0.000896581
0.00100336
0.000314817
-0.000988011
0.00101856
0.000311344
0.00103361
0.000307583
0.00104849
0.000303533
0.0010632
0.000299184
0.00107773
0.000294526
0.00109205
0.00028955
0.00110617
0.000284245
0.00112007
0.0002786
0.00113374
0.000272605
0.00114716
0.000266248
0.00116032
0.000259517
0.0011732
0.000252401
0.00118581
0.000244885
0.00119811
0.000236959
0.00121009
0.000228608
0.00122175
0.000219821
0.00123306
0.000210584
0.00124401
0.000200884
0.00125459
0.000190709
0.00126477
0.000180045
0.00127455
0.00016888
0.0012839
0.000157199
0.00129281
0.000144991
0.00130126
0.000132243
0.00130923
0.000118941
0.00131672
0.000105074
0.0013237
9.06301e-05
0.00133015
7.55973e-05
0.00133605
5.99645e-05
0.0013414
4.37212e-05
0.00134617
2.68573e-05
0.00135034
9.36561e-06
0.0013539
-8.77168e-06
0.00135683
-2.75663e-05
0.00135911
-4.70187e-05
0.00136072
-6.71339e-05
0.00136164
-8.79159e-05
0.00136186
-0.000109368
0.00136135
-0.000131491
0.0013601
-0.000154284
0.00135809
-0.000177746
0.0013553
-0.000201871
0.00135171
-0.000226654
0.00134731
-0.000252084
0.00134208
-0.000278152
0.00133601
-0.000304842
0.00132909
-0.00033214
0.00132131
-0.000360024
0.00131265
-0.00038847
0.0013031
-0.000417445
0.00129265
-0.000446901
0.00128124
-0.000476776
0.00126882
-0.000506979
0.00125532
-0.000537388
0.00124062
-0.000567851
0.00122461
-0.000598182
0.00120718
-0.000628166
0.00118821
-0.00065757
0.00116762
-0.000686141
0.00114535
-0.000713613
0.00112136
-0.000739708
0.00109562
-0.000764116
0.00106812
-0.000786538
0.00103884
-0.000806562
0.00100779
-0.000823906
0.000974905
-0.000838164
0.000940208
-0.000848571
-0.00085449
0.000903721
0.000990259
0.000299526
-0.000974969
0.00100541
0.000296195
0.00102041
0.000292586
0.00103524
0.000288699
0.0010499
0.000284526
0.00106437
0.000280057
0.00107864
0.00027528
0.0010927
0.000270185
0.00110653
0.000264762
0.00112014
0.000259001
0.0011335
0.00025289
0.00114659
0.000246419
0.00115942
0.000239577
0.00117195
0.00023235
0.00118419
0.000224726
0.0011961
0.000216691
0.00120769
0.000208234
0.00121893
0.000199342
0.00122982
0.000190002
0.00124032
0.000180201
0.00125044
0.000169927
0.00126016
0.000159167
0.00126945
0.000147907
0.0012783
0.000136137
0.0012867
0.000123841
0.00129463
0.00011101
0.00130208
9.76288e-05
0.00130902
8.36873e-05
0.00131545
6.91736e-05
0.00132133
5.40766e-05
0.00132667
3.83858e-05
0.00133144
2.20914e-05
0.00133561
5.18635e-06
0.00133919
-1.23509e-05
0.00134215
-3.05254e-05
0.00134447
-4.93402e-05
0.00134614
-6.88003e-05
0.00134714
-8.891e-05
0.00134744
-0.000109672
0.00134704
-0.000131089
0.00134591
-0.00015316
0.00134405
-0.000175883
0.00134143
-0.000199255
0.00133805
-0.00022327
0.00133389
-0.000247921
0.00132893
-0.000273198
0.00132318
-0.000299089
0.00131662
-0.000325577
0.00130923
-0.00035264
0.00130101
-0.000380247
0.00129192
-0.000408356
0.00128193
-0.000436904
0.00127096
-0.000465811
0.00125895
-0.000494966
0.0012458
-0.000524236
0.0012314
-0.00055346
0.00121568
-0.000582455
0.00119853
-0.000611024
0.00117992
-0.000638952
0.00115979
-0.000666011
0.00113813
-0.000691956
0.00111495
-0.000716526
0.00109026
-0.000739425
0.00106408
-0.000760359
0.00103644
-0.000778922
0.00100741
-0.000794881
0.000976993
-0.000807747
0.000945428
-0.000817006
-0.00082206
0.000912997
0.000977744
0.000284295
-0.000962513
0.000992834
0.000281105
0.00100777
0.000277647
0.00102255
0.000273922
0.00103715
0.000269923
0.00105157
0.000265642
0.00106578
0.000261066
0.00107978
0.000256185
0.00109356
0.000250986
0.0011071
0.000245459
0.00112039
0.000239595
0.00113343
0.000233384
0.00114619
0.000226817
0.00115866
0.00021988
0.00117083
0.000212559
0.00118268
0.000204841
0.0011942
0.000196715
0.00120537
0.000188168
0.00121619
0.000179187
0.00122663
0.00016976
0.00123668
0.000159874
0.00124633
0.000149518
0.00125556
0.000138677
0.00126435
0.000127341
0.0012727
0.000115495
0.00128058
0.000103129
0.00128798
9.02291e-05
0.00129488
7.67845e-05
0.00130127
6.27835e-05
0.00130714
4.82151e-05
0.00131245
3.30688e-05
0.00131721
1.73351e-05
0.00132139
1.00565e-06
0.00132498
-1.59416e-05
0.00132796
-3.35079e-05
0.00133032
-5.16982e-05
0.00133204
-7.0518e-05
0.0013331
-8.99719e-05
0.00133349
-0.000110063
0.0013332
-0.000130794
0.0013322
-0.000152166
0.0013305
-0.000174177
0.00132807
-0.000196825
0.0013249
-0.000220106
0.001321
-0.000244013
0.00131633
-0.000268537
0.00131091
-0.000293663
0.0013047
-0.000319371
0.00129769
-0.000345632
0.00128985
-0.000372404
0.00128113
-0.000399631
0.00127146
-0.000427236
0.00126077
-0.000455125
0.00124899
-0.000483179
0.00123601
-0.000511265
0.00122178
-0.00053923
0.00120624
-0.000566909
0.00118934
-0.000594124
0.00117107
-0.000620684
0.00115144
-0.000646382
0.00113048
-0.000670992
0.00110822
-0.000694268
0.00108472
-0.000715926
0.00106004
-0.000735681
0.00103428
-0.000753163
0.00100759
-0.000768184
0.000980123
-0.000780284
0.000952501
-0.000789384
-0.000794948
0.000925389
0.00096585
0.000269126
-0.000950681
0.000980879
0.000266077
0.000995755
0.000262771
0.00101047
0.000259209
0.00102501
0.000255383
0.00103936
0.000251287
0.00105352
0.000246911
0.00106746
0.000242244
0.00108117
0.000237272
0.00109465
0.000231982
0.00110788
0.000226366
0.00112085
0.000220416
0.00113354
0.000214123
0.00114594
0.000207475
0.00115804
0.000200459
0.00116983
0.000193059
0.00118128
0.000185265
0.00119238
0.000177062
0.00120313
0.00016844
0.0012135
0.000159386
0.00122349
0.000149889
0.00123307
0.000139934
0.00124224
0.000129511
0.00125097
0.000118606
0.00125926
0.000107207
0.00126709
9.53025e-05
0.00127443
8.28795e-05
0.00128129
6.99265e-05
0.00128764
5.64322e-05
0.00129347
4.23854e-05
0.00129877
2.77757e-05
0.00130351
1.25938e-05
0.00130769
-3.17187e-06
0.00131128
-1.95395e-05
0.00131429
-3.65103e-05
0.00131668
-5.40907e-05
0.00131845
-7.22866e-05
0.00131958
-9.11033e-05
0.00132006
-0.000110545
0.00131988
-0.000130614
0.00131903
-0.000151313
0.00131749
-0.00017264
0.00131526
-0.000194596
0.00131233
-0.000217173
0.00130868
-0.000240365
0.0013043
-0.000264159
0.00129917
-0.000288535
0.00129327
-0.000313463
0.00128654
-0.000338906
0.00127894
-0.000364809
0.00127042
-0.000391104
0.00126089
-0.000417709
0.00125029
-0.000444526
0.00123855
-0.000471441
0.00122562
-0.000498333
0.00121146
-0.000525067
0.00119605
-0.000551497
0.00117939
-0.000577467
0.00116151
-0.000602807
0.00114246
-0.00062733
0.00112229
-0.000650825
0.00110109
-0.000673063
0.00107894
-0.000693779
0.00105597
-0.000712712
0.00103237
-0.000729566
0.00100842
-0.000744234
0.000984599
-0.000756459
0.000961796
-0.00076658
-0.000773698
0.000940547
0.000954608
0.00025402
-0.000939502
0.000969574
0.00025111
0.000984389
0.000247956
0.00099904
0.000244558
0.00101351
0.000240909
0.0010278
0.000237
0.00104189
0.000232823
0.00105577
0.000228367
0.00106942
0.000223622
0.00108283
0.000218572
0.00109599
0.000213208
0.00110888
0.000207521
0.0011215
0.000201502
0.00113383
0.000195142
0.00114586
0.000188429
0.00115758
0.000181348
0.00116895
0.000173885
0.00117999
0.000166028
0.00119067
0.000157764
0.00120097
0.000149083
0.00121089
0.000139972
0.0012204
0.000130419
0.0012295
0.000120411
0.00123817
0.000109936
0.0012464
9.8981e-05
0.00125417
8.75343e-05
0.00126146
7.55837e-05
0.00126827
6.31173e-05
0.00127458
5.01235e-05
0.00128037
3.65911e-05
0.00128564
2.25095e-05
0.00129036
7.86983e-06
0.00129454
-7.34408e-06
0.00129814
-2.3144e-05
0.00130116
-3.95339e-05
0.00130359
-5.65209e-05
0.00130542
-7.41117e-05
0.00130663
-9.23121e-05
0.00130721
-0.000111127
0.00130715
-0.000130559
0.00130645
-0.00015061
0.00130509
-0.000171279
0.00130306
-0.000192563
0.00130034
-0.000214453
0.00129691
-0.000236938
0.00129275
-0.000259996
0.00128781
-0.0002836
0.00128206
-0.000307714
0.00127545
-0.000332288
0.0012679
-0.000357263
0.00125937
-0.00038257
0.00124978
-0.000408128
0.0012391
-0.000433846
0.00122729
-0.000459626
0.00121432
-0.000485362
0.00120019
-0.000510938
0.00118492
-0.000536229
0.00116855
-0.000561098
0.00115114
-0.000585394
0.00113276
-0.000608947
0.0011135
-0.000631568
0.00109349
-0.000653051
0.00107288
-0.000673166
0.00105188
-0.000691715
0.00103085
-0.000708539
0.00101031
-0.000723695
0.00099105
-0.000737195
0.000973888
-0.000749418
-0.000758414
0.000958603
0.000944055
0.000238975
-0.00092901
0.000958959
0.000236206
0.000973711
0.000233204
0.000988297
0.000229972
0.0010027
0.000226501
0.00101692
0.000222781
0.00103094
0.000218804
0.00104475
0.00021456
0.00105833
0.000210039
0.00107167
0.000205231
0.00108476
0.000200122
0.00109758
0.000194701
0.00111012
0.000188958
0.00112238
0.000182886
0.00113433
0.000176474
0.00114597
0.00016971
0.00115728
0.000162578
0.00116824
0.000155066
0.00117884
0.000147161
0.00118908
0.000138852
0.00119892
0.000130128
0.00120836
0.000120975
0.00121739
0.00011138
0.001226
0.000101333
0.00123416
9.0819e-05
0.00124187
7.98269e-05
0.00124911
6.8344e-05
0.00125587
5.63585e-05
0.00126213
4.38584e-05
0.00126789
3.08324e-05
0.00127313
1.72696e-05
0.00127784
3.16047e-06
0.00128201
-1.15137e-05
0.00128562
-2.67601e-05
0.00128868
-4.2585e-05
0.00129115
-5.89964e-05
0.00129304
-7.60012e-05
0.00129433
-9.36051e-05
0.00129502
-0.000111812
0.00129508
-0.000130625
0.00129452
-0.000150042
0.0012933
-0.00017006
0.0012914
-0.00019067
0.00128881
-0.00021186
0.00128548
-0.00023361
0.00128138
-0.000255893
0.00127646
-0.000278676
0.00127066
-0.000301917
0.00126394
-0.000325565
0.00125624
-0.000349564
0.00124752
-0.000373848
0.00123774
-0.000398349
0.00122688
-0.000422987
0.00121493
-0.000447681
0.00120191
-0.000472341
0.00118784
-0.000496869
0.00117277
-0.000521157
0.00115676
-0.000545088
0.00113989
-0.000568529
0.00112228
-0.000591334
0.00110406
-0.000613343
0.00108539
-0.000634389
0.00106655
-0.000654319
0.0010479
-0.00067307
0.00103007
-0.000690709
0.00101389
-0.000707507
0.00100015
-0.000723456
0.000988519
-0.000737791
-0.000745479
0.000975584
0.000934229
0.00022399
-0.000919244
0.00094907
0.000221366
0.000963756
0.000218518
0.000978276
0.000215452
0.000992618
0.000212159
0.00100677
0.00020863
0.00102072
0.000204854
0.00103445
0.000200825
0.00104796
0.000196532
0.00106123
0.000191965
0.00107424
0.000187108
0.00108699
0.000181952
0.00109946
0.000176488
0.00111164
0.000170706
0.00112352
0.000164596
0.00113508
0.000158146
0.00114632
0.000151345
0.0011572
0.000144177
0.00116773
0.000136632
0.00117789
0.000128696
0.00118766
0.000120357
0.00119703
0.000111603
0.00120599
0.00010242
0.00121453
9.27977e-05
0.00122263
8.27217e-05
0.00123027
7.21797e-05
0.00123746
6.11593e-05
0.00124417
4.96482e-05
0.00125039
3.76341e-05
0.00125612
2.51055e-05
0.00126134
1.20514e-05
0.00126604
-1.53998e-06
0.00127021
-1.5686e-05
0.00127384
-3.0392e-05
0.00127692
-4.56659e-05
0.00127944
-6.15151e-05
0.00128139
-7.79456e-05
0.00128274
-9.49615e-05
0.00128349
-0.000112565
0.00128362
-0.000130754
0.00128311
-0.000149525
0.00128192
-0.00016887
0.00128002
-0.000188774
0.00127738
-0.00020922
0.00127395
-0.000230184
0.0012697
-0.000251637
0.00126457
-0.000273544
0.00125851
-0.000295865
0.0012515
-0.000318554
0.0012435
-0.000341562
0.00123449
-0.000364834
0.00122445
-0.000388311
0.00121339
-0.00041193
0.00120133
-0.000435622
0.0011883
-0.000459312
0.00117435
-0.000482919
0.00115955
-0.000506355
0.00114398
-0.000529519
0.00112776
-0.000552305
0.00111102
-0.000574599
0.00109397
-0.000596289
0.00107687
-0.000617286
0.00106013
-0.000637587
0.00104442
-0.000657353
0.00103061
-0.000676899
0.00101955
-0.000696455
0.00101127
-0.000715169
0.00100308
-0.000729599
-0.000731962
0.000989558
0.000925173
0.00020906
-0.000910243
0.000939955
0.000206583
0.000954579
0.000203895
0.000969034
0.000200996
0.000983311
0.000197883
0.000997395
0.000194545
0.00101128
0.000190973
0.00102494
0.000187158
0.00103838
0.000183092
0.00105158
0.000178764
0.00106453
0.000174162
0.00107721
0.000169274
0.00108961
0.000164088
0.00110172
0.000158596
0.00111352
0.00015279
0.00112501
0.000146657
0.00113617
0.000140186
0.00114699
0.000133364
0.00115744
0.000126177
0.00116752
0.000118612
0.00117722
0.000110658
0.00118652
0.000102301
0.00119542
9.35282e-05
0.00120389
8.43273e-05
0.00121192
7.4685e-05
0.00121952
6.45886e-05
0.00122665
5.40253e-05
0.00123332
4.29823e-05
0.0012395
3.14475e-05
0.0012452
1.9409e-05
0.00125039
6.85622e-06
0.00125508
-6.22586e-06
0.00125924
-1.98492e-05
0.00126287
-3.40194e-05
0.00126595
-4.87438e-05
0.00126846
-6.40282e-05
0.00127039
-7.98761e-05
0.00127172
-9.62891e-05
0.00127242
-0.000113265
0.00127247
-0.000130801
0.00127183
-0.000148887
0.00127047
-0.000167511
0.00126836
-0.000186659
0.00126545
-0.000206311
0.0012617
-0.000226442
0.00125709
-0.000247025
0.00125158
-0.000268029
0.00124513
-0.00028942
0.00123774
-0.000311158
0.00122938
-0.000333203
0.00122006
-0.000355511
0.00120978
-0.000378033
0.00119857
-0.000400718
0.00118645
-0.000423509
0.00117349
-0.000446348
0.00115974
-0.00046917
0.00114529
-0.000491905
0.00113025
-0.000514481
0.00111477
-0.000536824
0.00109905
-0.000558875
0.00108337
-0.000580609
0.00106817
-0.000602087
0.00105411
-0.000623527
0.00104207
-0.000645316
0.00103287
-0.000667696
0.00102638
-0.000689969
0.00102002
-0.000708803
0.00100779
-0.000717367
-0.000705271
0.000981096
0.000916964
0.000194182
-0.000902086
0.000931695
0.000191853
0.000946266
0.000189324
0.000960667
0.000186596
0.000974887
0.000183663
0.000988914
0.000180518
0.00100274
0.000177151
0.00101634
0.000173553
0.00102972
0.000169713
0.00104286
0.000165624
0.00105575
0.000161276
0.00106836
0.000156655
0.0010807
0.000151751
0.00109274
0.000146553
0.00110448
0.000141052
0.0011159
0.000135238
0.00112699
0.000129098
0.00113773
0.000122619
0.00114812
0.000115789
0.00115814
0.000108595
0.00116777
0.000101024
0.00117701
9.30629e-05
0.00118584
8.46984e-05
0.00119425
7.59178e-05
0.00120223
6.67078e-05
0.00120976
5.70555e-05
0.00121684
4.6948e-05
0.00122344
3.63728e-05
0.00122957
2.53177e-05
0.00123521
1.37714e-05
0.00124035
1.72316e-06
0.00124496
-1.08424e-05
0.00124904
-2.39316e-05
0.00125258
-3.75505e-05
0.00125554
-5.17046e-05
0.00125791
-6.63974e-05
0.00125966
-8.16305e-05
0.00126077
-9.74026e-05
0.00126122
-0.00011371
0.00126096
-0.000130547
0.00125998
-0.000147903
0.00125823
-0.000165766
0.0012557
-0.000184121
0.00125234
-0.000202951
0.00124813
-0.000222233
0.00124305
-0.000241944
0.00123708
-0.000262058
0.0012302
-0.000282547
0.00122242
-0.000303379
0.00121374
-0.000324521
0.00120417
-0.000345936
0.00119372
-0.000367587
0.00118243
-0.000389433
0.00117036
-0.000411431
0.00115755
-0.000433538
0.00114409
-0.000455709
0.00113008
-0.000477901
0.00111568
-0.000500078
0.00110108
-0.000522227
0.00108659
-0.000544381
0.00107264
-0.000566666
0.00105991
-0.000589349
0.00104921
-0.000612827
0.00104124
-0.000637348
0.00103568
-0.000662138
0.00102968
-0.000683967
0.00101665
-0.00069578
0.000987694
-0.000688407
-0.000651824
0.000934247
0.000909743
0.000179344
-0.000894905
0.000924432
0.000177164
0.000938961
0.000174795
0.000953319
0.000172238
0.000967493
0.000169488
0.000981474
0.000166537
0.00099525
0.000163376
0.00100881
0.000159995
0.00102214
0.000156385
0.00103522
0.000152538
0.00104805
0.000148443
0.00106062
0.00014409
0.0010729
0.000139468
0.00108489
0.000134565
0.00109657
0.000129372
0.00110793
0.000123878
0.00111896
0.00011807
0.00112964
0.000111938
0.00113996
0.000105467
0.00114991
9.86455e-05
0.00115948
9.14605e-05
0.00116864
8.38988e-05
0.00117739
7.59473e-05
0.00118572
6.7593e-05
0.0011936
5.88228e-05
0.00120103
4.96239e-05
0.001208
3.99838e-05
0.00121448
2.98901e-05
0.00122047
1.93315e-05
0.00122594
8.29723e-06
0.00123089
-3.22396e-06
0.00123529
-1.5244e-05
0.00123913
-2.77675e-05
0.00124238
-4.08003e-05
0.00124502
-5.43466e-05
0.00124703
-6.8409e-05
0.00124839
-8.29879e-05
0.00124907
-9.80816e-05
0.00124904
-0.000113686
0.00124829
-0.000129795
0.00124679
-0.0001464
0.00124451
-0.000163489
0.00124144
-0.000181049
0.00123755
-0.000199065
0.00123284
-0.000217519
0.00122729
-0.000236391
0.00122089
-0.00025566
0.00121364
-0.000275301
0.00120555
-0.00029529
0.00119663
-0.000315601
0.0011869
-0.000336204
0.00117639
-0.000357071
0.00116513
-0.000378174
0.00115318
-0.000399485
0.00114062
-0.000420979
0.00112755
-0.00044264
0.00111412
-0.000464464
0.00110052
-0.00048648
0.00108706
-0.000508773
0.00107421
-0.000531527
0.00106258
-0.000555041
0.00105292
-0.000579685
0.00104569
-0.000605594
0.00104019
-0.000631852
0.00103316
-0.000655108
0.00101776
-0.000668566
0.000985284
-0.000663305
0.000929637
-0.00063276
-0.000575688
0.000853501
0.000903702
0.000164534
-0.000888892
0.000918361
0.000162505
0.000932858
0.000160297
0.000947183
0.000157913
0.000961324
0.000155347
0.000975269
0.000152591
0.000989008
0.000149637
0.00100253
0.000146476
0.00101581
0.000143099
0.00102886
0.000139496
0.00104164
0.000135658
0.00105415
0.000131576
0.00106638
0.000127239
0.00107831
0.000122636
0.00108993
0.000117756
0.00110122
0.000112589
0.00111216
0.000107123
0.00112276
0.000101345
0.00113298
9.52448e-05
0.00114282
8.88085e-05
0.00115225
8.20236e-05
0.00116127
7.48775e-05
0.00116986
6.7357e-05
0.00117801
5.94493e-05
0.00118569
5.11417e-05
0.00119289
4.24213e-05
0.0011996
3.32761e-05
0.00120579
2.36939e-05
0.00121146
1.36638e-05
0.00121658
3.17535e-06
0.00122114
-7.78372e-06
0.00122512
-1.92215e-05
0.0012285
-3.11441e-05
0.00123126
-4.35575e-05
0.00123337
-5.6466e-05
0.00123484
-6.98722e-05
0.00123563
-8.37768e-05
0.00123572
-9.81785e-05
0.00123511
-0.000113074
0.00123377
-0.000128457
0.0012317
-0.000144322
0.00122886
-0.000160657
0.00122527
-0.000177451
0.00122089
-0.000194691
0.00121573
-0.000212362
0.00120979
-0.000230447
0.00120306
-0.000248929
0.00119555
-0.000267787
0.00118726
-0.000287003
0.00117821
-0.000306557
0.00116844
-0.000326427
0.00115796
-0.000346598
0.00114684
-0.000367053
0.00113514
-0.000387785
0.00112296
-0.000408798
0.00111044
-0.000430119
0.00109779
-0.000451815
0.00108533
-0.000474018
0.00107351
-0.000496955
0.00106292
-0.000520934
0.00105411
-0.000546235
0.00104722
-0.000572788
0.001041
-0.000599379
0.00103158
-0.000622426
0.00101174
-0.000635268
0.000972841
-0.00062967
0.000909397
-0.000599861
0.000822981
-0.000546345
-0.000475507
0.0007228
0.000898951
0.000149758
-0.000884174
0.000913574
0.000147881
0.000928033
0.000145838
0.000942316
0.00014363
0.000956411
0.000141252
0.000970306
0.000138696
0.000983988
0.000135955
0.000997446
0.000133019
0.00101066
0.00012988
0.00102363
0.00012653
0.00103633
0.00012296
0.00104875
0.000119159
0.00106087
0.000115118
0.00107267
0.000110827
0.00108416
0.000106275
0.00109529
0.000101451
0.00110607
9.63444e-05
0.00111647
9.09427e-05
0.00112648
8.52343e-05
0.00113609
7.92067e-05
0.00114526
7.28476e-05
0.001154
6.61441e-05
0.00116227
5.90834e-05
0.00117007
5.16524e-05