/*--------------------------------*- C++ -*----------------------------------*\
| =========                 |                                                 |
| \\      /  F ield         | OpenFOAM: The Open Source CFD Toolbox           |
|  \\    /   O peration     | Version:  2312                                  |
|   \\  /    A nd           | Website:  www.openfoam.com                      |
|    \\/     M anipulation  |                                                 |
\*---------------------------------------------------------------------------*/
FoamFile
{
    version     2.0;
    format      ascii;
    arch        "LSB;label=32;scalar=64";
    class       volVectorField;
    location    "1900";
    object      U;
}
// * * * * * * * * * * * * * * * * * * * * * * * * * * * * * * * * * * * * * //

dimensions      [0 1 -1 0 0 0 0];

internalField   nonuniform List<vector> 
76025
(
(0.0368688 -0.00716515 0)
(0.0370531 -0.00722646 3.51486e-22)
(0.0372388 -0.00728374 0)
(0.0374271 -0.0073367 0)
(0.0376177 -0.00738788 -5.63488e-22)
(0.0378148 -0.00742605 -9.80643e-22)
(0.0380129 -0.00746675 1.6405e-21)
(0.0382143 -0.00749725 -6.72528e-22)
(0.0384131 -0.00752672 -1.82408e-22)
(0.038612 -0.00755026 1.58157e-22)
(0.0388137 -0.00756813 8.45963e-24)
(0.0390184 -0.00757793 3.02232e-22)
(0.0392246 -0.00758547 -4.11967e-22)
(0.0394293 -0.00758512 0)
(0.0396343 -0.00757474 3.61965e-23)
(0.0398368 -0.00756717 0)
(0.040041 -0.00754365 0)
(0.0402449 -0.00752363 0)
(0.040449 -0.00749031 -4.35929e-23)
(0.0406508 -0.00745757 8.60635e-23)
(0.0408517 -0.00741329 1.10149e-22)
(0.0410511 -0.00736649 3.8872e-22)
(0.0412463 -0.00731203 -2.7425e-22)
(0.0414407 -0.00724927 -5.51031e-22)
(0.0416334 -0.00718389 -4.62498e-23)
(0.0418245 -0.00711581 -2.78839e-22)
(0.0420138 -0.00703274 7.41736e-22)
(0.0421999 -0.00694837 -7.73871e-22)
(0.0423868 -0.00685466 2.79304e-22)
(0.0425701 -0.0067512 -3.0126e-22)
(0.042746 -0.00665785 -3.27413e-22)
(0.0429203 -0.00655551 7.5024e-22)
(0.0430919 -0.00643871 -1.14585e-21)
(0.043261 -0.00632509 -2.21164e-22)
(0.0434262 -0.00619873 1.08872e-21)
(0.0435879 -0.00607332 1.07024e-23)
(0.0437483 -0.00594009 -2.22717e-22)
(0.0439052 -0.00579803 1.21171e-22)
(0.0440571 -0.00565892 7.37518e-24)
(0.0442006 -0.00551116 -1.85746e-22)
(0.0443393 -0.00536121 1.24315e-22)
(0.0444773 -0.00520401 -6.20514e-23)
(0.044608 -0.00503513 1.24894e-22)
(0.044731 -0.00486909 -2.56259e-22)
(0.0448456 -0.00469482 -2.68072e-22)
(0.0449562 -0.00452051 5.08907e-22)
(0.0450579 -0.00433472 5.37049e-22)
(0.0451486 -0.00414753 -1.63246e-21)
(0.0452292 -0.00395651 1.04803e-21)
(0.0453025 -0.00376302 -2.60373e-23)
(0.0453648 -0.00356489 -2.68816e-21)
(0.0454138 -0.0033611 -1.0325e-21)
(0.045449 -0.00315444 1.08185e-21)
(0.0454673 -0.00294518 0)
(0.0454635 -0.00273214 -9.97061e-22)
(0.0454459 -0.00251797 -1.03758e-21)
(0.0454089 -0.00229861 2.2421e-23)
(0.0453491 -0.00207419 -9.60677e-22)
(0.0452686 -0.00184706 9.0441e-22)
(0.0451626 -0.00162136 -2.55161e-21)
(0.0450297 -0.00140935 -1.68165e-21)
(0.0448493 -0.00119155 -1.18314e-22)
(0.0446191 -0.000974445 0)
(0.0443307 -0.000765746 3.07957e-21)
(0.0439633 -0.000570459 -9.74988e-22)
(0.0435116 -0.000382194 5.02762e-22)
(0.0429778 -0.00023155 -7.29094e-22)
(0.042317 -0.00015162 6.82261e-22)
(0.0414898 -0.000144029 8.90096e-22)
(0.03676 -0.0074924 3.81732e-22)
(0.0369522 -0.0075553 1.04218e-21)
(0.0371464 -0.00761338 -1.40145e-21)
(0.0373435 -0.00766678 0)
(0.0375428 -0.00771558 1.38796e-21)
(0.0377472 -0.00775772 -1.00171e-22)
(0.037953 -0.0077955 -9.9435e-22)
(0.0381617 -0.00782726 0)
(0.0383718 -0.00785397 7.96154e-24)
(0.0385823 -0.00787515 -1.63209e-22)
(0.0387939 -0.00789059 1.3815e-22)
(0.039007 -0.00789955 1.14741e-23)
(0.039221 -0.00790293 0)
(0.0394362 -0.00789994 0)
(0.039652 -0.00788976 1.13392e-23)
(0.0398664 -0.00787512 -6.85159e-23)
(0.0400814 -0.00785258 2.95133e-23)
(0.0402951 -0.00782533 -1.738e-22)
(0.0405085 -0.00779076 1.18261e-22)
(0.0407205 -0.00775092 -8.85228e-23)
(0.0409317 -0.007704 1.58245e-22)
(0.0411411 -0.00765136 -2.72518e-22)
(0.0413479 -0.00759225 3.73787e-22)
(0.0415529 -0.00752608 -6.10549e-22)
(0.0417558 -0.00745408 4.26111e-22)
(0.0419567 -0.00737656 7.65686e-22)
(0.0421552 -0.00729178 -5.28858e-22)
(0.04235 -0.00720158 0)
(0.0425426 -0.00710461 0)
(0.0427325 -0.00700169 -3.68283e-22)
(0.0429194 -0.00689313 0)
(0.0431032 -0.00677933 -4.20395e-22)
(0.0432827 -0.00665892 4.40917e-22)
(0.043458 -0.00653356 -6.80834e-22)
(0.043629 -0.00640205 1.63649e-23)
(0.043796 -0.00626552 -2.37261e-22)
(0.0439596 -0.00612226 0)
(0.0441187 -0.00597526 -5.2203e-22)
(0.0442725 -0.00582434 4.00454e-22)
(0.0444203 -0.00566804 -3.32925e-22)
(0.0445623 -0.00550544 2.04967e-22)
(0.0446992 -0.00533728 -1.28102e-24)
(0.0448294 -0.00516624 7.5881e-23)
(0.0449521 -0.00499072 -7.06854e-23)
(0.0450675 -0.00480933 5.8868e-22)
(0.0451756 -0.00462229 -2.9839e-22)
(0.0452751 -0.00443139 -3.12189e-22)
(0.0453646 -0.0042366 5.70262e-22)
(0.0454441 -0.00403509 1.7638e-21)
(0.0455137 -0.00382812 -1.28729e-23)
(0.0455719 -0.00361716 1.73618e-21)
(0.0456168 -0.00340183 -5.80894e-22)
(0.0456476 -0.00318278 -1.69379e-21)
(0.0456626 -0.00296018 1.13513e-21)
(0.0456599 -0.00273332 0)
(0.0456391 -0.00249905 3.28258e-21)
(0.0456005 -0.00226265 -1.24677e-23)
(0.0455408 -0.00202214 -1.04078e-21)
(0.0454589 -0.00177912 -1.02866e-21)
(0.04535 -0.00153459 0)
(0.0452053 -0.00128726 8.44292e-22)
(0.045015 -0.0010403 2.43069e-21)
(0.0447658 -0.000790701 0)
(0.0444481 -0.000543312 -1.31084e-21)
(0.0440482 -0.000302968 7.07955e-22)
(0.0435529 -7.01255e-05 -1.07363e-21)
(0.0429607 0.000133632 4.96891e-22)
(0.0422477 0.000295927 -7.24072e-22)
(0.0414013 0.000422541 -5.27478e-22)
(0.0366452 -0.00783566 -1.87596e-21)
(0.0368471 -0.00789932 1.15025e-21)
(0.0370513 -0.00795816 -3.38016e-22)
(0.0372587 -0.00801211 1.19781e-21)
(0.0374684 -0.00806053 -1.47742e-21)
(0.0376808 -0.00810318 -9.8124e-22)
(0.0378955 -0.00814002 1.20673e-21)
(0.0381127 -0.00817103 0)
(0.0383322 -0.00819609 9.49509e-24)
(0.0385533 -0.00821513 0)
(0.0387753 -0.00822803 -1.17054e-22)
(0.0389982 -0.00823467 1.02405e-22)
(0.0392218 -0.00823496 2.85443e-22)
(0.039446 -0.00822883 -2.23495e-22)
(0.0396707 -0.0082161 2.30691e-23)
(0.0398956 -0.00819684 -5.31909e-23)
(0.0401203 -0.00817109 2.01484e-23)
(0.0403443 -0.00813881 5.6137e-23)
(0.0405673 -0.00810012 3.1421e-22)
(0.0407891 -0.00805478 -2.11437e-22)
(0.0410095 -0.00800291 -1.57814e-22)
(0.0412282 -0.00794449 3.71365e-22)
(0.0414448 -0.00787948 -1.6007e-22)
(0.0416594 -0.00780765 -2.3936e-22)
(0.0418717 -0.00772929 0)
(0.0420813 -0.00764462 2.93529e-22)
(0.0422878 -0.00755363 3.15631e-22)
(0.0424911 -0.00745615 -2.91693e-22)
(0.0426914 -0.00735214 0)
(0.0428884 -0.00724197 7.71613e-22)
(0.0430822 -0.00712545 -4.28339e-22)
(0.0432721 -0.00700328 -3.29162e-23)
(0.0434575 -0.00687525 0)
(0.0436384 -0.00674114 2.37289e-22)
(0.0438147 -0.00660168 -7.67178e-22)
(0.0439863 -0.00645673 5.1463e-22)
(0.0441531 -0.00630631 0)
(0.0443149 -0.00615094 4.14867e-22)
(0.0444712 -0.00599046 -4.23546e-22)
(0.0446215 -0.00582481 -6.98318e-23)
(0.0447654 -0.00565365 0)
(0.044903 -0.0054774 -1.48768e-22)
(0.0450338 -0.00529641 -7.60977e-23)
(0.0451573 -0.0051101 7.21162e-23)
(0.0452728 -0.00491852 -4.50254e-22)
(0.0453801 -0.0047218 -3.184e-22)
(0.0454786 -0.00452031 6.03875e-22)
(0.0455675 -0.00431355 -6.26814e-22)
(0.0456461 -0.0041012 6.40129e-22)
(0.0457139 -0.00388372 -6.19192e-22)
(0.0457703 -0.0036615 -6.02911e-22)
(0.0458137 -0.00343431 1.27089e-21)
(0.0458434 -0.00320214 0)
(0.0458579 -0.00296497 1.24554e-21)
(0.0458562 -0.00272243 4.09161e-23)
(0.0458373 -0.00247409 -1.16475e-21)
(0.0458004 -0.00222091 -1.12754e-21)
(0.0457427 -0.00196222 2.19259e-21)
(0.0456601 -0.00169801 -4.35923e-23)
(0.0455461 -0.0014283 1.03992e-21)
(0.045391 -0.00115272 -1.96256e-21)
(0.0451836 -0.000871473 -9.74725e-22)
(0.044911 -0.000584538 -4.09168e-23)
(0.0445627 -0.000295072 -7.65752e-22)
(0.0441274 -7.58094e-06 -6.36785e-22)
(0.0435932 0.000273601 -1.93454e-21)
(0.0429549 0.000535922 0)
(0.0421938 0.000772108 -4.27489e-22)
(0.0413085 0.000978512 4.23555e-22)
(0.0365257 -0.00819711 0)
(0.0367383 -0.00826173 3.68354e-22)
(0.0369533 -0.00832123 1.64383e-21)
(0.0371714 -0.0083755 -1.29935e-21)
(0.0373921 -0.0084239 -7.89754e-22)
(0.0376149 -0.00846619 1.32252e-21)
(0.0378399 -0.00850224 -2.29478e-22)
(0.038067 -0.00853204 1.92036e-22)
(0.0382961 -0.00855548 1.73747e-22)
(0.0385268 -0.00857249 5.04679e-22)
(0.0387589 -0.00858295 -4.90775e-22)
(0.0389919 -0.00858676 -2.77129e-22)
(0.0392256 -0.00858387 1.32777e-22)
(0.0394597 -0.0085742 1.06873e-22)
(0.0396941 -0.0085577 -1.39581e-23)
(0.0399285 -0.00853433 -4.00234e-23)
(0.0401626 -0.00850411 6.88324e-23)
(0.040396 -0.00846699 9.75786e-23)
(0.0406285 -0.00842306 -3.60456e-22)
(0.0408597 -0.00837225 1.02119e-22)
(0.0410893 -0.00831457 1.58845e-22)
(0.041317 -0.00824999 0)
(0.0415426 -0.00817854 5.05876e-22)
(0.0417658 -0.00810022 -2.3981e-22)
(0.0419864 -0.00801513 -5.89565e-22)
(0.0422041 -0.0079234 -6.7264e-22)
(0.0424185 -0.00782503 1.32209e-21)
(0.0426296 -0.00771998 -7.29995e-22)
(0.0428371 -0.00760839 0)
(0.0430409 -0.00749038 -8.39801e-22)
(0.0432407 -0.00736614 -2.84956e-23)
(0.0434361 -0.00723585 9.18808e-22)
(0.043627 -0.00709948 -5.1295e-22)
(0.0438131 -0.00695689 1.33089e-21)
(0.0439942 -0.00680898 -2.52051e-22)
(0.0441701 -0.00665551 0)
(0.0443407 -0.00649648 0)
(0.0445056 -0.00633204 1.52377e-22)
(0.0446647 -0.0061623 1.46007e-22)
(0.0448174 -0.00598732 7.91333e-23)
(0.0449635 -0.00580698 -2.51225e-24)
(0.0451027 -0.00562134 7.67561e-23)
(0.0452348 -0.00543051 0)
(0.0453593 -0.00523448 -9.52518e-24)
(0.0454756 -0.00503321 0)
(0.0455835 -0.00482663 3.11805e-22)
(0.0456823 -0.00461475 5.09056e-24)
(0.0457716 -0.00439746 -1.0094e-21)
(0.0458505 -0.00417462 0)
(0.0459187 -0.00394618 -6.63728e-22)
(0.0459754 -0.00371223 6.55417e-22)
(0.0460197 -0.00347265 -1.27164e-21)
(0.0460508 -0.00322736 0)
(0.0460677 -0.00297623 -3.84618e-21)
(0.0460695 -0.00271895 3.74062e-23)
(0.0460548 -0.002455 1.24076e-21)
(0.0460215 -0.00218413 1.20409e-21)
(0.0459657 -0.00190561 0)
(0.0458813 -0.00161853 0)
(0.0457599 -0.00132209 -1.022e-21)
(0.0455911 -0.00101551 1.92691e-21)
(0.0453638 -0.000698955 1.80312e-21)
(0.0450663 -0.000372957 0)
(0.0446888 -4.00394e-05 -1.71038e-21)
(0.0442209 0.000295834 0)
(0.0436517 0.000630413 1.96468e-21)
(0.0429761 0.000954056 -6.60873e-22)
(0.0421759 0.00126179 -5.30963e-22)
(0.0412512 0.00155456 -5.62166e-22)
(0.0364004 -0.008578 0)
(0.0366246 -0.00864378 0)
(0.0368512 -0.00870403 3.35591e-22)
(0.0370809 -0.00875865 -1.17444e-21)
(0.0373131 -0.00880699 1.44591e-21)
(0.0375475 -0.00884878 -2.52049e-22)
(0.0377839 -0.00888393 0)
(0.0380221 -0.00891239 -1.93411e-22)
(0.038262 -0.00893405 0)
(0.0385033 -0.00894882 -2.27354e-22)
(0.0387459 -0.00895661 7.43138e-23)
(0.0389894 -0.00895734 1.67339e-22)
(0.0392335 -0.00895094 0)
(0.039478 -0.00893737 1.12493e-23)
(0.0397225 -0.00891662 -1.24059e-22)
(0.0399668 -0.00888867 1.79254e-22)
(0.0402106 -0.0088535 -3.87672e-22)
(0.0404535 -0.00881107 9.06306e-23)
(0.0406954 -0.00876143 -1.51466e-22)
(0.0409358 -0.00870459 1.55734e-22)
(0.0411744 -0.00864054 2.11473e-22)
(0.041411 -0.0085693 -6.63949e-22)
(0.0416452 -0.00849093 -5.1153e-22)
(0.0418767 -0.00840547 0)
(0.0421054 -0.008313 6.52677e-22)
(0.0423308 -0.0082136 3.80948e-22)
(0.0425528 -0.00810733 -1.06667e-21)
(0.0427711 -0.00799428 3.82285e-22)
(0.0429854 -0.00787454 -8.79549e-22)
(0.0431956 -0.00774824 1.32226e-21)
(0.0434013 -0.00761551 -5.02705e-22)
(0.0436024 -0.00747647 2.65719e-22)
(0.0437986 -0.00733117 0)
(0.0439897 -0.00717966 -2.74205e-22)
(0.0441753 -0.00702278 -2.82695e-22)
(0.0443553 -0.00686024 0)
(0.0445295 -0.00669207 3.17939e-22)
(0.0446978 -0.00651838 -4.71598e-22)
(0.0448597 -0.00633927 3.15682e-22)
(0.045015 -0.00615479 -1.63336e-22)
(0.0451634 -0.00596492 -2.82801e-24)
(0.0453047 -0.00576968 -1.29064e-22)
(0.0454385 -0.00556913 4.19906e-23)
(0.0455645 -0.00536325 1.6674e-22)
(0.0456823 -0.00515199 7.42227e-24)
(0.0457914 -0.00493525 1.04195e-21)
(0.0458915 -0.00471299 0)
(0.045982 -0.0044851 6.81416e-22)
(0.0460624 -0.00425142 -1.7297e-23)
(0.0461324 -0.00401185 -6.96254e-22)
(0.0461912 -0.00376628 0)
(0.0462384 -0.00351459 -6.94752e-22)
(0.0462732 -0.00325654 6.84327e-22)
(0.0462949 -0.00299178 1.31484e-21)
(0.0463019 -0.00271976 0)
(0.0462922 -0.00243964 -2.55949e-21)
(0.0462621 -0.00215038 2.52674e-21)
(0.046206 -0.00185068 -2.4398e-21)
(0.0461162 -0.00153905 -3.69987e-23)
(0.0459836 -0.00121428 0)
(0.045798 -0.000875526 -1.04775e-21)
(0.0455493 -0.000522821 9.55996e-22)
(0.0452272 -0.000156729 1.02297e-21)
(0.0448232 0.000220566 1.69971e-21)
(0.0443272 0.000606094 -2.5953e-21)
(0.0437299 0.0009963 1.57663e-21)
(0.0430258 0.00138305 -7.69427e-22)
(0.0421943 0.00176317 8.63237e-22)
(0.0412387 0.00214278 1.81308e-21)
(0.036268 -0.00898007 -1.49713e-21)
(0.036505 -0.00904695 1.20236e-22)
(0.0367443 -0.00910788 1.39557e-21)
(0.0369865 -0.00916278 0)
(0.0372312 -0.00921096 -2.75918e-22)
(0.0374779 -0.00925213 0)
(0.0377266 -0.00928621 3.87461e-22)
(0.037977 -0.0093131 -6.22477e-23)
(0.0382288 -0.00933272 -4.62654e-22)
(0.0384819 -0.009345 1.06667e-22)
(0.038736 -0.00934982 9.11843e-23)
(0.0389908 -0.00934714 4.25328e-23)
(0.039246 -0.0093369 0)
(0.0395014 -0.00931907 0)
(0.0397566 -0.00929364 3.11915e-23)
(0.0400114 -0.0092606 6.15772e-23)
(0.0402653 -0.00921995 -2.3723e-22)
(0.0405182 -0.0091717 2.37324e-22)
(0.0407697 -0.00911583 3.30994e-22)
(0.0410195 -0.00905239 -4.20486e-22)
(0.0412673 -0.00898141 8.73004e-22)
(0.0415127 -0.00890295 2.92664e-23)
(0.0417555 -0.00881706 -5.73546e-22)
(0.0419954 -0.00872383 -3.32989e-22)
(0.042232 -0.00862334 -7.20097e-22)
(0.0424651 -0.00851568 7.22397e-22)
(0.0426944 -0.00840096 8.37956e-22)
(0.0429197 -0.00827929 -8.4134e-22)
(0.0431406 -0.00815077 0)
(0.043357 -0.00801554 0)
(0.0435686 -0.00787372 1.31057e-21)
(0.0437751 -0.00772545 4.58166e-23)
(0.0439764 -0.00757081 -5.67757e-22)
(0.0441722 -0.00741002 -6.18691e-22)
(0.0443621 -0.00724375 6.1203e-22)
(0.0445461 -0.00707174 0)
(0.044724 -0.00689405 -3.1743e-22)
(0.0448955 -0.00671077 -5.12317e-22)
(0.0450604 -0.00652199 3.35805e-22)
(0.0452184 -0.00632776 -5.32988e-24)
(0.0453693 -0.00612812 -2.78261e-23)
(0.0455128 -0.00592307 1.30517e-22)
(0.0456486 -0.00571263 9.28466e-23)
(0.0457765 -0.00549677 1.83569e-22)
(0.0458962 -0.00527544 -9.07201e-22)
(0.0460072 -0.00504853 7.05924e-24)
(0.0461093 -0.00481594 0)
(0.046202 -0.00457756 -7.63838e-22)
(0.0462852 -0.00433321 2.23057e-21)
(0.0463584 -0.00408271 -1.49819e-21)
(0.0464212 -0.00382588 -7.39542e-22)
(0.0464733 -0.00356242 -2.55023e-23)
(0.0465138 -0.00329189 -7.03838e-22)
(0.0465414 -0.00301362 -4.8108e-24)
(0.0465539 -0.00272663 1.39666e-21)
(0.0465477 -0.00242954 -1.41022e-21)
(0.0465177 -0.00212075 -1.3216e-21)
(0.0464569 -0.00179849 2.55741e-21)
(0.0463572 -0.00146104 -4.67235e-23)
(0.0462097 -0.00110706 1.16975e-21)
(0.0460054 -0.000735668 -1.1356e-21)
(0.0457355 -0.000346761 1.03296e-21)
(0.0453914 5.94317e-05 -1.96813e-21)
(0.0449655 0.000481264 -9.65397e-22)
(0.044448 0.000917163 1.83076e-21)
(0.0438311 0.00136441 -1.00518e-21)
(0.0431082 0.00181633 -2.72967e-21)
(0.0422557 0.00227183 -6.96375e-22)
(0.0412792 0.00274702 0)
(0.0361283 -0.0094053 0)
(0.036379 -0.00947314 -3.6038e-22)
(0.036632 -0.00953458 -6.74618e-24)
(0.0368879 -0.00958954 0)
(0.037146 -0.00963731 0)
(0.0374061 -0.00967762 -2.25019e-22)
(0.037668 -0.00971033 5.54824e-22)
(0.0379314 -0.00973536 -6.60514e-22)
(0.0381961 -0.00975265 3.1279e-22)
(0.0384619 -0.00976212 -1.07098e-22)
(0.0387285 -0.00976366 0)
(0.0389955 -0.00975721 -4.27103e-23)
(0.0392627 -0.00974274 -1.07948e-23)
(0.0395298 -0.00972024 0)
(0.0397964 -0.00968967 0)
(0.0400623 -0.00965105 1.15556e-22)
(0.0403271 -0.00960439 6.43014e-23)
(0.0405905 -0.00954971 -2.90303e-22)
(0.0408521 -0.00948704 -3.88622e-22)
(0.0411117 -0.00941643 4.1817e-22)
(0.041369 -0.00933795 2.41637e-22)
(0.0416236 -0.00925166 1.18427e-21)
(0.0418752 -0.00915766 3.26503e-23)
(0.0421234 -0.00905603 -3.96716e-22)
(0.0423681 -0.0089469 7.32384e-22)
(0.0426089 -0.00883038 -4.21499e-22)
(0.0428455 -0.0087066 8.55882e-22)
(0.0430777 -0.00857568 0)
(0.0433051 -0.00843777 0)
(0.0435276 -0.00829301 0)
(0.0437449 -0.00814155 -2.71691e-22)
(0.0439568 -0.00798355 -5.8475e-22)
(0.044163 -0.00781906 6.09918e-22)
(0.0443634 -0.00764854 6.59887e-22)
(0.0445575 -0.0074724 -6.52926e-22)
(0.0447455 -0.00729048 0)
(0.0449269 -0.00710285 3.53772e-22)
(0.0451016 -0.0069096 -1.7768e-22)
(0.0452695 -0.00671084 0)
(0.0454302 -0.00650662 1.84003e-22)
(0.0455836 -0.00629698 -3.48793e-23)
(0.0457295 -0.00608194 2.3307e-23)
(0.0458676 -0.00586149 -9.26077e-23)
(0.0459978 -0.00563559 0)
(0.0461198 -0.00540418 -3.90648e-22)
(0.0462334 -0.00516717 3.85948e-22)
(0.0463383 -0.00492443 0)
(0.0464345 -0.00467581 -2.68469e-23)
(0.0465218 -0.00442111 1.66845e-23)
(0.0465998 -0.00416007 7.57508e-22)
(0.0466683 -0.00389235 0)
(0.0467265 -0.00361742 -4.54537e-23)
(0.0467731 -0.00333448 -7.36434e-22)
(0.0468058 -0.00304241 -2.26368e-21)
(0.0468212 -0.00273974 -4.99185e-23)
(0.0468144 -0.00242467 1.38039e-21)
(0.0467792 -0.00209525 0)
(0.0467086 -0.00174955 0)
(0.0465947 -0.00138585 1.33905e-21)
(0.0464301 -0.00100282 0)
(0.046207 -0.000599439 0)
(0.0459185 -0.000175255 -6.19073e-23)
(0.045557 0.000270148 -1.13299e-21)
(0.0451158 0.000735921 -2.22453e-21)
(0.0445853 0.00122229 2.21346e-21)
(0.0439592 0.0017271 -2.53399e-22)
(0.0432288 0.00224591 9.33347e-22)
(0.0423696 0.00277929 1.07496e-21)
(0.0413969 0.0033566 0)
(0.0359822 -0.00985589 0)
(0.0362472 -0.00992444 3.61211e-22)
(0.0365146 -0.00998613 -9.41666e-22)
(0.0367849 -0.0100409 3.28651e-22)
(0.0370576 -0.0100879 0)
(0.037332 -0.010127 6.3064e-22)
(0.0376079 -0.010158 -9.31399e-22)
(0.0378853 -0.0101809 6.86679e-23)
(0.0381638 -0.0101955 5.86929e-22)
(0.0384432 -0.0102018 -1.26035e-22)
(0.0387231 -0.0101996 3.55517e-23)
(0.0390033 -0.010189 4.16474e-25)
(0.0392834 -0.0101698 8.86939e-23)
(0.0395631 -0.0101421 -2.23731e-22)
(0.0398419 -0.0101058 1.4582e-22)
(0.0401197 -0.010061 -1.70364e-22)
(0.0403959 -0.0100078 6.28902e-22)
(0.0406705 -0.0099461 -1.41025e-22)
(0.0409429 -0.00987602 2.71707e-22)
(0.0412128 -0.00979762 -2.09132e-22)
(0.04148 -0.009711 6.47151e-23)
(0.0417441 -0.00961624 -1.93577e-21)
(0.0420048 -0.00951346 -4.00677e-22)
(0.0422618 -0.00940279 -6.24053e-23)
(0.0425148 -0.00928435 1.24611e-21)
(0.0427634 -0.0091583 -4.3171e-22)
(0.0430074 -0.00902479 9.93825e-22)
(0.0432465 -0.00888398 -1.53296e-21)
(0.0434805 -0.00873604 0)
(0.0437091 -0.00858113 -5.89504e-22)
(0.0439321 -0.00841943 5.92319e-22)
(0.0441492 -0.00825111 2.29692e-23)
(0.0443603 -0.00807625 -3.45949e-22)
(0.0445651 -0.00789549 -3.57344e-22)
(0.0447634 -0.007709 1.08604e-21)
(0.0449551 -0.00751672 -7.12272e-22)
(0.04514 -0.00731875 5.66399e-22)
(0.0453179 -0.0071152 -7.53388e-22)
(0.0454887 -0.00690616 3.7797e-22)
(0.0456522 -0.0066917 -9.43992e-23)
(0.0458083 -0.00647189 0)
(0.0459567 -0.00624673 1.00733e-22)
(0.0460975 -0.00601622 -9.95788e-23)
(0.0462304 -0.00578034 -2.04755e-22)
(0.0463554 -0.005539 6.14036e-22)
(0.0464725 -0.00529213 -4.15665e-22)
(0.0465815 -0.00503956 -4.07809e-22)
(0.0466824 -0.00478112 0)
(0.046775 -0.00451651 -1.67061e-21)
(0.0468589 -0.0042453 1.63288e-21)
(0.0469334 -0.00396689 -7.85342e-22)
(0.0469971 -0.00368038 7.71998e-22)
(0.0470476 -0.00338457 8.08772e-22)
(0.0470816 -0.0030779 1.52586e-21)
(0.0470947 -0.00275857 1.47193e-21)
(0.0470812 -0.00242459 0)
(0.0470351 -0.00207399 -1.48757e-21)
(0.04695 -0.00170492 0)
(0.0468196 -0.00131571 4.3165e-23)
(0.0466377 -0.000904946 -1.26499e-21)
(0.0463983 -0.00047129 1.28774e-21)
(0.0460957 -1.37049e-05 1.20431e-21)
(0.0457233 0.000469132 -1.29138e-21)
(0.0452751 0.000977458 -4.58152e-23)
(0.044742 0.00151357 7.27071e-23)
(0.0441193 0.00207529 3.59619e-21)
(0.0433958 0.00266229 1.33295e-21)
(0.0425529 0.00327672 1.26147e-21)
(0.0416215 0.00396284 -1.32391e-21)
(0.0358305 -0.010334 0)
(0.0361105 -0.010403 0)
(0.0363929 -0.0104647 -5.94447e-22)
(0.0366784 -0.010519 8.76815e-22)
(0.0369662 -0.010565 2.34792e-22)
(0.0372558 -0.0106025 0)
(0.037547 -0.0106314 0)
(0.0378392 -0.0106516 -1.23056e-22)
(0.0381323 -0.0106631 1.57818e-22)
(0.038426 -0.0106657 -9.36538e-23)
(0.0387201 -0.0106594 -1.34847e-22)
(0.0390143 -0.010644 1.32929e-23)
(0.0393081 -0.0106196 6.83757e-23)
(0.0396013 -0.010586 -1.29232e-22)
(0.0398932 -0.0105434 1.33488e-22)
(0.0401836 -0.0104919 0)
(0.0404722 -0.0104314 0)
(0.0407585 -0.010362 3.22781e-23)
(0.0410423 -0.0102838 -7.55597e-22)
(0.0413232 -0.0101969 2.74493e-22)
(0.0416009 -0.0101015 -3.45219e-22)
(0.041875 -0.00999752 3.41026e-22)
(0.0421452 -0.00988524 4.0405e-22)
(0.0424112 -0.00976479 -3.71762e-22)
(0.0426727 -0.00963632 -4.38981e-22)
(0.0429294 -0.00950002 0)
(0.043181 -0.00935607 0)
(0.0434272 -0.00920467 8.24629e-22)
(0.0436678 -0.00904601 0)
(0.0439026 -0.00888029 6.33945e-22)
(0.0441312 -0.00870772 -6.36751e-22)
(0.0443536 -0.00852848 -3.29506e-22)
(0.0445695 -0.0083427 3.44695e-22)
(0.0447787 -0.00815118 7.34701e-22)
(0.0449811 -0.00795386 -3.63734e-22)
(0.0451766 -0.00775079 -3.89876e-22)
(0.0453649 -0.00754209 3.98369e-22)
(0.045546 -0.0073279 0)
(0.0457198 -0.00710833 0)
(0.0458862 -0.00688347 1.05943e-22)
(0.0460451 -0.00665338 0)
(0.0461966 -0.0064181 0)
(0.0463405 -0.00617763 -3.23118e-22)
(0.0464769 -0.00593195 4.31115e-22)
(0.0466059 -0.00568099 -2.20869e-22)
(0.0467274 -0.00542462 4.1821e-22)
(0.0468414 -0.00516264 0)
(0.0469477 -0.00489473 1.30817e-21)
(0.0470458 -0.00462041 -1.804e-23)
(0.0471349 -0.00433898 0)
(0.0472134 -0.00404948 -1.6858e-21)
(0.0472788 -0.00375065 -2.16832e-23)
(0.0473281 -0.00344097 -1.60804e-21)
(0.047357 -0.00311868 -8.26866e-22)
(0.0473609 -0.00278192 -1.57275e-21)
(0.0473346 -0.00242882 1.52879e-21)
(0.047273 -0.00205756 1.44906e-21)
(0.047171 -0.0016664 0)
(0.0470239 -0.00125364 -1.4281e-21)
(0.046827 -0.0008176 5.01142e-23)
(0.0465758 -0.000356414 0)
(0.0462654 0.000131765 0)
(0.0458905 0.000649369 1.30515e-21)
(0.0454452 0.00119799 0)
(0.0449224 0.0017819 0)
(0.0443177 0.00239853 -1.4447e-21)
(0.0436228 0.00305472 -1.32314e-21)
(0.042831 0.0037518 -1.69506e-21)
(0.0419793 0.00453797 0)
(0.0356738 -0.0108423 0)
(0.0359699 -0.0109115 0)
(0.0362682 -0.0109728 0)
(0.0365695 -0.0110263 2.57716e-22)
(0.0368732 -0.011071 1.82662e-22)
(0.0371787 -0.0111066 -7.52134e-23)
(0.0374858 -0.0111329 -3.401e-22)
(0.0377939 -0.0111499 1.22886e-22)
(0.0381027 -0.0111576 -6.31734e-23)
(0.0384117 -0.011156 -7.35945e-23)
(0.0387207 -0.0111449 0)
(0.0390295 -0.0111242 0)
(0.0393379 -0.0110938 -3.50188e-23)
(0.0396452 -0.0110538 3.13902e-22)
(0.039951 -0.0110042 -6.32205e-22)
(0.0402548 -0.0109451 -7.30541e-23)
(0.0405564 -0.0108765 4.05958e-22)
(0.0408553 -0.0107987 2.40055e-22)
(0.0411511 -0.0107117 -3.79897e-23)
(0.0414435 -0.0106155 0)
(0.0417323 -0.0105104 7.29452e-22)
(0.0420169 -0.0103965 0)
(0.0422971 -0.0102739 8.68166e-22)
(0.0425726 -0.0101429 -1.4131e-21)
(0.042843 -0.0100036 1.49361e-21)
(0.043108 -0.00985624 5.58891e-22)
(0.0433674 -0.00970108 -8.79526e-22)
(0.0436209 -0.00953832 9.11917e-22)
(0.0438682 -0.00936822 -6.17843e-22)
(0.0441092 -0.00919099 0)
(0.0443436 -0.00900688 -7.1161e-22)
(0.0445712 -0.00881609 -4.06383e-22)
(0.044792 -0.00861889 7.44754e-22)
(0.0450056 -0.00841603 -7.79135e-22)
(0.0452121 -0.00820739 4.04079e-22)
(0.0454113 -0.0079931 -3.99932e-22)
(0.0456032 -0.00777333 -2.00515e-22)
(0.0457876 -0.00754824 2.17179e-22)
(0.0459647 -0.00731797 1.0584e-22)
(0.0461344 -0.00708262 -3.18452e-22)
(0.0462967 -0.00684229 -2.81665e-23)
(0.0464517 -0.00659701 0)
(0.0465996 -0.00634681 1.07931e-22)
(0.0467402 -0.00609162 -2.17076e-22)
(0.0468738 -0.00583134 2.17841e-22)
(0.0470002 -0.00556574 0)
(0.0471191 -0.00529445 0)
(0.0472298 -0.00501693 4.64627e-22)
(0.0473312 -0.00473243 -8.81223e-22)
(0.0474216 -0.00443995 -1.78893e-21)
(0.0474987 -0.00413825 3.475e-21)
(0.0475593 -0.00382589 -8.7929e-22)
(0.0475999 -0.00350129 8.37389e-22)
(0.0476165 -0.0031628 8.01908e-22)
(0.047605 -0.00280875 -1.62443e-21)
(0.0475614 -0.0024375 1.58251e-21)
(0.047482 -0.00204738 0)
(0.0473632 -0.00163667 -1.58555e-21)
(0.0472018 -0.00120347 5.25524e-23)
(0.0469943 -0.000745625 1.49642e-21)
(0.0467375 -0.000260599 0)
(0.0464274 0.000254445 0)
(0.0460596 0.000803174 0)
(0.0456294 0.00138874 3.17933e-21)
(0.0451324 0.00201684 1.68963e-21)
(0.0445653 0.00268545 1.59432e-21)
(0.0439322 0.00341171 -3.52304e-21)
(0.0432363 0.004186 -2.47813e-22)
(0.0425394 0.00508624 2.19157e-21)
(0.0355126 -0.0113835 0)
(0.0358255 -0.0114526 6.18667e-22)
(0.0361408 -0.0115133 -7.5746e-22)
(0.0364592 -0.0115657 3.22943e-22)
(0.0367798 -0.0116086 -6.57642e-22)
(0.037102 -0.0116417 -1.58775e-22)
(0.0374258 -0.0116649 -1.18183e-22)
(0.0377506 -0.0116782 0)
(0.038076 -0.0116815 1.00265e-22)
(0.0384013 -0.0116749 1.21209e-23)
(0.0387262 -0.0116583 1.51501e-23)
(0.0390505 -0.0116316 -8.25371e-23)
(0.039374 -0.0115946 1.58348e-22)
(0.0396961 -0.0115473 -5.05248e-23)
(0.0400166 -0.0114898 -7.61295e-22)
(0.0403346 -0.0114223 -7.57487e-23)
(0.0406499 -0.0113449 -7.5016e-23)
(0.040962 -0.0112578 5.51051e-22)
(0.0412705 -0.0111611 3.11695e-22)
(0.0415751 -0.0110548 7.71214e-22)
(0.0418755 -0.0109392 -7.27596e-22)
(0.0421712 -0.0108144 0)
(0.0424618 -0.0106806 4.65068e-23)
(0.0427472 -0.0105381 0)
(0.0430268 -0.0103871 -5.21836e-22)
(0.0433005 -0.0102279 -5.55591e-22)
(0.043568 -0.0100606 2.94486e-22)
(0.043829 -0.00988573 0)
(0.0440832 -0.00970339 3.53704e-22)
(0.0443306 -0.0095139 7.27124e-22)
(0.0445708 -0.00931755 -7.2973e-22)
(0.0448039 -0.00911456 3.75096e-22)
(0.0450296 -0.00890543 -8.1685e-22)
(0.0452478 -0.00869066 1.62423e-21)
(0.0454585 -0.00847025 -4.1344e-22)
(0.0456617 -0.00824439 0)
(0.0458574 -0.00801329 -2.24948e-22)
(0.0460456 -0.00777714 1.38659e-23)
(0.0462264 -0.00753609 3.35164e-22)
(0.0463999 -0.00729029 -2.81069e-22)
(0.0465662 -0.00703982 5.48108e-23)
(0.0467253 -0.0067847 -1.75577e-22)
(0.0468775 -0.0065249 1.14634e-22)
(0.0470224 -0.00626028 0)
(0.0471601 -0.00599057 0)
(0.0472898 -0.00571537 0)
(0.0474108 -0.00543408 4.76328e-22)
(0.0475216 -0.00514591 4.73341e-22)
(0.0476207 -0.0048499 0)
(0.0477054 -0.00454489 8.98267e-22)
(0.0477733 -0.00422962 9.35605e-22)
(0.0478211 -0.00390275 9.03009e-22)
(0.0478458 -0.00356291 0)
(0.0478442 -0.00320874 0)
(0.0478134 -0.00283884 -1.67885e-21)
(0.0477509 -0.00245172 1.64215e-21)
(0.0476542 -0.00204579 0)
(0.0475211 -0.00161914 1.56493e-21)
(0.0473497 -0.00116954 -1.55738e-21)
(0.0471377 -0.000694287 -1.67384e-21)
(0.0468828 -0.000190021 1.63402e-21)
(0.0465823 0.000347145 -1.65479e-21)
(0.0462333 0.000922139 0)
(0.0458335 0.00153967 -1.69877e-21)
(0.0453828 0.00220614 9.25305e-23)
(0.044885 0.0029247 -4.12123e-21)
(0.0443624 0.00371885 -4.49056e-21)
(0.0438158 0.00456468 4.54752e-21)
(0.0433197 0.00559649 -2.35432e-21)
(0.0353472 -0.0119603 1.68333e-22)
(0.0356781 -0.0120292 0)
(0.0360115 -0.0120891 1.39411e-22)
(0.0363481 -0.0121398 -5.37755e-22)
(0.0366867 -0.0121803 8.6263e-22)
(0.0370268 -0.0122105 -1.77511e-22)
(0.0373682 -0.0122301 1.17268e-22)
(0.0377106 -0.0122392 -8.87707e-23)
(0.0380535 -0.0122376 5.15079e-23)
(0.0383962 -0.0122252 -2.77173e-24)
(0.038738 -0.0122022 -7.47773e-23)
(0.0390789 -0.0121685 3.17457e-22)
(0.0394183 -0.012124 -7.83242e-23)
(0.0397561 -0.0120687 5.93056e-22)
(0.0400918 -0.0120026 2.78184e-22)
(0.0404248 -0.0119258 7.82997e-23)
(0.0407546 -0.0118387 -5.51646e-22)
(0.0410807 -0.0117414 0)
(0.0414026 -0.011634 0)
(0.0417201 -0.0115166 -4.33756e-22)
(0.0420326 -0.0113895 -4.23763e-22)
(0.0423399 -0.0112528 -1.00143e-21)
(0.0426415 -0.0111069 5.0687e-22)
(0.0429372 -0.0109519 1.14418e-21)
(0.0432265 -0.0107882 -1.14585e-21)
(0.0435093 -0.0106162 3.26657e-22)
(0.0437851 -0.010436 3.44088e-22)
(0.0440539 -0.010248 0)
(0.0443154 -0.0100526 -3.50002e-22)
(0.0445694 -0.0098501 -7.74514e-22)
(0.0448157 -0.00964081 -2.96192e-23)
(0.0450545 -0.00942499 8.09076e-22)
(0.0452854 -0.00920336 -4.38925e-22)
(0.0455084 -0.0089762 0)
(0.0457238 -0.00874363 2.2831e-22)
(0.0459314 -0.00850591 -2.32134e-22)
(0.0461313 -0.00826327 2.20994e-22)
(0.0463237 -0.00801592 -4.62601e-22)
(0.0465086 -0.00776403 0)
(0.0466861 -0.0075077 -6.07997e-23)
(0.0468563 -0.00724696 5.94354e-23)
(0.0470191 -0.00698176 -9.32167e-23)
(0.0471742 -0.00671191 3.60044e-22)
(0.0473212 -0.00643711 -7.20494e-22)
(0.0474593 -0.0061569 4.74364e-22)
(0.0475875 -0.00587068 4.80072e-22)
(0.0477043 -0.00557769 -4.43419e-22)
(0.0478079 -0.00527705 9.72352e-22)
(0.0478963 -0.00496781 -9.24175e-22)
(0.047967 -0.00464893 -2.29319e-21)
(0.0480177 -0.00431938 1.94207e-23)
(0.048046 -0.0039781 -8.71931e-22)
(0.0480498 -0.00362405 0)
(0.048027 -0.00325612 0)
(0.0479761 -0.00287309 -1.74106e-21)
(0.0478957 -0.00247354 2.55376e-21)
(0.0477845 -0.00205577 -1.70709e-21)
(0.0476416 -0.00161764 0)
(0.047466 -0.0011565 1.78893e-21)
(0.0472566 -0.000669021 3.45787e-21)
(0.0470124 -0.000151069 -1.72824e-21)
(0.0467325 0.00040223 -1.76265e-23)
(0.0464168 0.00099695 1.92845e-21)
(0.0460677 0.00163885 -7.81337e-23)
(0.0456946 0.00233714 -4.41729e-21)
(0.0453162 0.00310022 4.66464e-21)
(0.0449661 0.00395299 2.47521e-21)
(0.0446194 0.00487505 0)
(0.0443155 0.00607054 0)
(0.0351782 -0.0125763 -1.66047e-22)
(0.0355284 -0.0126446 -6.83198e-22)
(0.035881 -0.0127032 5.40623e-22)
(0.0362368 -0.0127517 0)
(0.0365948 -0.0127895 8.73448e-23)
(0.0369542 -0.0128161 1.99378e-22)
(0.0373146 -0.0128315 -1.67543e-22)
(0.0376757 -0.0128356 3.88826e-23)
(0.038037 -0.0128282 -2.91663e-23)
(0.0383978 -0.0128094 0)
(0.0387577 -0.0127792 1.89665e-23)
(0.0391163 -0.0127378 0)
(0.039473 -0.0126849 2.33159e-22)
(0.0398275 -0.0126207 -5.83871e-22)
(0.0401793 -0.0125451 0)
(0.0405281 -0.0124584 0)
(0.0408733 -0.0123606 0)
(0.0412142 -0.012252 -5.88805e-22)
(0.0415503 -0.0121329 7.88677e-22)
(0.0418814 -0.0120033 4.28594e-22)
(0.0422068 -0.0118636 0)
(0.0425264 -0.0117139 0)
(0.0428396 -0.0115547 0)
(0.0431461 -0.0113863 -1.55083e-21)
(0.0434456 -0.0112089 1.89063e-21)
(0.0437379 -0.011023 -9.76358e-22)