/*--------------------------------*- C++ -*----------------------------------*\
| =========                 |                                                 |
| \\      /  F ield         | OpenFOAM: The Open Source CFD Toolbox           |
|  \\    /   O peration     | Version:  2312                                  |
|   \\  /    A nd           | Website:  www.openfoam.com                      |
|    \\/     M anipulation  |                                                 |
\*---------------------------------------------------------------------------*/
FoamFile
{
    version     2.0;
    format      ascii;
    arch        "LSB;label=32;scalar=64";
    class       volScalarField;
    location    "400";
    object      epsilon;
}
// * * * * * * * * * * * * * * * * * * * * * * * * * * * * * * * * * * * * * //

dimensions      [0 2 -3 0 0 0 0];

internalField   nonuniform List<scalar> 
76025
(
0.000257609
0.000257034
0.00025652
0.000256011
0.000255416
0.000254615
0.000253829
0.000253288
0.00025268
0.000252213
0.00025153
0.000250933
0.000250203
0.000249536
0.000249103
0.000248739
0.000247966
0.000247532
0.000246547
0.000245912
0.000245117
0.000244348
0.000243574
0.000242713
0.000242063
0.000241273
0.000240717
0.000239948
0.000239175
0.000238644
0.000237654
0.000236997
0.000236212
0.000235613
0.000234955
0.000234582
0.000233964
0.000233725
0.000233713
0.000234041
0.000234295
0.000235214
0.000235915
0.000237473
0.00023861
0.000240926
0.000242449
0.000245331
0.000247428
0.000251125
0.000253327
0.000257706
0.00025995
0.000264496
0.00026733
0.000273408
0.000277055
0.000285299
0.000290305
0.000301899
0.00030807
0.000322323
0.000331066
0.000347758
0.000361944
0.00038062
0.000401077
0.000432193
0.000474109
0.000259305
0.000258688
0.000258125
0.000257449
0.000256873
0.00025624
0.000255458
0.000254834
0.000254197
0.000253743
0.000253137
0.000252708
0.000252007
0.000251559
0.00025073
0.000250248
0.000249622
0.000249069
0.000248494
0.000247816
0.000247145
0.000246468
0.000245808
0.000245157
0.000244457
0.000243835
0.000243139
0.000242619
0.000242059
0.000241546
0.000241154
0.000240801
0.000240465
0.000240114
0.00024006
0.000240166
0.000240315
0.000240712
0.00024117
0.000241864
0.000242672
0.000243719
0.000244959
0.000246413
0.000248066
0.000249962
0.000252004
0.000254434
0.00025677
0.000259825
0.000262381
0.000266246
0.000269199
0.000274568
0.000278698
0.000286112
0.000291782
0.000301404
0.000308274
0.000320554
0.000329799
0.000346367
0.000358086
0.000376968
0.000394946
0.000415938
0.000452064
0.000484653
0.000547751
0.00026147
0.000260995
0.000260536
0.000260082
0.00025955
0.000259077
0.000258472
0.00025784
0.000257148
0.000256586
0.000255995
0.000255502
0.00025495
0.000254443
0.000253882
0.000253298
0.000252749
0.000252186
0.000251677
0.000251168
0.000250672
0.000250173
0.000249696
0.000249256
0.000248816
0.000248399
0.000247989
0.00024763
0.000247359
0.000246948
0.000246888
0.000246853
0.000246906
0.000247071
0.00024733
0.000247728
0.000248176
0.000248765
0.00024942
0.000250287
0.000251285
0.00025255
0.000253987
0.000255669
0.00025755
0.000259684
0.000262034
0.000264732
0.000267498
0.000270991
0.000274148
0.000278792
0.000282723
0.000289114
0.00029406
0.000302619
0.000308593
0.00031933
0.000326356
0.000340821
0.000350617
0.000369629
0.00038087
0.000404305
0.000421728
0.000451969
0.000489929
0.000535043
0.000607687
0.000264614
0.000264163
0.000263711
0.000263337
0.000262931
0.000262589
0.000262181
0.000261753
0.000261219
0.000260686
0.000260128
0.000259629
0.000259115
0.000258671
0.000258211
0.000257791
0.000257344
0.000256908
0.000256458
0.000256017
0.0002556
0.000255198
0.00025482
0.000254472
0.000254192
0.00025393
0.000253615
0.000253558
0.000253557
0.000253594
0.000253741
0.000253951
0.000254258
0.000254637
0.000255141
0.000255746
0.000256479
0.000257313
0.00025829
0.000259411
0.000260711
0.000262167
0.000263879
0.000265794
0.00026811
0.000270628
0.000273621
0.000276726
0.000280301
0.000284126
0.000288232
0.000293289
0.000298211
0.000304976
0.000310957
0.000319997
0.000327213
0.000339092
0.000348174
0.000364908
0.000376965
0.000398303
0.000412163
0.000439542
0.000462761
0.000499996
0.000554208
0.000608561
0.000718404
0.000268988
0.000268525
0.000268045
0.000267604
0.000267189
0.000266838
0.000266525
0.000266235
0.000265935
0.000265627
0.000265236
0.00026486
0.000264425
0.000264017
0.000263602
0.000263245
0.000262918
0.000262653
0.000262432
0.000262192
0.000261969
0.000261771
0.000261516
0.000261471
0.000261109
0.000261193
0.000261312
0.000261463
0.000261715
0.000262022
0.000262428
0.000262879
0.000263427
0.000264045
0.000264793
0.00026567
0.000266682
0.000267819
0.000269096
0.000270555
0.000272161
0.000273993
0.000276093
0.000278502
0.000281313
0.000284324
0.000287823
0.000291301
0.000295536
0.000299687
0.000304908
0.000310397
0.000316829
0.000324238
0.000332174
0.000342168
0.00035167
0.000365114
0.000376894
0.000395825
0.000409806
0.000433485
0.000449264
0.000483877
0.000510291
0.000565956
0.000630167
0.000710629
0.000853265
0.000275138
0.000274714
0.000274305
0.000273883
0.000273464
0.000273106
0.000272798
0.000272577
0.000272399
0.000272107
0.000272001
0.000271559
0.000271518
0.000271229
0.000271078
0.00027083
0.000270551
0.000270268
0.000269811
0.000269867
0.000269903
0.000269953
0.000270037
0.000270133
0.000270287
0.000270483
0.000270764
0.000271062
0.000271429
0.000271834
0.000272357
0.000272919
0.000273669
0.000274486
0.000275529
0.000276694
0.000278082
0.000279599
0.000281328
0.000283222
0.000285324
0.000287637
0.000290205
0.000293002
0.000296197
0.000299536
0.000303542
0.00030752
0.000312696
0.000317597
0.000324346
0.000330659
0.000339218
0.000347458
0.000358092
0.00036865
0.000381374
0.000395671
0.000411495
0.000431517
0.000448831
0.000474719
0.000496027
0.000539391
0.000578115
0.000654409
0.000739247
0.000855294
0.00104591
0.000282847
0.000282414
0.000282013
0.000281586
0.00028118
0.000280824
0.000280631
0.000280232
0.000280208
0.000280269
0.000280012
0.000280155
0.00027989
0.000279754
0.000279666
0.000279574
0.000279796
0.000279971
0.000280101
0.000280238
0.000280453
0.000280673
0.00028101
0.000281286
0.000281693
0.000282156
0.000282673
0.0002832
0.000283733
0.00028429
0.000284989
0.000285796
0.00028682
0.000287947
0.000289261
0.000290673
0.000292254
0.000293964
0.000295893
0.000297997
0.0003004
0.000303028
0.000306052
0.000309406
0.000313308
0.000317455
0.000322354
0.000327318
0.000333539
0.000339564
0.000347583
0.00035515
0.000365466
0.00037493
0.000388061
0.000399566
0.000416276
0.000431672
0.000453195
0.000473233
0.000497285
0.000525678
0.000559958
0.000614655
0.000674939
0.000778141
0.000891781
0.00106084
0.00131281
0.000292229
0.000291922
0.00029164
0.000291374
0.000291054
0.000290794
0.000290453
0.0002904
0.000290372
0.000290431
0.000290569
0.000290749
0.000290949
0.000291068
0.000291237
0.000291426
0.000291692
0.000291915
0.00029216
0.000292414
0.00029269
0.000293107
0.000293569
0.000294157
0.000294736
0.000295421
0.000296248
0.000297202
0.000298196
0.000299155
0.000300163
0.000301194
0.000302396
0.000303706
0.000305257
0.000306971
0.000308947
0.000311134
0.000313608
0.000316331
0.000319428
0.000322847
0.000326702
0.000331003
0.000335667
0.000340717
0.000346208
0.000352107
0.000358802
0.000366029
0.000374647
0.000384089
0.000395538
0.000407455
0.000422581
0.000436932
0.00045754
0.000475622
0.000502715
0.000523885
0.000559376
0.00059267
0.000651594
0.00071827
0.0008172
0.000947989
0.00111119
0.00135416
0.00166198
0.000304219
0.000303874
0.000303872
0.000303487
0.000303464
0.000303095
0.000303159
0.000303204
0.000303245
0.000303323
0.000303426
0.000303632
0.000303903
0.000304281
0.000304672
0.000305131
0.000305631
0.000306249
0.000306858
0.000307489
0.000308115
0.000308713
0.000309394
0.000310213
0.000311124
0.000312135
0.000313192
0.000314307
0.000315488
0.000316742
0.000318196
0.000319746
0.000321513
0.000323364
0.000325432
0.000327618
0.000330101
0.000332792
0.000335834
0.000339189
0.000343028
0.000347253
0.000351923
0.000356946
0.00036223
0.000367905
0.000373956
0.000380625
0.00038808
0.00039677
0.000406678
0.000418892
0.000431889
0.000447628
0.000464622
0.00048429
0.000507539
0.000531252
0.000562461
0.000591995
0.000641384
0.000690507
0.000779721
0.000867677
0.00102224
0.00118338
0.00143568
0.00174668
0.00213733
0.0003192
0.000319281
0.000319322
0.00031937
0.00031943
0.000319516
0.000319659
0.000319977
0.000320308
0.000320662
0.000321049
0.000321436
0.000321814
0.000322211
0.000322633
0.000323123
0.000323716
0.000324358
0.000325084
0.000325815
0.000326585
0.000327418
0.000328359
0.00032946
0.000330687
0.000332091
0.00033361
0.000335256
0.000336958
0.000338704
0.000340535
0.000342454
0.000344576
0.000346881
0.000349473
0.000352294
0.0003554
0.000358739
0.000362356
0.000366394
0.00037078
0.000375768
0.000380968
0.000386938
0.000392988
0.000400039
0.000407365
0.000416208
0.000425653
0.000437253
0.000449728
0.000465331
0.000480782
0.000500423
0.000520088
0.000545334
0.000571112
0.000602672
0.000640468
0.000687561
0.000756387
0.000836391
0.000961295
0.00109231
0.00131128
0.00152381
0.00189553
0.00226418
0.00280324
0.000338509
0.000338796
0.00033912
0.000339405
0.000339673
0.000339979
0.000340226
0.000340505
0.000340825
0.000341216
0.000341736
0.000342368
0.000343052
0.000343743
0.000344476
0.000345152
0.00034587
0.000346652
0.000347478
0.000348467
0.000349452
0.000350533
0.000351654
0.000352943
0.000354382
0.000356064
0.000358008
0.000360153
0.000362533
0.000365055
0.000367778
0.000370661
0.000373737
0.000376885
0.000380229
0.000383677
0.000387338
0.000391277
0.000395708
0.000400965
0.000406659
0.000413314
0.000419905
0.000427568
0.000435066
0.000443926
0.000453343
0.00046442
0.000476215
0.000490496
0.000505701
0.00052469
0.000543324
0.000567077
0.000591148
0.000622518
0.000656074
0.000701689
0.000758575
0.000834995
0.000936675
0.00106043
0.00123267
0.00142664
0.00171878
0.00201544
0.00251918
0.00295073
0.00375368
0.000362125
0.000362616
0.000363252
0.000363874
0.000364517
0.000365217
0.000365822
0.000366453
0.000366941
0.000367429
0.000367932
0.000368563
0.00036929
0.000370181
0.000371167
0.000372402
0.000373598
0.00037508
0.000376596
0.00037822
0.000379894
0.000381735
0.00038361
0.000385534
0.000387514
0.000389465
0.000391527
0.000393668
0.000396043
0.000398611
0.00040162
0.000404774
0.000408533
0.000412395
0.000416849
0.000421679
0.000426757
0.00043249
0.00043891
0.000446252
0.000453621
0.000461836
0.000469405
0.000478585
0.000487764
0.000499386
0.000511754
0.0005257
0.00054029
0.000557326
0.000576065
0.000599106
0.000622892
0.000653444
0.000686617
0.000731406
0.00078485
0.000857758
0.00094883
0.00106437
0.0012121
0.00138901
0.00162768
0.00190049
0.00228852
0.00269973
0.00333848
0.00389273
0.00499214
0.000392247
0.000392946
0.000393792
0.000394703
0.000395647
0.00039672
0.000397836
0.000398965
0.000400139
0.000401286
0.000402289
0.000403486
0.000404682
0.000406128
0.000407484
0.000408965
0.00041033
0.000411778
0.00041334
0.000414958
0.000416761
0.000418834
0.000421075
0.000423628
0.000426211
0.000429018
0.000432006
0.000435119
0.000438611
0.000442309
0.000446332
0.000450642
0.000455444
0.000460601
0.000466421
0.000472513
0.000479072
0.000485969
0.000493448
0.000501407
0.000510152
0.000520197
0.000530301
0.000543579
0.000558037
0.000574864
0.000591254
0.000608105
0.000624756
0.000645323
0.000668892
0.000699044
0.00073353
0.000778874
0.000832458
0.000904167
0.00099037
0.00110149
0.00123586
0.00140235
0.00161187
0.00186136
0.00219126
0.00256281
0.00307937
0.00361748
0.00442586
0.00514507
0.00648365
0.000431072
0.000432063
0.000433207
0.000434414
0.000435741
0.000437154
0.000438767
0.000440376
0.000442196
0.00044399
0.000445849
0.000447666
0.000449668
0.000451673
0.000453855
0.000456002
0.000458234
0.000460542
0.000462977
0.00046555
0.000468321
0.000471394
0.000474518
0.000478164
0.000482212
0.00048647
0.000490848
0.000494822
0.000498895
0.000502834
0.000507101
0.000511655
0.000517051
0.000522696
0.000529761
0.000537106
0.00054547
0.000555034
0.000565422
0.000576389
0.0005898
0.000603467
0.000618367
0.000638207
0.00065978
0.000680647
0.000699564
0.0007185
0.000740317
0.00076858
0.000803889
0.000850521
0.000907593
0.000981347
0.00106921
0.00118001
0.0013103
0.00147255
0.00166594
0.00190375
0.00219478
0.0025416
0.00298119
0.00347862
0.00414152
0.00482974
0.00585237
0.00673055
0.00869701
0.000482175
0.000483554
0.000485103
0.00048671
0.000488497
0.000490363
0.000492477
0.000494637
0.000497055
0.000499491
0.000502137
0.000504719
0.00050754
0.000510304
0.000513323
0.000516284
0.000519477
0.00052264
0.000526096
0.000529496
0.000533306
0.000537069
0.000541328
0.000545484
0.00055044
0.000555159
0.000560712
0.000565811
0.000571651
0.000577324
0.000583655
0.000590509
0.000597869
0.00060639
0.000615375
0.000625957
0.000636367
0.000649961
0.000662601
0.000676802
0.000695157
0.000710512
0.000734758
0.000758508
0.000787067
0.000810493
0.000835542
0.000867399
0.000908386
0.000960721
0.00102465
0.00110319
0.00119614
0.00130906
0.00144144
0.0016026
0.00179189
0.00202278
0.00229548
0.0026255
0.00301966
0.00348693
0.00405607
0.00470749
0.00552972
0.00641823
0.00768115
0.00898453
0.0120868
0.000551392
0.000553235
0.000555263
0.000557377
0.000559693
0.00056214
0.00056483
0.000567646
0.000570716
0.00057389
0.000577299
0.000580757
0.000584434
0.000588142
0.000592072
0.000596027
0.000600213
0.000604431
0.000608928
0.000613458
0.00061834
0.000623291
0.00062868
0.000634169
0.000640215
0.000646421
0.000653237
0.000660272
0.000667907
0.000675946
0.000684623
0.000693982
0.000704098
0.000715165
0.000727228
0.000740431
0.000754918
0.000770938
0.000788689
0.00080852
0.000830675
0.000855963
0.000884582
0.000917542
0.000955609
0.00100074
0.00105439
0.00111785
0.00119234
0.0012799
0.00138216
0.00150264
0.00164323
0.00180968
0.00200381
0.00223459
0.00250347
0.00282374
0.00319695
0.00364019
0.00415884
0.00476735
0.00548685
0.00631503
0.00733278
0.00847778
0.0102403
0.0126309
0.0194966
0.000648406
0.000650974
0.000653722
0.00065658
0.000659641
0.000662889
0.000666381
0.000670078
0.000674033
0.000678189
0.000682596
0.000687179
0.000691998
0.000696979
0.000702192
0.000707569
0.000713194
0.000719006
0.000725109
0.000731443
0.000738133
0.000745133
0.000752584
0.000760447
0.00076887
0.000777825
0.000787454
0.000797758
0.00080887
0.000820853
0.000833848
0.00084799
0.000863466
0.000880492
0.000899303
0.000920179
0.000943482
0.000969629
0.000999137
0.00103258
0.00107058
0.00111391
0.00116351
0.0012204
0.00128587
0.00136119
0.00144793
0.00154782
0.0016629
0.00179565
0.0019487
0.00212569
0.00232988
0.00256672
0.00284004
0.00315817
0.00352519
0.00395348
0.00444697
0.00502235
0.00568519
0.0064533
0.00735058
0.00838642
0.00971894
0.0112638
0.0147281
0.0200599
0.0362907
0.000787374
0.000791339
0.000795496
0.00079978
0.000804278
0.000809011
0.000814016
0.000819301
0.000824896
0.000830795
0.000837024
0.000843571
0.00085046
0.000857681
0.000865266
0.000873215
0.000881571
0.000890351
0.000899615
0.0009094
0.000919783
0.000930823
0.000942612
0.000955225
0.000968778
0.000983376
0.000999154
0.00101625
0.00103483
0.00105509
0.00107724
0.00110155
0.00112833
0.00115794
0.00119076
0.00122724
0.00126792
0.00131339
0.00136437
0.0014216
0.00148601
0.00155837
0.0016398
0.00173151
0.00183497
0.00195172
0.00208368
0.00223293
0.00240206
0.0025939
0.00281194
0.00306015
0.00334308
0.00366629
0.00403557
0.0044585
0.00494195
0.00549593
0.00612796
0.00685222
0.0076795
0.00863387
0.00977239
0.0111056
0.0131698
0.0157735
0.0247326
0.0388494
0.0833469
0.000999404
0.00100599
0.00101288
0.00101997
0.00102736
0.00103511
0.00104324
0.00105181
0.00106085
0.0010704
0.00108051
0.00109121
0.00110254
0.00111456
0.00112731
0.00114085
0.00115524
0.00117056
0.00118689
0.00120431
0.00122293
0.00124287
0.00126427
0.00128729
0.00131211
0.0013389
0.00136789
0.0013993
0.00143337
0.0014704
0.00151067
0.00155456
0.00160248
0.00165483
0.00171208
0.00177479
0.00184355
0.00191906
0.00200209
0.00209355
0.0021944
0.00230605
0.00242928
0.00256562
0.00271676
0.00288466
0.00307169
0.0032805
0.00351434
0.00377671
0.00407197
0.00440474
0.00478071
0.0052056
0.00568677
0.00623042
0.0068463
0.00754074
0.00832847
0.00922433
0.0102552
0.0114813
0.0130557
0.0150309
0.0194053
0.0257845
0.0487909
0.0912771
0.191799
0.00133817
0.0013511
0.00136478
0.00137908
0.00139413
0.00140995
0.0014266
0.00144413
0.00146261
0.0014821
0.00150266
0.00152436
0.00154727
0.00157148
0.00159705
0.0016241
0.0016527
0.00168299
0.00171506
0.00174903
0.00178523
0.0018238
0.00186489
0.00190868
0.00195534
0.00200507
0.00205807
0.00211457
0.00217482
0.00223909
0.00230767
0.00238094
0.00245929
0.00254313
0.00263296
0.00272936
0.002833
0.00294467
0.00306528
0.00319593
0.00333785
0.00349266
0.00366189
0.00384814
0.00405243
0.00427752
0.00452648
0.00480274
0.00511035
0.00545361
0.00583768
0.00626783
0.00675034
0.00729085
0.0078975
0.00857525
0.00933804
0.0101927
0.0111699
0.0123116
0.0136707
0.0154885
0.0181275
0.022226
0.0332572
0.0524606
0.108971
0.21746
0.266457
0.00200052
0.00202791
0.00205666
0.00208662
0.00211795
0.00215072
0.00218498
0.00222081
0.00225825
0.00229739
0.00233829
0.00238101
0.00242573
0.00247279
0.00252224
0.0025741
0.00262844
0.00268529
0.00274473
0.00280685
0.00287155
0.00293897
0.00300922
0.00308245
0.0031588
0.00323842
0.0033215
0.00340824
0.00349885
0.00359359
0.0036928
0.0037969
0.00390628
0.00402147
0.00414308
0.00427185
0.00440866
0.00455455
0.00471077
0.00487878
0.00506032
0.00525744
0.00547255
0.00570837
0.00596851
0.00625542
0.00657227
0.00692346
0.00731362
0.00774788
0.00823184
0.00877102
0.00937156
0.0100392
0.0107839
0.0116155
0.0125568
0.0136433
0.0149269
0.0165969
0.0187047
0.0222967
0.0281867
0.0400336
0.0694173
0.127162
0.251084
0.295899
0.266086
0.00333748
0.00339105
0.00344704
0.00350514
0.00356544
0.00362792
0.00369256
0.00375934
0.00382825
0.00389926
0.00397237
0.0040476
0.00412482
0.00420381
0.00428462
0.0043673
0.0044519
0.00453847
0.00462704
0.00471767
0.0048104
0.0049053
0.00500246
0.00510198
0.005204
0.00530867
0.00541621
0.00552684
0.00564087
0.00575863
0.00588061
0.00600734
0.0061394
0.00627752
0.0064226
0.00657568
0.00673799
0.00691101
0.00709645
0.00729635
0.00751309
0.00774946
0.00800869
0.00829455
0.00861094
0.00896352
0.00935417
0.00978777
0.0102688
0.0108033
0.0113969
0.0120551
0.0127861
0.0136007
0.0145211
0.015588
0.0168333
0.0184383
0.0204371
0.0236725
0.0280607
0.0377537
0.0547085
0.0912499
0.171074
0.29479
0.326218
0.287204
0.192823
0.00592203
0.00600986
0.00609904
0.0061893
0.00628086
0.00637373
0.00646791
0.00656338
0.0066601
0.00675801
0.00685706
0.00695722
0.00705843
0.00716061
0.00726368
0.00736762
0.00747241
0.00757805
0.0076845
0.00779192
0.00790029
0.00800973
0.00812041
0.0082324
0.00834596
0.00846132
0.00857883
0.00869885
0.00882185
0.00894839
0.00907921
0.00921504
0.00935671
0.00950521
0.00966175
0.00982778
0.010005
0.0101955
0.0104017
0.0106263
0.0108728
0.0111449
0.011447
0.0117837
0.0121601
0.0125816
0.0130528
0.0135764
0.0141565
0.0148011
0.0155186
0.0163208
0.0172366
0.0182957
0.019578
0.0212035
0.0232207
0.0264052
0.0306685
0.0393545
0.0517496
0.0822672
0.129408
0.23464
0.329314
0.343413
0.290624
0.190024
0.119656
0.0103824
0.0104896
0.010597
0.010704
0.010811
0.0109178
0.0110243
0.0111306
0.0112365
0.0113419
0.0114468
0.0115512
0.0116549
0.0117581
0.0118606
0.0119626
0.0120638
0.0121644
0.0122644
0.0123646
0.0124644
0.0125644
0.0126648
0.0127655
0.0128672
0.0129701
0.0130753
0.0131827
0.0132936
0.0134083
0.0135278
0.0136532
0.0137858
0.0139271
0.0140789
0.0142434
0.0144231
0.0146209
0.0148403
0.0150852
0.0153603
0.0156701
0.0160199
0.0164147
0.0168604
0.0173623
0.0179265
0.0185555
0.0192603
0.0200607
0.0209919
0.0220943
0.0234798
0.0252001
0.0275915
0.0308876
0.0356214
0.0443679
0.0574283
0.0846632
0.123358
0.209334
0.312381
0.359563
0.340708
0.273348
0.175873
0.111889
0.0787157
0.0171288
0.0172309
0.0173308
0.0174275
0.0175215
0.0176128
0.0177017
0.0177882
0.0178724
0.0179544
0.0180344
0.0181124
0.0181889
0.0182643
0.0183394
0.0184125
0.0184822
0.0185507
0.0186201
0.0186871
0.0187552
0.0188235
0.0188894
0.0189589
0.0190286
0.0190988
0.0191774
0.0192548
0.0193425
0.0194329
0.0195304
0.0196371
0.0197544
0.0198841
0.0200282
0.0201896
0.020372
0.0205797
0.0208179
0.0210919
0.0214079
0.0217711
0.0221887
0.0226655
0.0232134
0.0238397
0.0245604
0.0253894
0.0263895
0.0276359
0.0292585
0.0313668
0.0343525
0.0383477
0.0447749
0.0539967
0.0703122
0.0974626
0.144958
0.219045
0.311105
0.356916
0.355961
0.309977
0.222277
0.14718
0.0970108
0.068849
0.0550513
0.0269788
0.0270314
0.02708
0.0271257
0.0271688
0.0272099
0.027249
0.0272833
0.0273174
0.0273496
0.0273784
0.0274048
0.0274336
0.0274728
0.0275338
0.027557
0.0275478
0.0275653
0.027612
0.0275972
0.0276521
0.0276706
0.0276428
0.0276992
0.0276898
0.0276861
0.0277655
0.0277512
0.027855
0.0278591
0.0278931
0.0279468
0.0280196
0.028114
0.0282347
0.0283888
0.0285839
0.0288277
0.0291282
0.0294924
0.0299292
0.0304446
0.0310551
0.0317688
0.0326252
0.0336483
0.0348595
0.0364165
0.0386623
0.0417709
0.046168
0.052214
0.0612906
0.0744057
0.0946433
0.128361
0.185013
0.256958
0.330124
0.3671
0.357449
0.311141
0.226221
0.157458
0.109651
0.076198
0.055325
0.0444144
0.0397154
0.0401998
0.0402448
0.0402777
0.040302
0.0403277
0.0403568
0.0403645
0.0403536
0.040364
0.0403625
0.0403482
0.0403375
0.0403363
0.0403341
0.0403281
0.0403057
0.0402996
0.0402941
0.0402741
0.0402713
0.0402489
0.0402594
0.0402327
0.0402614
0.0402377
0.040292
0.040279
0.0403483
0.0404051
0.0404849
0.0406076
0.0407814
0.0410098
0.0412959
0.0416442
0.0420605
0.0425519
0.0431263
0.0437953
0.0445684
0.0454715
0.0465191
0.0477734
0.0492874
0.051145
0.0536872
0.0562706
0.0622104
0.0715033
0.0830485
0.098332
0.118498
0.147492
0.187695
0.241935
0.307636
0.353325
0.373537
0.353617
0.278831
0.192482
0.136383
0.0997084
0.0731701
0.0542491
0.0409648
0.0331531
0.0296327
0.0287709
0.0707429
0.0707997
0.0708549
0.0708991
0.0709501
0.0709902
0.0710164
0.0710418
0.0710699
0.0710597
0.0710488
0.0710328
0.0710085
0.0709781
0.0709378
0.0708892
0.0708308
0.0707621
0.0706796
0.0705889
0.0704821
0.0703623
0.0702312
0.0700931
0.0699473
0.0697938
0.0696411
0.0696291
0.0696533
0.0699084
0.070317
0.0708583
0.0715408
0.0723801
0.0733951
0.0746054
0.0760438
0.0777504
0.079789
0.0822184
0.0851621
0.0886908
0.092995
0.098361
0.104895
0.113168
0.123533
0.135738
0.147832
0.164252
0.186879
0.217428
0.257736
0.30227
0.341921
0.333316
0.277297
0.19028
0.13642
0.102145
0.0763863
0.0585644
0.0467401
0.0376641
0.03052
0.0251238
0.0221893
0.021218
0.0219533
0.226074
0.227281
0.228405
0.229462
0.230534
0.231444
0.232418
0.233391
0.234378
0.235206
0.235972
0.236829
0.237424
0.238241
0.238754
0.239374
0.239695
0.240018
0.240073
0.240329
0.240151
0.239819
0.239657
0.239489
0.239421
0.238872
0.238263
0.23789
0.237399
0.23669
0.23576
0.234578
0.233123
0.231368
0.229301
0.226893
0.22412
0.220939
0.21731
0.213145
0.208398
0.202922
0.196618
0.189343
0.180857
0.17091
0.159134
0.145113
0.128251
0.108277
0.0838876
0.0606295
0.0541545
0.0673256
0.0816038
0.0864058
0.0822673
0.0743048
0.0655039
0.0601797
0.0575557
0.0547109
0.0499008
0.044399
0.0384365
0.0322847
0.0272562
0.0246925
0.024707
0.000249797
0.000250213
0.000250614
0.000251015
0.000251551
0.000252097
0.000252877
0.000253807
0.000254494
0.000255009
0.00025556
0.000256133
0.000257504
0.000259269
0.000260431
0.000260907
0.000261871
0.000262684
0.000263012
0.000263627
0.000263677
0.000263755
0.00026399
0.000264607
0.000265538
0.000266482
0.000267412
0.000267715
0.000267383
0.000267642
0.000268283
0.000269394
0.000270561
0.000270369
0.000270223
0.000269851
0.000269695
0.000269374
0.000268835
0.000268766
0.000268386
0.000268064
0.000267781
0.000266838
0.000266136
0.000265331
0.000264225
0.000263142
0.000261973
0.000261602
0.000261413
0.000261349
0.00026117
0.000260849
0.000260209
0.000259587
0.000259125
0.000258715
0.000258152
0.000251436
0.000251805
0.000252185
0.000252659
0.000253282
0.000253766
0.000254347
0.000254822
0.000255239
0.00025578
0.000256418
0.000257456
0.000259343
0.000260342
0.000260927
0.00026139
0.000262449
0.000263043
0.000263375
0.00026392
0.000263918
0.000264043
0.000264358
0.000265054
0.000265939
0.000266869
0.000267778
0.000268099
0.000267786
0.000268024
0.000268727
0.000269783
0.000270992
0.000270949
0.000270896
0.000270629
0.000270422
0.000270209
0.000269694
0.00026952
0.000269385
0.000269007
0.000268776
0.000268224
0.000267543
0.000266861
0.000265918
0.000264911
0.000263986
0.000263011
0.000262512
0.000262305
0.00026212
0.000261927
0.000261613
0.000261192
0.000260675
0.000260266
0.000259818
0.00025354
0.000253912
0.000254313
0.000254699
0.000255068
0.000255371
0.00025573
0.00025608
0.000256626
0.000257376
0.000258431
0.0002599
0.00026094
0.000261475
0.000261823
0.000262494
0.000263498
0.000263909
0.000264242
0.000264521
0.000264685
0.000264819
0.000265308
0.000266085
0.000266916
0.000267883
0.000268784
0.000269135
0.000268815
0.000269058
0.00026982
0.000270712
0.000271931
0.000272067
0.000272127
0.000272005
0.000271828
0.000271633
0.000271319
0.000271091
0.000270952
0.00027068
0.000270471
0.000270164
0.000269668
0.000269056
0.000268354
0.000267493
0.00026657
0.000265776
0.000264881
0.000264371
0.000263992
0.000263738
0.000263449
0.000263147
0.000262726
0.000262338
0.000261944
0.000256327
0.000256554
0.000256785
0.000257002
0.000257268
0.000257566
0.000257968
0.000258551
0.000259339
0.000260293
0.000261338
0.000262247
0.000262747
0.00026306
0.000263571
0.000264538
0.00026512
0.000265401
0.000265658
0.000265921
0.000266106
0.000266435
0.000267034
0.000267848
0.000268625
0.000269604
0.000270444
0.000270852
0.00027062
0.000270854
0.000271682
0.000272509
0.000273771
0.000274046
0.000274136
0.000274092
0.000273973
0.000273829
0.000273649
0.000273476
0.000273325
0.000273155
0.000272891
0.000272688
0.000272421
0.000272061
0.000271508
0.000270882
0.000270097
0.00026941
0.000268612
0.000267919
0.000267348
0.000266928
0.000266542
0.000266202
0.000265833
0.000265461
0.000265109
0.000259617
0.000259842
0.0002601
0.000260342
0.000260653
0.000261039
0.000261587
0.000262242
0.000263008
0.000263758
0.000264416
0.000264863
0.000265162
0.000265612
0.000266381
0.000267068
0.000267406
0.000267608
0.000267862
0.000268174
0.00026847
0.000268884
0.000269565
0.000270357
0.000271092
0.000272106
0.000272928
0.000273368
0.000273193
0.000273445
0.000274311
0.000275078
0.000276393
0.000276834
0.00027696
0.000276966
0.00027692
0.000276835
0.000276735
0.000276643
0.000276549
0.000276429
0.000276288
0.000276108
0.000275905
0.000275663
0.000275401
0.000275004
0.000274372
0.000273758
0.00027317
0.000272568
0.000271972
0.000271428
0.000270968
0.000270561
0.000270177
0.000269832
0.000269489
0.000264096
0.000264305
0.000264562
0.000264823
0.000265172
0.000265588
0.000266104
0.000266629
0.00026717
0.000267621
0.000267989
0.000268296
0.000268698
0.000269343
0.000269987
0.00027037
0.000270584
0.000270768
0.000271064
0.000271472
0.000271845
0.000272355
0.000273081
0.000273828
0.000274544
0.000275601
0.000276408
0.000276881
0.000276775
0.000277057
0.000277962
0.000278681
0.000280041
0.000280624
0.000280868
0.000280922
0.000280944
0.000280924
0.00028084
0.000280796
0.000280805
0.000280789
0.000280721
0.000280625
0.000280513
0.000280407
0.000280204
0.000280046
0.000279806
0.000279436
0.000278873
0.00027837
0.000277941
0.000277538
0.000277092
0.000276698
0.00027628
0.000275951
0.000275646
0.000269855
0.000270096
0.000270388
0.000270628
0.000270949
0.000271234
0.000271573
0.000271869
0.000272183
0.000272445
0.000272735
0.000273097
0.000273623
0.000274158
0.000274519
0.000274728
0.000274877
0.000275079
0.000275486
0.000275964
0.000276398
0.000276962
0.000277687
0.000278393
0.000279107
0.000280196
0.00028099
0.000281497
0.000281463
0.000281784
0.000282731
0.00028342
0.00028481
0.000285562
0.000285892
0.000286103
0.000286208
0.000286279
0.00028638
0.000286405
0.000286357
0.000286368
0.000286367
0.000286352
0.000286309
0.000286265
0.000286213
0.000286165
0.00028609
0.000285975
0.000285804
0.00028554
0.000285084
0.000284697
0.000284389
0.000284132
0.000283839
0.000283568
0.000283313
0.00027687
0.000277009
0.000277248
0.000277444
0.000277666
0.000277855
0.000278073
0.000278284
0.000278498
0.000278721
0.000279023
0.000279433
0.000279851
0.000280156
0.000280334
0.000280445
0.000280587
0.000280925
0.000281447
0.000281928
0.000282406
0.000283027
0.000283752
0.000284406
0.000285141
0.000286269
0.000287059
0.000287605
0.00028766
0.000288029
0.000289025
0.000289704
0.000291103
0.000292021
0.000292495
0.00029277
0.000293027
0.000293257
0.00029342
0.00029361
0.000293755
0.00029383
0.000293926
0.000293972
0.000294066
0.000294139
0.000294121
0.000294114
0.000294083
0.000294025
0.000293986
0.000293913
0.000293799
0.000293741
0.000293503
0.000293289
0.000293045
0.000292858
0.000292663
0.000285356
0.000285493
0.000285681
0.000285773
0.000285944
0.000286044
0.000286201
0.000286262
0.00028645
0.000286721
0.000287086
0.000287413
0.000287628
0.000287758
0.000287821
0.000287886
0.000288184
0.000288645
0.000289138
0.000289641
0.000290192
0.000290814
0.00029145
0.000292085
0.000292879
0.000294009
0.000294805
0.000295393
0.000295539
0.000295966
0.000297017
0.000297717
0.000299125
0.000300217
0.000300879
0.000301308
0.000301618
0.000301993
0.000302377
0.000302686
0.00030304
0.000303306
0.000303543
0.000303656
0.000303791
0.00030401
0.000304139
0.000304382
0.00030463
0.000304913
0.000304783
0.000304738
0.000304688
0.00030463
0.000304546
0.000304456
0.000304442
0.000304325
0.000304239
0.000296283
0.000296267
0.000296297
0.000296316
0.000296344
0.000296474
0.00029652
0.000296824
0.000296989
0.000297142
0.000297301
0.000297425
0.000297486
0.000297515
0.000297564
0.000297757
0.000298157
0.000298631
0.000299139
0.000299669
0.00030022
0.000300788
0.000301368
0.000302029
0.000302894
0.000304032
0.000304852
0.000305495
0.000305749
0.000306254
0.000307372
0.000308118
0.000309522
0.000310766
0.00031163
0.000312244
0.000312708
0.000313166
0.000313688
0.000314204
0.000314747
0.000315284
0.000315778
0.000316228
0.000316428
0.000316706
0.000316928