/*--------------------------------*- C++ -*----------------------------------*\
| =========                 |                                                 |
| \\      /  F ield         | OpenFOAM: The Open Source CFD Toolbox           |
|  \\    /   O peration     | Version:  2312                                  |
|   \\  /    A nd           | Website:  www.openfoam.com                      |
|    \\/     M anipulation  |                                                 |
\*---------------------------------------------------------------------------*/
FoamFile
{
    version     2.0;
    format      ascii;
    arch        "LSB;label=32;scalar=64";
    class       volScalarField;
    location    "400";
    object      k;
}
// * * * * * * * * * * * * * * * * * * * * * * * * * * * * * * * * * * * * * //

dimensions      [0 2 -2 0 0 0 0];

internalField   nonuniform List<scalar> 
76025
(
0.00195582
0.00195396
0.00195201
0.00194973
0.00194687
0.00194475
0.00194216
0.00194054
0.00193834
0.00193693
0.00193505
0.00193361
0.00193166
0.00193055
0.00192894
0.00192775
0.00192542
0.00192398
0.00192127
0.00191935
0.00191693
0.00191498
0.00191259
0.00191152
0.00190954
0.00190829
0.00190672
0.00190467
0.00190361
0.00190224
0.00190027
0.00189942
0.0018987
0.00189786
0.00189779
0.00189774
0.00189863
0.00189929
0.00190079
0.00190293
0.00190571
0.00190996
0.00191589
0.00192238
0.00193137
0.00194134
0.00195384
0.00196591
0.00198285
0.00199747
0.00201868
0.0020364
0.00206165
0.00208068
0.00211454
0.0021419
0.00218067
0.00222051
0.00226118
0.00232232
0.0023807
0.00245473
0.00252675
0.00259479
0.00266652
0.00275068
0.00285369
0.00301517
0.00323799
0.00196724
0.00196567
0.0019639
0.00196209
0.00195964
0.00195749
0.00195522
0.00195359
0.00195204
0.0019508
0.0019493
0.00194803
0.00194629
0.0019449
0.00194321
0.00194185
0.00193998
0.00193826
0.00193633
0.00193465
0.00193282
0.00193146
0.00192987
0.00192855
0.00192753
0.00192642
0.00192577
0.00192435
0.00192443
0.00192473
0.00192537
0.00192609
0.00192726
0.00192834
0.00192961
0.0019315
0.00193347
0.00193652
0.00194007
0.001945
0.00195071
0.00195749
0.00196516
0.00197352
0.00198332
0.00199422
0.00200666
0.00202094
0.00203563
0.00205355
0.00207109
0.00209372
0.0021163
0.00214572
0.00217819
0.00221446
0.00225935
0.00230422
0.00235872
0.00242078
0.00249428
0.00257802
0.00266288
0.00273621
0.00282827
0.00292455
0.00309771
0.00328125
0.00357867
0.00198413
0.00198268
0.00198103
0.00197957
0.00197755
0.00197556
0.00197322
0.00197135
0.0019696
0.00196824
0.00196691
0.00196579
0.00196488
0.00196421
0.00196371
0.00196293
0.0019624
0.00196114
0.00195998
0.00195898
0.00195804
0.00195755
0.00195655
0.00195631
0.00195622
0.00195632
0.00195661
0.00195696
0.00195766
0.00195821
0.00195938
0.00196072
0.00196235
0.00196461
0.0019676
0.00197138
0.00197551
0.00197999
0.00198483
0.00199038
0.00199657
0.00200393
0.0020123
0.00202227
0.00203386
0.00204687
0.00206175
0.00207747
0.0020951
0.00211443
0.00213592
0.00216126
0.00218843
0.00222198
0.0022575
0.00229958
0.00234636
0.00239803
0.00245441
0.00253231
0.00260814
0.00270286
0.00277492
0.00285755
0.0029549
0.00309216
0.00329221
0.00352751
0.00386882
0.00200559
0.00200468
0.00200359
0.00200243
0.00200125
0.00199973
0.00199818
0.00199621
0.0019944
0.00199242
0.00199047
0.00198848
0.00198668
0.00198537
0.00198449
0.00198438
0.00198437
0.0019844
0.00198429
0.00198468
0.00198482
0.00198553
0.00198621
0.00198699
0.00198762
0.00198836
0.001989
0.00199012
0.00199147
0.00199322
0.00199531
0.00199828
0.00200141
0.00200512
0.00201012
0.00201612
0.00202262
0.00202852
0.0020349
0.00204098
0.00204837
0.00205631
0.00206609
0.00207756
0.00209062
0.00210543
0.0021216
0.00213923
0.00215936
0.00218156
0.00220698
0.00223614
0.00226733
0.00230593
0.00234581
0.00239496
0.00244846
0.00250573
0.00257675
0.0026601
0.00274144
0.00283353
0.00290872
0.00301369
0.00315147
0.00333212
0.00359978
0.00387978
0.00434829
0.00203169
0.00203143
0.0020304
0.00203012
0.00202946
0.00202877
0.00202754
0.00202723
0.00202608
0.00202546
0.00202435
0.00202318
0.0020218
0.00202036
0.00201941
0.00201784
0.00201777
0.00201797
0.00201814
0.00201887
0.0020198
0.0020207
0.00202192
0.0020229
0.0020243
0.00202581
0.00202757
0.00202987
0.00203227
0.00203548
0.0020386
0.00204311
0.00204735
0.00205281
0.00205951
0.00206729
0.00207533
0.00208304
0.00209102
0.00209866
0.00210758
0.00211676
0.00212799
0.00214032
0.00215451
0.00217069
0.00218915
0.00221018
0.00223516
0.00226177
0.00229361
0.00232675
0.00236559
0.0024098
0.00245802
0.00251624
0.00257343
0.00264201
0.00271717
0.00280316
0.0028819
0.00297813
0.00306502
0.00321728
0.00338915
0.0036412
0.00395803
0.00433233
0.0049037
0.00206526
0.00206546
0.00206569
0.00206581
0.00206588
0.00206652
0.00206608
0.0020659
0.00206559
0.00206522
0.00206475
0.00206428
0.0020641
0.00206401
0.00206254
0.00206259
0.00206267
0.00206325
0.00206394
0.0020649
0.0020665
0.00206825
0.00207024
0.00207208
0.00207409
0.00207617
0.00207862
0.00208144
0.00208472
0.00208833
0.00209284
0.00209777
0.00210377
0.00211037
0.00211757
0.00212658
0.00213675
0.00214751
0.00215843
0.00216904
0.00218026
0.00219179
0.00220507
0.00221989
0.00223683
0.00225653
0.00227872
0.00230354
0.00233223
0.00236175
0.00239777
0.00243406
0.00248031
0.00252749
0.00258533
0.00264384
0.00270819
0.00278082
0.00285783
0.00294287
0.00302946
0.00314202
0.00327655
0.00348336
0.00371471
0.00404696
0.00444077
0.00493189
0.00563859
0.00210514
0.0021054
0.00210577
0.00210614
0.00210638
0.00210676
0.00210725
0.00210807
0.00210917
0.00211037
0.00211163
0.00211298
0.00211401
0.00211486
0.00211535
0.002116
0.00211683
0.00211791
0.00211936
0.00212082
0.00212286
0.00212497
0.00212751
0.00212996
0.00213281
0.00213609
0.00213964
0.00214393
0.00214887
0.00215472
0.00216097
0.00216789
0.00217483
0.00218268
0.0021907
0.00220029
0.0022105
0.00222206
0.00223415
0.00224696
0.00226095
0.00227599
0.00229339
0.00231246
0.00233368
0.00235757
0.00238263
0.00241098
0.00244209
0.00247588
0.00251586
0.00255883
0.00260914
0.0026631
0.00272298
0.00278423
0.00285342
0.00292696
0.00300941
0.00310288
0.00321807
0.00337576
0.00357466
0.00384494
0.00415083
0.00458313
0.00506605
0.00571476
0.00654353
0.00215825
0.00215894
0.00216006
0.00216104
0.00216197
0.00216262
0.00216321
0.00216401
0.00216525
0.00216639
0.00216767
0.0021692
0.00217128
0.00217323
0.00217501
0.00217661
0.00217849
0.00218065
0.00218332
0.00218621
0.00218945
0.00219302
0.00219645
0.0022001
0.00220351
0.00220751
0.00221168
0.00221677
0.00222242
0.00222953
0.00223705
0.00224586
0.00225497
0.00226531
0.00227613
0.00228825
0.00230068
0.00231472
0.0023285
0.00234418
0.00236109
0.00238127
0.00240359
0.002428
0.00245391
0.00248162
0.0025104
0.00254264
0.00257737
0.00261595
0.00265907
0.00270552
0.00275727
0.00281259
0.00287164
0.00293708
0.00301198
0.00309581
0.00320102
0.00333113
0.003507
0.00372803
0.00400177
0.00434013
0.00474776
0.0052843
0.00588953
0.00671411
0.00761852
0.00222351
0.00222403
0.00222466
0.00222561
0.00222694
0.0022285
0.00223026
0.00223202
0.00223412
0.00223619
0.00223805
0.00223983
0.0022417
0.00224418
0.00224694
0.0022497
0.00225182
0.00225374
0.00225612
0.00225927
0.0022634
0.00226851
0.00227438
0.00228068
0.00228726
0.0022939
0.00230049
0.00230736
0.00231434
0.00232217
0.00233063
0.00233998
0.00235076
0.00236211
0.00237574
0.00238965
0.00240605
0.00242357
0.00244166
0.00246265
0.00248679
0.00251493
0.00254393
0.00257392
0.00260402
0.00263479
0.00266696
0.0027012
0.00273821
0.00277841
0.00282259
0.00287047
0.00292532
0.00298294
0.00305284
0.00313041
0.00322753
0.00334496
0.00349817
0.00369015
0.00392931
0.00421449
0.00456632
0.00499561
0.00552979
0.00618348
0.00695106
0.00792051
0.00890591
0.00230501
0.0023062
0.00230752
0.00230879
0.00231052
0.00231227
0.00231451
0.00231699
0.00231955
0.00232262
0.00232589
0.00232953
0.00233328
0.00233737
0.00234171
0.00234599
0.00235017
0.0023539
0.00235763
0.00236124
0.00236512
0.00236938
0.00237459
0.00238044
0.00238749
0.00239534
0.0024042
0.00241388
0.00242392
0.00243499
0.00244607
0.00245822
0.00247094
0.00248535
0.00250061
0.00251789
0.00253661
0.00255742
0.00257926
0.00260422
0.00263202
0.00266203
0.00269317
0.00272594
0.00276134
0.00279782
0.00283616
0.00287495
0.00291704
0.00296157
0.00301249
0.00306832
0.00313419
0.00320928
0.00330148
0.0034105
0.00355036
0.00372027
0.00393346
0.00418479
0.00449145
0.00486119
0.00531881
0.00587134
0.00654706
0.00733359
0.0082718
0.00933999
0.0104559
0.00240217
0.00240394
0.00240601
0.002408
0.00241025
0.00241256
0.00241516
0.0024184
0.00242172
0.00242543
0.00242929
0.0024336
0.00243801
0.00244269
0.00244759
0.00245291
0.00245878
0.00246485
0.00247113
0.00247716
0.00248351
0.00249008
0.00249719
0.00250498
0.00251324
0.00252251
0.00253247
0.0025437
0.00255607
0.00256938
0.00258363
0.00259949
0.00261718
0.00263664
0.00265684
0.00267807
0.00269944
0.00272303
0.00274698
0.00277382
0.00280207
0.00283191
0.0028642
0.00290058
0.00294032
0.00298146
0.00302363
0.00306844
0.00311848
0.0031751
0.00324099
0.00331631
0.00340689
0.00351298
0.00364439
0.00380181
0.0039962
0.00422545
0.0045033
0.004834
0.00523908
0.00572696
0.00631551
0.0070114
0.00783019
0.00875952
0.0098428
0.0109802
0.0122773
0.00252014
0.00252295
0.00252595
0.00252912
0.00253255
0.00253634
0.00254048
0.00254532
0.00255064
0.00255671
0.00256269
0.00256898
0.00257555
0.00258243
0.00258922
0.00259563
0.00260198
0.00260798
0.00261432
0.00262161
0.00262989
0.00263928
0.00264901
0.00265962
0.00267018
0.00268153
0.0026933
0.00270635
0.00272064
0.00273653
0.00275381
0.00277254
0.00279332
0.00281533
0.00283876
0.00286314
0.00288961
0.0029178
0.0029477
0.0029792
0.00301193
0.00304567
0.00308049
0.00311599
0.00315348
0.00319457
0.00324283
0.00330055
0.0033697
0.00345032
0.00354478
0.00365442
0.00378524
0.00393903
0.0041242
0.00434165
0.00460267
0.00491089
0.00528385
0.00572816
0.00626055
0.00688648
0.00761643
0.00845659
0.00940741
0.0104688
0.0116428
0.0128506
0.0142582
0.00266707
0.00267088
0.00267508
0.00267946
0.00268435
0.00268974
0.0026954
0.00270207
0.00270874
0.00271639
0.00272452
0.00273244
0.00274098
0.0027505
0.00276014
0.00277036
0.0027799
0.00279161
0.00280268
0.00281151
0.00281954
0.0028281
0.0028374
0.00284833
0.00286095
0.00287538
0.00289149
0.00290892
0.00292714
0.00294612
0.00296554
0.00298579
0.00300726
0.0030299
0.00305467
0.00308107
0.00311053
0.00314144
0.00317553
0.00321377
0.00325615
0.00330016
0.0033442
0.00338886
0.00343738
0.00349335
0.00356037
0.00364059
0.00373609
0.00384805
0.00398045
0.00413575
0.00431994
0.00453576
0.00479187
0.00509227
0.00545011
0.00587059
0.00636842
0.00694619
0.00761671
0.00838037
0.00924548
0.0102106
0.0112723
0.012423
0.0136408
0.0148951
0.0161587
0.00285391
0.00285889
0.00286426
0.00286997
0.00287614
0.00288304
0.00289032
0.00289855
0.00290712
0.00291655
0.00292668
0.00293702
0.00294827
0.0029603
0.00297358
0.00298729
0.00300122
0.00301698
0.00303346
0.00304934
0.00306297
0.0030758
0.00308768
0.00310023
0.00311407
0.0031298
0.00314841
0.00316906
0.00319179
0.00321638
0.00324135
0.00326808
0.00329583
0.00332454
0.00335645
0.00338885
0.00342649
0.00346207
0.0035061
0.00355743
0.00361534
0.00367122
0.00372439
0.00378013
0.00384494
0.00392468
0.00402227
0.00413958
0.00427815
0.00444031
0.00462972
0.00485001
0.00510747
0.00540738
0.0057589
0.00616794
0.00664479
0.00719304
0.00782235
0.00853299
0.00933361
0.0102205
0.0111978
0.0122555
0.0133855
0.014565
0.0157815
0.0169595
0.0182795
0.00309429
0.00310093
0.00310791
0.00311531
0.00312313
0.00313177
0.003141
0.0031512
0.00316206
0.00317398
0.00318669
0.00320023
0.00321454
0.00322989
0.00324613
0.00326336
0.0032807
0.0032992
0.00331788
0.00333707
0.00335499
0.00337271
0.00338945
0.00340678
0.00342449
0.00344382
0.00346468
0.00348768
0.00351217
0.00353876
0.00356653
0.00359605
0.00362746
0.00366078
0.00369704
0.0037362
0.00377946
0.00382659
0.00387988
0.00393951
0.00400618
0.00408213
0.00416787
0.00426752
0.00438302
0.00451731
0.00467151
0.00484807
0.00505061
0.00528365
0.00555258
0.00586308
0.00622152
0.00663354
0.00710544
0.0076414
0.00824695
0.00892405
0.00967765
0.0105064
0.0114135
0.0123918
0.013438
0.0145359
0.0156669
0.0168134
0.0179479
0.0190999
0.0206638
0.00340949
0.00341835
0.0034276
0.00343724
0.00344738
0.00345832
0.00346999
0.00348269
0.0034963
0.00351109
0.00352689
0.00354382
0.00356165
0.00358057
0.00360027
0.00362093
0.00364196
0.0036637
0.00368563
0.00370804
0.00373028
0.00375279
0.00377536
0.00379863
0.00382274
0.00384829
0.00387553
0.00390488
0.00393648
0.00397065
0.00400759
0.00404766
0.00409137
0.00413933
0.00419216
0.00425071
0.0043158
0.00438872
0.00447041
0.00456251
0.00466671
0.00478436
0.00491805
0.00506975
0.0052421
0.00543773
0.00566038
0.00591433
0.00620385
0.00653351
0.00690759
0.00733046
0.00780601
0.00833793
0.00892933
0.00958281
0.0103006
0.0110833
0.0119316
0.0128421
0.0138118
0.0148287
0.0158814
0.0169481
0.0180085
0.0190614
0.0201299
0.0215014
0.0241529
0.00383308
0.00384531
0.00385802
0.0038711
0.00388472
0.0038991
0.00391429
0.0039305
0.00394776
0.00396624
0.00398593
0.00400692
0.00402909
0.00405249
0.00407694
0.00410248
0.00412887
0.00415615
0.00418417
0.00421304
0.0042427
0.00427337
0.00430518
0.00433848
0.00437363
0.00441107
0.00445122
0.00449456
0.00454154
0.00459267
0.0046485
0.00470966
0.00477694
0.00485125
0.0049335
0.00502482
0.00512648
0.00523998
0.00536692
0.00550926
0.00566896
0.00584864
0.00605017
0.0062764
0.00653015
0.00681455
0.00713263
0.00748757
0.00788233
0.00831996
0.00880308
0.00933442
0.009916
0.01055
0.0112375
0.0119796
0.0127759
0.013625
0.014523
0.0154628
0.0164339
0.0174196
0.0184026
0.0193628
0.0203037
0.0212835
0.0225638
0.0250778
0.0305416
0.00441392
0.00443215
0.00445105
0.0044704
0.00449042
0.00451126
0.00453301
0.00455583
0.00457982
0.00460512
0.00463183
0.00466007
0.00468988
0.00472133
0.00475442
0.00478921
0.00482569
0.00486396
0.00490406
0.00494613
0.00499035
0.00503697
0.00508634
0.0051389
0.00519513
0.00525559
0.00532089
0.00539167
0.00546864
0.00555256
0.00564424
0.00574463
0.00585483
0.0059759
0.00610906
0.00625565
0.00641711
0.00659507
0.00679121
0.0070074
0.00724558
0.00750782
0.00779656
0.0081133
0.00845972
0.0088381
0.00925036
0.0096985
0.0101844
0.01071
0.0112768
0.0118865
0.0125401
0.0132385
0.0139813
0.0147677
0.0155941
0.0164554
0.0173418
0.0182416
0.0191375
0.0200122
0.0208559
0.0216664
0.0225543
0.0237358
0.026323
0.0319114
0.045206
0.00524017
0.00526877
0.0052986
0.00532937
0.00536137
0.00539474
0.00542962
0.00546614
0.00550449
0.00554482
0.00558733
0.00563223
0.00567971
0.00572997
0.00578318
0.00583955
0.00589924
0.00596249
0.00602956
0.00610074
0.00617639
0.00625692
0.0063428
0.00643458
0.00653284
0.00663822
0.0067514
0.00687309
0.00700403
0.007145
0.00729675
0.00746022
0.00763638
0.00782603
0.00803012
0.00824968
0.00848575
0.00873947
0.009012
0.00930459
0.0096186
0.00995542
0.0103167
0.0107039
0.0111192
0.0115634
0.0120371
0.0125421
0.0130801
0.0136524
0.0142601
0.014904
0.0155844
0.0163003
0.0170488
0.0178254
0.0186212
0.0194262
0.0202248
0.0210041
0.0217473
0.0224499
0.0231414
0.0238919
0.0251424
0.0275915
0.0337813
0.0471731
0.074903
0.00651877
0.00657024
0.00662432
0.00668072
0.00673983
0.00680184
0.00686698
0.00693546
0.00700746
0.00708322
0.00716295
0.00724691
0.00733535
0.00742851
0.00752663
0.00762995
0.00773871
0.00785315
0.00797353
0.00810011
0.00823316
0.00837296
0.00851983
0.00867414
0.00883625
0.00900653
0.00918537
0.00937315
0.00957025
0.00977707
0.00999396
0.0102215
0.01046
0.0107101
0.010972
0.0112466
0.0115344
0.0118362
0.0121529
0.0124855
0.0128352
0.0132034
0.0135916
0.0140015
0.0144351
0.0148941
0.0153817
0.0158972
0.0164413
0.0170146
0.0176174
0.0182494
0.0189083
0.0195891
0.0202842
0.0209831
0.0216716
0.0223381
0.0229676
0.0235578
0.0241092
0.0246593
0.0253842
0.0265538
0.0296555
0.0354751
0.0503154
0.0789923
0.1001
0.00873179
0.00883308
0.00893904
0.00904916
0.00916375
0.00928288
0.00940662
0.00953504
0.00966821
0.00980617
0.00994897
0.0100967
0.0102493
0.0104069
0.0105695
0.0107369
0.0109093
0.0110867
0.0112689
0.0114561
0.0116482
0.0118454
0.0120476
0.0122548
0.0124672
0.0126848
0.0129076
0.0131358
0.0133694
0.0136085
0.0138535
0.0141046
0.0143621
0.0146264
0.0148979
0.0151773
0.0154653
0.0157628
0.0160708
0.0163908
0.016724
0.0170723
0.0174374
0.0178216
0.0182269
0.0186555
0.0191093
0.0195903
0.0200979
0.0206284
0.0211811
0.0217519
0.022333
0.0229119
0.0234754
0.0240103
0.0245049
0.0249599
0.0253705
0.0257704
0.0262187
0.0268971
0.0284634
0.0315841
0.0390696
0.0538972
0.0842355
0.10266
0.101107
0.0126867
0.0128448
0.013007
0.0131727
0.0133421
0.013515
0.0136914
0.0138711
0.014054
0.0142399
0.0144288
0.0146204
0.0148146
0.0150114
0.0152105
0.0154119
0.0156153
0.0158206
0.0160277
0.0162363
0.0164462
0.0166574
0.0168698
0.0170832
0.0172975
0.0175128
0.0177289
0.017946
0.0181642
0.0183834
0.0186042
0.0188269
0.0190517
0.0192794
0.0195104
0.0197457
0.0199862
0.0202331
0.0204878
0.0207517
0.0210268
0.021315
0.0216186
0.02194
0.022281
0.0226432
0.023027
0.0234322
0.0238564
0.0242962
0.0247476
0.0251941
0.0256187
0.0260006
0.0263335
0.0266215
0.026865
0.0271109
0.02736
0.0277862
0.028626
0.0305379
0.0346478
0.043502
0.0610916
0.0907024
0.104563
0.101853
0.0895337
0.0184089
0.0185872
0.0187684
0.0189516
0.0191371
0.0193246
0.0195138
0.0197045
0.0198962
0.0200887
0.0202816
0.0204746
0.0206675
0.0208597
0.0210511
0.0212413
0.0214302
0.0216173
0.0218024
0.0219855
0.0221663
0.0223447
0.0225206
0.0226938
0.0228642
0.023032
0.023197
0.0233595
0.0235197
0.0236779
0.0238345
0.0239901
0.024145
0.0242998
0.0244553
0.0246124
0.0247722
0.0249363
0.0251062
0.0252833
0.0254705
0.0256705
0.0258855
0.0261171
0.0263647
0.0266269
0.0269005
0.0271791
0.0274646
0.0277638
0.0280506
0.0282696
0.0284155
0.0284751
0.0285025
0.0285589
0.0286167
0.0289433
0.0294122
0.0307907
0.0335132
0.039395
0.0502103
0.071841
0.0967282
0.105722
0.101078
0.08652
0.0731345
0.0254086
0.0255665
0.0257253
0.0258841
0.026043
0.0262016
0.0263596
0.0265165
0.0266718
0.0268252
0.0269763
0.0271245
0.0272697
0.0274113
0.0275491
0.0276827
0.0278119
0.0279364
0.0280551
0.0281714
0.0282813
0.0283859
0.0284872
0.0285817
0.028672
0.0287575
0.028838
0.0289139
0.0289852
0.0290523
0.0291156
0.0291757
0.029233
0.0292884
0.029343
0.029398
0.0294548
0.0295148
0.0295802
0.0296503
0.0297351
0.0298366
0.0299501
0.0300705
0.0301893
0.0302999
0.0303974
0.0304597
0.0305374
0.0304844
0.030367
0.0301807
0.0299893
0.0298186
0.0297347
0.0300469
0.0303382
0.031739
0.0338024
0.0385334
0.0464638
0.0624722
0.0845814
0.0982331
0.10263
0.0948797
0.0799142
0.0674137
0.0598343
0.0327184
0.0328245
0.0329281
0.0330277
0.0331238
0.0332163
0.033305
0.0333897
0.0334702
0.0335461
0.0336174
0.0336838
0.0337451
0.0338009
0.0338513
0.0338961
0.0339351
0.0339677
0.033988
0.0340299
0.0340344
0.0340384
0.0340567
0.0340458
0.0340501
0.0340433
0.0340296
0.0340096
0.0339834
0.0339527
0.033918
0.0338794
0.0338371
0.033792
0.0337458
0.0336967
0.0336476
0.0335991
0.0335492
0.0335062
0.0334457
0.0333841
0.0332775
0.0331305
0.0329454
0.0327276
0.0324609
0.0321464
0.0318041
0.031465
0.0311348
0.0308545
0.0307595
0.0307011
0.0314809
0.0324055
0.0348685
0.0392559
0.0467794
0.060546
0.0786057
0.0910327
0.0979489
0.094903
0.0837496
0.0702566
0.0595016
0.0524371
0.0484746
0.0394355
0.0394498
0.0394607
0.0394627
0.0394618
0.0394569
0.0394477
0.0394339
0.0394151
0.0393911
0.0393618
0.0393274
0.0392895
0.0392459
0.0391971
0.0391353
0.0390777
0.0390011
0.0389104
0.0388141
0.0387071
0.0385907
0.0384686
0.0383356
0.0381963
0.0380495
0.0378945
0.037734
0.0375648
0.0373901
0.0372084
0.0370213
0.03683
0.0366358
0.0364395
0.0362411
0.0360393
0.0358311
0.0356132
0.0353777
0.0351191
0.0348225
0.034498
0.0341477
0.0337599
0.0333571
0.0328743
0.0324076
0.0320148
0.0316881
0.0316138
0.0317176
0.0327081
0.0338947
0.0367677
0.0416646
0.0507454
0.0625083
0.0770948
0.0862544
0.0914347
0.0884677
0.079005
0.0676209
0.0577143
0.0495512
0.0436303
0.0398822
0.0378117
0.0427346
0.0426924
0.0426398
0.0425755
0.0425017
0.0424194
0.0423295
0.0422324
0.0421281
0.0420173
0.0419001
0.0417767
0.0416475
0.0415129
0.0413731
0.0412272
0.0410759
0.0409182
0.0407544
0.0405834
0.0404065
0.0402218
0.0400315
0.0398335
0.0396307
0.0394208
0.0392078
0.0389896
0.0387713
0.0385514
0.0383293
0.0381063
0.0378771
0.0376377
0.0373833
0.0371086
0.0368064
0.036471
0.0361034
0.0356865
0.0352338
0.0347136
0.0341741
0.0336678
0.0331388
0.0326337
0.0322161
0.0322338
0.0324
0.0333664
0.0345201
0.0369131
0.0409255
0.0468698
0.0549178
0.0653316
0.0739222
0.081512
0.0828735
0.0779587
0.0679582
0.0582456
0.0505172
0.0440801
0.0387164
0.0343679
0.0310179
0.0288995
0.0279011
0.0418557
0.0417604
0.0416592
0.0415533
0.0414414
0.0413223
0.0411965
0.0410632
0.0409232
0.0407758
0.0406209
0.0404587
0.0402882
0.0401104
0.0399243
0.03973
0.0395269
0.0393147
0.0390937
0.038863
0.0386229
0.038372
0.0381117
0.0378399
0.0375578
0.0372613
0.0369541
0.0366282
0.0362892
0.0359323
0.0355583
0.0351641
0.0347557
0.0343338
0.0339044
0.0334678
0.0330394
0.0326132
0.0322259
0.0318326
0.0315809
0.0312643
0.0312988
0.0313969
0.0316275
0.0322294
0.033035
0.0342356
0.0360172
0.0385147
0.0419607
0.046647
0.0526738
0.0594619
0.0659843
0.068932
0.06471
0.0560778
0.0480592
0.0421855
0.037936
0.0343312
0.0311524
0.0282839
0.0256152
0.0231418
0.0210466
0.0197907
0.0192721
0.031733
0.0318642
0.0319921
0.0321124
0.0322358
0.0323475
0.0324603
0.0325725
0.0326887
0.0327994
0.032898
0.0330088
0.0330971
0.0332025
0.0332878
0.0333815
0.0334556
0.0335279
0.0335845
0.033635
0.0336801
0.033699
0.0337153
0.0337352
0.0337411
0.0337755
0.0337408
0.0337222
0.0337499
0.0337547
0.03373
0.0336779
0.0335981
0.033488
0.0333456
0.0331672
0.0329498
0.0326875
0.0323763
0.0320036
0.0315663
0.0310402
0.0304187
0.0296767
0.0287815
0.0276962
0.0263624
0.0247068
0.0226147
0.0200089
0.0165598
0.0135442
0.0135089
0.0158531
0.0176187
0.0178987
0.0170218
0.0158597
0.0147842
0.0142249
0.0138945
0.013532
0.0128408
0.0120344
0.0110965
0.0100328
0.00898114
0.00838909
0.00836773
0.00190996
0.001911
0.00191194
0.00191282
0.00191435
0.00191736
0.00192091
0.00192381
0.00192539
0.00192626
0.00192752
0.00192969
0.00193564
0.00194114
0.00194408
0.0019443
0.00194842
0.00195133
0.00195356
0.00195655
0.00195765
0.00195996
0.00196125
0.00196403
0.00196842
0.0019731
0.0019791
0.00198402
0.00198496
0.00198654
0.001988
0.00199247
0.00199691
0.0019976
0.00199848
0.00199802
0.00199757
0.00199707
0.00199495
0.00199542
0.00199284
0.001992
0.00199029
0.00198648
0.00198454
0.00198201
0.00197763
0.00197266
0.00196989
0.0019688
0.00196759
0.0019675
0.00196663
0.00196506
0.0019632
0.00196134
0.00196003
0.00195897
0.0019576
0.00192014
0.00192093
0.00192188
0.0019232
0.00192557
0.00192773
0.00192918
0.00192999
0.00193058
0.00193222
0.00193506
0.00194052
0.00194529
0.00194787
0.00194899
0.00195004
0.00195522
0.00195771
0.00195978
0.00196204
0.0019632
0.00196544
0.00196724
0.00197048
0.00197468
0.00197931
0.00198551
0.00199029
0.00199119
0.00199266
0.00199465
0.0019986
0.0020032
0.00200417
0.00200544
0.00200533
0.00200508
0.00200487
0.00200411
0.00200364
0.00200265
0.00200123
0.00199982
0.0019973
0.00199438
0.00199272
0.0019901
0.00198597
0.00198202
0.00197994
0.00197819
0.00197732
0.00197663
0.00197571
0.00197475
0.00197336
0.00197166
0.00197029
0.00196893
0.00193237
0.00193329
0.00193446
0.00193548
0.00193679
0.0019376
0.00193817
0.00193901
0.00194083
0.00194402
0.00194836
0.00195255
0.0019548
0.0019561
0.00195694
0.00196026
0.00196463
0.0019666
0.00196816
0.00197023
0.00197174
0.00197419
0.00197626
0.00197974
0.00198378
0.00198854
0.00199477
0.00199957
0.0020005
0.00200196
0.00200442
0.00200792
0.00201268
0.00201389
0.00201553
0.00201593
0.00201573
0.00201567
0.00201533
0.00201518
0.00201473
0.00201404
0.00201304
0.0020114
0.00200892
0.00200683
0.00200503
0.00200244
0.00199908
0.00199628
0.00199385
0.00199205
0.00199099
0.00198998
0.00198927
0.00198859
0.00198775
0.0019869
0.00198595
0.00194876
0.0019492
0.0019498
0.00195024
0.00195073
0.0019513
0.00195237
0.00195424
0.0019571
0.00196064
0.00196383
0.00196579
0.00196695
0.00196791
0.00197016
0.00197468
0.0019773
0.00197872
0.00198006
0.00198229
0.00198424
0.00198686
0.00198914
0.00199271
0.00199658
0.00200156
0.00200777
0.00201255
0.00201358
0.00201512
0.00201792
0.00202105
0.00202594
0.00202775
0.00202946
0.00203044
0.00203074
0.00203065
0.00203052
0.00203056
0.00203061
0.00203034
0.00202982
0.0020291
0.00202775
0.00202614
0.00202461
0.00202275
0.00202006
0.00201746
0.00201526
0.00201296
0.00201133
0.0020098
0.00200841
0.00200761
0.00200705
0.00200675
0.00200633
0.00196753
0.00196779
0.0019683
0.00196871
0.00196943
0.00197055
0.00197226
0.00197453
0.00197712
0.00197945
0.00198092
0.00198193
0.00198295
0.00198495
0.00198865
0.00199168
0.00199327
0.00199436
0.0019958
0.0019983
0.00200075
0.00200338
0.00200579
0.0020094
0.00201316
0.00201839
0.00202461
0.00202936
0.00203058
0.00203226
0.00203534
0.00203819
0.00204321
0.00204547
0.0020476
0.002049
0.00204974
0.00205023
0.00205036
0.00205065
0.0020506
0.00205063
0.00205053
0.0020502
0.00204963
0.00204881
0.00204798
0.00204706
0.00204577
0.00204379
0.00204147
0.00203947
0.0020379
0.00203667
0.00203548
0.00203442
0.0020334
0.00203288
0.00203253
0.00199198
0.00199231
0.00199312
0.0019937
0.00199479
0.00199603
0.00199756
0.00199916
0.0020007
0.0020018
0.00200269
0.00200377
0.00200563
0.0020087
0.00201151
0.00201323
0.00201427
0.0020153
0.00201708
0.00202013
0.00202269
0.00202525
0.00202781
0.0020313
0.00203501
0.00204048
0.00204665
0.00205136
0.00205281
0.00205465
0.00205801
0.00206067
0.00206579
0.00206868
0.00207101
0.00207305
0.00207456
0.00207547
0.00207605
0.00207672
0.00207734
0.00207761
0.0020775
0.00207775
0.00207751
0.00207723
0.00207688
0.00207642
0.0020759
0.0020753
0.00207439
0.00207282
0.00207083
0.00206923
0.00206795
0.00206704
0.00206629
0.002066
0.00206566
0.00202283
0.00202325
0.00202399
0.00202465
0.00202561
0.00202654
0.00202754
0.00202854
0.00202938
0.00203016
0.00203116
0.00203277
0.0020352
0.00203746
0.00203901
0.00203993
0.00204071
0.00204193
0.0020444
0.00204755
0.00205013
0.00205262
0.00205519
0.00205859
0.00206236
0.00206806
0.00207428
0.00207897
0.00208071
0.00208276
0.00208641
0.00208898
0.00209412
0.00209753
0.00210037
0.00210258
0.00210462
0.0021067
0.00210771
0.00210865
0.00210993
0.00211072
0.00211102
0.00211165
0.00211213
0.00211251
0.00211293
0.00211339
0.00211284
0.00211258
0.0021122
0.00211171
0.00211097
0.00211062
0.00210937
0.00210834
0.0021074
0.00210682
0.00210631
0.00206102
0.00206143
0.00206207
0.00206249
0.00206327
0.00206403
0.00206491
0.00206542
0.00206579
0.00206664
0.00206791
0.00206985
0.00207166
0.00207289
0.00207368
0.00207423
0.00207512
0.002077
0.0020801
0.00208291
0.00208541
0.00208784
0.00209045
0.0020937
0.00209756
0.00210348
0.00210966
0.00211433
0.00211637
0.00211866
0.00212261
0.00212524
0.00213043
0.00213446
0.00213783
0.00214077
0.00214318
0.00214568
0.00214811
0.00214971
0.00215154
0.00215286
0.00215399
0.00215488
0.0021558
0.00215664
0.00215759
0.00215892
0.00215951
0.00216048
0.00216067
0.00216064
0.00216046
0.00216026
0.00216072
0.00215983
0.00215978
0.00216014
0.00215912
0.00210966
0.00210982
0.0021104
0.00211044
0.00211058
0.00211074
0.00211091
0.00211104
0.00211126
0.00211259
0.0021139
0.00211501
0.00211581
0.00211628
0.00211654
0.00211701
0.00211857
0.00212113
0.00212392
0.00212647
0.00212878
0.00213106
0.00213363
0.00213679
0.00214093
0.0021471
0.0021533
0.00215802
0.00216045
0.00216306
0.00216732
0.00217009
0.00217524
0.00217977
0.00218368
0.00218707
0.00219033
0.00219341
0.0021962
0.00219894
0.00220184
0.00220444
0.00220629
0.00220799
0.00220955
0.00221104
0.0022123
0.00221383
0.00221556
0.00221684
0.00221851
0.00221995
0.00222137
0.00222239
0.00222321
0.00222379
0.00222436
0.00222399
0.00222358
0.00216843
0.00216892
0.00216908
0.00216988
0.00216994
0.0021699
0.00216982
0.00216989
0.00217001
0.00217051
0.00217108
0.00217137
0.00217153
0.00217158
0.0021719
0.00217297
0.00217503
0.00217746
0.00217983
0.00218198
0.00218402
0.00218609
0.0021886
0.00219193
0.00219625
0.00220271
0.00220877
0.00221353
0.00221635
0.00221933
0.00222395
0.00222709
0.00223239
0.00223758
0.00224227
0.00224645
0.00225025
0.00225446
0.00225827
0.00226151
0.00226481
0.00226874
0.00227212
0.00227473
0.00227721
0.00227967
0.00228178
0.00228357
0.00228588
0.00228793
0.00229035
0.00229268
0.00229507
0.00229736
0.00229925
0.00230124
0.00230249
0.00230401
0.00230508
0.00224438
0.00224369
0.00224356
0.00224193
0.00224155
0.00224082
0.00224133
0.00224043
0.00224171
0.00224172
0.00224048
0.0022405
0.00224027
0.00224084
0.00224133
0.00224242
0.00224408
0.00224602
0.002248
0.00224987
0.00225165
0.00225346
0.00225591
0.00225942
0.00226422
0.00227094
0.00227698
0.0022819
0.00228524
0.0022887
0.00229371
0.00229724
0.00230255
0.00230816
0.00231348
0.00231858
0.0023232
0.00232789
0.00233315
0.00233805
0.00234227
0.00234674
0.00235179
0.00235589
0.0023596
0.00236325
0.0023668
0.00236971
0.00237267
0.00237553
0.00237875
0.00238207
0.00238549
0.00238889
0.0023919
0.00239493
0.00239719
0.00239965
0.00240159
0.00233333
0.00233299
0.00233341
0.00233057
0.00233121
0.00233159
0.00233328
0.00233285
0.00233054
0.00232942
0.00232893
0.00232872
0.00232975
0.00232966
0.00233007
0.00233102
0.00233238
0.00233395
0.00233552
0.00233702
0.00233847
0.00234006
0.00234221
0.00234603
0.00235146
0.00235802
0.00236404
0.00236914
0.00237302
0.00237704
0.00238256
0.00238685
0.00239265
0.00239906
0.00240533
0.00241149
0.00241744
0.00242289
0.00242868
0.00243491
0.00244093
0.00244626
0.00245242
0.00245812
0.00246338
0.00246832
0.00247335
0.00247775
0.00248174
0.00248538
0.00248916
0.00249312
0.00249724
0.00250148
0.00250542
0.00250933
0.00251255
0.00251597
0.00251885
0.00244953
0.0024475
0.00244686
0.00244511
0.00244443
0.00244355
0.00244298
0.00244204
0.00244091
0.00243996
0.00243965
0.00244023
0.00243897
0.00244005
0.00244017
0.00244054
0.00244117
0.00244205
0.00244311
0.00244412
0.00244517
0.00244654
0.00244872
0.00245309
0.00245904
0.00246563
0.00247171
0.00247719
0.00248181
0.00248657
0.00249261
0.00249753
0.00250353