/*--------------------------------*- C++ -*----------------------------------*\
| =========                 |                                                 |
| \\      /  F ield         | OpenFOAM: The Open Source CFD Toolbox           |
|  \\    /   O peration     | Version:  2312                                  |
|   \\  /    A nd           | Website:  www.openfoam.com                      |
|    \\/     M anipulation  |                                                 |
\*---------------------------------------------------------------------------*/
FoamFile
{
    version     2.0;
    format      ascii;
    arch        "LSB;label=32;scalar=64";
    class       volScalarField;
    location    "400";
    object      nut;
}
// * * * * * * * * * * * * * * * * * * * * * * * * * * * * * * * * * * * * * //

dimensions      [0 2 -1 0 0 0 0];

internalField   nonuniform List<scalar> 
76025
(
0.0013364
0.00133685
0.00133686
0.00133638
0.00133557
0.00133686
0.00133743
0.00133805
0.00133823
0.00133876
0.00133979
0.00134098
0.00134218
0.00134422
0.00134431
0.00134462
0.00134555
0.0013459
0.00134747
0.00134825
0.00134921
0.00135071
0.00135162
0.0013549
0.00135573
0.00135839
0.00135928
0.00136071
0.00136359
0.00136465
0.0013675
0.00137007
0.00137358
0.00137585
0.00137961
0.00138173
0.00138667
0.00138905
0.00139132
0.0013925
0.00139507
0.00139582
0.00140032
0.00140058
0.00140697
0.00140786
0.0014171
0.00141782
0.00143012
0.00142992
0.00144775
0.00144825
0.00147157
0.00147311
0.00150531
0.00151018
0.00154475
0.00155542
0.00158511
0.00160777
0.00165578
0.00168251
0.00173561
0.0017425
0.00176804
0.00178909
0.00182738
0.00189316
0.00199028
0.00134322
0.00134427
0.00134478
0.00134583
0.00134548
0.00134584
0.00134683
0.00134788
0.00134911
0.00134981
0.00135096
0.00135149
0.00135283
0.00135331
0.00135542
0.00135614
0.00135692
0.00135752
0.00135795
0.00135931
0.00136043
0.00136224
0.00136365
0.0013654
0.00136786
0.00136977
0.00137276
0.00137369
0.00137698
0.00138033
0.00138349
0.00138656
0.00139018
0.00139378
0.00139592
0.00139805
0.00140003
0.00140213
0.0014046
0.00140771
0.00141126
0.00141499
0.00141888
0.00142253
0.00142712
0.00143191
0.00143808
0.00144468
0.00145243
0.00146073
0.00147133
0.00148183
0.00149735
0.00150917
0.00153214
0.00154256
0.00157452
0.0015854
0.00162427
0.00164533
0.00169779
0.00172695
0.0017822
0.00178746
0.00182284
0.00185068
0.0019104
0.00199936
0.00210427
0.00135507
0.00135555
0.00135568
0.00135604
0.00135605
0.0013558
0.00135575
0.00135649
0.00135774
0.00135883
0.00136013
0.0013612
0.00136289
0.00136468
0.001367
0.00136906
0.00137128
0.00137258
0.00137373
0.00137512
0.00137651
0.00137858
0.00137979
0.00138189
0.0013842
0.00138667
0.00138938
0.00139188
0.0013944
0.00139752
0.00139952
0.00140163
0.00140366
0.00140596
0.00140877
0.00141192
0.00141527
0.00141835
0.00142154
0.00142454
0.00142773
0.00143107
0.00143488
0.0014396
0.00144552
0.00145204
0.00146001
0.00146725
0.00147683
0.00148482
0.0014977
0.00150792
0.00152457
0.00153693
0.00155977
0.00157269
0.00160563
0.00162074
0.0016613
0.00169337
0.0017461
0.00177878
0.00181957
0.00181769
0.00186335
0.00190395
0.00199105
0.0020931
0.00221677
0.00136808
0.00136919
0.00137004
0.0013704
0.00137089
0.00137059
0.0013706
0.00137013
0.00137044
0.00137053
0.00137077
0.00137066
0.00137089
0.00137145
0.00137267
0.00137475
0.00137713
0.0013795
0.00138177
0.0013847
0.00138715
0.00139033
0.00139335
0.00139635
0.00139878
0.00140125
0.00140391
0.00140581
0.00140771
0.00140999
0.00141213
0.00141517
0.00141789
0.00142102
0.00142531
0.00143043
0.00143555
0.00143926
0.00144286
0.00144522
0.00144843
0.00145159
0.00145592
0.00146151
0.00146716
0.00147418
0.00148054
0.00148836
0.00149716
0.00150753
0.00152089
0.00153442
0.00155149
0.00156916
0.00159268
0.00161321
0.00164891
0.00166645
0.00171629
0.00174524
0.00179431
0.0018142
0.00184747
0.00185968
0.00193158
0.00199856
0.00210437
0.00222615
0.00236871
0.00138111
0.00138312
0.00138421
0.0013861
0.00138735
0.00138822
0.00138817
0.00138926
0.00138925
0.00139001
0.00139053
0.00139089
0.00139128
0.00139145
0.00139233
0.00139204
0.00139369
0.00139536
0.00139678
0.00139907
0.00140156
0.00140387
0.00140693
0.00140853
0.00141244
0.00141409
0.00141591
0.0014183
0.00142028
0.00142311
0.00142527
0.00142913
0.00143208
0.00143636
0.00144166
0.00144777
0.00145353
0.00145812
0.00146235
0.00146511
0.00146887
0.00147179
0.00147613
0.00148037
0.00148508
0.00149151
0.00149854
0.00150923
0.00152143
0.00153628
0.00155278
0.00156972
0.00158964
0.00161191
0.00163699
0.00166535
0.00169486
0.00172061
0.00176302
0.00178663
0.00182399
0.00184144
0.00188194
0.00192524
0.00202584
0.00210838
0.0022374
0.00237707
0.00253633
0.00139521
0.00139764
0.00140003
0.00140236
0.00140459
0.00140732
0.0014083
0.00140919
0.00140969
0.00141071
0.00141061
0.00141226
0.00141223
0.00141362
0.00141238
0.00141374
0.00141532
0.00141759
0.00142094
0.00142198
0.00142398
0.00142614
0.00142844
0.00143046
0.00143243
0.00143426
0.00143615
0.00143847
0.00144106
0.0014439
0.00144737
0.00145119
0.0014555
0.00146029
0.0014647
0.00147098
0.00147767
0.00148449
0.0014904
0.00149504
0.00149942
0.00150313
0.00150793
0.00151368
0.00152029
0.00152994
0.00153959
0.00155297
0.00156554
0.00158064
0.00159532
0.00161259
0.0016322
0.0016547
0.00167988
0.00170647
0.00173081
0.00175895
0.00178628
0.00180628
0.0018403
0.00187165
0.00194792
0.00202459
0.00214822
0.00225243
0.00240088
0.00255949
0.00273582
0.0014101
0.00141262
0.00141512
0.00141777
0.00142014
0.00142245
0.00142409
0.00142724
0.00142884
0.00143016
0.00143318
0.00143428
0.00143704
0.0014389
0.00144001
0.00144138
0.00144136
0.00144194
0.00144323
0.00144451
0.00144618
0.00144793
0.00144965
0.00145157
0.00145334
0.00145544
0.00145761
0.00146074
0.00146471
0.00146982
0.00147473
0.00148
0.00148416
0.00148905
0.0014932
0.00149899
0.00150475
0.00151169
0.00151821
0.00152483
0.00153153
0.0015385
0.00154669
0.00155548
0.00156442
0.00157575
0.00158498
0.00159831
0.00160924
0.00162473
0.00163892
0.00165925
0.00167645
0.00170242
0.00171962
0.00174608
0.00176033
0.00178617
0.00179853
0.00183105
0.00187425
0.00195104
0.00205379
0.00216467
0.00229746
0.00242945
0.00259014
0.0027707
0.00293538
0.00143458
0.001437
0.00143988
0.0014425
0.00144533
0.0014475
0.00144999
0.00145132
0.00145313
0.00145436
0.00145539
0.00145654
0.00145834
0.00146036
0.00146191
0.00146311
0.0014643
0.00146608
0.00146844
0.00147106
0.00147403
0.00147674
0.00147902
0.00148097
0.00148265
0.00148459
0.00148604
0.00148811
0.00149071
0.00149545
0.0015005
0.00150717
0.00151338
0.00152071
0.00152746
0.00153516
0.00154195
0.00154986
0.001556
0.00156345
0.00157071
0.00158076
0.00159152
0.00160291
0.00161455
0.00162675
0.00163828
0.00165249
0.00166625
0.00168263
0.00169856
0.00171519
0.00172987
0.00174734
0.00175628
0.00177689
0.0017845
0.00181354
0.00183441
0.0019063
0.00197884
0.00211052
0.00221192
0.00236026
0.00248251
0.00265102
0.00280942
0.00299607
0.0031431
0.00146263
0.00146497
0.00146581
0.00146893
0.0014708
0.00147466
0.00147666
0.00147877
0.00148137
0.00148372
0.0014857
0.00148705
0.00148821
0.00148964
0.00149139
0.00149281
0.00149318
0.0014927
0.0014929
0.00149399
0.00149642
0.00150027
0.00150472
0.00150908
0.00151335
0.00151722
0.00152081
0.00152448
0.00152797
0.00153223
0.00153637
0.00154122
0.0015469
0.00155293
0.00156091
0.00156872
0.00157836
0.00158848
0.00159767
0.00160918
0.00162252
0.00163926
0.00165503
0.00167044
0.00168479
0.00169823
0.0017118
0.00172528
0.00173881
0.00175104
0.00176314
0.0017703
0.00178327
0.00178902
0.0018053
0.00182112
0.0018472
0.00189549
0.00195809
0.0020702
0.0021665
0.00231507
0.00240678
0.00258858
0.00269219
0.00290793
0.00302891
0.00323248
0.00333985
0.00149804
0.00149921
0.00150074
0.00150217
0.00150413
0.00150601
0.00150825
0.00150998
0.00151176
0.00151409
0.00151653
0.00151945
0.00152255
0.00152601
0.00152968
0.00153295
0.00153559
0.00153743
0.00153886
0.00154012
0.00154154
0.00154315
0.00154551
0.00154794
0.00155134
0.00155496
0.00155935
0.00156422
0.00156929
0.00157549
0.00158132
0.00158811
0.00159472
0.00160265
0.00161036
0.00161961
0.00162941
0.00164085
0.00165233
0.0016659
0.00168153
0.00169726
0.00171349
0.00172836
0.00174624
0.00176108
0.00177714
0.00178728
0.00179917
0.00180532
0.00181612
0.00182088
0.00183884
0.00185234
0.00188617
0.00191962
0.0019864
0.00206686
0.00217417
0.00229234
0.00240033
0.00254283
0.00264859
0.00284035
0.00294198
0.00317647
0.00324871
0.00346757
0.00350995
0.00153419
0.00153516
0.00153632
0.00153758
0.00153924
0.0015408
0.001543
0.00154588
0.00154867
0.00155164
0.00155421
0.00155686
0.00155938
0.00156222
0.00156517
0.00156889
0.00157315
0.00157735
0.00158163
0.00158485
0.0015885
0.00159199
0.00159599
0.0016001
0.00160412
0.00160834
0.00161228
0.00161691
0.00162197
0.00162757
0.00163349
0.00164075
0.00164947
0.0016601
0.00167082
0.00168236
0.00169316
0.00170554
0.00171624
0.001727
0.00173768
0.00174631
0.00175832
0.00177096
0.00178844
0.00180214
0.00181498
0.0018246
0.00183791
0.00184978
0.00186941
0.00188647
0.00192265
0.00195862
0.00202207
0.00208964
0.00219071
0.00229004
0.00240606
0.00251867
0.00263733
0.00278362
0.00291214
0.00310127
0.00321045
0.00342637
0.00346114
0.00367736
0.00361404
0.00157846
0.00157984
0.00158083
0.00158209
0.00158359
0.00158529
0.00158783
0.00159115
0.00159567
0.00160115
0.00160645
0.00161158
0.00161664
0.00162138
0.00162559
0.00162823
0.00163097
0.00163202
0.00163337
0.00163544
0.00163853
0.0016423
0.00164634
0.00165128
0.00165591
0.00166165
0.00166743
0.00167449
0.00168207
0.00169081
0.0016994
0.00170917
0.00171892
0.00172977
0.00173989
0.00174963
0.00176092
0.00177165
0.00178169
0.00179003
0.00179986
0.00180767
0.00181943
0.00182589
0.0018349
0.00183921
0.00184939
0.001865
0.00189147
0.00192243
0.00196314
0.0020062
0.00207022
0.00213704
0.00222951
0.0023195
0.00242926
0.00253045
0.00264822
0.00277448
0.00291025
0.00307278
0.00320757
0.00338663
0.00348039
0.00365356
0.00365432
0.00381798
0.0036651
0.00163212
0.00163387
0.00163549
0.00163707
0.00163913
0.00164127
0.00164355
0.00164703
0.00165031
0.00165491
0.00166068
0.00166538
0.00167086
0.00167649
0.00168265
0.00168899
0.00169499
0.00170329
0.00171034
0.00171443
0.00171677
0.00171866
0.00172077
0.00172361
0.00172838
0.00173444
0.00174179
0.00175025
0.00175812
0.00176612
0.00177334
0.00178045
0.0017871
0.0017938
0.0018005
0.00180814
0.00181765
0.00182764
0.00183922
0.00185388
0.00187048
0.00188427
0.00189804
0.00190147
0.00190561
0.00191057
0.00192956
0.00196159
0.00201079
0.00206513
0.00213182
0.00220215
0.00228971
0.00237725
0.00248251
0.00258117
0.00269932
0.00281595
0.0029535
0.00309656
0.00323928
0.00339578
0.00351081
0.00366123
0.00371373
0.00383962
0.00378375
0.00388096
0.00362438
0.00170048
0.00170252
0.0017044
0.00170644
0.00170857
0.00171123
0.00171357
0.00171704
0.0017201
0.00172428
0.00172904
0.00173421
0.00173974
0.00174618
0.00175342
0.00176129
0.0017691
0.00177876
0.00178879
0.00179758
0.00180296
0.00180624
0.00180824
0.00180906
0.00180992
0.00181225
0.00181751
0.00182665
0.00183782
0.00185163
0.00186466
0.00187867
0.00189077
0.00190308
0.00191392
0.00192437
0.00193719
0.00194355
0.00195667
0.00197606
0.00199451
0.00201006
0.00201886
0.00201509
0.00201661
0.00203671
0.00208141
0.00214649
0.00222504
0.00230877
0.00239969
0.0024891
0.0025868
0.0026816
0.00279164
0.0029016
0.00303274
0.00316227
0.00330565
0.0034422
0.00357232
0.00369898
0.00378548
0.00388596
0.0038936
0.0039531
0.00383007
0.00384607
0.00345782
0.00178715
0.0017897
0.00179203
0.00179463
0.00179706
0.00180014
0.00180299
0.00180679
0.00181042
0.0018152
0.00182012
0.00182623
0.00183236
0.00183988
0.00184749
0.00185645
0.0018647
0.00187438
0.00188321
0.00189282
0.00189954
0.00190621
0.00191004
0.00191491
0.00191745
0.00192268
0.00192677
0.00193484
0.00194206
0.0019522
0.00196145
0.00197092
0.00198081
0.00198902
0.00199899
0.00200705
0.0020202
0.00202759
0.00204469
0.00206379
0.00207788
0.00211079
0.00212778
0.0021609
0.00219673
0.00226596
0.00235065
0.00243871
0.00252731
0.00261525
0.00270806
0.00280442
0.00291241
0.00302534
0.00315231
0.00327916
0.00341601
0.00354339
0.00367206
0.0037839
0.00388262
0.00396343
0.00400687
0.0040396
0.00399491
0.00396403
0.00377434
0.00365433
0.00317946
0.00189741
0.00190092
0.00190425
0.00190772
0.00191105
0.00191482
0.00191859
0.00192307
0.0019277
0.0019333
0.00193921
0.00194622
0.00195348
0.00196185
0.00197032
0.00197978
0.00198887
0.00199865
0.0020077
0.00201719
0.00202534
0.00203358
0.00204047
0.00204782
0.00205431
0.00206188
0.00206936
0.00207843
0.00208806
0.0020992
0.00211134
0.00212473
0.00213967
0.00215624
0.00217495
0.00219624
0.00222058
0.00224853
0.00228051
0.00231718
0.00235957
0.00240677
0.00246088
0.00252109
0.00258806
0.00265925
0.00273485
0.00281625
0.00290514
0.00300164
0.00310698
0.00321847
0.00333735
0.00345745
0.00358116
0.00369854
0.00381438
0.0039152
0.0040078
0.00407749
0.00412827
0.00415119
0.00413709
0.00409366
0.00398043
0.00385719
0.00356131
0.00329415
0.00269291
0.00203935
0.00204429
0.00204917
0.0020541
0.00205899
0.00206409
0.00206931
0.00207497
0.00208095
0.00208762
0.00209478
0.00210278
0.0021113
0.00212064
0.00213037
0.00214076
0.00215128
0.00216218
0.00217299
0.002184
0.00219479
0.00220572
0.00221651
0.00222766
0.0022391
0.00225137
0.00226452
0.00227901
0.00229494
0.00231263
0.00233228
0.00235413
0.00237847
0.0024056
0.00243583
0.00246951
0.00250696
0.00254856
0.00259458
0.0026455
0.00270165
0.00276379
0.00283145
0.0029051
0.00298464
0.00307042
0.00316223
0.00325991
0.00336269
0.00346948
0.00357904
0.00368906
0.00379825
0.00390271
0.00400179
0.00408972
0.0041672
0.00422606
0.00426864
0.00428463
0.00427544
0.00423189
0.00414649
0.00402347
0.00381747
0.00361946
0.00311114
0.00282159
0.0023133
0.00222695
0.00223414
0.00224145
0.00224887
0.00225637
0.00226404
0.00227187
0.00228
0.00228844
0.00229737
0.0023068
0.0023169
0.00232762
0.00233908
0.00235119
0.00236401
0.00237741
0.00239145
0.00240601
0.00242114
0.00243679
0.00245309
0.00247014
0.00248815
0.00250732
0.00252793
0.00255022
0.00257448
0.00260095
0.00262991
0.00266159
0.00269628
0.00273422
0.00277564
0.00282077
0.00286984
0.00292301
0.00298049
0.00304232
0.00310871
0.00317957
0.00325536
0.00333625
0.00342146
0.00351015
0.00360199
0.00369596
0.0037912
0.00388625
0.00397985
0.00407014
0.00415536
0.00423348
0.0043022
0.00435943
0.00440231
0.00442856
0.00443422
0.00441687
0.00437057
0.00429221
0.00417471
0.00400588
0.00380428
0.00347634
0.00321455
0.00252142
0.00235912
0.00220671
0.00247282
0.00248351
0.00249464
0.00250615
0.00251808
0.00253045
0.00254329
0.00255663
0.00257053
0.00258506
0.0026003
0.00261635
0.00263329
0.0026512
0.00267013
0.00269012
0.00271121
0.0027334
0.00275679
0.00278145
0.00280745
0.00283491
0.00286395
0.00289471
0.00292737
0.00296208
0.00299902
0.00303835
0.00308021
0.00312473
0.003172
0.0032221
0.00327511
0.00333099
0.00338971
0.0034512
0.00351535
0.00358199
0.00365091
0.00372181
0.00379446
0.00386806
0.00394314
0.00401911
0.0040958
0.00417174
0.00424528
0.00431564
0.00438148
0.00444166
0.00449449
0.00453869
0.00457226
0.00459368
0.00460009
0.00458993
0.00455831
0.00450407
0.00442023
0.00430442
0.0041506
0.00395073
0.00369167
0.00341788
0.00293181
0.00265726
0.00210502
0.00219417
0.00263267
0.002858
0.00287554
0.00289377
0.00291272
0.0029325
0.0029532
0.00297491
0.00299768
0.00302158
0.00304668
0.00307303
0.00310071
0.0031298
0.00316037
0.00319245
0.00322607
0.00326125
0.00329799
0.00333629
0.0033762
0.00341729
0.00345959
0.00350309
0.00354783
0.00359381
0.00364106
0.00368957
0.00373931
0.00379023
0.00384228
0.00389533
0.00394931
0.00400404
0.00405935
0.00411503
0.00417084
0.00422654
0.00428184
0.00433642
0.00438994
0.00444204
0.00449221
0.00454024
0.00458502
0.00462769
0.00466746
0.00470423
0.00473583
0.00476063
0.00477749
0.00478507
0.00478216
0.00476674
0.0047369
0.0046889
0.00462098
0.00452655
0.004406
0.00425038
0.00405692
0.00382663
0.00353342
0.00319914
0.00285518
0.00237995
0.00215902
0.0020909
0.00258245
0.00338442
0.0034301
0.00346272
0.00349673
0.00353196
0.00356839
0.00360598
0.0036447
0.00368449
0.00372531
0.0037671
0.00380978
0.00385335
0.00389756
0.00394186
0.00398624
0.00403068
0.00407514
0.00411958
0.00416396
0.00420821
0.00425252
0.00429681
0.00434097
0.00438491
0.00442854
0.00447174
0.00451441
0.00455644
0.0045977
0.00463806
0.0046774
0.00471558
0.00475243
0.00478775
0.00482135
0.00485304
0.00488259
0.00490977
0.00493432
0.00495598
0.00497446
0.00498944
0.00500055
0.00500753
0.00500958
0.00500726
0.00500052
0.00498885
0.00497064
0.004943
0.00490506
0.00485499
0.0047899
0.00470613
0.0045993
0.00446682
0.00430398
0.0041097
0.00388089
0.00360129
0.0033076
0.00292019
0.00258685
0.00224261
0.00197904
0.00205597
0.00254339
0.00320557
0.00345767
0.00434033
0.00437887
0.00441726
0.00445543
0.00449343
0.00453126
0.00456889
0.00460631
0.00464347
0.00468033
0.00471686
0.00475295
0.00478871
0.00482437
0.0048598
0.00489486
0.00492944
0.00496342
0.00499667
0.00502906
0.00506051
0.00509089
0.0051201
0.00514804
0.00517457
0.00519957
0.00522292
0.00524448
0.00526413
0.00528172
0.00529715
0.00531026
0.00532091
0.00532892
0.00533414
0.00533639
0.00533548
0.00533123
0.00532344
0.00531185
0.00529626
0.00527643
0.00525213
0.00522302
0.00518872
0.00514803
0.00510165
0.00504877
0.00498806
0.00491769
0.00483641
0.00473883
0.00461977
0.00447351
0.00429795
0.00409183
0.00385876
0.00358764
0.00329651
0.00293533
0.00262825
0.00222312
0.00197487
0.0018665
0.00196346
0.0025117
0.00301643
0.00325087
0.00374159
0.00515025
0.00517375
0.00519797
0.00522268
0.00524779
0.00527315
0.00529863
0.00532408
0.00534937
0.00537437
0.00539895
0.005423
0.00544639
0.00546903
0.00549081
0.00551162
0.00553137
0.00554994
0.00556717
0.00558306
0.00559741
0.00561012
0.00562114
0.00563026
0.0056374
0.00564242
0.00564519
0.00564559
0.00564348
0.00563874
0.00563128
0.00562095
0.00560757
0.00559097
0.00557099
0.00554745
0.0055202
0.00548903
0.00545381
0.00541412
0.00537001
0.0053215
0.00526825
0.0052097
0.00514461
0.00507162
0.0049895
0.00489698
0.0047955
0.00468714
0.00456326
0.00440698
0.00421601
0.00398864
0.00373457
0.00346194
0.003174
0.00285528
0.00253867
0.00216813
0.00195329
0.00169785
0.00175334
0.00197963
0.00255704
0.00292926
0.00316394
0.00354541
0.00402304
0.00559634
0.00560821
0.00562057
0.00563328
0.00564624
0.00565933
0.0056724
0.00568531
0.00569793
0.00571008
0.00572164
0.00573246
0.0057424
0.0057513
0.00575902
0.00576548
0.00577058
0.00577421
0.00577589
0.00577667
0.00577522
0.00577172
0.00576691
0.00575945
0.00575009
0.00573852
0.00572429
0.00570758
0.00568793
0.00566541
0.00563987
0.00561114
0.00557903
0.00554338
0.00550406
0.00546088
0.00541371
0.00536226
0.0053064
0.00524503
0.00518063
0.00511292
0.00503939
0.00495782
0.00486498
0.00475903
0.00463894
0.00450011
0.00435756
0.00416919
0.00395362
0.0037104
0.0034473
0.00317552
0.002884
0.00263062
0.00232547
0.00204343
0.00179065
0.00157842
0.00157509
0.00167794
0.00206114
0.00241537
0.00278235
0.00296397
0.00326806
0.00365555
0.00409337
0.00562469
0.00562768
0.00563062
0.00563332
0.00563577
0.00563789
0.00563956
0.00564074
0.00564126
0.005641
0.00563987
0.00563777
0.00563453
0.00562983
0.00562353
0.00561604
0.00560775
0.00559776
0.00558357
0.00557725
0.00555848
0.00553963
0.00552624
0.00550246
0.00548368
0.00546134
0.00543458
0.0054064
0.00537357
0.00533891
0.00530141
0.00526063
0.00521632
0.00516848
0.00511727
0.0050616
0.00500169
0.00493695
0.00486599
0.00479047
0.00470273
0.00460725
0.0044917
0.00435845
0.00420819
0.00404363
0.00386125
0.00366315
0.00344967
0.00322422
0.00298183
0.00273155
0.0024788
0.00221213
0.00199206
0.0017503
0.00155624
0.00142303
0.00135866
0.00150619
0.00178749
0.00208964
0.00242571
0.00261501
0.00283997
0.00301834
0.00328458
0.00359437
0.00384152
0.00518793
0.00518159
0.00517516
0.00516695
0.00515854
0.00514946
0.00513967
0.00512963
0.00511834
0.00510608
0.00509313
0.00507933
0.00506423
0.00504579
0.00502209
0.00500205
0.00498901
0.0049663
0.00493488
0.00491311
0.00487635
0.00484382
0.00481806
0.00477506
0.00474204
0.00470628
0.00465468
0.0046177
0.00455933
0.00451637
0.00446713
0.00441381
0.00435695
0.00429666
0.00423256
0.00416388
0.00408954
0.00400824
0.00391878
0.00381937
0.00370881
0.00358469
0.00344904
0.00330343
0.00314407
0.00297617
0.0027902
0.00259559
0.00238592
0.00216353
0.0019483
0.00173403
0.00157094
0.00138963
0.00128554
0.00121715
0.00125267
0.00136854
0.00162038
0.00182398
0.00210499
0.00226389
0.00248324
0.0026136
0.00273398
0.00290006
0.00309669
0.00322313
0.00323993
0.00408862
0.00407599
0.00406263
0.00404795
0.00403135
0.00401286
0.00399511
0.00397788
0.00395723
0.0039366
0.00391607
0.00389405
0.00387011
0.00384535
0.00382006
0.00379529
0.00376804
0.00373968
0.00371163
0.00368082
0.00365083
0.00361658
0.00358481
0.00354692
0.00351295
0.00347116
0.00343486
0.00339089
0.00334832
0.00330391
0.0032561
0.0032046
0.00314853
0.00308732
0.00302024
0.00294657
0.00286531
0.00277585
0.00267862
0.00257171
0.0024571
0.00233137
0.00220014
0.00206983
0.00193247
0.00178527
0.00166
0.00150315
0.00132132
0.0012065
0.00109067
0.00103489
0.00102203
0.00105336
0.00112194
0.00124868
0.00139193
0.00160086
0.00174799
0.00196169
0.00215942
0.00223877
0.00230351
0.00238998
0.0024868
0.002595
0.00261181
0.00253661
0.00243518
0.00222879
0.00221687
0.00220442
0.00219186
0.0021785
0.00216478
0.00215082
0.00213616
0.00212078
0.00210584
0.00209019
0.00207399
0.00205726
0.00204001
0.00202227
0.002004
0.0019852
0.00196586
0.00194609
0.00192565
0.00190482
0.00188335
0.00186135
0.00183851
0.00181498
0.00179036
0.00176483
0.00173413
0.00170159
0.0016622
0.00161832
0.00157055
0.00151964
0.00146577
0.00140957
0.00135122
0.00129194
0.0012312
0.00117141
0.00110922
0.00105401
0.000991887
0.000948066
0.000901972
0.000858263
0.000826085
0.000795076
0.000777133
0.000789756
0.000812802
0.000847947
0.000900686
0.000968848
0.00105275
0.00114604
0.001283
0.00135907
0.00148741
0.00152376
0.00156802
0.00169563
0.00181129
0.00186868
0.00191158
0.00193488
0.00191844
0.00179665
0.00166135
0.00152266
0.000400881
0.000402054
0.000403294
0.000404462
0.00040568
0.000406892
0.000408016
0.000409129
0.000410319
0.000411647
0.000412783
0.000414064
0.000415238
0.000416454
0.000417697
0.000418964
0.000420262
0.000421513
0.00042284
0.000423661
0.000425113
0.000426179
0.00042688
0.000427686
0.000427956
0.000429814
0.000430029
0.000430228
0.000431826
0.000433243
0.000434315
0.000435156
0.000435801
0.000436231
0.000436428
0.000436354
0.00043598
0.000435244
0.000434127
0.00043248
0.000430323
0.00042733
0.000423545
0.000418626
0.000412225
0.000403939
0.000393051
0.000378591
0.000358894
0.000332777
0.000294208
0.00027231
0.000303283
0.000335964
0.000342357
0.000333689
0.000316975
0.00030466
0.000300309
0.000302614
0.000301883
0.000301227
0.000297384
0.000293573
0.000288319
0.000280601
0.000266342
0.000256511
0.000255057
0.00131433
0.00131357
0.00131277
0.00131187
0.00131117
0.00131245
0.00131325
0.00131239
0.001311
0.00130954
0.00130843
0.00130843
0.00130951
0.001308
0.00130611
0.00130402
0.00130473
0.00130458
0.00130594
0.00130688
0.00130809
0.00131079
0.00131136
0.00131202
0.00131326
0.00131483
0.00131825
0.00132331
0.00132621
0.00132704
0.00132582
0.00132628
0.00132646
0.00132831
0.00133021
0.00133142
0.00133161
0.00133252
0.00133236
0.00133332
0.00133177
0.00133224
0.00133136
0.00133096
0.00133186
0.00133249
0.00133217
0.00133093
0.00133312
0.00133353
0.00133286
0.00133307
0.0013328
0.00133231
0.00133306
0.00133372
0.00133431
0.00133499
0.00133602
0.00131972
0.00131887
0.00131818
0.00131752
0.00131751
0.00131795
0.00131693
0.00131558
0.00131423
0.00131367
0.00131427
0.00131636
0.00131322
0.00131166
0.00131022
0.00130931
0.00131096
0.00131133
0.00131245
0.00131276
0.00131433
0.00131671
0.00131755
0.00131841
0.00131964
0.00132121
0.00132498
0.00132978
0.00133254
0.00133332
0.00133249
0.00133254
0.0013327
0.00133421
0.00133617
0.00133733
0.00133803
0.0013388
0.00134033
0.00134057
0.00133992
0.0013399
0.00133917
0.00133854
0.00133803
0.00133922
0.00134043
0.00133995
0.00133931
0.00134145
0.00134162
0.0013415
0.00134151
0.00134124
0.00134155
0.00134183
0.00134217
0.00134241
0.00134287
0.00132549
0.00132481
0.00132433
0.00132371
0.00132358
0.00132312
0.00132205
0.00132138
0.00132104
0.00132154
0.00132202
0.0013202
0.00131797
0.00131703
0.00131641
0.00131749
0.00131834
0.00131892
0.00131935
0.00132074
0.00132194
0.00132456
0.00132489
0.00132568
0.00132694
0.00132852
0.00133237
0.00133704
0.00133988
0.00134062
0.00134013
0.00134038
0.00134071
0.00134164
0.00134354
0.00134467
0.00134528
0.00134616
0.00134727
0.0013482
0.0013483
0.00134872
0.00134842
0.00134776
0.0013469
0.00134717
0.00134827
0.00134912
0.00134924
0.00134949
0.00135076
0.00135091
0.00135142
0.00135134
0.00135186
0.00135249
0.00135352
0.00135436
0.00135509
0.00133342
0.00133284
0.00133246
0.00133194
0.00133122
0.00133046
0.00132985
0.00132939
0.00132922
0.00132916
0.00132816
0.00132619
0.00132522
0.00132495
0.00132541
0.00132662
0.00132723
0.00132773
0.00132823
0.00132992
0.0013316
0.00133348
0.00133354
0.00133427
0.00133558
0.00133738
0.00134151
0.00134587
0.0013484
0.00134931
0.00134893
0.00134902
0.0013493
0.00135035
0.00135219
0.00135371
0.0013547
0.00135529
0.00135601
0.00135692
0.00135774
0.00135822
0.00135884
0.00135889
0.00135841
0.00135804
0.00135875
0.0013594
0.00135972
0.00135969
0.00136076
0.00136116
0.00136187
0.00136193
0.00136202
0.00136267
0.00136379
0.0013653
0.00136654
0.001342
0.00134119
0.00134055
0.00133987
0.00133925
0.00133879
0.00133831
0.00133803
0.00133764
0.00133698
0.00133564
0.00133475
0.00133462
0.00133504
0.00133616
0.00133678
0.00133723
0.00133768
0.00133833
0.00134013
0.00134194
0.0013434
0.00134324
0.00134412
0.00134549
0.00134745
0.00135169
0.00135585
0.00135835
0.00135935
0.00135917
0.00135917
0.00135938
0.00136022
0.00136244
0.00136427
0.00136548
0.00136655
0.00136722
0.00136807
0.00136846
0.00136909
0.00136966
0.00137012
0.00137036
0.00137046
0.00137066
0.0013714
0.00137283
0.00137325
0.00137308
0.00137342
0.00137431
0.0013754
0.00137612
0.00137676
0.00137733
0.00137839
0.00137967
0.00135223
0.00135161
0.00135139
0.00135085
0.00135055
0.00135011
0.00134956
0.00134906
0.0013484
0.00134761
0.00134696
0.00134687
0.00134735
0.00134824
0.00134879
0.00134918
0.00134951
0.00134997
0.00135087
0.00135293
0.0013545
0.00135539
0.00135521
0.00135617
0.00135757
0.00135964
0.0013639
0.00136784
0.0013703
0.00137135
0.00137136
0.00137136
0.00137149
0.00137247
0.00137437
0.00137682
0.00137871
0.00138002
0.00138121
0.00138232
0.00138309
0.00138354
0.00138372
0.00138453
0.00138476
0.00138492
0.00138545
0.00138562
0.00138611
0.00138715
0.00138873
0.00138913
0.0013886
0.00138847
0.00138899
0.00138975
0.00139084
0.00139211
0.00139319
0.00136468
0.00136403
0.00136355
0.00136323
0.00136291
0.00136272
0.00136237
0.00136223
0.00136179
0.00136152
0.00136141
0.00136176
0.0013624
0.00136276
0.00136304
0.00136323
0.00136354
0.00136416
0.00136545
0.00136728
0.00136858
0.00136911
0.00136896
0.00137002
0.00137152
0.00137375
0.00137812
0.00138187
0.00138435
0.0013855
0.00138569
0.00138574
0.00138576
0.00138663
0.00138877
0.00139068
0.00139287
0.00139527
0.00139612
0.00139724
0.00139918
0.00140016
0.00140058
0.00140148
0.00140232
0.00140305
0.00140386
0.0014047
0.00140434
0.00140456
0.00140489
0.00140554
0.00140681
0.00140825
0.0014081
0.001408
0.00140821
0.00140877
0.00140936
0.0013808
0.00138065
0.00138032
0.00137991
0.00137985
0.00137993
0.00138001
0.00137966
0.00137909
0.00137912
0.00137932
0.00137988
0.00138023
0.00138036
0.00138054
0.00138074
0.00138121
0.00138205
0.00138361
0.00138499
0.00138596
0.00138615
0.00138607
0.00138719
0.00138871
0.00139106
0.00139539
0.00139892
0.00140135
0.00140259
0.00140296
0.00140315
0.00140323
0.00140412
0.00140628
0.00140882
0.00141075
0.00141295
0.00141536
0.00141656
0.00141826
0.00141964
0.00142066
0.00142162
0.00142237
0.00142313
0.00142447
0.00142627
0.0014272
0.00142876
0.00142919
0.00142952
0.00142983
0.00142985
0.00143162
0.00143148
0.00143261
0.001434
0.0014336
0.00140372
0.00140325
0.0014031
0.00140272
0.00140206
0.00140177
0.00140123
0.00140111
0.00140048
0.00140091
0.00140087
0.00140075
0.00140076
0.00140076
0.00140078
0.0014011
0.00140171
0.00140286
0.00140415
0.00140508
0.00140545
0.00140546
0.00140577
0.00140689
0.00140851
0.00141119
0.00141553
0.0014189
0.0014214
0.00142278
0.00142333
0.00142362
0.00142366
0.00142439
0.00142636
0.00142875
0.00143154
0.0014338
0.00143562
0.00143773
0.00143984
0.00144198
0.00144327
0.00144495
0.00144636
0.00144727
0.0014483
0.00144914
0.00145024
0.00145055
0.00145336
0.00145547
0.00145757
0.00145919
0.00146066
0.00146186
0.00146267
0.00146275
0.00146263
0.00142833
0.00142904
0.00142911
0.00143008
0.00143001
0.00142934
0.00142901
0.00142764
0.001427
0.00142692
0.00142691
0.00142671
0.00142662
0.00142655
0.00142672
0.0014272
0.00142799
0.00142892
0.0014296
0.00142989
0.00142993
0.00142994
0.00143046
0.00143168
0.00143323
0.00143627
0.0014403
0.00144348
0.00144596
0.00144745
0.0014482
0.00144877
0.00144908
0.00144999
0.00145204
0.0014546
0.00145735
0.00146067
0.00146317
0.00146496
0.00146671
0.0014693
0.00147137
0.00147266
0.00147494
0.00147683
0.00147853
0.00147999
0.00148138
0.00148218
0.0014837
0.00148514
0.00148703
0.00148878
0.00149042
0.00149222
0.0014934
0.00149455
0.00149723
0.00146213
0.00146214
0.0014601
0.00145787
0.00145757
0.00145671
0.00145732
0.00145602
0.00145755
0.00145733
0.00145578
0.00145608
0.00145586
0.00145643
0.00145652
0.00145669
0.001457
0.00145743
0.00145784
0.00145805
0.00145811
0.00145826
0.0014589
0.00146012
0.00146181
0.00146539
0.00146926
0.00147236
0.00147497
0.00147669
0.0014776
0.00147826
0.00147849
0.00147921
0.00148098
0.00148361
0.00148654
0.00148962
0.00149332
0.00149641
0.00149865
0.00150076
0.00150395
0.00150556
0.00150733
0.00150951
0.00151162
0.00151371
0.0015159
0.00151751
0.00151969
0.00152181
0.00152424
0.00152655
0.00152858
0.00153039
0.00153173
0.00153279
0.00153353
0.00149715
0.00149648
0.00149712
0.00149573
0.00149552
0.00149498
0.0014975
0.00149672
0.00149406
0.00149477
0.00149456
0.00149332
0.00149451
0.00149428