/*--------------------------------*- C++ -*----------------------------------*\
| =========                 |                                                 |
| \\      /  F ield         | OpenFOAM: The Open Source CFD Toolbox           |
|  \\    /   O peration     | Version:  2312                                  |
|   \\  /    A nd           | Website:  www.openfoam.com                      |
|    \\/     M anipulation  |                                                 |
\*---------------------------------------------------------------------------*/
FoamFile
{
    version     2.0;
    format      ascii;
    arch        "LSB;label=32;scalar=64";
    class       volScalarField;
    location    "400";
    object      p;
}
// * * * * * * * * * * * * * * * * * * * * * * * * * * * * * * * * * * * * * //

dimensions      [0 2 -2 0 0 0 0];

internalField   nonuniform List<scalar> 
76025
(
0.0467963
0.0419957
0.0370529
0.0321251
0.0272027
0.0222409
0.0170643
0.0121098
0.00703129
0.00204562
-0.00300844
-0.00810668
-0.0132415
-0.0183507
-0.0234877
-0.0286111
-0.0336099
-0.0386585
-0.04368
-0.0485603
-0.0533728
-0.0582661
-0.0630708
-0.0677651
-0.0724231
-0.0769638
-0.0815622
-0.0861468
-0.0904019
-0.0947989
-0.0987878
-0.102835
-0.107039
-0.111149
-0.115071
-0.118789
-0.122325
-0.126046
-0.129686
-0.133221
-0.136457
-0.139575
-0.14296
-0.146316
-0.149407
-0.15237
-0.155431
-0.158728
-0.161706
-0.164728
-0.167824
-0.170853
-0.174113
-0.17765
-0.181251
-0.184713
-0.188673
-0.192792
-0.197163
-0.201725
-0.206382
-0.211919
-0.218119
-0.224584
-0.231572
-0.239466
-0.247985
-0.258035
-0.270299
0.0458436
0.0407342
0.035578
0.0304087
0.0252107
0.0199582
0.0147099
0.00945867
0.00416552
-0.00114305
-0.00648477
-0.0118241
-0.0171551
-0.0224763
-0.0277638
-0.0330033
-0.0382531
-0.0434268
-0.0486007
-0.0536595
-0.0587255
-0.0637095
-0.0686242
-0.073464
-0.0782614
-0.0830025
-0.0876722
-0.0921768
-0.0965676
-0.100885
-0.105093
-0.109345
-0.113492
-0.117459
-0.121358
-0.125139
-0.128875
-0.132507
-0.136023
-0.139472
-0.142759
-0.145992
-0.149163
-0.152239
-0.155262
-0.15825
-0.161252
-0.16426
-0.167233
-0.170235
-0.173283
-0.176356
-0.179552
-0.182901
-0.186357
-0.189969
-0.193872
-0.197976
-0.202297
-0.20688
-0.211867
-0.217504
-0.223642
-0.230288
-0.237595
-0.24582
-0.2549
-0.265188
-0.276855
0.044972
0.0396089
0.0341902
0.0287479
0.02328
0.0178082
0.0123184
0.00679713
0.00125169
-0.00431518
-0.00988541
-0.0154418
-0.0209805
-0.0264942
-0.0319713
-0.0374307
-0.0428555
-0.0482366
-0.0535639
-0.058838
-0.0640478
-0.0691777
-0.0742366
-0.0792241
-0.0841359
-0.0889607
-0.0936673
-0.0982608
-0.102759
-0.10716
-0.111481
-0.115714
-0.119815
-0.123802
-0.127703
-0.131505
-0.135197
-0.138762
-0.142224
-0.145591
-0.148841
-0.15199
-0.155058
-0.158076
-0.16105
-0.163975
-0.16687
-0.169764
-0.172661
-0.175566
-0.178507
-0.181506
-0.184609
-0.187857
-0.191264
-0.194845
-0.198649
-0.202708
-0.207046
-0.211724
-0.216825
-0.222465
-0.228688
-0.235544
-0.243129
-0.251603
-0.261041
-0.271745
-0.283595
0.0439809
0.0383439
0.0326439
0.0269257
0.0211958
0.0154541
0.00969031
0.00390256
-0.00189959
-0.00770688
-0.0135089
-0.0192978
-0.0250677
-0.0308133
-0.0365281
-0.0422081
-0.0478422
-0.053423
-0.0589421
-0.064394
-0.0697701
-0.0750664
-0.0802791
-0.0854015
-0.0904257
-0.095346
-0.100157
-0.104858
-0.109447
-0.113921
-0.118281
-0.122523
-0.126648
-0.13066
-0.134562
-0.138347
-0.142004
-0.14553
-0.148932
-0.152216
-0.155385
-0.158449
-0.161429
-0.164339
-0.167187
-0.169985
-0.172752
-0.175512
-0.178276
-0.181057
-0.183884
-0.186784
-0.189786
-0.192927
-0.196231
-0.199726
-0.203455
-0.20746
-0.211777
-0.216465
-0.221603
-0.227285
-0.233586
-0.240575
-0.248353
-0.257069
-0.266827
-0.277875
-0.290013
0.0426758
0.0367423
0.0307459
0.0247348
0.0187165
0.0126875
0.006641
0.000576565
-0.0054979
-0.0115717
-0.0176356
-0.0236822
-0.0297044
-0.0356955
-0.0416477
-0.0475522
-0.0534014
-0.0591871
-0.0649016
-0.0705373
-0.0760876
-0.0815459
-0.0869053
-0.0921593
-0.0973024
-0.10233
-0.107237
-0.112019
-0.11667
-0.12119
-0.125579
-0.129838
-0.133968
-0.137968
-0.141838
-0.145575
-0.149169
-0.152617
-0.155924
-0.159102
-0.162161
-0.165111
-0.167966
-0.170741
-0.173449
-0.176108
-0.178735
-0.181348
-0.183966
-0.186606
-0.189294
-0.192057
-0.194925
-0.197932
-0.20111
-0.204492
-0.20812
-0.212038
-0.216295
-0.220952
-0.226085
-0.23178
-0.238124
-0.245206
-0.253136
-0.26206
-0.272095
-0.283477
-0.296106
0.041043
0.0347946
0.0284843
0.0221623
0.0158368
0.00950527
0.00316055
-0.00319813
-0.00956249
-0.0159208
-0.0222628
-0.02858
-0.0348649
-0.0411094
-0.047305
-0.0534427
-0.0595142
-0.0655112
-0.0714254
-0.0772489
-0.0829738
-0.0885926
-0.0940978
-0.0994834
-0.104743
-0.109872
-0.114863
-0.119712
-0.124416
-0.128973
-0.133382
-0.137645
-0.14176
-0.145728
-0.149551
-0.153225
-0.156741
-0.160095
-0.163295
-0.166354
-0.169285
-0.172098
-0.174807
-0.177426
-0.179973
-0.182464
-0.184918
-0.187354
-0.189793
-0.192257
-0.194771
-0.197363
-0.200065
-0.202908
-0.205929
-0.209165
-0.212657
-0.216454
-0.220613
-0.225195
-0.230278
-0.235946
-0.242293
-0.249421
-0.25745
-0.266529
-0.276794
-0.288469
-0.301513
0.0390619
0.0324792
0.0258363
0.0191854
0.0125353
0.00588369
-0.000776912
-0.00744696
-0.0141172
-0.0207751
-0.0274092
-0.0340103
-0.0405703
-0.0470804
-0.0535313
-0.0599136
-0.0662181
-0.0724356
-0.0785573
-0.0845744
-0.0904784
-0.0962609
-0.101914
-0.107432
-0.112806
-0.118032
-0.123102
-0.128014
-0.132763
-0.137347
-0.141764
-0.146015
-0.150101
-0.154022
-0.157781
-0.161373
-0.164787
-0.168023
-0.171089
-0.174001
-0.176772
-0.179416
-0.181947
-0.184379
-0.186731
-0.189022
-0.191271
-0.1935
-0.19573
-0.197986
-0.200294
-0.202681
-0.205181
-0.207827
-0.210657
-0.213708
-0.217028
-0.220669
-0.224687
-0.22915
-0.234132
-0.239724
-0.246023
-0.253143
-0.261212
-0.270385
-0.280812
-0.292716
-0.306119
0.0366743
0.029736
0.0227394
0.0157388
0.00874362
0.0017518
-0.00524406
-0.012244
-0.0192381
-0.026213
-0.0331561
-0.0400573
-0.0469075
-0.0536972
-0.0604163
-0.0670548
-0.073603
-0.0800505
-0.0863878
-0.0926051
-0.0986927
-0.104642
-0.110444
-0.116092
-0.121578
-0.126896
-0.132039
-0.137003
-0.141785
-0.146381
-0.150791
-0.155014
-0.15905
-0.162904
-0.166575
-0.170058
-0.173343
-0.176431
-0.179334
-0.182068
-0.184648
-0.187091
-0.18941
-0.191622
-0.193747
-0.195804
-0.197816
-0.199803
-0.20179
-0.203802
-0.205866
-0.208012
-0.210273
-0.212684
-0.215284
-0.218115
-0.221225
-0.224666
-0.228498
-0.232788
-0.237615
-0.243073
-0.249264
-0.256311
-0.264347
-0.273534
-0.28403
-0.296063
-0.30982
0.0338169
0.0264993
0.0191255
0.0117516
0.00438796
-0.00296675
-0.0103199
-0.0176712
-0.0250101
-0.0323215
-0.0395923
-0.0468113
-0.0539684
-0.061053
-0.0680542
-0.0749613
-0.0817631
-0.0884488
-0.0950079
-0.10143
-0.107705
-0.113822
-0.119774
-0.12555
-0.131143
-0.136547
-0.141754
-0.14676
-0.15156
-0.156152
-0.160536
-0.16471
-0.168676
-0.172436
-0.175993
-0.179338
-0.182463
-0.185372
-0.188077
-0.190599
-0.192955
-0.19516
-0.197231
-0.199186
-0.201045
-0.20283
-0.204564
-0.20627
-0.207974
-0.209702
-0.211484
-0.21335
-0.215335
-0.217473
-0.219806
-0.222377
-0.225231
-0.228423
-0.232013
-0.236071
-0.240681
-0.245937
-0.251948
-0.258844
-0.266759
-0.275867
-0.28632
-0.298335
-0.311959
0.0304199
0.0226979
0.0149218
0.00715017
-0.000606245
-0.00834789
-0.0160818
-0.0238074
-0.0315128
-0.039182
-0.0468005
-0.0543561
-0.0618378
-0.0692341
-0.0765334
-0.0837232
-0.0907911
-0.0977253
-0.104514
-0.111147
-0.117612
-0.123899
-0.129998
-0.135899
-0.141594
-0.147075
-0.152336
-0.15737
-0.162174
-0.166745
-0.171081
-0.175182
-0.179051
-0.18269
-0.1861
-0.189272
-0.192201
-0.194893
-0.197365
-0.199637
-0.201728
-0.203656
-0.205436
-0.207091
-0.208642
-0.210112
-0.211527
-0.212912
-0.214293
-0.215697
-0.217157
-0.218703
-0.220371
-0.222196
-0.224216
-0.226475
-0.229019
-0.231903
-0.23519
-0.238952
-0.243275
-0.248253
-0.254001
-0.26065
-0.268343
-0.277256
-0.287554
-0.299467
-0.313045
0.0263989
0.0182445
0.0100387
0.00184224
-0.00633361
-0.0144884
-0.0226284
-0.0307524
-0.0388477
-0.0468969
-0.0548844
-0.0627967
-0.0706216
-0.0783469
-0.0859595
-0.0934457
-0.100792
-0.107987
-0.115015
-0.121866
-0.128527
-0.134986
-0.141232
-0.147255
-0.153046
-0.158597
-0.163899
-0.168948
-0.173737
-0.178266
-0.182531
-0.186534
-0.190276
-0.193761
-0.196988
-0.199948
-0.202638
-0.205071
-0.207264
-0.209239
-0.211018
-0.212618
-0.214061
-0.215367
-0.216564
-0.217674
-0.218725
-0.219742
-0.220754
-0.22179
-0.222882
-0.224062
-0.225363
-0.226821
-0.228474
-0.230366
-0.232543
-0.235062
-0.237984
-0.241382
-0.245339
-0.249954
-0.255341
-0.261631
-0.268977
-0.277551
-0.287553
-0.299191
-0.312716
0.0216603
0.0130431
0.00437756
-0.0042734
-0.0128975
-0.0214933
-0.0300669
-0.0386166
-0.0471283
-0.0555832
-0.0639643
-0.072257
-0.0804474
-0.0885218
-0.0964659
-0.104264
-0.111903
-0.119367
-0.126642
-0.133716
-0.140576
-0.147208
-0.153601
-0.159741
-0.165621
-0.17123
-0.176559
-0.181603
-0.186357
-0.190818
-0.194984
-0.198858
-0.20244
-0.205735
-0.20874
-0.211447
-0.213856
-0.215983
-0.217847
-0.219473
-0.220885
-0.222104
-0.223154
-0.22406
-0.224848
-0.225545
-0.226177
-0.226773
-0.227363
-0.227977
-0.228647
-0.229405
-0.230284
-0.231321
-0.232554
-0.234026
-0.235782
-0.237875
-0.240364
-0.24332
-0.246825
-0.250974
-0.255885
-0.261686
-0.268537
-0.276609
-0.286133
-0.29725
-0.310627
0.0160899
0.00697686
-0.00218067
-0.011318
-0.0204213
-0.0294881
-0.0385247
-0.0475287
-0.056485
-0.0653734
-0.0741752
-0.0828738
-0.0914541
-0.0999007
-0.108197
-0.116327
-0.124274
-0.132022
-0.139555
-0.146861
-0.153923
-0.160729
-0.167265
-0.173518
-0.179479
-0.185135
-0.190477
-0.195499
-0.200194
-0.204561
-0.208597
-0.212304
-0.215686
-0.218746
-0.221481
-0.223883
-0.225956
-0.227719
-0.229196
-0.230414
-0.231398
-0.232175
-0.232771
-0.233216
-0.233534
-0.233754
-0.233904
-0.234015
-0.23412
-0.234251
-0.23444
-0.234721
-0.235127
-0.235693
-0.236455
-0.237451
-0.238725
-0.240323
-0.242302
-0.244728
-0.24768
-0.251249
-0.255547
-0.260707
-0.266894
-0.274294
-0.283165
-0.293608
-0.306069
0.009552
-9.28923e-05
-0.00977857
-0.0194375
-0.0290549
-0.0386269
-0.0481594
-0.0576494
-0.0670807
-0.0764314
-0.0856803
-0.0948096
-0.103803
-0.112643
-0.121312
-0.129792
-0.138065
-0.146114
-0.15392
-0.161468
-0.168741
-0.175723
-0.182401
-0.188761
-0.19479
-0.200476
-0.205811
-0.210786
-0.215396
-0.219636
-0.223506
-0.227008
-0.230144
-0.232919
-0.235327
-0.237364
-0.239041
-0.240378
-0.241404
-0.242149
-0.242642
-0.24291
-0.242981
-0.242886
-0.242654
-0.242317
-0.241909
-0.241464
-0.241019
-0.240606
-0.24026
-0.240012
-0.239893
-0.239934
-0.240167
-0.240626
-0.241349
-0.242379
-0.243765
-0.245566
-0.247852
-0.25071
-0.254248
-0.258597
-0.263928
-0.270441
-0.278451
-0.288204
-0.300826
0.00189166
-0.00832489
-0.0185778
-0.0287971
-0.038967
-0.0490824
-0.0591481
-0.0691605
-0.0791015
-0.0889472
-0.0986747
-0.108264
-0.117698
-0.126956
-0.136021
-0.144872
-0.153489
-0.161853
-0.169945
-0.177745
-0.185234
-0.192396
-0.199214
-0.205672
-0.211757
-0.217457
-0.222761
-0.227662
-0.232154
-0.236231
-0.239894
-0.243142
-0.245982
-0.248414
-0.250433
-0.252038
-0.253246
-0.254081
-0.254578
-0.254768
-0.254683
-0.254352
-0.253807
-0.25308
-0.252209
-0.251234
-0.250193
-0.249126
-0.248069
-0.247054
-0.246113
-0.245276
-0.24457
-0.244025
-0.243667
-0.243525
-0.24363
-0.244015
-0.244721
-0.245796
-0.247302
-0.249315
-0.251939
-0.255301
-0.259576
-0.26496
-0.271779
-0.280132
-0.290961
-0.007077
-0.0179084
-0.0287717
-0.0395944
-0.050359
-0.0610591
-0.0716989
-0.0822735
-0.0927631
-0.103141
-0.113384
-0.123468
-0.133375
-0.143083
-0.152571
-0.161817
-0.1708
-0.179496
-0.187886
-0.195947
-0.20366
-0.211004
-0.217961
-0.224513
-0.230646
-0.236345
-0.241599
-0.246398
-0.250735
-0.254606
-0.25801
-0.260948
-0.263425
-0.265441
-0.26699
-0.268078
-0.268727
-0.268967
-0.268835
-0.268367
-0.267598
-0.266564
-0.265302
-0.263851
-0.262256
-0.26056
-0.258807
-0.257037
-0.255286
-0.253591
-0.251981
-0.250486
-0.24913
-0.247938
-0.24693
-0.246126
-0.245546
-0.245215
-0.245157
-0.245411
-0.246023
-0.247062
-0.248621
-0.250825
-0.253856
-0.257924
-0.263416
-0.270376
-0.280149
-0.0175849
-0.0290787
-0.0406004
-0.0520742
-0.0634808
-0.0748121
-0.0860712
-0.0972522
-0.108333
-0.119285
-0.130082
-0.140699
-0.151115
-0.161305
-0.171247
-0.180916
-0.190287
-0.199336
-0.208039
-0.216373
-0.224315
-0.231842
-0.238934
-0.245571
-0.251735
-0.257411
-0.262585
-0.267245
-0.271385
-0.274998
-0.278084
-0.280644
-0.282683
-0.284198
-0.285188
-0.285665
-0.285654
-0.285193
-0.284322
-0.283082
-0.281514
-0.27966
-0.277565
-0.275277
-0.272846
-0.27032
-0.267748
-0.265174
-0.26264
-0.260181
-0.257828
-0.255608
-0.253542
-0.251646
-0.249932
-0.24841
-0.247089
-0.245977
-0.245087
-0.244438
-0.244061
-0.244008
-0.244361
-0.245241
-0.246846
-0.249427
-0.253481
-0.25917
-0.268267
-0.0298893
-0.0420983
-0.0543315
-0.06651
-0.0786122
-0.0906276
-0.102558
-0.114396
-0.126118
-0.137692
-0.149088
-0.160282
-0.171247
-0.181958
-0.192389
-0.202512
-0.212299
-0.221725
-0.230761
-0.239382
-0.247562
-0.255275
-0.262498
-0.26921
-0.275389
-0.281016
-0.286077
-0.290559
-0.294451
-0.297748
-0.300447
-0.302552
-0.304065
-0.304983
-0.305307
-0.305057
-0.304264
-0.302971
-0.301224
-0.299069
-0.296556
-0.293735
-0.29066
-0.28739
-0.283984
-0.280498
-0.276988
-0.273504
-0.270089
-0.266781
-0.263611
-0.260601
-0.257766
-0.255114
-0.252649
-0.250369
-0.248266
-0.246336
-0.244568
-0.242963
-0.241525
-0.240287
-0.239313
-0.238727
-0.238747
-0.23968
-0.242128
-0.246396
-0.25445
-0.0443631
-0.0573458
-0.0703507
-0.083295
-0.0961534
-0.108913
-0.121573
-0.134126
-0.146544
-0.158793
-0.170842
-0.182661
-0.194222
-0.205498
-0.216458
-0.227071
-0.237309
-0.247139
-0.256532
-0.265458
-0.273887
-0.281792
-0.289145
-0.29592
-0.302094
-0.307646
-0.312556
-0.31681
-0.320396
-0.323306
-0.325537
-0.327091
-0.327968
-0.328165
-0.32769
-0.32657
-0.324843
-0.322557
-0.319766
-0.316524
-0.312889
-0.308922
-0.304693
-0.300269
-0.295723
-0.291123
-0.286533
-0.282009
-0.2776
-0.273347
-0.269278
-0.265411
-0.261756
-0.258312
-0.255071
-0.252015
-0.249124
-0.246368
-0.243715
-0.241136
-0.238606
-0.236134
-0.233772
-0.231652
-0.230021
-0.229232
-0.229968
-0.232586
-0.239378
-0.0614442
-0.0752685
-0.089115
-0.102897
-0.116585
-0.13016
-0.143622
-0.15696
-0.170142
-0.183133
-0.195897
-0.208402
-0.220616
-0.232508
-0.244045
-0.255192
-0.265915
-0.276181
-0.285954
-0.295202
-0.303891
-0.311988
-0.319463
-0.326286
-0.332429
-0.337868
-0.342579
-0.346545
-0.349751
-0.352187
-0.353848
-0.354735
-0.354843
-0.354173
-0.352742
-0.350583
-0.347742
-0.344274
-0.340237
-0.335697
-0.330724
-0.325394
-0.319791
-0.314001
-0.308111
-0.302202
-0.296355
-0.290635
-0.285101
-0.279793
-0.274742
-0.26996
-0.26545
-0.261199
-0.257186
-0.253378
-0.249732
-0.246194
-0.242701
-0.23919
-0.23561
-0.23195
-0.228261
-0.224685
-0.221495
-0.219091
-0.218262
-0.219628
-0.225431
-0.0818998
-0.0966421
-0.111408
-0.126106
-0.140697
-0.155161
-0.169494
-0.183682
-0.197693
-0.211486
-0.225023
-0.238269
-0.251189
-0.263747
-0.275906
-0.287627
-0.298873
-0.309604
-0.319782
-0.329369
-0.338327
-0.346619
-0.354208
-0.361062
-0.367146
-0.372432
-0.376893
-0.380506
-0.383252
-0.385118
-0.386096
-0.386182
-0.38537
-0.383665
-0.38109
-0.377685
-0.373501
-0.368601
-0.363054
-0.356938
-0.35034
-0.343358
-0.336095
-0.32866
-0.321161
-0.313703
-0.306382
-0.299283
-0.292472
-0.285997
-0.279885
-0.274144
-0.268764
-0.26372
-0.258975
-0.254479
-0.250167
-0.245958
-0.241759
-0.237474
-0.233028
-0.228403
-0.223636
-0.218862
-0.214359
-0.210712
-0.208924
-0.210028
-0.214762
-0.106298
-0.122023
-0.137774
-0.153453
-0.169015
-0.184433
-0.199703
-0.214805
-0.229706
-0.244361
-0.258729
-0.272771
-0.286449
-0.299722
-0.31255
-0.324888
-0.336694
-0.347924
-0.358535
-0.368482
-0.377723
-0.386215
-0.393916
-0.400786
-0.406787
-0.411882
-0.416039
-0.419229
-0.421428
-0.422616
-0.422783
-0.421918
-0.420014
-0.417081
-0.413145
-0.408251
-0.402457
-0.395836
-0.388468
-0.380449
-0.371889
-0.36291
-0.353644
-0.344231
-0.334809
-0.325515
-0.316472
-0.307786
-0.29954
-0.291787
-0.284553
-0.277832
-0.271599
-0.26581
-0.260415
-0.255352
-0.250544
-0.24589
-0.241273
-0.236558
-0.231637
-0.226456
-0.221001
-0.215422
-0.210138
-0.206078
-0.204122
-0.205051
-0.207864
-0.13538
-0.152152
-0.168966
-0.185706
-0.202317
-0.218771
-0.235057
-0.251156
-0.267027
-0.282626
-0.297906
-0.312824
-0.327338
-0.341401
-0.354969
-0.367992
-0.380422
-0.392211
-0.403307
-0.413662
-0.423225
-0.431947
-0.43978
-0.446675
-0.452587
-0.457473
-0.46129
-0.464002
-0.465576
-0.465985
-0.465208
-0.463226
-0.460029
-0.455625
-0.450043
-0.443334
-0.435565
-0.42682
-0.417199
-0.40682
-0.395822
-0.384364
-0.372618
-0.360768
-0.348999
-0.337491
-0.326409
-0.315888
-0.306031
-0.296896
-0.288495
-0.280804
-0.273772
-0.267342
-0.261462
-0.256084
-0.251137
-0.246489
-0.241962
-0.237312
-0.232342
-0.226974
-0.221258
-0.215576
-0.210568
-0.206842
-0.204782
-0.205164
-0.207124
-0.167511
-0.185459
-0.203428
-0.221328
-0.239095
-0.256688
-0.274094
-0.29129
-0.308233
-0.324875
-0.341164
-0.357053
-0.372494
-0.387437
-0.401831
-0.415622
-0.428755
-0.441175
-0.452825
-0.463645
-0.47358
-0.482572
-0.49056
-0.497492
-0.503314
-0.507969
-0.511406
-0.513577
-0.51444
-0.513958
-0.5121
-0.508847
-0.504188
-0.498123
-0.490681
-0.481916
-0.471902
-0.460732
-0.448523
-0.435417
-0.421586
-0.407231
-0.392575
-0.377862
-0.36334
-0.34925
-0.33581
-0.3232
-0.311542
-0.300895
-0.291255
-0.282571
-0.27478
-0.267841
-0.261758
-0.256551
-0.252139
-0.248255
-0.244469
-0.240301
-0.235547
-0.230408
-0.225322
-0.22063
-0.216335
-0.212626
-0.210362
-0.210414
-0.212275
-0.207163
-0.226368
-0.245682
-0.264916
-0.284003
-0.302906
-0.321607
-0.340078
-0.358276
-0.376144
-0.393629
-0.410678
-0.427235
-0.443243
-0.458644
-0.473377
-0.487383
-0.5006
-0.512964
-0.52441
-0.534873
-0.544283
-0.552572
-0.559676
-0.565526
-0.570058
-0.573209
-0.574914
-0.575112
-0.573745
-0.570755
-0.566094
-0.559731
-0.551664
-0.541917
-0.53054
-0.517609
-0.503233
-0.487553
-0.470748
-0.453045
-0.434709
-0.416045
-0.397386
-0.379081
-0.361473
-0.344879
-0.329559
-0.315682
-0.303304
-0.292366
-0.282724
-0.274227
-0.266832
-0.260675
-0.255967
-0.252663
-0.250265
-0.247987
-0.245154
-0.241749
-0.238108
-0.234305
-0.230208
-0.22595
-0.222175
-0.21973
-0.219217
-0.220411
-0.242585
-0.263417
-0.284112
-0.304719
-0.325176
-0.345419
-0.365427
-0.385173
-0.404612
-0.423687
-0.442342
-0.460514
-0.478143
-0.49517
-0.51153
-0.527158
-0.541987
-0.555945
-0.568959
-0.580957
-0.591859
-0.601591
-0.610077
-0.61724
-0.622999
-0.627282
-0.630009
-0.631099
-0.630471
-0.628045
-0.623756
-0.617553
-0.609421
-0.599379
-0.587461
-0.573701
-0.558149
-0.540884
-0.522036
-0.501796
-0.480424
-0.458246
-0.435655
-0.413098
-0.391064
-0.370055
-0.350553
-0.332964
-0.317545
-0.304321
-0.293051
-0.283248
-0.274383
-0.266257
-0.259304
-0.254344
-0.251827
-0.251333
-0.251774
-0.251977
-0.251163
-0.249069
-0.245722
-0.241509
-0.237058
-0.233132
-0.230447
-0.229432
-0.230091
-0.303259
-0.32557
-0.348265
-0.370825
-0.393192
-0.41535
-0.437277
-0.458943
-0.480293
-0.501265
-0.521789
-0.5418
-0.561234
-0.580025
-0.598099
-0.615383
-0.631796
-0.647257
-0.661682
-0.674987
-0.687083
-0.697884
-0.707303
-0.715249
-0.721639
-0.726386
-0.729402
-0.730574
-0.729737
-0.726696
-0.721262
-0.7133
-0.702756
-0.689648
-0.674051
-0.656062
-0.635762
-0.613237
-0.588613
-0.562093
-0.533972
-0.504647
-0.474622
-0.444514
-0.415039
-0.386999
-0.361242
-0.338581
-0.319639
-0.304672
-0.293356
-0.284624
-0.276895
-0.269091
-0.261771
-0.256651
-0.254863
-0.255899
-0.258143
-0.25994
-0.260153
-0.258368
-0.254893
-0.250613
-0.246488
-0.243129
-0.240775
-0.239636
-0.240131
-0.323192
-0.347195
-0.370625
-0.394159
-0.417668
-0.440953
-0.463965
-0.486694
-0.509092
-0.531083
-0.552593
-0.573551
-0.593888
-0.613533
-0.632412
-0.650446
-0.667549
-0.683633
-0.698606
-0.712369
-0.724828
-0.735879
-0.745418
-0.753348
-0.759578
-0.764047
-0.766744
-0.767695
-0.766803
-0.76381
-0.758441
-0.75047
-0.739719
-0.726041
-0.709342
-0.689616
-0.666885
-0.641181
-0.612573
-0.581208
-0.547354
-0.511431
-0.474067
-0.436153
-0.398862
-0.36365
-0.332198
-0.306217
-0.287134
-0.27568
-0.271319
-0.271843
-0.273666
-0.273619
-0.271498
-0.269246
-0.268396
-0.268701
-0.268881
-0.268007
-0.265945
-0.262803
-0.258968
-0.255168
-0.252055
-0.249864
-0.248476
-0.247977
-0.24923
-0.431496
-0.458743
-0.486446
-0.513759
-0.540614
-0.567161
-0.593467
-0.619504
-0.645197
-0.670462
-0.695215
-0.719373
-0.742857
-0.765584
-0.787472
-0.808427
-0.828354
-0.847148
-0.864701
-0.8809
-0.895623
-0.908742
-0.920118
-0.929595
-0.93699
-0.94208
-0.944583
-0.944193
-0.940766
-0.934377
-0.92515
-0.913134
-0.898256
-0.880318
-0.858997
-0.833897
-0.804711
-0.771317
-0.733787
-0.692367
-0.647489
-0.599819
-0.550316
-0.500263
-0.451289
-0.405329
-0.364463
-0.330664
-0.305429
-0.289296
-0.281487
-0.279863
-0.281262
-0.282745
-0.282744
-0.281349
-0.279208
-0.276743
-0.273982
-0.27083
-0.267229
-0.263191
-0.259105
-0.255646
-0.253313
-0.252081
-0.251434
-0.251328
-0.253384
0.0655239
0.0699224
0.0745325
0.0793391
0.0843973
0.0897662
0.0954439
0.101307
0.107327
0.11362
0.120205
0.126998
0.133853
0.141213
0.148202
0.155341
0.162099
0.16917
0.175876
0.182372
0.189017
0.194657
0.199842
0.204365
0.208286
0.2115
0.213635
0.214964
0.215576
0.215097
0.213441
0.211073
0.207986
0.204161
0.199212
0.193703
0.187703
0.181093
0.174072
0.166898
0.15929
0.151529
0.144055
0.136711
0.128906
0.121619
0.11422
0.107279
0.100519
0.0940816
0.0879907
0.0822057
0.0768254
0.0717489
0.0670152
0.0623616
0.058197
0.0543093
0.0507788
0.0656278
0.0702082
0.0750463
0.0801252
0.0854692
0.09109
0.0969919
0.103146
0.109546
0.116207
0.123097
0.130185
0.137438
0.144883
0.152405
0.159847
0.167283
0.174619
0.181789
0.188598
0.195245
0.201333
0.206804
0.211641
0.215734
0.219012
0.221393
0.22273
0.223309
0.22278
0.221086
0.218641
0.215395
0.211213
0.20615
0.200383
0.194042
0.18715
0.17981
0.172149
0.164212
0.156181
0.148206
0.140129
0.132165
0.124357
0.116759
0.109469
0.102411
0.0956451
0.0892319
0.0831653
0.0774014
0.0720106
0.0669097
0.0621926
0.0578492
0.0538348
0.0501283
0.0654914
0.0703111
0.0753894
0.0807466
0.0863845
0.0923089
0.0985131
0.104992
0.111745
0.118767
0.126026
0.133481
0.141114
0.1489
0.156781
0.164712
0.172627
0.180399
0.187937
0.19516
0.202043
0.20847
0.214271
0.219375
0.223691
0.227122
0.229625
0.23108
0.231606
0.231038
0.22935
0.226783
0.223261
0.218809
0.213494
0.20745
0.200751
0.193514
0.185809
0.177774
0.169482
0.161004
0.152481
0.144003
0.13564
0.127465
0.119501
0.111794
0.104374
0.0972749
0.0905332
0.0841408
0.0780981
0.0724066
0.0671057
0.0621877
0.0576255
0.053399
0.0494902
0.0651338
0.0702038
0.0755512
0.0811935
0.0871326
0.0933734
0.0999131
0.106747
0.113871
0.121274
0.128932
0.136813
0.144887
0.15311
0.161416
0.169777
0.178101
0.186301
0.194266
0.201935
0.209209
0.215966
0.222087
0.227471
0.232031
0.235662
0.238302
0.239854
0.240369
0.23977
0.238028
0.23531
0.231553
0.22686
0.22126
0.21489
0.207826
0.200187
0.192064
0.183594
0.174861
0.165945
0.156978
0.14808
0.139279
0.130663
0.122272
0.114151
0.106345
0.0988851
0.0917949
0.085083
0.0787582
0.0728185
0.0672685
0.0620966
0.0572902
0.0528335
0.0487248
0.0646425
0.0699807
0.0756119
0.0815532
0.0878072
0.0943793
0.10127
0.108475
0.115988
0.123793
0.131871
0.140191
0.148717
0.157398
0.166172
0.174985
0.183755
0.192402
0.200824
0.208936
0.216624
0.223752
0.230214
0.235901
0.240718
0.244561
0.247359
0.249004
0.249532
0.248898
0.247071
0.244196
0.240231
0.23528
0.229379
0.222654
0.215202
0.207137
0.198566
0.189621
0.18041
0.171033
0.161605
0.152225
0.142951
0.133863
0.12502
0.116471
0.108258
0.100411
0.0929523
0.0858953
0.0792455
0.0730028
0.067163
0.0617194
0.0566644
0.05198
0.0476645
0.063996
0.0696209
0.075555
0.0818161
0.0884072
0.095334
0.102597
0.110194
0.118116
0.126348
0.134866
0.143641
0.152634
0.161794
0.171062
0.180368
0.189632
0.198762
0.207659
0.216224
0.224337
0.231867
0.238696
0.244708
0.249796
0.253859
0.256822
0.258566
0.259116
0.258444
0.256526
0.25349
0.249308
0.244074
0.237848
0.230747
0.222879
0.214364
0.20532
0.195877
0.186157
0.176271
0.166326
0.156422
0.14664
0.137055
0.127734
0.118727
0.110075
0.10181
0.0939546
0.0865217
0.0795175
0.0729432
0.0667959
0.061069
0.0557535
0.0508294
0.0462941
0.0631355
0.0690662
0.0753239
0.0819273
0.0888798
0.0961874
0.103851
0.111867
0.120226
0.128912
0.137902
0.147164
0.156657
0.166328
0.176117
0.185948
0.195736
0.205383
0.214786
0.223832
0.232399
0.240356
0.247575
0.253931
0.259309
0.263603
0.266735
0.268585
0.26916
0.268448
0.266434
0.263224
0.258805
0.253268
0.24669
0.239186
0.230873
0.221875
0.212322
0.202347
0.192079
0.181635
0.17113
0.160669
0.150342
0.140228
0.130393
0.120892
0.111768
0.103053
0.0947713
0.0869372
0.0795578
0.0726342
0.0661629
0.0601359
0.0545432
0.0493631
0.0445931
0.0620198
0.0682762
0.0748786
0.0818468
0.0891845
0.096898
0.104988
0.113452
0.122279
0.131452
0.140947
0.150732
0.160761
0.17098
0.181324
0.191713
0.202058
0.212258
0.2222
0.231764
0.24082
0.249231
0.256863
0.263584
0.269272
0.273813
0.277122
0.279081
0.279685
0.27893
0.276806
0.273407
0.268731
0.262871
0.255914
0.247977
0.239183
0.229666
0.219562
0.209013
0.198153
0.187111
0.176007
0.164951
0.154041
0.143358
0.132972
0.122941
0.113311
0.104114
0.0953776
0.0871154
0.0793352
0.072038
0.0652196
0.0588707
0.0529801
0.0475253
0.0425039
0.0606112
0.0672152
0.0741853
0.0815418
0.0892894
0.097435
0.10598
0.11492
0.124245
0.133938
0.143974
0.154315
0.164918
0.175722
0.186659
0.197645
0.208587
0.219376
0.229894
0.240012
0.249592
0.258489
0.266562
0.273673
0.27969
0.284494
0.287992
0.290066
0.290699
0.289895
0.287651
0.284046
0.279094
0.272886
0.26552
0.257116
0.247805
0.237728
0.227033
0.215866
0.204373
0.192689
0.180942
0.169249
0.157712
0.146417
0.13544
0.12484
0.114667
0.104956
0.095732
0.0870111
0.078801
0.0711025
0.0639106
0.0572154
0.051005
0.0452559
0.0399654
0.0588586
0.0658334
0.0731957
0.0809671
0.0891523
0.0977591
0.106789
0.116238
0.126096
0.136344
0.146955
0.157892
0.169105
0.180534
0.192105
0.203731
0.21531
0.22673
0.237863
0.248572
0.258711
0.268128
0.276673
0.2842
0.29057
0.295655
0.299354
0.301548
0.302212
0.301355
0.298978
0.295152
0.289902
0.28332
0.275513
0.266605
0.256738
0.246061
0.234729
0.222899
0.210726
0.198354
0.185917
0.173538
0.161326
0.149373
0.137759
0.126548
0.115791
0.105524
0.0957762
0.0865623
0.0778904
0.0697611
0.062169
0.055103
0.0485506
0.0424869
0.0369088
0.0566974
0.0640692
0.0718515
0.0800669
0.0887207
0.0978211
0.10737
0.117363
0.12779
0.138632
0.149858
0.161431
0.173298
0.185396
0.197645
0.209954
0.222215
0.234308
0.246098
0.257439
0.268175
0.278149
0.287199
0.295172
0.301918
0.307304
0.311218
0.313538
0.314235
0.313319
0.310797
0.306733
0.301162
0.294178
0.285895
0.276446
0.26598
0.254656
0.24264
0.230098
0.217193
0.204079
0.190898
0.177781
0.164844
0.152184
0.139885
0.128016
0.116629
0.105765
0.0954517
0.0857067
0.0765377
0.067945
0.0599224
0.0524583
0.0455391
0.0391383
0.0332521
0.054059
0.0618556
0.0700874
0.078778
0.0879333
0.0975621
0.107667
0.118243
0.129279
0.140755
0.152641
0.164894
0.177462
0.190274
0.20325
0.21629
0.229281
0.242094
0.254586
0.266603
0.27798
0.288549
0.298141
0.306591
0.31374
0.319447
0.323589
0.326044
0.326774
0.325794
0.323116
0.318795
0.312878
0.305461
0.296666
0.286633
0.275522
0.263502
0.250748
0.237438
0.223744
0.20983
0.195848
0.181935
0.168215
0.154792
0.141756
0.129178
0.117115
0.105608
0.094687
0.0843707
0.074667
0.0655758
0.0570903
0.0491981
0.0418844
0.0351214
0.0289044
0.0508603
0.0591121
0.0678254
0.0770247
0.0867168
0.0969112
0.10761
0.11881
0.130499
0.142656
0.155248
0.168231
0.181548
0.195128
0.208882
0.222705
0.236478
0.250062
0.263308
0.276049
0.288113
0.29932
0.309492
0.318453
0.326034
0.332084
0.336471
0.339068
0.339833
0.338784
0.335934
0.331337
0.325046
0.317162
0.307813
0.297152
0.285345
0.272574
0.259024
0.244885
0.230341
0.215564
0.200718
0.185948
0.171384
0.157138
0.143305
0.129961
0.117167
0.104967
0.0933913
0.0824597
0.0721803
0.0625526
0.0535692
0.0452165
0.0374787
0.0303262
0.0237534
0.0470007
0.0557403
0.0649696
0.0747142
0.0849818
0.0957826
0.107119
0.118988
0.131376
0.144262
0.157611
0.171378
0.1855
0.199902
0.214491
0.229154
0.243765
0.258178
0.272231
0.285751
0.298552
0.310445
0.321239
0.330747
0.338792
0.345209
0.349858
0.352606
0.353407
0.352281
0.349245
0.344349
0.337654
0.329265
0.31932
0.307979
0.295422
0.281841
0.267433
0.252399
0.236935
0.221226
0.205447
0.189751
0.174277
0.159144
0.144451
0.130281
0.116697
0.103747
0.0914631
0.0798662
0.0689646
0.0587576
0.0492369
0.0403877
0.032193
0.0246213
0.0176658
0.0423573
0.051621
0.0614049
0.0717352
0.0826208
0.0940727
0.106094
0.118681
0.13182
0.145489
0.159651
0.174258
0.189244
0.204529
0.220014
0.23558
0.251091
0.266393
0.281314
0.295669
0.309262
0.321891
0.333354
0.343452
0.351993
0.358805
0.363734
0.366642
0.367481
0.366271
0.363032
0.357812
0.350679
0.341745
0.331155
0.319081
0.305713
0.291256
0.275923
0.259924
0.243467
0.226752
0.209961
0.193263
0.176804
0.160712
0.145091
0.130028
0.115591
0.101831
0.0887819
0.0764655
0.0648909
0.0540572
0.0439554
0.0345697
0.0258815
0.0178577
0.01049
0.0367897
0.0466176
0.0569979
0.0679578
0.0795074
0.0916587
0.104415
0.117773
0.131719
0.146229
0.161264
0.176773
0.192688
0.208921
0.225369
0.241905
0.258384
0.274642
0.290498
0.305752
0.320197
0.333619
0.345801
0.356531
0.365606
0.372842
0.378072
0.381151
0.382028
0.380726
0.377265
0.371694
0.364088
0.354564
0.343277
0.330409
0.316165
0.300761
0.284424
0.267382
0.249855
0.232052
0.214169
0.196386
0.178859
0.161725
0.145098
0.129068
0.113707
0.0990703
0.0851935
0.072099
0.0597966
0.0482852
0.0375553
0.0275897
0.0183685
0.00985664
0.00204393
0.0301184
0.0405544
0.0515777
0.0632159
0.0754806
0.0883846
0.101932
0.11612
0.130933
0.146347
0.162321
0.178801
0.195714
0.212968
0.230452
0.248032
0.265554
0.282842
0.299702
0.315924
0.331287
0.345561
0.358517
0.369928
0.379579
0.38727
0.392824
0.396085
0.397002
0.395597
0.391893
0.385941
0.377822
0.36766
0.355619
0.341894