/*--------------------------------*- C++ -*----------------------------------*\
| =========                 |                                                 |
| \\      /  F ield         | OpenFOAM: The Open Source CFD Toolbox           |
|  \\    /   O peration     | Version:  2312                                  |
|   \\  /    A nd           | Website:  www.openfoam.com                      |
|    \\/     M anipulation  |                                                 |
\*---------------------------------------------------------------------------*/
FoamFile
{
    version     2.0;
    format      ascii;
    arch        "LSB;label=32;scalar=64";
    class       surfaceScalarField;
    location    "400";
    object      phi;
}
// * * * * * * * * * * * * * * * * * * * * * * * * * * * * * * * * * * * * * //

dimensions      [0 3 -1 0 0 0 0];

oriented        oriented;

internalField   nonuniform List<scalar> 
116611
(
0.0302747
0.0110051
-0.0298667
-0.0114131
0.0306782
0.0108986
-0.0113021
0.031078
0.0107842
-0.011184
0.0314733
0.010661
-0.0110563
0.0318616
0.0105274
-0.0109157
0.032251
0.0103828
-0.0107722
0.0326252
0.0102282
-0.0106024
0.033001
0.0100631
-0.010439
0.0333684
0.00988683
-0.0102542
0.0337321
0.00970036
-0.010064
0.0340865
0.0095006
-0.00985503
0.0344348
0.00928869
-0.00963703
0.0347758
0.00906423
-0.00940519
0.0351123
0.00882646
-0.00916296
0.0354428
0.00857654
-0.00890701
0.0357615
0.00831405
-0.00863276
0.0360748
0.00803502
-0.00834829
0.0363766
0.00774435
-0.00804615
0.036667
0.00743494
-0.00772543
0.0369484
0.00711463
-0.00739593
0.0372235
0.00677428
-0.00704939
0.0374882
0.00642038
-0.0066851
0.0377425
0.00604965
-0.00630398
0.0379876
0.00566259
-0.00590768
0.0382191
0.00525772
-0.00548923
0.0384408
0.00483456
-0.00505626
0.0386505
0.00439119
-0.00460088
0.0388393
0.00393079
-0.00411955
0.0390205
0.00345016
-0.00363142
0.0391768
0.00294897
-0.00310521
0.0393265
0.00243264
-0.00258234
0.0394591
0.00188969
-0.00202237
0.0395748
0.00132609
-0.0014418
0.0396726
0.000743445
-0.000841246
0.0397503
0.000134809
-0.000212432
0.0398081
-0.000492369
0.000434567
0.039851
-0.00114554
0.00110257
0.0398753
-0.00181915
0.00179487
0.0398815
-0.00251513
0.002509
0.0398626
-0.00323937
0.00325826
0.0398238
-0.00398453
0.00402334
0.0397698
-0.00475639
0.00481033
0.039697
-0.00555175
0.00562459
0.039599
-0.00637274
0.00647077
0.0394813
-0.00722045
0.0073381
0.039343
-0.00809385
0.00823213
0.0391909
-0.00899357
0.00914564
0.039011
-0.00992202
0.010102
0.0388133
-0.0108781
0.0110757
0.038594
-0.0118618
0.0120812
0.0383529
-0.0128739
0.013115
0.0380952
-0.013913
0.0141706
0.0378188
-0.0149809
0.0152573
0.0375211
-0.0160796
0.0163773
0.0372006
-0.0172078
0.0175283
0.0368612
-0.0183671
0.0187065
0.0365026
-0.0195584
0.019917
0.0361228
-0.0207826
0.0211623
0.0357211
-0.0220386
0.0224403
0.0352983
-0.0233239
0.0237468
0.0348688
-0.0246361
0.0250655
0.0344221
-0.0259894
0.0264361
0.0339533
-0.0273805
0.0278493
0.0334757
-0.028806
0.0292837
0.0329946
-0.0302694
0.0307504
0.0324951
-0.0317873
0.0322868
0.0320143
-0.033352
0.0338328
0.0315707
-0.0349596
0.0354031
-0.0367215
0.0311255
0.0371667
0.0298831
0.0105991
-0.0294772
0.0302851
0.0104967
0.0306832
0.0103861
0.0310774
0.0102668
0.0314675
0.0101374
0.0318517
0.00999861
0.03223
0.00984987
0.0326027
0.00969042
0.0329692
0.00952037
0.0333306
0.00933895
0.0336851
0.00914606
0.0340324
0.00894139
0.0343723
0.00872434
0.0347043
0.00849442
0.0350286
0.00825229
0.0353461
0.00799651
0.0356538
0.00772736
0.0359541
0.00744406
0.0362425
0.00714654
0.0365233
0.00683382
0.036792
0.00650552
0.0370506
0.00616179
0.0372984
0.00580192
0.0375355
0.00542549
0.0377612
0.00503203
0.0379753
0.00462045
0.0381753
0.00419119
0.0383623
0.00374371
0.0385353
0.00327718
0.0386924
0.00279189
0.0388383
0.00228676
0.0389673
0.00176069
0.0390793
0.00121413
0.0391762
0.000646474
0.0392549
5.61535e-05
0.0393178
-0.000555272
0.0393614
-0.00118915
0.0393871
-0.00184487
0.0393958
-0.00252378
0.0393837
-0.00322735
0.039354
-0.00395482
0.0393043
-0.00470664
0.0392351
-0.00548258
0.0391466
-0.00628422
0.0390383
-0.00711218
0.0389106
-0.00796613
0.0387633
-0.00884625
0.0385951
-0.0097538
0.0384064
-0.0106894
0.0381969
-0.0116524
0.0379663
-0.0126433
0.0377158
-0.0136624
0.037445
-0.0147101
0.0371533
-0.0157879
0.0368417
-0.0168962
0.0365104
-0.0180357
0.0361584
-0.0192065
0.0357856
-0.0204098
0.0353923
-0.0216452
0.0349809
-0.0229126
0.0345566
-0.0242118
0.0341148
-0.0255475
0.0336568
-0.0269225
0.0331894
-0.0283386
0.0327197
-0.0297997
0.0322462
-0.0313138
0.0317779
-0.0328837
0.031322
-0.0345037
-0.0362512
0.0308517
0.0295094
0.0101951
-0.0291054
0.0299097
0.0100963
0.0303062
0.00998959
0.0306988
0.0098742
0.0310865
0.00974967
0.0314694
0.00961574
0.0318472
0.00947208
0.0322193
0.00931833
0.0325855
0.00915417
0.0329453
0.00897913
0.0332984
0.00879294
0.0336445
0.00859525
0.0339832
0.00838572
0.0343137
0.00816391
0.0346364
0.00792956
0.0349507
0.0076822
0.0352565
0.00742159
0.0355533
0.00714727
0.0358408
0.00685896
0.0361186
0.00655611
0.0363856
0.00623842
0.036642
0.00590539
0.0368874
0.00555659
0.0371213
0.00519155
0.0373435
0.00480985
0.037553
0.00441099
0.0377495
0.0039946
0.0379331
0.00356018
0.0381029
0.00310739
0.0382589
0.0026358
0.0384008
0.00214488
0.0385273
0.00163416
0.0386385
0.00110296
0.0387342
0.000550825
0.0388134
-2.30347e-05
0.0388757
-0.000617628
0.0389205
-0.00123393
0.0389481
-0.00187252
0.0389584
-0.002534
0.0389501
-0.00321904
0.0389232
-0.00392793
0.0388774
-0.00466083
0.038813
-0.00541821
0.0387296
-0.00620081
0.0386264
-0.00700904
0.0385035
-0.00784315
0.0383607
-0.0087035
0.0381978
-0.00959084
0.038014
-0.0105057
0.0378097
-0.011448
0.0375848
-0.0124184
0.0373395
-0.0134172
0.0370742
-0.0144449
0.0367888
-0.0155025
0.0364831
-0.0165906
0.0361573
-0.0177099
0.0358115
-0.0188607
0.0354457
-0.020044
0.0350604
-0.02126
0.0346569
-0.022509
0.0342374
-0.0237923
0.0338032
-0.0251134
0.0333569
-0.0264763
0.0329033
-0.027885
0.032447
-0.0293434
0.0319901
-0.0308568
0.031536
-0.0324296
0.031088
-0.0340557
-0.035796
0.0306329
0.029152
0.00979268
-0.0287496
0.0295507
0.00969759
0.0299455
0.0095948
0.0303361
0.00948359
0.0307222
0.00936361
0.0311034
0.00923448
0.0314796
0.00909593
0.0318503
0.00894765
0.0322151
0.00878932
0.0325737
0.00862058
0.0329256
0.00844104
0.0332705
0.00825035
0.033608
0.00804818
0.0339378
0.00783416
0.0342594
0.00760792
0.0345725
0.00736911
0.0348768
0.00711732
0.0351718
0.00685219
0.0354575
0.00657334
0.0357332
0.0062804
0.0359986
0.00597296
0.0362535
0.00565059
0.0364972
0.00531287
0.0367294
0.00495937
0.0369496
0.00458962
0.0371574
0.00420316
0.0373525
0.00379953
0.0375344
0.00337831
0.0377027
0.00293908
0.0378571
0.0024814
0.0379972
0.00200479
0.0381226
0.00150872
0.038233
0.000992573
0.0383279
0.000455945
0.0384067
-0.000101857
0.038469
-0.000679899
0.0385144
-0.00127937
0.0385428
-0.00190089
0.0385537
-0.00254494
0.0385467
-0.00321205
0.0385215
-0.00390267
0.0384778
-0.00461714
0.0384155
-0.0053559
0.0383341
-0.00611946
0.0382334
-0.00690832
0.0381132
-0.0077229
0.0379733
-0.00856363
0.0378135
-0.00943105
0.0376335
-0.0103256
0.0374332
-0.0112478
0.0372127
-0.0121979
0.0369721
-0.0131765
0.0367114
-0.0141842
0.0364308
-0.0152218
0.03613
-0.0162898
0.0358092
-0.0173891
0.0354685
-0.01852
0.0351081
-0.0196835
0.0347284
-0.0208803
0.034331
-0.0221116
0.0339184
-0.0233797
0.0334934
-0.0246884
0.0330593
-0.0260421
0.0326194
-0.0274451
0.0321768
-0.0289009
0.0317335
-0.0304134
0.0312901
-0.0319862
0.0308454
-0.0336111
-0.0353374
0.0303868
0.0288139
0.00939309
-0.0284143
0.0292103
0.00930127
0.0296029
0.00920219
0.0299914
0.00909507
0.0303755
0.00897949
0.0307549
0.00885513
0.0311291
0.00872167
0.0314979
0.00857882
0.031861
0.00842625
0.032218
0.00826363
0.0325684
0.00809061
0.0329119
0.00790683
0.0332481
0.00771195
0.0335767
0.00750561
0.0338972
0.00728745
0.0342092
0.0070571
0.0345123
0.00681418
0.0348062
0.00655829
0.0350905
0.00628904
0.0353649
0.00600606
0.0356289
0.00570894
0.0358822
0.00539728
0.0361244
0.00507066
0.0363551
0.00472864
0.036574
0.00437077
0.0367805
0.00399661
0.0369743
0.00360572
0.037155
0.00319764
0.0373221
0.00277193
0.0374754
0.00232813
0.0376145
0.00186573
0.037739
0.00138424
0.0378484
0.000883109
0.0379425
0.000361906
0.0380205
-0.000179935
0.0380824
-0.00074173
0.0381276
-0.0013246
0.0381559
-0.00192919
0.038167
-0.00255599
0.0381604
-0.0032055
0.0381359
-0.00387816
0.0380932
-0.00457441
0.038032
-0.00529469
0.037952
-0.0060395
0.037853
-0.00680934
0.0377348
-0.00760469
0.0375972
-0.008426
0.0374399
-0.00927376
0.0372628
-0.0101485
0.0370657
-0.0110507
0.0368486
-0.0119808
0.0366117
-0.0129395
0.0363548
-0.0139273
0.036078
-0.0149449
0.0357811
-0.015993
0.0354641
-0.0170721
0.0351273
-0.0181832
0.0347711
-0.0193274
0.0343967
-0.0205058
0.0340061
-0.021721
0.0336022
-0.0229758
0.033188
-0.0242743
0.0327663
-0.0256204
0.0323393
-0.0270181
0.0319087
-0.0284703
0.0314753
-0.02998
0.0310374
-0.0315483
0.0305907
-0.0331644
-0.0348712
0.0301245
0.0284979
0.00899672
-0.0281015
0.0288912
0.00890799
0.029281
0.00881239
0.0296669
0.00870913
0.0300486
0.0085978
0.0304257
0.00847806
0.0307977
0.00834961
0.0311644
0.0082121
0.0315255
0.00806523
0.0318804
0.00790867
0.032229
0.00774208
0.0325707
0.00756512
0.0329052
0.00737744
0.0332321
0.00717869
0.033551
0.00696851
0.0338616
0.00674653
0.0341634
0.00651237
0.034456
0.00626567
0.0347391
0.006006
0.0350121
0.00573299
0.0352748
0.00544623
0.0355268
0.0051453
0.0357677
0.00482979
0.0359971
0.00449927
0.0362145
0.00415329
0.0364197
0.00379142
0.0366122
0.0034132
0.0367917
0.0030182
0.0369577
0.00260594
0.0371099
0.00217595
0.0372478
0.00172774
0.0373713
0.00126081
0.0374797
0.000774654
0.0375729
0.000268767
0.0376501
-0.000257169
0.0377112
-0.000802876
0.037756
-0.00136933
0.0377839
-0.00195715
0.0377948
-0.00256687
0.0377882
-0.00319895
0.0377639
-0.00385387
0.0377216
-0.0045321
0.0376611
-0.00523411
0.037582
-0.00596042
0.0374841
-0.0067115
0.0373673
-0.00748787
0.0372313
-0.00828999
0.0370759
-0.00911839
0.036901
-0.00997361
0.0367065
-0.0108562
0.0364922
-0.0117666
0.0362582
-0.0127055
0.0360042
-0.0136734
0.0357302
-0.0146709
0.035436
-0.0156988
0.035122
-0.0167581
0.0347886
-0.0178498
0.034437
-0.0189757
0.0340688
-0.0201376
0.0336865
-0.0213387
0.0332927
-0.022582
0.0328899
-0.0238715
0.0324797
-0.0252101
0.0320634
-0.0266018
0.0316413
-0.0280482
0.0312123
-0.029551
0.0307716
-0.0311077
0.030312
-0.0327047
-0.0343794
0.0298201
0.0282032
0.00860277
-0.0278093
0.0285939
0.00851734
0.028981
0.0084253
0.0293642
0.0083259
0.0297433
0.00821875
0.0301178
0.00810355
0.0304874
0.00797998
0.0308518
0.00784775
0.0312105
0.00770651
0.0315632
0.00755595
0.0319096
0.00739574
0.0322491
0.00722554
0.0325816
0.007045
0.0329065
0.00685377
0.0332235
0.00665149
0.0335322
0.00643781
0.0338323
0.00621234
0.0341232
0.00597473
0.0344046
0.00572457
0.0346762
0.00546147
0.0349374
0.00518502
0.0351879
0.0048948
0.0354273
0.00459039
0.0356552
0.00427135
0.0358712
0.00393726
0.036075
0.00358765
0.0362661
0.00322209
0.0364442
0.00284012
0.0366088
0.00244128
0.0367597
0.00202508
0.0368964
0.00159104
0.0370186
0.00113865
0.0371258
0.000667393
0.0372179
0.000176731
0.0372941
-0.000333365
0.0373543
-0.00086306
0.0373981
-0.00141321
0.0374254
-0.00198441
0.0374357
-0.00257719
0.0374288
-0.00319202
0.0374043
-0.00382941
0.0373621
-0.00448985
0.0373018
-0.00517384
0.0372233
-0.00588188
0.0371262
-0.00661446
0.0370105
-0.0073721
0.0368758
-0.0081553
0.036722
-0.00896457
0.0365488
-0.00980048
0.0363562
-0.0106635
0.0361439
-0.0115543
0.0359117
-0.0124733
0.0356595
-0.0134212
0.0353873
-0.0143987
0.0350954
-0.0154069
0.0347843
-0.016447
0.0344552
-0.0175207
0.0341095
-0.0186299
0.0337492
-0.0197774
0.0333765
-0.020966
0.0329931
-0.0221987
0.0326005
-0.0234789
0.0321995
-0.0248091
0.0317903
-0.0261925
0.0313712
-0.0276291
0.0309379
-0.0291178
0.0304831
-0.0306528
0.0299976
-0.0322192
-0.0338502
0.0294684
0.0279278
0.00821027
-0.0275353
0.0283168
0.00812839
0.0287019
0.00804015
0.029083
0.00794479
0.0294598
0.00784196
0.029832
0.00773136
0.0301993
0.00761272
0.0305613
0.00748575
0.0309176
0.00735014
0.031268
0.00720556
0.0316121
0.0070517
0.0319494
0.00688821
0.0322796
0.00671478
0.0326023
0.00653106
0.0329171
0.00633666
0.0332237
0.00613123
0.0335216
0.00591441
0.0338105
0.00568583
0.03409
0.00544511
0.0343596
0.00519186
0.034619
0.00492566
0.0348677
0.0046461
0.0351053
0.00435274
0.0353315
0.00404516
0.0355458
0.00372292
0.0357479
0.00338557
0.0359374
0.00303264
0.0361138
0.00266369
0.0362768
0.00227823
0.0364261
0.0018758
0.0365613
0.00145588
0.0366819
0.00101799
0.0367877
0.000561597
0.0368784
8.60947e-05
0.0369532
-0.000408249
0.0370122
-0.000922026
0.037055
-0.00145598
0.0370813
-0.0020107
0.0370908
-0.00258671
0.0370833
-0.00318451
0.0370585
-0.00380458
0.0370161
-0.00444745
0.0369558
-0.00511361
0.0368775
-0.00580357
0.0367809
-0.00651782
0.0366657
-0.0072569
0.0365317
-0.00802131
0.0363787
-0.00881157
0.0362064
-0.0096282
0.0360146
-0.0104717
0.0358031
-0.0113428
0.0355718
-0.012242
0.0353209
-0.0131702
0.0350506
-0.0141284
0.0347616
-0.0151179
0.0344549
-0.0161403
0.0341317
-0.0171975
0.0337936
-0.0182918
0.0334422
-0.019426
0.0330789
-0.0206026
0.0327046
-0.0218244
0.0323199
-0.0230941
0.0319246
-0.0244139
0.0315167
-0.0257846
0.0310917
-0.0272041
0.0306422
-0.0286682
0.0301591
-0.0301698
0.0296348
-0.0316949
-0.033279
0.0290636
0.0276703
0.00781877
-0.0272788
0.0280581
0.00774055
0.028442
0.00765625
0.0288217
0.0075651
0.0291969
0.00746675
0.0295674
0.00736092
0.0299327
0.00724735
0.0302927
0.00712574
0.0306471
0.00699582
0.0309954
0.00685728
0.0313372
0.0067098
0.0316724
0.00655307
0.0320004
0.00638675
0.032321
0.00621051
0.0326336
0.00602401
0.032938
0.00582686
0.0332337
0.0056187
0.0335204
0.00539915
0.0337976
0.00516785
0.0340651
0.0049244
0.0343223
0.00466842
0.034569
0.00439948
0.0348046
0.00411715
0.0350287
0.00382101
0.035241
0.00351059
0.0354411
0.00318546
0.0356286
0.00284516
0.0358031
0.0024892
0.0359642
0.00211712
0.0361116
0.00172842
0.0362449
0.00132261
0.0363637
0.000899166
0.0364677
0.000457595
0.0365566
-2.78974e-06
0.0366298
-0.0004815
0.0366873
-0.000979467
0.0367287
-0.00149735
0.0367537
-0.00203572
0.0367621
-0.00259512
0.0367536
-0.00317602
0.0367279
-0.00377892
0.0366848
-0.00440433
0.036624
-0.00505278
0.0365452
-0.00572476
0.0364482
-0.00642081
0.0363327
-0.00714144
0.0361985
-0.00788714
0.0360454
-0.00865842
0.035873
-0.00945584
0.0356813
-0.01028
0.0354703
-0.0111318
0.0352401
-0.0120118
0.0349911
-0.0129212
0.034724
-0.0138613
0.0344395
-0.0148334
0.0341387
-0.0158395
0.0338228
-0.0168816
0.033493
-0.017962
0.0331501
-0.0190831
0.0327948
-0.0202473
0.0324273
-0.021457
0.0320469
-0.0227137
0.0316513
-0.0240183
0.0312353
-0.0253686
0.0307921
-0.0267609
0.0303125
-0.0281887
0.0297881
-0.0296454
0.0292121
-0.031119
-0.0326387
0.0285718
0.0274313
0.00742823
-0.0270407
0.0278181
0.00735369
0.028201
0.00727337
0.0285796
0.0071865
0.0289537
0.00709272
0.0293228
0.00699176
0.0296868
0.00688336
0.0300453
0.00676724
0.030398
0.00664312
0.0307446
0.0065107
0.0310847
0.00636969
0.031418
0.00621977
0.0317441
0.00606062
0.0320627
0.00589193
0.0323734
0.00571335
0.0326757
0.00552451
0.0329694
0.00532505
0.0332539
0.00511459
0.033529
0.00489276
0.0337943
0.00465916
0.0340493
0.00441341
0.0342936
0.0041551
0.034527
0.00388381
0.0347489
0.00359909
0.034959
0.00330051
0.0351569
0.0029876
0.0353421
0.00265991
0.0355144
0.00231695
0.0356733
0.00195823
0.0358184
0.00158326
0.0359495
0.00119152
0.0360662
0.000782505
0.0361681
0.000355705
0.0362548
-8.95423e-05
0.0363261
-0.000552755
0.0363816
-0.00103498
0.0364211
-0.00153686
0.0364443
-0.00205893
0.0364509
-0.00260174
0.0364407
-0.00316577
0.0364133
-0.00375154
0.0363685
-0.00435959
0.0363062
-0.00499046
0.0362261
-0.00564467
0.036128
-0.00632267
0.0360115
-0.00702498
0.0358765
-0.0077521
0.0357227
-0.0085046
0.03555
-0.00928319
0.0353586
-0.0100886
0.0351487
-0.0109218
0.0349207
-0.0117838
0.0346751
-0.0126756
0.0344126
-0.0135988
0.0341341
-0.0145549
0.0338404
-0.0155458
0.0335322
-0.0165734
0.0332101
-0.0176399
0.0328743
-0.0187474
0.0325248
-0.0198977
0.03216
-0.0210922
0.0317771
-0.0223308
0.0313708
-0.023612
0.0309339
-0.0249317
0.0304586
-0.0262856
0.0299366
-0.0276667
0.0293625
-0.0290713
0.028732
-0.0304884
-0.031942
0.0280353
0.0272123
0.00703877
-0.0268228
0.0275981
0.00696787
0.0279799
0.00689152
0.0283575
0.00680892
0.0287305
0.00671972
0.0290986
0.00662365
0.0294615
0.00652047
0.0298189
0.0064099
0.0301703
0.00629167
0.0305155
0.00616547
0.0308542
0.00603101
0.031186
0.005888
0.0315105
0.00573612
0.0318274
0.00557505
0.0321363
0.00540446
0.0324368
0.005224
0.0327285
0.00503332
0.0330111
0.00483202
0.0332841
0.00461973
0.0335472
0.00439604
0.0338
0.00416059
0.0340422
0.00391296
0.0342733
0.00365274
0.0344929
0.00337949
0.0347006
0.00309278
0.034896
0.00279214
0.0350789
0.00247709
0.0352486
0.00214716
0.035405
0.00180184
0.0355477
0.00144061
0.0356763
0.00106296
0.0357904
0.00066836
0.0358898
0.000256309
0.035974
-0.000173698
0.0360427
-0.000621472
0.0360957
-0.00108797
0.0361326
-0.00157384
0.0361533
-0.00207963
0.0361574
-0.00260586
0.0361447
-0.00315306
0.036115
-0.0037218
0.0360681
-0.00431264
0.0360037
-0.00492613
0.0359218
-0.00556273
0.035822
-0.00622287
0.0357041
-0.00690707
0.0355679
-0.00761596
0.0354136
-0.00835026
0.0352412
-0.00911081
0.0350511
-0.00989851
0.0348436
-0.0107144
0.0346192
-0.0115594
0.0343785
-0.0124349
0.0341219
-0.0133423
0.0338502
-0.0142831
0.0335637
-0.0152593
0.0332626
-0.0162723
0.0329468
-0.0173242
0.0326155
-0.0184161
0.0322667
-0.0195489
0.0318966
-0.0207221
0.0314998
-0.0219339
0.0310692
-0.0231814
0.0305974
-0.0244599
0.0300777
-0.0257659
0.0295051
-0.0270941
0.0288774
-0.0284436
0.0281914
-0.0298024
-0.0311851
0.0274345
0.0270153
0.00665042
-0.026627
0.0274
0.00658314
0.0277808
0.00651073
0.0281574
0.00643239
0.0285293
0.00634776
0.0288964
0.00625658
0.0292582
0.00615862
0.0296145
0.00605361
0.0299649
0.00594129
0.030309
0.00582137
0.0306465
0.00569355
0.030977
0.00555752
0.0313001
0.005413
0.0316155
0.00525967
0.0319227
0.00509718
0.0322216
0.00492519
0.0325115
0.00474336
0.0327922
0.00455131
0.0330633
0.00434863
0.0333244
0.00413493
0.0335752
0.00390985
0.0338152
0.00367299
0.034044
0.00342394
0.0342612
0.00316225
0.0344665
0.00288749
0.0346594
0.00259918
0.0348397
0.00229686
0.0350068
0.00198003
0.0351605
0.00164818
0.0353003
0.00130078
0.0354259
0.0009373
0.0355371
0.000557216
0.0356334
0.000159963
0.0357144
-0.0002547
0.03578
-0.000687016
0.0358298
-0.00113781
0.0358637
-0.00160773
0.0358814
-0.00209732
0.0358826
-0.00260709
0.0358672
-0.00313759
0.0358348
-0.00368943
0.0357853
-0.00426318
0.0357186
-0.00485941
0.0356345
-0.00547859
0.0355328
-0.00612116
0.0354135
-0.00678779
0.0352768
-0.00747924
0.0351229
-0.00819635
0.0349521
-0.00894001
0.0347647
-0.00971116
0.0345612
-0.0105108
0.0343418
-0.01134
0.034107
-0.0122001
0.0338571
-0.0130923
0.0335921
-0.0140182
0.033312
-0.0149792
0.0330161
-0.0159764
0.0327029
-0.0170109
0.0323694
-0.0180826
0.0320114
-0.0191909
0.0316232
-0.020334
0.0311982
-0.0215089
0.0307297
-0.0227128
0.0302117
-0.0239419
0.0296405
-0.0251946
0.0290146
-0.0264682
0.0283337
-0.0277627
0.0275929
-0.0290616
-0.0303662
0.0267741
0.0268422
0.00626304
-0.0264548
0.027226
0.0061994
0.0276057
0.00613095
0.0279813
0.00605688
0.0283522
0.00597684
0.0287182
0.00589057
0.029079
0.00579785
0.0294341
0.00569843
0.0297834
0.00559203
0.0301264
0.00547841
0.0304626
0.00535726
0.0307919
0.00522826
0.0311138
0.00509115
0.0314278
0.00494559
0.0317338
0.00479126
0.0320311
0.0046278
0.0323196
0.00445491
0.0325987
0.00427222
0.032868
0.00407931
0.0331272
0.00387575
0.0333758
0.00366118
0.0336136
0.00343522
0.0338401
0.00319745
0.0340549
0.00294743
0.0342577
0.00268473
0.034448
0.00240888
0.0346254
0.0021194
0.0347897
0.00181579
0.0349404
0.00149751
0.0350771
0.00116404
0.0351996
0.000814824
0.0353074
0.000449335
0.0354005
6.69347e-05
0.0354781
-0.000332351
0.0355403
-0.000749165
0.0355867
-0.00118422
0.0356172
-0.0016382
0.0356315
-0.00211164
0.0356294
-0.00260501
0.0356107
-0.0031189
0.0355752
-0.00365393
0.0355228
-0.00421076
0.0354534
-0.00479005
0.0353672
-0.00539236
0.0352642
-0.00601818
0.0351447
-0.00666826
0.0350089
-0.00734345
0.0348571
-0.00804459
0.0346896
-0.0087725
0.0345066
-0.00952812
0.0343082
-0.0103124
0.0340947
-0.0111265
0.0338661
-0.0119715
0.0336222
-0.0128485
0.0333625
-0.0137584
0.0330855
-0.0147022
0.0327889
-0.0156798
0.0324692
-0.0166913
0.0321219
-0.0177352
0.0317411
-0.0188102
0.0313208
-0.0199137
0.0308549
-0.0210431
0.0303386
-0.0221965
0.0297688
-0.0233721
0.0291451
-0.0245709
0.028469
-0.0257922
0.0277386
-0.0270324
0.0269371
-0.0282601
-0.0294215
0.0259924
0.0266946
0.00587642
-0.026308
0.0270776
0.00581645
0.0274566
0.00575199
0.0278312
0.00568222
0.0282013
0.0056068
0.0285664
0.00552549
0.0289262
0.00543805
0.0292803
0.00534425
0.0296285
0.00524383
0.0299704
0.00513653
0.0303056
0.00502207
0.0306337
0.00490016
0.0309544
0.00477049
0.0312672
0.00463277
0.0315718
0.00448668
0.0318677
0.00433185
0.0321546
0.00416797
0.0324322
0.00399471
0.0326998
0.00381168
0.0329571
0.00361842
0.0332038
0.00341454
0.0334393
0.00319964
0.0336635
0.00297333
0.0338758
0.00273515
0.0340758
0.00248465
0.0342633
0.00222137
0.0344379
0.00194485
0.0345991
0.00165457
0.0347466
0.00135
0.0348801
0.00103059
0.0349991
0.000695776
0.0351034
0.000345019
0.0351927
-2.23677e-05
0.0352666
-0.000406222
0.0353249
-0.000807461
0.0353674
-0.00122675
0.035394
-0.00166478
0.0354045
-0.00212215
0.0353989
-0.00259933
0.0353769
-0.00309695
0.0353386
-0.00361561
0.0352839
-0.00415611
0.0352132
-0.00471927
0.0351265
-0.00530569
0.0350242
-0.00591588
0.0349064
-0.0065505
0.0347734
-0.0072104
0.0346252
-0.00789639
0.034462
-0.00860927
0.0342838
-0.00934995
0.0340907
-0.0101193
0.0338823
-0.0109182
0.0336582
-0.0117473
0.0334169
-0.0126072
0.0331566
-0.0134981
0.0328742
-0.0144198
0.0325659
-0.0153716
0.032227
-0.0163523
0.031852
-0.0173603
0.0314354
-0.0183936
0.0309719
-0.0194502
0.0304575
-0.0205286
0.0298897
-0.0216287
0.029269
-0.0227513
0.0285974
-0.0238994
0.0278762
-0.0250709
0.027095
-0.0262512
0.0262178
-0.0273829
-0.0283611
0.0251574
0.0265744
0.00549028
-0.0261883
0.0269568
0.005434
0.0273353
0.00537356
0.0277094
0.00530813
0.0280788
0.00523737
0.0284432
0.00516105
0.0288023
0.00507894
0.0291558
0.00499082
0.0295032
0.00489643
0.0298442
0.00479551
0.0301784
0.00468781
0.0305056
0.00457304
0.0308251
0.00445091
0.0311368
0.00432112
0.0314401
0.00418335
0.0317347
0.00403726
0.0320202
0.00388252
0.0322961
0.0037188
0.0325621
0.00354571
0.0328176
0.00336284
0.0330624
0.00316978
0.0332959
0.00296611
0.0335178
0.00275141
0.0337277
0.00252524
0.0339252
0.00228715
0.0341099
0.00203666
0.0342815
0.00177329
0.0344395
0.00149653
0.0345837
0.00120583
0.0347137
0.000900638
0.0348291
0.000580361
0.0349297
0.000244429
0.0350151
-0.000107792
0.0350852
-0.000476294
0.0351397
-0.000862047
0.0351787
-0.00126574
0.035202
-0.00168805
0.0352095
-0.00212961
0.0352011
-0.00259099
0.035177
-0.00307288
0.0351374
-0.00357594
0.0350822
-0.00410095
0.0350117
-0.00464876
0.034926
-0.00522001
0.0348254
-0.00581524
0.0347099
-0.00643502
0.0345797
-0.00708016
0.0344347
-0.00775146
0.0342751
-0.00844962
0.0341004
-0.00917528
0.0339101
-0.00992895
0.0337028
-0.0107109
0.0334768
-0.0115213
0.0332296
-0.01236
0.0329578
-0.0132263
0.0326575
-0.0141195
0.0323241
-0.0150383
0.031953
-0.0159811
0.0315391
-0.0169463
0.0310779
-0.0179324
0.030566
-0.0189384
0.0300019
-0.0199645
0.0293863
-0.0210131
0.0287222
-0.0220872
0.0280113
-0.0231885
0.027246
-0.0243057
0.0263905
-0.0253956
0.0253536
-0.026346
-0.0269302
0.0239226
0.0264839
0.0051043
-0.026098
0.0268662
0.00505174
0.0272444
0.00499535
0.0276183
0.00493428
0.0279874
0.00486821
0.0283516
0.00479692
0.0287103
0.00472019
0.0290633
0.00463779
0.0294103
0.00454949
0.0297507
0.00445504
0.0300844
0.00435418
0.0304108
0.00424663
0.0307296
0.00413212
0.0310403
0.00401035
0.0313427
0.00388101
0.0316362
0.00374378
0.0319204
0.0035983
0.0321949
0.00344424
0.0324594
0.00328123
0.0327134
0.00310887
0.0329564
0.00292674
0.0331881
0.00273443
0.033408
0.00253151
0.0336157
0.00231752
0.0338109
0.002092
0.0339931
0.00185447
0.034162
0.00160442
0.0343172
0.00134132
0.0344584
0.00106461
0.0345853
0.000773714
0.0346976
0.000468025
0.0347952
0.000146915
0.0348774
-0.000190076
0.0349445
-0.000543318
0.0349961
-0.000913708
0.0350324
-0.00130197
0.0350531
-0.00170881
0.0350584
-0.0021349
0.0350483
-0.00258091
0.035023
-0.00304756
0.0349827
-0.00353559
0.0349274
-0.00404573
0.0348574
-0.00457873
0.0347726
-0.00513523
0.0346732
-0.00571583
0.0345593
-0.00632107
0.0344307
-0.00695156
0.034287
-0.00760781
0.0341276
-0.0082902
0.0339512
-0.00899891
0.0337562
-0.00973397
0.0335405
-0.0104952
0.0333013
-0.0112821
0.0330353
-0.0120941
0.0327391
-0.01293
0.0324084
-0.0137888
0.0320391
-0.014669
0.031627
-0.015569
0.0311683
-0.0164876
0.0306603
-0.0174244
0.0301021
-0.0183801
0.0294951
-0.0193575
0.0288425
-0.0203605
0.0281468
-0.0213916
0.0274014
-0.0224431
0.0265762
-0.0234805
0.0255892
-0.0244086
0.0242751
-0.0250319
-0.0250165
0.0223614
0.0264264
0.00471805
-0.0260402
0.0268089
0.00466923
0.0271874
0.00461691
0.0275614
0.00456023
0.0279307
0.00449889
0.028295
0.00443267
0.0286538
0.00436135
0.0290069
0.00428474
0.0293538
0.00420259
0.0296942
0.00411466
0.0300276
0.00402071
0.0303538
0.00392047
0.0306723
0.00381367
0.0309826
0.00370001
0.0312844
0.0035792
0.0315773
0.00345091
0.0318608
0.00331481
0.0321345
0.00317054
0.032398
0.00301773
0.0326508
0.002856
0.0328926
0.00268494
0.0331229
0.00250413
0.0333413
0.00231311
0.0335474
0.00211144
0.0337408
0.00189864
0.0339211
0.00167419
0.0340879
0.00143759
0.0342409
0.00118827
0.0343799
0.000925656
0.0345044
0.000649145
0.0346144
0.000358102
0.0347094
5.18343e-05
0.0347893
-0.000269943
0.034854
-0.000608011
0.0349035
-0.000963193
0.0349377
-0.00133623
0.0349568
-0.00172786
0.0349607
-0.0021388
0.0349496
-0.00256977
0.0349235
-0.0030215
0.0348826
-0.00349471
0.034827
-0.00399008
0.0347565
-0.00450826
0.0346711
-0.00504981
0.0345704
-0.0056152
0.0344542
-0.00620482
0.0343216
-0.00681898
0.0341717
-0.00745786
0.0340029
-0.00812148
0.0338137
-0.00880969
0.0336019
-0.00952212
0.0333649
-0.0102582
0.0330999
-0.0110171
0.0328037
-0.0117979
0.0324729
-0.0125992
0.0321039
-0.0134198
0.031693
-0.0142582
0.0312374
-0.0151134
0.0307351
-0.0159853
0.0301859
-0.0168752
0.0295919
-0.0177861
0.0289567
-0.0187223
0.0282825
-0.0196862
0.0275623
-0.0206714
0.0267651
-0.0216459
0.0258131
-0.0225285
0.024545
-0.0231405
0.0226908
-0.0231777
-0.0222562
0.0199305
0.0264062
0.00433097
-0.0260191
0.0267895
0.00428589
0.0271688
0.00423764
0.0275436
0.00418537
0.0279138
0.00412877
0.0282788
0.00406763
0.0286384
0.00400177
0.0289922
0.00393096
0.0293398
0.00385499
0.0296808
0.00377363
0.0300149
0.00368664
0.0303416
0.00359375
0.0306605
0.00349471
0.0309713
0.00338922
0.0312735
0.003277
0.0315667
0.00315772
0.0318505
0.00303105
0.0321243
0.00289665
0.0323879
0.00275414
0.0326408
0.00260314
0.0328825
0.00244323
0.0331126
0.002274
0.0333308
0.00209498
0.0335365
0.00190573
0.0337294
0.00170573
0.0339091
0.00149448
0.0340753
0.00127142
0.0342276
0.00103598
0.0343657
0.00078757
0.0344893
0.000525542
0.0345981
0.00024924
0.034692
-4.20655e-05
0.0347707
-0.000348656
0.0348342
-0.000671504
0.0348824
-0.00101139
0.0349153
-0.00136907
0.0349327
-0.00174526
0.0349346
-0.00214072
0.034921
-0.00255615
0.0348917
-0.00299226
0.0348468
-0.00344972
0.0347858
-0.00392913
0.0347086
-0.00443102
0.0346146
-0.00495583
0.0345033
-0.00550389
0.0343739
-0.0060754
0.0342253
-0.00667046
0.0340565
-0.00728898
0.0338657
-0.0079307
0.0336512
-0.0085952
0.0334109
-0.0092818
0.0331423
-0.00998965
0.0328428
-0.0107177
0.0325095
-0.0114646
0.0321394
-0.0122291
0.0317298
-0.0130101
0.0312783
-0.0138067
0.0307841
-0.0146192
0.030248
-0.0154492
0.0296728
-0.0163
0.0290624
-0.0171757
0.0284182
-0.0180781
0.0277311
-0.0189991
0.026967
-0.0199073
0.0260429
-0.0207218
0.0247983
-0.0212839
0.0229683
-0.0213104
0.0202177
-0.0204271
-0.018428
0.0163895
0.0264321
0.00394216
-0.0260433
0.0268172
0.00390076
0.0271983
0.00385654
0.027575
0.00380864
0.0279471
0.00375675
0.028314
0.00370067
0.0286756
0.00364022
0.0290313
0.0035752
0.0293809
0.0035054
0.029724
0.00343058
0.0300601
0.00335052
0.0303889
0.00326497
0.0307099
0.00317367
0.0310228
0.00307634
0.0313271
0.0029727
0.0316224
0.00286244
0.0319082
0.00274522
0.0321841
0.00262071
0.0324497
0.00248855
0.0327045
0.00234834
0.0329481
0.00219968
0.0331799
0.00204214
0.0333996
0.00187528
0.0336068
0.00169861
0.0338009
0.00151164
0.0339815
0.00131383
0.0341483
0.00110463
0.0343008
0.000883438
0.0344388
0.00064964
0.0345617
0.000402577
0.0346694
0.000141556
0.0347614
-0.000134074
0.0348376
-0.000424815
0.0348977
-0.000731576
0.0349414
-0.00105514
0.0349686
-0.00139625
0.034979
-0.00175567
0.0349724
-0.00213412
0.0349486
-0.00253232
0.0349073
-0.00295097
0.0348482
-0.00339068
0.0347711
-0.00385202
0.0346755
-0.00433543
0.034561
-0.00484126
0.0344268
-0.00536972
0.0342723
-0.00592086
0.0340964
-0.00649458
0.033898
-0.00709058
0.0336757
-0.00770837
0.0334277
-0.00834723
0.0331521
-0.00900625
0.0328468
-0.00968433
0.0325094
-0.0103802
0.0321375
-0.0110928
0.0317294
-0.011821
0.0312837
-0.0125645
0.0308009
-0.0133239
0.0302831
-0.0141013
0.0297339
-0.0149001
0.0291573
-0.0157234
0.0285531
-0.0165715
0.027908
-0.0174331
0.0271807
-0.0182718
0.0262803
-0.0190069
0.0250381
-0.0194796
0.02319
-0.0194359
0.0204232
-0.0185435
0.0165717
-0.0165756
-0.0138634
0.012007
0.0265202
0.00354992
-0.026128
0.0269088
0.00351212
0.0272936
0.00347184
0.027674
0.00342821
0.0280498
0.00338094
0.0284206
0.00332984
0.0287861
0.00327475
0.0291458
0.00321546
0.0294995
0.00315177
0.0298466
0.00308347
0.0301867
0.00301035
0.0305196
0.00293215
0.0308446
0.00284864
0.0311614
0.00275955
0.0314695
0.0026646
0.0317684
0.00256349
0.0320578
0.00245591
0.0323369
0.00234152
0.0326055
0.00221997
0.032863
0.00209089
0.0331088
0.00195386
0.0333425
0.00180848
0.0335634
0.00165428