/*--------------------------------*- C++ -*----------------------------------*\
| =========                 |                                                 |
| \\      /  F ield         | OpenFOAM: The Open Source CFD Toolbox           |
|  \\    /   O peration     | Version:  2312                                  |
|   \\  /    A nd           | Website:  www.openfoam.com                      |
|    \\/     M anipulation  |                                                 |
\*---------------------------------------------------------------------------*/
FoamFile
{
    version     2.0;
    format      ascii;
    arch        "LSB;label=32;scalar=64";
    class       volVectorField;
    location    "400";
    object      U;
}
// * * * * * * * * * * * * * * * * * * * * * * * * * * * * * * * * * * * * * //

dimensions      [0 1 -1 0 0 0 0];

internalField   nonuniform List<vector> 
76025
(
(1.01097 -0.209802 0)
(1.01618 -0.210545 1.11482e-20)
(1.02146 -0.211124 0)
(1.02686 -0.211605 0)
(1.03203 -0.211921 -1.89853e-20)
(1.03752 -0.21206 -3.49263e-20)
(1.04283 -0.212116 5.93165e-20)
(1.04822 -0.211952 -2.47696e-20)
(1.05365 -0.211712 -7.36898e-21)
(1.05912 -0.21135 6.84854e-21)
(1.06455 -0.210832 1.13227e-22)
(1.06999 -0.210125 1.68086e-20)
(1.07546 -0.209325 -2.25763e-20)
(1.08095 -0.208305 0)
(1.08667 -0.207125 4.25276e-21)
(1.09217 -0.205906 0)
(1.09779 -0.204414 0)
(1.10329 -0.202889 0)
(1.10879 -0.201114 2.5708e-21)
(1.11416 -0.199365 -1.78966e-21)
(1.11959 -0.197316 -1.30794e-21)
(1.12515 -0.195119 -2.65719e-21)
(1.13065 -0.192795 1.52803e-21)
(1.13615 -0.190331 -4.80477e-22)
(1.14162 -0.187774 -9.28201e-22)
(1.14695 -0.18518 -2.00189e-21)
(1.15245 -0.182216 4.23466e-21)
(1.15771 -0.179262 -4.85537e-21)
(1.16289 -0.17611 2.10366e-21)
(1.16797 -0.17271 -2.53856e-21)
(1.17292 -0.169461 -3.06014e-21)
(1.17778 -0.166107 7.82088e-21)
(1.1827 -0.1623 -1.22697e-20)
(1.18745 -0.158707 -2.7213e-21)
(1.19205 -0.154855 1.30705e-20)
(1.19643 -0.151186 2.58907e-22)
(1.20071 -0.147305 -2.88986e-21)
(1.20503 -0.142957 1.6088e-21)
(1.20928 -0.138835 7.84612e-23)
(1.21337 -0.134532 -2.60179e-21)
(1.21727 -0.130372 1.73744e-21)
(1.22112 -0.126034 -9.05891e-22)
(1.22505 -0.121241 1.86046e-21)
(1.22893 -0.116701 -3.89299e-21)
(1.23268 -0.112047 -4.14029e-21)
(1.23638 -0.107543 8.10193e-21)
(1.24018 -0.102694 8.70059e-21)
(1.24409 -0.097989 -2.64326e-20)
(1.24795 -0.0932793 1.78473e-20)
(1.25188 -0.0885644 2.17748e-22)
(1.25592 -0.083803 -4.7031e-20)
(1.26008 -0.078891 -1.91746e-20)
(1.26447 -0.0738256 1.97793e-20)
(1.26904 -0.0686211 0)
(1.27382 -0.0633774 -2.06757e-20)
(1.27879 -0.0582933 -2.12776e-20)
(1.28406 -0.052905 4.50877e-22)
(1.28965 -0.0474015 -2.19651e-20)
(1.29547 -0.0416901 2.36218e-20)
(1.30155 -0.0356939 -7.08147e-20)
(1.30806 -0.0293755 -4.87374e-20)
(1.31536 -0.0228642 2.0811e-22)
(1.32311 -0.0159669 0)
(1.33127 -0.00863163 1.37601e-19)
(1.3403 -0.000624371 -5.72555e-20)
(1.35041 0.00733854 2.89738e-20)
(1.36131 0.0164376 -6.23654e-20)
(1.3738 0.0275429 6.52217e-20)
(1.39008 0.0377829 1.37324e-19)
(1.00994 -0.219085 1.2015e-20)
(1.01545 -0.219842 3.33128e-20)
(1.02101 -0.220428 -4.44921e-20)
(1.02662 -0.220842 0)
(1.03221 -0.221158 4.75503e-20)
(1.03789 -0.221274 -2.09683e-21)
(1.04358 -0.22127 -3.5401e-20)
(1.04924 -0.221095 0)
(1.05494 -0.22076 1.02585e-22)
(1.06065 -0.220283 -7.00401e-21)
(1.06641 -0.219661 6.4681e-21)
(1.07215 -0.218875 1.77266e-22)
(1.07787 -0.217942 0)
(1.08358 -0.216855 0)
(1.08932 -0.215554 7.42605e-21)
(1.09504 -0.214164 -1.94932e-20)
(1.10077 -0.212556 -3.06718e-21)
(1.10647 -0.210846 7.39645e-21)
(1.11216 -0.208929 -4.85368e-21)
(1.11778 -0.206907 1.82619e-21)
(1.12337 -0.204706 -5.02698e-22)
(1.12892 -0.202348 1.8423e-21)
(1.13442 -0.199841 1.31958e-22)
(1.13989 -0.197186 -1.11312e-21)
(1.14533 -0.194383 1.11487e-21)
(1.15072 -0.191472 4.16107e-21)
(1.15606 -0.188385 -3.07962e-21)
(1.1613 -0.185203 0)
(1.16646 -0.18188 0)
(1.17152 -0.17842 -3.41915e-21)
(1.17652 -0.174817 0)
(1.18148 -0.171111 -4.40036e-21)
(1.18632 -0.167292 4.91688e-21)
(1.19104 -0.163414 -7.66524e-21)
(1.19565 -0.159464 2.02839e-22)
(1.20017 -0.155385 -2.95024e-21)
(1.20462 -0.151164 0)
(1.20895 -0.146852 -6.85515e-21)
(1.21321 -0.142508 5.33313e-21)
(1.21738 -0.138139 -4.51091e-21)
(1.22147 -0.133692 2.82171e-21)
(1.22549 -0.129142 -2.18441e-23)
(1.22947 -0.124556 1.09119e-21)
(1.23341 -0.120012 -1.01477e-21)
(1.23733 -0.11542 8.64499e-21)
(1.24126 -0.110761 -4.41684e-21)
(1.24522 -0.106023 -4.64049e-21)
(1.24923 -0.101326 9.03007e-21)
(1.25327 -0.0965865 2.81279e-20)
(1.25737 -0.0917816 8.74487e-23)
(1.26156 -0.0869214 2.908e-20)
(1.26584 -0.0819842 -1.01057e-20)
(1.27029 -0.0769866 -3.08447e-20)
(1.27493 -0.071972 2.03499e-20)
(1.27977 -0.0669146 0)
(1.28486 -0.0617419 6.54605e-20)
(1.29022 -0.0564458 9.00487e-22)
(1.29588 -0.0510865 -2.23643e-20)
(1.30186 -0.0456103 -2.33812e-20)
(1.3082 -0.0399336 0)
(1.315 -0.0338799 2.41931e-20)
(1.32238 -0.027547 7.63992e-20)
(1.33036 -0.0210197 0)
(1.33902 -0.0141275 -5.54052e-20)
(1.34863 -0.00671351 2.9444e-20)
(1.35944 0.00119256 -6.03827e-20)
(1.37155 0.00979584 3.05735e-20)
(1.38512 0.0194533 -6.62253e-20)
(1.40133 0.0282131 -6.94404e-20)
(1.00883 -0.229085 -6.01025e-20)
(1.01461 -0.229842 3.62202e-20)
(1.02045 -0.230422 -1.11141e-20)
(1.02633 -0.230822 4.07881e-20)
(1.03225 -0.231072 -5.04538e-20)
(1.03819 -0.231165 -3.59715e-20)
(1.04416 -0.231101 4.44601e-20)
(1.05016 -0.230874 0)
(1.05617 -0.230482 1.04972e-22)
(1.06219 -0.229925 0)
(1.06821 -0.229206 -6.24872e-21)
(1.07423 -0.228321 5.83711e-21)
(1.08024 -0.227269 2.47562e-20)
(1.08622 -0.226055 -1.96326e-20)
(1.09218 -0.224667 4.18334e-21)
(1.09812 -0.223114 1.01584e-20)
(1.10404 -0.221393 -3.40429e-21)
(1.10994 -0.219503 -2.57763e-21)
(1.1158 -0.21745 -5.03921e-21)
(1.12164 -0.215226 3.29924e-21)
(1.12742 -0.212845 6.75837e-22)
(1.13313 -0.210307 -1.80246e-22)
(1.13879 -0.207614 5.48184e-22)
(1.14438 -0.204769 -8.82322e-22)
(1.14992 -0.201779 0)
(1.15538 -0.198649 1.89897e-21)
(1.16074 -0.195393 2.43414e-21)
(1.16603 -0.192002 -1.96254e-21)
(1.17124 -0.188474 0)
(1.17636 -0.184822 7.34555e-21)
(1.18141 -0.181037 -4.38641e-21)
(1.18636 -0.177159 -4.38295e-22)
(1.19121 -0.173201 0)
(1.19597 -0.169148 2.72629e-21)
(1.20063 -0.165026 -9.37361e-21)
(1.20521 -0.160782 6.32417e-21)
(1.20969 -0.156453 0)
(1.21407 -0.15205 5.43072e-21)
(1.21838 -0.147575 -5.54242e-21)
(1.22262 -0.143054 -9.44015e-22)
(1.22679 -0.138474 0)
(1.23089 -0.13385 -2.04959e-21)
(1.23494 -0.129184 -1.07103e-21)
(1.23897 -0.124479 1.06058e-21)
(1.24299 -0.119738 -6.50828e-21)
(1.24699 -0.11497 -4.56021e-21)
(1.251 -0.110184 9.0921e-21)
(1.25504 -0.105392 -9.53265e-21)
(1.25913 -0.100586 9.63139e-21)
(1.26327 -0.0957629 -9.57722e-21)
(1.2675 -0.0909219 -9.86353e-21)
(1.27185 -0.0860498 2.02905e-20)
(1.27636 -0.0811401 0)
(1.28106 -0.076194 2.10365e-20)
(1.28597 -0.0711974 -3.80184e-22)
(1.29114 -0.0661497 -2.22767e-20)
(1.2966 -0.0610396 -2.28411e-20)
(1.30239 -0.0558508 4.59341e-20)
(1.30853 -0.0505292 5.29204e-22)
(1.31506 -0.0450226 2.40749e-20)
(1.32207 -0.0392777 -4.95079e-20)
(1.32969 -0.0333277 -2.47521e-20)
(1.33805 -0.0271301 1.39556e-21)
(1.34729 -0.0206016 -2.69502e-20)
(1.35764 -0.0136464 -2.81348e-20)
(1.36931 -0.0062252 -8.90826e-20)
(1.38245 0.0018153 0)
(1.397 0.0108285 -3.43521e-20)
(1.41396 0.0193885 3.32629e-20)
(1.00764 -0.239725 0)
(1.01373 -0.240468 1.1928e-20)
(1.01989 -0.241027 5.5292e-20)
(1.02607 -0.241402 -4.37801e-20)
(1.03228 -0.241609 -2.88283e-20)
(1.03853 -0.241651 4.79763e-20)
(1.0448 -0.241525 -8.76483e-21)
(1.0511 -0.241228 8.03452e-21)
(1.05742 -0.240759 7.53973e-21)
(1.06374 -0.240117 2.62798e-20)
(1.07006 -0.239301 -2.60063e-20)
(1.07637 -0.238309 -2.14314e-20)
(1.08267 -0.237138 6.70255e-21)
(1.08895 -0.235789 1.78477e-20)
(1.0952 -0.23426 -1.20421e-20)
(1.10141 -0.232553 3.12208e-21)
(1.10759 -0.230671 -2.53916e-21)
(1.11373 -0.228612 -1.96383e-21)
(1.11982 -0.22638 4.41084e-21)
(1.12585 -0.223976 -1.81178e-21)
(1.13183 -0.221404 -6.84056e-22)
(1.13775 -0.218666 0)
(1.14359 -0.215767 2.08896e-21)
(1.14936 -0.212711 -7.71448e-22)
(1.15505 -0.209506 -3.73866e-21)
(1.16065 -0.206157 -5.30945e-21)
(1.16615 -0.202669 1.01057e-20)
(1.17156 -0.199042 -6.3357e-21)
(1.17687 -0.195284 0)
(1.18209 -0.191403 -8.34967e-21)
(1.1872 -0.187408 -4.61559e-22)
(1.19222 -0.183313 9.86722e-21)
(1.19713 -0.179126 -5.89663e-21)
(1.20194 -0.174848 1.5578e-20)
(1.20665 -0.170501 -2.99439e-21)
(1.21126 -0.16604 0)
(1.21578 -0.161502 0)
(1.22019 -0.156897 1.96354e-21)
(1.22453 -0.152237 1.92512e-21)
(1.22878 -0.147538 1.04211e-21)
(1.23295 -0.142804 -3.33998e-23)
(1.23706 -0.138038 1.05174e-21)
(1.24112 -0.133245 0)
(1.24515 -0.128436 -7.1394e-23)
(1.24914 -0.123621 0)
(1.25313 -0.118804 4.61268e-21)
(1.25713 -0.113983 1.48555e-22)
(1.26116 -0.109164 -1.44699e-20)
(1.26524 -0.104349 0)
(1.26938 -0.099534 -1.01052e-20)
(1.27363 -0.0947133 9.96106e-21)
(1.278 -0.0898827 -2.04668e-20)
(1.28253 -0.0850386 0)
(1.28725 -0.0801827 -6.41002e-20)
(1.29221 -0.0753106 -3.36849e-22)
(1.29744 -0.0704125 2.16364e-20)
(1.30297 -0.0654659 2.21201e-20)
(1.30883 -0.0604557 0)
(1.31508 -0.0553477 0)
(1.32177 -0.0501126 -2.42702e-20)
(1.32901 -0.0447081 4.99279e-20)
(1.33695 -0.0391197 5.15628e-20)
(1.34578 -0.0333172 0)
(1.35569 -0.0272476 -5.46961e-20)
(1.36683 -0.0208098 0)
(1.37938 -0.013915 9.10984e-20)
(1.39343 -0.0064556 -3.02721e-20)
(1.40891 0.00190003 -3.40828e-20)
(1.42641 0.00982994 -3.49526e-20)
(1.00656 -0.25101 0)
(1.01296 -0.251724 0)
(1.01943 -0.252245 1.14615e-20)
(1.02592 -0.252574 -4.18417e-20)
(1.03245 -0.252726 5.16647e-20)
(1.03901 -0.252704 -9.4511e-21)
(1.04559 -0.252505 0)
(1.0522 -0.252125 -8.13995e-21)
(1.05883 -0.251563 0)
(1.06546 -0.250816 -1.28871e-20)
(1.07209 -0.249884 1.49668e-21)
(1.07871 -0.248764 1.15646e-20)
(1.08531 -0.247456 0)
(1.09189 -0.24596 -7.82199e-21)
(1.09843 -0.244275 2.15704e-20)
(1.10494 -0.242402 -1.23422e-20)
(1.1114 -0.240343 1.21407e-20)
(1.1178 -0.2381 -2.20157e-21)
(1.12415 -0.235675 9.83243e-22)
(1.13042 -0.23307 -8.45723e-22)
(1.13663 -0.230289 2.37078e-22)
(1.14276 -0.227336 -1.15608e-21)
(1.1488 -0.224215 -2.11071e-21)
(1.15476 -0.220933 0)
(1.16062 -0.217495 4.75816e-21)
(1.16638 -0.213908 3.43968e-21)
(1.17203 -0.210177 -8.76125e-21)
(1.17758 -0.206311 3.44261e-21)
(1.18302 -0.202315 -8.89476e-21)
(1.18834 -0.1982 1.34151e-20)
(1.19354 -0.193974 -5.5112e-21)
(1.19863 -0.189648 3.00859e-21)
(1.20361 -0.185233 0)
(1.20847 -0.180737 -3.2484e-21)
(1.21321 -0.176178 -3.49662e-21)
(1.21785 -0.171513 0)
(1.22238 -0.16678 4.04988e-21)
(1.22681 -0.161995 -6.12154e-21)
(1.23114 -0.157168 4.08906e-21)
(1.23538 -0.152309 -2.14742e-21)
(1.23954 -0.147426 -3.6558e-23)
(1.24363 -0.142524 -1.71509e-21)
(1.24767 -0.13761 5.62488e-22)
(1.25167 -0.132695 2.2933e-21)
(1.25563 -0.127784 -7.1118e-25)
(1.25959 -0.122882 1.43596e-20)
(1.26356 -0.117993 0)
(1.26756 -0.113123 9.80425e-21)
(1.27161 -0.108276 6.20076e-23)
(1.27573 -0.103451 -1.00197e-20)
(1.27996 -0.0986466 0)
(1.28432 -0.0938627 -1.05776e-20)
(1.28886 -0.0890958 1.04246e-20)
(1.2936 -0.0843427 2.14392e-20)
(1.29858 -0.079596 0)
(1.30383 -0.0748454 -4.47208e-20)
(1.30939 -0.0700753 4.51509e-20)
(1.31531 -0.0652728 -4.60689e-20)
(1.32165 -0.0604094 -2.70866e-22)
(1.32852 -0.0554661 0)
(1.33606 -0.0504111 -2.53143e-20)
(1.34445 -0.0452285 2.5818e-20)
(1.35386 -0.0398781 2.64405e-20)
(1.36447 -0.0342997 5.50557e-20)
(1.3764 -0.0283963 -8.52521e-20)
(1.38977 -0.0220747 5.91678e-20)
(1.40463 -0.0152408 -2.98455e-20)
(1.4208 -0.00752025 3.03556e-20)
(1.43847 -0.000392679 1.00356e-19)
(1.00569 -0.263005 -5.07639e-20)
(1.01238 -0.263687 2.75212e-21)
(1.01914 -0.264163 4.77683e-20)
(1.02595 -0.264434 0)
(1.03279 -0.264519 -1.01769e-20)
(1.03967 -0.264418 0)
(1.04658 -0.264131 1.67171e-20)
(1.05351 -0.263653 -1.34124e-21)
(1.06045 -0.262982 -2.23894e-20)
(1.0674 -0.262115 6.44121e-21)
(1.07434 -0.261051 6.04371e-21)
(1.08128 -0.259789 5.05264e-21)
(1.08819 -0.258329 0)
(1.09507 -0.256669 0)
(1.10191 -0.254811 -3.44865e-21)
(1.10871 -0.252756 -2.82132e-21)
(1.11546 -0.250505 3.37487e-21)
(1.12214 -0.248059 -3.37257e-21)
(1.12875 -0.245424 -1.4975e-21)
(1.13529 -0.2426 -2.50219e-22)
(1.14174 -0.239593 1.14409e-21)
(1.1481 -0.236407 6.07154e-22)
(1.15436 -0.233047 -3.12236e-21)
(1.16051 -0.229521 -2.4321e-21)
(1.16656 -0.225834 -5.8963e-21)
(1.17249 -0.221994 5.91734e-21)
(1.1783 -0.218009 8.03045e-21)
(1.18399 -0.213887 -8.06877e-21)
(1.18955 -0.209636 0)
(1.19498 -0.205267 0)
(1.20029 -0.20079 1.4705e-20)
(1.20546 -0.196215 7.53313e-22)
(1.2105 -0.191555 -6.62569e-21)
(1.21541 -0.186821 -7.57305e-21)
(1.22019 -0.18202 7.60082e-21)
(1.22485 -0.177127 0)
(1.2294 -0.172172 -4.06842e-21)
(1.23382 -0.167175 -6.61815e-21)
(1.23814 -0.162146 4.33701e-21)
(1.24236 -0.157098 -5.4196e-23)
(1.2465 -0.152038 -3.67691e-22)
(1.25055 -0.146976 1.72894e-21)
(1.25455 -0.141919 1.21468e-21)
(1.25849 -0.136879 2.45219e-21)
(1.26241 -0.131862 -1.22194e-20)
(1.26632 -0.126876 -2.80903e-24)
(1.27023 -0.121925 0)
(1.27418 -0.117016 -1.02332e-20)
(1.27818 -0.112152 3.0861e-20)
(1.28226 -0.107334 -2.06317e-20)
(1.28646 -0.102562 -1.0585e-20)
(1.2908 -0.0978364 -1.5263e-22)
(1.29531 -0.0931522 -1.09582e-20)
(1.30003 -0.088506 -5.80931e-22)
(1.30499 -0.0838913 2.15934e-20)
(1.31024 -0.0793014 -2.21087e-20)
(1.31581 -0.0747258 -2.29291e-20)
(1.3218 -0.070154 4.59547e-20)
(1.32829 -0.0655685 5.58729e-22)
(1.33542 -0.0609574 2.44409e-20)
(1.34336 -0.0562945 -2.40617e-20)
(1.35227 -0.0515554 2.54754e-20)
(1.3623 -0.046689 -5.25002e-20)
(1.3736 -0.0416377 -2.76177e-20)
(1.38625 -0.0363069 5.45736e-20)
(1.40033 -0.0306059 -2.8956e-20)
(1.41574 -0.0244448 -9.08032e-20)
(1.43221 -0.0174369 -3.34268e-20)
(1.44962 -0.0111784 0)
(1.00497 -0.275756 0)
(1.01199 -0.276409 -1.24785e-20)
(1.01908 -0.27684 -8.43701e-23)
(1.0262 -0.27705 0)
(1.03337 -0.27706 0)
(1.04058 -0.276872 -9.2495e-21)
(1.04782 -0.276484 2.49618e-20)
(1.05508 -0.275893 -3.14029e-20)
(1.06236 -0.275098 1.5223e-20)
(1.06963 -0.274095 -6.51957e-21)
(1.0769 -0.272883 0)
(1.08415 -0.271461 -5.11187e-21)
(1.09138 -0.26983 4.00298e-21)
(1.09857 -0.267989 0)
(1.10572 -0.265938 0)
(1.11281 -0.263679 -1.80601e-21)
(1.11985 -0.261215 1.30185e-21)
(1.12681 -0.258547 2.41848e-21)
(1.1337 -0.255678 4.40355e-22)
(1.1405 -0.252613 1.21288e-22)
(1.1472 -0.249357 7.09464e-22)
(1.1538 -0.245914 6.96969e-21)
(1.16028 -0.242292 6.33172e-22)
(1.16665 -0.238496 -3.60198e-21)
(1.17289 -0.234536 6.07493e-21)
(1.179 -0.230419 -4.05147e-21)
(1.18498 -0.226154 8.30638e-21)
(1.19081 -0.22175 0)
(1.1965 -0.217218 0)
(1.20205 -0.212568 0)
(1.20745 -0.207813 -3.10148e-21)
(1.2127 -0.202965 -6.91243e-21)
(1.21781 -0.198037 7.29838e-21)
(1.22276 -0.193041 8.23075e-21)
(1.22757 -0.187976 -8.22931e-21)
(1.23225 -0.182833 0)
(1.2368 -0.17764 4.56401e-21)
(1.24121 -0.172417 -2.27145e-21)
(1.24551 -0.167176 0)
(1.2497 -0.161929 2.38627e-21)
(1.25379 -0.156687 -4.54977e-22)
(1.25779 -0.151461 3.02728e-22)
(1.26173 -0.14626 -1.22063e-21)
(1.26562 -0.141096 0)
(1.26947 -0.135975 -5.1274e-21)
(1.27332 -0.130904 5.05802e-21)
(1.27717 -0.125891 0)
(1.28105 -0.120941 -1.99078e-22)
(1.28499 -0.116058 -3.43407e-23)
(1.28902 -0.111244 1.0475e-20)
(1.29316 -0.106502 0)
(1.29744 -0.10183 -4.00856e-23)
(1.3019 -0.0972251 -1.07641e-20)
(1.30656 -0.0926864 -3.28371e-20)
(1.31148 -0.0882107 -1.81128e-22)
(1.31671 -0.0837947 2.22953e-20)
(1.32233 -0.0794345 0)
(1.32844 -0.0751239 0)
(1.33517 -0.0708547 2.30077e-20)
(1.34266 -0.0666141 0)
(1.35106 -0.0623741 0)
(1.36052 -0.0581045 9.39889e-22)
(1.37114 -0.0537477 -2.48561e-20)
(1.38306 -0.0492555 -5.26742e-20)
(1.39629 -0.0445306 5.29203e-20)
(1.41081 -0.0394897 1.83591e-21)
(1.42637 -0.0340575 2.90923e-20)
(1.44261 -0.0278388 2.96615e-20)
(1.45916 -0.0225968 0)
(1.00432 -0.289296 0)
(1.01172 -0.289922 1.26282e-20)
(1.01918 -0.290307 -3.44719e-20)
(1.02668 -0.290455 1.17686e-20)
(1.03421 -0.290388 0)
(1.04177 -0.290107 2.70888e-20)
(1.04937 -0.289611 -4.2333e-20)
(1.05698 -0.288898 1.51516e-21)
(1.0646 -0.287966 3.44477e-20)
(1.07222 -0.286812 -7.05198e-21)
(1.07983 -0.285436 5.0767e-21)
(1.08742 -0.283836 4.30764e-21)
(1.09497 -0.282013 -1.09735e-20)
(1.10249 -0.279967 1.23888e-20)
(1.10995 -0.277701 -5.46845e-21)
(1.11736 -0.275215 7.26953e-22)
(1.12469 -0.272513 -3.96624e-21)
(1.13194 -0.269595 1.32577e-21)
(1.13911 -0.266468 1.29283e-21)
(1.14617 -0.263136 -7.29347e-23)
(1.15313 -0.259604 1.25229e-21)
(1.15997 -0.255878 -1.35472e-20)
(1.16668 -0.251967 -3.72107e-21)
(1.17326 -0.247877 -1.1569e-21)
(1.1797 -0.243617 1.19131e-20)
(1.18599 -0.239196 -4.25799e-21)
(1.19213 -0.234625 1.08246e-20)
(1.19812 -0.229914 -1.69626e-20)
(1.20394 -0.225074 0)
(1.2096 -0.220118 -6.97911e-21)
(1.21509 -0.215059 7.02217e-21)
(1.22041 -0.20991 3.61994e-22)
(1.22558 -0.204687 -4.31624e-21)
(1.23057 -0.199405 -4.5578e-21)
(1.23541 -0.194053 1.40252e-20)
(1.2401 -0.18864 -9.16738e-21)
(1.24463 -0.183193 7.33534e-21)
(1.24903 -0.177728 -9.74787e-21)
(1.25329 -0.172261 4.8843e-21)
(1.25743 -0.166804 -1.22672e-21)
(1.26147 -0.16137 0)
(1.26542 -0.155969 1.29753e-21)
(1.26929 -0.150614 -1.28018e-21)
(1.27311 -0.145314 -2.63114e-21)
(1.27688 -0.140077 7.88691e-21)
(1.28065 -0.134914 -5.24207e-21)
(1.28441 -0.12983 -5.24494e-21)
(1.28821 -0.124833 0)
(1.29206 -0.119927 -2.14904e-20)
(1.296 -0.115114 2.14017e-20)
(1.30004 -0.110398 -1.0712e-20)
(1.30423 -0.105779 1.05731e-20)
(1.30859 -0.101258 1.06231e-20)
(1.31319 -0.0968362 2.17238e-20)
(1.31809 -0.0925161 2.20494e-20)
(1.32335 -0.0882968 0)
(1.32909 -0.0841817 -2.21892e-20)
(1.33542 -0.0801663 0)
(1.34247 -0.0762453 1.286e-22)
(1.35037 -0.0723993 -2.36658e-20)
(1.35924 -0.0686005 2.32611e-20)
(1.3692 -0.0648153 2.44621e-20)
(1.38033 -0.0609935 -2.4184e-20)
(1.39271 -0.0570845 -2.62945e-22)
(1.40625 -0.0529972 -1.14971e-21)
(1.42078 -0.0486571 8.15571e-20)
(1.43591 -0.0440168 2.75448e-20)
(1.4513 -0.0387112 3.07868e-20)
(1.4665 -0.0346755 -2.96927e-20)
(1.00368 -0.303677 0)
(1.0115 -0.304273 0)
(1.01939 -0.30461 -2.25727e-20)
(1.0273 -0.304693 3.33412e-20)
(1.03524 -0.304543 9.76238e-21)
(1.04321 -0.304164 0)
(1.0512 -0.303553 0)
(1.0592 -0.302708 -7.13158e-21)
(1.0672 -0.301628 1.22517e-20)
(1.0752 -0.300311 -2.06301e-21)
(1.08317 -0.298756 -2.47178e-20)
(1.09112 -0.296963 4.63124e-21)
(1.09903 -0.294932 -2.88269e-21)
(1.10689 -0.292663 5.8712e-21)
(1.11469 -0.29016 -1.45767e-21)
(1.12242 -0.287425 0)
(1.13007 -0.284461 0)
(1.13762 -0.281271 6.30027e-22)
(1.14508 -0.277859 -2.83824e-21)
(1.15242 -0.274232 1.36754e-21)
(1.15964 -0.270395 -2.78915e-21)
(1.16673 -0.266356 2.64843e-21)
(1.17367 -0.262124 3.80561e-21)
(1.18047 -0.257707 -3.20673e-21)
(1.18711 -0.253115 -4.45507e-21)
(1.19358 -0.24836 0)
(1.19989 -0.243451 0)
(1.20602 -0.238403 9.61108e-21)
(1.21196 -0.233226 0)
(1.21773 -0.227936 7.79611e-21)
(1.22331 -0.222546 -7.84337e-21)
(1.2287 -0.217072 -4.09678e-21)
(1.23391 -0.211529 4.34223e-21)
(1.23894 -0.205937 9.5549e-21)
(1.24379 -0.200275 -4.74088e-21)
(1.24848 -0.194568 -5.10172e-21)
(1.25299 -0.188841 5.20007e-21)
(1.25736 -0.183113 0)
(1.26157 -0.177399 0)
(1.26566 -0.171713 1.35974e-21)
(1.26963 -0.166069 0)
(1.2735 -0.160477 0)
(1.27728 -0.154952 -4.08791e-21)
(1.281 -0.149503 5.42716e-21)
(1.28467 -0.144142 -2.74773e-21)
(1.28832 -0.138877 5.35247e-21)
(1.29197 -0.133716 0)
(1.29564 -0.128665 1.63958e-20)
(1.29937 -0.123729 -1.16587e-24)
(1.30318 -0.118913 0)
(1.3071 -0.114223 -2.17184e-20)
(1.31118 -0.109662 7.53264e-23)
(1.31548 -0.105236 -2.17131e-20)
(1.32005 -0.100948 -1.08776e-20)
(1.32499 -0.0968058 -2.21166e-20)
(1.33037 -0.0928113 2.18141e-20)
(1.33631 -0.0889683 2.23325e-20)
(1.34292 -0.0852718 0)
(1.35032 -0.0817141 -2.2769e-20)
(1.35861 -0.0782723 -6.41051e-22)
(1.36791 -0.0749265 0)
(1.37827 -0.0716383 0)
(1.38976 -0.0683684 2.41479e-20)
(1.40229 -0.0650525 0)
(1.41567 -0.0616291 0)
(1.42959 -0.0580274 -2.48073e-20)
(1.44365 -0.0542509 -2.74663e-20)
(1.45755 -0.0500178 -2.73049e-20)
(1.47099 -0.0470811 0)
(1.00306 -0.318977 0)
(1.01134 -0.319536 0)
(1.01968 -0.319818 0)
(1.02805 -0.319828 1.04535e-20)
(1.03644 -0.319588 8.67796e-21)
(1.04485 -0.319101 -1.72966e-21)
(1.05328 -0.318365 -1.66176e-20)
(1.06171 -0.317378 7.20185e-21)
(1.07014 -0.316138 -5.80516e-21)
(1.07855 -0.314644 -1.04065e-20)
(1.08693 -0.312894 0)
(1.09528 -0.31089 0)
(1.10357 -0.308632 -7.35067e-22)
(1.11181 -0.306121 -6.1626e-21)
(1.11997 -0.30336 3.69024e-21)
(1.12805 -0.300352 -1.51973e-21)
(1.13604 -0.297102 2.95409e-23)
(1.14392 -0.293614 7.47301e-22)
(1.15168 -0.289893 -8.42577e-22)
(1.15931 -0.285944 0)
(1.16681 -0.281776 6.49566e-21)
(1.17416 -0.277396 0)
(1.18134 -0.272813 9.09204e-21)
(1.18837 -0.268038 -1.55636e-20)
(1.19521 -0.263082 1.7105e-20)
(1.20187 -0.257957 6.81247e-21)
(1.20834 -0.252676 -1.0829e-20)
(1.21462 -0.247253 1.13433e-20)
(1.22069 -0.241703 -7.70853e-21)
(1.22656 -0.236041 0)
(1.23222 -0.230285 -9.17829e-21)
(1.23768 -0.22445 -5.37432e-21)
(1.24293 -0.218553 9.71851e-21)
(1.24797 -0.21262 -1.04004e-20)
(1.25283 -0.206621 5.38242e-21)
(1.2575 -0.200595 -5.31277e-21)
(1.26198 -0.194565 -2.64561e-21)
(1.26629 -0.188551 2.8476e-21)
(1.27044 -0.182568 1.37301e-21)
(1.27444 -0.176631 -4.12863e-21)
(1.2783 -0.170754 -3.58849e-22)
(1.28206 -0.164953 0)
(1.28571 -0.159241 1.37634e-21)
(1.2893 -0.153631 -2.7553e-21)
(1.29283 -0.148133 2.75518e-21)
(1.29634 -0.142755 0)
(1.29984 -0.137507 0)
(1.30336 -0.132394 5.63942e-21)
(1.30694 -0.127426 -1.09961e-20)
(1.31062 -0.122609 -2.2121e-20)
(1.31443 -0.117954 4.39019e-20)
(1.31845 -0.113466 -1.09533e-20)
(1.32273 -0.109153 1.08588e-20)
(1.32735 -0.105022 1.09356e-20)
(1.3324 -0.10108 -2.19011e-20)
(1.33796 -0.0973297 2.15743e-20)
(1.34415 -0.093771 0)
(1.35106 -0.0903993 -2.13853e-20)
(1.3588 -0.0872054 -6.33492e-22)
(1.36743 -0.0841726 2.15445e-20)
(1.37704 -0.0812817 0)
(1.38762 -0.0784928 0)
(1.3991 -0.0757729 0)
(1.41126 -0.0730561 4.57181e-20)
(1.42384 -0.0703244 2.39934e-20)
(1.43651 -0.0675072 2.63988e-20)
(1.44894 -0.0646836 -5.06691e-20)
(1.46106 -0.0615123 1.81696e-21)
(1.47235 -0.0598067 2.67234e-20)
(1.00248 -0.335288 0)
(1.01125 -0.3358 2.38863e-20)
(1.02009 -0.336015 -2.93242e-20)
(1.02894 -0.33594 1.43411e-20)
(1.03781 -0.335598 -2.88321e-20)
(1.04671 -0.334992 -8.13108e-21)
(1.05561 -0.334118 -7.14522e-21)
(1.06451 -0.332976 0)
(1.0734 -0.331563 1.10714e-20)
(1.08226 -0.329878 9.10006e-21)
(1.09109 -0.327919 -8.38582e-21)
(1.09987 -0.325686 2.4577e-21)
(1.10859 -0.323182 -8.0905e-22)
(1.11723 -0.320407 3.2031e-21)
(1.1258 -0.317365 5.20953e-22)
(1.13426 -0.314058 -1.58988e-21)
(1.14262 -0.310491 -1.55061e-21)
(1.15085 -0.306672 3.25497e-21)
(1.15895 -0.302606 2.30932e-21)
(1.1669 -0.298302 7.64078e-21)
(1.17469 -0.293768 -6.64086e-21)
(1.18231 -0.289012 0)
(1.18976 -0.284044 1.02367e-21)
(1.19702 -0.278877 0)
(1.20408 -0.273522 -6.25772e-21)
(1.21093 -0.267994 -6.84356e-21)
(1.21757 -0.262306 3.70467e-21)
(1.22399 -0.256474 0)
(1.23019 -0.250516 4.75449e-21)
(1.23616 -0.24445 9.67874e-21)
(1.2419 -0.238292 -9.73124e-21)
(1.24741 -0.232063 4.9767e-21)
(1.25269 -0.225779 -1.10374e-20)
(1.25774 -0.219464 2.22086e-20)
(1.26258 -0.213096 -5.63889e-21)
(1.26721 -0.206716 0)
(1.27164 -0.200349 -3.02134e-21)
(1.27587 -0.194015 1.84255e-22)
(1.27991 -0.187732 4.39394e-21)
(1.2838 -0.181517 -3.66738e-21)
(1.28753 -0.175386 7.13775e-22)
(1.29114 -0.169358 -2.22713e-21)
(1.29464 -0.163446 1.45706e-21)
(1.29807 -0.157662 0)
(1.30144 -0.152014 0)
(1.30477 -0.146514 0)
(1.30811 -0.14117 5.77602e-21)
(1.31147 -0.135994 5.72092e-21)
(1.31491 -0.130997 0)
(1.31848 -0.126192 1.11385e-20)
(1.32224 -0.121588 1.10948e-20)
(1.32625 -0.117194 1.09842e-20)
(1.33058 -0.113014 0)
(1.3353 -0.109057 0)
(1.34052 -0.105325 -2.15368e-20)
(1.34631 -0.101823 2.11748e-20)
(1.35275 -0.0985483 0)
(1.35994 -0.0954999 2.12826e-20)
(1.36794 -0.0926663 -2.12404e-20)
(1.37678 -0.0900356 -2.03537e-20)
(1.38644 -0.0875829 2.11325e-20)
(1.39681 -0.0852749 -2.06849e-20)
(1.40769 -0.0830883 0)
(1.41882 -0.0809819 -2.21379e-20)
(1.42994 -0.0789763 -1.85608e-22)
(1.44084 -0.0770135 -4.36789e-20)
(1.45132 -0.0752388 -4.68769e-20)
(1.46154 -0.0731315 4.95518e-20)
(1.47039 -0.0729155 -2.68984e-20)
(1.00202 -0.352717 6.47671e-21)
(1.0113 -0.353172 0)
(1.02065 -0.353311 5.63506e-21)
(1.03002 -0.353139 -2.41217e-20)
(1.03941 -0.352681 4.0696e-20)
(1.04881 -0.351941 -8.6302e-21)
(1.05823 -0.350914 7.19752e-21)
(1.06764 -0.349599 -1.08377e-20)
(1.07703 -0.347992 5.52916e-21)
(1.08638 -0.346094 4.30585e-21)
(1.09569 -0.343902 2.53618e-21)
(1.10494 -0.341418 -5.71285e-21)
(1.11412 -0.338643 2.56541e-21)
(1.12321 -0.335578 5.38121e-22)
(1.13221 -0.332228 1.82984e-21)
(1.14109 -0.328596 1.66036e-21)
(1.14984 -0.324687 -3.64958e-21)
(1.15845 -0.320509 0)
(1.16691 -0.316069 0)
(1.1752 -0.311375 -5.14125e-21)
(1.18332 -0.306437 -4.7302e-21)
(1.19124 -0.301267 -1.25508e-20)
(1.19897 -0.295874 6.483e-21)
(1.20648 -0.290274 1.51021e-20)
(1.21377 -0.284478 -1.51261e-20)
(1.22082 -0.278504 4.54024e-21)
(1.22764 -0.272366 4.82029e-21)
(1.23421 -0.266082 0)
(1.24054 -0.259671 -4.76548e-21)
(1.2466 -0.253153 -1.07579e-20)
(1.25241 -0.24655 -3.95345e-22)
(1.25796 -0.239881 1.12709e-20)
(1.26326 -0.233169 -6.22656e-21)
(1.2683 -0.226426 0)
(1.2731 -0.219652 3.21352e-21)
(1.27767 -0.212882 -3.22788e-21)
(1.28201 -0.206145 3.01666e-21)
(1.28613 -0.199462 -6.25611e-21)
(1.29006 -0.192852 0)
(1.29381 -0.186335 -8.00316e-22)
(1.29739 -0.17993 7.75187e-22)
(1.30084 -0.173655 -1.18334e-21)
(1.30417 -0.167527 4.58258e-21)
(1.30741 -0.161556 -9.08554e-21)
(1.31059 -0.155749 5.99169e-21)
(1.31375 -0.150119 5.93872e-21)
(1.31692 -0.14468 -5.73208e-21)
(1.32015 -0.139449 1.17024e-20)
(1.32349 -0.134439 -1.14429e-20)
(1.32701 -0.129663 -2.82036e-20)
(1.33077 -0.125129 2.12815e-23)
(1.33483 -0.120841 -1.09804e-20)
(1.33927 -0.116803 0)
(1.34415 -0.113022 0)
(1.34956 -0.1095 -2.10207e-20)
(1.35557 -0.106242 3.11642e-20)
(1.36223 -0.103245 -2.03441e-20)
(1.3696 -0.100506 0)
(1.37766 -0.0980098 1.94728e-20)
(1.38635 -0.0957453 4.01154e-20)
(1.39555 -0.0936905 -2.02776e-20)
(1.40506 -0.0918316 -4.14314e-22)
(1.41466 -0.09017 1.94154e-20)
(1.42412 -0.0887 1.25089e-21)
(1.4333 -0.0874744 -4.04798e-20)
(1.44213 -0.0864517 4.19395e-20)
(1.45056 -0.0857939 2.26309e-20)
(1.45887 -0.0847662 0)
(1.46468 -0.0864097 0)
(1.0017 -0.371379 -6.51279e-21)
(1.01153 -0.371769 -2.82576e-20)
(1.02144 -0.371819 2.23539e-20)
(1.03136 -0.371538 0)
(1.0413 -0.37095 4.34352e-21)
(1.05125 -0.370058 1.35453e-20)
(1.0612 -0.368859 -1.05794e-20)
(1.07115 -0.36735 1.16455e-20)
(1.08107 -0.365528 -9.2509e-21)
(1.09095 -0.363392 0)
(1.10078 -0.360942 -1.76753e-21)
(1.11054 -0.358178 0)
(1.12021 -0.355102 1.23285e-21)
(1.12979 -0.351717 -8.04058e-22)
(1.13925 -0.348026 0)
(1.14858 -0.344035 0)
(1.15777 -0.339748 0)
(1.1668 -0.335173 -6.73899e-21)
(1.17566 -0.330323 9.1477e-21)
(1.18432 -0.325205 5.14985e-21)
(1.19278 -0.319827 0)
(1.20102 -0.314202 0)
(1.20904 -0.308342 0)
(1.21682 -0.302262 -2.22074e-20)
(1.22435 -0.295978 2.70266e-20)
(1.23162 -0.289508 -1.39624e-20)
(1.23863 -0.282871 -1.03043e-20)
(1.24536 -0.276087 1.10105e-20)
(1.2518 -0.269179 -1.10492e-20)
(1.25796 -0.262166 6.21292e-21)
(1.26383 -0.255074 -1.23678e-20)
(1.26942 -0.247924 5.80728e-21)
(1.27472 -0.240743 1.30486e-20)
(1.27974 -0.233534 6.92342e-21)
(1.2845 -0.226314 -3.20488e-21)
(1.28899 -0.21912 3.22121e-21)
(1.29322 -0.211978 0)
(1.29723 -0.204911 -2.19928e-22)
(1.30101 -0.197941 1.65895e-21)
(1.3046 -0.191089 6.12289e-24)
(1.308 -0.184377 -8.15004e-22)
(1.31126 -0.177825 2.00393e-21)
(1.31439 -0.171453 -3.22013e-21)
(1.31744 -0.165275 -1.60399e-21)
(1.32044 -0.159302 3.15729e-21)
(1.32344 -0.15355 0)
(1.32649 -0.148035 -1.20328e-20)
(1.32965 -0.142772 -1.76335e-20)
(1.33297 -0.137769 5.48244e-23)
(1.33651 -0.133035 1.70361e-20)
(1.34033 -0.128575 0)
(1.34449 -0.124395 0)
(1.34906 -0.120498 -1.06238e-20)
(1.35411 -0.116888 2.07865e-20)
(1.35968 -0.113565 -1.18757e-22)
(1.36582 -0.110532 -9.8615e-21)
(1.37252 -0.107778 3.91879e-20)
(1.37975 -0.1053 -1.92102e-20)
(1.38742 -0.103084 -1.92783e-20)
(1.39537 -0.101127 -3.65367e-20)
(1.40344 -0.0994268 9.81958e-23)
(1.41142 -0.0979965 2.06003e-22)
(1.41915 -0.0968731 -7.417e-22)
(1.4265 -0.0960825 3.7152e-20)
(1.4335 -0.0957077 -1.65699e-20)
(1.44025 -0.0957051 -1.8314e-20)
(1.44675 -0.096194 1.79937e-20)
(1.45296 -0.0963172 1.88046e-20)
(1.45511 -0.0987549 0)
(1.00156 -0.391401 2.35933e-20)
(1.01199 -0.391718 -1.24795e-20)
(1.02249 -0.391669 0)
(1.03301 -0.391264 4.20257e-21)
(1.04354 -0.39053 0)
(1.05408 -0.38947 -8.9052e-21)
(1.06462 -0.388078 6.52053e-21)
(1.07515 -0.386354 -7.93964e-21)
(1.08564 -0.384294 7.40145e-21)
(1.09608 -0.381897 7.44913e-22)
(1.10647 -0.379162 -1.86052e-21)
(1.11677 -0.37609 1.0714e-21)
(1.12698 -0.372684 0)
(1.13707 -0.368946 -4.80921e-21)
(1.14703 -0.36488 1.14469e-20)
(1.15685 -0.360493 -6.63343e-21)
(1.16651 -0.35579 0)
(1.17598 -0.350777 -1.42405e-20)
(1.18527 -0.345465 2.1655e-20)
(1.19433 -0.339869 -1.33857e-20)
(1.20316 -0.334001 0)
(1.21176 -0.327871 0)
(1.22009 -0.321495 0)
(1.22815 -0.314889 4.60372e-21)
(1.23594 -0.30807 1.07931e-20)
(1.24344 -0.301056 -1.0813e-20)
(1.25063 -0.293869 5.47848e-21)
(1.25752 -0.286531 0)
(1.2641 -0.279066 1.28148e-20)
(1.27035 -0.2715 -1.90597e-20)
(1.27629 -0.263859 0)
(1.2819 -0.25617 1.38911e-20)
(1.28719 -0.248464 -6.79271e-21)
(1.29218 -0.240733 -6.8673e-21)
(1.29687 -0.233017 3.74219e-21)
(1.30126 -0.225347 0)
(1.30537 -0.217757 0)
(1.30922 -0.210273 3.42417e-21)
(1.31284 -0.20291 0)
(1.31625 -0.195694 -1.73293e-21)
(1.31947 -0.188654 4.15867e-22)
(1.32255 -0.181817 1.67743e-21)
(1.3255 -0.175207 -3.89152e-23)
(1.3284 -0.16884 3.26304e-21)
(1.33128 -0.162721 6.48739e-21)
(1.3342 -0.156863 3.13052e-21)
(1.33721 -0.15128 -6.30161e-21)
(1.34036 -0.145985 -6.03198e-21)
(1.3437 -0.140984 -1.15787e-20)
(1.34729 -0.136287 1.13893e-20)
(1.35119 -0.131897 0)
(1.35546 -0.127819 -1.07275e-20)
(1.36013 -0.124052 8.99594e-23)
(1.36525 -0.120594 -1.6033e-23)
(1.37081 -0.117436 -1.97592e-20)
(1.37678 -0.114576 0)
(1.38309 -0.112 -9.16681e-21)
(1.38963 -0.109711 0)