/*--------------------------------*- C++ -*----------------------------------*\
| =========                 |                                                 |
| \\      /  F ield         | OpenFOAM: The Open Source CFD Toolbox           |
|  \\    /   O peration     | Version:  2312                                  |
|   \\  /    A nd           | Website:  www.openfoam.com                      |
|    \\/     M anipulation  |                                                 |
\*---------------------------------------------------------------------------*/
FoamFile
{
    version     2.0;
    format      ascii;
    arch        "LSB;label=32;scalar=64";
    class       volScalarField;
    location    "600";
    object      nut;
}
// * * * * * * * * * * * * * * * * * * * * * * * * * * * * * * * * * * * * * //

dimensions      [0 2 -1 0 0 0 0];

internalField   nonuniform List<scalar> 
76025
(
6.15701e-06
6.15868e-06
6.15832e-06
6.15754e-06
6.15972e-06
6.16256e-06
6.17067e-06
6.1797e-06
6.18742e-06
6.19409e-06
6.19994e-06
6.20472e-06
6.20846e-06
6.20953e-06
6.20897e-06
6.2081e-06
6.20717e-06
6.20654e-06
6.20504e-06
6.20419e-06
6.20066e-06
6.19761e-06
6.19549e-06
6.19472e-06
6.19953e-06
6.20305e-06
6.21378e-06
6.22469e-06
6.23647e-06
6.24989e-06
6.26465e-06
6.2768e-06
6.29116e-06
6.30282e-06
6.31487e-06
6.32441e-06
6.33377e-06
6.34627e-06
6.35729e-06
6.36747e-06
6.37615e-06
6.38436e-06
6.39487e-06
6.40226e-06
6.40806e-06
6.41121e-06
6.41403e-06
6.41281e-06
6.40748e-06
6.39839e-06
6.38631e-06
6.37263e-06
6.35733e-06
6.34197e-06
6.32817e-06
6.31471e-06
6.30456e-06
6.29549e-06
6.29289e-06
6.29669e-06
6.31013e-06
6.33175e-06
6.35983e-06
6.39208e-06
6.42592e-06
6.46102e-06
6.49611e-06
6.5247e-06
6.54763e-06
6.12967e-06
6.14121e-06
6.1493e-06
6.1537e-06
6.15641e-06
6.15731e-06
6.1597e-06
6.16416e-06
6.17034e-06
6.17727e-06
6.18441e-06
6.19137e-06
6.19817e-06
6.20443e-06
6.20884e-06
6.2121e-06
6.21378e-06
6.21483e-06
6.21497e-06
6.21477e-06
6.21344e-06
6.21122e-06
6.20837e-06
6.20411e-06
6.19824e-06
6.1931e-06
6.19e-06
6.18887e-06
6.1895e-06
6.19167e-06
6.1946e-06
6.20068e-06
6.20956e-06
6.21877e-06
6.22785e-06
6.23637e-06
6.24396e-06
6.25087e-06
6.25696e-06
6.26201e-06
6.26578e-06
6.26813e-06
6.26909e-06
6.26852e-06
6.2663e-06
6.26167e-06
6.2541e-06
6.24626e-06
6.23904e-06
6.23302e-06
6.229e-06
6.2301e-06
6.23464e-06
6.24307e-06
6.25454e-06
6.26895e-06
6.28622e-06
6.30609e-06
6.32855e-06
6.35314e-06
6.37941e-06
6.40659e-06
6.43383e-06
6.46027e-06
6.48536e-06
6.50833e-06
6.52874e-06
6.54547e-06
6.56222e-06
6.0855e-06
6.09652e-06
6.11124e-06
6.12522e-06
6.13632e-06
6.14426e-06
6.14973e-06
6.15402e-06
6.15835e-06
6.1633e-06
6.16897e-06
6.17524e-06
6.18192e-06
6.18898e-06
6.19598e-06
6.20253e-06
6.20822e-06
6.21294e-06
6.21667e-06
6.21948e-06
6.22147e-06
6.22262e-06
6.22301e-06
6.2225e-06
6.22072e-06
6.21791e-06
6.21451e-06
6.2109e-06
6.20736e-06
6.20434e-06
6.19914e-06
6.1937e-06
6.1898e-06
6.18738e-06
6.18609e-06
6.1856e-06
6.1856e-06
6.18581e-06
6.18606e-06
6.18627e-06
6.18678e-06
6.1876e-06
6.18881e-06
6.19045e-06
6.19261e-06
6.19543e-06
6.2011e-06
6.20879e-06
6.21811e-06
6.22878e-06
6.24089e-06
6.25447e-06
6.26945e-06
6.28584e-06
6.30356e-06
6.32246e-06
6.34235e-06
6.36298e-06
6.38405e-06
6.40519e-06
6.42598e-06
6.44601e-06
6.46485e-06
6.48212e-06
6.4975e-06
6.51072e-06
6.5218e-06
6.53002e-06
6.5367e-06
6.0533e-06
6.05751e-06
6.06557e-06
6.07588e-06
6.08782e-06
6.10319e-06
6.11733e-06
6.12881e-06
6.13799e-06
6.1456e-06
6.15234e-06
6.15873e-06
6.16509e-06
6.17162e-06
6.17846e-06
6.18552e-06
6.19264e-06
6.19957e-06
6.2061e-06
6.21205e-06
6.21736e-06
6.22199e-06
6.22593e-06
6.22923e-06
6.23184e-06
6.23369e-06
6.23477e-06
6.23513e-06
6.23489e-06
6.23432e-06
6.2332e-06
6.23151e-06
6.22958e-06
6.22775e-06
6.22626e-06
6.22526e-06
6.22487e-06
6.22515e-06
6.22615e-06
6.22793e-06
6.23041e-06
6.23362e-06
6.23763e-06
6.24246e-06
6.24818e-06
6.25483e-06
6.26251e-06
6.27124e-06
6.28104e-06
6.29186e-06
6.30368e-06
6.31643e-06
6.33001e-06
6.34428e-06
6.3591e-06
6.37427e-06
6.38955e-06
6.4047e-06
6.41946e-06
6.43356e-06
6.44673e-06
6.45874e-06
6.46939e-06
6.47851e-06
6.48601e-06
6.49182e-06
6.49614e-06
6.49819e-06
6.49989e-06
6.03907e-06
6.03603e-06
6.03551e-06
6.03779e-06
6.0433e-06
6.05215e-06
6.06281e-06
6.07543e-06
6.09125e-06
6.10597e-06
6.11871e-06
6.12974e-06
6.13942e-06
6.14813e-06
6.15622e-06
6.16399e-06
6.17164e-06
6.17924e-06
6.1868e-06
6.19424e-06
6.20146e-06
6.20838e-06
6.21491e-06
6.22101e-06
6.22668e-06
6.2319e-06
6.23664e-06
6.24088e-06
6.24463e-06
6.24792e-06
6.25085e-06
6.25343e-06
6.2557e-06
6.25774e-06
6.25966e-06
6.26159e-06
6.26366e-06
6.26599e-06
6.26868e-06
6.27181e-06
6.27542e-06
6.27957e-06
6.28429e-06
6.2896e-06
6.29555e-06
6.30214e-06
6.30938e-06
6.31724e-06
6.3257e-06
6.3347e-06
6.34417e-06
6.35403e-06
6.36415e-06
6.37441e-06
6.38466e-06
6.39475e-06
6.4045e-06
6.41375e-06
6.42234e-06
6.43013e-06
6.437e-06
6.44286e-06
6.44764e-06
6.45132e-06
6.45389e-06
6.45534e-06
6.45592e-06
6.4546e-06
6.45436e-06
6.04554e-06
6.03849e-06
6.03104e-06
6.02501e-06
6.0213e-06
6.02041e-06
6.02253e-06
6.028e-06
6.03649e-06
6.04699e-06
6.05989e-06
6.07583e-06
6.09117e-06
6.10515e-06
6.11777e-06
6.12919e-06
6.13964e-06
6.14935e-06
6.15853e-06
6.16733e-06
6.17585e-06
6.18412e-06
6.19215e-06
6.19993e-06
6.20744e-06
6.21467e-06
6.22159e-06
6.22821e-06
6.23452e-06
6.2405e-06
6.24618e-06
6.25159e-06
6.25674e-06
6.26166e-06
6.26638e-06
6.27095e-06
6.27541e-06
6.27983e-06
6.28426e-06
6.28878e-06
6.29346e-06
6.29836e-06
6.30349e-06
6.30888e-06
6.31454e-06
6.32046e-06
6.32663e-06
6.33304e-06
6.33962e-06
6.34634e-06
6.35313e-06
6.35992e-06
6.36662e-06
6.37314e-06
6.3794e-06
6.38529e-06
6.39073e-06
6.39565e-06
6.39996e-06
6.40363e-06
6.40661e-06
6.40889e-06
6.41046e-06
6.41132e-06
6.41145e-06
6.41078e-06
6.40946e-06
6.40637e-06
6.40382e-06
6.03853e-06
6.04159e-06
6.04018e-06
6.0345e-06
6.02626e-06
6.01809e-06
6.01141e-06
6.00693e-06
6.00522e-06
6.00652e-06
6.01093e-06
6.01824e-06
6.02833e-06
6.04135e-06
6.05686e-06
6.07233e-06
6.087e-06
6.10069e-06
6.1134e-06
6.12523e-06
6.13631e-06
6.14675e-06
6.15666e-06
6.16613e-06
6.17521e-06
6.18395e-06
6.19237e-06
6.20049e-06
6.20832e-06
6.21588e-06
6.22316e-06
6.23017e-06
6.23693e-06
6.24344e-06
6.24972e-06
6.25578e-06
6.26163e-06
6.26728e-06
6.27275e-06
6.2781e-06
6.2834e-06
6.28867e-06
6.29393e-06
6.29918e-06
6.30442e-06
6.30964e-06
6.31482e-06
6.31995e-06
6.325e-06
6.32992e-06
6.33469e-06
6.33926e-06
6.34359e-06
6.34763e-06
6.35135e-06
6.3547e-06
6.35765e-06
6.36019e-06
6.36229e-06
6.36395e-06
6.36514e-06
6.36587e-06
6.36609e-06
6.36575e-06
6.36472e-06
6.36279e-06
6.35993e-06
6.35472e-06
6.34896e-06
6.00288e-06
6.01622e-06
6.02603e-06
6.03187e-06
6.03353e-06
6.0314e-06
6.02608e-06
6.0177e-06
6.00889e-06
6.00105e-06
5.99502e-06
5.99143e-06
5.99081e-06
5.99342e-06
5.99944e-06
6.00867e-06
6.02124e-06
6.0357e-06
6.05053e-06
6.06506e-06
6.07902e-06
6.09228e-06
6.10484e-06
6.11672e-06
6.12797e-06
6.13865e-06
6.14881e-06
6.1585e-06
6.16776e-06
6.17662e-06
6.18512e-06
6.19326e-06
6.20107e-06
6.20856e-06
6.21574e-06
6.22261e-06
6.22918e-06
6.23545e-06
6.24142e-06
6.24715e-06
6.2527e-06
6.25807e-06
6.26329e-06
6.26834e-06
6.27322e-06
6.27793e-06
6.28245e-06
6.28679e-06
6.29091e-06
6.29481e-06
6.29848e-06
6.3019e-06
6.30506e-06
6.30795e-06
6.31056e-06
6.31288e-06
6.31491e-06
6.31663e-06
6.31804e-06
6.31911e-06
6.31977e-06
6.31996e-06
6.31953e-06
6.31826e-06
6.31589e-06
6.31192e-06
6.30621e-06
6.29659e-06
6.28612e-06
5.95056e-06
5.96615e-06
5.98168e-06
5.99611e-06
6.00839e-06
6.01772e-06
6.02359e-06
6.02576e-06
6.02451e-06
6.02042e-06
6.01415e-06
6.0063e-06
5.9978e-06
5.99035e-06
5.98531e-06
5.98343e-06
5.98508e-06
5.99032e-06
5.99876e-06
6.00946e-06
6.02144e-06
6.03401e-06
6.04671e-06
6.05928e-06
6.07153e-06
6.08339e-06
6.09479e-06
6.10572e-06
6.11618e-06
6.12617e-06
6.13572e-06
6.14482e-06
6.1535e-06
6.16177e-06
6.16964e-06
6.17711e-06
6.18419e-06
6.19088e-06
6.19719e-06
6.2032e-06
6.20896e-06
6.21447e-06
6.21976e-06
6.22482e-06
6.22964e-06
6.23425e-06
6.23862e-06
6.24277e-06
6.24669e-06
6.25038e-06
6.25385e-06
6.2571e-06
6.26012e-06
6.26292e-06
6.26548e-06
6.2678e-06
6.26985e-06
6.27159e-06
6.27293e-06
6.27377e-06
6.27395e-06
6.27324e-06
6.27132e-06
6.26778e-06
6.26211e-06
6.25358e-06
6.24182e-06
6.22437e-06
6.20484e-06
5.89784e-06
5.90721e-06
5.91845e-06
5.93224e-06
5.9489e-06
5.96585e-06
5.98143e-06
5.99476e-06
6.00532e-06
6.0128e-06
6.01708e-06
6.01823e-06
6.01658e-06
6.01281e-06
6.00787e-06
6.00277e-06
5.99845e-06
5.99568e-06
5.99494e-06
5.9964e-06
5.99997e-06
6.00536e-06
6.01225e-06
6.02025e-06
6.02904e-06
6.03833e-06
6.0479e-06
6.05757e-06
6.0672e-06
6.07669e-06
6.08596e-06
6.09497e-06
6.10368e-06
6.11205e-06
6.12007e-06
6.12772e-06
6.13499e-06
6.14187e-06
6.14836e-06
6.1546e-06
6.16061e-06
6.16639e-06
6.17195e-06
6.1773e-06
6.18243e-06
6.18735e-06
6.19206e-06
6.19656e-06
6.20085e-06
6.20493e-06
6.2088e-06
6.21246e-06
6.21587e-06
6.21902e-06
6.22186e-06
6.22432e-06
6.2263e-06
6.22766e-06
6.22822e-06
6.22772e-06
6.22583e-06
6.22214e-06
6.21612e-06
6.20717e-06
6.19456e-06
6.17742e-06
6.15515e-06
6.12564e-06
6.09104e-06
5.85597e-06
5.8589e-06
5.86374e-06
5.87067e-06
5.88008e-06
5.89225e-06
5.90733e-06
5.9251e-06
5.94316e-06
5.96003e-06
5.97496e-06
5.98746e-06
5.99723e-06
6.00419e-06
6.00851e-06
6.0106e-06
6.01103e-06
6.01044e-06
6.00946e-06
6.00862e-06
6.00835e-06
6.00891e-06
6.01045e-06
6.01301e-06
6.01656e-06
6.02099e-06
6.02619e-06
6.03202e-06
6.03835e-06
6.04503e-06
6.05195e-06
6.05901e-06
6.0661e-06
6.07317e-06
6.08013e-06
6.08694e-06
6.09355e-06
6.09993e-06
6.10608e-06
6.11212e-06
6.11805e-06
6.12387e-06
6.12955e-06
6.13509e-06
6.14047e-06
6.14568e-06
6.1507e-06
6.15551e-06
6.16011e-06
6.16444e-06
6.16849e-06
6.17219e-06
6.17548e-06
6.17825e-06
6.18038e-06
6.18169e-06
6.18199e-06
6.18098e-06
6.17832e-06
6.17361e-06
6.16635e-06
6.15594e-06
6.14173e-06
6.12296e-06
6.09885e-06
6.06848e-06
6.03132e-06
5.98531e-06
5.93151e-06
5.81995e-06
5.81897e-06
5.81917e-06
5.8205e-06
5.82341e-06
5.82838e-06
5.83573e-06
5.84562e-06
5.85818e-06
5.87344e-06
5.89138e-06
5.91022e-06
5.92836e-06
5.94497e-06
5.95959e-06
5.972e-06
5.98221e-06
5.99035e-06
5.99668e-06
6.00155e-06
6.00531e-06
6.00833e-06
6.01093e-06
6.01336e-06
6.01584e-06
6.01852e-06
6.0215e-06
6.02483e-06
6.02853e-06
6.03257e-06
6.03694e-06
6.04158e-06
6.04644e-06
6.05147e-06
6.0566e-06
6.06179e-06
6.06697e-06
6.07211e-06
6.07722e-06
6.08237e-06
6.08752e-06
6.09265e-06
6.09772e-06
6.10269e-06
6.10753e-06
6.11218e-06
6.11659e-06
6.12071e-06
6.12446e-06
6.12777e-06
6.13052e-06
6.13258e-06
6.1338e-06
6.13399e-06
6.13289e-06
6.13022e-06
6.12565e-06
6.11875e-06
6.10906e-06
6.09604e-06
6.07909e-06
6.05755e-06
6.03073e-06
5.9979e-06
5.95832e-06
5.91119e-06
5.85619e-06
5.79146e-06
5.71518e-06
5.78348e-06
5.78106e-06
5.77917e-06
5.77774e-06
5.77684e-06
5.77671e-06
5.77778e-06
5.7805e-06
5.78526e-06
5.79226e-06
5.80162e-06
5.81337e-06
5.82755e-06
5.84414e-06
5.86259e-06
5.88137e-06
5.89937e-06
5.91603e-06
5.93109e-06
5.94448e-06
5.95624e-06
5.96648e-06
5.97537e-06
5.98309e-06
5.98985e-06
5.99584e-06
6.00124e-06
6.0062e-06
6.01085e-06
6.0153e-06
6.01961e-06
6.02385e-06
6.02804e-06
6.0322e-06
6.03633e-06
6.04043e-06
6.04446e-06
6.04842e-06
6.05234e-06
6.05623e-06
6.06005e-06
6.06377e-06
6.06733e-06
6.07067e-06
6.07372e-06
6.0764e-06
6.07861e-06
6.08023e-06
6.08115e-06
6.08119e-06
6.08018e-06
6.07791e-06
6.07411e-06
6.0685e-06
6.06075e-06
6.05047e-06
6.03722e-06
6.02052e-06
5.99987e-06
5.97468e-06
5.94438e-06
5.90837e-06
5.86603e-06
5.81678e-06
5.76001e-06
5.69511e-06
5.62186e-06
5.53849e-06
5.44468e-06
5.74232e-06
5.73965e-06
5.73702e-06
5.73454e-06
5.73219e-06
5.73002e-06
5.72814e-06
5.72674e-06
5.72607e-06
5.72646e-06
5.72834e-06
5.73201e-06
5.73766e-06
5.74534e-06
5.75505e-06
5.76678e-06
5.78052e-06
5.79624e-06
5.81365e-06
5.8317e-06
5.84943e-06
5.86627e-06
5.88196e-06
5.8964e-06
5.90959e-06
5.92155e-06
5.93237e-06
5.94214e-06
5.95096e-06
5.95893e-06
5.96615e-06
5.9727e-06
5.97865e-06
5.98408e-06
5.98901e-06
5.99349e-06
5.99752e-06
6.00112e-06
6.00433e-06
6.00718e-06
6.00962e-06
6.0116e-06
6.01305e-06
6.01391e-06
6.01406e-06
6.01341e-06
6.0118e-06
6.00908e-06
6.00507e-06
5.99956e-06
5.9923e-06
5.98302e-06
5.97141e-06
5.95714e-06
5.93982e-06
5.91905e-06
5.89439e-06
5.86538e-06
5.83155e-06
5.79241e-06
5.74749e-06
5.69629e-06
5.63834e-06
5.57315e-06
5.50025e-06
5.41908e-06
5.32928e-06
5.22978e-06
5.11618e-06
5.69312e-06
5.69066e-06
5.68797e-06
5.68521e-06
5.68243e-06
5.67963e-06
5.67681e-06
5.67399e-06
5.67123e-06
5.66868e-06
5.66651e-06
5.6649e-06
5.6641e-06
5.66438e-06
5.66606e-06
5.66932e-06
5.67423e-06
5.68075e-06
5.68885e-06
5.69847e-06
5.70964e-06
5.72233e-06
5.73654e-06
5.75202e-06
5.76803e-06
5.78386e-06
5.79904e-06
5.81331e-06
5.82655e-06
5.8387e-06
5.84977e-06
5.85976e-06
5.8687e-06
5.87661e-06
5.88351e-06
5.8894e-06
5.89431e-06
5.89823e-06
5.90127e-06
5.90343e-06
5.90463e-06
5.90484e-06
5.90395e-06
5.90188e-06
5.8985e-06
5.89369e-06
5.88728e-06
5.87909e-06
5.86892e-06
5.85653e-06
5.84167e-06
5.82407e-06
5.80342e-06
5.77938e-06
5.75162e-06
5.71978e-06
5.68347e-06
5.64233e-06
5.59598e-06
5.54401e-06
5.48604e-06
5.42164e-06
5.35037e-06
5.27173e-06
5.1852e-06
5.08999e-06
4.98584e-06
4.86973e-06
4.74708e-06
5.63238e-06
5.63031e-06
5.62791e-06
5.62527e-06
5.62246e-06
5.61953e-06
5.61649e-06
5.61333e-06
5.61005e-06
5.60665e-06
5.60316e-06
5.59963e-06
5.59615e-06
5.59287e-06
5.58994e-06
5.58751e-06
5.58571e-06
5.58471e-06
5.58472e-06
5.58588e-06
5.58825e-06
5.59176e-06
5.59632e-06
5.60188e-06
5.60834e-06
5.61574e-06
5.62407e-06
5.63332e-06
5.6435e-06
5.65439e-06
5.66551e-06
5.67635e-06
5.68647e-06
5.6956e-06
5.70355e-06
5.7102e-06
5.71546e-06
5.7194e-06
5.72212e-06
5.72352e-06
5.72351e-06
5.72197e-06
5.71879e-06
5.71385e-06
5.70704e-06
5.6982e-06
5.68716e-06
5.67373e-06
5.65771e-06
5.6389e-06
5.61707e-06
5.59198e-06
5.56334e-06
5.53087e-06
5.49429e-06
5.45329e-06
5.40757e-06
5.35681e-06
5.30063e-06
5.23866e-06
5.17047e-06
5.09557e-06
5.0134e-06
4.92326e-06
4.82434e-06
4.71543e-06
4.59556e-06
4.46174e-06
4.31069e-06
5.55628e-06
5.55458e-06
5.55255e-06
5.55021e-06
5.54762e-06
5.54479e-06
5.54175e-06
5.53853e-06
5.53512e-06
5.53153e-06
5.52774e-06
5.52375e-06
5.51956e-06
5.51517e-06
5.51063e-06
5.506e-06
5.50134e-06
5.49674e-06
5.4923e-06
5.48812e-06
5.48427e-06
5.48081e-06
5.47781e-06
5.47535e-06
5.47348e-06
5.47224e-06
5.47155e-06
5.47128e-06
5.47129e-06
5.47147e-06
5.47172e-06
5.47197e-06
5.47221e-06
5.4724e-06
5.47248e-06
5.47239e-06
5.47215e-06
5.4723e-06
5.47254e-06
5.47201e-06
5.47019e-06
5.46675e-06
5.4615e-06
5.45427e-06
5.44484e-06
5.43296e-06
5.41844e-06
5.40112e-06
5.38086e-06
5.35745e-06
5.33067e-06
5.30024e-06
5.2659e-06
5.22743e-06
5.18454e-06
5.13695e-06
5.08431e-06
5.02623e-06
4.96229e-06
4.892e-06
4.81476e-06
4.72989e-06
4.63651e-06
4.53346e-06
4.41922e-06
4.29176e-06
4.14891e-06
3.98783e-06
3.80064e-06
5.4607e-06
5.45915e-06
5.4573e-06
5.45517e-06
5.45276e-06
5.45007e-06
5.44711e-06
5.4439e-06
5.44043e-06
5.43672e-06
5.43277e-06
5.42857e-06
5.42411e-06
5.41939e-06
5.41438e-06
5.40909e-06
5.40352e-06
5.39768e-06
5.39157e-06
5.38523e-06
5.37871e-06
5.37203e-06
5.36524e-06
5.35835e-06
5.35142e-06
5.34446e-06
5.33746e-06
5.33041e-06
5.32328e-06
5.31604e-06
5.30867e-06
5.30112e-06
5.29329e-06
5.28504e-06
5.27617e-06
5.2665e-06
5.25588e-06
5.24415e-06
5.23133e-06
5.21788e-06
5.20454e-06
5.19191e-06
5.17971e-06
5.16687e-06
5.15241e-06
5.1358e-06
5.11681e-06
5.0953e-06
5.07098e-06
5.04339e-06
5.0121e-06
4.9768e-06
4.93729e-06
4.89331e-06
4.84448e-06
4.79037e-06
4.73053e-06
4.66446e-06
4.59159e-06
4.51118e-06
4.42229e-06
4.32372e-06
4.21385e-06
4.09062e-06
3.95135e-06
3.7934e-06
3.61481e-06
3.414e-06
3.1904e-06
5.34075e-06
5.33893e-06
5.33687e-06
5.33457e-06
5.33203e-06
5.32924e-06
5.32617e-06
5.32282e-06
5.31918e-06
5.31526e-06
5.31104e-06
5.30652e-06
5.30171e-06
5.29659e-06
5.29115e-06
5.28538e-06
5.27925e-06
5.27277e-06
5.2659e-06
5.25864e-06
5.25099e-06
5.24293e-06
5.23445e-06
5.22555e-06
5.21624e-06
5.2065e-06
5.19634e-06
5.18574e-06
5.17469e-06
5.16315e-06
5.15109e-06
5.13846e-06
5.12522e-06
5.11129e-06
5.09658e-06
5.08099e-06
5.06444e-06
5.04677e-06
5.02788e-06
5.00765e-06
4.98594e-06
4.96244e-06
4.93682e-06
4.909e-06
4.87957e-06
4.8496e-06
4.81982e-06
4.78947e-06
4.75698e-06
4.72112e-06
4.6814e-06
4.63776e-06
4.59001e-06
4.53749e-06
4.47943e-06
4.4153e-06
4.34454e-06
4.2664e-06
4.17983e-06
4.08345e-06
3.97532e-06
3.85339e-06
3.71516e-06
3.55816e-06
3.3798e-06
3.18066e-06
2.96387e-06
2.73446e-06
2.50566e-06
5.18927e-06
5.1867e-06
5.18394e-06
5.18098e-06
5.17782e-06
5.17444e-06
5.17082e-06
5.16694e-06
5.16278e-06
5.15832e-06
5.15354e-06
5.14844e-06
5.143e-06
5.13721e-06
5.13105e-06
5.12451e-06
5.11758e-06
5.11023e-06
5.10245e-06
5.09421e-06
5.08549e-06
5.07627e-06
5.06651e-06
5.05619e-06
5.04528e-06
5.03375e-06
5.02158e-06
5.00873e-06
4.99517e-06
4.98084e-06
4.96571e-06
4.94972e-06
4.93281e-06
4.91492e-06
4.89596e-06
4.87587e-06
4.85452e-06
4.8318e-06
4.80758e-06
4.78172e-06
4.75406e-06
4.72443e-06
4.69261e-06
4.65837e-06
4.62148e-06
4.58178e-06
4.53895e-06
4.49247e-06
4.44187e-06
4.38751e-06
4.3306e-06
4.27206e-06
4.21039e-06
4.14335e-06
4.0702e-06
3.99051e-06
3.90291e-06
3.80553e-06
3.69625e-06
3.57263e-06
3.43157e-06
3.27207e-06
3.0936e-06
2.89756e-06
2.68403e-06
2.46795e-06
2.25738e-06
2.06908e-06
1.91262e-06
4.99464e-06
4.99086e-06
4.98691e-06
4.98279e-06
4.97849e-06
4.97399e-06
4.96927e-06
4.96431e-06
4.95908e-06
4.95356e-06
4.94773e-06
4.94155e-06
4.93501e-06
4.92809e-06
4.92077e-06
4.91302e-06
4.90481e-06
4.89614e-06
4.88696e-06
4.87726e-06
4.86699e-06
4.85614e-06
4.84466e-06
4.83252e-06
4.81967e-06
4.80607e-06
4.79167e-06
4.77642e-06
4.76027e-06
4.74314e-06
4.72497e-06
4.70569e-06
4.68521e-06
4.66345e-06
4.64029e-06
4.61568e-06
4.58948e-06
4.56156e-06
4.53177e-06
4.49994e-06
4.46588e-06
4.42938e-06
4.39022e-06
4.34814e-06
4.30286e-06
4.25408e-06
4.20147e-06
4.14467e-06
4.08321e-06
4.01657e-06
3.9443e-06
3.86575e-06
3.77969e-06
3.68574e-06
3.58718e-06
3.4826e-06
3.36714e-06
3.23771e-06
3.09269e-06
2.93064e-06
2.74866e-06
2.55764e-06
2.36192e-06
2.16835e-06
1.98856e-06
1.8316e-06
1.70658e-06
1.63205e-06
1.65666e-06
4.7375e-06
4.73215e-06
4.72662e-06
4.72091e-06
4.71501e-06
4.7089e-06
4.70256e-06
4.69597e-06
4.6891e-06
4.68193e-06
4.67444e-06
4.66658e-06
4.65835e-06
4.6497e-06
4.64061e-06
4.63104e-06
4.62097e-06
4.61037e-06
4.59919e-06
4.5874e-06
4.57497e-06
4.56185e-06
4.54799e-06
4.53335e-06
4.51787e-06
4.5015e-06
4.48418e-06
4.46582e-06
4.44637e-06
4.42574e-06
4.40383e-06
4.38055e-06
4.3558e-06
4.32944e-06
4.30137e-06
4.27146e-06
4.23957e-06
4.20551e-06
4.16909e-06
4.13011e-06
4.08834e-06
4.04351e-06
3.99536e-06
3.94357e-06
3.8878e-06
3.82767e-06
3.76274e-06
3.69253e-06
3.61646e-06
3.53385e-06
3.44389e-06
3.34568e-06
3.23814e-06
3.12015e-06
2.99064e-06
2.84872e-06
2.69491e-06
2.53069e-06
2.35945e-06
2.18456e-06
2.0119e-06
1.85256e-06
1.70928e-06
1.58888e-06
1.50414e-06
1.47181e-06
1.51794e-06
1.70898e-06
2.19986e-06
4.38612e-06
4.37889e-06
4.37146e-06
4.36379e-06
4.35589e-06
4.34774e-06
4.33931e-06
4.33059e-06
4.32156e-06
4.31217e-06
4.30242e-06
4.29227e-06
4.28168e-06
4.27064e-06
4.2591e-06
4.24702e-06
4.23438e-06
4.22112e-06
4.20721e-06
4.19259e-06
4.17723e-06
4.16106e-06
4.14404e-06
4.12609e-06
4.10716e-06
4.08717e-06
4.06604e-06
4.04368e-06
4.02001e-06
3.99492e-06
3.96829e-06
3.94e-06
3.90991e-06
3.87787e-06
3.84382e-06
3.80754e-06
3.76886e-06
3.72756e-06
3.6834e-06
3.63612e-06
3.5854e-06
3.53093e-06
3.47233e-06
3.40918e-06
3.34102e-06
3.26729e-06
3.18737e-06
3.10056e-06
3.00606e-06
2.90305e-06
2.79075e-06
2.66867e-06
2.53649e-06
2.39482e-06
2.24575e-06
2.09237e-06
1.93846e-06
1.78839e-06
1.65382e-06
1.53205e-06
1.43066e-06
1.35853e-06
1.32604e-06
1.34587e-06
1.46341e-06
1.73152e-06
2.27616e-06
3.35765e-06
5.57376e-06
3.89041e-06
3.88107e-06
3.87149e-06
3.86162e-06
3.85145e-06
3.84097e-06
3.83016e-06
3.81899e-06
3.80744e-06
3.79549e-06
3.7831e-06
3.77026e-06
3.75692e-06
3.74305e-06
3.72861e-06
3.71358e-06
3.69789e-06
3.68152e-06
3.6644e-06
3.6465e-06
3.62774e-06
3.60807e-06
3.58743e-06
3.56574e-06
3.54292e-06
3.51889e-06
3.49356e-06
3.46684e-06
3.43859e-06
3.40872e-06
3.37709e-06
3.34354e-06
3.30794e-06
3.27015e-06
3.22993e-06
3.18708e-06
3.14133e-06
3.09244e-06
3.04008e-06
2.98391e-06
2.92356e-06
2.85858e-06
2.7885e-06
2.71279e-06
2.63089e-06
2.54221e-06
2.44624e-06
2.34263e-06
2.23131e-06
2.11269e-06
1.98783e-06
1.85953e-06
1.73077e-06
1.60512e-06
1.49048e-06
1.3878e-06
1.29943e-06
1.23168e-06
1.18994e-06
1.17559e-06
1.20956e-06
1.3175e-06
1.53083e-06
1.91643e-06
2.60659e-06
3.87578e-06
6.28376e-06
1.07918e-05
1.8727e-05
3.17922e-06
3.16782e-06
3.15615e-06
3.14416e-06
3.13183e-06
3.11913e-06
3.10606e-06
3.09257e-06
3.07867e-06
3.06431e-06
3.04947e-06
3.03412e-06
3.01824e-06
3.00178e-06
2.98472e-06
2.967e-06
2.9486e-06
2.92946e-06
2.90954e-06
2.88877e-06
2.86712e-06
2.8445e-06
2.82086e-06
2.79612e-06
2.7702e-06
2.74302e-06
2.71448e-06
2.68448e-06
2.65291e-06
2.61964e-06
2.58455e-06
2.54749e-06
2.50829e-06
2.46671e-06
2.42253e-06
2.37546e-06
2.32522e-06
2.27149e-06
2.21393e-06
2.1522e-06
2.08595e-06
2.01492e-06
1.93892e-06
1.85789e-06
1.77208e-06
1.68174e-06
1.58814e-06
1.49283e-06
1.39784e-06
1.30566e-06
1.21932e-06
1.14816e-06
1.09061e-06
1.04928e-06
1.02091e-06
1.01702e-06
1.04362e-06
1.12172e-06
1.25698e-06
1.47084e-06
1.80331e-06
2.33102e-06
3.19621e-06
4.66297e-06
7.20102e-06
1.1657e-05
1.9166e-05
2.98137e-05
4.16183e-05
2.19665e-06
2.18471e-06
2.17257e-06
2.16016e-06
2.14746e-06
2.13445e-06
2.1211e-06
2.10741e-06
2.09334e-06
2.07889e-06
2.06402e-06
2.04872e-06
2.03295e-06
2.0167e-06
1.99994e-06
1.98263e-06
1.96475e-06
1.94626e-06
1.92711e-06
1.90728e-06
1.88672e-06
1.86538e-06
1.84321e-06
1.82016e-06
1.79617e-06
1.77118e-06
1.74513e-06
1.71793e-06
1.68952e-06
1.65982e-06
1.62871e-06
1.59578e-06
1.56077e-06
1.5235e-06
1.48388e-06
1.44186e-06
1.39742e-06
1.35063e-06
1.3016e-06
1.25057e-06
1.19797e-06
1.14448e-06
1.0908e-06
1.03789e-06
9.87487e-07
9.41437e-07
9.01827e-07
8.7045e-07
8.49235e-07
8.40119e-07
8.45537e-07
8.71192e-07
9.28689e-07
1.01626e-06
1.14043e-06
1.3112e-06
1.54249e-06
1.85653e-06
2.28862e-06
2.89551e-06
3.7884e-06
5.17758e-06
7.4373e-06
1.12071e-05
1.70386e-05
2.5182e-05
3.48813e-05
3.96828e-05
3.667e-05
1.0594e-06
1.05181e-06
1.04418e-06
1.03646e-06
1.02864e-06
1.0207e-06
1.01264e-06
1.00445e-06
9.96111e-07
9.87618e-07
9.7896e-07
9.70128e-07
9.61109e-07
9.51893e-07
9.42467e-07
9.32819e-07
9.22936e-07
9.12803e-07
9.02407e-07
8.91732e-07
8.80761e-07
8.69478e-07
8.57864e-07
8.45902e-07
8.33573e-07
8.20867e-07
8.07772e-07
7.94273e-07
7.80358e-07
7.66042e-07
7.51404e-07
7.36716e-07
7.22179e-07
7.07994e-07
6.94352e-07
6.81494e-07
6.69703e-07
6.59327e-07
6.50783e-07
6.44572e-07
6.41289e-07
6.41637e-07
6.46448e-07
6.57072e-07
6.84246e-07
7.2361e-07
7.77868e-07
8.46494e-07
9.31615e-07
1.03519e-06
1.15913e-06
1.30549e-06
1.47635e-06
1.67292e-06
1.89657e-06
2.15254e-06
2.45873e-06
2.86306e-06
3.45583e-06
4.33405e-06
5.55971e-06
7.30191e-06
1.01694e-05
1.46959e-05
1.80708e-05
1.85695e-05
1.7117e-05
1.40499e-05
1.17275e-05
3.2843e-07
3.35379e-07
3.42225e-07
3.4904e-07
3.55859e-07
3.6269e-07
3.69538e-07
3.76401e-07
3.83279e-07
3.90173e-07
3.97082e-07
4.04007e-07
4.10951e-07
4.17916e-07
4.24908e-07
4.31932e-07
4.38993e-07
4.46099e-07
4.53261e-07
4.60487e-07
4.6779e-07
4.75185e-07
4.82689e-07
4.9032e-07
4.98117e-07
5.06469e-07
5.15783e-07
5.26305e-07
5.3824e-07
5.51774e-07
5.67052e-07
5.84259e-07
6.036e-07
6.2531e-07
6.49653e-07
6.76918e-07
7.07412e-07
7.41445e-07
7.79311e-07
8.21259e-07
8.67438e-07
9.17841e-07
9.72205e-07
1.02992e-06
1.09002e-06
1.15057e-06
1.20913e-06
1.26237e-06
1.30646e-06
1.33762e-06
1.35319e-06
1.35335e-06
1.34049e-06
1.30738e-06
1.26879e-06
1.24508e-06
1.26881e-06
1.42602e-06
1.825e-06
2.11816e-06
1.88944e-06
1.52762e-06
1.27757e-06
1.68388e-06
2.18048e-06
2.35987e-06
2.38936e-06
2.45594e-06
2.86621e-06
2.85122e-07
2.94554e-07
3.04244e-07
3.14216e-07
3.24465e-07
3.3497e-07
3.45711e-07
3.56664e-07
3.67807e-07
3.79118e-07
3.90573e-07
4.02147e-07
4.13814e-07
4.25545e-07
4.37311e-07
4.49079e-07
4.60817e-07
4.72485e-07
4.84045e-07
4.95453e-07
5.0666e-07
5.17612e-07
5.28249e-07
5.38503e-07
5.4827e-07
5.57001e-07
5.6423e-07
5.69763e-07
5.73513e-07
5.75418e-07
5.75422e-07
5.73448e-07
5.69387e-07
5.631e-07
5.5441e-07
5.43115e-07
5.28989e-07
5.11801e-07
4.91327e-07
4.67374e-07
4.39804e-07
4.08577e-07
3.73791e-07
3.35738e-07
2.94957e-07
2.52281e-07
2.08867e-07
1.66183e-07
1.25945e-07
9.00031e-08
6.01122e-08
3.72691e-08
2.0552e-08
1.11551e-08
7.06887e-09
4.689e-09
2.97776e-09
4.36651e-09
8.43995e-09
1.15837e-08
8.54185e-09
5.8125e-09
5.1531e-09
6.17678e-09
7.68549e-09
8.2685e-09
8.63231e-09
9.6879e-09
1.20925e-08
6.11903e-06
6.10489e-06
6.09204e-06
6.0817e-06
6.07343e-06
6.06882e-06
6.06957e-06
6.07393e-06
6.07542e-06
6.07958e-06
6.0842e-06
6.08841e-06
6.08777e-06
6.08112e-06
6.07629e-06
6.08164e-06
6.08533e-06
6.08367e-06
6.09097e-06
6.09938e-06
6.10033e-06
6.0764e-06
6.06685e-06
6.06522e-06
6.06256e-06
6.06634e-06
6.06613e-06
6.06674e-06
6.07503e-06
6.08518e-06
6.08682e-06
6.08018e-06
6.07165e-06
6.06922e-06
6.06888e-06
6.08325e-06
6.09311e-06
6.08654e-06
6.07664e-06
6.0813e-06
6.08844e-06
6.08914e-06
6.08628e-06
6.09258e-06
6.10093e-06
6.10679e-06
6.11134e-06
6.11504e-06
6.11501e-06
6.10833e-06
6.09979e-06
6.09811e-06
6.10259e-06
6.10594e-06
6.11367e-06
6.12628e-06
6.13818e-06
6.14687e-06
6.15291e-06
6.08361e-06
6.07534e-06
6.06999e-06
6.06726e-06
6.06735e-06
6.06943e-06
6.07177e-06
6.07187e-06
6.0726e-06
6.0756e-06
6.07762e-06
6.07684e-06
6.07265e-06
6.06873e-06
6.07013e-06
6.0747e-06
6.0757e-06
6.07652e-06
6.08363e-06
6.08869e-06
6.08201e-06
6.06102e-06
6.05395e-06
6.05233e-06
6.05088e-06
6.0552e-06
6.05505e-06
6.05586e-06
6.06252e-06
6.07182e-06
6.07463e-06
6.06962e-06
6.06135e-06
6.05677e-06
6.05418e-06
6.06425e-06
6.07706e-06
6.07711e-06
6.06841e-06
6.06668e-06
6.07068e-06
6.07337e-06
6.07179e-06
6.07244e-06
6.0775e-06
6.08409e-06
6.09045e-06
6.0954e-06
6.09936e-06
6.09958e-06
6.09489e-06
6.08972e-06
6.0875e-06
6.08674e-06
6.08733e-06
6.09139e-06
6.09839e-06
6.10641e-06
6.11722e-06
6.06802e-06
6.06713e-06
6.06788e-06
6.06949e-06
6.07068e-06
6.06878e-06
6.06613e-06
6.06503e-06
6.06523e-06
6.06584e-06
6.06472e-06
6.06195e-06
6.05937e-06
6.05979e-06
6.06307e-06
6.06513e-06
6.06521e-06
6.06809e-06
6.07378e-06
6.07404e-06
6.06257e-06
6.04523e-06
6.04001e-06
6.03875e-06
6.03854e-06
6.04307e-06
6.04299e-06
6.04375e-06
6.04924e-06
6.05765e-06
6.06122e-06
6.05781e-06
6.05041e-06
6.04443e-06
6.03988e-06
6.04535e-06
6.058e-06
6.0638e-06
6.05911e-06
6.05442e-06
6.05451e-06
6.05624e-06
6.05604e-06
6.05481e-06
6.05602e-06
6.06035e-06
6.06645e-06
6.07213e-06
6.07724e-06
6.08192e-06
6.08436e-06
6.08245e-06
6.07814e-06
6.07405e-06
6.07103e-06
6.06966e-06
6.0703e-06
6.07284e-06
6.0777e-06
6.07536e-06
6.07564e-06
6.0732e-06
6.0686e-06
6.06214e-06
6.05744e-06
6.05453e-06
6.05327e-06
6.05266e-06
6.0516e-06
6.04996e-06
6.0488e-06
6.04924e-06
6.05133e-06
6.05314e-06
6.0533e-06
6.05416e-06
6.05774e-06
6.06058e-06
6.05608e-06
6.04258e-06
6.02881e-06
6.02505e-06
6.02431e-06
6.02537e-06
6.02988e-06
6.0299e-06
6.03043e-06
6.03505e-06
6.0426e-06
6.04663e-06
6.04464e-06
6.03836e-06
6.03181e-06
6.02578e-06
6.02709e-06
6.03734e-06
6.04651e-06
6.04686e-06
6.04262e-06
6.03999e-06
6.03954e-06
6.03915e-06
6.03764e-06
6.03655e-06
6.03784e-06
6.0418e-06
6.04686e-06
6.05173e-06
6.05692e-06
6.06275e-06
6.06799e-06
6.06966e-06
6.06721e-06
6.06293e-06
6.05861e-06
6.05516e-06
6.05297e-06
6.05227e-06
6.07584e-06
6.06869e-06
6.05919e-06
6.0505e-06
6.04482e-06
6.04111e-06
6.03931e-06
6.0384e-06
6.03781e-06
6.03727e-06
6.03721e-06
6.03796e-06
6.0392e-06
6.04006e-06
6.04002e-06
6.04005e-06
6.04187e-06
6.0445e-06
6.04368e-06
6.03556e-06
6.02211e-06
6.01153e-06
6.00895e-06
6.00887e-06
6.01114e-06
6.01549e-06
6.01559e-06
6.01588e-06
6.01976e-06
6.02651e-06
6.03078e-06
6.02996e-06
6.0249e-06
6.01843e-06
6.01151e-06
6.00942e-06
6.0161e-06
6.02599e-06
6.03067e-06
6.02918e-06
6.02596e-06
6.02369e-06
6.02219e-06
6.02034e-06
6.01815e-06
6.01705e-06
6.01821e-06
6.02136e-06
6.02518e-06
6.02919e-06
6.03427e-06
6.04055e-06
6.04776e-06
6.05448e-06
6.05713e-06
6.05538e-06
6.05155e-06
6.0471e-06
6.04307e-06
6.051e-06
6.04152e-06
6.03397e-06
6.02869e-06
6.0257e-06
6.02422e-06
6.02378e-06
6.02384e-06
6.02415e-06
6.02468e-06
6.02538e-06
6.02588e-06
6.02578e-06
6.02513e-06
6.0247e-06
6.02546e-06
6.02721e-06
6.02757e-06
6.02322e-06
6.01312e-06
6.001e-06
5.99314e-06
5.99161e-06
5.99228e-06
5.99559e-06
5.99972e-06
5.99989e-06
5.99995e-06
6.00318e-06
6.00917e-06
6.01351e-06
6.01365e-06
6.00978e-06
6.00383e-06
5.99663e-06
5.99206e-06
5.99486e-06
6.00332e-06
6.01053e-06
6.01252e-06
6.01071e-06
6.0079e-06
6.00537e-06
6.00289e-06
6.0001e-06
5.99751e-06
5.99626e-06
5.99693e-06
5.99896e-06
6.00151e-06
6.00461e-06
6.00896e-06
6.01505e-06
6.02286e-06
6.03248e-06
6.04052e-06
6.04536e-06
6.04695e-06
6.04709e-06
6.0201e-06
6.01517e-06
6.01181e-06
6.00999e-06
6.00933e-06
6.00941e-06
6.00985e-06
6.01038e-06
6.01079e-06
6.01092e-06
6.01057e-06
6.00962e-06
6.00835e-06
6.00749e-06
6.00764e-06
6.00862e-06
6.00905e-06
6.00661e-06
5.99964e-06
5.98911e-06
5.97898e-06
5.97341e-06
5.97283e-06
5.97442e-06
5.97845e-06
5.98233e-06
5.98256e-06
5.98243e-06
5.98507e-06
5.99036e-06
5.99465e-06
5.99551e-06
5.99276e-06
5.98759e-06
5.98063e-06
5.97451e-06
5.9738e-06
5.97945e-06
5.98711e-06
5.99191e-06
5.9926e-06
5.99073e-06
5.98799e-06
5.98505e-06
5.98184e-06
5.97847e-06
5.97561e-06
5.97404e-06
5.97392e-06
5.97475e-06
5.97613e-06
5.97817e-06
5.98134e-06
5.98634e-06
5.99324e-06
6.00201e-06
6.01347e-06
6.02336e-06
6.03166e-06
5.99739e-06
5.99605e-06
5.99521e-06
5.99487e-06
5.99488e-06
5.99497e-06
5.9949e-06
5.99452e-06
5.99373e-06
5.99245e-06
5.99081e-06
5.98913e-06
5.98795e-06
5.98768e-06
5.98813e-06
5.98828e-06
5.98661e-06
5.9817e-06
5.97341e-06
5.96364e-06
5.95569e-06
5.95205e-06
5.95241e-06
5.95495e-06
5.95945e-06
5.96304e-06
5.96332e-06
5.96306e-06
5.96516e-06
5.9698e-06
5.97394e-06
5.97535e-06
5.97357e-06
5.96932e-06