/*--------------------------------*- C++ -*----------------------------------*\
| =========                 |                                                 |
| \\      /  F ield         | OpenFOAM: The Open Source CFD Toolbox           |
|  \\    /   O peration     | Version:  2312                                  |
|   \\  /    A nd           | Website:  www.openfoam.com                      |
|    \\/     M anipulation  |                                                 |
\*---------------------------------------------------------------------------*/
FoamFile
{
    version     2.0;
    format      ascii;
    arch        "LSB;label=32;scalar=64";
    class       volScalarField;
    location    "600";
    object      nuTilda;
}
// * * * * * * * * * * * * * * * * * * * * * * * * * * * * * * * * * * * * * //

dimensions      [0 2 -1 0 0 0 0];

internalField   nonuniform List<scalar> 
76025
(
4.01655e-05
4.01685e-05
4.01679e-05
4.01664e-05
4.01704e-05
4.01757e-05
4.01906e-05
4.02072e-05
4.02214e-05
4.02337e-05
4.02444e-05
4.02532e-05
4.026e-05
4.0262e-05
4.0261e-05
4.02594e-05
4.02576e-05
4.02565e-05
4.02537e-05
4.02522e-05
4.02457e-05
4.02401e-05
4.02362e-05
4.02348e-05
4.02436e-05
4.02501e-05
4.02698e-05
4.02897e-05
4.03113e-05
4.03358e-05
4.03627e-05
4.03849e-05
4.0411e-05
4.04322e-05
4.04541e-05
4.04714e-05
4.04883e-05
4.05109e-05
4.05308e-05
4.05492e-05
4.05649e-05
4.05797e-05
4.05986e-05
4.06119e-05
4.06223e-05
4.0628e-05
4.0633e-05
4.06309e-05
4.06213e-05
4.06049e-05
4.05832e-05
4.05585e-05
4.05309e-05
4.05031e-05
4.04782e-05
4.04538e-05
4.04353e-05
4.04189e-05
4.04141e-05
4.04211e-05
4.04455e-05
4.04846e-05
4.05354e-05
4.05936e-05
4.06544e-05
4.07173e-05
4.07799e-05
4.08308e-05
4.08715e-05
4.0115e-05
4.01363e-05
4.01512e-05
4.01594e-05
4.01644e-05
4.0166e-05
4.01704e-05
4.01786e-05
4.019e-05
4.02027e-05
4.02159e-05
4.02287e-05
4.02411e-05
4.02526e-05
4.02607e-05
4.02667e-05
4.02698e-05
4.02717e-05
4.02719e-05
4.02716e-05
4.02692e-05
4.02651e-05
4.02599e-05
4.0252e-05
4.02413e-05
4.02318e-05
4.02261e-05
4.02241e-05
4.02252e-05
4.02292e-05
4.02346e-05
4.02457e-05
4.0262e-05
4.02789e-05
4.02955e-05
4.03111e-05
4.0325e-05
4.03376e-05
4.03487e-05
4.03579e-05
4.03648e-05
4.03691e-05
4.03708e-05
4.03698e-05
4.03657e-05
4.03573e-05
4.03435e-05
4.03292e-05
4.0316e-05
4.0305e-05
4.02976e-05
4.02996e-05
4.03079e-05
4.03234e-05
4.03443e-05
4.03706e-05
4.0402e-05
4.04381e-05
4.04789e-05
4.05233e-05
4.05708e-05
4.06197e-05
4.06686e-05
4.07159e-05
4.07608e-05
4.08017e-05
4.0838e-05
4.08677e-05
4.08974e-05
4.00332e-05
4.00536e-05
4.00809e-05
4.01068e-05
4.01273e-05
4.0142e-05
4.0152e-05
4.01599e-05
4.01679e-05
4.0177e-05
4.01875e-05
4.0199e-05
4.02113e-05
4.02243e-05
4.02371e-05
4.02491e-05
4.02596e-05
4.02682e-05
4.02751e-05
4.02802e-05
4.02838e-05
4.0286e-05
4.02867e-05
4.02857e-05
4.02825e-05
4.02773e-05
4.02711e-05
4.02645e-05
4.0258e-05
4.02525e-05
4.02429e-05
4.02329e-05
4.02258e-05
4.02213e-05
4.0219e-05
4.02181e-05
4.02181e-05
4.02185e-05
4.02189e-05
4.02193e-05
4.02202e-05
4.02217e-05
4.0224e-05
4.0227e-05
4.02309e-05
4.02361e-05
4.02465e-05
4.02606e-05
4.02777e-05
4.02972e-05
4.03194e-05
4.03442e-05
4.03715e-05
4.04013e-05
4.04335e-05
4.04678e-05
4.05038e-05
4.05411e-05
4.05791e-05
4.06172e-05
4.06545e-05
4.06904e-05
4.07241e-05
4.0755e-05
4.07824e-05
4.08059e-05
4.08257e-05
4.08403e-05
4.08521e-05
3.99733e-05
3.99812e-05
3.99962e-05
4.00153e-05
4.00375e-05
4.0066e-05
4.00922e-05
4.01134e-05
4.01304e-05
4.01444e-05
4.01568e-05
4.01686e-05
4.01803e-05
4.01924e-05
4.02049e-05
4.02179e-05
4.0231e-05
4.02437e-05
4.02557e-05
4.02666e-05
4.02763e-05
4.02848e-05
4.0292e-05
4.0298e-05
4.03028e-05
4.03062e-05
4.03082e-05
4.03089e-05
4.03084e-05
4.03074e-05
4.03053e-05
4.03022e-05
4.02987e-05
4.02953e-05
4.02926e-05
4.02908e-05
4.02901e-05
4.02906e-05
4.02924e-05
4.02957e-05
4.03002e-05
4.03061e-05
4.03134e-05
4.03222e-05
4.03327e-05
4.03448e-05
4.03588e-05
4.03747e-05
4.03926e-05
4.04123e-05
4.04338e-05
4.04569e-05
4.04815e-05
4.05073e-05
4.05341e-05
4.05615e-05
4.0589e-05
4.06163e-05
4.06428e-05
4.06681e-05
4.06917e-05
4.07132e-05
4.07322e-05
4.07485e-05
4.07619e-05
4.07723e-05
4.078e-05
4.07836e-05
4.07867e-05
3.99468e-05
3.99411e-05
3.99402e-05
3.99444e-05
3.99547e-05
3.99712e-05
3.9991e-05
4.00145e-05
4.00439e-05
4.00712e-05
4.00947e-05
4.01151e-05
4.0133e-05
4.01491e-05
4.0164e-05
4.01783e-05
4.01924e-05
4.02064e-05
4.02203e-05
4.02339e-05
4.02472e-05
4.02599e-05
4.02718e-05
4.0283e-05
4.02934e-05
4.03029e-05
4.03116e-05
4.03194e-05
4.03262e-05
4.03322e-05
4.03376e-05
4.03423e-05
4.03464e-05
4.03501e-05
4.03536e-05
4.03572e-05
4.03609e-05
4.03652e-05
4.03701e-05
4.03758e-05
4.03824e-05
4.03899e-05
4.03985e-05
4.04082e-05
4.0419e-05
4.0431e-05
4.04441e-05
4.04584e-05
4.04737e-05
4.049e-05
4.05071e-05
4.05249e-05
4.05432e-05
4.05617e-05
4.05802e-05
4.05984e-05
4.06159e-05
4.06325e-05
4.0648e-05
4.0662e-05
4.06743e-05
4.06848e-05
4.06933e-05
4.06999e-05
4.07045e-05
4.07071e-05
4.07081e-05
4.07058e-05
4.07054e-05
3.99589e-05
3.99457e-05
3.99318e-05
3.99206e-05
3.99136e-05
3.9912e-05
3.99159e-05
3.99261e-05
3.9942e-05
3.99616e-05
3.99856e-05
4.00152e-05
4.00437e-05
4.00696e-05
4.0093e-05
4.01141e-05
4.01334e-05
4.01513e-05
4.01683e-05
4.01845e-05
4.02001e-05
4.02153e-05
4.02301e-05
4.02444e-05
4.02582e-05
4.02714e-05
4.02841e-05
4.02962e-05
4.03077e-05
4.03187e-05
4.0329e-05
4.03389e-05
4.03483e-05
4.03573e-05
4.03659e-05
4.03742e-05
4.03823e-05
4.03904e-05
4.03985e-05
4.04067e-05
4.04152e-05
4.04241e-05
4.04334e-05
4.04432e-05
4.04535e-05
4.04642e-05
4.04754e-05
4.0487e-05
4.04989e-05
4.05111e-05
4.05233e-05
4.05356e-05
4.05477e-05
4.05595e-05
4.05707e-05
4.05814e-05
4.05912e-05
4.06e-05
4.06078e-05
4.06144e-05
4.06197e-05
4.06238e-05
4.06266e-05
4.06282e-05
4.06284e-05
4.06272e-05
4.06248e-05
4.06193e-05
4.06147e-05
3.99458e-05
3.99515e-05
3.99489e-05
3.99383e-05
3.99229e-05
3.99076e-05
3.98951e-05
3.98868e-05
3.98836e-05
3.9886e-05
3.98942e-05
3.99079e-05
3.99268e-05
3.99511e-05
3.998e-05
4.00087e-05
4.0036e-05
4.00614e-05
4.00849e-05
4.01068e-05
4.01273e-05
4.01465e-05
4.01648e-05
4.01823e-05
4.0199e-05
4.0215e-05
4.02305e-05
4.02454e-05
4.02598e-05
4.02736e-05
4.02869e-05
4.02998e-05
4.03121e-05
4.0324e-05
4.03355e-05
4.03466e-05
4.03572e-05
4.03675e-05
4.03775e-05
4.03872e-05
4.03969e-05
4.04065e-05
4.0416e-05
4.04256e-05
4.04351e-05
4.04446e-05
4.0454e-05
4.04633e-05
4.04724e-05
4.04813e-05
4.049e-05
4.04983e-05
4.05061e-05
4.05134e-05
4.05201e-05
4.05262e-05
4.05315e-05
4.05361e-05
4.05399e-05
4.05429e-05
4.0545e-05
4.05463e-05
4.05467e-05
4.05461e-05
4.05443e-05
4.05408e-05
4.05356e-05
4.05262e-05
4.05158e-05
3.98792e-05
3.99041e-05
3.99225e-05
3.99334e-05
3.99365e-05
3.99325e-05
3.99226e-05
3.99069e-05
3.98904e-05
3.98758e-05
3.98645e-05
3.98577e-05
3.98566e-05
3.98615e-05
3.98727e-05
3.989e-05
3.99135e-05
3.99405e-05
3.99682e-05
3.99952e-05
4.00212e-05
4.00458e-05
4.00691e-05
4.00911e-05
4.01119e-05
4.01316e-05
4.01503e-05
4.01682e-05
4.01853e-05
4.02016e-05
4.02172e-05
4.02321e-05
4.02465e-05
4.02602e-05
4.02734e-05
4.02859e-05
4.0298e-05
4.03094e-05
4.03203e-05
4.03308e-05
4.03409e-05
4.03507e-05
4.03603e-05
4.03695e-05
4.03783e-05
4.03869e-05
4.03952e-05
4.0403e-05
4.04105e-05
4.04176e-05
4.04243e-05
4.04305e-05
4.04363e-05
4.04415e-05
4.04462e-05
4.04504e-05
4.04541e-05
4.04573e-05
4.04598e-05
4.04617e-05
4.0463e-05
4.04633e-05
4.04625e-05
4.04602e-05
4.04559e-05
4.04487e-05
4.04383e-05
4.04209e-05
4.04018e-05
3.9781e-05
3.98103e-05
3.98395e-05
3.98665e-05
3.98895e-05
3.99069e-05
3.99179e-05
3.9922e-05
3.99196e-05
3.9912e-05
3.99003e-05
3.98856e-05
3.98697e-05
3.98557e-05
3.98463e-05
3.98427e-05
3.98458e-05
3.98556e-05
3.98715e-05
3.98915e-05
3.99139e-05
3.99374e-05
3.99611e-05
3.99845e-05
4.00073e-05
4.00293e-05
4.00504e-05
4.00707e-05
4.00901e-05
4.01085e-05
4.01262e-05
4.0143e-05
4.0159e-05
4.01742e-05
4.01887e-05
4.02025e-05
4.02155e-05
4.02278e-05
4.02394e-05
4.02504e-05
4.02609e-05
4.0271e-05
4.02807e-05
4.029e-05
4.02988e-05
4.03072e-05
4.03152e-05
4.03228e-05
4.033e-05
4.03367e-05
4.0343e-05
4.0349e-05
4.03545e-05
4.03596e-05
4.03643e-05
4.03685e-05
4.03722e-05
4.03754e-05
4.03778e-05
4.03794e-05
4.03797e-05
4.03784e-05
4.03749e-05
4.03684e-05
4.03581e-05
4.03425e-05
4.03211e-05
4.02892e-05
4.02534e-05
3.96814e-05
3.96992e-05
3.97204e-05
3.97464e-05
3.97778e-05
3.98097e-05
3.9839e-05
3.9864e-05
3.98838e-05
3.98977e-05
3.99057e-05
3.99079e-05
3.99048e-05
3.98978e-05
3.98885e-05
3.9879e-05
3.98709e-05
3.98657e-05
3.98643e-05
3.9867e-05
3.98737e-05
3.98838e-05
3.98967e-05
3.99117e-05
3.99281e-05
3.99454e-05
3.99633e-05
3.99813e-05
3.99992e-05
4.00168e-05
4.00341e-05
4.00508e-05
4.00669e-05
4.00824e-05
4.00973e-05
4.01114e-05
4.01248e-05
4.01375e-05
4.01495e-05
4.0161e-05
4.01721e-05
4.01827e-05
4.0193e-05
4.02028e-05
4.02122e-05
4.02213e-05
4.02299e-05
4.02382e-05
4.02461e-05
4.02536e-05
4.02607e-05
4.02673e-05
4.02736e-05
4.02794e-05
4.02846e-05
4.02891e-05
4.02927e-05
4.02952e-05
4.02962e-05
4.02953e-05
4.02918e-05
4.02851e-05
4.02741e-05
4.02576e-05
4.02345e-05
4.0203e-05
4.0162e-05
4.01076e-05
4.00435e-05
3.9602e-05
3.96076e-05
3.96168e-05
3.96299e-05
3.96478e-05
3.96708e-05
3.96994e-05
3.9733e-05
3.9767e-05
3.97988e-05
3.98268e-05
3.98503e-05
3.98686e-05
3.98816e-05
3.98897e-05
3.98936e-05
3.98944e-05
3.98933e-05
3.98915e-05
3.98899e-05
3.98894e-05
3.98905e-05
3.98934e-05
3.98981e-05
3.99048e-05
3.99131e-05
3.99228e-05
3.99337e-05
3.99455e-05
3.99579e-05
3.99708e-05
3.9984e-05
3.99972e-05
4.00103e-05
4.00232e-05
4.00359e-05
4.00481e-05
4.006e-05
4.00714e-05
4.00825e-05
4.00935e-05
4.01043e-05
4.01148e-05
4.0125e-05
4.0135e-05
4.01446e-05
4.01538e-05
4.01627e-05
4.01712e-05
4.01792e-05
4.01866e-05
4.01934e-05
4.01995e-05
4.02046e-05
4.02085e-05
4.02109e-05
4.02114e-05
4.02096e-05
4.02047e-05
4.0196e-05
4.01827e-05
4.01635e-05
4.01373e-05
4.01026e-05
4.0058e-05
4.00016e-05
3.99323e-05
3.98463e-05
3.97451e-05
3.95334e-05
3.95315e-05
3.95319e-05
3.95344e-05
3.954e-05
3.95495e-05
3.95635e-05
3.95823e-05
3.96062e-05
3.96352e-05
3.96692e-05
3.97048e-05
3.97391e-05
3.97704e-05
3.97979e-05
3.98213e-05
3.98404e-05
3.98557e-05
3.98676e-05
3.98767e-05
3.98837e-05
3.98894e-05
3.98942e-05
3.98988e-05
3.99034e-05
3.99084e-05
3.9914e-05
3.99202e-05
3.99271e-05
3.99347e-05
3.99428e-05
3.99515e-05
3.99606e-05
3.99699e-05
3.99795e-05
3.99891e-05
3.99988e-05
4.00083e-05
4.00178e-05
4.00274e-05
4.0037e-05
4.00465e-05
4.00559e-05
4.00651e-05
4.0074e-05
4.00826e-05
4.00908e-05
4.00984e-05
4.01054e-05
4.01115e-05
4.01166e-05
4.01204e-05
4.01226e-05
4.0123e-05
4.0121e-05
4.0116e-05
4.01076e-05
4.00948e-05
4.00769e-05
4.00527e-05
4.00213e-05
3.99812e-05
3.99312e-05
3.98698e-05
3.97956e-05
3.97067e-05
3.96024e-05
3.94789e-05
3.93322e-05
3.94636e-05
3.9459e-05
3.94554e-05
3.94526e-05
3.94509e-05
3.94506e-05
3.94527e-05
3.94579e-05
3.9467e-05
3.94804e-05
3.94983e-05
3.95208e-05
3.95479e-05
3.95795e-05
3.96146e-05
3.96502e-05
3.96843e-05
3.97158e-05
3.97443e-05
3.97695e-05
3.97917e-05
3.98109e-05
3.98276e-05
3.98421e-05
3.98548e-05
3.9866e-05
3.98761e-05
3.98854e-05
3.98941e-05
3.99024e-05
3.99105e-05
3.99184e-05
3.99262e-05
3.9934e-05
3.99417e-05
3.99493e-05
3.99569e-05
3.99642e-05
3.99715e-05
3.99788e-05
3.99859e-05
3.99928e-05
3.99994e-05
4.00057e-05
4.00113e-05
4.00163e-05
4.00204e-05
4.00234e-05
4.00251e-05
4.00252e-05
4.00233e-05
4.00191e-05
4.0012e-05
4.00016e-05
3.99872e-05
3.99681e-05
3.99434e-05
3.99122e-05
3.98735e-05
3.98263e-05
3.97693e-05
3.97014e-05
3.96211e-05
3.95273e-05
3.94186e-05
3.92934e-05
3.91511e-05
3.89877e-05
3.88019e-05
3.93845e-05
3.93794e-05
3.93743e-05
3.93696e-05
3.9365e-05
3.93608e-05
3.93572e-05
3.93545e-05
3.93532e-05
3.9354e-05
3.93576e-05
3.93647e-05
3.93756e-05
3.93904e-05
3.9409e-05
3.94316e-05
3.94579e-05
3.9488e-05
3.95213e-05
3.95558e-05
3.95895e-05
3.96216e-05
3.96514e-05
3.96787e-05
3.97037e-05
3.97263e-05
3.97467e-05
3.97651e-05
3.97817e-05
3.97967e-05
3.98103e-05
3.98226e-05
3.98338e-05
3.98439e-05
3.98532e-05
3.98616e-05
3.98691e-05
3.98759e-05
3.98819e-05
3.98872e-05
3.98918e-05
3.98955e-05
3.98982e-05
3.98998e-05
3.99001e-05
3.98989e-05
3.98959e-05
3.98908e-05
3.98833e-05
3.9873e-05
3.98594e-05
3.9842e-05
3.98202e-05
3.97933e-05
3.97607e-05
3.97215e-05
3.96749e-05
3.96199e-05
3.95555e-05
3.94807e-05
3.93945e-05
3.92957e-05
3.91832e-05
3.90558e-05
3.89122e-05
3.87508e-05
3.85705e-05
3.83685e-05
3.81347e-05
3.92896e-05
3.92848e-05
3.92796e-05
3.92743e-05
3.92689e-05
3.92635e-05
3.9258e-05
3.92525e-05
3.92472e-05
3.92422e-05
3.9238e-05
3.92349e-05
3.92333e-05
3.92339e-05
3.92371e-05
3.92434e-05
3.9253e-05
3.92656e-05
3.92813e-05
3.92999e-05
3.93215e-05
3.9346e-05
3.93734e-05
3.94032e-05
3.9434e-05
3.94643e-05
3.94934e-05
3.95207e-05
3.9546e-05
3.95691e-05
3.95902e-05
3.96092e-05
3.96262e-05
3.96412e-05
3.96543e-05
3.96655e-05
3.96747e-05
3.96822e-05
3.96879e-05
3.9692e-05
3.96943e-05
3.96947e-05
3.9693e-05
3.96891e-05
3.96827e-05
3.96736e-05
3.96614e-05
3.96459e-05
3.96266e-05
3.96031e-05
3.95748e-05
3.95412e-05
3.95018e-05
3.94558e-05
3.94025e-05
3.93411e-05
3.92709e-05
3.9191e-05
3.91005e-05
3.89985e-05
3.8884e-05
3.87559e-05
3.8613e-05
3.8454e-05
3.82771e-05
3.80804e-05
3.78625e-05
3.7616e-05
3.73515e-05
3.91716e-05
3.91676e-05
3.91629e-05
3.91577e-05
3.91523e-05
3.91465e-05
3.91406e-05
3.91344e-05
3.9128e-05
3.91214e-05
3.91146e-05
3.91077e-05
3.91009e-05
3.90944e-05
3.90887e-05
3.90839e-05
3.90804e-05
3.90785e-05
3.90785e-05
3.90807e-05
3.90854e-05
3.90923e-05
3.91012e-05
3.91121e-05
3.91247e-05
3.91391e-05
3.91554e-05
3.91734e-05
3.91933e-05
3.92144e-05
3.92361e-05
3.92571e-05
3.92767e-05
3.92944e-05
3.93098e-05
3.93226e-05
3.93328e-05
3.93404e-05
3.93456e-05
3.93483e-05
3.93483e-05
3.93453e-05
3.93392e-05
3.93297e-05
3.93165e-05
3.92994e-05
3.9278e-05
3.9252e-05
3.92209e-05
3.91843e-05
3.91417e-05
3.90927e-05
3.90365e-05
3.89726e-05
3.89004e-05
3.8819e-05
3.87278e-05
3.8626e-05
3.85126e-05
3.83866e-05
3.82469e-05
3.8092e-05
3.79204e-05
3.77301e-05
3.75186e-05
3.72826e-05
3.70186e-05
3.67186e-05
3.63728e-05
3.90226e-05
3.90193e-05
3.90153e-05
3.90107e-05
3.90056e-05
3.9e-05
3.89941e-05
3.89877e-05
3.8981e-05
3.89739e-05
3.89665e-05
3.89586e-05
3.89503e-05
3.89417e-05
3.89327e-05
3.89235e-05
3.89143e-05
3.89052e-05
3.88964e-05
3.88881e-05
3.88805e-05
3.88737e-05
3.88677e-05
3.88628e-05
3.88591e-05
3.88567e-05
3.88553e-05
3.88547e-05
3.88548e-05
3.88551e-05
3.88556e-05
3.88561e-05
3.88566e-05
3.8857e-05
3.88571e-05
3.8857e-05
3.88565e-05
3.88568e-05
3.88572e-05
3.88562e-05
3.88526e-05
3.88457e-05
3.88353e-05
3.8821e-05
3.88022e-05
3.87785e-05
3.87495e-05
3.87149e-05
3.86743e-05
3.86273e-05
3.85733e-05
3.85118e-05
3.84421e-05
3.83637e-05
3.82758e-05
3.81777e-05
3.80686e-05
3.79473e-05
3.78128e-05
3.76636e-05
3.7498e-05
3.73141e-05
3.71093e-05
3.68801e-05
3.6622e-05
3.63289e-05
3.59935e-05
3.56061e-05
3.51427e-05
3.88337e-05
3.88307e-05
3.8827e-05
3.88227e-05
3.88179e-05
3.88126e-05
3.88067e-05
3.88003e-05
3.87934e-05
3.8786e-05
3.87781e-05
3.87698e-05
3.87609e-05
3.87514e-05
3.87414e-05
3.87309e-05
3.87197e-05
3.8708e-05
3.86958e-05
3.86831e-05
3.867e-05
3.86566e-05
3.86429e-05
3.86291e-05
3.86151e-05
3.86011e-05
3.8587e-05
3.85728e-05
3.85584e-05
3.85438e-05
3.85289e-05
3.85136e-05
3.84977e-05
3.8481e-05
3.8463e-05
3.84433e-05
3.84217e-05
3.83978e-05
3.83716e-05
3.83441e-05
3.83168e-05
3.82909e-05
3.82659e-05
3.82394e-05
3.82096e-05
3.81753e-05
3.81361e-05
3.80914e-05
3.80408e-05
3.79832e-05
3.79177e-05
3.78434e-05
3.77599e-05
3.76664e-05
3.75619e-05
3.74454e-05
3.73155e-05
3.71709e-05
3.70098e-05
3.68301e-05
3.6629e-05
3.64029e-05
3.61469e-05
3.58545e-05
3.55169e-05
3.51244e-05
3.46674e-05
3.41351e-05
3.3517e-05
3.85936e-05
3.859e-05
3.85858e-05
3.85812e-05
3.85761e-05
3.85704e-05
3.85642e-05
3.85575e-05
3.85501e-05
3.85422e-05
3.85337e-05
3.85245e-05
3.85148e-05
3.85044e-05
3.84934e-05
3.84817e-05
3.84692e-05
3.84561e-05
3.84421e-05
3.84273e-05
3.84117e-05
3.83953e-05
3.8378e-05
3.83598e-05
3.83408e-05
3.83208e-05
3.83e-05
3.82783e-05
3.82555e-05
3.82318e-05
3.82069e-05
3.81809e-05
3.81535e-05
3.81246e-05
3.80941e-05
3.80617e-05
3.80272e-05
3.79903e-05
3.79508e-05
3.79083e-05
3.78627e-05
3.78131e-05
3.77589e-05
3.76998e-05
3.7637e-05
3.75729e-05
3.75089e-05
3.74434e-05
3.7373e-05
3.7295e-05
3.72081e-05
3.7112e-05
3.70063e-05
3.68891e-05
3.67586e-05
3.66131e-05
3.6451e-05
3.62699e-05
3.60668e-05
3.58373e-05
3.55756e-05
3.52748e-05
3.4926e-05
3.45193e-05
3.40423e-05
3.34894e-05
3.28603e-05
3.21595e-05
3.14194e-05
3.82855e-05
3.82802e-05
3.82745e-05
3.82685e-05
3.8262e-05
3.8255e-05
3.82476e-05
3.82396e-05
3.8231e-05
3.82218e-05
3.8212e-05
3.82015e-05
3.81902e-05
3.81783e-05
3.81655e-05
3.8152e-05
3.81376e-05
3.81224e-05
3.81063e-05
3.80892e-05
3.8071e-05
3.80518e-05
3.80315e-05
3.801e-05
3.79872e-05
3.79631e-05
3.79376e-05
3.79106e-05
3.78821e-05
3.78519e-05
3.782e-05
3.77862e-05
3.77504e-05
3.77124e-05
3.7672e-05
3.76291e-05
3.75834e-05
3.75347e-05
3.74825e-05
3.74267e-05
3.73667e-05
3.73022e-05
3.72327e-05
3.71574e-05
3.70761e-05
3.6988e-05
3.68924e-05
3.6788e-05
3.66735e-05
3.65496e-05
3.64188e-05
3.62831e-05
3.61388e-05
3.59803e-05
3.58055e-05
3.56126e-05
3.53977e-05
3.5155e-05
3.48776e-05
3.45572e-05
3.41825e-05
3.3746e-05
3.32404e-05
3.26617e-05
3.20001e-05
3.1293e-05
3.05616e-05
2.98664e-05
2.92545e-05
3.7881e-05
3.7873e-05
3.78647e-05
3.7856e-05
3.7847e-05
3.78375e-05
3.78275e-05
3.7817e-05
3.7806e-05
3.77943e-05
3.7782e-05
3.77689e-05
3.7755e-05
3.77404e-05
3.77248e-05
3.77083e-05
3.76909e-05
3.76724e-05
3.76528e-05
3.76321e-05
3.76102e-05
3.75869e-05
3.75623e-05
3.75362e-05
3.75086e-05
3.74793e-05
3.74482e-05
3.74152e-05
3.73802e-05
3.73429e-05
3.73034e-05
3.72613e-05
3.72164e-05
3.71686e-05
3.71176e-05
3.70632e-05
3.70051e-05
3.69429e-05
3.68763e-05
3.68048e-05
3.67279e-05
3.66452e-05
3.65558e-05
3.64593e-05
3.63546e-05
3.62411e-05
3.61178e-05
3.59835e-05
3.58367e-05
3.5676e-05
3.54996e-05
3.53056e-05
3.50899e-05
3.48507e-05
3.45953e-05
3.43192e-05
3.40079e-05
3.36502e-05
3.32378e-05
3.27611e-05
3.2204e-05
3.15915e-05
3.09303e-05
3.02381e-05
2.95557e-05
2.89237e-05
2.83926e-05
2.80629e-05
2.81729e-05
3.73307e-05
3.7319e-05
3.7307e-05
3.72945e-05
3.72816e-05
3.72683e-05
3.72544e-05
3.724e-05
3.7225e-05
3.72092e-05
3.71928e-05
3.71755e-05
3.71574e-05
3.71384e-05
3.71183e-05
3.70972e-05
3.70749e-05
3.70514e-05
3.70267e-05
3.70005e-05
3.69728e-05
3.69436e-05
3.69126e-05
3.68798e-05
3.68451e-05
3.68083e-05
3.67693e-05
3.67278e-05
3.66838e-05
3.66369e-05
3.65869e-05
3.65337e-05
3.64769e-05
3.64161e-05
3.63512e-05
3.62817e-05
3.62072e-05
3.61273e-05
3.60414e-05
3.59488e-05
3.5849e-05
3.57412e-05
3.56244e-05
3.54979e-05
3.53603e-05
3.52105e-05
3.5047e-05
3.48681e-05
3.46717e-05
3.44552e-05
3.42156e-05
3.39492e-05
3.36514e-05
3.33168e-05
3.29397e-05
3.25134e-05
3.20347e-05
3.15026e-05
3.09218e-05
3.02977e-05
2.96466e-05
2.90103e-05
2.84044e-05
2.7867e-05
2.74713e-05
2.73162e-05
2.75368e-05
2.84031e-05
3.03537e-05
3.65464e-05
3.65299e-05
3.65128e-05
3.64952e-05
3.64771e-05
3.64583e-05
3.64389e-05
3.64188e-05
3.63979e-05
3.63762e-05
3.63536e-05
3.63301e-05
3.63055e-05
3.62798e-05
3.62529e-05
3.62247e-05
3.61951e-05
3.6164e-05
3.61313e-05
3.60969e-05
3.60606e-05
3.60223e-05
3.5982e-05
3.59393e-05
3.58941e-05
3.58462e-05
3.57955e-05
3.57416e-05
3.56843e-05
3.56234e-05
3.55584e-05
3.54891e-05
3.5415e-05
3.53357e-05
3.52509e-05
3.516e-05
3.50625e-05
3.49577e-05
3.48447e-05
3.47227e-05
3.45907e-05
3.44475e-05
3.42918e-05
3.4122e-05
3.39364e-05
3.37327e-05
3.35084e-05
3.32605e-05
3.29851e-05
3.26782e-05
3.23351e-05
3.19512e-05
3.15217e-05
3.1044e-05
3.05199e-05
2.99547e-05
2.93579e-05
2.87431e-05
2.81603e-05
2.76034e-05
2.71152e-05
2.67528e-05
2.65851e-05
2.66878e-05
2.72755e-05
2.85007e-05
3.06287e-05
3.39819e-05
3.9057e-05
3.53668e-05
3.53436e-05
3.53198e-05
3.52953e-05
3.52699e-05
3.52438e-05
3.52167e-05
3.51888e-05
3.51598e-05
3.51297e-05
3.50985e-05
3.5066e-05
3.50323e-05
3.49971e-05
3.49603e-05
3.4922e-05
3.48818e-05
3.48398e-05
3.47958e-05
3.47496e-05
3.4701e-05
3.46498e-05
3.4596e-05
3.45392e-05
3.44791e-05
3.44157e-05
3.43484e-05
3.42771e-05
3.42014e-05
3.41208e-05
3.40349e-05
3.39433e-05
3.38454e-05
3.37407e-05
3.36284e-05
3.35076e-05
3.33775e-05
3.3237e-05
3.30849e-05
3.29197e-05
3.27399e-05
3.25435e-05
3.23281e-05
3.20913e-05
3.183e-05
3.15406e-05
3.12196e-05
3.08632e-05
3.04678e-05
3.00312e-05
2.95528e-05
2.90389e-05
2.84975e-05
2.79412e-05
2.74061e-05
2.69015e-05
2.64455e-05
2.60808e-05
2.58489e-05
2.57678e-05
2.59586e-05
2.65405e-05
2.75976e-05
2.92698e-05
3.17514e-05
3.53305e-05
4.03975e-05
4.72974e-05
5.62955e-05
3.34854e-05
3.3453e-05
3.34198e-05
3.33856e-05
3.33503e-05
3.33139e-05
3.32763e-05
3.32374e-05
3.31972e-05
3.31555e-05
3.31123e-05
3.30675e-05
3.30209e-05
3.29725e-05
3.29221e-05
3.28696e-05
3.28148e-05
3.27576e-05
3.26978e-05
3.26351e-05
3.25694e-05
3.25005e-05
3.2428e-05
3.23517e-05
3.22713e-05
3.21864e-05
3.20966e-05
3.20016e-05
3.19008e-05
3.17937e-05
3.16796e-05
3.15581e-05
3.14281e-05
3.12888e-05
3.1139e-05
3.09773e-05
3.08022e-05
3.0612e-05
3.04049e-05
3.01785e-05
2.99305e-05
2.96584e-05
2.93597e-05
2.90322e-05
2.86742e-05
2.82839e-05
2.78636e-05
2.74173e-05
2.6952e-05
2.64784e-05
2.60127e-05
2.56109e-05
2.52726e-05
2.50218e-05
2.48454e-05
2.4821e-05
2.49869e-05
2.5457e-05
2.62186e-05
2.73115e-05
2.88058e-05
3.08225e-05
3.35334e-05
3.71676e-05
4.19967e-05
4.84168e-05
5.67328e-05
6.63482e-05
7.58086e-05
3.03419e-05
3.02982e-05
3.02537e-05
3.02079e-05
3.01609e-05
3.01125e-05
3.00627e-05
3.00114e-05
2.99584e-05
2.99037e-05
2.98471e-05
2.97886e-05
2.97281e-05
2.96653e-05
2.96001e-05
2.95325e-05
2.94621e-05
2.93889e-05
2.93126e-05
2.9233e-05
2.91498e-05
2.90628e-05
2.89717e-05
2.88762e-05
2.87759e-05
2.86704e-05
2.85592e-05
2.8442e-05
2.83181e-05
2.8187e-05
2.80479e-05
2.78986e-05
2.77374e-05
2.75631e-05
2.73744e-05
2.71703e-05
2.69499e-05
2.67123e-05
2.6457e-05
2.61839e-05
2.5894e-05
2.55896e-05
2.52738e-05
2.49514e-05
2.46331e-05
2.43319e-05
2.40642e-05
2.38461e-05
2.36954e-05
2.36298e-05
2.36688e-05
2.38513e-05
2.42466e-05
2.48162e-05
2.55662e-05
2.65075e-05
2.76523e-05
2.90266e-05
3.0673e-05
3.26555e-05
3.51119e-05
3.82615e-05
4.23881e-05
4.78406e-05
5.45686e-05
6.23557e-05
7.0504e-05
7.4304e-05
7.19324e-05
2.50838e-05
2.50373e-05
2.49903e-05
2.49425e-05
2.48938e-05
2.48441e-05
2.47934e-05
2.47415e-05
2.46884e-05
2.46339e-05
2.45781e-05
2.45208e-05
2.44618e-05
2.44012e-05
2.43387e-05
2.42744e-05
2.42079e-05
2.41392e-05
2.40682e-05
2.39946e-05
2.39184e-05
2.38392e-05
2.3757e-05
2.36714e-05
2.35823e-05
2.34895e-05
2.33928e-05
2.32918e-05
2.31864e-05
2.30766e-05
2.29628e-05
2.28469e-05
2.27306e-05
2.26154e-05
2.25031e-05
2.23957e-05
2.22959e-05
2.22071e-05
2.21331e-05
2.2079e-05
2.20502e-05
2.20532e-05
2.20954e-05
2.21876e-05
2.24188e-05
2.27421e-05
2.31675e-05
2.36757e-05
2.42663e-05
2.49346e-05
2.5674e-05
2.64775e-05
2.73381e-05
2.8245e-05
2.91897e-05
3.01797e-05
3.12619e-05
3.25571e-05
3.42476e-05
3.64268e-05
3.90294e-05
4.21647e-05
4.64609e-05
5.20328e-05
5.56331e-05
5.61375e-05
5.46505e-05
5.12992e-05
4.85061e-05
1.8599e-05
1.86979e-05
1.87939e-05
1.88881e-05
1.8981e-05
1.90727e-05
1.91634e-05
1.92531e-05
1.93417e-05
1.94295e-05
1.95162e-05
1.96021e-05
1.96871e-05
1.97713e-05
1.98548e-05
1.99377e-05
2.00201e-05
2.0102e-05
2.01835e-05
2.02649e-05
2.03461e-05
2.04275e-05
2.05091e-05
2.05911e-05
2.0674e-05
2.07617e-05
2.08583e-05
2.09659e-05
2.10861e-05
2.122e-05
2.13683e-05
2.15319e-05
2.17116e-05
2.19084e-05
2.21233e-05
2.23571e-05
2.26106e-05
2.28844e-05
2.31785e-05
2.34924e-05
2.38249e-05
2.41734e-05
2.45343e-05
2.49018e-05
2.52691e-05
2.56248e-05
2.59562e-05
2.62477e-05
2.64826e-05
2.66452e-05
2.67254e-05
2.67263e-05
2.666e-05
2.64874e-05
2.62823e-05
2.61541e-05
2.62824e-05
2.70923e-05
2.88963e-05
3.00517e-05
2.91608e-05
2.75825e-05
2.63294e-05
2.82933e-05
3.02828e-05
3.09232e-05
3.10253e-05
3.12525e-05
3.25667e-05
1.79449e-05
1.80933e-05
1.82421e-05
1.83917e-05
1.85418e-05
1.86921e-05
1.88422e-05
1.89918e-05
1.91406e-05
1.92882e-05
1.94345e-05
1.95791e-05
1.97218e-05
1.98624e-05
2.00005e-05
2.0136e-05
2.02686e-05
2.03979e-05
2.05237e-05
2.06458e-05
2.07637e-05
2.08771e-05
2.09856e-05
2.10887e-05
2.11855e-05
2.1271e-05
2.13411e-05
2.13943e-05
2.14301e-05
2.14483e-05
2.14483e-05
2.14295e-05
2.13907e-05
2.13302e-05
2.12458e-05
2.11346e-05
2.09931e-05
2.08172e-05
2.06019e-05
2.03415e-05
2.00295e-05
1.96581e-05
1.92191e-05
1.8703e-05
1.80995e-05
1.73981e-05
1.65877e-05
1.56584e-05
1.46026e-05
1.34196e-05
1.21262e-05
1.07562e-05
9.26613e-06
7.95179e-06
7.09397e-06
6.40167e-06
5.71443e-06
6.28858e-06
7.4157e-06
8.02718e-06
7.438e-06
6.75504e-06
6.5546e-06
6.85855e-06
7.24397e-06
7.37772e-06
7.45764e-06
7.67606e-06
8.114e-06
4.00953e-05
4.00692e-05
4.00453e-05
4.00261e-05
4.00108e-05
4.00022e-05
4.00036e-05
4.00117e-05
4.00145e-05
4.00222e-05
4.00308e-05
4.00386e-05
4.00374e-05
4.00251e-05
4.00161e-05
4.0026e-05
4.00329e-05
4.00298e-05
4.00434e-05
4.00589e-05
4.00607e-05
4.00163e-05
3.99986e-05
3.99955e-05
3.99906e-05
3.99976e-05
3.99972e-05
3.99983e-05
4.00138e-05
4.00326e-05
4.00357e-05
4.00233e-05
4.00075e-05
4.0003e-05
4.00023e-05
4.0029e-05
4.00473e-05
4.00351e-05
4.00168e-05
4.00254e-05
4.00387e-05
4.00399e-05
4.00346e-05
4.00463e-05
4.00618e-05
4.00727e-05
4.00811e-05
4.0088e-05
4.00879e-05
4.00755e-05
4.00597e-05
4.00566e-05
4.00649e-05
4.00711e-05
4.00854e-05
4.01087e-05
4.01307e-05
4.01468e-05
4.01579e-05
4.00297e-05
4.00143e-05
4.00044e-05
3.99993e-05
3.99995e-05
4.00033e-05
4.00077e-05
4.00079e-05
4.00092e-05
4.00148e-05
4.00186e-05
4.00171e-05
4.00093e-05
4.00021e-05
4.00046e-05
4.00131e-05
4.0015e-05
4.00165e-05
4.00297e-05
4.00391e-05
4.00267e-05
3.99877e-05
3.99745e-05
3.99715e-05
3.99688e-05
3.99769e-05
3.99766e-05
3.99781e-05
3.99905e-05
4.00078e-05
4.0013e-05
4.00037e-05
3.99883e-05
3.99798e-05
3.9975e-05
3.99937e-05
4.00175e-05
4.00176e-05
4.00015e-05
3.99982e-05
4.00057e-05
4.00107e-05
4.00077e-05
4.00089e-05
4.00184e-05
4.00306e-05
4.00424e-05
4.00516e-05
4.00589e-05
4.00593e-05
4.00506e-05
4.0041e-05
4.00369e-05
4.00355e-05
4.00366e-05
4.00441e-05
4.00571e-05
4.0072e-05
4.0092e-05
4.00007e-05
3.99991e-05
4.00005e-05
4.00035e-05
4.00057e-05
4.00021e-05
3.99972e-05
3.99952e-05
3.99955e-05
3.99967e-05
3.99946e-05
3.99894e-05
3.99846e-05
3.99854e-05
3.99915e-05
3.99953e-05
3.99955e-05
4.00008e-05
4.00114e-05
4.00119e-05
3.99906e-05
3.99583e-05
3.99486e-05
3.99462e-05
3.99458e-05
3.99543e-05
3.99541e-05
3.99555e-05
3.99658e-05
3.99814e-05
3.99881e-05
3.99817e-05
3.99679e-05
3.99568e-05
3.99483e-05
3.99585e-05
3.99821e-05
3.99929e-05
3.99842e-05
3.99754e-05
3.99756e-05
3.99788e-05
3.99784e-05
3.99761e-05
3.99784e-05
3.99865e-05
3.99978e-05
4.00084e-05
4.00179e-05
4.00266e-05
4.00311e-05
4.00275e-05
4.00195e-05
4.00119e-05
4.00063e-05
4.00038e-05
4.0005e-05
4.00097e-05
4.00187e-05
4.00144e-05
4.00149e-05
4.00104e-05
4.00018e-05
3.99898e-05
3.9981e-05
3.99756e-05
3.99733e-05
3.99721e-05
3.99702e-05
3.99671e-05
3.99649e-05
3.99658e-05
3.99697e-05
3.9973e-05
3.99733e-05
3.99749e-05
3.99816e-05
3.99869e-05
3.99785e-05
3.99533e-05
3.99277e-05
3.99206e-05
3.99193e-05
3.99212e-05
3.99297e-05
3.99297e-05
3.99307e-05
3.99393e-05
3.99534e-05
3.99609e-05
3.99572e-05
3.99455e-05
3.99333e-05
3.9922e-05
3.99245e-05
3.99436e-05
3.99607e-05
3.99613e-05
3.99534e-05
3.99485e-05
3.99477e-05
3.9947e-05
3.99441e-05
3.99421e-05
3.99445e-05
3.99519e-05
3.99613e-05
3.99704e-05
3.99801e-05
3.99909e-05
4.00007e-05
4.00038e-05
3.99992e-05
3.99913e-05
3.99832e-05
3.99768e-05
3.99727e-05
3.99714e-05
4.00153e-05
4.0002e-05
3.99843e-05
3.99681e-05
3.99575e-05
3.99506e-05
3.99473e-05
3.99456e-05
3.99445e-05
3.99434e-05
3.99433e-05
3.99447e-05
3.9947e-05
3.99486e-05
3.99486e-05
3.99486e-05
3.9952e-05
3.99569e-05
3.99554e-05
3.99403e-05
3.99151e-05
3.98954e-05
3.98906e-05
3.98904e-05
3.98946e-05
3.99028e-05
3.9903e-05
3.99035e-05
3.99108e-05
3.99234e-05
3.99313e-05
3.99298e-05
3.99204e-05
3.99083e-05
3.98953e-05
3.98914e-05
3.99039e-05
3.99224e-05
3.99311e-05
3.99284e-05
3.99223e-05
3.99181e-05
3.99153e-05
3.99118e-05
3.99078e-05
3.99057e-05
3.99079e-05
3.99137e-05
3.99209e-05
3.99284e-05
3.99378e-05
3.99496e-05
3.9963e-05
3.99755e-05
3.99805e-05
3.99772e-05
3.99701e-05
3.99618e-05
3.99543e-05
3.9969e-05
3.99514e-05
3.99373e-05
3.99274e-05
3.99219e-05
3.99191e-05
3.99183e-05
3.99184e-05
3.9919e-05
3.992e-05
3.99213e-05
3.99222e-05
3.9922e-05
3.99208e-05
3.992e-05
3.99214e-05
3.99247e-05
3.99253e-05
3.99172e-05
3.98983e-05
3.98757e-05
3.98609e-05
3.98581e-05
3.98593e-05
3.98655e-05
3.98733e-05
3.98736e-05
3.98737e-05
3.98797e-05
3.9891e-05
3.98991e-05
3.98993e-05
3.98921e-05
3.9881e-05
3.98675e-05
3.98589e-05
3.98642e-05
3.988e-05
3.98935e-05
3.98972e-05
3.98938e-05
3.98886e-05
3.98838e-05
3.98792e-05
3.9874e-05
3.98691e-05
3.98668e-05
3.9868e-05
3.98718e-05
3.98766e-05
3.98824e-05
3.98906e-05
3.99019e-05
3.99165e-05
3.99345e-05
3.99495e-05
3.99585e-05
3.99615e-05
3.99618e-05
3.99114e-05
3.99022e-05
3.98959e-05
3.98925e-05
3.98913e-05
3.98914e-05
3.98922e-05
3.98932e-05
3.9894e-05
3.98942e-05
3.98936e-05
3.98918e-05
3.98894e-05
3.98878e-05
3.98881e-05
3.98899e-05
3.98907e-05
3.98862e-05
3.98731e-05
3.98534e-05
3.98344e-05
3.98239e-05
3.98228e-05
3.98258e-05
3.98334e-05
3.98407e-05
3.98411e-05
3.98409e-05
3.98458e-05
3.98557e-05
3.98638e-05
3.98654e-05
3.98602e-05
3.98505e-05
3.98375e-05
3.9826e-05
3.98247e-05
3.98353e-05
3.98496e-05
3.98586e-05
3.98599e-05
3.98564e-05
3.98513e-05
3.98458e-05
3.98397e-05
3.98334e-05
3.98281e-05
3.98251e-05
3.98249e-05
3.98264e-05
3.9829e-05
3.98329e-05
3.98388e-05
3.98482e-05
3.98611e-05
3.98775e-05
3.9899e-05
3.99175e-05
3.9933e-05
3.98689e-05
3.98664e-05
3.98648e-05
3.98642e-05
3.98642e-05
3.98644e-05
3.98642e-05
3.98635e-05
3.9862e-05
3.98597e-05
3.98566e-05
3.98534e-05
3.98512e-05
3.98507e-05
3.98515e-05
3.98518e-05
3.98487e-05
3.98395e-05
3.98239e-05
3.98056e-05
3.97906e-05
3.97838e-05
3.97844e-05
3.97892e-05
3.97977e-05
3.98044e-05
3.9805e-05
3.98045e-05
3.98084e-05
3.98171e-05
3.98249e-05
3.98276e-05
3.98242e-05
3.98162e-05
3.98043e-05