/*--------------------------------*- C++ -*----------------------------------*\
| =========                 |                                                 |
| \\      /  F ield         | OpenFOAM: The Open Source CFD Toolbox           |
|  \\    /   O peration     | Version:  2312                                  |
|   \\  /    A nd           | Website:  www.openfoam.com                      |
|    \\/     M anipulation  |                                                 |
\*---------------------------------------------------------------------------*/
FoamFile
{
    version     2.0;
    format      ascii;
    arch        "LSB;label=32;scalar=64";
    class       volScalarField;
    location    "600";
    object      p;
}
// * * * * * * * * * * * * * * * * * * * * * * * * * * * * * * * * * * * * * //

dimensions      [0 2 -2 0 0 0 0];

internalField   nonuniform List<scalar> 
76025
(
-0.000149293
-0.000161833
-0.000174631
-0.00018769
-0.000200606
-0.000213732
-0.000227106
-0.000240077
-0.000253433
-0.000266667
-0.00027988
-0.000293078
-0.000306321
-0.00031948
-0.000332882
-0.000346108
-0.000359113
-0.000372147
-0.000385245
-0.000398139
-0.000410824
-0.00042366
-0.000436219
-0.000448429
-0.000460482
-0.000472168
-0.000484156
-0.000496008
-0.000506987
-0.000518484
-0.000529412
-0.000539645
-0.000550066
-0.000560265
-0.000570102
-0.000579504
-0.000588134
-0.0005972
-0.000605698
-0.000613783
-0.000621302
-0.000628382
-0.000635923
-0.000642941
-0.000649528
-0.00065557
-0.000661655
-0.000667458
-0.000672176
-0.000676672
-0.000681037
-0.000684876
-0.000688658
-0.000692466
-0.000695847
-0.000697814
-0.000700486
-0.000702101
-0.000703584
-0.000705047
-0.000706418
-0.000706982
-0.000707729
-0.000708684
-0.000709061
-0.000708391
-0.00070847
-0.000709543
-0.000709867
-0.000156643
-0.000169831
-0.000183111
-0.000196646
-0.000210315
-0.000224069
-0.000237807
-0.000251596
-0.000265443
-0.000279286
-0.000293129
-0.000306977
-0.000320858
-0.000334732
-0.00034851
-0.000362172
-0.000375854
-0.000389393
-0.000402978
-0.000416382
-0.00042973
-0.000442877
-0.000455835
-0.000468544
-0.000481113
-0.000493579
-0.000505909
-0.000517885
-0.00052957
-0.00054102
-0.000552168
-0.000563228
-0.000574047
-0.000584447
-0.000594576
-0.000604277
-0.000613627
-0.000622677
-0.000631365
-0.000639785
-0.000647785
-0.000655482
-0.000662923
-0.000669926
-0.000676593
-0.000682909
-0.000688996
-0.000694685
-0.000699855
-0.000704759
-0.000709438
-0.000713761
-0.000717855
-0.000721704
-0.000725091
-0.000727917
-0.000730675
-0.000732987
-0.000734958
-0.000736641
-0.000738329
-0.000739822
-0.000740925
-0.000741981
-0.000742792
-0.000743308
-0.000744078
-0.000745117
-0.000745666
-0.00016505
-0.000178812
-0.000192679
-0.000206838
-0.000221172
-0.000235519
-0.000249871
-0.000264268
-0.000278698
-0.000293159
-0.000307634
-0.000322112
-0.000336583
-0.000351014
-0.000365349
-0.000379626
-0.000393831
-0.000407959
-0.000421998
-0.000435931
-0.000449718
-0.000463323
-0.000476757
-0.000490016
-0.000503105
-0.000516016
-0.000528665
-0.000541036
-0.000553147
-0.000564974
-0.000576589
-0.000587986
-0.000599036
-0.000609721
-0.00062006
-0.000630037
-0.000639656
-0.000648925
-0.000657883
-0.000666502
-0.000674728
-0.000682567
-0.000690057
-0.000697226
-0.000704095
-0.000710662
-0.000716937
-0.000722894
-0.000728485
-0.000733739
-0.000738692
-0.000743322
-0.000747649
-0.000751681
-0.000755375
-0.000758685
-0.000761716
-0.00076445
-0.000766882
-0.000769101
-0.000771198
-0.00077312
-0.000774794
-0.000776369
-0.000777831
-0.000779145
-0.000780436
-0.000781971
-0.000783041
-0.000173905
-0.000188283
-0.000202783
-0.000217588
-0.000232555
-0.00024755
-0.000262544
-0.000277554
-0.000292592
-0.000307659
-0.000322741
-0.00033782
-0.000352871
-0.000367874
-0.00038281
-0.000397672
-0.000412452
-0.000427139
-0.000441716
-0.000456165
-0.00047046
-0.000484589
-0.000498542
-0.000512303
-0.000525852
-0.000539173
-0.000552247
-0.000565061
-0.000577603
-0.000589867
-0.000601857
-0.000613547
-0.000624904
-0.000635911
-0.000646565
-0.000656868
-0.000666815
-0.00067641
-0.000685652
-0.00069452
-0.000702999
-0.000711099
-0.000718853
-0.000726289
-0.000733416
-0.000740245
-0.000746773
-0.000752985
-0.000758848
-0.000764366
-0.000769565
-0.000774455
-0.00077904
-0.00078333
-0.000787317
-0.000790987
-0.000794377
-0.000797514
-0.000800408
-0.000803099
-0.000805639
-0.000808036
-0.000810274
-0.000812406
-0.000814446
-0.000816434
-0.000818377
-0.000820526
-0.000822099
-0.000183356
-0.000198391
-0.000213543
-0.000229007
-0.000244633
-0.00026029
-0.000275943
-0.000291605
-0.000307296
-0.000323013
-0.00033874
-0.000354453
-0.000370128
-0.00038575
-0.000401305
-0.000416781
-0.000432168
-0.000447449
-0.000462607
-0.000477623
-0.00049248
-0.000507158
-0.000521642
-0.000535913
-0.000549955
-0.000563755
-0.000577299
-0.000590571
-0.000603556
-0.000616244
-0.000628622
-0.000640678
-0.000652397
-0.000663764
-0.00067477
-0.000685411
-0.000695681
-0.000705574
-0.000715084
-0.000724206
-0.000732938
-0.000741288
-0.000749276
-0.000756924
-0.000764255
-0.000771283
-0.000778008
-0.000784419
-0.000790502
-0.000796258
-0.000801703
-0.000806849
-0.000811703
-0.000816273
-0.000820566
-0.000824586
-0.000828354
-0.000831896
-0.000835231
-0.000838389
-0.000841408
-0.000844309
-0.000847104
-0.000849822
-0.000852482
-0.000855163
-0.000857814
-0.000860731
-0.000863279
-0.000193641
-0.00020937
-0.000225211
-0.000241373
-0.000257702
-0.000274061
-0.000290412
-0.000306771
-0.000323154
-0.000339561
-0.00035597
-0.000372358
-0.000388702
-0.000404986
-0.000421198
-0.000437323
-0.000453345
-0.000469247
-0.000485011
-0.000500617
-0.000516048
-0.000531285
-0.00054631
-0.000561107
-0.00057566
-0.000589955
-0.000603975
-0.000617705
-0.000631129
-0.000644234
-0.000657008
-0.000669439
-0.000681515
-0.000693223
-0.000704553
-0.000715498
-0.000726052
-0.000736211
-0.000745974
-0.000755336
-0.000764298
-0.000772868
-0.000781065
-0.000788913
-0.000796443
-0.000803674
-0.000810607
-0.000817237
-0.000823555
-0.000829561
-0.000835265
-0.000840678
-0.00084581
-0.000850675
-0.000855284
-0.000859652
-0.000863797
-0.000867745
-0.00087152
-0.000875149
-0.000878664
-0.000882093
-0.000885459
-0.000888784
-0.000892096
-0.000895481
-0.00089886
-0.000902574
-0.000905971
-0.000204855
-0.000221314
-0.000237886
-0.000254792
-0.000271871
-0.000288977
-0.000306069
-0.000323163
-0.000340276
-0.000357405
-0.00037453
-0.000391626
-0.000408671
-0.000425647
-0.00044254
-0.000459334
-0.00047601
-0.000492551
-0.000508937
-0.000525149
-0.000541169
-0.000556978
-0.000572558
-0.000587894
-0.000602967
-0.000617761
-0.000632259
-0.000646446
-0.000660307
-0.000673827
-0.000686995
-0.000699798
-0.000712227
-0.000724269
-0.000735914
-0.000747157
-0.000757993
-0.00076842
-0.000778437
-0.00078804
-0.000797231
-0.00080602
-0.000814428
-0.000822483
-0.000830217
-0.000837652
-0.000844792
-0.000851634
-0.000858172
-0.000864409
-0.000870354
-0.000876019
-0.00088142
-0.000886573
-0.000891497
-0.000896209
-0.000900731
-0.000905089
-0.000909308
-0.000913416
-0.000917445
-0.000921423
-0.00092538
-0.000929336
-0.000933334
-0.000937443
-0.000941575
-0.000946112
-0.000950178
-0.000217066
-0.000234295
-0.000251641
-0.000269334
-0.000287204
-0.000305097
-0.00032297
-0.000340837
-0.000358717
-0.000376605
-0.000394483
-0.000412323
-0.000430101
-0.000447798
-0.000465399
-0.000482886
-0.000500242
-0.000517447
-0.000534481
-0.000551324
-0.000567957
-0.00058436
-0.000600516
-0.000616406
-0.000632012
-0.000647317
-0.000662304
-0.000676957
-0.00069126
-0.000705201
-0.000718766
-0.000731945
-0.000744727
-0.0007571
-0.000769057
-0.000780593
-0.000791704
-0.00080239
-0.000812649
-0.000822478
-0.000831882
-0.000840875
-0.00084948
-0.000857725
-0.000865644
-0.000873264
-0.000880591
-0.000887625
-0.000894366
-0.000900818
-0.000906993
-0.000912906
-0.000918575
-0.000924021
-0.000929264
-0.000934326
-0.000939232
-0.000944007
-0.00094868
-0.000953279
-0.000957837
-0.000962385
-0.000966951
-0.000971569
-0.000976288
-0.000981153
-0.000986099
-0.000991508
-0.00099641
-0.000230393
-0.000248439
-0.000266603
-0.000285126
-0.00030383
-0.000322553
-0.000341248
-0.000359931
-0.00037862
-0.000397311
-0.000415983
-0.000434606
-0.000453156
-0.000471611
-0.000489956
-0.000508173
-0.000526242
-0.000544143
-0.000561855
-0.000579357
-0.000596628
-0.000613649
-0.000630399
-0.00064686
-0.000663013
-0.00067884
-0.000694324
-0.000709449
-0.0007242
-0.000738562
-0.000752523
-0.000766073
-0.0007792
-0.000791895
-0.000804151
-0.000815964
-0.000827334
-0.000838259
-0.000848739
-0.000858774
-0.000868372
-0.000877548
-0.000886328
-0.000894743
-0.000902829
-0.000910616
-0.000918113
-0.000925325
-0.000932254
-0.000938909
-0.000945304
-0.000951457
-0.00095739
-0.000963125
-0.000968686
-0.000974098
-0.000979389
-0.000984585
-0.000989717
-0.000994817
-0.000999916
-0.00100505
-0.00101025
-0.00101556
-0.00102102
-0.00102669
-0.00103254
-0.00103888
-0.00104492
-0.00024499
-0.000263903
-0.000282933
-0.000302333
-0.000321917
-0.000341515
-0.00036108
-0.000380624
-0.000400167
-0.000419706
-0.000439216
-0.000458667
-0.000478031
-0.000497286
-0.000516415
-0.000535399
-0.000554217
-0.000572848
-0.000591268
-0.000609455
-0.000627389
-0.000645047
-0.00066241
-0.000679457
-0.000696169
-0.000712528
-0.000728516
-0.000744117
-0.000759315
-0.000774095
-0.000788447
-0.000802359
-0.000815821
-0.000828824
-0.000841363
-0.000853436
-0.000865044
-0.000876186
-0.000886863
-0.00089708
-0.000906846
-0.00091618
-0.00092511
-0.00093367
-0.0009419
-0.00094983
-0.000957476
-0.000964844
-0.000971941
-0.000978781
-0.000985379
-0.000991759
-0.000997945
-0.00100396
-0.00100984
-0.0010156
-0.00102127
-0.00102689
-0.00103249
-0.0010381
-0.00104375
-0.00104948
-0.00105533
-0.00106136
-0.00106758
-0.0010741
-0.00108087
-0.00108832
-0.00109584
-0.000261017
-0.000280849
-0.000300796
-0.000321125
-0.000341641
-0.000362165
-0.000382647
-0.000403102
-0.000423547
-0.000443979
-0.000464374
-0.000484697
-0.000504919
-0.000525017
-0.000544971
-0.000564761
-0.000584365
-0.000603759
-0.000622919
-0.000641821
-0.000660443
-0.000678762
-0.000696758
-0.000714408
-0.000731694
-0.000748596
-0.000765095
-0.000781175
-0.00079682
-0.000812016
-0.000826751
-0.000841015
-0.000854797
-0.000868091
-0.000880893
-0.000893204
-0.000905024
-0.000916355
-0.000927201
-0.000937569
-0.000947472
-0.000956932
-0.00096598
-0.000974654
-0.000982996
-0.00099104
-0.000998804
-0.0010063
-0.00101354
-0.00102054
-0.00102732
-0.00103391
-0.00104033
-0.00104662
-0.0010528
-0.0010589
-0.00106496
-0.00107101
-0.00107707
-0.0010832
-0.00108941
-0.00109576
-0.00110228
-0.00110903
-0.00111604
-0.00112341
-0.00113105
-0.00113947
-0.00114801
-0.000278651
-0.00029946
-0.000320379
-0.000341692
-0.000363196
-0.000384702
-0.000406155
-0.000427571
-0.000448969
-0.000470344
-0.000491671
-0.000512914
-0.00053404
-0.000555024
-0.000575845
-0.000596482
-0.00061691
-0.000637104
-0.000657038
-0.000676688
-0.000696027
-0.000715033
-0.000733684
-0.000751957
-0.000769831
-0.000787286
-0.000804303
-0.000820865
-0.000836955
-0.000852561
-0.000867669
-0.000882271
-0.000896355
-0.000909918
-0.000922959
-0.000935479
-0.000947479
-0.000958965
-0.000969942
-0.000980423
-0.000990423
-0.000999968
-0.00100909
-0.00101784
-0.00102625
-0.00103437
-0.00104222
-0.0010498
-0.00105715
-0.00106428
-0.00107122
-0.001078
-0.00108464
-0.00109118
-0.00109765
-0.00110409
-0.00111053
-0.00111699
-0.00112353
-0.00113017
-0.00113696
-0.00114393
-0.00115115
-0.00115864
-0.00116647
-0.00117471
-0.00118322
-0.0011925
-0.00120114
-0.000298103
-0.000319948
-0.000341901
-0.00036426
-0.000386812
-0.000409359
-0.000431842
-0.000454276
-0.000476682
-0.000499055
-0.000521366
-0.000543578
-0.000565656
-0.000587574
-0.000609307
-0.000630833
-0.000652125
-0.000673157
-0.000693901
-0.00071433
-0.000734416
-0.000754136
-0.000773464
-0.000792377
-0.000810854
-0.000828872
-0.000846412
-0.000863457
-0.000879989
-0.000895995
-0.000911464
-0.000926384
-0.000940748
-0.000954554
-0.000967801
-0.000980494
-0.000992635
-0.00100423
-0.0010153
-0.00102584
-0.00103589
-0.00104547
-0.00105462
-0.00106339
-0.00107182
-0.00107996
-0.00108784
-0.00109547
-0.00110289
-0.00111011
-0.00111717
-0.00112411
-0.00113094
-0.00113772
-0.00114447
-0.00115123
-0.00115803
-0.00116492
-0.00117192
-0.00117908
-0.00118645
-0.00119406
-0.00120196
-0.00121023
-0.00121892
-0.00122808
-0.00123765
-0.00124808
-0.00125867
-0.000319618
-0.000342565
-0.000365617
-0.000389089
-0.000412755
-0.000436408
-0.000459984
-0.000483499
-0.000506973
-0.000530402
-0.000553754
-0.00057699
-0.000600073
-0.000622974
-0.000645666
-0.000668126
-0.000690324
-0.000712233
-0.000733822
-0.000755062
-0.000775924
-0.000796382
-0.000816408
-0.000835979
-0.00085507
-0.000873659
-0.000891724
-0.000909248
-0.000926214
-0.000942608
-0.000958417
-0.000973632
-0.000988246
-0.00100226
-0.00101567
-0.00102849
-0.00104073
-0.00105238
-0.00106347
-0.00107402
-0.00108405
-0.0010936
-0.00110271
-0.00111144
-0.00111983
-0.00112794
-0.00113579
-0.00114342
-0.00115085
-0.00115812
-0.00116526
-0.00117232
-0.00117932
-0.00118631
-0.00119332
-0.00120038
-0.00120754
-0.00121484
-0.00122231
-0.00122999
-0.00123794
-0.00124618
-0.0012548
-0.00126387
-0.00127341
-0.00128352
-0.00129417
-0.00130611
-0.00131788
-0.000343479
-0.000367599
-0.000391823
-0.000416478
-0.000441331
-0.000466161
-0.0004909
-0.000515563
-0.000540172
-0.00056472
-0.000589176
-0.000613497
-0.000637643
-0.000661581
-0.000685285
-0.000708726
-0.000731877
-0.000754704
-0.000777177
-0.000799262
-0.00082093
-0.00084215
-0.000862896
-0.000883139
-0.000902855
-0.00092202
-0.000940611
-0.000958608
-0.000975996
-0.000992757
-0.00100888
-0.00102436
-0.00103918
-0.00105336
-0.00106689
-0.00107978
-0.00109204
-0.00110368
-0.00111473
-0.00112521
-0.00113515
-0.00114459
-0.00115358
-0.00116218
-0.00117046
-0.00117845
-0.0011862
-0.00119375
-0.00120114
-0.0012084
-0.00121557
-0.00122271
-0.00122984
-0.00123701
-0.00124426
-0.00125161
-0.00125912
-0.00126682
-0.00127475
-0.00128296
-0.00129147
-0.00130037
-0.00130972
-0.00131958
-0.00132998
-0.00134108
-0.00135285
-0.00136589
-0.00137914
-0.000370012
-0.000395383
-0.000420854
-0.000446771
-0.000472888
-0.000498971
-0.000524948
-0.000550833
-0.000576647
-0.000602385
-0.000628013
-0.000653484
-0.000678756
-0.000703793
-0.000728565
-0.000753042
-0.000777194
-0.000800985
-0.000824382
-0.000847349
-0.000869853
-0.000891862
-0.000913347
-0.000934278
-0.000954627
-0.000974368
-0.000993479
-0.00101194
-0.00102973
-0.00104683
-0.00106323
-0.00107893
-0.00109392
-0.0011082
-0.00112178
-0.00113467
-0.00114688
-0.00115843
-0.00116934
-0.00117966
-0.0011894
-0.00119863
-0.0012074
-0.00121578
-0.00122384
-0.00123162
-0.00123919
-0.00124658
-0.00125385
-0.00126103
-0.00126819
-0.00127536
-0.00128258
-0.0012899
-0.00129736
-0.00130499
-0.00131283
-0.00132093
-0.00132932
-0.00133804
-0.00134715
-0.00135671
-0.00136678
-0.00137741
-0.00138871
-0.00140082
-0.00141376
-0.00142796
-0.00144277
-0.000399605
-0.000426311
-0.000453113
-0.000480377
-0.000507843
-0.000535262
-0.000562558
-0.000589744
-0.000616843
-0.000643848
-0.000670723
-0.000697418
-0.000723886
-0.000750089
-0.000775993
-0.000801568
-0.000826777
-0.000851585
-0.000875954
-0.000899845
-0.000923223
-0.000946052
-0.0009683
-0.000989935
-0.00101093
-0.00103125
-0.00105087
-0.00106977
-0.00108794
-0.00110535
-0.00112199
-0.00113786
-0.00115295
-0.00116726
-0.00118081
-0.00119361
-0.00120567
-0.00121702
-0.00122769
-0.00123772
-0.00124715
-0.00125604
-0.00126446
-0.00127249
-0.00128021
-0.00128767
-0.00129493
-0.00130207
-0.00130912
-0.00131615
-0.00132321
-0.00133036
-0.00133762
-0.00134505
-0.00135269
-0.00136058
-0.00136874
-0.00137723
-0.00138607
-0.00139532
-0.00140502
-0.00141524
-0.00142602
-0.00143744
-0.00144963
-0.00146273
-0.00147679
-0.00149241
-0.00150905
-0.00043269
-0.000460822
-0.000489045
-0.000517746
-0.00054665
-0.000575495
-0.000604198
-0.000632771
-0.000661238
-0.000689592
-0.000717793
-0.000745789
-0.000773529
-0.00080097
-0.000828076
-0.000854811
-0.000881139
-0.000907018
-0.000932409
-0.000957268
-0.000981557
-0.00100524
-0.00102827
-0.00105062
-0.00107227
-0.00109316
-0.00111329
-0.00113262
-0.00115113
-0.0011688
-0.00118563
-0.0012016
-0.00121671
-0.00123097
-0.00124439
-0.00125698
-0.00126877
-0.00127979
-0.00129008
-0.00129967
-0.00130863
-0.00131703
-0.00132495
-0.00133248
-0.0013397
-0.0013467
-0.00135354
-0.00136029
-0.00136703
-0.00137382
-0.00138071
-0.00138777
-0.00139503
-0.00140254
-0.00141033
-0.00141844
-0.0014269
-0.00143577
-0.00144507
-0.00145484
-0.00146514
-0.00147601
-0.0014875
-0.00149969
-0.00151272
-0.00152674
-0.00154187
-0.00155873
-0.00157679
-0.000469819
-0.000499476
-0.000529222
-0.00055946
-0.000589905
-0.000620276
-0.000650484
-0.000680542
-0.000710472
-0.000740268
-0.000769888
-0.000799275
-0.000828374
-0.000857137
-0.000885525
-0.000913498
-0.000941017
-0.000968036
-0.00099451
-0.00102039
-0.00104564
-0.00107021
-0.00109407
-0.00111716
-0.00113947
-0.00116094
-0.00118156
-0.00120129
-0.00122011
-0.001238
-0.00125495
-0.00127095
-0.00128599
-0.00130009
-0.00131326
-0.00132551
-0.00133688
-0.00134741
-0.00135713
-0.00136611
-0.0013744
-0.00138211
-0.00138932
-0.00139614
-0.00140268
-0.00140901
-0.00141524
-0.00142145
-0.00142773
-0.00143414
-0.00144077
-0.00144766
-0.00145486
-0.00146239
-0.0014703
-0.00147862
-0.00148738
-0.00149661
-0.00150635
-0.00151664
-0.00152754
-0.00153905
-0.00155123
-0.00156417
-0.00157798
-0.00159285
-0.00160885
-0.00162663
-0.00164566
-0.000511537
-0.000542824
-0.000574195
-0.000606076
-0.000638164
-0.000670165
-0.000701979
-0.000733618
-0.000765108
-0.00079644
-0.000827571
-0.000858439
-0.000888983
-0.000919151
-0.000948898
-0.000978183
-0.00100696
-0.00103518
-0.0010628
-0.00108975
-0.001116
-0.0011415
-0.0011662
-0.00119006
-0.00121303
-0.00123508
-0.00125617
-0.00127627
-0.00129536
-0.0013134
-0.00133039
-0.00134632
-0.00136118
-0.00137498
-0.00138774
-0.00139948
-0.00141024
-0.00142007
-0.001429
-0.00143712
-0.00144452
-0.00145128
-0.00145755
-0.00146343
-0.00146904
-0.0014745
-0.00147993
-0.00148543
-0.0014911
-0.00149703
-0.0015033
-0.00150995
-0.00151703
-0.00152457
-0.00153259
-0.00154113
-0.00155018
-0.00155976
-0.00156993
-0.00158076
-0.00159225
-0.00160439
-0.00161725
-0.00163092
-0.00164548
-0.00166109
-0.00167777
-0.00169614
-0.00171543
-0.000558709
-0.000591753
-0.00062488
-0.000658534
-0.000692398
-0.000726159
-0.000759709
-0.00079306
-0.000826237
-0.000859232
-0.000891998
-0.000924469
-0.000956578
-0.000988267
-0.00101949
-0.00105019
-0.00108033
-0.00110985
-0.00113869
-0.00116681
-0.00119413
-0.00122061
-0.00124621
-0.00127086
-0.00129452
-0.00131715
-0.00133871
-0.00135916
-0.00137846
-0.0013966
-0.00141355
-0.00142931
-0.00144387
-0.00145723
-0.00146942
-0.00148047
-0.0014904
-0.00149928
-0.00150716
-0.00151414
-0.00152031
-0.00152581
-0.00153078
-0.00153536
-0.0015397
-0.00154395
-0.00154825
-0.00155275
-0.00155757
-0.0015628
-0.00156854
-0.00157482
-0.0015817
-0.00158919
-0.00159731
-0.00160602
-0.00161533
-0.00162527
-0.00163591
-0.00164725
-0.00165929
-0.00167206
-0.00168563
-0.00170005
-0.00171537
-0.00173172
-0.00174912
-0.00176802
-0.00178771
-0.000611831
-0.000646737
-0.000681716
-0.000717243
-0.000752985
-0.000788608
-0.000823993
-0.000859152
-0.00089411
-0.000928859
-0.000963351
-0.000997514
-0.00103127
-0.00106457
-0.00109734
-0.00112954
-0.00116111
-0.00119199
-0.00122212
-0.00125144
-0.00127988
-0.00130739
-0.0013339
-0.00135936
-0.00138371
-0.0014069
-0.00142888
-0.00144961
-0.00146905
-0.00148718
-0.00150396
-0.00151938
-0.00153343
-0.00154613
-0.00155749
-0.00156754
-0.00157633
-0.00158391
-0.00159038
-0.00159583
-0.00160041
-0.00160428
-0.0016076
-0.00161057
-0.00161335
-0.00161613
-0.00161909
-0.00162242
-0.00162627
-0.00163075
-0.00163593
-0.00164187
-0.0016486
-0.0016561
-0.00166432
-0.00167323
-0.00168285
-0.0016932
-0.00170427
-0.00171607
-0.00172868
-0.00174217
-0.00175658
-0.0017719
-0.00178817
-0.00180549
-0.00182395
-0.00184385
-0.00186537
-0.000672824
-0.000709794
-0.00074685
-0.000784471
-0.000822309
-0.000860011
-0.000897449
-0.000934629
-0.000971579
-0.00100829
-0.00104471
-0.00108077
-0.00111638
-0.00115147
-0.00118598
-0.00121985
-0.00125302
-0.00128542
-0.00131699
-0.00134766
-0.00137735
-0.00140599
-0.00143353
-0.00145989
-0.00148501
-0.00150882
-0.00153128
-0.00155233
-0.00157191
-0.00159
-0.00160655
-0.00162155
-0.00163498
-0.00164685
-0.00165717
-0.00166598
-0.0016733
-0.00167922
-0.00168381
-0.00168721
-0.00168957
-0.0016911
-0.00169202
-0.00169257
-0.00169299
-0.00169354
-0.00169446
-0.00169599
-0.00169834
-0.00170167
-0.00170605
-0.00171149
-0.00171799
-0.00172545
-0.00173377
-0.00174292
-0.00175289
-0.00176362
-0.00177511
-0.0017875
-0.00180094
-0.0018155
-0.00183115
-0.00184782
-0.00186544
-0.00188387
-0.00190303
-0.00192299
-0.00194448
-0.000740353
-0.000779407
-0.000818515
-0.000858227
-0.000898176
-0.000937979
-0.000977494
-0.00101673
-0.0010557
-0.00109442
-0.00113281
-0.0011708
-0.0012083
-0.00124523
-0.00128153
-0.00131711
-0.00135193
-0.0013859
-0.00141894
-0.00145097
-0.00148192
-0.00151169
-0.00154022
-0.00156742
-0.00159323
-0.00161758
-0.00164039
-0.00166161
-0.00168116
-0.00169901
-0.00171511
-0.00172942
-0.00174192
-0.00175261
-0.00176151
-0.00176864
-0.00177407
-0.00177786
-0.00178015
-0.00178109
-0.00178086
-0.00177968
-0.0017778
-0.00177551
-0.00177318
-0.00177116
-0.00176981
-0.00176942
-0.00177023
-0.00177246
-0.00177624
-0.00178153
-0.0017882
-0.00179606
-0.00180495
-0.00181476
-0.00182538
-0.00183679
-0.00184916
-0.00186276
-0.00187771
-0.00189395
-0.00191128
-0.00192944
-0.00194795
-0.00196584
-0.00198232
-0.00199667
-0.00200966
-0.000822702
-0.000864241
-0.000905917
-0.000948191
-0.000990687
-0.00103301
-0.00107502
-0.0011167
-0.00115809
-0.00119919
-0.00123994
-0.00128025
-0.00132001
-0.00135914
-0.00139756
-0.0014352
-0.00147199
-0.00150785
-0.00154269
-0.00157642
-0.00160894
-0.00164016
-0.00166998
-0.00169831
-0.00172507
-0.00175016
-0.00177351
-0.00179503
-0.00181466
-0.00183231
-0.00184793
-0.00186148
-0.00187291
-0.00188219
-0.00188932
-0.00189428
-0.00189714
-0.00189797
-0.00189693
-0.00189422
-0.00189007
-0.00188474
-0.00187853
-0.00187176
-0.00186488
-0.00185844
-0.00185308
-0.00184929
-0.00184735
-0.00184756
-0.00185018
-0.00185511
-0.00186207
-0.00187065
-0.00188044
-0.00189109
-0.00190243
-0.00191461
-0.00192801
-0.00194299
-0.0019594
-0.00197662
-0.00199391
-0.00201075
-0.00202625
-0.00203826
-0.00204551
-0.0020481
-0.00204727
-0.000904059
-0.000948057
-0.000991999
-0.00103663
-0.00108155
-0.00112629
-0.00117069
-0.00121472
-0.00125843
-0.00130182
-0.00134484
-0.00138737
-0.00142933
-0.00147059
-0.00151108
-0.00155071
-0.00158939
-0.00162704
-0.00166356
-0.00169885
-0.00173281
-0.00176534
-0.00179632
-0.00182565
-0.00185322
-0.00187893
-0.00190268
-0.00192435
-0.00194387
-0.00196112
-0.00197606
-0.00198861
-0.00199875
-0.00200642
-0.0020116
-0.00201426
-0.00201443
-0.00201218
-0.00200767
-0.00200111
-0.00199282
-0.00198315
-0.0019725
-0.00196128
-0.00194994
-0.00193915
-0.00192981
-0.00192286
-0.00191885
-0.00191815
-0.001921
-0.00192739
-0.00193674
-0.00194798
-0.00195996
-0.00197185
-0.00198334
-0.00199473
-0.00200681
-0.00202029
-0.00203438
-0.0020473
-0.00205791
-0.00206667
-0.00207412
-0.00207823
-0.0020778
-0.00207488
-0.00207072
-0.00102639
-0.00107281
-0.00111971
-0.00116735
-0.00121528
-0.00126307
-0.00131052
-0.00135761
-0.00140435
-0.00145074
-0.00149672
-0.00154218
-0.00158701
-0.0016311
-0.00167436
-0.00171669
-0.00175798
-0.00179812
-0.001837
-0.00187449
-0.00191049
-0.00194486
-0.00197749
-0.00200826
-0.00203702
-0.00206367
-0.00208808
-0.00211008
-0.00212954
-0.00214629
-0.00216019
-0.00217111
-0.002179
-0.00218381
-0.00218552
-0.00218409
-0.00217953
-0.00217191
-0.00216138
-0.00214815
-0.00213254
-0.00211497
-0.00209603
-0.00207633
-0.00205651
-0.0020374
-0.00202014
-0.00200605
-0.00199633
-0.00199192
-0.00199342
-0.00200081
-0.00201296
-0.00202733
-0.00204102
-0.00205193
-0.00205916
-0.0020632
-0.00206586
-0.00206955
-0.00207419
-0.0020781
-0.00208061
-0.0020834
-0.00208793
-0.00209287
-0.00209567
-0.00209609
-0.00209634
-0.00111316
-0.00116314
-0.00121258
-0.00126289
-0.00131359
-0.00136406
-0.00141412
-0.00146381
-0.00151316
-0.00156218
-0.00161076
-0.0016588
-0.00170616
-0.00175273
-0.00179841
-0.00184312
-0.00188675
-0.00192918
-0.00197027
-0.00200987
-0.00204785
-0.00208407
-0.00211838
-0.00215064
-0.00218073
-0.00220854
-0.00223398
-0.00225695
-0.00227732
-0.00229494
-0.00230956
-0.00232086
-0.00232859
-0.00233257
-0.0023327
-0.00232891
-0.00232117
-0.00230947
-0.00229388
-0.00227456
-0.00225177
-0.00222591
-0.00219759
-0.00216768
-0.00213724
-0.00210762
-0.00208041
-0.00205743
-0.00204053
-0.00203131
-0.00203083
-0.00203898
-0.00205376
-0.00207029
-0.00208371
-0.00209142
-0.00209284
-0.00208931
-0.00208405
-0.00208107
-0.00208155
-0.00208441
-0.00208764
-0.00209038
-0.00209327
-0.00209714
-0.00210179
-0.00210751
-0.00211648
-0.00130309
-0.00135561
-0.00140978
-0.00146475
-0.00151971
-0.00157426
-0.00162833
-0.00168196
-0.00173522
-0.00178808
-0.00184045
-0.00189219
-0.00194316
-0.00199324
-0.00204232
-0.00209027
-0.00213697
-0.00218231
-0.00222612
-0.00226823
-0.00230845
-0.00234662
-0.00238252
-0.00241594
-0.00244664
-0.00247433
-0.00249871
-0.00251957
-0.00253674
-0.00255016
-0.00255984
-0.00256583
-0.00256798
-0.002566
-0.00255955
-0.00254834
-0.00253211
-0.0025107
-0.00248406
-0.00245229
-0.00241563
-0.00237456
-0.00232981
-0.00228246
-0.00223396
-0.00218609
-0.00214097
-0.00210097
-0.00206851
-0.00204575
-0.00203425
-0.00203441
-0.00204466
-0.00206002
-0.00207476
-0.00208565
-0.00209166
-0.00209286
-0.00209072
-0.00208781
-0.00208679
-0.00208757
-0.00208872
-0.00208998
-0.00209211
-0.0020958
-0.00210107
-0.00210804
-0.00211794
0.000310706
0.000312876
0.000315393
0.000318237
0.000321199
0.000324315
0.000327686
0.000331257
0.000334987
0.000338727
0.000342615
0.000346681
0.00035071
0.000355089
0.000358617
0.00036207
0.0003648
0.000367756
0.000369986
0.0003718
0.000373102
0.000373075
0.000372401
0.000370122
0.000366892
0.000362824
0.00035709
0.000349913
0.000341408
0.000331944
0.000319884
0.000306656
0.000292277
0.00027711
0.000260061
0.000242211
0.00022393
0.000204968
0.000185156
0.000165201
0.000145266
0.000125236
0.000105396
8.60852e-05
6.6527e-05
4.80976e-05
2.96377e-05
1.21289e-05
-5.0709e-06
-2.15747e-05
-3.71854e-05
-5.20921e-05
-6.62297e-05
-7.95142e-05
-9.2116e-05
-0.000104522
-0.00011612
-0.000127207
-0.000137742
0.000316505
0.000318905
0.000321641
0.000324576
0.000327737
0.000331109
0.000334683
0.000338434
0.000342363
0.000346454
0.000350653
0.000354936
0.00035926
0.000363567
0.00036778
0.000371474
0.000374962
0.000378088
0.000380744
0.000382649
0.000383881
0.000384352
0.000383735
0.000381876
0.000378865
0.000374624
0.000369094
0.000361891
0.000353383
0.000343359
0.000331194
0.000317736
0.000303084
0.000286951
0.000269525
0.000251063
0.000231959
0.000212259
0.000191899
0.000171135
0.000150413
0.000129653
0.000109046
8.8557e-05
6.84888e-05
4.897e-05
2.98873e-05
1.15359e-05
-6.21776e-06
-2.33009e-05
-3.95658e-05
-5.50512e-05
-6.98427e-05
-8.39138e-05
-9.74175e-05
-0.000110229
-0.00012239
-0.000133847
-0.000144667
0.000322859
0.000325474
0.000328371
0.000331496
0.000334868
0.000338471
0.000342291
0.000346313
0.000350529
0.000354911
0.000359405
0.000363952
0.000368538
0.000373115
0.000377584
0.000381828
0.000385809
0.000389326
0.000392249
0.000394444
0.000395823
0.00039654
0.00039617
0.000394591
0.000391749
0.000387482
0.00038191
0.000374755
0.000366038
0.000355677
0.000343348
0.000329543
0.000314271
0.000297505
0.000279486
0.000260425
0.000240517
0.000219978
0.000198878
0.000177368
0.000155686
0.000133939
0.000112292
9.09726e-05
7.00614e-05
4.96777e-05
2.98393e-05
1.06582e-05
-7.84279e-06
-2.56527e-05
-4.26902e-05
-5.89655e-05
-7.44981e-05
-8.93197e-05
-0.000103383
-0.000116694
-0.000129315
-0.000141227
-0.000152528
0.000329022
0.000331824
0.000334936
0.000338295
0.000341921
0.000345801
0.000349923
0.000354267
0.00035881
0.000363524
0.000368371
0.000373301
0.000378277
0.000383231
0.000388057
0.00039271
0.000397049
0.000400949
0.000404243
0.000406839
0.000408602
0.000409527
0.00040937
0.000407986
0.000405276
0.000401069
0.000395472
0.000388264
0.000379339
0.000368662
0.000356023
0.00034174
0.000325866
0.000308512
0.000289836
0.000270068
0.000249354
0.000227902
0.000205879
0.000183451
0.00016077
0.000138046
0.000115464
9.32398e-05
7.14217e-05
5.01261e-05
2.94221e-05
9.38362e-06
-9.93908e-06
-2.85294e-05
-4.63448e-05
-6.33641e-05
-7.95796e-05
-9.50047e-05
-0.000109642
-0.00012351
-0.000136651
-0.000149062
-0.000160839
0.000335012
0.000338011
0.000341342
0.000344941
0.000348831
0.000352997
0.000357429
0.000362107
0.000367007
0.000372098
0.000377343
0.000382693
0.000388095
0.000393472
0.000398733
0.000403799
0.000408549
0.000412864
0.000416593
0.000419611
0.000421777
0.000422988
0.00042306
0.000421864
0.000419286
0.000415174
0.000409587
0.000402284
0.000393148
0.00038215
0.000369115
0.000354314
0.000337854
0.000319869
0.000300485
0.000279926
0.000258357
0.000235972
0.000212965
0.000189539
0.000165874
0.000142187
0.000118657
9.54485e-05
7.2662e-05
5.04087e-05
2.87804e-05
7.84847e-06
-1.23327e-05
-3.17306e-05
-5.03137e-05
-6.80599e-05
-8.49647e-05
-0.000101038
-0.0001163
-0.000130766
-0.000144472
-0.000157419
-0.000169702
0.000341022
0.000344237
0.000347799
0.000351645
0.000355802
0.000360255
0.000364998
0.000370012
0.000375276
0.000380756
0.000386411
0.00039219
0.00039803
0.000403858
0.000409585
0.000415116
0.000420332
0.000425105
0.000429289
0.000432734
0.000435294
0.000436838
0.000437186
0.000436213
0.000433793
0.000429787
0.000424216
0.000416819
0.00040747
0.000396144
0.000382695
0.000367369
0.000350299
0.000331628
0.000311482
0.000290071
0.00026759
0.000244246
0.000220243
0.000195803
0.000171128
0.000146426
0.000121869
9.76148e-05
7.37992e-05
5.05395e-05
2.79348e-05
6.06071e-06
-1.50249e-05
-3.52815e-05
-5.46808e-05
-7.32068e-05
-9.08588e-05
-0.000107646
-0.000123587
-0.000138699
-0.000153017
-0.000166541