/*--------------------------------*- C++ -*----------------------------------*\
| =========                 |                                                 |
| \\      /  F ield         | OpenFOAM: The Open Source CFD Toolbox           |
|  \\    /   O peration     | Version:  2312                                  |
|   \\  /    A nd           | Website:  www.openfoam.com                      |
|    \\/     M anipulation  |                                                 |
\*---------------------------------------------------------------------------*/
FoamFile
{
    version     2.0;
    format      ascii;
    arch        "LSB;label=32;scalar=64";
    class       surfaceScalarField;
    location    "600";
    object      phi;
}
// * * * * * * * * * * * * * * * * * * * * * * * * * * * * * * * * * * * * * //

dimensions      [0 3 -1 0 0 0 0];

oriented        oriented;

internalField   nonuniform List<scalar> 
116611
(
0.00131327
0.000432266
-0.00129728
-0.000448256
0.00132917
0.000429169
-0.000445068
0.00134472
0.00042574
-0.000441289
0.00135994
0.000421945
-0.000437163
0.00137503
0.000417848
-0.00043294
0.00139007
0.000413351
-0.000428392
0.00140479
0.000408593
-0.000423316
0.00141977
0.000403554
-0.000418527
0.00143425
0.000398159
-0.000412641
0.00144861
0.000392413
-0.000406778
0.0014627
0.000386268
-0.000400358
0.00147665
0.000379761
-0.00039371
0.00149028
0.000372858
-0.000386483
0.00150352
0.000365519
-0.000378761
0.00151624
0.000357731
-0.000370453
0.0015286
0.000349569
-0.000361927
0.00154061
0.000340832
-0.000352843
0.00155237
0.000331846
-0.000343607
0.00156357
0.00032217
-0.00033337
0.00157433
0.000312198
-0.000322959
0.00158474
0.00030158
-0.000311994
0.00159455
0.000290543
-0.000300351
0.00160374
0.000278904
-0.000288088
0.00161243
0.000266815
-0.000275512
0.00162054
0.000254187
-0.00026229
0.00162844
0.000241044
-0.00024895
0.00163574
0.000227222
-0.000234515
0.00164218
0.000212912
-0.000219355
0.00164866
0.000198119
-0.000204599
0.00165405
0.000182798
-0.000188185
0.00165931
0.000167083
-0.000172349
0.00166432
0.000150545
-0.000155553
0.00166855
0.00013339
-0.000137617
0.00167223
0.000115781
-0.000119468
0.00167533
9.74634e-05
-0.000100555
0.00167767
7.87117e-05
-8.10556e-05
0.00168002
5.93893e-05
-6.17432e-05
0.00168151
3.95018e-05
-4.0987e-05
0.00168256
1.89922e-05
-2.00452e-05
0.00168279
-2.291e-06
2.06084e-06
0.0016824
-2.39587e-05
2.43515e-05
0.00168206
-4.61846e-05
4.65192e-05
0.00168094
-6.90799e-05
7.02069e-05
0.0016791
-9.25459e-05
9.43836e-05
0.0016765
-0.000116587
0.000119188
0.00167361
-0.000141009
0.000143899
0.00167025
-0.000166035
0.00016939
0.00166566
-0.000191711
0.000196305
0.00166072
-0.000217639
0.000222579
0.00165519
-0.000243955
0.000249486
0.00164883
-0.000270749
0.000277106
0.00164214
-0.000297774
0.000304461
0.00163495
-0.000325229
0.000332422
0.00162687
-0.000353183
0.000361266
0.00161733
-0.000381424
0.000390958
0.00160789
-0.000409482
0.000418928
0.00159703
-0.000438001
0.000448862
0.00158581
-0.000466453
0.000477668
0.0015739
-0.000494842
0.000506759
0.00156139
-0.000522865
0.000535374
0.00154836
-0.000550847
0.000563874
0.00153505
-0.00057899
0.000592298
0.00152103
-0.000606547
0.000620568
0.00150641
-0.000633816
0.000648432
0.00149112
-0.000660544
0.000675841
0.00147579
-0.000686483
0.00070181
0.00146085
-0.000711848
0.000726789
0.00144615
-0.000736545
0.000751246
-0.000762023
0.00143028
0.000777893
0.0012994
0.000416414
-0.00128355
0.00131517
0.000413403
0.00133079
0.000410123
0.00134618
0.000406553
0.0013614
0.000402632
0.00137632
0.000398422
0.00139105
0.000393867
0.00140563
0.000388969
0.00142004
0.000383756
0.00143426
0.000378187
0.00144827
0.000372261
0.00146207
0.000365966
0.00147564
0.000359284
0.00148895
0.000352212
0.00150189
0.000344786
0.00151454
0.000336918
0.00152674
0.000328634
0.00153868
0.0003199
0.00155013
0.00031072
0.00156127
0.000301058
0.00157194
0.000290914
0.00158219
0.000280294
0.00159192
0.000269172
0.00160118
0.000257555
0.00160995
0.000245423
0.00161826
0.000232727
0.00162597
0.000219517
0.00163311
0.000205765
0.00163977
0.000191467
0.00164587
0.000176697
0.0016516
0.000161349
0.00165678
0.000145364
0.00166134
0.000128829
0.0016654
0.000111728
0.00166882
9.40422e-05
0.00167174
7.57929e-05
0.00167415
5.69758e-05
0.00167603
3.76203e-05
0.00167739
1.76401e-05
0.00167806
-2.96688e-06
0.00167823
-2.41227e-05
0.00167785
-4.58119e-05
0.00167682
-6.80473e-05
0.00167514
-9.08697e-05
0.0016728
-0.000114239
0.00166989
-0.000138103
0.00166632
-0.000162464
0.00166196
-0.000187358
0.00165701
-0.000212684
0.00165144
-0.000238384
0.00164518
-0.00026449
0.00163836
-0.000290949
0.00163088
-0.000317756
0.00162262
-0.000344922
0.00161359
-0.000372386
0.00160407
-0.000399968
0.00159377
-0.000427699
0.00158283
-0.000455516
0.00157126
-0.000483269
0.00155929
-0.000510902
0.00154689
-0.000538439
0.00153381
-0.000565918
0.00152032
-0.000593056
0.00150637
-0.000619866
0.0014921
-0.000646265
0.0014777
-0.000672086
0.00146316
-0.000697308
0.0014485
-0.000721886
-0.000746776
0.00143325
0.00128684
0.000400952
-0.00127138
0.00130228
0.000397962
0.00131769
0.000394716
0.00133302
0.000391226
0.00134818
0.000387466
0.00136318
0.000383425
0.00137797
0.00037908
0.00139253
0.000374406
0.00140689
0.000369399
0.00142103
0.000364047
0.00143495
0.000358344
0.00144863
0.000352283
0.00146206
0.000345853
0.00147523
0.000339044
0.00148816
0.000331858
0.00150079
0.000324282
0.00151312
0.000316305
0.00152511
0.000307908
0.00153675
0.00029908
0.00154801
0.0002898
0.00155887
0.000280061
0.00156931
0.00026985
0.00157932
0.000259158
0.0015889
0.000247976
0.00159803
0.000236298
0.00160665
0.000224109
0.00161476
0.000211401
0.00162236
0.000198167
0.00162942
0.000184405
0.00163601
0.000170112
0.00164209
0.000155268
0.00164759
0.000139859
0.00165254
0.000123881
0.00165693
0.000107337
0.00166075
9.02249e-05
0.001664
7.25423e-05
0.00166668
5.42943e-05
0.00166882
3.54773e-05
0.00167039
1.60701e-05
0.00167136
-3.92957e-06
0.00167172
-2.44888e-05
0.00167149
-4.5583e-05
0.00167067
-6.72199e-05
0.00166921
-8.94136e-05
0.00166711
-0.00011214
0.00166438
-0.000135373
0.00166101
-0.000159098
0.00165697
-0.000183315
0.00165227
-0.000207981
0.00164693
-0.000233046
0.00164094
-0.000258504
0.00163433
-0.000284332
0.00162707
-0.000310502
0.00161915
-0.000336999
0.00161054
-0.000363775
0.00160131
-0.000390736
0.00159144
-0.000417833
0.00158096
-0.000445031
0.00156993
-0.000472239
0.00155842
-0.000499393
0.00154644
-0.000526463
0.00153396
-0.000553434
0.00152108
-0.000580181
0.00150784
-0.000606628
0.00149429
-0.000632709
0.00148052
-0.00065832
0.00146663
-0.000683414
0.00145261
-0.000707872
-0.000732503
0.00143834
0.00127564
0.000385686
-0.00126037
0.00129082
0.000382784
0.00130593
0.000379605
0.00132098
0.000376175
0.00133595
0.000372497
0.00135081
0.00036856
0.00136554
0.000364355
0.00138008
0.00035986
0.00139443
0.000355056
0.00140855
0.000349927
0.00142243
0.00034446
0.00143607
0.000338646
0.00144944
0.000332475
0.00146255
0.000325936
0.00147539
0.00031902
0.00148795
0.000311724
0.00150022
0.000304035
0.00151218
0.000295946
0.00152382
0.000287441
0.00153511
0.000278511
0.00154603
0.00026914
0.00155656
0.000259317
0.00156669
0.00024903
0.00157639
0.000238271
0.00158566
0.00022703
0.00159447
0.000215297
0.00160282
0.00020306
0.00161067
0.000190312
0.00161803
0.000177047
0.00162489
0.000163255
0.00163123
0.000148929
0.00163703
0.000134056
0.00164228
0.000118627
0.00164698
0.00010264
0.00165111
8.6092e-05
0.00165467
6.898e-05
0.00165767
5.13019e-05
0.00166009
3.30546e-05
0.00166193
1.42325e-05
0.00166317
-5.16883e-06
0.0016638
-2.5123e-05
0.00166383
-4.56166e-05
0.00166326
-6.66467e-05
0.00166206
-8.82128e-05
0.00166022
-0.000110302
0.00165775
-0.000132898
0.00165463
-0.000155983
0.00165086
-0.000179545
0.00164644
-0.000203557
0.00164138
-0.000227985
0.00163568
-0.00025281
0.00162936
-0.000278009
0.00162241
-0.000303555
0.00161483
-0.000329418
0.00160661
-0.000355556
0.00159779
-0.000381911
0.00158838
-0.000408427
0.00157841
-0.000435062
0.00156793
-0.000461751
0.00155697
-0.000488436
0.00154558
-0.000515071
0.00153376
-0.000541617
0.00152157
-0.000567993
0.00150906
-0.00059412
0.00149628
-0.00061993
0.00148331
-0.000645345
0.0014702
-0.000670302
0.00145692
-0.000694596
-0.000718917
0.00144334
0.0012651
0.000370302
-0.00124971
0.00128029
0.000367591
0.00129532
0.000364578
0.0013102
0.000361288
0.00132497
0.000357731
0.00133962
0.000353909
0.00135415
0.000349821
0.00136855
0.000345462
0.00138279
0.000340818
0.00139684
0.000335876
0.00141068
0.000330622
0.00142428
0.000325041
0.00143764
0.000319121
0.00145072
0.000312849
0.00146353
0.000306215
0.00147605
0.000299208
0.00148826
0.000291818
0.00150017
0.000284037
0.00151176
0.000275853
0.00152302
0.000267256
0.00153392
0.000258236
0.00154445
0.000248781
0.0015546
0.000238881
0.00156435
0.000228525
0.00157368
0.000217703
0.00158257
0.000206403
0.00159101
0.000194616
0.00159899
0.000182333
0.00160649
0.000169544
0.00161351
0.000156242
0.00162002
0.000142418
0.00162601
0.000128061
0.00163148
0.000113163
0.0016364
9.7718e-05
0.00164077
8.17221e-05
0.00164458
6.51705e-05
0.00164782
4.80597e-05
0.00165049
3.03862e-05
0.00165258
1.21461e-05
0.00165407
-6.66481e-06
0.00165497
-2.60179e-05
0.00165526
-4.59073e-05
0.00165494
-6.63267e-05
0.001654
-8.72724e-05
0.00165243
-0.000108735
0.00165023
-0.000130701
0.0016474
-0.000153156
0.00164394
-0.000176083
0.00163985
-0.000199462
0.00163513
-0.000223269
0.0016298
-0.000247478
0.00162386
-0.000272068
0.00161731
-0.00029701
0.00161017
-0.000322272
0.00160243
-0.000347818
0.00159412
-0.000373601
0.00158527
-0.000399572
0.00157589
-0.000425685
0.00156602
-0.000451888
0.00155572
-0.000478127
0.001545
-0.000504352
0.00153389
-0.000530514
0.00152245
-0.000556548
0.00151071
-0.000582381
0.00149873
-0.000607947
0.00148655
-0.000633169
0.00147424
-0.000657994
0.00146184
-0.000682196
-0.000706638
0.00144956
0.00125462
0.000354701
-0.00123902
0.00127001
0.0003522
0.00128519
0.000349401
0.00130016
0.000346322
0.00131492
0.000342963
0.00132951
0.000339325
0.00134392
0.000335408
0.00135817
0.00033121
0.00137226
0.000326731
0.00138617
0.000321962
0.0013999
0.000316897
0.00141342
0.000311524
0.00142671
0.000305832
0.00143975
0.000299807
0.00145252
0.000293439
0.00146502
0.000286714
0.00147721
0.000279623
0.0014891
0.000272152
0.00150066
0.000264292
0.00151188
0.000256032
0.00152276
0.00024736
0.00153327
0.000238268
0.00154341
0.000228745
0.00155315
0.00021878
0.00156249
0.000208363
0.00157141
0.000197483
0.0015799
0.000186131
0.00158794
0.000174297
0.00159551
0.000161971
0.00160261
0.000149144
0.00160922
0.000135807
0.00161533
0.000121951
0.00162093
0.000107567
0.001626
9.26484e-05
0.00163053
7.71895e-05
0.00163451
6.11849e-05
0.00163794
4.46295e-05
0.00164081
2.75191e-05
0.00164311
9.84981e-06
0.00164483
-8.38279e-06
0.00164595
-2.71459e-05
0.00164649
-4.64412e-05
0.00164642
-6.62615e-05
0.00164575
-8.66027e-05
0.00164447
-0.000107456
0.00164258
-0.000128811
0.00164008
-0.000150654
0.00163697
-0.00017297
0.00163325
-0.000195741
0.00162893
-0.000218945
0.00162401
-0.00024256
0.0016185
-0.000266562
0.00161242
-0.000290924
0.00160576
-0.000315617
0.00159855
-0.000340604
0.00159079
-0.000365847
0.00158252
-0.000391303
0.00157376
-0.000416926
0.00156454
-0.000442669
0.0015549
-0.000468484
0.00154487
-0.000494319
0.00153448
-0.000520123
0.00152377
-0.000545837
0.00151278
-0.000571395
0.00150156
-0.000596729
0.00149016
-0.000621767
0.00147862
-0.000646456
0.00146701
-0.00067058
-0.000695051
0.00145542
0.00124424
0.000339006
-0.00122855
0.00125978
0.00033666
0.00127514
0.000334045
0.00129029
0.000331172
0.00130522
0.000328033
0.00131993
0.00032462
0.00133441
0.000320926
0.00134867
0.000316948
0.00136272
0.00031268
0.00137656
0.00030812
0.00139019
0.000303264
0.00140361
0.000298105
0.00141681
0.000292636
0.00142977
0.000286847
0.00144248
0.00028073
0.00145492
0.000274274
0.00146708
0.000267466
0.00147893
0.000260297
0.00149047
0.000252753
0.00150168
0.000244824
0.00151254
0.000236498
0.00152304
0.000227766
0.00153317
0.000218615
0.00154292
0.000209036
0.00155226
0.000199018
0.00156119
0.00018855
0.0015697
0.000177624
0.00157777
0.000166228
0.00158539
0.000154353
0.00159254
0.00014199
0.00159922
0.000129129
0.00160541
0.000115761
0.0016111
0.000101877
0.00161627
8.74706e-05
0.00162093
7.25336e-05
0.00162505
5.70603e-05
0.00162864
4.10447e-05
0.00163168
2.44822e-05
0.00163416
7.36825e-06
0.00163608
-1.03008e-05
0.00163742
-2.84903e-05
0.00163819
-4.72079e-05
0.00163837
-6.64465e-05
0.00163797
-8.62018e-05
0.00163698
-0.000106466
0.0016354
-0.000127231
0.00163323
-0.000148484
0.00163047
-0.000170211
0.00162713
-0.000192396
0.0016232
-0.00021502
0.0016187
-0.000238063
0.00161364
-0.000261501
0.00160803
-0.000285309
0.00160187
-0.000309459
0.00159518
-0.000333918
0.00158799
-0.00035865
0.0015803
-0.000383616
0.00157215
-0.000408775
0.00156356
-0.000434083
0.00155457
-0.000459493
0.00154521
-0.000484956
0.00153551
-0.000510422
0.0015255
-0.000535834
0.00151524
-0.00056113
0.00150475
-0.000586243
0.00149409
-0.000611104
0.00148329
-0.000635653
0.00147238
-0.000659676
-0.000683959
0.00146129
0.00123437
0.000323355
-0.00121872
0.00124991
0.000321119
0.00126532
0.000318637
0.00128057
0.000315921
0.00129564
0.000312965
0.0013105
0.000309758
0.00132514
0.000306289
0.00133954
0.000302546
0.0013537
0.000298522
0.00136761
0.000294208
0.00138128
0.000289598
0.00139469
0.000284686
0.00140786
0.000279466
0.00142078
0.000273931
0.00143344
0.000268074
0.00144582
0.000261887
0.00145793
0.000255361
0.00146974
0.000248485
0.00148124
0.000241249
0.00149243
0.000233643
0.00150327
0.000225655
0.00151376
0.000217273
0.00152389
0.000208489
0.00153363
0.000199289
0.00154299
0.000189664
0.00155194
0.000179603
0.00156046
0.000169095
0.00156856
0.00015813
0.00157622
0.000146698
0.00158342
0.00013479
0.00159015
0.000122395
0.00159641
0.000109504
0.00160218
9.61086e-05
0.00160745
8.22003e-05
0.00161221
6.77715e-05
0.00161646
5.2815e-05
0.00162018
3.73247e-05
0.00162336
2.12948e-05
0.00162601
4.72044e-06
0.00162811
-1.23997e-05
0.00162965
-3.00332e-05
0.00163064
-4.81907e-05
0.00163106
-6.68658e-05
0.00163091
-8.60547e-05
0.00163019
-0.000105751
0.00162891
-0.000125946
0.00162706
-0.000146631
0.00162464
-0.000167792
0.00162166
-0.000189416
0.00161812
-0.000211484
0.00161404
-0.000233978
0.00160941
-0.000256876
0.00160426
-0.000280155
0.00159858
-0.000303787
0.00159241
-0.000327742
0.00158575
-0.000351989
0.00157862
-0.000376489
0.00157105
-0.000401206
0.00156307
-0.000426099
0.0015547
-0.000451122
0.00154597
-0.00047623
0.00153692
-0.000501374
0.00152759
-0.000526499
0.001518
-0.000551546
0.00150821
-0.000576453
0.00149826
-0.000601144
0.00148817
-0.000625571
0.00147796
-0.000649467
-0.000673816
0.00146782
0.00122532
0.000307796
-0.00120976
0.00124078
0.000305659
0.00125613
0.000303286
0.00127136
0.000300694
0.00128644
0.000297883
0.00130136
0.000294841
0.00131609
0.00029156
0.00133061
0.000288027
0.0013449
0.000284231
0.00135894
0.000280162
0.00137273
0.000275808
0.00138626
0.000271162
0.00139951
0.000266215
0.00141248
0.000260958
0.00142517
0.000255385
0.00143757
0.000249487
0.00144968
0.000243256
0.00146148
0.000236684
0.00147296
0.000229761
0.00148413
0.000222478
0.00149496
0.000214825
0.00150544
0.000206792
0.00151556
0.000198368
0.00152531
0.000189542
0.00153467
0.000180303
0.00154363
0.000170641
0.00155218
0.000160544
0.00156031
0.000150003
0.001568
0.000139007
0.00157525
0.000127545
0.00158203
0.000115607
0.00158835
0.000103184
0.0015942
9.02666e-05
0.00159955
7.68457e-05
0.00160441
6.2913e-05
0.00160876
4.84609e-05
0.00161261
3.34824e-05
0.00161593
1.7971e-05
0.00161873
1.92119e-06
0.00162099
-1.4664e-05
0.00162272
-3.1759e-05
0.0016239
-4.93738e-05
0.00162454
-6.75037e-05
0.00162463
-8.61452e-05
0.00162417
-0.000105293
0.00162317
-0.000124941
0.00162161
-0.000145079
0.00161952
-0.000165697
0.00161688
-0.000186781
0.00161372
-0.000208316
0.00161002
-0.000230284
0.00160581
-0.000252665
0.00160109
-0.000275437
0.00159588
-0.000298574
0.00159019
-0.000322049
0.00158403
-0.000345831
0.00157743
-0.000369888
0.00157041
-0.000394183
0.00156299
-0.000418678
0.00155519
-0.000443332
0.00154706
-0.0004681
0.00153863
-0.000492936
0.00152992
-0.000517789
0.00152098
-0.000542604
0.00151184
-0.000567322
0.00150257
-0.000591867
0.00149321
-0.000616216
0.00148373
-0.000639981
-0.000664302
0.00147421
0.00121719
0.000292309
-0.00120171
0.00123257
0.000290279
0.00124784
0.000288018
0.00126299
0.000285547
0.00127801
0.000282866
0.00129288
0.000279968
0.00130759
0.000276847
0.00132213
0.000273492
0.00133647
0.000269893
0.00135059
0.000266041
0.00136447
0.000261923
0.0013781
0.00025753
0.00139147
0.00025285
0.00140455
0.000247875
0.00141734
0.000242593
0.00142983
0.000236997
0.00144201
0.000231076
0.00145387
0.000224822
0.00146541
0.000218226
0.00147661
0.000211278
0.00148747
0.000203969
0.00149797
0.000196289
0.00150811
0.000188229
0.00151787
0.000179777
0.00152725
0.000170923
0.00153624
0.000161658
0.00154481
0.000151969
0.00155297
0.000141846
0.0015607
0.000131279
0.00156798
0.000120257
0.00157482
0.000108769
0.0015812
9.68057e-05
0.00158711
8.43571e-05
0.00159254
7.14138e-05
0.00159749
5.79667e-05
0.00160194
4.40076e-05
0.0016059
2.95287e-05
0.00160934
1.4523e-05
0.00161228
-1.01585e-06
0.0016147
-1.70796e-05
0.00161659
-3.3652e-05
0.00161796
-5.07404e-05
0.00161879
-6.83422e-05
0.0016191
-8.64547e-05
0.00161888
-0.000105074
0.00161814
-0.000124193
0.00161686
-0.000143805
0.00161507
-0.000163901
0.00161275
-0.000184467
0.00160993
-0.00020549
0.00160659
-0.000226953
0.00160277
-0.000248838
0.00159845
-0.000271124
0.00159367
-0.000293788
0.00158842
-0.000316803
0.00158273
-0.000340142
0.00157662
-0.000363773
0.0015701
-0.000387665
0.0015632
-0.00041178
0.00155595
-0.00043608
0.00154837
-0.000460525
0.00154051
-0.000485069
0.00153238
-0.000509667
0.00152405
-0.000534265
0.00151554
-0.000558811
0.00150691
-0.000583238
0.00149823
-0.000607539
0.00148959
-0.000631341
-0.000656045
0.00148133
0.00120995
0.00027686
-0.0011945
0.00122528
0.000274945
0.00124049
0.000272805
0.00125558
0.000270462
0.00127053
0.000267918
0.00128533
0.000265165
0.00129998
0.000262199
0.00131446
0.00025901
0.00132876
0.000255592
0.00134287
0.000251934
0.00135676
0.000248029
0.00137043
0.000243864
0.00138385
0.000239431
0.001397
0.000234719
0.00140988
0.000229716
0.00142246
0.000224414
0.00143474
0.0002188
0.00144669
0.000212866
0.00145832
0.000206601
0.0014696
0.000199994
0.00148053
0.000193037
0.0014911
0.000185718
0.0015013
0.000178028
0.00151112
0.000169957
0.00152055
0.000161493
0.00152959
0.000152626
0.00153821
0.000143346
0.00154641
0.000133642
0.00155419
0.000123503
0.00156153
0.000112918
0.00156842
0.000101876
0.00157486
9.03671e-05
0.00158084
7.83812e-05
0.00158634
6.5908e-05
0.00159137
5.29383e-05
0.00159591
3.9463e-05
0.00159997
2.54736e-05
0.00160353
1.09626e-05
0.00160659
-4.07731e-06
0.00160914
-1.96317e-05
0.00161119
-3.56954e-05
0.00161272
-5.22719e-05
0.00161374
-6.93614e-05
0.00161424
-8.69615e-05
0.00161424
-0.000105069
0.00161372
-0.000123679
0.0016127
-0.000142784
0.00161118
-0.000162376
0.00160915
-0.000182444
0.00160664
-0.000202974
0.00160364
-0.000223953
0.00160016
-0.000245362
0.00159622
-0.000267182
0.00159183
-0.000289392
0.00158699
-0.000311967
0.00158173
-0.000334881
0.00157606
-0.000358107
0.00157001
-0.000381613
0.0015636
-0.000405366
0.00155685
-0.000429331
0.00154979
-0.00045347
0.00154246
-0.000477741
0.0015349
-0.000502102
0.00152714
-0.000526504
0.00151922
-0.000550896
0.00151121
-0.000575222
0.00150314
-0.000599469
0.00149515
-0.000623358
-0.000648602
0.00148771
0.00120352
0.00026142
-0.00118808
0.00121883
0.000259626
0.00123403
0.000257613
0.00124908
0.000255407
0.00126399
0.000253006
0.00127875
0.000250407
0.00129335
0.000247602
0.00130777
0.000244584
0.00132202
0.000241346
0.00133607
0.00023788
0.00134992
0.000234178
0.00136356
0.000230231
0.00137696
0.000226029
0.00139012
0.000221562
0.00140301
0.000216822
0.00141563
0.000211796
0.00142795
0.000206476
0.00143997
0.000200849
0.00145167
0.000194906
0.00146302
0.000188635
0.00147404
0.000182026
0.00148469
0.000175067
0.00149497
0.000167749
0.00150487
0.000160059
0.00151437
0.000151987
0.00152347
0.000143523
0.00153217
0.000134654
0.00154044
0.00012537
0.00154828
0.00011566
0.00155569
0.000105512
0.00156265
9.49152e-05
0.00156916
8.38593e-05
0.0015752
7.23331e-05
0.00158079
6.03262e-05
0.0015859
4.78286e-05
0.00159053
3.48308e-05
0.00159468
2.13236e-05
0.00159834
7.29872e-06
0.00160152
-7.25161e-06
0.00160419
-2.23064e-05
0.00160637
-3.78725e-05
0.00160805
-5.39499e-05
0.00160923
-7.05408e-05
0.00160991
-8.76433e-05
0.00161009
-0.000105255
0.00160979
-0.000123371
0.00160899
-0.000141987
0.00160771
-0.000161094
0.00160595
-0.000180682
0.00160371
-0.000200739
0.00160101
-0.000221253
0.00159785
-0.000242205
0.00159425
-0.000263579
0.00159021
-0.000285354
0.00158576
-0.000307509
0.00158089
-0.000330019
0.00157564
-0.000352858
0.00157003
-0.000375999
0.00156407
-0.00039941
0.0015578
-0.00042306
0.00155125
-0.000446914
0.00154444
-0.000470935
0.00153742
-0.000495082
0.00153023
-0.000519313
0.00152291
-0.000543576
0.00151551
-0.000567817
0.00150803
-0.000591991
0.00150047
-0.000615803
-0.000640713
0.00149258
0.00119786
0.000245967
-0.0011824
0.00121318
0.000244298
0.00122838
0.000242417
0.00124344
0.000240351
0.00125834
0.0002381
0.00127309
0.00023566
0.00128767
0.000233023
0.00130207
0.000230183
0.00131628
0.000227132
0.0013303
0.000223864
0.00134411
0.000220369
0.0013577
0.000216639
0.00137106
0.000212667
0.00138418
0.000208442
0.00139705
0.000203955
0.00140965
0.000199198
0.00142197
0.000194159
0.00143399
0.000188828
0.0014457
0.000183195
0.00145708
0.000177248
0.00146813
0.000170977
0.00147883
0.00016437
0.00148916
0.000157416
0.00149912
0.000150103
0.00150868
0.00014242
0.00151785
0.000134355
0.00152661
0.000125896
0.00153495
0.000117031
0.00154286
0.000107749
0.00155033
9.80376e-05
0.00155736
8.78856e-05
0.00156394
7.72812e-05
0.00157006
6.6213e-05
0.00157572
5.46699e-05
0.00158091
4.26411e-05
0.00158562
3.01165e-05
0.00158986
1.70861e-05
0.00159362
3.54081e-06
0.00159689
-1.05251e-05
0.00159967
-2.50896e-05
0.00160197
-4.0167e-05
0.00160377
-5.57568e-05
0.00160509
-7.18613e-05
0.00160593
-8.84798e-05
0.00160629
-0.00010561
0.00160616
-0.000123249
0.00160557
-0.000141392
0.00160451
-0.000160031
0.00160298
-0.000179158
0.001601
-0.000198761
0.00159858
-0.000218829
0.00159572
-0.000239345
0.00159243
-0.000260293
0.00158873
-0.000281655
0.00158463
-0.00030341
0.00158015
-0.000325537
0.00157531
-0.000348011
0.00157011
-0.000370808
0.0015646
-0.0003939
0.0015588
-0.000417257
0.00155274
-0.00044085
0.00154645
-0.000464645
0.00153997
-0.000488604
0.00153335
-0.000512691
0.00152663
-0.000536858
0.00151987
-0.000561057
0.00151312
-0.000585244
0.0015064
-0.000609083
-0.000634082
0.00149977
0.00119295
0.000230484
-0.00117746
0.0012083
0.000228944
0.00122352
0.000227198
0.0012386
0.000225275
0.00125352
0.000223178
0.00126828
0.0002209
0.00128287
0.000218435
0.00129727
0.000215777
0.00131149
0.000212919
0.0013255
0.000209853
0.00133929
0.000206571
0.00135287
0.000203065
0.00136621
0.000199327
0.0013793
0.000195347
0.00139214
0.000191117
0.00140471
0.000186628
0.001417
0.000181869
0.001429
0.000176831
0.00144069
0.000171503
0.00145206
0.000165875
0.00146311
0.000159935
0.0014738
0.000153673
0.00148414
0.000147076
0.00149411
0.000140133
0.0015037
0.000132831
0.0015129
0.00012516
0.00152169
0.000117105
0.00153006
0.000108655
0.00153802
9.97973e-05
0.00154553
9.05193e-05
0.00155261
8.08087e-05
0.00155924
7.06528e-05
0.00156541
6.00396e-05
0.00157113
4.8957e-05
0.00157637
3.73935e-05
0.00158115
2.53377e-05
0.00158546
1.27789e-05
0.00158929
-2.92966e-07
0.00159265
-1.38777e-05
0.00159552
-2.79623e-05
0.00159791
-4.25604e-05
0.00159983
-5.76735e-05
0.00160127
-7.33039e-05
0.00160224
-8.94517e-05
0.00160275
-0.000106116
0.00160279
-0.000123294
0.00160238
-0.000140981
0.00160152
-0.00015917
0.00160022
-0.000177855
0.00159848
-0.000197024
0.00159632
-0.000216666
0.00159374
-0.000236767
0.00159076
-0.000257312
0.00158739
-0.000278282
0.00158364
-0.000299661
0.00157953
-0.000321427
0.00157508
-0.00034356
0.00157031
-0.000366036
0.00156524
-0.000388831
0.0015599
-0.00041192
0.00155432
-0.000435274
0.00154855
-0.000458866
0.0015426
-0.000482662
0.00153654
-0.000506632
0.00153042
-0.000530732
0.00152429
-0.000554929
0.00151821
-0.000579164
0.00151247
-0.000603343
-0.000628126
0.00150651
0.00118881
0.000214971
-0.0011733
0.0012042
0.000213558
0.00121945
0.000211947
0.00123456
0.000210169
0.00124951
0.000208225
0.0012643
0.000206111
0.00127891
0.000203821
0.00129334
0.000201348
0.00130757
0.000198684
0.0013216
0.000195824
0.00133542
0.000192759
0.001349
0.000189481
0.00136234
0.000185981
0.00137544
0.000182252
0.00138827
0.000178283
0.00140084
0.000174066
0.00141311
0.000169592
0.00142509
0.000164849
0.00143677
0.000159829
0.00144812
0.00015452
0.00145915
0.000148912
0.00146983
0.000142993
0.00148015
0.000136752
0.00149011
0.000130176
0.00149969
0.000123253
0.00150888
0.000115971
0.00151766
0.000108317
0.00152604
0.000100278
0.001534
9.18412e-05
0.00154152
8.29929e-05
0.00154861
7.37198e-05
0.00155526
6.40088e-05
0.00156145
5.38466e-05
0.00156718
4.32204e-05
0.00157246
3.21174e-05
0.00157727
2.05254e-05
0.00158162
8.43247e-06
0.0015855
-4.17253e-06
0.0015889
-1.72815e-05
0.00159184
-3.08965e-05
0.0015943
-4.50261e-05
0.0015963
-5.96744e-05
0.00159784
-7.48439e-05
0.00159893
-9.0536e-05
0.00159956
-0.00010675
0.00159975
-0.000123484
0.00159951
-0.000140734
0.00159883
-0.000158494
0.00159773
-0.000176758
0.00159622
-0.000195515
0.00159431
-0.000214754
0.00159201
-0.000234463
0.00158932
-0.000254626
0.00158627
-0.000275229
0.00158286
-0.000296255
0.00157912
-0.000317684
0.00157505
-0.000339497
0.00157069
-0.000361675
0.00156606
-0.000384195
0.00156117
-0.000407035
0.00155607
-0.000430172
0.00155078
-0.000453581
0.00154536
-0.000477236
0.00153984
-0.000501111
0.00153428
-0.000525173
0.00152873
-0.00054938
0.00152329
-0.000573721
0.00151782
-0.000597876
-0.000623363
0.00151306
0.00118553
0.000199438
-0.00116999
0.00120094
0.000198147
0.00121622
0.000196667
0.00123136
0.000195031
0.00124634
0.00019324
0.00126116
0.000191289
0.00127581
0.000189173
0.00129027
0.000186885
0.00130454
0.000184418
0.0013186
0.000181765
0.00133244
0.000178918
0.00134605
0.00017587
0.00135942
0.000172611
0.00137254
0.000169135
0.00138539
0.000165431
0.00139797
0.00016149
0.00141025
0.000157304
0.00142224
0.000152862
0.00143392
0.000148153
0.00144527
0.000143168
0.00145629
0.000137895
0.00146696
0.000132323
0.00147727
0.00012644
0.00148721
0.000120233
0.00149677
0.000113691
0.00150594
0.000106801
0.00151471
9.95483e-05
0.00152307
9.19206e-05
0.001531
8.39039e-05
0.00153851
7.54842e-05
0.00154559
6.66473e-05
0.00155222
5.73792e-05
0.0015584
4.76657e-05
0.00156412
3.74927e-05
0.00156939
2.68464e-05
0.00157421
1.57134e-05
0.00157856
4.08055e-06
0.00158245
-8.06262e-06
0.00158587
-2.07044e-05
0.00158883
-3.38589e-05
0.00159134
-4.7531e-05
0.00159339
-6.1727e-05
0.001595
-7.645e-05
0.00159616
-9.17021e-05
0.0015969
-0.000107483
0.00159721
-0.000123792
0.0015971
-0.000140626
0.00159658
-0.000157978
0.00159567
-0.000175843
0.00159436
-0.000194211
0.00159268
-0.000213071
0.00159063
-0.000232412
0.00158822
-0.000252219
0.00158547
-0.000272478
0.00158239
-0.000293173
0.00157899
-0.000314288
0.0015753
-0.000335804
0.00157133
-0.000357704
0.0015671
-0.000379968
0.00156264
-0.000402577
0.00155799
-0.000425514
0.00155316
-0.000448757
0.00154821
-0.000472288
0.00154319
-0.000496087
0.00153815
-0.000520129
0.00153314
-0.000544377
0.00152827
-0.000568851
0.00152349
-0.000593093
-0.000619008
0.00151914
0.00118322
0.000183898
-0.00116768
0.00119864
0.000182725
0.00121393
0.000181372
0.00122909
0.000179872
0.0012441
0.00017823
0.00125895
0.000176439
0.00127363
0.000174495
0.00128813
0.00017239
0.00130243
0.000170117
0.00131652
0.000167671
0.0013304
0.000165043
0.00134404
0.000162224
0.00135744
0.000159209
0.00137059
0.000155986
0.00138347
0.000152549
0.00139608
0.000148887
0.00140839
0.000144992
0.0014204
0.000140853
0.00143209
0.00013646
0.00144346
0.000131803
0.00145448
0.00012687
0.00146516
0.000121649
0.00147547
0.000116129
0.0014854
0.000110297
0.00149496
0.00010414
0.00150411
9.7645e-05
0.00151286
9.07983e-05
0.0015212
8.35858e-05
0.00152911
7.5993e-05
0.00153659
6.8005e-05
0.00154363
5.96068e-05
0.00155022
5.07834e-05
0.00155637
4.15195e-05
0.00156206
3.17997e-05
0.0015673
2.16091e-05
0.00157208
1.09328e-05
0.0015764
-2.43573e-07
0.00158027
-1.1926e-05
0.00158367
-2.41099e-05
0.00158663
-3.68117e-05
0.00158913
-5.00373e-05
0.0015912
-6.37936e-05
0.00159283
-7.80848e-05
0.00159404
-9.29135e-05
0.00159484
-0.00010828
0.00159523
-0.000124185
0.00159523
-0.000140623
0.00159484
-0.000157591
0.00159408
-0.000175081
0.00159296
-0.000193084
0.00159147
-0.00021159
0.00158965
-0.000230587
0.00158749
-0.000250062
0.00158502
-0.000270001
0.00158223
-0.00029039
0.00157915
-0.000311211
0.0015758
-0.000332451
0.00157219
-0.000354091
0.00156834
-0.000376117
0.00156427
-0.000398512
0.00156002
-0.000421262
0.00155561
-0.000444349
0.00155109
-0.000467761
0.00154648
-0.00049148
0.00154184
-0.000515494
0.00153725
-0.000539778
0.00153278
-0.000564385
0.00152866
-0.000588977
-0.000615442
0.0015251
0.00118201
0.000168363
-0.00116647
0.00119743
0.000167303
0.00121273
0.000166072
0.00122789
0.000164705
0.00124292
0.000163207
0.00125778
0.000161572
0.00127248
0.000159795
0.00128701
0.000157869
0.00130133
0.000155789
0.00131546
0.000153547
0.00132937
0.000151135
0.00134304
0.000148546
0.00135648
0.000145772
0.00136966
0.000142805
0.00138257
0.000139635
0.00139521
0.000136253
0.00140755
0.000132651
0.00141959
0.000128818
0.0014313
0.000124744
0.00144269
0.000120417
0.00145373
0.000115828
0.00146442
0.000110963
0.00147473
0.000105811
0.00148467
0.000100358
0.00149422
9.45927e-05
0.00150336
8.84995e-05
0.0015121
8.20648e-05
0.00152041
7.52736e-05
0.00152829
6.81107e-05
0.00153574
6.05604e-05
0.00154274
5.26066e-05
0.00154929
4.4233e-05
0.00155538