/*--------------------------------*- C++ -*----------------------------------*\
| =========                 |                                                 |
| \\      /  F ield         | OpenFOAM: The Open Source CFD Toolbox           |
|  \\    /   O peration     | Version:  2312                                  |
|   \\  /    A nd           | Website:  www.openfoam.com                      |
|    \\/     M anipulation  |                                                 |
\*---------------------------------------------------------------------------*/
FoamFile
{
    version     2.0;
    format      ascii;
    arch        "LSB;label=32;scalar=64";
    class       volVectorField;
    location    "600";
    object      U;
}
// * * * * * * * * * * * * * * * * * * * * * * * * * * * * * * * * * * * * * //

dimensions      [0 1 -1 0 0 0 0];

internalField   nonuniform List<vector> 
76025
(
(0.0422654 -0.0107553 0)
(0.0425486 -0.0107041 -8.57095e-22)
(0.0428281 -0.0106467 0)
(0.0431016 -0.0105815 0)
(0.0433789 -0.0105137 1.91326e-21)
(0.0436582 -0.0104169 4.04866e-21)
(0.0439444 -0.0103304 -7.22292e-21)
(0.0442363 -0.0102222 3.1341e-21)
(0.044528 -0.0101132 1.129e-21)
(0.0448184 -0.00999407 -1.16738e-21)
(0.0451094 -0.00986501 4.50996e-23)
(0.045402 -0.00972301 -3.70773e-21)
(0.0456978 -0.0095736 4.93558e-21)
(0.0459914 -0.00941099 0)
(0.0462756 -0.00922788 -1.36079e-21)
(0.0465584 -0.00904999 0)
(0.046834 -0.00884561 0)
(0.0471111 -0.00864084 0)
(0.0473843 -0.00841483 -1.46059e-21)
(0.0476494 -0.00818994 1.56186e-21)
(0.0479096 -0.00794338 1.60213e-21)
(0.0481658 -0.00768842 4.84245e-21)
(0.0484109 -0.0074235 -3.26434e-21)
(0.0486457 -0.0071449 -5.15172e-21)
(0.0488714 -0.00685888 -7.54347e-23)
(0.0490949 -0.00656586 -1.89068e-21)
(0.0493134 -0.00624411 5.49408e-21)
(0.0495242 -0.00592574 -5.5379e-21)
(0.0497283 -0.00558448 1.87986e-21)
(0.0499244 -0.00522226 -1.92483e-21)
(0.0501103 -0.00487462 -1.97659e-21)
(0.0502984 -0.00450952 4.14106e-21)
(0.0504769 -0.00411734 -6.28494e-21)
(0.0506491 -0.00373198 -1.09744e-21)
(0.0508095 -0.00332451 5.54002e-21)
(0.0509592 -0.00291873 2.18766e-23)
(0.0511034 -0.00248794 -1.13926e-21)
(0.0512432 -0.00203928 6.03601e-22)
(0.0513747 -0.00160028 1.9879e-23)
(0.0514939 -0.00113992 -9.34788e-22)
(0.0515987 -0.000678127 6.26485e-22)
(0.0516991 -0.000192874 -3.10464e-22)
(0.0517993 0.000319152 6.20314e-22)
(0.0518874 0.000832787 -1.2443e-21)
(0.0519568 0.00136449 -1.27119e-21)
(0.0520141 0.00190413 2.46097e-21)
(0.0520672 0.00246512 2.54011e-21)
(0.0521049 0.00303102 -7.62508e-21)
(0.0521188 0.0036123 4.97461e-21)
(0.0521214 0.00420634 -5.36275e-23)
(0.0521093 0.00481474 -1.2622e-20)
(0.0520804 0.00544209 -4.97041e-21)
(0.0520395 0.00608499 5.12604e-21)
(0.0519793 0.00675074 0)
(0.0518871 0.00742098 -4.97293e-21)
(0.0517655 0.00810031 -5.13057e-21)
(0.0516255 0.00879446 9.10386e-23)
(0.0514509 0.00951161 -5.02801e-21)
(0.0512455 0.0102566 5.07279e-21)
(0.051001 0.0110372 -1.49782e-20)
(0.0507609 0.0117767 -1.02961e-20)
(0.0504693 0.0125778 -3.48459e-22)
(0.0501437 0.0133974 0)
(0.0497814 0.0142306 2.55174e-20)
(0.049378 0.0150794 -9.85075e-21)
(0.0489407 0.0159266 5.10658e-21)
(0.0484704 0.0168173 -1.00908e-20)
(0.0479466 0.0177514 1.05254e-20)
(0.0475103 0.018673 2.07509e-20)
(0.0422991 -0.0112094 -8.71063e-22)
(0.0425937 -0.0111564 -2.78914e-21)
(0.0428894 -0.0110947 3.63822e-21)
(0.043186 -0.0110255 0)
(0.0434804 -0.0109493 -5.13784e-21)
(0.0437782 -0.0108614 -1.83975e-22)
(0.0440716 -0.0107637 4.28302e-21)
(0.0443687 -0.0106555 0)
(0.044669 -0.0105375 5.06481e-23)
(0.0449707 -0.0104101 1.1882e-21)
(0.0452733 -0.0102725 -1.22713e-21)
(0.0455766 -0.0101245 5.58044e-23)
(0.0458801 -0.00996609 0)
(0.0461852 -0.00979677 0)
(0.0464902 -0.00961422 -2.91262e-21)
(0.0467887 -0.00942204 7.21242e-21)
(0.0470867 -0.0092158 1.52611e-21)
(0.047379 -0.00899985 -4.67923e-21)
(0.0476699 -0.00877064 3.10845e-21)
(0.0479542 -0.00853132 -1.58478e-21)
(0.0482355 -0.00827892 1.73253e-21)
(0.0485108 -0.00801498 -3.35881e-21)
(0.0487796 -0.00773882 3.52496e-21)
(0.0490414 -0.00744994 -5.38855e-21)
(0.0492956 -0.00714875 3.6161e-21)
(0.0495424 -0.00683636 5.62044e-21)
(0.0497842 -0.00651109 -3.79527e-21)
(0.0500133 -0.00617515 0)
(0.0502346 -0.00582495 0)
(0.0504495 -0.00546141 -2.0951e-21)
(0.0506564 -0.00508714 0)
(0.0508571 -0.00470164 -2.1934e-21)
(0.0510504 -0.00430381 2.22189e-21)
(0.0512316 -0.00389581 -3.38583e-21)
(0.0514043 -0.00347492 4.13423e-23)
(0.0515667 -0.00304191 -1.16063e-21)
(0.0517216 -0.00259313 0)
(0.0518687 -0.00213355 -2.48509e-21)
(0.0520065 -0.00166433 1.91338e-21)
(0.0521337 -0.00118345 -1.61469e-21)
(0.0522495 -0.000688239 9.82872e-22)
(0.0523555 -0.000176214 -1.30813e-23)
(0.0524507 0.000344742 3.50971e-22)
(0.0525326 0.000873085 -3.26689e-22)
(0.0526 0.00141289 2.65871e-21)
(0.052654 0.00196721 -1.33612e-21)
(0.0526954 0.00253434 -1.36531e-21)
(0.0527212 0.00310922 2.58859e-21)
(0.0527286 0.00370074 7.9025e-21)
(0.0527202 0.00430972 -2.86439e-23)
(0.0526956 0.00493337 7.84398e-21)
(0.052653 0.00557425 -2.64116e-21)
(0.0525926 0.00623005 -7.83886e-21)
(0.0525123 0.00689632 5.23304e-21)
(0.0524084 0.0075719 0)
(0.0522782 0.00827088 1.58083e-20)
(0.0521261 0.00898444 4.70544e-23)
(0.0519464 0.00971554 -5.24476e-21)
(0.0517379 0.0104633 -5.36123e-21)
(0.0515037 0.0112271 0)
(0.0512435 0.0120138 5.08492e-21)
(0.0509523 0.0128188 1.56871e-20)
(0.0506281 0.0136367 0)
(0.0502712 0.0144709 -1.04651e-20)
(0.0498803 0.0153238 5.75002e-21)
(0.0494489 0.0162021 -1.07215e-20)
(0.0489834 0.0171091 5.35946e-21)
(0.0484753 0.0180211 -1.0617e-20)
(0.0479823 0.0189571 -1.06472e-20)
(0.0423648 -0.0116936 4.60046e-21)
(0.0426616 -0.0116365 -2.72716e-21)
(0.0429625 -0.0115703 1.01374e-21)
(0.0432702 -0.011497 -4.23248e-21)
(0.043581 -0.0114148 5.30673e-21)
(0.0438936 -0.0113233 4.56988e-21)
(0.0442059 -0.0112212 -5.73051e-21)
(0.044518 -0.0111091 0)
(0.0448305 -0.0109865 5.37897e-23)
(0.0451438 -0.0108533 0)
(0.0454576 -0.0107092 1.35678e-21)
(0.0457717 -0.010554 -1.34109e-21)
(0.0460855 -0.0103878 -7.18053e-21)
(0.0463985 -0.0102104 5.71941e-21)
(0.0467117 -0.0100215 -1.46466e-21)
(0.0470239 -0.00982018 -4.62392e-21)
(0.0473348 -0.00960716 1.5643e-21)
(0.047643 -0.00938171 1.58815e-21)
(0.0479479 -0.00914469 5.06575e-21)
(0.0482488 -0.00889528 -3.36534e-21)
(0.048545 -0.0086339 -1.78318e-21)
(0.0488359 -0.00836019 3.62286e-21)
(0.0491212 -0.00807404 -1.75363e-21)
(0.0494008 -0.00777499 -1.91482e-21)
(0.0496745 -0.00746302 0)
(0.0499407 -0.00713842 2.00502e-21)
(0.0501988 -0.00680214 2.01214e-21)
(0.0504482 -0.00645327 -1.97764e-21)
(0.050689 -0.00609127 0)
(0.0509214 -0.00571668 4.30578e-21)
(0.0511462 -0.00532906 -2.24193e-21)
(0.0513619 -0.00493004 -8.2026e-23)
(0.0515673 -0.00452008 0)
(0.0517623 -0.00409791 1.15628e-21)
(0.0519471 -0.00366388 -3.60676e-21)
(0.0521216 -0.00321747 2.44314e-21)
(0.0522856 -0.00275889 0)
(0.0524394 -0.0022888 1.92977e-21)
(0.052583 -0.00180739 -1.98031e-21)
(0.0527158 -0.00131513 -3.31947e-22)
(0.0528365 -0.000810457 0)
(0.052945 -0.000293293 -6.818e-22)
(0.0530413 0.000235419 -3.42679e-22)
(0.053125 0.000776281 3.30882e-22)
(0.0531948 0.00133048 -2.0197e-21)
(0.0532503 0.00189876 -1.38682e-21)
(0.0532911 0.00248049 2.6852e-21)
(0.0533163 0.00307536 -2.74223e-21)
(0.0533243 0.00368541 2.76997e-21)
(0.0533148 0.00431069 -2.71386e-21)
(0.0532879 0.00495011 -2.68536e-21)
(0.0532427 0.00560406 5.54707e-21)
(0.0531785 0.00627183 0)
(0.0530943 0.00695287 5.54919e-21)
(0.0529876 0.00764848 6.53871e-23)
(0.0528566 0.00836095 -5.49443e-21)
(0.0527018 0.00908855 -5.49253e-21)
(0.0525216 0.00983225 1.09461e-20)
(0.0523146 0.0105935 -6.29749e-23)
(0.0520801 0.0113743 5.58284e-21)
(0.0518188 0.0121736 -1.119e-20)
(0.0515292 0.0129882 -5.68161e-21)
(0.0512076 0.0138213 5.01792e-23)
(0.0508533 0.0146741 -5.52083e-21)
(0.0504651 0.0155476 -5.34673e-21)
(0.0500395 0.0164407 -1.69551e-20)
(0.0495832 0.0173569 0)
(0.0490764 0.0182834 -5.67532e-21)
(0.048587 0.0192531 5.63838e-21)
(0.0424568 -0.0122078 0)
(0.0427592 -0.0121482 -9.857e-22)
(0.0430641 -0.0120787 -5.34097e-21)
(0.043376 -0.0120014 4.28353e-21)
(0.043694 -0.0119149 3.55235e-21)
(0.0440161 -0.0118182 -5.85544e-21)
(0.0443413 -0.011711 1.20432e-21)
(0.0446682 -0.0115934 -1.30316e-21)
(0.0449957 -0.0114652 -1.29027e-21)
(0.0453234 -0.0113263 -5.54502e-21)
(0.0456507 -0.0111762 5.58037e-21)
(0.0459776 -0.0110146 5.89282e-21)
(0.0463037 -0.0108414 -1.37492e-21)
(0.0466285 -0.0106563 -6.14199e-21)
(0.0469522 -0.0104592 4.72354e-21)
(0.0472747 -0.0102497 -1.65798e-21)
(0.0475956 -0.0100279 1.70215e-21)
(0.0479146 -0.00979357 1.74637e-21)
(0.0482309 -0.00954684 -5.27106e-21)
(0.0485439 -0.00928757 1.71245e-21)
(0.0488527 -0.00901576 1.80552e-21)
(0.0491567 -0.00873124 0)
(0.0494554 -0.00843395 3.97906e-21)
(0.0497483 -0.00812381 -1.96735e-21)
(0.0500349 -0.00780083 -4.08131e-21)
(0.0503144 -0.00746512 -4.21866e-21)
(0.0505865 -0.00711665 8.40716e-21)
(0.0508507 -0.00675519 -4.32021e-21)
(0.0511064 -0.00638075 0)
(0.0513535 -0.00599338 -4.51169e-21)
(0.0515916 -0.00559344 -6.03911e-23)
(0.05182 -0.00518153 4.64585e-21)
(0.0520381 -0.0047576 -2.42357e-21)
(0.0522456 -0.00432133 6.16622e-21)
(0.0524422 -0.00387281 -1.21335e-21)
(0.0526277 -0.00341201 0)
(0.0528019 -0.00293902 0)
(0.0529648 -0.00245388 6.83051e-22)
(0.0531161 -0.00195698 6.74562e-22)
(0.0532555 -0.00144863 3.57288e-22)
(0.053382 -0.000927739 -1.12531e-23)
(0.0534953 -0.000393841 3.48013e-22)
(0.0535955 0.000153082 0)
(0.0536818 0.000712819 -2.38089e-23)
(0.0537536 0.00128543 0)
(0.0538101 0.00187107 1.37715e-21)
(0.053851 0.00246976 1.53852e-23)
(0.0538755 0.00308135 -4.28947e-21)
(0.0538828 0.00370618 0)
(0.0538722 0.00434469 -2.8474e-21)
(0.0538438 0.00499693 2.81924e-21)
(0.0537967 0.00566311 -5.57774e-21)
(0.0537303 0.00634334 0)
(0.0536435 0.00703771 -1.70417e-20)
(0.053535 0.00774655 6.23592e-23)
(0.0534035 0.00847084 5.65511e-21)
(0.0532484 0.00921115 5.65642e-21)
(0.0530689 0.00996803 0)
(0.0528637 0.0107424 0)
(0.0526323 0.0115349 -5.61615e-21)
(0.0523743 0.0123455 1.12561e-20)
(0.0520885 0.013174 1.12847e-20)
(0.0517726 0.0140215 0)
(0.0514252 0.0148886 -1.17615e-20)
(0.0510457 0.015776 0)
(0.0506306 0.0166831 1.73068e-20)
(0.0501843 0.0176151 -5.82891e-21)
(0.049685 0.0185581 -5.92509e-21)
(0.0492025 0.0195505 -6.1849e-21)
(0.0425475 -0.0127483 0)
(0.0428679 -0.0126876 0)
(0.0431865 -0.0126162 -1.14506e-21)
(0.0435086 -0.0125359 4.76896e-21)
(0.0438346 -0.0124458 -5.98056e-21)
(0.0441642 -0.0123447 1.2317e-21)
(0.0444974 -0.0122324 0)
(0.044834 -0.012109 1.32224e-21)
(0.045173 -0.0119745 0)
(0.0455136 -0.0118287 2.93781e-21)
(0.0458548 -0.0116714 1.7077e-22)
(0.0461958 -0.0115023 -3.01538e-21)
(0.0465359 -0.0113211 0)
(0.0468748 -0.0111277 3.29949e-21)
(0.0472118 -0.0109218 -1.0021e-20)
(0.0475468 -0.0107033 6.78489e-21)
(0.0478794 -0.010472 -8.76365e-21)
(0.0482094 -0.0102278 1.79224e-21)
(0.0485365 -0.00997063 -1.89133e-21)
(0.04886 -0.00970048 1.85808e-21)
(0.0491796 -0.00941728 1.94556e-21)
(0.0494946 -0.00912095 -5.956e-21)
(0.0498044 -0.00881147 -4.06883e-21)
(0.0501083 -0.00848886 0)
(0.0504058 -0.0081531 4.29375e-21)
(0.0506965 -0.00780422 2.21795e-21)
(0.0509797 -0.00744221 -6.57139e-21)
(0.0512549 -0.00706707 2.22433e-21)
(0.0515217 -0.00667886 -4.67149e-21)
(0.0517796 -0.00627766 7.00788e-21)
(0.0520281 -0.00586368 -2.46201e-21)
(0.0522667 -0.00543713 1.25673e-21)
(0.052495 -0.00499808 0)
(0.0527124 -0.00454653 -1.2624e-21)
(0.0529186 -0.00408257 -1.28939e-21)
(0.0531132 -0.00360629 0)
(0.053296 -0.00311783 1.39484e-21)
(0.0534665 -0.00261734 -2.09583e-21)
(0.0536245 -0.0021051 1.42108e-21)
(0.0537698 -0.00158131 -7.31444e-22)
(0.0539017 -0.00104502 -1.2095e-23)
(0.0540198 -0.000496064 -5.5924e-22)
(0.0541238 6.54736e-05 1.8285e-22)
(0.0542131 0.00063936 7.23564e-22)
(0.0542874 0.00122564 1.70506e-23)
(0.0543461 0.0018245 4.40668e-21)
(0.0543888 0.00243608 0)
(0.0544148 0.0030605 2.89584e-21)
(0.0544237 0.00369806 -3.41112e-23)
(0.0544148 0.00434923 -2.92729e-21)
(0.0543879 0.00501429 0)
(0.0543422 0.00569339 -2.95665e-21)
(0.0542772 0.00638675 2.92905e-21)
(0.0541921 0.00709456 5.79735e-21)
(0.0540858 0.00781719 0)
(0.0539573 0.00855533 -1.17309e-20)
(0.053806 0.00930963 1.18084e-20)
(0.053631 0.0100806 -1.1825e-20)
(0.0534314 0.0108689 -1.27573e-22)
(0.0532064 0.0116751 0)
(0.0529553 0.0124998 -5.9797e-21)
(0.0526768 0.0133431 5.8652e-21)
(0.0523695 0.0142058 6.22969e-21)
(0.0520315 0.0150886 1.18214e-20)
(0.051662 0.0159924 -1.83733e-20)
(0.0512574 0.0169166 1.21439e-20)
(0.0508222 0.0178661 -6.07286e-21)
(0.0503332 0.0188284 6.35194e-21)
(0.0498679 0.0198434 1.82517e-20)
(0.0426159 -0.0133144 4.46732e-21)
(0.0429617 -0.013253 2.2973e-22)
(0.0433038 -0.01318 -4.69913e-21)
(0.0436466 -0.0130976 0)
(0.0439902 -0.0130046 1.2595e-21)
(0.0443344 -0.0128997 0)
(0.0446797 -0.0127829 -2.82897e-21)
(0.045027 -0.0126541 -1.12334e-22)
(0.0453765 -0.0125133 4.42867e-21)
(0.0457279 -0.0123606 -1.56795e-21)
(0.0460806 -0.0121956 -1.54421e-21)
(0.046434 -0.0120182 -1.66492e-21)
(0.0467873 -0.0118283 0)
(0.0471397 -0.0116256 0)
(0.0474906 -0.01141 1.7301e-21)
(0.0478394 -0.0111814 1.77629e-21)
(0.0481855 -0.0109396 -3.77388e-21)
(0.0485285 -0.0106846 3.76476e-21)
(0.0488678 -0.0104162 3.91369e-21)
(0.049203 -0.0101343 -4.05259e-21)
(0.0495337 -0.00983898 8.10631e-21)
(0.0498594 -0.00953014 8.37859e-24)
(0.0501796 -0.00920777 -4.32633e-21)
(0.0504938 -0.00887188 -2.23695e-21)
(0.0508013 -0.00852249 -4.52012e-21)
(0.0511018 -0.00815963 4.52466e-21)
(0.0513946 -0.00778339 4.7108e-21)
(0.0516792 -0.00739383 -4.72021e-21)
(0.0519551 -0.00699104 0)
(0.0522218 -0.00657514 0)
(0.0524788 -0.00614627 6.32926e-21)
(0.0527257 -0.00570461 8.97795e-23)
(0.0529619 -0.00525031 -2.61621e-21)
(0.0531869 -0.00478351 -2.7095e-21)
(0.0534004 -0.00430434 2.72577e-21)
(0.053602 -0.00381295 0)
(0.0537912 -0.00330952 -1.40511e-21)
(0.0539678 -0.00279422 -2.21252e-21)
(0.0541314 -0.00226725 1.48186e-21)
(0.0542819 -0.00172881 -1.33046e-23)
(0.0544186 -0.00117783 -1.20127e-22)
(0.054541 -0.000614382 5.66066e-22)
(0.0546489 -3.84609e-05 3.88917e-22)
(0.0547419 0.000549862 7.68416e-22)
(0.0548196 0.00115067 -3.80016e-21)
(0.0548815 0.00176412 1.6304e-23)
(0.0549273 0.00239034 0)
(0.0549564 0.00302951 -3.10683e-21)
(0.0549683 0.00368184 9.18401e-21)
(0.0549626 0.00434762 -6.14575e-21)
(0.0549388 0.00502708 -3.06992e-21)
(0.0548964 0.00572042 -6.49826e-23)
(0.0548348 0.00642788 -3.0353e-21)
(0.0547534 0.00714978 -5.83311e-23)
(0.0546513 0.00788654 6.08999e-21)
(0.0545278 0.00863874 -6.2253e-21)
(0.054382 0.009407 -6.16159e-21)
(0.0542133 0.0101919 1.22831e-20)
(0.0540207 0.0109942 -6.79819e-23)
(0.0538035 0.0118146 6.1981e-21)
(0.0535605 0.0126535 -6.15292e-21)
(0.0532907 0.0135116 6.10206e-21)
(0.0529926 0.0143896 -1.22471e-20)
(0.0526645 0.015288 -6.28901e-21)
(0.0523053 0.0162081 1.22827e-20)
(0.0519113 0.0171489 -6.58953e-21)
(0.0514873 0.0181159 -1.93588e-20)
(0.0510085 0.0190956 -6.21148e-21)
(0.0505586 0.0201287 0)
(0.0426658 -0.0139093 0)
(0.0430347 -0.0138464 1.24862e-21)
(0.0434012 -0.0137717 -6.34184e-23)
(0.043769 -0.0136872 0)
(0.044137 -0.0135914 0)
(0.0445039 -0.0134831 1.46003e-21)
(0.0448698 -0.013362 -4.51994e-21)
(0.0452352 -0.0132283 6.09929e-21)
(0.0456006 -0.0130818 -3.01639e-21)
(0.0459662 -0.0129224 1.58902e-21)
(0.0463322 -0.01275 0)
(0.0466982 -0.0125644 1.68694e-21)
(0.047064 -0.0123656 -1.8177e-21)
(0.0474291 -0.0121534 0)
(0.047793 -0.0119277 0)
(0.0481549 -0.0116884 1.92985e-21)
(0.0485143 -0.0114354 1.07928e-22)
(0.0488705 -0.0111687 -3.98245e-21)
(0.0492228 -0.0108882 -4.09366e-21)
(0.0495708 -0.0105939 4.17701e-21)
(0.0499138 -0.0102856 2.1182e-21)
(0.0502513 -0.00996346 8.89798e-21)
(0.0505828 -0.00962741 5.41401e-23)
(0.0509077 -0.00927748 -2.40183e-21)
(0.0512256 -0.00891374 4.66473e-21)
(0.0515359 -0.00853624 -2.39951e-21)
(0.0518381 -0.00814508 4.86262e-21)
(0.0521317 -0.00774038 0)
(0.0524162 -0.00732226 0)
(0.0526911 -0.00689087 0)
(0.0529559 -0.00644637 -1.30327e-21)
(0.0532101 -0.00598896 -2.67658e-21)
(0.0534533 -0.00551882 2.74103e-21)
(0.0536851 -0.00503615 2.8355e-21)
(0.0539049 -0.0045411 -2.8516e-21)
(0.0541125 -0.00403386 0)
(0.0543074 -0.00351462 1.50275e-21)
(0.0544894 -0.00298357 -7.65626e-22)
(0.054658 -0.00244088 0)
(0.0548133 -0.00188681 7.94085e-22)
(0.0549544 -0.00132005 -1.48779e-22)
(0.055081 -0.000740981 9.87972e-23)
(0.0551928 -0.000149519 -3.90634e-22)
(0.0552895 0.000454278 0)
(0.0553708 0.00107046 -1.59584e-21)
(0.0554362 0.0016991 1.57892e-21)
(0.0554854 0.00234031 0)
(0.055518 0.00299422 -6.60238e-23)
(0.0555335 0.00366103 3.4294e-23)
(0.0555316 0.00434097 3.12178e-21)
(0.0555117 0.00503432 0)
(0.0554735 0.00574137 -1.01394e-22)
(0.0554163 0.00646247 -3.12271e-21)
(0.0553397 0.00719803 -9.60208e-21)
(0.0552429 0.00794853 -1.34156e-22)
(0.0551252 0.00871454 6.25773e-21)
(0.0549859 0.00949671 0)
(0.0548242 0.0102957 0)
(0.0546392 0.0111121 6.494e-21)
(0.05443 0.0119468 0)
(0.0541955 0.0128003 0)
(0.0539346 0.0136733 -7.49194e-23)
(0.053646 0.0145666 -6.43477e-21)
(0.0533277 0.0154808 -1.3153e-20)
(0.0529788 0.0164172 1.31482e-20)
(0.0525952 0.0173748 -4.68942e-22)
(0.052182 0.0183596 6.33858e-21)
(0.0517121 0.0193556 6.62606e-21)
(0.0512749 0.0204133 0)
(0.0427129 -0.0145373 0)
(0.0430999 -0.0144723 -1.26793e-21)
(0.0434864 -0.0143951 4.0938e-21)
(0.0438761 -0.0143077 -1.30556e-21)
(0.0442677 -0.0142086 0)
(0.0446591 -0.0140966 -4.57755e-21)
(0.0450494 -0.0139712 7.81241e-21)
(0.0454386 -0.0138324 1.24731e-22)
(0.0458264 -0.0136802 -8.33771e-21)
(0.0462128 -0.0135144 1.62176e-21)
(0.0465977 -0.0133348 -1.82523e-21)
(0.0469811 -0.0131413 -1.87791e-21)
(0.047363 -0.0129337 5.66577e-21)
(0.047743 -0.0127119 -7.73574e-21)
(0.0481211 -0.012476 3.91148e-21)
(0.0484968 -0.0122257 -2.13681e-21)
(0.0488696 -0.0119612 8.34159e-21)
(0.0492391 -0.0116823 -2.02857e-21)
(0.0496046 -0.011389 2.28637e-21)
(0.0499654 -0.0110813 -2.18019e-21)
(0.0503211 -0.0107593 1.05562e-22)
(0.0506709 -0.0104229 -1.40089e-20)
(0.0510144 -0.0100722 -2.43619e-21)
(0.0513509 -0.00970728 -9.98328e-23)
(0.0516798 -0.00932819 7.45419e-21)
(0.0520006 -0.00893505 -2.48183e-21)
(0.0523128 -0.00852797 5.21166e-21)
(0.0526159 -0.00810711 -7.90917e-21)
(0.0529093 -0.00767263 0)
(0.0531926 -0.00722471 -2.75684e-21)
(0.0534653 -0.00676356 2.76527e-21)
(0.053727 -0.00628938 5.57359e-23)
(0.0539771 -0.0058024 -1.47593e-21)
(0.0542154 -0.00530284 -1.50341e-21)
(0.0544413 -0.00479093 4.55488e-21)
(0.0546546 -0.00426687 -3.04147e-21)
(0.0548549 -0.0037309 2.36427e-21)
(0.0550418 -0.00318324 -3.18026e-21)
(0.0552151 -0.0026241 1.61223e-21)
(0.0553747 -0.00205369 -4.06074e-22)
(0.0555198 -0.00147062 0)
(0.0556502 -0.000875488 4.15049e-22)
(0.0557656 -0.000268192 -4.10497e-22)
(0.0558658 0.000351214 -8.28958e-22)
(0.0559504 0.000982763 2.47703e-21)
(0.0560192 0.00162653 -1.65957e-21)
(0.0560719 0.00228262 -1.63888e-21)
(0.0561079 0.00295119 0)
(0.0561271 0.00363246 -6.65368e-21)
(0.056129 0.00432668 6.58102e-21)
(0.0561132 0.00503418 -3.23573e-21)
(0.0560793 0.0057553 3.20757e-21)
(0.0560268 0.00649043 3.31283e-21)
(0.0559552 0.00724002 6.51633e-21)
(0.0558638 0.00800458 6.48507e-21)
(0.055752 0.00878469 0)
(0.0556191 0.00958097 -6.71004e-21)
(0.0554642 0.0103941 0)
(0.0552865 0.0112248 1.39029e-22)
(0.0550851 0.0120737 -6.53454e-21)
(0.0548589 0.0129417 6.62902e-21)
(0.0546067 0.0138294 6.58053e-21)
(0.0543272 0.0147377 -6.83292e-21)
(0.0540186 0.0156673 -1.54058e-22)
(0.0536798 0.0166196 7.34186e-23)
(0.0533067 0.0175939 2.03848e-20)
(0.0529038 0.0185959 7.00834e-21)
(0.0524445 0.0196116 6.98851e-21)
(0.0520196 0.0206911 -6.93107e-21)
(0.0427681 -0.0152029 0)
(0.0431715 -0.0151351 0)
(0.0435748 -0.0150545 2.96535e-21)
(0.0439827 -0.0149633 -4.41097e-21)
(0.0443938 -0.0148602 -1.60613e-21)
(0.0448063 -0.0147435 0)
(0.0452191 -0.014613 0)
(0.0456318 -0.0144686 1.77635e-21)
(0.0460435 -0.0143102 -3.6339e-21)
(0.0464539 -0.0141375 -2.21401e-22)
(0.0468621 -0.0139504 9.42032e-21)
(0.0472678 -0.0137486 -1.92878e-21)
(0.0476708 -0.0135321 2.01053e-21)
(0.0480706 -0.0133006 -4.04462e-21)
(0.0484671 -0.0130542 2.15919e-21)
(0.0488601 -0.0127928 0)
(0.0492492 -0.0125163 0)
(0.0496339 -0.0122248 5.17413e-23)
(0.050014 -0.0119182 -6.93835e-21)
(0.0503888 -0.0115967 2.31275e-21)
(0.050758 -0.0112601 -2.47273e-21)
(0.0511208 -0.0109087 2.41316e-21)
(0.0514767 -0.0105426 2.50962e-21)
(0.0518252 -0.0101617 -2.4556e-21)
(0.0521656 -0.00976628 -2.5633e-21)
(0.0524975 -0.00935648 0)
(0.0528201 -0.00893245 0)
(0.0531331 -0.00849439 4.12982e-21)
(0.0534359 -0.0080425 0)
(0.053728 -0.00757701 2.89513e-21)
(0.0540089 -0.00709817 -2.9032e-21)
(0.0542781 -0.00660623 -1.46074e-21)
(0.0545354 -0.00610145 1.4875e-21)
(0.0547802 -0.00558411 3.08957e-21)
(0.0550122 -0.00505446 -1.54257e-21)
(0.0552311 -0.00451279 -1.60977e-21)
(0.0554365 -0.00395934 1.65035e-21)
(0.0556281 -0.00339438 0)
(0.0558058 -0.00281816 0)
(0.0559694 -0.00223072 4.37583e-22)
(0.0561183 -0.00163083 0)
(0.0562522 -0.00101912 0)
(0.0563709 -0.000395512 -1.29744e-21)
(0.0564742 0.000239953 1.72348e-21)
(0.056562 0.000887302 -8.70508e-22)
(0.0566338 0.00154661 1.68233e-21)
(0.0566896 0.002218 0)
(0.0567289 0.00290163 5.16825e-21)
(0.0567515 0.00359772 -3.77531e-23)
(0.0567569 0.00430656 0)
(0.0567449 0.00502846 -6.82524e-21)
(0.0567151 0.00576381 -3.98208e-23)
(0.0566669 0.00651303 -6.75296e-21)
(0.0566 0.0072766 -3.46739e-21)
(0.0565137 0.00805507 -6.8612e-21)
(0.0564074 0.00884902 6.80136e-21)
(0.0562805 0.00965912 6.73737e-21)
(0.056132 0.0104861 0)
(0.0559613 0.0113306 -6.90708e-21)
(0.0557673 0.0121934 7.20173e-23)
(0.055549 0.0130754 0)
(0.0553051 0.0139774 0)
(0.0550344 0.0149003 6.85536e-21)
(0.0547352 0.0158448 0)
(0.0544064 0.0168125 0)
(0.0540439 0.017803 -7.05007e-21)
(0.0536527 0.0188214 -6.8453e-21)
(0.0532057 0.0198591 -7.3482e-21)
(0.0527856 0.0209424 0)
(0.0428329 -0.0159094 0)
(0.0432543 -0.0158384 0)
(0.0436751 -0.015754 0)
(0.0441004 -0.0156585 -1.65854e-21)
(0.0445293 -0.0155504 -1.78591e-21)
(0.0449603 -0.0154282 -1.41834e-22)
(0.0453925 -0.0152916 3.50778e-21)
(0.0458256 -0.0151406 -1.80083e-21)
(0.0462589 -0.014975 1.95616e-21)
(0.0466916 -0.0147945 3.92649e-21)
(0.0471229 -0.0145991 0)
(0.0475519 -0.0143883 0)
(0.0479781 -0.0141621 -5.89558e-23)
(0.0484006 -0.0139203 6.53988e-21)
(0.0488192 -0.0136629 -9.01613e-21)
(0.0492332 -0.0133897 -1.24691e-22)
(0.0496422 -0.0131008 4.62684e-21)
(0.0500459 -0.0127962 2.34295e-21)
(0.0504438 -0.0124758 -1.16572e-22)
(0.0508354 -0.0121398 0)
(0.0512203 -0.0117882 5.11582e-21)
(0.051598 -0.0114211 0)
(0.051968 -0.0110387 5.32274e-21)
(0.0523297 -0.0106411 -8.12356e-21)
(0.0526827 -0.0102286 8.2955e-21)
(0.0530263 -0.0098012 2.87738e-21)
(0.0533601 -0.00935928 -4.35258e-21)
(0.0536835 -0.00890304 4.40205e-21)
(0.0539961 -0.00843275 -2.94331e-21)
(0.0542973 -0.00794869 0)
(0.0545867 -0.00745115 -3.09339e-21)
(0.0548638 -0.00694045 -1.63868e-21)
(0.0551283 -0.00641689 3.15726e-21)
(0.0553798 -0.0058808 -3.23606e-21)
(0.0556178 -0.0053325 1.65441e-21)
(0.0558422 -0.00477229 -1.66326e-21)
(0.0560526 -0.0042005 -8.35741e-22)
(0.0562488 -0.00361741 8.831e-22)
(0.0564307 -0.00302331 4.37035e-22)
(0.056598 -0.00241802 -1.32672e-21)
(0.0567502 -0.00180064 -1.13536e-22)
(0.0568873 -0.00117171 0)
(0.0570089 -0.000531216 4.37376e-22)
(0.057115 0.000120819 -8.73942e-22)
(0.0572054 0.000784405 8.73182e-22)
(0.0572799 0.00145962 0)
(0.0573383 0.00214658 0)
(0.0573804 0.00284547 1.815e-21)
(0.0574058 0.00355651 -3.52255e-21)
(0.0574143 0.00428 -7.14756e-21)
(0.0574056 0.00501629 1.41424e-20)
(0.0573793 0.00576579 -3.58876e-21)
(0.057335 0.00652896 3.51742e-21)
(0.0572723 0.00730633 3.48018e-21)
(0.0571906 0.00809846 -7.10762e-21)
(0.0570893 0.00890599 7.04539e-21)
(0.0569677 0.00972958 0)
(0.0568252 0.01057 -7.21671e-21)
(0.0566608 0.0114279 7.69844e-23)
(0.0564736 0.0123043 7.09881e-21)
(0.0562627 0.0131999 0)
(0.0560268 0.0141156 0)
(0.0557647 0.0150524 0)
(0.0554747 0.0160112 1.46976e-20)
(0.0551561 0.0169937 7.53389e-21)
(0.0548043 0.0179991 7.34321e-21)
(0.0544271 0.0190344 -1.46598e-20)
(0.053992 0.0200874 -2.67523e-22)
(0.0536059 0.0212043 7.68742e-21)
(0.0429048 -0.0166596 0)
(0.0433466 -0.0165854 -3.27888e-21)
(0.0437872 -0.016497 4.10948e-21)
(0.044232 -0.0163968 -2.74023e-21)
(0.0446801 -0.0162833 5.34957e-21)
(0.04513 -0.0161551 1.90732e-21)
(0.0455811 -0.0160117 1.96949e-21)
(0.0460333 -0.0158531 0)
(0.0464861 -0.0156793 -4.07394e-21)
(0.0469389 -0.0154901 -4.14546e-21)
(0.0473909 -0.0152851 4.23162e-21)
(0.0478413 -0.0150643 -2.27024e-21)
(0.0482893 -0.0148274 2.38985e-21)
(0.0487341 -0.0145742 -2.13194e-21)
(0.0491749 -0.0143047 -9.63649e-21)
(0.0496111 -0.0140189 -1.30246e-22)
(0.0500418 -0.0137166 -1.27809e-22)
(0.0504666 -0.013398 5.02534e-21)
(0.0508848 -0.013063 2.53829e-21)
(0.0512959 -0.0127117 5.3633e-21)
(0.0516993 -0.0123442 -5.22159e-21)
(0.0520944 -0.0119606 0)
(0.0524808 -0.0115611 1.3146e-22)
(0.052858 -0.0111459 0)
(0.0532254 -0.0107153 -2.8514e-21)
(0.0535825 -0.0102695 -2.90286e-21)
(0.0539288 -0.00980871 1.47714e-21)
(0.0542639 -0.00933331 0)
(0.0545872 -0.00884361 1.59637e-21)
(0.0548983 -0.00833994 3.19656e-21)
(0.0551968 -0.00782267 -3.20376e-21)
(0.0554823 -0.00729217 1.6072e-21)
(0.0557543 -0.0067488 -3.35369e-21)
(0.0560126 -0.00619296 6.73156e-21)
(0.0562568 -0.00562502 -1.71136e-21)
(0.0564867 -0.00504534 0)
(0.056702 -0.0044543 -9.07197e-22)
(0.0569026 -0.00385222 3.4214e-23)
(0.0570884 -0.00323944 1.37588e-21)
(0.0572591 -0.00261552 -1.15582e-21)
(0.0574143 -0.00197998 2.26259e-22)
(0.057554 -0.00133321 -6.99886e-22)
(0.0576781 -0.000675281 4.59596e-22)
(0.0577864 -6.2244e-06 0)
(0.0578789 0.000673966 0)
(0.0579554 0.00136537 0)
(0.0580158 0.00206811 1.86828e-21)
(0.0580599 0.00278238 1.86586e-21)
(0.0580875 0.00350842 0)
(0.0580984 0.00424654 3.65017e-21)
(0.0580923 0.00499715 3.76145e-21)
(0.0580689 0.00576066 3.71887e-21)
(0.0580278 0.00653759 0)
(0.0579686 0.00732848 0)
(0.0578908 0.00813395 -7.35825e-21)
(0.0577938 0.00895464 7.29368e-21)
(0.0576771 0.00979128 0)
(0.0575399 0.0106446 7.23915e-21)
(0.0573814 0.0115155 -7.25536e-21)
(0.0572008 0.0124047 -7.50914e-21)
(0.056997 0.0133132 7.45989e-21)
(0.056769 0.014242 -7.40173e-21)
(0.0565156 0.0151922 0)
(0.0562352 0.0161646 -7.40375e-21)
(0.0559272 0.0171612 1.78296e-22)
(0.0555867 0.0181808 -1.53352e-20)
(0.0552235 0.0192322 -1.55866e-20)
(0.054798 0.0202959 1.53475e-20)
(0.0544559 0.0214331 -7.69232e-21)
(0.0429806 -0.017456 -8.51289e-22)
(0.0434452 -0.0173787 0)
(0.0439081 -0.0172863 -8.69282e-22)
(0.0443749 -0.0171813 4.69302e-21)
(0.0448447 -0.0170623 -8.56288e-21)
(0.0453159 -0.0169275 1.9598e-21)
(0.0457879 -0.0167768 -1.99572e-21)
(0.0462606 -0.0166102 4.30334e-21)
(0.0467336 -0.0164275 -2.15559e-21)
(0.0472064 -0.0162285 -2.17941e-21)
(0.0476784 -0.0160132 -2.36432e-21)
(0.048149 -0.0157811 7.08751e-21)
(0.0486173 -0.0155323 -2.27688e-21)
(0.0490826 -0.0152666 7.56778e-21)
(0.0495441 -0.0149838 2.61021e-21)
(0.0500012 -0.014684 1.36025e-22)
(0.0504529 -0.0143672 -5.2282e-21)
(0.0508985 -0.0140333 0)
(0.0513372 -0.0136824 0)
(0.0517684 -0.0133146 -2.88723e-21)
(0.0521913 -0.0129299 -2.80095e-21)
(0.0526052 -0.0125287 -5.90069e-21)
(0.0530096 -0.012111 2.98368e-21)
(0.0534039 -0.0116771 6.10911e-21)
(0.0537874 -0.0112272 -6.10369e-21)
(0.0541596 -0.0107618 1.60376e-21)
(0.05452 -0.010281 1.62979e-21)
(0.0548681 -0.00978531 0)
(0.0552034 -0.00927506 -1.60877e-21)
(0.0555256 -0.00875066 -3.36148e-21)
(0.0558341 -0.00821254 -4.47363e-23)
(0.0561286 -0.00766113 3.42137e-21)
(0.0564088 -0.00709688 -1.78632e-21)
(0.0566743 -0.00652024 0)
(0.056925 -0.00593164 9.20207e-22)
(0.0571605 -0.00533151 -9.34124e-22)
(0.0573808 -0.00472029 9.12123e-22)
(0.0575856 -0.00409836 -1.88989e-21)
(0.057775 -0.0034661 0)
(0.0579488 -0.00282277 -2.45437e-22)
(0.0581066 -0.00216841 2.40545e-22)
(0.0582485 -0.00150323 -3.6833e-22)
(0.0583744 -0.000827403 1.43902e-21)
(0.0584843 -0.00014096 -2.87286e-21)
(0.0585782 0.000556102 1.90128e-21)
(0.058656 0.00126387 1.91419e-21)
(0.0587177 0.00198247 -1.83223e-21)
(0.0587632 0.00271211 3.87972e-21)
(0.0587923 0.00345306 -3.78076e-21)
(0.0588048 0.00420567 -9.47035e-21)
(0.0588006 0.00497035 4.23255e-23)
(0.0587794 0.00574759 -3.72926e-21)
(0.0587408 0.0065379 0)
(0.0586846 0.0073419 0)
(0.0586102 0.00816021 -7.61316e-21)
(0.0585172 0.00899355 1.13156e-20)
(0.058405 0.00984266 -7.55487e-21)
(0.0582729 0.0107083 0)
(0.0581203 0.0115915 7.74475e-21)
(0.0579462 0.012493 1.52197e-20)
(0.0577499 0.0134138 -7.55286e-21)
(0.0575304 0.014355 -9.5975e-23)
(0.0572864 0.0153179 7.69456e-21)
(0.0570167 0.0163034 -7.16757e-23)
(0.0567205 0.0173135 -1.56855e-20)
(0.0563929 0.0183474 1.56163e-20)
(0.056043 0.0194142 7.83951e-21)
(0.0556274 0.0204895 0)
(0.0553128 0.0216615 0)
(0.0430578 -0.0183015 8.63065e-22)
(0.0435474 -0.0182211 4.75153e-21)
(0.0440349 -0.0181246 -3.76184e-21)
(0.0445261 -0.0180148 0)
(0.0450202 -0.0178899 -1.00306e-21)
(0.0455153 -0.0177485 -4.34743e-21)
(0.0460108 -0.0175902 3.18148e-21)
(0.0465065 -0.017415 -5.77846e-21)
(0.047002 -0.0172228 4.57947e-21)
(0.0474969 -0.0170135 0)
(0.0479905 -0.0167869 1.12755e-21)
(0.0484822 -0.0165428 0)
(0.0489712 -0.0162811 2.72373e-21)
(0.049457 -0.0160016 -7.78571e-21)
(0.0499388 -0.0157044 0)
(0.0504159 -0.0153894 0)
(0.0508875 -0.0150565 0)
(0.0513528 -0.014706 -4.34216e-21)
(0.0518111 -0.0143377 5.7991e-21)
(0.0522615 -0.0139519 2.9165e-21)
(0.0527032 -0.0135487 0)
(0.0531356 -0.0131283 0)
(0.0535578 -0.0126909 0)
(0.0539692 -0.0122368 -8.10841e-21)
(0.054369 -0.0117663 9.74166e-21)
(0.0547568 -0.0112798 -4.89905e-21)
(0.0551318 -0.0107776 -3.36474e-21)
(0.0554936 -0.0102602 3.43665e-21)
(0.0558415 -0.00972809 -3.439e-21)
(0.0561753 -0.00918164 1.7986e-21)
(0.0564944 -0.00862138 -3.58807e-21)
(0.0567984 -0.00804782 1.74606e-21)
(0.0570871 -0.00746148 3.67358e-21)
(0.0573602 -0.00686288 1.90202e-21)
(0.0576175 -0.00625253 -9.2554e-22)
(0.0578587 -0.00563094 9.39251e-22)
(0.0580839 -0.00499859 0)
(0.0582928 -0.00435594 -3.8321e-23)
(0.0584856 -0.00370343 5.02474e-22)
(0.0586621 -0.00303992 2.44064e-24)