# Force and moment coefficients
# dragDir     : (1.000000e+00 0.000000e+00 0.000000e+00)
# sideDir     : (0.000000e+00 0.000000e+00 -1.000000e+00)
# liftDir     : (0.000000e+00 1.000000e+00 0.000000e+00)
# rollAxis    : (1.000000e+00 0.000000e+00 0.000000e+00)
# pitchAxis   : (0.000000e+00 0.000000e+00 -1.000000e+00)
# yawAxis     : (0.000000e+00 1.000000e+00 0.000000e+00)
# magUInf     : 1.000000e+00
# lRef        : 1.000000e+00
# Aref        : 1.000000e+00
# CofR        : (0.000000e+00 0.000000e+00 0.000000e+00)
#
# Time        	Cd            	Cd(f)         	Cd(r)         	Cl            	Cl(f)         	Cl(r)         	CmPitch       	CmRoll        	CmYaw         	Cs            	Cs(f)         	Cs(r)         
1             	1.533444e-04	7.578781e-05	7.755661e-05	1.768801e-06	8.908869e-07	8.779136e-07	6.486677e-09	-8.844003e-07	7.667221e-05	-7.980452e-23	7.667221e-05	-7.667221e-05
2             	6.944777e-04	3.517933e-04	3.426844e-04	-9.108936e-06	-4.600435e-06	-4.508501e-06	-4.596685e-08	4.554468e-06	3.472388e-04	2.774083e-23	3.472388e-04	-3.472388e-04
3             	1.223587e-03	6.221403e-04	6.014466e-04	-2.069367e-05	-1.038148e-05	-1.031218e-05	-3.464997e-08	1.034683e-05	6.117935e-04	-8.687812e-24	6.117935e-04	-6.117935e-04
4             	1.483265e-03	7.576330e-04	7.256317e-04	-3.200132e-05	-1.598630e-05	-1.601503e-05	1.436485e-08	1.600066e-05	7.416324e-04	-2.508990e-23	7.416324e-04	-7.416324e-04
5             	1.616913e-03	8.263608e-04	7.905518e-04	-3.580904e-05	-1.781228e-05	-1.799676e-05	9.223825e-08	1.790452e-05	8.084563e-04	-4.048276e-23	8.084563e-04	-8.084563e-04
6             	1.654851e-03	8.433568e-04	8.114940e-04	-3.186279e-05	-1.577966e-05	-1.608313e-05	1.517355e-07	1.593139e-05	8.274254e-04	-5.178231e-23	8.274254e-04	-8.274254e-04
7             	1.629503e-03	8.257322e-04	8.037706e-04	-2.196160e-05	-1.079455e-05	-1.116706e-05	1.862565e-07	1.098080e-05	8.147514e-04	-5.843942e-23	8.147514e-04	-8.147514e-04
8             	1.574050e-03	7.910348e-04	7.830151e-04	-8.019705e-06	-3.881507e-06	-4.138198e-06	1.283454e-07	4.009853e-06	7.870250e-04	-6.106758e-23	7.870250e-04	-7.870250e-04
9             	1.515978e-03	7.537311e-04	7.622469e-04	8.515787e-06	4.317741e-06	4.198046e-06	5.984764e-08	-4.257894e-06	7.579890e-04	-6.281707e-23	7.579890e-04	-7.579890e-04
10            	1.472796e-03	7.243141e-04	7.484816e-04	2.416746e-05	1.209625e-05	1.207122e-05	1.251569e-08	-1.208373e-05	7.363978e-04	-6.291239e-23	7.363978e-04	-7.363978e-04
11            	1.454339e-03	7.079902e-04	7.463485e-04	3.835833e-05	1.917533e-05	1.918300e-05	-3.833838e-09	-1.917916e-05	7.271693e-04	-6.197998e-23	7.271693e-04	-7.271693e-04
12            	1.462824e-03	7.062607e-04	7.565637e-04	5.030301e-05	2.514194e-05	2.516107e-05	-9.562200e-09	-2.515150e-05	7.314122e-04	-6.055093e-23	7.314122e-04	-7.314122e-04
13            	1.495367e-03	7.181466e-04	7.772206e-04	5.907393e-05	2.953063e-05	2.954329e-05	-6.328765e-09	-2.953696e-05	7.476836e-04	-5.811384e-23	7.476836e-04	-7.476836e-04
14            	1.545516e-03	7.406761e-04	8.048400e-04	6.416391e-05	3.207766e-05	3.208625e-05	-4.299088e-09	-3.208196e-05	7.727580e-04	-5.573419e-23	7.727580e-04	-7.727580e-04
15            	1.602641e-03	7.682273e-04	8.344139e-04	6.618659e-05	3.309102e-05	3.309557e-05	-2.270016e-09	-3.309330e-05	8.013206e-04	-5.298033e-23	8.013206e-04	-8.013206e-04
16            	1.655737e-03	7.947771e-04	8.609602e-04	6.618316e-05	3.310720e-05	3.307597e-05	1.561454e-08	-3.309158e-05	8.278687e-04	-5.019830e-23	8.278687e-04	-8.278687e-04
17            	1.697094e-03	8.156068e-04	8.814870e-04	6.588021e-05	3.297364e-05	3.290657e-05	3.353730e-08	-3.294011e-05	8.485469e-04	-4.717536e-23	8.485469e-04	-8.485469e-04
18            	1.722036e-03	8.283372e-04	8.936993e-04	6.536208e-05	3.273437e-05	3.262771e-05	5.333107e-08	-3.268104e-05	8.610182e-04	-4.433125e-23	8.610182e-04	-8.610182e-04
19            	1.729863e-03	8.335320e-04	8.963312e-04	6.279923e-05	3.147104e-05	3.132819e-05	7.142486e-08	-3.139961e-05	8.649316e-04	-4.170701e-23	8.649316e-04	-8.649316e-04
20            	1.721911e-03	8.324873e-04	8.894240e-04	5.693664e-05	2.858156e-05	2.835507e-05	1.132452e-07	-2.846832e-05	8.609557e-04	-3.916101e-23	8.609557e-04	-8.609557e-04
21            	1.702569e-03	8.272337e-04	8.753353e-04	4.810161e-05	2.420542e-05	2.389620e-05	1.546099e-07	-2.405081e-05	8.512845e-04	-3.674941e-23	8.512845e-04	-8.512845e-04
22            	1.675946e-03	8.197170e-04	8.562289e-04	3.651195e-05	1.842923e-05	1.808272e-05	1.732541e-07	-1.825598e-05	8.379730e-04	-3.451861e-23	8.379730e-04	-8.379730e-04
23            	1.647081e-03	8.115017e-04	8.355796e-04	2.407785e-05	1.221739e-05	1.186046e-05	1.784665e-07	-1.203893e-05	8.235407e-04	-3.232758e-23	8.235407e-04	-8.235407e-04
24            	1.618909e-03	8.033637e-04	8.155455e-04	1.218184e-05	6.262750e-06	5.919085e-06	1.718326e-07	-6.090918e-06	8.094546e-04	-3.023421e-23	8.094546e-04	-8.094546e-04
25            	1.593946e-03	7.962871e-04	7.976593e-04	1.372149e-06	8.417340e-07	5.304153e-07	1.556593e-07	-6.860746e-07	7.969732e-04	-2.815013e-23	7.969732e-04	-7.969732e-04
26            	1.573706e-03	7.908918e-04	7.828143e-04	-8.077550e-06	-3.894686e-06	-4.182865e-06	1.440894e-07	4.038775e-06	7.868530e-04	-2.608580e-23	7.868530e-04	-7.868530e-04
27            	1.558451e-03	7.875549e-04	7.708961e-04	-1.665873e-05	-8.194149e-06	-8.464581e-06	1.352159e-07	8.329365e-06	7.792255e-04	-2.414302e-23	7.792255e-04	-7.792255e-04
28            	1.547996e-03	7.863112e-04	7.616846e-04	-2.462659e-05	-1.218658e-05	-1.244002e-05	1.267200e-07	1.231330e-05	7.739979e-04	-2.240572e-23	7.739979e-04	-7.739979e-04
29            	1.541592e-03	7.868553e-04	7.547363e-04	-3.211898e-05	-1.593900e-05	-1.617997e-05	1.204838e-07	1.605949e-05	7.707958e-04	-2.083849e-23	7.707958e-04	-7.707958e-04
30            	1.538229e-03	7.886333e-04	7.495957e-04	-3.903755e-05	-1.940157e-05	-1.963599e-05	1.172090e-07	1.951878e-05	7.691145e-04	-1.945817e-23	7.691145e-04	-7.691145e-04
31            	1.536631e-03	7.909969e-04	7.456344e-04	-4.536251e-05	-2.256599e-05	-2.279652e-05	1.152649e-07	2.268125e-05	7.683156e-04	-1.829962e-23	7.683156e-04	-7.683156e-04
32            	1.535361e-03	7.932436e-04	7.421176e-04	-5.112598e-05	-2.545318e-05	-2.567280e-05	1.098085e-07	2.556299e-05	7.676806e-04	-1.734424e-23	7.676806e-04	-7.676806e-04
33            	1.533080e-03	7.947584e-04	7.383216e-04	-5.643683e-05	-2.812109e-05	-2.831574e-05	9.732454e-08	2.821841e-05	7.665400e-04	-1.653755e-23	7.665400e-04	-7.665400e-04
34            	1.528836e-03	7.950487e-04	7.337877e-04	-6.126101e-05	-3.055096e-05	-3.071005e-05	7.954346e-08	3.063051e-05	7.644182e-04	-1.590573e-23	7.644182e-04	-7.644182e-04
35            	1.522243e-03	7.938817e-04	7.283615e-04	-6.552022e-05	-3.269844e-05	-3.282178e-05	6.167260e-08	3.276011e-05	7.611216e-04	-1.541632e-23	7.611216e-04	-7.611216e-04
36            	1.513510e-03	7.913182e-04	7.221921e-04	-6.912607e-05	-3.450893e-05	-3.461715e-05	5.410924e-08	3.456304e-05	7.567551e-04	-1.497399e-23	7.567551e-04	-7.567551e-04
37            	1.503301e-03	7.876502e-04	7.156509e-04	-7.199922e-05	-3.593979e-05	-3.605943e-05	5.981699e-08	3.599961e-05	7.516506e-04	-1.460445e-23	7.516506e-04	-7.516506e-04
38            	1.492534e-03	7.833633e-04	7.091709e-04	-7.419239e-05	-3.702692e-05	-3.716547e-05	6.927562e-08	3.709619e-05	7.462671e-04	-1.428612e-23	7.462671e-04	-7.462671e-04
39            	1.482111e-03	7.789171e-04	7.031943e-04	-7.572281e-05	-3.778488e-05	-3.793793e-05	7.652474e-08	3.786140e-05	7.410557e-04	-1.396193e-23	7.410557e-04	-7.410557e-04
40            	1.472721e-03	7.746709e-04	6.980506e-04	-7.662032e-05	-3.823134e-05	-3.838898e-05	7.881888e-08	3.831016e-05	7.363607e-04	-1.365714e-23	7.363607e-04	-7.363607e-04
41            	1.464611e-03	7.707535e-04	6.938576e-04	-7.689587e-05	-3.837187e-05	-3.852400e-05	7.606579e-08	3.844793e-05	7.323056e-04	-1.339000e-23	7.323056e-04	-7.323056e-04
42            	1.457661e-03	7.671201e-04	6.905406e-04	-7.657949e-05	-3.822127e-05	-3.835821e-05	6.846921e-08	3.828974e-05	7.288304e-04	-1.315317e-23	7.288304e-04	-7.288304e-04
43            	1.451423e-03	7.635620e-04	6.878611e-04	-7.570089e-05	-3.779284e-05	-3.790804e-05	5.760007e-08	3.785044e-05	7.257116e-04	-1.295338e-23	7.257116e-04	-7.257116e-04
44            	1.445303e-03	7.598054e-04	6.854979e-04	-7.430750e-05	-3.710823e-05	-3.719927e-05	4.551688e-08	3.715375e-05	7.226517e-04	-1.277168e-23	7.226517e-04	-7.226517e-04
45            	1.438808e-03	7.556249e-04	6.831833e-04	-7.244156e-05	-3.618686e-05	-3.625470e-05	3.391910e-08	3.622078e-05	7.194041e-04	-1.260911e-23	7.194041e-04	-7.194041e-04
46            	1.431626e-03	7.508788e-04	6.807471e-04	-7.013172e-05	-3.504076e-05	-3.509096e-05	2.510032e-08	3.506586e-05	7.158130e-04	-1.245638e-23	7.158130e-04	-7.158130e-04
47            	1.423710e-03	7.455533e-04	6.781567e-04	-6.739667e-05	-3.367789e-05	-3.371878e-05	2.044043e-08	3.369834e-05	7.118550e-04	-1.230098e-23	7.118550e-04	-7.118550e-04
48            	1.415312e-03	7.397755e-04	6.755363e-04	-6.423918e-05	-3.209991e-05	-3.213926e-05	1.967459e-08	3.211959e-05	7.076559e-04	-1.215200e-23	7.076559e-04	-7.076559e-04
49            	1.406813e-03	7.337380e-04	6.730753e-04	-6.066270e-05	-3.031042e-05	-3.035228e-05	2.092655e-08	3.033135e-05	7.034067e-04	-1.200698e-23	7.034067e-04	-7.034067e-04
50            	1.398629e-03	7.276474e-04	6.709821e-04	-5.666539e-05	-2.831065e-05	-2.835474e-05	2.204673e-08	2.833269e-05	6.993147e-04	-1.186216e-23	6.993147e-04	-6.993147e-04
51            	1.391084e-03	7.216737e-04	6.694106e-04	-5.226312e-05	-2.611012e-05	-2.615300e-05	2.143689e-08	2.613156e-05	6.955421e-04	-1.175787e-23	6.955421e-04	-6.955421e-04
52            	1.384305e-03	7.158835e-04	6.684219e-04	-4.746156e-05	-2.371272e-05	-2.374885e-05	1.806586e-08	2.373078e-05	6.921527e-04	-1.165557e-23	6.921527e-04	-6.921527e-04
53            	1.378186e-03	7.102382e-04	6.679479e-04	-4.229030e-05	-2.113314e-05	-2.115716e-05	1.201427e-08	2.114515e-05	6.890930e-04	-1.155724e-23	6.890930e-04	-6.890930e-04
54            	1.372468e-03	7.046162e-04	6.678516e-04	-3.676455e-05	-1.837841e-05	-1.838614e-05	3.861953e-09	1.838227e-05	6.862339e-04	-1.146195e-23	6.862339e-04	-6.862339e-04
55            	1.366801e-03	6.988643e-04	6.679370e-04	-3.092731e-05	-1.546940e-05	-1.545792e-05	-5.738357e-09	1.546366e-05	6.834006e-04	-1.136736e-23	6.834006e-04	-6.834006e-04
56            	1.360898e-03	6.928443e-04	6.680537e-04	-2.479060e-05	-1.241088e-05	-1.237972e-05	-1.557872e-08	1.239530e-05	6.804490e-04	-1.127603e-23	6.804490e-04	-6.804490e-04
57            	1.354603e-03	6.864982e-04	6.681044e-04	-1.839380e-05	-9.221188e-06	-9.172616e-06	-2.428621e-08	9.196902e-06	6.773013e-04	-1.117857e-23	6.773013e-04	-6.773013e-04
58            	1.347956e-03	6.798373e-04	6.681192e-04	-1.171816e-05	-5.889839e-06	-5.828320e-06	-3.075983e-08	5.859080e-06	6.739782e-04	-1.107599e-23	6.739782e-04	-6.739782e-04
59            	1.341147e-03	6.729622e-04	6.681847e-04	-4.777445e-06	-2.423460e-06	-2.353986e-06	-3.473688e-08	2.388723e-06	6.705734e-04	-1.095987e-23	6.705734e-04	-6.705734e-04
60            	1.334481e-03	6.660217e-04	6.684590e-04	2.437212e-06	1.181883e-06	1.255330e-06	-3.672357e-08	-1.218606e-06	6.672403e-04	-1.083429e-23	6.672403e-04	-6.672403e-04
61            	1.328275e-03	6.591920e-04	6.690830e-04	9.891039e-06	4.907746e-06	4.983293e-06	-3.777397e-08	-4.945519e-06	6.641375e-04	-1.068977e-23	6.641375e-04	-6.641375e-04
62            	1.322789e-03	6.526052e-04	6.701838e-04	1.757866e-05	8.750183e-06	8.828476e-06	-3.914661e-08	-8.789330e-06	6.613945e-04	-1.053316e-23	6.613945e-04	-6.613945e-04
63            	1.318133e-03	6.463310e-04	6.718023e-04	2.547134e-05	1.269380e-05	1.277755e-05	-4.187516e-08	-1.273567e-05	6.590666e-04	-1.035797e-23	6.590666e-04	-6.590666e-04
64            	1.314279e-03	6.403619e-04	6.739173e-04	3.355535e-05	1.673118e-05	1.682417e-05	-4.649139e-08	-1.677768e-05	6.571396e-04	-1.017482e-23	6.571396e-04	-6.571396e-04
65            	1.311047e-03	6.346301e-04	6.764171e-04	4.178699e-05	2.084053e-05	2.094646e-05	-5.296823e-08	-2.089350e-05	6.555236e-04	-9.977676e-24	6.555236e-04	-6.555236e-04
66            	1.308193e-03	6.290106e-04	6.791829e-04	5.017237e-05	2.502527e-05	2.514710e-05	-6.091543e-08	-2.508618e-05	6.540967e-04	-9.775268e-24	6.540967e-04	-6.540967e-04
67            	1.305455e-03	6.233915e-04	6.820630e-04	5.867149e-05	2.926611e-05	2.940538e-05	-6.963759e-08	-2.933575e-05	6.527273e-04	-9.562001e-24	6.527273e-04	-6.527273e-04
68            	1.302655e-03	6.176759e-04	6.849788e-04	6.730281e-05	3.357316e-05	3.372966e-05	-7.824930e-08	-3.365141e-05	6.513274e-04	-9.347291e-24	6.513274e-04	-6.513274e-04
69            	1.299711e-03	6.118357e-04	6.878752e-04	7.603952e-05	3.793378e-05	3.810574e-05	-8.598070e-08	-3.801976e-05	6.498554e-04	-9.118540e-24	6.498554e-04	-6.498554e-04
70            	1.296663e-03	6.058768e-04	6.907866e-04	8.490984e-05	4.236252e-05	4.254732e-05	-9.240018e-08	-4.245492e-05	6.483317e-04	-8.886169e-24	6.483317e-04	-6.483317e-04
71            	1.293639e-03	5.998777e-04	6.937608e-04	9.388309e-05	4.684396e-05	4.703913e-05	-9.758803e-08	-4.694155e-05	6.468193e-04	-8.636425e-24	6.468193e-04	-6.468193e-04
72            	1.290820e-03	5.939237e-04	6.968965e-04	1.029728e-04	5.138431e-05	5.158853e-05	-1.021087e-07	-5.148642e-05	6.454101e-04	-8.382034e-24	6.454101e-04	-6.454101e-04
73            	1.288361e-03	5.881240e-04	7.002375e-04	1.121135e-04	5.594996e-05	5.616352e-05	-1.067804e-07	-5.605674e-05	6.441807e-04	-8.109046e-24	6.441807e-04	-6.441807e-04
74            	1.286368e-03	5.825198e-04	7.038478e-04	1.213280e-04	6.055165e-05	6.077632e-05	-1.123355e-07	-6.066399e-05	6.431838e-04	-7.832102e-24	6.431838e-04	-6.431838e-04
75            	1.284844e-03	5.771473e-04	7.076966e-04	1.305493e-04	6.515527e-05	6.539404e-05	-1.193863e-07	-6.527465e-05	6.424219e-04	-7.538489e-24	6.424219e-04	-6.424219e-04
76            	1.283725e-03	5.719641e-04	7.117612e-04	1.397970e-04	6.977059e-05	7.002645e-05	-1.279312e-07	-6.989852e-05	6.418626e-04	-7.293567e-24	6.418626e-04	-6.418626e-04
77            	1.282870e-03	5.669411e-04	7.159294e-04	1.489883e-04	7.435619e-05	7.463210e-05	-1.379575e-07	-7.449415e-05	6.414352e-04	-7.033663e-24	6.414352e-04	-6.414352e-04
78            	1.282131e-03	5.619868e-04	7.201439e-04	1.581571e-04	7.892978e-05	7.922735e-05	-1.487846e-07	-7.907857e-05	6.410653e-04	-6.779271e-24	6.410653e-04	-6.410653e-04
79            	1.281367e-03	5.570697e-04	7.242976e-04	1.672279e-04	8.345409e-05	8.377382e-05	-1.598676e-07	-8.361395e-05	6.406837e-04	-6.511457e-24	6.406837e-04	-6.406837e-04
80            	1.280510e-03	5.521360e-04	7.283739e-04	1.762380e-04	8.794842e-05	8.828955e-05	-1.705650e-07	-8.811899e-05	6.402549e-04	-6.253857e-24	6.402549e-04	-6.402549e-04
81            	1.279536e-03	5.472149e-04	7.323212e-04	1.851063e-04	9.237246e-05	9.273381e-05	-1.806772e-07	-9.255313e-05	6.397681e-04	-5.984974e-24	6.397681e-04	-6.397681e-04
82            	1.278501e-03	5.423142e-04	7.361871e-04	1.938729e-04	9.674631e-05	9.712658e-05	-1.901361e-07	-9.693644e-05	6.392506e-04	-5.729406e-24	6.392506e-04	-6.392506e-04
83            	1.277486e-03	5.375211e-04	7.399648e-04	2.024437e-04	1.010225e-04	1.014212e-04	-1.993700e-07	-1.012218e-04	6.387430e-04	-5.461507e-24	6.387430e-04	-6.387430e-04
84            	1.276595e-03	5.328703e-04	7.437242e-04	2.108539e-04	1.052185e-04	1.056354e-04	-2.084703e-07	-1.054269e-04	6.382973e-04	-5.207289e-24	6.382973e-04	-6.382973e-04
85            	1.275896e-03	5.284501e-04	7.474460e-04	2.189959e-04	1.092796e-04	1.097162e-04	-2.182908e-07	-1.094979e-04	6.379481e-04	-4.939181e-24	6.379481e-04	-6.379481e-04
86            	1.275439e-03	5.242671e-04	7.511716e-04	2.269046e-04	1.132238e-04	1.136807e-04	-2.284593e-07	-1.134523e-04	6.377193e-04	-4.686394e-24	6.377193e-04	-6.377193e-04
87            	1.275204e-03	5.203715e-04	7.548321e-04	2.344606e-04	1.169902e-04	1.174704e-04	-2.400968e-07	-1.172303e-04	6.376018e-04	-4.421060e-24	6.376018e-04	-6.376018e-04
88            	1.275151e-03	5.167225e-04	7.584285e-04	2.417060e-04	1.206013e-04	1.211047e-04	-2.516888e-07	-1.208530e-04	6.375755e-04	-4.173444e-24	6.375755e-04	-6.375755e-04
89            	1.275192e-03	5.133403e-04	7.618517e-04	2.485113e-04	1.239904e-04	1.245209e-04	-2.652767e-07	-1.242557e-04	6.375960e-04	-3.945539e-24	6.375960e-04	-6.375960e-04
90            	1.275268e-03	5.101682e-04	7.650997e-04	2.549316e-04	1.271883e-04	1.277432e-04	-2.774320e-07	-1.274658e-04	6.376339e-04	-3.735316e-24	6.376339e-04	-6.376339e-04
91            	1.275297e-03	5.072378e-04	7.680595e-04	2.608217e-04	1.301195e-04	1.307022e-04	-2.913748e-07	-1.304109e-04	6.376487e-04	-3.515305e-24	6.376487e-04	-6.376487e-04
92            	1.275273e-03	5.045096e-04	7.707634e-04	2.662538e-04	1.328244e-04	1.334293e-04	-3.024585e-07	-1.331269e-04	6.376365e-04	-3.313515e-24	6.376365e-04	-6.376365e-04
93            	1.275176e-03	5.020541e-04	7.731216e-04	2.710676e-04	1.352185e-04	1.358491e-04	-3.153150e-07	-1.355338e-04	6.375878e-04	-3.104148e-24	6.375878e-04	-6.375878e-04
94            	1.275063e-03	4.998609e-04	7.752025e-04	2.753416e-04	1.373461e-04	1.379955e-04	-3.246755e-07	-1.376708e-04	6.375317e-04	-2.914796e-24	6.375317e-04	-6.375317e-04
95            	1.274957e-03	4.980238e-04	7.769335e-04	2.789097e-04	1.391188e-04	1.397909e-04	-3.360674e-07	-1.394548e-04	6.374787e-04	-2.720967e-24	6.374787e-04	-6.374787e-04
96            	1.274929e-03	4.965370e-04	7.783923e-04	2.818553e-04	1.405837e-04	1.412716e-04	-3.439567e-07	-1.409277e-04	6.374646e-04	-2.548032e-24	6.374646e-04	-6.374646e-04
97            	1.274987e-03	4.954893e-04	7.794975e-04	2.840082e-04	1.416498e-04	1.423583e-04	-3.542505e-07	-1.420041e-04	6.374934e-04	-2.390356e-24	6.374934e-04	-6.374934e-04
98            	1.275165e-03	4.948515e-04	7.803135e-04	2.854620e-04	1.423697e-04	1.430923e-04	-3.613226e-07	-1.427310e-04	6.375825e-04	-2.299692e-24	6.375825e-04	-6.375825e-04
99            	1.275430e-03	4.946933e-04	7.807368e-04	2.860434e-04	1.426506e-04	1.433928e-04	-3.710700e-07	-1.430217e-04	6.377151e-04	-2.207446e-24	6.377151e-04	-6.377151e-04
100           	1.275772e-03	4.949629e-04	7.808094e-04	2.858465e-04	1.425459e-04	1.433006e-04	-3.773628e-07	-1.429232e-04	6.378862e-04	-2.141683e-24	6.378862e-04	-6.378862e-04
101           	1.276136e-03	4.957178e-04	7.804185e-04	2.847007e-04	1.419643e-04	1.427364e-04	-3.860600e-07	-1.423503e-04	6.380682e-04	-2.076813e-24	6.380682e-04	-6.380682e-04
102           	1.276506e-03	4.969025e-04	7.796038e-04	2.827013e-04	1.409599e-04	1.417415e-04	-3.907861e-07	-1.413507e-04	6.382532e-04	-2.037626e-24	6.382532e-04	-6.382532e-04
103           	1.276840e-03	4.985740e-04	7.782658e-04	2.796918e-04	1.394485e-04	1.402433e-04	-3.974307e-07	-1.398459e-04	6.384199e-04	-1.999974e-24	6.384199e-04	-6.384199e-04
104           	1.277145e-03	5.006837e-04	7.764613e-04	2.757776e-04	1.374892e-04	1.382885e-04	-3.996595e-07	-1.378888e-04	6.385725e-04	-1.990479e-24	6.385725e-04	-6.385725e-04
105           	1.277420e-03	5.033048e-04	7.741151e-04	2.708104e-04	1.350017e-04	1.358087e-04	-4.034798e-07	-1.354052e-04	6.387100e-04	-1.982618e-24	6.387100e-04	-6.387100e-04
106           	1.277697e-03	5.064043e-04	7.712923e-04	2.648880e-04	1.320413e-04	1.328467e-04	-4.027427e-07	-1.324440e-04	6.388483e-04	-2.003148e-24	6.388483e-04	-6.388483e-04
107           	1.277990e-03	5.100650e-04	7.679246e-04	2.578595e-04	1.285263e-04	1.293333e-04	-4.035210e-07	-1.289298e-04	6.389948e-04	-2.025255e-24	6.389948e-04	-6.389948e-04
108           	1.278330e-03	5.142445e-04	7.640858e-04	2.498413e-04	1.245209e-04	1.253203e-04	-3.997130e-07	-1.249206e-04	6.391652e-04	-2.075597e-24	6.391652e-04	-6.391652e-04
109           	1.278729e-03	5.190166e-04	7.597123e-04	2.406958e-04	1.199505e-04	1.207452e-04	-3.973311e-07	-1.203479e-04	6.393644e-04	-2.126270e-24	6.393644e-04	-6.393644e-04
110           	1.279205e-03	5.243320e-04	7.548727e-04	2.305407e-04	1.148800e-04	1.156607e-04	-3.903451e-07	-1.152704e-04	6.396023e-04	-2.203584e-24	6.396023e-04	-6.396023e-04
111           	1.279745e-03	5.302522e-04	7.494932e-04	2.192411e-04	1.092359e-04	1.100051e-04	-3.845775e-07	-1.096205e-04	6.398727e-04	-2.278661e-24	6.398727e-04	-6.398727e-04
112           	1.280341e-03	5.367090e-04	7.436321e-04	2.069231e-04	1.030876e-04	1.038356e-04	-3.740028e-07	-1.034616e-04	6.401706e-04	-2.378757e-24	6.401706e-04	-6.401706e-04
113           	1.280971e-03	5.437486e-04	7.372225e-04	1.934739e-04	9.637257e-05	9.710128e-05	-3.643583e-07	-9.673693e-05	6.404855e-04	-2.472994e-24	6.404855e-04	-6.404855e-04
114           	1.281628e-03	5.513018e-04	7.303260e-04	1.790242e-04	8.916249e-05	8.986170e-05	-3.496013e-07	-8.951209e-05	6.408139e-04	-2.601946e-24	6.408139e-04	-6.408139e-04
115           	1.282305e-03	5.594209e-04	7.228845e-04	1.634636e-04	8.139634e-05	8.206728e-05	-3.354701e-07	-8.173181e-05	6.411527e-04	-2.816069e-24	6.411527e-04	-6.411527e-04
116           	1.282996e-03	5.680284e-04	7.149673e-04	1.469389e-04	7.315350e-05	7.378545e-05	-3.159712e-07	-7.346947e-05	6.414979e-04	-3.064730e-24	6.414979e-04	-6.414979e-04
117           	1.283708e-03	5.771799e-04	7.065285e-04	1.293486e-04	6.437736e-05	6.497129e-05	-2.969662e-07	-6.467432e-05	6.418542e-04	-3.310971e-24	6.418542e-04	-6.418542e-04
118           	1.284447e-03	5.868069e-04	6.976405e-04	1.108336e-04	5.514425e-05	5.568934e-05	-2.725490e-07	-5.541679e-05	6.422237e-04	-3.590812e-24	6.422237e-04	-6.422237e-04
119           	1.285232e-03	5.969586e-04	6.882731e-04	9.131455e-05	4.540875e-05	4.590580e-05	-2.485272e-07	-4.565727e-05	6.426159e-04	-3.859219e-24	6.426159e-04	-6.426159e-04
120           	1.286063e-03	6.075662e-04	6.784973e-04	7.093110e-05	3.524634e-05	3.568476e-05	-2.192103e-07	-3.546555e-05	6.430317e-04	-4.159975e-24	6.430317e-04	-6.430317e-04
121           	1.286962e-03	6.186724e-04	6.682897e-04	4.961727e-05	2.461829e-05	2.499897e-05	-1.903402e-07	-2.480863e-05	6.434810e-04	-4.437793e-24	6.434810e-04	-6.434810e-04
122           	1.287916e-03	6.301995e-04	6.577161e-04	2.751661e-05	1.360205e-05	1.391456e-05	-1.562534e-07	-1.375831e-05	6.439578e-04	-4.745050e-24	6.439578e-04	-6.439578e-04
123           	1.288946e-03	6.421829e-04	6.467628e-04	4.579878e-06	2.167378e-06	2.412500e-06	-1.225607e-07	-2.289939e-06	6.444728e-04	-5.015790e-24	6.444728e-04	-6.444728e-04
124           	1.290026e-03	6.545400e-04	6.354857e-04	-1.905434e-05	-9.610888e-06	-9.443457e-06	-8.371540e-08	9.527172e-06	6.450129e-04	-5.307972e-24	6.450129e-04	-6.450129e-04
125           	1.291178e-03	6.672943e-04	6.238833e-04	-4.341103e-05	-2.175076e-05	-2.166027e-05	-4.524610e-08	2.170551e-05	6.455888e-04	-5.647698e-24	6.455888e-04	-6.455888e-04
126           	1.292374e-03	6.803652e-04	6.120089e-04	-6.835632e-05	-3.417951e-05	-3.417682e-05	-1.345041e-09	3.417816e-05	6.461871e-04	-6.149129e-24	6.461871e-04	-6.461871e-04
127           	1.293650e-03	6.937757e-04	5.998742e-04	-9.390154e-05	-4.690814e-05	-4.699340e-05	4.263197e-08	4.695077e-05	6.468249e-04	-6.595633e-24	6.468249e-04	-6.468249e-04
128           	1.294973e-03	7.074491e-04	5.875240e-04	-1.199250e-04	-5.987061e-05	-6.005443e-05	9.190746e-08	5.996252e-05	6.474866e-04	-7.065456e-24	6.474866e-04	-6.474866e-04
129           	1.296382e-03	7.214016e-04	5.749807e-04	-1.464210e-04	-7.306960e-05	-7.335136e-05	1.408795e-07	7.321048e-05	6.481911e-04	-7.472306e-24	6.481911e-04	-6.481911e-04
130           	1.297843e-03	7.355552e-04	5.622879e-04	-1.732672e-04	-8.643901e-05	-8.682823e-05	1.946098e-07	8.663362e-05	6.489215e-04	-7.891955e-24	6.489215e-04	-6.489215e-04
131           	1.299407e-03	7.499261e-04	5.494810e-04	-2.004452e-04	-9.997474e-05	-1.004704e-04	2.478399e-07	1.002226e-04	6.497035e-04	-8.333514e-24	6.497035e-04	-6.497035e-04
132           	1.301027e-03	7.644344e-04	5.365929e-04	-2.278414e-04	-1.136150e-04	-1.142264e-04	3.057229e-07	1.139207e-04	6.505137e-04	-9.022256e-24	6.505137e-04	-6.505137e-04
133           	1.302762e-03	7.790880e-04	5.236736e-04	-2.554144e-04	-1.273433e-04	-1.280710e-04	3.638331e-07	1.277072e-04	6.513808e-04	-9.630579e-24	6.513808e-04	-6.513808e-04
134           	1.304554e-03	7.938048e-04	5.107495e-04	-2.830552e-04	-1.411012e-04	-1.419541e-04	4.264462e-07	1.415276e-04	6.522771e-04	-1.025976e-23	6.522771e-04	-6.522771e-04
135           	1.306460e-03	8.085922e-04	4.978675e-04	-3.107247e-04	-1.548737e-04	-1.558510e-04	4.886550e-07	1.553623e-04	6.532298e-04	-1.081776e-23	6.532298e-04	-6.532298e-04
136           	1.308414e-03	8.233662e-04	4.850480e-04	-3.383182e-04	-1.686046e-04	-1.697136e-04	5.545035e-07	1.691591e-04	6.542071e-04	-1.136575e-23	6.542071e-04	-6.542071e-04
137           	1.310473e-03	8.381262e-04	4.723466e-04	-3.657797e-04	-1.822696e-04	-1.835101e-04	6.202405e-07	1.828898e-04	6.552364e-04	-1.181237e-23	6.552364e-04	-6.552364e-04
138           	1.312566e-03	8.527833e-04	4.597823e-04	-3.930010e-04	-1.958106e-04	-1.971904e-04	6.899187e-07	1.965005e-04	6.562828e-04	-1.227262e-23	6.562828e-04	-6.562828e-04
139           	1.314773e-03	8.673469e-04	4.474257e-04	-4.199213e-04	-2.092020e-04	-2.107193e-04	7.586755e-07	2.099606e-04	6.573863e-04	-1.264204e-23	6.573863e-04	-6.573863e-04
140           	1.317020e-03	8.817319e-04	4.352884e-04	-4.464435e-04	-2.223918e-04	-2.240516e-04	8.298971e-07	2.232217e-04	6.585101e-04	-1.301007e-23	6.585101e-04	-6.585101e-04
141           	1.319386e-03	8.959464e-04	4.234399e-04	-4.725065e-04	-2.353532e-04	-2.371533e-04	9.000297e-07	2.362532e-04	6.596932e-04	-1.326483e-23	6.596932e-04	-6.596932e-04
142           	1.321787e-03	9.098940e-04	4.118929e-04	-4.980011e-04	-2.480270e-04	-2.499741e-04	9.735623e-07	2.490005e-04	6.608935e-04	-1.348937e-23	6.608935e-04	-6.608935e-04
143           	1.324318e-03	9.235952e-04	4.007227e-04	-5.228725e-04	-2.603912e-04	-2.624813e-04	1.045082e-06	2.614363e-04	6.621589e-04	-1.355050e-23	6.621589e-04	-6.621589e-04
144           	1.326882e-03	9.369560e-04	3.899261e-04	-5.470299e-04	-2.723964e-04	-2.746335e-04	1.118514e-06	2.735149e-04	6.634410e-04	-1.434997e-23	6.634410e-04	-6.634410e-04
145           	1.329564e-03	9.499855e-04	3.795787e-04	-5.704068e-04	-2.840133e-04	-2.863935e-04	1.190131e-06	2.852034e-04	6.647821e-04	-1.514192e-23	6.647821e-04	-6.647821e-04
146           	1.332267e-03	9.625882e-04	3.696791e-04	-5.929091e-04	-2.951912e-04	-2.977179e-04	1.263329e-06	2.964546e-04	6.661336e-04	-1.587362e-23	6.661336e-04	-6.661336e-04
147           	1.335083e-03	9.747793e-04	3.603040e-04	-6.144753e-04	-3.059032e-04	-3.085722e-04	1.334496e-06	3.072377e-04	6.675416e-04	-1.639440e-23	6.675416e-04	-6.675416e-04
148           	1.337925e-03	9.864715e-04	3.514533e-04	-6.350182e-04	-3.161024e-04	-3.189158e-04	1.406662e-06	3.175091e-04	6.689624e-04	-1.692565e-23	6.689624e-04	-6.689624e-04
149           	1.340870e-03	9.976803e-04	3.431901e-04	-6.544902e-04	-3.257689e-04	-3.287213e-04	1.476173e-06	3.272451e-04	6.704352e-04	-1.718149e-23	6.704352e-04	-6.704352e-04
150           	1.343865e-03	1.008336e-03	3.355297e-04	-6.728062e-04	-3.348570e-04	-3.379492e-04	1.546092e-06	3.364031e-04	6.719327e-04	-1.742558e-23	6.719327e-04	-6.719327e-04
151           	1.346927e-03	1.018424e-03	3.285030e-04	-6.899211e-04	-3.433467e-04	-3.465744e-04	1.613835e-06	3.449605e-04	6.734635e-04	-1.759588e-23	6.734635e-04	-6.734635e-04
152           	1.350039e-03	1.027908e-03	3.221306e-04	-7.057776e-04	-3.512076e-04	-3.545701e-04	1.681272e-06	3.528888e-04	6.750194e-04	-1.777429e-23	6.750194e-04	-6.750194e-04
153           	1.353200e-03	1.036763e-03	3.164370e-04	-7.203255e-04	-3.584165e-04	-3.619090e-04	1.746291e-06	3.601628e-04	6.765998e-04	-1.802977e-23	6.765998e-04	-6.765998e-04
154           	1.356399e-03	1.044958e-03	3.114407e-04	-7.335173e-04	-3.649482e-04	-3.685691e-04	1.810488e-06	3.667587e-04	6.781994e-04	-1.831224e-23	6.781994e-04	-6.781994e-04
155           	1.359637e-03	1.052469e-03	3.071680e-04	-7.453013e-04	-3.707786e-04	-3.745227e-04	1.872055e-06	3.726507e-04	6.798186e-04	-1.844434e-23	6.798186e-04	-6.798186e-04
156           	1.362906e-03	1.059269e-03	3.036364e-04	-7.556328e-04	-3.758840e-04	-3.797488e-04	1.932396e-06	3.778164e-04	6.814528e-04	-1.863477e-23	6.814528e-04	-6.814528e-04
157           	1.366177e-03	1.065320e-03	3.008565e-04	-7.644637e-04	-3.802432e-04	-3.842205e-04	1.988636e-06	3.822318e-04	6.830883e-04	-1.873834e-23	6.830883e-04	-6.830883e-04
158           	1.369451e-03	1.070606e-03	2.988446e-04	-7.717619e-04	-3.838379e-04	-3.879240e-04	2.043015e-06	3.858810e-04	6.847255e-04	-1.882534e-23	6.847255e-04	-6.847255e-04
159           	1.372721e-03	1.075107e-03	2.976140e-04	-7.774928e-04	-3.866536e-04	-3.908393e-04	2.092849e-06	3.887464e-04	6.863604e-04	-1.883342e-23	6.863604e-04	-6.863604e-04
160           	1.375948e-03	1.078786e-03	2.971626e-04	-7.816232e-04	-3.886714e-04	-3.929518e-04	2.140202e-06	3.908116e-04	6.879742e-04	-1.883635e-23	6.879742e-04	-6.879742e-04
161           	1.379117e-03	1.081619e-03	2.974977e-04	-7.841218e-04	-3.898789e-04	-3.942429e-04	2.182010e-06	3.920609e-04	6.895586e-04	-1.875658e-23	6.895586e-04	-6.895586e-04
162           	1.382226e-03	1.083588e-03	2.986374e-04	-7.849510e-04	-3.902543e-04	-3.946968e-04	2.221266e-06	3.924755e-04	6.911129e-04	-1.865574e-23	6.911129e-04	-6.911129e-04
163           	1.385251e-03	1.084678e-03	3.005726e-04	-7.841057e-04	-3.897989e-04	-3.943068e-04	2.253970e-06	3.920528e-04	6.926254e-04	-1.849484e-23	6.926254e-04	-6.926254e-04
164           	1.388188e-03	1.084866e-03	3.033222e-04	-7.815440e-04	-3.884884e-04	-3.930555e-04	2.283566e-06	3.907720e-04	6.940941e-04	-1.833658e-23	6.940941e-04	-6.940941e-04
165           	1.391015e-03	1.084148e-03	3.068675e-04	-7.772801e-04	-3.863346e-04	-3.909455e-04	2.305471e-06	3.886401e-04	6.955076e-04	-1.809191e-23	6.955076e-04	-6.955076e-04
166           	1.393726e-03	1.082504e-03	3.112217e-04	-7.712826e-04	-3.833171e-04	-3.879655e-04	2.324214e-06	3.856413e-04	6.968630e-04	-1.785169e-23	6.968630e-04	-6.968630e-04