/*--------------------------------*- C++ -*----------------------------------*\
| =========                 |                                                 |
| \\      /  F ield         | OpenFOAM: The Open Source CFD Toolbox           |
|  \\    /   O peration     | Version:  2312                                  |
|   \\  /    A nd           | Website:  www.openfoam.com                      |
|    \\/     M anipulation  |                                                 |
\*---------------------------------------------------------------------------*/
FoamFile
{
    version     2.0;
    format      ascii;
    arch        "LSB;label=32;scalar=64";
    class       volScalarField;
    location    "1900";
    object      nut;
}
// * * * * * * * * * * * * * * * * * * * * * * * * * * * * * * * * * * * * * //

dimensions      [0 2 -1 0 0 0 0];

internalField   nonuniform List<scalar> 
76025
(
6.21431e-06
6.21137e-06
6.20714e-06
6.201e-06
6.19702e-06
6.19372e-06
6.19129e-06
6.19138e-06
6.19534e-06
6.20062e-06
6.20511e-06
6.20887e-06
6.21251e-06
6.21498e-06
6.2159e-06
6.21505e-06
6.21342e-06
6.21071e-06
6.20675e-06
6.20265e-06
6.19838e-06
6.19548e-06
6.19104e-06
6.18509e-06
6.18038e-06
6.17832e-06
6.17445e-06
6.17129e-06
6.16844e-06
6.1655e-06
6.1642e-06
6.16196e-06
6.16117e-06
6.1606e-06
6.15971e-06
6.15913e-06
6.15801e-06
6.16031e-06
6.16156e-06
6.16247e-06
6.16134e-06
6.15857e-06
6.15555e-06
6.15092e-06
6.1454e-06
6.13795e-06
6.12996e-06
6.12287e-06
6.1141e-06
6.10806e-06
6.10384e-06
6.10152e-06
6.10582e-06
6.11155e-06
6.11622e-06
6.1223e-06
6.12618e-06
6.12704e-06
6.12293e-06
6.11236e-06
6.09548e-06
6.07326e-06
6.04659e-06
6.01626e-06
5.98194e-06
5.95046e-06
5.92028e-06
5.87986e-06
5.84934e-06
6.19153e-06
6.19213e-06
6.19192e-06
6.19011e-06
6.18755e-06
6.18427e-06
6.18029e-06
6.17662e-06
6.17472e-06
6.17478e-06
6.17618e-06
6.17825e-06
6.18052e-06
6.18346e-06
6.18698e-06
6.19095e-06
6.19492e-06
6.19793e-06
6.19924e-06
6.19819e-06
6.19568e-06
6.19278e-06
6.189e-06
6.18424e-06
6.17896e-06
6.17371e-06
6.16834e-06
6.16301e-06
6.15774e-06
6.15254e-06
6.1474e-06
6.14243e-06
6.13773e-06
6.13337e-06
6.12926e-06
6.12521e-06
6.12104e-06
6.11677e-06
6.11239e-06
6.10793e-06
6.10331e-06
6.09863e-06
6.09448e-06
6.09123e-06
6.08906e-06
6.08806e-06
6.08808e-06
6.09226e-06
6.09798e-06
6.10405e-06
6.10997e-06
6.1151e-06
6.11876e-06
6.12018e-06
6.1188e-06
6.11355e-06
6.10372e-06
6.08896e-06
6.0693e-06
6.04531e-06
6.01766e-06
5.98725e-06
5.95525e-06
5.92285e-06
5.89142e-06
5.86094e-06
5.83203e-06
5.8026e-06
5.77603e-06
6.166e-06
6.1654e-06
6.16528e-06
6.16514e-06
6.16466e-06
6.16374e-06
6.16215e-06
6.15976e-06
6.15701e-06
6.15451e-06
6.15265e-06
6.15152e-06
6.15105e-06
6.15148e-06
6.15285e-06
6.15497e-06
6.15764e-06
6.16058e-06
6.16341e-06
6.16591e-06
6.1679e-06
6.16915e-06
6.16956e-06
6.16907e-06
6.16771e-06
6.16542e-06
6.16217e-06
6.15826e-06
6.15398e-06
6.1494e-06
6.14453e-06
6.13953e-06
6.13446e-06
6.12943e-06
6.12452e-06
6.11971e-06
6.11506e-06
6.11065e-06
6.10662e-06
6.10312e-06
6.09985e-06
6.09759e-06
6.0984e-06
6.10072e-06
6.10352e-06
6.10634e-06
6.10881e-06
6.11062e-06
6.11145e-06
6.11087e-06
6.10845e-06
6.10373e-06
6.09624e-06
6.08554e-06
6.07126e-06
6.05323e-06
6.03149e-06
6.00634e-06
5.97837e-06
5.94841e-06
5.91745e-06
5.88652e-06
5.85655e-06
5.82815e-06
5.80142e-06
5.77568e-06
5.75035e-06
5.72145e-06
5.68793e-06
6.14488e-06
6.1418e-06
6.13949e-06
6.13783e-06
6.13662e-06
6.13567e-06
6.1348e-06
6.13381e-06
6.13245e-06
6.13073e-06
6.12881e-06
6.12686e-06
6.12501e-06
6.12338e-06
6.12216e-06
6.12148e-06
6.12142e-06
6.12198e-06
6.12309e-06
6.12458e-06
6.12629e-06
6.12812e-06
6.12993e-06
6.13146e-06
6.13255e-06
6.13316e-06
6.13325e-06
6.13278e-06
6.13176e-06
6.13017e-06
6.12807e-06
6.12548e-06
6.12245e-06
6.11897e-06
6.11501e-06
6.11102e-06
6.10744e-06
6.10446e-06
6.10252e-06
6.10142e-06
6.10057e-06
6.09964e-06
6.09848e-06
6.09693e-06
6.09478e-06
6.0918e-06
6.08775e-06
6.08237e-06
6.07536e-06
6.0664e-06
6.05517e-06
6.04133e-06
6.02465e-06
6.00499e-06
5.98242e-06
5.95722e-06
5.92994e-06
5.90131e-06
5.87219e-06
5.84346e-06
5.81589e-06
5.79001e-06
5.76592e-06
5.7432e-06
5.72087e-06
5.69709e-06
5.67035e-06
5.63586e-06
5.59181e-06
6.12638e-06
6.12198e-06
6.11789e-06
6.11425e-06
6.11109e-06
6.10841e-06
6.10619e-06
6.10433e-06
6.10267e-06
6.10106e-06
6.09942e-06
6.09772e-06
6.09591e-06
6.09401e-06
6.09208e-06
6.09021e-06
6.0885e-06
6.08702e-06
6.08586e-06
6.08506e-06
6.08461e-06
6.0845e-06
6.08467e-06
6.08507e-06
6.08554e-06
6.08591e-06
6.08616e-06
6.08625e-06
6.08609e-06
6.08556e-06
6.08457e-06
6.08307e-06
6.08101e-06
6.07829e-06
6.07479e-06
6.07099e-06
6.06736e-06
6.06372e-06
6.05982e-06
6.05561e-06
6.05129e-06
6.04724e-06
6.04308e-06
6.03825e-06
6.03238e-06
6.02518e-06
6.01645e-06
6.00596e-06
5.99348e-06
5.97877e-06
5.96169e-06
5.94217e-06
5.92025e-06
5.89627e-06
5.87074e-06
5.84434e-06
5.81791e-06
5.79223e-06
5.7679e-06
5.7453e-06
5.72447e-06
5.70502e-06
5.68606e-06
5.66618e-06
5.64356e-06
5.61567e-06
5.58067e-06
5.5337e-06
5.4725e-06
6.10653e-06
6.10214e-06
6.09767e-06
6.09319e-06
6.0888e-06
6.08461e-06
6.0807e-06
6.07713e-06
6.0739e-06
6.07099e-06
6.06834e-06
6.06586e-06
6.06348e-06
6.06114e-06
6.05881e-06
6.05648e-06
6.05414e-06
6.05179e-06
6.04948e-06
6.04724e-06
6.04513e-06
6.04315e-06
6.04133e-06
6.03968e-06
6.03816e-06
6.03673e-06
6.03531e-06
6.03383e-06
6.03222e-06
6.03045e-06
6.02841e-06
6.02602e-06
6.02316e-06
6.01978e-06
6.01575e-06
6.01099e-06
6.00568e-06
5.99995e-06
5.99364e-06
5.98661e-06
5.97902e-06
5.97098e-06
5.96235e-06
5.9529e-06
5.94243e-06
5.93077e-06
5.91773e-06
5.90309e-06
5.88663e-06
5.86831e-06
5.84821e-06
5.82646e-06
5.80341e-06
5.77999e-06
5.75688e-06
5.73469e-06
5.71422e-06
5.69557e-06
5.67856e-06
5.66271e-06
5.64717e-06
5.63071e-06
5.61172e-06
5.58827e-06
5.55821e-06
5.51903e-06
5.46912e-06
5.40404e-06
5.32068e-06
6.08215e-06
6.07845e-06
6.07456e-06
6.07044e-06
6.06609e-06
6.06159e-06
6.05702e-06
6.05245e-06
6.04796e-06
6.04362e-06
6.03948e-06
6.03555e-06
6.03182e-06
6.02826e-06
6.02484e-06
6.02152e-06
6.01825e-06
6.01501e-06
6.01177e-06
6.00853e-06
6.00529e-06
6.00205e-06
5.99881e-06
5.99558e-06
5.99236e-06
5.98913e-06
5.98586e-06
5.9825e-06
5.97903e-06
5.97539e-06
5.97151e-06
5.96732e-06
5.96276e-06
5.95779e-06
5.95237e-06
5.94638e-06
5.93967e-06
5.93223e-06
5.92411e-06
5.9152e-06
5.90536e-06
5.89461e-06
5.88301e-06
5.87055e-06
5.85713e-06
5.84265e-06
5.82691e-06
5.80973e-06
5.79106e-06
5.77107e-06
5.75005e-06
5.72815e-06
5.70586e-06
5.68405e-06
5.66341e-06
5.64561e-06
5.63146e-06
5.61875e-06
5.60613e-06
5.59237e-06
5.57603e-06
5.55552e-06
5.52903e-06
5.49468e-06
5.45061e-06
5.39469e-06
5.32586e-06
5.23981e-06
5.13434e-06
6.05191e-06
6.04887e-06
6.04569e-06
6.04231e-06
6.03869e-06
6.03483e-06
6.03071e-06
6.02634e-06
6.02176e-06
6.01701e-06
6.01216e-06
6.00728e-06
6.00243e-06
5.99763e-06
5.99291e-06
5.98827e-06
5.98371e-06
5.97922e-06
5.97477e-06
5.97034e-06
5.9659e-06
5.96144e-06
5.95692e-06
5.95235e-06
5.9477e-06
5.94296e-06
5.93812e-06
5.93315e-06
5.92802e-06
5.92268e-06
5.91709e-06
5.9112e-06
5.90496e-06
5.89832e-06
5.89122e-06
5.88365e-06
5.87553e-06
5.86675e-06
5.85724e-06
5.84699e-06
5.83593e-06
5.82396e-06
5.81105e-06
5.79725e-06
5.78255e-06
5.76682e-06
5.74989e-06
5.73175e-06
5.71248e-06
5.69223e-06
5.67129e-06
5.64985e-06
5.62915e-06
5.61028e-06
5.59302e-06
5.57831e-06
5.56612e-06
5.55325e-06
5.53793e-06
5.51865e-06
5.49392e-06
5.46224e-06
5.4221e-06
5.37203e-06
5.31059e-06
5.23606e-06
5.14765e-06
5.04065e-06
4.91503e-06
6.01585e-06
6.01323e-06
6.01047e-06
6.00756e-06
6.0045e-06
6.00127e-06
5.99785e-06
5.99421e-06
5.99032e-06
5.98616e-06
5.98173e-06
5.97705e-06
5.97214e-06
5.96703e-06
5.96177e-06
5.95639e-06
5.95093e-06
5.9454e-06
5.93984e-06
5.93425e-06
5.92862e-06
5.92294e-06
5.91719e-06
5.91137e-06
5.90544e-06
5.89939e-06
5.8932e-06
5.88684e-06
5.88028e-06
5.87351e-06
5.86647e-06
5.85913e-06
5.85146e-06
5.84339e-06
5.83491e-06
5.82595e-06
5.81649e-06
5.80649e-06
5.79589e-06
5.78464e-06
5.77271e-06
5.76006e-06
5.74661e-06
5.73236e-06
5.71725e-06
5.70112e-06
5.68395e-06
5.6658e-06
5.64659e-06
5.62661e-06
5.60648e-06
5.58633e-06
5.567e-06
5.54892e-06
5.53122e-06
5.51488e-06
5.4979e-06
5.47775e-06
5.45287e-06
5.42197e-06
5.38386e-06
5.33739e-06
5.28146e-06
5.21488e-06
5.13641e-06
5.04419e-06
4.9373e-06
4.8099e-06
4.66373e-06
5.97484e-06
5.97235e-06
5.96973e-06
5.96697e-06
5.96407e-06
5.96103e-06
5.95788e-06
5.9546e-06
5.95118e-06
5.94759e-06
5.9438e-06
5.93977e-06
5.93549e-06
5.93093e-06
5.9261e-06
5.92099e-06
5.91563e-06
5.91002e-06
5.90419e-06
5.89816e-06
5.89195e-06
5.88556e-06
5.879e-06
5.87228e-06
5.86539e-06
5.85833e-06
5.85107e-06
5.84361e-06
5.83592e-06
5.828e-06
5.81979e-06
5.81129e-06
5.80247e-06
5.79329e-06
5.78372e-06
5.77371e-06
5.76322e-06
5.75222e-06
5.74069e-06
5.7286e-06
5.71591e-06
5.70259e-06
5.68857e-06
5.67375e-06
5.65808e-06
5.64144e-06
5.62378e-06
5.60515e-06
5.58559e-06
5.56538e-06
5.5447e-06
5.52354e-06
5.50229e-06
5.48052e-06
5.45711e-06
5.4324e-06
5.40512e-06
5.37331e-06
5.33572e-06
5.29133e-06
5.23925e-06
5.17854e-06
5.10817e-06
5.02682e-06
4.93292e-06
4.82393e-06
4.69853e-06
4.54864e-06
4.38003e-06
5.93027e-06
5.92758e-06
5.92479e-06
5.92188e-06
5.91884e-06
5.91567e-06
5.91237e-06
5.90895e-06
5.90544e-06
5.90183e-06
5.89812e-06
5.89428e-06
5.89029e-06
5.88613e-06
5.88175e-06
5.87714e-06
5.87227e-06
5.86712e-06
5.86168e-06
5.85595e-06
5.84992e-06
5.8436e-06
5.837e-06
5.83011e-06
5.82294e-06
5.81549e-06
5.80775e-06
5.79972e-06
5.79139e-06
5.78275e-06
5.77378e-06
5.76447e-06
5.75479e-06
5.74472e-06
5.73424e-06
5.72329e-06
5.71185e-06
5.69989e-06
5.68738e-06
5.67428e-06
5.66056e-06
5.64613e-06
5.63092e-06
5.61482e-06
5.59773e-06
5.57955e-06
5.56029e-06
5.53983e-06
5.51813e-06
5.49537e-06
5.47128e-06
5.44551e-06
5.41805e-06
5.38851e-06
5.35606e-06
5.31986e-06
5.2796e-06
5.23548e-06
5.18577e-06
5.12936e-06
5.06531e-06
4.99244e-06
4.90933e-06
4.81412e-06
4.70444e-06
4.57678e-06
4.42953e-06
4.25226e-06
4.05883e-06
5.88332e-06
5.88012e-06
5.87688e-06
5.87354e-06
5.87011e-06
5.86655e-06
5.86287e-06
5.85907e-06
5.85514e-06
5.8511e-06
5.84695e-06
5.8427e-06
5.83835e-06
5.8339e-06
5.82932e-06
5.82459e-06
5.8197e-06
5.81462e-06
5.80931e-06
5.80375e-06
5.79792e-06
5.7918e-06
5.78536e-06
5.77859e-06
5.77147e-06
5.764e-06
5.75617e-06
5.74795e-06
5.73934e-06
5.73032e-06
5.72087e-06
5.71098e-06
5.70062e-06
5.68978e-06
5.67843e-06
5.66652e-06
5.65402e-06
5.64091e-06
5.62713e-06
5.61263e-06
5.59733e-06
5.58115e-06
5.56396e-06
5.5457e-06
5.52622e-06
5.50539e-06
5.48315e-06
5.45932e-06
5.4337e-06
5.40616e-06
5.37647e-06
5.34422e-06
5.30894e-06
5.27056e-06
5.22876e-06
5.18278e-06
5.13207e-06
5.07605e-06
5.01405e-06
4.94619e-06
4.87082e-06
4.78577e-06
4.68885e-06
4.57726e-06
4.44769e-06
4.29586e-06
4.12094e-06
3.91341e-06
3.70263e-06
5.83385e-06
5.83007e-06
5.82627e-06
5.82239e-06
5.81842e-06
5.81435e-06
5.81015e-06
5.80583e-06
5.80137e-06
5.79676e-06
5.79201e-06
5.78711e-06
5.78207e-06
5.7769e-06
5.7716e-06
5.76617e-06
5.76059e-06
5.75487e-06
5.74898e-06
5.74289e-06
5.73659e-06
5.73005e-06
5.72324e-06
5.71613e-06
5.70868e-06
5.70088e-06
5.69269e-06
5.68407e-06
5.67501e-06
5.66546e-06
5.65541e-06
5.6448e-06
5.63363e-06
5.62187e-06
5.60948e-06
5.5964e-06
5.5826e-06
5.56803e-06
5.55262e-06
5.5363e-06
5.51899e-06
5.50057e-06
5.48094e-06
5.45998e-06
5.43758e-06
5.4135e-06
5.38759e-06
5.35974e-06
5.32969e-06
5.29705e-06
5.26155e-06
5.22307e-06
5.18123e-06
5.13547e-06
5.08526e-06
5.03017e-06
4.97002e-06
4.9041e-06
4.83119e-06
4.74977e-06
4.65846e-06
4.5567e-06
4.44094e-06
4.30679e-06
4.15005e-06
3.96684e-06
3.76051e-06
3.5299e-06
3.33837e-06
5.7799e-06
5.77563e-06
5.77134e-06
5.76697e-06
5.7625e-06
5.75791e-06
5.75321e-06
5.74837e-06
5.74338e-06
5.73823e-06
5.73291e-06
5.72741e-06
5.72172e-06
5.71584e-06
5.70976e-06
5.70349e-06
5.69703e-06
5.69036e-06
5.6835e-06
5.67642e-06
5.66912e-06
5.66157e-06
5.65376e-06
5.64566e-06
5.63724e-06
5.62847e-06
5.6193e-06
5.6097e-06
5.59964e-06
5.58905e-06
5.57791e-06
5.56616e-06
5.55379e-06
5.54073e-06
5.52695e-06
5.51237e-06
5.49694e-06
5.4806e-06
5.46326e-06
5.44486e-06
5.42528e-06
5.40441e-06
5.38214e-06
5.35834e-06
5.33282e-06
5.3054e-06
5.27593e-06
5.24415e-06
5.20975e-06
5.17244e-06
5.13196e-06
5.08786e-06
5.03959e-06
4.98667e-06
4.92865e-06
4.86482e-06
4.79422e-06
4.71582e-06
4.62844e-06
4.53036e-06
4.41938e-06
4.29327e-06
4.15054e-06
3.98538e-06
3.794e-06
3.57613e-06
3.34684e-06
3.12401e-06
3.03675e-06
5.71826e-06
5.71365e-06
5.70901e-06
5.70429e-06
5.69945e-06
5.69448e-06
5.68936e-06
5.68409e-06
5.67866e-06
5.67306e-06
5.66726e-06
5.66127e-06
5.65505e-06
5.6486e-06
5.64191e-06
5.63497e-06
5.62776e-06
5.62028e-06
5.61253e-06
5.60448e-06
5.59614e-06
5.58749e-06
5.57852e-06
5.5692e-06
5.55951e-06
5.54942e-06
5.53891e-06
5.52792e-06
5.51643e-06
5.50439e-06
5.49173e-06
5.47844e-06
5.46445e-06
5.44972e-06
5.43417e-06
5.41774e-06
5.40034e-06
5.3819e-06
5.36233e-06
5.34154e-06
5.3194e-06
5.29579e-06
5.27058e-06
5.2436e-06
5.21467e-06
5.18358e-06
5.15011e-06
5.11396e-06
5.07481e-06
5.03231e-06
4.986e-06
4.93533e-06
4.87972e-06
4.81846e-06
4.75062e-06
4.67528e-06
4.59139e-06
4.49724e-06
4.39053e-06
4.26953e-06
4.1326e-06
3.97683e-06
3.79881e-06
3.59527e-06
3.36953e-06
3.13337e-06
2.91862e-06
2.7826e-06
2.9696e-06
5.6455e-06
5.64059e-06
5.63567e-06
5.63065e-06
5.62551e-06
5.62023e-06
5.6148e-06
5.60919e-06
5.6034e-06
5.59741e-06
5.59121e-06
5.58478e-06
5.57812e-06
5.5712e-06
5.564e-06
5.55652e-06
5.54872e-06
5.54061e-06
5.53215e-06
5.52333e-06
5.51414e-06
5.50456e-06
5.49456e-06
5.48413e-06
5.47325e-06
5.46187e-06
5.44999e-06
5.43755e-06
5.42452e-06
5.41085e-06
5.3965e-06
5.38142e-06
5.36555e-06
5.34882e-06
5.33116e-06
5.3125e-06
5.29274e-06
5.27177e-06
5.24951e-06
5.22581e-06
5.20054e-06
5.17356e-06
5.14468e-06
5.11372e-06
5.08044e-06
5.04458e-06
5.00586e-06
4.96393e-06
4.9184e-06
4.86879e-06
4.81454e-06
4.75501e-06
4.68938e-06
4.61666e-06
4.53576e-06
4.44534e-06
4.34355e-06
4.22809e-06
4.09664e-06
3.94683e-06
3.777e-06
3.58575e-06
3.37233e-06
3.13944e-06
2.9038e-06
2.69719e-06
2.58582e-06
2.69964e-06
3.55561e-06
5.55851e-06
5.55319e-06
5.54786e-06
5.54245e-06
5.53692e-06
5.53125e-06
5.52542e-06
5.51942e-06
5.51322e-06
5.50681e-06
5.50018e-06
5.49329e-06
5.48615e-06
5.47872e-06
5.47099e-06
5.46295e-06
5.45455e-06
5.4458e-06
5.43665e-06
5.42709e-06
5.4171e-06
5.40664e-06
5.39568e-06
5.38421e-06
5.37218e-06
5.35956e-06
5.34631e-06
5.33239e-06
5.31776e-06
5.30236e-06
5.28614e-06
5.26905e-06
5.25103e-06
5.23198e-06
5.21183e-06
5.19047e-06
5.16781e-06
5.14371e-06
5.11805e-06
5.09067e-06
5.0614e-06
5.03005e-06
4.99639e-06
4.96019e-06
4.92114e-06
4.87892e-06
4.83315e-06
4.7834e-06
4.72916e-06
4.66984e-06
4.60475e-06
4.53306e-06
4.45375e-06
4.36555e-06
4.26696e-06
4.1561e-06
4.03057e-06
3.8875e-06
3.72461e-06
3.54094e-06
3.33617e-06
3.11373e-06
2.88092e-06
2.654e-06
2.47012e-06
2.38945e-06
2.56354e-06
3.35174e-06
6.17258e-06
5.45416e-06
5.4482e-06
5.44222e-06
5.43616e-06
5.42999e-06
5.42369e-06
5.41723e-06
5.4106e-06
5.40377e-06
5.39673e-06
5.38945e-06
5.38192e-06
5.3741e-06
5.36597e-06
5.35752e-06
5.34871e-06
5.33953e-06
5.32994e-06
5.31991e-06
5.30941e-06
5.29842e-06
5.28689e-06
5.27479e-06
5.26207e-06
5.2487e-06
5.23463e-06
5.2198e-06
5.20417e-06
5.18767e-06
5.17023e-06
5.15181e-06
5.13233e-06
5.1117e-06
5.08983e-06
5.0666e-06
5.0419e-06
5.0156e-06
4.98754e-06
4.95756e-06
4.92546e-06
4.89104e-06
4.85404e-06
4.81418e-06
4.77115e-06
4.72459e-06
4.67407e-06
4.61911e-06
4.55916e-06
4.49357e-06
4.42157e-06
4.34223e-06
4.25445e-06
4.15682e-06
4.04762e-06
3.92492e-06
3.78648e-06
3.62981e-06
3.45321e-06
3.25646e-06
3.04294e-06
2.81818e-06
2.59513e-06
2.39095e-06
2.23824e-06
2.21019e-06
2.46699e-06
3.45655e-06
6.50226e-06
1.59248e-05
5.3278e-06
5.32098e-06
5.31412e-06
5.30717e-06
5.30008e-06
5.29284e-06
5.28544e-06
5.27786e-06
5.27007e-06
5.26205e-06
5.25379e-06
5.24525e-06
5.2364e-06
5.22723e-06
5.2177e-06
5.20778e-06
5.19744e-06
5.18664e-06
5.17535e-06
5.16353e-06
5.15114e-06
5.13813e-06
5.12446e-06
5.11008e-06
5.09492e-06
5.07892e-06
5.06203e-06
5.04416e-06
5.02524e-06
5.00521e-06
4.98399e-06
4.96147e-06
4.93755e-06
4.91211e-06
4.885e-06
4.85607e-06
4.82515e-06
4.79206e-06
4.75657e-06
4.71844e-06
4.67741e-06
4.63315e-06
4.58532e-06
4.53352e-06
4.47728e-06
4.41608e-06
4.3493e-06
4.27621e-06
4.19594e-06
4.10739e-06
4.00925e-06
3.89991e-06
3.7775e-06
3.63993e-06
3.48559e-06
3.31328e-06
3.12298e-06
2.91766e-06
2.70231e-06
2.48894e-06
2.28625e-06
2.11613e-06
2.01889e-06
2.07307e-06
2.48802e-06
3.81647e-06
7.82691e-06
1.92504e-05
4.42806e-05
5.17138e-06
5.1636e-06
5.15573e-06
5.1477e-06
5.13951e-06
5.13111e-06
5.12252e-06
5.1137e-06
5.10463e-06
5.09531e-06
5.08569e-06
5.07577e-06
5.0655e-06
5.05486e-06
5.04381e-06
5.03233e-06
5.02036e-06
5.00788e-06
4.99483e-06
4.98117e-06
4.96685e-06
4.95181e-06
4.936e-06
4.91934e-06
4.90176e-06
4.88319e-06
4.86355e-06
4.84274e-06
4.82066e-06
4.79724e-06
4.77236e-06
4.74589e-06
4.71769e-06
4.68759e-06
4.65544e-06
4.62103e-06
4.58414e-06
4.54454e-06
4.50194e-06
4.45604e-06
4.40649e-06
4.3529e-06
4.29482e-06
4.23172e-06
4.16301e-06
4.08798e-06
4.00577e-06
3.9153e-06
3.81528e-06
3.70418e-06
3.58025e-06
3.4418e-06
3.28751e-06
3.11672e-06
2.93122e-06
2.73378e-06
2.52892e-06
2.32844e-06
2.13694e-06
1.97068e-06
1.85658e-06
1.84566e-06
2.04867e-06
2.7475e-06
4.75797e-06
1.05493e-05
2.57662e-05
5.4643e-05
8.89366e-05
4.97159e-06
4.96279e-06
4.95383e-06
4.94466e-06
4.93523e-06
4.92554e-06
4.91558e-06
4.90532e-06
4.89474e-06
4.88383e-06
4.87256e-06
4.86091e-06
4.84884e-06
4.83632e-06
4.82331e-06
4.80978e-06
4.79569e-06
4.78097e-06
4.76559e-06
4.74948e-06
4.73258e-06
4.71482e-06
4.69614e-06
4.67644e-06
4.65564e-06
4.63364e-06
4.61033e-06
4.5856e-06
4.55937e-06
4.5315e-06
4.50185e-06
4.47025e-06
4.43652e-06
4.40045e-06
4.36181e-06
4.32034e-06
4.27577e-06
4.22778e-06
4.17602e-06
4.12008e-06
4.05954e-06
3.99385e-06
3.92243e-06
3.84454e-06
3.75931e-06
3.66568e-06
3.56235e-06
3.44784e-06
3.32076e-06
3.17985e-06
3.02445e-06
2.85518e-06
2.67471e-06
2.48615e-06
2.29895e-06
2.11512e-06
1.94255e-06
1.79277e-06
1.68828e-06
1.66469e-06
1.79559e-06
2.25561e-06
3.50725e-06
6.91606e-06
1.60855e-05
3.67469e-05
6.90447e-05
0.000102
0.000120231
4.70772e-06
4.69779e-06
4.68764e-06
4.67718e-06
4.6664e-06
4.65528e-06
4.64379e-06
4.63191e-06
4.61962e-06
4.6069e-06
4.59372e-06
4.58006e-06
4.56586e-06
4.55111e-06
4.53575e-06
4.51974e-06
4.50304e-06
4.48557e-06
4.46729e-06
4.44813e-06
4.428e-06
4.40684e-06
4.38453e-06
4.361e-06
4.33612e-06
4.30977e-06
4.28182e-06
4.25216e-06
4.22063e-06
4.18706e-06
4.15125e-06
4.11299e-06
4.07205e-06
4.02817e-06
3.98107e-06
3.93042e-06
3.87587e-06
3.81701e-06
3.75338e-06
3.68444e-06
3.60954e-06
3.52793e-06
3.4387e-06
3.34077e-06
3.23295e-06
3.11417e-06
2.98324e-06
2.83971e-06
2.68463e-06
2.52022e-06
2.34879e-06
2.17621e-06
2.00956e-06
1.85e-06
1.70618e-06
1.58769e-06
1.51342e-06
1.50609e-06
1.63425e-06
2.01572e-06
2.96698e-06
5.36841e-06
1.16107e-05
2.64584e-05
5.32608e-05
8.66705e-05
0.000114697
0.000124397
0.000111957
4.34808e-06
4.3367e-06
4.32504e-06
4.31301e-06
4.30058e-06
4.28771e-06
4.27439e-06
4.26057e-06
4.24625e-06
4.23138e-06
4.21593e-06
4.19986e-06
4.18313e-06
4.1657e-06
4.14751e-06
4.12851e-06
4.10864e-06
4.08784e-06
4.06602e-06
4.0431e-06
4.01899e-06
3.9936e-06
3.96681e-06
3.93849e-06
3.90851e-06
3.87674e-06
3.84304e-06
3.80724e-06
3.76915e-06
3.72858e-06
3.68529e-06
3.63899e-06
3.58939e-06
3.53613e-06
3.47883e-06
3.41705e-06
3.35027e-06
3.27792e-06
3.19931e-06
3.11367e-06
3.02014e-06
2.91782e-06
2.8059e-06
2.68365e-06
2.55104e-06
2.4098e-06
2.26145e-06
2.10842e-06
1.95849e-06
1.81416e-06
1.67702e-06
1.55172e-06
1.44722e-06
1.37451e-06
1.34796e-06
1.38994e-06
1.55717e-06
1.94767e-06
2.8027e-06
4.75703e-06
9.49164e-06
2.06716e-05
4.25696e-05
7.34544e-05
0.000103967
0.000123479
0.00012222
0.000110041
9.32142e-05
3.84431e-06
3.83117e-06
3.81768e-06
3.80376e-06
3.78936e-06
3.77444e-06
3.75899e-06
3.74295e-06
3.72631e-06
3.70901e-06
3.69102e-06
3.67229e-06
3.65278e-06
3.63242e-06
3.61115e-06
3.58892e-06
3.56564e-06
3.54124e-06
3.51563e-06
3.48872e-06
3.46039e-06
3.43053e-06
3.399e-06
3.36567e-06
3.33038e-06
3.29296e-06
3.25326e-06
3.21103e-06
3.166e-06
3.1179e-06
3.06641e-06
3.01116e-06
2.95177e-06
2.88777e-06
2.81866e-06
2.74387e-06
2.6628e-06
2.57487e-06
2.47944e-06
2.37616e-06
2.26485e-06
2.14604e-06
2.02167e-06
1.89354e-06
1.76447e-06
1.64461e-06
1.53009e-06
1.42403e-06
1.3299e-06
1.25553e-06
1.20766e-06
1.18935e-06
1.22798e-06
1.34588e-06
1.58885e-06
2.0466e-06
2.92175e-06
4.69638e-06
8.52474e-06
1.69991e-05
3.41011e-05
6.07645e-05
9.0683e-05
0.000114154
0.000122018
0.000119414
0.000108921
9.26219e-05
8.10907e-05
3.1288e-06
3.11386e-06
3.09855e-06
3.08274e-06
3.06642e-06
3.04953e-06
3.03204e-06
3.01392e-06
2.99513e-06
2.97562e-06
2.95536e-06
2.93429e-06
2.91235e-06
2.88949e-06
2.86565e-06
2.84075e-06
2.81471e-06
2.78745e-06
2.75888e-06
2.7289e-06
2.69739e-06
2.66424e-06
2.62931e-06
2.59246e-06
2.5535e-06
2.51223e-06
2.46834e-06
2.42154e-06
2.37153e-06
2.31796e-06
2.2605e-06
2.19879e-06
2.13248e-06
2.06127e-06
1.98495e-06
1.90343e-06
1.81682e-06
1.7256e-06
1.63041e-06
1.5327e-06
1.43452e-06
1.34019e-06
1.25745e-06
1.1824e-06
1.11893e-06
1.0699e-06
1.03884e-06
1.02481e-06
1.04115e-06
1.10893e-06
1.23522e-06
1.44394e-06
1.77909e-06
2.32917e-06
3.27045e-06
4.94572e-06
8.10999e-06
1.43411e-05
2.6172e-05
4.5774e-05
7.12019e-05
9.40793e-05
0.000107276
0.000113019
0.000112401
0.000104554
9.14978e-05
8.32299e-05
7.50244e-05
2.15086e-06
2.13599e-06
2.1208e-06
2.10519e-06
2.08913e-06
2.07257e-06
2.0555e-06
2.03788e-06
2.01968e-06
2.00086e-06
1.98139e-06
1.96123e-06
1.94033e-06
1.91865e-06
1.89613e-06
1.87272e-06
1.84836e-06
1.82298e-06
1.79652e-06
1.76889e-06
1.74002e-06
1.70982e-06
1.67817e-06
1.64485e-06
1.60938e-06
1.57158e-06
1.53128e-06
1.48841e-06
1.44291e-06
1.39492e-06
1.34456e-06
1.29207e-06
1.2378e-06
1.18224e-06
1.12607e-06
1.07018e-06
1.01565e-06
9.64859e-07
9.19783e-07
8.82614e-07
8.55057e-07
8.39079e-07
8.36603e-07
8.5101e-07
8.95132e-07
9.66771e-07
1.075e-06
1.226e-06
1.43299e-06
1.71703e-06
2.11435e-06
2.6852e-06
3.55174e-06
4.95912e-06
7.38795e-06
1.15038e-05
1.82332e-05
2.89228e-05
4.30782e-05
5.78686e-05
7.23616e-05
8.45958e-05
9.27719e-05
9.52985e-05
9.11619e-05
8.36904e-05
8.16911e-05
7.76077e-05
7.21835e-05
1.03429e-06
1.02519e-06
1.01595e-06
1.00654e-06
9.96931e-07
9.87122e-07
9.77096e-07
9.6684e-07
9.56339e-07
9.45582e-07
9.34554e-07
9.2324e-07
9.11618e-07
8.99669e-07
8.87371e-07
8.74702e-07
8.6164e-07
8.48161e-07
8.34255e-07
8.19901e-07
8.05081e-07
7.89775e-07
7.74011e-07
7.57934e-07
7.41854e-07
7.25957e-07
7.10443e-07
6.95535e-07
6.81498e-07
6.68649e-07
6.57398e-07
6.48255e-07
6.41783e-07
6.38638e-07
6.39567e-07
6.45401e-07
6.57236e-07
6.88695e-07
7.32201e-07
7.9018e-07
8.62502e-07
9.5052e-07
1.05565e-06
1.17955e-06
1.32448e-06
1.49152e-06
1.68117e-06
1.89713e-06
2.1562e-06
2.50873e-06
3.05311e-06
3.85256e-06
4.93504e-06
6.62663e-06
9.58604e-06
1.25913e-05
1.4203e-05
1.59924e-05
1.87341e-05
2.68433e-05
3.94923e-05
4.86821e-05
5.29042e-05
5.72096e-05
6.0292e-05
6.57476e-05
6.86921e-05
6.73428e-05
6.28353e-05
3.52401e-07
3.59129e-07
3.6588e-07
3.72639e-07
3.79402e-07
3.86168e-07
3.92937e-07
3.99709e-07
4.06486e-07
4.13269e-07
4.20063e-07
4.26872e-07
4.33703e-07
4.40566e-07
4.4747e-07
4.5443e-07
4.6146e-07
4.68579e-07
4.765e-07
4.85391e-07
4.95498e-07
5.07001e-07
5.20071e-07
5.34876e-07
5.51604e-07
5.7046e-07
5.91668e-07
6.15468e-07
6.42112e-07
6.7185e-07
7.04913e-07
7.41484e-07
7.81647e-07
8.25328e-07
8.72204e-07
9.21599e-07
9.72377e-07
1.02299e-06
1.07089e-06
1.11305e-06
1.14598e-06
1.16634e-06
1.17211e-06
1.16453e-06
1.1478e-06
1.11291e-06
1.07158e-06
1.04343e-06
1.06156e-06
1.22094e-06
1.65094e-06
1.83743e-06
1.49511e-06
1.17706e-06
1.06902e-06
1.30829e-06
1.42841e-06
1.7566e-06
2.60325e-06
4.2578e-06
6.93824e-06
1.02472e-05
1.33775e-05
1.6351e-05
1.90233e-05
2.16233e-05
2.23452e-05
2.0695e-05
1.72364e-05
3.19288e-07
3.28967e-07
3.38823e-07
3.48859e-07
3.59052e-07
3.6937e-07
3.79782e-07
3.90256e-07
4.00757e-07
4.11249e-07
4.21694e-07
4.3205e-07
4.4227e-07
4.52304e-07
4.62097e-07
4.71587e-07
4.80704e-07
4.89357e-07
4.96647e-07
5.02443e-07
5.06564e-07
5.08945e-07
5.0952e-07
5.08213e-07
5.04927e-07
4.99541e-07
4.91908e-07
4.81858e-07
4.69205e-07
4.53752e-07
4.35308e-07
4.13708e-07
3.88835e-07
3.60663e-07
3.29299e-07
2.95032e-07
2.58383e-07
2.2014e-07
1.81382e-07
1.4346e-07
1.07941e-07
7.65116e-08
5.08062e-08
3.19199e-08
1.96282e-08
1.33358e-08
1.11737e-08
1.10146e-08
1.15857e-08
1.87724e-08
5.3918e-08
7.83769e-08
6.52416e-08
5.35195e-08
5.11235e-08
5.52043e-08
5.81186e-08
6.64062e-08
8.44335e-08
9.96372e-08
9.48178e-08
7.21167e-08
9.90149e-08
1.30172e-07
1.59291e-07
1.8194e-07
1.80106e-07
1.54121e-07
1.08196e-07
6.08876e-06
6.08852e-06
6.08711e-06
6.08628e-06
6.08455e-06
6.08165e-06
6.07889e-06
6.08123e-06
6.08566e-06
6.09224e-06
6.10102e-06
6.11285e-06
6.12364e-06
6.12512e-06
6.12075e-06
6.11969e-06
6.11946e-06
6.11828e-06
6.12166e-06
6.14732e-06
6.17114e-06
6.16998e-06
6.16579e-06
6.17955e-06
6.17821e-06
6.1659e-06
6.16561e-06
6.17924e-06
6.19117e-06
6.20234e-06
6.22491e-06
6.2164e-06
6.21549e-06
6.21734e-06
6.22855e-06
6.22764e-06
6.22032e-06
6.20816e-06
6.20677e-06
6.21286e-06
6.2279e-06
6.23857e-06
6.2412e-06
6.2481e-06
6.24887e-06
6.24854e-06
6.24454e-06
6.2389e-06
6.23495e-06
6.23098e-06
6.22669e-06
6.22288e-06
6.22023e-06
6.21802e-06
6.21692e-06
6.21632e-06
6.21525e-06
6.21505e-06
6.2154e-06
6.06921e-06
6.06774e-06
6.06602e-06
6.06444e-06
6.06274e-06
6.06181e-06
6.0633e-06
6.06857e-06
6.07567e-06
6.08439e-06
6.09405e-06
6.10302e-06
6.10749e-06
6.10591e-06
6.10298e-06
6.10248e-06
6.10241e-06
6.10364e-06
6.1145e-06
6.13946e-06
6.15658e-06
6.15513e-06
6.15461e-06
6.16669e-06
6.16431e-06
6.15275e-06
6.15209e-06
6.16425e-06
6.17613e-06
6.18728e-06
6.20812e-06
6.20506e-06
6.20153e-06
6.20161e-06
6.21037e-06
6.21322e-06
6.20873e-06
6.1986e-06
6.19252e-06
6.19267e-06
6.2016e-06
6.21353e-06
6.22045e-06
6.22588e-06
6.2299e-06
6.23168e-06
6.23012e-06
6.22582e-06
6.22116e-06
6.2171e-06
6.21303e-06
6.20875e-06
6.20455e-06
6.20082e-06
6.19743e-06
6.19471e-06
6.19255e-06
6.19126e-06
6.19093e-06
6.04283e-06
6.04206e-06
6.04157e-06
6.04169e-06
6.04286e-06
6.04586e-06
6.05119e-06
6.05844e-06
6.06662e-06
6.07501e-06
6.08241e-06
6.08728e-06
6.08812e-06
6.08602e-06
6.08432e-06
6.08439e-06
6.08572e-06
6.09135e-06
6.10699e-06
6.129e-06
6.14091e-06
6.14003e-06
6.14243e-06
6.15265e-06
6.14951e-06
6.13883e-06
6.13786e-06
6.14858e-06
6.16012e-06
6.17126e-06
6.19005e-06
6.19166e-06
6.18752e-06
6.18568e-06
6.19158e-06
6.19629e-06
6.19485e-06
6.18746e-06
6.17984e-06
6.17559e-06
6.17796e-06
6.18658e-06
6.19542e-06
6.2019e-06
6.20703e-06
6.21069e-06
6.21181e-06
6.21e-06
6.20627e-06
6.20215e-06
6.19809e-06
6.19398e-06
6.18971e-06
6.18545e-06
6.18121e-06
6.17712e-06
6.17338e-06
6.17009e-06
6.16746e-06
6.01785e-06
6.01904e-06
6.02086e-06
6.02372e-06
6.02788e-06
6.03353e-06
6.04039e-06
6.0478e-06
6.05498e-06
6.06116e-06
6.06552e-06
6.06747e-06
6.06694e-06
6.06545e-06
6.06492e-06
6.0662e-06
6.07026e-06
6.08017e-06
6.09765e-06
6.11589e-06
6.12416e-06
6.12442e-06
6.12884e-06
6.13729e-06
6.13361e-06
6.1238e-06
6.12257e-06
6.13191e-06
6.14293e-06
6.15397e-06
6.17091e-06
6.17594e-06
6.17266e-06
6.16938e-06
6.17238e-06
6.17724e-06
6.17823e-06
6.17379e-06
6.16684e-06
6.16046e-06
6.15772e-06
6.16092e-06
6.1679e-06
6.17492e-06
6.18085e-06
6.1856e-06
6.18866e-06
6.1894e-06
6.18787e-06
6.18489e-06
6.18125e-06
6.17737e-06
6.17334e-06
6.16922e-06
6.165e-06
6.16071e-06
6.15643e-06
6.15222e-06
6.14826e-06
5.99766e-06
6.00083e-06
6.00467e-06
6.0094e-06
6.01498e-06
6.0212e-06
6.02759e-06
6.03359e-06
6.03867e-06
6.04241e-06
6.04458e-06
6.04519e-06
6.0447e-06
6.04429e-06
6.0452e-06
6.04853e-06
6.05582e-06
6.06866e-06
6.08577e-06
6.10031e-06
6.10631e-06
6.10796e-06
6.11363e-06
6.12049e-06
6.11645e-06
6.10747e-06
6.10599e-06
6.11405e-06
6.12442e-06
6.13522e-06
6.15058e-06
6.15794e-06
6.15633e-06
6.15238e-06
6.15278e-06
6.15657e-06
6.15892e-06
6.15707e-06
6.15193e-06
6.14547e-06
6.13994e-06
6.13815e-06
6.14089e-06
6.14612e-06
6.15181e-06
6.15698e-06
6.16107e-06
6.16359e-06
6.16423e-06
6.16315e-06
6.16082e-06
6.15774e-06
6.15423e-06
6.1505e-06
6.14665e-06
6.1427e-06
6.13866e-06
6.13456e-06
6.13041e-06
5.98091e-06
5.98514e-06
5.98978e-06
5.99488e-06
6.00023e-06
6.00551e-06
6.01038e-06
6.01449e-06
6.01765e-06
6.01979e-06
6.021e-06
6.02151e-06
6.02182e-06
6.02277e-06
6.02555e-06
6.03144e-06
6.04147e-06
6.05561e-06
6.07107e-06
6.08244e-06
6.08729e-06
6.09031e-06
6.09661e-06
6.10206e-06
6.09782e-06
6.08962e-06
6.08793e-06
6.09478e-06
6.10444e-06
6.11485e-06
6.12884e-06
6.13767e-06
6.13804e-06
6.13423e-06
6.13261e-06
6.13465e-06
6.13721e-06
6.13721e-06
6.13413e-06
6.12887e-06
6.12272e-06
6.11786e-06
6.11621e-06
6.11785e-06
6.1215e-06
6.12585e-06
6.12999e-06
6.13329e-06
6.13532e-06
6.13593e-06
6.1352e-06
6.13342e-06
6.13087e-06
6.12785e-06
6.12455e-06
6.1211e-06
6.11758e-06
6.114e-06
6.11027e-06
5.96388e-06
5.9681e-06
5.97241e-06
5.97678e-06
5.981e-06
5.98488e-06
5.98822e-06
5.99095e-06
5.99307e-06
5.99467e-06
5.9959e-06
5.99699e-06
5.99841e-06
6.00103e-06
6.00605e-06
6.01435e-06
6.02611e-06
6.04014e-06
6.05343e-06
6.06239e-06
6.06686e-06
6.07107e-06
6.07757e-06
6.08179e-06
6.0775e-06
6.07003e-06
6.06816e-06
6.07391e-06
6.08278e-06
6.09268e-06
6.10544e-06
6.11508e-06
6.11739e-06
6.11441e-06
6.11152e-06
6.11162e-06
6.11346e-06
6.11435e-06
6.11297e-06
6.10937e-06
6.10405e-06
6.09823e-06
6.09367e-06
6.09157e-06
6.09193e-06
6.09401e-06
6.09689e-06
6.0998e-06
6.10218e-06
6.10367e-06
6.10413e-06
6.10357e-06
6.10214e-06
6.10003e-06
6.09746e-06
6.09459e-06
6.09157e-06
6.08849e-06
6.08527e-06
5.94322e-06
5.94678e-06
5.95023e-06
5.95358e-06
5.9567e-06
5.95951e-06
5.96199e-06
5.96415e-06
5.96607e-06
5.96785e-06
5.96962e-06
5.97164e-06
5.97448e-06
5.97907e-06
5.98625e-06
5.99632e-06
6.00868e-06
6.02168e-06
6.0328e-06
6.04013e-06
6.04473e-06
6.04986e-06
6.05623e-06
6.05943e-06
6.05519e-06
6.04842e-06
6.0464e-06
6.05114e-06
6.05918e-06
6.06848e-06
6.0801e-06
6.09004e-06
6.09403e-06
6.09235e-06