/*--------------------------------*- C++ -*----------------------------------*\
| =========                 |                                                 |
| \\      /  F ield         | OpenFOAM: The Open Source CFD Toolbox           |
|  \\    /   O peration     | Version:  2312                                  |
|   \\  /    A nd           | Website:  www.openfoam.com                      |
|    \\/     M anipulation  |                                                 |
\*---------------------------------------------------------------------------*/
FoamFile
{
    version     2.0;
    format      ascii;
    arch        "LSB;label=32;scalar=64";
    class       volScalarField;
    location    "1900";
    object      nuTilda;
}
// * * * * * * * * * * * * * * * * * * * * * * * * * * * * * * * * * * * * * //

dimensions      [0 2 -1 0 0 0 0];

internalField   nonuniform List<scalar> 
76025
(
4.02707e-05
4.02653e-05
4.02576e-05
4.02463e-05
4.0239e-05
4.0233e-05
4.02285e-05
4.02287e-05
4.0236e-05
4.02456e-05
4.02539e-05
4.02608e-05
4.02674e-05
4.0272e-05
4.02737e-05
4.02721e-05
4.02691e-05
4.02642e-05
4.02569e-05
4.02494e-05
4.02415e-05
4.02362e-05
4.02281e-05
4.02171e-05
4.02085e-05
4.02047e-05
4.01976e-05
4.01917e-05
4.01865e-05
4.01811e-05
4.01787e-05
4.01746e-05
4.01731e-05
4.01721e-05
4.01704e-05
4.01694e-05
4.01673e-05
4.01715e-05
4.01738e-05
4.01755e-05
4.01734e-05
4.01683e-05
4.01628e-05
4.01542e-05
4.0144e-05
4.01303e-05
4.01155e-05
4.01024e-05
4.00862e-05
4.0075e-05
4.00672e-05
4.00629e-05
4.00709e-05
4.00815e-05
4.00901e-05
4.01014e-05
4.01086e-05
4.01101e-05
4.01025e-05
4.0083e-05
4.00517e-05
4.00105e-05
3.99608e-05
3.99042e-05
3.98399e-05
3.97808e-05
3.97239e-05
3.96474e-05
3.95894e-05
4.02289e-05
4.02301e-05
4.02297e-05
4.02263e-05
4.02217e-05
4.02156e-05
4.02083e-05
4.02016e-05
4.01981e-05
4.01982e-05
4.02008e-05
4.02046e-05
4.02087e-05
4.02141e-05
4.02206e-05
4.02279e-05
4.02352e-05
4.02407e-05
4.02431e-05
4.02412e-05
4.02366e-05
4.02313e-05
4.02243e-05
4.02156e-05
4.02059e-05
4.01962e-05
4.01863e-05
4.01765e-05
4.01668e-05
4.01572e-05
4.01477e-05
4.01386e-05
4.01299e-05
4.01218e-05
4.01142e-05
4.01068e-05
4.0099e-05
4.00912e-05
4.00831e-05
4.00748e-05
4.00662e-05
4.00576e-05
4.00499e-05
4.00438e-05
4.00398e-05
4.00379e-05
4.0038e-05
4.00457e-05
4.00564e-05
4.00676e-05
4.00786e-05
4.00881e-05
4.00948e-05
4.00975e-05
4.00949e-05
4.00852e-05
4.0067e-05
4.00396e-05
4.00031e-05
3.99584e-05
3.99068e-05
3.98499e-05
3.97898e-05
3.97287e-05
3.96693e-05
3.96114e-05
3.95564e-05
3.95002e-05
3.94493e-05
4.0182e-05
4.01809e-05
4.01807e-05
4.01804e-05
4.01795e-05
4.01779e-05
4.01749e-05
4.01705e-05
4.01655e-05
4.01609e-05
4.01574e-05
4.01553e-05
4.01545e-05
4.01553e-05
4.01578e-05
4.01617e-05
4.01666e-05
4.0172e-05
4.01772e-05
4.01819e-05
4.01855e-05
4.01878e-05
4.01886e-05
4.01877e-05
4.01852e-05
4.0181e-05
4.0175e-05
4.01678e-05
4.01599e-05
4.01514e-05
4.01424e-05
4.01332e-05
4.01239e-05
4.01146e-05
4.01055e-05
4.00966e-05
4.0088e-05
4.00798e-05
4.00724e-05
4.00659e-05
4.00598e-05
4.00556e-05
4.00571e-05
4.00614e-05
4.00666e-05
4.00718e-05
4.00764e-05
4.00798e-05
4.00813e-05
4.00802e-05
4.00757e-05
4.0067e-05
4.00531e-05
4.00333e-05
4.00067e-05
3.99732e-05
3.99327e-05
3.98857e-05
3.98332e-05
3.97769e-05
3.97185e-05
3.966e-05
3.96031e-05
3.9549e-05
3.9498e-05
3.94486e-05
3.94e-05
3.93443e-05
3.92795e-05
4.01431e-05
4.01374e-05
4.01331e-05
4.01301e-05
4.01278e-05
4.01261e-05
4.01245e-05
4.01226e-05
4.01201e-05
4.0117e-05
4.01134e-05
4.01098e-05
4.01064e-05
4.01034e-05
4.01011e-05
4.00999e-05
4.00998e-05
4.01008e-05
4.01028e-05
4.01056e-05
4.01088e-05
4.01121e-05
4.01155e-05
4.01183e-05
4.01203e-05
4.01215e-05
4.01216e-05
4.01208e-05
4.01189e-05
4.01159e-05
4.0112e-05
4.01073e-05
4.01017e-05
4.00952e-05
4.00879e-05
4.00805e-05
4.00739e-05
4.00684e-05
4.00648e-05
4.00627e-05
4.00612e-05
4.00594e-05
4.00573e-05
4.00544e-05
4.00504e-05
4.00449e-05
4.00374e-05
4.00274e-05
4.00144e-05
3.99977e-05
3.99768e-05
3.9951e-05
3.99199e-05
3.98831e-05
3.98408e-05
3.97935e-05
3.97421e-05
3.9688e-05
3.96328e-05
3.95782e-05
3.95256e-05
3.94761e-05
3.94299e-05
3.93862e-05
3.93432e-05
3.92973e-05
3.92454e-05
3.91784e-05
3.90924e-05
4.01089e-05
4.01008e-05
4.00932e-05
4.00865e-05
4.00806e-05
4.00757e-05
4.00716e-05
4.00681e-05
4.0065e-05
4.00621e-05
4.0059e-05
4.00559e-05
4.00525e-05
4.0049e-05
4.00454e-05
4.00419e-05
4.00388e-05
4.0036e-05
4.00339e-05
4.00324e-05
4.00315e-05
4.00313e-05
4.00317e-05
4.00324e-05
4.00333e-05
4.0034e-05
4.00344e-05
4.00346e-05
4.00343e-05
4.00333e-05
4.00315e-05
4.00287e-05
4.00249e-05
4.00198e-05
4.00133e-05
4.00062e-05
3.99995e-05
3.99927e-05
3.99855e-05
3.99776e-05
3.99696e-05
3.9962e-05
3.99543e-05
3.99453e-05
3.99343e-05
3.99209e-05
3.99046e-05
3.98849e-05
3.98616e-05
3.9834e-05
3.98019e-05
3.97651e-05
3.97238e-05
3.96785e-05
3.96301e-05
3.95799e-05
3.95295e-05
3.94804e-05
3.94337e-05
3.93903e-05
3.93502e-05
3.93126e-05
3.92759e-05
3.92374e-05
3.91934e-05
3.9139e-05
3.90705e-05
3.89782e-05
3.88572e-05
4.00722e-05
4.00641e-05
4.00558e-05
4.00475e-05
4.00393e-05
4.00316e-05
4.00243e-05
4.00177e-05
4.00117e-05
4.00063e-05
4.00013e-05
3.99967e-05
3.99923e-05
3.99879e-05
3.99836e-05
3.99793e-05
3.99749e-05
3.99705e-05
3.99662e-05
3.9962e-05
3.99581e-05
3.99544e-05
3.9951e-05
3.99479e-05
3.99451e-05
3.99424e-05
3.99398e-05
3.9937e-05
3.9934e-05
3.99307e-05
3.99269e-05
3.99224e-05
3.99171e-05
3.99108e-05
3.99033e-05
3.98944e-05
3.98844e-05
3.98737e-05
3.98619e-05
3.98487e-05
3.98345e-05
3.98194e-05
3.98031e-05
3.97854e-05
3.97657e-05
3.97437e-05
3.97191e-05
3.96914e-05
3.96602e-05
3.96254e-05
3.95872e-05
3.95458e-05
3.95018e-05
3.94569e-05
3.94126e-05
3.93699e-05
3.93304e-05
3.92943e-05
3.92614e-05
3.92306e-05
3.92004e-05
3.91683e-05
3.91313e-05
3.90854e-05
3.90265e-05
3.89493e-05
3.88505e-05
3.87208e-05
3.85531e-05
4.0027e-05
4.00201e-05
4.00129e-05
4.00052e-05
3.99971e-05
3.99888e-05
3.99803e-05
3.99717e-05
3.99634e-05
3.99553e-05
3.99476e-05
3.99402e-05
3.99333e-05
3.99266e-05
3.99202e-05
3.9914e-05
3.99079e-05
3.99019e-05
3.98958e-05
3.98897e-05
3.98837e-05
3.98776e-05
3.98716e-05
3.98655e-05
3.98595e-05
3.98534e-05
3.98473e-05
3.9841e-05
3.98345e-05
3.98276e-05
3.98204e-05
3.98125e-05
3.98039e-05
3.97946e-05
3.97844e-05
3.97731e-05
3.97605e-05
3.97464e-05
3.97311e-05
3.97143e-05
3.96957e-05
3.96753e-05
3.96533e-05
3.96297e-05
3.96042e-05
3.95767e-05
3.95466e-05
3.95138e-05
3.94781e-05
3.94398e-05
3.93994e-05
3.93573e-05
3.93142e-05
3.9272e-05
3.9232e-05
3.91974e-05
3.91698e-05
3.9145e-05
3.91204e-05
3.90934e-05
3.90614e-05
3.90212e-05
3.8969e-05
3.89011e-05
3.88137e-05
3.8702e-05
3.85636e-05
3.83889e-05
3.81723e-05
3.99707e-05
3.99651e-05
3.99591e-05
3.99528e-05
3.99461e-05
3.99389e-05
3.99312e-05
3.99231e-05
3.99145e-05
3.99056e-05
3.98965e-05
3.98874e-05
3.98783e-05
3.98693e-05
3.98605e-05
3.98518e-05
3.98433e-05
3.98348e-05
3.98265e-05
3.98182e-05
3.98098e-05
3.98014e-05
3.97929e-05
3.97843e-05
3.97756e-05
3.97666e-05
3.97575e-05
3.97482e-05
3.97385e-05
3.97284e-05
3.97178e-05
3.97067e-05
3.96949e-05
3.96823e-05
3.96689e-05
3.96545e-05
3.96391e-05
3.96225e-05
3.96044e-05
3.95849e-05
3.95639e-05
3.9541e-05
3.95164e-05
3.949e-05
3.94618e-05
3.94317e-05
3.93991e-05
3.93642e-05
3.9327e-05
3.92879e-05
3.92473e-05
3.92056e-05
3.91653e-05
3.91285e-05
3.90947e-05
3.90659e-05
3.9042e-05
3.90167e-05
3.89865e-05
3.89485e-05
3.88996e-05
3.88368e-05
3.87569e-05
3.86566e-05
3.85328e-05
3.83813e-05
3.81998e-05
3.79775e-05
3.77126e-05
3.99034e-05
3.98985e-05
3.98934e-05
3.98879e-05
3.98822e-05
3.98762e-05
3.98698e-05
3.98629e-05
3.98556e-05
3.98478e-05
3.98395e-05
3.98308e-05
3.98215e-05
3.98119e-05
3.98021e-05
3.97919e-05
3.97817e-05
3.97712e-05
3.97608e-05
3.97502e-05
3.97396e-05
3.97289e-05
3.9718e-05
3.9707e-05
3.96958e-05
3.96844e-05
3.96726e-05
3.96606e-05
3.96482e-05
3.96353e-05
3.96219e-05
3.9608e-05
3.95934e-05
3.95781e-05
3.95619e-05
3.95448e-05
3.95268e-05
3.95077e-05
3.94874e-05
3.94658e-05
3.9443e-05
3.94187e-05
3.93928e-05
3.93654e-05
3.93362e-05
3.93051e-05
3.92718e-05
3.92366e-05
3.91993e-05
3.91603e-05
3.91211e-05
3.90816e-05
3.90437e-05
3.90082e-05
3.89733e-05
3.89411e-05
3.89075e-05
3.88676e-05
3.88182e-05
3.87566e-05
3.86803e-05
3.85869e-05
3.84737e-05
3.8338e-05
3.81766e-05
3.79849e-05
3.77599e-05
3.74875e-05
3.71692e-05
3.98266e-05
3.98219e-05
3.9817e-05
3.98118e-05
3.98064e-05
3.98007e-05
3.97947e-05
3.97886e-05
3.97821e-05
3.97754e-05
3.97682e-05
3.97606e-05
3.97526e-05
3.9744e-05
3.97348e-05
3.97252e-05
3.97151e-05
3.97045e-05
3.96935e-05
3.9682e-05
3.96703e-05
3.96582e-05
3.96457e-05
3.9633e-05
3.96199e-05
3.96065e-05
3.95927e-05
3.95785e-05
3.95638e-05
3.95487e-05
3.95331e-05
3.95168e-05
3.95e-05
3.94824e-05
3.94641e-05
3.94449e-05
3.94247e-05
3.94036e-05
3.93814e-05
3.93581e-05
3.93336e-05
3.93079e-05
3.92808e-05
3.9252e-05
3.92216e-05
3.91892e-05
3.91548e-05
3.91185e-05
3.90802e-05
3.90405e-05
3.89999e-05
3.89582e-05
3.89162e-05
3.88731e-05
3.88266e-05
3.87774e-05
3.87229e-05
3.86592e-05
3.85835e-05
3.84937e-05
3.83878e-05
3.82635e-05
3.81181e-05
3.79486e-05
3.77506e-05
3.75177e-05
3.72456e-05
3.69141e-05
3.65325e-05
3.97427e-05
3.97377e-05
3.97324e-05
3.97269e-05
3.97211e-05
3.97152e-05
3.97089e-05
3.97025e-05
3.96958e-05
3.9689e-05
3.9682e-05
3.96747e-05
3.96671e-05
3.96593e-05
3.9651e-05
3.96422e-05
3.9633e-05
3.96232e-05
3.96128e-05
3.96019e-05
3.95905e-05
3.95785e-05
3.95659e-05
3.95528e-05
3.95391e-05
3.95248e-05
3.95101e-05
3.94947e-05
3.94788e-05
3.94622e-05
3.9445e-05
3.94271e-05
3.94085e-05
3.93892e-05
3.9369e-05
3.93479e-05
3.93258e-05
3.93027e-05
3.92784e-05
3.92531e-05
3.92264e-05
3.91984e-05
3.91688e-05
3.91373e-05
3.91039e-05
3.90683e-05
3.90305e-05
3.89903e-05
3.89475e-05
3.89025e-05
3.88548e-05
3.88035e-05
3.87488e-05
3.86897e-05
3.86245e-05
3.85515e-05
3.84699e-05
3.83801e-05
3.82783e-05
3.8162e-05
3.8029e-05
3.78763e-05
3.77005e-05
3.74966e-05
3.72585e-05
3.69768e-05
3.66455e-05
3.62369e-05
3.57781e-05
3.96539e-05
3.96479e-05
3.96417e-05
3.96354e-05
3.96289e-05
3.96221e-05
3.96151e-05
3.96079e-05
3.96004e-05
3.95927e-05
3.95848e-05
3.95767e-05
3.95685e-05
3.956e-05
3.95512e-05
3.95422e-05
3.95329e-05
3.95232e-05
3.9513e-05
3.95024e-05
3.94913e-05
3.94795e-05
3.94672e-05
3.94542e-05
3.94406e-05
3.94262e-05
3.94112e-05
3.93954e-05
3.93788e-05
3.93614e-05
3.93432e-05
3.93241e-05
3.93041e-05
3.92831e-05
3.92611e-05
3.9238e-05
3.92137e-05
3.91882e-05
3.91614e-05
3.91331e-05
3.91032e-05
3.90715e-05
3.90377e-05
3.90018e-05
3.89635e-05
3.89223e-05
3.88783e-05
3.8831e-05
3.878e-05
3.8725e-05
3.86655e-05
3.86006e-05
3.85294e-05
3.84516e-05
3.83664e-05
3.82722e-05
3.81676e-05
3.80514e-05
3.79218e-05
3.77787e-05
3.76183e-05
3.74354e-05
3.72244e-05
3.69779e-05
3.66867e-05
3.63384e-05
3.5927e-05
3.54236e-05
3.4894e-05
3.95599e-05
3.95527e-05
3.95454e-05
3.9538e-05
3.95305e-05
3.95227e-05
3.95147e-05
3.95064e-05
3.94979e-05
3.9489e-05
3.94799e-05
3.94706e-05
3.94609e-05
3.9451e-05
3.94408e-05
3.94304e-05
3.94197e-05
3.94087e-05
3.93974e-05
3.93857e-05
3.93735e-05
3.93609e-05
3.93478e-05
3.93341e-05
3.93197e-05
3.93046e-05
3.92887e-05
3.92721e-05
3.92545e-05
3.9236e-05
3.92164e-05
3.91958e-05
3.9174e-05
3.91511e-05
3.91269e-05
3.91013e-05
3.90743e-05
3.90457e-05
3.90155e-05
3.89833e-05
3.89492e-05
3.89128e-05
3.88739e-05
3.88323e-05
3.87877e-05
3.87397e-05
3.86878e-05
3.86319e-05
3.85714e-05
3.85053e-05
3.84332e-05
3.83548e-05
3.8269e-05
3.81747e-05
3.80705e-05
3.79556e-05
3.78291e-05
3.76894e-05
3.75334e-05
3.73574e-05
3.71576e-05
3.69321e-05
3.66714e-05
3.63638e-05
3.59962e-05
3.55549e-05
3.50414e-05
3.44448e-05
3.39291e-05
3.94567e-05
3.94486e-05
3.94403e-05
3.94319e-05
3.94234e-05
3.94145e-05
3.94055e-05
3.93962e-05
3.93866e-05
3.93767e-05
3.93664e-05
3.93558e-05
3.93448e-05
3.93335e-05
3.93218e-05
3.93096e-05
3.92971e-05
3.92842e-05
3.92709e-05
3.92572e-05
3.9243e-05
3.92284e-05
3.92132e-05
3.91975e-05
3.91811e-05
3.9164e-05
3.91461e-05
3.91274e-05
3.91077e-05
3.9087e-05
3.90651e-05
3.90421e-05
3.90178e-05
3.89921e-05
3.89649e-05
3.89361e-05
3.89056e-05
3.88732e-05
3.88388e-05
3.88022e-05
3.87632e-05
3.87215e-05
3.86769e-05
3.86291e-05
3.85777e-05
3.85223e-05
3.84625e-05
3.83978e-05
3.83275e-05
3.82509e-05
3.81674e-05
3.8076e-05
3.79753e-05
3.78642e-05
3.77415e-05
3.76055e-05
3.74537e-05
3.72834e-05
3.70914e-05
3.68731e-05
3.66224e-05
3.63324e-05
3.59974e-05
3.56001e-05
3.5126e-05
3.45664e-05
3.39524e-05
3.33279e-05
3.30752e-05
3.93382e-05
3.93293e-05
3.93203e-05
3.93112e-05
3.93018e-05
3.92922e-05
3.92823e-05
3.92721e-05
3.92616e-05
3.92507e-05
3.92395e-05
3.92278e-05
3.92157e-05
3.92032e-05
3.91902e-05
3.91766e-05
3.91626e-05
3.9148e-05
3.91329e-05
3.91172e-05
3.91008e-05
3.90839e-05
3.90663e-05
3.9048e-05
3.9029e-05
3.90092e-05
3.89885e-05
3.89668e-05
3.89441e-05
3.89203e-05
3.88953e-05
3.8869e-05
3.88412e-05
3.88119e-05
3.87809e-05
3.87481e-05
3.87134e-05
3.86764e-05
3.86371e-05
3.85952e-05
3.85506e-05
3.85028e-05
3.84516e-05
3.83967e-05
3.83376e-05
3.82738e-05
3.82049e-05
3.81301e-05
3.80488e-05
3.79601e-05
3.78628e-05
3.77557e-05
3.76374e-05
3.7506e-05
3.73592e-05
3.71946e-05
3.70093e-05
3.67987e-05
3.65565e-05
3.62772e-05
3.59547e-05
3.55793e-05
3.51381e-05
3.46165e-05
3.40144e-05
3.33548e-05
3.27251e-05
3.23098e-05
3.28773e-05
3.91972e-05
3.91876e-05
3.9178e-05
3.91682e-05
3.91582e-05
3.91479e-05
3.91373e-05
3.91263e-05
3.9115e-05
3.91033e-05
3.90912e-05
3.90786e-05
3.90655e-05
3.9052e-05
3.90378e-05
3.90231e-05
3.90078e-05
3.89918e-05
3.89752e-05
3.89578e-05
3.89396e-05
3.89207e-05
3.89009e-05
3.88802e-05
3.88587e-05
3.88361e-05
3.88124e-05
3.87877e-05
3.87617e-05
3.87344e-05
3.87057e-05
3.86754e-05
3.86436e-05
3.86099e-05
3.85743e-05
3.85366e-05
3.84966e-05
3.8454e-05
3.84087e-05
3.83603e-05
3.83086e-05
3.82532e-05
3.81937e-05
3.81296e-05
3.80605e-05
3.79857e-05
3.79046e-05
3.78162e-05
3.77198e-05
3.7614e-05
3.74975e-05
3.73688e-05
3.72256e-05
3.70654e-05
3.68852e-05
3.66814e-05
3.64487e-05
3.61803e-05
3.58689e-05
3.55059e-05
3.50831e-05
3.45916e-05
3.4022e-05
3.33721e-05
3.26805e-05
3.20419e-05
3.16838e-05
3.20497e-05
3.45125e-05
3.9027e-05
3.90166e-05
3.90061e-05
3.89954e-05
3.89846e-05
3.89734e-05
3.89619e-05
3.895e-05
3.89378e-05
3.89251e-05
3.8912e-05
3.88984e-05
3.88842e-05
3.88695e-05
3.88542e-05
3.88382e-05
3.88215e-05
3.88041e-05
3.87859e-05
3.87668e-05
3.87469e-05
3.87259e-05
3.8704e-05
3.8681e-05
3.86569e-05
3.86315e-05
3.86049e-05
3.85768e-05
3.85472e-05
3.85161e-05
3.84832e-05
3.84485e-05
3.84118e-05
3.8373e-05
3.83317e-05
3.8288e-05
3.82414e-05
3.81917e-05
3.81386e-05
3.80818e-05
3.80209e-05
3.79553e-05
3.78847e-05
3.78083e-05
3.77256e-05
3.76356e-05
3.75376e-05
3.74303e-05
3.73125e-05
3.71827e-05
3.7039e-05
3.68792e-05
3.67005e-05
3.64993e-05
3.62712e-05
3.60106e-05
3.57099e-05
3.53595e-05
3.49501e-05
3.44739e-05
3.39231e-05
3.32984e-05
3.26113e-05
3.19043e-05
3.13003e-05
3.10256e-05
3.16109e-05
3.39658e-05
4.01941e-05
3.88207e-05
3.88089e-05
3.8797e-05
3.87849e-05
3.87726e-05
3.876e-05
3.87471e-05
3.87339e-05
3.87202e-05
3.87061e-05
3.86915e-05
3.86764e-05
3.86607e-05
3.86444e-05
3.86274e-05
3.86097e-05
3.85912e-05
3.85718e-05
3.85516e-05
3.85304e-05
3.85081e-05
3.84847e-05
3.84602e-05
3.84343e-05
3.84071e-05
3.83784e-05
3.83481e-05
3.83161e-05
3.82822e-05
3.82464e-05
3.82084e-05
3.81682e-05
3.81255e-05
3.80801e-05
3.80317e-05
3.79801e-05
3.7925e-05
3.7866e-05
3.78028e-05
3.77348e-05
3.76615e-05
3.75824e-05
3.74968e-05
3.74038e-05
3.73025e-05
3.7192e-05
3.70708e-05
3.69376e-05
3.67905e-05
3.66274e-05
3.64456e-05
3.6242e-05
3.60123e-05
3.57511e-05
3.5452e-05
3.5107e-05
3.47063e-05
3.42406e-05
3.37026e-05
3.30933e-05
3.24197e-05
3.17141e-05
3.10307e-05
3.04928e-05
3.03913e-05
3.12898e-05
3.42496e-05
4.07909e-05
5.33856e-05
3.85675e-05
3.85537e-05
3.85399e-05
3.85258e-05
3.85115e-05
3.84968e-05
3.84818e-05
3.84664e-05
3.84506e-05
3.84343e-05
3.84174e-05
3.84e-05
3.8382e-05
3.83633e-05
3.83438e-05
3.83235e-05
3.83023e-05
3.82801e-05
3.82569e-05
3.82326e-05
3.8207e-05
3.81802e-05
3.81519e-05
3.81221e-05
3.80906e-05
3.80574e-05
3.80222e-05
3.79849e-05
3.79453e-05
3.79032e-05
3.78586e-05
3.7811e-05
3.77604e-05
3.77064e-05
3.76486e-05
3.75868e-05
3.75204e-05
3.7449e-05
3.73721e-05
3.72891e-05
3.71993e-05
3.71018e-05
3.69958e-05
3.68802e-05
3.67537e-05
3.66149e-05
3.64619e-05
3.62928e-05
3.61048e-05
3.58946e-05
3.56582e-05
3.53903e-05
3.50843e-05
3.47326e-05
3.43272e-05
3.38601e-05
3.3325e-05
3.27222e-05
3.20582e-05
3.13635e-05
3.06646e-05
3.00441e-05
2.96737e-05
2.98816e-05
3.13604e-05
3.51824e-05
4.30176e-05
5.68163e-05
7.7859e-05
3.82487e-05
3.82327e-05
3.82165e-05
3.81999e-05
3.8183e-05
3.81657e-05
3.81479e-05
3.81296e-05
3.81108e-05
3.80914e-05
3.80715e-05
3.80508e-05
3.80294e-05
3.80072e-05
3.79841e-05
3.79601e-05
3.7935e-05
3.79088e-05
3.78814e-05
3.78526e-05
3.78224e-05
3.77906e-05
3.77571e-05
3.77218e-05
3.76844e-05
3.76448e-05
3.76028e-05
3.75582e-05
3.75107e-05
3.74602e-05
3.74064e-05
3.73489e-05
3.72875e-05
3.72216e-05
3.7151e-05
3.7075e-05
3.69932e-05
3.69049e-05
3.68093e-05
3.67057e-05
3.6593e-05
3.64702e-05
3.6336e-05
3.61888e-05
3.6027e-05
3.58482e-05
3.56498e-05
3.54283e-05
3.51795e-05
3.48979e-05
3.45772e-05
3.421e-05
3.37889e-05
3.3307e-05
3.27629e-05
3.21574e-05
3.14967e-05
3.08135e-05
3.01218e-05
2.94855e-05
2.90268e-05
2.89818e-05
2.97885e-05
3.22004e-05
3.73752e-05
4.69748e-05
6.28724e-05
8.57071e-05
0.000111747
3.78324e-05
3.78138e-05
3.77949e-05
3.77755e-05
3.77555e-05
3.77349e-05
3.77138e-05
3.76919e-05
3.76694e-05
3.76461e-05
3.76221e-05
3.75971e-05
3.75713e-05
3.75444e-05
3.75164e-05
3.74873e-05
3.74569e-05
3.7425e-05
3.73917e-05
3.73567e-05
3.732e-05
3.72812e-05
3.72404e-05
3.71972e-05
3.71514e-05
3.71029e-05
3.70514e-05
3.69965e-05
3.6938e-05
3.68757e-05
3.68091e-05
3.67378e-05
3.66614e-05
3.65792e-05
3.64907e-05
3.63951e-05
3.62917e-05
3.61796e-05
3.60577e-05
3.59249e-05
3.57798e-05
3.56208e-05
3.54459e-05
3.52527e-05
3.50383e-05
3.47991e-05
3.45303e-05
3.42262e-05
3.38807e-05
3.34872e-05
3.30392e-05
3.25331e-05
3.19705e-05
3.13542e-05
3.07096e-05
3.00403e-05
2.93741e-05
2.87616e-05
2.83126e-05
2.82086e-05
2.87734e-05
3.05552e-05
3.43848e-05
4.1514e-05
5.35586e-05
7.19934e-05
9.65238e-05
0.00012207
0.000136975
3.72657e-05
3.7244e-05
3.72217e-05
3.71988e-05
3.71751e-05
3.71506e-05
3.71253e-05
3.70991e-05
3.70719e-05
3.70438e-05
3.70145e-05
3.69841e-05
3.69525e-05
3.69196e-05
3.68852e-05
3.68493e-05
3.68118e-05
3.67724e-05
3.67311e-05
3.66877e-05
3.6642e-05
3.65938e-05
3.65428e-05
3.64888e-05
3.64315e-05
3.63707e-05
3.63058e-05
3.62367e-05
3.61628e-05
3.60838e-05
3.59991e-05
3.5908e-05
3.58099e-05
3.57041e-05
3.55896e-05
3.54655e-05
3.53307e-05
3.51838e-05
3.50233e-05
3.48473e-05
3.46537e-05
3.44396e-05
3.42017e-05
3.39357e-05
3.36368e-05
3.32997e-05
3.29178e-05
3.24858e-05
3.2002e-05
3.14678e-05
3.08847e-05
3.02671e-05
2.96375e-05
2.89997e-05
2.83909e-05
2.78616e-05
2.75154e-05
2.74806e-05
2.80728e-05
2.96614e-05
3.28695e-05
3.86493e-05
4.83581e-05
6.34791e-05
8.46679e-05
0.000109986
0.000132389
0.000140463
0.000130138
3.64591e-05
3.64329e-05
3.6406e-05
3.63782e-05
3.63494e-05
3.63195e-05
3.62885e-05
3.62563e-05
3.62229e-05
3.6188e-05
3.61518e-05
3.6114e-05
3.60745e-05
3.60333e-05
3.59902e-05
3.5945e-05
3.58976e-05
3.58478e-05
3.57954e-05
3.57402e-05
3.56819e-05
3.56202e-05
3.55548e-05
3.54854e-05
3.54115e-05
3.53329e-05
3.5249e-05
3.51593e-05
3.50632e-05
3.49603e-05
3.48495e-05
3.47301e-05
3.46011e-05
3.44612e-05
3.43092e-05
3.41433e-05
3.39618e-05
3.37623e-05
3.35422e-05
3.32982e-05
3.30265e-05
3.27227e-05
3.23819e-05
3.1999e-05
3.15698e-05
3.10955e-05
3.05762e-05
3.00152e-05
2.94374e-05
2.88512e-05
2.82631e-05
2.76954e-05
2.71966e-05
2.68342e-05
2.66985e-05
2.69123e-05
2.77207e-05
2.93945e-05
3.2372e-05
3.73731e-05
4.55167e-05
5.82006e-05
7.65436e-05
9.98574e-05
0.00012365
0.000139692
0.000138636
0.000128572
0.000115096
3.52521e-05
3.52193e-05
3.51855e-05
3.51505e-05
3.51143e-05
3.50766e-05
3.50375e-05
3.49968e-05
3.49545e-05
3.49103e-05
3.48642e-05
3.48161e-05
3.47658e-05
3.47131e-05
3.46579e-05
3.45999e-05
3.45389e-05
3.44747e-05
3.4407e-05
3.43355e-05
3.42599e-05
3.41797e-05
3.40945e-05
3.40038e-05
3.39072e-05
3.3804e-05
3.36937e-05
3.35752e-05
3.34478e-05
3.33104e-05
3.31616e-05
3.30002e-05
3.28243e-05
3.26321e-05
3.24212e-05
3.2189e-05
3.19325e-05
3.1648e-05
3.13317e-05
3.09797e-05
3.05883e-05
3.01556e-05
2.96845e-05
2.91774e-05
2.86418e-05
2.81192e-05
2.75941e-05
2.70825e-05
2.66051e-05
2.62108e-05
2.5948e-05
2.58455e-05
2.60604e-05
2.66879e-05
2.78669e-05
2.97805e-05
3.27345e-05
3.72409e-05
4.40998e-05
5.45274e-05
6.98753e-05
9.03006e-05
0.000113111
0.000131942
0.000138468
0.000136295
0.000127659
0.00011463
0.000105681
3.33416e-05
3.32988e-05
3.32547e-05
3.3209e-05
3.31617e-05
3.31125e-05
3.30614e-05
3.30083e-05
3.29529e-05
3.28952e-05
3.2835e-05
3.27721e-05
3.27062e-05
3.26373e-05
3.2565e-05
3.2489e-05
3.24091e-05
3.23249e-05
3.2236e-05
3.21421e-05
3.20426e-05
3.1937e-05
3.18249e-05
3.17054e-05
3.15779e-05
3.14413e-05
3.12943e-05
3.11356e-05
3.09637e-05
3.07767e-05
3.05728e-05
3.03498e-05
3.01052e-05
2.98367e-05
2.95415e-05
2.92174e-05
2.88623e-05
2.84751e-05
2.80555e-05
2.76064e-05
2.71342e-05
2.66585e-05
2.62212e-05
2.58064e-05
2.54406e-05
2.51478e-05
2.49573e-05
2.48699e-05
2.49716e-05
2.53817e-05
2.61002e-05
2.71805e-05
2.87039e-05
3.08161e-05
3.37415e-05
3.77777e-05
4.34632e-05
5.1632e-05
6.32288e-05
7.90012e-05
9.81523e-05
0.000115777
0.000126323
0.000131008
0.000130502
0.000124123
0.000113749
0.000107326
0.000101049
3.01735e-05
3.01183e-05
3.00616e-05
3.0003e-05
2.99425e-05
2.98797e-05
2.98146e-05
2.9747e-05
2.96768e-05
2.96037e-05
2.95276e-05
2.94482e-05
2.93653e-05
2.92787e-05
2.9188e-05
2.90928e-05
2.8993e-05
2.8888e-05
2.87773e-05
2.86606e-05
2.85373e-05
2.84067e-05
2.82682e-05
2.81203e-05
2.79605e-05
2.77875e-05
2.75997e-05
2.73961e-05
2.71755e-05
2.69373e-05
2.66811e-05
2.64066e-05
2.61143e-05
2.58055e-05
2.54825e-05
2.51495e-05
2.48123e-05
2.44864e-05
2.41866e-05
2.39313e-05
2.3737e-05
2.36222e-05
2.36043e-05
2.37081e-05
2.40181e-05
2.44989e-05
2.51787e-05
2.60496e-05
2.71267e-05
2.84381e-05
3.00374e-05
3.20039e-05
3.45024e-05
3.78061e-05
4.2307e-05
4.82219e-05
5.5798e-05
6.55971e-05
7.69355e-05
8.81286e-05
9.90295e-05
0.00010838
0.000114748
0.000116738
0.000113486
0.000107681
0.000106142
0.000103016
9.88947e-05
2.4929e-05
2.48723e-05
2.48142e-05
2.47547e-05
2.46936e-05
2.46307e-05
2.4566e-05
2.44993e-05
2.44305e-05
2.43594e-05
2.4286e-05
2.42099e-05
2.41312e-05
2.40494e-05
2.39644e-05
2.3876e-05
2.37838e-05
2.36877e-05
2.35873e-05
2.34824e-05
2.33727e-05
2.32579e-05
2.31379e-05
2.30138e-05
2.28876e-05
2.2761e-05
2.26354e-05
2.25129e-05
2.23957e-05
2.2287e-05
2.21904e-05
2.21111e-05
2.20545e-05
2.20268e-05
2.2035e-05
2.20862e-05
2.2189e-05
2.2456e-05
2.2811e-05
2.3261e-05
2.37899e-05
2.43921e-05
2.50609e-05
2.57903e-05
2.6577e-05
2.74111e-05
2.82814e-05
2.9192e-05
3.01933e-05
3.14296e-05
3.31229e-05
3.52727e-05
3.77551e-05
4.10111e-05
4.56505e-05
4.95763e-05
5.14745e-05
5.34585e-05
5.63026e-05
6.38142e-05
7.41551e-05
8.12121e-05
8.43995e-05
8.76341e-05
8.99462e-05
9.40416e-05
9.62579e-05
9.52416e-05
9.18543e-05
1.8934e-05
1.9025e-05
1.91151e-05
1.92041e-05
1.92919e-05
1.93786e-05
1.94643e-05
1.95489e-05
1.96325e-05
1.97152e-05
1.97971e-05
1.98781e-05
1.99585e-05
2.00383e-05
2.01176e-05
2.01967e-05
2.02757e-05
2.03549e-05
2.04419e-05
2.05383e-05
2.06463e-05
2.07673e-05
2.09023e-05
2.10524e-05
2.12183e-05
2.1401e-05
2.16012e-05
2.18198e-05
2.20574e-05
2.23142e-05
2.25902e-05
2.28847e-05
2.31963e-05
2.35222e-05
2.38584e-05
2.41989e-05
2.45354e-05
2.48584e-05
2.51538e-05
2.5406e-05
2.55983e-05
2.57152e-05
2.5748e-05
2.57049e-05
2.56088e-05
2.54052e-05
2.5158e-05
2.49857e-05
2.5097e-05
2.60217e-05
2.81475e-05
2.89478e-05
2.74282e-05
2.57762e-05
2.51425e-05
2.64922e-05
2.71041e-05
2.86083e-05
3.17405e-05
3.62498e-05
4.1552e-05
4.6567e-05
5.0517e-05
5.38428e-05
5.65912e-05
5.91052e-05
5.97804e-05
5.8223e-05
5.47749e-05
1.84664e-05
1.86067e-05
1.87464e-05
1.88856e-05
1.9024e-05
1.91612e-05
1.92968e-05
1.94305e-05
1.95619e-05
1.96907e-05
1.98166e-05
1.99391e-05
2.00579e-05
2.01727e-05
2.02829e-05
2.0388e-05
2.04876e-05
2.05808e-05
2.06585e-05
2.07196e-05
2.07627e-05
2.07875e-05
2.07935e-05
2.07799e-05
2.07456e-05
2.0689e-05
2.06081e-05
2.05001e-05
2.03618e-05
2.01891e-05
1.99772e-05
1.97206e-05
1.94125e-05
1.90456e-05
1.86114e-05
1.81007e-05
1.75035e-05
1.68093e-05
1.60077e-05
1.50891e-05
1.40468e-05
1.28832e-05
1.16252e-05
1.03465e-05
9.16002e-06
8.3152e-06
7.9551e-06
7.9266e-06
8.02751e-06
9.05834e-06
1.17998e-05
1.29613e-05
1.23779e-05
1.17779e-05
1.16433e-05
1.18698e-05
1.2024e-05
1.2433e-05
1.32059e-05
1.3767e-05
1.35965e-05
1.26932e-05
1.37453e-05
1.47244e-05
1.54922e-05
1.60201e-05
1.59792e-05
1.5364e-05
1.40552e-05
4.00393e-05
4.00388e-05
4.00362e-05
4.00346e-05
4.00314e-05
4.00261e-05
4.00209e-05
4.00253e-05
4.00335e-05
4.00457e-05
4.0062e-05
4.00839e-05
4.01039e-05
4.01066e-05
4.00985e-05
4.00966e-05
4.00961e-05
4.00939e-05
4.01002e-05
4.01476e-05
4.01915e-05
4.01893e-05
4.01816e-05
4.02069e-05
4.02045e-05
4.01818e-05
4.01813e-05
4.02064e-05
4.02283e-05
4.02488e-05
4.02901e-05
4.02746e-05
4.02729e-05
4.02763e-05
4.02968e-05
4.02951e-05
4.02817e-05
4.02595e-05
4.02569e-05
4.02681e-05
4.02956e-05
4.03151e-05
4.03199e-05
4.03326e-05
4.0334e-05
4.03333e-05
4.0326e-05
4.03157e-05
4.03085e-05
4.03012e-05
4.02934e-05
4.02864e-05
4.02816e-05
4.02775e-05
4.02755e-05
4.02744e-05
4.02725e-05
4.02721e-05
4.02727e-05
4.00029e-05
4.00002e-05
3.9997e-05
3.99941e-05
3.99909e-05
3.99892e-05
3.99919e-05
4.00017e-05
4.00149e-05
4.00311e-05
4.00491e-05
4.00657e-05
4.0074e-05
4.00711e-05
4.00656e-05
4.00647e-05
4.00646e-05
4.00668e-05
4.0087e-05
4.01331e-05
4.01647e-05
4.0162e-05
4.0161e-05
4.01833e-05
4.01789e-05
4.01576e-05
4.01564e-05
4.01788e-05
4.02007e-05
4.02212e-05
4.02594e-05
4.02538e-05
4.02473e-05
4.02475e-05
4.02635e-05
4.02687e-05
4.02605e-05
4.02419e-05
4.02308e-05
4.02311e-05
4.02474e-05
4.02693e-05
4.0282e-05
4.02919e-05
4.02993e-05
4.03025e-05
4.02997e-05
4.02918e-05
4.02833e-05
4.02758e-05
4.02684e-05
4.02606e-05
4.02528e-05
4.0246e-05
4.02398e-05
4.02348e-05
4.02308e-05
4.02285e-05
4.02278e-05
3.99538e-05
3.99524e-05
3.99515e-05
3.99517e-05
3.99539e-05
3.99595e-05
3.99694e-05
3.99829e-05
3.99981e-05
4.00137e-05
4.00275e-05
4.00365e-05
4.00381e-05
4.00342e-05
4.0031e-05
4.00311e-05
4.00336e-05
4.0044e-05
4.00731e-05
4.01138e-05
4.01358e-05
4.01341e-05
4.01386e-05
4.01574e-05
4.01516e-05
4.01319e-05
4.01301e-05
4.01499e-05
4.01712e-05
4.01917e-05
4.02262e-05
4.02292e-05
4.02216e-05
4.02182e-05
4.0229e-05
4.02377e-05
4.02351e-05
4.02215e-05
4.02075e-05
4.01997e-05
4.0204e-05
4.02199e-05
4.02361e-05
4.0248e-05
4.02574e-05
4.02641e-05
4.02662e-05
4.02628e-05
4.0256e-05
4.02485e-05
4.0241e-05
4.02334e-05
4.02256e-05
4.02178e-05
4.021e-05
4.02025e-05
4.01956e-05
4.01895e-05
4.01847e-05
3.99072e-05
3.99094e-05
3.99128e-05
3.99182e-05
3.99259e-05
3.99365e-05
3.99493e-05
3.99631e-05
3.99765e-05
3.9988e-05
3.99961e-05
3.99997e-05
3.99987e-05
3.99959e-05
3.9995e-05
3.99973e-05
4.00049e-05
4.00233e-05
4.00557e-05
4.00895e-05
4.01048e-05
4.01053e-05
4.01135e-05
4.01291e-05
4.01223e-05
4.01042e-05
4.01019e-05
4.01192e-05
4.01395e-05
4.01599e-05
4.01911e-05
4.02003e-05
4.01943e-05
4.01882e-05
4.01938e-05
4.02027e-05
4.02045e-05
4.01963e-05
4.01836e-05
4.01718e-05
4.01668e-05
4.01727e-05
4.01855e-05
4.01984e-05
4.02093e-05
4.02181e-05
4.02237e-05
4.0225e-05
4.02222e-05
4.02168e-05
4.02101e-05
4.02029e-05
4.01955e-05
4.01879e-05
4.01802e-05
4.01723e-05
4.01644e-05
4.01566e-05
4.01493e-05
3.98694e-05
3.98753e-05
3.98825e-05
3.98914e-05
3.99018e-05
3.99134e-05
3.99254e-05
3.99366e-05
3.99461e-05
3.9953e-05
3.99571e-05
3.99582e-05
3.99573e-05
3.99565e-05
3.99582e-05
3.99644e-05
3.9978e-05
4.00019e-05
4.00337e-05
4.00607e-05
4.00718e-05
4.00748e-05
4.00853e-05
4.0098e-05
4.00906e-05
4.00739e-05
4.00712e-05
4.00861e-05
4.01053e-05
4.01253e-05
4.01536e-05
4.01672e-05
4.01642e-05
4.01569e-05
4.01577e-05
4.01646e-05
4.0169e-05
4.01656e-05
4.01561e-05
4.01442e-05
4.0134e-05
4.01307e-05
4.01357e-05
4.01454e-05
4.01559e-05
4.01654e-05
4.01729e-05
4.01776e-05
4.01788e-05
4.01768e-05
4.01725e-05
4.01668e-05
4.01603e-05
4.01535e-05
4.01464e-05
4.01391e-05
4.01316e-05
4.0124e-05
4.01164e-05
3.9838e-05
3.98459e-05
3.98546e-05
3.98642e-05
3.98742e-05
3.98841e-05
3.98932e-05
3.99009e-05
3.99068e-05
3.99108e-05
3.99131e-05
3.9914e-05
3.99146e-05
3.99164e-05
3.99216e-05
3.99326e-05
3.99513e-05
3.99776e-05
4.00064e-05
4.00275e-05
4.00365e-05
4.00421e-05
4.00538e-05
4.00639e-05
4.00561e-05
4.00408e-05
4.00377e-05
4.00504e-05
4.00683e-05
4.00876e-05
4.01135e-05
4.01298e-05
4.01305e-05
4.01234e-05
4.01204e-05
4.01242e-05
4.01289e-05
4.01289e-05
4.01232e-05
4.01135e-05
4.01022e-05
4.00932e-05
4.00901e-05
4.00931e-05
4.00999e-05
4.01079e-05
4.01156e-05
4.01217e-05
4.01254e-05
4.01266e-05
4.01252e-05
4.01219e-05
4.01172e-05
4.01116e-05
4.01055e-05
4.00992e-05
4.00927e-05
4.0086e-05
4.00791e-05
3.9806e-05
3.9814e-05
3.9822e-05
3.98303e-05
3.98382e-05
3.98454e-05
3.98517e-05
3.98568e-05
3.98608e-05
3.98638e-05
3.98661e-05
3.98682e-05
3.98708e-05
3.98757e-05
3.98851e-05
3.99007e-05
3.99226e-05
3.99488e-05
3.99736e-05
3.99903e-05
3.99986e-05
4.00064e-05
4.00185e-05
4.00263e-05
4.00183e-05
4.00045e-05
4.0001e-05
4.00117e-05
4.00281e-05
4.00465e-05
4.00702e-05
4.0088e-05
4.00923e-05
4.00868e-05
4.00814e-05
4.00816e-05
4.0085e-05
4.00867e-05
4.00841e-05
4.00774e-05
4.00676e-05
4.00568e-05
4.00484e-05
4.00445e-05
4.00451e-05
4.0049e-05
4.00543e-05
4.00597e-05
4.00641e-05
4.00669e-05
4.00677e-05
4.00667e-05
4.00641e-05
4.00602e-05
4.00554e-05
4.00501e-05
4.00445e-05
4.00387e-05
4.00328e-05
3.97671e-05
3.97738e-05
3.97803e-05
3.97866e-05
3.97925e-05
3.97978e-05
3.98025e-05
3.98065e-05
3.98101e-05
3.98135e-05
3.98168e-05
3.98206e-05
3.98259e-05
3.98345e-05
3.9848e-05
3.98669e-05
3.989e-05
3.99144e-05
3.99351e-05
3.99488e-05
3.99574e-05
3.99669e-05
3.99788e-05
3.99847e-05
3.99769e-05
3.99642e-05
3.99605e-05
3.99693e-05
3.99843e-05
4.00016e-05
4.00232e-05
4.00416e-05