/*--------------------------------*- C++ -*----------------------------------*\
| =========                 |                                                 |
| \\      /  F ield         | OpenFOAM: The Open Source CFD Toolbox           |
|  \\    /   O peration     | Version:  2312                                  |
|   \\  /    A nd           | Website:  www.openfoam.com                      |
|    \\/     M anipulation  |                                                 |
\*---------------------------------------------------------------------------*/
FoamFile
{
    version     2.0;
    format      ascii;
    arch        "LSB;label=32;scalar=64";
    class       volScalarField;
    location    "1900";
    object      p;
}
// * * * * * * * * * * * * * * * * * * * * * * * * * * * * * * * * * * * * * //

dimensions      [0 2 -2 0 0 0 0];

internalField   nonuniform List<scalar> 
76025
(
-0.000181189
-0.000192089
-0.000203329
-0.000214735
-0.000225996
-0.000237435
-0.000249192
-0.000260498
-0.000272155
-0.000283629
-0.000295118
-0.000306655
-0.000318307
-0.00032994
-0.000341797
-0.000353504
-0.00036501
-0.000376569
-0.000388219
-0.000399639
-0.000410913
-0.000422358
-0.000433634
-0.00044468
-0.000455665
-0.000466407
-0.000477507
-0.000488622
-0.000498938
-0.000509762
-0.000519909
-0.000529897
-0.000540416
-0.0005509
-0.000561006
-0.000570741
-0.000579979
-0.000589851
-0.000599606
-0.000609178
-0.000618266
-0.000627093
-0.000636678
-0.000646219
-0.000655216
-0.000663812
-0.000672614
-0.000681727
-0.000689965
-0.000698315
-0.000706851
-0.000715117
-0.000723817
-0.000733046
-0.000742142
-0.000750195
-0.000759286
-0.000768045
-0.000777095
-0.000786425
-0.000795756
-0.000805631
-0.00081655
-0.000827842
-0.00083931
-0.000851057
-0.000863811
-0.000879038
-0.000895554
-0.000188381
-0.00019992
-0.000211593
-0.000223432
-0.000235341
-0.000247302
-0.000259225
-0.000271181
-0.000283206
-0.000295249
-0.000307331
-0.000319441
-0.000331592
-0.000343746
-0.000355818
-0.000367781
-0.000379795
-0.000391687
-0.00040364
-0.000415415
-0.000427192
-0.000438833
-0.000450377
-0.00046179
-0.000473165
-0.000484527
-0.000495833
-0.000506859
-0.000517677
-0.000528364
-0.000538895
-0.000549582
-0.000560191
-0.000570524
-0.000580723
-0.000590684
-0.000600554
-0.000610356
-0.000620081
-0.000629764
-0.000639206
-0.000648589
-0.000657953
-0.000667153
-0.000676193
-0.000685099
-0.000694028
-0.000702913
-0.000711607
-0.000720341
-0.000729165
-0.000737955
-0.000746893
-0.000755977
-0.000764984
-0.000773907
-0.000783218
-0.00079259
-0.000802054
-0.000811689
-0.000821863
-0.000832765
-0.000844041
-0.000855895
-0.000868356
-0.000881674
-0.000896054
-0.000911962
-0.000928544
-0.000196082
-0.000208103
-0.000220265
-0.000232623
-0.000245071
-0.000257478
-0.000269873
-0.000282317
-0.000294808
-0.000307348
-0.000319913
-0.00033248
-0.000345031
-0.000357539
-0.000369967
-0.000382366
-0.000394724
-0.000407032
-0.000419275
-0.000431445
-0.000443522
-0.000455483
-0.000467354
-0.000479136
-0.000490832
-0.00050243
-0.000513852
-0.000525096
-0.000536196
-0.000547149
-0.000558034
-0.00056885
-0.000579482
-0.000589932
-0.00060024
-0.000610402
-0.000620429
-0.000630332
-0.000640166
-0.000649915
-0.000659519
-0.000669003
-0.000678406
-0.000687763
-0.000697053
-0.000706245
-0.000715362
-0.000724428
-0.00073342
-0.00074237
-0.000751337
-0.000760333
-0.000769412
-0.00077862
-0.000787928
-0.000797311
-0.000806874
-0.000816642
-0.000826631
-0.000836969
-0.000847808
-0.000859255
-0.000871287
-0.000884064
-0.000897673
-0.000912248
-0.000927866
-0.000945164
-0.000963017
-0.000204103
-0.000216624
-0.000229295
-0.000242165
-0.000255101
-0.000268015
-0.000280918
-0.000293849
-0.000306818
-0.000319816
-0.000332822
-0.000345815
-0.000358778
-0.000371701
-0.000384575
-0.000397403
-0.000410174
-0.000422879
-0.000435505
-0.000448042
-0.000460476
-0.000472805
-0.000485026
-0.000497132
-0.000509108
-0.000520944
-0.000532632
-0.000544173
-0.000555565
-0.000566815
-0.000577931
-0.000588905
-0.000599723
-0.00061039
-0.000620915
-0.000631302
-0.000641546
-0.000651658
-0.000661652
-0.000671527
-0.000681278
-0.000690922
-0.000700487
-0.000709989
-0.000719405
-0.00072872
-0.000737946
-0.00074711
-0.000756223
-0.000765313
-0.000774437
-0.000783631
-0.000792925
-0.000802349
-0.00081191
-0.000821612
-0.000831516
-0.000841689
-0.000852178
-0.000863074
-0.000874499
-0.00088658
-0.000899385
-0.000913037
-0.000927655
-0.000943427
-0.00096041
-0.0009792
-0.000998502
-0.000212854
-0.000225914
-0.000239118
-0.00025252
-0.000265985
-0.000279426
-0.000292851
-0.000306295
-0.00031977
-0.000333264
-0.000346754
-0.000360221
-0.00037365
-0.000387035
-0.000400369
-0.000413641
-0.000426843
-0.000439964
-0.00045299
-0.000465913
-0.000478723
-0.000491411
-0.00050397
-0.00051639
-0.000528666
-0.000540792
-0.000552765
-0.00056458
-0.000576231
-0.000587718
-0.000599044
-0.000610211
-0.000621221
-0.000632073
-0.000642769
-0.000653309
-0.000663688
-0.000673911
-0.000683991
-0.000693941
-0.000703776
-0.000713508
-0.000723155
-0.000732725
-0.000742216
-0.000751625
-0.000760961
-0.000770247
-0.000779507
-0.000788772
-0.000798083
-0.000807472
-0.00081697
-0.000826605
-0.000836405
-0.000846399
-0.000856639
-0.000867191
-0.000878125
-0.000889533
-0.000901532
-0.000914245
-0.000927787
-0.000942298
-0.000957924
-0.000974894
-0.000993268
-0.00101371
-0.00103514
-0.000222522
-0.00023615
-0.000249918
-0.000263886
-0.000277917
-0.000291916
-0.00030589
-0.000319873
-0.00033388
-0.000347895
-0.000361895
-0.000375861
-0.000389779
-0.000403642
-0.00041744
-0.000431162
-0.000444797
-0.000458332
-0.000471757
-0.00048506
-0.000498232
-0.000511265
-0.000524149
-0.000536879
-0.000549448
-0.000561851
-0.000574083
-0.000586137
-0.000598011
-0.000609705
-0.00062122
-0.00063256
-0.000643727
-0.000654722
-0.000665546
-0.000676198
-0.000686679
-0.000696995
-0.000707161
-0.000717195
-0.000727114
-0.000736932
-0.000746665
-0.000756323
-0.00076591
-0.000775424
-0.000784875
-0.000794281
-0.000803672
-0.000813079
-0.000822538
-0.000832086
-0.000841757
-0.000851585
-0.000861606
-0.000871861
-0.000882405
-0.000893305
-0.000904642
-0.000916514
-0.000929037
-0.000942344
-0.000956577
-0.000971902
-0.000988489
-0.00100661
-0.00102634
-0.00104844
-0.00107187
-0.000233146
-0.00024737
-0.000261733
-0.0002763
-0.000290925
-0.000305507
-0.000320054
-0.000334599
-0.000349157
-0.000363712
-0.00037824
-0.00039272
-0.00040714
-0.000421488
-0.000435756
-0.000449932
-0.000464002
-0.000477955
-0.000491779
-0.000505462
-0.000518996
-0.000532372
-0.000545581
-0.000558615
-0.00057147
-0.000584137
-0.000596613
-0.000608893
-0.000620977
-0.000632863
-0.000644553
-0.000656052
-0.000667361
-0.000678485
-0.000689426
-0.000700183
-0.000710758
-0.000721159
-0.000731402
-0.000741504
-0.000751486
-0.000761364
-0.000771155
-0.000780873
-0.000790522
-0.000800104
-0.000809628
-0.000819118
-0.000828602
-0.000838117
-0.000847699
-0.000857385
-0.000867212
-0.000877216
-0.00088744
-0.000897928
-0.000908741
-0.000919948
-0.000931638
-0.000943915
-0.000956901
-0.000970743
-0.000985603
-0.00100167
-0.00101915
-0.00103835
-0.00105938
-0.00108307
-0.00110827
-0.00024481
-0.000259665
-0.000274656
-0.000289851
-0.000305098
-0.000320291
-0.000335435
-0.000350568
-0.000365701
-0.00038082
-0.000395899
-0.000410915
-0.000425854
-0.000440705
-0.000455458
-0.0004701
-0.000484618
-0.000498999
-0.00051323
-0.000527301
-0.000541201
-0.000554921
-0.000568452
-0.000581787
-0.000594918
-0.000607841
-0.00062055
-0.000633043
-0.00064532
-0.00065738
-0.000669226
-0.000680861
-0.00069229
-0.000703518
-0.000714549
-0.000725381
-0.000736017
-0.000746467
-0.000756748
-0.000766881
-0.000776889
-0.000786792
-0.000796609
-0.000806355
-0.000816037
-0.00082566
-0.000835235
-0.000844787
-0.000854348
-0.000863953
-0.000873639
-0.000883443
-0.000893403
-0.000903558
-0.000913951
-0.000924633
-0.000935667
-0.000947127
-0.000959107
-0.000971717
-0.000985088
-0.00099938
-0.00101477
-0.00103149
-0.00104976
-0.00106994
-0.00109218
-0.00111739
-0.00114451
-0.00025766
-0.000273185
-0.000288838
-0.000304694
-0.000320596
-0.000336431
-0.000352203
-0.000367952
-0.000383689
-0.0003994
-0.000415055
-0.000430631
-0.000446112
-0.000461486
-0.000476741
-0.000491865
-0.000506844
-0.000521663
-0.000536309
-0.000550769
-0.000565035
-0.000579094
-0.00059294
-0.000606563
-0.000619958
-0.000633119
-0.000646042
-0.000658727
-0.000671171
-0.000683377
-0.000695348
-0.000707088
-0.000718603
-0.0007299
-0.000740983
-0.000751851
-0.000762508
-0.000772969
-0.000783253
-0.000793383
-0.000803386
-0.000813284
-0.000823098
-0.000832845
-0.000842534
-0.000852172
-0.000861773
-0.000871362
-0.000880971
-0.000890637
-0.000900396
-0.000910286
-0.000920343
-0.00093061
-0.000941131
-0.000951959
-0.000963159
-0.000974809
-0.000987005
-0.000999863
-0.00101352
-0.00102816
-0.00104396
-0.00106119
-0.00108012
-0.00110114
-0.00112448
-0.00115112
-0.00118
-0.000271855
-0.000288089
-0.000304443
-0.000320998
-0.000337589
-0.000354101
-0.000370535
-0.000386931
-0.000403302
-0.000419632
-0.00043589
-0.000452049
-0.000468092
-0.000484007
-0.000499781
-0.0005154
-0.000530848
-0.000546111
-0.000561173
-0.000576023
-0.000590649
-0.000605041
-0.00061919
-0.000633088
-0.000646729
-0.000660109
-0.000673224
-0.000686072
-0.000698655
-0.000710975
-0.000723036
-0.000734845
-0.00074641
-0.000757739
-0.000768834
-0.000779697
-0.000790336
-0.000800767
-0.000811014
-0.000821103
-0.000831063
-0.000840919
-0.000850694
-0.000860407
-0.000870067
-0.000879685
-0.000889277
-0.000898868
-0.000908493
-0.000918186
-0.000927985
-0.000937925
-0.000948044
-0.000958383
-0.000968986
-0.000979909
-0.000991215
-0.00100298
-0.00101531
-0.00102832
-0.00104215
-0.00105699
-0.00107305
-0.00109062
-0.00111
-0.00113165
-0.00115586
-0.00118387
-0.00121463
-0.000287565
-0.00030455
-0.000321646
-0.00033894
-0.000356261
-0.000373485
-0.000390616
-0.000407692
-0.000424728
-0.000441705
-0.00045859
-0.000475356
-0.000491982
-0.000508456
-0.000524762
-0.000540887
-0.000556814
-0.000572525
-0.000588006
-0.000603243
-0.000618224
-0.00063294
-0.00064738
-0.000661537
-0.000675406
-0.00068898
-0.000702259
-0.000715241
-0.000727929
-0.000740326
-0.000752439
-0.000764277
-0.000775848
-0.000787163
-0.000798223
-0.000809032
-0.000819603
-0.000829956
-0.000840117
-0.000850117
-0.000859987
-0.000869756
-0.000879449
-0.000889085
-0.000898677
-0.000908236
-0.000917781
-0.000927339
-0.000936944
-0.00094663
-0.000956433
-0.000966387
-0.000976528
-0.000986895
-0.000997533
-0.00100849
-0.00101984
-0.00103164
-0.00104401
-0.00105705
-0.00107092
-0.0010858
-0.00110193
-0.00111961
-0.00113917
-0.00116113
-0.00118582
-0.0012147
-0.00124666
-0.000304986
-0.000322769
-0.000340653
-0.000358729
-0.000376821
-0.000394799
-0.000412663
-0.000430454
-0.000448187
-0.000465841
-0.000483382
-0.000500778
-0.000518009
-0.000535059
-0.000551914
-0.000568556
-0.000584968
-0.000601132
-0.000617031
-0.000632652
-0.000647981
-0.000663008
-0.000677723
-0.000692118
-0.000706188
-0.000719928
-0.000733336
-0.000746415
-0.000759166
-0.000771596
-0.000783713
-0.000795528
-0.000807053
-0.000818297
-0.000829263
-0.00083996
-0.000850403
-0.000860619
-0.000870637
-0.000880493
-0.00089022
-0.00089985
-0.000909411
-0.000918924
-0.000928403
-0.000937862
-0.00094732
-0.000956807
-0.000966355
-0.000975998
-0.000985767
-0.000995697
-0.00100582
-0.00101617
-0.00102679
-0.00103773
-0.00104905
-0.00106081
-0.00107311
-0.00108606
-0.00109981
-0.00111454
-0.0011305
-0.00114801
-0.00116743
-0.00118932
-0.00121406
-0.001243
-0.00127487
-0.00032435
-0.000342981
-0.000361702
-0.000380608
-0.000399518
-0.000418293
-0.000436931
-0.000455475
-0.000473941
-0.000492304
-0.00051053
-0.000528584
-0.000546442
-0.000564088
-0.000581505
-0.000598675
-0.000615579
-0.000632197
-0.000648513
-0.00066451
-0.000680174
-0.000695495
-0.000710462
-0.000725067
-0.000739306
-0.000753174
-0.00076667
-0.000779798
-0.000792562
-0.000804969
-0.000817032
-0.000828763
-0.000840177
-0.000851283
-0.000862085
-0.000872598
-0.000882844
-0.000892853
-0.000902661
-0.000912308
-0.00092183
-0.000931263
-0.000940637
-0.000949975
-0.000959292
-0.000968604
-0.000977934
-0.00098731
-0.000996763
-0.00100632
-0.00101603
-0.00102589
-0.00103596
-0.00104625
-0.00105681
-0.00106767
-0.00107889
-0.00109052
-0.00110264
-0.00111537
-0.00112882
-0.00114319
-0.00115871
-0.0011757
-0.00119458
-0.00121594
-0.00124032
-0.00126901
-0.00130165
-0.000345922
-0.000365456
-0.000385068
-0.000404856
-0.000424633
-0.000444251
-0.000463708
-0.000483048
-0.000502284
-0.000521393
-0.000540336
-0.000559075
-0.000577585
-0.000595847
-0.000613841
-0.00063155
-0.000648952
-0.000666025
-0.000682751
-0.000699112
-0.000715095
-0.000730686
-0.000745877
-0.000760658
-0.000775024
-0.000788973
-0.000802506
-0.000815625
-0.000828339
-0.000840657
-0.000852594
-0.000864166
-0.00087539
-0.000886273
-0.000896827
-0.000907072
-0.000917036
-0.000926757
-0.000936276
-0.000945638
-0.000954885
-0.000964054
-0.000973179
-0.000982285
-0.000991387
-0.00100051
-0.00100966
-0.00101889
-0.00102821
-0.00103765
-0.00104725
-0.00105702
-0.00106699
-0.00107719
-0.00108764
-0.00109837
-0.00110943
-0.00112085
-0.00113269
-0.00114505
-0.00115802
-0.00117177
-0.00118653
-0.0012026
-0.00122041
-0.00124061
-0.00126385
-0.00129185
-0.00132457
-0.000370009
-0.000390508
-0.000411067
-0.000431795
-0.000452493
-0.000473006
-0.000493329
-0.000513509
-0.000533558
-0.000553451
-0.000573146
-0.000592602
-0.000611791
-0.000630689
-0.000649279
-0.000667537
-0.000685441
-0.000702968
-0.000720097
-0.000736809
-0.000753089
-0.000768924
-0.000784302
-0.000799217
-0.000813662
-0.000827637
-0.000841142
-0.000854184
-0.000866772
-0.00087892
-0.000890645
-0.000901968
-0.000912904
-0.000923465
-0.000933669
-0.000943543
-0.000953126
-0.000962461
-0.000971598
-0.000980588
-0.000989477
-0.000998305
-0.00100711
-0.00101592
-0.00102475
-0.00103362
-0.00104255
-0.00105158
-0.00106073
-0.00107003
-0.00107949
-0.00108913
-0.00109898
-0.00110905
-0.00111936
-0.00112992
-0.00114076
-0.0011519
-0.00116338
-0.00117523
-0.00118754
-0.00120042
-0.00121405
-0.00122873
-0.00124486
-0.00126307
-0.00128416
-0.00130946
-0.00133995
-0.000396966
-0.000418494
-0.000440066
-0.000461793
-0.000483471
-0.000504935
-0.000526177
-0.000547245
-0.000568152
-0.000588872
-0.000609357
-0.000629563
-0.000649457
-0.000669016
-0.000688216
-0.000707034
-0.000725444
-0.000743422
-0.000760943
-0.000777987
-0.000794537
-0.00081058
-0.000826103
-0.000841098
-0.000855562
-0.000869492
-0.000882892
-0.000895771
-0.00090814
-0.000920018
-0.000931425
-0.000942385
-0.000952915
-0.000963032
-0.000972763
-0.000982146
-0.000991229
-0.00100006
-0.00100871
-0.00101723
-0.00102566
-0.00103406
-0.00104247
-0.00105091
-0.0010594
-0.00106797
-0.00107664
-0.00108543
-0.00109438
-0.00110349
-0.00111278
-0.00112227
-0.00113197
-0.0011419
-0.00115204
-0.00116242
-0.00117302
-0.00118384
-0.00119488
-0.00120613
-0.00121761
-0.00122937
-0.00124152
-0.00125427
-0.001268
-0.00128334
-0.00130122
-0.0013227
-0.0013496
-0.000427213
-0.000449843
-0.000472497
-0.000495292
-0.000518015
-0.000540491
-0.000562711
-0.000584722
-0.000606539
-0.000628131
-0.000649448
-0.000670441
-0.000691073
-0.000711317
-0.000731146
-0.000750536
-0.000769456
-0.000787879
-0.00080578
-0.000823134
-0.000839924
-0.000856134
-0.000871751
-0.000886767
-0.000901177
-0.000914981
-0.000928184
-0.000940798
-0.000952839
-0.000964326
-0.000975289
-0.00098575
-0.00099573
-0.00100526
-0.00101437
-0.00102311
-0.00103155
-0.00103974
-0.00104777
-0.00105568
-0.00106355
-0.00107142
-0.00107933
-0.00108732
-0.0010954
-0.0011036
-0.00111195
-0.00112047
-0.00112917
-0.00113806
-0.00114717
-0.00115649
-0.00116603
-0.0011758
-0.00118579
-0.00119599
-0.00120636
-0.00121687
-0.00122746
-0.00123807
-0.00124863
-0.00125907
-0.00126939
-0.00127968
-0.00129021
-0.00130154
-0.00131486
-0.0013315
-0.00135566
-0.000461227
-0.000485037
-0.000508848
-0.000532785
-0.000556624
-0.00058018
-0.00060344
-0.000626452
-0.000649232
-0.000671746
-0.000693939
-0.000715757
-0.000737158
-0.000758111
-0.000778586
-0.000798554
-0.000817983
-0.000836842
-0.0008551
-0.000872734
-0.00088972
-0.000906041
-0.000921685
-0.000936641
-0.000950905
-0.000964479
-0.000977369
-0.000989589
-0.00100116
-0.00101211
-0.00102246
-0.00103225
-0.0010415
-0.00105025
-0.00105856
-0.00106649
-0.00107411
-0.0010815
-0.00108875
-0.00109593
-0.0011031
-0.00111032
-0.00111765
-0.0011251
-0.00113271
-0.00114049
-0.00114848
-0.00115668
-0.00116511
-0.00117377
-0.00118267
-0.00119182
-0.00120122
-0.00121086
-0.00122072
-0.00123078
-0.00124099
-0.00125126
-0.00126149
-0.00127153
-0.00128118
-0.00129025
-0.00129853
-0.00130586
-0.00131231
-0.00131816
-0.00132483
-0.00133352
-0.00135141
-0.000499603
-0.000524685
-0.000549743
-0.000574908
-0.000599948
-0.000624664
-0.000649041
-0.000673127
-0.000696937
-0.000720436
-0.000743561
-0.000766254
-0.000788467
-0.000810164
-0.000831311
-0.000851875
-0.000871819
-0.000891109
-0.00090971
-0.000927594
-0.000944736
-0.000961114
-0.000976714
-0.000991526
-0.00100554
-0.00101877
-0.00103122
-0.00104289
-0.00105383
-0.00106406
-0.00107362
-0.00108253
-0.00109083
-0.00109859
-0.00110587
-0.00111275
-0.00111933
-0.00112571
-0.00113198
-0.00113822
-0.00114453
-0.00115095
-0.00115755
-0.00116436
-0.0011714
-0.00117869
-0.00118625
-0.0011941
-0.00120222
-0.00121063
-0.00121933
-0.00122831
-0.00123758
-0.00124712
-0.00125693
-0.00126695
-0.00127712
-0.00128732
-0.00129739
-0.00130709
-0.0013161
-0.00132401
-0.00133032
-0.00133445
-0.00133598
-0.00133465
-0.00133184
-0.00132848
-0.00133499
-0.00054294
-0.000569384
-0.000595777
-0.000622257
-0.000648579
-0.000674533
-0.000700098
-0.000725324
-0.000750226
-0.000774762
-0.000798868
-0.000822475
-0.000845531
-0.000867993
-0.000889823
-0.000910982
-0.00093143
-0.000951125
-0.000970029
-0.000988109
-0.00100533
-0.00102168
-0.00103713
-0.00105168
-0.0010653
-0.00107802
-0.00108983
-0.00110077
-0.00111085
-0.00112012
-0.0011286
-0.00113636
-0.00114344
-0.00114992
-0.00115589
-0.00116147
-0.00116676
-0.00117189
-0.00117697
-0.00118211
-0.00118739
-0.0011929
-0.00119868
-0.00120477
-0.0012112
-0.00121797
-0.00122509
-0.00123257
-0.00124039
-0.00124854
-0.00125704
-0.00126587
-0.00127505
-0.00128457
-0.00129442
-0.00130455
-0.00131491
-0.00132535
-0.00133566
-0.00134556
-0.00135457
-0.00136201
-0.00136691
-0.00136806
-0.00136415
-0.00135407
-0.0013389
-0.00131991
-0.00131137
-0.000592242
-0.000620179
-0.000648041
-0.000675967
-0.000703702
-0.000731019
-0.000757894
-0.000784376
-0.000810479
-0.000836159
-0.000861341
-0.000885953
-0.000909931
-0.000933228
-0.000955798
-0.000977598
-0.00099858
-0.0010187
-0.0010379
-0.00105616
-0.00107343
-0.00108969
-0.00110491
-0.00111908
-0.0011322
-0.00114426
-0.00115527
-0.00116526
-0.00117427
-0.00118232
-0.00118947
-0.00119576
-0.00120128
-0.00120613
-0.00121043
-0.00121431
-0.00121794
-0.00122144
-0.00122497
-0.00122866
-0.00123262
-0.00123694
-0.00124168
-0.00124687
-0.00125254
-0.00125867
-0.00126527
-0.0012723
-0.00127976
-0.00128761
-0.00129586
-0.00130453
-0.00131363
-0.00132318
-0.00133321
-0.00134368
-0.00135454
-0.00136568
-0.00137693
-0.00138792
-0.00139803
-0.00140623
-0.00141091
-0.0014098
-0.00140042
-0.00138086
-0.0013525
-0.00131878
-0.00129562
-0.00064782
-0.000677326
-0.000706718
-0.000736152
-0.000765356
-0.000794091
-0.000822324
-0.000850105
-0.000877447
-0.000904302
-0.000930589
-0.000956223
-0.000981133
-0.00100526
-0.00102856
-0.00105097
-0.00107245
-0.00109293
-0.00111236
-0.00113069
-0.00114789
-0.00116391
-0.00117872
-0.00119231
-0.00120467
-0.00121578
-0.00122568
-0.00123437
-0.0012419
-0.00124832
-0.00125368
-0.00125806
-0.00126158
-0.00126436
-0.00126658
-0.00126839
-0.00127
-0.00127159
-0.00127334
-0.00127542
-0.00127796
-0.00128106
-0.00128479
-0.00128918
-0.00129422
-0.00129986
-0.00130606
-0.00131276
-0.00131993
-0.00132754
-0.00133559
-0.00134414
-0.00135324
-0.00136297
-0.00137339
-0.0013845
-0.0013963
-0.00140876
-0.00142173
-0.00143485
-0.00144734
-0.00145768
-0.0014633
-0.00146077
-0.0014467
-0.00141951
-0.00138195
-0.00134083
-0.00130981
-0.000712646
-0.000743971
-0.000775177
-0.000806391
-0.000837328
-0.000867734
-0.000897569
-0.000926882
-0.000955686
-0.000983928
-0.00101152
-0.00103836
-0.00106438
-0.0010895
-0.00111367
-0.00113682
-0.0011589
-0.00117983
-0.00119955
-0.001218
-0.00123514
-0.00125091
-0.00126529
-0.00127823
-0.00128973
-0.00129978
-0.00130838
-0.00131556
-0.00132135
-0.00132578
-0.00132893
-0.0013309
-0.00133184
-0.00133192
-0.00133133
-0.00133032
-0.00132912
-0.00132798
-0.00132714
-0.00132683
-0.00132724
-0.00132851
-0.00133073
-0.00133391
-0.00133803
-0.00134297
-0.0013486
-0.00135481
-0.00136153
-0.00136875
-0.00137652
-0.00138494
-0.00139414
-0.00140421
-0.00141526
-0.00142733
-0.00144042
-0.00145448
-0.00146943
-0.00148489
-0.00149986
-0.0015124
-0.00151929
-0.00151664
-0.00150116
-0.00147197
-0.00143406
-0.00139577
-0.00136656
-0.000782937
-0.00081606
-0.000848971
-0.000881883
-0.000914495
-0.000946523
-0.000977919
-0.00100873
-0.00103896
-0.00106856
-0.00109742
-0.00112543
-0.00115251
-0.00117857
-0.00120353
-0.00122733
-0.0012499
-0.00127114
-0.00129099
-0.00130936
-0.0013262
-0.00134145
-0.00135505
-0.00136697
-0.00137718
-0.00138566
-0.00139243
-0.00139749
-0.00140087
-0.00140265
-0.00140292
-0.00140182
-0.00139953
-0.0013963
-0.00139238
-0.00138807
-0.00138371
-0.00137961
-0.00137611
-0.00137349
-0.00137199
-0.00137181
-0.00137301
-0.00137558
-0.00137941
-0.00138429
-0.00138995
-0.00139614
-0.00140273
-0.00140976
-0.00141745
-0.00142604
-0.00143566
-0.00144637
-0.00145826
-0.00147134
-0.00148523
-0.00149962
-0.00151465
-0.00153013
-0.00154537
-0.00155919
-0.00156831
-0.00156835
-0.00155675
-0.00153389
-0.00150496
-0.00148041
-0.00146898
-0.000873249
-0.000908547
-0.000943757
-0.000978899
-0.00101366
-0.00104776
-0.00108114
-0.00111386
-0.00114592
-0.00117726
-0.00120776
-0.00123731
-0.0012658
-0.00129312
-0.00131921
-0.00134396
-0.0013673
-0.00138913
-0.00140935
-0.00142787
-0.0014446
-0.00145947
-0.00147242
-0.00148337
-0.00149229
-0.00149913
-0.00150388
-0.00150652
-0.00150707
-0.00150558
-0.00150217
-0.00149698
-0.00149024
-0.00148223
-0.00147329
-0.00146385
-0.00145434
-0.00144526
-0.00143709
-0.00143032
-0.00142533
-0.00142242
-0.00142169
-0.00142304
-0.00142618
-0.00143064
-0.00143589
-0.0014415
-0.00144723
-0.00145328
-0.00146022
-0.00146849
-0.00147795
-0.00148824
-0.00149932
-0.00151122
-0.00152262
-0.00153309
-0.00154442
-0.00155784
-0.00157305
-0.00158859
-0.00160053
-0.00160434
-0.00159871
-0.00158836
-0.00158113
-0.00158324
-0.00159827
-0.000956302
-0.000994048
-0.00103131
-0.00106852
-0.00110536
-0.00114146
-0.00117675
-0.00121128
-0.00124507
-0.00127804
-0.00131008
-0.00134104
-0.0013708
-0.00139925
-0.00142628
-0.00145179
-0.00147568
-0.00149784
-0.00151815
-0.0015365
-0.00155278
-0.00156688
-0.00157872
-0.00158821
-0.00159528
-0.0015999
-0.00160201
-0.0016016
-0.0015987
-0.00159339
-0.00158579
-0.00157608
-0.00156454
-0.00155147
-0.0015373
-0.00152255
-0.00150785
-0.00149388
-0.00148137
-0.00147106
-0.00146363
-0.00145957
-0.00145909
-0.00146198
-0.00146746
-0.00147431
-0.00148124
-0.00148736
-0.00149236
-0.0014968
-0.00150192
-0.00150853
-0.00151541
-0.00152109
-0.00152612
-0.00153234
-0.00153855
-0.00154488
-0.00155446
-0.00156806
-0.00158302
-0.00159597
-0.00160526
-0.00161093
-0.00161565
-0.00162457
-0.00164224
-0.00166912
-0.00170539
-0.00109278
-0.00113247
-0.00117243
-0.00121235
-0.00125183
-0.00129054
-0.00132838
-0.0013654
-0.00140159
-0.00143687
-0.0014711
-0.00150412
-0.00153579
-0.00156597
-0.00159454
-0.00162138
-0.00164635
-0.00166932
-0.00169016
-0.00170872
-0.00172484
-0.00173838
-0.00174917
-0.00175707
-0.00176195
-0.00176368
-0.00176214
-0.0017573
-0.00174914
-0.00173773
-0.00172326
-0.00170597
-0.0016862
-0.00166433
-0.0016409
-0.00161657
-0.00159214
-0.00156858
-0.001547
-0.0015286
-0.00151461
-0.00150608
-0.00150371
-0.00150739
-0.00151573
-0.00152583
-0.00153448
-0.00153957
-0.00154056
-0.00153876
-0.00153703
-0.00153765
-0.00153847
-0.00153743
-0.00153639
-0.00153901
-0.00154503
-0.00155211
-0.00155903
-0.00156594
-0.00157276
-0.00157922
-0.0015858
-0.00159435
-0.00160829
-0.00163127
-0.00166459
-0.00170557
-0.0017512
-0.00118323
-0.00122655
-0.00126867
-0.00131087
-0.00135274
-0.00139377
-0.00143386
-0.00147309
-0.00151146
-0.00154884
-0.00158509
-0.00162001
-0.00165345
-0.00168525
-0.00171527
-0.00174337
-0.00176939
-0.00179318
-0.00181465
-0.00183365
-0.00185005
-0.00186366
-0.00187427
-0.00188166
-0.00188563
-0.00188595
-0.00188245
-0.00187494
-0.00186326
-0.00184726
-0.0018269
-0.0018023
-0.00177375
-0.00174172
-0.00170686
-0.00167009
-0.00163257
-0.0015958
-0.00156159
-0.00153199
-0.00150917
-0.00149508
-0.00149112
-0.00149741
-0.00151175
-0.00152857
-0.00154212
-0.00154952
-0.00155057
-0.0015473
-0.00154386
-0.00154373
-0.00154649
-0.0015495
-0.00155107
-0.00155177
-0.00155275
-0.00155362
-0.00155402
-0.00155417
-0.00155431
-0.0015551
-0.00155828
-0.00156663
-0.00158365
-0.00161168
-0.00164958
-0.00169357
-0.0017397
-0.00139095
-0.00143712
-0.00148428
-0.00153099
-0.00157663
-0.00162109
-0.00166449
-0.00170691
-0.00174834
-0.00178863
-0.00182759
-0.001865
-0.00190068
-0.00193445
-0.00196611
-0.00199544
-0.0020222
-0.0020461
-0.00206681
-0.00208402
-0.00209752
-0.00210717
-0.00211283
-0.00211443
-0.00211185
-0.00210495
-0.00209357
-0.00207752
-0.00205659
-0.00203063
-0.00199944
-0.00196292
-0.00192117
-0.00187464
-0.0018241
-0.00177071
-0.00171607
-0.00166216
-0.00161137
-0.00156633
-0.00152974
-0.00150404
-0.00149096
-0.00149091
-0.00150193
-0.0015182
-0.00153344
-0.00154453
-0.00155084
-0.00155262
-0.00155151
-0.00155028
-0.00155082
-0.00155206
-0.00155266
-0.00155253
-0.00155201
-0.00155082
-0.00154856
-0.00154531
-0.00154156
-0.00153852
-0.00153851
-0.00154449
-0.00155861
-0.00158241
-0.00161713
-0.00165972
-0.00170493
0.000238075
0.0002416
0.000245356
0.000249367
0.000253531
0.000257882
0.000262417
0.000267029
0.000271715
0.000276457
0.000281299
0.000286186
0.000290957
0.000296082
0.000300455
0.000304478
0.00030762
0.000310958
0.0003135
0.000315583
0.000317025
0.000316968
0.000316125
0.0003138
0.000310397
0.000305821
0.000299508
0.000291933
0.000282956
0.000272771
0.000260277
0.000246829
0.000232348
0.000216986
0.000199843
0.000182083
0.000163894
0.000145126
0.000125887
0.000106576
8.72639e-05
6.79215e-05
4.90666e-05
3.08367e-05
1.22633e-05
-5.16219e-06
-2.25183e-05
-3.87896e-05
-5.45856e-05
-6.95884e-05
-8.37325e-05
-9.71776e-05
-0.000109821
-0.000121595
-0.000132696
-0.000143559
-0.00015348
-0.000162852
-0.000171574
0.000243094
0.000246878
0.000250915
0.000255125
0.000259542
0.000264158
0.000268939
0.000273839
0.000278858
0.000283999
0.000289187
0.000294349
0.000299465
0.000304567
0.000309505
0.000313856
0.000317794
0.000321367
0.000324334
0.000326511
0.000327909
0.000328245
0.000327474
0.000325466
0.000322208
0.000317421
0.000311222
0.000303415
0.000294301
0.000283517
0.000270858
0.000257052
0.000242238
0.000225958
0.000208478
0.000190115
0.000171167
0.000151653
0.00013178
0.000111658
9.14833e-05
7.14436e-05
5.17778e-05
3.22818e-05
1.32978e-05
-5.13096e-06
-2.29756e-05
-3.99772e-05
-5.63151e-05
-7.19314e-05
-8.6712e-05
-0.000100688
-0.000113946
-0.000126426
-0.000138292
-0.000149379
-0.000159723
-0.000169339
-0.000178291
0.00024814
0.000252212
0.000256509
0.000261015
0.000265736
0.000270659
0.00027576
0.000281019
0.000286419
0.000291933
0.00029749
0.000303013
0.000308479
0.000313877
0.000319104
0.000324009
0.000328541
0.00033252
0.000335793
0.000338275
0.000339801
0.000340436
0.000339866
0.000338015
0.000334814
0.000329969
0.000323654
0.000315745
0.000306247
0.000295105
0.000282198
0.000267957
0.000252423
0.000235513
0.000217436
0.000198445
0.000178716
0.000158415
0.000137727
0.000116796
9.57734e-05
7.48071e-05
5.40834e-05
3.38086e-05
1.40408e-05
-5.11423e-06
-2.36195e-05
-4.13997e-05
-5.84404e-05
-7.4722e-05
-9.01773e-05
-0.000104821
-0.000118673
-0.000131763
-0.000144031
-0.000155488
-0.000166199
-0.000176187
-0.000185533
0.000252856
0.000257201
0.000261802
0.000266633
0.000271694
0.000276975
0.000282458
0.000288121
0.000293936
0.000299865
0.000305858
0.00031185
0.000317798
0.000323641
0.000329268
0.000334615
0.000339552
0.000343937
0.000347612
0.000350502
0.000352392
0.000353255
0.000352866
0.000351131
0.000347981
0.000343144
0.000336716
0.000328626
0.000318782
0.000307285
0.000293998
0.000279219
0.000263009
0.000245474
0.000226705
0.000206963
0.000186417
0.000165243
0.000143637
0.00012179
9.98483e-05
7.79896e-05
5.63915e-05
3.5269e-05
1.46592e-05
-5.32601e-06
-2.46214e-05
-4.31748e-05
-6.09428e-05
-7.79008e-05
-9.40112e-05
-0.000109263
-0.000123655
-0.000137205
-0.00014992
-0.000161828
-0.000172972
-0.000183384
-0.000193117
0.000257551
0.000262188
0.000267099
0.000272257
0.000277665
0.000283311
0.00028918
0.000295251
0.000301493
0.000307868
0.000314326
0.000320809
0.000327257
0.000333585
0.000339689
0.000345483
0.000350848
0.000355659
0.000359773
0.00036307
0.000365343
0.000366477
0.000366288
0.000364689
0.000361602
0.000356785
0.00035027
0.000341972
0.000331814
0.000319933
0.000306201
0.000290862
0.000274013
0.000255788
0.00023627
0.000215695
0.000194272
0.000172184
0.000149628
0.000126818
0.000103937
8.11743e-05
5.86905e-05
3.6645e-05
1.51341e-05
-5.73748e-06
-2.58837e-05
-4.52441e-05
-6.37721e-05
-8.14359e-05
-9.82092e-05
-0.00011408
-0.000129054
-0.000143149
-0.000156391
-0.000168803
-0.000180419
-0.000191269
-0.000201402
0.00026237
0.000267322
0.000272564
0.000278069
0.00028384
0.000289866
0.000296134
0.000302622
0.000309302
0.000316133
0.000323065
0.000330039
0.000336984
0.000343813
0.000350424
0.000356712
0.000362556
0.000367825
0.00037238
0.00037607
0.000378704
0.000380139
0.00038019
0.000378757
0.000375749
0.000370944
0.000364341
0.00035584
0.000345376
0.000333096
0.000318901
0.000302995
0.000285485
0.000266512
0.000246186
0.000224728
0.000202371
0.000179323
0.000155788
0.000131984
0.000108115
8.43666e-05
6.08985e-05
3.78626e-05
1.53876e-05
-6.41746e-06
-2.7462e-05
-4.76794e-05
-6.70201e-05
-8.54497e-05
-0.000102947