/*--------------------------------*- C++ -*----------------------------------*\
| =========                 |                                                 |
| \\      /  F ield         | OpenFOAM: The Open Source CFD Toolbox           |
|  \\    /   O peration     | Version:  2312                                  |
|   \\  /    A nd           | Website:  www.openfoam.com                      |
|    \\/     M anipulation  |                                                 |
\*---------------------------------------------------------------------------*/
FoamFile
{
    version     2.0;
    format      ascii;
    arch        "LSB;label=32;scalar=64";
    class       surfaceScalarField;
    location    "1900";
    object      phi;
}
// * * * * * * * * * * * * * * * * * * * * * * * * * * * * * * * * * * * * * //

dimensions      [0 3 -1 0 0 0 0];

oriented        oriented;

internalField   nonuniform List<scalar> 
116611
(
0.0013604
0.000414963
-0.00134444
-0.000430926
0.00137624
0.000410716
-0.000426553
0.00139184
0.00040616
-0.000421765
0.0014072
0.000401261
-0.000416619
0.00142238
0.000395985
-0.000411158
0.00143754
0.000390267
-0.000405434
0.00145204
0.000384184
-0.000398687
0.00146676
0.000377709
-0.000392427
0.00148109
0.000370826
-0.000385149
0.00149534
0.000363553
-0.000377804
0.0015093
0.000355799
-0.00036976
0.00152308
0.0003476
-0.000361378
0.00153656
0.000338924
-0.000352409
0.00154986
0.000329743
-0.000343039
0.00156277
0.000320081
-0.000332993
0.00157531
0.000309993
-0.000322532
0.00158755
0.000299231
-0.000311473
0.00159944
0.000288113
-0.0003
0.00161077
0.000276222
-0.000287555
0.00162175
0.000263986
-0.000274967
0.00163246
0.000250966
-0.000261676
0.0016427
0.000237455
-0.000247698
0.00165247
0.000223285
-0.000233056
0.00166184
0.000208527
-0.000217895
0.00167065
0.00019312
-0.000201926
0.00167921
0.000177038
-0.000185595
0.0016873
0.000160182
-0.000168274
0.00169446
0.000142719
-0.000149877
0.00170156
0.000124545
-0.000131646
0.00170747
0.000105686
-0.000111596
0.00171342
8.6378e-05
-9.23282e-05
0.001719
6.60005e-05
-7.15792e-05
0.00172392
4.48775e-05
-4.98025e-05
0.00172815
2.30718e-05
-2.72998e-05
0.00173173
3.34549e-07
-3.91543e-06
0.00173457
-2.29929e-05
2.0153e-05
0.00173723
-4.71621e-05
4.44983e-05
0.00173931
-7.19645e-05
6.9887e-05
0.00174079
-9.76196e-05
9.61389e-05
0.00174132
-0.000124287
0.000123759
0.0017412
-0.000151531
0.000151651
0.00174098
-0.000179613
0.000179832
0.00174025
-0.000208476
0.000209212
0.00173846
-0.000238255
0.000240045
0.00173603
-0.000268829
0.000271258
0.00173302
-0.000300138
0.000303144
0.00172977
-0.000332244
0.000335494
0.00172514
-0.000365355
0.000369985
0.00172001
-0.000399167
0.000404294
0.00171409
-0.000433729
0.000439649
0.00170728
-0.000469089
0.000475906
0.00170008
-0.000505044
0.000512242
0.00169233
-0.00054179
0.000549535
0.00168371
-0.00057943
0.000588054
0.00167392
-0.00061776
0.000627553
0.0016638
-0.000656632
0.000666748
0.00165287
-0.000696271
0.000707206
0.00164144
-0.00073652
0.000747951
0.00162941
-0.000777239
0.000789262
0.00161678
-0.000818215
0.000830848
0.00160434
-0.000859422
0.000871864
0.00159165
-0.000901528
0.000914217
0.0015783
-0.000943934
0.000957287
0.00156489
-0.000986511
0.000999918
0.00155135
-0.00102912
0.00104266
0.00153735
-0.00107197
0.00108598
0.00152464
-0.00111457
0.00112728
0.00151316
-0.00115656
0.00116804
-0.00120249
0.0014999
0.00121574
0.00134556
0.000399235
-0.00132983
0.00136119
0.000395088
0.00137669
0.000390652
0.00139206
0.000385898
0.00140728
0.00038076
0.00142226
0.000375288
0.00143701
0.000369439
0.00145153
0.000363183
0.00146582
0.000356536
0.00147992
0.000349452
0.00149379
0.000341932
0.00150742
0.00033397
0.0015208
0.000325544
0.0015339
0.00031664
0.00154669
0.000307296
0.00155925
0.000297436
0.0015714
0.000287081
0.00158331
0.000276196
0.00159475
0.000264787
0.00160592
0.000252814
0.00161662
0.000240261
0.00162694
0.000227136
0.00163682
0.000213407
0.00164629
0.000199063
0.00165532
0.000184089
0.00166392
0.000168435
0.00167197
0.000152136
0.00167952
0.000135168
0.00168656
0.000117508
0.00169304
9.92047e-05
0.00169922
8.01903e-05
0.00170483
6.03943e-05
0.00170984
3.98661e-05
0.00171434
1.8574e-05
0.0017182
-3.52352e-06
0.00172154
-2.63356e-05
0.00172427
-4.98896e-05
0.00172646
-7.41526e-05
0.00172807
-9.92303e-05
0.00172893
-0.000125152
0.00172924
-0.000151841
0.00172893
-0.000179301
0.00172798
-0.000207523
0.00172632
-0.000236598
0.00172399
-0.000266502
0.00172104
-0.000297191
0.00171746
-0.000328662
0.0017131
-0.000360988
0.00170805
-0.000394125
0.00170233
-0.000428002
0.00169588
-0.000462643
0.00168885
-0.000498009
0.00168117
-0.000534115
0.00167276
-0.000571016
0.00166368
-0.000608682
0.00165407
-0.000647023
0.00164381
-0.000686011
0.00163294
-0.000725652
0.00162153
-0.000765824
0.00160979
-0.000806479
0.00159794
-0.000847571
0.00158566
-0.000889252
0.0015731
-0.000931372
0.00156041
-0.000973819
0.00154779
-0.0010165
0.00153515
-0.00105934
0.00152281
-0.00110223
0.00151078
-0.00114453
-0.0011897
0.001498
0.0013321
0.000383727
-0.00131659
0.00134749
0.00037969
0.00136279
0.000375356
0.00137798
0.000370707
0.00139301
0.000365725
0.0014079
0.000360403
0.00142261
0.000354726
0.00143712
0.000348677
0.00145141
0.00034224
0.00146547
0.000335394
0.00147928
0.000328127
0.00149282
0.000320425
0.00150609
0.000312277
0.00151906
0.000303667
0.00153177
0.000294591
0.00154417
0.000285031
0.00155627
0.000274979
0.00156805
0.000264418
0.0015795
0.000253337
0.0015906
0.000241716
0.00160132
0.000229543
0.00161165
0.000216801
0.00162159
0.000203473
0.00163111
0.000189542
0.0016402
0.000174996
0.00164882
0.000159816
0.00165696
0.000143991
0.00166463
0.000127504
0.00167179
0.000110347
0.00167848
9.25104e-05
0.0016847
7.39754e-05
0.00169037
5.47218e-05
0.00169551
3.47271e-05
0.00170011
1.39762e-05
0.00170413
-7.5473e-06
0.00170757
-2.97758e-05
0.00171042
-5.27397e-05
0.00171272
-7.64464e-05
0.00171442
-0.000100932
0.00171548
-0.000126211
0.00171591
-0.000152273
0.00171571
-0.000179107
0.00171492
-0.000206727
0.00171348
-0.00023516
0.00171138
-0.000264403
0.00170863
-0.000294439
0.00170523
-0.000325265
0.00170115
-0.000356905
0.00169637
-0.000389347
0.00169092
-0.000422555
0.00168481
-0.000456531
0.00167807
-0.000491271
0.00167073
-0.000526772
0.00166276
-0.000563049
0.00165417
-0.000600088
0.00164499
-0.000637841
0.00163525
-0.000676275
0.00162499
-0.000715387
0.00161428
-0.000755115
0.00160321
-0.000795413
0.00159189
-0.00083625
0.0015803
-0.00087766
0.00156851
-0.000919584
0.00155661
-0.000961922
0.0015447
-0.00100459
0.00153285
-0.00104748
0.00152122
-0.00109059
0.0015099
-0.00113322
-0.00117845
0.00149865
0.00131961
0.000368295
-0.00130418
0.00133489
0.000364407
0.00135003
0.00036022
0.00136503
0.000355711
0.00137988
0.000350874
0.00139458
0.000345699
0.00140913
0.000340178
0.00142351
0.000334301
0.00143769
0.000328054
0.00145167
0.000321421
0.0014654
0.000314388
0.00147889
0.000306938
0.00149211
0.000299059
0.00150504
0.000290734
0.00151768
0.00028195
0.00153002
0.000272695
0.00154204
0.000262956
0.00155374
0.00025272
0.0015651
0.000241972
0.00157612
0.000230699
0.00158678
0.000218886
0.00159706
0.000206517
0.00160696
0.000193578
0.00161645
0.000180054
0.00162551
0.000165929
0.00163414
0.000151187
0.00164232
0.000135813
0.00165003
0.000119791
0.00165727
0.000103111
0.00166402
8.57573e-05
0.00167028
6.77175e-05
0.00167603
4.89714e-05
0.00168126
2.94974e-05
0.00168595
9.28237e-06
0.00169009
-1.16861e-05
0.00169366
-3.33397e-05
0.00169665
-5.57317e-05
0.00169907
-7.8866e-05
0.0017009
-0.00010276
0.00170211
-0.000127428
0.00170271
-0.000152872
0.0017027
-0.000179094
0.00170207
-0.000206098
0.00170081
-0.000233897
0.0016989
-0.000262493
0.00169634
-0.000291885
0.00169315
-0.000322071
0.0016893
-0.000353059
0.0016848
-0.000384844
0.00167966
-0.000417415
0.0016739
-0.000450767
0.00166752
-0.000484898
0.00166056
-0.000519806
0.001653
-0.000555491
0.00164486
-0.000591944
0.00163616
-0.000629144
0.00162695
-0.000667065
0.00161726
-0.000705693
0.00160714
-0.000744995
0.00159666
-0.000784938
0.00158591
-0.000825499
0.00157492
-0.00086667
0.00156375
-0.000908411
0.00155248
-0.000950652
0.00154122
-0.000993324
0.00153006
-0.00103632
0.00151913
-0.00107967
0.00150847
-0.00112256
-0.00116806
0.00149808
0.00130773
0.000352855
-0.00129229
0.001323
0.000349131
0.0013381
0.000345117
0.00135303
0.000340786
0.00136778
0.000336125
0.00138235
0.000331128
0.00139674
0.000325785
0.00141095
0.000320089
0.00142498
0.000314031
0.0014388
0.000307599
0.00145241
0.00030078
0.00146578
0.000293563
0.00147891
0.000285932
0.00149177
0.000277873
0.00150435
0.000269372
0.00151663
0.000260416
0.00152859
0.000250989
0.00154024
0.000241077
0.00155154
0.000230666
0.0015625
0.000219741
0.0015731
0.000208288
0.00158332
0.000196293
0.00159316
0.00018374
0.0016026
0.000170614
0.00161163
0.000156901
0.00162023
0.000142584
0.00162839
0.000127649
0.0016361
0.00011208
0.00164335
9.58644e-05
0.00165012
7.89864e-05
0.00165641
6.1431e-05
0.0016622
4.31804e-05
0.00166748
2.42173e-05
0.00167223
4.52691e-06
0.00167644
-1.58925e-05
0.00168009
-3.69903e-05
0.00168318
-5.88179e-05
0.00168569
-8.13825e-05
0.00168763
-0.000104697
0.00168898
-0.000128774
0.00168972
-0.000153619
0.00168987
-0.000179237
0.0016894
-0.000205635
0.00168833
-0.000232819
0.00168663
-0.000260795
0.00168431
-0.000289566
0.00168137
-0.000319132
0.00167781
-0.000349495
0.00167362
-0.000380657
0.00166882
-0.000412613
0.00166341
-0.00044536
0.00165741
-0.000478897
0.00165083
-0.000513224
0.00164367
-0.000548338
0.00163597
-0.000584235
0.00162772
-0.000620903
0.00161899
-0.000658326
0.00160978
-0.00069649
0.00160016
-0.000735376
0.00159019
-0.000774964
0.00157993
-0.000815235
0.00156943
-0.000856172
0.00155876
-0.000897748
0.00154803
-0.000939915
0.00153732
-0.000982618
0.00152676
-0.00102576
0.00151649
-0.00106939
0.0015066
-0.00111268
-0.00115905
0.00149758
0.00129629
0.00033743
-0.00128086
0.00131157
0.000333852
0.00132668
0.000330002
0.00134162
0.00032585
0.00135636
0.000321381
0.00137091
0.000316583
0.00138525
0.000311446
0.00139938
0.000305959
0.00141329
0.000300114
0.00142699
0.000293899
0.00144047
0.000287305
0.00145371
0.00028032
0.00146671
0.000272934
0.00147945
0.000265132
0.00149192
0.000256903
0.0015041
0.000248232
0.00151599
0.000239105
0.00152756
0.000229509
0.00153879
0.000219427
0.00154969
0.000208845
0.00156023
0.000197748
0.0015704
0.000186122
0.00158019
0.000173951
0.00158959
0.00016122
0.00159857
0.000147913
0.00160714
0.000134016
0.00161528
0.000119513
0.00162297
0.000104388
0.00163021
8.86276e-05
0.00163698
7.22156e-05
0.00164327
5.51364e-05
0.00164908
3.73737e-05
0.00165439
1.89111e-05
0.00165918
-2.67144e-07
0.00166343
-2.01454e-05
0.00166715
-4.07053e-05
0.00167031
-6.19826e-05
0.00167292
-8.39916e-05
0.00167497
-0.000106743
0.00167644
-0.000130246
0.00167733
-0.000154511
0.00167764
-0.000179543
0.00167735
-0.00020535
0.00167647
-0.000231939
0.00167499
-0.000259315
0.00167291
-0.000287482
0.00167022
-0.000316444
0.00166693
-0.000346203
0.00166303
-0.000376761
0.00165854
-0.000408119
0.00165346
-0.000440276
0.00164779
-0.000473232
0.00164156
-0.000506989
0.00163476
-0.000541546
0.00162743
-0.0005769
0.00161957
-0.000613047
0.00161122
-0.000649977
0.00160242
-0.000687683
0.00159319
-0.000726155
0.00158361
-0.000765383
0.00157374
-0.000805358
0.00156363
-0.000846068
0.00155338
-0.000887497
0.00154308
-0.000929615
0.00153285
-0.000972386
0.00152282
-0.00101573
0.00151314
-0.00105971
0.00150396
-0.0011035
-0.00115072
0.00149563
0.0012854
0.000322076
-0.00127005
0.00130063
0.000318624
0.00131572
0.000314916
0.00133064
0.000310924
0.00134539
0.000306632
0.00135995
0.000302027
0.0013743
0.000297097
0.00138843
0.00029183
0.00140233
0.000286213
0.00141599
0.000280236
0.00142941
0.000273886
0.00144257
0.000267153
0.00145548
0.000260025
0.00146813
0.00025249
0.00148049
0.000244537
0.00149257
0.000236152
0.00150435
0.000227324
0.00151582
0.000218037
0.00152697
0.000208278
0.00153779
0.000198032
0.00154825
0.000187284
0.00155835
0.00017602
0.00156808
0.000164223
0.00157742
0.00015188
0.00158636
0.000138973
0.00159489
0.000125488
0.00160299
0.000111409
0.00161066
9.67211e-05
0.00161788
8.14076e-05
0.00162464
6.54532e-05
0.00163094
4.88423e-05
0.00163675
3.15586e-05
0.00164208
1.35862e-05
0.0016469
-5.09249e-06
0.0016512
-2.44401e-05
0.00165497
-4.44755e-05
0.0016582
-6.52182e-05
0.0016609
-8.66855e-05
0.00166304
-0.000108887
0.00166463
-0.000131833
0.00166565
-0.000155534
0.0016661
-0.000179996
0.00166598
-0.000205228
0.00166528
-0.000231236
0.00166399
-0.000258028
0.00166212
-0.000285608
0.00165965
-0.000313982
0.0016566
-0.000343152
0.00165296
-0.000373122
0.00164874
-0.000403895
0.00164394
-0.000435472
0.00163856
-0.000467856
0.00163262
-0.000501049
0.00162613
-0.000535052
0.00161909
-0.000569867
0.00161154
-0.000605494
0.00160349
-0.000641931
0.00159499
-0.000679177
0.00158607
-0.000717234
0.00157679
-0.000756102
0.00156721
-0.000795782
0.00155742
-0.000836274
0.0015475
-0.000877577
0.00153756
-0.000919678
0.00152774
-0.000962562
0.00151817
-0.00100616
0.00150904
-0.00105058
0.00150049
-0.00109495
-0.00114294
0.00149271
0.00127524
0.000306818
-0.00125998
0.00129038
0.000303489
0.00130538
0.000299914
0.00132023
0.000296068
0.00133493
0.000291935
0.00134945
0.000287505
0.00136378
0.000282766
0.00137791
0.000277705
0.00139181
0.000272311
0.00140548
0.000266569
0.0014189
0.000260468
0.00143205
0.000253995
0.00144494
0.000247137
0.00145755
0.000239882
0.00146987
0.000232217
0.00148189
0.00022413
0.00149361
0.000215608
0.00150501
0.000206637
0.00151608
0.000197204
0.00152682
0.000187295
0.00153721
0.000176895
0.00154724
0.00016599
0.0015569
0.000154565
0.00156617
0.000142604
0.00157505
0.000130091
0.00158353
0.000117012
0.00159159
0.00010335
0.00159922
8.90903e-05
0.00160641
7.42156e-05
0.00161315
5.87107e-05
0.00161944
4.25593e-05
0.00162525
2.57454e-05
0.00163058
8.25292e-06
0.00163542
-9.93328e-06
0.00163975
-2.87645e-05
0.00164356
-4.82864e-05
0.00164685
-6.85081e-05
0.00164961
-8.94464e-05
0.00165184
-0.000111112
0.00165352
-0.000133515
0.00165465
-0.000156666
0.00165523
-0.000180572
0.00165524
-0.000205243
0.00165469
-0.000230686
0.00165357
-0.000256907
0.00165187
-0.000283913
0.0016496
-0.000311711
0.00164675
-0.000340303
0.00164333
-0.000369695
0.00163932
-0.00039989
0.00163474
-0.000430892
0.00162959
-0.000462706
0.00162388
-0.000495335
0.00161761
-0.000528785
0.0016108
-0.000563059
0.00160347
-0.000598165
0.00159565
-0.000634107
0.00158737
-0.000670895
0.00157867
-0.000708538
0.00156962
-0.000747048
0.00156027
-0.000786439
0.00155072
-0.000826726
0.00154107
-0.000867924
0.00153143
-0.000910038
0.00152195
-0.000953077
0.00151277
-0.00099699
0.00150412
-0.00104193
0.00149612
-0.00108695
-0.00113618
0.00148936
0.00126588
0.000291648
-0.00125071
0.00128092
0.000288448
0.00129583
0.00028501
0.00131059
0.000281309
0.00132519
0.000277332
0.00133963
0.000273068
0.00135388
0.000268508
0.00136795
0.00026364
0.00138181
0.000258453
0.00139544
0.000252934
0.00140884
0.00024707
0.00142198
0.000240849
0.00143486
0.000234257
0.00144746
0.000227281
0.00145977
0.000219907
0.00147178
0.000212122
0.00148348
0.000203913
0.00149485
0.000195265
0.00150589
0.000186165
0.00151658
0.000176599
0.00152693
0.000166552
0.00153691
0.00015601
0.00154651
0.000144957
0.00155574
0.000133379
0.00156457
0.00012126
0.001573
0.000108585
0.00158101
9.53363e-05
0.0015886
8.14996e-05
0.00159576
6.70584e-05
0.00160247
5.19964e-05
0.00160874
3.62976e-05
0.00161454
1.99455e-05
0.00161986
2.92408e-06
0.0016247
-1.47699e-05
0.00162904
-3.31027e-05
0.00163287
-5.21201e-05
0.0016362
-7.18323e-05
0.001639
-9.22531e-05
0.00164129
-0.000113395
0.00164304
-0.000135267
0.00164425
-0.000157879
0.00164492
-0.000181242
0.00164504
-0.000205363
0.00164461
-0.00023025
0.00164361
-0.000255912
0.00164205
-0.000282354
0.00163992
-0.000309583
0.00163723
-0.000337604
0.00163395
-0.000366423
0.00163011
-0.000396045
0.00162569
-0.000426475
0.00162071
-0.000457721
0.00161516
-0.000489788
0.00160906
-0.000522684
0.00160242
-0.00055642
0.00159526
-0.000591006
0.00158761
-0.000626455
0.0015795
-0.000662785
0.00157098
-0.000700015
0.0015621
-0.000738169
0.00155293
-0.000777276
0.00154357
-0.000817365
0.00153412
-0.000858468
0.00152469
-0.000900614
0.00151545
-0.000943833
0.00150656
-0.000988102
0.00149825
-0.00103362
0.00149065
-0.00107935
-0.00112989
0.00148436
0.00125733
0.000276545
-0.00124223
0.0012723
0.00027348
0.00128712
0.000270187
0.00130179
0.000266638
0.0013163
0.000262823
0.00133064
0.00025873
0.0013448
0.00025435
0.00135876
0.000249672
0.00137253
0.000244687
0.00138608
0.000239382
0.00139941
0.000233746
0.00141249
0.000227766
0.00142532
0.000221429
0.00143788
0.000214722
0.00145015
0.000207631
0.00146213
0.000200142
0.0014738
0.000192242
0.00148515
0.000183916
0.00149617
0.000175149
0.00150684
0.000165927
0.00151716
0.000156235
0.00152711
0.000146059
0.00153669
0.000135381
0.00154588
0.000124188
0.00155467
0.000112464
0.00156306
0.000100193
0.00157104
8.73576e-05
0.0015786
7.39433e-05
0.00158572
5.99334e-05
0.00159241
4.53115e-05
0.00159865
3.00613e-05
0.00160443
1.41663e-05
0.00160974
-2.3902e-06
0.00161456
-1.95912e-05
0.0016189
-3.74375e-05
0.00162273
-5.59581e-05
0.00162607
-7.51688e-05
0.0016289
-9.50812e-05
0.00163121
-0.000115707
0.001633
-0.000137058
0.00163426
-0.000159142
0.00163499
-0.00018197
0.00163518
-0.00020555
0.00163482
-0.000229891
0.00163391
-0.000255001
0.00163244
-0.000280887
0.00163041
-0.000307555
0.00162782
-0.000335012
0.00162466
-0.000363265
0.00162094
-0.00039232
0.00161665
-0.000422184
0.00161179
-0.000452866
0.00160638
-0.000484375
0.00160042
-0.000516723
0.00159392
-0.000549922
0.00158691
-0.000583989
0.0015794
-0.000618946
0.00157143
-0.000654815
0.00156304
-0.000691628
0.00155429
-0.00072942
0.00154525
-0.000768233
0.001536
-0.000808115
0.00152665
-0.000849115
0.00151732
-0.000891288
0.00150817
-0.000934687
0.0014994
-0.000979329
0.00149123
-0.00102544
0.00148384
-0.00107197
-0.00112436
0.00147832
0.00124955
0.000261493
-0.0012345
0.00126447
0.000258568
0.00127923
0.000255424
0.00129383
0.000252034
0.00130827
0.000248387
0.00132253
0.000244471
0.0013366
0.000240278
0.00135047
0.000235798
0.00136414
0.000231019
0.00137759
0.000225931
0.00139082
0.000220522
0.0014038
0.000214781
0.00141654
0.000208695
0.00142901
0.000202251
0.0014412
0.000195436
0.00145311
0.000188237
0.00146471
0.000180638
0.001476
0.000172627
0.00148696
0.000164188
0.00149758
0.000155306
0.00150785
0.000145966
0.00151776
0.000136151
0.00152729
0.000125848
0.00153644
0.000115039
0.0015452
0.000103709
0.00155355
9.18405e-05
0.00156149
7.94183e-05
0.00156901
6.64256e-05
0.0015761
5.28457e-05
0.00158274
3.86622e-05
0.00158895
2.38585e-05
0.0015947
8.41797e-06
0.00159998
-7.67451e-06
0.00160478
-2.43868e-05
0.00160909
-4.17512e-05
0.00161291
-5.97824e-05
0.00161624
-7.84979e-05
0.00161907
-9.79091e-05
0.00162139
-0.000118028
0.0016232
-0.000138864
0.00162448
-0.000160428
0.00162524
-0.00018273
0.00162547
-0.000205779
0.00162517
-0.000229583
0.00162431
-0.000254151
0.00162292
-0.000279489
0.00162097
-0.000305607
0.00161847
-0.00033251
0.00161541
-0.000360205
0.00161179
-0.000388702
0.00160761
-0.000418008
0.00160288
-0.000448133
0.00159759
-0.000479089
0.00159176
-0.00051089
0.00158539
-0.000543554
0.0015785
-0.0005771
0.00157111
-0.000611555
0.00156325
-0.000646952
0.00155495
-0.000683329
0.00154627
-0.000720735
0.00153726
-0.000759226
0.00152801
-0.000798868
0.00151863
-0.000839734
0.00150924
-0.000881903
0.00150001
-0.000925457
0.00149114
-0.00097045
0.00148283
-0.00101714
0.00147537
-0.00106451
-0.00111884
0.00146986
0.00124253
0.000246478
-0.00122751
0.0012574
0.000243695
0.00127212
0.000240704
0.00128668
0.000237478
0.00130106
0.000234003
0.00131526
0.000230271
0.00132927
0.000226271
0.00134307
0.000221994
0.00135666
0.000217429
0.00137003
0.000212564
0.00138316
0.000207389
0.00139605
0.000201892
0.00140868
0.000196061
0.00142105
0.000189883
0.00143314
0.000183346
0.00144494
0.000176435
0.00145644
0.000169137
0.00146763
0.000161438
0.0014785
0.000153323
0.00148903
0.000144776
0.00149921
0.000135783
0.00150903
0.000126328
0.00151849
0.000116394
0.00152756
0.000105966
0.00153624
9.5026e-05
0.00154452
8.35584e-05
0.0015524
7.15461e-05
0.00155985
5.89722e-05
0.00156688
4.58197e-05
0.00157347
3.20716e-05
0.00157961
1.77111e-05
0.00158531
2.72116e-06
0.00159054
-1.29034e-05
0.00159529
-2.91388e-05
0.00159957
-4.60252e-05
0.00160336
-6.35746e-05
0.00160666
-8.1802e-05
0.00160947
-0.00010072
0.00161178
-0.000120339
0.00161359
-0.000140671
0.00161489
-0.000161725
0.00161567
-0.000183511
0.00161593
-0.000206039
0.00161566
-0.000229317
0.00161486
-0.000253354
0.00161353
-0.000278157
0.00161166
-0.000303734
0.00160924
-0.000330094
0.00160628
-0.000357243
0.00160277
-0.00038519
0.0015987
-0.000413944
0.00159409
-0.000443518
0.00158892
-0.000473923
0.00158321
-0.000505176
0.00157695
-0.000537296
0.00157016
-0.000570308
0.00156285
-0.000604243
0.00155503
-0.000639139
0.00154675
-0.000675045
0.00153804
-0.000712022
0.00152895
-0.00075014
0.00151957
-0.000789488
0.00151
-0.000830162
0.00150037
-0.000872274
0.00149085
-0.00091594
0.00148165
-0.000961252
0.00147299
-0.00100848
0.0014651
-0.00105662
-0.00111187
0.00145812
0.00123625
0.000231499
-0.00122127
0.00125109
0.000228859
0.00126577
0.000226022
0.00128029
0.00022296
0.00129463
0.000219661
0.00130879
0.000216115
0.00132275
0.000212313
0.0013365
0.000208243
0.00135003
0.000203897
0.00136333
0.000199262
0.00137639
0.000194327
0.0013892
0.000189082
0.00140175
0.000183512
0.00141403
0.000177606
0.00142602
0.000171352
0.00143772
0.000164735
0.00144912
0.000157741
0.0014602
0.000150358
0.00147095
0.000142569
0.00148137
0.000134359
0.00149144
0.000125714
0.00150115
0.000116617
0.00151049
0.000107052
0.00151946
9.70018e-05
0.00152803
8.64506e-05
0.00153621
7.53808e-05
0.00154398
6.37754e-05
0.00155134
5.16169e-05
0.00155827
3.8888e-05
0.00156477
2.55713e-05
0.00157083
1.16494e-05
0.00157645
-2.8956e-06
0.00158159
-1.80496e-05
0.00158628
-3.38212e-05
0.00159049
-5.02368e-05
0.00159422
-6.73124e-05
0.00159748
-8.50607e-05
0.00160026
-0.000103494
0.00160254
-0.000122625
0.00160434
-0.000142462
0.00160563
-0.000163018
0.00160642
-0.0001843
0.0016067
-0.000206319
0.00160647
-0.000229084
0.00160571
-0.000252602
0.00160444
-0.000276881
0.00160263
-0.00030193
0.0016003
-0.000327756
0.00159742
-0.000354367
0.001594
-0.000381771
0.00159004
-0.000409979
0.00158552
-0.000439001
0.00158045
-0.000468852
0.00157482
-0.000499548
0.00156864
-0.000531111
0.0015619
-0.000563567
0.0015546
-0.00059695
0.00154677
-0.000631307
0.00153842
-0.000666692
0.00152957
-0.000703178
0.00152029
-0.000740853
0.00151062
-0.000779825
0.00150068
-0.000820221
0.0014906
-0.000862193
0.00148057
-0.000905909
0.00147086
-0.000951542
0.00146176
-0.000999383
0.00145366
-0.00104851
-0.00110426
0.00144605
0.00123079
0.000216565
-0.00121585
0.00124558
0.000214067
0.00126022
0.000211382
0.00127469
0.000208485
0.00128899
0.000205361
0.00130311
0.000202003
0.00131702
0.000198399
0.00133072
0.00019454
0.00134421
0.000190415
0.00135745
0.000186013
0.00137046
0.000181323
0.00138321
0.000176333
0.00139569
0.000171031
0.00140789
0.000165404
0.0014198
0.000159439
0.00143142
0.000153122
0.00144272
0.00014644
0.0014537
0.000139377
0.00146435
0.00013192
0.00147465
0.000124053
0.00148461
0.000115759
0.0014942
0.000107024
0.00150342
9.78305e-05
0.00151226
8.81614e-05
0.00152071
7.79998e-05
0.00152876
6.73282e-05
0.00153641
5.61289e-05
0.00154364
4.43844e-05
0.00155045
3.20767e-05
0.00155684
1.9188e-05
0.00156279
5.70054e-06
0.00156829
-8.40048e-06
0.00157333
-2.30906e-05
0.00157792
-3.84057e-05
0.00158204
-5.43597e-05
0.0015857
-7.09701e-05
0.00158889
-8.82491e-05
0.0015916
-0.000106209
0.00159384
-0.000124862
0.00159559
-0.000144217
0.00159686
-0.000164285
0.00159764
-0.000185076
0.00159792
-0.000206599
0.00159769
-0.000228862
0.00159697
-0.000251873
0.00159573
-0.000275641
0.00159397
-0.000300172
0.00159168
-0.000325473
0.00158887
-0.000351553
0.00158552
-0.000378419
0.00158162
-0.000406082
0.00157717
-0.000434552
0.00157216
-0.000463842
0.00156658
-0.000493969
0.00156043
-0.000524955
0.00155369
-0.000556828
0.00154636
-0.000589624
0.00153845
-0.000623392
0.00152995
-0.000658193
0.00152088
-0.000694108
0.00151127
-0.00073124
0.00150116
-0.00076972
0.00149065
-0.000809714
0.00147989
-0.000851432
0.00146911
-0.000895127
0.00145867
-0.000941102
0.00144896
-0.000989667
0.00144086
-0.00104042
-0.00109716
0.00143377
0.00122625
0.000201691
-0.00121137
0.00124098
0.000199333
0.00125556
0.000196799
0.00126998
0.000194064
0.00128423
0.000191116
0.00129829
0.000187944
0.00131215
0.000184538
0.0013258
0.00018089
0.00133922
0.000176988
0.00135242
0.000172822
0.00136536
0.000168379
0.00137804
0.000163648
0.00139046
0.000158617
0.00140259
0.000153272
0.00141443
0.000147601
0.00142596
0.00014159
0.00143717
0.000135224
0.00144806
0.00012849
0.00145861
0.000121371
0.00146881
0.000113852
0.00147866
0.000105917
0.00148813
9.75491e-05
0.00149723
8.87321e-05
0.00150594
7.94484e-05
0.00151426
6.96803e-05
0.00152218
5.94099e-05
0.00152969
4.86192e-05
0.00153678
3.72898e-05
0.00154346
2.54034e-05
0.0015497
1.29418e-05
0.00155552
-1.13608e-07
0.00156088
-1.37638e-05
0.00156579
-2.8003e-05
0.00157025
-4.28658e-05
0.00157426
-5.83662e-05
0.00157781
-7.45191e-05
0.0015809
-9.13378e-05
0.00158352
-0.000108834
0.00158568
-0.000127019
0.00158737
-0.000145904
0.00158858
-0.000165497
0.00158931
-0.000185809
0.00158956
-0.000206848
0.00158932
-0.000228621
0.00158858
-0.000251138
0.00158735
-0.000274404
0.0015856
-0.000298427
0.00158334
-0.000323213
0.00158056
-0.00034877
0.00157724
-0.000375104
0.00157339
-0.000402224
0.00156897
-0.00043014
0.001564
-0.000458864
0.00155844
-0.000488412
0.00155229
-0.000518804
0.00154552
-0.000550065
0.00153813
-0.000582233
0.00153009
-0.000615353
0.00152139
-0.000649488
0.00151201
-0.000684724
0.00150194
-0.000721178
0.00149124
-0.000759015
0.00147999
-0.000798462
0.00146839
-0.000839832
0.00145676
-0.000883496
0.00144553
-0.000929871
0.00143496
-0.000979104
0.00142522
-0.00103068
-0.00108472
0.00141278
0.00122276
0.000186885
-0.00120796
0.00123743
0.000184667
0.00125194
0.000182285
0.0012663
0.000179712
0.00128047
0.000176938
0.00129446
0.000173953
0.00130826
0.000170746
0.00132184
0.000167309
0.00133519
0.000163631
0.00134831
0.000159701
0.00136119
0.000155507
0.0013738
0.000151038
0.00138613
0.00014628
0.00139818
0.000141222
0.00140994
0.000135849
0.00142138
0.000130148
0.0014325
0.000124104
0.00144329
0.000117702
0.00145373
0.000110927
0.00146382
0.000103762
0.00147354
9.61917e-05
0.0014829
8.81982e-05
0.00149186
7.97642e-05
0.00150044
7.08718e-05
0.00150862
6.15029e-05
0.00151639
5.16388e-05
0.00152375
4.12607e-05
0.00153069
3.03499e-05
0.0015372
1.88873e-05
0.00154329
6.8538e-06
0.00154894
-5.76721e-06
0.00155414
-1.89635e-05
0.0015589
-3.2759e-05
0.00156321
-4.71741e-05
0.00156707
-6.22262e-05
0.00157048
-7.79289e-05
0.00157344
-9.42953e-05
0.00157594
-0.000111337
0.00157798
-0.000129065
0.00157957
-0.00014749
0.00158069
-0.00016662
0.00158135
-0.000186465
0.00158154
-0.000207033
0.00158124
-0.00022833
0.00158047
-0.000250365
0.00157921
-0.000273143
0.00157745
-0.00029667
0.00157519
-0.000320952
0.00157242
-0.000345995
0.00156912
-0.000371805
0.00156528
-0.000398389
0.0015609
-0.000425754
0.00155594
-0.000453911
0.0015504
-0.000482872
0.00154425
-0.000512652
0.00153746
-0.000543273
0.00152999
-0.000574761
0.00152179
-0.000607158
0.00151283
-0.000640521
0.00150305
-0.000674944
0.00149244
-0.000710574
0.00148107
-0.00074764
0.00146908
-0.000786475
0.00145677
-0.000827522
0.00144451
-0.000871238
0.00143262
-0.00091798
0.00142072
-0.0009672
0.00140743
-0.00101739
-0.00106266
0.00138537
0.00122044
0.000172142
-0.0012057
0.00123504
0.000170068
0.00124949
0.000167839
0.00126377
0.000165432
0.00127787
0.000162835
0.00129179
0.000160038
0.0013055
0.000157033
0.001319
0.000153809
0.00133227
0.000150357
0.00134531
0.000146665
0.00135809
0.000142723
0.00137061
0.000138518
0.00138286
0.000134038
0.00139481
0.000129269
0.00140646
0.000124199
0.00141779
0.000118813
0.0014288
0.000113096
0.00143947
0.000107032
0.00144979
0.000100607
0.00145975
9.38035e-05
0.00146934
8.66041e-05
0.00147854
7.89914e-05
0.00148736
7.09473e-05
0.00149578
6.24533e-05
0.00150379
5.34901e-05
0.00151139
4.40386e-05
0.00151857
3.4079e-05
0.00152533
2.35917e-05
0.00153166
1.25567e-05
0.00153756
9.54441e-07
0.00154302
-1.12226e-05
0.00154803
-2.3971e-05
0.00155259
-3.73236e-05
0.00155671
-5.12961e-05
0.00156039
-6.59052e-05
0.00156363
-8.11648e-05
0.00156642
-9.70875e-05
0.00156877
-0.000113685
0.00157067
-0.000130967
0.00157212
-0.000148945
0.00157313
-0.000167625
0.00157368
-0.000187017
0.00157378
-0.000207128
0.00157341
-0.000227965
0.00157258
-0.000249533
0.00157127
-0.000271837
0.00156949
-0.000294884
0.00156721
-0.000318676
0.00156443
-0.000343219
0.00156115
-0.000368518
0.00155733
-0.000394576
0.00155298
-0.000421398
0.00154806
-0.000448991
0.00154254
-0.000477358
0.0015364
-0.000506506
0.00152957
-0.000536444
0.001522
-0.000567188
0.00151361
-0.000598773
0.00150436
-0.000631267
0.00149421
-0.000664798
0.00148322
-0.000699581
0.00147152
-0.000735941
0.00145934
-0.000774298
0.00144691
-0.000815095
0.00143423
-0.00085855
0.00142058
-0.000904333
0.00140375
-0.000950366
0.00137932
-0.000992967
-0.00102132
0.00133798
0.00121934
0.000157448
-0.00120465
0.00123389
0.000155522
0.00124828
0.000153452
0.00126249
0.000151215
0.00127653
0.000148799
0.00129037
0.000146196
0.00130401
0.000143396
0.00131743
0.000140391
0.00133061
0.000137169
0.00134356
0.000133721
0.00135624
0.000130036
0.00136866
0.0001261
0.0013808
0.000121902
0.00139264
0.000117429
0.00140417
0.000112668
0.00141538
0.000107602
0.00142626
0.000102219
0.00143679
9.65017e-05
0.00144696
9.0434e-05
0.00145677
8.39989e-05
0.00146619
7.71788e-05
0.00147523
6.99554e-05
0.00148386
6.23096e-05
0.0014921
5.42221e-05
0.00149991
4.56729e-05
0.00150731
3.66415e-05
0.00151428
2.71075e-05
0.00152082
1.70498e-05
0.00152693
6.44754e-06
0.0015326
-4.71792e-06
0.00153783