/*--------------------------------*- C++ -*----------------------------------*\
| =========                 |                                                 |
| \\      /  F ield         | OpenFOAM: The Open Source CFD Toolbox           |
|  \\    /   O peration     | Version:  2312                                  |
|   \\  /    A nd           | Website:  www.openfoam.com                      |
|    \\/     M anipulation  |                                                 |
\*---------------------------------------------------------------------------*/
FoamFile
{
    version     2.0;
    format      ascii;
    arch        "LSB;label=32;scalar=64";
    class       volVectorField;
    location    "1900";
    object      U;
}
// * * * * * * * * * * * * * * * * * * * * * * * * * * * * * * * * * * * * * //

dimensions      [0 1 -1 0 0 0 0];

internalField   nonuniform List<vector> 
76025
(
(0.0426166 -0.0123289 0)
(0.0428915 -0.0123074 -3.47194e-22)
(0.043167 -0.0122778 0)
(0.0434438 -0.0122423 0)
(0.0437157 -0.0122009 8.35077e-22)
(0.043999 -0.0121425 1.81212e-21)
(0.0442759 -0.0120858 -3.26386e-21)
(0.0445549 -0.0120143 1.42572e-21)
(0.0448372 -0.0119405 5.28422e-22)
(0.0451211 -0.0118606 -5.54081e-22)
(0.0454062 -0.0117714 2.10962e-23)
(0.0456934 -0.0116721 -1.81572e-21)
(0.045983 -0.011567 2.41644e-21)
(0.0462737 -0.0114506 0)
(0.0465684 -0.0113217 -6.86834e-22)
(0.0468559 -0.0111935 0)
(0.0471454 -0.0110477 0)
(0.047431 -0.0108998 0)
(0.0477167 -0.0107355 -7.66991e-22)
(0.0479942 -0.010573 8.26207e-22)
(0.0482727 -0.0103931 8.54489e-22)
(0.0485537 -0.0102045 2.61425e-21)
(0.0488294 -0.0100095 -1.76483e-21)
(0.0491015 -0.00980517 -2.82379e-21)
(0.04937 -0.00959409 -5.51751e-23)
(0.0496337 -0.00937985 -1.06396e-21)
(0.0499034 -0.00914217 3.07937e-21)
(0.050164 -0.0089066 -3.12779e-21)
(0.0504197 -0.00865439 1.07471e-21)
(0.0506701 -0.00838601 -1.10957e-21)
(0.0509142 -0.00812521 -1.14919e-21)
(0.0511614 -0.0078525 2.42998e-21)
(0.0514121 -0.00755556 -3.70499e-21)
(0.051655 -0.0072699 -6.67063e-22)
(0.0518907 -0.00696538 3.33528e-21)
(0.0521168 -0.00666647 1.88403e-23)
(0.0523415 -0.00634538 -6.77885e-22)
(0.052572 -0.00599762 3.50579e-22)
(0.0528009 -0.00566304 8.27258e-24)
(0.0530211 -0.00530714 -5.29363e-22)
(0.0532302 -0.00495225 3.50504e-22)
(0.0534393 -0.00457656 -1.76362e-22)
(0.0536578 -0.00416862 3.54336e-22)
(0.0538721 -0.00376813 -7.16392e-22)
(0.054073 -0.00335104 -7.34849e-22)
(0.0542679 -0.00293293 1.43541e-21)
(0.054465 -0.00248482 1.48693e-21)
(0.0546599 -0.00203867 -4.46653e-21)
(0.0548391 -0.00158181 2.95854e-21)
(0.0550118 -0.00111284 2.32374e-24)
(0.0551777 -0.000629861 -7.57098e-21)
(0.055336 -0.00012498 -3.02774e-21)
(0.0554927 0.000400343 3.10773e-21)
(0.0556435 0.000948019 0)
(0.0557812 0.00150399 -3.11201e-21)
(0.0559052 0.00206063 -3.19618e-21)
(0.0560249 0.0026462 5.69974e-23)
(0.0561362 0.00325521 -3.19746e-21)
(0.0562333 0.00389902 3.31287e-21)
(0.0563174 0.00457328 -9.84928e-21)
(0.056408 0.00525411 -6.78489e-21)
(0.0564952 0.00598337 -1.33885e-22)
(0.0565699 0.00674605 0)
(0.0566261 0.00754406 1.77643e-20)
(0.0566753 0.00838487 -7.06717e-21)
(0.0567148 0.00923333 3.63453e-21)
(0.056731 0.0101667 -7.46831e-21)
(0.0567236 0.0111965 7.87659e-21)
(0.0568817 0.0122093 1.60219e-20)
(0.0426453 -0.012788 -3.43674e-22)
(0.0429291 -0.0127646 -1.15674e-21)
(0.0432155 -0.012732 1.50179e-21)
(0.0435049 -0.0126914 0)
(0.0437943 -0.0126458 -2.26591e-21)
(0.0440883 -0.0125896 -1.15663e-22)
(0.0443806 -0.0125265 1.93074e-21)
(0.044673 -0.0124543 0)
(0.0449668 -0.0123738 2.44031e-23)
(0.0452613 -0.0122858 5.64033e-22)
(0.0455575 -0.0121899 -5.904e-22)
(0.0458548 -0.0120853 2.78513e-23)
(0.0461524 -0.0119726 0)
(0.0464509 -0.0118516 0)
(0.0467508 -0.0117191 -1.48758e-21)
(0.0470486 -0.0115806 3.66795e-21)
(0.0473476 -0.0114303 7.84955e-22)
(0.0476448 -0.0112734 -2.4392e-21)
(0.0479418 -0.0111052 1.62572e-21)
(0.0482355 -0.0109297 -8.39406e-22)
(0.0485283 -0.010744 9.30629e-22)
(0.0488181 -0.0105492 -1.80142e-21)
(0.0491051 -0.0103452 1.91896e-21)
(0.0493894 -0.0101318 -2.9464e-21)
(0.049671 -0.00990874 1.98719e-21)
(0.0499499 -0.00967751 3.13327e-21)
(0.0502266 -0.00943548 -2.12016e-21)
(0.050497 -0.00918653 0)
(0.0507631 -0.00892675 0)
(0.0510253 -0.00865691 -1.19767e-21)
(0.0512854 -0.00837624 0)
(0.0515452 -0.00808712 -1.27509e-21)
(0.0518007 -0.00778951 1.31394e-21)
(0.0520502 -0.00748581 -2.00566e-21)
(0.0522948 -0.00717314 1.90859e-23)
(0.0525353 -0.00684904 -6.96288e-22)
(0.0527723 -0.00651086 0)
(0.0530055 -0.00616264 -1.44186e-21)
(0.0532354 -0.005808 1.08888e-21)
(0.0534597 -0.00544544 -9.03919e-22)
(0.0536781 -0.0050708 5.47837e-22)
(0.0538925 -0.00468169 -7.66501e-24)
(0.0541032 -0.00428375 1.98983e-22)
(0.0543088 -0.00388188 -1.84945e-22)
(0.0545081 -0.00346851 1.51885e-21)
(0.0547026 -0.00304127 -7.64877e-22)
(0.0548933 -0.00259947 -7.84487e-22)
(0.0550794 -0.00215122 1.515e-21)
(0.0552575 -0.00168777 4.63909e-21)
(0.0554292 -0.00120765 -1.33597e-24)
(0.0555948 -0.000712208 4.67202e-21)
(0.0557539 -0.000198946 -1.59113e-21)
(0.0559085 0.000329527 -4.77856e-21)
(0.0560583 0.000868788 3.16897e-21)
(0.0562013 0.00142027 0)
(0.0563362 0.001995 9.81766e-21)
(0.0564653 0.00259111 7.4352e-23)
(0.0565871 0.00320674 -3.29442e-21)
(0.0567002 0.00384386 -3.40161e-21)
(0.0568073 0.00450571 0)
(0.0569098 0.00520517 3.34321e-21)
(0.0570098 0.00593465 1.04326e-20)
(0.0571035 0.00668957 0)
(0.0571878 0.00748002 -7.21948e-21)
(0.0572647 0.00831314 3.95628e-21)
(0.057329 0.00919255 -7.63312e-21)
(0.0573825 0.01013 3.84247e-21)
(0.0574079 0.0111141 -7.93778e-21)
(0.0575046 0.0121117 -8.16443e-21)
(0.0426951 -0.0132856 1.83793e-21)
(0.0429855 -0.0132595 -1.08814e-21)
(0.0432787 -0.0132237 4.2388e-22)
(0.0435759 -0.0131801 -1.83347e-21)
(0.0438765 -0.013129 2.30537e-21)
(0.0441794 -0.01307 2.05716e-21)
(0.0444844 -0.0130026 -2.58574e-21)
(0.044791 -0.0129268 0)
(0.0450988 -0.0128426 2.42802e-23)
(0.0454071 -0.0127498 0)
(0.0457157 -0.0126485 6.52438e-22)
(0.0460242 -0.0125384 -6.54469e-22)
(0.0463323 -0.0124195 -3.55393e-21)
(0.0466398 -0.0122919 2.83762e-21)
(0.0469468 -0.0121552 -7.39091e-22)
(0.0472539 -0.012009 -2.36012e-21)
(0.0475606 -0.0118537 7.94932e-22)
(0.0478668 -0.0116888 8.24881e-22)
(0.048172 -0.0115149 2.65228e-21)
(0.0484761 -0.0113312 -1.7677e-21)
(0.0487782 -0.0111383 -9.45424e-22)
(0.049078 -0.0109362 1.94757e-21)
(0.0493754 -0.0107247 -9.43371e-22)
(0.0496702 -0.0105037 -1.03953e-21)
(0.0499623 -0.0102734 0)
(0.050251 -0.0100339 1.10555e-21)
(0.0505353 -0.00978588 1.13236e-21)
(0.0508153 -0.00952869 -1.10793e-21)
(0.0510914 -0.00926176 0)
(0.0513638 -0.00898539 2.45864e-21)
(0.0516334 -0.00869898 -1.28615e-21)
(0.0518992 -0.00840466 -3.75879e-23)
(0.0521601 -0.00810297 0)
(0.0524164 -0.00779301 6.86626e-22)
(0.0526679 -0.00747493 -2.16134e-21)
(0.0529151 -0.0071456 1.44086e-21)
(0.0531575 -0.0068057 0)
(0.0533956 -0.0064553 1.1122e-21)
(0.0536299 -0.0060951 -1.11373e-21)
(0.0538595 -0.00572527 -1.8529e-22)
(0.0540836 -0.00534422 0)
(0.0543025 -0.00495214 -3.79961e-22)
(0.054517 -0.00454924 -1.92891e-22)
(0.0547273 -0.0041354 1.89483e-22)
(0.0549325 -0.00370935 -1.14809e-21)
(0.0551321 -0.0032708 -7.86628e-22)
(0.0553265 -0.0028202 1.5489e-21)
(0.0555157 -0.00235844 -1.58977e-21)
(0.0556986 -0.00188407 1.6002e-21)
(0.0558752 -0.00139651 -1.57942e-21)
(0.0560462 -0.000895734 -1.59055e-21)
(0.0562119 -0.000380627 3.26516e-21)
(0.0563733 0.00014907 0)
(0.0565304 0.000693643 3.31598e-21)
(0.0566821 0.00125505 -5.40851e-24)
(0.0568277 0.00183484 -3.38212e-21)
(0.056968 0.00243335 -3.418e-21)
(0.0571035 0.00305216 6.83478e-21)
(0.0572335 0.00369477 1.06332e-23)
(0.0573584 0.00436505 3.53302e-21)
(0.0574799 0.00506493 -7.16851e-21)
(0.0575999 0.0057926 -3.62236e-21)
(0.0577155 0.00655247 1.09892e-22)
(0.0578244 0.00734998 -3.68986e-21)
(0.0579267 0.00818972 -3.6816e-21)
(0.0580185 0.00907231 -1.1782e-20)
(0.0581074 0.010008 0)
(0.0581574 0.0109945 -4.2348e-21)
(0.0582903 0.0120327 4.17927e-21)
(0.0427521 -0.0138148 0)
(0.0430546 -0.0137868 -4.00918e-22)
(0.0433582 -0.0137484 -2.25405e-21)
(0.0436643 -0.0137017 1.81328e-21)
(0.0439735 -0.013647 1.57205e-21)
(0.0442851 -0.0135839 -2.59188e-21)
(0.0445993 -0.013512 5.46568e-22)
(0.044916 -0.0134316 -6.00705e-22)
(0.0452347 -0.0133426 -6.04099e-22)
(0.0455546 -0.0132449 -2.64587e-21)
(0.0458751 -0.0131384 2.66457e-21)
(0.0461958 -0.0130228 2.88016e-21)
(0.0465161 -0.012898 -6.53276e-22)
(0.0468359 -0.0127639 -3.0525e-21)
(0.0471547 -0.0126204 2.36382e-21)
(0.0474727 -0.0124673 -8.39647e-22)
(0.0477895 -0.0123047 8.69921e-22)
(0.0481052 -0.0121324 9.00383e-22)
(0.0484194 -0.0119506 -2.75317e-21)
(0.048732 -0.0117592 8.94326e-22)
(0.0490427 -0.0115582 9.57991e-22)
(0.0493512 -0.0113476 0)
(0.0496573 -0.0111274 2.14195e-21)
(0.0499605 -0.0108978 -1.0571e-21)
(0.0502607 -0.0106589 -2.2364e-21)
(0.0505573 -0.0104107 -2.33643e-21)
(0.0508502 -0.0101533 4.65761e-21)
(0.0511392 -0.0098865 -2.41579e-21)
(0.0514243 -0.00961021 0)
(0.0517052 -0.0093245 -2.5635e-21)
(0.0519821 -0.00902966 -3.46303e-23)
(0.0522547 -0.00872629 2.68517e-21)
(0.0525228 -0.00841439 -1.41792e-21)
(0.0527863 -0.00809373 3.62593e-21)
(0.0530449 -0.00776449 -7.1872e-22)
(0.053299 -0.0074234 0)
(0.053548 -0.00707202 0)
(0.0537923 -0.00671013 3.86892e-22)
(0.0540317 -0.0063383 3.79442e-22)
(0.0542659 -0.00595677 1.95821e-22)
(0.0544947 -0.00556515 -6.155e-24)
(0.0547181 -0.00516313 1.93439e-22)
(0.0549366 -0.00475053 0)
(0.0551502 -0.00432765 -8.91082e-24)
(0.0553584 -0.0038945 0)
(0.0555611 -0.00345073 7.91111e-22)
(0.0557587 -0.00299595 1.49058e-23)
(0.0559512 -0.00253 -2.43783e-21)
(0.0561384 -0.0020523 0)
(0.0563204 -0.00156178 -1.65422e-21)
(0.0564977 -0.00105759 1.63349e-21)
(0.0566706 -0.000538935 -3.29011e-21)
(0.0568394 -5.22825e-06 0)
(0.0570042 0.000543876 -1.01497e-20)
(0.0571649 0.00110904 -4.97234e-24)
(0.0573213 0.00169158 3.39293e-21)
(0.0574739 0.00229324 3.42741e-21)
(0.0576228 0.00291568 0)
(0.0577683 0.00356109 0)
(0.0579107 0.00423179 -3.5583e-21)
(0.0580511 0.00493021 7.21823e-21)
(0.0581899 0.00565828 7.33374e-21)
(0.058326 0.00641903 0)
(0.058458 0.00721601 -7.74919e-21)
(0.0585862 0.00805407 0)
(0.0587063 0.00893635 1.20767e-20)
(0.0588261 0.00987286 -4.05942e-21)
(0.0589076 0.0108606 -4.36119e-21)
(0.0590774 0.0119092 -4.59696e-21)
(0.0428077 -0.0143704 0)
(0.043127 -0.0143408 0)
(0.0434464 -0.0143001 -4.808e-22)
(0.0437669 -0.0142505 2.06681e-21)
(0.0440889 -0.0141925 -2.60021e-21)
(0.0444123 -0.0141253 5.49291e-22)
(0.044737 -0.0140489 0)
(0.0450636 -0.0139635 6.095e-22)
(0.0453919 -0.013869 0)
(0.0457218 -0.0137654 1.40163e-21)
(0.0460528 -0.0136524 9.79742e-23)
(0.0463844 -0.0135301 -1.45785e-21)
(0.0467162 -0.0133982 0)
(0.0470478 -0.0132567 1.64559e-21)
(0.0473787 -0.0131055 -5.02547e-21)
(0.0477085 -0.0129445 3.43601e-21)
(0.0480368 -0.0127736 -4.47726e-21)
(0.0483636 -0.012593 9.15626e-22)
(0.0486883 -0.0124025 -9.81217e-22)
(0.0490109 -0.0122021 9.74617e-22)
(0.049331 -0.011992 1.03538e-21)
(0.0496485 -0.011772 -3.15977e-21)
(0.0499631 -0.0115424 -2.18069e-21)
(0.0502746 -0.0113031 0)
(0.0505826 -0.0110543 2.34322e-21)
(0.0508871 -0.010796 1.23263e-21)
(0.0511876 -0.0105283 -3.62645e-21)
(0.0514842 -0.0102512 1.24168e-21)
(0.0517764 -0.00996487 -2.6284e-21)
(0.0520643 -0.00966934 3.95911e-21)
(0.0523477 -0.00936483 -1.3983e-21)
(0.0526266 -0.00905155 7.19632e-22)
(0.0529008 -0.00872966 0)
(0.0531701 -0.00839926 -7.41418e-22)
(0.0534343 -0.00806031 -7.62325e-22)
(0.0536937 -0.00770987 0)
(0.0539477 -0.00734991 7.94031e-22)
(0.0541966 -0.00698022 -1.1852e-21)
(0.0544402 -0.00660108 7.85191e-22)
(0.0546786 -0.00621253 -3.9892e-22)
(0.0549118 -0.0058143 -6.49184e-24)
(0.0551397 -0.00540613 -3.05774e-22)
(0.0553625 -0.00498788 1.00404e-22)
(0.0555804 -0.0045595 4.03151e-22)
(0.0557933 -0.00412075 1.61931e-24)
(0.0560012 -0.00367118 2.46302e-21)
(0.0562043 -0.00321034 0)
(0.0564027 -0.00273794 1.64747e-21)
(0.0565963 -0.0022535 -1.23599e-24)
(0.0567854 -0.00175638 -1.66694e-21)
(0.0569702 -0.001246 0)
(0.0571511 -0.000721905 -1.7201e-21)
(0.0573283 -0.000183558 1.69892e-21)
(0.0575021 0.000369623 3.42682e-21)
(0.0576727 0.000938527 0)
(0.0578401 0.00152445 -7.0378e-21)
(0.0580047 0.00212893 7.09689e-21)
(0.0581667 0.0027535 -7.17078e-21)
(0.0583266 0.00340012 -6.92238e-23)
(0.0584848 0.00407106 0)
(0.0586418 0.00476877 -3.77563e-21)
(0.058798 0.00549553 3.76064e-21)
(0.0589535 0.00625434 3.96434e-21)
(0.0591073 0.00704889 7.79559e-21)
(0.0592601 0.00788436 -1.21981e-20)
(0.0594079 0.00876417 8.25607e-21)
(0.05956 0.00969816 -4.15881e-21)
(0.0596771 0.010687 4.36389e-21)
(0.0598935 0.0117328 1.33543e-20)
(0.0428589 -0.0149528 1.80454e-21)
(0.0431955 -0.0149215 1.4472e-22)
(0.0435325 -0.0148786 -1.95616e-21)
(0.0438706 -0.0148263 0)
(0.0442099 -0.0147649 5.52802e-22)
(0.0445496 -0.0146939 0)
(0.0448895 -0.0146131 -1.29679e-21)
(0.0452299 -0.0145227 -7.01009e-23)
(0.0455711 -0.0144227 2.06754e-21)
(0.0459128 -0.0143129 -7.45235e-22)
(0.046255 -0.0141933 -7.42065e-22)
(0.0465975 -0.0140637 -8.0983e-22)
(0.0469401 -0.0139242 0)
(0.0472824 -0.0137747 0)
(0.047624 -0.0136151 8.6747e-22)
(0.0479647 -0.0134455 8.98907e-22)
(0.048304 -0.0132657 -1.93176e-21)
(0.0486415 -0.0130759 1.92969e-21)
(0.0489769 -0.012876 2.02897e-21)
(0.0493099 -0.0126661 -2.12368e-21)
(0.04964 -0.0124462 4.27069e-21)
(0.0499671 -0.0122163 2.13519e-23)
(0.0502908 -0.0119766 -2.29976e-21)
(0.050611 -0.0117272 -1.20071e-21)
(0.0509274 -0.0114681 -2.45602e-21)
(0.0512397 -0.0111994 2.46298e-21)
(0.0515478 -0.0109213 2.5969e-21)
(0.0518515 -0.0106339 -2.60728e-21)
(0.0521505 -0.0103374 0)
(0.0524449 -0.0100318 0)
(0.0527344 -0.00971739 3.59346e-21)
(0.0530191 -0.00939433 5.43412e-23)
(0.0532988 -0.00906282 -1.50304e-21)
(0.0535733 -0.00872304 -1.57995e-21)
(0.0538426 -0.0083743 1.5814e-21)
(0.0541068 -0.0080147 0)
(0.0543657 -0.00764559 -7.98262e-22)
(0.0546192 -0.00726701 -1.23329e-21)
(0.0548675 -0.00687899 8.10065e-22)
(0.0551105 -0.00648152 -5.07464e-24)
(0.0553484 -0.00607446 -6.53468e-23)
(0.0555812 -0.00565767 3.08162e-22)
(0.0558089 -0.00523102 2.11099e-22)
(0.0560317 -0.00479436 4.2307e-22)
(0.0562496 -0.0043475 -2.10134e-21)
(0.0564628 -0.00389019 1.33596e-24)
(0.0566714 -0.00342215 0)
(0.0568755 -0.00294306 -1.72627e-21)
(0.0570752 -0.00245256 5.16857e-21)
(0.0572709 -0.00195014 -3.45426e-21)
(0.0574627 -0.00143525 -1.75236e-21)
(0.057651 -0.000907303 -3.14832e-23)
(0.0578362 -0.000365629 -1.77677e-21)
(0.0580184 0.000190529 -6.89167e-23)
(0.058198 0.000762079 3.53174e-21)
(0.058375 0.00135015 -3.62348e-21)
(0.05855 0.00195606 -3.66802e-21)
(0.0587232 0.00258132 7.3303e-21)
(0.0588952 0.00322768 1.5296e-23)
(0.0590666 0.00389718 3.7986e-21)
(0.0592381 0.00459211 -3.75347e-21)
(0.0594102 0.00531502 3.83493e-21)
(0.0595837 0.00606911 -7.8072e-21)
(0.0597584 0.00685808 -4.08234e-21)
(0.0599357 0.00768725 7.99828e-21)
(0.0601121 0.0085604 -4.34654e-21)
(0.0602983 0.00948829 -1.31732e-20)
(0.060453 0.0104719 -4.50166e-21)
(0.0607222 0.0115104 0)
(0.04291 -0.0155647 0)
(0.0432622 -0.0155314 5.1745e-22)
(0.0436157 -0.0154859 -3.05092e-23)
(0.0439709 -0.0154306 0)
(0.044328 -0.0153658 0)
(0.0446857 -0.0152909 6.582e-22)
(0.0450435 -0.0152057 -2.07596e-21)
(0.0454015 -0.0151104 2.82719e-21)
(0.0457593 -0.0150048 -1.40621e-21)
(0.0461169 -0.014889 7.55456e-22)
(0.0464739 -0.0147627 0)
(0.0468302 -0.014626 8.20698e-22)
(0.0471857 -0.0144787 -8.94284e-22)
(0.0475401 -0.014321 0)
(0.0478934 -0.0141528 0)
(0.0482453 -0.0139741 9.82208e-22)
(0.0485954 -0.0137849 6.83612e-23)
(0.0489435 -0.0135853 -2.03862e-21)
(0.0492892 -0.0133754 -2.12686e-21)
(0.0496322 -0.0131551 2.17106e-21)
(0.0499722 -0.0129247 1.11383e-21)
(0.0503088 -0.0126841 4.71078e-21)
(0.0506418 -0.0124336 3.50427e-23)
(0.0509708 -0.0121731 -1.29119e-21)
(0.0512957 -0.0119029 2.51135e-21)
(0.0516161 -0.0116232 -1.31397e-21)
(0.0519319 -0.011334 2.65436e-21)
(0.0522429 -0.0110355 0)
(0.052549 -0.0107279 0)
(0.0528499 -0.0104114 0)
(0.0531457 -0.0100862 -7.3686e-22)
(0.0534363 -0.00975239 -1.53009e-21)
(0.0537215 -0.00941031 1.5651e-21)
(0.0540014 -0.00906011 1.64235e-21)
(0.054276 -0.00870031 -1.63507e-21)
(0.0545451 -0.00833033 0)
(0.0548087 -0.00795092 8.42771e-22)
(0.0550669 -0.0075624 -4.17246e-22)
(0.0553198 -0.00716472 0)
(0.0555674 -0.00675792 4.23861e-22)
(0.0558097 -0.00634196 -7.99751e-23)
(0.0560469 -0.00591672 5.29819e-23)
(0.0562791 -0.0054821 -2.12354e-22)
(0.0565065 -0.00503795 0)
(0.0567292 -0.00458408 -8.73647e-22)
(0.0569474 -0.00412026 8.62502e-22)
(0.0571611 -0.00364618 0)
(0.0573705 -0.00316148 -3.19304e-23)
(0.057576 -0.00266575 1.46858e-24)
(0.0577777 -0.00215849 1.7546e-21)
(0.0579758 -0.00163916 0)
(0.0581707 -0.00110718 -3.07644e-23)
(0.0583627 -0.000561919 -1.785e-21)
(0.058552 -2.69641e-06 -5.48316e-21)
(0.0587388 0.000571297 -6.25375e-23)
(0.0589237 0.00116103 3.64801e-21)
(0.0591069 0.00176766 0)
(0.0592892 0.00239253 0)
(0.0594711 0.00303723 3.80216e-21)
(0.0596536 0.00370365 0)
(0.0598377 0.00439399 0)
(0.0600245 0.00511088 3.89472e-23)
(0.0602153 0.00585759 -3.94461e-21)
(0.0604108 0.00663795 -8.25911e-21)
(0.0606131 0.00745745 8.30376e-21)
(0.0608194 0.00832039 -9.40686e-23)
(0.0610417 0.00923797 4.25422e-21)
(0.0612377 0.010212 4.47053e-21)
(0.0615638 0.0112444 0)
(0.0429662 -0.0162094 0)
(0.0433337 -0.0161736 -5.25242e-22)
(0.0437025 -0.0161249 1.75694e-21)
(0.0440736 -0.016066 -5.54322e-22)
(0.044447 -0.0159971 0)
(0.0448216 -0.0159178 -2.07791e-21)
(0.045197 -0.0158277 3.58471e-21)
(0.0455728 -0.0157269 7.70666e-23)
(0.0459486 -0.0156155 -3.93146e-21)
(0.046324 -0.0154933 7.63701e-22)
(0.0466985 -0.0153602 -8.82648e-22)
(0.0470717 -0.0152161 -9.17258e-22)
(0.0474433 -0.0150609 2.79726e-21)
(0.0478131 -0.0148947 -3.84431e-21)
(0.0481809 -0.0147175 1.95357e-21)
(0.0485464 -0.0145294 -1.08646e-21)
(0.0489094 -0.0143303 4.24835e-21)
(0.0492696 -0.0141205 -1.03481e-21)
(0.0496268 -0.0138999 1.18688e-21)
(0.0499807 -0.0136686 -1.12134e-21)
(0.0503311 -0.0134269 6.73515e-23)
(0.0506776 -0.0131748 -7.38838e-21)
(0.0510201 -0.0129126 -1.30733e-21)
(0.0513581 -0.0126403 -6.53543e-23)
(0.0516916 -0.0123581 3.99954e-21)
(0.0520202 -0.0120663 -1.34652e-21)
(0.0523437 -0.0117651 2.84599e-21)
(0.0526621 -0.0114546 -4.32727e-21)
(0.0529751 -0.0111351 0)
(0.0532826 -0.0108067 -1.53701e-21)
(0.0535846 -0.0104698 1.54548e-21)
(0.053881 -0.0101246 2.55035e-23)
(0.0541717 -0.00977116 -8.36356e-22)
(0.0544566 -0.00940995 -8.58806e-22)
(0.0547363 -0.00903839 2.58882e-21)
(0.05501 -0.00865761 -1.69966e-21)
(0.0552781 -0.00826777 1.30659e-21)
(0.0555406 -0.00786921 -1.73151e-21)
(0.0557976 -0.00746191 8.61952e-22)
(0.0560492 -0.0070459 -2.15638e-22)
(0.0562956 -0.00662113 0)
(0.0565368 -0.0061875 2.21878e-22)
(0.0567731 -0.00574488 -2.19033e-22)
(0.0570046 -0.00529311 -4.47061e-22)
(0.0572315 -0.004832 1.33875e-21)
(0.0574539 -0.00436129 -8.88125e-22)
(0.057672 -0.0038807 -8.89294e-22)
(0.057886 -0.00338989 0)
(0.058096 -0.00288846 -3.64648e-21)
(0.0583024 -0.00237599 3.62974e-21)
(0.0585054 -0.00185202 -1.80723e-21)
(0.0587052 -0.00131603 1.78466e-21)
(0.0589021 -0.000767486 1.82357e-21)
(0.0590965 -0.000205763 3.67311e-21)
(0.0592888 0.000369856 3.69961e-21)
(0.0594794 0.000960222 0)
(0.059669 0.00156635 -3.8049e-21)
(0.0598583 0.00218942 0)
(0.0600485 0.00283087 6.72363e-23)
(0.0602406 0.00349241 -3.8773e-21)
(0.0604363 0.00417615 3.8928e-21)
(0.0606371 0.00488465 3.97886e-21)
(0.060845 0.0056212 -4.07883e-21)
(0.0610615 0.00638967 -9.19069e-23)
(0.0612896 0.00719573 -5.48124e-23)
(0.0615272 0.00804414 1.3033e-20)
(0.0617879 0.00894598 4.49935e-21)
(0.0620298 0.00990773 4.77367e-21)
(0.0624111 0.0109179 -4.69812e-21)
(0.0430296 -0.01689 0)
(0.0434136 -0.0168512 0)
(0.0437985 -0.0167989 1.28925e-21)
(0.0441855 -0.0167356 -1.92364e-21)
(0.0445749 -0.016662 -7.22465e-22)
(0.0449656 -0.0165774 0)
(0.0453572 -0.0164815 0)
(0.0457496 -0.0163746 8.34462e-22)
(0.0461423 -0.0162565 -1.73173e-21)
(0.046535 -0.0161271 -1.27709e-22)
(0.0469269 -0.0159864 4.56375e-21)
(0.0473176 -0.0158341 -9.37214e-22)
(0.0477066 -0.0156704 9.98723e-22)
(0.0480934 -0.0154951 -2.00734e-21)
(0.0484777 -0.0153084 1.08519e-21)
(0.0488591 -0.0151103 0)
(0.0492373 -0.0149008 0)
(0.049612 -0.0146801 3.23178e-23)
(0.0499829 -0.0144483 -3.57757e-21)
(0.0503497 -0.0142055 1.20328e-21)
(0.0507121 -0.0139518 -1.29235e-21)
(0.05107 -0.0136876 1.2718e-21)
(0.0514231 -0.013413 1.33663e-21)
(0.0517711 -0.0131281 -1.30511e-21)
(0.0521138 -0.0128333 -1.37658e-21)
(0.0524511 -0.0125288 0)
(0.0527828 -0.0122148 0)
(0.0531087 -0.0118915 2.25649e-21)
(0.0534288 -0.0115594 0)
(0.0537429 -0.0112185 1.60503e-21)
(0.054051 -0.0108693 -1.61356e-21)
(0.054353 -0.0105119 -8.22524e-22)
(0.054649 -0.0101467 8.44122e-22)
(0.0549387 -0.00977361 1.75554e-21)
(0.055223 -0.00939009 -8.69241e-22)
(0.0555009 -0.00899805 -8.93419e-22)
(0.055773 -0.00859739 8.94095e-22)
(0.0560393 -0.00818835 0)
(0.0562999 -0.00777098 0)
(0.0565549 -0.00734529 2.27718e-22)
(0.0568046 -0.00691123 0)
(0.0570491 -0.00646873 0)
(0.0572886 -0.00601766 -6.87533e-22)
(0.0575233 -0.00555788 9.12786e-22)
(0.0577533 -0.00508921 -4.62024e-22)
(0.0579788 -0.00461142 9.0775e-22)
(0.0581999 -0.00412424 0)
(0.058417 -0.00362737 2.79227e-21)
(0.0586301 -0.00312045 -2.30193e-24)
(0.0588396 -0.00260312 0)
(0.0590457 -0.00207494 -3.73257e-21)
(0.0592487 -0.00153546 3.91588e-25)
(0.059449 -0.00098421 -3.73494e-21)
(0.0596469 -0.000420627 -1.90595e-21)
(0.0598431 0.000155901 -3.83944e-21)
(0.0600381 0.000746089 3.79318e-21)
(0.0602327 0.00135078 3.82995e-21)
(0.0604281 0.00197098 0)
(0.0606256 0.00260791 -3.95919e-21)
(0.0608267 0.00326308 -2.48606e-23)
(0.0610335 0.00393841 0)
(0.061248 0.0046363 0)
(0.0614728 0.00535994 4.10492e-21)
(0.0617102 0.00611309 0)
(0.0619644 0.0069016 0)
(0.0622333 0.00773008 -4.29203e-21)
(0.0625346 0.00861061 -4.42784e-21)
(0.0628195 0.00954933 -4.70278e-21)
(0.0632642 0.0105352 0)
(0.0430994 -0.0176092 0)
(0.0435017 -0.0175672 0)
(0.0439046 -0.0175108 0)
(0.0443091 -0.0174428 -7.40433e-22)
(0.0447156 -0.0173639 -8.20919e-22)
(0.0451231 -0.0172733 -8.65016e-23)
(0.0455313 -0.0171709 1.62132e-21)
(0.0459401 -0.0170569 -8.45819e-22)
(0.0463492 -0.0169311 9.3617e-22)
(0.0467583 -0.0167936 1.89373e-21)
(0.0471666 -0.0166442 0)
(0.0475738 -0.0164828 0)
(0.0479793 -0.0163094 -3.57018e-23)
(0.0483826 -0.0161241 3.26253e-21)
(0.0487833 -0.0159269 -4.5458e-21)
(0.0491809 -0.0157179 -7.58216e-23)
(0.0495749 -0.0154971 2.35506e-21)
(0.0499649 -0.0152647 1.20323e-21)
(0.0503505 -0.0150208 -5.98553e-23)
(0.0507314 -0.0147656 0)
(0.0511073 -0.0144993 2.67401e-21)
(0.0514779 -0.0142221 0)
(0.0518428 -0.0139343 2.81297e-21)
(0.052202 -0.0136362 -4.32425e-21)
(0.0525551 -0.013328 4.42428e-21)
(0.052902 -0.0130099 1.54246e-21)
(0.0532426 -0.0126824 -2.35265e-21)
(0.0535767 -0.0123458 2.39054e-21)
(0.0539043 -0.0120002 -1.60642e-21)
(0.0542252 -0.0116462 0)
(0.0545395 -0.0112839 -1.71671e-21)
(0.0548473 -0.0109137 -9.17618e-22)
(0.0551484 -0.010536 1.76944e-21)
(0.0554429 -0.0101499 -1.81616e-21)
(0.0557313 -0.00975419 9.18873e-22)
(0.0560131 -0.00935021 -9.07073e-22)
(0.0562886 -0.00893813 -4.52673e-22)
(0.056558 -0.00851808 4.66724e-22)
(0.0568214 -0.00809016 2.3137e-22)
(0.0570791 -0.00765438 -6.8813e-22)
(0.0573312 -0.00721072 -5.8764e-23)
(0.0575779 -0.0067591 0)
(0.0578194 -0.00629943 2.30842e-22)
(0.0580561 -0.00583157 -4.63066e-22)
(0.0582879 -0.00535535 4.64427e-22)
(0.0585152 -0.00487056 0)
(0.0587382 -0.00437695 0)
(0.058957 -0.00387423 9.69184e-22)
(0.059172 -0.00336207 -1.88309e-21)
(0.0593834 -0.00284013 -3.8381e-21)
(0.0595916 -0.00230803 7.63862e-21)
(0.0597969 -0.00176539 -1.93182e-21)
(0.0599996 -0.00121177 1.9084e-21)
(0.0602004 -0.000646739 1.91813e-21)
(0.0603999 -6.97938e-05 -3.91473e-21)
(0.0605988 0.000519625 3.86787e-21)
(0.0607982 0.00112217 0)
(0.0609993 0.00173864 -3.96627e-21)
(0.0612036 0.00236998 -2.63206e-23)
(0.0614132 0.00301745 3.97011e-21)
(0.0616303 0.00368266 0)
(0.0618575 0.00436772 0)
(0.0620981 0.00507555 0)
(0.0623551 0.00580966 8.52347e-21)
(0.0626336 0.00657589 4.46084e-21)
(0.0629326 0.00737827 4.60572e-21)
(0.0632732 0.00823038 -9.02112e-21)
(0.0635991 0.00913615 1.8028e-23)
(0.0641318 0.0100878 4.89137e-21)
(0.0431742 -0.0183694 0)
(0.0435966 -0.018324 -1.42769e-21)
(0.0440193 -0.0182634 1.79802e-21)
(0.0444433 -0.0181904 -1.24887e-21)
(0.0448689 -0.0181057 2.4336e-21)
(0.0452951 -0.0180087 8.87872e-22)
(0.0457216 -0.0178992 9.28523e-22)
(0.0461481 -0.0177773 0)
(0.0465746 -0.0176431 -1.95682e-21)
(0.0470005 -0.0174965 -2.01194e-21)
(0.0474255 -0.0173374 2.06357e-21)
(0.0478489 -0.0171658 -1.12453e-21)
(0.0482704 -0.0169817 1.1987e-21)
(0.0486895 -0.0167852 -1.05407e-21)
(0.0491057 -0.0165762 -4.86966e-21)
(0.0495186 -0.016355 -7.79486e-23)
(0.0499276 -0.0161217 -7.64491e-23)
(0.0503323 -0.0158763 2.57914e-21)
(0.0507323 -0.0156192 1.3126e-21)
(0.0511271 -0.0153504 2.79282e-21)
(0.0515163 -0.0150703 -2.72508e-21)
(0.0518996 -0.014779 0)
(0.0522767 -0.014477 6.58425e-23)
(0.0526472 -0.0141645 0)
(0.053011 -0.0138418 -1.52241e-21)
(0.0533679 -0.0135093 -1.55813e-21)
(0.0537176 -0.0131673 7.97174e-22)
(0.0540601 -0.0128162 0)
(0.0543954 -0.0124565 8.6604e-22)
(0.0547233 -0.0120883 1.75274e-21)
(0.0550439 -0.0117122 -1.76137e-21)
(0.0553572 -0.0113285 8.94152e-22)
(0.0556632 -0.0109375 -1.87542e-21)
(0.0559623 -0.0105376 3.7331e-21)
(0.0562544 -0.0101291 -9.34354e-22)
(0.0565395 -0.00971265 0)
(0.0568178 -0.00928868 -4.80407e-22)
(0.0570897 -0.00885726 1.28861e-23)
(0.0573552 -0.00841848 7.14079e-22)
(0.0576147 -0.00797237 -5.93358e-22)
(0.0578684 -0.00751893 1.17129e-22)
(0.0581166 -0.0070581 -3.62262e-22)
(0.0583594 -0.00658979 2.38169e-22)
(0.0585972 -0.00611388 0)
(0.0588302 -0.00563019 0)
(0.0590587 -0.00513852 0)
(0.0592828 -0.00463862 9.77005e-22)
(0.059503 -0.00413023 9.78723e-22)
(0.0597195 -0.00361304 0)
(0.0599325 -0.00308673 1.9342e-21)
(0.0601426 -0.00255097 1.97111e-21)
(0.0603501 -0.00200542 1.97424e-21)
(0.0605554 -0.00144974 0)
(0.0607591 -0.000883573 0)
(0.0609619 -0.000306553 -3.98874e-21)
(0.0611647 0.000281712 3.94137e-21)
(0.0613686 0.00088166 0)
(0.0615748 0.0014938 3.99306e-21)
(0.0617852 0.00211878 -4.01928e-21)
(0.0620019 0.00275744 -4.069e-21)
(0.0622274 0.00341096 4.13924e-21)
(0.0624651 0.00408098 -4.08862e-21)
(0.0627186 0.00476998 0)
(0.0629921 0.00548105 -4.2513e-21)
(0.0632915 0.00621967 6.96871e-23)
(0.0636177 0.0069898 -8.74158e-21)
(0.063992 0.00780442 -9.18351e-21)
(0.0643587 0.00866982 9.33872e-21)
(0.064975 0.0095602 -4.91399e-21)
(0.0432523 -0.0191732 -3.67936e-22)
(0.0436966 -0.0191241 0)
(0.0441409 -0.0190589 -3.85526e-22)
(0.0445862 -0.0189806 2.14278e-21)
(0.0450329 -0.0188898 -3.94293e-21)
(0.0454798 -0.0187859 9.10523e-22)
(0.0459266 -0.0186687 -9.40514e-22)
(0.0463729 -0.0185385 2.07014e-21)
(0.0468187 -0.0183951 -1.0379e-21)
(0.0472633 -0.0182387 -1.06075e-21)
(0.0477064 -0.0180691 -1.16956e-21)
(0.0481473 -0.0178863 3.52353e-21)
(0.0485857 -0.0176904 -1.1283e-21)
(0.0490212 -0.0174814 3.82098e-21)
(0.0494532 -0.0172596 1.3322e-21)
(0.0498813 -0.0170249 7.99528e-23)
(0.050305 -0.0167777 -2.67488e-21)
(0.050724 -0.016518 0)
(0.0511376 -0.0162461 0)
(0.0515455 -0.0159624 -1.50236e-21)
(0.0519473 -0.015667 -1.46418e-21)
(0.0523426 -0.0153603 -3.10066e-21)
(0.052731 -0.0150426 1.56753e-21)
(0.0531123 -0.0147143 3.23786e-21)
(0.0534861 -0.0143759 -3.24186e-21)
(0.0538523 -0.0140276 8.54784e-22)
(0.0542106 -0.0136699 8.72311e-22)
(0.054561 -0.0133033 0)
(0.0549034 -0.0129282 -8.74189e-22)
(0.0552377 -0.0125449 -1.83344e-21)
(0.055564 -0.012154 -3.00237e-23)
(0.0558823 -0.0117558 1.88224e-21)
(0.0561925 -0.0113506 -9.84266e-22)
(0.0564956 -0.0109361 0)
(0.0567908 -0.0105142 4.94597e-22)
(0.0570786 -0.0100849 -4.95278e-22)
(0.0573592 -0.00964855 4.81967e-22)
(0.057633 -0.00920538 -9.79323e-22)
(0.0579001 -0.00875547 0)
(0.0581609 -0.00829885 -1.24316e-22)
(0.0584157 -0.00783551 1.22938e-22)
(0.0586649 -0.00736542 -1.88434e-22)
(0.0589086 -0.00688849 7.41196e-22)
(0.0591474 -0.00640457 -1.4845e-21)
(0.0593813 -0.00591351 9.82185e-22)
(0.0596109 -0.0054151 9.96957e-22)
(0.0598363 -0.0049091 -9.65755e-22)
(0.0600578 -0.00439523 2.01871e-21)
(0.0602759 -0.0038732 -1.97635e-21)
(0.0604909 -0.0033427 -4.98947e-21)
(0.0607031 -0.00280345 2.22348e-24)
(0.0609129 -0.00225515 -1.98638e-21)
(0.0611209 -0.00169751 0)
(0.0613275 -0.0011303 0)
(0.0615335 -0.000553283 -4.06185e-21)
(0.0617396 3.37317e-05 6.05514e-21)
(0.0619469 0.000630919 -4.02577e-21)
(0.0621569 0.00123845 0)
(0.0623712 0.00185653 4.09605e-21)
(0.0625923 0.0024855 8.23865e-21)
(0.0628232 0.00312592 -4.13316e-21)
(0.0630674 0.00377879 -8.47712e-23)
(0.0633296 0.00444587 4.14986e-21)
(0.063615 0.00512967 8.74345e-23)
(0.0639306 0.00583498 -8.6304e-21)
(0.0642798 0.00656638 8.74868e-21)
(0.064682 0.00733394 4.54587e-21)
(0.0650914 0.00815621 0)
(0.0657529 0.00895153 0)
(0.0433333 -0.0200235 3.72907e-22)
(0.043801 -0.0199704 2.13461e-21)
(0.0442685 -0.0199002 -1.69163e-21)
(0.0447367 -0.019816 0)
(0.0452062 -0.0197186 -4.66045e-22)
(0.0456757 -0.0196073 -2.06872e-21)
(0.0461446 -0.0194819 1.5096e-21)
(0.0466127 -0.0193426 -2.80765e-21)
(0.0470797 -0.0191895 2.22722e-21)
(0.0475451 -0.0190224 0)
(0.0480082 -0.0188414 5.52416e-22)
(0.0484686 -0.0186466 0)
(0.0489258 -0.0184378 1.38001e-21)
(0.0493792 -0.0182154 -3.93212e-21)
(0.0498284 -0.0179794 0)
(0.0502729 -0.0177301 0)
(0.0507123 -0.0174676 0)
(0.0511461 -0.0171923 -2.24485e-21)
(0.0515737 -0.0169043 3.00395e-21)
(0.0519949 -0.0166041 1.51822e-21)
(0.0524091 -0.0162919 0)
(0.0528161 -0.0159682 0)
(0.0532154 -0.0156334 0)
(0.0536067 -0.0152879 -4.28756e-21)
(0.0539899 -0.0149322 5.1673e-21)
(0.0543646 -0.0145667 -2.60955e-21)
(0.0547306 -0.0141919 -1.799e-21)
(0.055088 -0.0138084 1.84696e-21)
(0.0554366 -0.0134167 -1.85308e-21)
(0.0557764 -0.0130171 9.71214e-22)
(0.0561075 -0.0126103 -1.95667e-21)
(0.0564299 -0.0121966 9.58028e-22)
(0.0567438 -0.0117757 2.0088e-21)
(0.0570496 -0.0113464 1.02238e-21)
(0.0573472 -0.0109101 -4.95846e-22)
(0.0576369 -0.0104673 4.96667e-22)
(0.0579191 -0.0100181 0)
(0.058194 -0.00956281 -1.38483e-23)