/*--------------------------------*- C++ -*----------------------------------*\
| =========                 |                                                 |
| \\      /  F ield         | OpenFOAM: The Open Source CFD Toolbox           |
|  \\    /   O peration     | Version:  2312                                  |
|   \\  /    A nd           | Website:  www.openfoam.com                      |
|    \\/     M anipulation  |                                                 |
\*---------------------------------------------------------------------------*/
FoamFile
{
    version     2.0;
    format      ascii;
    arch        "LSB;label=32;scalar=64";
    class       volScalarField;
    location    "200";
    object      k;
}
// * * * * * * * * * * * * * * * * * * * * * * * * * * * * * * * * * * * * * //

dimensions      [0 2 -2 0 0 0 0];

internalField   nonuniform List<scalar> 
76025
(
5.10091e-06
5.10391e-06
5.10659e-06
5.10929e-06
5.11069e-06
5.11597e-06
5.11836e-06
5.12312e-06
5.12601e-06
5.13035e-06
5.13486e-06
5.13986e-06
5.14671e-06
5.15232e-06
5.16016e-06
5.16734e-06
5.17583e-06
5.18542e-06
5.19429e-06
5.2043e-06
5.21506e-06
5.22743e-06
5.23894e-06
5.25199e-06
5.26631e-06
5.28052e-06
5.29784e-06
5.3124e-06
5.33206e-06
5.349e-06
5.36871e-06
5.38926e-06
5.41253e-06
5.43763e-06
5.46438e-06
5.49294e-06
5.52556e-06
5.56007e-06
5.59881e-06
5.64057e-06
5.68668e-06
5.74011e-06
5.79735e-06
5.86352e-06
5.93639e-06
6.02203e-06
6.11317e-06
6.21991e-06
6.34334e-06
6.47982e-06
6.64244e-06
6.82634e-06
7.04744e-06
7.29104e-06
7.62399e-06
7.98777e-06
8.4731e-06
9.08466e-06
9.89676e-06
1.09671e-05
1.23179e-05
1.41609e-05
1.65281e-05
1.94833e-05
2.29887e-05
2.67685e-05
3.08691e-05
3.50752e-05
3.89284e-05
5.20363e-06
5.2082e-06
5.21243e-06
5.21711e-06
5.22019e-06
5.22501e-06
5.22896e-06
5.23386e-06
5.23864e-06
5.24359e-06
5.24882e-06
5.25423e-06
5.26067e-06
5.26703e-06
5.27507e-06
5.28271e-06
5.29182e-06
5.30108e-06
5.31142e-06
5.32199e-06
5.3335e-06
5.34594e-06
5.35922e-06
5.3732e-06
5.38886e-06
5.40448e-06
5.42226e-06
5.44063e-06
5.46073e-06
5.48236e-06
5.50596e-06
5.53021e-06
5.55752e-06
5.58632e-06
5.61807e-06
5.65265e-06
5.69004e-06
5.7317e-06
5.77735e-06
5.82765e-06
5.88398e-06
5.94548e-06
6.01558e-06
6.09281e-06
6.18054e-06
6.27796e-06
6.38854e-06
6.51435e-06
6.65645e-06
6.82121e-06
7.00929e-06
7.23348e-06
7.49405e-06
7.81962e-06
8.20974e-06
8.70841e-06
9.34197e-06
1.01627e-05
1.12294e-05
1.26029e-05
1.43916e-05
1.6629e-05
1.9362e-05
2.25708e-05
2.61812e-05
3.01908e-05
3.43563e-05
3.84015e-05
4.18539e-05
5.3236e-06
5.32906e-06
5.33443e-06
5.34036e-06
5.34565e-06
5.35135e-06
5.35693e-06
5.36279e-06
5.36889e-06
5.37517e-06
5.38173e-06
5.38841e-06
5.3957e-06
5.40309e-06
5.41155e-06
5.42031e-06
5.43007e-06
5.44035e-06
5.45158e-06
5.46347e-06
5.47625e-06
5.48991e-06
5.50466e-06
5.52034e-06
5.53751e-06
5.55565e-06
5.57537e-06
5.59648e-06
5.61938e-06
5.64399e-06
5.67084e-06
5.69966e-06
5.73109e-06
5.76518e-06
5.80235e-06
5.84293e-06
5.88732e-06
5.93615e-06
5.98976e-06
6.04895e-06
6.11445e-06
6.18722e-06
6.26829e-06
6.35875e-06
6.46016e-06
6.57419e-06
6.70358e-06
6.85045e-06
7.01968e-06
7.21512e-06
7.44572e-06
7.71861e-06
8.05091e-06
8.45684e-06
8.96558e-06
9.60898e-06
1.04308e-05
1.14865e-05
1.28348e-05
1.45519e-05
1.66854e-05
1.92786e-05
2.23428e-05
2.58201e-05
2.96552e-05
3.36941e-05
3.76785e-05
4.12964e-05
4.39515e-05
5.46387e-06
5.47016e-06
5.47652e-06
5.48325e-06
5.49004e-06
5.49703e-06
5.50416e-06
5.51146e-06
5.51901e-06
5.52679e-06
5.53489e-06
5.54323e-06
5.55202e-06
5.56112e-06
5.57083e-06
5.58109e-06
5.5921e-06
5.60385e-06
5.61645e-06
5.62994e-06
5.6444e-06
5.6599e-06
5.67656e-06
5.69444e-06
5.71377e-06
5.73458e-06
5.75705e-06
5.78129e-06
5.80755e-06
5.83594e-06
5.86676e-06
5.90021e-06
5.93656e-06
5.97615e-06
6.01932e-06
6.06652e-06
6.1182e-06
6.17498e-06
6.23742e-06
6.3064e-06
6.38286e-06
6.46787e-06
6.56271e-06
6.66898e-06
6.78856e-06
6.92402e-06
7.07834e-06
7.25588e-06
7.46182e-06
7.70407e-06
7.99206e-06
8.3404e-06
8.76675e-06
9.29697e-06
9.9628e-06
1.08056e-05
1.18747e-05
1.32255e-05
1.49174e-05
1.70007e-05
1.95068e-05
2.24461e-05
2.57841e-05
2.94365e-05
3.33173e-05
3.72475e-05
4.0927e-05
4.3946e-05
4.5895e-05
5.62905e-06
5.63615e-06
5.64346e-06
5.65105e-06
5.65892e-06
5.6671e-06
5.67556e-06
5.68431e-06
5.69336e-06
5.70273e-06
5.71248e-06
5.72259e-06
5.73316e-06
5.74418e-06
5.75576e-06
5.76795e-06
5.78086e-06
5.79456e-06
5.80915e-06
5.82472e-06
5.84137e-06
5.8592e-06
5.87832e-06
5.89891e-06
5.92111e-06
5.94506e-06
5.97092e-06
5.99888e-06
6.02916e-06
6.06199e-06
6.09762e-06
6.13637e-06
6.17853e-06
6.22452e-06
6.27474e-06
6.32975e-06
6.39006e-06
6.45646e-06
6.52961e-06
6.61064e-06
6.70071e-06
6.80118e-06
6.91378e-06
7.04059e-06
7.1843e-06
7.3483e-06
7.53714e-06
7.75668e-06
8.01496e-06
8.32248e-06
8.69365e-06
9.14717e-06
9.70769e-06
1.04065e-05
1.12813e-05
1.23777e-05
1.3744e-05
1.54304e-05
1.74795e-05
1.99192e-05
2.27511e-05
2.59572e-05
2.94706e-05
3.31915e-05
3.70256e-05
4.07199e-05
4.38975e-05
4.61384e-05
4.73655e-05
5.8266e-06
5.83419e-06
5.8422e-06
5.85058e-06
5.85936e-06
5.86857e-06
5.87819e-06
5.88823e-06
5.89871e-06
5.90963e-06
5.92103e-06
5.93293e-06
5.94537e-06
5.95841e-06
5.97209e-06
5.9865e-06
6.0017e-06
6.01778e-06
6.03486e-06
6.05302e-06
6.07241e-06
6.0931e-06
6.11533e-06
6.13923e-06
6.16497e-06
6.19275e-06
6.22275e-06
6.2552e-06
6.29037e-06
6.32853e-06
6.37e-06
6.41515e-06
6.46436e-06
6.51814e-06
6.57699e-06
6.64158e-06
6.7126e-06
6.791e-06
6.87768e-06
6.97405e-06
7.08166e-06
7.20238e-06
7.33853e-06
7.4931e-06
7.66988e-06
7.87383e-06
8.11149e-06
8.39144e-06
8.72502e-06
9.12703e-06
9.61668e-06
1.02182e-05
1.09614e-05
1.1882e-05
1.30197e-05
1.44183e-05
1.61181e-05
1.81552e-05
2.05511e-05
2.33065e-05
2.64004e-05
2.97904e-05
3.33814e-05
3.70698e-05
4.0727e-05
4.39945e-05
4.64459e-05
4.78113e-05
4.87198e-05
6.06521e-06
6.07309e-06
6.08154e-06
6.09051e-06
6.10005e-06
6.11015e-06
6.12081e-06
6.13204e-06
6.14385e-06
6.15626e-06
6.16929e-06
6.18297e-06
6.19735e-06
6.21247e-06
6.2284e-06
6.2452e-06
6.26296e-06
6.28177e-06
6.30172e-06
6.32297e-06
6.34559e-06
6.3698e-06
6.39579e-06
6.42373e-06
6.45383e-06
6.48631e-06
6.52141e-06
6.55941e-06
6.60063e-06
6.6454e-06
6.69414e-06
6.7473e-06
6.80537e-06
6.86897e-06
6.93877e-06
7.01562e-06
7.10044e-06
7.19444e-06
7.29891e-06
7.4157e-06
7.54697e-06
7.69537e-06
7.86427e-06
8.05799e-06
8.28209e-06
8.54382e-06
8.85256e-06
9.2204e-06
9.66283e-06
1.01992e-05
1.08534e-05
1.16538e-05
1.26329e-05
1.38264e-05
1.52706e-05
1.70003e-05
1.90413e-05
2.14114e-05
2.41084e-05
2.71108e-05
3.03812e-05
3.38531e-05
3.74103e-05
4.09463e-05
4.42618e-05
4.68636e-05
4.83889e-05
4.90515e-05
5.00725e-05
6.35446e-06
6.36277e-06
6.37175e-06
6.38134e-06
6.39162e-06
6.40261e-06
6.41431e-06
6.42673e-06
6.43988e-06
6.4538e-06
6.46852e-06
6.48406e-06
6.50049e-06
6.51785e-06
6.53622e-06
6.55567e-06
6.57629e-06
6.59819e-06
6.62149e-06
6.6463e-06
6.67283e-06
6.70127e-06
6.73183e-06
6.76471e-06
6.80018e-06
6.83849e-06
6.87995e-06
6.92491e-06
6.97376e-06
7.02693e-06
7.08495e-06
7.14837e-06
7.21788e-06
7.29425e-06
7.37842e-06
7.47148e-06
7.57474e-06
7.68984e-06
7.81868e-06
7.96381e-06
8.1284e-06
8.31635e-06
8.53263e-06
8.78355e-06
9.07719e-06
9.42381e-06
9.83631e-06
1.03306e-05
1.09263e-05
1.16463e-05
1.25172e-05
1.35681e-05
1.48299e-05
1.63327e-05
1.81034e-05
2.01628e-05
2.25189e-05
2.51721e-05
2.80982e-05
3.12611e-05
3.46103e-05
3.80522e-05
4.14559e-05
4.46996e-05
4.74475e-05
4.91025e-05
4.96824e-05
5.01061e-05
5.14994e-05
6.70569e-06
6.71496e-06
6.7249e-06
6.73549e-06
6.74684e-06
6.75899e-06
6.77196e-06
6.7858e-06
6.80053e-06
6.81619e-06
6.83283e-06
6.85051e-06
6.86928e-06
6.88921e-06
6.91039e-06
6.93291e-06
6.95687e-06
6.98242e-06
7.00967e-06
7.03882e-06
7.0701e-06
7.10373e-06
7.13994e-06
7.17899e-06
7.22119e-06
7.26688e-06
7.31645e-06
7.37034e-06
7.42905e-06
7.49316e-06
7.56333e-06
7.64035e-06
7.72512e-06
7.81872e-06
7.92246e-06
8.03789e-06
8.16692e-06
8.3119e-06
8.47574e-06
8.66207e-06
8.87566e-06
9.12223e-06
9.40898e-06
9.7449e-06
1.01411e-05
1.0611e-05
1.1171e-05
1.18401e-05
1.26401e-05
1.35948e-05
1.47299e-05
1.60707e-05
1.76416e-05
1.9462e-05
2.15466e-05
2.38998e-05
2.65141e-05
2.93755e-05
3.24404e-05
3.56662e-05
3.89856e-05
4.22721e-05
4.53857e-05
4.81458e-05
5.00057e-05
5.04467e-05
5.04988e-05
5.10274e-05
5.34066e-05
7.13376e-06
7.1447e-06
7.15629e-06
7.16854e-06
7.18158e-06
7.19549e-06
7.21033e-06
7.22613e-06
7.24298e-06
7.26092e-06
7.28004e-06
7.30041e-06
7.32211e-06
7.34524e-06
7.36991e-06
7.39623e-06
7.42435e-06
7.45441e-06
7.48664e-06
7.5213e-06
7.5586e-06
7.59883e-06
7.64226e-06
7.68927e-06
7.74022e-06
7.79557e-06
7.85584e-06
7.9216e-06
7.99354e-06
8.07245e-06
8.15927e-06
8.25509e-06
8.36122e-06
8.47924e-06
8.61106e-06
8.75901e-06
8.92596e-06
9.11541e-06
9.33175e-06
9.58024e-06
9.86777e-06
1.02024e-05
1.0594e-05
1.10542e-05
1.15969e-05
1.22381e-05
1.29957e-05
1.38895e-05
1.49404e-05
1.61694e-05
1.75968e-05
1.92405e-05
2.11148e-05
2.32269e-05
2.55794e-05
2.81615e-05
3.09548e-05
3.39331e-05
3.70347e-05
4.02184e-05
4.33854e-05
4.63702e-05
4.90222e-05
5.10061e-05
5.13384e-05
5.10368e-05
5.1082e-05
5.22023e-05
5.67238e-05
7.65924e-06
7.67262e-06
7.6867e-06
7.70148e-06
7.71711e-06
7.73368e-06
7.75127e-06
7.76996e-06
7.78984e-06
7.811e-06
7.83356e-06
7.8576e-06
7.88327e-06
7.91068e-06
7.93998e-06
7.97134e-06
8.00493e-06
8.04105e-06
8.07996e-06
8.12193e-06
8.16726e-06
8.21632e-06
8.26951e-06
8.3273e-06
8.39021e-06
8.45888e-06
8.53402e-06
8.61646e-06
8.70718e-06
8.80735e-06
8.91834e-06
9.04179e-06
9.17967e-06
9.33439e-06
9.50883e-06
9.70649e-06
9.93164e-06
1.01894e-05
1.0486e-05
1.08289e-05
1.12269e-05
1.16906e-05
1.22318e-05
1.2864e-05
1.36023e-05
1.44626e-05
1.54621e-05
1.66177e-05
1.79461e-05
1.94622e-05
2.11786e-05
2.31036e-05
2.52415e-05
2.75882e-05
3.01367e-05
3.28625e-05
3.57424e-05
3.87349e-05
4.17621e-05
4.47901e-05
4.76553e-05
5.01546e-05
5.20946e-05
5.25248e-05
5.18628e-05
5.12963e-05
5.17104e-05
5.42337e-05
6.33603e-05
8.31132e-06
8.32808e-06
8.34564e-06
8.36402e-06
8.38338e-06
8.40381e-06
8.42543e-06
8.44832e-06
8.47262e-06
8.49844e-06
8.52594e-06
8.55526e-06
8.58657e-06
8.62006e-06
8.65591e-06
8.69442e-06
8.7359e-06
8.78064e-06
8.829e-06
8.88135e-06
8.93814e-06
8.99987e-06
9.06714e-06
9.14062e-06
9.22109e-06
9.30947e-06
9.40684e-06
9.51445e-06
9.6338e-06
9.76666e-06
9.91512e-06
1.00817e-05
1.02694e-05
1.04817e-05
1.0723e-05
1.09982e-05
1.13132e-05
1.16748e-05
1.20912e-05
1.25714e-05
1.31255e-05
1.37653e-05
1.4503e-05
1.53518e-05
1.63252e-05
1.74369e-05
1.86998e-05
2.0126e-05
2.17259e-05
2.35071e-05
2.54741e-05
2.76267e-05
2.99607e-05
3.24626e-05
3.51191e-05
3.78908e-05
4.0757e-05
4.36494e-05
4.64815e-05
4.92225e-05
5.15812e-05
5.33407e-05
5.3739e-05
5.31467e-05
5.17525e-05
5.16932e-05
5.2892e-05
5.81995e-05
7.18795e-05
9.13262e-06
9.15396e-06
9.17635e-06
9.19978e-06
9.22444e-06
9.25045e-06
9.27791e-06
9.30698e-06
9.33781e-06
9.37057e-06
9.40544e-06
9.44266e-06
9.48244e-06
9.5251e-06
9.571e-06
9.6205e-06
9.67398e-06
9.73188e-06
9.79472e-06
9.86308e-06
9.93763e-06
1.00191e-05
1.01085e-05
1.02068e-05
1.03152e-05
1.04351e-05
1.05682e-05
1.07165e-05
1.08821e-05
1.10678e-05
1.12767e-05
1.15124e-05
1.17791e-05
1.20818e-05
1.24259e-05
1.28177e-05
1.32645e-05
1.37741e-05
1.43552e-05
1.50172e-05
1.57701e-05
1.66243e-05
1.75905e-05
1.86793e-05
1.99008e-05
2.12642e-05
2.27777e-05
2.44476e-05
2.62778e-05
2.82699e-05
3.04211e-05
3.2725e-05
3.51698e-05
3.77347e-05
4.04011e-05
4.31114e-05
4.58579e-05
4.8516e-05
5.10194e-05
5.32944e-05
5.47341e-05
5.4971e-05
5.44022e-05
5.2767e-05
5.16652e-05
5.21479e-05
5.51903e-05
6.63149e-05
7.57827e-05
1.01876e-05
1.02154e-05
1.02448e-05
1.02756e-05
1.03082e-05
1.03425e-05
1.03789e-05
1.04175e-05
1.04585e-05
1.05021e-05
1.05487e-05
1.05987e-05
1.06523e-05
1.07102e-05
1.07726e-05
1.08402e-05
1.09135e-05
1.09933e-05
1.10803e-05
1.11756e-05
1.128e-05
1.13948e-05
1.15215e-05
1.16616e-05
1.1817e-05
1.19898e-05
1.21824e-05
1.23976e-05
1.26387e-05
1.29092e-05
1.32132e-05
1.35552e-05
1.39405e-05
1.43745e-05
1.48635e-05
1.54141e-05
1.60334e-05
1.67288e-05
1.75082e-05
1.83795e-05
1.93509e-05
2.04301e-05
2.16247e-05
2.29417e-05
2.43875e-05
2.5967e-05
2.76836e-05
2.95388e-05
3.15315e-05
3.3658e-05
3.59099e-05
3.82755e-05
4.07356e-05
4.32634e-05
4.58325e-05
4.83631e-05
5.08742e-05
5.31259e-05
5.51462e-05
5.62738e-05
5.62102e-05
5.56174e-05
5.41544e-05
5.16781e-05
5.17049e-05
5.33306e-05
6.04739e-05
7.16965e-05
7.66234e-05
1.15792e-05
1.16174e-05
1.16579e-05
1.17008e-05
1.17462e-05
1.17944e-05
1.18457e-05
1.19003e-05
1.19588e-05
1.20215e-05
1.20888e-05
1.21613e-05
1.22396e-05
1.23242e-05
1.24159e-05
1.25157e-05
1.26243e-05
1.27429e-05
1.28728e-05
1.30153e-05
1.31719e-05
1.33444e-05
1.35349e-05
1.37454e-05
1.39786e-05
1.42371e-05
1.45241e-05
1.48429e-05
1.51973e-05
1.55913e-05
1.60292e-05
1.65157e-05
1.70559e-05
1.76549e-05
1.83183e-05
1.90519e-05
1.98614e-05
2.07528e-05
2.1732e-05
2.28048e-05
2.39768e-05
2.52532e-05
2.66386e-05
2.81369e-05
2.97509e-05
3.14819e-05
3.33299e-05
3.52923e-05
3.73637e-05
3.95365e-05
4.1796e-05
4.41264e-05
4.64977e-05
4.888e-05
5.12298e-05
5.34483e-05
5.55828e-05
5.71885e-05
5.78344e-05
5.7519e-05
5.67349e-05
5.52585e-05
5.21216e-05
5.1251e-05
5.21459e-05
5.6634e-05
6.72039e-05
7.31758e-05
7.2184e-05
1.34861e-05
1.35432e-05
1.36041e-05
1.36691e-05
1.37385e-05
1.38127e-05
1.38922e-05
1.39775e-05
1.4069e-05
1.41675e-05
1.42735e-05
1.43879e-05
1.45115e-05
1.46454e-05
1.47904e-05
1.49479e-05
1.51192e-05
1.53056e-05
1.55088e-05
1.57305e-05
1.59726e-05
1.62373e-05
1.65266e-05
1.68432e-05
1.71896e-05
1.75688e-05
1.79836e-05
1.84374e-05
1.89336e-05
1.94757e-05
2.00675e-05
2.0713e-05
2.14163e-05
2.21816e-05
2.30131e-05
2.39154e-05
2.48928e-05
2.59496e-05
2.70901e-05
2.83182e-05
2.96376e-05
3.10512e-05
3.25615e-05
3.41697e-05
3.5876e-05
3.76783e-05
3.95741e-05
4.15549e-05
4.36141e-05
4.57384e-05
4.79051e-05
5.00954e-05
5.22611e-05
5.4376e-05
5.63571e-05
5.81148e-05
5.93208e-05
5.93487e-05
5.88472e-05
5.77076e-05
5.61208e-05
5.28836e-05
5.07856e-05
5.12126e-05
5.42e-05
6.30271e-05
6.93708e-05
6.89868e-05
6.33203e-05
1.62501e-05
1.63459e-05
1.64484e-05
1.65579e-05
1.66749e-05
1.68e-05
1.69338e-05
1.70768e-05
1.72299e-05
1.73938e-05
1.75693e-05
1.77574e-05
1.7959e-05
1.81752e-05
1.84072e-05
1.86561e-05
1.89233e-05
1.92102e-05
1.95183e-05
1.98492e-05
2.02046e-05
2.05864e-05
2.09965e-05
2.14369e-05
2.19099e-05
2.24178e-05
2.2963e-05
2.35483e-05
2.41762e-05
2.48499e-05
2.55723e-05
2.63467e-05
2.71765e-05
2.8065e-05
2.90159e-05
3.00325e-05
3.11184e-05
3.22768e-05
3.35108e-05
3.48228e-05
3.62149e-05
3.76884e-05
3.92434e-05
4.08791e-05
4.25926e-05
4.43786e-05
4.62326e-05
4.81377e-05
5.00897e-05
5.20629e-05
5.4025e-05
5.59566e-05
5.77757e-05
5.94785e-05
6.08359e-05
6.12212e-05
6.08992e-05
6.00982e-05
5.86282e-05
5.64639e-05
5.34717e-05
5.02359e-05
5.02638e-05
5.21623e-05
5.91211e-05
6.5497e-05
6.56258e-05
6.16227e-05
5.2048e-05
2.05755e-05
2.0743e-05
2.09205e-05
2.1108e-05
2.13061e-05
2.15151e-05
2.17357e-05
2.19682e-05
2.22132e-05
2.24713e-05
2.27431e-05
2.30293e-05
2.33306e-05
2.36477e-05
2.39814e-05
2.43326e-05
2.47022e-05
2.50912e-05
2.55007e-05
2.59318e-05
2.63859e-05
2.68643e-05
2.73686e-05
2.79005e-05
2.84618e-05
2.90545e-05
2.96809e-05
3.03432e-05
3.10442e-05
3.17865e-05
3.2573e-05
3.34067e-05
3.42908e-05
3.52284e-05
3.62225e-05
3.72762e-05
3.83921e-05
3.95726e-05
4.08196e-05
4.21342e-05
4.35167e-05
4.49666e-05
4.64814e-05
4.80581e-05
4.96896e-05
5.13679e-05
5.30862e-05
5.48116e-05
5.65601e-05
5.82586e-05
5.98838e-05
6.14109e-05
6.27039e-05
6.31994e-05
6.29824e-05
6.23289e-05
6.11242e-05
5.92506e-05
5.64894e-05
5.32619e-05
4.99805e-05
4.8891e-05
5.02181e-05
5.5382e-05
6.1321e-05
6.14143e-05
5.7954e-05
4.93121e-05
4.33495e-05
2.767e-05
2.79198e-05
2.81798e-05
2.84496e-05
2.87293e-05
2.90188e-05
2.93184e-05
2.9628e-05
2.99479e-05
3.02784e-05
3.06197e-05
3.09721e-05
3.1336e-05
3.17118e-05
3.21e-05
3.25011e-05
3.29159e-05
3.33451e-05
3.37897e-05
3.42508e-05
3.47295e-05
3.52273e-05
3.57458e-05
3.62867e-05
3.6852e-05
3.74439e-05
3.80647e-05
3.87171e-05
3.94037e-05
4.01274e-05
4.08913e-05
4.16983e-05
4.25515e-05
4.34536e-05
4.44074e-05
4.54151e-05
4.64786e-05
4.75991e-05
4.87769e-05
5.00112e-05
5.13005e-05
5.26418e-05
5.40296e-05
5.54579e-05
5.69122e-05
5.83875e-05
5.98668e-05
6.12918e-05
6.27418e-05
6.39755e-05
6.50965e-05
6.54344e-05
6.5214e-05
6.45687e-05
6.34728e-05
6.17957e-05
5.93461e-05
5.60398e-05
5.24664e-05
4.90915e-05
4.7286e-05
4.82076e-05
5.16602e-05
5.67638e-05
5.648e-05
5.30749e-05
4.52555e-05
3.99353e-05
3.79508e-05
3.85883e-05
3.88584e-05
3.91332e-05
3.94123e-05
3.96958e-05
3.99837e-05
4.02759e-05
4.05729e-05
4.08755e-05
4.11838e-05
4.14975e-05
4.1817e-05
4.21424e-05
4.24741e-05
4.28126e-05
4.31585e-05
4.35129e-05
4.38765e-05
4.42506e-05
4.46365e-05
4.50357e-05
4.54498e-05
4.58807e-05
4.63303e-05
4.68011e-05
4.72954e-05
4.78159e-05
4.83655e-05
4.89471e-05
4.95638e-05
5.02184e-05
5.09138e-05
5.16528e-05
5.24377e-05
5.32704e-05
5.41524e-05
5.5084e-05
5.60646e-05
5.70916e-05
5.81629e-05
5.92746e-05
6.04204e-05
6.15895e-05
6.27731e-05
6.39418e-05
6.51178e-05
6.62236e-05
6.72119e-05
6.79626e-05
6.79427e-05
6.76373e-05
6.68965e-05
6.5788e-05
6.41364e-05
6.18681e-05
5.85947e-05
5.48466e-05
5.08743e-05
4.7519e-05
4.49883e-05
4.57849e-05
4.83588e-05
5.19727e-05
5.08883e-05
4.678e-05
4.01434e-05
3.58252e-05
3.4221e-05
3.45893e-05
5.32355e-05
5.34155e-05
5.35936e-05
5.37696e-05
5.39437e-05
5.4116e-05
5.42867e-05
5.4456e-05
5.46244e-05
5.47923e-05
5.49602e-05
5.51286e-05
5.52981e-05
5.54694e-05
5.56435e-05
5.58219e-05
5.60063e-05
5.61976e-05
5.63971e-05
5.66063e-05
5.68268e-05
5.70606e-05
5.73098e-05
5.75759e-05
5.7862e-05
5.81711e-05
5.85061e-05
5.88696e-05
5.92651e-05
5.96951e-05
6.01625e-05
6.06698e-05
6.12192e-05
6.18122e-05
6.24495e-05
6.31311e-05
6.38549e-05
6.46158e-05
6.54074e-05
6.62316e-05
6.70789e-05
6.79355e-05
6.8782e-05
6.96054e-05
7.03616e-05
7.10336e-05
7.10699e-05
7.08332e-05
7.02425e-05
6.92756e-05
6.80655e-05
6.63178e-05
6.39661e-05
6.06765e-05
5.68792e-05
5.24305e-05
4.84662e-05
4.48323e-05
4.21152e-05
4.26046e-05
4.49307e-05
4.52785e-05
4.34132e-05
3.86701e-05
3.3872e-05
3.10269e-05
3.01391e-05
3.06316e-05
3.20576e-05
7.05021e-05
7.04923e-05
7.0474e-05
7.04474e-05
7.04134e-05
7.03725e-05
7.03253e-05
7.02723e-05
7.02141e-05
7.01516e-05
7.00854e-05
7.00163e-05
6.99454e-05
6.98736e-05
6.98022e-05
6.97325e-05
6.96661e-05
6.96047e-05
6.955e-05
6.95041e-05
6.94692e-05
6.94473e-05
6.94398e-05
6.94445e-05
6.94724e-05
6.95254e-05
6.9606e-05
6.9713e-05
6.98567e-05
7.00318e-05
7.02458e-05
7.04989e-05
7.0793e-05
7.11276e-05
7.15016e-05
7.1913e-05
7.23515e-05
7.2801e-05
7.326e-05
7.37607e-05
7.42517e-05
7.47067e-05
7.48944e-05
7.47753e-05
7.44587e-05
7.37954e-05
7.2871e-05
7.17e-05
7.02643e-05
6.82176e-05
6.56024e-05
6.21031e-05
5.80975e-05
5.34715e-05
4.89316e-05
4.4583e-05
4.10373e-05
3.8103e-05
3.8456e-05
3.8321e-05
3.71006e-05
3.36002e-05
2.99637e-05
2.72844e-05
2.59578e-05
2.57779e-05
2.64928e-05
2.7851e-05
2.96397e-05
8.88123e-05
8.85489e-05
8.82693e-05
8.79751e-05
8.76711e-05
8.73577e-05
8.70352e-05
8.67042e-05
8.63653e-05
8.60194e-05
8.56674e-05
8.53101e-05
8.49488e-05
8.45847e-05
8.42191e-05
8.38536e-05
8.34898e-05
8.31295e-05
8.27748e-05
8.24288e-05
8.20944e-05
8.17737e-05
8.14687e-05
8.11815e-05
8.09154e-05
8.06701e-05
8.04549e-05
8.02306e-05
8.01045e-05
7.99415e-05
7.9865e-05
7.98099e-05
7.97977e-05
7.9816e-05
7.98649e-05
7.99363e-05
7.99794e-05
7.9971e-05
7.98599e-05
7.96357e-05
7.9225e-05
7.85497e-05
7.76493e-05
7.66279e-05
7.53875e-05
7.39078e-05
7.19516e-05
6.94704e-05
6.63269e-05
6.24725e-05
5.81597e-05
5.31979e-05
4.84745e-05
4.34527e-05
3.92405e-05
3.53551e-05
3.29206e-05
3.21347e-05
3.0124e-05
2.60894e-05
2.33365e-05
2.18431e-05
2.10652e-05
2.09519e-05
2.13758e-05
2.22733e-05
2.35518e-05
2.5129e-05
2.69453e-05
0.00010632
0.000105792
0.000105248
0.000104688
0.000104113
0.000103525
0.000102924
0.00010231
0.000101686
0.000101051
0.000100408
9.97565e-05
9.90985e-05
9.84354e-05
9.77685e-05
9.70994e-05
9.64296e-05
9.57622e-05
9.50992e-05
9.44423e-05
9.37934e-05
9.31544e-05
9.25284e-05
9.19195e-05
9.13307e-05
9.07646e-05
9.02238e-05
8.97065e-05
8.92195e-05
8.87566e-05
8.83171e-05
8.78689e-05
8.74054e-05
8.68877e-05
8.62996e-05
8.56262e-05
8.48391e-05
8.38845e-05
8.2867e-05
8.17564e-05
8.04977e-05
7.90271e-05
7.72893e-05
7.51322e-05
7.24812e-05
6.92957e-05
6.54562e-05
6.11944e-05
5.62883e-05
5.12885e-05
4.60468e-05
4.09112e-05
3.61464e-05
3.12323e-05
2.84026e-05
2.45423e-05
2.21653e-05
1.73046e-05
1.5886e-05
1.56812e-05
1.55786e-05
1.58295e-05
1.63846e-05
1.71606e-05
1.81267e-05
1.92747e-05
2.05931e-05
2.20814e-05
2.37506e-05
0.000120785
0.000120037
0.000119268
0.000118479
0.000117672
0.000116847
0.000116006
0.000115149
0.000114277
0.000113392
0.000112494
0.000111583
0.000110664
0.000109736
0.000108802
0.000107861
0.000106915
0.000105965
0.000105013
0.000104058
0.000103104
0.000102152
0.000101206
0.000100264
9.93205e-05
9.83727e-05
9.74146e-05
9.6439e-05
9.54367e-05
9.43954e-05
9.33012e-05
9.21848e-05
9.10293e-05
8.98186e-05
8.85215e-05
8.71283e-05
8.55797e-05
8.38978e-05
8.19331e-05
7.96803e-05
7.70367e-05
7.39653e-05
7.04287e-05
6.63613e-05
6.18821e-05
5.69377e-05
5.18634e-05
4.65466e-05
4.11334e-05
3.58645e-05
3.05249e-05
2.59426e-05
2.09641e-05
1.74035e-05
1.29074e-05
1.02251e-05
9.82669e-06
1.0156e-05
1.03996e-05
1.08425e-05
1.15514e-05
1.23655e-05
1.32295e-05
1.41372e-05
1.50957e-05
1.61213e-05
1.72365e-05
1.84769e-05
1.98928e-05
0.000129171
0.000128265
0.00012734
0.000126395
0.000125432
0.00012445
0.000123449
0.000122428
0.000121388
0.00012033
0.000119252
0.000118157
0.000117043
0.000115912
0.000114765
0.000113601
0.000112421
0.000111225
0.000110014
0.000108789
0.000107552
0.000106294
0.000105005
0.000103686
0.000102335
0.000100946
9.9513e-05
9.80261e-05
9.64725e-05
9.48391e-05
9.31053e-05
9.12408e-05
8.92092e-05
8.70036e-05
8.45553e-05
8.18948e-05
7.88865e-05
7.56542e-05
7.1937e-05
6.79852e-05
6.35069e-05
5.88554e-05
5.38203e-05
4.87101e-05
4.33865e-05
3.82516e-05
3.29028e-05
2.71394e-05
2.18056e-05
1.70188e-05
1.2493e-05
8.86248e-06
6.43155e-06
5.13582e-06
5.14529e-06
5.55428e-06
5.81259e-06
6.36912e-06
7.10261e-06
7.8827e-06
8.6795e-06
9.4641e-06
1.02218e-05
1.09519e-05
1.16676e-05
1.23967e-05
1.31808e-05
1.40763e-05
1.51517e-05
0.00012498
0.00012407
0.000123131
0.000122162
0.000121167
0.000120145
0.000119097
0.000118023
0.000116923
0.000115797
0.000114644
0.000113464
0.000112256
0.00011102
0.000109755
0.000108462
0.00010714
0.000105789
0.000104409
0.000102994
0.00010152
9.99828e-05
9.83658e-05
9.66504e-05
9.48152e-05
9.28396e-05
9.06995e-05
8.83764e-05
8.58473e-05
8.31051e-05
8.01323e-05
7.69485e-05
7.35386e-05
6.9968e-05
6.6205e-05
6.23686e-05
5.83652e-05
5.43088e-05
4.97686e-05
4.53593e-05
4.04452e-05
3.58695e-05
3.06226e-05
2.54283e-05
2.02015e-05
1.5104e-05
1.07868e-05
7.74503e-06
5.51472e-06
3.75851e-06
2.62949e-06
2.06297e-06
1.98514e-06
2.08024e-06
2.29639e-06
2.6475e-06
3.11534e-06
3.66714e-06
4.25781e-06
4.85443e-06
5.43159e-06
5.96708e-06
6.44506e-06
6.86472e-06
7.24248e-06
7.61027e-06
8.0194e-06
8.53668e-06
9.23301e-06
9.73548e-05
9.64477e-05
9.55154e-05
9.45589e-05
9.3577e-05
9.25681e-05
9.15318e-05
9.04665e-05
8.93725e-05
8.82471e-05
8.70922e-05
8.59019e-05
8.46823e-05
8.34215e-05
8.2133e-05
8.07957e-05
7.94327e-05
7.80134e-05
7.65199e-05
7.49487e-05
7.33015e-05
7.15833e-05
6.97925e-05
6.79344e-05
6.60085e-05
6.40213e-05
6.19717e-05
5.98622e-05
5.76878e-05
5.54386e-05
5.31012e-05
5.06404e-05
4.80305e-05
4.51999e-05
4.21113e-05
3.86593e-05
3.48061e-05
3.05269e-05
2.61726e-05
2.13658e-05
1.66927e-05
1.18563e-05
8.15783e-06
5.5198e-06
3.6602e-06
2.42893e-06
1.63704e-06
1.11082e-06
7.23973e-07
5.13938e-07
4.31555e-07
4.0785e-07
4.02176e-07
4.46385e-07
5.25187e-07
6.3153e-07
7.70599e-07
9.40425e-07
1.13194e-06
1.33288e-06
1.52835e-06
1.7039e-06
1.84871e-06
1.96011e-06
2.04466e-06
2.11941e-06
2.21286e-06
2.37194e-06
2.67619e-06
5.32255e-05
5.37928e-05
5.43523e-05
5.49017e-05
5.54373e-05
5.5959e-05
5.64603e-05
5.69464e-05
5.74034e-05
5.78441e-05
5.82449e-05
5.86285e-05
5.89578e-05
5.92712e-05
5.95075e-05
5.97396e-05
5.98254e-05
5.98247e-05
5.98536e-05
5.98068e-05
5.96597e-05
5.93974e-05
5.90008e-05
5.84498e-05
5.77215e-05
5.67908e-05
5.56294e-05
5.42056e-05
5.24844e-05
5.04268e-05
4.79912e-05
4.51329e-05
4.1809e-05
3.79787e-05
3.36168e-05
2.87216e-05
2.3346e-05
1.76345e-05
1.18965e-05
6.69025e-06
2.85862e-06
9.18416e-07
5.31461e-07
5.35523e-07
5.21407e-07
4.54093e-07
3.8231e-07
2.96049e-07
2.23391e-07
1.8554e-07
1.6431e-07
1.44974e-07
1.31538e-07
1.26e-07
1.2505e-07
1.28336e-07
1.34829e-07
1.43104e-07
1.51726e-07
1.59225e-07
1.64258e-07
1.65578e-07
1.63597e-07
1.58367e-07
1.50998e-07
1.43214e-07
1.36873e-07
1.32746e-07
1.27005e-07
5.05439e-06
5.05482e-06
5.05495e-06
5.05405e-06
5.05501e-06
5.05423e-06
5.05461e-06
5.04967e-06
5.04671e-06
5.04273e-06
5.04118e-06
5.04313e-06
5.05019e-06
5.05474e-06
5.05227e-06
5.04349e-06
5.04515e-06
5.04678e-06
5.04753e-06
5.04071e-06
5.04077e-06
5.04878e-06
5.04403e-06
5.04512e-06
5.04006e-06
5.03355e-06
5.03994e-06
5.04268e-06
5.04526e-06
5.04725e-06
5.04532e-06
5.05016e-06
5.05338e-06
5.0521e-06
5.05462e-06
5.0504e-06
5.05273e-06
5.05563e-06
5.05713e-06
5.06669e-06
5.05853e-06
5.06094e-06
5.05956e-06
5.05757e-06
5.06193e-06
5.05925e-06
5.05614e-06
5.05612e-06
5.06007e-06
5.06398e-06
5.06675e-06
5.07441e-06
5.07902e-06
5.08205e-06
5.08608e-06
5.08939e-06
5.09234e-06
5.09499e-06
5.09788e-06
5.15807e-06
5.15691e-06
5.15554e-06
5.15393e-06
5.15225e-06
5.14959e-06
5.14669e-06
5.143e-06
5.1424e-06
5.14342e-06
5.14559e-06
5.14754e-06
5.14909e-06
5.14619e-06
5.13884e-06
5.13783e-06
5.14011e-06
5.14044e-06
5.13589e-06
5.1326e-06
5.1352e-06
5.13825e-06
5.13306e-06
5.1345e-06
5.12738e-06
5.12379e-06
5.12922e-06
5.13326e-06
5.13294e-06
5.13378e-06
5.13495e-06
5.13898e-06
5.14161e-06
5.13984e-06
5.14402e-06
5.14209e-06
5.14204e-06
5.14559e-06
5.14767e-06
5.15629e-06
5.15489e-06
5.1552e-06
5.15438e-06
5.15326e-06
5.15528e-06
5.15543e-06
5.15402e-06
5.15375e-06
5.15616e-06
5.16023e-06
5.16378e-06
5.16942e-06
5.1758e-06
5.18003e-06
5.18486e-06
5.18892e-06
5.19264e-06
5.19637e-06
5.19979e-06
5.27753e-06
5.27507e-06
5.27291e-06
5.2705e-06
5.26812e-06
5.26583e-06
5.26424e-06
5.26372e-06
5.26463e-06
5.26466e-06
5.2634e-06
5.26205e-06
5.25929e-06
5.25398e-06
5.25022e-06
5.25182e-06
5.25237e-06
5.24788e-06
5.24307e-06
5.24361e-06
5.24594e-06
5.24526e-06
5.2402e-06
5.24089e-06
5.23298e-06
5.23126e-06
5.236e-06
5.24068e-06
5.23833e-06
5.2385e-06
5.24199e-06
5.24516e-06
5.24739e-06
5.24581e-06
5.25058e-06
5.25037e-06
5.24977e-06
5.25278e-06
5.25484e-06
5.26389e-06
5.26665e-06
5.26803e-06
5.26836e-06
5.26837e-06
5.26906e-06
5.27101e-06
5.27037e-06
5.27073e-06
5.27192e-06
5.27485e-06
5.27866e-06
5.28331e-06
5.28961e-06
5.29519e-06
5.30072e-06
5.30586e-06
5.31051e-06
5.31513e-06
5.3192e-06
5.41805e-06
5.41513e-06
5.41288e-06
5.41047e-06
5.40845e-06
5.4068e-06
5.40569e-06
5.40492e-06
5.40404e-06
5.40201e-06
5.39884e-06
5.39477e-06
5.39046e-06
5.38632e-06
5.38524e-06
5.38596e-06
5.38105e-06
5.37558e-06
5.37291e-06
5.37506e-06
5.37638e-06
5.3725e-06
5.36768e-06
5.36699e-06
5.35898e-06
5.35907e-06
5.36305e-06
5.36751e-06
5.36389e-06
5.3638e-06
5.36857e-06
5.37109e-06
5.37329e-06
5.37219e-06
5.3773e-06
5.37847e-06
5.3782e-06
5.38065e-06
5.38224e-06
5.3909e-06
5.39678e-06
5.40024e-06
5.40215e-06
5.40403e-06
5.40497e-06
5.40714e-06
5.40877e-06
5.41006e-06
5.41126e-06
5.41327e-06
5.4164e-06
5.42028e-06
5.42549e-06
5.43116e-06
5.43699e-06
5.44283e-06
5.44833e-06
5.45383e-06
5.4587e-06
5.58667e-06
5.58359e-06
5.58137e-06
5.5789e-06
5.57674e-06
5.57461e-06
5.57244e-06
5.56991e-06
5.56664e-06
5.56242e-06
5.55752e-06
5.55256e-06
5.54841e-06
5.54531e-06
5.54362e-06
5.54061e-06
5.53385e-06
5.52971e-06
5.52985e-06
5.53104e-06
5.52972e-06
5.52381e-06
5.51918e-06
5.51692e-06
5.50942e-06
5.51059e-06
5.51395e-06
5.51767e-06
5.51329e-06
5.51312e-06
5.51851e-06
5.52064e-06
5.52295e-06
5.52238e-06
5.52757e-06
5.53036e-06
5.53071e-06
5.53304e-06
5.53423e-06
5.54186e-06
5.54973e-06
5.55558e-06
5.55938e-06
5.5631e-06
5.56559e-06
5.5683e-06
5.57115e-06
5.57388e-06
5.5763e-06
5.57872e-06
5.58169e-06
5.58522e-06
5.58959e-06
5.59466e-06
5.60017e-06
5.606e-06
5.61176e-06
5.61776e-06
5.62321e-06
5.78909e-06
5.78542e-06
5.78261e-06
5.77926e-06
5.77594e-06
5.77228e-06
5.76823e-06
5.76362e-06
5.75841e-06
5.75281e-06
5.74725e-06
5.74222e-06
5.73804e-06
5.73429e-06
5.73031e-06
5.72468e-06
5.71841e-06
5.71629e-06
5.71686e-06
5.71537e-06
5.71176e-06
5.70451e-06
5.69984e-06
5.69608e-06
5.68946e-06
5.69111e-06
5.69382e-06
5.69658e-06
5.69177e-06
5.69157e-06
5.69717e-06
5.69913e-06
5.7016e-06
5.70147e-06
5.7066e-06
5.71084e-06
5.71229e-06
5.71496e-06
5.71615e-06
5.72254e-06
5.73125e-06
5.73926e-06
5.74522e-06
5.7508e-06
5.75537e-06
5.75947e-06
5.76352e-06
5.76757e-06
5.77146e-06
5.77513e-06
5.77888e-06
5.78284e-06
5.78721e-06
5.79206e-06
5.7973e-06
5.80294e-06
5.80866e-06
5.81477e-06
5.82046e-06
6.03045e-06
6.02556e-06
6.02151e-06
6.01668e-06
6.01173e-06
6.00631e-06
6.00052e-06
5.99436e-06
5.98799e-06
5.98166e-06
5.97566e-06
5.9701e-06
5.9648e-06
5.95927e-06
5.95317e-06
5.94666e-06
5.94161e-06
5.94005e-06
5.93898e-06
5.93538e-06
5.92939e-06
5.92135e-06
5.91623e-06
5.91124e-06
5.90561e-06
5.90727e-06
5.90926e-06
5.91092e-06
5.90587e-06
5.90564e-06
5.9112e-06
5.91315e-06
5.91571e-06
5.9161e-06
5.9211e-06
5.92652e-06
5.92937e-06
5.93283e-06
5.93453e-06
5.93988e-06
5.94853e-06
5.95805e-06
5.96622e-06
5.9738e-06
5.98059e-06
5.9867e-06
5.99243e-06
5.998e-06
6.00344e-06
6.00868e-06
6.0138e-06
6.01889e-06
6.02408e-06
6.02946e-06
6.03503e-06
6.04087e-06
6.04674e-06
6.05304e-06
6.05895e-06
6.31871e-06
6.31224e-06
6.30674e-06
6.30033e-06
6.29381e-06
6.28689e-06
6.27976e-06
6.27245e-06
6.26514e-06
6.25793e-06
6.25091e-06
6.24398e-06
6.23694e-06
6.22967e-06
6.22241e-06
6.21598e-06
6.21157e-06
6.20907e-06
6.20552e-06
6.1994e-06
6.19131e-06
6.18271e-06
6.1768e-06
6.17087e-06
6.16611e-06
6.16741e-06
6.16853e-06
6.16904e-06
6.16384e-06
6.16355e-06
6.16887e-06
6.17093e-06
6.17356e-06