/*--------------------------------*- C++ -*----------------------------------*\
| =========                 |                                                 |
| \\      /  F ield         | OpenFOAM: The Open Source CFD Toolbox           |
|  \\    /   O peration     | Version:  2312                                  |
|   \\  /    A nd           | Website:  www.openfoam.com                      |
|    \\/     M anipulation  |                                                 |
\*---------------------------------------------------------------------------*/
FoamFile
{
    version     2.0;
    format      ascii;
    arch        "LSB;label=32;scalar=64";
    class       volScalarField;
    location    "200";
    object      nut;
}
// * * * * * * * * * * * * * * * * * * * * * * * * * * * * * * * * * * * * * //

dimensions      [0 2 -1 0 0 0 0];

internalField   nonuniform List<scalar> 
76025
(
0.000172373
0.000172481
0.000172564
0.00017268
0.000172725
0.000172878
0.000172951
0.000173067
0.00017315
0.000173264
0.000173383
0.000173512
0.000173675
0.000173817
0.000173998
0.000174168
0.000174363
0.00017458
0.000174785
0.000175007
0.000175242
0.000175505
0.000175755
0.00017603
0.000176329
0.000176625
0.000176975
0.000177279
0.000177669
0.000178016
0.000178409
0.000178817
0.000179271
0.000179754
0.000180266
0.000180809
0.000181417
0.000182057
0.000182766
0.000183523
0.00018435
0.000185291
0.000186292
0.000187433
0.000188677
0.000190115
0.000191633
0.000193388
0.000195391
0.00019758
0.000200147
0.000203024
0.000206426
0.000210143
0.00021515
0.000220551
0.000227676
0.000236508
0.00024802
0.00026277
0.000280625
0.000303236
0.000329
0.00035608
0.000379815
0.000394669
0.000403429
0.000386717
0.000370932
0.000174111
0.000174234
0.000174348
0.00017448
0.000174576
0.000174704
0.000174817
0.000174943
0.000175067
0.000175193
0.000175325
0.00017546
0.000175613
0.000175766
0.000175948
0.000176124
0.000176326
0.000176531
0.000176756
0.000176986
0.000177232
0.000177494
0.000177771
0.00017806
0.000178377
0.000178695
0.000179049
0.000179413
0.000179806
0.000180225
0.000180676
0.000181139
0.000181652
0.00018219
0.000182776
0.000183407
0.000184084
0.000184828
0.000185636
0.000186517
0.000187491
0.000188546
0.000189731
0.000191025
0.000192476
0.000194071
0.000195861
0.000197872
0.000200119
0.000202692
0.000205597
0.000209017
0.000212946
0.000217795
0.000223533
0.000230774
0.00023983
0.000251325
0.000265848
0.000283723
0.000305446
0.000329732
0.000354967
0.000378097
0.000394388
0.000403157
0.000400447
0.000374582
0.000350334
0.000176127
0.000176258
0.000176387
0.00017653
0.000176661
0.000176801
0.000176939
0.000177082
0.000177229
0.000177379
0.000177534
0.000177691
0.000177858
0.000178027
0.000178215
0.000178408
0.000178619
0.000178839
0.000179075
0.000179323
0.000179587
0.000179865
0.000180163
0.000180476
0.000180814
0.000181169
0.00018155
0.000181954
0.000182387
0.000182848
0.000183346
0.000183876
0.000184447
0.000185061
0.000185724
0.000186441
0.000187217
0.000188063
0.000188982
0.000189987
0.000191087
0.000192297
0.000193632
0.000195105
0.000196739
0.000198557
0.000200597
0.000202887
0.000205496
0.000208476
0.00021195
0.000216016
0.000220907
0.000226816
0.000234121
0.000243226
0.000254615
0.000268832
0.000286191
0.000306864
0.000330047
0.000354139
0.000377006
0.000394833
0.000404297
0.000405027
0.000390281
0.000357038
0.000324992
0.000178443
0.000178585
0.000178728
0.000178879
0.000179031
0.000179188
0.000179349
0.000179512
0.000179681
0.000179854
0.000180032
0.000180215
0.000180406
0.000180602
0.000180808
0.000181024
0.000181253
0.000181494
0.00018175
0.000182021
0.000182308
0.000182613
0.000182937
0.000183281
0.000183649
0.000184041
0.000184461
0.000184909
0.000185389
0.000185903
0.000186456
0.000187051
0.000187691
0.000188381
0.000189127
0.000189935
0.000190812
0.000191766
0.000192806
0.000193943
0.000195191
0.000196566
0.000198084
0.000199767
0.000201642
0.000203744
0.000206113
0.000208808
0.000211901
0.000215499
0.00021973
0.000224792
0.000230915
0.000238436
0.000247725
0.00025924
0.000273398
0.0002905
0.000310505
0.000332846
0.000356023
0.000377987
0.000396183
0.000406695
0.000408002
0.000399431
0.000372646
0.00033441
0.000293943
0.000181122
0.000181274
0.00018143
0.000181592
0.000181759
0.000181931
0.000182109
0.000182293
0.000182482
0.000182678
0.00018288
0.000183088
0.000183304
0.000183529
0.000183762
0.000184006
0.000184263
0.000184532
0.000184816
0.000185116
0.000185434
0.000185771
0.00018613
0.000186512
0.000186919
0.000187355
0.000187821
0.00018832
0.000188855
0.00018943
0.000190048
0.000190715
0.000191434
0.000192211
0.000193052
0.000193965
0.000194957
0.00019604
0.000197222
0.000198519
0.000199947
0.000201524
0.000203275
0.000205227
0.000207417
0.000209891
0.00021271
0.000215953
0.00021973
0.000224181
0.000229495
0.000235916
0.000243744
0.000253344
0.00026508
0.000279326
0.000296246
0.00031576
0.00033724
0.000359484
0.00038044
0.000398036
0.000409475
0.000411461
0.000404503
0.000385483
0.000348378
0.000306938
0.000258177
0.000184271
0.000184426
0.000184589
0.000184759
0.000184936
0.000185121
0.000185314
0.000185514
0.000185722
0.000185938
0.000186162
0.000186394
0.000186636
0.000186888
0.000187151
0.000187426
0.000187714
0.000188016
0.000188335
0.000188671
0.000189026
0.000189403
0.000189803
0.00019023
0.000190686
0.000191173
0.000191694
0.000192254
0.000192854
0.0001935
0.000194196
0.000194948
0.00019576
0.00019664
0.000197594
0.000198633
0.000199766
0.000201004
0.000202362
0.000203858
0.000205513
0.000207352
0.000209407
0.000211717
0.000214333
0.000217322
0.000220771
0.000224794
0.000229542
0.000235203
0.000242018
0.000250272
0.000260282
0.000272374
0.000286789
0.000303658
0.000322741
0.000343464
0.000364656
0.000384622
0.000401208
0.000412538
0.000415652
0.000408792
0.000393299
0.000363052
0.000318739
0.000274845
0.000219517
0.000187998
0.000188153
0.000188318
0.000188492
0.000188676
0.000188871
0.000189074
0.000189288
0.000189512
0.000189746
0.00018999
0.000190245
0.000190512
0.000190791
0.000191083
0.000191389
0.000191711
0.000192049
0.000192406
0.000192783
0.000193181
0.000193604
0.000194054
0.000194534
0.000195047
0.000195596
0.000196184
0.000196816
0.000197495
0.000198228
0.000199018
0.000199873
0.000200799
0.000201806
0.000202901
0.000204097
0.000205406
0.000206844
0.000208428
0.000210184
0.00021214
0.000214331
0.000216801
0.000219609
0.000222828
0.000226553
0.000230906
0.000236044
0.000242157
0.000249476
0.000258264
0.000268792
0.000281314
0.000295993
0.000312818
0.000331542
0.000351457
0.000371564
0.000390302
0.000405792
0.000416172
0.000419689
0.000413581
0.00039819
0.000373601
0.000332672
0.000285061
0.000238456
0.000179213
0.000192407
0.000192565
0.000192733
0.000192913
0.000193103
0.000193306
0.00019352
0.000193747
0.000193985
0.000194236
0.0001945
0.000194777
0.000195068
0.000195375
0.000195697
0.000196036
0.000196394
0.000196771
0.00019717
0.000197592
0.00019804
0.000198517
0.000199025
0.000199568
0.000200149
0.000200772
0.000201441
0.000202161
0.000202938
0.000203776
0.000204684
0.000205668
0.000206738
0.000207905
0.000209181
0.00021058
0.000212119
0.000213821
0.00021571
0.00021782
0.000220193
0.000222879
0.000225944
0.00022947
0.00023356
0.000238346
0.000243985
0.000250667
0.000258606
0.00026803
0.00027916
0.000292164
0.000307117
0.000323904
0.000342176
0.000361273
0.000380111
0.000397464
0.000411571
0.000420725
0.000423543
0.000418162
0.000402784
0.000379432
0.000344975
0.000296067
0.000248513
0.000198254
0.000138513
0.000197614
0.000197782
0.000197961
0.000198151
0.000198353
0.000198568
0.000198796
0.000199038
0.000199293
0.000199563
0.000199849
0.000200151
0.000200469
0.000200806
0.000201161
0.000201537
0.000201935
0.000202356
0.000202803
0.000203278
0.000203784
0.000204324
0.000204902
0.000205521
0.000206185
0.000206899
0.000207668
0.000208498
0.000209395
0.000210368
0.000211425
0.000212576
0.000213833
0.000215211
0.000216727
0.0002184
0.000220255
0.000222324
0.000224644
0.000227261
0.000230238
0.000233648
0.000237582
0.000242151
0.000247491
0.000253759
0.000261131
0.000269797
0.000279939
0.00029171
0.000305195
0.000320363
0.000337016
0.000354718
0.0003728
0.000390276
0.000405901
0.000418413
0.000426029
0.000427543
0.000421929
0.000407121
0.000383275
0.000352149
0.000307782
0.000255449
0.000209477
0.000156932
0.000103117
0.000203767
0.000203955
0.000204154
0.000204363
0.000204585
0.000204819
0.000205068
0.000205332
0.000205611
0.000205907
0.000206221
0.000206553
0.000206905
0.000207279
0.000207674
0.000208094
0.000208541
0.000209015
0.00020952
0.00021006
0.000210638
0.000211257
0.00021192
0.000212634
0.000213402
0.000214231
0.000215128
0.000216099
0.000217155
0.000218305
0.00021956
0.000220937
0.00022245
0.000224121
0.000225973
0.000228038
0.000230351
0.000232957
0.000235912
0.000239282
0.000243153
0.000247623
0.000252807
0.000258839
0.000265865
0.000274038
0.000283507
0.000294395
0.00030678
0.000320655
0.000335892
0.000352211
0.000369129
0.000385951
0.000401799
0.000415522
0.000425951
0.000431877
0.000431668
0.000424874
0.000410373
0.000386354
0.000355328
0.000315926
0.000262661
0.000213915
0.000168428
0.000117065
8.08855e-05
0.000211066
0.000211283
0.000211511
0.00021175
0.000212001
0.000212266
0.000212547
0.000212843
0.000213157
0.00021349
0.000213842
0.000214216
0.000214613
0.000215035
0.000215483
0.00021596
0.000216469
0.000217013
0.000217595
0.000218219
0.000218889
0.00021961
0.000220386
0.000221224
0.000222131
0.000223115
0.000224184
0.00022535
0.000226624
0.000228022
0.000229561
0.000231261
0.000233147
0.000235251
0.000237607
0.00024026
0.000243263
0.000246678
0.000250582
0.000255061
0.000260216
0.000266162
0.000273019
0.000280907
0.000289944
0.000300221
0.000311795
0.000324659
0.000338718
0.000353763
0.000369442
0.000385255
0.00040051
0.00041439
0.000425939
0.000434006
0.000437685
0.000435768
0.000427057
0.000411873
0.000388406
0.000356305
0.000319044
0.00026934
0.000216784
0.000173047
0.000127885
8.45725e-05
7.25476e-05
0.00021978
0.000220036
0.000220304
0.000220584
0.000220877
0.000221186
0.000221512
0.000221856
0.000222219
0.000222604
0.000223011
0.000223444
0.000223904
0.000224393
0.000224914
0.000225472
0.000226068
0.000226709
0.000227397
0.000228137
0.000228936
0.0002298
0.000230735
0.000231751
0.000232856
0.000234064
0.000235386
0.000236838
0.00023844
0.000240213
0.000242183
0.00024438
0.000246843
0.000249613
0.000252743
0.000256291
0.000260326
0.000264926
0.000270176
0.000276169
0.000283001
0.000290765
0.000299547
0.000309408
0.00032038
0.00033244
0.000345506
0.000359404
0.000373864
0.000388494
0.000402778
0.00041609
0.000427639
0.000436641
0.000442127
0.000443123
0.000439047
0.000428579
0.00041143
0.000388191
0.000356173
0.000317814
0.000272013
0.000220003
0.000173202
0.000133227
9.11175e-05
6.77335e-05
7.37761e-05
0.000230287
0.000230594
0.000230914
0.00023125
0.000231602
0.000231972
0.000232361
0.000232772
0.000233207
0.000233667
0.000234155
0.000234674
0.000235226
0.000235815
0.000236446
0.000237124
0.000237852
0.000238636
0.000239483
0.000240399
0.000241394
0.000242475
0.000243655
0.000244946
0.000246362
0.000247921
0.000249644
0.000251553
0.000253675
0.000256044
0.000258696
0.000261673
0.000265024
0.000268805
0.000273075
0.000277901
0.000283354
0.000289505
0.000296425
0.000304179
0.000312819
0.000322378
0.000332862
0.000344233
0.000356406
0.000369227
0.000382474
0.000395829
0.000408901
0.000421179
0.000432086
0.00044096
0.000447012
0.00044961
0.000447757
0.000440887
0.000428613
0.000409499
0.000384731
0.000353936
0.000313947
0.000268979
0.000220945
0.000172174
0.000133308
9.51836e-05
6.63953e-05
6.6002e-05
7.46071e-05
0.00024313
0.000243505
0.000243899
0.000244312
0.000244747
0.000245206
0.00024569
0.000246202
0.000246744
0.00024732
0.000247932
0.000248585
0.000249285
0.000250036
0.000250844
0.000251714
0.000252655
0.000253674
0.000254782
0.000255988
0.000257306
0.000258749
0.000260336
0.000262083
0.000264014
0.000266153
0.000268528
0.000271172
0.00027412
0.000277413
0.000281094
0.000285211
0.000289814
0.000294956
0.000300687
0.00030706
0.000314118
0.000321898
0.000330424
0.0003397
0.000349707
0.000360391
0.000371662
0.000383379
0.000395351
0.000407319
0.000418969
0.000429896
0.000439658
0.0004477
0.00045348
0.000456337
0.000455589
0.000450802
0.000440902
0.000426067
0.000405654
0.000378547
0.000347554
0.000307589
0.000261553
0.000217107
0.000170845
0.000129062
9.57256e-05
6.57792e-05
5.88617e-05
6.70805e-05
7.48938e-05
0.000259141
0.000259621
0.000260128
0.000260663
0.00026123
0.00026183
0.000262466
0.000263143
0.000263864
0.000264636
0.000265463
0.00026635
0.000267306
0.000268336
0.00026945
0.000270658
0.00027197
0.000273399
0.00027496
0.000276668
0.000278541
0.000280599
0.000282865
0.000285362
0.000288118
0.000291162
0.000294526
0.000298243
0.000302349
0.00030688
0.00031187
0.000317356
0.000323369
0.000329935
0.000337076
0.000344803
0.000353113
0.000361987
0.000371388
0.000381251
0.000391483
0.000401953
0.000412496
0.000422896
0.000432896
0.000442178
0.000450391
0.000457098
0.000461879
0.000464165
0.000463538
0.000459312
0.000451063
0.000438482
0.000420464
0.000398282
0.000370236
0.000336723
0.000297285
0.000251349
0.000208027
0.000165931
0.000123639
9.23995e-05
6.44775e-05
5.37319e-05
6.01186e-05
6.73919e-05
7.77793e-05
0.000279721
0.000280386
0.000281094
0.000281846
0.00028265
0.000283509
0.000284427
0.00028541
0.000286465
0.000287598
0.000288818
0.000290132
0.000291552
0.000293087
0.000294749
0.000296552
0.000298509
0.000300637
0.000302952
0.000305471
0.000308216
0.000311204
0.000314459
0.000318002
0.000321856
0.000326043
0.000330584
0.000335502
0.000340815
0.000346538
0.000352683
0.000359258
0.000366261
0.000373684
0.000381506
0.000389695
0.0003982
0.000406953
0.000415865
0.000424817
0.000433666
0.000442235
0.000450311
0.000457645
0.000463953
0.000468896
0.000472138
0.000473223
0.000471828
0.000467355
0.000459619
0.000447805
0.00043202
0.000411784
0.00038636
0.000358089
0.000321555
0.000281321
0.000238676
0.000194823
0.000156504
0.000117362
8.62327e-05
6.14652e-05
4.97151e-05
5.39859e-05
6.06806e-05
6.82671e-05
8.86997e-05
0.00030753
0.00030857
0.000309683
0.000310873
0.000312144
0.000313504
0.000314959
0.000316515
0.00031818
0.000319962
0.000321871
0.000323914
0.000326102
0.000328446
0.000330955
0.00033364
0.000336513
0.000339586
0.00034287
0.000346377
0.000350118
0.000354104
0.000358346
0.000362852
0.00036763
0.000372687
0.000378026
0.000383648
0.00038955
0.000395723
0.000402155
0.000408824
0.000415702
0.00042275
0.000429915
0.000437133
0.00044432
0.000451377
0.000458182
0.000464587
0.000470421
0.000475486
0.000479552
0.000482361
0.000483627
0.000483017
0.000480247
0.000474831
0.000466645
0.000454972
0.00044004
0.000420711
0.000398091
0.00037089
0.000339456
0.000302919
0.000259945
0.000221826
0.000179899
0.000141939
0.000108727
7.84384e-05
5.64522e-05
4.57244e-05
4.8431e-05
5.46083e-05
6.08971e-05
7.86472e-05
0.000101124
0.000348245
0.000349966
0.000351787
0.000353709
0.000355737
0.000357873
0.000360122
0.000362487
0.000364973
0.000367583
0.000370321
0.000373191
0.000376197
0.000379343
0.00038263
0.000386064
0.000389645
0.000393377
0.000397261
0.000401297
0.000405488
0.000409831
0.000414324
0.000418965
0.000423747
0.000428663
0.000433703
0.000438851
0.000444089
0.000449393
0.000454734
0.000460072
0.000465361
0.000470541
0.000475544
0.000480284
0.00048466
0.000488554
0.000491827
0.000494318
0.000495845
0.000496205
0.000495164
0.000492478
0.000487866
0.00048103
0.000471763
0.000459509
0.000444561
0.000425789
0.000404236
0.000378142
0.000350188
0.000314284
0.000276857
0.000237974
0.000197708
0.000163211
0.000125102
9.58651e-05
7.04316e-05
4.97064e-05
4.15584e-05
4.33496e-05
4.88432e-05
5.42465e-05
6.96517e-05
8.98847e-05
0.000119483
0.000410132
0.000412442
0.000414831
0.000417295
0.000419834
0.000422444
0.000425125
0.000427875
0.000430692
0.000433576
0.000436524
0.000439534
0.000442605
0.000445732
0.000448915
0.000452148
0.00045543
0.000458755
0.000462119
0.000465517
0.000468943
0.000472388
0.000475846
0.000479304
0.00048275
0.000486168
0.00048954
0.000492842
0.000496046
0.00049912
0.000502022
0.000504703
0.000507105
0.000509158
0.00051078
0.000511874
0.000512331
0.000512021
0.000510797
0.000508493
0.000504927
0.000499902
0.000493187
0.000484576
0.000473774
0.000460613
0.000444919
0.000426073
0.000405135
0.000379837
0.000352997
0.000318829
0.000284558
0.000245592
0.000210731
0.000173288
0.000139699
0.000109066
8.01802e-05
6.06859e-05
4.25915e-05
3.7222e-05
3.86269e-05
4.33391e-05
4.81943e-05
6.23945e-05
8.05669e-05
0.000106608
0.000141926
0.000492202
0.000494169
0.000496144
0.000498124
0.000500105
0.000502084
0.000504057
0.000506024
0.000507985
0.000509934
0.000511867
0.000513778
0.000515662
0.000517514
0.000519327
0.000521096
0.000522816
0.00052448
0.00052608
0.000527607
0.000529053
0.000530406
0.000531652
0.000532776
0.00053376
0.000534584
0.000535222
0.000535646
0.000535822
0.000535709
0.00053526
0.000534417
0.000533114
0.000531274
0.000528808
0.000525612
0.000521571
0.000516547
0.000510385
0.000502932
0.000494013
0.000483446
0.000471007
0.000456575
0.000439786
0.000420873
0.00039934
0.000374966
0.000348012
0.000315302
0.000282575
0.000246476
0.000213537
0.000177468
0.000147291
0.000114733
8.96186e-05
6.58036e-05
4.8672e-05
3.55392e-05
3.27073e-05
3.45553e-05
3.82566e-05
4.27808e-05
5.62187e-05
7.31342e-05
9.63778e-05
0.000126665
0.000162399
0.000576112
0.000576703
0.00057724
0.00057772
0.000578138
0.000578491
0.000578775
0.000578987
0.000579123
0.000579179
0.00057915
0.000579032
0.000578819
0.000578506
0.000578086
0.000577555
0.000576908
0.000576134
0.000575223
0.000574163
0.000572941
0.000571542
0.000569948
0.000568133
0.000566081
0.000563769
0.000561169
0.000558244
0.000554961
0.000551268
0.000547114
0.000542437
0.000537166
0.000531218
0.000524498
0.000516902
0.000508302
0.000498553
0.000487496
0.00047504
0.000461011
0.00044525
0.000427551
0.000407954
0.000386
0.000362187
0.000333625
0.00030333
0.000271674
0.000238502
0.000207204
0.000174634
0.000145624
0.000115761
9.16006e-05
6.84581e-05
5.17271e-05
3.72858e-05
2.97757e-05
2.85976e-05
3.04029e-05
3.23854e-05
3.75894e-05
4.99273e-05
6.65022e-05
8.78109e-05
0.000113974
0.000143506
0.000174449
0.000637918
0.000636715
0.000635408
0.000633992
0.000632469
0.000630836
0.000629089
0.000627227
0.000625244
0.000623136
0.000620899
0.000618527
0.000616014
0.000613354
0.000610538
0.00060756
0.000604411
0.000601081
0.000597558
0.000593822
0.000589858
0.000585651
0.000581173
0.000576364
0.000571268
0.000565851
0.000560079
0.000553878
0.000547268
0.00054013
0.000532455
0.000524158
0.000515171
0.000505402
0.000494752
0.000483122
0.000470347
0.000456263
0.000440775
0.000424036
0.000405674
0.000385605
0.000362703
0.00033734
0.000309934
0.000281345
0.000251047
0.000221717
0.000192189
0.000163295
0.000136276
0.000109853
8.72795e-05
6.65423e-05
5.05794e-05
3.70457e-05
2.81583e-05
2.4148e-05
2.44309e-05
2.49407e-05
2.66828e-05
3.26762e-05
4.53854e-05
6.14596e-05
8.0528e-05
0.000102492
0.000126318
0.000150608
0.000174202
0.000658981
0.000656108
0.000653083
0.000649909
0.000646613
0.000643188
0.00063963
0.00063593
0.000632084
0.000628086
0.000623928
0.000619605
0.000615108
0.00061043
0.000605562
0.000600494
0.000595217
0.000589719
0.000583986
0.000578006
0.000571762
0.000565235
0.000558403
0.000551237
0.000543715
0.000535783
0.00052745
0.000518402
0.000509271
0.000499121
0.000488665
0.000477418
0.000465436
0.000452575
0.000438751
0.000423876
0.000407588
0.000389837
0.000370303
0.000349151
0.000326128
0.000301306
0.000275151
0.000248653
0.000221481
0.000195321
0.0001682
0.000143854
0.000118815
9.71466e-05
7.70667e-05
5.95091e-05
4.54379e-05
3.37363e-05
2.53994e-05
2.10554e-05
1.95726e-05
1.93637e-05
1.9305e-05
2.05851e-05
2.85607e-05
4.13764e-05
5.64886e-05
7.33581e-05
9.12849e-05
0.000109706
0.0001278
0.000145023
0.000161302
0.000627681
0.000623695
0.000619571
0.000615303
0.000610889
0.000606327
0.000601611
0.000596737
0.000591699
0.000586492
0.000581109
0.000575543
0.000569786
0.000563829
0.000557664
0.00055128
0.000544666
0.000537811
0.0005307
0.00052332
0.00051565
0.000507668
0.000499353
0.000490682
0.000481625
0.000472145
0.000462196
0.000451715
0.000440669
0.000428968
0.000416538
0.000403175
0.000388786
0.0003732
0.000356279
0.000338112
0.000318464
0.00029756
0.000275574
0.000253073
0.000229783
0.000206229
0.000182711
0.000159332
0.000136798
0.000115568
9.5534e-05
7.83482e-05
6.15173e-05
4.87467e-05
3.66767e-05
2.76643e-05
2.11522e-05
1.71173e-05
1.56145e-05
1.37119e-05
1.29325e-05
1.21567e-05
1.69743e-05
2.6759e-05
3.84226e-05
5.14919e-05
6.52031e-05
7.89596e-05
9.22369e-05
0.000104779
0.000116255
0.00012688
0.000137067
0.000538948
0.000534666
0.000530248
0.00052569
0.000520989
0.000516143
0.000511146
0.000505995
0.000500685
0.000495209
0.000489563
0.000483737
0.000477727
0.000471523
0.000465117
0.000458498
0.000451657
0.00044458
0.000437253
0.000429657
0.000421769
0.00041355
0.000404976
0.000395985
0.00038651
0.000376486
0.000365839
0.000354495
0.000342372
0.000329398
0.000315482
0.000300751
0.000285082
0.000268588
0.000251026
0.000232885
0.00021363
0.000194416
0.00017422
0.000154682
0.000134918
0.00011632
9.87e-05
8.23554e-05
6.80543e-05
5.49934e-05
4.43627e-05
3.43651e-05
2.63038e-05
1.98641e-05
1.54889e-05
1.28859e-05
1.04628e-05
9.0065e-06
7.03192e-06
6.73397e-06
1.00635e-05
1.66435e-05
2.46658e-05
3.39167e-05
4.38933e-05
5.38386e-05
6.3123e-05
7.16576e-05
7.92815e-05
8.61046e-05
9.2386e-05
9.82347e-05
0.000104105
0.000394819
0.000391154
0.00038739
0.000383522
0.000379549
0.000375464
0.000371264
0.000366945
0.0003625
0.000357924
0.000353213
0.000348358
0.000343354
0.000338192
0.000332867
0.000327364
0.000321682
0.000315803
0.000309705
0.000303359
0.00029672
0.000289643
0.000282068
0.000273957
0.000265265
0.000255952
0.000245972
0.000235294
0.000223876
0.000211738
0.000198832
0.000185282
0.00017098
0.000156388
0.000141178
0.000126354
0.000111124
9.71635e-05
8.30718e-05
7.09144e-05
5.90201e-05
4.92112e-05
4.00797e-05
3.26779e-05
2.61426e-05
2.08517e-05
1.58383e-05
1.19601e-05
9.49259e-06
7.48879e-06
5.65139e-06
4.21815e-06
3.42589e-06
3.54838e-06
5.7647e-06
9.0628e-06
1.31175e-05
1.86183e-05
2.46306e-05
3.04525e-05
3.59812e-05
4.11736e-05
4.59862e-05
5.0143e-05
5.3586e-05
5.65001e-05
5.91031e-05
6.18383e-05
6.51605e-05
0.000218668
0.000216447
0.000214166
0.000211822
0.000209417
0.000206946
0.000204407
0.000201797
0.000199113
0.000196349
0.000193505
0.000190569
0.000187546
0.000184414
0.000181193
0.000177834
0.000174393
0.000170782
0.000166959
0.000162831
0.000158206
0.000153095
0.000147463
0.000141296
0.000134583
0.000127342
0.000119591
0.000111404
0.000102832
9.40315e-05
8.50646e-05
7.61997e-05
6.74461e-05
5.91885e-05
5.12916e-05
4.42252e-05
3.76346e-05
3.20001e-05
2.66366e-05
2.23191e-05
1.81706e-05
1.50301e-05
1.18586e-05
9.40326e-06
7.00041e-06
5.24158e-06
3.85505e-06
2.94033e-06
2.26572e-06
1.71426e-06
1.50938e-06
1.61394e-06
2.26204e-06
3.28192e-06
4.6237e-06
5.93866e-06
7.55625e-06
9.41014e-06
1.14407e-05
1.35682e-05
1.56497e-05
1.75522e-05
1.91377e-05
2.03731e-05
2.13439e-05
2.21472e-05
2.29928e-05
2.41994e-05
2.61876e-05
6.57837e-05
6.50247e-05
6.42478e-05
6.34528e-05
6.26391e-05
6.18047e-05
6.095e-05
6.00713e-05
5.91716e-05
5.82427e-05
5.7294e-05
5.63054e-05
5.53048e-05
5.42408e-05
5.31899e-05
5.20202e-05
5.09322e-05
4.95071e-05
4.77577e-05
4.57289e-05
4.34854e-05
4.10803e-05
3.85603e-05
3.59779e-05
3.33749e-05
3.07965e-05
2.82732e-05
2.58372e-05
2.35062e-05
2.12962e-05
1.92134e-05
1.72559e-05
1.54224e-05
1.36942e-05
1.20669e-05
1.05094e-05
9.01864e-06
7.57908e-06
6.27401e-06
4.98638e-06
3.83716e-06
2.73785e-06
1.91216e-06
1.35585e-06
9.67724e-07
7.55669e-07
6.37271e-07
5.55669e-07
4.5601e-07
3.77336e-07
3.48217e-07
3.48415e-07
3.58741e-07
4.06175e-07
4.8381e-07
5.866e-07
7.24491e-07
8.9849e-07
1.10169e-06
1.32219e-06
1.5428e-06
1.74466e-06
1.91157e-06
2.03693e-06
2.12521e-06
2.19753e-06
2.28536e-06
2.44609e-06
2.81055e-06
6.20649e-06
6.27781e-06
6.34901e-06
6.41989e-06
6.49005e-06
6.55954e-06
6.62764e-06
6.69497e-06
6.76002e-06
6.8242e-06
6.88495e-06
6.94477e-06
6.99961e-06
7.05366e-06
7.10018e-06
7.14733e-06
7.17858e-06
7.20207e-06
7.22949e-06
7.24927e-06
7.25862e-06
7.25575e-06
7.23838e-06
7.204e-06
7.14972e-06
7.07229e-06
6.96798e-06
6.83248e-06
6.66091e-06
6.44762e-06
6.18634e-06
5.86994e-06
5.49103e-06
5.04177e-06
4.51553e-06
3.90788e-06
3.22096e-06
2.4692e-06
1.6912e-06
9.6502e-07
4.17458e-07
1.35344e-07
7.88165e-08
7.987e-08
7.82109e-08
6.85121e-08
5.80198e-08
4.5193e-08
3.43008e-08
2.86527e-08
2.55185e-08
2.26424e-08
2.06584e-08
1.98974e-08
1.98542e-08
2.04842e-08
2.16328e-08
2.30775e-08
2.45895e-08
2.59299e-08
2.68752e-08
2.72143e-08
2.70065e-08
2.62528e-08
2.51312e-08
2.39257e-08
2.29475e-08
2.23287e-08
2.14277e-08
0.000171612
0.000171584
0.000171542
0.000171476
0.000171464
0.000171419
0.000171419
0.000171289
0.000171201
0.000171093
0.000171041
0.000171002
0.00017106
0.000171106
0.000170987
0.000170791
0.000170733
0.000170712
0.000170705
0.000170564
0.000170555
0.000170696
0.0001706
0.000170602
0.000170489
0.000170338
0.000170412
0.000170443
0.000170489
0.000170499
0.000170439
0.000170506
0.000170553
0.000170547
0.000170608
0.000170569
0.000170638
0.000170719
0.000170769
0.000170959
0.000170834
0.000170903
0.000170915
0.000170944
0.000171067
0.000171045
0.00017103
0.000171124
0.000171244
0.000171356
0.000171437
0.000171613
0.000171733
0.000171822
0.00017193
0.000172022
0.000172107
0.000172183
0.000172265
0.000173331
0.000173286
0.000173242
0.000173194
0.000173176
0.000173096
0.000173023
0.00017292
0.000172892
0.000172868
0.00017285
0.000172812
0.000172798
0.000172676
0.000172484
0.000172429
0.000172409
0.000172386
0.000172268
0.000172195
0.000172235
0.000172287
0.000172176
0.000172185
0.000172031
0.00017194
0.000171995
0.000172049
0.000172045
0.000172037
0.000172029
0.000172083
0.00017212
0.000172103
0.000172192
0.000172191
0.000172215
0.000172309
0.000172368
0.000172551
0.000172544
0.000172565
0.000172578
0.000172599
0.000172709
0.000172741
0.000172742
0.000172779
0.000172882
0.000173009
0.000173115
0.000173255
0.000173403
0.000173513
0.000173631
0.000173734
0.00017383
0.000173923
0.00017401
0.000175438
0.000175377
0.000175317
0.000175247
0.000175178
0.00017509
0.000175042
0.000175025
0.000174976
0.000174911
0.000174818
0.000174741
0.00017465
0.000174508
0.000174379
0.000174388
0.000174362
0.000174232
0.00017413
0.000174127
0.000174158
0.00017414
0.000174034
0.000174032
0.000173862
0.000173797
0.000173849
0.000173912
0.000173874
0.000173856
0.000173886
0.000173926
0.000173957
0.00017394
0.000174042
0.000174063
0.000174076
0.000174163
0.000174222
0.000174407
0.00017449
0.000174537
0.000174565
0.000174591
0.000174653
0.000174741
0.000174752
0.000174798
0.000174845
0.000174941
0.000175051
0.000175174
0.000175322
0.000175455
0.000175585
0.000175705
0.000175816
0.000175924
0.000176021
0.000177752
0.000177663
0.000177579
0.000177519
0.000177438
0.000177382
0.00017734
0.0001773
0.000177247
0.000177165
0.000177084
0.000176962
0.000176822
0.000176723
0.00017666
0.000176661
0.000176526
0.000176398
0.000176337
0.000176364
0.000176381
0.0001763
0.000176198
0.000176168
0.000175997
0.000175968
0.000176008
0.000176067
0.000176007
0.000175987
0.000176037
0.000176066
0.000176097
0.000176086
0.000176192
0.000176235
0.000176248
0.000176326
0.00017638
0.000176555
0.000176683
0.000176787
0.000176853
0.00017692
0.000176971
0.000177058
0.000177126
0.000177183
0.000177215
0.000177274
0.000177358
0.000177459
0.000177581
0.000177711
0.000177842
0.000177972
0.000178095
0.000178216
0.000178325
0.000180435
0.000180342
0.000180263
0.000180228
0.000180163
0.000180104
0.000180034
0.000179989
0.000179874
0.0001798
0.000179661
0.000179524
0.000179389
0.000179346
0.000179268
0.000179215
0.000179046
0.000178959
0.000178954
0.000178967
0.00017892
0.000178817
0.000178717
0.000178658
0.000178495
0.000178488
0.000178518
0.000178566
0.000178492
0.000178472
0.000178532
0.000178555
0.000178587
0.000178583
0.000178687
0.000178762
0.000178782
0.000178859
0.000178901
0.000179057
0.000179214
0.000179347
0.000179445
0.000179543
0.000179617
0.000179703
0.000179792
0.000179877
0.000179945
0.000180012
0.000180087
0.000180174
0.000180275
0.000180388
0.000180508
0.000180633
0.000180756
0.000180881
0.000180996
0.000183692
0.000183608
0.00018354
0.000183467
0.000183387
0.000183304
0.000183205
0.000183102
0.000182967
0.000182843
0.000182702
0.00018258
0.000182477
0.000182407
0.000182299
0.000182192
0.000182046
0.000182003
0.000181998
0.000181948
0.000181887
0.000181754
0.000181653
0.000181569
0.00018142
0.000181425
0.000181446
0.000181477
0.000181397
0.000181377
0.00018144
0.00018146
0.000181495
0.000181496
0.000181595
0.000181692
0.000181729
0.000181812
0.000181854
0.000181987
0.000182155
0.000182316
0.000182444
0.00018257
0.000182678
0.000182779
0.000182882
0.000182987
0.000183086
0.000183177
0.000183267
0.000183359
0.000183456
0.000183561
0.000183672
0.000183789
0.000183906
0.000184029
0.000184144
0.000187492
0.000187392
0.000187303
0.0001872
0.000187093
0.000186977
0.00018685
0.000186716
0.000186572
0.000186436
0.000186303
0.000186185
0.000186074
0.000185964
0.000185828
0.000185701
0.000185584
0.000185546
0.000185527
0.000185449
0.000185346
0.000185197
0.00018509
0.000184983
0.000184853
0.00018486
0.000184871
0.000184885
0.000184801
0.000184781
0.000184844
0.000184863
0.000184899
0.000184907
0.000185
0.000185113
0.000185173
0.000185264
0.000185317
0.000185431
0.000185596
0.000185776
0.000185934
0.000186087
0.000186228
0.000186357
0.000186482
0.000186606
0.000186727
0.000186844
0.000186956
0.000187067
0.000187177
0.000187289
0.000187402
0.000187519
0.000187636
0.000187758
0.000187873
0.000191899
0.000191775
0.000191662
0.000191535
0.000191404
0.000191265
0.000191121
0.000190973
0.000190825
0.000190682
0.000190543
0.000190408
0.000190271
0.00019013
0.000189982
0.000189857
0.00018976
0.000189713
0.000189656
0.000189541
0.0001894
0.000189242
0.000189124
0.000189002
0.000188888
0.000188893
0.000188891
0.000188887
0.000188801
0.000188781
0.00018884
0.00018886
0.000188896