/*--------------------------------*- C++ -*----------------------------------*\
| =========                 |                                                 |
| \\      /  F ield         | OpenFOAM: The Open Source CFD Toolbox           |
|  \\    /   O peration     | Version:  2312                                  |
|   \\  /    A nd           | Website:  www.openfoam.com                      |
|    \\/     M anipulation  |                                                 |
\*---------------------------------------------------------------------------*/
FoamFile
{
    version     2.0;
    format      ascii;
    arch        "LSB;label=32;scalar=64";
    class       volScalarField;
    location    "200";
    object      omega;
}
// * * * * * * * * * * * * * * * * * * * * * * * * * * * * * * * * * * * * * //

dimensions      [0 0 -1 0 0 0 0];

internalField   nonuniform List<scalar> 
76025
(
0.0295922
0.0295911
0.0295924
0.0295881
0.0295886
0.029593
0.0295943
0.029602
0.0296044
0.0296101
0.0296157
0.0296225
0.0296341
0.0296422
0.0296564
0.0296686
0.0296842
0.0297022
0.0297182
0.0297377
0.0297592
0.029785
0.0298082
0.0298357
0.0298664
0.0298968
0.0299355
0.0299663
0.0300113
0.0300479
0.0300921
0.0301384
0.030192
0.0302503
0.0303128
0.0303798
0.0304577
0.0305403
0.0306338
0.0307349
0.0308472
0.030979
0.0311196
0.0312833
0.0314632
0.0316757
0.0319003
0.0321628
0.0324649
0.0327959
0.0331878
0.0336234
0.0341404
0.0346956
0.0354357
0.0362173
0.0372155
0.0384116
0.0399032
0.0417364
0.0438947
0.0466994
0.0502374
0.0547161
0.0605261
0.0678252
0.0765169
0.0906999
0.104948
0.0298869
0.029892
0.0298966
0.0299009
0.0299022
0.0299077
0.0299111
0.0299175
0.0299237
0.0299304
0.0299377
0.0299455
0.029956
0.0299661
0.0299809
0.0299942
0.0300116
0.0300291
0.0300494
0.0300701
0.0300933
0.030119
0.0301468
0.0301764
0.0302104
0.0302441
0.0302837
0.0303246
0.0303701
0.0304196
0.0304742
0.0305301
0.0305943
0.030662
0.0307375
0.0308202
0.03091
0.0310109
0.0311219
0.0312446
0.0313826
0.0315334
0.0317057
0.0318954
0.0321106
0.0323487
0.0326178
0.032922
0.0332624
0.033653
0.0340924
0.0346071
0.0351923
0.0359036
0.0367272
0.0377357
0.0389525
0.0404364
0.0422401
0.0444198
0.0471168
0.050432
0.0545459
0.0596956
0.0663844
0.0748859
0.0857949
0.102518
0.119469
0.0302259
0.0302344
0.0302427
0.0302519
0.0302593
0.0302677
0.0302755
0.0302841
0.0302935
0.0303033
0.0303138
0.0303247
0.0303371
0.0303497
0.0303653
0.0303815
0.0304003
0.0304205
0.030443
0.0304672
0.0304937
0.0305223
0.0305538
0.0305877
0.0306254
0.0306656
0.0307099
0.0307577
0.0308102
0.0308671
0.0309297
0.0309974
0.0310717
0.0311528
0.0312418
0.0313393
0.0314464
0.0315647
0.0316949
0.0318388
0.0319982
0.0321753
0.0323722
0.0325915
0.0328362
0.0331099
0.0334182
0.0337649
0.0341597
0.0346089
0.0351296
0.0357317
0.0364448
0.0372851
0.0382946
0.0395064
0.0409671
0.0427275
0.044847
0.0474214
0.0505546
0.054438
0.0592637
0.065395
0.07335
0.0831898
0.096542
0.115664
0.135239
0.0306197
0.0306306
0.0306416
0.0306534
0.0306652
0.0306774
0.0306897
0.0307024
0.0307156
0.0307293
0.0307439
0.030759
0.0307752
0.0307922
0.0308107
0.0308306
0.0308525
0.0308762
0.0309021
0.0309302
0.0309608
0.030994
0.0310302
0.0310694
0.0311124
0.0311592
0.0312102
0.0312657
0.0313263
0.0313923
0.0314646
0.0315434
0.0316295
0.0317237
0.0318268
0.0319399
0.032064
0.0322006
0.0323508
0.0325168
0.0327005
0.0329044
0.033131
0.0333838
0.0336664
0.033984
0.0343421
0.0347491
0.0352137
0.0357499
0.0363722
0.0371027
0.0379653
0.0389915
0.0402172
0.0416817
0.0434337
0.0455267
0.0480423
0.0510767
0.054791
0.0593833
0.0650812
0.07238
0.0816596
0.0932514
0.109828
0.131414
0.156136
0.0310787
0.0310919
0.0311054
0.0311196
0.0311343
0.0311497
0.0311657
0.0311822
0.0311995
0.0312175
0.0312363
0.031256
0.0312767
0.0312986
0.0313218
0.0313465
0.0313729
0.0314014
0.0314321
0.0314652
0.031501
0.0315398
0.0315818
0.0316276
0.0316774
0.0317315
0.0317905
0.0318548
0.0319248
0.0320012
0.0320846
0.0321756
0.032275
0.0323838
0.0325029
0.0326335
0.0327767
0.0329344
0.033108
0.0332998
0.0335125
0.0337487
0.0340119
0.0343063
0.0346369
0.0350101
0.0354339
0.0359183
0.0364763
0.037124
0.0378816
0.038773
0.0398274
0.0410765
0.0425582
0.0443128
0.0463939
0.0488676
0.051831
0.0554104
0.0598021
0.0652132
0.0719715
0.0806673
0.0915336
0.105634
0.126005
0.150318
0.183461
0.0316197
0.0316343
0.0316498
0.031666
0.0316831
0.0317012
0.0317202
0.0317401
0.031761
0.0317828
0.0318058
0.03183
0.0318554
0.0318822
0.0319105
0.0319406
0.0319726
0.0320067
0.0320432
0.0320824
0.0321247
0.0321701
0.0322193
0.0322726
0.0323305
0.0323934
0.0324618
0.0325362
0.0326172
0.0327055
0.0328018
0.032907
0.0330219
0.0331476
0.0332853
0.0334364
0.0336024
0.0337853
0.0339869
0.0342103
0.0344584
0.034735
0.0350444
0.0353921
0.0357849
0.0362312
0.0367417
0.0373294
0.0380106
0.0388049
0.0397353
0.0408283
0.0421136
0.0436238
0.0453983
0.0474819
0.0499413
0.0528592
0.0563576
0.0605959
0.0658023
0.0722127
0.080311
0.0906815
0.103552
0.12118
0.145718
0.173957
0.221941
0.0322621
0.0322774
0.032294
0.0323118
0.0323307
0.032351
0.0323725
0.0323953
0.0324194
0.0324448
0.0324717
0.0325
0.03253
0.0325617
0.0325952
0.0326309
0.0326688
0.0327091
0.0327522
0.0327984
0.0328479
0.0329012
0.0329588
0.0330211
0.0330886
0.0331618
0.0332412
0.0333276
0.0334217
0.0335241
0.0336359
0.0337579
0.0338914
0.0340375
0.0341978
0.034374
0.0345679
0.034782
0.0350188
0.0352819
0.0355755
0.0359042
0.0362741
0.0366924
0.0371681
0.0377123
0.0383383
0.0390623
0.0399031
0.0408824
0.0420245
0.0433559
0.0449068
0.0467119
0.0488162
0.0512764
0.0541781
0.0576249
0.0617687
0.0668096
0.0730016
0.0806624
0.0904545
0.102831
0.118473
0.140871
0.169749
0.205704
0.279402
0.0330262
0.0330423
0.0330599
0.0330789
0.0330995
0.0331216
0.0331454
0.0331708
0.0331978
0.0332266
0.0332572
0.0332897
0.0333241
0.0333608
0.0333997
0.0334411
0.0334852
0.0335323
0.0335826
0.0336365
0.0336944
0.0337567
0.033824
0.0338968
0.0339755
0.0340609
0.0341536
0.0342544
0.0343641
0.0344836
0.0346141
0.0347569
0.0349131
0.0350845
0.0352729
0.0354806
0.0357099
0.0359639
0.0362462
0.0365614
0.0369149
0.0373133
0.0377643
0.0382776
0.0388644
0.0395384
0.0403152
0.0412126
0.0422508
0.0434514
0.0448387
0.0464398
0.0482877
0.0504245
0.0529068
0.0558103
0.0592429
0.0633317
0.0682706
0.0743029
0.0817161
0.0909985
0.102923
0.117806
0.137539
0.165849
0.199918
0.252737
0.371801
0.0339333
0.0339513
0.0339708
0.0339917
0.0340142
0.0340386
0.0340649
0.0340931
0.0341232
0.0341555
0.03419
0.0342267
0.034266
0.0343078
0.0343525
0.0344002
0.0344511
0.0345056
0.0345639
0.0346266
0.0346941
0.0347669
0.0348456
0.0349307
0.0350228
0.0351228
0.0352315
0.0353497
0.0354786
0.0356193
0.0357732
0.0359417
0.0361268
0.0363304
0.0365551
0.0368036
0.0370793
0.0373864
0.0377297
0.038115
0.0385499
0.0390426
0.0396031
0.040243
0.0409754
0.0418154
0.0427794
0.0438853
0.045153
0.0466038
0.048264
0.0501642
0.0523466
0.0548662
0.0577966
0.0612382
0.0653217
0.070207
0.076146
0.0834213
0.0923985
0.103832
0.118415
0.13672
0.162471
0.197482
0.24107
0.325156
0.517923
0.0350095
0.0350307
0.0350534
0.0350774
0.0351032
0.0351309
0.0351606
0.0351924
0.0352265
0.035263
0.0353021
0.0353439
0.0353887
0.0354366
0.0354878
0.0355427
0.0356015
0.0356645
0.0357323
0.0358054
0.0358844
0.0359697
0.036062
0.036162
0.0362706
0.0363886
0.036517
0.0366572
0.0368103
0.0369779
0.0371619
0.0373641
0.037587
0.0378334
0.0381065
0.0384104
0.0387494
0.0391292
0.0395561
0.0400374
0.0405825
0.0412014
0.0419053
0.0427068
0.0436195
0.0446583
0.0458392
0.0471798
0.0487006
0.050426
0.0523884
0.0546278
0.0572017
0.0601811
0.0636622
0.0677739
0.0726723
0.0785712
0.0857943
0.0946596
0.105722
0.12002
0.137963
0.161449
0.195455
0.238584
0.303288
0.445925
0.701284
0.0362884
0.0363145
0.0363419
0.0363707
0.0364013
0.0364338
0.0364685
0.0365055
0.0365451
0.0365873
0.0366324
0.0366808
0.0367325
0.0367879
0.0368473
0.0369111
0.0369796
0.0370534
0.0371331
0.0372192
0.0373124
0.0374133
0.0375228
0.0376418
0.0377714
0.0379126
0.038067
0.0382359
0.0384212
0.038625
0.0388496
0.0390978
0.0393728
0.0396785
0.0400192
0.0403999
0.0408268
0.0413065
0.0418467
0.0424562
0.0431446
0.0439228
0.0448021
0.0457946
0.0469135
0.0481733
0.0495905
0.0511852
0.0529824
0.0550148
0.0573259
0.0599696
0.0630235
0.0665754
0.0707536
0.075719
0.0816622
0.0888888
0.0977905
0.108747
0.122694
0.140763
0.163283
0.195013
0.239237
0.296429
0.40435
0.641268
0.873362
0.0378165
0.0378486
0.0378824
0.0379177
0.0379549
0.0379943
0.038036
0.0380802
0.0381273
0.0381775
0.038231
0.0382882
0.0383494
0.038415
0.0384853
0.038561
0.0386427
0.038731
0.0388264
0.0389298
0.039042
0.039164
0.0392968
0.0394416
0.0395999
0.0397733
0.0399635
0.0401728
0.0404034
0.0406583
0.0409407
0.0412541
0.0416029
0.0419919
0.0424265
0.0429128
0.0434576
0.0440683
0.044753
0.0455205
0.0463799
0.0473416
0.0484165
0.0496167
0.050956
0.0524511
0.0541229
0.0559984
0.0581118
0.0605084
0.063246
0.066396
0.0700607
0.0743461
0.0794321
0.0855086
0.0928306
0.101847
0.112975
0.1268
0.14482
0.167836
0.197561
0.241573
0.298799
0.388008
0.580482
0.859242
0.974292
0.0396575
0.0396974
0.0397392
0.0397829
0.0398289
0.0398775
0.0399288
0.0399832
0.0400409
0.0401022
0.0401676
0.0402374
0.0403121
0.0403922
0.0404785
0.0405717
0.0406723
0.0407813
0.0408995
0.0410279
0.0411677
0.0413202
0.041487
0.0416696
0.04187
0.0420904
0.0423332
0.0426013
0.0428978
0.0432262
0.0435906
0.0439954
0.0444455
0.0449462
0.0455034
0.0461232
0.0468124
0.047578
0.0484277
0.0493696
0.0504128
0.0515676
0.0528462
0.0542635
0.0558374
0.0575912
0.0595537
0.0617629
0.0642646
0.0671209
0.0704052
0.0742132
0.0786774
0.0839276
0.0902301
0.0977834
0.106991
0.118476
0.132611
0.150576
0.174342
0.204369
0.246225
0.306474
0.387564
0.547866
0.831238
1.00474
1.01576
0.0419018
0.0419517
0.0420042
0.0420594
0.0421175
0.042179
0.0422439
0.0423128
0.042386
0.0424639
0.0425469
0.0426359
0.0427315
0.0428344
0.0429454
0.0430654
0.0431953
0.0433363
0.0434896
0.0436566
0.0438388
0.0440382
0.0442565
0.044496
0.0447591
0.0450486
0.0453673
0.0457187
0.0461064
0.0465341
0.0470061
0.047527
0.0481014
0.0487346
0.0494319
0.0501991
0.0510426
0.0519692
0.052987
0.0541051
0.0553345
0.0566886
0.0581838
0.059841
0.0616858
0.0637509
0.0660755
0.0687115
0.0717181
0.0751797
0.0791873
0.0838757
0.089413
0.0959698
0.103952
0.113511
0.125413
0.140342
0.158669
0.182951
0.21491
0.256175
0.316979
0.400414
0.540137
0.810751
1.02739
1.06881
1.02309
0.044683
0.0447476
0.0448161
0.0448884
0.0449649
0.0450461
0.0451323
0.0452239
0.0453218
0.0454265
0.0455387
0.0456592
0.0457887
0.0459282
0.0460788
0.0462416
0.046418
0.0466092
0.0468169
0.0470429
0.0472888
0.0475569
0.0478493
0.0481685
0.048517
0.0488977
0.0493136
0.0497679
0.0502641
0.0508058
0.0513969
0.0520416
0.0527444
0.0535102
0.0543448
0.0552544
0.0562466
0.0573301
0.0585155
0.0598156
0.0612461
0.0628261
0.064579
0.0665338
0.0687253
0.0711974
0.0740022
0.0772093
0.080895
0.0851777
0.0901673
0.0960706
0.103085
0.111475
0.121841
0.134197
0.150128
0.169838
0.194542
0.228841
0.272729
0.333021
0.421563
0.554668
0.808747
1.05401
1.11786
1.08583
0.928062
0.0482126
0.048302
0.0483972
0.0484982
0.0486059
0.0487206
0.0488429
0.0489733
0.0491125
0.0492613
0.0494204
0.0495908
0.0497734
0.0499694
0.0501798
0.0504058
0.050649
0.0509106
0.0511924
0.0514959
0.0518229
0.0521755
0.0525557
0.0529657
0.0534079
0.0538849
0.0543995
0.0549547
0.0555539
0.0562008
0.0568996
0.0576551
0.0584728
0.0593592
0.0603217
0.0613695
0.0625132
0.0637655
0.0651415
0.0666597
0.0683419
0.0702143
0.0723089
0.0746642
0.0773268
0.0803553
0.0838188
0.0878125
0.0924364
0.0978664
0.104228
0.111869
0.120969
0.13205
0.145867
0.162291
0.184481
0.210965
0.246557
0.296205
0.358589
0.450602
0.588937
0.833197
1.09021
1.16747
1.14321
1.01054
0.713873
0.0528408
0.0529731
0.0531138
0.0532627
0.0534206
0.0535879
0.0537651
0.0539528
0.0541516
0.0543621
0.0545851
0.0548214
0.0550717
0.0553371
0.0556185
0.0559169
0.0562335
0.0565695
0.0569262
0.0573052
0.0577081
0.0581366
0.0585928
0.059079
0.0595977
0.0601517
0.0607445
0.0613798
0.062062
0.0627961
0.0635882
0.0644451
0.0653748
0.0663868
0.0674921
0.0687035
0.070036
0.0715074
0.0731386
0.0749544
0.076984
0.0792629
0.0818336
0.084748
0.0880691
0.0918779
0.0962684
0.101379
0.10734
0.114431
0.122773
0.133005
0.145132
0.160367
0.179216
0.202105
0.234277
0.270924
0.325895
0.397805
0.491798
0.64045
0.890378
1.1408
1.22073
1.1994
1.07765
0.783533
0.514695
0.0590834
0.0592715
0.0594691
0.0596762
0.0598929
0.0601195
0.0603564
0.060604
0.0608625
0.0611326
0.0614146
0.0617091
0.0620169
0.0623387
0.0626752
0.0630276
0.0633968
0.0637842
0.0641914
0.06462
0.065072
0.0655497
0.066056
0.0665938
0.0671668
0.0677793
0.068436
0.0691425
0.0699054
0.070732
0.0716309
0.072612
0.0736866
0.0748678
0.0761707
0.0776128
0.0792144
0.0809994
0.0829959
0.085237
0.0877627
0.0906209
0.0938708
0.0975842
0.101851
0.106787
0.112527
0.119283
0.127227
0.136825
0.14814
0.162402
0.179058
0.20109
0.227491
0.261915
0.309164
0.36303
0.451546
0.555592
0.709631
0.983595
1.20837
1.27757
1.25547
1.13213
0.832054
0.548615
0.36281
0.0674662
0.067694
0.0679308
0.0681762
0.0684301
0.0686927
0.0689641
0.0692445
0.0695344
0.0698341
0.0701444
0.0704658
0.0707991
0.0711454
0.0715058
0.0718816
0.0722744
0.0726862
0.0731191
0.0735758
0.0740592
0.0745728
0.0751206
0.0757072
0.0763378
0.0770185
0.0777562
0.0785589
0.0794355
0.0803963
0.0814532
0.0826195
0.0839106
0.0853441
0.0869403
0.0887231
0.0907198
0.0929632
0.0954918
0.0983518
0.1016
0.105304
0.109552
0.114446
0.120125
0.12676
0.134557
0.143853
0.154866
0.168429
0.184411
0.205233
0.229176
0.26291
0.301203
0.356606
0.424813
0.513816
0.654356
0.808944
1.11022
1.29514
1.33741
1.30976
1.17192
0.850635
0.561713
0.374598
0.267399
0.0783993
0.0786339
0.0788746
0.0791216
0.079375
0.0796355
0.0799034
0.0801798
0.0804661
0.0807629
0.0810709
0.0813911
0.0817248
0.0820734
0.0824386
0.0828226
0.0832278
0.0836572
0.084114
0.0846018
0.0851251
0.0856887
0.0862983
0.0869602
0.0876818
0.0884714
0.0893385
0.0902938
0.0913496
0.0925199
0.0938205
0.0952699
0.0968889
0.0987018
0.100737
0.103027
0.105612
0.108537
0.11186
0.115648
0.119986
0.124979
0.130761
0.137487
0.145393
0.154721
0.165833
0.179248
0.195288
0.215485
0.23936
0.271412
0.308088
0.361398
0.420041
0.510705
0.612
0.773123
0.976311
1.26588
1.39984
1.39946
1.35853
1.18951
0.832109
0.5489
0.371717
0.270169
0.212989
0.0924047
0.0926222
0.0928445
0.0930722
0.093306
0.0935468
0.0937958
0.0940539
0.0943226
0.0946034
0.094898
0.0952082
0.095536
0.095884
0.0962547
0.0966521
0.0970802
0.0975427
0.0980439
0.0985891
0.0991843
0.0998363
0.100553
0.101342
0.102215
0.103182
0.104257
0.105455
0.106791
0.108287
0.109963
0.111847
0.113967
0.116359
0.119065
0.122134
0.125624
0.129607
0.13417
0.139423
0.145504
0.152578
0.160875
0.170621
0.182284
0.196124
0.213024
0.233518
0.258555
0.290462
0.328495
0.379753
0.439254
0.524152
0.620948
0.765877
0.936958
1.2024
1.41441
1.48979
1.47784
1.39812
1.15493
0.774528
0.509337
0.353338
0.264438
0.213452
0.183765
0.110519
0.110712
0.110911
0.111117
0.111331
0.111554
0.111789
0.112036
0.112299
0.112578
0.112877
0.113198
0.113545
0.113921
0.114329
0.114775
0.115263
0.115799
0.11639
0.117045
0.117773
0.118581
0.119482
0.120487
0.121611
0.122869
0.124279
0.125863
0.127646
0.129657
0.131928
0.134499
0.137417
0.140735
0.14452
0.14885
0.153826
0.159559
0.166207
0.173949
0.183033
0.193739
0.20649
0.221662
0.240241
0.262295
0.290268
0.323385
0.365599
0.417756
0.481395
0.565329
0.665649
0.803572
0.967421
1.20346
1.45738
1.57789
1.57407
1.53648
1.39043
1.02828
0.660206
0.44394
0.322345
0.251512
0.209731
0.184924
0.170145
0.134772
0.134961
0.135158
0.135365
0.135585
0.13582
0.136071
0.136342
0.136636
0.136955
0.137303
0.137685
0.138104
0.138566
0.139076
0.139641
0.140268
0.140965
0.141741
0.142609
0.143581
0.144672
0.145896
0.147271
0.14882
0.150565
0.152536
0.154765
0.157293
0.160165
0.163435
0.16717
0.171447
0.176359
0.182028
0.188584
0.196226
0.20514
0.215661
0.228083
0.242926
0.260698
0.282207
0.308172
0.34038
0.378392
0.427774
0.482924
0.558238
0.643075
0.754668
0.893946
1.06683
1.28801
1.54494
1.67915
1.68197
1.65954
1.56042
1.26739
0.817083
0.527912
0.372911
0.285612
0.234166
0.203028
0.184287
0.173275
0.167049
0.169386
0.169622
0.169872
0.170141
0.170429
0.170741
0.17108
0.17145
0.171854
0.172298
0.172787
0.173326
0.173922
0.174584
0.175318
0.176134
0.177044
0.178059
0.179196
0.180468
0.181894
0.183495
0.185297
0.18733
0.18963
0.192239
0.195207
0.198591
0.202464
0.206907
0.212027
0.217942
0.224816
0.232818
0.242224
0.253248
0.266401
0.281908
0.300706
0.323055
0.350321
0.383201
0.423014
0.471543
0.529841
0.59961
0.685161
0.781057
0.915
1.05214
1.25548
1.47884
1.70887
1.82461
1.81899
1.78986
1.71392
1.42347
0.935886
0.586019
0.405454
0.307417
0.251286
0.217334
0.196523
0.183955
0.177138
0.174034
0.173278
0.224112
0.224508
0.224929
0.225379
0.225862
0.226385
0.226952
0.227569
0.228242
0.228978
0.229784
0.23067
0.231647
0.232727
0.233923
0.235248
0.236718
0.238349
0.240164
0.242189
0.244457
0.247012
0.249906
0.253201
0.256967
0.261292
0.266277
0.272046
0.278751
0.286569
0.295742
0.306516
0.31931
0.334411
0.352638
0.374126
0.400597
0.431538
0.470286
0.515123
0.570987
0.635878
0.713563
0.805791
0.909304
1.03536
1.16908
1.35447
1.56378
1.80549
1.97076
2.01325
2.00369
1.93233
1.83555
1.51844
0.976468
0.610209
0.42162
0.319681
0.263169
0.229676
0.209583
0.197288
0.190407
0.18723
0.186571
0.188089
0.191084
0.327165
0.327915
0.328712
0.329564
0.330477
0.331456
0.332509
0.333642
0.334865
0.336188
0.337622
0.339182
0.340882
0.342741
0.344777
0.347017
0.349478
0.352197
0.355221
0.358615
0.362472
0.366982
0.372268
0.378477
0.385783
0.394395
0.404571
0.416611
0.43092
0.447908
0.468262
0.492444
0.521753
0.55633
0.598927
0.648137
0.709896
0.778627
0.865961
0.958693
1.07602
1.19597
1.34283
1.49061
1.65961
1.83446
2.07741
2.26916
2.29712
2.27257
2.2106
2.10103
1.87734
1.44737
0.892551
0.612865
0.443119
0.34209
0.288365
0.258852
0.241223
0.229859
0.222281
0.218414
0.217736
0.21941
0.223014
0.227631
0.232529
0.571555
0.573213
0.574932
0.576721
0.578593
0.580564
0.582648
0.584862
0.587221
0.58975
0.59246
0.595394
0.59855
0.602014
0.605736
0.609905
0.614358
0.619437
0.62536
0.632521
0.641691
0.653079
0.667053
0.684027
0.70451
0.729059
0.758414
0.793296
0.834833
0.8838
0.942017
1.00983
1.09033
1.18212
1.29076
1.41025
1.55084
1.69715
1.86843
2.03231
2.22586
2.3865
2.5823
2.7042
2.88576
2.88158
2.7981
2.63407
2.43398
2.1925
1.74211
1.27821
0.87759
0.633849
0.496655
0.445807
0.412287
0.3897
0.372162
0.357779
0.347074
0.339962
0.336773
0.336951
0.339323
0.343622
0.348778
0.352764
0.352572
1.47992
1.48325
1.48667
1.49022
1.49391
1.49775
1.50175
1.50598
1.5104
1.51516
1.52009
1.52564
1.53119
1.53798
1.54415
1.55316
1.55958
1.5758
1.60225
1.63898
1.68566
1.74252
1.80996
1.88822
1.97779
2.07885
2.19189
2.3169
2.45415
2.60321
2.76376
2.93467
3.11433
3.30067
3.48982
3.67854
3.85936
4.02779
4.17159
4.28482
4.35028
4.33051
4.26629
4.0711
3.78227
3.21427
2.56883
1.99908
1.58762
1.36202
1.23933
1.17059
1.12108
1.099
1.08552
1.07659
1.06364
1.04667
1.02746
1.00809
0.990634
0.976636
0.967115
0.962284
0.962098
0.964452
0.968277
0.969689
0.952193
8.57577
8.56872
8.56075
8.55182
8.54188
8.53094
8.51891
8.50585
8.4916
8.47632
8.45973
8.4421
8.42301
8.4029
8.38113
8.35831
8.33388
8.30659
8.27909
8.25004
8.21916
8.18625
8.15111
8.11352
8.07325
8.03004
7.98357
7.93351
7.87946
7.82099
7.75762
7.68881
7.61405
7.5328
7.44471
7.34965
7.24814
7.14178
7.03434
6.93276
6.84769
6.78581
6.74303
6.70493
6.66668
6.62792
6.5893
6.55076
6.51272
6.47547
6.43886
6.40276
6.36727
6.33248
6.29841
6.26512
6.23264
6.20104
6.17034
6.14061
6.11188
6.08422
6.0577
6.03239
6.00838
5.98576
5.96463
5.94507
5.92712
0.0294525
0.0294598
0.0294677
0.0294739
0.0294815
0.0294846
0.0294868
0.0294804
0.0294782
0.0294737
0.0294735
0.0294916
0.0295228
0.0295415
0.0295476
0.0295301
0.02955
0.0295632
0.0295687
0.0295532
0.029555
0.0295777
0.0295665
0.0295725
0.0295624
0.0295504
0.0295751
0.0295857
0.0295928
0.0296028
0.029602
0.0296186
0.0296294
0.0296229
0.0296272
0.0296092
0.0296107
0.0296138
0.0296139
0.0296368
0.0296109
0.029613
0.0296028
0.0295861
0.0295903
0.0295785
0.0295629
0.0295464
0.0295489
0.0295524
0.0295546
0.0295689
0.0295751
0.0295774
0.0295824
0.0295857
0.0295882
0.0295906
0.0295932
0.0297584
0.0297596
0.0297591
0.0297581
0.0297516
0.0297498
0.0297457
0.029742
0.0297434
0.0297535
0.0297692
0.0297869
0.0297983
0.0298025
0.0297931
0.0297968
0.0298135
0.0298193
0.0298134
0.0298069
0.0298151
0.0298238
0.0298129
0.0298197
0.029805
0.0298
0.0298218
0.0298361
0.0298349
0.0298411
0.0298494
0.0298635
0.0298723
0.0298649
0.0298738
0.0298628
0.0298583
0.0298626
0.0298645
0.0298828
0.0298759
0.029874
0.0298669
0.0298568
0.0298496
0.0298448
0.0298366
0.0298285
0.0298248
0.0298263
0.0298285
0.0298371
0.0298483
0.0298538
0.0298614
0.0298671
0.029872
0.0298774
0.0298822
0.030082
0.0300785
0.0300763
0.0300748
0.030073
0.030075
0.0300741
0.0300741
0.0300877
0.030099
0.0301079
0.0301134
0.0301133
0.0301074
0.030108
0.0301157
0.0301234
0.0301201
0.03011
0.0301137
0.0301217
0.0301209
0.0301102
0.0301145
0.0300984
0.0300997
0.0301181
0.0301341
0.0301272
0.0301312
0.0301461
0.0301575
0.0301649
0.0301587
0.0301686
0.0301637
0.030158
0.0301601
0.0301617
0.0301817
0.0301831
0.0301829
0.0301799
0.0301756
0.0301687
0.0301648
0.0301592
0.0301532
0.0301519
0.0301522
0.0301549
0.0301603
0.0301709
0.0301798
0.030189
0.0301975
0.0302049
0.0302127
0.0302192
0.0304809
0.0304798
0.0304816
0.0304782
0.0304807
0.0304811
0.030482
0.0304847
0.0304887
0.0304913
0.0304875
0.0304855
0.0304853
0.0304788
0.0304836
0.0304875
0.030483
0.0304742
0.0304696
0.030477
0.0304816
0.0304737
0.0304639
0.0304651
0.0304492
0.0304547
0.0304705
0.0304856
0.0304754
0.0304784
0.0304968
0.0305061
0.0305132
0.0305089
0.0305195
0.0305188
0.030515
0.0305153
0.030515
0.0305337
0.030545
0.0305466
0.0305461
0.0305451
0.0305416
0.0305387
0.0305363
0.0305338
0.030535
0.0305361
0.0305393
0.0305439
0.0305522
0.0305617
0.0305719
0.0305824
0.0305922
0.0306024
0.030611
0.0309622
0.0309611
0.0309624
0.0309546
0.0309538
0.0309522
0.0309521
0.0309458
0.0309474
0.0309367
0.0309333
0.0309294
0.0309295
0.0309196
0.0309236
0.030916
0.0309074
0.0308992
0.0309009
0.0309054
0.0309061
0.0308909
0.0308823
0.0308798
0.030866
0.0308737
0.0308873
0.0309
0.0308881
0.0308907
0.0309104
0.0309185
0.0309258
0.0309233
0.0309344
0.030937
0.0309356
0.0309352
0.0309347
0.0309502
0.0309671
0.0309767
0.030981
0.0309848
0.0309859
0.0309862
0.0309867
0.0309873
0.0309889
0.0309909
0.0309943
0.0309991
0.0310059
0.0310146
0.0310245
0.0310354
0.0310461
0.0310578
0.0310681
0.0315152
0.0315096
0.031506
0.0315002
0.0314959
0.0314902
0.0314851
0.0314776
0.0314724
0.0314631
0.0314569
0.0314504
0.0314452
0.0314367
0.0314335
0.0314212
0.031412
0.0314077
0.0314116
0.0314121
0.0314028
0.0313858
0.0313775
0.0313715
0.0313607
0.031369
0.0313803
0.0313901
0.0313775
0.0313798
0.0313997
0.0314071
0.0314146
0.0314138
0.0314249
0.0314314
0.031433
0.0314333
0.0314326
0.0314447
0.0314636
0.0314798
0.0314903
0.0314991
0.0315056
0.0315106
0.0315149
0.0315189
0.0315233
0.0315276
0.0315326
0.0315384
0.0315454
0.0315538
0.0315633
0.0315739
0.0315848
0.0315971
0.0316082
0.0321637
0.0321548
0.0321485
0.0321403
0.0321323
0.0321233
0.0321141
0.0321041
0.0320947
0.0320843
0.0320749
0.0320654
0.0320561
0.0320453
0.0320358
0.0320227
0.0320157
0.0320138
0.0320114
0.0320055
0.0319909
0.0319733
0.0319642
0.0319556
0.0319477
0.0319553
0.0319643
0.0319708
0.0319581
0.0319602
0.0319794
0.0319867
0.0319944
0.0319949
0.0320059
0.0320157
0.0320207
0.0320236
0.0320238
0.0320328
0.032051
0.0320712
0.0320878
0.0321022
0.0321144
0.0321249
0.0321342
0.0321427
0.0321509
0.0321588
0.0321669
0.0321751
0.0321839
0.0321934
0.0322036
0.0322146
0.0322259
0.0322386
0.0322502
0.0329272
0.0329148
0.0329054
0.0328939
0.0328824
0.0328701
0.0328575
0.0328447
0.0328319
0.0328187
0.0328058
0.0327926
0.0327793
0.0327654
0.0327526
0.0327404
0.0327338
0.0327287
0.0327199
0.0327075
0.032689
0.0326709
0.0326601
0.0326498
0.0326442
0.0326503
0.0326566
0.0326599
0.0326474
0.0326492
0.0326671
0.0326746
0.0326823
0.0326844
0.0326953
0.0327075
0.0327161
0.0327226
0.0327252
0.0327326
0.0327489
0.0327705
0.0327918
0.0328115
0.0328295
0.0328458
0.0328608
0.0328746
0.0328878
0.0329004
0.0329126
0.0329247
0.0329367
0.0329489
0.0329613
0.0329741
0.0329868
0.0330007
0.0330135
0.033829
0.0338129
0.0338002
0.0337852
0.0337703
0.0337546
0.0337387
0.0337225
0.0337061
0.0336894
0.0336726
0.0336556
0.0336387
0.0336225
0.0336079
0.0335952
0.0335856
0.0335743
0.0335589
0.0335408
0.0335194
0.0335003
0.0334875
0.0334762
0.0334718
0.0334757
0.0334791
0.0334793
0.0334668
0.0334682
0.0334846
0.0334924
0.0335001
0.0335038
0.0335146
0.0335287
0.0335407
0.0335513
0.0335577
0.0335657
0.0335805
0.0336019
0.0336258
0.0336499
0.0336732
0.0336953
0.0337162
0.0337359
0.0337548
0.0337728
0.0337902
0.0338072
0.0338237
0.03384
0.033856
0.033872
0.0338875
0.0339039
0.0339189
0.0348995
0.0348794
0.0348632
0.0348446
0.034826
0.0348067
0.034787
0.0347668
0.0347464
0.0347257
0.034705
0.0346845
0.0346645
0.0346457
0.0346285
0.0346125
0.0345969
0.0345785
0.0345568
0.0345338
0.0345096
0.0344891
0.0344741
0.0344619
0.0344574
0.0344587
0.0344589
0.0344558
0.0344434
0.0344441
0.0344588
0.0344669
0.0344747
0.0344798
0.0344909
0.0345066
0.0345218
0.0345365
0.0345477
0.0345584
0.0345734
0.0345944
0.0346196
0.0346468
0.0346745
0.0347019
0.0347286
0.0347544
0.0347793
0.0348034
0.0348267
0.0348493
0.0348712
0.0348926
0.0349134
0.0349338
0.0349534
0.0349735
0.0349919
0.0361777
0.036153
0.036133
0.0361102
0.0360875
0.0360639
0.0360398
0.0360153
0.0359905
0.0359655
0.0359406
0.0359161
0.0358924
0.0358695
0.0358475
0.0358255
0.0358023
0.0357766
0.0357491
0.0357215
0.0356944
0.0356718
0.0356544
0.0356411
0.035635
0.035633
0.0356298
0.0356233
0.0356109
0.0356108
0.0356235
0.035632
0.03564
0.0356465
0.0356582
0.0356753
0.0356935
0.0357123
0.0357288
0.0357441
0.0357614
0.0357832
0.0358096
0.0358391
0.0358704
0.0359025
0.0359346
0.0359664
0.0359975
0.0360279
0.0360576
0.0360864
0.0361145
0.0361418
0.0361683
0.0361941
0.0362188
0.0362436
0.0362665
0.0377137
0.0376838
0.037659
0.0376314
0.0376036
0.037575
0.0375458
0.0375161
0.0374861
0.0374559
0.0374258
0.037396
0.0373666
0.0373374
0.0373083
0.0372783
0.037247
0.0372141
0.0371807
0.0371483
0.0371179
0.0370925
0.0370723
0.037057
0.0370481
0.037042
0.0370349
0.0370251
0.0370123
0.037011
0.0370219
0.0370306
0.0370389
0.0370469
0.0370597
0.0370782
0.0370994
0.0371223
0.0371444
0.0371655
0.0371873
0.0372121
0.0372408
0.037273
0.0373078
0.0373443
0.0373816
0.0374191
0.0374566
0.0374936
0.03753
0.0375657
0.0376005
0.0376345
0.0376674
0.0376994
0.0377301
0.0377606
0.037789
0.0395736
0.0395371
0.0395062
0.0394724
0.0394382
0.0394031
0.0393674
0.039331
0.0392941
0.039257
0.0392197
0.0391823
0.0391447
0.039107
0.0390687
0.0390296
0.0389896
0.0389491
0.0389093
0.0388715
0.0388369
0.0388078
0.0387839
0.0387653
0.0387521
0.0387411
0.0387295
0.0387162
0.0387025
0.0386999
0.0387088
0.0387177
0.0387266
0.0387362
0.0387505
0.0387709
0.0387953
0.0388226
0.0388507
0.0388786
0.0389069
0.0389372
0.0389705
0.0390069
0.0390462
0.0390877
0.0391307
0.0391745
0.0392187
0.0392628
0.0393066
0.0393498
0.0393922
0.0394337
0.0394741
0.0395133
0.039551
0.0395882
0.0396232
0.0418461
0.0418007
0.0417614
0.0417191
0.0416762
0.0416322
0.0415873
0.0415416
0.0414952
0.0414482
0.0414008
0.0413529
0.0413046
0.0412558
0.0412066
0.0411569
0.0411071
0.0410579
0.0410105
0.0409661
0.040926
0.0408914
0.0408623
0.0408386
0.0408195
0.0408025
0.0407858
0.0407687
0.0407536
0.0407493
0.0407563
0.0407653
0.0407751
0.0407868
0.0408034
0.0408264
0.0408547
0.040887
0.0409217
0.0409576
0.0409943
0.0410326
0.0410734
0.0411169
0.0411631
0.0412117
0.0412621
0.0413138
0.0413662
0.041419
0.0414717
0.0415239
0.0415755
0.0416261
0.0416756
0.0417236
0.04177
0.0418155
0.0418587
0.0446573
0.044599
0.044547
0.0444921
0.0444362
0.044379
0.0443208
0.0442615
0.0442013
0.0441403
0.0440786
0.0440164
0.0439537
0.0438908
0.0438277
0.043765
0.0437032
0.0436431
0.0435858
0.0435324
0.0434841
0.0434417
0.043405
0.0433736
0.0433468
0.0433225
0.0432996
0.0432781
0.0432607
0.0432544
0.0432595
0.0432687
0.0432801
0.0432943
0.0433143
0.0433414
0.0433749
0.0434138
0.0434567
0.0435023
0.0435498
0.0435995
0.0436515
0.0437061
0.0437634
0.0438231
0.0438848
0.0439481
0.0440124
0.0440773
0.0441424
0.0442072
0.0442714
0.0443346
0.0443965
0.0444568
0.0445152
0.0445723
0.0446271
0.0481994
0.0481208
0.0480486
0.0479735
0.047897
0.0478192
0.04774
0.0476597
0.0475785
0.0474964
0.0474138
0.0473308
0.0472478
0.0471652
0.0470832
0.0470026
0.0469241
0.0468486
0.046777
0.0467104
0.0466497
0.0465953
0.0465471
0.0465048
0.0464674
0.0464337
0.0464028
0.0463759
0.0463552
0.0463463
0.0463498
0.0463596
0.0463734
0.0463917
0.046417
0.0464505
0.0464919
0.0465404
0.0465946
0.0466535
0.0467161
0.0467819
0.0468509
0.0469231
0.0469983
0.0470763
0.0471567
0.047239
0.0473229
0.0474077
0.0474929
0.047578
0.0476626
0.0477462
0.0478282
0.0479082
0.0479859
0.0480618
0.0481354
0.0527791
0.052669
0.0525639
0.0524559
0.0523457
0.0522337
0.0521202
0.0520053
0.0518895
0.051773
0.0516563
0.05154
0.0514244
0.0513102
0.0511981
0.0510889
0.0509834
0.0508827
0.0507876
0.050699
0.0506177
0.050544
0.0504777
0.0504186
0.050366
0.0503188
0.0502773
0.0502427
0.0502171
0.0502051
0.0502074
0.0502189
0.0502371
0.0502624
0.0502964
0.0503411
0.050396
0.0504604
0.0505332
0.0506135
0.0507001
0.0507925
0.05089
0.0509925
0.0510995
0.0512105
0.0513251
0.0514426
0.0515624
0.0516836
0.0518056
0.0519275
0.0520487
0.0521685
0.0522859
0.0524007
0.0525121
0.0526205
0.0527266
0.0588449
0.058696
0.0585456
0.0583911
0.0582331
0.058072
0.057908
0.0577416
0.057573
0.057403
0.0572322
0.0570613
0.0568912
0.0567231
0.0565582
0.0563978
0.0562429
0.056095
0.0559552
0.0558244
0.0557036
0.0555932
0.0554933
0.0554038
0.0553242
0.0552542
0.055195
0.0551476
0.055114
0.0550982
0.0551007
0.0551175
0.0551461
0.0551867
0.0552402
0.0553083
0.0553917
0.0554893
0.0556
0.0557228
0.0558564
0.0559997
0.0561518
0.0563118
0.0564787