/*--------------------------------*- C++ -*----------------------------------*\
| =========                 |                                                 |
| \\      /  F ield         | OpenFOAM: The Open Source CFD Toolbox           |
|  \\    /   O peration     | Version:  2312                                  |
|   \\  /    A nd           | Website:  www.openfoam.com                      |
|    \\/     M anipulation  |                                                 |
\*---------------------------------------------------------------------------*/
FoamFile
{
    version     2.0;
    format      ascii;
    arch        "LSB;label=32;scalar=64";
    class       volScalarField;
    location    "200";
    object      p;
}
// * * * * * * * * * * * * * * * * * * * * * * * * * * * * * * * * * * * * * //

dimensions      [0 2 -2 0 0 0 0];

internalField   nonuniform List<scalar> 
76025
(
0.000124347
0.000116948
0.000109434
0.000101884
9.42502e-05
8.66934e-05
7.8613e-05
7.07773e-05
6.27401e-05
5.47455e-05
4.66465e-05
3.84655e-05
3.01966e-05
2.19108e-05
1.36084e-05
5.06271e-06
-3.19394e-06
-1.17956e-05
-2.02462e-05
-2.87994e-05
-3.72274e-05
-4.58455e-05
-5.44345e-05
-6.29091e-05
-7.14662e-05
-7.99634e-05
-8.84077e-05
-9.71344e-05
-0.000105503
-0.000114156
-0.000122384
-0.00013089
-0.000139168
-0.000147712
-0.000155975
-0.000164307
-0.00017239
-0.000180709
-0.000189138
-0.000197275
-0.000205287
-0.0002133
-0.000221501
-0.000229794
-0.000237654
-0.000245629
-0.000253593
-0.000261826
-0.000269626
-0.000277531
-0.000285445
-0.000293275
-0.000301221
-0.000309212
-0.000317033
-0.000324851
-0.000332823
-0.000340867
-0.000348885
-0.000356675
-0.000364572
-0.000372858
-0.000380747
-0.000388412
-0.000395975
-0.000403552
-0.000410663
-0.000417145
-0.000422122
0.00012627
0.000118576
0.000110807
0.000102964
9.50148e-05
8.69398e-05
7.88046e-05
7.06107e-05
6.23262e-05
5.39653e-05
4.55266e-05
3.7034e-05
2.85008e-05
1.98976e-05
1.12709e-05
2.62173e-06
-6.08022e-06
-1.47864e-05
-2.35489e-05
-3.22655e-05
-4.10338e-05
-4.97815e-05
-5.8525e-05
-6.72386e-05
-7.59588e-05
-8.46897e-05
-9.34079e-05
-0.000102045
-0.000110649
-0.000119271
-0.000127795
-0.000136412
-0.000144948
-0.000153415
-0.000161868
-0.000170238
-0.00017861
-0.000186942
-0.000195203
-0.000203431
-0.000211572
-0.000219721
-0.000227822
-0.000235853
-0.000243854
-0.000251828
-0.000259798
-0.000267727
-0.000275603
-0.000283484
-0.000291365
-0.000299198
-0.000307022
-0.00031484
-0.000322615
-0.000330403
-0.000338257
-0.00034609
-0.000353915
-0.000361667
-0.000369406
-0.000377277
-0.000384997
-0.000392497
-0.000399814
-0.000406949
-0.000413698
-0.000419785
-0.000425508
0.000128301
0.000120281
0.000112169
0.000103972
9.56713e-05
8.72947e-05
7.88413e-05
7.03044e-05
6.16901e-05
5.30006e-05
4.42526e-05
3.54604e-05
2.66212e-05
1.77413e-05
8.8392e-06
-1.02602e-07
-9.06563e-06
-1.80443e-05
-2.7033e-05
-3.60238e-05
-4.50096e-05
-5.39772e-05
-6.29345e-05
-7.18735e-05
-8.07955e-05
-8.96993e-05
-9.85539e-05
-0.000107364
-0.000116148
-0.000124899
-0.000133614
-0.000142298
-0.000150918
-0.000159479
-0.000167998
-0.000176458
-0.000184868
-0.000193214
-0.000201513
-0.000209771
-0.00021796
-0.000226096
-0.00023418
-0.00024223
-0.000250244
-0.000258204
-0.000266126
-0.000274018
-0.00028188
-0.000289705
-0.000297504
-0.000305269
-0.000313013
-0.000320745
-0.000328457
-0.000336159
-0.000343871
-0.000351576
-0.000359266
-0.000366911
-0.00037452
-0.000382117
-0.000389589
-0.000396849
-0.000403884
-0.000410662
-0.000417044
-0.000422829
-0.00042842
0.000130126
0.000121745
0.000113267
0.000104713
9.60707e-05
8.73435e-05
7.85339e-05
6.96486e-05
6.0697e-05
5.16853e-05
4.26209e-05
3.35107e-05
2.43603e-05
1.5177e-05
5.96877e-06
-3.26119e-06
-1.25029e-05
-2.17507e-05
-3.09973e-05
-4.02365e-05
-4.94599e-05
-5.8663e-05
-6.78423e-05
-7.69914e-05
-8.61053e-05
-9.51808e-05
-0.000104211
-0.000113194
-0.00012213
-0.000131015
-0.000139848
-0.000148625
-0.00015734
-0.00016599
-0.000174576
-0.000183097
-0.000191552
-0.000199944
-0.000208275
-0.000216544
-0.000224746
-0.000232886
-0.000240971
-0.000249006
-0.000256988
-0.000264917
-0.0002728
-0.000280645
-0.000288449
-0.000296213
-0.000303943
-0.000311641
-0.000319311
-0.000326958
-0.000334584
-0.000342192
-0.000349791
-0.000357375
-0.000364929
-0.000372432
-0.000379872
-0.000387236
-0.00039446
-0.000401472
-0.000408235
-0.000414696
-0.000420771
-0.000426295
-0.000431696
0.000131656
0.000122899
0.000114047
0.000105122
9.61129e-05
8.70178e-05
7.78454e-05
6.86045e-05
5.93027e-05
4.99466e-05
4.0543e-05
3.10996e-05
2.16243e-05
1.21245e-05
2.60787e-06
-6.91804e-06
-1.64463e-05
-2.59694e-05
-3.54806e-05
-4.49724e-05
-5.44383e-05
-6.38723e-05
-7.32686e-05
-8.26218e-05
-9.19271e-05
-0.000101181
-0.000110378
-0.000119516
-0.00012859
-0.0001376
-0.000146546
-0.000155422
-0.000164223
-0.000172946
-0.000181592
-0.000190163
-0.000198658
-0.000207079
-0.000215427
-0.000223702
-0.000231906
-0.000240041
-0.000248111
-0.00025612
-0.000264069
-0.000271962
-0.000279802
-0.000287594
-0.000295339
-0.000303041
-0.000310703
-0.000318328
-0.000325922
-0.000333487
-0.000341026
-0.00034854
-0.000356031
-0.000363491
-0.000370905
-0.000378251
-0.000385508
-0.000392649
-0.000399626
-0.000406383
-0.000412881
-0.000419053
-0.000424863
-0.000430123
-0.000435267
0.000132893
0.000123741
0.000114496
0.00010518
9.57819e-05
8.63028e-05
7.67512e-05
6.71363e-05
5.7466e-05
4.77481e-05
3.79904e-05
2.82014e-05
1.83893e-05
8.56252e-06
-1.27097e-06
-1.11031e-05
-2.09262e-05
-3.07323e-05
-4.0514e-05
-5.02638e-05
-5.99748e-05
-6.96404e-05
-7.92546e-05
-8.8812e-05
-9.83076e-05
-0.000107737
-0.000117096
-0.000126381
-0.000135589
-0.000144719
-0.00015377
-0.000162737
-0.000171612
-0.000180398
-0.000189096
-0.000197707
-0.000206231
-0.00021467
-0.000223025
-0.000231298
-0.000239492
-0.00024761
-0.000255654
-0.000263629
-0.000271538
-0.000279385
-0.000287173
-0.000294906
-0.000302589
-0.000310224
-0.000317816
-0.000325368
-0.000332884
-0.000340366
-0.000347816
-0.000355232
-0.00036261
-0.000369939
-0.000377202
-0.000384377
-0.000391436
-0.000398351
-0.000405081
-0.000411586
-0.000417825
-0.000423737
-0.000429331
-0.000434414
-0.0004396
0.000133777
0.000124208
0.000114547
0.000104819
9.50127e-05
8.51297e-05
7.51793e-05
6.51717e-05
5.51157e-05
4.502e-05
3.48934e-05
2.47446e-05
1.45828e-05
4.41679e-06
-5.74451e-06
-1.58925e-05
-2.60185e-05
-3.61143e-05
-4.61719e-05
-5.61834e-05
-6.61416e-05
-7.60397e-05
-8.58713e-05
-9.56307e-05
-0.000105313
-0.000114913
-0.000124427
-0.000133852
-0.000143186
-0.000152426
-0.000161571
-0.000170616
-0.000179556
-0.000188394
-0.000197131
-0.00020577
-0.00021431
-0.000222753
-0.000231104
-0.000239364
-0.000247536
-0.000255624
-0.000263631
-0.000271563
-0.000279423
-0.000287216
-0.000294945
-0.000302615
-0.000310231
-0.000317797
-0.000325317
-0.000332793
-0.000340229
-0.000347625
-0.00035498
-0.000362288
-0.000369543
-0.000376729
-0.000383827
-0.000390814
-0.000397663
-0.000404345
-0.000410827
-0.00041708
-0.000423066
-0.000428745
-0.000434173
-0.000439187
-0.000444499
0.000134236
0.000124226
0.000114128
0.000103965
9.37289e-05
8.34211e-05
7.30521e-05
6.26328e-05
5.21733e-05
4.16829e-05
3.11712e-05
2.06478e-05
1.01227e-05
-3.94387e-07
-1.08939e-05
-2.13665e-05
-3.18029e-05
-4.21942e-05
-5.25319e-05
-6.28078e-05
-7.30141e-05
-8.31438e-05
-9.31903e-05
-0.000103148
-0.000113011
-0.000122775
-0.000132437
-0.000141993
-0.00015144
-0.000160779
-0.000170006
-0.000179116
-0.000188107
-0.000196984
-0.000205747
-0.000214398
-0.00022294
-0.000231375
-0.000239707
-0.00024794
-0.000256078
-0.000264124
-0.000272084
-0.000279963
-0.000287765
-0.000295495
-0.000303159
-0.000310762
-0.000318307
-0.0003258
-0.000333242
-0.000340638
-0.000347986
-0.000355287
-0.000362535
-0.000369723
-0.000376838
-0.000383865
-0.000390782
-0.000397566
-0.000404192
-0.000410632
-0.00041686
-0.000422852
-0.000428582
-0.000434058
-0.000439391
-0.000444411
-0.000449427
0.000134196
0.00012372
0.000113159
0.000102538
9.18492e-05
8.10945e-05
7.02856e-05
5.94345e-05
4.85522e-05
3.76491e-05
2.67357e-05
1.58227e-05
4.92076e-06
-5.95952e-06
-1.68077e-05
-2.76136e-05
-3.83673e-05
-4.90594e-05
-5.96806e-05
-7.02223e-05
-8.06766e-05
-9.10359e-05
-0.000101293
-0.000111443
-0.00012148
-0.0001314
-0.000141199
-0.000150874
-0.000160423
-0.000169846
-0.00017914
-0.0001883
-0.000197328
-0.000206226
-0.000214999
-0.000223647
-0.000232175
-0.000240586
-0.000248885
-0.000257076
-0.000265165
-0.000273158
-0.000281058
-0.000288874
-0.000296609
-0.000304269
-0.000311861
-0.000319388
-0.000326856
-0.000334267
-0.000341624
-0.000348929
-0.000356178
-0.000363369
-0.000370495
-0.000377544
-0.000384502
-0.000391351
-0.00039807
-0.000404637
-0.000411026
-0.000417212
-0.000423174
-0.000428886
-0.000434338
-0.000439602
-0.000444817
-0.000449938
-0.000456225
0.000133568
0.000122599
0.000111549
0.000100445
8.92774e-05
7.80519e-05
6.67804e-05
5.54761e-05
4.41509e-05
3.28163e-05
2.1484e-05
1.01657e-05
-1.12712e-06
-1.23827e-05
-2.35899e-05
-3.47375e-05
-4.58151e-05
-5.68122e-05
-6.77194e-05
-7.85273e-05
-8.92277e-05
-9.98128e-05
-0.000110276
-0.000120611
-0.000130812
-0.000140876
-0.000150799
-0.000160579
-0.000170215
-0.000179705
-0.000189048
-0.000198241
-0.000207286
-0.000216189
-0.000224951
-0.000233578
-0.000242074
-0.000250444
-0.000258693
-0.000266828
-0.000274854
-0.000282779
-0.000290608
-0.000298348
-0.000306005
-0.000313585
-0.000321093
-0.000328534
-0.000335912
-0.00034323
-0.000350488
-0.000357685
-0.000364818
-0.000371881
-0.000378863
-0.000385753
-0.000392533
-0.000399187
-0.000405693
-0.000412029
-0.000418168
-0.000424089
-0.000429772
-0.000435181
-0.000440349
-0.000445355
-0.000450264
-0.000455174
-0.000461523
0.000132245
0.000120754
0.000109188
9.75713e-05
8.58998e-05
7.41782e-05
6.24201e-05
5.06397e-05
3.88503e-05
2.70646e-05
1.52954e-05
3.5555e-06
-8.14234e-06
-1.97855e-05
-3.13617e-05
-4.28591e-05
-5.42661e-05
-6.55718e-05
-7.67659e-05
-8.78388e-05
-9.87818e-05
-0.000109587
-0.000120247
-0.000130756
-0.00014111
-0.000151304
-0.000161336
-0.000171204
-0.000180907
-0.000190446
-0.000199817
-0.000209021
-0.000218064
-0.000226949
-0.000235681
-0.000244266
-0.00025271
-0.000261019
-0.0002692
-0.000277261
-0.000285208
-0.000293049
-0.00030079
-0.00030844
-0.000316003
-0.000323487
-0.000330896
-0.000338235
-0.000345506
-0.000352711
-0.000359849
-0.000366918
-0.000373912
-0.000380823
-0.000387639
-0.000394347
-0.000400931
-0.000407373
-0.000413651
-0.000419742
-0.000425622
-0.000431273
-0.000436668
-0.000441782
-0.000446719
-0.000451464
-0.000456107
-0.000460882
-0.000467517
0.0001301
0.000118057
0.000105943
9.3786e-05
8.15819e-05
6.93372e-05
5.70668e-05
4.47862e-05
3.25102e-05
2.02527e-05
8.02789e-06
-4.15024e-06
-1.62676e-05
-2.83106e-05
-4.02657e-05
-5.212e-05
-6.38613e-05
-7.54777e-05
-8.69583e-05
-9.82932e-05
-0.000109473
-0.00012049
-0.000131337
-0.000142008
-0.000152498
-0.000162805
-0.000172927
-0.000182862
-0.000192612
-0.000202175
-0.00021155
-0.000220743
-0.000229758
-0.000238601
-0.000247279
-0.000255798
-0.000264167
-0.000272392
-0.000280484
-0.000288448
-0.000296294
-0.00030403
-0.000311663
-0.0003192
-0.000326649
-0.000334014
-0.000341301
-0.000348514
-0.000355653
-0.00036272
-0.000369713
-0.000376627
-0.000383454
-0.000390187
-0.000396814
-0.000403319
-0.000409688
-0.000415902
-0.000421939
-0.000427776
-0.000433394
-0.000438775
-0.000443883
-0.000448763
-0.000453546
-0.000458148
-0.000463082
-0.000467822
-0.00047143
0.000126981
0.000114352
0.000101659
8.89293e-05
7.61622e-05
6.33655e-05
5.05555e-05
3.77491e-05
2.49627e-05
1.22116e-05
-4.88485e-07
-1.31221e-05
-2.56739e-05
-3.81288e-05
-5.04723e-05
-6.26904e-05
-7.47696e-05
-8.66976e-05
-9.84627e-05
-0.000110054
-0.000121463
-0.000132681
-0.000143701
-0.000154517
-0.000165126
-0.000175525
-0.000185714
-0.000195692
-0.000205462
-0.000215022
-0.000224374
-0.000233526
-0.000242484
-0.000251256
-0.00025985
-0.000268274
-0.000276539
-0.000284652
-0.000292623
-0.000300462
-0.000308178
-0.00031578
-0.000323275
-0.000330671
-0.000337974
-0.000345192
-0.000352326
-0.000359382
-0.000366359
-0.000373256
-0.000380071
-0.000386798
-0.000393431
-0.00039996
-0.000406373
-0.000412656
-0.000418794
-0.000424766
-0.000430554
-0.000436135
-0.000441496
-0.000446616
-0.000451486
-0.000456246
-0.000460911
-0.000465547
-0.000470564
-0.000474807
-0.000479415
0.0001227
0.00010945
9.61416e-05
8.2806e-05
6.94431e-05
5.60632e-05
4.26841e-05
2.93243e-05
1.60019e-05
2.73397e-06
-1.04622e-05
-2.35695e-05
-3.65711e-05
-4.94505e-05
-6.21917e-05
-7.47797e-05
-8.72e-05
-9.94392e-05
-0.000111485
-0.000123326
-0.000134954
-0.000146359
-0.000157534
-0.000168476
-0.000179181
-0.000189647
-0.000199875
-0.000209867
-0.000219623
-0.000229146
-0.00023844
-0.000247514
-0.000256378
-0.00026504
-0.00027351
-0.0002818
-0.00028992
-0.00029788
-0.000305692
-0.000313367
-0.000320914
-0.000328342
-0.000335661
-0.000342878
-0.000349999
-0.000357029
-0.000363973
-0.000370832
-0.000377608
-0.000384298
-0.0003909
-0.000397409
-0.000403818
-0.000410117
-0.000416296
-0.000422339
-0.000428231
-0.000433954
-0.000439489
-0.000444821
-0.000449953
-0.000454864
-0.000459632
-0.00046438
-0.000469001
-0.00047366
-0.000477641
-0.000480187
-0.000481822
0.00011702
0.00010311
8.91487e-05
7.5169e-05
6.11742e-05
4.71767e-05
3.3196e-05
1.92525e-05
5.36605e-06
-8.44418e-06
-2.21591e-05
-3.57599e-05
-4.9228e-05
-6.25452e-05
-7.56941e-05
-8.86582e-05
-0.000101422
-0.000113971
-0.000126292
-0.000138373
-0.000150205
-0.000161779
-0.000173089
-0.000184131
-0.000194901
-0.0002054
-0.00021563
-0.000225594
-0.000235292
-0.000244729
-0.000253916
-0.000262861
-0.000271577
-0.000280076
-0.00028837
-0.000296471
-0.000304393
-0.000312149
-0.000319751
-0.000327211
-0.000334539
-0.000341745
-0.000348838
-0.000355827
-0.000362716
-0.000369512
-0.000376219
-0.000382837
-0.000389369
-0.000395814
-0.000402168
-0.000408427
-0.000414584
-0.00042063
-0.000426554
-0.000432342
-0.00043798
-0.000443452
-0.00044874
-0.000453864
-0.000458838
-0.000463663
-0.000468476
-0.000473201
-0.00047778
-0.000481906
-0.000484663
-0.000486276
-0.000485141
0.000109626
9.50129e-05
8.03556e-05
6.56891e-05
5.10211e-05
3.6367e-05
2.17477e-05
7.18585e-06
-7.29663e-06
-2.16782e-05
-3.59378e-05
-5.00544e-05
-6.40074e-05
-7.77767e-05
-9.13431e-05
-0.000104689
-0.000117796
-0.000130649
-0.000143235
-0.00015554
-0.000167554
-0.00017927
-0.000190679
-0.00020178
-0.00021257
-0.000223051
-0.000233227
-0.000243099
-0.000252673
-0.000261958
-0.000270968
-0.000279715
-0.000288213
-0.000296477
-0.000304524
-0.000312368
-0.000320025
-0.000327509
-0.000334835
-0.000342015
-0.000349061
-0.000355983
-0.000362791
-0.000369492
-0.000376094
-0.000382602
-0.000389021
-0.000395352
-0.000401598
-0.000407758
-0.000413829
-0.000419807
-0.000425686
-0.000431458
-0.000437111
-0.000442634
-0.000448016
-0.000453252
-0.000458347
-0.000463367
-0.000468302
-0.000473185
-0.000477979
-0.000482485
-0.000486558
-0.000489558
-0.000491265
-0.000491979
-0.000491575
0.000100063
8.46958e-05
6.92915e-05
5.38879e-05
3.8499e-05
2.31431e-05
7.84323e-06
-7.37564e-06
-2.24888e-05
-3.74722e-05
-5.2302e-05
-6.69546e-05
-8.14071e-05
-9.5637e-05
-0.000109623
-0.000123345
-0.000136784
-0.000149922
-0.000162745
-0.000175239
-0.000187393
-0.000199199
-0.000210651
-0.000221747
-0.000232486
-0.000242872
-0.000252908
-0.000262602
-0.000271964
-0.000281007
-0.000289747
-0.000298202
-0.00030639
-0.000314328
-0.000322037
-0.000329535
-0.000336839
-0.000343967
-0.000350936
-0.000357757
-0.000364446
-0.000371013
-0.000377468
-0.000383819
-0.000390075
-0.00039624
-0.000402321
-0.000408319
-0.000414236
-0.000420073
-0.000425828
-0.000431497
-0.000437074
-0.000442552
-0.000447922
-0.00045318
-0.000458341
-0.000463418
-0.000468453
-0.000473509
-0.000478508
-0.000483348
-0.000487761
-0.00049167
-0.000494652
-0.000496329
-0.000496924
-0.000496977
-0.000496775
8.76092e-05
7.14347e-05
5.52321e-05
3.90441e-05
2.28913e-05
6.7954e-06
-9.21807e-06
-2.51214e-05
-4.08868e-05
-5.64869e-05
-7.18952e-05
-8.70851e-05
-0.000102031
-0.000116707
-0.000131091
-0.000145159
-0.00015889
-0.000172267
-0.000185272
-0.000197891
-0.000210113
-0.00022193
-0.000233338
-0.000244333
-0.00025492
-0.000265103
-0.000274889
-0.000284291
-0.000293323
-0.000302005
-0.000310356
-0.000318398
-0.000326155
-0.00033365
-0.000340908
-0.00034795
-0.000354799
-0.000361473
-0.000367992
-0.000374371
-0.000380623
-0.000386761
-0.000392795
-0.000398733
-0.000404584
-0.000410353
-0.000416046
-0.000421665
-0.000427213
-0.000432691
-0.000438097
-0.000443428
-0.000448679
-0.000453851
-0.000458954
-0.000464007
-0.000469068
-0.000474147
-0.000479282
-0.000484386
-0.000489245
-0.000493546
-0.00049726
-0.000500135
-0.000501701
-0.000502143
-0.000502034
-0.000501952
-0.000502033
7.13269e-05
5.43146e-05
3.72884e-05
2.02989e-05
3.37116e-06
-1.34705e-05
-3.01976e-05
-4.67795e-05
-6.31848e-05
-7.93833e-05
-9.53448e-05
-0.00011104
-0.00012644
-0.000141516
-0.000156243
-0.000170595
-0.00018455
-0.000198086
-0.000211187
-0.000223836
-0.000236024
-0.000247741
-0.000258985
-0.000269755
-0.000280057
-0.0002899
-0.000299295
-0.000308259
-0.000316815
-0.000324986
-0.000332799
-0.000340284
-0.000347469
-0.000354387
-0.000361065
-0.000367532
-0.000373813
-0.000379932
-0.000385908
-0.000391757
-0.000397494
-0.000403131
-0.000408678
-0.000414142
-0.000419532
-0.000424853
-0.000430111
-0.000435308
-0.000440446
-0.000445525
-0.000450545
-0.000455511
-0.000460439
-0.000465351
-0.000470298
-0.000475311
-0.000480453
-0.000485646
-0.000490778
-0.000495545
-0.000499691
-0.000503187
-0.000505912
-0.000507317
-0.00050763
-0.000507431
-0.000507143
-0.000507049
-0.000507219
5.05824e-05
3.2741e-05
1.49027e-05
-2.86879e-06
-2.05473e-05
-3.81067e-05
-5.55154e-05
-7.27391e-05
-8.9743e-05
-0.000106493
-0.000122957
-0.0001391
-0.000154891
-0.000170299
-0.000185295
-0.000199849
-0.000213938
-0.000227538
-0.00024063
-0.000253197
-0.000265229
-0.000276718
-0.000287662
-0.000298064
-0.000307931
-0.000317278
-0.000326121
-0.000334485
-0.000342398
-0.000349893
-0.000357005
-0.000363773
-0.000370234
-0.000376429
-0.000382393
-0.00038816
-0.00039376
-0.00039922
-0.00040456
-0.000409798
-0.000414945
-0.000420013
-0.000425009
-0.000429941
-0.000434814
-0.000439635
-0.000444407
-0.000449133
-0.000453817
-0.000458465
-0.000463094
-0.000467734
-0.00047244
-0.000477261
-0.000482243
-0.000487366
-0.000492538
-0.000497544
-0.000502074
-0.000505975
-0.000509265
-0.000511784
-0.000513003
-0.000513248
-0.000513054
-0.000512626
-0.00051218
-0.000511959
-0.000512011
2.57372e-05
7.07806e-06
-1.15603e-05
-3.0098e-05
-4.85102e-05
-6.67692e-05
-8.48394e-05
-0.000102682
-0.000120259
-0.000137533
-0.000154466
-0.000171021
-0.000187162
-0.000202854
-0.000218064
-0.00023276
-0.000246914
-0.0002605
-0.000273497
-0.000285886
-0.000297656
-0.0003088
-0.000319316
-0.00032921
-0.000338495
-0.000347189
-0.000355315
-0.000362906
-0.000370001
-0.000376642
-0.000382878
-0.000388757
-0.00039433
-0.000399646
-0.000404751
-0.000409687
-0.00041449
-0.000419189
-0.000423805
-0.000428353
-0.000432843
-0.000437281
-0.00044167
-0.000446013
-0.000450311
-0.000454567
-0.000458791
-0.000462998
-0.000467218
-0.000471489
-0.00047586
-0.000480364
-0.000485052
-0.000489923
-0.0004949
-0.000499844
-0.000504482
-0.000508593
-0.000512176
-0.000515264
-0.000517446
-0.000518452
-0.000518741
-0.000518653
-0.000518156
-0.000517444
-0.000516814
-0.000516396
-0.000516247
-1.74715e-06
-2.12892e-05
-4.07857e-05
-6.01471e-05
-7.93511e-05
-9.83669e-05
-0.000117154
-0.000135669
-0.000153869
-0.000171712
-0.000189154
-0.000206155
-0.000222674
-0.00023867
-0.000254104
-0.000268943
-0.000283151
-0.0002967
-0.000309565
-0.000321725
-0.000333166
-0.00034388
-0.000353868
-0.000363138
-0.000371705
-0.000379594
-0.000386837
-0.000393478
-0.000399568
-0.000405164
-0.000410328
-0.000415126
-0.000419624
-0.000423887
-0.000427974
-0.000431938
-0.000435822
-0.000439656
-0.000443461
-0.000447246
-0.000451011
-0.000454755
-0.000458474
-0.000462169
-0.000465846
-0.00046952
-0.000473216
-0.000476977
-0.000480859
-0.000484941
-0.000489265
-0.000493786
-0.000498402
-0.000502972
-0.000507358
-0.000511411
-0.000515004
-0.000518186
-0.000520819
-0.000522476
-0.000523292
-0.000523803
-0.000523888
-0.000523329
-0.000522432
-0.000521553
-0.000520812
-0.000520189
-0.000519719
-3.05915e-05
-5.11574e-05
-7.16561e-05
-9.19859e-05
-0.000112125
-0.000132039
-0.000151681
-0.000171004
-0.000189958
-0.000208496
-0.000226568
-0.000244127
-0.000261125
-0.000277517
-0.000293257
-0.000308303
-0.000322617
-0.000336162
-0.000348907
-0.000360828
-0.000371906
-0.000382131
-0.000391504
-0.000400034
-0.000407741
-0.000414657
-0.000420827
-0.000426307
-0.000431164
-0.000435476
-0.000439326
-0.000442803
-0.000445997
-0.000448996
-0.000451879
-0.000454712
-0.000457544
-0.000460406
-0.000463309
-0.000466248
-0.000469209
-0.000472179
-0.000475162
-0.000478184
-0.000481295
-0.000484556
-0.000488005
-0.000491646
-0.000495431
-0.000499332
-0.000503311
-0.000507339
-0.000511306
-0.00051497
-0.00051822
-0.000521148
-0.00052367
-0.000525455
-0.000526497
-0.000527318
-0.00052812
-0.000528302
-0.000527681
-0.000526722
-0.000525756
-0.000524879
-0.0005241
-0.00052336
-0.000522706
-5.86745e-05
-8.05554e-05
-0.000102315
-0.000123868
-0.000145193
-0.000166251
-0.000186989
-0.000207352
-0.000227285
-0.000246734
-0.000265643
-0.000283957
-0.000301621
-0.000318581
-0.000334784
-0.00035018
-0.000364721
-0.000378363
-0.000391066
-0.000402798
-0.000413536
-0.000423266
-0.000431989
-0.000439713
-0.000446459
-0.000452268
-0.000457195
-0.000461312
-0.000464708
-0.000467485
-0.000469758
-0.000471647
-0.000473274
-0.000474757
-0.000476203
-0.0004777
-0.000479313
-0.000481081
-0.000483017
-0.000485112
-0.000487345
-0.000489696
-0.000492147
-0.000494714
-0.000497432
-0.000500366
-0.000503562
-0.00050698
-0.0005105
-0.000513868
-0.000516837
-0.000519475
-0.00052215
-0.000524848
-0.000526783
-0.000527841
-0.000528638
-0.000529401
-0.000530597
-0.00053153
-0.000531498
-0.000530816
-0.000529973
-0.000529091
-0.000528248
-0.000527456
-0.000526704
-0.000525973
-0.00052538
-8.8056e-05
-0.000111421
-0.000134707
-0.000157756
-0.000180543
-0.000203027
-0.000225146
-0.000246835
-0.000268032
-0.000288672
-0.000308691
-0.000328023
-0.000346602
-0.000364365
-0.000381247
-0.000397187
-0.000412122
-0.000425993
-0.000438743
-0.000450324
-0.000460697
-0.000469837
-0.000477741
-0.000484422
-0.00048991
-0.000494253
-0.000497525
-0.000499817
-0.000501244
-0.000501942
-0.000502067
-0.000501785
-0.000501274
-0.000500712
-0.000500267
-0.00050009
-0.0005003
-0.000500977
-0.000502142
-0.000503774
-0.00050579
-0.000508086
-0.000510524
-0.000512967
-0.000515282
-0.000517395
-0.000519311
-0.000521163
-0.000523399
-0.000526143
-0.000528547
-0.00052945
-0.000529474
-0.000530207
-0.000530709
-0.000530825
-0.000532135
-0.000533433
-0.000533641
-0.000533228
-0.000532711
-0.000532088
-0.000531422
-0.000530737
-0.000530054
-0.000529386
-0.000528729
-0.000528112
-0.000527689
-0.000110201
-0.000135739
-0.000160956
-0.000185885
-0.000210516
-0.000234789
-0.000258634
-0.000281982
-0.000304762
-0.000326901
-0.000348325
-0.000368961
-0.000388732
-0.000407566
-0.000425391
-0.000442138
-0.000457743
-0.000472133
-0.000485234
-0.000496979
-0.000507309
-0.000516174
-0.000523546
-0.000529419
-0.000533816
-0.000536785
-0.000538406
-0.000538791
-0.000538093
-0.000536501
-0.000534241
-0.000531568
-0.000528763
-0.000526109
-0.000523871
-0.000522272
-0.000521452
-0.000521446
-0.00052216
-0.000523392
-0.000524877
-0.000526404
-0.000527917
-0.000529543
-0.000531395
-0.000533198
-0.000534139
-0.000533576
-0.000532428
-0.000532658
-0.000534103
-0.000533988
-0.000532124
-0.000532184
-0.000533929
-0.000534893
-0.000534753
-0.000534437
-0.000534152
-0.000533784
-0.000533352
-0.000532856
-0.000532321
-0.000531778
-0.000531257
-0.000530766
-0.00053029
-0.000529867
-0.000529673
-0.00014977
-0.000177227
-0.000204745
-0.000231956
-0.000258834
-0.000285329
-0.000311357
-0.000336835
-0.000361676
-0.00038579
-0.000409085
-0.000431469
-0.000452846
-0.00047312
-0.000492191
-0.000509952
-0.000526271
-0.000540972
-0.000553939
-0.000565154
-0.000574589
-0.000582197
-0.00058794
-0.000591811
-0.000593844
-0.00059411
-0.000592721
-0.000589835
-0.000585659
-0.000580454
-0.000574528
-0.000568233
-0.000561949
-0.000556067
-0.000550957
-0.000546937
-0.000544216
-0.000542837
-0.000542637
-0.000543193
-0.000543878
-0.00054396
-0.000542992
-0.000541356
-0.000540255
-0.000540505
-0.000541324
-0.000540546
-0.000537286
-0.000534331
-0.000534425
-0.000536037
-0.000536806
-0.000536361
-0.000535622
-0.000535293
-0.000535052
-0.000534788
-0.000534463
-0.000534072
-0.000533632
-0.000533167
-0.000532708
-0.000532287
-0.000531931
-0.000531648
-0.000531407
-0.000531219
-0.000531275
-0.000164246
-0.000194089
-0.000223208
-0.000252212
-0.000280992
-0.000309335
-0.000337136
-0.000364319
-0.000390797
-0.000416472
-0.000441242
-0.000465009
-0.000487681
-0.00050918
-0.000529464
-0.000548559
-0.000566524
-0.000583042
-0.00059757
-0.000609884
-0.000619988
-0.000627891
-0.000633533
-0.000636833
-0.000637745
-0.000636266
-0.000632456
-0.000626447
-0.000618466
-0.000608855
-0.000598085
-0.000586762
-0.000575615
-0.000565453
-0.000557084
-0.000551198
-0.000548218
-0.00054814
-0.000550441
-0.000554026
-0.000557369
-0.000558799
-0.000556882
-0.000551448
-0.000544949
-0.000540626
-0.000539878
-0.000541173
-0.000542036
-0.000541398
-0.000539519
-0.000537877
-0.000537139
-0.000536672
-0.000536235
-0.000535832
-0.000535435
-0.000535024
-0.000534581
-0.00053411
-0.000533631
-0.00053317
-0.000532754
-0.000532408
-0.00053215
-0.000531982
-0.000531879
-0.000531832
-0.000531983
-0.000259418
-0.000291694
-0.000324039
-0.000355837
-0.000387061
-0.000417772
-0.000447902
-0.000477311
-0.000505865
-0.000533441
-0.000559904
-0.000585102
-0.000608859
-0.000630972
-0.000651198
-0.000669246
-0.000684817
-0.000698048
-0.000709297
-0.000718503
-0.000725345
-0.000729548
-0.000730965
-0.000729523
-0.000725183
-0.000717942
-0.000707879
-0.000695182
-0.000680164
-0.000663277
-0.000645112
-0.000626404
-0.000608002
-0.000590831
-0.000575814
-0.000563773
-0.000555302
-0.000550635
-0.000549535
-0.000551247
-0.000554522
-0.000557712
-0.000559384
-0.000558757
-0.000555749
-0.000551273
-0.000546686
-0.00054346
-0.000541849
-0.000540741
-0.000539674
-0.000538708
-0.000537953
-0.000537304
-0.000536734
-0.000536212
-0.000535708
-0.000535201
-0.000534685
-0.000534161
-0.000533645
-0.000533161
-0.000532732
-0.000532382
-0.000532128
-0.000531975
-0.00053192
-0.000531941
-0.000532032
9.47708e-05
0.000101382
0.000108238
0.000115479
0.000123174
0.000131344
0.00014003
0.000149048
0.000158398
0.000168243
0.000178536
0.000189228
0.000200007
0.000211733
0.000222754
0.000234478
0.000245465
0.00025702
0.000268169
0.000279071
0.000290497
0.000300155
0.000309508
0.00031789
0.000325462
0.000332142
0.000337277
0.000341313
0.000344314
0.000345749
0.000345555
0.000344109
0.000341545
0.000337956
0.000332684
0.00032648
0.000319433
0.000311377
0.00030264
0.000293508
0.000283766
0.000273615
0.000263659
0.000253943
0.000243253
0.000233425
0.000223147
0.00021342
0.000203951
0.00019479
0.000186093
0.000177758
0.000169941
0.000162367
0.000155433
0.00014844
0.000142079
0.000136164
0.000130704
9.60627e-05
0.000102832
0.000110039
0.000117657
0.000125716
0.000134224
0.000143196
0.000152592
0.00016243
0.000172711
0.000183402
0.000194483
0.000205862
0.000217601
0.000229506
0.000241489
0.00025351
0.000265447
0.000277289
0.000288678
0.00029992
0.00031047
0.000320238
0.0003291
0.000336976
0.000343792
0.000349355
0.000353533
0.00035655
0.000358018
0.000357822
0.000356386
0.00035368
0.000349633
0.000344247
0.000337734
0.000330276
0.000321945
0.000312844
0.000303156
0.000293015
0.000282573
0.000272
0.000261244
0.000250494
0.000239898
0.000229469
0.000219335
0.000209474
0.000199935
0.000190807
0.000182099
0.000173753
0.000165873
0.000158384
0.000151366
0.000144791
0.000138639
0.000132874
9.7268e-05
0.000104322
0.000111808
0.00011975
0.000128157
0.000137037
0.000146383
0.000156191
0.000166468
0.00017721
0.000188374
0.000199919
0.000211814
0.000224014
0.000236428
0.000249044
0.000261694
0.000274269
0.000286623
0.000298629
0.00031024
0.000321267
0.000331544
0.000340864
0.000349145
0.00035625
0.000362064
0.000366495
0.000369559
0.000371038
0.000370931
0.00036942
0.000366466
0.000362125
0.000356457
0.000349632
0.000341763
0.00033302
0.000323492
0.000313358
0.000302757
0.000291762
0.000280546
0.00026928
0.000258034
0.000246954
0.000236061
0.000225431
0.000215118
0.000205163
0.000195621
0.000186494
0.000177799
0.000169544
0.000161775
0.000154476
0.000147616
0.00014119
0.000135179
9.82481e-05
0.0001056
0.000113404
0.000121679
0.000130442
0.0001397
0.000149457
0.000159707
0.00017045
0.000181672
0.000193347
0.000205434
0.000217897
0.000230672
0.000243672
0.000256857
0.000270076
0.000283246
0.000296198
0.000308839
0.000321026
0.000332546
0.0003433
0.000353079
0.000361776
0.000369233
0.000375318
0.000379964
0.000383122
0.000384645
0.000384557
0.000382939
0.000379783
0.000375201
0.000369229
0.000362043
0.000353756
0.000344532
0.000334501
0.000323839
0.000312681
0.000301136
0.000289384
0.000277594
0.000265808
0.00025417
0.000242736
0.000231582
0.000220778
0.000210365
0.000200381
0.000190848
0.000181784
0.000173193
0.000165085
0.00015745
0.00015028
0.000143568
0.000137302
9.89555e-05
0.000106621
0.000114763
0.000123399
0.000132544
0.000142209
0.000152398
0.000163112
0.000174344
0.000186079
0.000198291
0.000210945
0.000223995
0.000237376
0.000251006
0.000264804
0.000278654
0.00029245
0.000306045
0.000319314
0.000332096
0.000344185
0.000355453
0.000365714
0.000374834
0.000382657
0.000389044
0.000393902
0.000397178
0.000398754
0.000398648
0.000396919
0.000393578
0.000388735
0.000382444
0.000374866
0.000366134
0.000356406
0.000345838
0.000334601
0.000322851
0.000310733
0.000298407
0.000286014
0.000273645
0.000261418
0.000249423
0.000237733
0.000226413
0.000215509
0.000205058
0.000195085
0.000185605
0.000176627
0.000168151
0.000160175
0.00015269
0.000145687
0.000139151
9.93519e-05
0.000107351