/*--------------------------------*- C++ -*----------------------------------*\
| =========                 |                                                 |
| \\      /  F ield         | OpenFOAM: The Open Source CFD Toolbox           |
|  \\    /   O peration     | Version:  2312                                  |
|   \\  /    A nd           | Website:  www.openfoam.com                      |
|    \\/     M anipulation  |                                                 |
\*---------------------------------------------------------------------------*/
FoamFile
{
    version     2.0;
    format      ascii;
    arch        "LSB;label=32;scalar=64";
    class       surfaceScalarField;
    location    "200";
    object      phi;
}
// * * * * * * * * * * * * * * * * * * * * * * * * * * * * * * * * * * * * * //

dimensions      [0 3 -1 0 0 0 0];

oriented        oriented;

internalField   nonuniform List<scalar> 
116611
(
0.00112431
0.000395166
-0.00110847
-0.000411004
0.00114001
0.00039028
-0.000405982
0.00115554
0.000385027
-0.000400554
0.0011709
0.000379385
-0.000394748
0.00118598
0.000373326
-0.000388406
0.00120114
0.000366842
-0.000381996
0.0012158
0.000359935
-0.0003746
0.00123046
0.000352586
-0.000367246
0.00124477
0.000344769
-0.00035908
0.00125889
0.000336473
-0.000350586
0.00127271
0.000327668
-0.000341495
0.00128634
0.000318358
-0.000331985
0.00129969
0.000308549
-0.000321903
0.00131273
0.000298172
-0.000311209
0.00132558
0.000287276
-0.000300121
0.00133786
0.000275802
-0.000288089
0.00135008
0.000263715
-0.00027593
0.00136175
0.000251063
-0.000262737
0.00137316
0.000237717
-0.000249123
0.00138406
0.000223806
-0.000234707
0.0013947
0.000209166
-0.000219803
0.00140486
0.000193901
-0.000204065
0.00141453
0.000177912
-0.00018758
0.00142381
0.000161246
-0.000170534
0.0014326
0.000143852
-0.000152637
0.00144087
0.000125687
-0.000133958
0.00144872
0.000106731
-0.000114578
0.00145579
8.70351e-05
-9.41085e-05
0.00146257
6.65444e-05
-7.33259e-05
0.00146848
4.51735e-05
-5.10768e-05
0.00147403
2.30995e-05
-2.86514e-05
0.00147867
1.09701e-08
-4.65421e-06
0.00148291
-2.38834e-05
1.96432e-05
0.00148628
-4.86569e-05
4.52833e-05
0.00148908
-7.44056e-05
7.16047e-05
0.00149103
-0.000101009
9.90667e-05
0.00149237
-0.000128611
0.00012727
0.00149294
-0.000157157
0.000156589
0.00149258
-0.000186665
0.00018702
0.0014914
-0.000217221
0.000218405
0.00148939
-0.000248715
0.000250719
0.00148659
-0.000281271
0.000284073
0.00148291
-0.000314841
0.000318521
0.00147816
-0.000349443
0.000354197
0.00147258
-0.000385127
0.000390701
0.00146599
-0.000421857
0.000428454
0.00145852
-0.000459694
0.000467159
0.00144986
-0.000498621
0.000507282
0.00144028
-0.000538645
0.000548228
0.00142961
-0.000579801
0.000590475
0.00141785
-0.000622125
0.000633877
0.00140505
-0.000665586
0.000678384
0.00139114
-0.000710245
0.000724161
0.00137608
-0.000756155
0.000771215
0.00135996
-0.000803318
0.000819439
0.00134281
-0.000851809
0.000868957
0.00132459
-0.000901748
0.000919963
0.00130523
-0.000953082
0.000972442
0.00128449
-0.0010058
0.00102654
0.00126224
-0.0010596
0.00108185
0.00123819
-0.00111419
0.00113824
0.00121177
-0.00116933
0.00119574
0.00118275
-0.00122438
0.00125341
0.0011508
-0.00127885
0.0013108
0.00111584
-0.00133235
0.00136731
0.00107779
-0.00138464
0.00142269
0.00103657
-0.00143543
0.00147666
0.000992014
-0.00148409
0.00152864
-0.00152928
0.00094475
0.00157654
0.00110721
0.000379429
-0.00109147
0.0011228
0.000374689
0.00113824
0.000369589
0.00115351
0.000364113
0.00116862
0.000358222
0.00118352
0.000351936
0.00119822
0.000345232
0.00121272
0.00033809
0.00122699
0.000330504
0.00124102
0.000322444
0.00125478
0.000313901
0.00126827
0.000304866
0.00128151
0.000295318
0.00129444
0.000285241
0.00130707
0.000274644
0.00131939
0.00026348
0.00133136
0.000251747
0.001343
0.000239423
0.00135423
0.00022649
0.0013651
0.00021293
0.00137554
0.000198725
0.00138557
0.000183871
0.00139515
0.000168337
0.00140428
0.000152118
0.00141294
0.00013519
0.00142111
0.000117516
0.00142874
9.91058e-05
0.00143583
7.99404e-05
0.00144238
5.99898e-05
0.00144831
3.92443e-05
0.00145373
1.76869e-05
0.00145846
-4.72293e-06
0.00146256
-2.7979e-05
0.001466
-5.21015e-05
0.00146872
-7.7128e-05
0.00147076
-0.000103051
0.00147206
-0.000129905
0.00147259
-0.000157685
0.00147234
-0.000186422
0.00147127
-0.000216145
0.00146939
-0.000246836
0.00146664
-0.000278525
0.00146301
-0.000311213
0.0014585
-0.000344928
0.00145306
-0.000379687
0.00144668
-0.000415483
0.00143933
-0.00045234
0.00143098
-0.000490273
0.00142164
-0.0005293
0.00141127
-0.00056943
0.00139984
-0.000610698
0.00138737
-0.000653119
0.00137386
-0.000696734
0.0013593
-0.000741598
0.00134373
-0.000787744
0.00132713
-0.00083521
0.00130941
-0.000884022
0.00129044
-0.000934111
0.00126997
-0.000985327
0.00124774
-0.00103737
0.00122344
-0.00108989
0.00119664
-0.00114253
0.00116711
-0.00119485
0.00113471
-0.00124645
0.00109941
-0.00129706
0.00106122
-0.00134645
0.00102011
-0.00139432
0.000976087
-0.00144007
-0.00148238
0.000929193
0.00109071
0.000363834
-0.00107511
0.00110617
0.000359223
0.0011215
0.000354263
0.00113667
0.000348938
0.00115166
0.00034323
0.00116647
0.000337129
0.00118108
0.00033062
0.00119549
0.000323688
0.00120967
0.000316322
0.00122361
0.000308504
0.00123729
0.000300219
0.0012507
0.000291453
0.00126383
0.000282189
0.00127666
0.000272414
0.00128919
0.000262116
0.00130139
0.000251275
0.00131326
0.000239878
0.00132478
0.000227907
0.00133592
0.000215345
0.00134668
0.000202174
0.00135703
0.00018838
0.00136695
0.000173945
0.00137644
0.000158853
0.00138547
0.000143086
0.00139403
0.000126629
0.00140209
0.000109458
0.00140963
9.15625e-05
0.00141665
7.29232e-05
0.00142311
5.35238e-05
0.00142901
3.33461e-05
0.00143433
1.23725e-05
0.00143902
-9.41644e-06
0.00144308
-3.20395e-05
0.00144649
-5.5513e-05
0.00144922
-7.98558e-05
0.00145125
-0.000105083
0.00145255
-0.000131209
0.00145312
-0.00015825
0.00145292
-0.000186223
0.00145192
-0.000215145
0.00145011
-0.000245024
0.00144746
-0.000275874
0.00144395
-0.000307708
0.00143957
-0.000340543
0.00143427
-0.000374392
0.00142806
-0.000409264
0.00142089
-0.000445176
0.00141276
-0.000482145
0.00140365
-0.00052019
0.00139356
-0.000559332
0.00138246
-0.000599601
0.00137037
-0.000641032
0.0013573
-0.000683662
0.00134324
-0.000727535
0.00132817
-0.000772672
0.00131203
-0.000819071
0.00129468
-0.000866678
0.00127593
-0.000915356
0.00125548
-0.000964878
0.00123303
-0.00101493
0.0012083
-0.00106516
0.001181
-0.00111524
0.00115099
-0.00116484
0.00111823
-0.00121369
0.00108273
-0.00126156
0.00104454
-0.00130826
0.00100365
-0.00135344
0.00095993
-0.00139634
-0.0014351
0.000912648
0.00107483
0.000348359
-0.00105936
0.00109018
0.00034388
0.00110538
0.000339062
0.00112042
0.00033389
0.0011353
0.000328351
0.00115
0.000322431
0.0011645
0.000316116
0.0011788
0.000309393
0.00119287
0.000302248
0.00120671
0.000294666
0.0012203
0.000286633
0.00123362
0.000278133
0.00124665
0.000269152
0.00125939
0.000259673
0.00127183
0.000249684
0.00128393
0.000239167
0.0012957
0.000228108
0.00130712
0.000216491
0.00131816
0.000204299
0.00132882
0.000191516
0.00133907
0.000178126
0.00134891
0.000164111
0.00135831
0.000149456
0.00136725
0.000134144
0.00137572
0.000118158
0.0013837
0.000101479
0.00139117
8.40916e-05
0.00139811
6.59788e-05
0.00140451
4.71244e-05
0.00141035
2.75103e-05
0.0014156
7.11972e-06
0.00142025
-1.40658e-05
0.00142428
-3.60651e-05
0.00142766
-5.88943e-05
0.00143037
-8.257e-05
0.0014324
-0.000107109
0.00143371
-0.000132525
0.0014343
-0.000158836
0.00143413
-0.000186055
0.00143318
-0.000214198
0.00143144
-0.000243279
0.00142887
-0.000273309
0.00142547
-0.000304302
0.0014212
-0.000336274
0.00141604
-0.000369238
0.00140999
-0.000403209
0.00140302
-0.000438203
0.00139511
-0.000474242
0.00138627
-0.000511347
0.00137648
-0.000549547
0.00136576
-0.000588875
0.00135409
-0.000629365
0.00134148
-0.000671049
0.00132789
-0.000713943
0.00131325
-0.000758035
0.00129744
-0.000803263
0.00128027
-0.000849504
0.00126148
-0.000896564
0.00124078
-0.000944181
0.00121791
-0.000992057
0.00119264
-0.00103989
0.00116483
-0.00108742
0.00113439
-0.00113441
0.00110136
-0.00118065
0.00106579
-0.00122599
0.00102772
-0.00127019
0.000987119
-0.00131284
0.000943632
-0.00135285
-0.00138733
0.000895858
0.00105959
0.000333001
-0.00104423
0.00107481
0.000328656
0.00108989
0.000323983
0.00110481
0.000318966
0.00111957
0.000313594
0.00113415
0.000307854
0.00114853
0.000301732
0.00116271
0.000295215
0.00117667
0.00028829
0.00119039
0.000280942
0.00120387
0.000273156
0.00121708
0.000264919
0.00123002
0.000256216
0.00124266
0.000247032
0.00125499
0.000237351
0.001267
0.000227158
0.00127867
0.000216437
0.00128999
0.000205174
0.00130094
0.000193351
0.0013115
0.000180953
0.00132166
0.000167965
0.00133141
0.000154368
0.00134071
0.000140148
0.00134957
0.000125288
0.00135796
0.00010977
0.00136586
9.35775e-05
0.00137326
7.66944e-05
0.00138013
5.91038e-05
0.00138647
4.07891e-05
0.00139225
2.17332e-05
0.00139745
1.91942e-06
0.00140205
-1.86702e-05
0.00140604
-4.00536e-05
0.00140939
-6.22469e-05
0.00141209
-8.52663e-05
0.00141411
-0.000109128
0.00141543
-0.000133847
0.00141603
-0.000159438
0.00141589
-0.000185918
0.00141499
-0.000213299
0.00141331
-0.000241597
0.00141083
-0.000270824
0.00140752
-0.000300996
0.00140337
-0.000332127
0.00139837
-0.000364234
0.00139249
-0.000397334
0.00138574
-0.000431447
0.00137809
-0.000466597
0.00136956
-0.000502811
0.00136013
-0.00054012
0.00134981
-0.000578553
0.00133858
-0.000618133
0.0013264
-0.000658868
0.00131319
-0.000700737
0.00129883
-0.000743675
0.00128313
-0.000787567
0.00126587
-0.000832241
0.00124678
-0.000877477
0.00122563
-0.000923025
0.00120221
-0.000968633
0.00117638
-0.00101407
0.00114809
-0.00105913
0.00111733
-0.00110365
0.00108415
-0.00114748
0.00104863
-0.00119046
0.00101079
-0.00123236
0.00097047
-0.00127252
0.000926922
-0.00130931
-0.00133784
0.000877441
0.00104498
0.00031776
-0.00102974
0.00106009
0.00031355
0.00107505
0.000309022
0.00108985
0.000304162
0.00110449
0.000298958
0.00111894
0.000293398
0.0011332
0.000287469
0.00114726
0.000281158
0.0011611
0.000274452
0.0011747
0.000267336
0.00118806
0.000259798
0.00120116
0.000251822
0.00121398
0.000243395
0.00122651
0.000234501
0.00123874
0.000225125
0.00125064
0.000215253
0.00126221
0.000204869
0.00127343
0.000193958
0.00128427
0.000182503
0.00129474
0.000170489
0.0013048
0.0001579
0.00131445
0.000144719
0.00132367
0.000130931
0.00133244
0.000116519
0.00134074
0.000101466
0.00134856
8.57561e-05
0.00135589
6.93727e-05
0.00136269
5.22991e-05
0.00136896
3.45189e-05
0.00137468
1.60154e-05
0.00137983
-3.22783e-06
0.00138438
-2.32288e-05
0.00138834
-4.40044e-05
0.00139166
-6.55708e-05
0.00139434
-8.79439e-05
0.00139635
-0.000111139
0.00139767
-0.000135172
0.00139829
-0.000160058
0.00139819
-0.000185812
0.00139734
-0.000212449
0.00139572
-0.000239983
0.00139333
-0.000268429
0.00139014
-0.000297803
0.00138613
-0.000328122
0.0013813
-0.000359404
0.00137564
-0.000391672
0.00136914
-0.000424947
0.0013618
-0.000459257
0.00135361
-0.000494627
0.00134458
-0.000531082
0.00133466
-0.000568636
0.00132381
-0.000607289
0.00131196
-0.000647009
0.00129895
-0.000687733
0.00128463
-0.000729352
0.00126877
-0.000771712
0.00125116
-0.000814627
0.00123157
-0.000857889
0.00120983
-0.000901287
0.00118582
-0.000944623
0.00115948
-0.000987727
0.00113081
-0.00103045
0.00109985
-0.00107268
0.00106666
-0.00111429
0.00103131
-0.00115511
0.000993758
-0.00119481
0.000953612
-0.00123237
0.000909411
-0.0012651
-0.00128483
0.000856396
0.00103103
0.000302632
-0.0010159
0.00104602
0.000298557
0.00106086
0.000294176
0.00107555
0.000289475
0.00109007
0.000284441
0.0011044
0.000279063
0.00111854
0.000273328
0.00113248
0.000267223
0.0011462
0.000260736
0.00115968
0.000253853
0.00117292
0.000246561
0.00118589
0.000238846
0.00119859
0.000230693
0.00121101
0.000222088
0.00122312
0.000213016
0.0012349
0.000203464
0.00124636
0.000193414
0.00125747
0.000182852
0.00126821
0.000171762
0.00127857
0.000160129
0.00128853
0.000147936
0.00129808
0.000135169
0.0013072
0.000121809
0.00131588
0.000107842
0.00132409
9.32506e-05
0.00133183
7.80189e-05
0.00133907
6.21303e-05
0.00134581
4.55685e-05
0.00135201
2.83171e-05
0.00135766
1.03597e-05
0.00136275
-8.32002e-06
0.00136727
-2.77401e-05
0.00137118
-4.79167e-05
0.00137447
-6.88658e-05
0.00137713
-9.06033e-05
0.00137914
-0.000113145
0.00138047
-0.000136506
0.00138111
-0.000160701
0.00138105
-0.000185747
0.00138026
-0.000211658
0.00137873
-0.000238451
0.00137644
-0.000266141
0.00137338
-0.000294748
0.00136955
-0.000324291
0.00136494
-0.00035479
0.00135954
-0.000386268
0.00135334
-0.00041875
0.00134634
-0.000452258
0.00133852
-0.000486808
0.00132984
-0.000522407
0.00132025
-0.000559044
0.00130965
-0.000596685
0.0012979
-0.000635262
0.00128484
-0.000674673
0.00127028
-0.000714787
0.00125401
-0.000755442
0.00123584
-0.000796466
0.00121564
-0.000837685
0.00119329
-0.000878936
0.00116874
-0.000920073
0.00114198
-0.000960972
0.00111306
-0.00100153
0.00108202
-0.00104165
0.00104895
-0.00108121
0.00101386
-0.00112003
0.000976576
-0.00115752
0.000936204
-0.001192
0.000889931
-0.00121883
-0.00122477
0.000829874
0.00101774
0.00028761
-0.00100271
0.00103262
0.000283674
0.00104735
0.000279442
0.00106193
0.000274901
0.00107633
0.000270039
0.00109055
0.000264844
0.00110457
0.000259305
0.00111839
0.000253408
0.00113198
0.000247141
0.00114534
0.000240492
0.00115846
0.000233447
0.00117131
0.000225992
0.00118389
0.000218113
0.00119618
0.000209797
0.00120817
0.000201029
0.00121984
0.000191793
0.00123118
0.000182076
0.00124217
0.000171862
0.00125279
0.000161135
0.00126304
0.000149881
0.0012729
0.000138082
0.00128234
0.000125724
0.00129136
0.00011279
0.00129994
9.92636e-05
0.00130806
8.51296e-05
0.00131571
7.03712e-05
0.00132287
5.49722e-05
0.00132952
3.89164e-05
0.00133565
2.21875e-05
0.00134124
4.76925e-06
0.00134627
-1.3355e-05
0.00135074
-3.22029e-05
0.00135461
-5.17904e-05
0.00135788
-7.21333e-05
0.00136052
-9.32476e-05
0.00136253
-0.000115149
0.00136387
-0.000137854
0.00136455
-0.000161377
0.00136454
-0.000185736
0.00136383
-0.000210947
0.0013624
-0.000237027
0.00136026
-0.000263996
0.00135738
-0.000291873
0.00135377
-0.000320679
0.00134942
-0.000350435
0.00134431
-0.000381161
0.00133844
-0.000412875
0.00133176
-0.000445585
0.00132425
-0.000479291
0.00131581
-0.000513974
0.00130636
-0.000549593
0.00129576
-0.000586082
0.00128385
-0.000623348
0.00127045
-0.000661276
0.00125539
-0.000699732
0.00123853
-0.000738573
0.00121972
-0.000777656
0.00119888
-0.000816847
0.00117597
-0.000856025
0.00115098
-0.000895084
0.00112394
-0.000933932
0.0010949
-0.000972492
0.00106394
-0.00101068
0.0010311
-0.00104837
0.000996311
-0.00108525
0.000959048
-0.00112026
0.000917458
-0.00115041
0.000866141
-0.00116751
-0.00115106
0.00079243
0.00100512
0.00027269
-0.000990203
0.0010199
0.000268895
0.00103453
0.000264815
0.00104899
0.000260436
0.00106329
0.000255748
0.00107739
0.000250739
0.0010913
0.000245396
0.001105
0.000239709
0.00111848
0.000233665
0.00113172
0.000227251
0.00114471
0.000220453
0.00115744
0.00021326
0.0011699
0.000205656
0.00118207
0.000197629
0.00119393
0.000189163
0.00120548
0.000180245
0.0012167
0.00017086
0.00122757
0.000160992
0.00123807
0.000150627
0.00124821
0.000139749
0.00125795
0.000128341
0.00126728
0.00011639
0.00127619
0.000103878
0.00128467
9.07891e-05
0.00129269
7.71079e-05
0.00130024
6.2818e-05
0.00130731
4.7903e-05
0.00131388
3.23468e-05
0.00131994
1.61331e-05
0.00132546
-7.54158e-07
0.00133044
-1.83323e-05
0.00133485
-3.66184e-05
0.00133869
-5.56285e-05
0.00134194
-7.53787e-05
0.00134457
-9.58854e-05
0.00134659
-0.000117165
0.00134797
-0.000139234
0.0013487
-0.000162109
0.00134877
-0.000185809
0.00134818
-0.00021035
0.0013469
-0.000235753
0.00134494
-0.000262036
0.00134229
-0.00028922
0.00133893
-0.000317321
0.00133485
-0.000346357
0.00133003
-0.000376337
0.00132442
-0.000407265
0.00131797
-0.000439131
0.00131058
-0.00047191
0.00130217
-0.000505558
0.00129259
-0.000540013
0.0012817
-0.000575192
0.00126935
-0.000610996
0.00125538
-0.000647314
0.00123968
-0.00068403
0.00122214
-0.000721029
0.00120268
-0.000758199
0.00118127
-0.000795441
0.00115791
-0.000832664
0.00113262
-0.000869791
0.00110544
-0.000906756
0.00107645
-0.000943494
0.00104569
-0.000979922
0.00101317
-0.00101585
0.000978554
-0.00105063
0.000940583
-0.00108228
0.000895525
-0.00110535
0.000834143
-0.00110613
-0.00105867
0.000741753
0.000993217
0.000257868
-0.000978394
0.0010079
0.000254215
0.00102242
0.000250289
0.00103678
0.000246075
0.00105097
0.000241563
0.00106496
0.000236742
0.00107876
0.000231599
0.00109235
0.000226124
0.00110571
0.000220303
0.00111883
0.000214126
0.00113171
0.000207578
0.00114432
0.000200647
0.00115666
0.00019332
0.0011687
0.000185583
0.00118044
0.000177421
0.00119187
0.00016882
0.00120296
0.000159767
0.00121371
0.000150245
0.0012241
0.00014024
0.00123411
0.000129736
0.00124373
0.000118718
0.00125295
0.00010717
0.00126175
9.5077e-05
0.00127012
8.24218e-05
0.00127804
6.91887e-05
0.0012855
5.53616e-05
0.00129248
4.09241e-05
0.00129896
2.58601e-05
0.00130494
1.01532e-05
0.0013104
-6.21305e-06
0.00131533
-2.32565e-05
0.0013197
-4.09938e-05
0.00132351
-5.94416e-05
0.00132675
-7.86166e-05
0.0013294
-9.85357e-05
0.00133145
-0.000119216
0.0013329
-0.000140676
0.00133372
-0.000162932
0.00133391
-0.000186004
0.00133347
-0.000209909
0.00133238
-0.000234665
0.00133064
-0.00026029
0.00132822
-0.000286798
0.00132509
-0.000314199
0.00132123
-0.000342497
0.00131658
-0.000371688
0.00131108
-0.000401757
0.00130462
-0.000432675
0.00129711
-0.000464399
0.00128842
-0.000496871
0.00127843
-0.000530019
0.001267
-0.000563761
0.00125401
-0.000598006
0.00123936
-0.000632661
0.00122296
-0.000667632
0.00120476
-0.000702831
0.00118473
-0.000738172
0.00116287
-0.000773582
0.0011392
-0.000808994
0.00111377
-0.000844353
0.00108662
-0.000879607
0.00105782
-0.000914697
0.0010274
-0.000949499
0.000995162
-0.000983616
0.000960215
-0.00101569
0.000919779
-0.00104185
0.000866886
-0.00105246
0.000788077
-0.00102732
-0.000941333
0.000670738
0.000982062
0.000243141
-0.000967336
0.000996645
0.000239633
0.00101107
0.000235862
0.00102533
0.000231816
0.00103941
0.000227482
0.0010533
0.00022285
0.00106699
0.000217909
0.00108047
0.000212648
0.00109372
0.000207054
0.00110673
0.000201115
0.00111949
0.000194819
0.00113198
0.000188153
0.0011442
0.000181103
0.00115613
0.000173656
0.00116775
0.000165799
0.00117905
0.000157517
0.00119002
0.000148795
0.00120065
0.000139618
0.00121092
0.000129973
0.00122081
0.000119842
0.00123032
0.000109212
0.00123942
9.80653e-05
0.00124811
8.63869e-05
0.00125637
7.41606e-05
0.00126419
6.13701e-05
0.00127156
4.79992e-05
0.00127845
3.40315e-05
0.00128486
1.94504e-05
0.00129077
4.2394e-06
0.00129618
-1.16187e-05
0.00130106
-2.81419e-05
0.00130542
-4.53475e-05
0.00130923
-6.32524e-05
0.00131249
-8.18742e-05
0.00131518
-0.00010123
0.0013173
-0.000121339
0.00131884
-0.000142217
0.00131979
-0.000163882
0.00132014
-0.000186351
0.00131987
-0.000209639
0.00131897
-0.00023376
0.0013174
-0.000258724
0.00131514
-0.000284534
0.00131213
-0.00031119
0.00130831
-0.000338682
0.00130361
-0.000366991
0.00129794
-0.000396087
0.0012912
-0.00042593
0.00128327
-0.000456469
0.00127404
-0.000487645
0.00126341
-0.000519389
0.00125128
-0.000551629
0.00123757
-0.000584292
0.00122221
-0.000617301
0.00120516
-0.000650585
0.0011864
-0.000684073
0.00116593
-0.000717705
0.00114378
-0.000751423
0.00111996
-0.000785181
0.00109455
-0.000818942
0.00106761
-0.000852661
0.00103916
-0.000886254
0.00100912
-0.000919453
0.000976826
-0.000951326
0.000940142
-0.000979003
0.000893595
-0.000995301
0.000826016
-0.00098488
0.000723276
-0.000924583
-0.00080307
0.000585013
0.000971721
0.000228507
-0.000957088
0.000986209
0.000225145
0.00100054
0.000221532
0.0010147
0.000217654
0.00102868
0.0002135
0.00104247
0.000209061
0.00105606
0.000204324
0.00106943
0.000199278
0.00108257
0.000193912
0.00109547
0.000188214
0.00110812
0.000182171
0.0011205
0.000175771
0.0011326
0.000169001
0.00114441
0.000161847
0.00115592
0.000154295
0.0011671
0.000146331
0.00117796
0.000137941
0.00118847
0.000129109
0.00119862
0.000119822
0.0012084
0.000110063
0.00121779
9.98172e-05
0.00122679
8.90683e-05
0.00123537
7.78004e-05
0.00124354
6.59972e-05
0.00125126
5.36422e-05
0.00125854
4.0719e-05
0.00126537
2.72107e-05
0.00127172
1.31006e-05
0.00127758
-1.62832e-06
0.00128296
-1.69944e-05
0.00128783
-3.30158e-05
0.00129219
-4.97097e-05
0.00129604
-6.70938e-05
0.00129935
-8.51853e-05
0.00130212
-0.000104001
0.00130434
-0.000123558
0.00130599
-0.000143872
0.00130707
-0.000164957
0.00130754
-0.000186824
0.00130738
-0.000209483
0.00130656
-0.000232938
0.00130503
-0.000257191
0.00130273
-0.000282235
0.0012996
-0.000308058
0.00129556
-0.00033464
0.00129052
-0.000361953
0.00128439
-0.000389961
0.00127709
-0.000418623
0.00126851
-0.000447889
0.00125857
-0.000477705
0.00124719
-0.000508014
0.00123432
-0.000538758
0.0012199
-0.000569875
0.00120391
-0.000601308
0.00118633
-0.000633
0.00116715
-0.000664898
0.0011464
-0.000696956
0.00112411
-0.000729136
0.00110034
-0.00076141
0.00107515
-0.00079375
0.00104859
-0.000826097
0.00102058
-0.000858251
0.000990662
-0.00088953
0.000957099
-0.000917763
0.000915393
-0.000937298
0.000856274
-0.000936182
0.000766158
-0.000894765
0.000638201
-0.000796626
-0.000648737
0.000483868
0.000962276
0.000213962
-0.000947731
0.000976674
0.000210748
0.000990913
0.000207293
0.00100498
0.000203585
0.00101887
0.000199614
0.00103256
0.000195368
0.00104605
0.000190836
0.00105932
0.000186008
0.00107236
0.000180872
0.00108516
0.000175417
0.0010977
0.000169629
0.00110997
0.000163497
0.00112197
0.000157006
0.00113367
0.000150145
0.00114506
0.000142899
0.00115614
0.000135253
0.00116689
0.000127195
0.00117729
0.000118707
0.00118734
0.000109776
0.00119701
0.000100386
0.00120631
9.05205e-05
0.00121521
8.01641e-05
0.00122371
6.93002e-05
0.0012318
5.79123e-05
0.00123946
4.59837e-05
0.00124668
3.34974e-05
0.00125345
2.04363e-05
0.00125977
6.78346e-06
0.00126562
-7.47895e-06
0.001271
-2.23697e-05
0.00127589
-3.79062e-05
0.00128028
-5.41051e-05
0.00128417
-7.09831e-05
0.00128754
-8.85556e-05
0.00129038
-0.000106837
0.00129266
-0.000125841
0.00129437
-0.000145578
0.00129547
-0.000166057
0.00129593
-0.000187283
0.0012957
-0.000209257
0.00129474
-0.000231977
0.00129298
-0.000255435
0.00129037
-0.000279619
0.00128682
-0.000304509
0.00128226
-0.000330082
0.00127662
-0.000356308
0.00126981
-0.000383154
0.00126176
-0.00041058
0.00125242
-0.000438543
0.00124171
-0.000467
0.0012296
-0.000495903
0.00121605
-0.000525204
0.00120103
-0.000554856
0.00118453
-0.000584812
0.00116656
-0.000615029
0.00114714
-0.000645471
0.00112629
-0.000676108
0.00110407
-0.000706918
0.00108055
-0.000737889
0.00105578
-0.000768981
0.00102972
-0.000800033
0.00100195
-0.000830487
0.000971035
-0.000858614
0.000933061
-0.000879788
0.000879991
-0.000884228
0.000799364
-0.000855555
0.000681695
-0.000777095
0.000534451
-0.000649381
-0.000495581
0.000381295
0.000953846
0.000199496
-0.00093938
0.000968163
0.000196431
0.00098232
0.000193136
0.000996305
0.0001896
0.00101011
0.000185812
0.00102371
0.00018176
0.00103711
0.000177436
0.0010503
0.000172827
0.00106325
0.000167922
0.00107595
0.00016271
0.0010884
0.000157178
0.00110059
0.000151314
0.00111249
0.000145104
0.0011241
0.000138536
0.0011354
0.000131595
0.00114639
0.000124267
0.00115705
0.000116537
0.00116736
0.000108391
0.00117733
9.98125e-05
0.00118693
9.07865e-05
0.00119615
8.12967e-05
0.00120499
7.13266e-05
0.00121343
6.08598e-05
0.00122146
4.98793e-05
0.00122908
3.83682e-05
0.00123626
2.63096e-05
0.00124301
1.36863e-05
0.00124932
4.81207e-07
0.00125516
-1.33237e-05
0.00126054
-2.77455e-05
0.00126543
-4.27999e-05
0.00126983
-5.85017e-05
0.00127371
-7.48648e-05
0.00127705
-9.19014e-05
0.00127984
-0.000109622
0.00128203
-0.000128035
0.0012836
-0.000147147
0.0012845
-0.000166959
0.00128469
-0.000187473
0.00128412
-0.000208684
0.00128273
-0.000230585
0.00128046
-0.000253164
0.00127724
-0.000276406
0.00127303
-0.000300292
0.00126774
-0.000324798
0.00126133
-0.000349898
0.00125374
-0.00037556
0.00124491
-0.000401753
0.00123481
-0.00042844
0.00122339
-0.000455584
0.00121064
-0.000483147
0.00119652
-0.000511091
0.00118105
-0.000539378
0.00116421
-0.000567975
0.00114603
-0.000596851
0.00112655
-0.000625987
0.00110581
-0.00065537
0.00108389
-0.000684996
0.00106084
-0.000714843
0.00103664
-0.000744775
0.00101088
-0.000774276
0.000982239
-0.000801847
0.000947186
-0.00082356
0.000898426
-0.000831029
0.000824619
-0.000810421
0.000715279
-0.000746214
0.000573026
-0.000634843
0.000416856
-0.000493211
-0.000349749
0.000271024
0.000946623
0.000185092
-0.000932219
0.000960878
0.000182176
0.000974972
0.000179043
0.000988893
0.000175679
0.00100263
0.000172074
0.00101617
0.000168219
0.00102951
0.000164101
0.00104262
0.000159712
0.00105551
0.000155039
0.00106815
0.00015007
0.00108053
0.000144794
0.00109265
0.000139197
0.00110448
0.000133267
0.00111603
0.000126991
0.00112727
0.000120354
0.0011382
0.000113341
0.00114879
0.000105939
0.00115905
9.81321e-05
0.00116896
8.99045e-05
0.00117851
8.12403e-05
0.00118768
7.21235e-05
0.00119647
6.25377e-05
0.00120486
5.24661e-05
0.00121285
4.18922e-05
0.00122042
3.07992e-05
0.00122756
1.91704e-05
0.00123425
6.98953e-06
0.0012405
-5.76009e-06
0.00124627
-1.9095e-05
0.00125155
-3.30295e-05
0.00125633
-4.7577e-05
0.00126058
-6.27496e-05
0.00126427
-7.8558e-05
0.00126738
-9.5011e-05
0.00126987
-0.000112116
0.00127171
-0.000129877
0.00127286
-0.000148296
0.00127328
-0.000167374
0.00127291
-0.000187106
0.00127172
-0.000207488
0.00126964
-0.00022851
0.00126664
-0.00025016
0.00126265
-0.000272422
0.00125764
-0.000295279
0.00125155
-0.000318711
0.00124435
-0.000342692
0.00123598
-0.000367198
0.00122643
-0.000392201
0.00121566
-0.00041767
0.00120365
-0.000443576
0.00119039
-0.000469888
0.00117588
-0.000496577
0.00116012
-0.000523616
0.00114313
-0.000550985
0.00112495
-0.000578672
0.00110564
-0.000606674
0.00108526
-0.000634995
0.00106388
-0.000663618
0.00104146
-0.000692422
0.00101759
-0.000720902
0.000990906
-0.000747593
0.000958035
-0.000768977
0.000912121
-0.000777646
0.000842687
-0.000761594
0.000739426
-0.00070716
0.000602459
-0.000609247
0.000448002
-0.000480387
0.000299781
-0.00034499
-0.000228287
0.000178319
0.00094094
0.000170718
-0.000926566
0.000955164
0.000167952
0.000969227
0.00016498
0.000983117
0.000161788
0.000996824
0.000158368
0.00101033
0.000154708
0.00102364
0.000150799
0.00103672
0.000146629
0.00104957
0.000142188
0.00106218
0.000137463
0.00107453
0.000132444
0.00108661
0.000127116
0.00109841
0.000121468
0.00110991
0.000115485
0.00112111
0.000109155
0.00113199
0.000102461
0.00114254
9.5391e-05
0.00115275
8.79282e-05
0.00116259
8.00575e-05
0.00117207
7.17632e-05
0.00118116
6.30292e-05
0.00118986
5.38395e-05
0.00119815
4.41777e-05
0.00120601
3.40277e-05
0.00121344
2.33734e-05
0.00122041
1.21989e-05
0.00122691
4.887e-07
0.00123293
-1.17726e-05
0.00123843
-2.4599e-05
0.0012434
-3.80029e-05
0.00124782
-5.19958e-05
0.00125166
-6.65879e-05
0.00125489
-8.17876e-05
0.00125748
-9.76017e-05
0.0012594
-0.000114035
0.00126061
-0.00013109
0.00126108
-0.000148767
0.00126077
-0.000167065
0.00125965
-0.000185978
0.00125766
-0.000205501
0.00125477
-0.000225625
0.00125095
-0.000246337
0.00124615
-0.000267624
0.00124035
-0.00028947
0.00123349
-0.000311857
0.00122556
-0.000334763
0.00121653
-0.000358168
0.00120638
-0.000382047
0.00119508
-0.000406376
0.00118264
-0.000431133
0.00116905
-0.000456296
0.00115432
-0.000481846
0.00113847
-0.000507771
0.00112156
-0.000534068
0.00110363
-0.000560744
0.00108477
-0.000587813
0.00106503
-0.000615254
0.00104433
-0.00064292
0.0010222
-0.000670296
0.000997151
-0.000695852
0.000965711
-0.000716152
0.000921243
-0.00072451
0.000853869
-0.000710271
0.000753979
-0.000661705
0.000620669
-0.00057385
0.000467904
-0.000456482
0.000318242
-0.000330725
0.000193697
-0.000220445
-0.000142302
0.000107713
0.000937292
0.000156338
-0.000922912
0.000951522
0.000153722
0.000965589
0.000150913
0.000979481
0.000147896
0.000993186
0.000144662
0.00100669
0.000141202
0.00101999
0.000137505
0.00103306
0.00013356
0.00104589
0.000129357
0.00105847
0.000124884
0.00107078
0.000120129
0.00108282
0.00011508
0.00109456
0.000109725
0.001106
0.000104049
0.00111711
9.80391e-05
0.00112789
9.16815e-05
0.00113832
8.49613e-05
0.00114839
7.78637e-05
0.00115807
7.03733e-05
0.00116736
6.24747e-05
0.00117624
5.41521e-05
0.00118469
4.53897e-05
0.00119269
3.61716e-05
0.00120024
2.64821e-05
0.0012073
1.63056e-05
0.00121388
5.62687e-06
0.00121993
-5.56895e-06
0.00122546
-1.72962e-05
0.00123043
-2.95675e-05
0.00123482
-4.23946e-05
0.00123861
-5.57881e-05
0.00124178
-6.97568e-05
0.0012443
-8.43082e-05
0.00124615
-9.94478e-05
0.00124729
-0.000115179
0.0012477
-0.000131504
0.00124736
-0.000148421
0.00124622
-0.000165929
0.00124427
-0.000184022
0.00124146
-0.000202693
0.00123777
-0.000221934
0.00123316
-0.000241734
0.00122762
-0.000262079
0.00122111
-0.000282957
0.0012136
-0.00030435
0.00120508
-0.000326241
0.00119552
-0.000348613
0.00118492
-0.000371447
0.00117327
-0.000394727
0.00116058
-0.000418438
0.00114685
-0.000442569
0.00113212
-0.000467119
0.00111645
-0.000492094
0.00109989
-0.000517511
0.00108253
-0.000543385
0.00106441
-0.000569688
0.00104538
-0.000596223
0.0010248
-0.000622347
0.00100096
-0.000646453
0.000970071
-0.000664964
0.00092552
-0.000671601
0.000857933
-0.000656922
0.000758691
-0.00061103
0.000627094
-0.000530108
0.000475785
-0.00042254
0.000326
-0.000306697
0.00019909
-0.000203816
0.000108183
-0.000129538
-8.57573e-05
5.16385e-05
0.000936
0.000141949
-0.000921611
0.00095023
0.000139492
0.000964289
0.000136854
0.000978163
0.000134022
0.000991838
0.000130987
0.0010053
0.000127738
0.00101854
0.000124267
0.00103154
0.000120563
0.00104428
0.000116616
0.00105675
0.000112413
0.00106893
0.000107944
0.00108082
0.000103197
0.00109238
9.81582e-05
0.00110362
9.28156e-05
0.0011145
8.71555e-05
0.00112502
8.11637e-05
0.00113515
7.48261e-05
0.00114489
6.81276e-05
0.00115421
6.10532e-05
0.0011631
5.35875e-05
0.00117153
4.57146e-05
0.0011795
3.74189e-05
0.00118699
2.86845e-05
0.00119398