/*--------------------------------*- C++ -*----------------------------------*\
| =========                 |                                                 |
| \\      /  F ield         | OpenFOAM: The Open Source CFD Toolbox           |
|  \\    /   O peration     | Version:  2312                                  |
|   \\  /    A nd           | Website:  www.openfoam.com                      |
|    \\/     M anipulation  |                                                 |
\*---------------------------------------------------------------------------*/
FoamFile
{
    version     2.0;
    format      ascii;
    arch        "LSB;label=32;scalar=64";
    class       volVectorField;
    location    "200";
    object      U;
}
// * * * * * * * * * * * * * * * * * * * * * * * * * * * * * * * * * * * * * //

dimensions      [0 1 -1 0 0 0 0];

internalField   nonuniform List<vector> 
76025
(
(0.0370789 -0.0082513 0)
(0.0372668 -0.00832784 3.15199e-22)
(0.0374562 -0.00839995 0)
(0.0376483 -0.00846903 0)
(0.0378363 -0.00853665 -5.10859e-22)
(0.0380351 -0.0085949 -9.02638e-22)
(0.0382307 -0.00865357 1.52143e-21)
(0.0384317 -0.00870447 -6.28162e-22)
(0.0386319 -0.00875419 -1.76683e-22)
(0.038833 -0.00880029 1.56583e-22)
(0.0390349 -0.00884218 1.21679e-24)
(0.0392398 -0.00887769 3.13943e-22)
(0.0394481 -0.00891189 -4.30257e-22)
(0.039656 -0.00894053 0)
(0.0398695 -0.0089613 5.41836e-23)
(0.0400781 -0.00898573 0)
(0.0402918 -0.0089966 0)
(0.0405046 -0.00901224 0)
(0.0407194 -0.00901642 -2.10089e-23)
(0.0409323 -0.00902319 5.03229e-23)
(0.041147 -0.00901989 7.13403e-23)
(0.0413649 -0.00901445 2.81726e-22)
(0.0415808 -0.00900487 -1.98389e-22)
(0.0417975 -0.00898916 -4.18785e-22)
(0.0420144 -0.00897195 -4.22269e-23)
(0.0422301 -0.00895562 -2.23157e-22)
(0.0424493 -0.00892459 5.93995e-22)
(0.0426643 -0.00889548 -6.33785e-22)
(0.0428817 -0.00885977 2.35694e-22)
(0.0430977 -0.00881651 -2.56884e-22)
(0.0433113 -0.00878041 -2.81827e-22)
(0.0435221 -0.00874233 6.47068e-22)
(0.0437342 -0.00868885 -9.73879e-22)
(0.0439459 -0.008644 -1.92926e-22)
(0.0441559 -0.00858663 9.13861e-22)
(0.0443645 -0.0085352 1.11836e-23)
(0.0445721 -0.00847901 -1.94309e-22)
(0.044781 -0.00841139 1.03428e-22)
(0.0449889 -0.00834971 3.33873e-24)
(0.045192 -0.0082832 -1.65543e-22)
(0.045394 -0.00821929 1.10351e-22)
(0.0455975 -0.00815127 -5.68621e-23)
(0.045801 -0.00807008 1.15502e-22)
(0.0460037 -0.00799935 -2.40157e-22)
(0.0462033 -0.00792252 -2.52065e-22)
(0.0464044 -0.00785129 4.9148e-22)
(0.0466052 -0.00776828 5.18584e-22)
(0.0468076 -0.00769077 -1.57731e-21)
(0.0470083 -0.00761362 1.05174e-21)
(0.047211 -0.0075389 2.83672e-24)
(0.0474161 -0.00746437 -2.73275e-21)
(0.0476233 -0.00738806 -1.09078e-21)
(0.0478338 -0.00731228 1.12295e-21)
(0.0480483 -0.00723897 0)
(0.0482695 -0.00716855 -1.12471e-21)
(0.0485008 -0.00710512 -1.15247e-21)
(0.0487449 -0.00704173 2.34487e-23)
(0.0490022 -0.006984 -1.13568e-21)
(0.0492718 -0.00693292 1.15569e-21)
(0.0495422 -0.00687922 -3.3509e-21)
(0.0498115 -0.00682961 -2.23369e-21)
(0.0500671 -0.00678129 -3.35735e-23)
(0.0502849 -0.00672968 0)
(0.0504511 -0.00667182 5.32359e-21)
(0.0505547 -0.00660753 -2.06239e-21)
(0.0505949 -0.00654516 1.03799e-21)
(0.0505612 -0.0064823 -2.04969e-21)
(0.0504428 -0.00642112 2.09492e-21)
(0.0502323 -0.00634571 4.17321e-21)
(0.0369483 -0.00858402 3.45337e-22)
(0.0371444 -0.00866217 9.47894e-22)
(0.0373426 -0.00873594 -1.27027e-21)
(0.0375433 -0.00880548 0)
(0.0377444 -0.00887208 1.28911e-21)
(0.0379495 -0.00893287 -8.18747e-23)
(0.0381556 -0.00899053 -9.38402e-22)
(0.0383635 -0.00904315 0)
(0.0385733 -0.0090916 7.13119e-25)
(0.0387842 -0.00913586 -1.61639e-22)
(0.0389965 -0.00917595 1.4075e-22)
(0.0392099 -0.00921113 3.20326e-24)
(0.0394244 -0.00924223 0)
(0.0396403 -0.00926879 0)
(0.0398583 -0.00928943 6.43892e-23)
(0.0400763 -0.00930763 -2.00322e-22)
(0.040296 -0.00931944 -6.56902e-24)
(0.0405156 -0.00932849 -6.10655e-23)
(0.0407361 -0.0093319 4.54622e-23)
(0.0409564 -0.00933212 -5.17991e-23)
(0.0411773 -0.00932704 1.04725e-22)
(0.0413981 -0.00931775 -1.78884e-22)
(0.0416188 -0.00930435 2.68302e-22)
(0.0418396 -0.00928608 -4.42465e-22)
(0.0420604 -0.00926385 3.15015e-22)
(0.042281 -0.00923837 5.92244e-22)
(0.0425015 -0.00920737 -4.08207e-22)
(0.0427205 -0.00917369 0)
(0.0429392 -0.00913547 0)
(0.043157 -0.00909396 -2.94765e-22)
(0.0433744 -0.00904817 0)
(0.0435912 -0.00899978 -3.44321e-22)
(0.0438068 -0.00894663 3.65514e-22)
(0.044021 -0.0088918 -5.50903e-22)
(0.044234 -0.00883351 7.71195e-24)
(0.0444458 -0.00877292 -1.98722e-22)
(0.0446568 -0.00870869 0)
(0.0448665 -0.00864209 -4.40433e-22)
(0.0450749 -0.00857483 3.38948e-22)
(0.0452821 -0.00850528 -2.86058e-22)
(0.0454881 -0.0084331 1.77373e-22)
(0.0456935 -0.00835864 -1.75344e-24)
(0.0458979 -0.00828306 6.75249e-23)
(0.0461018 -0.00820779 -6.28425e-23)
(0.0463054 -0.00813016 5.3032e-22)
(0.0465089 -0.00805136 -2.6955e-22)
(0.0467125 -0.00797151 -2.82355e-22)
(0.0469165 -0.0078929 5.44105e-22)
(0.0471212 -0.00781311 1.68464e-21)
(0.0473275 -0.00773321 1.45753e-24)
(0.0475358 -0.00765408 1.71376e-21)
(0.0477468 -0.00757586 -5.86625e-22)
(0.0479625 -0.00749974 -1.76308e-21)
(0.0481847 -0.00742673 1.16329e-21)
(0.0484153 -0.00735631 0)
(0.0486567 -0.00728902 3.57358e-21)
(0.0489101 -0.00722626 2.55699e-23)
(0.0491738 -0.00716805 -1.17007e-21)
(0.0494426 -0.007113 -1.18499e-21)
(0.0497066 -0.00705745 0)
(0.0499551 -0.00699933 1.11625e-21)
(0.0501737 -0.00693821 3.35113e-21)
(0.0503459 -0.00687201 0)
(0.050461 -0.00680041 -2.16762e-21)
(0.0505137 -0.00672448 1.12021e-21)
(0.050502 -0.00664767 -2.16472e-21)
(0.0504219 -0.00657233 1.08897e-21)
(0.0502668 -0.00649566 -2.2423e-21)
(0.0500159 -0.00640334 -2.25491e-21)
(0.0368138 -0.0089368 -1.71177e-21)
(0.037018 -0.00901584 1.04793e-21)
(0.0372251 -0.00909054 -3.16277e-22)
(0.0374347 -0.00916075 1.12858e-21)
(0.0376464 -0.00922673 -1.39756e-21)
(0.03786 -0.0092882 -9.52674e-22)
(0.0380756 -0.0093452 1.17764e-21)
(0.0382929 -0.00939759 0)
(0.0385121 -0.00944531 1.49276e-24)
(0.0387327 -0.00948836 0)
(0.0389545 -0.00952674 -1.36308e-22)
(0.0391773 -0.00956037 1.17493e-22)
(0.0394009 -0.00958921 4.19553e-22)
(0.0396252 -0.00961334 -3.28789e-22)
(0.0398504 -0.00963252 5.12037e-23)
(0.0400765 -0.00964698 5.79603e-23)
(0.0403032 -0.00965665 -2.23973e-23)
(0.0405303 -0.0096616 1.57954e-23)
(0.0407576 -0.00966199 1.55229e-22)
(0.040985 -0.00965765 -1.07989e-22)
(0.0412123 -0.00964877 -9.41283e-23)
(0.0414392 -0.0096353 2.46172e-22)
(0.0416659 -0.00961739 -1.05701e-22)
(0.0418923 -0.00959492 -1.64989e-22)
(0.0421183 -0.0095681 0)
(0.0423435 -0.00953723 2.13048e-22)
(0.0425678 -0.00950231 2.45404e-22)
(0.0427913 -0.00946331 -2.23465e-22)
(0.043014 -0.00942021 0)
(0.0432358 -0.00937347 6.08347e-22)
(0.0434568 -0.00932274 -3.37425e-22)
(0.0436766 -0.00926896 -1.62752e-23)
(0.0438951 -0.00921199 0)
(0.0441123 -0.00915198 1.90203e-22)
(0.0443282 -0.0090892 -6.14537e-22)
(0.0445429 -0.00902362 4.10702e-22)
(0.0447562 -0.0089556 0)
(0.0449682 -0.00888532 3.42018e-22)
(0.0451792 -0.00881288 -3.46715e-22)
(0.0453889 -0.0087385 -5.90163e-23)
(0.0455974 -0.00866213 0)
(0.0458049 -0.00858423 -1.26366e-22)
(0.0460116 -0.00850491 -6.5733e-23)
(0.0462178 -0.00842426 6.5063e-23)
(0.0464235 -0.0083425 -3.97932e-22)
(0.0466289 -0.00826001 -2.78034e-22)
(0.0468345 -0.00817712 5.50327e-22)
(0.0470408 -0.00809406 -5.74067e-22)
(0.0472481 -0.00801101 5.8062e-22)
(0.0474573 -0.00792861 -5.73122e-22)
(0.0476695 -0.0078475 -5.80647e-22)
(0.047886 -0.00776802 1.19934e-21)
(0.0481086 -0.00769079 0)
(0.0483392 -0.00761651 1.21367e-21)
(0.0485793 -0.00754548 -2.81717e-25)
(0.0488297 -0.00747789 -1.21773e-21)
(0.0490891 -0.00741365 -1.21229e-21)
(0.0493528 -0.00735139 2.38357e-21)
(0.0496123 -0.00728923 1.13059e-24)
(0.049856 -0.00722441 1.17515e-21)
(0.0500715 -0.00715473 -2.31361e-21)
(0.0502464 -0.00708 -1.1394e-21)
(0.0503698 -0.0070001 1.73099e-23)
(0.0504352 -0.00691558 -1.09593e-21)
(0.0504398 -0.00682809 -1.08092e-21)
(0.0503832 -0.00673998 -3.34922e-21)
(0.0502622 -0.00665241 0)
(0.0500676 -0.00656007 -1.18548e-21)
(0.049763 -0.00645441 1.20231e-21)
(0.0366778 -0.00930865 0)
(0.0368912 -0.00938849 3.41134e-22)
(0.0371075 -0.00946372 1.55654e-21)
(0.0373262 -0.0095342 -1.23457e-21)
(0.0375473 -0.00960002 -7.79847e-22)
(0.0377705 -0.00966114 1.30274e-21)
(0.0379957 -0.00971745 -2.28531e-22)
(0.0382227 -0.00976888 2.04251e-22)
(0.0384513 -0.0098154 1.83038e-22)
(0.0386814 -0.00985697 5.89153e-22)
(0.0389126 -0.00989355 -5.84362e-22)
(0.0391448 -0.0099251 -4.02212e-22)
(0.0393779 -0.00995157 1.56382e-22)
(0.0396115 -0.00997299 2.61565e-22)
(0.0398457 -0.00998931 -1.45132e-22)
(0.0400802 -0.0100006 1.38601e-23)
(0.040315 -0.0100068 1.01042e-23)
(0.04055 -0.0100081 3.41147e-23)
(0.0407849 -0.0100044 -1.7641e-22)
(0.0410196 -0.00999587 4.6587e-23)
(0.0412539 -0.00998254 9.47138e-23)
(0.0414877 -0.00996443 0)
(0.0417209 -0.00994166 3.32898e-22)
(0.0419534 -0.00991431 -1.54971e-22)
(0.042185 -0.00988252 -4.16786e-22)
(0.0424157 -0.00984648 -4.90366e-22)
(0.0426452 -0.00980622 9.60449e-22)
(0.0428736 -0.0097618 -5.42305e-22)
(0.0431008 -0.00971342 0)
(0.0433268 -0.00966127 -6.43474e-22)
(0.0435514 -0.0096055 -1.98778e-23)
(0.0437746 -0.00954642 7.18229e-22)
(0.0439964 -0.00948416 -3.98857e-22)
(0.0442167 -0.00941886 1.01762e-21)
(0.0444356 -0.0093508 -1.9552e-22)
(0.0446529 -0.00928012 0)
(0.0448687 -0.00920702 0)
(0.0450832 -0.00913164 1.19548e-22)
(0.0452963 -0.00905422 1.1877e-22)
(0.0455081 -0.00897502 6.32316e-23)
(0.0457186 -0.00889414 -2.02599e-24)
(0.0459281 -0.00881175 6.42474e-23)
(0.0461367 -0.00872805 0)
(0.0463447 -0.00864331 -4.09786e-24)
(0.0465523 -0.00855785 0)
(0.0467599 -0.00847184 2.78425e-22)
(0.0469678 -0.00838557 8.33182e-24)
(0.0471768 -0.00829941 -8.75823e-22)
(0.0473877 -0.00821382 0)
(0.0476014 -0.00812926 -6.02794e-22)
(0.0478194 -0.00804631 5.93063e-22)
(0.0480433 -0.0079655 -1.19656e-21)
(0.0482746 -0.00788738 0)
(0.0485146 -0.00781234 -3.67464e-21)
(0.0487635 -0.00774029 -7.76177e-25)
(0.0490196 -0.00767059 1.20462e-21)
(0.0492784 -0.00760209 1.19613e-21)
(0.0495323 -0.00753292 0)
(0.0497711 -0.00746099 0)
(0.0499831 -0.00738422 -1.15483e-21)
(0.0501571 -0.0073014 2.27709e-21)
(0.0502844 -0.00721278 2.24947e-21)
(0.0503583 -0.00711932 0)
(0.0503759 -0.00702242 -2.26859e-21)
(0.0503365 -0.00692396 0)
(0.0502402 -0.00682526 3.44978e-21)
(0.0500823 -0.00672583 -1.18801e-21)
(0.0498472 -0.00661693 -1.25402e-21)
(0.0494737 -0.00648393 -1.3176e-21)
(0.0365404 -0.00970059 0)
(0.0367639 -0.0097811 0)
(0.0369901 -0.00985671 3.26338e-22)
(0.0372186 -0.00992722 -1.15859e-21)
(0.0374494 -0.00999272 1.43289e-21)
(0.0376824 -0.0100532 -2.53112e-22)
(0.0379175 -0.0101085 0)
(0.0381543 -0.0101587 -2.05568e-22)
(0.0383927 -0.0102036 0)
(0.0386324 -0.0102433 -2.87812e-22)
(0.0388733 -0.0102776 5.38178e-23)
(0.0391151 -0.0103066 2.38839e-22)
(0.0393577 -0.0103302 0)
(0.0396008 -0.0103485 -9.25456e-23)
(0.0398442 -0.0103614 2.03423e-22)
(0.0400878 -0.010369 -4.80027e-23)
(0.0403313 -0.0103713 -6.96457e-23)
(0.0405746 -0.0103684 1.99676e-23)
(0.0408176 -0.0103603 -7.03422e-23)
(0.0410601 -0.0103472 8.27336e-23)
(0.0413019 -0.010329 1.30389e-22)
(0.0415429 -0.0103058 -3.96556e-22)
(0.0417829 -0.0102779 -3.26267e-22)
(0.0420218 -0.0102452 0)
(0.0422596 -0.010208 4.49061e-22)
(0.042496 -0.0101663 2.78305e-22)
(0.042731 -0.0101204 -7.56408e-22)
(0.0429646 -0.0100703 2.80148e-22)
(0.0431965 -0.0100163 -6.51769e-22)
(0.0434269 -0.00995842 9.86879e-22)
(0.0436556 -0.00989698 -3.7594e-22)
(0.0438826 -0.00983216 1.98313e-22)
(0.0441079 -0.00976421 0)
(0.0443314 -0.00969332 -2.07024e-22)
(0.0445532 -0.00961971 -2.15549e-22)
(0.0447733 -0.00954357 0)
(0.0449917 -0.0094651 2.40854e-22)
(0.0452085 -0.0093845 -3.67991e-22)
(0.0454238 -0.00930199 2.45411e-22)
(0.0456377 -0.0092178 -1.28701e-22)
(0.0458503 -0.00913209 -2.1661e-24)
(0.0460618 -0.00904506 -1.02834e-22)
(0.0462724 -0.00895696 3.383e-23)
(0.0464826 -0.00886805 1.38208e-22)
(0.0466925 -0.00877861 1.15108e-25)
(0.0469028 -0.00868893 8.66333e-22)
(0.047114 -0.00859936 0)
(0.0473271 -0.00851035 5.88328e-22)
(0.0475431 -0.00842239 -4.44997e-25)
(0.0477634 -0.00833598 -6.00607e-22)
(0.0479893 -0.00825165 0)
(0.0482222 -0.00816982 -6.23152e-22)
(0.0484629 -0.00809068 6.10524e-22)
(0.048711 -0.008014 1.22152e-21)
(0.0489644 -0.00793901 0)
(0.0492186 -0.00786439 -2.44724e-21)
(0.0494667 -0.00778836 2.42513e-21)
(0.0496993 -0.00770898 -2.39707e-21)
(0.0499062 -0.00762455 -2.35836e-23)
(0.0500775 -0.00753396 0)
(0.0502051 -0.0074371 -1.16385e-21)
(0.0502838 -0.00733493 1.13427e-21)
(0.0503104 -0.00722901 1.17569e-21)
(0.0502843 -0.0071211 2.28836e-21)
(0.0502058 -0.00701281 -3.54894e-21)
(0.0500749 -0.00690424 2.41536e-21)
(0.0498823 -0.00679266 -1.25823e-21)
(0.0496003 -0.00666371 1.35428e-21)
(0.0491244 -0.00648866 4.17096e-21)
(0.0364016 -0.0101147 -1.43812e-21)
(0.0366357 -0.0101957 9.6711e-23)
(0.0368725 -0.0102715 1.36619e-21)
(0.0371116 -0.0103418 0)
(0.0373529 -0.0104067 -2.78588e-22)
(0.0375964 -0.0104663 0)
(0.0378418 -0.0105204 4.30833e-22)
(0.0380888 -0.0105689 -5.00553e-23)
(0.0383374 -0.0106118 -5.53702e-22)
(0.0385872 -0.0106492 1.48439e-22)
(0.0388381 -0.0106808 1.29227e-22)
(0.0390898 -0.0107068 9.66506e-23)
(0.0393422 -0.0107271 0)
(0.0395949 -0.0107418 0)
(0.0398477 -0.0107508 -2.93495e-23)
(0.0401005 -0.0107542 -4.3675e-24)
(0.0403531 -0.010752 -7.7402e-23)
(0.0406051 -0.0107444 7.74658e-23)
(0.0408566 -0.0107313 1.54693e-22)
(0.0411072 -0.0107129 -2.29532e-22)
(0.0413568 -0.0106893 4.9539e-22)
(0.0416052 -0.0106606 3.46596e-23)
(0.0418524 -0.010627 -3.48046e-22)
(0.0420981 -0.0105884 -2.12977e-22)
(0.0423423 -0.0105452 -4.83961e-22)
(0.0425847 -0.0104975 4.85805e-22)
(0.0428255 -0.0104454 5.86757e-22)
(0.0430643 -0.0103891 -5.89511e-22)
(0.0433013 -0.0103289 0)
(0.0435362 -0.0102648 0)
(0.0437692 -0.0101972 9.71461e-22)
(0.0440002 -0.0101262 3.38288e-23)
(0.0442291 -0.0100522 -4.11988e-22)
(0.0444559 -0.00997527 -4.52666e-22)
(0.0446808 -0.00989574 4.47307e-22)
(0.0449038 -0.00981379 0)
(0.0451248 -0.00972965 -2.40355e-22)
(0.0453441 -0.00964352 -3.86372e-22)
(0.0455618 -0.00955564 2.54378e-22)
(0.0457779 -0.00946624 -2.41462e-24)
(0.0459928 -0.00937554 -2.17836e-23)
(0.0462067 -0.00928377 1.02604e-22)
(0.0464198 -0.0091912 7.21303e-23)
(0.0466327 -0.00909813 1.46601e-22)
(0.046846 -0.00900488 -7.31552e-22)
(0.0470602 -0.00891181 -2.50158e-26)
(0.0472764 -0.00881936 0)
(0.0474955 -0.00872799 -6.18837e-22)
(0.0477189 -0.00863817 1.85518e-21)
(0.0479476 -0.00855033 -1.24083e-21)
(0.0481828 -0.00846475 -6.30335e-22)
(0.0484246 -0.00838143 -1.53418e-23)
(0.0486723 -0.00829998 -6.30114e-22)
(0.0489232 -0.0082195 -2.66624e-23)
(0.0491728 -0.00813861 1.22434e-21)
(0.0494145 -0.00805555 -1.24107e-21)
(0.0496399 -0.00796857 -1.22497e-21)
(0.04984 -0.00787617 2.3975e-21)
(0.0500064 -0.00777749 -1.27989e-24)
(0.0501321 -0.00767247 1.18304e-21)
(0.0502122 -0.0075619 -1.15659e-21)
(0.0502442 -0.00744724 1.15484e-21)
(0.0502274 -0.00733029 -2.32806e-21)
(0.0501626 -0.00721279 -1.20234e-21)
(0.0500505 -0.00709577 2.41812e-21)
(0.049889 -0.00697759 -1.30974e-21)
(0.0496606 -0.00685193 -4.08414e-21)
(0.0493142 -0.00669511 -1.41746e-21)
(0.0486603 -0.00645976 0)
(0.0362614 -0.0105525 0)
(0.036507 -0.0106339 -3.58042e-22)
(0.0367552 -0.0107097 3.39574e-25)
(0.0370057 -0.0107796 0)
(0.0372583 -0.0108437 0)
(0.037513 -0.0109021 -2.49947e-22)
(0.0377694 -0.0109545 6.47491e-22)
(0.0380274 -0.0110011 -7.95321e-22)
(0.0382868 -0.0110416 3.77083e-22)
(0.0385473 -0.0110762 -1.48965e-22)
(0.0388087 -0.0111047 0)
(0.0390707 -0.0111272 -9.69826e-23)
(0.0393332 -0.0111437 6.08973e-23)
(0.0395958 -0.0111542 0)
(0.0398584 -0.0111587 0)
(0.0401207 -0.0111573 3.18182e-23)
(0.0403825 -0.0111501 5.24583e-23)
(0.0406436 -0.0111371 -1.03893e-22)
(0.0409037 -0.0111185 -1.93345e-22)
(0.0411627 -0.0110943 2.08801e-22)
(0.0414204 -0.0110647 1.35903e-22)
(0.0416765 -0.0110298 7.05794e-22)
(0.041931 -0.0109898 2.70108e-23)
(0.0421837 -0.0109448 -2.56012e-22)
(0.0424345 -0.010895 4.70877e-22)
(0.0426832 -0.0108406 -2.89027e-22)
(0.0429298 -0.0107818 5.76191e-22)
(0.0431741 -0.0107188 0)
(0.0434162 -0.0106518 0)
(0.0436559 -0.010581 0)
(0.0438932 -0.0105067 -1.97277e-22)
(0.0441283 -0.0104291 -4.25124e-22)
(0.0443609 -0.0103486 4.31035e-22)
(0.0445913 -0.0102653 4.71721e-22)
(0.0448194 -0.0101795 -4.66199e-22)
(0.0450453 -0.0100914 0)
(0.0452693 -0.0100013 2.59609e-22)
(0.0454913 -0.00990938 -1.28128e-22)
(0.0457116 -0.00981595 0)
(0.0459305 -0.00972122 1.37594e-22)
(0.0461482 -0.00962548 -2.64898e-23)
(0.0463651 -0.00952899 1.76239e-23)
(0.0465817 -0.00943207 -7.18063e-23)
(0.0467987 -0.00933507 0)
(0.0470168 -0.00923837 -3.05352e-22)
(0.0472369 -0.00914238 3.00733e-22)
(0.04746 -0.00904754 0)
(0.0476873 -0.00895424 -1.64439e-23)
(0.0479195 -0.00886279 6.18899e-25)
(0.0481574 -0.00877329 6.21006e-22)
(0.0484005 -0.00868557 0)
(0.0486476 -0.00859904 -1.62868e-23)
(0.0488957 -0.00851267 -6.20411e-22)
(0.04914 -0.00842506 -1.89377e-21)
(0.0493744 -0.00833457 -2.81413e-23)
(0.0495915 -0.0082396 1.21218e-21)
(0.0497834 -0.00813891 0)
(0.0499429 -0.00803183 0)
(0.0500642 -0.00791841 1.20435e-21)
(0.0501432 -0.00779943 0)
(0.0501775 -0.00767623 0)
(0.0501668 -0.00755055 -4.22794e-24)
(0.0501118 -0.00742416 -1.20808e-21)
(0.0500138 -0.00729852 -2.51876e-21)
(0.0498732 -0.0071736 2.59819e-21)
(0.0496831 -0.0070452 -5.26245e-23)
(0.0494095 -0.00690106 1.42449e-21)
(0.0489544 -0.00670387 1.55801e-21)
(0.0479836 -0.0063742 0)
(0.03612 -0.011016 0)
(0.0363779 -0.0110977 3.58638e-22)
(0.0366385 -0.0111732 -9.67816e-22)
(0.0369012 -0.0112424 3.32193e-22)
(0.0371659 -0.0113054 0)
(0.0374326 -0.0113622 7.20452e-22)
(0.037701 -0.0114128 -1.10703e-21)
(0.0379707 -0.0114569 5.45729e-23)
(0.0382416 -0.0114947 8.31805e-22)
(0.0385135 -0.011526 -1.70486e-22)
(0.0387861 -0.0115509 1.05017e-22)
(0.039059 -0.0115694 7.70045e-23)
(0.0393322 -0.0115815 -1.44952e-22)
(0.0396053 -0.0115873 1.13203e-22)
(0.0398781 -0.0115867 -2.92797e-23)
(0.0401504 -0.0115799 -6.00219e-23)
(0.0404218 -0.011567 2.13342e-22)
(0.0406922 -0.0115481 -4.45415e-23)
(0.0409613 -0.0115232 1.42047e-22)
(0.0412289 -0.0114925 -9.05737e-23)
(0.0414949 -0.0114563 5.30934e-23)
(0.0417589 -0.0114145 -1.12913e-21)
(0.042021 -0.0113675 -2.5793e-22)
(0.0422808 -0.0113153 -5.20641e-23)
(0.0425383 -0.0112583 7.89668e-22)
(0.0427934 -0.0111966 -2.84749e-22)
(0.043046 -0.0111305 6.68377e-22)
(0.0432959 -0.0110602 -1.03137e-21)
(0.0435432 -0.0109858 0)
(0.0437877 -0.0109078 -4.14354e-22)
(0.0440296 -0.0108263 4.1239e-22)
(0.0442688 -0.0107416 1.17187e-23)
(0.0445054 -0.0106541 -2.37345e-22)
(0.0447394 -0.010564 -2.46071e-22)
(0.0449709 -0.0104716 7.61944e-22)
(0.0452002 -0.0103771 -5.0159e-22)
(0.0454273 -0.0102808 4.03758e-22)
(0.0456525 -0.0101829 -5.4152e-22)
(0.0458761 -0.0100838 2.7243e-22)
(0.0460984 -0.0099838 -6.96278e-23)
(0.0463199 -0.00988312 0)
(0.0465412 -0.00978214 7.4845e-23)
(0.0467628 -0.00968121 -7.37917e-23)
(0.0469857 -0.00958073 -1.54199e-22)
(0.0472106 -0.00948108 4.63959e-22)
(0.0474385 -0.00938263 -3.08047e-22)
(0.0476703 -0.00928568 -3.0983e-22)
(0.0479064 -0.00919036 0)
(0.048147 -0.0090966 -1.28554e-21)
(0.0483911 -0.009004 1.27032e-21)
(0.0486369 -0.00891182 -6.25418e-22)
(0.0488811 -0.00881893 6.10601e-22)
(0.049119 -0.00872395 6.24062e-22)
(0.0493449 -0.00862539 1.2337e-21)
(0.0495523 -0.00852189 1.22175e-21)
(0.0497344 -0.00841245 0)
(0.0498853 -0.00829662 -1.22963e-21)
(0.0500002 -0.00817455 0)
(0.0500757 -0.00804704 2.31261e-23)
(0.05011 -0.00791535 -1.19248e-21)
(0.0501026 -0.00778111 1.20834e-21)
(0.0500543 -0.00764606 1.22641e-21)
(0.0499668 -0.0075118 -1.28661e-21)
(0.0498414 -0.00737918 -2.07086e-23)
(0.0496763 -0.00724645 5.36659e-24)
(0.0494534 -0.00710521 4.41884e-21)
(0.0491064 -0.00693336 1.60152e-21)
(0.048443 -0.00667137 1.72848e-21)
(0.0468967 -0.00619121 -1.89231e-21)
(0.0359772 -0.0115074 0)
(0.0362486 -0.011589 0)
(0.0365224 -0.0116641 -6.31364e-22)
(0.0367984 -0.0117324 9.31988e-22)
(0.0370762 -0.011794 2.6904e-22)
(0.0373559 -0.0118489 0)
(0.037637 -0.0118971 0)
(0.0379194 -0.0119384 -1.80781e-22)
(0.0382028 -0.0119729 2.85428e-22)
(0.0384869 -0.0120005 -6.77003e-23)
(0.0387714 -0.0120213 -5.03735e-22)
(0.0390561 -0.0120352 9.3813e-23)
(0.0393407 -0.0120424 -2.21508e-23)
(0.0396249 -0.0120428 5.72021e-23)
(0.0399085 -0.0120365 2.24232e-23)
(0.0401912 -0.0120237 0)
(0.0404727 -0.0120044 0)
(0.0407528 -0.0119787 2.61015e-23)
(0.0410313 -0.0119469 -3.58929e-22)
(0.0413079 -0.0119091 1.43774e-22)
(0.0415825 -0.0118654 -1.91648e-22)
(0.0418547 -0.011816 1.97976e-22)
(0.0421246 -0.0117613 2.49955e-22)
(0.0423918 -0.0117013 -2.23628e-22)
(0.0426562 -0.0116364 -2.78694e-22)
(0.0429178 -0.0115667 0)
(0.0431765 -0.0114926 0)
(0.0434322 -0.0114142 5.50834e-22)
(0.0436848 -0.011332 0)
(0.0439344 -0.0112461 4.36738e-22)
(0.0441809 -0.0111569 -4.32805e-22)
(0.0444245 -0.0110647 -2.26163e-22)
(0.0446652 -0.0109698 2.35268e-22)
(0.0449032 -0.0108726 5.00256e-22)
(0.0451386 -0.0107732 -2.52149e-22)
(0.0453716 -0.010672 -2.70983e-22)
(0.0456025 -0.0105694 2.73694e-22)
(0.0458317 -0.0104656 0)
(0.0460596 -0.0103609 0)
(0.0462866 -0.0102558 7.45007e-23)
(0.0465135 -0.0101505 0)
(0.0467408 -0.0100455 0)
(0.0469694 -0.00994099 -2.33564e-22)
(0.0472 -0.00983746 3.11004e-22)
(0.0474333 -0.00973512 -1.59498e-22)
(0.0476698 -0.00963412 3.11163e-22)
(0.0479097 -0.00953442 0)
(0.0481523 -0.00943573 9.69371e-22)
(0.0483964 -0.00933747 -1.65693e-24)
(0.0486395 -0.00923875 0)
(0.0488783 -0.00913842 -1.27125e-21)
(0.0491082 -0.0090352 -2.48824e-24)
(0.0493239 -0.00892778 -1.24007e-21)
(0.0495199 -0.00881507 -6.30893e-22)
(0.0496907 -0.00869635 -1.24681e-21)
(0.0498314 -0.00857137 1.21563e-21)
(0.0499381 -0.00844039 1.20751e-21)
(0.0500083 -0.00830422 0)
(0.0500403 -0.00816403 -1.23665e-21)
(0.0500341 -0.00802136 3.8243e-24)
(0.0499903 -0.00787786 0)
(0.0499107 -0.0077351 0)
(0.0497969 -0.00759429 1.33207e-21)
(0.0496495 -0.00745513 0)
(0.0494597 -0.00731278 0)
(0.0491851 -0.00715157 -1.60506e-21)
(0.0486933 -0.00693213 -1.69767e-21)
(0.0476201 -0.00655941 -1.94149e-21)
(0.0450915 -0.00588111 0)
(0.0358335 -0.0120292 0)
(0.0361193 -0.0121107 0)
(0.0364076 -0.0121849 0)
(0.0366978 -0.012252 2.91994e-22)
(0.0369898 -0.0123118 2.33164e-22)
(0.0372835 -0.0123644 -5.88926e-23)
(0.0375785 -0.0124098 -4.40465e-22)
(0.0378745 -0.0124479 1.80232e-22)
(0.0381712 -0.0124786 -1.39192e-22)
(0.0384684 -0.012502 -2.30733e-22)
(0.0387658 -0.012518 0)
(0.039063 -0.0125268 0)
(0.0393599 -0.0125283 -2.76091e-23)
(0.039656 -0.0125227 -1.51035e-23)
(0.0399511 -0.01251 -1.53055e-22)
(0.0402449 -0.0124903 -5.76473e-23)
(0.0405372 -0.0124639 1.47796e-22)
(0.0408276 -0.0124308 1.07274e-22)
(0.041116 -0.0123913 -2.16436e-23)
(0.0414021 -0.0123454 0)
(0.0416856 -0.0122936 4.04783e-22)
(0.0419664 -0.0122359 0)
(0.0422443 -0.0121726 5.16008e-22)
(0.0425192 -0.012104 -8.69202e-22)
(0.0427909 -0.0120304 9.23227e-22)
(0.0430593 -0.011952 3.5325e-22)
(0.0433243 -0.0118692 -5.69827e-22)
(0.0435859 -0.0117823 5.96624e-22)
(0.0438442 -0.0116915 -4.07943e-22)
(0.044099 -0.0115972 0)
(0.0443506 -0.0114998 -4.77862e-22)
(0.044599 -0.0113997 -2.73035e-22)
(0.0448443 -0.0112971 4.90664e-22)
(0.0450868 -0.0111924 -5.19766e-22)
(0.0453267 -0.0110859 2.72802e-22)
(0.0455644 -0.0109781 -2.69505e-22)
(0.0458003 -0.0108692 -1.37861e-22)
(0.0460348 -0.0107596 1.47379e-22)
(0.0462685 -0.0106497 7.43029e-23)
(0.046502 -0.0105398 -2.20776e-22)
(0.046736 -0.0104304 -1.9406e-23)
(0.046971 -0.0103216 0)
(0.0472078 -0.0102137 7.66724e-23)
(0.0474466 -0.0101069 -1.54887e-22)
(0.0476875 -0.0100012 1.5609e-22)
(0.0479301 -0.00989616 0)
(0.0481735 -0.00979147 0)
(0.0484156 -0.00968635 3.3206e-22)
(0.048654 -0.00957987 -6.31651e-22)
(0.0488851 -0.00947091 -1.28979e-21)
(0.0491048 -0.00935835 2.53394e-21)
(0.0493085 -0.00924115 -6.37936e-22)
(0.0494914 -0.0091185 6.19268e-22)
(0.0496493 -0.00898993 6.13747e-22)
(0.0497783 -0.00885539 -1.2495e-21)
(0.0498755 -0.00871527 1.22487e-21)
(0.0499387 -0.00857033 0)
(0.0499669 -0.00842169 -1.2626e-21)
(0.0499601 -0.00827075 5.87412e-24)
(0.049919 -0.00811903 1.27813e-21)
(0.0498453 -0.00796806 0)
(0.0497411 -0.00781908 0)
(0.0496076 -0.00767249 0)
(0.0494414 -0.00752558 3.07754e-21)
(0.0492153 -0.00736769 1.67685e-21)
(0.0488353 -0.00716939 1.7733e-21)
(0.0480381 -0.00686337 -3.84148e-21)
(0.046185 -0.00631987 -4.56004e-23)
(0.0421774 -0.00542765 2.4983e-21)
(0.0356896 -0.0125848 0)
(0.035991 -0.0126657 6.68496e-22)
(0.0362948 -0.0127388 -8.23917e-22)
(0.0366004 -0.0128042 3.94674e-22)
(0.0369077 -0.0128618 -7.93032e-22)
(0.0372165 -0.0129117 -2.18909e-22)
(0.0375264 -0.0129538 -1.8721e-22)
(0.0378371 -0.012988 0)
(0.0381483 -0.0130144 2.62487e-22)
(0.0384597 -0.0130329 1.87679e-22)
(0.0387709 -0.0130435 -1.72043e-22)
(0.0390817 -0.0130464 3.06564e-23)
(0.0393916 -0.0130416 2.83785e-23)
(0.0397005 -0.0130292 4.9003e-23)
(0.040008 -0.0130093 -2.19577e-22)
(0.0403137 -0.0129821 -5.90897e-23)
(0.0406174 -0.0129477 -5.86038e-23)
(0.0409189 -0.0129064 2.4685e-22)
(0.0412178 -0.0128582 1.5583e-22)
(0.0415139 -0.0128036 4.19719e-22)
(0.041807 -0.0127427 -3.94445e-22)
(0.0420969 -0.0126758 0)
(0.0423834 -0.0126032 2.68857e-23)
(0.0426663 -0.0125252 0)
(0.0429457 -0.0124422 -3.22927e-22)
(0.0432213 -0.0123544 -3.50087e-22)
(0.0434931 -0.0122622 1.88536e-22)
(0.0437612 -0.0121661 0)
(0.0440255 -0.0120662 2.29951e-22)
(0.0442862 -0.0119631 4.79415e-22)
(0.0445434 -0.0118571 -4.74215e-22)
(0.0447973 -0.0117487 2.45454e-22)
(0.0450482 -0.0116382 -5.32806e-22)
(0.0452963 -0.011526 1.06298e-21)
(0.045542 -0.0114125 -2.70933e-22)
(0.0457858 -0.0112982 0)
(0.0460281 -0.0111833 -1.48391e-22)
(0.0462696 -0.0110682 6.61245e-24)
(0.0465107 -0.0109533 2.26411e-22)
(0.0467519 -0.0108389 -1.89181e-22)
(0.0469938 -0.0107251 3.73525e-23)
(0.0472365 -0.0106121 -1.19205e-22)
(0.04748 -0.0104998 7.78555e-23)
(0.047724 -0.010388 0)
(0.0479676 -0.0102763 0)
(0.0482092 -0.010164 0)
(0.0484468 -0.0100504 3.25232e-22)
(0.0486776 -0.0099346 3.24516e-22)
(0.0488983 -0.00981559 0)
(0.0491054 -0.00969248 6.27806e-22)
(0.0492949 -0.00956451 6.42949e-22)
(0.0494632 -0.00943116 6.37143e-22)
(0.0496068 -0.00929221 0)
(0.0497229 -0.00914778 0)
(0.0498092 -0.00899831 -1.26067e-21)
(0.0498643 -0.00884457 1.24464e-21)
(0.0498874 -0.00868759 0)
(0.0498786 -0.00852861 1.27117e-21)
(0.0498388 -0.00836902 -1.29971e-21)
(0.0497697 -0.00821027 -1.37067e-21)
(0.0496736 -0.00805356 1.41587e-21)
(0.0495523 -0.00789946 -1.465e-21)
(0.0494045 -0.0077466 0)
(0.049214 -0.00758731 -1.65752e-21)
(0.0489112 -0.00739968 2.80683e-23)
(0.0482973 -0.00712905 -3.95475e-21)
(0.0468835 -0.00667445 -4.3991e-21)
(0.0437443 -0.00588702 4.94428e-21)
(0.037983 -0.00480214 -2.81818e-21)
(0.035547 -0.0131778 1.79432e-22)
(0.0358651 -0.0132577 0)
(0.0361856 -0.0133294 1.55656e-22)
(0.0365078 -0.0133927 -6.59313e-22)
(0.0368317 -0.0134476 1.10312e-21)
(0.0371567 -0.0134943 -2.37216e-22)
(0.0374828 -0.0135325 1.85397e-22)
(0.0378093 -0.0135623 -2.62883e-22)
(0.0381361 -0.0135836 1.39491e-22)
(0.0384628 -0.0135966 9.19074e-23)
(0.038789 -0.0136011 4.1707e-23)
(0.0391143 -0.0135974 -4.15798e-23)
(0.0394385 -0.0135855 3.29408e-23)
(0.0397611 -0.0135655 1.65005e-22)
(0.0400819 -0.0135375 1.21336e-22)
(0.0404005 -0.0135018 6.032e-23)
(0.0407166 -0.0134586 -2.32948e-22)
(0.0410299 -0.0134081 0)
(0.0413401 -0.0133505 0)
(0.0416471 -0.0132862 -2.34684e-22)
(0.0419505 -0.0132154 -2.35324e-22)
(0.0422502 -0.0131385 -5.81708e-22)
(0.042546 -0.0130557 2.90983e-22)
(0.0428378 -0.0129676 6.92893e-22)
(0.0431255 -0.0128744 -6.93991e-22)
(0.043409 -0.0127765 2.02126e-22)
(0.0436885 -0.0126744 2.15669e-22)
(0.0439638 -0.0125685 0)
(0.0442352 -0.0124591 -2.26225e-22)
(0.0445028 -0.0123468 -4.99599e-22)
(0.0447668 -0.0122321 -2.35786e-23)
(0.0450274 -0.0121153 5.11705e-22)
(0.0452851 -0.0119969 -2.77738e-22)
(0.0455403 -0.0118773 0)
(0.0457932 -0.0117569 1.45935e-22)
(0.0460445 -0.0116361 -1.49016e-22)
(0.0462945 -0.0115152 1.44698e-22)
(0.0465436 -0.0113944 -3.01541e-22)
(0.0467921 -0.011274 0)
(0.0470401 -0.011154 -3.95432e-23)
(0.0472875 -0.0110343 3.91011e-23)
(0.0475339 -0.0109148 -6.12331e-23)
(0.0477784 -0.010795 2.38502e-22)
(0.0480197 -0.0106745 -4.78654e-22)
(0.0482563 -0.0105526 3.1464e-22)
(0.0484858 -0.0104285 3.21983e-22)
(0.0487057 -0.0103016 -3.03611e-22)
(0.0489132 -0.010171 6.51683e-22)
(0.0491051 -0.0100361 -6.26079e-22)
(0.0492786 -0.00989639 -1.57882e-21)
(0.0494307 -0.00975168 3.093e-24)
(0.0495589 -0.00960191 -6.19679e-22)
(0.0496612 -0.00944734 0)
(0.0497359 -0.00928845 0)
(0.0497819 -0.00912597 -1.28424e-21)
(0.0497991 -0.00896082 1.92484e-21)
(0.0497874 -0.00879413 -1.3018e-21)
(0.049748 -0.00862713 0)
(0.0496825 -0.00846115 1.40509e-21)
(0.0495934 -0.00829735 2.87722e-21)
(0.0494833 -0.00813633 -1.49498e-21)
(0.0493518 -0.00797723 -1.99525e-23)
(0.0491882 -0.0078146 1.70746e-21)
(0.0489416 -0.00763118 -1.19183e-23)
(0.0484511 -0.00738335 -4.04522e-21)
(0.047332 -0.00698197 4.40217e-21)
(0.0448071 -0.00630373 2.47612e-21)
(0.039937 -0.00524639 0)
(0.0326008 -0.00405026 0)
(0.0354074 -0.0138128 -1.76668e-22)
(0.0357436 -0.0138915 -7.81788e-22)
(0.0360822 -0.0139613 6.19659e-22)
(0.0364224 -0.014022 0)
(0.0367641 -0.0140738 1.16686e-22)
(0.0371068 -0.0141166 3.55564e-22)
(0.0374503 -0.0141504 -2.79095e-22)
(0.0377941 -0.0141751 2.83154e-22)
(0.0381378 -0.0141908 -2.2378e-22)
(0.038481 -0.0141974 0)
(0.0388235 -0.0141951 -3.17646e-23)
(0.0391647 -0.0141839 0)
(0.0395043 -0.0141641 7.52203e-23)
(0.0398419 -0.0141356 -1.48819e-22)
(0.0401772 -0.0140987 0)
(0.0405099 -0.0140537 0)
(0.0408395 -0.0140008 0)
(0.0411658 -0.0139402 -3.01013e-22)
(0.0414885 -0.0138723 4.02066e-22)
(0.0418074 -0.0137974 2.30912e-22)
(0.0421223 -0.0137159 0)
(0.0424329 -0.0136281 0)
(0.0427391 -0.0135345 0)
(0.0430408 -0.0134355 -9.30965e-22)
(0.0433381 -0.0133315 1.14224e-21)
(0.0436308 -0.013223 -5.97136e-22)
(0.0439191 -0.0131105 -4.39595e-22)
(0.044203 -0.0129944 4.76744e-22)
(0.0444828 -0.0128752 -4.75379e-22)
(0.0447586 -0.0127534 2.62066e-22)
(0.0450307 -0.0126297 -5.348e-22)