/*--------------------------------*- C++ -*----------------------------------*\
| =========                 |                                                 |
| \\      /  F ield         | OpenFOAM: The Open Source CFD Toolbox           |
|  \\    /   O peration     | Version:  2312                                  |
|   \\  /    A nd           | Website:  www.openfoam.com                      |
|    \\/     M anipulation  |                                                 |
\*---------------------------------------------------------------------------*/
FoamFile
{
    version     2.0;
    format      ascii;
    arch        "LSB;label=32;scalar=64";
    class       volScalarField;
    location    "200";
    object      epsilon;
}
// * * * * * * * * * * * * * * * * * * * * * * * * * * * * * * * * * * * * * //

dimensions      [0 2 -3 0 0 0 0];

internalField   nonuniform List<scalar> 
76025
(
0.000253093
0.000252328
0.00025155
0.000250812
0.000250071
0.000249412
0.000248692
0.00024806
0.000247326
0.000246642
0.000245885
0.000245177
0.000244393
0.000243659
0.000242884
0.000242194
0.000241429
0.000240788
0.000239995
0.000239327
0.000238619
0.000237931
0.000237226
0.000236552
0.000235896
0.000235215
0.000234676
0.000234006
0.000233455
0.000232896
0.000232284
0.000231732
0.000231283
0.000230797
0.000230411
0.000229942
0.000229671
0.000229397
0.000229206
0.000229084
0.000228969
0.000229217
0.000229188
0.000229339
0.000229415
0.000229843
0.00023002
0.00023062
0.000230997
0.000232042
0.000232714
0.000234479
0.000235501
0.000238112
0.000239757
0.000243715
0.000246153
0.000252084
0.000255842
0.000264915
0.00027028
0.0002834
0.000292782
0.000315053
0.000332643
0.000374687
0.000412234
0.000505036
0.00059724
0.000255241
0.000254626
0.000253926
0.000253232
0.000252448
0.000251754
0.000250994
0.000250311
0.000249602
0.000248932
0.00024823
0.000247563
0.000246867
0.000246181
0.000245505
0.000244817
0.000244144
0.000243471
0.000242813
0.000242135
0.000241488
0.000240832
0.000240202
0.000239563
0.000238976
0.000238356
0.000237796
0.000237233
0.000236696
0.000236201
0.00023574
0.000235277
0.000234875
0.000234485
0.000234143
0.00023383
0.000233596
0.000233345
0.000233274
0.000233189
0.000233365
0.000233348
0.000233491
0.000233565
0.000233942
0.00023425
0.000234936
0.000235583
0.00023661
0.000237823
0.000239175
0.000241306
0.000242973
0.000246454
0.000248671
0.000253817
0.000257011
0.000264343
0.000269055
0.000279697
0.000287045
0.000303707
0.000316209
0.000344304
0.000369072
0.000425673
0.000486581
0.000623174
0.000783992
0.000257434
0.000257036
0.000256545
0.000256038
0.000255429
0.00025481
0.000254134
0.000253457
0.000252765
0.000252084
0.0002514
0.000250722
0.000250057
0.000249382
0.000248736
0.000248084
0.000247456
0.000246823
0.000246213
0.000245598
0.000245003
0.000244405
0.00024383
0.000243258
0.000242716
0.000242182
0.000241668
0.000241174
0.000240706
0.000240266
0.000239869
0.000239488
0.000239165
0.000238838
0.000238618
0.000238359
0.000238309
0.000238333
0.00023829
0.000238333
0.000238437
0.000238639
0.000238951
0.000239352
0.000239964
0.00024059
0.000241619
0.000242519
0.000244106
0.00024543
0.000247661
0.000249766
0.000252548
0.000256129
0.000259246
0.000265118
0.00026895
0.000277702
0.000283418
0.000296457
0.000305628
0.000326418
0.000342699
0.000379869
0.000414408
0.000495635
0.000580903
0.000764716
0.000989179
0.000260015
0.000259707
0.000259368
0.000259021
0.000258625
0.00025819
0.000257705
0.00025718
0.000256618
0.000256028
0.00025542
0.000254795
0.00025417
0.000253536
0.00025291
0.000252286
0.000251677
0.000251074
0.000250488
0.000249911
0.000249352
0.000248803
0.000248275
0.000247761
0.00024727
0.000246798
0.000246352
0.000245923
0.000245543
0.000245163
0.000244867
0.000244545
0.000244341
0.000244083
0.000244061
0.000244084
0.000244012
0.000244049
0.000244166
0.0002444
0.000244679
0.00024511
0.000245594
0.000246278
0.000247061
0.000248064
0.000249293
0.000250667
0.000252554
0.000254352
0.000257166
0.000259556
0.000263484
0.000267065
0.000271947
0.000278157
0.00028363
0.000294309
0.000301579
0.000318169
0.000330154
0.00035734
0.00037974
0.000431425
0.000481206
0.000598891
0.000721118
0.000972267
0.00130782
0.000263658
0.000263282
0.00026293
0.000262603
0.000262283
0.000261959
0.000261618
0.000261254
0.000260862
0.000260437
0.000259985
0.000259504
0.000259003
0.000258482
0.000257951
0.000257411
0.000256871
0.000256332
0.000255801
0.000255278
0.000254767
0.000254273
0.000253794
0.000253338
0.000252904
0.00025249
0.00025212
0.000251751
0.000251465
0.000251151
0.00025096
0.000250721
0.000250721
0.000250655
0.000250743
0.000250806
0.000250918
0.000251108
0.000251375
0.000251757
0.000252223
0.000252865
0.000253589
0.000254571
0.00025563
0.000257045
0.000258555
0.000260504
0.000262666
0.000265237
0.000268403
0.000271685
0.00027638
0.000280651
0.000287375
0.0002938
0.000302415
0.000314133
0.000324206
0.000345458
0.000361416
0.000397849
0.000429588
0.000503594
0.000575897
0.000747761
0.000915347
0.00126672
0.00170961
0.00026882
0.000268345
0.000267905
0.000267504
0.000267137
0.000266796
0.000266474
0.00026616
0.00026585
0.000265532
0.000265203
0.000264858
0.000264498
0.00026412
0.000263727
0.000263321
0.000262906
0.000262485
0.000262063
0.000261641
0.00026123
0.000260821
0.00026044
0.000260061
0.000259727
0.000259391
0.000259115
0.00025885
0.000258599
0.000258538
0.000258545
0.00025858
0.000258689
0.000258662
0.000258728
0.000258884
0.000259141
0.0002595
0.000259969
0.000260563
0.000261282
0.000262173
0.000263204
0.000264483
0.000265911
0.000267702
0.000269644
0.000272114
0.000274749
0.000278113
0.000281761
0.000286271
0.000291556
0.000297486
0.000305529
0.000313491
0.000325682
0.000338272
0.000355102
0.000380282
0.000403538
0.000454906
0.000501443
0.00061019
0.000715073
0.000962013
0.00118823
0.0016695
0.00222049
0.00027551
0.000274999
0.000274507
0.000274043
0.000273611
0.000273212
0.000272843
0.000272505
0.00027219
0.000271895
0.000271612
0.000271337
0.000271063
0.000270791
0.000270513
0.000270232
0.000269946
0.000269659
0.00026937
0.000269077
0.000268794
0.000268506
0.000268242
0.000267969
0.000267756
0.000267514
0.000267446
0.000267317
0.000267409
0.000267479
0.000267399
0.000267414
0.000267553
0.000267781
0.000268085
0.000268475
0.000268951
0.000269539
0.000270238
0.000271088
0.00027208
0.000273276
0.000274648
0.000276295
0.000278162
0.0002804
0.000282922
0.000285957
0.000289362
0.000293514
0.000298142
0.000303913
0.000310342
0.000318444
0.000327905
0.000339225
0.000354426
0.000370782
0.000396348
0.000425572
0.000466842
0.000534933
0.000606855
0.000766662
0.000916561
0.00126223
0.00156005
0.00220348
0.00284277
0.000283933
0.000283453
0.000282969
0.000282493
0.000282031
0.000281586
0.000281168
0.000280772
0.000280412
0.000280075
0.000279775
0.000279496
0.000279248
0.000279012
0.000278804
0.000278597
0.000278411
0.00027821
0.00027808
0.000277934
0.000277857
0.000277816
0.000277784
0.000277771
0.000277698
0.000277669
0.000277739
0.000277775
0.000277872
0.000278016
0.000278187
0.000278399
0.000278665
0.000279016
0.000279456
0.000280017
0.000280692
0.000281525
0.000282491
0.000283658
0.00028498
0.000286575
0.000288352
0.000290502
0.00029288
0.000295764
0.000298969
0.000302835
0.000307211
0.00031244
0.000318485
0.00032574
0.000334175
0.000344683
0.000356768
0.000372681
0.000391555
0.000416483
0.000450622
0.000492848
0.000560294
0.000648219
0.000774807
0.000987651
0.00120611
0.00167272
0.00205247
0.00288969
0.00357256
0.000294229
0.000293846
0.000293458
0.00029307
0.000292682
0.000292294
0.00029191
0.000291541
0.000291177
0.000290845
0.000290504
0.000290219
0.000289917
0.000289684
0.000289428
0.00028931
0.000289256
0.000289223
0.000289205
0.000289093
0.000289179
0.000289069
0.000289302
0.000289269
0.000289266
0.000289336
0.000289492
0.000289687
0.000289943
0.000290263
0.000290639
0.000291081
0.000291594
0.000292207
0.00029292
0.000293774
0.000294758
0.000295931
0.000297259
0.000298838
0.000300598
0.000302711
0.000305028
0.000307856
0.000310914
0.000314704
0.000318789
0.000323877
0.000329455
0.000336316
0.000344144
0.000353579
0.000364866
0.000378524
0.000395307
0.000416861
0.000443416
0.00048066
0.000528243
0.000596655
0.000693971
0.000824728
0.00102577
0.00128861
0.00164285
0.00219242
0.00268499
0.00374011
0.00445312
0.000307005
0.000306628
0.000306251
0.000305881
0.000305525
0.000305193
0.000304873
0.000304564
0.000304271
0.000304011
0.000303821
0.000303609
0.000303485
0.000303426
0.000303368
0.000303345
0.000303339
0.000303255
0.000303343
0.000303305
0.000303497
0.000303454
0.000303489
0.000303578
0.00030372
0.000303925
0.000304203
0.00030455
0.000304972
0.000305476
0.000306063
0.000306751
0.000307541
0.000308464
0.000309515
0.00031074
0.000312127
0.000313742
0.000315555
0.000317673
0.00032003
0.000322821
0.000325887
0.000329595
0.000333604
0.000338574
0.000343886
0.000350603
0.000357824
0.000366999
0.000377215
0.000390034
0.000405243
0.000424123
0.000448102
0.000478623
0.000518991
0.000573915
0.000647223
0.000752719
0.000894373
0.00109487
0.00137006
0.00172647
0.00221882
0.00283974
0.00354234
0.004747
0.00554516
0.000323198
0.000323043
0.00032288
0.000322711
0.00032247
0.000322149
0.000321829
0.000321604
0.000321384
0.000321002
0.000320831
0.000320765
0.000320713
0.000320535
0.000320655
0.000320535
0.00032075
0.00032063
0.000321041
0.000321024
0.000321124
0.000321265
0.000321456
0.000321701
0.000322011
0.000322393
0.000322857
0.00032341
0.000324059
0.000324813
0.000325674
0.000326668
0.000327794
0.000329087
0.000330547
0.000332222
0.000334111
0.00033628
0.000338719
0.000341527
0.000344677
0.000348345
0.000352431
0.00035728
0.000362621
0.000369131
0.000376224
0.000385122
0.000394824
0.000407271
0.000421215
0.000439256
0.000460683
0.000488422
0.000523829
0.000570182
0.000632501
0.000716384
0.000830385
0.000987438
0.00119597
0.00148147
0.00184926
0.00232719
0.00294826
0.00367827
0.00463546
0.00591433
0.00697735
0.000343032
0.000343179
0.000343061
0.000343073
0.000343229
0.000343224
0.000343018
0.00034293
0.000343028
0.00034304
0.000343045
0.000342853
0.000343041
0.000343101
0.000342976
0.000342874
0.000343422
0.000343449
0.000343526
0.00034363
0.000343818
0.000344097
0.000344461
0.000344906
0.000345431
0.000346047
0.000346756
0.000347578
0.000348515
0.000349587
0.000350797
0.000352176
0.000353729
0.000355494
0.00035748
0.000359736
0.000362282
0.000365175
0.000368446
0.000372168
0.000376391
0.000381236
0.000386737
0.000393145
0.000400407
0.000409075
0.000418875
0.00043094
0.000444663
0.000462096
0.000482421
0.000508847
0.000541135
0.000583624
0.000638427
0.000710993
0.000807919
0.000936686
0.00110889
0.00133645
0.00163267
0.00201876
0.00249903
0.00311646
0.00386151
0.00476173
0.00597265
0.00731387
0.00906884
0.000367901
0.000368013
0.000368192
0.000368271
0.000368543
0.00036867
0.000368998
0.000369086
0.000369462
0.000369745
0.000370006
0.000370134
0.000370304
0.00037048
0.000370666
0.000370872
0.000371209
0.000371552
0.000371915
0.00037232
0.000372789
0.000373338
0.000373972
0.0003747
0.000375524
0.000376457
0.000377506
0.00037869
0.000380017
0.000381511
0.000383186
0.000385073
0.000387193
0.000389583
0.000392278
0.000395317
0.00039876
0.00040265
0.00040708
0.000412091
0.000417842
0.000424395
0.000431976
0.000440731
0.00045094
0.000462985
0.000477166
0.000494387
0.000514966
0.000540753
0.000572324
0.000612899
0.000664199
0.000730981
0.000817858
0.00093108
0.00107975
0.0012723
0.00152159
0.00183973
0.00224183
0.00274228
0.00335771
0.00411882
0.00500669
0.0061543
0.00757342
0.00921482
0.0121234
0.000400406
0.00040062
0.000400911
0.000401149
0.000401501
0.000401803
0.000402226
0.000402583
0.000403026
0.000403487
0.000403965
0.000404412
0.000404864
0.000405334
0.000405832
0.000406367
0.000406957
0.0004076
0.000408299
0.000409061
0.000409899
0.000410823
0.000411848
0.000412982
0.00041424
0.000415633
0.00041718
0.000418895
0.000420799
0.000422916
0.000425276
0.000427912
0.000430867
0.00043418
0.000437915
0.000442118
0.00044689
0.000452285
0.000458459
0.000465466
0.000473574
0.000482869
0.000493765
0.00050644
0.000521527
0.000539435
0.000561123
0.000587499
0.000620068
0.000660608
0.000711709
0.000776267
0.000859216
0.000964144
0.00110052
0.00127145
0.00149251
0.00176694
0.0021127
0.00253991
0.0030609
0.00369373
0.00446128
0.00536855
0.0064722
0.00790838
0.00959872
0.0120999
0.0176276
0.00044341
0.000443815
0.000444255
0.000444701
0.000445203
0.000445714
0.000446281
0.000446866
0.000447493
0.000448161
0.000448868
0.000449604
0.000450373
0.000451183
0.000452041
0.000452956
0.000453936
0.000454989
0.000456123
0.000457348
0.000458675
0.00046012
0.000461693
0.000463416
0.000465302
0.000467377
0.000469657
0.000472166
0.000474938
0.000478005
0.000481415
0.000485211
0.000489462
0.000494224
0.000499598
0.000505663
0.000512568
0.000520429
0.000529472
0.000539858
0.000551963
0.000566061
0.000582741
0.000602491
0.000626248
0.000654894
0.000689922
0.000732891
0.000786213
0.00085239
0.000935521
0.0010388
0.00116983
0.00133057
0.00153601
0.00178237
0.00209713
0.00246756
0.00293075
0.00347857
0.00413225
0.00492037
0.00584677
0.00694738
0.00837776
0.0101315
0.0125732
0.0174467
0.027918
0.000501262
0.000501942
0.000502642
0.000503375
0.000504152
0.000504963
0.000505819
0.00050672
0.000507672
0.000508679
0.000509745
0.000510872
0.000512064
0.000513327
0.000514669
0.0005161
0.000517628
0.000519265
0.000521023
0.000522915
0.000524958
0.000527169
0.000529571
0.000532183
0.000535039
0.000538159
0.00054158
0.000545341
0.000549495
0.000554094
0.000559213
0.000564925
0.000571339
0.00057856
0.000586748
0.000596062
0.000606738
0.000619028
0.000633282
0.000649892
0.000669395
0.000692454
0.000719876
0.000752772
0.000792336
0.000840418
0.000898738
0.000970273
0.00105748
0.00116477
0.00129592
0.00145624
0.00165297
0.00188887
0.00218121
0.00252013
0.00294709
0.00342359
0.00402732
0.00469687
0.00551177
0.00647465
0.00758885
0.00901901
0.0108936
0.0132311
0.0181818
0.02814
0.0559086
0.000581309
0.000582415
0.000583545
0.000584728
0.000585966
0.000587257
0.000588606
0.000590022
0.00059151
0.000593079
0.000594735
0.000596486
0.000598341
0.00060031
0.000602404
0.000604638
0.000607025
0.000609582
0.000612329
0.000615287
0.000618483
0.000621943
0.000625705
0.000629802
0.000634275
0.000639175
0.000644567
0.000650519
0.000657122
0.000664474
0.000672704
0.000681955
0.000692414
0.00070429
0.000717858
0.000733432
0.000751416
0.000772285
0.000796631
0.000825179
0.000858752
0.000898523
0.000945621
0.00100191
0.00106883
0.00114937
0.00124512
0.00136093
0.0014981
0.0016643
0.0018601
0.00209637
0.00237414
0.00270414
0.00309609
0.00354496
0.00409614
0.00468957
0.00545695
0.00624504
0.00728294
0.00843725
0.00987693
0.0118608
0.0144496
0.0188718
0.0296802
0.0526275
0.109324
0.000694901
0.000696704
0.000698554
0.000700493
0.000702521
0.000704638
0.000706854
0.000709179
0.000711626
0.000714205
0.00071693
0.000719815
0.000722876
0.000726132
0.000729603
0.000733313
0.000737288
0.000741559
0.000746162
0.000751134
0.000756526
0.000762387
0.000768774
0.000775758
0.000783426
0.000791877
0.000801228
0.000811617
0.000823209
0.000836196
0.00085081
0.000867323
0.000886061
0.00090741
0.000931828
0.000959861
0.000992151
0.00102948
0.00107272
0.00112301
0.0011815
0.00124982
0.00132947
0.0014229
0.00153179
0.00166005
0.00180893
0.00198515
0.00218798
0.00242955
0.00270418
0.00303321
0.00340281
0.00384503
0.00434219
0.00492202
0.00559914
0.00633309
0.00728329
0.00821279
0.00959037
0.0109991
0.0131353
0.0160189
0.0209411
0.0309138
0.0555954
0.108831
0.161308
0.000865427
0.000868558
0.000871781
0.000875158
0.000878692
0.00088239
0.000886269
0.000890351
0.000894659
0.000899217
0.000904051
0.000909193
0.000914676
0.000920539
0.000926825
0.000933585
0.000940873
0.000948753
0.000957296
0.000966572
0.000976677
0.000987716
0.00099981
0.0010131
0.00102774
0.00104392
0.00106185
0.00108177
0.00110396
0.00112875
0.0011565
0.00118765
0.0012227
0.0012622
0.00130684
0.00135737
0.00141468
0.00147979
0.00155388
0.00163833
0.0017347
0.00184482
0.00197063
0.00211481
0.00227949
0.00246892
0.00268445
0.00293404
0.00321507
0.00354466
0.00390849
0.00434403
0.00481146
0.00538433
0.00598484
0.00672667
0.00752054
0.00845777
0.00960907
0.0108075
0.0127249
0.014667
0.01828
0.0236334
0.0350946
0.0599656
0.116361
0.170408
0.18478
0.00113166
0.00113773
0.00114406
0.00115075
0.00115783
0.00116532
0.00117324
0.00118166
0.00119061
0.00120014
0.00121031
0.00122117
0.00123279
0.00124526
0.00125863
0.00127298
0.00128843
0.00130508
0.00132305
0.00134248
0.00136352
0.00138633
0.00141112
0.00143808
0.00146746
0.00149953
0.00153457
0.00157293
0.00161498
0.00166115
0.00171192
0.00176784
0.00182954
0.00189773
0.00197324
0.00205699
0.00215007
0.00225368
0.00236927
0.0024984
0.00264299
0.00280503
0.00298704
0.00319152
0.00342161
0.003681
0.00397248
0.00430343
0.00467163
0.00509718
0.00555792
0.00611079
0.00667925
0.00740448
0.00810377
0.00906328
0.00997141
0.0112673
0.0126729
0.014529
0.0173705
0.0208044
0.0283148
0.0411431
0.0694137
0.130211
0.182145
0.195143
0.188107
0.00162714
0.00164118
0.00165577
0.00167106
0.00168706
0.00170382
0.00172139
0.00173987
0.00175931
0.0017798
0.00180142
0.00182425
0.00184838
0.00187392
0.00190098
0.00192986
0.00196068
0.00199357
0.00202866
0.00206612
0.00210613
0.00214887
0.00219457
0.00224346
0.00229583
0.00235198
0.00241224
0.00247702
0.00254674
0.0026219
0.00270307
0.00279089
0.0028861
0.00298953
0.00310215
0.00322503
0.00335946
0.00350685
0.00366889
0.00384737
0.00404459
0.00426268
0.00450492
0.00477349
0.00507328
0.00540597
0.00577882
0.0061939
0.00665692
0.00718125
0.00774867
0.00842697
0.00910626
0.0100187
0.0108349
0.0121323
0.0132277
0.0152186
0.0171218
0.0206319
0.0254986
0.033996
0.0525864
0.0843603
0.152625
0.198142
0.206505
0.197882
0.164936
0.00262716
0.0026551
0.00268396
0.00271392
0.00274496
0.00277725
0.00281113
0.00284663
0.00288378
0.00292263
0.00296324
0.00300568
0.00305003
0.0030964
0.00314486
0.00319538
0.00324812
0.00330325
0.00336095
0.00342142
0.00348487
0.00355154
0.00362168
0.00369558
0.00377355
0.00385595
0.00394316
0.00403563
0.00413386
0.00423842
0.00434995
0.00446921
0.00459705
0.00473446
0.00488259
0.00504273
0.00521636
0.00540517
0.00561115
0.00583641
0.00608374
0.00635549
0.00665602
0.00698694
0.00735649
0.00776181
0.00822031
0.00871826
0.00928878
0.00990904
0.0106111
0.0114234
0.0122716
0.0134526
0.0145142
0.0164251
0.0180262
0.0214375
0.0249771
0.0327635
0.0440941
0.0687982
0.112338
0.184193
0.216431
0.219497
0.206492
0.166486
0.115544
0.00460164
0.00464931
0.00469805
0.00474801
0.00479923
0.00485158
0.00490491
0.00495936
0.00501507
0.00507216
0.00513076
0.00519101
0.00525302
0.00531693
0.00538289
0.00545102
0.00552146
0.00559437
0.00566992
0.00574833
0.00582981
0.0059146
0.00600299
0.00609529
0.00619186
0.00629308
0.00639941
0.00651136
0.00662949
0.0067545
0.00688716
0.00702833
0.00717899
0.00734031
0.00751361
0.00770049
0.00790275
0.00812255
0.00836238
0.00862504
0.00891396
0.0092324
0.00958592
0.00997617
0.0104155
0.0108942
0.0114472
0.0120286
0.0127396
0.0134561
0.0143963
0.0153803
0.0166497
0.018296
0.0200778
0.023237
0.0264668
0.0336111
0.0428859
0.0630614
0.0945149
0.156949
0.213332
0.232687
0.229986
0.2085
0.158965
0.108364
0.0714899
0.00820353
0.00825943
0.00831577
0.00837283
0.00843063
0.00848915
0.00854844
0.0086086
0.00866956
0.00873155
0.00879461
0.00885883
0.00892434
0.00899124
0.00905966
0.00912976
0.00920168
0.00927562
0.00935179
0.00943037
0.00951167
0.00959593
0.00968353
0.00977482
0.00987021
0.00997018
0.0100753
0.010186
0.0103032
0.0104275
0.0105598
0.0107013
0.0108535
0.0110181
0.0111968
0.0113921
0.0116063
0.0118428
0.0121045
0.012396
0.0127208
0.0130853
0.0134934
0.0139507
0.014469
0.0150391
0.0157121
0.0164161
0.0173758
0.018286
0.0198091
0.0211593
0.0236449
0.0261994
0.0303288
0.0367018
0.0461889
0.0648129
0.0926967
0.144338
0.211739
0.242666
0.248217
0.236346
0.198176
0.142426
0.0956724
0.0630401
0.043181
0.0139188
0.0139624
0.0140056
0.0140484
0.0140908
0.0141327
0.0141745
0.0142159
0.0142573
0.014299
0.0143414
0.0143844
0.014428
0.0144725
0.0145179
0.0145645
0.0146124
0.014662
0.0147135
0.0147665
0.0148226
0.0148806
0.014943
0.0150086
0.0150784
0.0151531
0.0152334
0.0153203
0.0154147
0.015518
0.0156314
0.0157563
0.0158946
0.0160487
0.0162211
0.0164158
0.0166356
0.0168874
0.0171724
0.0175024
0.017874
0.0183086
0.0187937
0.0193653
0.0200111
0.020775
0.0216764
0.0227919
0.024349
0.026051
0.0289722
0.0316667
0.0374123
0.042884
0.0554197
0.0726135
0.103733
0.15255
0.218717
0.252993
0.26369
0.255724
0.224588
0.168109
0.116135
0.0774955
0.0520317
0.0366301
0.027863
0.0224883
0.0224866
0.0224923
0.022494
0.0224948
0.0224938
0.0224909
0.0224808
0.0224743
0.0224689
0.0224735
0.0224743
0.0224745
0.0224742
0.0224738
0.0224736
0.0224737
0.0224744
0.0224741
0.0224616
0.0224712
0.0224596
0.022482
0.02248
0.0224856
0.0224953
0.022514
0.0225393
0.022573
0.0226174
0.0226763
0.0227545
0.0228568
0.0229894
0.023157
0.0233687
0.0236256
0.0239444
0.0243147
0.0247745
0.0252842
0.0259354
0.0266314
0.027569
0.0285814
0.0299439
0.0316561
0.034487
0.037748
0.0426878
0.0489872
0.0579666
0.0721016
0.0903283
0.130807
0.179135
0.236961
0.265853
0.278414
0.269943
0.237136
0.178282
0.124394
0.0845293
0.0574187
0.0400921
0.029564
0.0234892
0.0201167
0.0342246
0.0342051
0.0341811
0.0341529
0.0341213
0.0340867
0.0340497
0.0340105
0.0339701
0.0339289
0.0338877
0.0338463
0.033805
0.0337641
0.0337237
0.0336843
0.0336462
0.0336098
0.0335756
0.0335433
0.0335149
0.0334899
0.0334712
0.033458
0.033449
0.0334148
0.0334551
0.0334552
0.0334909
0.033566
0.0336878
0.0338621
0.0340958
0.0343957
0.0347658
0.035219
0.0357483
0.0363912
0.0371061
0.0380097
0.038961
0.0402968
0.0416067
0.0437829
0.0457104
0.0496104
0.0566017
0.0657498
0.0755107
0.0902677
0.106846
0.134653
0.166678
0.219252
0.253518
0.280183
0.287971
0.273373
0.226309
0.162597
0.11245
0.0785592
0.0551216
0.0392443
0.0290283
0.0228374
0.019292
0.017407
0.0165251
0.0604787
0.0604534
0.0604278
0.0604025
0.0603766
0.0603489
0.0603171
0.0602831
0.0602453
0.0602005
0.0601535
0.0600953
0.0600342
0.0599595
0.0598803
0.0597871
0.059688
0.059575
0.0594557
0.0593249
0.0591805
0.0590234
0.0588543
0.0586742
0.0584843
0.0582889
0.0581543
0.0580824
0.0581145
0.0582975
0.0586449
0.0591463
0.0598276
0.0606742
0.061735
0.0629941
0.0645372
0.0663466
0.0685666
0.0711744
0.0744092
0.0782266
0.0830403
0.0887937
0.0961606
0.104902
0.112199
0.122867
0.136752
0.156284
0.181091
0.214537
0.249753
0.272013
0.263388
0.223008
0.159147
0.110713
0.0810895
0.0592795
0.0438313
0.0328496
0.0253529
0.0205
0.017645
0.0161941
0.0156382
0.0155889
0.0158208
0.188296
0.189023
0.189778
0.190448
0.19122
0.192026
0.192684
0.193505
0.194274
0.19479
0.195687
0.195899
0.196721
0.196727
0.197354
0.197226
0.197654
0.197405
0.197634
0.197504
0.197059
0.196542
0.195956
0.1953
0.194567
0.193753
0.192853
0.191876
0.190803
0.189609
0.188273
0.186761
0.185047
0.183089
0.180856
0.178294
0.175366
0.171996
0.168134
0.163674
0.158543
0.152587
0.1457
0.1377
0.1284
0.117577
0.105075
0.0908812
0.0751928
0.0588426
0.0455334
0.0437576
0.053751
0.0615182
0.0615409
0.0555846
0.0465868
0.0388307
0.0344254
0.0301583
0.0283226
0.0257416
0.0243866
0.0232282
0.0226608
0.022577
0.0234405
0.0249812
0.0269068
0.000254239
0.000254692
0.000255133
0.000255544
0.000256068
0.000256605
0.000257261
0.000257979
0.000258585
0.000259251
0.000259876
0.000260717
0.000262544
0.000263619
0.000264055
0.000264287
0.000264947
0.000265437
0.000265499
0.000265599
0.000265718
0.00026616
0.000266373
0.000266961
0.000267662
0.000268161
0.000268795
0.000269111
0.000268863
0.000269054
0.000269786
0.000270702
0.00027124
0.000270404
0.000269777
0.000269155
0.000268883
0.00026838
0.000267774
0.000267404
0.000266575
0.000266303
0.000265861
0.000264412
0.000263563
0.000262564
0.000261275
0.000260082
0.000258819
0.000258072
0.000257675
0.00025735
0.000256974
0.00025661
0.000256034
0.000255512
0.00025494
0.000254341
0.000253754
0.000256013
0.000256411
0.000256791
0.000257225
0.000257687
0.000258153
0.000258664
0.00025919
0.000259814
0.000260597
0.000261578
0.00026308
0.000264027
0.00026447
0.000264689
0.000264969
0.000265784
0.000265927
0.000265967
0.000266106
0.00026641
0.0002669
0.000266972
0.000267764
0.000268364
0.000268732
0.000269399
0.000269686
0.000269413
0.000269552
0.000270326
0.000271203
0.000271942
0.000271078
0.000270495
0.000269839
0.000269535
0.000269153
0.000268526
0.000268117
0.000267436
0.000267066
0.000266738
0.000265917
0.000264834
0.000264037
0.000262954
0.000261818
0.00026081
0.000259555
0.000258767
0.000258321
0.000257917
0.000257582
0.000257268
0.000256914
0.000256544
0.000256146
0.000255742
0.000258169
0.000258487
0.000258823
0.000259212
0.000259627
0.000260115
0.000260694
0.000261396
0.000262261
0.000263276
0.000264295
0.000265021
0.000265417
0.000265606
0.000265887
0.000266641
0.000266973
0.000267028
0.000267003
0.000267275
0.000267779
0.00026806
0.000268315
0.000269143
0.000269573
0.000270013
0.00027065
0.000270945
0.000270629
0.000270729
0.000271548
0.000272363
0.000272964
0.000272432
0.000271887
0.000271233
0.000270867
0.000270534
0.000269974
0.000269588
0.000268911
0.000268443
0.000268175
0.000267721
0.000266825
0.000266029
0.000265171
0.000264152
0.000263214
0.000262232
0.000261154
0.000260325
0.000259745
0.000259269
0.000258904
0.00025858
0.000258298
0.000258012
0.000257756
0.000260955
0.000261302
0.000261694
0.000262157
0.000262686
0.000263312
0.000264019
0.000264803
0.000265604
0.000266328
0.00026685
0.000267159
0.000267378
0.000267763
0.00026831
0.000268667
0.000268793
0.000268784
0.000268912
0.000269402
0.000269853
0.000270117
0.000270468
0.000271193
0.000271556
0.00027205
0.000272641
0.000272936
0.0002726
0.000272683
0.000273518
0.000274272
0.000274886
0.000274529
0.000273983
0.000273382
0.000272969
0.000272644
0.000272153
0.000271789
0.000271205
0.000270621
0.000270298
0.00026999
0.000269455
0.000268711
0.000267988
0.000267159
0.0002663
0.000265459
0.000264555
0.000263666
0.000262902
0.000262243
0.000261703
0.000261248
0.000260884
0.000260557
0.000260296
0.00026501
0.000265411
0.000265858
0.000266365
0.000266913
0.000267502
0.000268093
0.000268657
0.000269139
0.00026951
0.000269785
0.000270066
0.000270454
0.000270897
0.000271184
0.000271342
0.000271395
0.000271491
0.000271758
0.000272347
0.000272709
0.000272977
0.000273399
0.000273981
0.000274317
0.000274886
0.000275412
0.000275702
0.000275354
0.000275432
0.000276266
0.000276963
0.000277592
0.000277363
0.00027692
0.00027631
0.000275902
0.000275572
0.00027511
0.000274766
0.000274337
0.000273693
0.000273279
0.000273013
0.000272671
0.000272158
0.000271537
0.000270863
0.000270143
0.00026942
0.000268681
0.000267913
0.000267173
0.000266474
0.000265848
0.000265283
0.000264805
0.000264372
0.000264023
0.000270206
0.00027059
0.000270999
0.000271432
0.000271865
0.000272291
0.000272681
0.000273029
0.000273329
0.000273609
0.000273906
0.000274252
0.00027455
0.000274774
0.000274918
0.000274988
0.000275069
0.00027523
0.000275785
0.000276228
0.000276551
0.000276857
0.000277324
0.000277745
0.000278097
0.000278723
0.000279186
0.00027947
0.000279113
0.000279194
0.00028002
0.000280666
0.000281313
0.000281173
0.000280842
0.000280296
0.000279839
0.000279526
0.000279158
0.000278788
0.000278418
0.000277941
0.000277338
0.000277027
0.000276773
0.000276465
0.000276051
0.000275518
0.000274912
0.000274287
0.000273666
0.000273036
0.000272412
0.000271793
0.000271209
0.000270646
0.000270144
0.000269663
0.00026926
0.000276712
0.000276994
0.000277284
0.000277564
0.000277834
0.000278084
0.00027832
0.00027854
0.000278764
0.000278989
0.00027918
0.000279399
0.000279539
0.000279661
0.000279711
0.000279812
0.000279994
0.00028045
0.000280925
0.000281295
0.000281612
0.000281938
0.000282295
0.000282647
0.000283057
0.000283683
0.000284089
0.000284373
0.000284007
0.000284096
0.000284916
0.000285515
0.000286176
0.000286125
0.000285863
0.000285464
0.000285006
0.000284642
0.000284317
0.000284
0.000283685
0.00028332
0.000282846
0.000282331
0.000282021
0.00028179
0.000281558
0.00028127
0.000280893
0.0002804
0.00027987
0.000279326
0.000278795
0.000278267
0.000277766
0.000277265
0.00027681
0.000276349
0.000275958
0.000284101
0.000284273
0.000284374
0.000284601
0.000284703
0.000284954
0.000285048
0.000285304
0.000285397
0.000285577
0.000285675
0.0002858
0.00028589
0.000285954
0.000286131
0.000286354
0.000286731
0.00028714
0.000287512
0.000287823
0.000288105
0.000288378
0.000288682
0.000289047
0.000289544
0.000290103
0.000290488
0.000290766
0.000290395
0.000290494
0.00029131
0.000291867
0.000292548
0.000292573
0.000292382
0.000292061
0.0002917
0.000291352
0.000291036
0.000290747
0.00029048
0.000290204
0.000289867
0.000289453
0.000289012
0.000288661
0.000288413
0.000288221
0.000288041
0.000287814
0.00028752
0.000287138
0.000286712
0.000286268
0.000285852
0.000285434
0.00028506
0.000284664
0.000284333
0.000293071
0.00029312
0.00029317
0.000293357
0.000293392
0.000293535
0.000293583
0.000293696
0.000293796
0.000293897
0.000293984
0.000294069
0.00029415
0.000294364
0.000294536
0.000294865
0.000295191
0.000295527
0.000295842
0.000296111
0.000296344
0.00029656
0.000296812
0.00029722
0.000297732
0.000298246
0.000298618
0.000298879
0.000298507
0.000298618
0.000299428
0.000299953
0.000300645
0.000300762
0.000300651
0.000300413
0.000300127
0.000299844
0.000299575
0.000299323
0.0002991
0.000298887
0.000298649
0.000298373
0.000298065
0.00029774
0.000297436
0.000297178
0.000296999
0.000296878
0.000296757
0.000296612
0.000296412
0.000296146
0.000295819
0.000295457
0.000295141
0.000294797
0.000294544
0.000304136
0.000304165
0.000304206
0.000304263
0.000304308
0.000304359
0.00030441
0.000304474
0.000304531
0.000304584
0.000304649
0.000304724
0.000304837
0.000305018
0.000305248
0.000305543
0.000305857
0.00030616
0.000306425
0.000306639
0.000306817
0.000306995
0.00030724
0.000307646
0.000308167
0.00030868
0.000309049
0.000309292
0.000308922
0.000309048
0.000309853
0.000310359
0.000311059
0.000311271
0.000311231
0.000311081
0.000310879
0.000310674
0.000310474
0.000310284
0.000310105
0.00030995
0.000309781
0.000309602
0.00030939