/*--------------------------------*- C++ -*----------------------------------*\
| =========                 |                                                 |
| \\      /  F ield         | OpenFOAM: The Open Source CFD Toolbox           |
|  \\    /   O peration     | Version:  2312                                  |
|   \\  /    A nd           | Website:  www.openfoam.com                      |
|    \\/     M anipulation  |                                                 |
\*---------------------------------------------------------------------------*/
FoamFile
{
    version     2.0;
    format      ascii;
    arch        "LSB;label=32;scalar=64";
    class       volScalarField;
    location    "200";
    object      k;
}
// * * * * * * * * * * * * * * * * * * * * * * * * * * * * * * * * * * * * * //

dimensions      [0 2 -2 0 0 0 0];

internalField   nonuniform List<scalar> 
76025
(
0.001933
0.00193025
0.0019274
0.00192474
0.00192188
0.00191961
0.00191691
0.00191465
0.00191179
0.00190942
0.00190671
0.00190428
0.0019014
0.0018988
0.00189609
0.00189366
0.00189079
0.00188868
0.0018858
0.00188356
0.00188119
0.00187902
0.00187662
0.00187454
0.00187248
0.0018704
0.00186911
0.00186712
0.00186577
0.00186445
0.00186275
0.00186158
0.00186079
0.00186007
0.00185951
0.00185973
0.00185978
0.00186038
0.001861
0.00186225
0.00186315
0.00186552
0.00186768
0.00187071
0.00187355
0.00187795
0.00188178
0.00188707
0.00189256
0.00190013
0.00190765
0.00191901
0.00192932
0.00194471
0.00195976
0.0019823
0.00200211
0.0020343
0.00206572
0.00211001
0.00216016
0.0022114
0.00230646
0.00238744
0.00254411
0.00271909
0.00296988
0.00338374
0.00392616
0.00194678
0.0019446
0.00194207
0.00193962
0.00193672
0.00193428
0.0019315
0.00192909
0.00192652
0.00192412
0.0019216
0.00191927
0.00191682
0.00191443
0.00191212
0.00190977
0.00190748
0.00190523
0.00190305
0.00190081
0.00189873
0.00189668
0.00189473
0.00189282
0.00189115
0.00188938
0.00188793
0.0018865
0.00188525
0.00188421
0.00188346
0.00188264
0.00188224
0.0018826
0.00188256
0.00188275
0.00188319
0.00188394
0.00188504
0.00188636
0.0018883
0.00189045
0.00189334
0.00189649
0.00190057
0.00190516
0.0019108
0.00191734
0.00192523
0.00193451
0.00194543
0.00195846
0.00197326
0.00199173
0.00201186
0.00203802
0.00206536
0.00210335
0.00214118
0.00219614
0.00225255
0.00233405
0.00243423
0.00255153
0.00274684
0.00296453
0.00335676
0.00392193
0.0047237
0.00196149
0.0019601
0.00195839
0.00195668
0.00195456
0.00195244
0.0019501
0.00194779
0.00194541
0.00194309
0.00194075
0.00193844
0.00193618
0.00193389
0.00193174
0.00192958
0.00192754
0.0019255
0.00192357
0.00192167
0.00191985
0.00191808
0.00191642
0.00191482
0.00191343
0.00191204
0.00191091
0.00190974
0.00190887
0.00190854
0.00190849
0.00190809
0.00190832
0.00190854
0.00190896
0.00190963
0.00191062
0.00191194
0.00191366
0.00191581
0.00191844
0.00192163
0.00192544
0.00192996
0.00193526
0.00194154
0.00194878
0.00195742
0.00196718
0.001979
0.00199207
0.00200821
0.0020257
0.00204788
0.00207138
0.00210218
0.00213459
0.00217813
0.00222471
0.00228788
0.00235996
0.00245636
0.00257804
0.00273901
0.00298161
0.0032958
0.00381989
0.00451834
0.00543461
0.00197928
0.00197816
0.00197695
0.00197576
0.00197441
0.00197295
0.00197134
0.0019696
0.00196776
0.00196584
0.00196387
0.00196186
0.00195987
0.00195786
0.00195589
0.00195397
0.0019521
0.0019503
0.00194858
0.00194692
0.00194537
0.00194387
0.00194254
0.00194122
0.00194016
0.00193913
0.00193817
0.00193795
0.00193797
0.00193782
0.00193776
0.00193796
0.00193841
0.00193913
0.0019401
0.00194139
0.00194305
0.0019451
0.00194763
0.00195064
0.00195425
0.00195847
0.00196351
0.00196927
0.00197612
0.00198387
0.00199309
0.00200343
0.00201575
0.00202957
0.00204597
0.00206461
0.00208647
0.00211205
0.00214141
0.00217753
0.00221766
0.00227038
0.00232741
0.00240711
0.00249535
0.00262178
0.00277859
0.00300109
0.00332277
0.00375892
0.00444324
0.00527261
0.00645115
0.00200249
0.0020012
0.00200001
0.00199894
0.0019979
0.00199687
0.0019958
0.00199466
0.00199344
0.00199212
0.00199073
0.00198926
0.00198775
0.0019862
0.00198465
0.0019831
0.0019816
0.00198014
0.00197874
0.00197742
0.00197619
0.00197503
0.00197399
0.00197312
0.0019722
0.00197204
0.00197207
0.00197193
0.00197221
0.00197255
0.00197301
0.00197368
0.00197457
0.00197579
0.00197734
0.00197931
0.00198172
0.00198464
0.00198811
0.0019922
0.00199695
0.00200249
0.00200889
0.00201627
0.00202475
0.00203449
0.00204569
0.00205852
0.00207329
0.00209023
0.00210985
0.00213244
0.00215882
0.00218949
0.00222555
0.00226841
0.00231881
0.00238135
0.00245465
0.00255183
0.00266734
0.00283224
0.00304068
0.00334958
0.0037726
0.0043713
0.0052022
0.00621497
0.00752207
0.00203246
0.00203089
0.00202946
0.00202819
0.00202709
0.00202608
0.0020252
0.00202434
0.00202356
0.00202273
0.00202189
0.00202102
0.00202008
0.0020191
0.00201806
0.00201701
0.00201596
0.00201489
0.00201397
0.0020129
0.00201237
0.00201158
0.0020114
0.00201101
0.00201127
0.00201103
0.00201101
0.00201121
0.00201177
0.00201264
0.00201377
0.0020152
0.00201691
0.00201898
0.00202145
0.00202436
0.00202779
0.00203176
0.00203639
0.0020417
0.00204781
0.00205478
0.0020628
0.0020719
0.00208236
0.00209422
0.00210788
0.00212338
0.00214131
0.00216174
0.00218554
0.00221283
0.00224494
0.00228214
0.00232643
0.00237881
0.00244178
0.00251957
0.00261398
0.00273884
0.00289465
0.00311559
0.00340461
0.00382595
0.00438783
0.00515862
0.00614736
0.00730534
0.00875595
0.00207047
0.00206887
0.00206732
0.00206589
0.00206455
0.00206339
0.00206226
0.00206142
0.00206046
0.00206003
0.00205939
0.00205902
0.00205883
0.00205863
0.00205845
0.00205826
0.00205812
0.002058
0.00205793
0.00205789
0.00205773
0.00205739
0.00205816
0.00205793
0.00205824
0.00205879
0.00205942
0.00206017
0.00206111
0.00206236
0.00206398
0.00206598
0.00206839
0.00207125
0.00207458
0.00207844
0.00208289
0.00208799
0.00209385
0.0021005
0.0021081
0.00211673
0.00212657
0.00213774
0.0021505
0.002165
0.0021816
0.00220056
0.00222233
0.00224738
0.00227634
0.00230993
0.00234927
0.00239527
0.00245042
0.00251571
0.00259652
0.00269544
0.00282163
0.00298701
0.0032024
0.00350521
0.00390307
0.00446715
0.00518355
0.00613421
0.00724769
0.008563
0.0100594
0.00211645
0.00211504
0.0021137
0.00211246
0.00211133
0.00211026
0.0021094
0.00210849
0.00210806
0.00210741
0.00210745
0.00210745
0.00210697
0.00210743
0.00210722
0.00210786
0.00210766
0.00210801
0.00210839
0.00210874
0.00210907
0.00210948
0.00211017
0.00211085
0.00211181
0.002113
0.00211439
0.002116
0.00211784
0.00211996
0.00212244
0.00212533
0.00212867
0.00213252
0.00213693
0.00214194
0.00214767
0.00215415
0.00216154
0.00216987
0.00217936
0.00219007
0.00220228
0.00221605
0.00223183
0.00224964
0.00227014
0.00229341
0.00232031
0.00235115
0.00238698
0.00242874
0.00247762
0.0025358
0.00260533
0.00268994
0.00279537
0.00292727
0.00310043
0.00332598
0.00363003
0.00404153
0.00458078
0.00530385
0.00618456
0.00729214
0.00851732
0.00994535
0.0113993
0.00217404
0.00217243
0.00217089
0.00216939
0.00216812
0.00216678
0.00216595
0.00216498
0.00216474
0.00216464
0.0021641
0.00216474
0.00216454
0.00216545
0.0021654
0.00216576
0.00216611
0.00216668
0.00216741
0.00216832
0.00216932
0.00217048
0.00217181
0.00217332
0.00217507
0.00217707
0.00217933
0.00218188
0.00218474
0.00218794
0.00219155
0.0021956
0.00220017
0.00220531
0.00221111
0.00221763
0.002225
0.00223328
0.00224266
0.00225319
0.00226511
0.00227851
0.00229374
0.00231087
0.00233047
0.00235256
0.00237805
0.00240689
0.00244047
0.00247886
0.00252398
0.00257654
0.00263904
0.00271403
0.002805
0.0029183
0.00306066
0.00324421
0.00348493
0.00380053
0.00422239
0.00476949
0.00547315
0.00635372
0.00738929
0.00862333
0.00992411
0.0114046
0.0127571
0.00224363
0.00224335
0.002243
0.00224248
0.00224198
0.0022414
0.00224091
0.00224042
0.00224014
0.00223991
0.00223941
0.00223956
0.00223889
0.00224012
0.00224001
0.00224021
0.00224059
0.00224127
0.00224216
0.00224335
0.00224474
0.00224638
0.00224828
0.00225045
0.00225291
0.0022557
0.00225883
0.00226236
0.00226628
0.00227065
0.00227552
0.00228094
0.00228699
0.00229372
0.00230126
0.00230967
0.00231911
0.00232966
0.00234154
0.00235483
0.00236981
0.00238663
0.00240568
0.00242714
0.00245162
0.00247931
0.00251124
0.00254758
0.00259003
0.00263888
0.00269689
0.002765
0.00284751
0.00294755
0.00307177
0.00322842
0.00342813
0.00368782
0.00402445
0.00446243
0.00502518
0.00572929
0.0065973
0.00761811
0.00878986
0.0100938
0.0114357
0.0128927
0.0141112
0.00232621
0.0023276
0.00232733
0.00232861
0.0023283
0.00232943
0.00232915
0.00233026
0.00232983
0.0023314
0.00233122
0.00233267
0.0023326
0.00233296
0.00233337
0.00233402
0.00233478
0.00233584
0.00233708
0.00233862
0.00234044
0.00234256
0.00234501
0.00234781
0.00235099
0.00235458
0.00235862
0.00236313
0.00236817
0.00237377
0.00238001
0.00238694
0.00239467
0.00240326
0.00241284
0.00242352
0.00243546
0.0024488
0.00246376
0.00248052
0.00249936
0.00252056
0.00254453
0.00257166
0.0026026
0.00263787
0.00267856
0.00272541
0.00278036
0.00284457
0.00292152
0.00301351
0.00312664
0.00326594
0.0034416
0.00366411
0.00394876
0.00431356
0.00477678
0.00536046
0.00607734
0.00694043
0.00794934
0.00908827
0.0103459
0.0116659
0.0130081
0.0143533
0.0154077
0.00242821
0.00242926
0.00242995
0.00243113
0.0024319
0.00243316
0.00243398
0.00243527
0.00243611
0.0024375
0.00243854
0.00244
0.00244138
0.00244287
0.00244445
0.00244615
0.00244795
0.00245
0.00245228
0.00245481
0.00245762
0.00246073
0.0024642
0.00246805
0.00247234
0.0024771
0.00248241
0.00248827
0.00249477
0.00250197
0.00250995
0.00251879
0.00252862
0.00253954
0.0025517
0.00256525
0.00258038
0.00259731
0.0026163
0.00263762
0.00266159
0.00268869
0.00271938
0.00275436
0.00279436
0.00284046
0.00289391
0.0029564
0.00303027
0.00311829
0.00322484
0.00335474
0.00351577
0.0037163
0.00396884
0.00428645
0.00468579
0.00518289
0.00579337
0.00652992
0.00739666
0.00839627
0.00951197
0.0107273
0.0120081
0.0132974
0.0145773
0.0157213
0.0166553
0.00255597
0.00255735
0.00255861
0.00256016
0.00256159
0.00256328
0.00256483
0.00256664
0.00256833
0.00257022
0.00257216
0.00257429
0.00257655
0.00257897
0.00258155
0.00258431
0.00258727
0.00259047
0.00259394
0.00259771
0.00260182
0.0026063
0.00261119
0.00261655
0.00262242
0.00262889
0.00263597
0.00264376
0.00265232
0.00266175
0.00267216
0.00268365
0.00269639
0.00271052
0.00272623
0.00274373
0.00276327
0.00278517
0.00280975
0.00283746
0.00286872
0.00290425
0.00294473
0.00299126
0.00304493
0.00310753
0.00318094
0.00326811
0.00337234
0.00349855
0.00365243
0.00384189
0.00407593
0.0043662
0.00472483
0.00516608
0.00570246
0.0063461
0.00710489
0.00798148
0.00897291
0.0100694
0.0112454
0.0124805
0.0137197
0.0149327
0.0160618
0.01698
0.0179587
0.00271795
0.0027199
0.00272183
0.00272397
0.00272615
0.00272851
0.0027309
0.00273346
0.00273611
0.0027389
0.00274183
0.00274494
0.00274825
0.00275176
0.00275549
0.00275947
0.00276373
0.0027683
0.00277321
0.00277852
0.00278426
0.00279047
0.00279722
0.00280454
0.00281254
0.00282125
0.00283075
0.00284114
0.00285253
0.00286504
0.00287881
0.002894
0.00291081
0.00292946
0.00295019
0.00297332
0.00299921
0.0030283
0.00306111
0.0030983
0.00314059
0.00318905
0.00324484
0.00330968
0.00338544
0.00347489
0.00358112
0.00370857
0.00386216
0.00404875
0.00427557
0.00455244
0.00488852
0.00529609
0.00578392
0.00636458
0.00704232
0.00782565
0.00871136
0.00969641
0.0107699
0.0119105
0.0130904
0.0142781
0.0154192
0.0164992
0.0173961
0.0182492
0.0199529
0.00292613
0.00292891
0.00293174
0.00293475
0.0029379
0.0029412
0.00294465
0.00294829
0.00295209
0.00295609
0.0029603
0.00296476
0.00296947
0.00297445
0.00297975
0.00298537
0.00299137
0.00299779
0.00300466
0.00301204
0.00301998
0.00302855
0.00303781
0.00304785
0.00305873
0.00307055
0.00308342
0.00309748
0.00311287
0.00312977
0.00314837
0.00316892
0.00319168
0.003217
0.00324525
0.00327693
0.00331259
0.00335295
0.00339884
0.00345136
0.00351177
0.00358172
0.00366325
0.0037589
0.00387184
0.00400589
0.00416579
0.00435704
0.00458625
0.00486072
0.00518857
0.00557843
0.00603831
0.00657702
0.00719918
0.00791255
0.00871378
0.0096081
0.0105809
0.0116283
0.0127272
0.0138511
0.0149693
0.0160456
0.0170398
0.0179188
0.0186399
0.0201922
0.0232257
0.00319741
0.00320147
0.00320561
0.00320997
0.00321452
0.00321927
0.00322423
0.00322942
0.00323487
0.0032406
0.00324662
0.00325297
0.00325968
0.00326677
0.00327429
0.00328227
0.00329075
0.0032998
0.00330947
0.00331984
0.00333096
0.00334295
0.00335588
0.00336985
0.00338499
0.00340143
0.00341935
0.00343895
0.00346044
0.00348412
0.00351027
0.00353931
0.00357165
0.00360787
0.00364859
0.00369464
0.00374696
0.00380674
0.0038754
0.00395468
0.00404665
0.00415377
0.00427914
0.00442617
0.00459924
0.00480282
0.00504272
0.00532425
0.00565449
0.00603893
0.00648512
0.00699761
0.00758282
0.00824336
0.00898159
0.00979826
0.0106863
0.0116459
0.0126535
0.013705
0.0147633
0.0158043
0.0167954
0.0177127
0.0185037
0.019224
0.0203763
0.0237533
0.0314619
0.00355771
0.00356361
0.00356966
0.00357598
0.00358257
0.00358944
0.00359661
0.00360412
0.00361199
0.00362027
0.00362898
0.00363816
0.00364787
0.00365813
0.00366902
0.00368058
0.0036929
0.00370603
0.00372009
0.00373516
0.00375136
0.0037688
0.00378763
0.00380804
0.00383022
0.00385441
0.00388091
0.00391003
0.00394217
0.0039778
0.00401745
0.00406179
0.00411158
0.00416775
0.00423138
0.00430378
0.00438645
0.00448118
0.00459009
0.00471554
0.00486041
0.00502768
0.005221
0.00544412
0.00570154
0.00599741
0.00633699
0.00672418
0.00716478
0.00766138
0.00821995
0.00884038
0.00952805
0.010279
0.0110956
0.0119701
0.0128952
0.0138623
0.0148427
0.0158308
0.0167785
0.0176734
0.0184886
0.0192146
0.0198048
0.0210811
0.0235081
0.0309159
0.0472774
0.00404896
0.00405795
0.00406716
0.00407677
0.00408678
0.0040972
0.00410807
0.00411944
0.00413136
0.00414389
0.00415709
0.00417102
0.00418576
0.00420139
0.00421801
0.00423573
0.00425466
0.00427496
0.00429674
0.0043202
0.00434552
0.00437297
0.0044028
0.00443534
0.00447096
0.00451009
0.00455322
0.00460091
0.00465384
0.00471277
0.00477856
0.00485224
0.00493495
0.00502802
0.00513294
0.0052514
0.00538529
0.00553672
0.00570802
0.00590176
0.00612069
0.00636783
0.00664627
0.0069592
0.00731007
0.00770203
0.00813869
0.00862246
0.0091571
0.00974298
0.0103842
0.0110772
0.0118266
0.0126222
0.0134674
0.0143436
0.0152461
0.0161527
0.0170365
0.0178915
0.0186648
0.0193719
0.0199853
0.0205815
0.021542
0.0244465
0.0304779
0.0458313
0.0657328
0.00474187
0.00475607
0.00477073
0.0047861
0.00480218
0.00481903
0.00483671
0.00485532
0.00487497
0.00489576
0.0049178
0.00494123
0.00496619
0.00499286
0.00502139
0.00505197
0.00508482
0.00512022
0.00515844
0.0051998
0.00524466
0.00529343
0.00534655
0.00540451
0.00546788
0.00553728
0.00561339
0.00569698
0.00578889
0.00589005
0.00600148
0.00612432
0.0062598
0.00640926
0.00657417
0.00675611
0.00695681
0.00717812
0.00742201
0.00769061
0.00798612
0.00831092
0.0086673
0.00905785
0.00948464
0.00995004
0.010456
0.0110041
0.011596
0.0122309
0.0129107
0.0136296
0.01439
0.0151763
0.0159908
0.0168031
0.0176135
0.0183847
0.0191056
0.019769
0.0203254
0.0208551
0.0213305
0.0225596
0.0248814
0.0318127
0.0462511
0.0657934
0.0744136
0.00578883
0.00581512
0.00584252
0.00587135
0.0059017
0.00593365
0.00596736
0.00600301
0.00604074
0.00608073
0.00612318
0.00616831
0.00621635
0.00626755
0.00632218
0.00638053
0.00644288
0.00650957
0.00658094
0.00665737
0.00673924
0.00682699
0.00692108
0.007022
0.00713028
0.00724648
0.00737123
0.00750518
0.00764904
0.00780358
0.00796965
0.00814815
0.00834007
0.00854649
0.0087686
0.00900768
0.00926513
0.00954244
0.00984123
0.0101632
0.0105102
0.010884
0.0112864
0.0117195
0.0121845
0.0126833
0.0132163
0.0137846
0.0143873
0.0150234
0.0156912
0.0163832
0.0170969
0.0178106
0.0185239
0.0191973
0.0198421
0.0204105
0.0209226
0.0213632
0.0217256
0.0223121
0.023338
0.026512
0.033074
0.0488179
0.0669671
0.074933
0.0763619
0.00754446
0.00759818
0.0076541
0.00771259
0.0077737
0.00783752
0.00790419
0.00797385
0.00804665
0.00812271
0.0082022
0.00828527
0.0083721
0.00846285
0.00855774
0.00865694
0.00876065
0.00886908
0.00898248
0.0091011
0.00922522
0.00935513
0.00949116
0.00963365
0.00978299
0.00993959
0.0101039
0.0102764
0.0104577
0.0106484
0.0108491
0.0110606
0.0112838
0.0115195
0.0117688
0.0120329
0.0123128
0.01261
0.0129258
0.0132618
0.0136194
0.0140002
0.0144054
0.0148367
0.0152945
0.0157804
0.0162935
0.0168335
0.0173972
0.0179832
0.0185836
0.0191883
0.0197852
0.0203505
0.0208826
0.0213438
0.0217645
0.0220943
0.02239
0.0227061
0.0232108
0.0248426
0.0281262
0.0361767
0.0529278
0.0690436
0.0755106
0.0764529
0.0726647
0.0107075
0.0107947
0.0108837
0.0109747
0.0110677
0.0111628
0.01126
0.0113594
0.0114611
0.0115651
0.0116717
0.0117807
0.0118925
0.0120072
0.0121247
0.0122454
0.0123694
0.0124969
0.0126281
0.0127631
0.0129022
0.0130456
0.0131935
0.0133462
0.013504
0.0136672
0.0138362
0.0140114
0.0141932
0.0143821
0.0145787
0.0147837
0.0149977
0.0152217
0.0154566
0.0157034
0.0159632
0.0162371
0.0165264
0.0168323
0.0171561
0.0174989
0.0178615
0.0182453
0.0186499
0.0190767
0.0195212
0.0199826
0.0204558
0.0209355
0.0214026
0.0218442
0.0222351
0.0225707
0.0228493
0.0230538
0.0232344
0.0233953
0.0236507
0.0245715
0.0263708
0.0312432
0.0412137
0.0593791
0.0715581
0.076536
0.076161
0.0714464
0.0618094
0.0155213
0.0156154
0.0157099
0.0158051
0.0159008
0.0159972
0.0160943
0.0161924
0.0162913
0.0163914
0.0164925
0.0165949
0.0166986
0.0168037
0.0169102
0.0170184
0.0171282
0.0172399
0.0173534
0.017469
0.0175867
0.0177068
0.0178294
0.0179547
0.018083
0.0182145
0.0183495
0.0184884
0.0186314
0.018779
0.0189318
0.0190903
0.0192551
0.0194268
0.0196063
0.0197944
0.0199921
0.0202005
0.020421
0.0206539
0.0209012
0.0211623
0.021439
0.0217334
0.0220425
0.0223664
0.0226894
0.0230207
0.0233522
0.0236543
0.0238964
0.0240676
0.0241443
0.02421
0.0242119
0.0242028
0.0243602
0.0248671
0.0261006
0.029293
0.0358179
0.0493907
0.0657877
0.0735139
0.0768405
0.0750283
0.0682918
0.0583039
0.0498641
0.0216494
0.0217206
0.0217906
0.0218598
0.0219281
0.0219956
0.022062
0.022128
0.0221928
0.0222571
0.0223207
0.0223836
0.022446
0.0225079
0.0225693
0.0226302
0.0226909
0.0227512
0.0228113
0.0228714
0.0229314
0.0229916
0.0230521
0.023113
0.0231745
0.0232368
0.0233002
0.0233648
0.023431
0.0234989
0.0235689
0.0236418
0.0237182
0.0237989
0.023885
0.0239772
0.0240769
0.0241847
0.0243026
0.0244272
0.0245648
0.0247075
0.02487
0.0250491
0.0252272
0.0253965
0.0255284
0.0256319
0.0256133
0.0255428
0.0254173
0.0252583
0.0251079
0.0250021
0.0250705
0.0253037
0.0265805
0.0289518
0.034404
0.0443212
0.0607577
0.0702192
0.0755359
0.0754614
0.0716793
0.0627046
0.0530876
0.0453295
0.0402893
0.0283356
0.0283572
0.0283753
0.0283908
0.028403
0.0284128
0.0284191
0.0284286
0.028427
0.0284314
0.0284302
0.0284266
0.0284205
0.0284121
0.0284014
0.0283884
0.0283733
0.028356
0.0283367
0.0283155
0.0282925
0.0282678
0.0282414
0.0282136
0.0281847
0.0281547
0.0281238
0.0280924
0.0280606
0.0280292
0.0279982
0.0279679
0.0279388
0.0279114
0.0278869
0.0278664
0.0278511
0.0278414
0.0278358
0.0278198
0.0278269
0.027817
0.0277741
0.027693
0.0275632
0.0273614
0.0270999
0.0268268
0.0264978
0.0262252
0.0259632
0.0257453
0.0257596
0.0261216
0.0272218
0.0296691
0.0347999
0.0438186
0.0577624
0.0672961
0.0728783
0.0744661
0.0719258
0.0645064
0.0548414
0.046217
0.0397362
0.0356147
0.033475
0.0346909
0.034644
0.0345724
0.0345202
0.0344463
0.0343864
0.0343113
0.0342402
0.034158
0.0340726
0.0339831
0.0338897
0.0337926
0.0336915
0.0335866
0.0334777
0.0333647
0.0332478
0.0331268
0.0330021
0.0328732
0.0327407
0.0326039
0.0324636
0.0323195
0.0321719
0.0320205
0.0318653
0.0317065
0.0315462
0.0313854
0.0312254
0.0310675
0.030912
0.0307583
0.0306038
0.0304454
0.0302756
0.0300887
0.0298704
0.0296192
0.029314
0.0289952
0.0286331
0.0282738
0.0278269
0.0273772
0.0270333
0.0266276
0.0265055
0.0266197
0.0272058
0.0285257
0.031381
0.0380084
0.045806
0.0577207
0.0649271
0.070721
0.0721274
0.0697313
0.0626962
0.0534574
0.0449799
0.0381027
0.0332148
0.0302343
0.0287598
0.0282758
0.0381842
0.0380758
0.0379598
0.0378383
0.0377108
0.0375789
0.037442
0.0373008
0.037155
0.0370047
0.0368499
0.0366908
0.0365274
0.0363598
0.036188
0.0360123
0.0358324
0.0356486
0.0354609
0.0352694
0.035074
0.0348749
0.0346721
0.034466
0.0342567
0.0340461
0.0338335
0.0336226
0.0334132
0.0332028
0.0329908
0.0327755
0.0325564
0.0323265
0.0320778
0.0318018
0.0314922
0.0311389
0.0307395
0.0302908
0.0298007
0.0292956
0.0287895
0.0282414
0.0277339
0.0272707
0.0271976
0.0273753
0.0278767
0.029289
0.0314079
0.0355035
0.0406973
0.049384
0.0560603
0.0619109
0.0673739
0.0671667
0.063595
0.0555844
0.0473021
0.0400122
0.0339322
0.0293112
0.0261103
0.0242496
0.0233895
0.0231617
0.0234565
0.0376838
0.0375451
0.0374042
0.0372624
0.0371181
0.0369705
0.0368186
0.0366625
0.0365016
0.0363354
0.0361636
0.0359858
0.0358014
0.0356108
0.0354127
0.035208
0.0349954
0.0347756
0.0345475
0.0343116
0.0340669
0.0338128
0.033549
0.033275
0.0329901
0.0326938
0.0323849
0.0320591
0.0317159
0.0313549
0.030974
0.0305733
0.0301514
0.029712
0.0292645
0.0288143
0.0283745
0.0279541
0.0275727
0.0272429
0.0269864
0.0268198
0.0268791
0.0270088
0.027452
0.0280932
0.0291867
0.030895
0.0331763
0.0364136
0.0403952
0.0458613
0.0514492
0.0567063
0.0571442
0.0540919
0.0468195
0.0393828
0.0333098
0.0289241
0.0254988
0.0225783
0.0201731
0.0184688
0.0174661
0.0169929
0.0168554
0.0171281
0.0178349
0.0281389
0.0282246
0.0283148
0.0283991
0.0284865
0.0285837
0.0286697
0.028764
0.0288627
0.0289509
0.0290374
0.0291387
0.029194
0.0292997
0.0293317
0.029419
0.0294383
0.0295067
0.0295168
0.0295599
0.0295583
0.0295486
0.0295315
0.0295074
0.0294761
0.029437
0.0293897
0.0293349
0.0292708
0.0291947
0.0291042
0.0289957
0.0288663
0.028711
0.0285263
0.0283057
0.0280446
0.0277338
0.0273663
0.0269291
0.0264114
0.025793
0.025057
0.0241744
0.0231154
0.0218355
0.0202929
0.01845
0.0162824
0.0138411
0.0116945
0.01145
0.013175
0.0144181
0.0144301
0.0134885
0.011992
0.0107619
0.00967793
0.00919389
0.00858202
0.00826257
0.00781037
0.00763884
0.00751989
0.00750787
0.00770208
0.00804258
0.00845583
0.00193538
0.00193687
0.00193824
0.00193953
0.00194129
0.00194288
0.00194471
0.00194616
0.00194728
0.00194869
0.00195008
0.00195307
0.00195927
0.00196239
0.00196341
0.00196269
0.00196639
0.00196878
0.00197002
0.00197087
0.0019728
0.00197523
0.00197579
0.00197863
0.00198201
0.00198483
0.00199037
0.00199396
0.00199445
0.00199499
0.00199609
0.00199985
0.00200287
0.00200034
0.00199903
0.0019966
0.00199567
0.00199441
0.00199136
0.00198951
0.0019847
0.00198396
0.00198244
0.00197722
0.00197402
0.00196942
0.00196437
0.00195972
0.00195522
0.00195216
0.00194994
0.00194891
0.00194771
0.00194622
0.00194427
0.00194225
0.00194013
0.00193781
0.00193553
0.001947
0.00194815
0.00194912
0.00195025
0.00195135
0.00195231
0.00195333
0.00195435
0.00195602
0.00195852
0.00196183
0.00196616
0.00196859
0.00196944
0.00196972
0.00197083
0.00197507
0.00197648
0.00197717
0.0019784
0.00198099
0.00198251
0.00198332
0.00198668
0.00198951
0.00199244
0.00199812
0.00200137
0.00200151
0.00200179
0.00200333
0.0020068
0.00200966
0.00200768
0.00200662
0.00200461
0.00200324
0.00200213
0.00199993
0.0019979
0.00199382
0.001992
0.0019907
0.00198771
0.00198407
0.00198076
0.00197624
0.00197189
0.00196747
0.00196377
0.00196051
0.00195826
0.00195671
0.00195524
0.0019541
0.00195278
0.00195145
0.00195002
0.00194859
0.00196034
0.00196107
0.00196178
0.00196264
0.00196353
0.00196467
0.00196616
0.00196815
0.00197081
0.00197378
0.00197633
0.00197812
0.00197878
0.00197929
0.00198036
0.00198386
0.00198594
0.00198675
0.00198743
0.00198947
0.0019918
0.00199303
0.00199413
0.00199765
0.00199996
0.00200325
0.00200878
0.00201182
0.00201166
0.00201179
0.0020137
0.00201683
0.00201955
0.00201819
0.00201709
0.00201556
0.0020139
0.00201279
0.00201121
0.0020094
0.00200587
0.00200336
0.00200207
0.00200026
0.00199716
0.0019944
0.00199089
0.0019872
0.0019832
0.00197938
0.00197589
0.00197282
0.00197055
0.00196857
0.00196707
0.00196576
0.00196464
0.00196355
0.00196263
0.00197725
0.00197799
0.00197884
0.00197993
0.00198121
0.00198284
0.00198473
0.00198685
0.00198895
0.00199043
0.00199165
0.0019923
0.00199297
0.00199453
0.00199726
0.00199924
0.00200024
0.0020009
0.0020018
0.0020046
0.00200639
0.00200755
0.00200901
0.00201219
0.00201426
0.00201805
0.00202323
0.00202605
0.00202568
0.00202572
0.00202784
0.00203062
0.00203333
0.00203246
0.00203152
0.00203034
0.00202877
0.00202742
0.00202608
0.00202465
0.00202236
0.00201885
0.00201733
0.00201602
0.00201405
0.00201165
0.00200878
0.0020058
0.00200259
0.00199922
0.00199597
0.00199281
0.00199008
0.00198768
0.00198566
0.00198394
0.00198255
0.0019813
0.00198032
0.00199926
0.00200019
0.00200123
0.00200247
0.00200382
0.00200527
0.00200669
0.00200798
0.00200903
0.00200984
0.00201067
0.00201159
0.0020132
0.00201519
0.00201664
0.00201755
0.00201817
0.00201897
0.00202104
0.00202334
0.00202483
0.00202608
0.0020278
0.00203048
0.00203253
0.00203677
0.00204156
0.00204416
0.00204365
0.00204366
0.00204588
0.00204834
0.00205108
0.00205063
0.00204987
0.00204894
0.00204774
0.00204638
0.00204497
0.00204365
0.00204204
0.00203947
0.00203668
0.00203549
0.00203425
0.00203273
0.00203071
0.00202822
0.00202555
0.00202274
0.00201997
0.00201721
0.00201462
0.0020122
0.00201004
0.00200808
0.00200643
0.00200491
0.00200373
0.00202812
0.00202886
0.00202963
0.0020305
0.0020313
0.00203214
0.00203278
0.00203377
0.00203437
0.00203531
0.00203615
0.00203736
0.00203853
0.00203952
0.00204035
0.00204102
0.00204196
0.00204357
0.00204571
0.00204745
0.00204878
0.00205014
0.00205187
0.00205403
0.00205622
0.00206094
0.00206515
0.00206756
0.00206694
0.00206694
0.00206921
0.00207138
0.00207419
0.00207411
0.00207356
0.00207289
0.00207198
0.00207086
0.00206967
0.00206848
0.00206722
0.00206547
0.00206302
0.00206069
0.00205943
0.00205839
0.00205732
0.00205595
0.00205417
0.0020519
0.00204951
0.00204709
0.00204478
0.00204257
0.00204053
0.00203859
0.00203689
0.00203524
0.00203392
0.00206102
0.00206126
0.00206215
0.00206239
0.00206327
0.00206351
0.00206436
0.00206465
0.00206556
0.00206601
0.00206721
0.00206779
0.00206858
0.00206935
0.00207004
0.00207113
0.0020724
0.00207406
0.00207571
0.00207709
0.00207829
0.00207964
0.00208126
0.00208324
0.00208572
0.00209071
0.00209438
0.00209662
0.00209593
0.00209594
0.00209824
0.00210016
0.002103
0.00210326
0.00210296
0.00210251
0.0021019
0.00210105
0.00210002
0.00209901
0.00209804
0.00209684
0.00209526
0.00209332
0.00209133
0.00208991
0.0020889
0.0020882
0.00208747
0.00208646
0.00208511
0.00208337
0.00208146
0.00207953
0.00207775
0.00207605
0.00207456
0.00207306
0.00207187
0.00210181
0.0021018
0.00210201
0.0021023
0.00210263
0.00210295
0.00210335
0.00210376
0.00210437
0.0021049
0.00210559
0.0021062
0.00210683
0.00210746
0.00210821
0.0021094
0.00211072
0.00211219
0.00211362
0.00211487
0.00211595
0.00211706
0.0021184
0.0021204
0.0021234
0.00212823
0.00213139
0.00213351
0.00213277
0.00213282
0.00213512
0.00213682
0.00213966
0.00214036
0.0021403
0.00214011
0.00213983
0.00213937
0.0021387
0.00213792
0.00213719
0.00213636
0.00213527
0.00213399
0.00213256
0.00213113
0.00212985
0.0021289
0.00212833
0.00212788
0.00212732
0.00212666
0.00212574
0.00212456
0.00212313
0.00212158
0.00212021
0.00211876
0.00211771
0.00215062
0.00215069
0.00215077
0.00215089
0.00215103
0.00215123
0.00215152
0.00215186
0.00215224
0.00215265
0.00215307
0.0021535
0.00215392
0.00215439
0.00215509
0.00215611
0.00215736
0.00215868
0.0021599
0.00216091
0.00216173
0.0021625
0.00216358
0.00216594
0.00216972
0.00217388
0.00217676
0.00217878
0.00217802
0.00217811
0.0021804
0.00218194
0.00218475
0.00218581
0.00218607
0.00218615
0.00218616
0.00218606
0.00218569
0.00218529
0.00218487
0.00218445
0.00218387
0.0021831
0.00218223
0.00218132
0.00218049
0.00217981
0.00217937
0.00217909
0.00217899
0.0021789
0.00217877
0.00217847
0.00217809
0.00217763
0.00217716
0.0021763
0.00217535
0.00221201
0.00221219
0.00221184
0.00221169
0.00221184
0.00221223
0.00221204
0.00221198
0.00221236
0.00221232
0.00221272
0.00221269
0.00221294
0.00221348
0.00221425
0.00221527
0.00221644
0.00221757
0.00221848
0.00221911
0.00221955
0.00222004
0.00222124
0.00222413
0.00222785
0.00223146
0.00223415
0.00223597
0.00223521
0.00223535
0.0022376
0.00223904
0.0022418
0.00224327
0.00224396
0.00224439
0.00224478
0.00224511
0.00224545
0.00224531
0.00224532
0.00224525
0.00224517
0.00224505
0.00224462
0.00224428
0.00224383
0.00224361
0.00224339
0.0022434
0.00224288
0.00224294
0.00224284
0.00224365
0.00224383
0.00224394
0.00224398
0.00224349
0.00224351
0.00229152
0.00229098
0.00229048
0.00229005
0.00228962
0.0022892
0.00228874
0.0022883
0.00228787
0.00228745
0.00228707
0.00228678
0.00228672
0.00228679
0.00228734
0.00228809
0.0022888
0.00228932
0.0022896
0.00228972
0.0022899
0.0022904
0.00229177
0.00229469
0.00229828
0.00230175
0.00230435
0.00230603
0.0023053
0.00230549
0.00230772
0.00230912
0.0023118
0.00231359
0.00231462
0.00231535
0.00231606
0.00231688
0.00231763
0.00231848
0.00231868
0.00231926
0.00231968
0.00231979
0.00232084
0.00232064
0.00232146
0.00232111
0.00232213
0.00232183
0.00232294
0.00232273
0.0023233
0.0023239
0.0023243
0.00232454
0.00232496
0.00232488
0.00232637
0.00238974
0.00238865
0.00238769
0.00238671
0.00238572
0.00238473
0.00238373
0.00238275
0.00238182
0.00238098
0.00238026
0.00237975
0.00237944
0.00237928
0.00237931
0.00237951
0.00237974
0.00237995
0.00238
0.00238005
0.0023799
0.00238028
0.00238185
0.0023847
0.00238812
0.00239131
0.00239365
0.00239507
0.00239435
0.0023946
0.00239681
0.00239824
0.00240087
0.00240308
0.00240472
0.00240601
0.00240719
0.00240855
0.00240972
0.00241118
0.00241196
0.00241289
0.00241408
0.00241444
0.00241591
0.00241635
0.00241768
0.00241802
0.00241926
0.00241973
0.00242082
0.00242151
0.00242239
0.00242336
0.00242428
0.00242499
0.00242592
0.00242632
0.00242756
0.00251187
0.00251022
0.00250873
0.00250717
0.00250562
0.00250408
0.00250256
0.0025011
0.00249974
0.00249851
0.00249746
0.00249659
0.00249588
0.00249527
0.00249473
0.00249422
0.00249357
0.0024928
0.00249186
0.00249095
0.00249041
0.00249068
0.00249223
0.00249496
0.00249824
0.0025013
0.00250357
0.00250484
0.00250417
0.00250449
0.0025067