/*--------------------------------*- C++ -*----------------------------------*\
| =========                 |                                                 |
| \\      /  F ield         | OpenFOAM: The Open Source CFD Toolbox           |
|  \\    /   O peration     | Version:  2312                                  |
|   \\  /    A nd           | Website:  www.openfoam.com                      |
|    \\/     M anipulation  |                                                 |
\*---------------------------------------------------------------------------*/
FoamFile
{
    version     2.0;
    format      ascii;
    arch        "LSB;label=32;scalar=64";
    class       volScalarField;
    location    "200";
    object      nut;
}
// * * * * * * * * * * * * * * * * * * * * * * * * * * * * * * * * * * * * * //

dimensions      [0 2 -1 0 0 0 0];

internalField   nonuniform List<scalar> 
76025
(
0.00132869
0.00132894
0.00132912
0.00132935
0.00132932
0.00132969
0.00132979
0.00133003
0.00133
0.00133039
0.00133069
0.00133114
0.00133138
0.00133174
0.00133217
0.00133254
0.00133272
0.00133329
0.00133361
0.00133416
0.00133475
0.00133553
0.00133608
0.00133692
0.00133769
0.0013386
0.00133981
0.00134079
0.00134201
0.00134333
0.00134441
0.00134591
0.00134739
0.00134919
0.00135063
0.00135371
0.00135538
0.00135787
0.00135991
0.00136245
0.00136446
0.00136646
0.00136979
0.00137334
0.00137705
0.00138096
0.00138553
0.00138971
0.00139552
0.00140037
0.00140739
0.00141349
0.00142253
0.00142945
0.00144171
0.0014511
0.00146559
0.0014775
0.00150111
0.00151253
0.00155382
0.00155303
0.00163528
0.00162826
0.0017512
0.0017759
0.00192565
0.0020404
0.00232289
0.00133637
0.00133659
0.0013368
0.00133708
0.00133722
0.00133753
0.00133773
0.00133804
0.00133826
0.00133853
0.0013388
0.00133915
0.0013395
0.00133988
0.00134033
0.0013408
0.00134127
0.00134181
0.00134237
0.00134296
0.00134361
0.00134436
0.00134512
0.00134598
0.00134692
0.00134789
0.00134899
0.00135015
0.00135142
0.00135276
0.00135432
0.00135581
0.00135756
0.00136033
0.00136225
0.00136435
0.00136636
0.00136893
0.00137094
0.00137335
0.00137514
0.00137838
0.00138175
0.00138591
0.00138963
0.00139453
0.0013987
0.00140441
0.00140986
0.00141622
0.00142416
0.00143056
0.00144229
0.00144866
0.00146492
0.00147279
0.00149376
0.00150624
0.00153359
0.00155194
0.00159089
0.00161439
0.00168652
0.00170178
0.00183992
0.00185814
0.00208415
0.00222143
0.0025615
0.00134508
0.00134526
0.00134548
0.00134579
0.00134607
0.00134643
0.00134677
0.00134716
0.00134756
0.00134798
0.00134839
0.00134882
0.00134926
0.00134971
0.0013502
0.00135073
0.00135129
0.00135189
0.00135253
0.00135324
0.00135396
0.00135477
0.00135562
0.00135654
0.00135759
0.0013586
0.00135989
0.00136101
0.00136241
0.00136444
0.00136662
0.00136822
0.00137039
0.00137259
0.00137446
0.00137692
0.00137864
0.00138041
0.00138314
0.00138599
0.0013892
0.00139265
0.00139634
0.00140057
0.00140467
0.00141013
0.00141462
0.00142188
0.00142677
0.00143617
0.00144209
0.0014532
0.00146234
0.00147365
0.00148954
0.00150018
0.00152475
0.00153756
0.00157167
0.00158909
0.00164005
0.00166361
0.00174546
0.00177745
0.00193071
0.00197243
0.00226069
0.00240271
0.00268723
0.001356
0.00135607
0.00135618
0.00135636
0.00135658
0.00135686
0.00135719
0.00135757
0.001358
0.00135847
0.00135898
0.00135953
0.0013601
0.00136071
0.00136134
0.00136202
0.00136272
0.00136347
0.00136424
0.00136507
0.00136595
0.00136684
0.00136788
0.00136885
0.00137008
0.00137125
0.00137237
0.00137445
0.0013766
0.00137852
0.0013801
0.00138222
0.00138401
0.0013865
0.00138802
0.00138973
0.00139251
0.00139524
0.00139821
0.00140118
0.00140478
0.00140837
0.00141283
0.00141718
0.00142254
0.00142792
0.00143412
0.0014411
0.00144797
0.00145753
0.00146497
0.00147804
0.00148701
0.00150326
0.0015176
0.00153419
0.00156056
0.00157629
0.00161654
0.00163899
0.00169742
0.00173123
0.00182981
0.00187886
0.00206496
0.00212334
0.00246398
0.00257341
0.00286397
0.0013688
0.001369
0.00136921
0.00136944
0.00136968
0.00136997
0.00137027
0.00137062
0.001371
0.00137142
0.00137189
0.0013724
0.00137297
0.00137359
0.00137427
0.00137501
0.00137581
0.00137667
0.00137759
0.00137856
0.00137961
0.00138067
0.00138182
0.00138308
0.00138417
0.00138621
0.00138829
0.00139012
0.0013921
0.00139433
0.00139604
0.00139832
0.00139958
0.00140167
0.00140339
0.00140583
0.00140862
0.00141171
0.00141515
0.00141881
0.00142296
0.00142724
0.00143226
0.00143724
0.00144336
0.00144926
0.00145669
0.00146399
0.00147285
0.00148251
0.00149266
0.00150637
0.00151765
0.00153731
0.0015512
0.00157628
0.00160019
0.00162471
0.00167264
0.00169648
0.00177171
0.00181462
0.00193701
0.00200513
0.00222422
0.00229986
0.00266091
0.00274435
0.00297865
0.00138301
0.00138331
0.00138364
0.00138398
0.00138437
0.00138476
0.00138524
0.00138569
0.00138624
0.00138676
0.00138733
0.00138794
0.00138854
0.00138917
0.00138982
0.0013905
0.00139126
0.00139201
0.00139297
0.00139374
0.0013952
0.00139629
0.00139808
0.00139957
0.00140173
0.00140322
0.00140469
0.00140641
0.00140854
0.0014101
0.00141164
0.00141345
0.00141527
0.00141832
0.00142143
0.00142467
0.00142807
0.00143169
0.00143563
0.00143983
0.00144449
0.00144939
0.001455
0.00146077
0.00146763
0.00147447
0.00148301
0.00149124
0.00150199
0.00151226
0.00152573
0.00153943
0.00155572
0.00157565
0.0015943
0.00162457
0.00164765
0.001689
0.00173179
0.00177529
0.00186875
0.00192044
0.00208045
0.00215901
0.00242322
0.0024896
0.00286234
0.00287698
0.00310743
0.00140037
0.0014008
0.00140121
0.00140164
0.00140203
0.00140251
0.00140286
0.00140347
0.00140378
0.00140471
0.0014053
0.00140622
0.00140739
0.00140853
0.00140973
0.00141094
0.00141223
0.00141357
0.00141499
0.00141648
0.00141775
0.00141881
0.00142126
0.00142239
0.00142396
0.001426
0.00142724
0.00142896
0.00142978
0.00143115
0.00143382
0.00143651
0.00143913
0.00144187
0.00144488
0.00144815
0.00145179
0.00145572
0.00146011
0.0014648
0.00147004
0.00147561
0.00148192
0.0014886
0.00149631
0.00150446
0.001514
0.00152408
0.0015361
0.0015487
0.0015642
0.00158012
0.00160054
0.00162151
0.00164807
0.0016791
0.00171199
0.00176353
0.00180787
0.00188687
0.00197708
0.00206715
0.00225929
0.00234261
0.00263837
0.00268301
0.00303041
0.00299493
0.00320363
0.00141985
0.00142036
0.00142098
0.00142171
0.00142252
0.00142332
0.00142428
0.00142505
0.00142631
0.00142714
0.00142872
0.00143015
0.00143077
0.00143261
0.00143339
0.00143532
0.00143601
0.00143752
0.00143871
0.00143995
0.0014408
0.00144157
0.00144268
0.00144368
0.00144537
0.00144715
0.00144869
0.00145071
0.00145272
0.00145488
0.00145739
0.00146025
0.00146345
0.0014669
0.00147065
0.0014746
0.00147892
0.00148346
0.00148855
0.00149388
0.00149999
0.00150632
0.00151379
0.00152143
0.00153064
0.00154001
0.00155139
0.00156314
0.00157724
0.00159235
0.00161009
0.00162979
0.00165325
0.001679
0.0017123
0.0017474
0.00179608
0.0018517
0.00191988
0.00202008
0.00211664
0.00226784
0.00243741
0.00256343
0.00285413
0.00286108
0.00318106
0.00308058
0.00327355
0.00144575
0.00144549
0.00144535
0.00144526
0.00144549
0.00144561
0.00144641
0.00144694
0.00144842
0.00144995
0.00145093
0.00145321
0.00145446
0.00145685
0.00145807
0.00145915
0.00145989
0.00146082
0.0014619
0.0014637
0.00146461
0.00146675
0.00146736
0.00146957
0.00147195
0.0014743
0.00147656
0.00147902
0.00148159
0.0014843
0.00148727
0.00149051
0.00149409
0.00149793
0.00150215
0.00150663
0.0015116
0.00151684
0.00152277
0.00152898
0.00153615
0.00154352
0.00155235
0.00156115
0.00157214
0.00158279
0.00159654
0.00160981
0.00162702
0.00164436
0.001666
0.00168978
0.00171792
0.00175137
0.00179132
0.0018387
0.00190134
0.00197071
0.00206917
0.00217875
0.00231216
0.00248242
0.00262826
0.00281954
0.00299123
0.00305259
0.00330129
0.00312979
0.00328912
0.0014757
0.00147715
0.0014785
0.00147961
0.00148068
0.00148151
0.00148243
0.00148328
0.00148434
0.0014853
0.00148556
0.0014868
0.00148652
0.00148844
0.00148858
0.00148896
0.00148949
0.00149082
0.00149157
0.00149334
0.00149423
0.00149664
0.00149899
0.00150145
0.00150403
0.00150674
0.00150955
0.00151254
0.00151569
0.00151903
0.00152263
0.00152645
0.00153062
0.00153504
0.0015399
0.00154506
0.00155079
0.00155688
0.00156375
0.00157102
0.00157935
0.001588
0.00159827
0.00160861
0.0016215
0.001634
0.00165046
0.00166603
0.00168726
0.00170772
0.00173532
0.00176413
0.00180077
0.00184363
0.00189515
0.00195988
0.00203797
0.00213273
0.00225217
0.00238096
0.00254113
0.00269825
0.00285915
0.00302536
0.0031339
0.00322905
0.00332261
0.00315146
0.00323191
0.00150686
0.00150938
0.00150979
0.00151224
0.00151297
0.00151595
0.00151709
0.0015196
0.00152008
0.00152394
0.00152452
0.00152673
0.00152688
0.00152821
0.00152818
0.00152959
0.00152957
0.00153152
0.00153119
0.00153329
0.0015352
0.00153731
0.00153962
0.00154212
0.00154481
0.00154769
0.00155077
0.00155404
0.00155755
0.0015613
0.00156537
0.00156971
0.00157446
0.00157954
0.00158514
0.00159113
0.00159777
0.0016049
0.00161287
0.00162145
0.00163112
0.00164145
0.00165342
0.00166595
0.00168114
0.00169655
0.00171633
0.00173583
0.00176214
0.0017881
0.00182372
0.00186067
0.00190984
0.00196546
0.00203505
0.00211917
0.00221873
0.00233759
0.00247305
0.00261901
0.0027794
0.00292632
0.00307543
0.00319428
0.00326748
0.00332994
0.0032853
0.00313502
0.00306215
0.00154697
0.00154764
0.00154906
0.0015505
0.00155078
0.00155241
0.00155439
0.00155643
0.00155707
0.00155879
0.00156009
0.00156283
0.00156375
0.00156539
0.00156798
0.00157063
0.00157044
0.00157294
0.00157551
0.0015783
0.00158104
0.00158376
0.00158655
0.00158946
0.00159256
0.00159587
0.00159943
0.00160319
0.00160725
0.00161158
0.00161627
0.00162131
0.00162682
0.00163275
0.00163927
0.00164633
0.00165411
0.00166261
0.00167202
0.00168239
0.00169389
0.0017066
0.00172094
0.00173672
0.00175512
0.00177507
0.00179941
0.00182538
0.00185855
0.00189384
0.00194014
0.00199055
0.00205579
0.00212977
0.00222055
0.0023258
0.00244591
0.00258103
0.00272407
0.00287147
0.00301589
0.0031429
0.00325846
0.00332326
0.00336075
0.00334206
0.00320205
0.0030414
0.00275294
0.00159817
0.00159941
0.0016002
0.0016018
0.00160241
0.00160397
0.00160448
0.00160636
0.00160685
0.00160798
0.00160928
0.00161139
0.00161348
0.00161573
0.00161815
0.00162072
0.00162296
0.00162547
0.00162824
0.00163121
0.00163431
0.00163753
0.00164089
0.00164444
0.0016482
0.00165223
0.00165654
0.00166112
0.00166606
0.00167136
0.00167709
0.00168327
0.00168997
0.00169725
0.00170519
0.00171387
0.00172337
0.00173387
0.00174541
0.00175836
0.00177258
0.00178872
0.00180665
0.00182716
0.00185045
0.00187719
0.00190846
0.00194432
0.00198759
0.00203714
0.0020978
0.00216742
0.00225112
0.00234717
0.00245661
0.00257975
0.00271046
0.00284883
0.00298579
0.00311641
0.00323227
0.00332763
0.00338961
0.00340355
0.0033836
0.0032609
0.00306576
0.00281598
0.00239425
0.00166045
0.00166194
0.0016631
0.00166472
0.00166593
0.00166755
0.00166873
0.00167038
0.00167177
0.00167326
0.00167486
0.00167682
0.00167898
0.00168132
0.00168381
0.00168646
0.00168921
0.00169213
0.00169524
0.00169856
0.0017021
0.00170586
0.00170985
0.0017141
0.00171865
0.00172351
0.0017287
0.00173429
0.00174031
0.00174682
0.00175387
0.00176152
0.00176981
0.00177888
0.00178876
0.00179965
0.00181157
0.00182486
0.0018395
0.0018561
0.00187446
0.00189555
0.00191915
0.00194664
0.00197786
0.00201459
0.00205695
0.00210692
0.00216503
0.00223326
0.00231168
0.00240282
0.0025032
0.00261826
0.00273582
0.00286737
0.0029906
0.00311933
0.00323278
0.00333155
0.00341047
0.00345651
0.00345694
0.00341764
0.00330611
0.00309798
0.00283747
0.00247712
0.00203264
0.0017379
0.00173961
0.00174125
0.00174308
0.00174485
0.00174677
0.00174865
0.00175067
0.00175273
0.00175487
0.0017571
0.0017595
0.00176208
0.00176484
0.00176776
0.00177086
0.00177415
0.00177764
0.00178136
0.00178532
0.00178955
0.00179407
0.00179891
0.00180409
0.00180963
0.00181555
0.00182191
0.0018288
0.00183623
0.00184431
0.00185308
0.00186266
0.00187311
0.00188461
0.00189723
0.00191125
0.00192675
0.00194417
0.00196363
0.00198584
0.00201087
0.00203969
0.00207253
0.00211064
0.00215443
0.00220531
0.0022638
0.00233124
0.00240779
0.00249463
0.00258991
0.00269609
0.00280512
0.00292592
0.00303678
0.00316139
0.0032586
0.00336706
0.00343804
0.00349843
0.00352794
0.00350927
0.0034493
0.0033353
0.00311922
0.00285223
0.00248706
0.00210327
0.00173899
0.00183559
0.00183775
0.00183995
0.00184227
0.00184464
0.00184713
0.00184968
0.00185235
0.00185513
0.00185802
0.00186103
0.0018642
0.00186753
0.00187106
0.00187477
0.00187869
0.00188285
0.00188725
0.00189192
0.0018969
0.00190221
0.00190789
0.00191396
0.00192045
0.0019274
0.00193489
0.00194298
0.00195176
0.00196129
0.00197172
0.00198311
0.00199566
0.00200949
0.00202486
0.00204193
0.00206108
0.00208257
0.00210687
0.00213441
0.00216582
0.00220167
0.00224252
0.00228927
0.00234226
0.00240273
0.00247024
0.00254647
0.00262945
0.00272118
0.00281788
0.00292079
0.00302627
0.00313068
0.0032378
0.00332852
0.00342861
0.00348741
0.00356538
0.00357806
0.00359911
0.00355894
0.00347196
0.00334539
0.00313078
0.00282872
0.00251382
0.00205522
0.00180454
0.00159344
0.00195964
0.00196242
0.00196527
0.00196824
0.00197133
0.00197455
0.0019779
0.0019814
0.00198506
0.0019889
0.00199291
0.00199713
0.00200157
0.00200625
0.0020112
0.00201642
0.00202195
0.00202782
0.00203406
0.00204071
0.00204782
0.00205541
0.00206352
0.00207225
0.00208167
0.00209189
0.00210301
0.00211516
0.00212847
0.00214313
0.00215933
0.00217732
0.00219733
0.0022197
0.00224476
0.00227291
0.00230456
0.00234019
0.00238028
0.00242525
0.00247583
0.00253191
0.00259437
0.00266237
0.00273728
0.0028165
0.00290267
0.0029901
0.00308395
0.00317413
0.00326922
0.00335518
0.00344148
0.00351653
0.00357876
0.00363768
0.00365364
0.00368791
0.00363342
0.00361173
0.0034789
0.00333181
0.00311478
0.00280152
0.00244302
0.00211941
0.00167576
0.00163453
0.00184007
0.00212328
0.00212719
0.00213121
0.00213536
0.00213967
0.00214413
0.00214876
0.00215359
0.00215863
0.0021639
0.00216942
0.00217523
0.00218136
0.00218783
0.00219468
0.00220196
0.00220971
0.00221799
0.00222684
0.00223631
0.00224648
0.00225746
0.00226935
0.00228229
0.00229639
0.00231183
0.00232875
0.00234736
0.00236786
0.00239049
0.00241548
0.00244313
0.00247369
0.00250746
0.00254472
0.00258574
0.00263077
0.00267998
0.00273355
0.0027914
0.0028537
0.00291998
0.00299034
0.00306328
0.00313968
0.00321611
0.00329556
0.00337063
0.00344916
0.00351641
0.00358884
0.00364086
0.00369932
0.00372919
0.00375924
0.00376196
0.00373629
0.0037078
0.00358656
0.0035079
0.00326928
0.00307063
0.00273668
0.00237993
0.00199442
0.00173989
0.00150374
0.00173705
0.00241074
0.00233836
0.0023439
0.00234966
0.0023557
0.00236202
0.00236865
0.00237562
0.00238296
0.00239072
0.00239893
0.00240763
0.00241689
0.00242673
0.00243725
0.00244845
0.00246042
0.00247322
0.00248695
0.00250169
0.00251757
0.0025347
0.0025532
0.00257319
0.0025948
0.00261816
0.00264343
0.00267073
0.0027002
0.00273198
0.00276619
0.00280293
0.0028423
0.00288433
0.00292907
0.00297647
0.00302648
0.00307897
0.00313375
0.00319056
0.00324911
0.00330895
0.00336967
0.00343087
0.00349158
0.00355179
0.00360898
0.00366537
0.00371437
0.00376414
0.00379827
0.00383824
0.00384872
0.00387338
0.00384984
0.00384528
0.00377765
0.00371267
0.00359667
0.00341886
0.00325451
0.00292191
0.00266887
0.0022401
0.00193811
0.00158764
0.00151894
0.00165455
0.00228621
0.00269707
0.00266506
0.00267499
0.00268531
0.0026961
0.00270739
0.00271921
0.00273161
0.00274466
0.00275838
0.00277282
0.00278806
0.00280413
0.00282113
0.00283909
0.00285811
0.00287827
0.00289962
0.0029222
0.00294607
0.00297126
0.00299781
0.00302576
0.00305511
0.00308589
0.00311808
0.00315168
0.00318665
0.00322296
0.00326053
0.0032993
0.00333916
0.00338
0.00342168
0.00346404
0.0035069
0.00355006
0.0035933
0.00363637
0.00367897
0.00372086
0.00376156
0.00380087
0.0038381
0.00387312
0.00390503
0.00393317
0.00395734
0.00397387
0.00398777
0.00398519
0.00398698
0.00395316
0.00393866
0.00385571
0.00381083
0.00365963
0.00355356
0.00332759
0.00310882
0.00282708
0.00244554
0.00215361
0.00173124
0.00153755
0.00141831
0.00164722
0.0022159
0.00258962
0.00278992
0.00314829
0.00316597
0.00318442
0.0032037
0.00322379
0.00324472
0.00326645
0.00328899
0.0033123
0.00333636
0.00336116
0.00338667
0.00341288
0.00343973
0.00346724
0.00349499
0.00352297
0.00355115
0.00357953
0.00360807
0.00363673
0.00366549
0.0036943
0.0037231
0.00375185
0.00378047
0.0038089
0.00383705
0.00386485
0.00389219
0.00391898
0.00394512
0.00397047
0.00399493
0.00401836
0.0040406
0.00406149
0.00408086
0.00409847
0.00411415
0.00412744
0.00413834
0.00414577
0.00415029
0.00414977
0.00414579
0.00413459
0.00411745
0.00409195
0.00405301
0.0040112
0.00393228
0.00386888
0.00372034
0.00362229
0.00337942
0.00322298
0.00288687
0.00263512
0.00224899
0.00190154
0.00163383
0.00135391
0.00139624
0.0016519
0.00216528
0.00248501
0.00265843
0.00288121
0.00392763
0.00394988
0.00397205
0.00399417
0.00401625
0.00403806
0.00405917
0.00407964
0.0040995
0.00411879
0.00413752
0.00415571
0.00417337
0.0041905
0.00420712
0.00422346
0.00423946
0.00425509
0.00427028
0.00428499
0.00429916
0.00431273
0.00432565
0.00433786
0.00434929
0.00435987
0.00436953
0.0043782
0.00438579
0.00439223
0.00439742
0.00440126
0.00440367
0.00440454
0.00440373
0.00440113
0.00439656
0.00438983
0.00438074
0.00436903
0.00435423
0.00433628
0.00431382
0.00428801
0.00425523
0.00421975
0.00417222
0.00412208
0.00405431
0.00398086
0.00388523
0.00375938
0.00362594
0.0034082
0.0032374
0.00291219
0.00269528
0.00229787
0.00201552
0.0016585
0.00141942
0.00127695
0.00136082
0.0017228
0.00212932
0.00240185
0.00252816
0.00275946
0.00297581
0.00471182
0.00472023
0.00472796
0.00473504
0.00474144
0.00474731
0.00475289
0.00475814
0.00476299
0.00476738
0.00477127
0.00477463
0.00477741
0.00477958
0.00478109
0.00478192
0.00478205
0.00478145
0.00478007
0.00477787
0.00477482
0.00477086
0.00476594
0.00475999
0.00475296
0.00474477
0.00473536
0.00472463
0.0047125
0.00469889
0.00468369
0.00466678
0.00464805
0.00462734
0.00460452
0.00457938
0.00455179
0.0045214
0.00448813
0.00445127
0.00441075
0.00436568
0.00431535
0.00426123
0.0041984
0.00413274
0.0040475
0.0039652
0.00385248
0.00374235
0.00356991
0.00338957
0.00315113
0.0028832
0.00262776
0.00226878
0.00201792
0.00165581
0.00142965
0.00122464
0.00122164
0.00139885
0.0018259
0.0020903
0.00231059
0.0024299
0.00264045
0.00282328
0.00313021
0.00514204
0.00514085
0.00513898
0.00513644
0.00513318
0.00512919
0.00512445
0.00511911
0.00511291
0.00510607
0.00509847
0.00509011
0.00508095
0.00507098
0.00506017
0.00504849
0.0050359
0.00502237
0.00500783
0.00499228
0.00497563
0.00495787
0.00493889
0.00491865
0.00489707
0.00487408
0.00484959
0.0048235
0.00479569
0.00476604
0.00473443
0.00470073
0.00466481
0.00462649
0.00458561
0.00454189
0.00449521
0.00444498
0.0043914
0.0043322
0.0042693
0.0041987
0.00412546
0.00404791
0.00395861
0.00385981
0.00373297
0.00360194
0.00339803
0.00321116
0.00293519
0.00271363
0.00239953
0.00214735
0.00186515
0.00157009
0.00137668
0.00116395
0.0011492
0.00122486
0.00156908
0.00182871
0.0020688
0.00216842
0.00233334
0.00248458
0.0026512
0.00293351
0.00338322
0.00519166
0.00518337
0.00517393
0.00516382
0.00515271
0.00514095
0.0051281
0.00511659
0.00510116
0.00508783
0.00507238
0.00505593
0.00503849
0.00502004
0.00500056
0.00498002
0.00495837
0.0049356
0.00491161
0.00488669
0.00486026
0.00483287
0.00480372
0.00477332
0.00474146
0.00470807
0.00467298
0.00463609
0.00459729
0.00455646
0.00451343
0.00446795
0.00441984
0.00436884
0.00431483
0.00425738
0.0041965
0.00413108
0.00406086
0.00397972
0.00389898
0.00380372
0.00369409
0.00356418
0.00341689
0.00324322
0.00304923
0.00284183
0.00259526
0.00237604
0.00209401
0.00188381
0.00159627
0.00143202
0.00120341
0.00109102
0.0010507
0.00113278
0.00137294
0.00161107
0.00181278
0.00195159
0.00207312
0.00222771
0.00233076
0.00248067
0.00273116
0.00311648
0.00361955
0.00481632
0.00480368
0.00478265
0.00476785
0.0047473
0.00473101
0.00471096
0.00469357
0.00467241
0.0046502
0.00462485
0.00459931
0.00457294
0.00454569
0.00451749
0.00448829
0.00445802
0.0044267
0.00439459
0.004364
0.00432812
0.00429553
0.00425547
0.00421928
0.00418087
0.004141
0.00409871
0.00405452
0.00400821
0.00395998
0.00390954
0.00385649
0.0038005
0.00374083
0.00367692
0.00360712
0.00353103
0.00344528
0.00335105
0.00324129
0.00312278
0.00298196
0.0028412
0.00267644
0.00251726
0.00232736
0.00213091
0.00190715
0.00169049
0.00148119
0.00130187
0.00114918
0.00101571
0.000981188
0.000993967
0.00105416
0.0012654
0.00142709
0.00161677
0.00173449
0.00184544
0.00198434
0.00206756
0.00215413
0.00227562
0.00247654
0.00278278
0.00316917
0.00357697
0.00383417
0.00381459
0.00379405
0.00377293
0.00375101
0.0037286
0.00370551
0.00368185
0.00365746
0.00363233
0.00360639
0.00357968
0.0035522
0.00352395
0.00349492
0.0034651
0.00343446
0.003403
0.0033707
0.00333758
0.00330351
0.00326854
0.00323245
0.0031954
0.00315755
0.00312204
0.00307946
0.00304117
0.00300022
0.00295591
0.00290774
0.00285514
0.00279779
0.00273436
0.00266379
0.00258445
0.00249685
0.00239802
0.00229188
0.00217255
0.00205147
0.0019168
0.00179286
0.0016395
0.00151443
0.00134916
0.00117618
0.00102581
0.000926226
0.000855302
0.000830928
0.0008425
0.000894322
0.00100109
0.00111569
0.00123122
0.00141865
0.00148524
0.00160837
0.00171016
0.00179079
0.00183413
0.00187994
0.0019703
0.00211371
0.00231743
0.00255215
0.0027737
0.00299657
0.00211324
0.00209859
0.00208376
0.00206885
0.00205374
0.00203837
0.00202272
0.00200674
0.00199042
0.0019738
0.0019567
0.00193939
0.00192151
0.00190347
0.00188485
0.00186603
0.00184661
0.00182696
0.00180668
0.00178603
0.00176493
0.00174333
0.00172117
0.00169837
0.00167483
0.0016504
0.0016231
0.00159258
0.0015578
0.00151776
0.00147233
0.00142233
0.00136759
0.00130949
0.00124851
0.0011862
0.00112277
0.00106002
0.0009979
0.000938478
0.000880856
0.000827558
0.000783039
0.000739386
0.00070533
0.000677115
0.000683321
0.000699174
0.000724376
0.000763581
0.000810969
0.000882334
0.00095387
0.00106394
0.00111581
0.00118083
0.00123964
0.00126083
0.00123147
0.00127016
0.00133505
0.00139668
0.00144464
0.0014975
0.00155602
0.0016048
0.00163505
0.00169373
0.00180949
0.000378455
0.000379301
0.000380209
0.000381133
0.000381934
0.000382928
0.000383923
0.000384812
0.000385922
0.000387257
0.000387788
0.000390078
0.000389922
0.000392738
0.000392348
0.000394942
0.000394606
0.00039694
0.000396751
0.000398175
0.000399029
0.000399818
0.000400547
0.000401238
0.000401896
0.000402514
0.000403094
0.000403639
0.000404136
0.000404567
0.000404917
0.000405158
0.000405268
0.000405208
0.000404949
0.000404441
0.00040364
0.000402476
0.000400884
0.000398756
0.000395987
0.000392398
0.000387829
0.000381961
0.000374523
0.000364961
0.000352719
0.000337101
0.000317326
0.000293015
0.00027032
0.000269652
0.000290639
0.000304128
0.00030452
0.000294589
0.000277819
0.000268439
0.000244866
0.000252252
0.000234039
0.000238692
0.00022513
0.000226091
0.00022459
0.000224704
0.000227767
0.000233034
0.000239163
0.00132597
0.00132565
0.00132523
0.00132486
0.00132455
0.00132394
0.00132306
0.00132134
0.00131976
0.00131828
0.00131699
0.00131677
0.00131591
0.00131473
0.00131393
0.00131181
0.00131348
0.00131423
0.00131559
0.00131623
0.00131822
0.00131927
0.00131897
0.00131985
0.0013209
0.00132219
0.00132644
0.00132967
0.00133155
0.00133132
0.00132918
0.00132967
0.00133104
0.00133179
0.00133314
0.00133297
0.00133308
0.00133389
0.00133283
0.00133219
0.00132989
0.00133025
0.00133042
0.00133067
0.00133065
0.00132949
0.0013292
0.00132899
0.00132934
0.00132902
0.00132804
0.00132831
0.00132862
0.00132847
0.0013288
0.00132875
0.00132882
0.00132877
0.0013287
0.00133264
0.00133213
0.0013315
0.00133079
0.00132991
0.00132881
0.00132756
0.00132626
0.00132534
0.00132473
0.00132423
0.00132249
0.00132101
0.00131993
0.00131921
0.00131931
0.00132093
0.0013221
0.00132283
0.00132378
0.00132573
0.00132533
0.00132606
0.00132662
0.00132742
0.00132951
0.0013338
0.00133672
0.00133825
0.00133795
0.00133617
0.00133646
0.00133663
0.00133825
0.00133972
0.00134028
0.00133996
0.00134038
0.00134056
0.00133988
0.00133781
0.00133722
0.00133712
0.00133721
0.00133777
0.00133734
0.00133672
0.00133662
0.00133578
0.00133719
0.00133682
0.00133606
0.00133602
0.00133576
0.00133583
0.00133587
0.00133597
0.00133609
0.00133623
0.00133969
0.00133902
0.00133825
0.00133743
0.0013365
0.00133554
0.00133459
0.00133371
0.0013329
0.00133177
0.00133006
0.00132882
0.00132773
0.00132747
0.0013275
0.00132843
0.00132956
0.00133037
0.0013314
0.00133278
0.00133338
0.00133364
0.00133385
0.00133444
0.00133539
0.00133761
0.00134183
0.00134444
0.00134579
0.00134547
0.00134396
0.0013441
0.00134477
0.00134558
0.0013468
0.001348
0.0013476
0.00134778
0.00134846
0.00134795
0.0013466
0.00134558
0.00134519
0.00134504
0.00134537
0.00134567
0.00134528
0.00134547
0.00134483
0.00134467
0.00134546
0.00134555
0.00134545
0.00134522
0.00134507
0.00134495
0.0013449
0.00134489
0.00134496
0.00134834
0.00134756
0.0013467
0.0013458
0.00134483
0.00134384
0.0013428
0.00134169
0.00134046
0.00133882
0.00133784
0.00133716
0.00133696
0.00133713
0.00133805
0.00133892
0.00133964
0.00134057
0.00134114
0.00134244
0.0013426
0.00134284
0.00134305
0.0013437
0.00134466
0.00134728
0.00135126
0.00135357
0.00135474
0.00135439
0.00135308
0.00135307
0.00135364
0.00135425
0.00135569
0.00135709
0.00135705
0.00135685
0.00135751
0.00135741
0.00135726
0.00135546
0.00135504
0.00135483
0.00135487
0.00135539
0.00135516
0.00135534
0.00135537
0.00135508
0.0013553
0.00135556
0.00135579
0.00135591
0.00135595
0.00135596
0.00135596
0.00135593
0.00135596
0.00135744
0.00135664
0.00135577
0.00135488
0.00135391
0.00135289
0.00135181
0.00135071
0.00134971
0.00134893
0.00134867
0.0013485
0.00134873
0.00134918
0.00134969
0.00135013
0.00135069
0.00135129
0.00135273
0.00135287
0.00135307
0.00135341
0.00135362
0.00135432
0.00135539
0.00135824
0.00136202
0.00136406
0.0013651
0.00136472
0.00136356
0.0013634
0.00136396
0.00136448
0.00136566
0.00136742
0.00136784
0.00136767
0.00136808
0.00136801
0.001368
0.00136777
0.00136609
0.00136583
0.00136587
0.00136641
0.00136681
0.00136685
0.0013669
0.00136676
0.00136677
0.00136695
0.00136722
0.00136751
0.00136778
0.00136803
0.00136824
0.00136841
0.00136861
0.00137004
0.0013691
0.00136807
0.00136705
0.00136596
0.00136495
0.00136385
0.00136345
0.00136276
0.00136261
0.00136226
0.00136216
0.00136225
0.00136245
0.00136286
0.0013634
0.00136425
0.00136561
0.00136572
0.00136585
0.00136603
0.00136633
0.00136633
0.00136714
0.00136831
0.00137152
0.00137484
0.00137665
0.00137758
0.00137718
0.00137614
0.00137586
0.00137642
0.00137699
0.0013779
0.00137968
0.00138072
0.00138077
0.001381
0.00138124
0.00138139
0.00138143
0.00138115
0.00137957
0.00137916
0.0013793
0.00137993
0.00138075
0.0013814
0.0013815
0.00138141
0.00138133
0.00138137
0.00138152
0.00138174
0.00138198
0.00138224
0.00138246
0.00138273
0.00138159
0.00138051
0.00138026
0.00137918
0.00137902
0.0013781
0.00137806
0.00137736
0.00137747
0.00137696
0.00137761
0.00137731
0.00137767
0.0013781
0.00137876
0.00137972
0.00138051
0.00138048
0.00138034
0.00138036
0.0013804
0.00138059
0.00138099
0.0013819
0.00138319
0.00138675
0.00138963
0.00139121
0.00139208
0.00139167
0.00139071
0.00139033
0.00139088
0.00139147
0.00139234
0.00139369
0.00139512
0.00139578
0.00139601
0.00139622
0.00139647
0.00139668
0.00139691
0.00139687
0.00139574
0.00139499
0.0013948
0.00139528
0.00139618
0.00139728
0.00139812
0.00139851
0.00139861
0.00139866
0.00139879
0.00139901
0.00139931
0.00139961
0.00139999
0.00139944
0.00139858
0.00139837
0.00139764
0.00139758
0.00139678
0.00139684
0.00139613
0.00139649
0.00139632
0.00139674
0.00139694
0.00139734
0.00139786
0.001398
0.00139848
0.00139839
0.00139834
0.00139843
0.00139857
0.00139863
0.00139877
0.00139907
0.00139994
0.00140149
0.00140517
0.00140747
0.00140893
0.00140975
0.00140933
0.00140841
0.00140797
0.00140843
0.00140923
0.00141007
0.00141138
0.00141275
0.00141383
0.00141448
0.00141485
0.00141519
0.00141544
0.00141563
0.00141596
0.00141622
0.00141603
0.00141556
0.00141523
0.00141536
0.00141588
0.00141658
0.00141758
0.00141845
0.00141908
0.00141924
0.00141924
0.00141926
0.0014193
0.00141954
0.00142036
0.00142021
0.00142008
0.00141933
0.00141935
0.00141892
0.00141907
0.00141897
0.00141898
0.00141904
0.00141918
0.00141934
0.00141949
0.00141908
0.00141916
0.00141894
0.001419
0.00141913
0.00141922
0.00141925
0.00141922
0.0014192
0.0014194
0.00142055
0.00142306
0.00142607
0.00142807
0.00142946
0.00143025
0.00142984
0.00142896
0.00142848
0.00142887
0.0014297
0.00143056
0.0014318
0.00143318
0.0014344
0.00143521
0.00143589
0.0014364
0.00143687
0.00143726
0.00143758
0.00143792
0.00143828
0.00143866
0.00143901
0.00143929
0.00143951
0.00143997
0.00144055
0.00144135
0.00144224
0.00144333
0.0014445
0.00144542
0.00144596
0.00144595
0.00144794
0.00144804
0.00144738
0.00144691
0.0014469
0.00144716
0.00144667
0.00144629
0.00144651
0.0014462
0.00144643
0.00144603
0.00144582
0.00144566
0.00144558
0.00144551
0.00144556
0.0014456
0.00144554
0.00144535
0.00144508
0.00144488
0.00144529
0.00144714
0.00144953
0.00145181
0.00145358
0.00145481
0.00145556
0.00145515
0.0014543
0.00145379
0.00145409
0.00145502
0.00145609
0.00145736
0.00145881
0.0014602
0.00146158
0.0014623
0.00146315
0.0014638
0.00146448
0.00146518
0.00146563
0.00146623
0.00146669
0.00146734
0.00146781
0.00146838
0.00146812
0.00146853
0.00146867
0.00147007
0.00147082
0.00147156
0.00147233
0.00147285
0.00147403
0.00148533
0.00148457
0.00148371
0.00148341
0.00148281
0.00148217
0.00148134
0.00148095
0.00148046
0.00147949
0.00147897
0.00147815
0.00147744
0.00147669
0.00147632
0.00147604
0.00147575
0.00147536
0.00147493
0.00147453
0.00147428
0.00147433
0.001475
0.00147689
0.00147913
0.00148132
0.00148305
0.00148424
0.00148498
0.00148457
0.00148376
0.00148327
0.00148349
0.00148432
0.0014853
0.00148651
0.0014879
0.00148947
0.00149088
0.0014925
0.00149306
0.00149421
0.00149488
0.00149543
0.001497
0.00149726
0.00149867
0.00149869
0.00150024
0.00149997
0.00150158
0.00150131
0.0015025
0.00150341
0.00150357
0.00150376
0.00150447
0.00150451
0.00150658
0.00152765
0.0015264
0.00152548
0.00152463
0.00152332
0.00152251
0.00152116
0.00152034
0.00151897
0.00151823
0.00151747
0.0015168
0.00151615
0.00151521