/*--------------------------------*- C++ -*----------------------------------*\
| =========                 |                                                 |
| \\      /  F ield         | OpenFOAM: The Open Source CFD Toolbox           |
|  \\    /   O peration     | Version:  2312                                  |
|   \\  /    A nd           | Website:  www.openfoam.com                      |
|    \\/     M anipulation  |                                                 |
\*---------------------------------------------------------------------------*/
FoamFile
{
    version     2.0;
    format      ascii;
    arch        "LSB;label=32;scalar=64";
    class       volScalarField;
    location    "200";
    object      p;
}
// * * * * * * * * * * * * * * * * * * * * * * * * * * * * * * * * * * * * * //

dimensions      [0 2 -2 0 0 0 0];

internalField   nonuniform List<scalar> 
76025
(
0.0327006
0.0274559
0.0221019
0.0167279
0.0113594
0.00593977
0.000304494
-0.00515244
-0.0107479
-0.0162861
-0.0218659
-0.02749
-0.0331537
-0.0387844
-0.0444724
-0.0501506
-0.0557244
-0.0613773
-0.0669966
-0.0725312
-0.0780041
-0.0835695
-0.0890382
-0.0944005
-0.0997394
-0.104955
-0.110221
-0.115489
-0.120466
-0.125609
-0.130476
-0.13525
-0.140061
-0.144796
-0.149372
-0.153824
-0.158115
-0.16259
-0.166916
-0.171107
-0.175097
-0.179012
-0.183134
-0.187097
-0.190851
-0.194544
-0.198304
-0.202062
-0.205574
-0.209144
-0.212731
-0.216251
-0.219865
-0.223548
-0.227196
-0.230698
-0.234474
-0.238282
-0.242175
-0.246201
-0.250243
-0.254623
-0.259222
-0.263957
-0.26889
-0.274153
-0.279746
-0.285968
-0.292576
0.0326535
0.027135
0.0215806
0.0159803
0.0103284
0.00460549
-0.00112886
-0.00688659
-0.0126919
-0.0185195
-0.0243751
-0.0302399
-0.0361098
-0.0419851
-0.0478426
-0.0536667
-0.0595129
-0.0653043
-0.0711111
-0.0768343
-0.0825652
-0.0882297
-0.0938288
-0.0993518
-0.104834
-0.110272
-0.115655
-0.120898
-0.12605
-0.131134
-0.136108
-0.141079
-0.145944
-0.15066
-0.155307
-0.159837
-0.164317
-0.168708
-0.172972
-0.177167
-0.181237
-0.185263
-0.189218
-0.193043
-0.196815
-0.200528
-0.204212
-0.207817
-0.211373
-0.214935
-0.218498
-0.222033
-0.225582
-0.229161
-0.232742
-0.236356
-0.240095
-0.243886
-0.247758
-0.251733
-0.255868
-0.260266
-0.264835
-0.269594
-0.274608
-0.279988
-0.285726
-0.291888
-0.298455
0.0325213
0.0267563
0.0209461
0.0150757
0.00914696
0.00318923
-0.00279982
-0.00882835
-0.0148881
-0.0209751
-0.0270752
-0.0331761
-0.0392768
-0.0453697
-0.0514408
-0.0575053
-0.0635485
-0.0695632
-0.0755429
-0.081484
-0.0873741
-0.0931979
-0.0989593
-0.104656
-0.110287
-0.115847
-0.121307
-0.126667
-0.131941
-0.137121
-0.14222
-0.147231
-0.152122
-0.156896
-0.161575
-0.166148
-0.170619
-0.174984
-0.179254
-0.183434
-0.187509
-0.191491
-0.195387
-0.199209
-0.202964
-0.206647
-0.210272
-0.213847
-0.217384
-0.220893
-0.224388
-0.227873
-0.231369
-0.234895
-0.238452
-0.24205
-0.245725
-0.249487
-0.253351
-0.257346
-0.261499
-0.26586
-0.270433
-0.275237
-0.280319
-0.285737
-0.291528
-0.297788
-0.304453
0.0322488
0.0262098
0.020118
0.0139679
0.00776912
0.00153364
-0.00473605
-0.0110364
-0.0173593
-0.0236986
-0.0300468
-0.0363969
-0.0427433
-0.0490793
-0.0553974
-0.0616934
-0.0679581
-0.0741855
-0.0803677
-0.0864983
-0.092568
-0.0985716
-0.104504
-0.110359
-0.116129
-0.121809
-0.127393
-0.132877
-0.138259
-0.143534
-0.148701
-0.153755
-0.158693
-0.163514
-0.16822
-0.172811
-0.177289
-0.181657
-0.185919
-0.190074
-0.194122
-0.198071
-0.20193
-0.205707
-0.209403
-0.213026
-0.216588
-0.220102
-0.223573
-0.227016
-0.230445
-0.233872
-0.237309
-0.240772
-0.244273
-0.247825
-0.251454
-0.255178
-0.259015
-0.262987
-0.267126
-0.271467
-0.276034
-0.280849
-0.285957
-0.291412
-0.297254
-0.303572
-0.31032
0.0317486
0.0254157
0.0190303
0.0125877
0.00609857
-0.000427791
-0.00698481
-0.013567
-0.020168
-0.0267812
-0.0333996
-0.0400159
-0.0466226
-0.0532124
-0.0597777
-0.0663104
-0.0728039
-0.0792504
-0.0856426
-0.0919726
-0.0982334
-0.104418
-0.110519
-0.116529
-0.122443
-0.128255
-0.133961
-0.139553
-0.145028
-0.150383
-0.155614
-0.160722
-0.165703
-0.170554
-0.175277
-0.179874
-0.184347
-0.188698
-0.192929
-0.197045
-0.201049
-0.204947
-0.208748
-0.212458
-0.216084
-0.219637
-0.223126
-0.226563
-0.229957
-0.233323
-0.236673
-0.240022
-0.243381
-0.246769
-0.250199
-0.253688
-0.257257
-0.260925
-0.264715
-0.268648
-0.272755
-0.277065
-0.281609
-0.286415
-0.29153
-0.296999
-0.302867
-0.309223
-0.316047
0.0310011
0.0243564
0.0176609
0.0109086
0.00411092
-0.00272114
-0.00958057
-0.0164617
-0.0233579
-0.0302617
-0.0371653
-0.0440604
-0.0509389
-0.0577928
-0.064614
-0.0713944
-0.0781261
-0.0848009
-0.0914108
-0.0979477
-0.104404
-0.110771
-0.117042
-0.12321
-0.129268
-0.135211
-0.141033
-0.146728
-0.152291
-0.157721
-0.163013
-0.168166
-0.173177
-0.178046
-0.182774
-0.187363
-0.191816
-0.196135
-0.200324
-0.204388
-0.208332
-0.212163
-0.215888
-0.219517
-0.223057
-0.22652
-0.229915
-0.233256
-0.236554
-0.239822
-0.243075
-0.246327
-0.249593
-0.252889
-0.256233
-0.25964
-0.263132
-0.266728
-0.270453
-0.274327
-0.278382
-0.282643
-0.287149
-0.291926
-0.297024
-0.302485
-0.308352
-0.314709
-0.321538
0.0299727
0.0229973
0.0159724
0.00889143
0.00176684
-0.00538925
-0.0125693
-0.019767
-0.0269748
-0.0341846
-0.0413877
-0.0485754
-0.0557391
-0.0628701
-0.0699596
-0.0769989
-0.083979
-0.090891
-0.0977263
-0.104476
-0.111132
-0.117686
-0.12413
-0.130456
-0.136658
-0.14273
-0.148665
-0.154458
-0.160104
-0.1656
-0.170943
-0.176131
-0.181161
-0.186034
-0.190753
-0.19532
-0.199737
-0.204007
-0.208137
-0.21213
-0.215994
-0.219737
-0.223367
-0.226893
-0.230326
-0.233678
-0.23696
-0.240185
-0.243366
-0.246517
-0.249654
-0.252792
-0.255946
-0.259133
-0.262371
-0.265678
-0.269074
-0.27258
-0.276219
-0.280016
-0.283999
-0.288194
-0.292642
-0.297371
-0.30243
-0.307856
-0.313691
-0.32001
-0.326788
0.028615
0.0212886
0.0139143
0.00648483
-0.000986274
-0.0084857
-0.0160052
-0.0235376
-0.0310747
-0.0386076
-0.0461267
-0.0536228
-0.0610866
-0.0685085
-0.0758788
-0.083188
-0.0904265
-0.0975847
-0.104653
-0.111622
-0.118483
-0.125227
-0.131846
-0.138331
-0.144676
-0.150874
-0.156917
-0.162802
-0.168522
-0.174075
-0.179458
-0.184668
-0.189704
-0.194567
-0.199261
-0.203787
-0.208149
-0.212352
-0.2164
-0.220302
-0.224065
-0.227697
-0.231208
-0.23461
-0.237914
-0.241132
-0.244277
-0.247364
-0.250406
-0.253419
-0.256419
-0.259421
-0.262443
-0.265501
-0.268613
-0.2718
-0.27508
-0.278476
-0.28201
-0.285708
-0.289598
-0.293709
-0.298079
-0.302739
-0.307731
-0.313096
-0.318858
-0.325107
-0.331813
0.0268735
0.0191738
0.0114284
0.00362903
-0.00420951
-0.0120726
-0.0199513
-0.0278376
-0.0357227
-0.0435966
-0.0514491
-0.0592701
-0.0670494
-0.0747766
-0.082441
-0.0900323
-0.09754
-0.104954
-0.112263
-0.119459
-0.12653
-0.133467
-0.140262
-0.146906
-0.153392
-0.159711
-0.165858
-0.171826
-0.177612
-0.18321
-0.18862
-0.193838
-0.198864
-0.203699
-0.208348
-0.212813
-0.217098
-0.22121
-0.225155
-0.22894
-0.232576
-0.236072
-0.239439
-0.242691
-0.245839
-0.248898
-0.251881
-0.254805
-0.257684
-0.260535
-0.263374
-0.266218
-0.269085
-0.271992
-0.274958
-0.278002
-0.281145
-0.28441
-0.287818
-0.291397
-0.295174
-0.299182
-0.303451
-0.308016
-0.312912
-0.318179
-0.323823
-0.329957
-0.336408
0.0246892
0.0165917
0.00845106
0.000257964
-0.00797142
-0.0162211
-0.0244811
-0.0327427
-0.0409963
-0.049231
-0.0574356
-0.0655991
-0.0737101
-0.0817575
-0.0897301
-0.0976163
-0.105405
-0.113083
-0.120642
-0.128069
-0.135355
-0.142489
-0.149461
-0.156263
-0.162886
-0.169322
-0.175564
-0.181608
-0.187447
-0.193079
-0.198499
-0.203708
-0.208705
-0.213492
-0.218074
-0.222453
-0.226637
-0.230631
-0.234444
-0.238085
-0.241565
-0.244895
-0.248089
-0.251161
-0.254124
-0.256995
-0.259788
-0.262521
-0.26521
-0.267872
-0.270525
-0.273186
-0.275873
-0.278606
-0.281402
-0.284282
-0.287266
-0.290377
-0.293639
-0.297078
-0.300722
-0.304601
-0.308746
-0.313187
-0.317952
-0.323073
-0.328553
-0.334517
-0.340673
0.0219939
0.0134728
0.00491165
-0.0037003
-0.0123453
-0.021006
-0.0296711
-0.0383315
-0.0469762
-0.0555935
-0.0641712
-0.0726969
-0.0811584
-0.0895435
-0.0978396
-0.106034
-0.114115
-0.12207
-0.129886
-0.137552
-0.145057
-0.152389
-0.159539
-0.166496
-0.173252
-0.179799
-0.186129
-0.192236
-0.198115
-0.203763
-0.209177
-0.214357
-0.219302
-0.224016
-0.228504
-0.23277
-0.236822
-0.240667
-0.244317
-0.24778
-0.251071
-0.254203
-0.25719
-0.260048
-0.262793
-0.265442
-0.268014
-0.270525
-0.272993
-0.275437
-0.277876
-0.280327
-0.282809
-0.285342
-0.287944
-0.290636
-0.293439
-0.296374
-0.299468
-0.302744
-0.306231
-0.309957
-0.313949
-0.318234
-0.322834
-0.32777
-0.333035
-0.338731
-0.344559
0.0187022
0.00973005
0.00072137
-0.00833588
-0.0174226
-0.0265196
-0.0356148
-0.0446981
-0.0537575
-0.0627802
-0.0717527
-0.0806614
-0.089493
-0.0982337
-0.10687
-0.115388
-0.123775
-0.132016
-0.1401
-0.148012
-0.155741
-0.163274
-0.170602
-0.177712
-0.184597
-0.191246
-0.197652
-0.20381
-0.209713
-0.215359
-0.220745
-0.225871
-0.230738
-0.23535
-0.239713
-0.243834
-0.247719
-0.251381
-0.254829
-0.258077
-0.261141
-0.264034
-0.266775
-0.269381
-0.27187
-0.274262
-0.276575
-0.278829
-0.281044
-0.283239
-0.285432
-0.287644
-0.289894
-0.2922
-0.294583
-0.297062
-0.299659
-0.302397
-0.305298
-0.308386
-0.311689
-0.31523
-0.319037
-0.323133
-0.32754
-0.332279
-0.337352
-0.342753
-0.348132
0.0147155
0.00526118
-0.00422547
-0.013758
-0.0233157
-0.0328776
-0.0424305
-0.0519631
-0.0614625
-0.0709144
-0.0803041
-0.089617
-0.0988384
-0.107953
-0.116947
-0.125804
-0.13451
-0.14305
-0.15141
-0.159576
-0.167533
-0.175271
-0.182775
-0.190035
-0.197041
-0.203783
-0.210253
-0.216445
-0.222354
-0.227975
-0.233308
-0.238352
-0.24311
-0.247587
-0.251789
-0.255725
-0.259404
-0.262838
-0.266042
-0.269031
-0.271822
-0.274432
-0.276882
-0.279192
-0.281382
-0.283474
-0.285489
-0.287448
-0.289372
-0.291282
-0.293197
-0.295139
-0.297126
-0.299178
-0.301315
-0.303557
-0.305924
-0.308438
-0.311119
-0.313991
-0.317076
-0.320397
-0.323978
-0.327846
-0.332029
-0.33656
-0.341501
-0.346868
-0.352747
0.0099221
-4.82098e-05
-0.010046
-0.0200866
-0.0301475
-0.0402057
-0.0502467
-0.0602581
-0.0702258
-0.080134
-0.0899666
-0.0997078
-0.109341
-0.118851
-0.128221
-0.137433
-0.146473
-0.155324
-0.163969
-0.172395
-0.180586
-0.188527
-0.196207
-0.203611
-0.21073
-0.217553
-0.224072
-0.230279
-0.23617
-0.241741
-0.24699
-0.251919
-0.256531
-0.260832
-0.264831
-0.268536
-0.271961
-0.275119
-0.278028
-0.280705
-0.28317
-0.285445
-0.287553
-0.289515
-0.291357
-0.293101
-0.294772
-0.296392
-0.297984
-0.299571
-0.301173
-0.302811
-0.304505
-0.306275
-0.308139
-0.310117
-0.312227
-0.314488
-0.316918
-0.319538
-0.322366
-0.325424
-0.328737
-0.33233
-0.336243
-0.340519
-0.345269
-0.350641
-0.357428
0.00418811
-0.00633431
-0.0168788
-0.0274626
-0.0380612
-0.0486496
-0.0592117
-0.069734
-0.0802008
-0.0905951
-0.100899
-0.111095
-0.121166
-0.131093
-0.140859
-0.150446
-0.159835
-0.169009
-0.177951
-0.186644
-0.195072
-0.203218
-0.21107
-0.218612
-0.225833
-0.232723
-0.239271
-0.245471
-0.251317
-0.256806
-0.261936
-0.26671
-0.271132
-0.275211
-0.278955
-0.282376
-0.285489
-0.288313
-0.290865
-0.293169
-0.295248
-0.297126
-0.29883
-0.300386
-0.301822
-0.303164
-0.304439
-0.305671
-0.306887
-0.308109
-0.309359
-0.310659
-0.312029
-0.313486
-0.315049
-0.316733
-0.318555
-0.320531
-0.322674
-0.325003
-0.327532
-0.330282
-0.333276
-0.336546
-0.340141
-0.344135
-0.348677
-0.353775
-0.359328
-0.00264374
-0.0137576
-0.0248874
-0.0360525
-0.0472265
-0.0583817
-0.0695007
-0.0805685
-0.0915681
-0.102481
-0.113287
-0.123967
-0.134502
-0.144872
-0.155057
-0.165038
-0.174794
-0.184307
-0.193556
-0.202525
-0.211193
-0.219546
-0.227565
-0.235237
-0.242549
-0.249487
-0.256043
-0.262209
-0.267978
-0.273347
-0.278317
-0.282889
-0.28707
-0.290869
-0.294297
-0.29737
-0.300105
-0.302524
-0.304649
-0.306506
-0.308125
-0.309533
-0.310762
-0.311842
-0.312806
-0.313682
-0.314502
-0.315294
-0.316083
-0.316896
-0.317754
-0.31868
-0.31969
-0.320802
-0.322031
-0.323389
-0.32489
-0.326545
-0.328364
-0.330361
-0.332548
-0.334942
-0.337565
-0.340456
-0.343693
-0.347401
-0.351787
-0.356976
-0.363976
-0.0107701
-0.0225184
-0.034276
-0.0460644
-0.0578548
-0.0696171
-0.0813323
-0.0929838
-0.104553
-0.116019
-0.12736
-0.138556
-0.149585
-0.160425
-0.171054
-0.181451
-0.191593
-0.20146
-0.211029
-0.220281
-0.229195
-0.237753
-0.245936
-0.253728
-0.261115
-0.268082
-0.27462
-0.280719
-0.286373
-0.29158
-0.296338
-0.300653
-0.304531
-0.307984
-0.311024
-0.313671
-0.315946
-0.317874
-0.319485
-0.320808
-0.321878
-0.322729
-0.323397
-0.323921
-0.324334
-0.324674
-0.324974
-0.325264
-0.325573
-0.325928
-0.32635
-0.32686
-0.327473
-0.328203
-0.329062
-0.33006
-0.331205
-0.332504
-0.333964
-0.335592
-0.337396
-0.339387
-0.341593
-0.344083
-0.346975
-0.350377
-0.354399
-0.359111
-0.364579
-0.0204132
-0.0328431
-0.0452747
-0.0577322
-0.0701843
-0.0825981
-0.0949527
-0.10723
-0.119409
-0.131468
-0.143382
-0.155129
-0.166685
-0.178026
-0.189128
-0.199966
-0.210516
-0.220755
-0.230658
-0.240203
-0.249368
-0.258132
-0.266473
-0.274374
-0.281819
-0.288791
-0.29528
-0.301275
-0.306769
-0.31176
-0.316248
-0.320238
-0.32374
-0.326763
-0.329327
-0.331453
-0.333169
-0.334505
-0.335495
-0.336177
-0.336592
-0.336782
-0.336791
-0.336662
-0.336438
-0.336159
-0.335862
-0.335583
-0.33535
-0.33519
-0.335125
-0.335171
-0.335344
-0.335654
-0.336108
-0.336713
-0.337472
-0.338386
-0.339456
-0.340679
-0.342064
-0.34363
-0.345431
-0.347589
-0.350189
-0.353206
-0.356658
-0.360469
-0.364389
-0.0318867
-0.0450498
-0.0582067
-0.0713842
-0.084548
-0.0976622
-0.110704
-0.123654
-0.136488
-0.149182
-0.161711
-0.174048
-0.186168
-0.198044
-0.209649
-0.220956
-0.231938
-0.242569
-0.252822
-0.262672
-0.272093
-0.281062
-0.289555
-0.297552
-0.305034
-0.311983
-0.318385
-0.32423
-0.32951
-0.334221
-0.338365
-0.341947
-0.344977
-0.34747
-0.349448
-0.350938
-0.351974
-0.352592
-0.352835
-0.352748
-0.352381
-0.351786
-0.351014
-0.350118
-0.349147
-0.348148
-0.347163
-0.34623
-0.34538
-0.344639
-0.344028
-0.343562
-0.343252
-0.343105
-0.343124
-0.343311
-0.343658
-0.344163
-0.344814
-0.345612
-0.346583
-0.347794
-0.349304
-0.351198
-0.353399
-0.355865
-0.358709
-0.361701
-0.364671
-0.0455522
-0.059506
-0.0734449
-0.0873996
-0.101332
-0.115203
-0.128987
-0.142662
-0.156205
-0.169586
-0.182777
-0.195751
-0.208478
-0.220929
-0.233073
-0.244881
-0.256322
-0.267366
-0.277985
-0.288148
-0.297829
-0.306998
-0.315631
-0.323704
-0.331193
-0.338081
-0.344351
-0.349989
-0.354986
-0.359339
-0.363049
-0.366122
-0.368571
-0.370415
-0.371681
-0.372399
-0.372611
-0.372361
-0.3717
-0.370685
-0.369377
-0.367838
-0.366132
-0.364321
-0.362466
-0.360621
-0.358835
-0.357148
-0.355596
-0.354202
-0.352985
-0.351959
-0.351128
-0.350497
-0.350059
-0.349807
-0.349723
-0.349798
-0.350036
-0.350461
-0.351154
-0.352141
-0.353388
-0.35482
-0.356449
-0.358534
-0.360888
-0.36307
-0.365013
-0.0620283
-0.0768368
-0.0916208
-0.106415
-0.121175
-0.13586
-0.150442
-0.164897
-0.179197
-0.193313
-0.207212
-0.220864
-0.234236
-0.247296
-0.260011
-0.272347
-0.284271
-0.295748
-0.306746
-0.317231
-0.327172
-0.336536
-0.345296
-0.353422
-0.360889
-0.367675
-0.373759
-0.379127
-0.383766
-0.38767
-0.390841
-0.393286
-0.395019
-0.396063
-0.396448
-0.396215
-0.39541
-0.394089
-0.392316
-0.390161
-0.387699
-0.385009
-0.382169
-0.379258
-0.376347
-0.373504
-0.370784
-0.368234
-0.365889
-0.363772
-0.361898
-0.360274
-0.358897
-0.35776
-0.356844
-0.356136
-0.355626
-0.355322
-0.355285
-0.355517
-0.356048
-0.356678
-0.357376
-0.358238
-0.359705
-0.361481
-0.362994
-0.364372
-0.365549
-0.0818311
-0.0975468
-0.113225
-0.128905
-0.144541
-0.160086
-0.175512
-0.190792
-0.205895
-0.220788
-0.235435
-0.249804
-0.263857
-0.27756
-0.290875
-0.303765
-0.316192
-0.328119
-0.339507
-0.35032
-0.360521
-0.370074
-0.378944
-0.387099
-0.394508
-0.401145
-0.406985
-0.412007
-0.416199
-0.419551
-0.422065
-0.423747
-0.424613
-0.424688
-0.424008
-0.422618
-0.420577
-0.417951
-0.41482
-0.411272
-0.407402
-0.403309
-0.399094
-0.394857
-0.390688
-0.38667
-0.382869
-0.379339
-0.376113
-0.373209
-0.370634
-0.368376
-0.366425
-0.364763
-0.363382
-0.362282
-0.361499
-0.361032
-0.360899
-0.360916
-0.360958
-0.360931
-0.361289
-0.362281
-0.363455
-0.364213
-0.364817
-0.365703
-0.366194
-0.10554
-0.122217
-0.138854
-0.155481
-0.172051
-0.188517
-0.204848
-0.221013
-0.236978
-0.252708
-0.268163
-0.283307
-0.2981
-0.312501
-0.32647
-0.339964
-0.352941
-0.365359
-0.377176
-0.388347
-0.398831
-0.408587
-0.417573
-0.425752
-0.433087
-0.439543
-0.445091
-0.449703
-0.453358
-0.456043
-0.457752
-0.45849
-0.458274
-0.457133
-0.45511
-0.452261
-0.448657
-0.444385
-0.439543
-0.434245
-0.428615
-0.422781
-0.416876
-0.411029
-0.405356
-0.39996
-0.394919
-0.390286
-0.386086
-0.382318
-0.378973
-0.376033
-0.373503
-0.371399
-0.369735
-0.368501
-0.367668
-0.367074
-0.366552
-0.365953
-0.365466
-0.365669
-0.366397
-0.366953
-0.366912
-0.366863
-0.367039
-0.367532
-0.367789
-0.131764
-0.149507
-0.167178
-0.184833
-0.202423
-0.219894
-0.237212
-0.254344
-0.271252
-0.287897
-0.304238
-0.320231
-0.335835
-0.351003
-0.36569
-0.37985
-0.393433
-0.406393
-0.41868
-0.430245
-0.441039
-0.451014
-0.460123
-0.46832
-0.475561
-0.481802
-0.487007
-0.491141
-0.494177
-0.496101
-0.496907
-0.496595
-0.495178
-0.492684
-0.489158
-0.484662
-0.479276
-0.473105
-0.46627
-0.458915
-0.451199
-0.443289
-0.435362
-0.427591
-0.420132
-0.413114
-0.406635
-0.400751
-0.395485
-0.390833
-0.386774
-0.383299
-0.380391
-0.378073
-0.376286
-0.374858
-0.37365
-0.372475
-0.371456
-0.37108
-0.371408
-0.371914
-0.371743
-0.371115
-0.370478
-0.370017
-0.369841
-0.370101
-0.370465
-0.163684
-0.18257
-0.201435
-0.220268
-0.239022
-0.257649
-0.276111
-0.294367
-0.312379
-0.330102
-0.347492
-0.3645
-0.381079
-0.397178
-0.412746
-0.427731
-0.442077
-0.455731
-0.468637
-0.480737
-0.491976
-0.502296
-0.511642
-0.51996
-0.527193
-0.533286
-0.538186
-0.541842
-0.544202
-0.545225
-0.54489
-0.543193
-0.54015
-0.535793
-0.530174
-0.523371
-0.515485
-0.506648
-0.49702
-0.486791
-0.476175
-0.465407
-0.454728
-0.444377
-0.434579
-0.425521
-0.417352
-0.410159
-0.40396
-0.398704
-0.394286
-0.390576
-0.38741
-0.384711
-0.38236
-0.380206
-0.378547
-0.37769
-0.377724
-0.378224
-0.378225
-0.377537
-0.376564
-0.375473
-0.374421
-0.373583
-0.373212
-0.373288
-0.373571
-0.193013
-0.213273
-0.233334
-0.253358
-0.273303
-0.293103
-0.312711
-0.332089
-0.351195
-0.36998
-0.388396
-0.406391
-0.423913
-0.440906
-0.457313
-0.473076
-0.488135
-0.502428
-0.515891
-0.528461
-0.540074
-0.550664
-0.560169
-0.568525
-0.575668
-0.581538
-0.586078
-0.589229
-0.590944
-0.591178
-0.589902
-0.587091
-0.582738
-0.576855
-0.569482
-0.56069
-0.550585
-0.539314
-0.527064
-0.514066
-0.500596
-0.486966
-0.473513
-0.460579
-0.448484
-0.43748
-0.427724
-0.419231
-0.411889
-0.405512
-0.399936
-0.395136
-0.391216
-0.388389
-0.386446
-0.385222
-0.384972
-0.385326
-0.385344
-0.384919
-0.384128
-0.382948
-0.381443
-0.379841
-0.378457
-0.37744
-0.376844
-0.376616
-0.376624
-0.241187
-0.26279
-0.284584
-0.306301
-0.327906
-0.34937
-0.370648
-0.391694
-0.412455
-0.432879
-0.45291
-0.47249
-0.49156
-0.510058
-0.52792
-0.545079
-0.561468
-0.577013
-0.591644
-0.605287
-0.617865
-0.629301
-0.639518
-0.648436
-0.655971
-0.662029
-0.666472
-0.669134
-0.669903
-0.668752
-0.665666
-0.660635
-0.653652
-0.64473
-0.633909
-0.621268
-0.606929
-0.591067
-0.573916
-0.555767
-0.536974
-0.517944
-0.499143
-0.48107
-0.464231
-0.449055
-0.435876
-0.424864
-0.415884
-0.408494
-0.40211
-0.396525
-0.392524
-0.391123
-0.391497
-0.39226
-0.392802
-0.39281
-0.392178
-0.391082
-0.389563
-0.387693
-0.385739
-0.383955
-0.382428
-0.381185
-0.380218
-0.379555
-0.379263
-0.258349
-0.281383
-0.30391
-0.326565
-0.349234
-0.371739
-0.394014
-0.416029
-0.437737
-0.459082
-0.480003
-0.500441
-0.520333
-0.539612
-0.558209
-0.576053
-0.59307
-0.609181
-0.624306
-0.638365
-0.651275
-0.662953
-0.673325
-0.682337
-0.689972
-0.696301
-0.701356
-0.704799
-0.706186
-0.705369
-0.702336
-0.697051
-0.689461
-0.679512
-0.667171
-0.652432
-0.635335
-0.615985
-0.594588
-0.571479
-0.547161
-0.522335
-0.49792
-0.475013
-0.454748
-0.438211
-0.42626
-0.419096
-0.415932
-0.415034
-0.41413
-0.411205
-0.406558
-0.402924
-0.401363
-0.400771
-0.400106
-0.398895
-0.397349
-0.395604
-0.393581
-0.391337
-0.389122
-0.387118
-0.385393
-0.383935
-0.382712
-0.381847
-0.381588
-0.347229
-0.372859
-0.398867
-0.4247
-0.450287
-0.475683
-0.500879
-0.525807
-0.550399
-0.574592
-0.598325
-0.62153
-0.644135
-0.666064
-0.687238
-0.707575
-0.726986
-0.745378
-0.762653
-0.778705
-0.793418
-0.806664
-0.8183
-0.828151
-0.836003
-0.841569
-0.844623
-0.845347
-0.844017
-0.840537
-0.834626
-0.826025
-0.814539
-0.800017
-0.782351
-0.761491
-0.737472
-0.710443
-0.680703
-0.648736
-0.615249
-0.581192
-0.547736
-0.516218
-0.48805
-0.464521
-0.446442
-0.43397
-0.426582
-0.423022
-0.421544
-0.420288
-0.41832
-0.41549
-0.412198
-0.408999
-0.406097
-0.403464
-0.401117
-0.398929
-0.396683
-0.394313
-0.391964
-0.389865
-0.388138
-0.386746
-0.385491
-0.384496
-0.384855
0.0604154
0.0640389
0.0678964
0.0719835
0.0763201
0.0809543
0.085922
0.0911164
0.0964979
0.102134
0.108075
0.114269
0.120562
0.127388
0.133827
0.140522
0.146869
0.153582
0.160003
0.166237
0.172658
0.178154
0.183354
0.187872
0.191856
0.195274
0.197678
0.199306
0.200304
0.200327
0.199133
0.197186
0.194525
0.191201
0.186731
0.181654
0.176091
0.169879
0.163161
0.156265
0.148941
0.141401
0.134039
0.126789
0.119079
0.111841
0.104437
0.0974309
0.0905343
0.0838993
0.0775849
0.0715337
0.0658553
0.0604593
0.0553873
0.0503536
0.0457348
0.0413557
0.0372663
0.0613613
0.06513
0.0691781
0.0734735
0.0780411
0.0828917
0.0880367
0.0934525
0.0991345
0.105088
0.111292
0.117731
0.12437
0.131225
0.138195
0.145132
0.152124
0.15906
0.165913
0.172441
0.178852
0.184826
0.19027
0.195108
0.199283
0.202779
0.205454
0.207147
0.208158
0.208152
0.206959
0.205007
0.20224
0.198574
0.194011
0.188706
0.18282
0.176374
0.169398
0.162059
0.154468
0.146695
0.138896
0.130967
0.123095
0.11535
0.10774
0.100389
0.0932211
0.0862969
0.0796814
0.0733721
0.0673313
0.0616224
0.0561657
0.0510389
0.0462282
0.0417106
0.0374633
0.0622625
0.0662119
0.0704328
0.0749355
0.0797276
0.0848157
0.0901962
0.0958659
0.101829
0.10808
0.114592
0.121332
0.128287
0.135432
0.142715
0.150099
0.157516
0.164854
0.17203
0.178949
0.185592
0.191883
0.197638
0.20276
0.20719
0.21085
0.213663
0.215518
0.216534
0.216507
0.215375
0.213362
0.210381
0.206481
0.201705
0.196169
0.189959
0.183195
0.175919
0.168264
0.160322
0.15214
0.14385
0.135537
0.127287
0.119174
0.111216
0.10347
0.0959616
0.0887176
0.0817801
0.0751449
0.0688151
0.0627944
0.0571157
0.0517721
0.0467388
0.0420081
0.0375589
0.0630062
0.0671398
0.0715611
0.0762777
0.0812992
0.0866319
0.092276
0.0982292
0.104489
0.111049
0.117891
0.124987
0.132316
0.139834
0.147487
0.155248
0.163027
0.170752
0.178314
0.185651
0.192673
0.199274
0.205337
0.210749
0.215442
0.219314
0.222285
0.224275
0.225329
0.225302
0.224171
0.222061
0.218905
0.214813
0.209799
0.203991
0.197464
0.190336
0.182686
0.17464
0.166279
0.157682
0.148978
0.140278
0.13162
0.123091
0.114729
0.106584
0.0986993
0.0911017
0.0838178
0.0768598
0.0702394
0.063957
0.0580184
0.0524148
0.0471353
0.0421733
0.0375175
0.0635703
0.0679016
0.0725367
0.0774823
0.0827488
0.0883423
0.094266
0.100519
0.107097
0.11399
0.121181
0.128649
0.136363
0.144278
0.152341
0.1605
0.168681
0.176812
0.184794
0.192547
0.199965
0.206923
0.213317
0.219038
0.223999
0.2281
0.231254
0.233371
0.234482
0.234463
0.233298
0.231084
0.227774
0.223478
0.218218
0.212111
0.205248
0.19774
0.189684
0.181204
0.172401
0.163377
0.154245
0.1451
0.136002
0.12703
0.118242
0.109688
0.10141
0.0934371
0.0857943
0.0784975
0.071556
0.0649723
0.0587446
0.0528689
0.047338
0.0421426
0.03727
0.063941
0.0684832
0.0733456
0.0785355
0.0840637
0.0899366
0.0961583
0.102729
0.109643
0.116891
0.124455
0.132312
0.140428
0.148763
0.157262
0.165862
0.174491
0.183065
0.19149
0.19967
0.207495
0.214843
0.221599
0.22765
0.232896
0.237238
0.240584
0.242837
0.244014
0.244006
0.242802
0.240481
0.237009
0.23249
0.226963
0.220537
0.213315
0.20541
0.196931
0.188001
0.178738
0.169249
0.159643
0.150015
0.140445
0.131008
0.121771
0.112783
0.104086
0.0957129
0.0876881
0.0800279
0.0727413
0.0658319
0.0592991
0.0531383
0.0473414
0.0418974
0.0367926
0.0640805
0.0688475
0.0739522
0.0794026
0.08521
0.0913818
0.0979223
0.104832
0.112106
0.119733
0.127697
0.135971
0.144522
0.153305
0.162266
0.171339
0.180446
0.189498
0.198396
0.207033
0.215296
0.223061
0.230206
0.23661
0.242163
0.246762
0.250311
0.252711
0.253961
0.253968
0.252724
0.250289
0.246641
0.241881
0.236065
0.2293
0.221694
0.213366
0.204437
0.195033
0.185278
0.175286
0.165168
0.155029
0.144955
0.135026
0.125307
0.115853
0.106708
0.0979057
0.0894718
0.0814233
0.0737699
0.0665156
0.059659
0.0531946
0.0471132
0.0414035
0.0360514
0.0639445
0.0689514
0.0743149
0.0800435
0.0861494
0.0926407
0.0995224
0.106795
0.114454
0.122488
0.13088
0.139603
0.14862
0.157886
0.167342
0.176919
0.186536
0.196099
0.205503
0.214634
0.22337
0.231582
0.239143
0.245925
0.251809
0.256685
0.260451
0.263008
0.26434
0.264365
0.263076
0.260517
0.256681
0.251667
0.245541
0.238411
0.230394
0.221614
0.212201
0.202288
0.192004
0.181473
0.170811
0.160127
0.149514
0.139056
0.128822
0.118869
0.109245
0.0999841
0.0911135
0.0826508
0.0746062
0.0669833
0.0597804
0.0529915
0.0466068
0.0406142
0.0349988
0.0634861
0.0687496
0.0743897
0.0804157
0.086841
0.0936743
0.100921
0.108583
0.116654
0.125125
0.133975
0.143178
0.152695
0.162478
0.172466
0.182584
0.192749
0.202859
0.212805
0.222465
0.231709
0.240403
0.248411
0.255599
0.261838
0.267012
0.271012
0.273737
0.275159
0.275205
0.273864
0.271173
0.267137
0.261851
0.255393
0.247873
0.239414
0.23015
0.220218
0.209758
0.198908
0.187799
0.176555
0.165288
0.154099
0.143074
0.132288
0.121802
0.111664
0.101913
0.092576
0.0836707
0.0752078
0.0671909
0.0596181
0.0524826
0.045774
0.0394791
0.0335825
0.0626498
0.0681877
0.074124
0.0804687
0.0872361
0.0944359
0.102074
0.110153
0.118667
0.127605
0.136947
0.146665
0.156719
0.167057
0.177615
0.188316
0.199067
0.209765
0.220292
0.23052
0.24031
0.249522
0.258011
0.265634
0.272256
0.277749
0.282
0.284906
0.286426
0.286494
0.285098
0.282266
0.278015
0.272439
0.265624
0.257685
0.248754
0.238971
0.228482
0.217436
0.20598
0.194252
0.182383
0.170491
0.158684
0.147052
0.135675
0.124617
0.113931
0.103654
0.0938167
0.0844375
0.0755272
0.0670891
0.0591208
0.0516148
0.0445601
0.0379423
0.0317453
0.0613725
0.0672043
0.073458
0.0801443
0.0872788
0.0948718
0.10293
0.111456
0.120445
0.129885
0.139756
0.150028
0.160658
0.171592
0.182762
0.194087
0.20547
0.216799
0.22795
0.238788
0.249166
0.258935
0.267941
0.276033
0.283065
0.288902
0.293422
0.296523
0.29815
0.298242
0.296786
0.293804
0.289322
0.283435
0.276236
0.267848
0.258409
0.24807
0.236984
0.22531
0.213203
0.20081
0.18827
0.175709
0.163238
0.150956
0.138945
0.127275
0.115999
0.105159
0.0947855
0.0848983
0.0755084
0.0666192
0.0582275
0.0503255
0.0429008
0.035938
0.02942
0.0595833
0.0657303
0.0723243
0.0793771
0.0869052
0.0949202
0.10343
0.112436
0.121935
0.131914
0.142352
0.153218
0.164467
0.176042
0.187871
0.199867
0.211929
0.223936
0.235759
0.247253
0.258265
0.268633
0.278196
0.286792
0.294265
0.300472
0.305283
0.308593
0.310335
0.310454
0.308933
0.305791
0.301061
0.29484
0.287229
0.278358
0.268375
0.257437
0.24571
0.233361
0.220554
0.207447
0.194186
0.180905
0.167723
0.154742
0.142052
0.129723
0.117815
0.106371
0.0954217
0.0849893
0.0750848
0.0657114
0.0568656
0.0485386
0.0407173
0.033385
0.0265234
0.0571943
0.0636796
0.0706389
0.078085
0.0860358
0.0945038
0.103498
0.11302
0.123067
0.133626
0.144675
0.15618
0.168095
0.180359
0.192897
0.205616
0.218407
0.231146
0.243692
0.255894
0.267587
0.278601
0.288764
0.297902
0.30585
0.312455
0.31758
0.321114
0.322983
0.32313
0.32154
0.318225
0.313229
0.306649
0.298595
0.289205
0.278635
0.267053
0.254636
0.241562
0.228003
0.214128
0.200092
0.186037
0.172089
0.158357
0.144936
0.131901
0.119313
0.107219
0.0956523
0.0846344
0.0741773
0.0642839
0.0549504
0.0461672
0.03792
0.0301908
0.0229602
0.0541002
0.0609489
0.0683007
0.0761697
0.084575
0.0935304
0.103045
0.113123
0.12376
0.134943
0.14665
0.158844
0.171476
0.184483
0.197784
0.211282
0.22486
0.238387
0.251714
0.264678
0.277106
0.288817
0.299626
0.309348
0.317808
0.324841
0.330305
0.33408
0.336085
0.336264
0.334599
0.331099
0.325816
0.318849
0.310319
0.30037
0.289169
0.276894
0.263734
0.249877
0.235509
0.220807
0.205936
0.191047
0.176275
0.161736
0.147528
0.133732
0.120414
0.107621
0.0953896
0.0837422
0.072691
0.0622389
0.0523815
0.0431081
0.0344033
0.0262477
0.0186207
0.0501771
0.0574167
0.065191
0.0735153
0.0824103
0.0918909
0.101968
0.112644
0.123917
0.135774
0.148189
0.161125
0.174532
0.18834
0.202465
0.216802
0.231229
0.245606
0.259775
0.273562
0.286784
0.299245
0.31075
0.321102
0.330113
0.337609
0.343438
0.347473
0.349626
0.349839
0.348093
0.344395
0.338802
0.331419
0.322375
0.311824
0.299942
0.286921
0.272961
0.258261
0.24302
0.227426
0.211655
0.195869
0.180208
0.164798
0.149742
0.135127
0.121022
0.107477
0.0945296
0.0822045
0.0705137
0.0594602
0.0490388
0.0392379
0.0300409
0.0214267
0.0133736
0.0452824
0.0529431
0.0611725
0.0699874
0.0794101
0.0894568
0.100139
0.111462
0.123421
0.136003
0.149183
0.162921
0.177163
0.191836
0.20685
0.222094
0.237439
0.252734
0.267812
0.282489
0.296567
0.30984
0.322096
0.333128
0.342733
0.350728
0.35695
0.361267
0.36358
0.36383
0.361996
0.358084
0.352157
0.344326
0.334728
0.323527
0.310911
0.297084
0.282259
0.26665
0.250466
0.23391
0.217169
0.200413
0.183794
0.167444
0.151474
0.135976
0.121021
0.106665
0.0929468
0.0798912
0.0675113
0.0558098
0.0447809
0.034412
0.0246848
0.0155768
0.00706467
0.0392344
0.0473493
0.0560697
0.0654145
0.0754072
0.0860656
0.0974025
0.109423
0.122124
0.135492
0.149498
0.164103
0.179248
0.194856
0.210831
0.227056
0.243393
0.259681
0.275743
0.29138
0.306384
0.320532
0.3336
0.345364
0.35561
0.364143
0.370792
0.375413
0.3779
0.378191
0.376262
0.372118
0.365829
0.357513
0.347317
0.335416