/*--------------------------------*- C++ -*----------------------------------*\
| =========                 |                                                 |
| \\      /  F ield         | OpenFOAM: The Open Source CFD Toolbox           |
|  \\    /   O peration     | Version:  2312                                  |
|   \\  /    A nd           | Website:  www.openfoam.com                      |
|    \\/     M anipulation  |                                                 |
\*---------------------------------------------------------------------------*/
FoamFile
{
    version     2.0;
    format      ascii;
    arch        "LSB;label=32;scalar=64";
    class       surfaceScalarField;
    location    "200";
    object      phi;
}
// * * * * * * * * * * * * * * * * * * * * * * * * * * * * * * * * * * * * * //

dimensions      [0 3 -1 0 0 0 0];

oriented        oriented;

internalField   nonuniform List<scalar> 
116611
(
0.0292935
0.0107075
-0.02889
-0.011111
0.0296938
0.0106008
-0.0110011
0.0300892
0.0104854
-0.0108807
0.0304796
0.0103607
-0.0107511
0.0308645
0.0102268
-0.0106117
0.0312495
0.0100819
-0.010467
0.031623
0.00992781
-0.0103013
0.0319977
0.00976363
-0.0101383
0.0323623
0.0095881
-0.00995274
0.0327224
0.00940173
-0.00976178
0.0330748
0.00920301
-0.00955549
0.0334217
0.00899246
-0.00933936
0.0337603
0.00876969
-0.00910823
0.0340919
0.00853373
-0.00886532
0.0344151
0.00828505
-0.00860825
0.0347272
0.00802398
-0.00833615
0.0350337
0.00774677
-0.00805327
0.0353298
0.00745835
-0.00775442
0.0356151
0.00715157
-0.00743685
0.0358896
0.00683341
-0.00710795
0.0361567
0.00649647
-0.00676348
0.0364104
0.00614523
-0.00639893
0.0366518
0.0057769
-0.00601836
0.036883
0.00539314
-0.00562428
0.0371001
0.00499205
-0.00520919
0.0373076
0.00457343
-0.00478097
0.0375018
0.00413479
-0.00432898
0.0376765
0.00367981
-0.00385449
0.0378457
0.00320589
-0.00337506
0.0379917
0.0027123
-0.00285834
0.0381269
0.00220252
-0.00233775
0.0382477
0.00166809
-0.00178882
0.0383517
0.00111382
-0.00121787
0.0384387
0.000540942
-0.00062794
0.0385085
-5.61293e-05
-1.36709e-05
0.0385589
-0.000671591
0.000621172
0.038599
-0.00131113
0.00127108
0.0386167
-0.00197285
0.00195509
0.038617
-0.00265599
0.00265568
0.0385944
-0.00336514
0.00338782
0.0385527
-0.00409432
0.00413601
0.0384974
-0.00484868
0.004904
0.0384174
-0.00562767
0.00570762
0.0383147
-0.00642904
0.00653175
0.0381905
-0.00725609
0.0073803
0.0380461
-0.00810626
0.00825065
0.0378796
-0.0089827
0.00914922
0.037685
-0.00988305
0.0100776
0.0374703
-0.0108075
0.0110223
0.0372307
-0.0117571
0.0119967
0.0369656
-0.0127325
0.0129976
0.0366782
-0.0137317
0.0140191
0.036366
-0.0147561
0.0150683
0.0360267
-0.0158063
0.0161456
0.0356576
-0.0168807
0.0172498
0.0352675
-0.0179777
0.0183679
0.0348492
-0.0191017
0.01952
0.0344055
-0.0202489
0.0206926
0.0339363
-0.0214203
0.0218895
0.0334379
-0.0226142
0.0231126
0.0329175
-0.0238298
0.0243502
0.0323707
-0.0250734
0.0256202
0.0317964
-0.0263409
0.0269153
0.0311976
-0.0276321
0.0282309
0.0305755
-0.0289478
0.0295699
0.0299302
-0.0302936
0.0309389
0.0292734
-0.0316721
0.0323289
0.0285987
-0.0330827
0.0337574
-0.0345279
0.02789
0.0352367
0.0288913
0.0103057
-0.0284895
0.0292891
0.0102029
0.0296828
0.0100916
0.0300721
0.00997149
0.0304574
0.00984145
0.030837
0.0097023
0.0312115
0.0095533
0.0315812
0.00939398
0.0319449
0.00922439
0.032303
0.00904365
0.0326544
0.0088516
0.0329988
0.00864802
0.0333362
0.00843231
0.0336658
0.00820413
0.0339869
0.00796396
0.0343006
0.00771027
0.034604
0.00744335
0.0348999
0.00716246
0.035184
0.00686742
0.03546
0.00655745
0.0357242
0.00623226
0.0359776
0.00589182
0.0362191
0.00553545
0.0364492
0.00516303
0.0366673
0.00477396
0.0368735
0.00436721
0.0370651
0.0039432
0.0372434
0.00350147
0.037408
0.00304128
0.0375573
0.00256307
0.0376943
0.00206551
0.0378148
0.00154759
0.0379186
0.00100997
0.0380074
0.000452193
0.038078
-0.000126795
0.0381331
-0.000726641
0.0381701
-0.00134815
0.0381885
-0.00199119
0.0381891
-0.00265662
0.0381692
-0.0033452
0.0381311
-0.00405626
0.0380728
-0.00479034
0.0379928
-0.00554771
0.0378926
-0.00632884
0.0377707
-0.00713416
0.0376275
-0.00796312
0.0374611
-0.00881634
0.037272
-0.00969389
0.0370603
-0.0105958
0.0368251
-0.011522
0.0365655
-0.0124729
0.0362818
-0.0134481
0.0359735
-0.0144477
0.0356394
-0.0154723
0.03528
-0.0165214
0.0348964
-0.0175942
0.0344862
-0.0186914
0.0340499
-0.0198127
0.0335874
-0.0209578
0.0330995
-0.0221264
0.0325879
-0.0233182
0.0320495
-0.024535
0.0314855
-0.0257769
0.0308979
-0.0270445
0.0302899
-0.0283398
0.0296621
-0.0296658
0.0290143
-0.0310243
0.0283435
-0.032412
-0.0338244
0.0276399
0.028504
0.00990717
-0.0281055
0.0288992
0.00980774
0.0292908
0.00970001
0.0296786
0.00958377
0.0300615
0.00945854
0.0304396
0.00932414
0.0308128
0.00918019
0.0311804
0.00902631
0.0315425
0.00886228
0.0318985
0.00868766
0.032248
0.00850215
0.0325906
0.0083054
0.0329259
0.00809703
0.0332533
0.00787667
0.0335732
0.00764409
0.0338847
0.00739881
0.0341875
0.00714055
0.0344811
0.00686881
0.0347653
0.00658325
0.0350394
0.00628337
0.0353028
0.00596888
0.0355552
0.00563933
0.0357964
0.00529433
0.0360259
0.0049335
0.0362434
0.00455645
0.0364479
0.00416268
0.0366393
0.00375183
0.0368173
0.00332348
0.0369813
0.00287731
0.0371314
0.00241294
0.0372671
0.00192983
0.0373871
0.00142754
0.0374915
0.000905641
0.0375799
0.000363792
0.0376515
-0.000198402
0.0377061
-0.000781295
0.0377431
-0.00138516
0.0377624
-0.00201046
0.0377634
-0.00265763
0.0377452
-0.003327
0.0377077
-0.00401873
0.0376503
-0.00473298
0.0375728
-0.00547022
0.0374748
-0.00623076
0.0373553
-0.00701469
0.0372143
-0.00782212
0.0370512
-0.00865328
0.0368657
-0.00950839
0.0366573
-0.0103874
0.0364258
-0.0112904
0.0361706
-0.0122177
0.0358916
-0.0131691
0.0355885
-0.0141446
0.0352608
-0.0151445
0.034908
-0.0161686
0.0345303
-0.0172165
0.0341274
-0.0182884
0.033699
-0.0193843
0.0332451
-0.0205039
0.032766
-0.0216472
0.032262
-0.0228142
0.0317332
-0.0240061
0.0311804
-0.0252242
0.0306054
-0.0264695
0.0300101
-0.0277445
0.0293948
-0.0290505
0.0287572
-0.0303867
0.0280911
-0.0317459
-0.0331207
0.0273875
0.028134
0.00951135
-0.0277382
0.0285265
0.00941521
0.0289155
0.00931104
0.0293006
0.00919864
0.0296814
0.00907773
0.0300576
0.00894794
0.0304288
0.00880898
0.0307946
0.0086605
0.0311548
0.00850217
0.0315088
0.00833365
0.0318563
0.0081546
0.0321971
0.00796466
0.0325306
0.00776351
0.0328565
0.00755077
0.0331745
0.00732609
0.0334842
0.00708914
0.0337852
0.00683953
0.0340771
0.00657688
0.0343595
0.0063008
0.034632
0.0060109
0.0348941
0.00570678
0.0351454
0.00538804
0.0353855
0.00505428
0.0356138
0.00470511
0.0358301
0.00434014
0.0360339
0.00395893
0.0362247
0.00356104
0.036402
0.00314611
0.0365656
0.00271375
0.036715
0.00226354
0.0368498
0.00179508
0.0369694
0.00130791
0.0370735
0.000801564
0.0371615
0.000275711
0.0372332
-0.00027001
0.0372879
-0.000835993
0.0373253
-0.00142258
0.037345
-0.00203016
0.0373464
-0.00265907
0.0373291
-0.00330966
0.0372926
-0.00398221
0.0372365
-0.00467697
0.0371606
-0.00539423
0.0370641
-0.00613427
0.0369467
-0.00689729
0.036808
-0.00768346
0.0366477
-0.00849297
0.0364653
-0.00932597
0.0362604
-0.0101826
0.0360328
-0.0110628
0.0357821
-0.0119669
0.0355078
-0.0128948
0.0352098
-0.0138466
0.0348876
-0.0148223
0.0345409
-0.0158219
0.0341696
-0.0168452
0.0337736
-0.0178923
0.0333525
-0.0189632
0.0329062
-0.0200577
0.0324352
-0.0211761
0.0319398
-0.0223189
0.0314208
-0.0234872
0.0308794
-0.0246827
0.0303168
-0.025907
0.0297338
-0.0271615
0.0291288
-0.0284455
0.0284965
-0.0297544
0.027829
-0.0310784
-0.0324091
0.0271174
0.0277811
0.00911778
-0.0273875
0.0281712
0.00902505
0.0285577
0.00892456
0.0289402
0.00881609
0.0293186
0.00869939
0.0296924
0.00857416
0.0300613
0.00844009
0.0304249
0.00829688
0.0307829
0.0081442
0.0311348
0.00798169
0.0314804
0.00780903
0.0318192
0.00762586
0.0321508
0.00743185
0.032475
0.00722666
0.0327911
0.00700991
0.033099
0.00678127
0.0333982
0.00654035
0.0336883
0.00628678
0.0339689
0.00602018
0.0342396
0.00574017
0.0345001
0.00544635
0.0347498
0.00513835
0.0349883
0.00481575
0.0352152
0.00447817
0.0354302
0.00412519
0.0356327
0.0037564
0.0358224
0.00337139
0.0359987
0.00296977
0.0361613
0.00255113
0.0363098
0.00211506
0.0364437
0.00166115
0.0365627
0.00118896
0.0366662
0.00069807
0.0367538
0.000188104
0.0368251
-0.000341306
0.0368796
-0.000890546
0.036917
-0.00145997
0.0369368
-0.00204994
0.0369385
-0.00266081
0.0369218
-0.00329291
0.0368861
-0.00394655
0.0368311
-0.00462199
0.0367564
-0.00531953
0.0366616
-0.00603941
0.0365461
-0.00678186
0.0364098
-0.00754709
0.0362521
-0.00833527
0.0360726
-0.00914655
0.0358711
-0.00998107
0.0356472
-0.0108389
0.0354005
-0.0117202
0.0351308
-0.012625
0.0348376
-0.0135534
0.0345206
-0.0145054
0.0341797
-0.0154809
0.0338144
-0.01648
0.0334247
-0.0175026
0.0330104
-0.0185489
0.0325716
-0.0196189
0.0321087
-0.0207132
0.0316224
-0.0218326
0.0311139
-0.0229786
0.0305841
-0.0241529
0.0300334
-0.0253563
0.0294604
-0.0265886
0.0288612
-0.0278462
0.0282285
-0.0291216
0.0275537
-0.0304036
-0.0316869
0.0268314
0.0274444
0.00872594
-0.0270526
0.0278327
0.0086368
0.0282171
0.00854014
0.0285975
0.00843574
0.0289735
0.00832337
0.0293449
0.00820275
0.0297114
0.00807361
0.0300726
0.00793564
0.0304283
0.00778854
0.030778
0.00763199
0.0311214
0.00746565
0.031458
0.0072892
0.0317876
0.00710229
0.0321097
0.00690457
0.0324239
0.00669571
0.0327298
0.00647532
0.0330271
0.00624306
0.0333153
0.00599855
0.0335941
0.00574142
0.033863
0.00547127
0.0341216
0.00518773
0.0343695
0.00489042
0.0346064
0.00457893
0.0348317
0.00425287
0.035045
0.00391183
0.035246
0.00355541
0.0354342
0.0031832
0.0356092
0.0027948
0.0357705
0.00238979
0.0359178
0.00196777
0.0360506
0.00152832
0.0361686
0.00107102
0.0362712
0.000595454
0.0363581
0.00010124
0.0364288
-0.000412
0.0364829
-0.000944647
0.03652
-0.00149706
0.0365396
-0.00206961
0.0365415
-0.00266263
0.036525
-0.00327647
0.0364899
-0.00391144
0.0364357
-0.00456782
0.0363621
-0.00524589
0.0362686
-0.00594591
0.0361549
-0.00666812
0.0360205
-0.00741272
0.0358651
-0.0081799
0.0356884
-0.00896982
0.0354899
-0.00978262
0.0352694
-0.0106184
0.0350265
-0.0114773
0.0347609
-0.0123594
0.0344722
-0.0132647
0.0341602
-0.0141933
0.0338244
-0.0151452
0.0334648
-0.0161204
0.0330811
-0.017119
0.0326735
-0.0181412
0.0322422
-0.0191876
0.0317879
-0.0202589
0.0313114
-0.0213562
0.0308139
-0.022481
0.0302951
-0.0236341
0.0297541
-0.0248152
0.029187
-0.0260214
0.0285877
-0.0272469
0.0279481
-0.028482
0.0272609
-0.0297164
-0.0309513
0.0265253
0.0271235
0.00833554
-0.0267331
0.0275102
0.00825007
0.027893
0.00815734
0.0282716
0.00805715
0.0286457
0.00794925
0.0290151
0.00783338
0.0293795
0.00770926
0.0297385
0.00757662
0.0300919
0.00743516
0.0304393
0.00728458
0.0307804
0.00712457
0.0311148
0.00695481
0.0314421
0.00677496
0.031762
0.00658469
0.032074
0.00638365
0.0323778
0.00617149
0.0326731
0.00594785
0.0329592
0.00571237
0.033236
0.00546466
0.0335029
0.00520435
0.0337596
0.00493107
0.0340056
0.00464441
0.0342405
0.00434399
0.034464
0.00402942
0.0346755
0.00370028
0.0348747
0.00335618
0.0350612
0.00299671
0.0352346
0.00262145
0.0353944
0.00222999
0.0355402
0.00182194
0.0356717
0.00139686
0.0357883
0.000954358
0.0358898
0.000494009
0.0359756
1.54206e-05
0.0360454
-0.000481787
0.0360987
-0.000997993
0.0361352
-0.00153357
0.0361545
-0.00208887
0.0361561
-0.00266425
0.0361397
-0.00326005
0.0361048
-0.00387659
0.0360512
-0.00451415
0.0359783
-0.00517303
0.0358859
-0.00585349
0.0357735
-0.00655576
0.0356408
-0.00728005
0.0354875
-0.00802656
0.0353132
-0.00879546
0.0351174
-0.00958689
0.0349
-0.010401
0.0346605
-0.0112378
0.0343986
-0.0120975
0.034114
-0.0129801
0.0338063
-0.0138857
0.0334754
-0.0148143
0.0331211
-0.0157661
0.0327435
-0.0167413
0.0323428
-0.0177405
0.0319196
-0.0187644
0.0314746
-0.0198139
0.0310085
-0.0208901
0.0305213
-0.0219939
0.0300115
-0.0231244
0.029476
-0.0242797
0.0289088
-0.0254542
0.028303
-0.0266411
0.0276509
-0.02783
0.0269491
-0.0290146
-0.0302057
0.0262035
0.0268184
0.0079465
-0.0264293
0.0272037
0.00786471
0.0275851
0.00777596
0.0279622
0.00768003
0.0283348
0.00757669
0.0287025
0.00746566
0.0290651
0.00734668
0.0294222
0.00721948
0.0297736
0.00708377
0.0301189
0.00693925
0.0304578
0.00678564
0.03079
0.00662262
0.0311151
0.00644987
0.0314328
0.00626706
0.0317426
0.00607385
0.0320441
0.00586991
0.0323371
0.00565488
0.0326211
0.00542841
0.0328956
0.00519011
0.0331604
0.00493962
0.0334149
0.00467655
0.0336588
0.00440053
0.0338916
0.00411115
0.034113
0.00380802
0.0343225
0.00349074
0.0345198
0.00315891
0.0347044
0.00281211
0.0348759
0.00244995
0.0350339
0.00207199
0.035178
0.00167783
0.0353078
0.00126706
0.0354229
0.00083926
0.0355229
0.000394019
0.0356074
-6.90568e-05
0.035676
-0.000550362
0.0357282
-0.00105027
0.0357638
-0.00156916
0.0357824
-0.0021074
0.0357834
-0.00266533
0.0357667
-0.00324331
0.0357318
-0.00384165
0.0356783
-0.00446065
0.0356059
-0.00510061
0.0355142
-0.00576178
0.0354028
-0.0064444
0.0352714
-0.0071487
0.0351197
-0.00787486
0.0349473
-0.00862306
0.0347539
-0.00939344
0.034539
-0.0101861
0.0343025
-0.0110013
0.0340439
-0.0118389
0.0337629
-0.0126992
0.0334594
-0.0135822
0.0331333
-0.0144881
0.0327844
-0.0154173
0.0324132
-0.0163701
0.0320202
-0.0173474
0.0316058
-0.01835
0.0311705
-0.0193786
0.0307141
-0.0204337
0.030235
-0.0215147
0.02973
-0.0226194
0.029194
-0.0237437
0.02862
-0.0248803
0.0280014
-0.0260225
0.0273335
-0.0271621
0.0266196
-0.0283006
-0.0294612
0.0258751
0.0265298
0.0075589
-0.0261422
0.0269137
0.00748077
0.0272937
0.00739598
0.0276694
0.00730431
0.0280406
0.00720554
0.0284068
0.0070994
0.0287679
0.00698563
0.0291234
0.00686394
0.0294731
0.00673407
0.0298166
0.00659572
0.0301537
0.0064486
0.0304839
0.0062924
0.030807
0.00612683
0.0311225
0.00595155
0.0314301
0.00576624
0.0317294
0.00557056
0.0320201
0.00536418
0.0323018
0.00514672
0.0325741
0.00491785
0.0328365
0.00467717
0.0330888
0.00442432
0.0333304
0.00415891
0.033561
0.00388055
0.0337801
0.00358885
0.0339875
0.00328341
0.0341825
0.00296382
0.034365
0.00262967
0.0345344
0.00228055
0.0346903
0.00191604
0.0348324
0.00153573
0.0349603
0.0011392
0.0350735
0.000726026
0.0351717
0.000295803
0.0352546
-0.000151864
0.0353216
-0.000617384
0.0353724
-0.00110113
0.0354068
-0.00160349
0.0354242
-0.00212483
0.0354244
-0.0026655
0.0354069
-0.00322586
0.0353715
-0.00380623
0.0353177
-0.00440691
0.0352453
-0.00502819
0.0351539
-0.00567034
0.0350431
-0.00633361
0.0349126
-0.0070182
0.0347621
-0.00772432
0.0345911
-0.00845214
0.0343995
-0.00920181
0.0341868
-0.00997348
0.0339528
-0.0107673
0.0336972
-0.0115833
0.0334198
-0.0124217
0.0331204
-0.0132828
0.0327993
-0.0141669
0.0324565
-0.0150745
0.0320926
-0.0160062
0.0317079
-0.0169628
0.0313026
-0.0179447
0.0308761
-0.0189521
0.0304266
-0.0199843
0.0299511
-0.0210392
0.0294448
-0.022113
0.0289012
-0.0232002
0.0283143
-0.0242934
0.0276791
-0.0253873
0.0269964
-0.0264794
0.026278
-0.0275822
-0.0287257
0.0255425
0.026259
0.0071728
-0.0258729
0.0266414
0.00709832
0.0270199
0.00701747
0.0273942
0.00693006
0.0277639
0.00683586
0.0281286
0.00673461
0.0284882
0.00662605
0.0288423
0.00650991
0.0291904
0.00638592
0.0295323
0.00625379
0.0298677
0.00611323
0.0301962
0.00596394
0.0305174
0.00580562
0.030831
0.00563795
0.0311366
0.00546062
0.0314339
0.00527328
0.0317225
0.0050756
0.0320019
0.00486724
0.032272
0.00464783
0.0325321
0.00441701
0.032782
0.00417441
0.0330213
0.00391965
0.0332495
0.00365233
0.0334663
0.00337207
0.0336712
0.00307847
0.0338639
0.00277112
0.034044
0.00244961
0.034211
0.00211352
0.0343646
0.00176243
0.0345044
0.00139593
0.0346301
0.00101359
0.0347411
0.000614989
0.0348372
0.000199714
0.0349179
-0.000232632
0.034983
-0.000682467
0.0350321
-0.00115017
0.0350647
-0.00163613
0.0350806
-0.00214072
0.0350794
-0.00266431
0.0350608
-0.00320724
0.0350244
-0.00376984
0.0349699
-0.00435243
0.034897
-0.00495529
0.0348054
-0.00557869
0.0346946
-0.00622288
0.0345645
-0.00688807
0.0344147
-0.00757447
0.0342448
-0.00828226
0.0340546
-0.0090116
0.0338437
-0.00976265
0.0336121
-0.0105356
0.0333594
-0.0113306
0.0330857
-0.0121481
0.0327911
-0.0129882
0.0324758
-0.0138516
0.03214
-0.0147388
0.031784
-0.0156502
0.0314076
-0.0165863
0.0310098
-0.0175469
0.0305889
-0.0185311
0.0301415
-0.0195369
0.0296631
-0.0205609
0.0291483
-0.0215982
0.0285908
-0.0226428
0.0279866
-0.0236892
0.0273353
-0.0247359
0.0266457
-0.0257898
0.0259375
-0.026874
-0.028014
0.0252257
0.026007
0.00678823
-0.0256224
0.0263879
0.0067174
0.0267649
0.00664049
0.0271376
0.00655734
0.0275058
0.00646771
0.027869
0.00637135
0.0282271
0.00626801
0.0285796
0.00615742
0.0289262
0.00603934
0.0292665
0.00591346
0.0296002
0.0057795
0.029927
0.00563717
0.0302464
0.00548616
0.0305582
0.00532617
0.030862
0.00515687
0.0311573
0.00497793
0.0314439
0.00478904
0.0317213
0.00458984
0.0319892
0.00437997
0.0322471
0.00415908
0.0324947
0.00392679
0.0327316
0.00368273
0.0329574
0.00342652
0.0331718
0.00315775
0.0333742
0.00287603
0.0335644
0.00258095
0.0337419
0.0022721
0.0339063
0.00194906
0.0340574
0.0016114
0.0341946
0.0012587
0.0343176
0.00089054
0.0344261
0.000506486
0.0345197
0.000106115
0.0345981
-0.00031097
0.0346608
-0.000745195
0.0347076
-0.00119695
0.0347381
-0.00166662
0.034752
-0.00215461
0.0347489
-0.00266126
0.0347286
-0.00318694
0.0346908
-0.00373199
0.0346351
-0.00429671
0.0345612
-0.0048814
0.0344688
-0.00548633
0.0343577
-0.00611175
0.0342275
-0.00675788
0.034078
-0.00742494
0.0339088
-0.00811312
0.0337199
-0.00882262
0.0335109
-0.00955367
0.0332818
-0.0103065
0.0330326
-0.0110815
0.0327634
-0.0118789
0.0324745
-0.0126992
0.0321658
-0.0135429
0.0318373
-0.0144103
0.0314885
-0.0153014
0.0311181
-0.0162159
0.030724
-0.0171528
0.0303031
-0.0181101
0.0298509
-0.0190848
0.0293626
-0.0200725
0.0288327
-0.0210682
0.0282572
-0.0220673
0.0276359
-0.0230679
0.0269759
-0.0240759
0.0262942
-0.0251081
0.0256124
-0.0261922
-0.027328
0.0249265
0.0257752
0.00640516
-0.0253921
0.0261546
0.00633799
0.02653
0.00626504
0.0269012
0.00618615
0.0272678
0.00610111
0.0276295
0.00600966
0.0279859
0.00591156
0.0283368
0.00580656
0.0286818
0.00569438
0.0290204
0.00557478
0.0293525
0.00544745
0.0296775
0.00531211
0.0299953
0.00516845
0.0303052
0.00501619
0.0306071
0.00485498
0.0309005
0.00468452
0.0311851
0.00450446
0.0314604
0.0043145
0.0317262
0.00411425
0.0319819
0.00390337
0.0322272
0.00368148
0.0324617
0.00344821
0.032685
0.00320317
0.0328968
0.00294597
0.0330967
0.0026762
0.0332842
0.00239346
0.0334589
0.00209733
0.0336206
0.00178738
0.0337688
0.00146318
0.0339032
0.00112432
0.0340234
0.000770352
0.034129
0.000400842
0.0342198
1.53663e-05
0.0342953
-0.000386493
0.0343553
-0.000805161
0.0343994
-0.00124104
0.0344273
-0.00169453
0.0344387
-0.00216602
0.0344333
-0.0026559
0.0344109
-0.00316451
0.0343711
-0.00369221
0.0343137
-0.0042393
0.0342384
-0.00480609
0.0341449
-0.00539287
0.034033
-0.00599987
0.0339025
-0.00662736
0.0337531
-0.00727556
0.0335847
-0.00794473
0.0333972
-0.00863512
0.0331906
-0.00934702
0.0329648
-0.0100807
0.03272
-0.0108367
0.0324563
-0.0116151
0.0321734
-0.0124163
0.0318709
-0.0132405
0.0315481
-0.0140875
0.0312034
-0.0149567
0.0308343
-0.0158469
0.0304378
-0.0167563
0.0300098
-0.0176821
0.0295457
-0.0186206
0.0290408
-0.0195676
0.0284917
-0.0205192
0.0278984
-0.021474
0.0272673
-0.0224369
0.0266141
-0.0234227
0.0259606
-0.0244545
0.0253131
-0.0255447
-0.0266243
0.0246094
0.0255647
0.00602348
-0.025183
0.0259427
0.00596
0.0263167
0.00589104
0.0266864
0.00581646
0.0270515
0.00573603
0.0274116
0.00564952
0.0277665
0.0055567
0.0281157
0.0054573
0.0284591
0.00535108
0.0287961
0.00523777
0.0291264
0.0051171
0.0294497
0.00498879
0.0297656
0.00485254
0.0300738
0.00470805
0.0303738
0.004555
0.0306652
0.00439308
0.0309477
0.00422195
0.0312209
0.00404129
0.0314844
0.00385075
0.0317378
0.00364996
0.0319807
0.00343856
0.0322128
0.00321617
0.0324336
0.0029824
0.0326427
0.00273685
0.0328397
0.00247913
0.0330244
0.00220881
0.0331962
0.00192547
0.0333549
0.00162869
0.0335001
0.00131804
0.0336313
0.000993064
0.0337484
0.000653331
0.0338508
0.000298396
0.0339383
-7.21698e-05
0.0340107
-0.000458814
0.0340675
-0.000861954
0.0341084
-0.00128201
0.0341333
-0.0017194
0.0341418
-0.00217452
0.0341336
-0.00264775
0.0341086
-0.00313948
0.0340665
-0.00365005
0.034007
-0.00417979
0.0339299
-0.00472902
0.0338351
-0.00529803
0.0337223
-0.00588712
0.0335915
-0.00649656
0.0334426
-0.00712663
0.0332754
-0.00777762
0.0330902
-0.00844984
0.0328867
-0.00914358
0.0326651
-0.00985911
0.0324251
-0.0105967
0.0321664
-0.0113564
0.0318882
-0.0121382
0.0315894
-0.0129416
0.031268
-0.0137661
0.0309216
-0.0146103
0.0305471
-0.0154724
0.0301408
-0.01635
0.0296986
-0.0172398
0.0292163
-0.0181384
0.0286911
-0.0190425
0.0281235
-0.0199515
0.0275195
-0.02087
0.026894
-0.0218114
0.0262686
-0.0227972
0.025657
-0.0238429
0.0250227
-0.0249104
-0.0258092
0.0242076
0.0253768
0.00564298
-0.0249963
0.0257536
0.00558325
0.0261263
0.00551834
0.0264946
0.00544811
0.0268583
0.00537234
0.027217
0.00529082
0.0275704
0.00520331
0.0279181
0.00510957
0.0282599
0.00500936
0.0285952
0.0049024
0.0289239
0.00478845
0.0292455
0.00466722
0.0295596
0.00453843
0.0298658
0.00440178
0.0301639
0.00425696
0.0304533
0.00410366
0.0307337
0.00394154
0.0310047
0.00377028
0.0312659
0.00358953
0.031517
0.00339894
0.0317574
0.00319813
0.0319868
0.00298672
0.0322049
0.00276432
0.0324112
0.00253055
0.0326054
0.00228497
0.032787
0.00202719
0.0329557
0.00175676
0.0331112
0.00147325
0.033253
0.00117623
0.0333808
0.000865231
0.0334943
0.00053981
0.0335932
0.000199506
0.0336772
-0.000156114
0.0337459
-0.000527522
0.0337991
-0.000915146
0.0338365
-0.00131942
0.0338579
-0.00174079
0.033863
-0.00217965
0.0338517
-0.00263642
0.0338237
-0.00311149
0.0337789
-0.00360523
0.0337171
-0.004118
0.0336382
-0.00465014
0.0335421
-0.00520198
0.0334288
-0.00577384
0.0332983
-0.00636602
0.0331505
-0.00697883
0.0329854
-0.00761254
0.032803
-0.00826738
0.032603
-0.00894355
0.032385
-0.00964111
0.0321483
-0.01036
0.0318919
-0.0111
0.0316143
-0.0118606
0.0313136
-0.0126409
0.0309871
-0.0134396
0.030632
-0.0142552
0.0302448
-0.0150853
0.0298219
-0.0159271
0.0293599
-0.0167778
0.0288564
-0.0176349
0.0283125
-0.0184985
0.0277344
-0.0193734
0.0271361
-0.0202718
0.0265382
-0.0212135
0.0259554
-0.0222145
0.0253633
-0.0232508
0.0246397
-0.0241869
-0.0246927
0.0235232
0.0252127
0.00526344
-0.0248332
0.0255885
0.00520752
0.0259601
0.00514671
0.0263273
0.00508088
0.0266898
0.00500984
0.0270473
0.00493337
0.0273993
0.00485124
0.0277457
0.00476323
0.028086
0.00466908
0.0284198
0.00456856
0.0287469
0.0044614
0.0290668
0.00434733
0.0293791
0.00422608
0.0296835
0.00409735
0.0299797
0.00396084
0.0302671
0.00381624
0.0305454
0.00366323
0.0308142
0.00350148
0.0310731
0.00333064
0.0313217
0.00315035
0.0315596
0.00296025
0.0317863
0.00275995
0.0320016
0.00254906
0.032205
0.00232719
0.032396
0.0020939
0.0325744
0.00184879
0.0327398
0.00159141
0.0328917
0.0013213
0.0330299
0.00103803
0.033154
0.000741122
0.0332637
0.00043011
0.0333587
0.000104519
0.0334387
-0.000236102
0.0335034
-0.000592247
0.0335526
-0.000964366
0.0335861
-0.00135292
0.0336037
-0.00175837
0.0336052
-0.00218116
0.0335905
-0.00262172
0.0335595
-0.00308047
0.0335121
-0.00355782
0.0334483
-0.00405416
0.033368
-0.00456985
0.0332712
-0.00510522
0.033158
-0.0056606
0.0330282
-0.00623626
0.0328818
-0.00683242
0.0327185
-0.00744922
0.0325378
-0.00808674
0.0323392
-0.00874493
0.0321217
-0.00942356
0.0318839
-0.0101223
0.0316243
-0.0108404
0.0313408
-0.0115771
0.0310311
-0.0123312
0.0306924
-0.0131009
0.0303216
-0.0138844
0.0299156
-0.0146792
0.0294714
-0.015483
0.0289878
-0.0162941
0.0284661
-0.0171133
0.0279133
-0.0179457
0.0273431
-0.0188032
0.0267749
-0.0197036
0.0262232
-0.0206618
0.0256686
-0.0216598
0.0250028
-0.022585
0.0239751
-0.0231591
-0.0229257
0.0222081
0.025074
0.00488466
-0.0246953
0.025449
0.00483258
0.0258198
0.00477593
0.0261861
0.00471456
0.0265476
0.0046483
0.0269041
0.00457694
0.027255
0.00450026
0.0276002
0.00441804
0.0279393
0.00433005
0.0282718
0.00423603
0.0285974
0.00413575
0.0289158
0.00402893
0.0292266
0.00391532
0.0295293
0.00379461
0.0298237
0.00366652
0.0301092
0.00353074
0.0303854
0.00338695
0.0306521
0.00323483
0.0309087
0.00307402
0.0311549
0.00290418
0.0313902
0.00272493
0.0316143
0.00253589
0.0318266
0.00233667
0.032027
0.00212686
0.0322149
0.00190602
0.0323899
0.00167374
0.0325518
0.00142956
0.0327
0.00117301
0.0328344
0.000903633
0.0329546
0.000620939
0.0330603
0.000324441
0.0331512
1.36501e-05
0.033227
-0.000311929
0.0332875
-0.000652806
0.0333327
-0.00100947
0.0333622
-0.00138242
0.0333759
-0.00177214
0.0333739
-0.00217913
0.033356
-0.00260383
0.0333223
-0.00304671
0.0332726
-0.00350817
0.033207
-0.0039886
0.0331255
-0.00448835
0.033028
-0.00500772
0.0329144
-0.00554692
0.0327842
-0.00610613
0.0326372
-0.00668541
0.0324727
-0.00728472
0.0322899
-0.0079039
0.0320876
-0.00854265
0.0318645
-0.00920049
0.031619
-0.00987677
0.0313492
-0.0105706
0.0310528
-0.0112807
0.0307274
-0.0120057
0.0303702
-0.0127437
0.0299785
-0.0134928
0.0295503
-0.014251
0.0290848
-0.0150175
0.0285846
-0.0157939
0.0280573
-0.0165859
0.0275167
-0.0174051
0.0269814
-0.0182678
0.0264641
-0.0191863
0.0259452
-0.020143
0.0253271
-0.0210417
0.0243851
-0.0216429
0.0227945
-0.0215686
-0.0204909
0.0203597
0.024963
0.00450639
-0.0245847
0.0253374
0.0044582
0.0257076
0.00440573
0.0260732
0.00434887
0.0264341
0.00428745
0.0267898
0.00422126
0.0271399
0.00415009
0.0274842
0.00407374
0.0278223
0.00399196
0.0281538
0.00390454
0.0284783
0.00381123
0.0287955
0.00371176
0.0291049
0.00360588
0.0294062
0.00349331
0.029699
0.00337376
0.0299828
0.00324692
0.0302573
0.00311248
0.030522
0.00297013
0.0307765
0.0028195
0.0310204
0.00266026
0.0312533
0.00249202
0.0314748
0.00231441
0.0316845
0.00212702
0.0318819
0.00192944
0.0320667
0.00172123
0.0322385
0.00150195
0.0323969
0.00127113
0.0325416
0.0010283
0.0326723
0.000772953
0.0327886
0.000504596
0.0328904
0.00022271
0.0329772
-7.32133e-05
0.033049
-0.000383733
0.0331056
-0.000709372
0.0331468
-0.00105066
0.0331725
-0.00140814
0.0331827
-0.00178232
0.0331773
-0.0021737
0.0331562
-0.00258276
0.0331194
-0.00300994
0.0330669
-0.00345564
0.0329985
-0.0039202
0.032914
-0.0044039
0.0328133
-0.00490693
0.0326957
-0.00542941
0.032561
-0.00597135
0.0324082
-0.00653265
0.0322366
-0.0071131
0.032045
-0.00771233
0.0318322
-0.00832983
0.0315966
-0.00896492
0.0313365
-0.00961669
0.03105
-0.010284
0.0307347
-0.0109655
0.0303885
-0.0116594
0.030009
-0.0123643
0.029595
-0.0130787
0.0291468
-0.0138027
0.028668
-0.0145388
0.0281676
-0.0152934
0.0276596
-0.0160779
0.0271613
-0.0169069
0.0266825
-0.017789
0.0262001
-0.0187039
0.0256157
-0.0195586
0.024718
-0.020144
0.0232004
-0.0201253
0.0208276
-0.0191958
-0.0173609
0.0176977
0.0248826
0.00412835
-0.0245045
0.0252567
0.00408407
0.0256266
0.00403582
0.025992
0.0039835
0.0263525
0.00392695
0.0267078
0.00386597
0.0270575
0.00380037
0.0274013
0.00372993
0.0277388
0.00365445
0.0280697
0.00357368
0.0283935
0.00348741
0.0287099
0.00339538
0.0290184
0.00329733
0.0293187
0.00319299
0.0296104
0.00308207
0.029893
0.00296429
0.0301662
0.00283934
0.0304294
0.00270687
0.0306824
0.00256657
0.0309246
0.00241807
0.0311556
0.002261
0.031375
0.00209497
0.0315825
0.00191958
0.0317775
0.0017344
0.0319597
0.00153899
0.0321288
0.00133289
0.0322843
0.00111561
0.032426
0.000886666
0.0325534
0.000645535
0.0326663
0.000391687
0.0327644
0.000124579
0.0328475
-0.000156333
0.0329154
-0.000451645
0.032968
-0.000761896
0.033005
-0.00108765
0.0330263
-0.00142944
0.0330318
-0.00178783
0.0330214
-0.00216329
0.0329949
-0.00255632
0.0329523
-0.00296731
0.0328933
-0.00339664
0.0328177
-0.00384459
0.0327251
-0.00431137
0.0326153
-0.00479707
0.0324876
-0.00530171
0.0323414
-0.00582516
0.0321759
-0.00636718
0.0319902
-0.00692739
0.0317831
-0.00750525
0.0315534
-0.00810006
0.0312993
-0.0087109
0.0310193
-0.00933669
0.0307114
-0.0099761
0.0303737
-0.0106278
0.0300046
-0.0112904
0.0296037
-0.0119634
0.0291727
-0.0126477
0.0287167
-0.0133468
0.0282459
-0.014068
0.0277749
-0.0148225
0.0273193
-0.0156223
0.0268832
-0.0164708
0.0264362
-0.017342
0.0258742
-0.0181419
0.0249882
-0.0186726
0.0234916
-0.0186473
0.0211639
-0.0177977
0.0180745
-0.0161064
-0.01388
0.0145935
0.0248384
0.00375002
-0.02446
0.0252128
0.00370966
0.025583
0.00366564
0.0259486
0.00361787
0.0263093
0.00356621
0.0266648
0.00351046
0.0270148
0.00345043
0.0273588
0.00338594
0.0276964
0.00331677
0.0280274
0.00324271
0.0283513
0.00316352
0.0286677
0.00307897
0.0289762
0.00298881
0.0292765
0.00289277
0.0295679
0.00279058
0.0298503
0.00268195
0.0301231
0.00256657
0.0303858
0.00244413
0.0306381
0.00231429
0.0308795
0.00217669
0.0311095
0.00203096
0.0313278
0.00187672
0.0315338
0.00171355
0.0317272
0.00154103
0.0319074
0.00135871
0.0320742
0.0011661
0.0322271
0.000962728
0.0323657
0.000748068
0.0324897
0.000521586
0.0325986
0.00028273
0.0326923
3.09295e-05
0.0327703
-0.0002344
0.0328325
-0.000513854
0.0328786
-0.000808003
0.0329084
-0.00111743
0.0329217
-0.0014427
0.0329182
-0.00178438
0.0328979
-0.00214297
0.0328605
-0.00251895
0.0328059
-0.00291272
0.0327339
-0.00332464
0.0326443
-0.00375493
0.0325367
-0.00420376
0.0324107
-0.00467113
0.032266
-0.00515696
0.0321018
-0.005661
0.0319175
-0.00618285
0.031712
-0.00672194
0.0314843
-0.00727757
0.0312331
-0.00784879
0.0309567
-0.00843455
0.0306537
-0.00903367
0.0303226
-0.00964503
0.0299628
-0.0102679
0.029575
-0.0109025
0.0291625
-0.0115509
0.0287324
-0.0122176
0.0282963
-0.0129107
0.0278686
-0.0136403
0.0274616
-0.0144155
0.0270715
-0.0152321
0.0266543
-0.0160537
0.0260938
-0.0167815
0.0251794
-0.0172275
0.0236441
-0.0171373
0.0212947
-0.0162979
0.018212
-0.0147149
0.0147565
-0.012651
-0.0104359
0.0113125
0.0248397
0.00337057
-0.0244602
0.0252152
0.00333409
0.0255866
0.00329427
0.0259534
0.00325104
0.0263154
0.00320424
0.0266722
0.00315371
0.0270233
0.00309926
0.0273686
0.00304072
0.0277074
0.00297788
0.0280396
0.00291055
0.0283646
0.0028385
0.0286821
0.0027615
0.0289916
0.00267932
0.0292926
0.00259171
0.0295848
0.00249839
0.0298677
0.00239909
0.0301408
0.0022935
0.0304036
0.00218133
0.0306556
0.00206224
0.0308964
0.00193588
0.0311255
0.00180188