/*--------------------------------*- C++ -*----------------------------------*\
| =========                 |                                                 |
| \\      /  F ield         | OpenFOAM: The Open Source CFD Toolbox           |
|  \\    /   O peration     | Version:  2312                                  |
|   \\  /    A nd           | Website:  www.openfoam.com                      |
|    \\/     M anipulation  |                                                 |
\*---------------------------------------------------------------------------*/
FoamFile
{
    version     2.0;
    format      ascii;
    arch        "LSB;label=32;scalar=64";
    class       volVectorField;
    location    "200";
    object      U;
}
// * * * * * * * * * * * * * * * * * * * * * * * * * * * * * * * * * * * * * //

dimensions      [0 1 -1 0 0 0 0];

internalField   nonuniform List<vector> 
76025
(
(0.980455 -0.200629 0)
(0.985498 -0.20162 2.91397e-21)
(0.990587 -0.202503 0)
(0.995705 -0.203279 0)
(1.00079 -0.203959 -1.54343e-21)
(1.00605 -0.20433 1.04342e-21)
(1.0113 -0.204758 -4.39269e-21)
(1.01664 -0.204901 2.66562e-21)
(1.02196 -0.205017 2.16772e-21)
(1.02729 -0.204989 -2.88578e-21)
(1.03261 -0.204812 2.78606e-22)
(1.03799 -0.204438 -1.36755e-20)
(1.04339 -0.203989 1.79742e-20)
(1.04879 -0.203321 0)
(1.05423 -0.20242 -6.47595e-21)
(1.05957 -0.201577 0)
(1.06494 -0.200355 0)
(1.07029 -0.199181 0)
(1.07562 -0.197708 -8.8431e-21)
(1.08085 -0.196281 1.0119e-20)
(1.08608 -0.194538 1.08355e-20)
(1.09134 -0.192704 3.42566e-20)
(1.09649 -0.190706 -2.33215e-20)
(1.1016 -0.188533 -3.9186e-20)
(1.10665 -0.186294 -1.35673e-21)
(1.11162 -0.18402 -1.59291e-20)
(1.11665 -0.181339 4.51698e-20)
(1.12152 -0.178702 -4.6316e-20)
(1.12635 -0.175826 1.61658e-20)
(1.13115 -0.172647 -1.69053e-20)
(1.13576 -0.169771 -1.7787e-20)
(1.1403 -0.166738 3.85122e-20)
(1.14485 -0.163283 -5.88295e-20)
(1.1493 -0.160047 -1.08175e-20)
(1.15364 -0.156489 5.40011e-20)
(1.15784 -0.153087 3.53986e-22)
(1.16202 -0.149484 -1.08632e-20)
(1.16621 -0.145565 5.67308e-21)
(1.17031 -0.141846 1.81926e-22)
(1.17426 -0.137901 -8.5769e-21)
(1.17806 -0.134052 5.6871e-21)
(1.18188 -0.130064 -2.85222e-21)
(1.1857 -0.12567 5.72343e-21)
(1.1894 -0.121521 -1.15995e-20)
(1.19295 -0.117197 -1.19287e-20)
(1.19646 -0.112979 2.3137e-20)
(1.19993 -0.108434 2.40089e-20)
(1.20333 -0.103996 -7.22166e-20)
(1.2066 -0.0995293 4.74982e-20)
(1.20986 -0.0950751 -1.87455e-22)
(1.21308 -0.0905766 -1.21113e-19)
(1.21625 -0.0859479 -4.80059e-20)
(1.21943 -0.0812453 4.92982e-20)
(1.22259 -0.0764747 0)
(1.22565 -0.0716737 -4.86253e-20)
(1.22873 -0.0670188 -4.98948e-20)
(1.23187 -0.0621467 9.31385e-22)
(1.23502 -0.0571976 -4.93588e-20)
(1.2382 -0.0521102 5.04369e-20)
(1.24136 -0.0467783 -1.48885e-19)
(1.24472 -0.0417164 -1.01531e-19)
(1.24825 -0.0363935 -1.97754e-21)
(1.25185 -0.0309073 0)
(1.25558 -0.025311 2.57373e-19)
(1.25956 -0.0195055 -1.01155e-19)
(1.26402 -0.013907 5.14725e-20)
(1.26889 -0.00782629 -1.0303e-19)
(1.2743 -0.00116391 1.05058e-19)
(1.28099 0.00531534 2.06462e-19)
(0.978611 -0.20949 3.68325e-21)
(0.98392 -0.210509 7.35051e-21)
(0.989267 -0.211388 -1.02826e-20)
(0.994658 -0.212128 0)
(1.00005 -0.21276 1.92819e-21)
(1.00555 -0.213207 -3.03729e-21)
(1.01103 -0.213529 1.856e-21)
(1.01657 -0.21369 0)
(1.02214 -0.213704 2.84725e-22)
(1.02774 -0.21358 2.95502e-21)
(1.03335 -0.21331 -3.69128e-21)
(1.03898 -0.212878 3.81346e-22)
(1.04459 -0.212302 0)
(1.05022 -0.211567 0)
(1.05587 -0.210632 -1.52009e-20)
(1.06146 -0.209595 3.67853e-20)
(1.06708 -0.208346 8.62765e-21)
(1.07263 -0.206987 -2.83509e-20)
(1.07819 -0.205435 1.89732e-20)
(1.08367 -0.203767 -1.0335e-20)
(1.08914 -0.201922 1.23985e-20)
(1.09455 -0.199932 -2.35278e-20)
(1.0999 -0.197788 2.65065e-20)
(1.10519 -0.195484 -4.12899e-20)
(1.11043 -0.193037 2.8143e-20)
(1.11561 -0.190469 4.60045e-20)
(1.12073 -0.187735 -3.13007e-20)
(1.12574 -0.184894 0)
(1.13068 -0.1819 0)
(1.13554 -0.178776 -1.88339e-20)
(1.14032 -0.175543 0)
(1.14506 -0.172192 -2.05398e-20)
(1.14968 -0.168717 2.13174e-20)
(1.1542 -0.165161 -3.27063e-20)
(1.15863 -0.1615 4.29384e-22)
(1.16296 -0.157736 -1.12994e-20)
(1.16723 -0.153832 0)
(1.17139 -0.149876 -2.36908e-20)
(1.17545 -0.145872 1.79228e-20)
(1.17941 -0.141808 -1.48634e-20)
(1.18327 -0.13765 9.02868e-21)
(1.18707 -0.133381 -1.0987e-22)
(1.19077 -0.12911 3.28245e-21)
(1.19437 -0.124828 -3.04895e-21)
(1.19789 -0.120481 2.50635e-20)
(1.20135 -0.116052 -1.26111e-20)
(1.20473 -0.111588 -1.296e-20)
(1.20805 -0.107128 2.47478e-20)
(1.2113 -0.102586 7.57132e-20)
(1.21451 -0.0979799 -1.053e-22)
(1.21768 -0.0933354 7.56683e-20)
(1.2208 -0.0886396 -2.56077e-20)
(1.2239 -0.0839186 -7.64416e-20)
(1.22698 -0.0791944 5.0687e-20)
(1.23005 -0.0744513 0)
(1.23312 -0.0695866 1.54662e-19)
(1.23623 -0.0646813 8.54903e-22)
(1.23936 -0.0597414 -5.13331e-20)
(1.24254 -0.0547532 -5.24748e-20)
(1.2458 -0.049717 0)
(1.24916 -0.0445214 5.08217e-20)
(1.25268 -0.0392404 1.56377e-19)
(1.25635 -0.0339255 0)
(1.26024 -0.0285112 -1.05353e-19)
(1.26445 -0.0229596 5.58088e-20)
(1.26912 -0.0172311 -1.07379e-19)
(1.27435 -0.0113423 5.30678e-20)
(1.28014 -0.00535597 -1.06754e-19)
(1.28638 0.000878273 -1.05413e-19)
(0.976734 -0.218891 -1.70663e-20)
(0.982276 -0.219905 1.04535e-20)
(0.987873 -0.220776 -2.0616e-21)
(0.993535 -0.221504 3.66778e-21)
(0.999238 -0.222087 -4.05688e-21)
(1.00498 -0.222521 2.78149e-21)
(1.01075 -0.222797 -4.0034e-21)
(1.01655 -0.222917 0)
(1.02239 -0.222877 3.2354e-22)
(1.02825 -0.222678 0)
(1.03412 -0.222318 4.49008e-21)
(1.04 -0.221795 -4.88091e-21)
(1.04587 -0.22111 -3.11662e-20)
(1.05173 -0.220262 2.50181e-20)
(1.05759 -0.219246 -7.2041e-21)
(1.06344 -0.21806 -2.52164e-20)
(1.06926 -0.216711 8.48416e-21)
(1.07507 -0.215193 9.52032e-21)
(1.08083 -0.213517 3.28521e-20)
(1.08656 -0.211673 -2.19644e-20)
(1.09223 -0.209673 -1.25096e-20)
(1.09784 -0.207515 2.66553e-20)
(1.10339 -0.205201 -1.26085e-20)
(1.10887 -0.202728 -1.49227e-20)
(1.11429 -0.200104 0)
(1.11963 -0.197335 1.65523e-20)
(1.12488 -0.194435 1.72636e-20)
(1.13004 -0.191395 -1.66315e-20)
(1.13511 -0.188213 0)
(1.1401 -0.184904 3.89461e-20)
(1.145 -0.18146 -2.07609e-20)
(1.14981 -0.17791 -8.77664e-22)
(1.15451 -0.174262 0)
(1.1591 -0.170505 1.1277e-20)
(1.16359 -0.166653 -3.57454e-20)
(1.16797 -0.162703 2.37286e-20)
(1.17225 -0.158672 0)
(1.17642 -0.154571 1.8469e-20)
(1.1805 -0.150394 -1.85615e-20)
(1.18447 -0.146153 -3.07405e-21)
(1.18834 -0.141841 0)
(1.19211 -0.137475 -6.33956e-21)
(1.19578 -0.133066 -3.21691e-21)
(1.19937 -0.128601 3.13086e-21)
(1.20287 -0.124085 -1.90604e-20)
(1.20629 -0.119528 -1.31138e-20)
(1.20963 -0.114943 2.55872e-20)
(1.2129 -0.110323 -2.62403e-20)
(1.2161 -0.105665 2.64373e-20)
(1.21926 -0.100982 -2.59603e-20)
(1.22237 -0.0962814 -2.59208e-20)
(1.22544 -0.0915564 5.32661e-20)
(1.2285 -0.086805 0)
(1.23155 -0.0820294 5.34895e-20)
(1.23459 -0.0772204 1.89101e-22)
(1.23764 -0.0723729 -5.357e-20)
(1.24072 -0.067501 -5.36979e-20)
(1.24386 -0.0625892 1.06884e-19)
(1.24705 -0.0576245 -9.82181e-23)
(1.25032 -0.0525883 5.432e-20)
(1.25371 -0.0474812 -1.08947e-19)
(1.25727 -0.0423229 -5.47127e-20)
(1.26103 -0.0371048 1.02071e-21)
(1.26509 -0.0317947 -5.41046e-20)
(1.26954 -0.0263923 -5.31375e-20)
(1.27451 -0.0208825 -1.65274e-19)
(1.28004 -0.015231 0)
(1.28588 -0.00939516 -5.56193e-20)
(1.29188 -0.00330762 5.36138e-20)
(0.974863 -0.228849 0)
(0.98066 -0.229855 2.9368e-21)
(0.986518 -0.230711 8.51187e-21)
(0.992441 -0.231416 -6.38339e-21)
(0.998418 -0.231966 8.6506e-22)
(1.00444 -0.232355 -1.13319e-21)
(1.0105 -0.23258 1.25277e-21)
(1.01658 -0.232641 -2.41756e-21)
(1.0227 -0.232533 -2.90912e-21)
(1.02882 -0.232258 -1.73787e-20)
(1.03496 -0.231811 1.77613e-20)
(1.0411 -0.231191 2.40559e-20)
(1.04724 -0.230397 -4.12035e-21)
(1.05337 -0.229428 -2.90044e-20)
(1.05948 -0.228283 2.37003e-20)
(1.06557 -0.226962 -9.2214e-21)
(1.07164 -0.225468 1.00598e-20)
(1.07767 -0.223799 1.08965e-20)
(1.08365 -0.22196 -3.46095e-20)
(1.08959 -0.219951 1.10071e-20)
(1.09547 -0.217775 1.26726e-20)
(1.10129 -0.215434 0)
(1.10704 -0.212929 3.08748e-20)
(1.11271 -0.210265 -1.50791e-20)
(1.1183 -0.207446 -3.33909e-20)
(1.1238 -0.20448 -3.58612e-20)
(1.12921 -0.201369 7.12376e-20)
(1.13452 -0.198114 -3.77109e-20)
(1.13973 -0.194721 0)
(1.14483 -0.191198 -4.11478e-20)
(1.14983 -0.187553 -7.9485e-22)
(1.15472 -0.183798 4.38397e-20)
(1.15949 -0.179937 -2.35752e-20)
(1.16415 -0.175971 6.06547e-20)
(1.16869 -0.171911 -1.18357e-20)
(1.17312 -0.167763 0)
(1.17743 -0.163533 0)
(1.18162 -0.159227 6.53515e-21)
(1.18571 -0.154853 6.35843e-21)
(1.18967 -0.150422 3.31663e-21)
(1.19353 -0.145936 -1.04282e-22)
(1.19728 -0.141401 3.24757e-21)
(1.20092 -0.136822 0)
(1.20447 -0.132207 -2.05023e-22)
(1.20793 -0.127562 0)
(1.2113 -0.122891 1.31482e-20)
(1.21459 -0.118196 2.21336e-22)
(1.2178 -0.11348 -4.07786e-20)
(1.22096 -0.108746 0)
(1.22406 -0.103995 -2.73363e-20)
(1.22712 -0.0992283 2.69767e-20)
(1.23015 -0.094446 -5.38176e-20)
(1.23316 -0.089649 0)
(1.23617 -0.0848399 -1.64436e-19)
(1.23917 -0.0800176 1.89912e-22)
(1.2422 -0.0751749 5.44791e-20)
(1.24526 -0.0703085 5.45696e-20)
(1.24838 -0.0654141 0)
(1.25157 -0.0604872 0)
(1.25486 -0.0555198 -5.4876e-20)
(1.25828 -0.0505078 1.1001e-19)
(1.26191 -0.0454481 1.1042e-19)
(1.2658 -0.040349 0)
(1.27007 -0.0351903 -1.12955e-19)
(1.27479 -0.0299727 0)
(1.28002 -0.0246499 1.68083e-19)
(1.28565 -0.0191871 -5.52013e-20)
(1.29134 -0.013552 -5.66911e-20)
(1.29684 -0.0076912 -5.68757e-20)
(0.973017 -0.239371 0)
(0.979101 -0.240371 0)
(0.985241 -0.241209 1.78113e-21)
(0.991442 -0.241886 -2.09823e-21)
(0.997698 -0.242397 2.00583e-21)
(1.004 -0.242737 6.94122e-22)
(1.01034 -0.242903 0)
(1.01672 -0.242893 2.45284e-21)
(1.02311 -0.242705 0)
(1.02953 -0.242338 9.71791e-21)
(1.03595 -0.24179 2.2927e-21)
(1.04237 -0.241058 -1.1449e-20)
(1.04879 -0.240142 0)
(1.05519 -0.239041 1.67239e-20)
(1.06157 -0.237755 -5.27737e-20)
(1.06792 -0.236285 3.79507e-20)
(1.07423 -0.23463 -5.22571e-20)
(1.0805 -0.232794 1.08513e-20)
(1.08672 -0.230778 -1.26341e-20)
(1.09288 -0.228584 1.27275e-20)
(1.09897 -0.226215 1.43514e-20)
(1.10499 -0.223674 -4.40113e-20)
(1.11093 -0.220964 -3.13616e-20)
(1.11679 -0.21809 0)
(1.12255 -0.215056 3.55267e-20)
(1.12821 -0.211868 1.93653e-20)
(1.13377 -0.208531 -5.60575e-20)
(1.13922 -0.20505 1.95112e-20)
(1.14456 -0.201433 -4.24209e-20)
(1.14978 -0.197686 6.39614e-20)
(1.15487 -0.193817 -2.31505e-20)
(1.15984 -0.189834 1.20346e-20)
(1.16469 -0.185745 0)
(1.16941 -0.181557 -1.24578e-20)
(1.174 -0.177278 -1.27618e-20)
(1.17846 -0.172915 0)
(1.18279 -0.168476 1.35449e-20)
(1.187 -0.163969 -2.0126e-20)
(1.19108 -0.159403 1.33562e-20)
(1.19504 -0.154785 -6.80137e-21)
(1.19887 -0.150121 -1.12331e-22)
(1.20259 -0.145417 -5.22881e-21)
(1.2062 -0.14068 1.71022e-21)
(1.20971 -0.135918 6.82614e-21)
(1.21312 -0.131134 1.02483e-22)
(1.21644 -0.126332 4.17353e-20)
(1.21968 -0.121517 0)
(1.22284 -0.116693 2.76407e-20)
(1.22594 -0.111863 -1.7669e-22)
(1.22899 -0.107028 -2.79007e-20)
(1.23199 -0.102192 0)
(1.23497 -0.0973566 -2.83825e-20)
(1.23793 -0.0925213 2.80151e-20)
(1.24088 -0.0876863 5.58613e-20)
(1.24385 -0.0828495 0)
(1.24684 -0.078007 -1.13087e-19)
(1.24987 -0.0731563 1.13443e-19)
(1.25297 -0.068294 -1.13623e-19)
(1.25615 -0.0634164 -9.91742e-22)
(1.25945 -0.0585173 0)
(1.26294 -0.0535975 -5.75307e-20)
(1.26667 -0.0486537 5.66946e-20)
(1.27074 -0.0436954 5.86369e-20)
(1.27525 -0.0386971 1.1356e-19)
(1.2802 -0.0336554 -1.72677e-19)
(1.28555 -0.0285168 1.14425e-19)
(1.29105 -0.0232393 -5.61963e-20)
(1.2963 -0.0177866 5.72487e-20)
(1.301 -0.0121926 1.68216e-19)
(0.97115 -0.250504 -1.25842e-20)
(0.977556 -0.251496 3.83251e-21)
(0.984013 -0.252315 8.48804e-21)
(0.990525 -0.252961 0)
(0.997086 -0.253428 8.26559e-23)
(1.00369 -0.253712 0)
(1.01033 -0.253811 -5.23757e-21)
(1.017 -0.253721 -1.91554e-21)
(1.0237 -0.253442 1.13941e-20)
(1.0304 -0.252971 -5.25019e-21)
(1.03712 -0.252308 -5.6369e-21)
(1.04383 -0.251451 -7.14775e-21)
(1.05053 -0.250399 0)
(1.05722 -0.249152 0)
(1.06387 -0.247709 9.2465e-21)
(1.07049 -0.246073 1.01382e-20)
(1.07707 -0.244243 -2.36773e-20)
(1.08359 -0.242222 2.36654e-20)
(1.09005 -0.240011 2.64147e-20)
(1.09644 -0.237614 -2.90225e-20)
(1.10276 -0.235034 5.89557e-20)
(1.10899 -0.232275 8.07602e-22)
(1.11513 -0.229341 -3.35535e-20)
(1.12117 -0.226237 -1.81283e-20)
(1.12711 -0.222968 -3.78279e-20)
(1.13293 -0.219541 3.79701e-20)
(1.13864 -0.215961 4.13545e-20)
(1.14423 -0.212237 -4.15642e-20)
(1.14968 -0.208374 0)
(1.15501 -0.20438 0)
(1.1602 -0.200265 5.98909e-20)
(1.16526 -0.196037 1.2765e-21)
(1.17017 -0.191706 -2.54143e-20)
(1.17494 -0.187279 -2.70828e-20)
(1.17957 -0.182765 2.68994e-20)
(1.18406 -0.178173 0)
(1.18841 -0.173511 -1.36278e-20)
(1.19261 -0.168788 -2.12757e-20)
(1.19669 -0.164012 1.39476e-20)
(1.20062 -0.159193 -1.25677e-22)
(1.20443 -0.154336 -1.12525e-21)
(1.20812 -0.149451 5.29449e-21)
(1.21169 -0.144544 3.65239e-21)
(1.21514 -0.139622 7.2646e-21)
(1.2185 -0.13469 -3.59693e-20)
(1.22176 -0.129754 9.60421e-23)
(1.22493 -0.124819 0)
(1.22803 -0.119889 -2.94655e-20)
(1.23106 -0.114966 8.74721e-20)
(1.23404 -0.110054 -5.84004e-20)
(1.23699 -0.105154 -2.93251e-20)
(1.2399 -0.100267 -5.58607e-22)
(1.2428 -0.0953938 -2.92038e-20)
(1.2457 -0.0905344 -7.91116e-22)
(1.24861 -0.0856873 5.79763e-20)
(1.25155 -0.0808502 -5.90226e-20)
(1.25455 -0.0760208 -5.88546e-20)
(1.25762 -0.0711965 1.16938e-19)
(1.2608 -0.0663759 -1.28942e-22)
(1.26415 -0.0615576 5.89921e-20)
(1.26773 -0.0567443 -5.80518e-20)
(1.27162 -0.051932 5.80374e-20)
(1.27591 -0.047124 -1.15792e-19)
(1.28061 -0.0422895 -5.89302e-20)
(1.28568 -0.0374152 1.14119e-19)
(1.29091 -0.0324467 -5.9595e-20)
(1.29598 -0.0273398 -1.74801e-19)
(1.30046 -0.0220751 -5.80945e-20)
(1.30419 -0.0168046 0)
(0.969227 -0.262294 0)
(0.975988 -0.263278 -2.35395e-21)
(0.982796 -0.264074 -2.93096e-22)
(0.989655 -0.264685 0)
(0.996557 -0.265103 0)
(1.0035 -0.265326 1.83686e-21)
(1.01046 -0.265349 -9.10446e-21)
(1.01746 -0.265171 1.44452e-20)
(1.02447 -0.26479 -7.64284e-21)
(1.03149 -0.264206 5.31971e-21)
(1.03851 -0.263416 0)
(1.04553 -0.262419 7.24025e-21)
(1.05253 -0.261216 -8.90925e-21)
(1.05951 -0.259806 0)
(1.06645 -0.25819 0)
(1.07335 -0.256369 1.19121e-20)
(1.08019 -0.254345 1.90575e-21)
(1.08698 -0.252119 -2.56076e-20)
(1.09369 -0.249694 -2.84275e-20)
(1.10032 -0.247074 2.93554e-20)
(1.10687 -0.244263 1.56071e-20)
(1.11332 -0.241264 6.88868e-20)
(1.11967 -0.238084 9.47868e-22)
(1.1259 -0.234728 -2.01675e-20)
(1.13202 -0.231202 3.86038e-20)
(1.13801 -0.227513 -2.08905e-20)
(1.14386 -0.223669 4.22902e-20)
(1.14958 -0.219678 0)
(1.15516 -0.215548 0)
(1.16059 -0.211287 0)
(1.16588 -0.206905 -1.2351e-20)
(1.171 -0.202412 -2.59728e-20)
(1.17598 -0.197819 2.67947e-20)
(1.1808 -0.193134 2.84805e-20)
(1.18546 -0.188368 -2.8182e-20)
(1.18997 -0.183528 0)
(1.19432 -0.178627 1.46669e-20)
(1.19852 -0.173672 -7.29372e-21)
(1.20257 -0.168674 0)
(1.20648 -0.163642 7.39867e-21)
(1.21025 -0.158584 -1.39249e-21)
(1.21389 -0.153509 9.23811e-22)
(1.2174 -0.148425 -3.67857e-21)
(1.2208 -0.143338 0)
(1.22408 -0.138255 -1.51222e-20)
(1.22727 -0.133182 1.49261e-20)
(1.23037 -0.128123 0)
(1.2334 -0.123083 -6.07064e-22)
(1.23635 -0.118065 1.9444e-22)
(1.23926 -0.113072 2.97446e-20)
(1.24212 -0.108105 0)
(1.24496 -0.103167 -7.28735e-22)
(1.24779 -0.0982573 -2.97621e-20)
(1.25062 -0.0933762 -9.10223e-20)
(1.25347 -0.0885229 -1.04998e-21)
(1.25636 -0.0836958 5.95265e-20)
(1.25932 -0.0788941 0)
(1.26238 -0.0741174 0)
(1.26559 -0.069367 6.06219e-20)
(1.26902 -0.0646441 0)
(1.27274 -0.0599498 0)
(1.27683 -0.0552774 -1.4754e-23)
(1.28128 -0.0506184 -5.89842e-20)
(1.28607 -0.0459403 -1.19755e-19)
(1.29101 -0.0412124 1.17848e-19)
(1.29583 -0.036397 -1.66044e-21)
(1.30014 -0.0314515 5.74181e-20)
(1.30361 -0.0263982 5.88811e-20)
(1.30638 -0.0214675 0)
(0.96724 -0.274795 0)
(0.974384 -0.275763 2.38622e-21)
(0.981573 -0.276531 -2.54258e-21)
(0.98881 -0.2771 1.3769e-21)
(0.996087 -0.277464 0)
(1.0034 -0.277617 -7.12029e-21)
(1.01073 -0.277557 1.55275e-20)
(1.01808 -0.277281 2.14806e-21)
(1.02544 -0.27679 -2.6033e-20)
(1.0328 -0.276079 4.87431e-21)
(1.04016 -0.27515 -7.73603e-21)
(1.0475 -0.274001 -8.78446e-21)
(1.05482 -0.272631 2.88334e-20)
(1.0621 -0.271042 -4.15968e-20)
(1.06934 -0.269234 2.17833e-20)
(1.07653 -0.26721 -1.38327e-20)
(1.08366 -0.26497 5.35365e-20)
(1.09072 -0.262518 -1.28485e-20)
(1.0977 -0.259857 1.67818e-20)
(1.10458 -0.256991 -1.49513e-20)
(1.11136 -0.253925 1.88422e-21)
(1.11804 -0.250664 -1.09388e-19)
(1.1246 -0.247214 -2.04615e-20)
(1.13103 -0.243582 -1.78568e-21)
(1.13733 -0.239775 6.29167e-20)
(1.14348 -0.235801 -2.14356e-20)
(1.14949 -0.231669 4.67039e-20)
(1.15535 -0.227386 -7.14479e-20)
(1.16104 -0.222965 0)
(1.16658 -0.218413 -2.61449e-20)
(1.17195 -0.213742 2.63212e-20)
(1.17715 -0.208962 6.41649e-22)
(1.18217 -0.204085 -1.46552e-20)
(1.18703 -0.199121 -1.51255e-20)
(1.19172 -0.194082 4.54796e-20)
(1.19623 -0.188978 -2.98054e-20)
(1.20058 -0.183819 2.30741e-20)
(1.20476 -0.178617 -3.05391e-20)
(1.20878 -0.173382 1.52126e-20)
(1.21265 -0.168124 -3.78743e-21)
(1.21637 -0.162853 0)
(1.21995 -0.157577 3.90945e-21)
(1.22339 -0.152306 -3.85902e-21)
(1.22671 -0.147046 -7.84277e-21)
(1.22992 -0.141805 2.3439e-20)
(1.23302 -0.136588 -1.56369e-20)
(1.23603 -0.131401 -1.55011e-20)
(1.23897 -0.126248 0)
(1.24183 -0.121133 -6.29811e-20)
(1.24465 -0.116058 6.23126e-20)
(1.24742 -0.111027 -3.07271e-20)
(1.25017 -0.106038 3.03591e-20)
(1.25291 -0.101095 3.10576e-20)
(1.25566 -0.0961956 6.15123e-20)
(1.25844 -0.091341 6.12947e-20)
(1.26128 -0.0865311 0)
(1.26422 -0.0817673 -6.23768e-20)
(1.2673 -0.0770513 0)
(1.27059 -0.0723861 9.7773e-22)
(1.27415 -0.0677716 -6.07555e-20)
(1.27804 -0.0632038 6.06354e-20)
(1.28227 -0.0586696 6.02762e-20)
(1.28676 -0.0541469 -6.09225e-20)
(1.29141 -0.0496036 -9.64017e-22)
(1.29591 -0.0449987 -8.90725e-23)
(1.29997 -0.0403229 1.7997e-19)
(1.30326 -0.035544 6.03297e-20)
(1.30564 -0.0307583 6.14922e-20)
(1.30779 -0.0262237 -5.97624e-20)
(0.965206 -0.288067 0)
(0.972752 -0.289014 0)
(0.980345 -0.289747 -4.01754e-22)
(0.987987 -0.290267 2.40506e-22)
(0.995667 -0.290567 -1.81743e-21)
(1.00338 -0.290642 0)
(1.0111 -0.290488 0)
(1.01884 -0.290104 5.28095e-21)
(1.02659 -0.289489 -1.31645e-20)
(1.03432 -0.28864 -3.02791e-21)
(1.04204 -0.287556 4.06535e-20)
(1.04974 -0.286238 -8.58067e-21)
(1.0574 -0.284686 1.09605e-20)
(1.06503 -0.282899 -2.17497e-20)
(1.07259 -0.280881 1.3002e-20)
(1.08009 -0.278633 0)
(1.08752 -0.276156 0)
(1.09487 -0.273456 9.48284e-22)
(1.10212 -0.270535 -4.93288e-20)
(1.10927 -0.2674 1.70422e-20)
(1.1163 -0.264054 -1.92181e-20)
(1.12321 -0.260506 1.89989e-20)
(1.12998 -0.25676 2.08214e-20)
(1.13662 -0.252827 -1.992e-20)
(1.1431 -0.248712 -2.18855e-20)
(1.14943 -0.244426 0)
(1.15559 -0.239978 0)
(1.16158 -0.235379 3.7779e-20)
(1.1674 -0.23064 0)
(1.17303 -0.225771 2.76756e-20)
(1.17848 -0.220784 -2.78551e-20)
(1.18374 -0.215692 -1.42771e-20)
(1.18882 -0.210508 1.47621e-20)
(1.1937 -0.205242 3.10555e-20)
(1.1984 -0.199908 -1.53224e-20)
(1.20291 -0.194518 -1.5921e-20)
(1.20724 -0.189082 1.60417e-20)
(1.21139 -0.183614 0)
(1.21537 -0.178125 0)
(1.21918 -0.172626 4.09824e-21)
(1.22283 -0.167128 0)
(1.22633 -0.16164 0)
(1.22969 -0.156171 -1.2255e-20)
(1.23291 -0.150729 1.62668e-20)
(1.23602 -0.145322 -8.22417e-21)
(1.23902 -0.139957 1.59419e-20)
(1.24193 -0.134637 0)
(1.24475 -0.129369 4.88619e-20)
(1.24751 -0.124155 -2.43373e-22)
(1.25021 -0.118999 0)
(1.25288 -0.113902 -6.42904e-20)
(1.25553 -0.108865 -2.20221e-22)
(1.25818 -0.103891 -6.34603e-20)
(1.26085 -0.0989789 -3.22842e-20)
(1.26357 -0.0941313 -6.40395e-20)
(1.26639 -0.08935 6.31365e-20)
(1.26934 -0.0846382 6.26706e-20)
(1.2725 -0.0799981 0)
(1.27591 -0.0754303 -6.31586e-20)
(1.2796 -0.0709294 1.32723e-22)
(1.28359 -0.0664834 0)
(1.28781 -0.0620703 0)
(1.29212 -0.0576607 6.0901e-20)
(1.29629 -0.0532243 0)
(1.30002 -0.0487265 0)
(1.30303 -0.0441838 -6.05715e-20)
(1.30517 -0.0395993 -5.99559e-20)
(1.30666 -0.0351813 -6.2612e-20)
(1.30884 -0.0310313 0)
(0.963154 -0.302181 0)
(0.971126 -0.3031 0)
(0.979145 -0.30379 0)
(0.987213 -0.304251 -1.22423e-21)
(0.99532 -0.304476 -3.62715e-21)
(1.00345 -0.304461 -2.43042e-21)
(1.0116 -0.304202 7.82336e-21)
(1.01976 -0.303697 -5.33659e-21)
(1.02791 -0.302943 7.32273e-21)
(1.03605 -0.301941 1.61251e-20)
(1.04417 -0.300687 0)
(1.05226 -0.299184 0)
(1.0603 -0.29743 -1.07056e-21)
(1.06828 -0.295427 3.70747e-20)
(1.0762 -0.293176 -5.57967e-20)
(1.08404 -0.290682 -2.21842e-21)
(1.0918 -0.287946 3.05349e-20)
(1.09946 -0.284974 1.63117e-20)
(1.107 -0.281769 -1.26075e-21)
(1.11443 -0.278337 0)
(1.12172 -0.274686 4.0112e-20)
(1.12888 -0.270821 0)
(1.13589 -0.266752 4.41745e-20)
(1.14273 -0.262487 -6.94146e-20)
(1.14941 -0.258035 7.19265e-20)
(1.15591 -0.253407 2.57844e-20)
(1.16222 -0.248614 -3.98168e-20)
(1.16835 -0.243668 4.07928e-20)
(1.17428 -0.238581 -2.75239e-20)
(1.18001 -0.233365 0)
(1.18553 -0.228034 -3.02601e-20)
(1.19085 -0.222602 -1.65712e-20)
(1.19596 -0.217083 3.14599e-20)
(1.20087 -0.21149 -3.25632e-20)
(1.20556 -0.205836 1.65505e-20)
(1.21006 -0.200136 -1.63414e-20)
(1.21435 -0.194402 -8.12861e-21)
(1.21845 -0.188648 8.50899e-21)
(1.22237 -0.182887 4.15738e-21)
(1.2261 -0.17713 -1.24327e-20)
(1.22966 -0.171389 -1.06955e-21)
(1.23306 -0.165675 0)
(1.23631 -0.159998 4.13347e-21)
(1.23943 -0.154365 -8.26905e-21)
(1.24241 -0.148785 8.26631e-21)
(1.24529 -0.143265 0)
(1.24807 -0.137809 0)
(1.25077 -0.132422 1.7104e-20)
(1.2534 -0.127109 -3.31536e-20)
(1.25598 -0.121871 -6.70815e-20)
(1.25853 -0.116711 1.32556e-19)
(1.26107 -0.111631 -3.34185e-20)
(1.26363 -0.106632 3.2749e-20)
(1.26624 -0.101717 3.24327e-20)
(1.26894 -0.0968897 -6.56427e-20)
(1.27178 -0.0921523 6.46574e-20)
(1.2748 -0.0875071 0)
(1.27806 -0.0829531 -6.48712e-20)
(1.28157 -0.0784844 1.82173e-22)
(1.28532 -0.0740878 6.30188e-20)
(1.28924 -0.0697429 0)
(1.29319 -0.0654225 0)
(1.29699 -0.0610976 0)
(1.30034 -0.0567424 1.24828e-19)
(1.30299 -0.0523476 6.33778e-20)
(1.3048 -0.047958 6.29447e-20)
(1.30595 -0.0436278 -1.24534e-19)
(1.30716 -0.0396502 -6.02144e-22)
(1.31022 -0.035822 6.40543e-20)
(0.961103 -0.317217 0)
(0.969529 -0.318099 8.10153e-22)
(0.978 -0.318734 -5.10974e-22)
(0.986521 -0.319124 -4.1048e-21)
(0.99508 -0.319263 7.58815e-21)
(1.00366 -0.319144 4.53125e-21)
(1.01226 -0.318764 5.81951e-21)
(1.02086 -0.31812 0)
(1.02945 -0.317212 -1.57493e-20)
(1.03802 -0.316037 -1.83438e-20)
(1.04657 -0.314594 1.92781e-20)
(1.05507 -0.312884 -1.20522e-20)
(1.06351 -0.310908 1.43752e-20)
(1.07189 -0.308666 -1.08485e-20)
(1.08019 -0.306161 -6.1037e-20)
(1.0884 -0.303397 -2.32124e-21)
(1.0965 -0.300377 -2.28263e-21)
(1.10449 -0.297105 3.55111e-20)
(1.11236 -0.293588 1.87621e-20)
(1.12009 -0.289833 4.20571e-20)
(1.12766 -0.285846 -4.05945e-20)
(1.13508 -0.281635 0)
(1.14233 -0.277211 1.51947e-21)
(1.1494 -0.272583 0)
(1.15628 -0.267761 -2.49635e-20)
(1.16296 -0.262759 -2.59591e-20)
(1.16943 -0.257588 1.34732e-20)
(1.17569 -0.252261 0)
(1.18174 -0.246793 1.52607e-20)
(1.18756 -0.241198 3.10339e-20)
(1.19315 -0.235492 -3.12183e-20)
(1.19852 -0.229688 1.59063e-20)
(1.20366 -0.223804 -3.39099e-20)
(1.20856 -0.217854 6.76408e-20)
(1.21325 -0.211853 -1.70047e-20)
(1.21771 -0.205817 0)
(1.22195 -0.199761 -8.86643e-21)
(1.22598 -0.193698 3.6258e-22)
(1.22981 -0.187644 1.30577e-20)
(1.23345 -0.181611 -1.08719e-20)
(1.2369 -0.175613 2.1299e-21)
(1.24018 -0.169659 -6.62035e-21)
(1.2433 -0.163761 4.34104e-21)
(1.24627 -0.157928 0)
(1.24912 -0.152168 0)
(1.25185 -0.146487 0)
(1.25448 -0.140892 1.75785e-20)
(1.25703 -0.135385 1.75108e-20)
(1.25953 -0.129973 0)
(1.26198 -0.124656 3.41246e-20)
(1.26441 -0.119439 3.48075e-20)
(1.26686 -0.114323 3.43626e-20)
(1.26937 -0.109313 0)
(1.27196 -0.10441 0)
(1.27468 -0.0996183 -6.70693e-20)
(1.27758 -0.0949377 6.59865e-20)
(1.28068 -0.0903655 0)
(1.28399 -0.0858937 6.46973e-20)
(1.28748 -0.0815088 -6.41844e-20)
(1.29108 -0.0771908 -6.47304e-20)
(1.29466 -0.0729152 6.40995e-20)
(1.29802 -0.0686563 -6.29315e-20)
(1.30094 -0.0643905 0)
(1.30317 -0.0601104 -6.25907e-20)
(1.30459 -0.0558381 8.65642e-22)
(1.30533 -0.0516572 -1.27069e-19)
(1.30604 -0.0476784 -1.29723e-19)
(1.30794 -0.0441707 1.30496e-19)
(1.31246 -0.040636 -6.56312e-20)
(0.95908 -0.333262 7.51732e-22)
(0.967988 -0.334098 0)
(0.976943 -0.334669 -2.96676e-22)
(0.985946 -0.334977 6.93024e-21)
(0.994985 -0.335016 -1.57995e-20)
(1.00405 -0.334778 4.04701e-21)
(1.01312 -0.33426 -5.87398e-21)
(1.02219 -0.33346 1.66156e-20)
(1.03125 -0.332377 -8.10263e-21)
(1.04028 -0.331008 -9.68958e-21)
(1.04927 -0.329353 -1.21402e-20)
(1.05821 -0.327413 3.89235e-20)
(1.06709 -0.325189 -1.19907e-20)
(1.07588 -0.322683 4.75599e-20)
(1.08459 -0.319896 1.82165e-20)
(1.09319 -0.316834 2.42806e-21)
(1.10167 -0.3135 -3.63025e-20)
(1.11002 -0.309899 0)
(1.11823 -0.306038 0)
(1.12628 -0.301926 -2.3002e-20)
(1.13416 -0.297569 -2.24901e-20)
(1.14186 -0.292978 -4.97087e-20)
(1.14936 -0.288163 2.51386e-20)
(1.15667 -0.283136 5.38815e-20)
(1.16375 -0.277909 -5.3985e-20)
(1.17062 -0.272495 1.47148e-20)
(1.17726 -0.266908 1.52224e-20)
(1.18366 -0.261165 0)
(1.18982 -0.25528 -1.53326e-20)
(1.19572 -0.24927 -3.28691e-20)
(1.20138 -0.243151 -7.69044e-22)
(1.20679 -0.236942 3.40392e-20)
(1.21194 -0.23066 -1.81589e-20)
(1.21684 -0.224321 0)
(1.22149 -0.217943 9.21305e-21)
(1.2259 -0.211542 -9.24729e-21)
(1.23007 -0.205137 8.8708e-21)
(1.23401 -0.198741 -1.81818e-20)
(1.23774 -0.192372 0)
(1.24125 -0.186044 -2.32131e-21)
(1.24457 -0.17977 2.27487e-21)
(1.2477 -0.173563 -3.49011e-21)
(1.25067 -0.167433 1.36147e-20)
(1.25348 -0.16139 -2.71571e-20)
(1.25617 -0.155443 1.79402e-20)
(1.25873 -0.149597 1.80296e-20)
(1.26121 -0.14386 -1.72687e-20)
(1.26361 -0.138236 3.62469e-20)
(1.26596 -0.132728 -3.52737e-20)
(1.2683 -0.127341 -8.79722e-20)
(1.27065 -0.122079 2.93971e-22)
(1.27304 -0.116943 -3.43737e-20)
(1.27553 -0.111936 0)
(1.27814 -0.10706 0)
(1.2809 -0.102313 -6.82525e-20)
(1.28383 -0.0976891 1.00714e-19)
(1.28692 -0.0931783 -6.64366e-20)
(1.29013 -0.0887658 0)
(1.29337 -0.0844331 6.60394e-20)
(1.29651 -0.0801582 1.29708e-19)
(1.29939 -0.0759188 -6.4025e-20)
(1.30181 -0.0716962 -7.55625e-22)
(1.30356 -0.0674838 6.36678e-20)
(1.30452 -0.0633029 6.42298e-23)
(1.30484 -0.0592206 -1.29166e-19)
(1.30508 -0.0553586 1.29728e-19)
(1.30636 -0.0518523 6.60729e-20)
(1.30996 -0.0487431 0)
(1.31534 -0.0452842 0)
(0.957109 -0.350412 -7.57087e-22)
(0.966537 -0.351194 2.35391e-21)
(0.976009 -0.35169 -1.98772e-21)
(0.985529 -0.351905 0)
(0.995084 -0.351829 -2.07576e-21)
(1.00466 -0.351457 -1.34885e-20)
(1.01424 -0.350784 9.39309e-21)
(1.02381 -0.349809 -2.37632e-20)
(1.03336 -0.34853 1.89409e-20)
(1.04288 -0.346946 0)
(1.05236 -0.345056 5.42675e-21)
(1.06177 -0.342861 0)
(1.0711 -0.340362 1.74739e-20)
(1.08035 -0.337561 -4.81743e-20)
(1.08949 -0.334462 0)
(1.0985 -0.331069 0)
(1.10738 -0.327387 0)
(1.11612 -0.323422 -3.31888e-20)
(1.12469 -0.319181 4.44023e-20)
(1.13308 -0.314673 2.31254e-20)
(1.14128 -0.309908 0)
(1.14927 -0.304896 0)
(1.15705 -0.29965 0)
(1.1646 -0.294183 -7.23946e-20)
(1.17191 -0.288508 8.77043e-20)
(1.17897 -0.282641 -4.47315e-20)
(1.18578 -0.276598 -3.15199e-20)
(1.19232 -0.270395 3.28882e-20)
(1.19858 -0.264052 -3.30203e-20)
(1.20458 -0.257585 1.77251e-20)
(1.21029 -0.251015 -3.57551e-20)
(1.21573 -0.244361 1.72889e-20)
(1.22088 -0.237643 3.72858e-20)
(1.22576 -0.230879 1.92319e-20)
(1.23036 -0.224089 -9.19576e-21)
(1.2347 -0.217293 9.23308e-21)
(1.23878 -0.210508 0)
(1.24261 -0.203753 -4.14439e-22)
(1.2462 -0.197046 4.76259e-21)
(1.24957 -0.190401 2.98008e-23)
(1.25273 -0.183833 -2.36411e-21)
(1.25569 -0.177357 5.88929e-21)
(1.25848 -0.170983 -9.4609e-21)
(1.26112 -0.164722 -4.76179e-21)
(1.26363 -0.158582 9.47247e-21)
(1.26603 -0.152572 0)
(1.26834 -0.146696 -3.68622e-20)
(1.2706 -0.14096 -5.47823e-20)
(1.27284 -0.13537 -2.38251e-22)
(1.27509 -0.129927 5.37871e-20)
(1.27739 -0.124634 0)
(1.27977 -0.119493 0)
(1.28225 -0.1145 -3.55671e-20)
(1.28486 -0.109652 7.01329e-20)
(1.28759 -0.10494 4.83023e-22)
(1.29041 -0.100352 -3.468e-20)
(1.29328 -0.095871 1.34936e-19)
(1.2961 -0.0914808 -6.65094e-20)
(1.29876 -0.0871622 -6.56461e-20)
(1.3011 -0.0828963 -1.32216e-19)
(1.30295 -0.0786689 2.32055e-23)
(1.30413 -0.0744777 7.00548e-22)
(1.30457 -0.0703458 7.5129e-22)
(1.30441 -0.0663388 1.31275e-19)
(1.30418 -0.0625769 -6.56852e-20)
(1.30494 -0.0591971 -6.67949e-20)
(1.308 -0.0562622 6.88685e-20)
(1.31354 -0.0533497 7.06333e-20)
(1.3165 -0.0494503 0)
(0.955206 -0.368775 -7.05518e-22)
(0.965196 -0.369493 -4.72652e-22)
(0.975229 -0.369905 0)
(0.985307 -0.370012 -2.39923e-21)
(0.995417 -0.369808 0)
(1.00554 -0.369284 1.1989e-20)
(1.01567 -0.368438 -7.1034e-21)
(1.02578 -0.367268 2.10694e-20)
(1.03587 -0.365771 -2.16443e-20)
(1.04591 -0.363947 -6.8954e-21)
(1.0559 -0.361796 3.7018e-20)
(1.06581 -0.359317 -3.00635e-20)
(1.07564 -0.356512 0)
(1.08536 -0.353385 -3.82182e-20)
(1.09496 -0.349939 7.89014e-20)
(1.10442 -0.346179 -4.0691e-20)
(1.11373 -0.342111 0)
(1.12287 -0.337742 -5.95647e-20)
(1.13183 -0.333081 8.59461e-20)
(1.14058 -0.328136 -5.05871e-20)
(1.14912 -0.32292 0)
(1.15743 -0.317444 0)
(1.16549 -0.311721 0)
(1.1733 -0.305768 1.47117e-20)
(1.18085 -0.299598 3.19484e-20)
(1.18811 -0.293231 -3.20109e-20)
(1.19509 -0.286683 1.62646e-20)
(1.20177 -0.279974 0)
(1.20815 -0.273124 3.59039e-20)
(1.21422 -0.266155 -5.37924e-20)
(1.21998 -0.259088 0)
(1.22543 -0.251945 3.84045e-20)
(1.23058 -0.244747 -1.90419e-20)
(1.23542 -0.237518 -1.91457e-20)
(1.23996 -0.230278 1.01032e-20)
(1.2442 -0.223049 0)
(1.24816 -0.215853 0)
(1.25186 -0.208709 9.65887e-21)
(1.25529 -0.201635 0)
(1.25849 -0.194651 -4.9213e-21)
(1.26147 -0.187772 1.20179e-21)
(1.26425 -0.181012 4.89794e-21)
(1.26685 -0.174385 -6.8361e-23)
(1.2693 -0.167901 9.66535e-21)
(1.27163 -0.161569 1.9573e-20)
(1.27387 -0.155398 9.79582e-21)
(1.27605 -0.149394 -1.94396e-20)
(1.2782 -0.143561 -1.90365e-20)
(1.28035 -0.137901 -3.72675e-20)
(1.28254 -0.132415 3.67144e-20)
(1.28479 -0.127102 0)
(1.28712 -0.121955 -3.64734e-20)
(1.28952 -0.116966 -4.97639e-22)
(1.29199 -0.112125 2.70215e-22)
(1.29448 -0.107416 -6.96246e-20)
(1.29694 -0.102825 0)