/*--------------------------------*- C++ -*----------------------------------*\
| =========                 |                                                 |
| \\      /  F ield         | OpenFOAM: The Open Source CFD Toolbox           |
|  \\    /   O peration     | Version:  2312                                  |
|   \\  /    A nd           | Website:  www.openfoam.com                      |
|    \\/     M anipulation  |                                                 |
\*---------------------------------------------------------------------------*/
FoamFile
{
    version     2.0;
    format      ascii;
    arch        "LSB;label=32;scalar=64";
    class       volScalarField;
    location    "500";
    object      nut;
}
// * * * * * * * * * * * * * * * * * * * * * * * * * * * * * * * * * * * * * //

dimensions      [0 2 -1 0 0 0 0];

internalField   nonuniform List<scalar> 
76025
(
6.09266e-06
6.0893e-06
6.08916e-06
6.09347e-06
6.09866e-06
6.10458e-06
6.10931e-06
6.11325e-06
6.1171e-06
6.12012e-06
6.12268e-06
6.12443e-06
6.12388e-06
6.12223e-06
6.12094e-06
6.11895e-06
6.11861e-06
6.1186e-06
6.12006e-06
6.12091e-06
6.122e-06
6.12059e-06
6.12095e-06
6.123e-06
6.12592e-06
6.12987e-06
6.13563e-06
6.14079e-06
6.14801e-06
6.15666e-06
6.16992e-06
6.18194e-06
6.19441e-06
6.20727e-06
6.22012e-06
6.23173e-06
6.2426e-06
6.25317e-06
6.26184e-06
6.26665e-06
6.26744e-06
6.26415e-06
6.25557e-06
6.24489e-06
6.23414e-06
6.22509e-06
6.21379e-06
6.20804e-06
6.21633e-06
6.23538e-06
6.25898e-06
6.28168e-06
6.298e-06
6.30414e-06
6.29826e-06
6.28533e-06
6.26641e-06
6.24571e-06
6.22421e-06
6.20251e-06
6.18453e-06
6.15107e-06
6.02554e-06
5.89732e-06
6.21962e-06
6.45514e-06
4.42408e-06
2.56992e-06
1.69377e-05
6.09359e-06
6.08672e-06
6.08079e-06
6.07755e-06
6.07748e-06
6.07989e-06
6.08342e-06
6.08843e-06
6.09628e-06
6.10402e-06
6.11076e-06
6.11683e-06
6.12184e-06
6.12516e-06
6.12696e-06
6.12737e-06
6.12721e-06
6.12639e-06
6.12582e-06
6.12542e-06
6.12401e-06
6.1203e-06
6.11641e-06
6.1129e-06
6.10972e-06
6.1071e-06
6.10544e-06
6.10482e-06
6.10557e-06
6.10751e-06
6.10997e-06
6.11219e-06
6.11527e-06
6.11979e-06
6.12577e-06
6.12954e-06
6.13239e-06
6.13355e-06
6.13214e-06
6.12953e-06
6.12696e-06
6.12505e-06
6.1244e-06
6.12873e-06
6.14332e-06
6.16164e-06
6.18279e-06
6.20606e-06
6.22985e-06
6.25181e-06
6.26903e-06
6.27853e-06
6.27822e-06
6.26796e-06
6.25003e-06
6.2279e-06
6.20503e-06
6.18244e-06
6.15999e-06
6.14035e-06
6.11955e-06
6.05548e-06
5.89389e-06
5.84478e-06
6.28843e-06
6.29538e-06
3.78113e-06
2.19857e-06
1.7495e-05
6.08113e-06
6.0804e-06
6.0774e-06
6.07273e-06
6.0681e-06
6.06452e-06
6.06266e-06
6.06338e-06
6.0668e-06
6.07187e-06
6.07817e-06
6.08568e-06
6.0954e-06
6.10478e-06
6.11256e-06
6.1186e-06
6.123e-06
6.12594e-06
6.12775e-06
6.12891e-06
6.12947e-06
6.12894e-06
6.12716e-06
6.12384e-06
6.11909e-06
6.11435e-06
6.10944e-06
6.10478e-06
6.10066e-06
6.09721e-06
6.09425e-06
6.09168e-06
6.08981e-06
6.08873e-06
6.0882e-06
6.0879e-06
6.08808e-06
6.08894e-06
6.0907e-06
6.09508e-06
6.10314e-06
6.11769e-06
6.13408e-06
6.15159e-06
6.17026e-06
6.18965e-06
6.20895e-06
6.22687e-06
6.24153e-06
6.25066e-06
6.25211e-06
6.2447e-06
6.22889e-06
6.20708e-06
6.1829e-06
6.15949e-06
6.13759e-06
6.11568e-06
6.09356e-06
6.07261e-06
6.0376e-06
5.93222e-06
5.75737e-06
5.8317e-06
6.34008e-06
5.97493e-06
3.23933e-06
2.09087e-06
1.73527e-05
6.05406e-06
6.05884e-06
6.06174e-06
6.06246e-06
6.06125e-06
6.05847e-06
6.05471e-06
6.05088e-06
6.04826e-06
6.04762e-06
6.04926e-06
6.05301e-06
6.05871e-06
6.06583e-06
6.07418e-06
6.08419e-06
6.09442e-06
6.10331e-06
6.11059e-06
6.11644e-06
6.12114e-06
6.12488e-06
6.12767e-06
6.12948e-06
6.1303e-06
6.13019e-06
6.1292e-06
6.12744e-06
6.125e-06
6.12193e-06
6.11814e-06
6.11431e-06
6.1112e-06
6.10871e-06
6.10725e-06
6.10907e-06
6.11495e-06
6.1222e-06
6.13046e-06
6.13963e-06
6.14976e-06
6.16094e-06
6.17296e-06
6.18551e-06
6.19806e-06
6.20976e-06
6.2193e-06
6.225e-06
6.22505e-06
6.21801e-06
6.20343e-06
6.1824e-06
6.15749e-06
6.13202e-06
6.10864e-06
6.08771e-06
6.06701e-06
6.04434e-06
6.02098e-06
5.99436e-06
5.9326e-06
5.78134e-06
5.63747e-06
5.86228e-06
6.34119e-06
5.46326e-06
2.67679e-06
2.0319e-06
1.74751e-05
6.02385e-06
6.02749e-06
6.032e-06
6.03661e-06
6.04053e-06
6.04285e-06
6.04319e-06
6.04184e-06
6.03946e-06
6.03674e-06
6.03441e-06
6.03315e-06
6.03346e-06
6.03555e-06
6.03954e-06
6.0453e-06
6.05234e-06
6.06039e-06
6.06899e-06
6.07822e-06
6.08758e-06
6.09617e-06
6.10374e-06
6.11029e-06
6.11589e-06
6.12065e-06
6.12462e-06
6.12785e-06
6.13043e-06
6.13243e-06
6.13392e-06
6.13517e-06
6.1363e-06
6.13699e-06
6.13829e-06
6.14118e-06
6.14512e-06
6.1498e-06
6.15514e-06
6.16108e-06
6.1675e-06
6.17423e-06
6.18092e-06
6.18698e-06
6.19147e-06
6.19312e-06
6.1905e-06
6.18231e-06
6.16783e-06
6.14741e-06
6.12265e-06
6.09621e-06
6.07098e-06
6.04895e-06
6.02993e-06
6.01128e-06
5.98968e-06
5.96473e-06
5.93811e-06
5.89645e-06
5.79241e-06
5.61348e-06
5.57207e-06
5.93132e-06
6.21687e-06
4.73774e-06
2.16267e-06
2.10121e-06
1.81471e-05
6.00004e-06
5.9989e-06
5.99993e-06
6.00277e-06
6.00685e-06
6.0113e-06
6.01544e-06
6.01881e-06
6.02094e-06
6.02152e-06
6.02088e-06
6.01968e-06
6.01855e-06
6.01791e-06
6.01815e-06
6.01956e-06
6.02226e-06
6.02629e-06
6.03144e-06
6.03746e-06
6.04431e-06
6.05174e-06
6.05927e-06
6.06662e-06
6.07388e-06
6.08122e-06
6.08838e-06
6.09507e-06
6.10113e-06
6.10645e-06
6.11103e-06
6.11506e-06
6.1183e-06
6.11995e-06
6.12224e-06
6.12585e-06
6.12984e-06
6.13389e-06
6.13794e-06
6.14185e-06
6.14538e-06
6.14808e-06
6.14924e-06
6.14791e-06
6.14299e-06
6.13343e-06
6.1186e-06
6.09862e-06
6.07456e-06
6.04845e-06
6.02281e-06
5.99995e-06
5.98099e-06
5.96503e-06
5.94903e-06
5.92918e-06
5.90385e-06
5.87506e-06
5.83964e-06
5.7677e-06
5.61525e-06
5.45408e-06
5.56079e-06
5.99289e-06
5.8849e-06
3.84086e-06
1.75691e-06
2.3666e-06
1.94729e-05
5.9823e-06
5.97749e-06
5.9741e-06
5.97244e-06
5.97263e-06
5.97447e-06
5.97755e-06
5.98143e-06
5.98552e-06
5.98913e-06
5.99195e-06
5.99403e-06
5.99549e-06
5.99642e-06
5.99701e-06
5.99764e-06
5.99864e-06
6.00026e-06
6.00264e-06
6.00581e-06
6.00975e-06
6.01436e-06
6.0194e-06
6.02467e-06
6.03016e-06
6.03583e-06
6.04151e-06
6.047e-06
6.0521e-06
6.05665e-06
6.06056e-06
6.06388e-06
6.0662e-06
6.06713e-06
6.06755e-06
6.0713e-06
6.07569e-06
6.07964e-06
6.08273e-06
6.08453e-06
6.08448e-06
6.08183e-06
6.07576e-06
6.06551e-06
6.05065e-06
6.03136e-06
6.00856e-06
5.98393e-06
5.9596e-06
5.93771e-06
5.91966e-06
5.90554e-06
5.89361e-06
5.8805e-06
5.86232e-06
5.83697e-06
5.80601e-06
5.77041e-06
5.71445e-06
5.59687e-06
5.41976e-06
5.35438e-06
5.60947e-06
5.95433e-06
5.21152e-06
2.89032e-06
1.51297e-06
2.99139e-06
2.18181e-05
5.9644e-06
5.95927e-06
5.95409e-06
5.94936e-06
5.94558e-06
5.94312e-06
5.9421e-06
5.9425e-06
5.94414e-06
5.94664e-06
5.94956e-06
5.95262e-06
5.95562e-06
5.95832e-06
5.96061e-06
5.96258e-06
5.96442e-06
5.96634e-06
5.96845e-06
5.97071e-06
5.97312e-06
5.97576e-06
5.97865e-06
5.98177e-06
5.98512e-06
5.98863e-06
5.99217e-06
5.99556e-06
5.99863e-06
6.00116e-06
6.00309e-06
6.0044e-06
6.00439e-06
6.00238e-06
5.99982e-06
5.99768e-06
5.99597e-06
5.9952e-06
5.99381e-06
5.9904e-06
5.98398e-06
5.97389e-06
5.95978e-06
5.94186e-06
5.92108e-06
5.89906e-06
5.87777e-06
5.85903e-06
5.84406e-06
5.83308e-06
5.82501e-06
5.81737e-06
5.80663e-06
5.78921e-06
5.76321e-06
5.73001e-06
5.692e-06
5.64166e-06
5.54807e-06
5.38538e-06
5.24277e-06
5.31603e-06
5.66559e-06
5.69321e-06
4.19083e-06
2.07278e-06
1.50006e-06
4.29073e-06
2.56528e-05
5.94082e-06
5.93744e-06
5.93339e-06
5.92877e-06
5.92387e-06
5.9191e-06
5.91482e-06
5.91136e-06
5.90893e-06
5.90759e-06
5.90721e-06
5.90764e-06
5.90872e-06
5.91024e-06
5.91198e-06
5.91376e-06
5.91555e-06
5.91737e-06
5.91921e-06
5.92098e-06
5.92264e-06
5.92424e-06
5.92582e-06
5.92739e-06
5.92894e-06
5.93041e-06
5.93167e-06
5.93259e-06
5.933e-06
5.93272e-06
5.93173e-06
5.92998e-06
5.92699e-06
5.92222e-06
5.91588e-06
5.90848e-06
5.9e-06
5.89044e-06
5.87958e-06
5.86683e-06
5.85181e-06
5.83453e-06
5.81552e-06
5.79615e-06
5.77842e-06
5.76416e-06
5.75445e-06
5.74877e-06
5.74575e-06
5.74331e-06
5.73858e-06
5.72832e-06
5.70969e-06
5.68154e-06
5.6454e-06
5.60415e-06
5.5543e-06
5.4741e-06
5.33234e-06
5.15877e-06
5.11665e-06
5.33243e-06
5.60777e-06
4.98811e-06
3.00116e-06
1.54113e-06
1.84851e-06
6.78524e-06
3.15503e-05
5.91054e-06
5.90839e-06
5.90602e-06
5.90319e-06
5.89974e-06
5.89568e-06
5.89117e-06
5.88645e-06
5.88182e-06
5.87753e-06
5.87376e-06
5.8706e-06
5.86809e-06
5.86623e-06
5.86493e-06
5.86405e-06
5.86348e-06
5.86316e-06
5.86304e-06
5.86303e-06
5.86301e-06
5.86291e-06
5.86268e-06
5.86231e-06
5.86174e-06
5.86093e-06
5.85976e-06
5.85812e-06
5.85588e-06
5.8529e-06
5.84911e-06
5.84442e-06
5.83869e-06
5.83177e-06
5.8236e-06
5.81403e-06
5.80276e-06
5.78969e-06
5.77472e-06
5.75792e-06
5.73993e-06
5.72137e-06
5.70329e-06
5.68783e-06
5.67584e-06
5.66744e-06
5.66566e-06
5.66605e-06
5.66475e-06
5.65871e-06
5.64518e-06
5.6223e-06
5.58994e-06
5.54998e-06
5.50514e-06
5.45348e-06
5.37947e-06
5.25431e-06
5.08181e-06
4.97482e-06
5.06153e-06
5.335e-06
5.23934e-06
3.83479e-06
1.99187e-06
1.39068e-06
2.90811e-06
1.13311e-05
4.03195e-05
5.8756e-06
5.87313e-06
5.87104e-06
5.86912e-06
5.86711e-06
5.86477e-06
5.86193e-06
5.85853e-06
5.8546e-06
5.85026e-06
5.84566e-06
5.84096e-06
5.83631e-06
5.83184e-06
5.82764e-06
5.82372e-06
5.82007e-06
5.81669e-06
5.81354e-06
5.81059e-06
5.80776e-06
5.80497e-06
5.80211e-06
5.79914e-06
5.79598e-06
5.79257e-06
5.78884e-06
5.78471e-06
5.78005e-06
5.77476e-06
5.76875e-06
5.76198e-06
5.75436e-06
5.74584e-06
5.7363e-06
5.72564e-06
5.71369e-06
5.70039e-06
5.68579e-06
5.6701e-06
5.6541e-06
5.63838e-06
5.62394e-06
5.61227e-06
5.60295e-06
5.5958e-06
5.59199e-06
5.58551e-06
5.57302e-06
5.55237e-06
5.52262e-06
5.4846e-06
5.44058e-06
5.3926e-06
5.33851e-06
5.26623e-06
5.15242e-06
4.98978e-06
4.85535e-06
4.848e-06
5.03967e-06
5.15705e-06
4.33823e-06
2.55972e-06
1.4219e-06
1.76147e-06
5.46439e-06
1.89047e-05
5.16627e-05
5.83707e-06
5.83358e-06
5.83054e-06
5.82796e-06
5.82578e-06
5.82386e-06
5.82201e-06
5.82002e-06
5.81769e-06
5.81492e-06
5.81166e-06
5.80792e-06
5.80374e-06
5.7992e-06
5.79439e-06
5.7894e-06
5.78428e-06
5.77909e-06
5.77388e-06
5.76866e-06
5.76344e-06
5.7582e-06
5.75289e-06
5.74746e-06
5.74188e-06
5.73609e-06
5.73004e-06
5.72367e-06
5.71689e-06
5.70962e-06
5.70183e-06
5.69348e-06
5.68445e-06
5.67462e-06
5.66396e-06
5.65244e-06
5.63997e-06
5.62659e-06
5.61223e-06
5.59729e-06
5.58219e-06
5.56679e-06
5.55222e-06
5.53847e-06
5.52384e-06
5.50949e-06
5.49333e-06
5.47138e-06
5.44179e-06
5.40452e-06
5.36113e-06
5.31412e-06
5.26444e-06
5.20865e-06
5.13526e-06
5.027e-06
4.8757e-06
4.73655e-06
4.67181e-06
4.76659e-06
4.92295e-06
4.50776e-06
3.04818e-06
1.64271e-06
1.3911e-06
3.16867e-06
1.08332e-05
3.00735e-05
6.46398e-05
5.79343e-06
5.78921e-06
5.78518e-06
5.78143e-06
5.77805e-06
5.77511e-06
5.77256e-06
5.77033e-06
5.76827e-06
5.7662e-06
5.764e-06
5.76153e-06
5.7587e-06
5.75545e-06
5.75174e-06
5.74758e-06
5.74301e-06
5.73805e-06
5.73273e-06
5.72709e-06
5.72115e-06
5.71494e-06
5.70845e-06
5.7017e-06
5.69466e-06
5.68731e-06
5.67964e-06
5.67159e-06
5.66309e-06
5.65413e-06
5.6447e-06
5.63471e-06
5.62395e-06
5.61239e-06
5.59996e-06
5.58658e-06
5.57224e-06
5.55671e-06
5.5399e-06
5.52208e-06
5.50291e-06
5.4823e-06
5.46061e-06
5.43712e-06
5.41058e-06
5.3807e-06
5.34757e-06
5.30907e-06
5.26495e-06
5.21786e-06
5.16994e-06
5.1204e-06
5.06367e-06
4.98754e-06
4.88013e-06
4.73747e-06
4.60345e-06
4.50975e-06
4.52358e-06
4.63733e-06
4.43964e-06
3.35056e-06
1.92081e-06
1.31508e-06
2.14926e-06
6.79658e-06
2.04035e-05
4.46046e-05
7.85785e-05
5.74189e-06
5.7374e-06
5.73288e-06
5.72837e-06
5.72394e-06
5.7197e-06
5.71574e-06
5.71211e-06
5.7088e-06
5.70578e-06
5.70294e-06
5.7002e-06
5.69745e-06
5.69455e-06
5.69142e-06
5.68797e-06
5.68415e-06
5.67992e-06
5.67524e-06
5.67008e-06
5.66444e-06
5.65831e-06
5.65169e-06
5.64457e-06
5.63694e-06
5.62879e-06
5.62008e-06
5.61077e-06
5.6008e-06
5.59016e-06
5.57881e-06
5.56661e-06
5.55341e-06
5.53917e-06
5.52384e-06
5.50715e-06
5.48895e-06
5.46905e-06
5.4471e-06
5.42289e-06
5.39638e-06
5.36716e-06
5.33462e-06
5.29871e-06
5.25934e-06
5.21568e-06
5.1672e-06
5.11495e-06
5.06136e-06
5.0127e-06
4.96381e-06
4.9054e-06
4.82559e-06
4.71357e-06
4.57729e-06
4.45258e-06
4.34616e-06
4.30125e-06
4.34421e-06
4.2266e-06
3.44736e-06
2.16682e-06
1.37497e-06
1.69488e-06
4.57855e-06
1.4429e-05
3.4571e-05
6.16343e-05
9.43834e-05
5.67985e-06
5.67522e-06
5.6705e-06
5.66563e-06
5.66065e-06
5.65559e-06
5.65052e-06
5.64552e-06
5.64066e-06
5.63596e-06
5.63145e-06
5.6271e-06
5.62288e-06
5.61871e-06
5.61453e-06
5.61023e-06
5.60575e-06
5.601e-06
5.5959e-06
5.59039e-06
5.58439e-06
5.57786e-06
5.57075e-06
5.56301e-06
5.55458e-06
5.54543e-06
5.53549e-06
5.5247e-06
5.51299e-06
5.50028e-06
5.48649e-06
5.47149e-06
5.45523e-06
5.43765e-06
5.41856e-06
5.39773e-06
5.3749e-06
5.34985e-06
5.32226e-06
5.29183e-06
5.25832e-06
5.22145e-06
5.18075e-06
5.13593e-06
5.08673e-06
5.03284e-06
4.97486e-06
4.91608e-06
4.8576e-06
4.80193e-06
4.73641e-06
4.64938e-06
4.53002e-06
4.3996e-06
4.2853e-06
4.17834e-06
4.08831e-06
4.06016e-06
3.93703e-06
3.36852e-06
2.32218e-06
1.49394e-06
1.51881e-06
3.34768e-06
1.03718e-05
2.72067e-05
5.22575e-05
7.99154e-05
0.000110203
5.60521e-06
5.60028e-06
5.59526e-06
5.59007e-06
5.5847e-06
5.57913e-06
5.57339e-06
5.56749e-06
5.56148e-06
5.55539e-06
5.54925e-06
5.5431e-06
5.53694e-06
5.53076e-06
5.52454e-06
5.51823e-06
5.51177e-06
5.50511e-06
5.49818e-06
5.49089e-06
5.48317e-06
5.47493e-06
5.4661e-06
5.4566e-06
5.44635e-06
5.43526e-06
5.42324e-06
5.41021e-06
5.39608e-06
5.38073e-06
5.36402e-06
5.34585e-06
5.32618e-06
5.30491e-06
5.28179e-06
5.25665e-06
5.22928e-06
5.19948e-06
5.16699e-06
5.13155e-06
5.09286e-06
5.05058e-06
5.0042e-06
4.95325e-06
4.89725e-06
4.83667e-06
4.77232e-06
4.70584e-06
4.63517e-06
4.55433e-06
4.45483e-06
4.33622e-06
4.21074e-06
4.10036e-06
3.99496e-06
3.89132e-06
3.79292e-06
3.61446e-06
3.16108e-06
2.36102e-06
1.62132e-06
1.49446e-06
2.67778e-06
7.61289e-06
2.11373e-05
4.44216e-05
7.17882e-05
9.86261e-05
0.000125794
5.51573e-06
5.51023e-06
5.50464e-06
5.4989e-06
5.49297e-06
5.48683e-06
5.48046e-06
5.47385e-06
5.46698e-06
5.45986e-06
5.45251e-06
5.44492e-06
5.43712e-06
5.4291e-06
5.42085e-06
5.41237e-06
5.40362e-06
5.39457e-06
5.38517e-06
5.37536e-06
5.36508e-06
5.35424e-06
5.34277e-06
5.33059e-06
5.31759e-06
5.3037e-06
5.2888e-06
5.27279e-06
5.25557e-06
5.237e-06
5.21693e-06
5.19527e-06
5.17194e-06
5.14677e-06
5.11954e-06
5.09007e-06
5.05819e-06
5.02367e-06
4.9863e-06
4.94583e-06
4.90194e-06
4.85419e-06
4.80202e-06
4.74498e-06
4.68273e-06
4.61521e-06
4.54246e-06
4.46179e-06
4.36863e-06
4.26054e-06
4.1391e-06
4.01245e-06
3.89604e-06
3.78345e-06
3.67293e-06
3.51516e-06
3.26878e-06
2.8669e-06
2.28378e-06
1.71844e-06
1.55893e-06
2.34551e-06
5.78428e-06
1.61346e-05
3.68114e-05
6.40902e-05
9.17833e-05
0.000117325
0.000142012
5.40806e-06
5.40178e-06
5.39539e-06
5.38883e-06
5.38208e-06
5.37511e-06
5.36789e-06
5.3604e-06
5.3526e-06
5.34449e-06
5.33603e-06
5.32722e-06
5.31804e-06
5.30847e-06
5.29851e-06
5.28812e-06
5.2773e-06
5.26601e-06
5.2542e-06
5.24184e-06
5.22887e-06
5.21523e-06
5.20084e-06
5.18563e-06
5.1695e-06
5.15236e-06
5.13411e-06
5.11464e-06
5.09383e-06
5.07153e-06
5.0476e-06
5.02195e-06
4.99447e-06
4.96493e-06
4.93313e-06
4.89884e-06
4.86184e-06
4.82187e-06
4.77866e-06
4.73193e-06
4.68131e-06
4.62634e-06
4.56651e-06
4.50137e-06
4.43012e-06
4.35111e-06
4.26182e-06
4.15978e-06
4.04407e-06
3.91898e-06
3.79082e-06
3.66513e-06
3.54516e-06
3.4126e-06
3.20549e-06
2.90292e-06
2.52601e-06
2.11763e-06
1.76349e-06
1.67434e-06
2.23469e-06
4.63356e-06
1.21952e-05
2.94392e-05
5.55498e-05
8.43209e-05
0.000111333
0.000135475
0.000158052
5.27694e-06
5.2697e-06
5.26233e-06
5.25475e-06
5.24694e-06
5.23888e-06
5.23054e-06
5.22189e-06
5.21291e-06
5.20356e-06
5.19382e-06
5.18365e-06
5.17302e-06
5.16189e-06
5.15025e-06
5.13805e-06
5.12526e-06
5.11184e-06
5.09774e-06
5.08292e-06
5.06732e-06
5.05088e-06
5.03351e-06
5.01516e-06
4.99571e-06
4.97508e-06
4.95316e-06
4.92984e-06
4.90496e-06
4.87838e-06
4.84995e-06
4.81957e-06
4.78708e-06
4.75219e-06
4.71469e-06
4.67431e-06
4.63074e-06
4.58367e-06
4.53276e-06
4.47767e-06
4.418e-06
4.35328e-06
4.28273e-06
4.205e-06
4.11806e-06
4.01945e-06
3.90753e-06
3.78464e-06
3.65518e-06
3.52234e-06
3.3902e-06
3.26268e-06
3.09487e-06
2.84841e-06
2.51856e-06
2.17646e-06
1.9071e-06
1.76459e-06
1.81778e-06
2.28433e-06
3.98156e-06
9.29522e-06
2.26941e-05
4.61961e-05
7.51204e-05
0.000103842
0.000129815
0.000152639
0.000173167
5.11402e-06
5.10567e-06
5.09712e-06
5.08832e-06
5.07923e-06
5.06983e-06
5.06011e-06
5.05002e-06
5.03954e-06
5.02864e-06
5.01727e-06
5.0054e-06
4.993e-06
4.98001e-06
4.9664e-06
4.95212e-06
4.93711e-06
4.92133e-06
4.90471e-06
4.88719e-06
4.86871e-06
4.84919e-06
4.82854e-06
4.80667e-06
4.78348e-06
4.75885e-06
4.73267e-06
4.70479e-06
4.67504e-06
4.64325e-06
4.60928e-06
4.57305e-06
4.53425e-06
4.49261e-06
4.44783e-06
4.39956e-06
4.34745e-06
4.2911e-06
4.23016e-06
4.16421e-06
4.09257e-06
4.01411e-06
3.92735e-06
3.82986e-06
3.71954e-06
3.5976e-06
3.4672e-06
3.33143e-06
3.19451e-06
3.06141e-06
2.90212e-06
2.69902e-06
2.43398e-06
2.12332e-06
1.84431e-06
1.6954e-06
1.74321e-06
1.97035e-06
2.4513e-06
3.69622e-06
7.3186e-06
1.69895e-05
3.65383e-05
6.41158e-05
9.38255e-05
0.000121788
0.000146623
0.000168182
0.000186711
4.90635e-06
4.89664e-06
4.88668e-06
4.87639e-06
4.86576e-06
4.85475e-06
4.84333e-06
4.83147e-06
4.81913e-06
4.80629e-06
4.79289e-06
4.77889e-06
4.76425e-06
4.74891e-06
4.73283e-06
4.71594e-06
4.69818e-06
4.67948e-06
4.65977e-06
4.63897e-06
4.61698e-06
4.59373e-06
4.56909e-06
4.54296e-06
4.51521e-06
4.4857e-06
4.45428e-06
4.42078e-06
4.38499e-06
4.34672e-06
4.30584e-06
4.26213e-06
4.21522e-06
4.1648e-06
4.1105e-06
4.05197e-06
3.98885e-06
3.92072e-06
3.84694e-06
3.76657e-06
3.67815e-06
3.57965e-06
3.46957e-06
3.34766e-06
3.21595e-06
3.07772e-06
2.93808e-06
2.80461e-06
2.64866e-06
2.46051e-06
2.2369e-06
1.98827e-06
1.74488e-06
1.56401e-06
1.53786e-06
1.727e-06
2.11945e-06
2.69265e-06
3.67762e-06
6.08794e-06
1.2559e-05
2.73119e-05
5.16807e-05
8.10854e-05
0.000110456
0.000137389
0.000161086
0.000181365
0.000198029
4.6337e-06
4.62229e-06
4.61056e-06
4.59844e-06
4.58587e-06
4.57283e-06
4.55929e-06
4.54521e-06
4.53054e-06
4.51525e-06
4.49927e-06
4.48257e-06
4.46509e-06
4.44676e-06
4.42752e-06
4.40729e-06
4.38601e-06
4.36358e-06
4.33991e-06
4.31491e-06
4.28846e-06
4.26044e-06
4.23073e-06
4.19918e-06
4.16563e-06
4.12993e-06
4.09187e-06
4.05119e-06
4.00769e-06
3.96126e-06
3.91177e-06
3.85875e-06
3.80183e-06
3.74063e-06
3.6748e-06
3.60391e-06
3.52741e-06
3.44459e-06
3.35398e-06
3.25311e-06
3.14108e-06
3.01961e-06
2.88944e-06
2.74958e-06
2.6085e-06
2.47741e-06
2.32708e-06
2.15407e-06
1.95716e-06
1.75152e-06
1.56422e-06
1.42012e-06
1.36999e-06
1.46571e-06
1.75593e-06
2.27031e-06
2.96081e-06
3.83429e-06
5.41443e-06
9.39391e-06
1.92741e-05
3.85608e-05
6.57136e-05
9.53983e-05
0.000123896
0.000149713
0.00017233
0.000191363
0.000206418
4.26461e-06
4.25107e-06
4.23714e-06
4.22271e-06
4.20773e-06
4.19218e-06
4.176e-06
4.15916e-06
4.1416e-06
4.12327e-06
4.10411e-06
4.08406e-06
4.06306e-06
4.04102e-06
4.01787e-06
3.99353e-06
3.9679e-06
3.94088e-06
3.91235e-06
3.8822e-06
3.8503e-06
3.81649e-06
3.78062e-06
3.74252e-06
3.70201e-06
3.65888e-06
3.61289e-06
3.56375e-06
3.51134e-06
3.45559e-06
3.39593e-06
3.332e-06
3.26339e-06
3.18973e-06
3.11066e-06
3.02543e-06
2.9325e-06
2.83019e-06
2.71764e-06
2.59505e-06
2.46376e-06
2.32982e-06
2.20394e-06
2.0751e-06
1.93497e-06
1.7801e-06
1.615e-06
1.4593e-06
1.32101e-06
1.21827e-06
1.20644e-06
1.28932e-06
1.48955e-06
1.85264e-06
2.42685e-06
3.19032e-06
4.03878e-06
5.09835e-06
7.29485e-06
1.29703e-05
2.59541e-05
4.82212e-05
7.63389e-05
0.000105406
0.000132771
0.000157448
0.00017905
0.000197034
0.000210889
3.75078e-06
3.73475e-06
3.71822e-06
3.70109e-06
3.68329e-06
3.6648e-06
3.64555e-06
3.62551e-06
3.6046e-06
3.58277e-06
3.55996e-06
3.53609e-06
3.51109e-06
3.48486e-06
3.45732e-06
3.42837e-06
3.3979e-06
3.3658e-06
3.33193e-06
3.29616e-06
3.25834e-06
3.21831e-06
3.1759e-06
3.13093e-06
3.08319e-06
3.03241e-06
2.97837e-06
2.92095e-06
2.86013e-06
2.7953e-06
2.726e-06
2.6518e-06
2.57233e-06
2.48701e-06
2.39443e-06
2.2936e-06
2.18516e-06
2.06829e-06
1.94141e-06
1.81629e-06
1.71078e-06
1.59858e-06
1.47572e-06
1.35198e-06
1.24065e-06
1.13792e-06
1.04804e-06
1.01662e-06
1.04681e-06
1.14603e-06
1.32683e-06
1.60482e-06
2.00451e-06
2.56363e-06
3.29499e-06
4.10561e-06
4.88437e-06
5.94465e-06
8.5466e-06
1.53955e-05
3.01367e-05
5.34194e-05
8.11406e-05
0.000109072
0.00013519
0.000158763
0.000179469
0.00019669
0.000209813
3.02791e-06
3.00962e-06
2.99078e-06
2.97127e-06
2.95103e-06
2.93002e-06
2.90819e-06
2.88547e-06
2.86182e-06
2.83717e-06
2.81145e-06
2.78458e-06
2.75649e-06
2.72709e-06
2.69629e-06
2.66399e-06
2.63008e-06
2.59444e-06
2.55696e-06
2.51749e-06
2.47591e-06
2.43205e-06
2.38576e-06
2.3369e-06
2.28528e-06
2.23074e-06
2.17317e-06
2.11225e-06
2.04732e-06
1.97802e-06
1.90404e-06
1.825e-06
1.74083e-06
1.65166e-06
1.55549e-06
1.45143e-06
1.34844e-06
1.25927e-06
1.17286e-06
1.08936e-06
1.01658e-06
9.46962e-07
8.74237e-07
8.26563e-07
8.21447e-07
8.50374e-07
9.18306e-07
1.03365e-06
1.20554e-06
1.44082e-06
1.74307e-06
2.11547e-06
2.56978e-06
3.13098e-06
3.78883e-06
4.41609e-06
4.91728e-06
5.70159e-06
8.07564e-06
1.46492e-05
2.87611e-05
5.0783e-05
7.69119e-05
0.000103361
0.000128252
0.000150868
0.000170881
0.000187677
0.00020052
2.05393e-06
2.03585e-06
2.01725e-06
1.99803e-06
1.97815e-06
1.95756e-06
1.93624e-06
1.91414e-06
1.89122e-06
1.86744e-06
1.84275e-06
1.81708e-06
1.79038e-06
1.76259e-06
1.73364e-06
1.70346e-06
1.67198e-06
1.63912e-06
1.6048e-06
1.56895e-06
1.53145e-06
1.49219e-06
1.45111e-06
1.40832e-06
1.36374e-06
1.31666e-06
1.26665e-06
1.21365e-06
1.1578e-06
1.09962e-06
1.03961e-06
9.77533e-07
9.14232e-07
8.529e-07
7.95651e-07
7.44263e-07
6.99915e-07
6.61318e-07
6.2843e-07
6.11074e-07
6.22512e-07
6.49505e-07
6.93439e-07
7.5709e-07
8.4454e-07
9.59839e-07
1.10655e-06
1.2862e-06
1.49604e-06
1.72899e-06
1.97891e-06
2.24896e-06
2.55497e-06
2.91653e-06
3.31504e-06
3.63711e-06
3.76996e-06
3.96532e-06
5.1551e-06
9.19888e-06
1.9079e-05
3.61059e-05
5.84068e-05
8.28624e-05
0.000106905
0.000129071
0.000148841
0.000165632
0.000178533
9.57174e-07
9.45019e-07
9.32583e-07
9.19805e-07
9.06659e-07
8.93158e-07
8.79347e-07
8.6526e-07
8.50905e-07
8.36276e-07
8.21353e-07
8.06109e-07
7.90511e-07
7.74524e-07
7.58105e-07
7.41215e-07
7.23828e-07
7.05927e-07
6.87461e-07
6.68396e-07
6.48728e-07
6.28458e-07
6.07543e-07
5.85939e-07
5.63848e-07
5.41869e-07
5.20494e-07
4.9995e-07
4.80578e-07
4.63385e-07
4.48353e-07
4.32772e-07
4.20282e-07
4.24398e-07
4.37743e-07
4.56749e-07
4.81594e-07
5.12838e-07
5.50818e-07
5.95822e-07
6.48536e-07
7.09238e-07
7.78262e-07
8.55668e-07
9.40707e-07
1.03151e-06
1.12472e-06
1.21539e-06
1.29849e-06
1.37235e-06
1.44228e-06
1.52201e-06
1.62554e-06
1.75102e-06
1.86237e-06
1.88573e-06
1.74802e-06
1.47219e-06
1.36708e-06
1.98408e-06
4.79384e-06
1.06529e-05
2.13228e-05
3.89604e-05
6.16328e-05
8.43318e-05
0.000104986
0.000122585
0.000135506
1.98356e-07
1.96298e-07
1.94196e-07
1.92108e-07
1.90652e-07
1.90724e-07
1.92487e-07
1.9556e-07
1.99521e-07
2.04051e-07
2.08924e-07
2.13984e-07
2.19118e-07
2.24226e-07
2.29237e-07
2.3415e-07
2.38933e-07
2.43353e-07
2.47346e-07
2.51624e-07
2.5664e-07
2.62444e-07
2.6913e-07
2.76811e-07
2.85543e-07
2.9538e-07
3.06374e-07
3.18558e-07
3.31931e-07
3.46492e-07
3.62203e-07
3.78812e-07
3.95965e-07
4.13564e-07
4.31296e-07
4.48639e-07
4.65017e-07
4.79837e-07
4.92526e-07
5.0266e-07
5.10151e-07
5.1515e-07
5.17743e-07
5.17733e-07
5.14676e-07
5.07813e-07
4.95897e-07
4.78169e-07
4.56394e-07
4.35631e-07
4.22273e-07
4.21305e-07
4.3112e-07
4.3977e-07
4.18617e-07
3.18369e-07
1.62633e-07
9.7214e-08
7.50957e-08
8.87488e-08
2.14608e-07
6.29914e-07
1.75246e-06
4.37935e-06
9.38193e-06
1.6905e-05
2.64622e-05
3.73938e-05
4.74861e-05
7.05565e-08
7.35307e-08
7.65829e-08
7.97152e-08
8.29352e-08
8.62742e-08
8.97665e-08
9.34309e-08
9.72685e-08
1.01267e-07
1.05407e-07
1.09661e-07
1.13996e-07
1.18376e-07
1.22769e-07
1.27125e-07
1.31376e-07
1.35536e-07
1.39589e-07
1.43057e-07
1.4566e-07
1.4742e-07
1.48343e-07
1.48415e-07
1.47616e-07
1.45917e-07
1.43286e-07
1.39695e-07
1.35124e-07
1.29574e-07
1.23073e-07
1.15681e-07
1.07501e-07
9.86854e-08
8.94329e-08
7.99775e-08
7.0574e-08
6.1475e-08
5.29067e-08
4.5055e-08
3.80365e-08
3.18663e-08
2.65053e-08
2.19244e-08
1.80711e-08
1.48023e-08
1.19545e-08
9.48018e-09
7.4523e-09
5.87503e-09
4.56722e-09
3.78777e-09
3.03688e-09
2.17677e-09
2.10807e-09
1.75807e-09
1.04147e-09
6.44609e-10
5.65637e-10
1.84461e-10
4.70733e-10
1.53463e-09
4.93646e-09
1.49862e-08
3.54423e-08
7.17336e-08
1.28349e-07
2.1315e-07
3.65726e-07
6.2219e-06
6.22727e-06
6.23324e-06
6.23995e-06
6.24693e-06
6.24957e-06
6.24829e-06
6.24328e-06
6.24018e-06
6.23622e-06
6.23576e-06
6.23742e-06
6.23955e-06
6.24671e-06
6.24842e-06
6.24832e-06
6.24446e-06
6.24631e-06
6.25891e-06
6.26926e-06
6.26151e-06
6.23469e-06
6.23288e-06
6.21437e-06
6.19609e-06
6.19376e-06
6.20269e-06
6.22013e-06
6.21753e-06
6.21542e-06
6.20514e-06
6.20311e-06
6.19171e-06
6.18633e-06
6.18443e-06
6.18277e-06
6.17874e-06
6.17023e-06
6.16612e-06
6.17583e-06
6.18486e-06
6.16539e-06
6.15104e-06
6.14224e-06
6.14595e-06
6.14866e-06
6.14412e-06
6.13623e-06
6.12238e-06
6.10669e-06
6.09864e-06
6.09744e-06
6.09997e-06
6.10232e-06
6.10734e-06
6.10869e-06
6.10529e-06
6.10093e-06
6.09644e-06
6.21923e-06
6.22404e-06
6.22779e-06
6.23008e-06
6.23008e-06
6.22703e-06
6.22267e-06
6.2192e-06
6.21772e-06
6.21756e-06
6.21935e-06
6.22241e-06
6.22629e-06
6.22917e-06
6.22927e-06
6.22919e-06
6.23151e-06
6.23987e-06
6.24992e-06
6.2501e-06
6.2335e-06
6.21599e-06
6.20971e-06
6.19107e-06
6.17883e-06
6.18117e-06
6.19264e-06
6.20663e-06
6.20476e-06
6.20048e-06
6.19101e-06
6.1879e-06
6.17745e-06
6.17248e-06
6.1705e-06
6.16872e-06
6.16485e-06
6.15713e-06
6.15244e-06
6.15834e-06
6.16749e-06
6.15706e-06
6.1435e-06
6.13193e-06
6.12811e-06
6.12888e-06
6.12783e-06
6.12431e-06
6.11721e-06
6.10523e-06
6.0929e-06
6.08479e-06
6.08154e-06
6.08134e-06
6.08455e-06
6.08921e-06
6.096e-06
6.09989e-06
6.09866e-06
6.20626e-06
6.20707e-06
6.20649e-06
6.20465e-06
6.20204e-06
6.19941e-06
6.19747e-06
6.19696e-06
6.19785e-06
6.19988e-06
6.20275e-06
6.20591e-06
6.20855e-06
6.2099e-06
6.21128e-06
6.21474e-06
6.22154e-06
6.22968e-06
6.23254e-06
6.22415e-06
6.20738e-06
6.19498e-06
6.18483e-06
6.1689e-06
6.16268e-06
6.16862e-06
6.18124e-06
6.19234e-06
6.19027e-06
6.18435e-06
6.17574e-06
6.17166e-06
6.16227e-06
6.15764e-06
6.15564e-06
6.15372e-06
6.14996e-06
6.14296e-06
6.13801e-06
6.14097e-06
6.14861e-06
6.14449e-06
6.13356e-06
6.12205e-06
6.11393e-06
6.11052e-06
6.10894e-06
6.10695e-06
6.10405e-06
6.0979e-06
6.08818e-06
6.07791e-06
6.06981e-06
6.06487e-06
6.06307e-06
6.06447e-06
6.06907e-06
6.0746e-06
6.07928e-06
6.17953e-06
6.17828e-06
6.17674e-06
6.17528e-06
6.17429e-06
6.17407e-06
6.17477e-06
6.1764e-06
6.1787e-06
6.1814e-06
6.18424e-06
6.18689e-06
6.18922e-06
6.1918e-06
6.19598e-06
6.2022e-06
6.20901e-06
6.21236e-06
6.20801e-06
6.19577e-06
6.18166e-06
6.17112e-06
6.15945e-06
6.14791e-06
6.14696e-06
6.15563e-06
6.16839e-06
6.17688e-06
6.17399e-06
6.16702e-06
6.15909e-06
6.15433e-06
6.14593e-06
6.1416e-06
6.13959e-06
6.13753e-06
6.13387e-06
6.12745e-06
6.12241e-06
6.12324e-06
6.12884e-06
6.12832e-06
6.12071e-06
6.11057e-06
6.10112e-06
6.09443e-06
6.09036e-06
6.08739e-06
6.08525e-06
6.08273e-06
6.07775e-06
6.07021e-06
6.06168e-06
6.05392e-06
6.04795e-06
6.04446e-06
6.04379e-06
6.04569e-06
6.04938e-06
6.14817e-06
6.14784e-06
6.14784e-06
6.14837e-06
6.14948e-06
6.15112e-06
6.15323e-06
6.15568e-06
6.15832e-06
6.16113e-06
6.16405e-06
6.16713e-06
6.17071e-06
6.17537e-06
6.18123e-06
6.18706e-06
6.19024e-06
6.18783e-06
6.17905e-06
6.16666e-06
6.1551e-06
6.1451e-06
6.13437e-06
6.12787e-06
6.13127e-06
6.14179e-06
6.15384e-06
6.15983e-06
6.15587e-06
6.14833e-06
6.14093e-06
6.13576e-06
6.12825e-06
6.1242e-06
6.12218e-06
6.11998e-06
6.11641e-06
6.11046e-06
6.10538e-06
6.10469e-06
6.10828e-06
6.10935e-06
6.10471e-06
6.09655e-06
6.08747e-06
6.07943e-06
6.07309e-06
6.06816e-06
6.06461e-06
6.06236e-06
6.06005e-06
6.05626e-06
6.05062e-06
6.04379e-06
6.03681e-06
6.03059e-06
6.02587e-06
6.02314e-06
6.02238e-06
6.1191e-06
6.12034e-06
6.12187e-06
6.12372e-06
6.12584e-06
6.12818e-06
6.13072e-06
6.13347e-06
6.13647e-06
6.1398e-06
6.14353e-06
6.14779e-06
6.15274e-06
6.1582e-06
6.1632e-06
6.16593e-06
6.16443e-06
6.15791e-06
6.14779e-06
6.1369e-06
6.12712e-06
6.11788e-06
6.10998e-06
6.10841e-06
6.11518e-06
6.12662e-06
6.13726e-06
6.14082e-06
6.13584e-06
6.12809e-06
6.12113e-06
6.11576e-06
6.10904e-06
6.10526e-06
6.10322e-06
6.10089e-06
6.09737e-06
6.09181e-06
6.08672e-06
6.08491e-06
6.08674e-06
6.08811e-06
6.08561e-06
6.07954e-06
6.07163e-06
6.0636e-06
6.05632e-06
6.04985e-06
6.04443e-06
6.04056e-06
6.03802e-06
6.03584e-06
6.03294e-06
6.02884e-06
6.02367e-06
6.01793e-06
6.01221e-06
6.00714e-06
6.00305e-06
6.09196e-06
6.094e-06
6.09618e-06
6.09853e-06
6.10104e-06
6.10376e-06
6.10675e-06
6.11009e-06
6.11385e-06
6.11805e-06
6.12268e-06
6.12765e-06
6.13263e-06
6.13681e-06
6.13896e-06
6.13781e-06
6.13279e-06
6.12466e-06
6.11524e-06
6.10614e-06
6.09775e-06
6.09031e-06
6.08629e-06
6.08904e-06
6.09812e-06
6.10957e-06
6.11827e-06
6.11957e-06
6.11377e-06
6.10607e-06
6.09949e-06
6.0941e-06
6.08807e-06
6.08454e-06
6.08248e-06
6.08003e-06
6.07653e-06
6.07127e-06
6.06618e-06
6.06355e-06
6.06389e-06
6.06485e-06
6.06357e-06
6.0593e-06
6.05284e-06
6.04552e-06
6.03833e-06
6.0314e-06
6.02489e-06
6.01931e-06
6.01511e-06
6.01218e-06
6.00987e-06
6.00748e-06
6.00451e-06
6.00082e-06
5.99654e-06
5.99196e-06
5.98734e-06
6.06394e-06
6.06632e-06
6.06886e-06
6.07162e-06
6.07463e-06
6.07795e-06
6.08162e-06
6.08568e-06
6.0901e-06
6.09476e-06
6.09947e-06
6.10382e-06
6.10719e-06
6.10874e-06
6.10769e-06
6.1037e-06
6.09725e-06
6.0895e-06
6.0816e-06
6.07411e-06
6.06743e-06
6.06286e-06
6.06295e-06
6.06909e-06
6.07943e-06
6.09005e-06
6.09651e-06
6.09582e-06
6.08946e-06
6.082e-06
6.07577e-06
6.07049e-06
6.06507e-06
6.06178e-06
6.0597e-06