/*--------------------------------*- C++ -*----------------------------------*\
| =========                 |                                                 |
| \\      /  F ield         | OpenFOAM: The Open Source CFD Toolbox           |
|  \\    /   O peration     | Version:  2312                                  |
|   \\  /    A nd           | Website:  www.openfoam.com                      |
|    \\/     M anipulation  |                                                 |
\*---------------------------------------------------------------------------*/
FoamFile
{
    version     2.0;
    format      ascii;
    arch        "LSB;label=32;scalar=64";
    class       volScalarField;
    location    "500";
    object      nuTilda;
}
// * * * * * * * * * * * * * * * * * * * * * * * * * * * * * * * * * * * * * //

dimensions      [0 2 -1 0 0 0 0];

internalField   nonuniform List<scalar> 
76025
(
4.00465e-05
4.00403e-05
4.004e-05
4.0048e-05
4.00576e-05
4.00686e-05
4.00773e-05
4.00846e-05
4.00918e-05
4.00974e-05
4.01021e-05
4.01053e-05
4.01043e-05
4.01013e-05
4.00989e-05
4.00952e-05
4.00946e-05
4.00945e-05
4.00972e-05
4.00988e-05
4.01008e-05
4.00982e-05
4.00989e-05
4.01027e-05
4.01081e-05
4.01154e-05
4.0126e-05
4.01355e-05
4.01489e-05
4.01648e-05
4.01892e-05
4.02113e-05
4.02342e-05
4.02578e-05
4.02814e-05
4.03026e-05
4.03225e-05
4.03418e-05
4.03576e-05
4.03664e-05
4.03678e-05
4.03618e-05
4.03462e-05
4.03267e-05
4.0307e-05
4.02905e-05
4.02698e-05
4.02592e-05
4.02744e-05
4.03093e-05
4.03524e-05
4.03938e-05
4.04234e-05
4.04346e-05
4.04239e-05
4.04004e-05
4.03659e-05
4.03282e-05
4.02889e-05
4.02491e-05
4.02161e-05
4.01545e-05
3.99216e-05
3.96804e-05
4.02805e-05
4.07068e-05
3.66331e-05
3.16318e-05
5.4463e-05
4.00482e-05
4.00355e-05
4.00245e-05
4.00184e-05
4.00183e-05
4.00228e-05
4.00293e-05
4.00386e-05
4.00532e-05
4.00676e-05
4.008e-05
4.00913e-05
4.01005e-05
4.01067e-05
4.011e-05
4.01108e-05
4.01105e-05
4.01089e-05
4.01079e-05
4.01071e-05
4.01045e-05
4.00977e-05
4.00905e-05
4.0084e-05
4.00781e-05
4.00733e-05
4.00702e-05
4.0069e-05
4.00704e-05
4.0074e-05
4.00786e-05
4.00827e-05
4.00884e-05
4.00967e-05
4.01078e-05
4.01148e-05
4.012e-05
4.01222e-05
4.01196e-05
4.01147e-05
4.011e-05
4.01065e-05
4.01053e-05
4.01133e-05
4.01402e-05
4.0174e-05
4.02129e-05
4.02556e-05
4.02992e-05
4.03393e-05
4.03707e-05
4.0388e-05
4.03875e-05
4.03688e-05
4.03361e-05
4.02956e-05
4.02537e-05
4.02123e-05
4.01709e-05
4.01347e-05
4.00963e-05
3.99774e-05
3.9674e-05
3.95807e-05
4.0406e-05
4.04187e-05
3.50935e-05
3.03489e-05
5.50428e-05
4.00251e-05
4.00237e-05
4.00182e-05
4.00095e-05
4.00009e-05
3.99942e-05
3.99908e-05
3.99921e-05
3.99985e-05
4.00079e-05
4.00196e-05
4.00335e-05
4.00516e-05
4.0069e-05
4.00834e-05
4.00945e-05
4.01027e-05
4.01081e-05
4.01115e-05
4.01136e-05
4.01146e-05
4.01137e-05
4.01104e-05
4.01042e-05
4.00954e-05
4.00867e-05
4.00776e-05
4.0069e-05
4.00613e-05
4.00549e-05
4.00494e-05
4.00447e-05
4.00412e-05
4.00392e-05
4.00382e-05
4.00377e-05
4.0038e-05
4.00396e-05
4.00428e-05
4.0051e-05
4.00659e-05
4.00929e-05
4.01232e-05
4.01555e-05
4.01898e-05
4.02255e-05
4.02609e-05
4.02937e-05
4.03205e-05
4.03372e-05
4.03399e-05
4.03263e-05
4.02974e-05
4.02575e-05
4.02131e-05
4.017e-05
4.01296e-05
4.00891e-05
4.00482e-05
4.00093e-05
3.99441e-05
3.97464e-05
3.94135e-05
3.95558e-05
4.04997e-05
3.98268e-05
3.36547e-05
2.99491e-05
5.48956e-05
3.99747e-05
3.99836e-05
3.99891e-05
3.99904e-05
3.99881e-05
3.9983e-05
3.9976e-05
3.99688e-05
3.99639e-05
3.99628e-05
3.99658e-05
3.99728e-05
3.99834e-05
3.99967e-05
4.00122e-05
4.00308e-05
4.00498e-05
4.00662e-05
4.00797e-05
4.00905e-05
4.00992e-05
4.01062e-05
4.01113e-05
4.01147e-05
4.01162e-05
4.0116e-05
4.01141e-05
4.01109e-05
4.01064e-05
4.01007e-05
4.00937e-05
4.00866e-05
4.00808e-05
4.00762e-05
4.00735e-05
4.00769e-05
4.00878e-05
4.01012e-05
4.01165e-05
4.01334e-05
4.01521e-05
4.01727e-05
4.01948e-05
4.02179e-05
4.02409e-05
4.02624e-05
4.02799e-05
4.02903e-05
4.02904e-05
4.02775e-05
4.02508e-05
4.02122e-05
4.01663e-05
4.01194e-05
4.00761e-05
4.00373e-05
3.99988e-05
3.99566e-05
3.9913e-05
3.98632e-05
3.97471e-05
3.94595e-05
3.91815e-05
3.9614e-05
4.05017e-05
3.88388e-05
3.19771e-05
2.9724e-05
5.50223e-05
3.99184e-05
3.99252e-05
3.99336e-05
3.99422e-05
3.99495e-05
3.99539e-05
3.99545e-05
3.9952e-05
3.99475e-05
3.99425e-05
3.99381e-05
3.99358e-05
3.99363e-05
3.99402e-05
3.99477e-05
3.99584e-05
3.99715e-05
3.99865e-05
4.00025e-05
4.00197e-05
4.00371e-05
4.0053e-05
4.0067e-05
4.00792e-05
4.00895e-05
4.00983e-05
4.01057e-05
4.01116e-05
4.01164e-05
4.01201e-05
4.01229e-05
4.01252e-05
4.01272e-05
4.01285e-05
4.01309e-05
4.01363e-05
4.01435e-05
4.01522e-05
4.0162e-05
4.0173e-05
4.01848e-05
4.01972e-05
4.02095e-05
4.02206e-05
4.02288e-05
4.02319e-05
4.02271e-05
4.0212e-05
4.01854e-05
4.01478e-05
4.0102e-05
4.00531e-05
4.00062e-05
3.99652e-05
3.99297e-05
3.98949e-05
3.98544e-05
3.98076e-05
3.97575e-05
3.96788e-05
3.94807e-05
3.91347e-05
3.90537e-05
3.97447e-05
4.02754e-05
3.73312e-05
3.02172e-05
2.99881e-05
5.57107e-05
3.98739e-05
3.98717e-05
3.98737e-05
3.9879e-05
3.98866e-05
3.98949e-05
3.99027e-05
3.9909e-05
3.9913e-05
3.9914e-05
3.99128e-05
3.99106e-05
3.99085e-05
3.99073e-05
3.99077e-05
3.99104e-05
3.99154e-05
3.9923e-05
3.99326e-05
3.99438e-05
3.99566e-05
3.99704e-05
3.99844e-05
3.99981e-05
4.00116e-05
4.00253e-05
4.00386e-05
4.0051e-05
4.00622e-05
4.00721e-05
4.00805e-05
4.0088e-05
4.0094e-05
4.0097e-05
4.01013e-05
4.0108e-05
4.01153e-05
4.01228e-05
4.01303e-05
4.01375e-05
4.0144e-05
4.0149e-05
4.01511e-05
4.01487e-05
4.01396e-05
4.01219e-05
4.00945e-05
4.00575e-05
4.00129e-05
3.99643e-05
3.99165e-05
3.98737e-05
3.98382e-05
3.98082e-05
3.97781e-05
3.97407e-05
3.96928e-05
3.96383e-05
3.95709e-05
3.94334e-05
3.91382e-05
3.88206e-05
3.90315e-05
3.98605e-05
3.96569e-05
3.52435e-05
2.86096e-05
3.09466e-05
5.70359e-05
3.98406e-05
3.98316e-05
3.98252e-05
3.98221e-05
3.98225e-05
3.98259e-05
3.98317e-05
3.9839e-05
3.98466e-05
3.98534e-05
3.98587e-05
3.98626e-05
3.98653e-05
3.98671e-05
3.98682e-05
3.98694e-05
3.98712e-05
3.98743e-05
3.98787e-05
3.98847e-05
3.9892e-05
3.99007e-05
3.99101e-05
3.99199e-05
3.99302e-05
3.99408e-05
3.99514e-05
3.99616e-05
3.99711e-05
3.99796e-05
3.99868e-05
3.9993e-05
3.99973e-05
3.99991e-05
3.99998e-05
4.00068e-05
4.0015e-05
4.00223e-05
4.00281e-05
4.00314e-05
4.00313e-05
4.00264e-05
4.00151e-05
3.99961e-05
3.99684e-05
3.99324e-05
3.98898e-05
3.98437e-05
3.9798e-05
3.97567e-05
3.97227e-05
3.9696e-05
3.96734e-05
3.96486e-05
3.96141e-05
3.95658e-05
3.95067e-05
3.94385e-05
3.93308e-05
3.91023e-05
3.87522e-05
3.86211e-05
3.91269e-05
3.97881e-05
3.83311e-05
3.26398e-05
2.75133e-05
3.29419e-05
5.92883e-05
3.9807e-05
3.97973e-05
3.97876e-05
3.97787e-05
3.97716e-05
3.9767e-05
3.9765e-05
3.97658e-05
3.97689e-05
3.97736e-05
3.97791e-05
3.97848e-05
3.97905e-05
3.97956e-05
3.97999e-05
3.98036e-05
3.9807e-05
3.98106e-05
3.98146e-05
3.98188e-05
3.98234e-05
3.98283e-05
3.98338e-05
3.98396e-05
3.98459e-05
3.98525e-05
3.98591e-05
3.98655e-05
3.98712e-05
3.9876e-05
3.98796e-05
3.9882e-05
3.9882e-05
3.98782e-05
3.98734e-05
3.98695e-05
3.98662e-05
3.98648e-05
3.98622e-05
3.98558e-05
3.98438e-05
3.98248e-05
3.97983e-05
3.97646e-05
3.97254e-05
3.96838e-05
3.96434e-05
3.96078e-05
3.95793e-05
3.95584e-05
3.9543e-05
3.95284e-05
3.95079e-05
3.94746e-05
3.94247e-05
3.93608e-05
3.92874e-05
3.91897e-05
3.90065e-05
3.86834e-05
3.8395e-05
3.85438e-05
3.92362e-05
3.92897e-05
3.60927e-05
2.98805e-05
2.74519e-05
3.63265e-05
6.27724e-05
3.97626e-05
3.97562e-05
3.97486e-05
3.97399e-05
3.97306e-05
3.97216e-05
3.97136e-05
3.9707e-05
3.97024e-05
3.96999e-05
3.96992e-05
3.97e-05
3.9702e-05
3.97049e-05
3.97082e-05
3.97115e-05
3.97149e-05
3.97184e-05
3.97218e-05
3.97252e-05
3.97283e-05
3.97313e-05
3.97343e-05
3.97373e-05
3.97402e-05
3.9743e-05
3.97454e-05
3.97471e-05
3.97479e-05
3.97473e-05
3.97455e-05
3.97422e-05
3.97365e-05
3.97275e-05
3.97155e-05
3.97016e-05
3.96855e-05
3.96674e-05
3.96468e-05
3.96226e-05
3.95941e-05
3.95612e-05
3.95249e-05
3.94879e-05
3.94539e-05
3.94265e-05
3.94079e-05
3.9397e-05
3.93912e-05
3.93864e-05
3.93774e-05
3.93576e-05
3.93216e-05
3.92671e-05
3.9197e-05
3.91165e-05
3.90188e-05
3.88603e-05
3.85767e-05
3.82228e-05
3.81357e-05
3.85769e-05
3.91236e-05
3.78672e-05
3.29707e-05
2.76459e-05
2.89936e-05
4.12883e-05
6.77931e-05
3.97055e-05
3.97014e-05
3.96969e-05
3.96916e-05
3.9685e-05
3.96774e-05
3.96688e-05
3.96599e-05
3.96511e-05
3.9643e-05
3.96358e-05
3.96298e-05
3.9625e-05
3.96215e-05
3.9619e-05
3.96173e-05
3.96163e-05
3.96157e-05
3.96154e-05
3.96154e-05
3.96154e-05
3.96152e-05
3.96148e-05
3.9614e-05
3.9613e-05
3.96114e-05
3.96092e-05
3.96061e-05
3.96018e-05
3.95962e-05
3.95889e-05
3.958e-05
3.95691e-05
3.95559e-05
3.95403e-05
3.95221e-05
3.95005e-05
3.94755e-05
3.94468e-05
3.94146e-05
3.93799e-05
3.93442e-05
3.93093e-05
3.92793e-05
3.92561e-05
3.92398e-05
3.92363e-05
3.92371e-05
3.92346e-05
3.92228e-05
3.91965e-05
3.9152e-05
3.90887e-05
3.90103e-05
3.89218e-05
3.88194e-05
3.86715e-05
3.84185e-05
3.80634e-05
3.78392e-05
3.80211e-05
3.85821e-05
3.8388e-05
3.52283e-05
2.95686e-05
2.6916e-05
3.26935e-05
4.80007e-05
7.48004e-05
3.96393e-05
3.96346e-05
3.96306e-05
3.9627e-05
3.96232e-05
3.96187e-05
3.96133e-05
3.96069e-05
3.95994e-05
3.95911e-05
3.95824e-05
3.95734e-05
3.95646e-05
3.95561e-05
3.9548e-05
3.95406e-05
3.95336e-05
3.95271e-05
3.95211e-05
3.95155e-05
3.95101e-05
3.95047e-05
3.94993e-05
3.94936e-05
3.94875e-05
3.9481e-05
3.94739e-05
3.9466e-05
3.9457e-05
3.94469e-05
3.94354e-05
3.94224e-05
3.94077e-05
3.93913e-05
3.9373e-05
3.93524e-05
3.93294e-05
3.93036e-05
3.92754e-05
3.9245e-05
3.92139e-05
3.91833e-05
3.91551e-05
3.91324e-05
3.91142e-05
3.91002e-05
3.90927e-05
3.908e-05
3.90555e-05
3.9015e-05
3.89564e-05
3.88812e-05
3.87937e-05
3.86978e-05
3.85891e-05
3.84428e-05
3.82097e-05
3.78707e-05
3.75852e-05
3.75695e-05
3.79754e-05
3.82192e-05
3.64364e-05
3.15983e-05
2.70719e-05
2.86291e-05
3.88411e-05
5.6473e-05
8.34643e-05
3.9566e-05
3.95594e-05
3.95536e-05
3.95486e-05
3.95445e-05
3.95408e-05
3.95373e-05
3.95335e-05
3.95291e-05
3.95238e-05
3.95175e-05
3.95104e-05
3.95024e-05
3.94937e-05
3.94845e-05
3.94749e-05
3.94651e-05
3.94552e-05
3.94452e-05
3.94352e-05
3.94252e-05
3.94151e-05
3.94049e-05
3.93945e-05
3.93837e-05
3.93725e-05
3.93609e-05
3.93486e-05
3.93355e-05
3.93215e-05
3.93064e-05
3.92903e-05
3.92728e-05
3.92537e-05
3.9233e-05
3.92107e-05
3.91864e-05
3.91603e-05
3.91323e-05
3.91031e-05
3.90735e-05
3.90433e-05
3.90147e-05
3.89876e-05
3.89588e-05
3.89304e-05
3.88985e-05
3.88549e-05
3.87961e-05
3.87217e-05
3.86347e-05
3.85399e-05
3.84391e-05
3.83252e-05
3.81742e-05
3.79489e-05
3.76288e-05
3.73286e-05
3.7187e-05
3.73939e-05
3.77294e-05
3.68224e-05
3.31086e-05
2.81107e-05
2.69181e-05
3.34554e-05
4.7352e-05
6.65659e-05
9.32091e-05
3.94827e-05
3.94746e-05
3.94669e-05
3.94597e-05
3.94532e-05
3.94476e-05
3.94427e-05
3.94384e-05
3.94344e-05
3.94305e-05
3.94262e-05
3.94215e-05
3.94161e-05
3.94098e-05
3.94027e-05
3.93947e-05
3.93859e-05
3.93763e-05
3.93661e-05
3.93552e-05
3.93437e-05
3.93318e-05
3.93192e-05
3.93062e-05
3.92926e-05
3.92783e-05
3.92635e-05
3.92478e-05
3.92314e-05
3.92139e-05
3.91956e-05
3.91761e-05
3.91552e-05
3.91326e-05
3.91083e-05
3.90821e-05
3.9054e-05
3.90235e-05
3.89904e-05
3.89553e-05
3.89174e-05
3.88766e-05
3.88336e-05
3.87868e-05
3.87338e-05
3.8674e-05
3.86074e-05
3.85297e-05
3.84402e-05
3.83441e-05
3.82458e-05
3.81435e-05
3.80256e-05
3.7866e-05
3.76382e-05
3.73306e-05
3.70361e-05
3.68269e-05
3.68579e-05
3.71111e-05
3.66685e-05
3.39625e-05
2.92874e-05
2.65278e-05
3.01676e-05
4.1308e-05
5.79426e-05
7.81073e-05
0.000103757
3.93837e-05
3.93751e-05
3.93664e-05
3.93577e-05
3.93491e-05
3.93409e-05
3.93333e-05
3.93263e-05
3.93199e-05
3.93141e-05
3.93086e-05
3.93033e-05
3.92979e-05
3.92924e-05
3.92863e-05
3.92796e-05
3.92722e-05
3.9264e-05
3.92549e-05
3.92449e-05
3.9234e-05
3.92221e-05
3.92092e-05
3.91953e-05
3.91805e-05
3.91646e-05
3.91476e-05
3.91294e-05
3.911e-05
3.90891e-05
3.90669e-05
3.90429e-05
3.9017e-05
3.8989e-05
3.89588e-05
3.89258e-05
3.88898e-05
3.88503e-05
3.88067e-05
3.87584e-05
3.87054e-05
3.86468e-05
3.85813e-05
3.85087e-05
3.84287e-05
3.83396e-05
3.82401e-05
3.81322e-05
3.80208e-05
3.79189e-05
3.7816e-05
3.76921e-05
3.75213e-05
3.72785e-05
3.6978e-05
3.66978e-05
3.64547e-05
3.63509e-05
3.64502e-05
3.61768e-05
3.42249e-05
3.02325e-05
2.68366e-05
2.83415e-05
3.69808e-05
5.17317e-05
7.02544e-05
9.0953e-05
0.000116016
3.92639e-05
3.92549e-05
3.92457e-05
3.92363e-05
3.92266e-05
3.92168e-05
3.92069e-05
3.91972e-05
3.91877e-05
3.91786e-05
3.91698e-05
3.91613e-05
3.91531e-05
3.9145e-05
3.91368e-05
3.91284e-05
3.91196e-05
3.91103e-05
3.91004e-05
3.90896e-05
3.90778e-05
3.9065e-05
3.90511e-05
3.90359e-05
3.90193e-05
3.90013e-05
3.89817e-05
3.89605e-05
3.89373e-05
3.89122e-05
3.88849e-05
3.88552e-05
3.88229e-05
3.87879e-05
3.87498e-05
3.87081e-05
3.86624e-05
3.8612e-05
3.85564e-05
3.84947e-05
3.84267e-05
3.83514e-05
3.8268e-05
3.81756e-05
3.80736e-05
3.79612e-05
3.78393e-05
3.77148e-05
3.759e-05
3.74703e-05
3.73283e-05
3.71377e-05
3.68724e-05
3.65773e-05
3.63139e-05
3.60632e-05
3.58489e-05
3.57813e-05
3.54818e-05
3.40116e-05
3.07915e-05
2.74226e-05
2.75409e-05
3.39547e-05
4.6736e-05
6.4129e-05
8.39126e-05
0.00010478
0.000128704
3.91186e-05
3.91089e-05
3.90991e-05
3.90889e-05
3.90784e-05
3.90675e-05
3.90563e-05
3.90447e-05
3.90329e-05
3.90209e-05
3.90088e-05
3.89967e-05
3.89846e-05
3.89724e-05
3.89601e-05
3.89477e-05
3.89349e-05
3.89218e-05
3.89081e-05
3.88936e-05
3.88783e-05
3.8862e-05
3.88445e-05
3.88256e-05
3.88052e-05
3.87831e-05
3.87591e-05
3.87331e-05
3.87048e-05
3.8674e-05
3.86405e-05
3.86039e-05
3.85643e-05
3.85213e-05
3.84744e-05
3.84233e-05
3.83674e-05
3.83064e-05
3.82397e-05
3.81666e-05
3.80864e-05
3.79983e-05
3.79011e-05
3.77937e-05
3.76748e-05
3.75451e-05
3.74063e-05
3.72616e-05
3.71063e-05
3.69268e-05
3.67029e-05
3.64318e-05
3.61396e-05
3.58778e-05
3.56235e-05
3.5369e-05
3.51233e-05
3.46665e-05
3.34338e-05
3.09272e-05
2.80146e-05
2.74251e-05
3.19803e-05
4.26742e-05
5.86454e-05
7.79672e-05
9.85956e-05
0.000119376
0.000141639
3.89428e-05
3.89319e-05
3.89208e-05
3.89095e-05
3.88978e-05
3.88856e-05
3.8873e-05
3.88598e-05
3.88462e-05
3.88321e-05
3.88174e-05
3.88024e-05
3.87868e-05
3.87708e-05
3.87544e-05
3.87374e-05
3.87199e-05
3.87018e-05
3.8683e-05
3.86633e-05
3.86426e-05
3.86208e-05
3.85977e-05
3.85732e-05
3.85469e-05
3.85188e-05
3.84886e-05
3.84561e-05
3.84211e-05
3.83832e-05
3.83422e-05
3.82978e-05
3.82499e-05
3.8198e-05
3.81417e-05
3.80806e-05
3.80141e-05
3.79419e-05
3.78634e-05
3.7778e-05
3.76848e-05
3.75827e-05
3.74705e-05
3.7347e-05
3.7211e-05
3.70622e-05
3.69002e-05
3.67187e-05
3.65063e-05
3.62562e-05
3.59702e-05
3.5666e-05
3.53807e-05
3.50994e-05
3.48177e-05
3.44058e-05
3.37369e-05
3.25688e-05
3.06558e-05
2.84442e-05
2.77289e-05
3.08732e-05
3.94651e-05
5.36114e-05
7.20446e-05
9.27963e-05
0.000113972
0.00013456
0.000155524
3.87288e-05
3.87162e-05
3.87034e-05
3.86903e-05
3.86768e-05
3.86628e-05
3.86483e-05
3.86332e-05
3.86175e-05
3.86012e-05
3.85841e-05
3.85664e-05
3.85478e-05
3.85285e-05
3.85083e-05
3.84872e-05
3.84653e-05
3.84423e-05
3.84183e-05
3.83931e-05
3.83666e-05
3.83387e-05
3.83092e-05
3.8278e-05
3.82449e-05
3.82095e-05
3.81719e-05
3.81316e-05
3.80884e-05
3.8042e-05
3.7992e-05
3.79383e-05
3.78806e-05
3.78184e-05
3.7751e-05
3.76781e-05
3.75991e-05
3.75133e-05
3.742e-05
3.73185e-05
3.72079e-05
3.70868e-05
3.6954e-05
3.6808e-05
3.66468e-05
3.64661e-05
3.62592e-05
3.60193e-05
3.57425e-05
3.54374e-05
3.5118e-05
3.47977e-05
3.44851e-05
3.41313e-05
3.35596e-05
3.26778e-05
3.1487e-05
3.00497e-05
2.86377e-05
2.82513e-05
3.048e-05
3.71028e-05
4.90905e-05
6.60333e-05
8.63883e-05
0.000108167
0.000129627
0.000149877
0.00016964
3.84645e-05
3.84498e-05
3.84348e-05
3.84194e-05
3.84035e-05
3.8387e-05
3.837e-05
3.83523e-05
3.8334e-05
3.83148e-05
3.82948e-05
3.82739e-05
3.82521e-05
3.82292e-05
3.82052e-05
3.818e-05
3.81536e-05
3.81258e-05
3.80965e-05
3.80657e-05
3.80332e-05
3.79989e-05
3.79626e-05
3.79241e-05
3.78832e-05
3.78398e-05
3.77935e-05
3.77441e-05
3.76912e-05
3.76345e-05
3.75737e-05
3.75084e-05
3.74383e-05
3.73626e-05
3.72809e-05
3.71925e-05
3.70965e-05
3.69922e-05
3.68785e-05
3.67546e-05
3.66192e-05
3.64711e-05
3.63079e-05
3.61261e-05
3.59201e-05
3.5683e-05
3.54091e-05
3.51024e-05
3.4772e-05
3.44248e-05
3.40706e-05
3.37199e-05
3.32441e-05
3.25124e-05
3.14623e-05
3.0268e-05
2.92322e-05
2.86423e-05
2.88663e-05
3.06578e-05
3.55908e-05
4.52359e-05
6.01037e-05
7.93231e-05
0.000101122
0.000123549
0.000145042
0.000164837
0.00018324
3.81303e-05
3.8113e-05
3.80952e-05
3.80769e-05
3.8058e-05
3.80384e-05
3.80182e-05
3.79971e-05
3.79752e-05
3.79524e-05
3.79285e-05
3.79036e-05
3.78775e-05
3.78502e-05
3.78215e-05
3.77913e-05
3.77595e-05
3.7726e-05
3.76906e-05
3.76533e-05
3.76138e-05
3.7572e-05
3.75277e-05
3.74806e-05
3.74305e-05
3.73771e-05
3.73202e-05
3.72593e-05
3.71941e-05
3.71241e-05
3.7049e-05
3.69685e-05
3.68819e-05
3.67883e-05
3.66871e-05
3.65772e-05
3.64577e-05
3.63274e-05
3.61852e-05
3.60298e-05
3.58592e-05
3.567e-05
3.5458e-05
3.5216e-05
3.49372e-05
3.46225e-05
3.42781e-05
3.39101e-05
3.35286e-05
3.31471e-05
3.26754e-05
3.20477e-05
3.1178e-05
3.0071e-05
2.89763e-05
2.83438e-05
2.8551e-05
2.94842e-05
3.12368e-05
3.48776e-05
4.21924e-05
5.45173e-05
7.18278e-05
9.28155e-05
0.000115577
0.000138275
0.000159545
0.000178726
0.000195636
3.76941e-05
3.76735e-05
3.76522e-05
3.76303e-05
3.76075e-05
3.75839e-05
3.75594e-05
3.7534e-05
3.75074e-05
3.74797e-05
3.74508e-05
3.74205e-05
3.73888e-05
3.73555e-05
3.73205e-05
3.72837e-05
3.72448e-05
3.72039e-05
3.71605e-05
3.71147e-05
3.70661e-05
3.70145e-05
3.69597e-05
3.69014e-05
3.68391e-05
3.67727e-05
3.67017e-05
3.66256e-05
3.65439e-05
3.6456e-05
3.63616e-05
3.626e-05
3.61501e-05
3.60312e-05
3.59021e-05
3.57616e-05
3.56086e-05
3.54416e-05
3.52587e-05
3.50567e-05
3.48312e-05
3.45756e-05
3.42844e-05
3.39546e-05
3.35891e-05
3.31945e-05
3.27834e-05
3.23779e-05
3.18872e-05
3.12679e-05
3.0488e-05
2.95545e-05
2.85582e-05
2.77525e-05
2.76306e-05
2.84812e-05
3.00566e-05
3.20275e-05
3.48298e-05
4.00377e-05
4.95369e-05
6.42198e-05
8.34779e-05
0.000105677
0.000128911
0.000151523
0.000172348
0.000190721
0.000206122
3.71031e-05
3.70778e-05
3.70519e-05
3.7025e-05
3.69971e-05
3.6968e-05
3.69379e-05
3.69064e-05
3.68735e-05
3.68392e-05
3.68033e-05
3.67657e-05
3.67262e-05
3.66846e-05
3.66409e-05
3.65948e-05
3.65462e-05
3.64948e-05
3.64403e-05
3.63826e-05
3.63212e-05
3.6256e-05
3.61865e-05
3.61124e-05
3.60332e-05
3.59484e-05
3.58575e-05
3.57597e-05
3.56544e-05
3.55412e-05
3.54196e-05
3.52881e-05
3.51457e-05
3.49909e-05
3.48226e-05
3.4639e-05
3.44382e-05
3.42175e-05
3.39719e-05
3.36932e-05
3.33768e-05
3.3025e-05
3.26371e-05
3.22069e-05
3.17576e-05
3.13248e-05
3.08087e-05
3.01854e-05
2.94321e-05
2.85866e-05
2.77534e-05
2.70631e-05
2.68113e-05
2.72866e-05
2.86054e-05
3.06079e-05
3.28512e-05
3.52271e-05
3.87415e-05
4.53774e-05
5.68398e-05
7.34253e-05
9.40161e-05
0.000116817
0.000140042
0.000162257
0.000182481
0.000199933
0.00021396
3.62657e-05
3.62341e-05
3.62015e-05
3.61677e-05
3.61325e-05
3.60959e-05
3.60577e-05
3.60178e-05
3.59762e-05
3.59325e-05
3.58868e-05
3.58388e-05
3.57883e-05
3.57352e-05
3.56791e-05
3.562e-05
3.55575e-05
3.54912e-05
3.5421e-05
3.53464e-05
3.52671e-05
3.51825e-05
3.50922e-05
3.49957e-05
3.48924e-05
3.47816e-05
3.46624e-05
3.45339e-05
3.43956e-05
3.4247e-05
3.40861e-05
3.39117e-05
3.37219e-05
3.35151e-05
3.32896e-05
3.3042e-05
3.27667e-05
3.24566e-05
3.21066e-05
3.17138e-05
3.12789e-05
3.08183e-05
3.03685e-05
2.98893e-05
2.9344e-05
2.87082e-05
2.7986e-05
2.72555e-05
2.65589e-05
2.60069e-05
2.59412e-05
2.6392e-05
2.74016e-05
2.90106e-05
3.11537e-05
3.35168e-05
3.57298e-05
3.80978e-05
4.2153e-05
5.00335e-05
6.30376e-05
8.08627e-05
0.000102049
0.00012481
0.000147561
0.000169102
0.000188603
0.000205196
0.000218158
3.50167e-05
3.49759e-05
3.49338e-05
3.489e-05
3.48444e-05
3.47968e-05
3.47471e-05
3.46952e-05
3.46408e-05
3.45838e-05
3.4524e-05
3.44611e-05
3.4395e-05
3.43252e-05
3.42516e-05
3.41738e-05
3.40915e-05
3.40042e-05
3.39115e-05
3.38129e-05
3.37078e-05
3.35957e-05
3.3476e-05
3.33477e-05
3.32103e-05
3.30625e-05
3.29033e-05
3.27321e-05
3.25482e-05
3.23492e-05
3.21329e-05
3.18972e-05
3.16397e-05
3.1357e-05
3.10427e-05
3.06907e-05
3.02999e-05
2.98634e-05
2.93696e-05
2.88601e-05
2.84109e-05
2.79114e-05
2.73351e-05
2.67192e-05
2.61299e-05
2.55516e-05
2.50141e-05
2.48184e-05
2.50065e-05
2.55986e-05
2.65892e-05
2.79398e-05
2.96179e-05
3.16112e-05
3.38096e-05
3.58904e-05
3.76473e-05
3.97698e-05
4.41329e-05
5.28095e-05
6.66188e-05
8.47871e-05
0.000105719
0.000127782
0.000149632
0.000170273
0.000188985
0.000204877
0.000217147
3.30493e-05
3.29956e-05
3.29401e-05
3.28823e-05
3.28221e-05
3.27593e-05
3.26937e-05
3.26251e-05
3.25533e-05
3.2478e-05
3.2399e-05
3.2316e-05
3.22285e-05
3.21364e-05
3.20391e-05
3.19362e-05
3.18273e-05
3.17119e-05
3.15892e-05
3.14588e-05
3.13198e-05
3.11714e-05
3.10129e-05
3.08431e-05
3.06611e-05
3.04658e-05
3.02559e-05
3.00295e-05
2.97833e-05
2.95144e-05
2.92199e-05
2.88963e-05
2.85408e-05
2.81506e-05
2.77129e-05
2.72171e-05
2.67011e-05
2.6231e-05
2.57523e-05
2.52652e-05
2.48182e-05
2.43686e-05
2.38727e-05
2.35313e-05
2.34938e-05
2.37035e-05
2.41766e-05
2.49251e-05
2.59362e-05
2.71652e-05
2.85504e-05
3.00416e-05
3.16313e-05
3.33479e-05
3.51129e-05
3.66149e-05
3.77174e-05
3.9306e-05
4.34096e-05
5.19804e-05
6.546e-05
8.28007e-05
0.000102485
0.000123162
0.000143716
0.000163274
0.000181166
0.000196527
0.000208444
2.98086e-05
2.97392e-05
2.96674e-05
2.95927e-05
2.95148e-05
2.94337e-05
2.9349e-05
2.92606e-05
2.91681e-05
2.90713e-05
2.89698e-05
2.88634e-05
2.87515e-05
2.86338e-05
2.85098e-05
2.8379e-05
2.82408e-05
2.80946e-05
2.79397e-05
2.77753e-05
2.76005e-05
2.74143e-05
2.72156e-05
2.70044e-05
2.67794e-05
2.65361e-05
2.62708e-05
2.59813e-05
2.56664e-05
2.53264e-05
2.49621e-05
2.45688e-05
2.41489e-05
2.37216e-05
2.33022e-05
2.29067e-05
2.25491e-05
2.22242e-05
2.19363e-05
2.178e-05
2.18834e-05
2.2122e-05
2.24955e-05
2.30072e-05
2.36616e-05
2.44535e-05
2.53676e-05
2.63754e-05
2.74327e-05
2.84898e-05
2.95179e-05
3.05314e-05
3.15827e-05
3.27188e-05
3.3865e-05
3.47253e-05
3.50653e-05
3.55512e-05
3.82152e-05
4.50969e-05
5.66465e-05
7.14838e-05
8.85322e-05
0.000107043
0.000126022
0.00014441
0.00016149
0.000176427
0.00018813
2.4436e-05
2.43557e-05
2.42728e-05
2.41867e-05
2.40973e-05
2.40045e-05
2.39085e-05
2.38095e-05
2.37073e-05
2.3602e-05
2.34931e-05
2.33804e-05
2.32635e-05
2.31419e-05
2.30151e-05
2.28826e-05
2.27439e-05
2.25985e-05
2.24457e-05
2.22848e-05
2.21153e-05
2.19366e-05
2.17477e-05
2.15477e-05
2.13374e-05
2.11222e-05
2.09067e-05
2.06934e-05
2.04862e-05
2.02972e-05
2.01277e-05
1.99476e-05
1.97997e-05
1.98488e-05
2.00056e-05
2.02229e-05
2.04972e-05
2.08279e-05
2.12106e-05
2.16399e-05
2.21136e-05
2.26256e-05
2.31705e-05
2.37414e-05
2.4327e-05
2.49117e-05
2.54746e-05
2.5991e-05
2.64406e-05
2.68233e-05
2.71724e-05
2.75561e-05
2.80336e-05
2.85845e-05
2.90505e-05
2.91458e-05
2.85716e-05
2.7318e-05
2.67965e-05
2.95381e-05
3.74529e-05
4.7113e-05
5.88214e-05
7.37388e-05
9.09519e-05
0.000108176
0.000124471
0.000138942
0.000149904
1.6373e-05
1.633e-05
1.62857e-05
1.62414e-05
1.62102e-05
1.62118e-05
1.62494e-05
1.63145e-05
1.63972e-05
1.64904e-05
1.65889e-05
1.66894e-05
1.67896e-05
1.68876e-05
1.69821e-05
1.70733e-05
1.71607e-05
1.72404e-05
1.73114e-05
1.73866e-05
1.74736e-05
1.75726e-05
1.76848e-05
1.78111e-05
1.79516e-05
1.81061e-05
1.82744e-05
1.84557e-05
1.8649e-05
1.8853e-05
1.90662e-05
1.92843e-05
1.95023e-05
1.97188e-05
1.99303e-05
2.0131e-05
2.03154e-05
2.04782e-05
2.06147e-05
2.07219e-05
2.08001e-05
2.08518e-05
2.08785e-05
2.08784e-05
2.08469e-05
2.07757e-05
2.06505e-05
2.04601e-05
2.02189e-05
1.9981e-05
1.98235e-05
1.98119e-05
1.99282e-05
2.00291e-05
1.97797e-05
1.8453e-05
1.55735e-05
1.3682e-05
1.28229e-05
1.33723e-05
1.67017e-05
2.19495e-05
2.85906e-05
3.65309e-05
4.53602e-05
5.44288e-05
6.34824e-05
7.25059e-05
8.03047e-05
1.26237e-05
1.27552e-05
1.28862e-05
1.30166e-05
1.31467e-05
1.32777e-05
1.34107e-05
1.35462e-05
1.36839e-05
1.38232e-05
1.39632e-05
1.41028e-05
1.42409e-05
1.43767e-05
1.4509e-05
1.46369e-05
1.47586e-05
1.48748e-05
1.49855e-05
1.50784e-05
1.5147e-05
1.51929e-05
1.52168e-05
1.52187e-05
1.5198e-05
1.51538e-05
1.50845e-05
1.49884e-05
1.48634e-05
1.47073e-05
1.45181e-05
1.42936e-05
1.40324e-05
1.37338e-05
1.33982e-05
1.30273e-05
1.26245e-05
1.21946e-05
1.17439e-05
1.12801e-05
1.08113e-05
1.03422e-05
9.87572e-06
9.41735e-06
8.97241e-06
8.53522e-06
8.09071e-06
7.63454e-06
7.18835e-06
6.77315e-06
6.35967e-06
6.06886e-06
5.7426e-06
5.28374e-06
5.24154e-06
5.00889e-06
4.39422e-06
3.8975e-06
3.7722e-06
2.85054e-06
3.60289e-06
4.84149e-06
6.48456e-06
8.56163e-06
1.06215e-05
1.26762e-05
1.46722e-05
1.66729e-05
1.91131e-05
4.02846e-05
4.02945e-05
4.03054e-05
4.03177e-05
4.03304e-05
4.03352e-05
4.03329e-05
4.03237e-05
4.03181e-05
4.03108e-05
4.031e-05
4.0313e-05
4.03169e-05
4.033e-05
4.03331e-05
4.03329e-05
4.03259e-05
4.03293e-05
4.03523e-05
4.03711e-05
4.0357e-05
4.0308e-05
4.03047e-05
4.02709e-05
4.02373e-05
4.0233e-05
4.02494e-05
4.02814e-05
4.02766e-05
4.02728e-05
4.02539e-05
4.02502e-05
4.02293e-05
4.02194e-05
4.02159e-05
4.02129e-05
4.02055e-05
4.01898e-05
4.01822e-05
4.02001e-05
4.02167e-05
4.01809e-05
4.01544e-05
4.01382e-05
4.01451e-05
4.01501e-05
4.01417e-05
4.01271e-05
4.01015e-05
4.00725e-05
4.00576e-05
4.00554e-05
4.006e-05
4.00644e-05
4.00737e-05
4.00762e-05
4.00699e-05
4.00618e-05
4.00535e-05
4.02798e-05
4.02886e-05
4.02954e-05
4.02996e-05
4.02996e-05
4.0294e-05
4.02861e-05
4.02797e-05
4.0277e-05
4.02767e-05
4.028e-05
4.02856e-05
4.02927e-05
4.02979e-05
4.02981e-05
4.0298e-05
4.03022e-05
4.03175e-05
4.03359e-05
4.03362e-05
4.03059e-05
4.02738e-05
4.02623e-05
4.02281e-05
4.02056e-05
4.02099e-05
4.0231e-05
4.02567e-05
4.02532e-05
4.02454e-05
4.0228e-05
4.02223e-05
4.02031e-05
4.01939e-05
4.01903e-05
4.0187e-05
4.01799e-05
4.01657e-05
4.0157e-05
4.01679e-05
4.01848e-05
4.01655e-05
4.01405e-05
4.01192e-05
4.01121e-05
4.01136e-05
4.01116e-05
4.01051e-05
4.0092e-05
4.00698e-05
4.00469e-05
4.00319e-05
4.00258e-05
4.00255e-05
4.00314e-05
4.00401e-05
4.00527e-05
4.00599e-05
4.00576e-05
4.0256e-05
4.02575e-05
4.02564e-05
4.0253e-05
4.02482e-05
4.02434e-05
4.02399e-05
4.02389e-05
4.02406e-05
4.02443e-05
4.02496e-05
4.02553e-05
4.02602e-05
4.02627e-05
4.02652e-05
4.02715e-05
4.0284e-05
4.02989e-05
4.03041e-05
4.02888e-05
4.0258e-05
4.02353e-05
4.02167e-05
4.01873e-05
4.01759e-05
4.01868e-05
4.02101e-05
4.02304e-05
4.02267e-05
4.02158e-05
4.01999e-05
4.01924e-05
4.01752e-05
4.01666e-05
4.01629e-05
4.01594e-05
4.01525e-05
4.01395e-05
4.01304e-05
4.01359e-05
4.015e-05
4.01424e-05
4.01222e-05
4.01009e-05
4.00859e-05
4.00796e-05
4.00767e-05
4.0073e-05
4.00676e-05
4.00562e-05
4.00382e-05
4.00191e-05
4.0004e-05
3.99949e-05
3.99915e-05
3.99941e-05
4.00027e-05
4.00129e-05
4.00217e-05
4.02069e-05
4.02046e-05
4.02018e-05
4.01991e-05
4.01973e-05
4.01969e-05
4.01982e-05
4.02011e-05
4.02054e-05
4.02103e-05
4.02156e-05
4.02204e-05
4.02247e-05
4.02295e-05
4.02371e-05
4.02485e-05
4.0261e-05
4.02672e-05
4.02592e-05
4.02367e-05
4.02108e-05
4.01914e-05
4.01699e-05
4.01487e-05
4.01469e-05
4.01629e-05
4.01864e-05
4.0202e-05
4.01967e-05
4.01839e-05
4.01693e-05
4.01605e-05
4.0145e-05
4.0137e-05
4.01333e-05
4.01295e-05
4.01228e-05
4.01109e-05
4.01016e-05
4.01031e-05
4.01135e-05
4.01125e-05
4.00984e-05
4.00797e-05
4.00622e-05
4.00498e-05
4.00422e-05
4.00367e-05
4.00327e-05
4.00281e-05
4.00188e-05
4.00048e-05
3.99889e-05
3.99745e-05
3.99634e-05
3.99569e-05
3.99556e-05
3.99592e-05
3.9966e-05
4.01492e-05
4.01486e-05
4.01486e-05
4.01495e-05
4.01516e-05
4.01546e-05
4.01585e-05
4.0163e-05
4.01679e-05
4.0173e-05
4.01784e-05
4.01841e-05
4.01907e-05
4.01993e-05
4.021e-05
4.02208e-05
4.02266e-05
4.02222e-05
4.0206e-05
4.01832e-05
4.01619e-05
4.01435e-05
4.01237e-05
4.01117e-05
4.0118e-05
4.01374e-05
4.01596e-05
4.01706e-05
4.01634e-05
4.01494e-05
4.01358e-05
4.01262e-05
4.01124e-05
4.01049e-05
4.01012e-05
4.00971e-05
4.00905e-05
4.00795e-05
4.00701e-05
4.00688e-05
4.00754e-05
4.00774e-05
4.00688e-05
4.00537e-05
4.00369e-05
4.00219e-05
4.00101e-05
4.0001e-05
3.99944e-05
3.99902e-05
3.99859e-05
3.99788e-05
3.99683e-05
3.99556e-05
3.99426e-05
3.9931e-05
3.99222e-05
3.99171e-05
3.99157e-05
4.00955e-05
4.00978e-05
4.01006e-05
4.0104e-05
4.01079e-05
4.01123e-05
4.0117e-05
4.0122e-05
4.01276e-05
4.01337e-05
4.01406e-05
4.01485e-05
4.01576e-05
4.01677e-05
4.01769e-05
4.01819e-05
4.01791e-05
4.01671e-05
4.01485e-05
4.01284e-05
4.01103e-05
4.00932e-05
4.00786e-05
4.00757e-05
4.00882e-05
4.01094e-05
4.0129e-05
4.01356e-05
4.01264e-05
4.01121e-05
4.00992e-05
4.00893e-05
4.00768e-05
4.00698e-05
4.00661e-05
4.00618e-05
4.00552e-05
4.00449e-05
4.00355e-05
4.00321e-05
4.00355e-05
4.0038e-05
4.00334e-05
4.00221e-05
4.00074e-05
3.99925e-05
3.9979e-05
3.99669e-05
3.99568e-05
3.99496e-05
3.99449e-05
3.99408e-05
3.99354e-05
3.99277e-05
3.99181e-05
3.99073e-05
3.98966e-05
3.98872e-05
3.98795e-05
4.00452e-05
4.0049e-05
4.0053e-05
4.00574e-05
4.0062e-05
4.00671e-05
4.00726e-05
4.00788e-05
4.00858e-05
4.00935e-05
4.01021e-05
4.01113e-05
4.01205e-05
4.01282e-05
4.01322e-05
4.013e-05
4.01208e-05
4.01057e-05
4.00883e-05
4.00715e-05
4.00559e-05
4.00421e-05
4.00347e-05
4.00398e-05
4.00566e-05
4.00778e-05
4.00939e-05
4.00963e-05
4.00856e-05
4.00713e-05
4.00591e-05
4.00492e-05
4.0038e-05
4.00314e-05
4.00276e-05
4.00231e-05
4.00165e-05
4.00068e-05
3.99973e-05
3.99924e-05
3.99931e-05
3.99948e-05
3.99924e-05
3.99845e-05
3.99725e-05
3.99588e-05
3.99454e-05
3.99325e-05
3.99203e-05
3.99099e-05
3.99021e-05
3.98966e-05
3.98923e-05
3.98878e-05
3.98822e-05
3.98753e-05
3.98673e-05
3.98587e-05
3.98501e-05
3.99931e-05
3.99976e-05
4.00023e-05
4.00074e-05
4.0013e-05
4.00192e-05
4.0026e-05
4.00335e-05
4.00417e-05
4.00504e-05
4.00591e-05
4.00672e-05
4.00734e-05
4.00763e-05
4.00743e-05
4.0067e-05
4.0055e-05
4.00406e-05
4.0026e-05
4.00121e-05
3.99996e-05
3.99911e-05
3.99913e-05
4.00027e-05
4.00219e-05
4.00416e-05
4.00536e-05
4.00523e-05
4.00406e-05
4.00267e-05
4.00151e-05
4.00053e-05
3.99952e-05
3.99891e-05