/*--------------------------------*- C++ -*----------------------------------*\
| =========                 |                                                 |
| \\      /  F ield         | OpenFOAM: The Open Source CFD Toolbox           |
|  \\    /   O peration     | Version:  2312                                  |
|   \\  /    A nd           | Website:  www.openfoam.com                      |
|    \\/     M anipulation  |                                                 |
\*---------------------------------------------------------------------------*/
FoamFile
{
    version     2.0;
    format      ascii;
    arch        "LSB;label=32;scalar=64";
    class       volScalarField;
    location    "500";
    object      p;
}
// * * * * * * * * * * * * * * * * * * * * * * * * * * * * * * * * * * * * * //

dimensions      [0 2 -2 0 0 0 0];

internalField   nonuniform List<scalar> 
76025
(
0.000429867
0.000426014
0.000422066
0.000418235
0.000414209
0.000410085
0.000405643
0.00040136
0.000396954
0.000392507
0.000387853
0.000383063
0.000378219
0.000373408
0.000368574
0.000363737
0.000358897
0.000353849
0.00034888
0.000344085
0.000339271
0.000334168
0.000329139
0.000324206
0.000319337
0.000314594
0.00030981
0.000305
0.000300505
0.000295725
0.000291218
0.000286907
0.000282774
0.000279107
0.000275572
0.000272168
0.000268763
0.000265406
0.000262611
0.000260153
0.000258032
0.000256147
0.000254578
0.000253681
0.000253308
0.000253045
0.000253231
0.000254155
0.000255856
0.000257923
0.000260617
0.000264041
0.000268289
0.000273571
0.000279877
0.00028684
0.000294882
0.000303764
0.00031369
0.00032486
0.000337727
0.000351011
0.000365937
0.000382054
0.000398449
0.000413927
0.00042836
0.000448951
0.000470531
0.000435448
0.000431193
0.000426964
0.000422805
0.000418549
0.00041409
0.000409563
0.000404979
0.00040024
0.000395388
0.000390434
0.000385466
0.000380492
0.000375476
0.000370393
0.000365288
0.000360065
0.000354869
0.000349622
0.000344452
0.000339146
0.000333872
0.000328675
0.000323539
0.00031842
0.000313347
0.000308326
0.000303479
0.000298662
0.000293895
0.000289322
0.000284811
0.000280559
0.000276633
0.000272732
0.000268988
0.000265338
0.000262072
0.000259292
0.000256782
0.000254604
0.000252685
0.000251225
0.000250315
0.000249794
0.000249649
0.000249962
0.000250981
0.00025267
0.000254962
0.000257919
0.000261669
0.000266341
0.000272024
0.00027874
0.000286418
0.000295178
0.000305095
0.00031621
0.000328729
0.000342927
0.000358284
0.000375126
0.00039325
0.000411878
0.000431242
0.000451367
0.000475124
0.000496157
0.000441237
0.000436689
0.000432166
0.000427709
0.000423155
0.000418446
0.000413594
0.000408617
0.000403539
0.000398378
0.000393167
0.000387922
0.000382627
0.000377271
0.000371853
0.000366355
0.000360823
0.000355275
0.00034972
0.000344143
0.000338572
0.000333049
0.000327571
0.000322131
0.000316735
0.000311402
0.000306167
0.000301019
0.000295933
0.000290958
0.000286112
0.000281428
0.000276969
0.000272717
0.000268622
0.00026474
0.000261121
0.000257834
0.000254888
0.000252253
0.000249963
0.000248045
0.000246559
0.000245533
0.000244963
0.000244894
0.000245372
0.000246486
0.00024827
0.000250763
0.00025401
0.000258103
0.00026314
0.000269206
0.000276365
0.000284663
0.000294187
0.000305038
0.000317317
0.000331171
0.000346736
0.000363974
0.000382877
0.000403128
0.000424326
0.000447504
0.000472068
0.000500375
0.000523992
0.000446861
0.000441997
0.000437142
0.000432357
0.000427477
0.000422416
0.000417188
0.000411843
0.000406421
0.000400936
0.000395391
0.000389781
0.000384101
0.000378356
0.000372556
0.000366713
0.00036085
0.000354976
0.000349101
0.000343231
0.000337382
0.000331564
0.000325783
0.000320052
0.000314383
0.000308787
0.000303275
0.000297854
0.000292543
0.000287362
0.000282333
0.000277489
0.000272852
0.000268424
0.00026421
0.000260228
0.000256507
0.000253079
0.000249977
0.000247226
0.000244851
0.000242878
0.000241335
0.000240259
0.000239682
0.00023964
0.00024017
0.000241337
0.000243203
0.000245828
0.000249269
0.000253606
0.000258937
0.000265353
0.000272946
0.000281801
0.000292017
0.000303714
0.000317024
0.0003321
0.000349084
0.000368008
0.000388774
0.000411055
0.000435054
0.000462008
0.000491158
0.000524233
0.000550989
0.000452441
0.000447225
0.000442006
0.000436858
0.000431615
0.000426182
0.000420581
0.000414868
0.000409082
0.000403232
0.000397316
0.00039133
0.000385278
0.000379171
0.000373022
0.000366846
0.000360653
0.000354452
0.000348253
0.000342067
0.000335902
0.000329769
0.000323683
0.000317654
0.000311696
0.000305818
0.000300036
0.000294366
0.000288824
0.000283422
0.000278178
0.000273123
0.000268279
0.000263651
0.000259247
0.00025508
0.000251183
0.000247593
0.000244348
0.000241474
0.000238993
0.000236928
0.000235306
0.000234162
0.000233532
0.000233457
0.000233986
0.00023518
0.000237105
0.000239824
0.000243406
0.000247935
0.000253507
0.000260222
0.000268187
0.000277516
0.000288331
0.000300775
0.000315007
0.000331195
0.000349482
0.00036992
0.000392381
0.000416723
0.000443794
0.000474612
0.000508596
0.00054649
0.000576051
0.00045811
0.000452518
0.000446919
0.000441393
0.000435771
0.000429953
0.000423964
0.000417861
0.000411684
0.000405443
0.000399138
0.000392768
0.000386338
0.000379858
0.000373342
0.0003668
0.000360243
0.00035368
0.000347122
0.00034058
0.000334066
0.000327593
0.000321174
0.000314821
0.000308548
0.000302368
0.000296296
0.000290346
0.000284532
0.000278866
0.000273371
0.000268081
0.000263013
0.000258169
0.000253558
0.000249201
0.000245131
0.000241384
0.000237992
0.00023498
0.00023237
0.000230184
0.000228453
0.00022721
0.000226496
0.000226359
0.000226851
0.000228032
0.000229966
0.000232722
0.000236377
0.00024102
0.00024675
0.000253678
0.000261928
0.00027163
0.000282931
0.000295996
0.000311007
0.000328149
0.000347565
0.000369306
0.000393287
0.000419799
0.000450132
0.000484887
0.000523758
0.000565741
0.000597471
0.000463823
0.000457825
0.000451824
0.0004459
0.000439877
0.000433652
0.000427249
0.000420728
0.000414132
0.000407475
0.000400757
0.000393975
0.000387136
0.000380249
0.000373327
0.000366383
0.000359428
0.000352473
0.000345529
0.00033861
0.000331728
0.000324896
0.000318127
0.000311435
0.000304834
0.000298336
0.000291957
0.000285711
0.000279611
0.000273674
0.000267927
0.0002624
0.000257102
0.000252032
0.000247203
0.000242639
0.000238374
0.000234442
0.000230873
0.000227691
0.000224918
0.000222579
0.000220705
0.000219332
0.000218502
0.000218263
0.00021867
0.000219782
0.000221666
0.000224394
0.000228047
0.000232721
0.000238519
0.000245563
0.000253986
0.000263937
0.000275584
0.000289112
0.000304723
0.000322611
0.00034292
0.000365724
0.000391131
0.00042
0.000453598
0.000492212
0.000535338
0.000579963
0.000613116
0.000469511
0.000463077
0.000456644
0.000450294
0.000443842
0.000437182
0.000430337
0.000423372
0.000416333
0.000409233
0.000402075
0.000394855
0.000387579
0.000380258
0.000372906
0.000365536
0.000358163
0.000350797
0.000343451
0.000336139
0.000328873
0.000321666
0.000314532
0.000307486
0.00030054
0.000293709
0.000287007
0.000280449
0.00027405
0.000267827
0.000261812
0.000256026
0.00025047
0.000245147
0.000240075
0.00023528
0.000230796
0.000226657
0.000222889
0.000219516
0.000216558
0.000214042
0.000211997
0.000210461
0.000209476
0.000209091
0.000209361
0.000210346
0.000212114
0.00021474
0.000218308
0.000222917
0.000228676
0.000235715
0.000244177
0.000254226
0.000266047
0.000279843
0.000295827
0.000314198
0.000335121
0.000358769
0.000385619
0.000416926
0.000453516
0.00049554
0.000541414
0.000586641
0.000620137
0.000475156
0.000468258
0.000461362
0.000454553
0.000447641
0.000440516
0.000433202
0.000425765
0.000418255
0.000410688
0.000403064
0.000395382
0.000387645
0.000379868
0.000372063
0.000364248
0.000356435
0.000348637
0.000340868
0.00033314
0.000325467
0.000317863
0.000310343
0.00030292
0.000295608
0.000288422
0.000281377
0.000274487
0.000267768
0.000261242
0.000254938
0.00024887
0.000243038
0.000237447
0.000232119
0.00022708
0.000222365
0.000218001
0.000214015
0.000210426
0.000207256
0.000204529
0.000202277
0.000200536
0.000199351
0.000198769
0.000198845
0.000199639
0.000201219
0.000203659
0.000207047
0.000211482
0.00021708
0.000223974
0.000232318
0.000242286
0.000254074
0.000267897
0.000283974
0.000302521
0.000323777
0.000348118
0.000376427
0.000409909
0.000448914
0.000493308
0.000539891
0.000583701
0.000614526
0.00048074
0.000473346
0.000465956
0.000458657
0.000451253
0.00044363
0.000435814
0.000427875
0.000419864
0.000411799
0.00040368
0.000395507
0.000387284
0.000379023
0.000370742
0.000362455
0.000354177
0.000345922
0.000337704
0.000329536
0.000321433
0.00031341
0.00030548
0.00029766
0.000289962
0.000282403
0.000274997
0.000267759
0.000260704
0.00025386
0.000247253
0.000240887
0.000234761
0.000228888
0.000223287
0.000217987
0.000213019
0.000208409
0.000204177
0.000200344
0.00019693
0.00019396
0.000191464
0.00018948
0.000188049
0.000187218
0.000187041
0.000187576
0.000188887
0.000191051
0.000194154
0.000198295
0.000203593
0.000210185
0.000218229
0.000227905
0.000239414
0.000252976
0.000268827
0.000287237
0.000308572
0.000333468
0.000362978
0.000397865
0.000438301
0.000483324
0.000528723
0.000570362
0.000599054
0.000486213
0.000478293
0.000470376
0.000462554
0.000454625
0.000446472
0.00043812
0.000429645
0.000421099
0.000412503
0.000403858
0.000395162
0.000386422
0.000377649
0.000368862
0.000360076
0.000351308
0.000342571
0.00033388
0.00032525
0.000316695
0.000308232
0.000299874
0.000291638
0.000283537
0.000275588
0.000267804
0.000260202
0.000252799
0.000245624
0.000238694
0.00023201
0.000225573
0.000219397
0.000213506
0.000207926
0.000202685
0.000197805
0.000193306
0.000189203
0.000185517
0.000182272
0.000179497
0.000177227
0.000175503
0.00017437
0.000173876
0.000174077
0.000175036
0.000176824
0.000179527
0.000183243
0.000188089
0.000194202
0.000201739
0.000210879
0.000221825
0.000234811
0.000250112
0.000268083
0.000289228
0.000314326
0.000344202
0.000379275
0.000419527
0.000462936
0.0005057
0.000545039
0.000571147
0.000491517
0.000483036
0.000474559
0.000466181
0.000457694
0.000448976
0.000440055
0.000431008
0.000421893
0.000412732
0.000403526
0.000394276
0.000384987
0.000375672
0.000366349
0.000357037
0.000347751
0.000338507
0.00032932
0.000320205
0.000311178
0.000302254
0.000293449
0.000284778
0.000276257
0.0002679
0.000259724
0.000251742
0.000243977
0.000236455
0.000229185
0.000222164
0.000215398
0.000208906
0.000202709
0.000196831
0.000191298
0.000186128
0.000181337
0.000176938
0.000172951
0.000169398
0.000166307
0.000163711
0.000161646
0.000160153
0.000159276
0.000159068
0.000159585
0.000160895
0.000163078
0.000166228
0.000170456
0.000175894
0.000182692
0.000191028
0.000201113
0.000213209
0.000227642
0.000244823
0.000265296
0.000289711
0.000318568
0.000352258
0.000390113
0.000429826
0.000468999
0.000505911
0.000530739
0.000496589
0.00048751
0.000478436
0.000469466
0.000460386
0.000451067
0.000441541
0.000431887
0.000422167
0.000412406
0.000402606
0.000392768
0.000382896
0.000373007
0.000363119
0.00035325
0.000343419
0.000333641
0.000323931
0.000314307
0.000304784
0.000295378
0.000286105
0.000276981
0.000268021
0.000259241
0.000250655
0.000242279
0.000234141
0.000226257
0.00021863
0.000211258
0.000204152
0.00019733
0.000190813
0.000184623
0.000178781
0.000173301
0.000168195
0.000163476
0.00015916
0.000155269
0.000151827
0.000148863
0.000146409
0.000144502
0.000143178
0.000142484
0.00014247
0.000143196
0.000144734
0.000147169
0.000150603
0.000155157
0.000160975
0.000168239
0.000177177
0.000188068
0.000201231
0.000217021
0.00023585
0.000258144
0.000284422
0.000314849
0.000348246
0.000383099
0.000418211
0.000451869
0.000472927
0.000501352
0.000491635
0.000481925
0.000472325
0.000462612
0.000452656
0.000442486
0.000432188
0.000421826
0.000411429
0.000400999
0.000390537
0.000380051
0.000369554
0.000359068
0.000348613
0.000338207
0.000327868
0.000317611
0.000307453
0.000297411
0.000287502
0.000277742
0.000268147
0.000258732
0.000249513
0.000240505
0.000231726
0.000223202
0.000214943
0.000206944
0.000199209
0.000191751
0.000184589
0.000177739
0.000171223
0.000165054
0.000159245
0.000153803
0.000148741
0.000144071
0.000139813
0.000135988
0.000132619
0.000129733
0.000127359
0.000125526
0.000124273
0.000123639
0.000123676
0.000124444
0.000126014
0.000128477
0.000131944
0.000136558
0.000142504
0.000149994
0.000159245
0.000170446
0.000183784
0.000199538
0.000218214
0.000240384
0.000265831
0.00029381
0.000323814
0.000355209
0.000385815
0.000407216
0.000505714
0.000495314
0.000484926
0.000474653
0.000464267
0.000453631
0.000442777
0.000431794
0.00042075
0.000409677
0.00039858
0.000387458
0.00037632
0.000365181
0.000354065
0.000342991
0.000331981
0.000321051
0.000310219
0.000299502
0.000288919
0.000278484
0.000268217
0.000258132
0.000248245
0.000238571
0.000229126
0.000219933
0.000211012
0.000202361
0.00019398
0.000185874
0.000178059
0.000170549
0.000163361
0.00015651
0.000150006
0.000143855
0.000138065
0.000132644
0.000127603
0.000122956
0.000118722
0.000114917
0.00011156
0.000108672
0.000106275
0.000104394
0.000103059
0.000102308
0.000102186
0.000102755
0.000104092
0.000106302
0.000109512
0.000113859
0.000119444
0.000126299
0.000134431
0.000143969
0.00015534
0.000169249
0.000186121
0.00020593
0.000228634
0.000254078
0.000281682
0.000309645
0.000331526
0.000509566
0.000498438
0.000487325
0.000476336
0.000465233
0.000453874
0.000442293
0.000430582
0.000418816
0.000407026
0.000395222
0.000383403
0.000371578
0.000359764
0.000347984
0.000336262
0.000324618
0.000313071
0.00030164
0.000290343
0.000279197
0.00026822
0.00025743
0.000246842
0.000236472
0.000226335
0.000216449
0.000206837
0.000197508
0.000188456
0.000179683
0.0001712
0.00016302
0.000155155
0.000147618
0.00014042
0.000133566
0.000127061
0.000120908
0.000115113
0.000109684
0.000104632
9.99665e-05
9.56998e-05
9.18416e-05
8.84019e-05
8.53918e-05
8.28247e-05
8.07184e-05
7.90974e-05
7.79964e-05
7.74643e-05
7.75643e-05
7.8365e-05
7.99132e-05
8.21895e-05
8.50834e-05
8.84679e-05
9.23735e-05
9.71331e-05
0.000103428
0.000112047
0.00012353
0.000138217
0.0001562
0.000177131
0.000200564
0.000225148
0.000243029
0.000512762
0.000500854
0.000488966
0.00047721
0.000465342
0.000453212
0.000440855
0.000428369
0.000415832
0.000403282
0.000390726
0.000378167
0.000365613
0.000353084
0.000340604
0.000328197
0.000315887
0.000303692
0.000291633
0.000279727
0.000267994
0.000256452
0.000245117
0.000234006
0.000223135
0.000212519
0.000202182
0.00019214
0.000182391
0.000172934
0.000163772
0.000154918
0.000146381
0.00013817
0.000130294
0.000122758
0.000115563
0.000108709
0.000102198
9.60318e-05
9.02156e-05
8.47542e-05
7.96521e-05
7.49118e-05
7.05338e-05
6.65173e-05
6.2862e-05
5.95703e-05
5.66498e-05
5.41159e-05
5.1992e-05
5.0302e-05
4.90531e-05
4.82024e-05
4.7615e-05
4.70613e-05
4.63328e-05
4.54201e-05
4.45705e-05
4.43628e-05
4.57582e-05
4.96777e-05
5.66761e-05
6.70411e-05
8.05193e-05
9.69278e-05
0.000116395
0.000137766
0.000154571
0.000515168
0.000502428
0.000489716
0.000477146
0.000464465
0.000451517
0.000438339
0.000425033
0.000411682
0.000398329
0.000384982
0.000371645
0.000358329
0.000345052
0.000331841
0.000318723
0.000305722
0.000292859
0.000280154
0.000267626
0.000255296
0.000243182
0.000231301
0.00021967
0.000208302
0.000197218
0.000186436
0.000175962
0.000165791
0.000155924
0.00014637
0.000137137
0.000128233
0.000119664
0.000111435
0.000103547
9.59977e-05
8.87843e-05
8.19058e-05
7.53622e-05
6.91536e-05
6.32792e-05
5.77356e-05
5.25159e-05
4.76094e-05
4.30045e-05
3.86911e-05
3.46639e-05
3.09234e-05
2.74713e-05
2.42969e-05
2.13527e-05
1.85194e-05
1.55718e-05
1.22011e-05
8.17008e-06
3.47045e-06
-1.74566e-06
-7.04426e-06
-1.13897e-05
-1.36406e-05
-1.32231e-05
-9.82674e-06
-3.43948e-06
5.67475e-06
1.79128e-05
3.38598e-05
5.25675e-05
6.80962e-05
0.000516504
0.000502869
0.000489266
0.00047582
0.000462264
0.000448438
0.000434376
0.00042019
0.000405967
0.000391753
0.000377561
0.000363394
0.000349263
0.00033519
0.000321202
0.000307329
0.000293596
0.000280025
0.000266637
0.000253453
0.000240493
0.000227775
0.000215318
0.000203137
0.000191252
0.000179686
0.00016845
0.000157542
0.000146959
0.000136706
0.000126791
0.000117219
0.00010799
9.91091e-05
9.05738e-05
8.23793e-05
7.45195e-05
6.69886e-05
5.97821e-05
5.28962e-05
4.63262e-05
4.00647e-05
3.41003e-05
2.84165e-05
2.29933e-05
1.78099e-05
1.28485e-05
8.0942e-06
3.52827e-06
-8.88281e-07
-5.23991e-06
-9.6868e-06
-1.44908e-05
-1.99743e-05
-2.63473e-05
-3.3611e-05
-4.17559e-05
-5.05327e-05
-5.88919e-05
-6.5586e-05
-7.01401e-05
-7.24629e-05
-7.2338e-05
-6.96604e-05
-6.43289e-05
-5.56744e-05
-4.29904e-05
-2.704e-05
-1.30042e-05
0.000516727
0.000502144
0.000487606
0.000473238
0.000458764
0.000444014
0.000429027
0.000413918
0.000398782
0.00038367
0.000368597
0.000353568
0.000338596
0.000323703
0.00030892
0.000294278
0.000279804
0.000265523
0.000251458
0.000237629
0.000224058
0.000210763
0.000197763
0.000185069
0.000172703
0.000160678
0.000148997
0.000137655
0.000126656
0.000116005
0.000105708
9.57668e-05
8.61822e-05
7.69537e-05
6.80757e-05
5.95405e-05
5.13396e-05
4.34656e-05
3.59118e-05
2.86709e-05
2.17336e-05
1.50858e-05
8.70699e-06
2.56992e-06
-3.35785e-06
-9.11175e-06
-1.47299e-05
-2.02584e-05
-2.57618e-05
-3.13401e-05
-3.71465e-05
-4.34042e-05
-5.03586e-05
-5.81227e-05
-6.66936e-05
-7.62518e-05
-8.67657e-05
-9.72591e-05
-0.000106517
-0.000114215
-0.000120565
-0.000125378
-0.000128202
-0.000128627
-0.000126318
-0.000120731
-0.000111171
-9.81683e-05
-8.61596e-05
0.000515066
0.000499448
0.000483879
0.000468499
0.000453022
0.000437266
0.00042127
0.000405156
0.000389028
0.00037294
0.000356911
0.000340947
0.000325062
0.000309281
0.000293635
0.000278158
0.00026288
0.000247827
0.000233021
0.000218486
0.000204243
0.000190311
0.000176714
0.000163473
0.000150609
0.000138128
0.000126025
0.0001143
0.000102956
9.19962e-05
8.14192e-05
7.12208e-05
6.13975e-05
5.19412e-05
4.28404e-05
3.40829e-05
2.5657e-05
1.75528e-05
9.76172e-06
2.27495e-06
-4.92004e-06
-1.1844e-05
-1.85307e-05
-2.50293e-05
-3.14022e-05
-3.77195e-05
-4.4056e-05
-5.04962e-05
-5.71415e-05
-6.41115e-05
-7.15381e-05
-7.95232e-05
-8.80265e-05
-9.69999e-05
-0.000106749
-0.000117404
-0.000128162
-0.000138044
-0.000146982
-0.000155438
-0.00016341
-0.000170353
-0.000175516
-0.000178348
-0.000178363
-0.000175279
-0.000168607
-0.000158349
-0.000149037
0.000512175
0.000495471
0.000478847
0.000462427
0.000445911
0.000429113
0.000412073
0.000394923
0.000377773
0.000360685
0.000343681
0.000326772
0.000309971
0.000293306
0.000276812
0.000260525
0.000244479
0.000228701
0.000213217
0.00019805
0.000183218
0.000168737
0.000154623
0.000140895
0.000127564
0.000114628
0.000102089
8.99483e-05
7.8213e-05
6.68832e-05
5.59556e-05
4.54271e-05
3.52913e-05
2.55368e-05
1.61508e-05
7.12066e-06
-1.56438e-06
-9.91288e-06
-1.79319e-05
-2.563e-05
-3.30238e-05
-4.01479e-05
-4.70651e-05
-5.38707e-05
-6.06825e-05
-6.76185e-05
-7.47757e-05
-8.223e-05
-9.00484e-05
-9.82933e-05
-0.000106952
-0.000115865
-0.000124899
-0.000134293
-0.000144155
-0.000153819
-0.000162658
-0.000171022
-0.000179659
-0.00018879
-0.000197929
-0.000206333
-0.000213249
-0.000217879
-0.000219639
-0.000218439
-0.000214119
-0.00020644
-0.000199691
0.000505576
0.000487676
0.000469838
0.000452242
0.000434572
0.000416619
0.00039842
0.000380114
0.000361822
0.000343613
0.000325515
0.000307538
0.0002897
0.000272031
0.000254569
0.000237353
0.000220418
0.000203797
0.000187519
0.00017161
0.000156099
0.000141013
0.000126375
0.000112196
9.8475e-05
8.5207e-05
7.23906e-05
6.00265e-05
4.81107e-05
3.66342e-05
2.55887e-05
1.49646e-05
4.74779e-06
-5.0772e-06
-1.45246e-05
-2.36056e-05
-3.23274e-05
-4.06938e-05
-4.87088e-05
-5.63829e-05
-6.37442e-05
-7.08503e-05
-7.77985e-05
-8.47276e-05
-9.18064e-05
-9.91984e-05
-0.000107012
-0.000115249
-0.000123805
-0.00013259
-0.000141454
-0.000150179
-0.000158844
-0.000167531
-0.000175619
-0.000182579
-0.000189086
-0.000196267
-0.00020462
-0.000213899
-0.000223582
-0.000232954
-0.000241176
-0.000247245
-0.000250341
-0.000250365
-0.000247586
-0.000242146
-0.000237551
0.00049839
0.000479233
0.000460222
0.000441459
0.000422618
0.000403496
0.000384134
0.000364681
0.000345266
0.000325966
0.000306813
0.000287821
0.00026901
0.000250413
0.000232071
0.000214026
0.000196316
0.000178968
0.000162008
0.000145454
0.000129326
0.00011365
9.8449e-05
8.37319e-05
6.95019e-05
5.57622e-05
4.2516e-05
2.97609e-05
1.74881e-05
5.68548e-06
-5.66379e-06
-1.65835e-05
-2.71021e-05
-3.72491e-05
-4.70501e-05
-5.65204e-05
-6.5657e-05
-7.44332e-05
-8.28025e-05
-9.07197e-05
-9.81828e-05
-0.000105278
-0.000112189
-0.000119139
-0.000126305
-0.000133783
-0.000141682
-0.000150068
-0.000158611
-0.000166701
-0.000174191
-0.000181254
-0.000188059
-0.000194208
-0.000199166
-0.000203435
-0.000208183
-0.000214268
-0.000221898
-0.000230868
-0.000240779
-0.000250885
-0.000260132
-0.000267292
-0.000271254
-0.000271783
-0.000269523
-0.00026539
-0.000262526
0.00048376
0.000463174
0.000442654
0.00042247
0.000402259
0.00038176
0.000361012
0.000340178
0.000319407
0.000298788
0.000278361
0.000258142
0.000238154
0.000218437
0.000199043
0.00018003
0.000161449
0.000143343
0.000125745
0.000108679
9.21588e-05
7.61903e-05
6.07711e-05
4.58981e-05
3.15717e-05
1.77924e-05
4.55755e-06
-8.14122e-06
-2.03152e-05
-3.19836e-05
-4.31799e-05
-5.39532e-05
-6.43687e-05
-7.45035e-05
-8.4436e-05
-9.42251e-05
-0.00010388
-0.000113323
-0.00012238
-0.000130817
-0.000138467
-0.000145384
-0.000151952
-0.000158669
-0.000165683
-0.000172627
-0.000179236
-0.000185991
-0.000192825
-0.000198427
-0.000202978
-0.000207307
-0.000211023
-0.000213888
-0.000216187
-0.000218493
-0.000221627
-0.000226343
-0.000233019
-0.000241705
-0.000251926
-0.000262643
-0.000272466
-0.00027986
-0.000283541
-0.000283284
-0.000280095
-0.000275656
-0.000273216
0.000470581
0.000448642
0.000426967
0.000405594
0.000384145
0.000362395
0.000340389
0.000318298
0.000296283
0.000274449
0.000252848
0.000231497
0.00021041
0.000189612
0.00016914
0.000149043
0.000129381
0.000110224
9.16341e-05
7.36661e-05
5.63586e-05
3.97296e-05
2.3784e-05
8.51955e-06
-6.07318e-06
-2.00127e-05
-3.33237e-05
-4.60306e-05
-5.81541e-05
-6.97121e-05
-8.07219e-05
-9.12108e-05
-0.000101235
-0.000110903
-0.000120385
-0.000129907
-0.000139677
-0.00014977
-0.000160006
-0.000169911
-0.000178814
-0.000186181
-0.00019221
-0.000197993
-0.000204264
-0.000210291
-0.000214561
-0.000217501
-0.000220566
-0.000223314
-0.000225023
-0.000225926
-0.000226658
-0.000227429
-0.000228201
-0.000229232
-0.00023124
-0.000235048
-0.000241289
-0.000250192
-0.000261025
-0.000272072
-0.00028134
-0.000287231
-0.000288688
-0.000285754
-0.000279811
-0.000273071
-0.000268968
0.000442639
0.000418733
0.000394921
0.000371646
0.000348488
0.000325103
0.00030149
0.000277823
0.000254277
0.000230978
0.000207999
0.000185393
0.00016323
0.000141583
0.000120491
9.99435e-05
7.99313e-05
6.04839e-05
4.16348e-05
2.34061e-05
5.81143e-06
-1.11338e-05
-2.74027e-05
-4.29646e-05
-5.78e-05
-7.18992e-05
-8.52583e-05
-9.78772e-05
-0.00010976
-0.000120915
-0.00013135
-0.000141083
-0.000150157
-0.000158675
-0.000166828
-0.000174906
-0.000183239
-0.000192044
-0.000201266
-0.000210505
-0.000218934
-0.000225463
-0.000229596
-0.000232422
-0.000235318
-0.000238297
-0.000240145
-0.000240619
-0.000240243
-0.000239456
-0.000238364
-0.000237012
-0.000235634
-0.000234589
-0.000234115
-0.000234492
-0.000236277
-0.000240118
-0.000246714
-0.000256305
-0.00026768
-0.00027811
-0.000284935
-0.000287019
-0.000284103
-0.000276707
-0.00026627
-0.000255282
-0.000247945
0.000421933
0.000397011
0.000372414
0.000347858
0.000323079
0.000298032
0.00027283
0.00024764
0.000222609
0.00019782
0.000173292
0.000148995
0.00012496
0.000101355
7.83793e-05
5.61735e-05
3.47971e-05
1.42458e-05
-5.46528e-06
-2.42887e-05
-4.21846e-05
-5.9139e-05
-7.51712e-05
-9.03283e-05
-0.000104673
-0.000118284
-0.000131257
-0.000143691
-0.000155669
-0.000167234
-0.000178365
-0.000188958
-0.000198835
-0.000207786
-0.000215662
-0.000222478
-0.000228444
-0.000233623
-0.000238031
-0.000241902
-0.00024548
-0.000248531
-0.000250477
-0.000251241
-0.000251057
-0.000250494
-0.000249862
-0.000249113
-0.000248128
-0.000246808
-0.000245042
-0.00024271
-0.000239828
-0.000236849
-0.000234607
-0.000233914
-0.000235285
-0.00023884
-0.000245024
-0.000254521
-0.000265897
-0.000274807
-0.000277702
-0.000274086
-0.000264529
-0.000250301
-0.000233502
-0.00021709
-0.000204931
0.000369129
0.000341896
0.00031497
0.000288491
0.00026191
0.000234931
0.000207736
0.000180669
0.000153985
0.000127805
0.000102184
7.71912e-05
5.28678e-05
2.91926e-05
6.21241e-06
-1.59063e-05
-3.69636e-05
-5.68221e-05
-7.54552e-05
-9.29112e-05
-0.000109239
-0.000124469
-0.000138622
-0.000151716
-0.000163768
-0.000174803
-0.000184863
-0.000194004
-0.000202299
-0.000209826
-0.000216661
-0.000222869
-0.000228492
-0.000233563
-0.000238125
-0.000242265
-0.000246062
-0.000249366
-0.000251968
-0.000253834
-0.000255063
-0.000255812
-0.000256121
-0.000255886
-0.000255126
-0.000253996
-0.000252671
-0.000251238
-0.000249713
-0.000248086
-0.000246319
-0.000244343
-0.000242124
-0.000239727
-0.000237276
-0.000235146
-0.000234361
-0.00023619
-0.00024172
-0.000252271
-0.000266907
-0.000280034
-0.000285239
-0.000279113
-0.00026248
-0.000239358
-0.00021382
-0.000188881
-0.000169377
-6.99932e-05
-6.01332e-05
-4.96081e-05
-3.86322e-05
-2.69608e-05
-1.44389e-05
-9.82771e-07
1.31311e-05
2.77374e-05
4.32302e-05
5.97153e-05
7.70184e-05
9.47943e-05
0.000113936
0.000132939
0.000152964
0.000172984
0.000194073
0.000215117
0.000235763
0.000257801
0.000279042
0.000300025
0.000320187
0.00033983
0.000358776
0.000376353
0.00039299
0.000409041
0.00042298
0.000435431
0.000446396
0.000456266
0.000464753
0.00047134
0.000476625
0.00048088
0.00048346
0.000484933
0.000485759
0.000485049
0.000484017
0.000482848
0.000481084
0.000478322
0.000475569
0.000472303
0.000469007
0.000465319
0.000461675
0.000458076
0.000454466
0.000451164
0.00044785
0.000444662
0.000441361
0.000438391
0.000435479
0.00043283
-7.79983e-05
-6.78379e-05
-5.70091e-05
-4.54973e-05
-3.32347e-05
-2.01909e-05
-6.30933e-06
8.36969e-06
2.38005e-05
4.00417e-05
5.70937e-05
7.49851e-05
9.3666e-05
0.000113106
0.000133204
0.000153799
0.000175098
0.000196751
0.000218771
0.000240557
0.000262856
0.000285067
0.000306732
0.000327698
0.000347936
0.00036751
0.000385952
0.000403094
0.000419322
0.000433939
0.000446609
0.000457925
0.000467838
0.000476267
0.00048296
0.000488161
0.000492213
0.000494889
0.00049617
0.000496526
0.000496029
0.000494917
0.000493191
0.000490679
0.000487785
0.000484563
0.000481085
0.000477478
0.000473591
0.000469663
0.000465791
0.00046196
0.000458168
0.000454577
0.000451046
0.000447733
0.000444649
0.00044168
0.000438854
-8.68132e-05
-7.62566e-05
-6.50283e-05
-5.304e-05
-4.02732e-05
-2.66897e-05
-1.22887e-05
2.93767e-06
1.9016e-05
3.59637e-05
5.37576e-05
7.23783e-05
9.18172e-05
0.000112014
0.000132902
0.000154477
0.000176654
0.000199285
0.000222145
0.000245041
0.000268098
0.000291051
0.000313554
0.00033537
0.000356485
0.000376761
0.000395874
0.000413723
0.000430377
0.000445373
0.000458619
0.000470261
0.000480252
0.000488628
0.000495309
0.000500461
0.000504313
0.000506903
0.000508163
0.000508451
0.000507847
0.0005064
0.000504207
0.000501317
0.000498042
0.000494461
0.000490588
0.000486539
0.000482368
0.000478171
0.00047402
0.000469909
0.000465863
0.000461931
0.000458181
0.000454611
0.000451213
0.00044797
0.000444914
-9.60947e-05
-8.5125e-05
-7.34566e-05
-6.10087e-05
-4.77569e-05
-3.36637e-05
-1.87153e-05
-2.89476e-06
1.38205e-05
3.14444e-05
4.99691e-05
6.93753e-05
8.96374e-05
0.000110689
0.000132456
0.000154918
0.000177974
0.000201524
0.000225326
0.000249282
0.000273302
0.000297129
0.000320522
0.000343264
0.000365276
0.000386329
0.000406155
0.000424701
0.000441872
0.000457323
0.000471077
0.000483077
0.000493279
0.000501746
0.000508448
0.000513574
0.000517299
0.000519729
0.000520859
0.000520942
0.00052004
0.000518226
0.000515664
0.000512466
0.000508783
0.000504775
0.000500483
0.000496013
0.00049146
0.000486893
0.000482364
0.000477902
0.000473545
0.000469316
0.00046525
0.000461348
0.000457625
0.000454085
0.000450787
-0.000106111
-9.4697e-05
-8.25528e-05
-6.9601e-05
-5.58176e-05
-4.11635e-05
-2.56137e-05
-9.14679e-06
8.25288e-06
2.65933e-05
4.58729e-05
6.60799e-05
8.71843e-05
0.000109124
0.000131826
0.000155224
0.000179233
0.000203734
0.000228541
0.000253533
0.000278556
0.000303351
0.000327705
0.000351414
0.000374323
0.000396188
0.000416778
0.000436008
0.000453745
0.00046971
0.000483925
0.000496296
0.000506779
0.0005154
0.000522167
0.000527288
0.000530913
0.000533159
0.000534069
0.000533838
0.000532565
0.000530369
0.000527415
0.000523822
0.00051972
0.000515269
0.000510558
0.000505679
0.000500717
0.000495736
0.000490795
0.000485939
0.000481205
0.000476622
0.000472213
0.000467995
0.000463989
0.000460191
0.000456651
-0.000117105
-0.000105221
-9.25691e-05
-7.90721e-05
-6.4707e-05
-4.94343e-05
-3.32267e-05
-1.60605e-05
2.07935e-06
2.11993e-05
4.1297e-05
6.23596e-05
8.43572e-05
0.000107237
0.000130928
0.000155347
0.000180395
0.000205937
0.000231812
0.000257873
0.000283939
0.000309768
0.000335146
0.000359853
0.000383686
0.000406404
0.000427796
0.000447737
0.000466077
0.000482588
0.000497267
0.000510013
0.000520777
0.000529554
0.000536396
0.000541512
0.000545033
0.000547081
0.000547734
0.000547167
0.000545512
0.000542911
0.000539527
0.000535496
0.000530959
0.000526064
0.000520917
0.000515606
0.000510211
0.000504802
0.00049944
0.000494178
0.000489056
0.000484107
0.000479358
0.000474825
0.000470525
0.000466447
0.00046264
-0.000129141
-0.000116767
-0.000103586
-8.95201e-05
-7.45439e-05
-5.86172e-05
-4.17114e-05
-2.38015e-05
-4.87117e-06
1.50869e-05
3.6069e-05
5.80591e-05
8.10248e-05
0.000104915
0.000129659
0.000155169
0.000181332
0.000208007
0.00023503
0.000262234
0.000289419
0.000316354
0.000342815
0.000368569
0.000393385
0.000417018
0.000439262
0.00045996
0.000478949
0.000496036
0.000511197
0.000524319
0.000535352
0.000544283
0.00055119
0.000556286
0.000559688
0.000561526
0.000561903
0.000560996
0.000558956
0.000555939
0.000552114
0.000547634
0.000542642
0.000537281
0.000531663
0.000525883
0.000520024
0.000514162