/*--------------------------------*- C++ -*----------------------------------*\
| =========                 |                                                 |
| \\      /  F ield         | OpenFOAM: The Open Source CFD Toolbox           |
|  \\    /   O peration     | Version:  2312                                  |
|   \\  /    A nd           | Website:  www.openfoam.com                      |
|    \\/     M anipulation  |                                                 |
\*---------------------------------------------------------------------------*/
FoamFile
{
    version     2.0;
    format      ascii;
    arch        "LSB;label=32;scalar=64";
    class       surfaceScalarField;
    location    "500";
    object      phi;
}
// * * * * * * * * * * * * * * * * * * * * * * * * * * * * * * * * * * * * * //

dimensions      [0 3 -1 0 0 0 0];

oriented        oriented;

internalField   nonuniform List<scalar> 
116611
(
0.000887911
0.000435266
-0.000871798
-0.000451378
0.000903969
0.00043141
-0.000447468
0.000919909
0.000427258
-0.000443197
0.000935693
0.000422745
-0.000438529
0.000951182
0.00041788
-0.000433369
0.000966601
0.00041254
-0.00042796
0.000981645
0.000406839
-0.000421882
0.000996642
0.000400749
-0.000415746
0.00101133
0.000394172
-0.000408864
0.00102583
0.000387187
-0.000401679
0.00104002
0.000379705
-0.000393896
0.00105398
0.000371778
-0.000385742
0.00106765
0.000363363
-0.00037703
0.00108116
0.000354467
-0.000367978
0.00109438
0.000345083
-0.000358305
0.00110728
0.000335272
-0.000348169
0.00112
0.000324824
-0.000337546
0.0011323
0.000313941
-0.000326238
0.00114421
0.000302346
-0.000314264
0.00115574
0.000290341
-0.000301864
0.00116705
0.000277567
-0.00028888
0.00117782
0.000264248
-0.000275021
0.0011882
0.000250308
-0.000260683
0.0011982
0.000235803
-0.000245808
0.00120768
0.000220636
-0.000230116
0.00121677
0.000204811
-0.000213896
0.00122532
0.000188212
-0.000196767
0.00123309
0.000171052
-0.000178819
0.00124071
0.000153107
-0.000160726
0.00124763
0.000134355
-0.000141277
0.00125348
0.000114937
-0.000120788
0.00125863
9.46595e-05
-9.98077e-05
0.00126294
7.36416e-05
-7.79505e-05
0.00126664
5.20968e-05
-5.57959e-05
0.00126949
2.95998e-05
-3.24542e-05
0.00127142
6.45829e-06
-8.38623e-06
0.00127264
-1.78154e-05
1.65942e-05
0.00127235
-4.30296e-05
4.33205e-05
0.00127121
-6.8803e-05
6.9947e-05
0.00126897
-9.54941e-05
9.77289e-05
0.0012657
-0.000122918
0.000126191
0.0012613
-0.000151361
0.000155765
0.00125519
-0.00018073
0.000186838
0.00124842
-0.00021057
0.000217336
0.00124047
-0.000241398
0.000249357
0.00123152
-0.000273004
0.000281951
0.00122104
-0.000305721
0.000316203
0.00120965
-0.000339006
0.000350394
0.00119717
-0.000373123
0.000385605
0.00118335
-0.000408158
0.000421979
0.00116809
-0.000444135
0.00045939
0.00115105
-0.00048102
0.000498063
0.00113206
-0.000518637
0.000537624
0.00111117
-0.000556818
0.000577708
0.00108823
-0.000595528
0.000618465
0.00106342
-0.000634596
0.000659406
0.00103599
-0.000674289
0.000701727
0.0010062
-0.000714228
0.000744015
0.000973554
-0.000754596
0.000787241
0.000936988
-0.000795475
0.000832042
0.000897717
-0.000836395
0.000875666
0.000854627
-0.000878378
0.000921468
0.000808941
-0.000921837
0.000967523
0.000755445
-0.000962905
0.0010164
0.00069071
-0.000989031
0.00105377
0.000625527
-0.00100321
0.00106839
0.000560934
-0.00105887
0.00112346
0.000491676
-0.00117021
0.00123947
-0.00122536
0.000404468
0.00131257
0.000871433
0.000419268
-0.000855435
0.000887343
0.0004155
0.000903186
0.000411415
0.000918915
0.000407016
0.000934526
0.000402269
0.000949897
0.000397169
0.000965047
0.00039169
0.000980004
0.000385792
0.000994706
0.00037947
0.00100919
0.000372706
0.00102339
0.000365506
0.0010373
0.00035786
0.00105093
0.000349737
0.00106427
0.000341125
0.00107731
0.000332049
0.00109012
0.000322453
0.00110258
0.000312367
0.00111478
0.000301746
0.00112653
0.000290597
0.001138
0.000278863
0.00114902
0.000266549
0.00115961
0.00025366
0.00116974
0.000240177
0.00117945
0.000226092
0.0011887
0.000211385
0.0011975
0.000196016
0.0012057
0.000180008
0.00121341
0.000163345
0.00122055
0.000145969
0.00122698
0.00012792
0.00123277
0.000109148
0.0012378
8.96349e-05
0.00124202
6.94201e-05
0.00124561
4.8506e-05
0.00124833
2.68816e-05
0.00125031
4.47521e-06
0.00125134
-1.88408e-05
0.00125129
-4.29792e-05
0.00125036
-6.78775e-05
0.00124844
-9.35717e-05
0.00124559
-0.000120071
0.00124164
-0.000147413
0.0012365
-0.00017559
0.00123043
-0.000204497
0.00122325
-0.000234215
0.00121497
-0.000264728
0.00120535
-0.0002961
0.00119455
-0.000328207
0.0011825
-0.000361068
0.00116905
-0.000394714
0.00115407
-0.000429151
0.00113737
-0.000464316
0.00111882
-0.00050009
0.00109834
-0.000536342
0.0010758
-0.000572985
0.00105114
-0.000609936
0.00102409
-0.000647244
0.000994614
-0.000684748
0.000962371
-0.000722353
0.000926917
-0.000760022
0.000888447
-0.000797924
0.000847029
-0.00083696
0.000801611
-0.000876419
0.000747728
-0.000909023
0.000683575
-0.000924878
0.000619862
-0.000939497
0.000564514
-0.00100352
0.000503162
-0.00110886
-0.00114276
0.000420563
0.000855535
0.000403368
-0.000839635
0.000871313
0.000399722
0.000886987
0.000395741
0.000902566
0.000391436
0.000918033
0.000386803
0.000933364
0.000381838
0.000948533
0.000376521
0.0009635
0.000370825
0.000978234
0.000364736
0.000992711
0.000358229
0.00100692
0.000351296
0.00102086
0.000343923
0.0010345
0.000336097
0.00104782
0.0003278
0.00106084
0.000319027
0.00107354
0.000309757
0.00108592
0.00029999
0.00109796
0.000289707
0.00110965
0.000278902
0.00112096
0.000267552
0.00113186
0.000255655
0.00114232
0.000243193
0.00115235
0.000230153
0.00116192
0.000216523
0.00117101
0.00020229
0.00117959
0.000187437
0.00118764
0.000171956
0.00119516
0.00015583
0.00120207
0.00013905
0.00120839
0.000121603
0.00121406
0.000103475
0.00121903
8.46666e-05
0.00122329
6.51626e-05
0.00122683
4.49694e-05
0.00122958
2.41273e-05
0.00123154
2.52002e-06
0.00123263
-1.99299e-05
0.00123281
-4.31689e-05
0.00123211
-6.7177e-05
0.00123049
-9.19486e-05
0.00122792
-0.000117497
0.00122433
-0.000143827
0.00121968
-0.000170944
0.001214
-0.000198812
0.00120721
-0.000227431
0.00119929
-0.000256803
0.00119013
-0.000286937
0.00117972
-0.000317798
0.00116801
-0.000349356
0.00115489
-0.000381599
0.00114023
-0.000414493
0.00112388
-0.000447969
0.00110572
-0.000481928
0.00108564
-0.000516264
0.00106356
-0.000550898
0.00103939
-0.000585764
0.00101295
-0.000620807
0.00098406
-0.000655859
0.000952461
-0.000690754
0.00091801
-0.000725571
0.000880919
-0.000760833
0.000840883
-0.000796925
0.000795497
-0.000831033
0.000740678
-0.000854204
0.000678232
-0.000862431
0.000620932
-0.000882197
0.000572682
-0.000955273
0.000514445
-0.00105062
-0.00106117
0.000432854
0.000840116
0.000387401
-0.000824148
0.000855899
0.000383939
0.00087151
0.000380129
0.000886969
0.000375977
0.000902288
0.000371484
0.000917474
0.000366651
0.00093252
0.000361475
0.000947401
0.000355945
0.000962089
0.000350048
0.000976553
0.000343765
0.000990772
0.000337077
0.00100473
0.000329969
0.0010184
0.000322427
0.00103176
0.000314436
0.0010448
0.000305983
0.00105751
0.000297054
0.00106986
0.000287634
0.00108186
0.000277713
0.00109348
0.000267278
0.00110471
0.000256321
0.00111554
0.000244829
0.00112594
0.00023279
0.0011359
0.000220193
0.0011454
0.000207025
0.00115441
0.000193275
0.00116292
0.000178929
0.0011709
0.000163974
0.00117833
0.000148401
0.00118518
0.000132199
0.00119143
0.000115356
0.00119704
9.78661e-05
0.00120198
7.97225e-05
0.00120623
6.09106e-05
0.00120976
4.14411e-05
0.00121254
2.13483e-05
0.00121456
5.00931e-07
0.00121578
-2.1147e-05
0.00121615
-4.35426e-05
0.00121565
-6.66789e-05
0.00121426
-9.05519e-05
0.00121193
-0.000115166
0.00120862
-0.000140522
0.00120429
-0.000166617
0.00119892
-0.000193436
0.00119246
-0.000220968
0.00118486
-0.000249208
0.00117607
-0.000278144
0.00116602
-0.000307749
0.00115465
-0.000337982
0.00114185
-0.000368803
0.00112751
-0.000400158
0.00111152
-0.000431975
0.00109377
-0.000464174
0.00107417
-0.000496669
0.00105266
-0.000529387
0.00102914
-0.000562241
0.00100343
-0.000595097
0.000975323
-0.000627756
0.000944691
-0.000660121
0.000911601
-0.000692481
0.000876125
-0.000725356
0.000837173
-0.000757973
0.000791391
-0.000785251
0.000736183
-0.000798996
0.000677614
-0.000803862
0.000628943
-0.000833526
0.000587755
-0.000914085
0.000532083
-0.000994949
-0.000982302
0.000453215
0.000824912
0.000371343
-0.000808855
0.000840795
0.000368056
0.000856482
0.000364442
0.000871968
0.00036049
0.000887259
0.000356194
0.000902361
0.000351549
0.000917285
0.000346551
0.000932032
0.000341198
0.000946597
0.000335483
0.000960964
0.000329398
0.000975113
0.000322929
0.00098902
0.000316062
0.00100266
0.000308784
0.00101602
0.000301079
0.00102907
0.000292933
0.00104179
0.000284332
0.00105416
0.000275261
0.00106617
0.000265706
0.00107779
0.000255655
0.00108902
0.000245096
0.00109983
0.000234017
0.00111022
0.000222407
0.00112015
0.000210256
0.00112962
0.000197553
0.00113861
0.000184287
0.0011471
0.000170445
0.00115505
0.000156017
0.00116246
0.000140993
0.0011693
0.000125364
0.00117553
0.00010912
0.00118114
9.22534e-05
0.00118611
7.47586e-05
0.0011904
5.66217e-05
0.00119398
3.78582e-05
0.00119684
1.84928e-05
0.00119896
-1.61863e-06
0.00120029
-2.24824e-05
0.00120081
-4.40568e-05
0.00120047
-6.63402e-05
0.00119925
-8.93311e-05
0.00119711
-0.000113029
0.00119402
-0.000137431
0.00118993
-0.000162532
0.00118482
-0.00018832
0.00117863
-0.000214782
0.00117132
-0.000241901
0.00116283
-0.000269654
0.00115309
-0.000298007
0.00114202
-0.000326913
0.00112954
-0.00035632
0.00111555
-0.000386168
0.00109997
-0.000416393
0.00108272
-0.000446925
0.00106374
-0.000477689
0.00104295
-0.000508596
0.00102022
-0.000539513
0.000995377
-0.000570253
0.000968269
-0.000600648
0.000938927
-0.00063078
0.000907506
-0.000661059
0.000873612
-0.000691463
0.000835121
-0.000719482
0.00078856
-0.00073869
0.000734316
-0.000744752
0.000682582
-0.000752129
0.000644149
-0.000795092
0.000608383
-0.000878319
0.000552906
-0.000939472
-0.000903396
0.000474
0.000810011
0.000355336
-0.000794004
0.000825911
0.000352156
0.000841663
0.00034869
0.000857234
0.00034492
0.000872599
0.000340829
0.000887746
0.000336401
0.000902672
0.000331625
0.000917378
0.000326492
0.000931866
0.000320995
0.000946135
0.000315129
0.000960178
0.000308885
0.000973985
0.000302256
0.000987539
0.00029523
0.00100082
0.000287795
0.00101382
0.000279939
0.0010265
0.000271648
0.00103885
0.000262908
0.00105086
0.000253705
0.00106248
0.000244027
0.00107372
0.000233861
0.00108454
0.000223193
0.00109494
0.000212014
0.00110488
0.000200311
0.00111436
0.000188073
0.00112336
0.000175291
0.00113185
0.000161953
0.00113981
0.00014805
0.00114724
0.000133573
0.00115409
0.000118511
0.00116035
0.000102857
0.001166
8.66058e-05
0.00117101
6.97499e-05
0.00117535
5.22768e-05
0.001179
3.42091e-05
0.00118194
1.55597e-05
0.00118414
-3.82748e-06
0.00118558
-2.39202e-05
0.00118622
-4.46921e-05
0.00118602
-6.6143e-05
0.00118496
-8.82711e-05
0.001183
-0.000111073
0.00118012
-0.000134545
0.00117626
-0.000158677
0.0011714
-0.000183456
0.00116548
-0.000208863
0.00115845
-0.000234874
0.00115026
-0.000261457
0.00114082
-0.000288572
0.00113008
-0.000316173
0.00111797
-0.000344205
0.00110441
-0.000372615
0.00108936
-0.000401342
0.00107276
-0.00043032
0.00105453
-0.000459463
0.00103458
-0.000488647
0.00101276
-0.000517697
0.00098894
-0.000546429
0.000963098
-0.000574806
0.000935396
-0.000603078
0.000905779
-0.000631442
0.000873027
-0.00065871
0.000834231
-0.000680686
0.000787202
-0.000691661
0.000736575
-0.000694125
0.000694994
-0.000710549
0.000666939
-0.000767037
0.000634148
-0.000845529
0.000576918
-0.000882241
-0.000823829
0.000497351
0.000795752
0.000339496
-0.000779912
0.000811527
0.000336382
0.000827208
0.000333008
0.000842765
0.000329364
0.000858162
0.000325432
0.000873368
0.000321195
0.00088836
0.000316633
0.00090312
0.000311732
0.000917637
0.000306478
0.000931904
0.000300861
0.000945917
0.000294872
0.00095967
0.000288503
0.000973155
0.000281745
0.000986362
0.000274588
0.000999279
0.000267022
0.00101189
0.000259036
0.00102418
0.000250618
0.00103613
0.000241757
0.00104772
0.000232439
0.00105893
0.000222653
0.00106973
0.000212386
0.00108012
0.000201627
0.00109006
0.000190365
0.00109955
0.000178588
0.00110856
0.000166285
0.00111706
0.000153447
0.00112505
0.000140064
0.00113249
0.000126127
0.00113938
0.000111628
0.00114568
9.6559e-05
0.00115136
8.09163e-05
0.00115642
6.46904e-05
0.00116083
4.78722e-05
0.00116455
3.0491e-05
0.00116757
1.25407e-05
0.00116987
-6.13516e-06
0.00117143
-2.54744e-05
0.0011722
-4.54637e-05
0.00117216
-6.61027e-05
0.00117128
-8.73883e-05
0.00116952
-0.000109315
0.00116685
-0.000131875
0.00116323
-0.000155057
0.00115861
-0.000178841
0.00115296
-0.000203206
0.00114621
-0.000228123
0.00113831
-0.000253557
0.0011292
-0.000279469
0.00111885
-0.000305816
0.00110719
-0.000332548
0.00109419
-0.000359614
0.0010798
-0.000386953
0.00106396
-0.000414484
0.0010466
-0.000442096
0.00102758
-0.00046963
0.00100679
-0.00049691
0.000984205
-0.000523841
0.000959948
-0.000550549
0.000934114
-0.000577245
0.000906048
-0.000603375
0.000873608
-0.00062627
0.000834041
-0.000641119
0.000788186
-0.000645806
0.00074514
-0.000651079
0.000716405
-0.000681814
0.000697014
-0.000747646
0.000663942
-0.000812456
0.000602961
-0.00082126
-0.000742759
0.00052189
0.000782338
0.000323811
-0.000766652
0.000797943
0.000320777
0.000813462
0.000317489
0.000828883
0.000313942
0.000844186
0.00031013
0.000859344
0.000306037
0.000874329
0.000301649
0.000889112
0.000296948
0.000903671
0.000291919
0.000917985
0.000286548
0.000932037
0.000280821
0.000945814
0.000274726
0.000959306
0.000268253
0.000972503
0.000261391
0.000985394
0.000254131
0.000997967
0.000246462
0.00101021
0.000238375
0.00102211
0.000229857
0.00103365
0.000220899
0.00104481
0.00021149
0.00105558
0.000201618
0.00106593
0.000191273
0.00107586
0.000180442
0.00108533
0.000169117
0.00109433
0.000157286
0.00110283
0.00014494
0.00111083
0.000132069
0.00111829
0.000118665
0.0011252
0.00010472
0.00113153
9.02273e-05
0.00113727
7.51828e-05
0.00114238
5.95756e-05
0.00114685
4.34019e-05
0.00115065
2.66949e-05
0.00115377
9.42034e-06
0.00115619
-8.55397e-06
0.00115787
-2.71562e-05
0.00115878
-4.63802e-05
0.00115891
-6.6224e-05
0.0011582
-8.6683e-05
0.00115663
-0.00010775
0.00115417
-0.000129413
0.00115077
-0.000151657
0.0011464
-0.000174464
0.001141
-0.000197808
0.00113454
-0.000221662
0.00112697
-0.000245994
0.00111827
-0.000270766
0.00110839
-0.000295939
0.00109731
-0.000321466
0.00108499
-0.00034729
0.00107137
-0.000373338
0.0010564
-0.000399507
0.00103996
-0.000425659
0.00102196
-0.000451634
0.00100237
-0.000477322
0.000981304
-0.00050277
0.000958892
-0.000528138
0.00093481
-0.000553163
0.000907539
-0.000576104
0.000874539
-0.00059327
0.00083485
-0.000601431
0.00079371
-0.000604666
0.000762816
-0.000620185
0.000747561
-0.00066656
0.000733005
-0.000733089
0.0006962
-0.000775652
0.000630134
-0.000755194
-0.000657659
0.000545034
0.000769712
0.000308196
-0.000754097
0.000785209
0.00030528
0.00080059
0.000302107
0.000815857
0.000298676
0.000831003
0.000294983
0.000846018
0.000291021
0.000860886
0.00028678
0.000875587
0.000282248
0.000890095
0.00027741
0.000904389
0.000272254
0.000918445
0.000266765
0.000932241
0.00026093
0.000945758
0.000254735
0.00095898
0.000248169
0.000971892
0.00024122
0.000984478
0.000233876
0.000996726
0.000226127
0.00100862
0.000217962
0.00102015
0.000209371
0.0010313
0.000200343
0.00104205
0.000190868
0.00105238
0.000180936
0.00106229
0.000170537
0.00107175
0.000159659
0.00108074
0.000148295
0.00108924
0.000136435
0.00109724
0.000124069
0.00110472
0.00011119
0.00111165
9.77906e-05
0.00111801
8.3865e-05
0.00112378
6.9408e-05
0.00112895
5.44085e-05
0.00113348
3.88697e-05
0.00113735
2.28236e-05
0.00114057
6.20379e-06
0.00114309
-1.1078e-05
0.00114489
-2.89571e-05
0.00114594
-4.74296e-05
0.00114621
-6.64922e-05
0.00114567
-8.61388e-05
0.00114428
-0.00010636
0.00114201
-0.000127145
0.00113883
-0.000148477
0.0011347
-0.000170337
0.0011296
-0.000192704
0.00112349
-0.000215552
0.00111635
-0.00023885
0.00110814
-0.000262565
0.00109886
-0.000286653
0.00108846
-0.000311065
0.0010769
-0.000335731
0.00106412
-0.00036056
0.00105005
-0.000385433
0.0010346
-0.00041021
0.00101775
-0.000434789
0.000999607
-0.000459176
0.00098031
-0.000483473
0.000959705
-0.000507533
0.000936713
-0.000530171
0.000909198
-0.000548588
0.000875568
-0.00055964
0.00083848
-0.000564343
0.000807334
-0.000573519
0.000791916
-0.000604767
0.000787288
-0.000661932
0.000771878
-0.000717679
0.000728148
-0.000731921
0.000657407
-0.000684453
-0.000573915
0.000573663
0.000757734
0.000292594
-0.000742133
0.000773198
0.000289817
0.000788518
0.000286787
0.000803694
0.000283501
0.000818723
0.000279955
0.000833601
0.000276143
0.000848324
0.000272057
0.000862882
0.00026769
0.00087726
0.000263032
0.000891443
0.000258071
0.000905411
0.000252797
0.000919143
0.000247198
0.000932619
0.000241259
0.000945818
0.00023497
0.000958721
0.000228317
0.000971308
0.000221289
0.000983563
0.000213872
0.000995467
0.000206058
0.00100701
0.000197833
0.00101816
0.000189188
0.00102892
0.000180111
0.00103926
0.000170594
0.00104917
0.000160625
0.00105863
0.000150196
0.00106763
0.000139297
0.00107615
0.00012792
0.00108416
0.000116056
0.00109165
0.000103697
0.00109861
9.08373e-05
0.001105
7.74713e-05
0.00111081
6.35933e-05
0.00111603
4.91927e-05
0.00112062
3.42813e-05
0.00112456
1.88815e-05
0.00112786
2.90087e-06
0.00113048
-1.36979e-05
0.00113239
-3.08664e-05
0.00113357
-4.86017e-05
0.00113397
-6.68997e-05
0.00113359
-8.57542e-05
0.00113238
-0.000105156
0.00113033
-0.000125095
0.00112741
-0.000145556
0.0011236
-0.000166522
0.00111887
-0.000187973
0.0011132
-0.000209884
0.00110657
-0.000232224
0.00109896
-0.000254957
0.00109035
-0.000278036
0.00108068
-0.0003014
0.00106992
-0.000324969
0.001058
-0.000348638
0.00104486
-0.000372296
0.00103051
-0.000395854
0.00101502
-0.000419304
0.000998549
-0.000442704
0.000981015
-0.000465938
0.000961624
-0.000488143
0.000938631
-0.000507178
0.00091036
-0.000520317
0.000878055
-0.000527336
0.000848791
-0.000535078
0.00083295
-0.000557678
0.000832454
-0.000604271
0.000831727
-0.000661206
0.000809013
-0.000694965
0.000755718
-0.000678626
0.000680021
-0.000608756
-0.000489842
0.000595948
0.000746352
0.000277001
-0.000730758
0.000761809
0.00027436
0.000777115
0.00027148
0.000792263
0.000268353
0.000807243
0.000264974
0.000822051
0.000261335
0.000836681
0.000257428
0.000851126
0.000253245
0.000865379
0.000248779
0.00087943
0.00024402
0.000893268
0.00023896
0.000906878
0.000233588
0.000920243
0.000227894
0.000933347
0.000221866
0.00094617
0.000215494
0.000958694
0.000208765
0.000970899
0.000201667
0.000982768
0.000194189
0.00099428
0.00018632
0.00100542
0.000178049
0.00101617
0.000169364
0.0010265
0.000160256
0.00103642
0.000150714
0.00104588
0.000140729
0.00105489
0.000130292
0.00106342
0.000119393
0.00107145
0.000108026
0.00107896
9.61829e-05
0.00108594
8.38568e-05
0.00109237
7.10438e-05
0.00109822
5.77361e-05
0.00110349
4.39261e-05
0.00110814
2.96335e-05
0.00111216
1.48644e-05
0.00111555
-4.91243e-07
0.00111827
-1.64205e-05
0.0011203
-3.2896e-05
0.00112161
-4.99154e-05
0.00112219
-6.74753e-05
0.00112201
-8.55699e-05
0.00112104
-0.000104191
0.00111927
-0.000123329
0.00111669
-0.000142971
0.00111327
-0.0001631
0.00110899
-0.000183695
0.00110384
-0.00020473
0.00109779
-0.000226173
0.00109081
-0.000247983
0.00108288
-0.000270105
0.00107395
-0.000292472
0.00106398
-0.000314996
0.00105293
-0.000337587
0.00104081
-0.000360182
0.00102773
-0.00038277
0.0010138
-0.000405377
0.00099898
-0.000427881
0.000982641
-0.0004496
0.000963364
-0.000468866
0.000939624
-0.000483437
0.000912001
-0.000492694
0.000885899
-0.000501234
0.000870854
-0.000520034
0.000872167
-0.000558992
0.000880337
-0.000612441
0.000874401
-0.00065527
0.00083906
-0.000659624
0.000775059
-0.000614625
0.000693822
-0.000527519
-0.00040389
0.000607869
0.000735602
0.00026143
-0.000720031
0.000751043
0.000258919
0.00076634
0.000256183
0.000781478
0.000253215
0.000796446
0.000250006
0.000811233
0.000246549
0.000825827
0.000242833
0.000840222
0.000238851
0.000854406
0.000234594
0.000868373
0.000230053
0.000882113
0.00022522
0.000895615
0.000220086
0.000908868
0.000214641
0.000921857
0.000208877
0.000934569
0.000202782
0.000946988
0.000196346
0.000959097
0.000189558
0.000970879
0.000182407
0.000982316
0.000174883
0.00099339
0.000166975
0.00100408
0.000158671
0.00101438
0.000149961
0.00102426
0.000140836
0.0010337
0.000131286
0.00104269
0.000121301
0.00105121
0.000110873
0.00105924
9.99945e-05
0.00106677
8.86572e-05
0.00107377
7.68555e-05
0.00108023
6.45845e-05
0.00108613
5.18353e-05
0.00109145
3.86049e-05
0.00109617
2.49175e-05
0.00110027
1.0755e-05
0.00110377
-3.99049e-06
0.00110663
-1.9272e-05
0.00110881
-3.50803e-05
0.00111031
-5.14137e-05
0.0011111
-6.82693e-05
0.00111117
-8.56421e-05
0.00111051
-0.000103525
0.00110909
-0.000121907
0.00110689
-0.000140776
0.0011039
-0.000160114
0.00110011
-0.000179899
0.00109548
-0.000200104
0.00109
-0.000220693
0.00108364
-0.000241621
0.00107637
-0.00026283
0.00106815
-0.000284251
0.00105897
-0.000305816
0.00104886
-0.000327483
0.00103793
-0.000349249
0.00102627
-0.000371115
0.00101383
-0.000392934
0.00100007
-0.000414124
0.000983835
-0.000433361
0.000963838
-0.000448869
0.000940448
-0.000460047
0.00091802
-0.000470267
0.000904969
-0.000488182
0.000907749
-0.000522814
0.000921116
-0.000572358
0.000927029
-0.000618354
0.000907506
-0.000635747
0.000857354
-0.000609472
0.000784146
-0.000541417
0.000698523
-0.000441896
-0.00031221
0.000606843
0.000725535
0.000245887
-0.000709992
0.000740951
0.000243503
0.000756227
0.000240908
0.000771349
0.000238092
0.000786305
0.00023505
0.000801081
0.000231773
0.000815664
0.00022825
0.000830042
0.000224473
0.000844204
0.000220432
0.000858137
0.000216119
0.000871832
0.000211525
0.000885278
0.00020664
0.000898462
0.000201457
0.000911375
0.000195964
0.000924002
0.000190154
0.000936332
0.000184016
0.00094835
0.00017754
0.000960042
0.000170716
0.000971392
0.000163533
0.000982384
0.000155982
0.000993002
0.000148053
0.00100323
0.000139734
0.00101305
0.000131017
0.00102244
0.000121891
0.00103139
0.000112349
0.00103989
0.00010238
0.0010479
9.19776e-05
0.00105543
8.11339e-05
0.00106244
6.98433e-05
0.00106893
5.80995e-05
0.00107487
4.58932e-05
0.00108024
3.32287e-05
0.00108503
2.01265e-05
0.00108925
6.53643e-06
0.00109288
-7.61335e-06
0.00109588
-2.2274e-05
0.00109824
-3.74442e-05
0.00109995
-5.31229e-05
0.00110099
-6.93074e-05
0.00110134
-8.59925e-05
0.00110099
-0.000103171
0.00109991
-0.000120833
0.0010981
-0.000138964
0.00109553
-0.000157546
0.00109219
-0.000176556
0.00108805
-0.000195966
0.0010831
-0.000215739
0.0010773
-0.000235827
0.00107065
-0.000256179
0.00106315
-0.000276748
0.00105484
-0.000297509
0.00104583
-0.000318468
0.00103618
-0.000339604
0.0010258
-0.000360738
0.00101421
-0.000381338
0.00100043
-0.000400344
0.000983484
-0.000416418
0.000963794
-0.000429178
0.000945119
-0.000441372
0.00093485
-0.000459998
0.000939425
-0.000492757
0.000955965
-0.000539354
0.000969401
-0.000585794
0.000961668
-0.000610621
0.000924068
-0.000598147
0.000860681
-0.000546084
0.000782012
-0.000462748
0.000697427
-0.000357311
-0.000228575
0.000613792
0.000716172
0.000230365
-0.000700651
0.000731565
0.000228111
0.000746817
0.000225655
0.000761918
0.000222992
0.000776854
0.000220114
0.000791613
0.000217013
0.000806182
0.000213681
0.000820548
0.000210107
0.000834697
0.000206283
0.000848618
0.000202199
0.000862296
0.000197847
0.00087572
0.000193217
0.000888876
0.0001883
0.000901754
0.000183087
0.00091434
0.000177568
0.000926621
0.000171735
0.000938585
0.000165576
0.000950218
0.000159083
0.000961507
0.000152244
0.000972438
0.000145052
0.000982995
0.000137495
0.000993165
0.000129565
0.00100293
0.000121251
0.00101228
0.000112544
0.00102119
0.000103435
0.00102966
9.39165e-05
0.00103765
8.39795e-05
0.00104517
7.36173e-05
0.00105219
6.2824e-05
0.0010587
5.15918e-05
0.00106468
3.9913e-05
0.00107011
2.77995e-05
0.00107498
1.52578e-05
0.0010793
2.2092e-06
0.00108305
-1.13609e-05
0.0010862
-2.54244e-05
0.00108874
-3.99814e-05
0.00109065
-5.50311e-05
0.00109191
-7.05707e-05
0.00109251
-8.65952e-05
0.00109244
-0.000103097
0.00109167
-0.000120066
0.0010902
-0.000137488
0.001088
-0.000155346
0.00108506
-0.000173616
0.00108136
-0.000192269
0.00107689
-0.00021127
0.00107165
-0.000230583
0.00106564
-0.000250178
0.00105894
-0.000270047
0.00105163
-0.000290196
0.00104374
-0.000310582
0.00103513
-0.000330991
0.00102531
-0.000350919
0.0010135
-0.000369524
0.000999039
-0.000385885
0.000982571
-0.00039995
0.000967563
-0.00041417
0.000960518
-0.000434327
0.000967249
-0.000466729
0.000985848
-0.000511355
0.0010035
-0.000557003
0.00100326
-0.000585557
0.000975044
-0.000582406
0.000920257
-0.000543359
0.000847934
-0.000473762
0.000767376
-0.00038219
0.000684532
-0.000274467
-0.000147328
0.000603285
0.00070753
0.00021486
-0.000692025
0.000722906
0.000212735
0.000738139
0.000210422
0.000753219
0.000207912
0.000768134
0.000205199
0.000782873
0.000202275
0.000797422
0.000199132
0.000811769
0.00019576
0.000825902
0.00019215
0.000839806
0.000188294
0.00085347
0.000184183
0.000866878
0.000179808
0.000880019
0.000175159
0.000892879
0.000170227
0.000905445
0.000165003
0.000917703
0.000159477
0.00092964
0.000153638
0.000941244
0.000147479
0.000952501
0.000140988
0.000963397
0.000134156
0.000973919
0.000126973
0.000984054
0.00011943
0.000993787
0.000111518
0.0010031
0.000103226
0.00101199
9.45474e-05
0.00102044
8.54725e-05
0.00102842
7.59936e-05
0.00103594
6.61041e-05
0.00104296
5.57973e-05
0.00104949
4.50639e-05
0.0010555
3.39015e-05
0.00106098
2.23252e-05
0.00106592
1.03177e-05
0.00107033
-2.20436e-06
0.00107418
-1.52124e-05
0.00107746
-2.86987e-05
0.00108014
-4.26637e-05
0.00108221
-5.71063e-05
0.00108367
-7.20239e-05
0.00108448
-8.74117e-05
0.00108465
-0.000103263
0.00108415
-0.000119567
0.00108297
-0.000136311
0.0010811
-0.000153478
0.00107854
-0.000171047
0.00107526
-0.000188993
0.00107128
-0.000207293
0.00106663
-0.000225933
0.00106137
-0.000244915
0.00105556
-0.000264235
0.00104919
-0.000283825
0.00104204
-0.00030344
0.00103365
-0.000322599
0.0010234
-0.000340662
0.00101099
-0.00035712
0.000997409
-0.000372301
0.000985984
-0.000388525
0.000982401
-0.000410588
0.000991481
-0.000443407
0.00101134
-0.000486593
0.00103066
-0.000530674
0.00103405
-0.00056039
0.00101147
-0.000562979
0.000962977
-0.00053391
0.000896258
-0.000476641
0.000820605
-0.000398108
0.00074235
-0.000303935
0.000663545
-0.000195662
-6.61013e-05
0.000582319
0.000699648
0.00019937
-0.000684158
0.000715007
0.000197376
0.000730223
0.000195205
0.000745285
0.00019285
0.000760181
0.000190303
0.000774899
0.000187557
0.000789427
0.000184604
0.000803753
0.000181434
0.000817863
0.00017804
0.000831746
0.000174412
0.000845387
0.000170542
0.000858775
0.00016642
0.000871895
0.000162039
0.000884734
0.000157388
0.000897279
0.000152458
0.000909515
0.00014724
0.000921431
0.000141723
0.000933012
0.000135898
0.000944245
0.000129754
0.000955118
0.000123284
0.000965615
0.000116475
0.000975726
0.00010932
0.000985435
0.000101808
0.000994731
9.39303e-05
0.0010036
8.56782e-05
0.00101203
7.7043e-05
0.00102001
6.80168e-05
0.00102752
5.85929e-05
0.00103455
4.87636e-05
0.0010411
3.85201e-05
0.00104713
2.78662e-05
0.00105265
1.68105e-05
0.00105766
5.30781e-06
0.00106214
-6.68995e-06
0.00106608
-1.91506e-05
0.00106946
-3.20753e-05
0.00107226
-4.54651e-05
0.00107447
-5.93195e-05
0.00107608
-7.36364e-05
0.00107708
-8.84116e-05
0.00107746
-0.000103639
0.0010772
-0.000119309
0.0010763
-0.000135411
0.00107475
-0.00015193
0.00107256
-0.000168851
0.00106973
-0.000186163
0.0010663
-0.000203865
0.00106232
-0.000221954
0.00105782
-0.000240412
0.00105272
-0.000259138
0.00104676
-0.000277869
0.00103949
-0.000296168
0.00103049
-0.000313597
0.00101988
-0.000330056
0.00100904
-0.000346275
0.00100122
-0.00036448
0.00100123
-0.000388542
0.00101263
-0.000421985
0.00103297
-0.00046375
0.00105187
-0.000505487
0.00105558
-0.000534391
0.00103502
-0.000539825
0.000989881
-0.000517841
0.000926916
-0.000470945
0.000854997
-0.000404721
0.000780966
-0.000324078
0.000708389
-0.000231357
0.000637859
-0.000125133
1.74764e-06
0.00057001
0.000692593
0.000183896
-0.000677119
0.000707935
0.000182034
0.000723134
0.000180006
0.000738178
0.000177806
0.000753055
0.000175426
0.000767752
0.000172859
0.000782259
0.000170098
0.000796561
0.000167132
0.000810647
0.000163954
0.000824504
0.000160555
0.000838119
0.000156927
0.000851478
0.000153061
0.00086457
0.000148948
0.00087738
0.000144578
0.000889895
0.000139943
0.000902102
0.000135033
0.000913988
0.000129837
0.000925539
0.000124347
0.000936741
0.000118552
0.000947583
0.000112442
0.000958051
0.000106007
0.000968133
9.92385e-05
0.000977815
9.21259e-05
0.000987085
8.46602e-05
0.000995931
7.68324e-05
0.00100434
6.86337e-05
0.0010123
6.00565e-05
0.0010198
5.10933e-05
0.00102683
4.17347e-05
0.00103337
3.19758e-05
0.00103941
2.18252e-05
0.00104495
1.12726e-05
0.00105
2.5555e-07
0.00105454
-1.12242e-05
0.00105854
-2.31542e-05
0.001062
-3.55364e-05
0.00106491
-4.83722e-05
0.00106725
-6.16616e-05
0.00106902
-7.54029e-05
0.0010702
-8.95929e-05
0.00107079
-0.000104226
0.00107078
-0.000119297
0.00107016
-0.000134797
0.00106895
-0.000150722
0.00106717
-0.000167068
0.00106485
-0.000183837
0.001062
-0.000201018
0.00105861
-0.000218563
0.00105453
-0.00023634
0.00104949
-0.000254094
0.0010431
-0.000271475
0.0010352
-0.000288266
0.00102635
-0.00030475
0.00101833
-0.000322033
0.00101426
-0.000342212
0.00101794
-0.00036816
0.00103137
-0.000401967
0.00105123
-0.000441846
0.0010678
-0.000480324
0.00106909
-0.000506771
0.0010474
-0.000512707
0.0010028
-0.000495227
0.000941498
-0.000456535
0.000871756
-0.000401204
0.000800342
-0.000333307
0.000731223
-0.00025496
0.000665921
-0.000166056
0.000604288
-6.34997e-05
5.886e-05
0.000547176
0.000686428
0.000168437
-0.000670969
0.000701756
0.000166706
0.000716938
0.000164824
0.000731964
0.00016278
0.000746821
0.000160569
0.000761498
0.000158183
0.000775982
0.000155614
0.00079026
0.000152854
0.00080432
0.000149894
0.000818149