/*--------------------------------*- C++ -*----------------------------------*\
| =========                 |                                                 |
| \\      /  F ield         | OpenFOAM: The Open Source CFD Toolbox           |
|  \\    /   O peration     | Version:  2312                                  |
|   \\  /    A nd           | Website:  www.openfoam.com                      |
|    \\/     M anipulation  |                                                 |
\*---------------------------------------------------------------------------*/
FoamFile
{
    version     2.0;
    format      ascii;
    arch        "LSB;label=32;scalar=64";
    class       volVectorField;
    location    "500";
    object      U;
}
// * * * * * * * * * * * * * * * * * * * * * * * * * * * * * * * * * * * * * //

dimensions      [0 1 -1 0 0 0 0];

internalField   nonuniform List<vector> 
76025
(
(0.0336381 -0.00202628 0)
(0.0337522 -0.00213952 1.651e-21)
(0.0338745 -0.00225113 0)
(0.0339981 -0.0023599 0)
(0.03412 -0.0024639 -3.08181e-21)
(0.0342429 -0.00256633 -5.97239e-21)
(0.034366 -0.00266724 1.032e-20)
(0.0344938 -0.00276196 -4.37239e-21)
(0.0346196 -0.00285633 -1.41383e-21)
(0.0347499 -0.00294502 1.38225e-21)
(0.0348784 -0.00303131 -8.45931e-25)
(0.0350091 -0.00311281 3.90792e-21)
(0.0351415 -0.0031939 -5.21338e-21)
(0.0352763 -0.00326731 0)
(0.0354168 -0.00333744 1.23405e-21)
(0.0355561 -0.00340753 0)
(0.0356984 -0.00346849 0)
(0.0358429 -0.00353217 0)
(0.0359865 -0.00358973 1.14125e-21)
(0.0361284 -0.00364929 -1.10528e-21)
(0.0362714 -0.00369956 -1.08104e-21)
(0.0364193 -0.00374793 -3.1789e-21)
(0.0365673 -0.00378823 2.11133e-21)
(0.0367163 -0.00382459 3.0383e-21)
(0.0368651 -0.00386065 -4.51035e-23)
(0.0370117 -0.00389464 9.32758e-22)
(0.0371623 -0.0039174 -2.89488e-21)
(0.0373077 -0.00394128 2.90103e-21)
(0.037452 -0.00396019 -9.55526e-22)
(0.037604 -0.00396307 9.46736e-22)
(0.0377437 -0.00398243 9.29995e-22)
(0.037869 -0.00400264 -1.79332e-21)
(0.0379929 -0.0040036 2.70421e-21)
(0.0381106 -0.00401041 4.41176e-22)
(0.0382259 -0.00400365 -2.22735e-21)
(0.0383322 -0.00400329 7.78763e-24)
(0.0384337 -0.00400755 4.37039e-22)
(0.0385251 -0.00400215 -2.01466e-22)
(0.0385997 -0.00399801 9.53006e-24)
(0.0386645 -0.00398923 2.94568e-22)
(0.0387192 -0.00398361 -1.91069e-22)
(0.0387649 -0.00398524 9.55833e-23)
(0.0387919 -0.00398066 -1.87844e-22)
(0.0388051 -0.00397891 3.71396e-22)
(0.0388132 -0.0039791 3.57879e-22)
(0.0388169 -0.00398749 -7.36461e-22)
(0.0388121 -0.00400584 -7.08645e-22)
(0.0387938 -0.00402039 2.09702e-21)
(0.0387733 -0.00404372 -1.46143e-21)
(0.0387483 -0.00407959 -5.82756e-23)
(0.0387136 -0.00412651 3.60428e-21)
(0.0386633 -0.00418827 1.50643e-21)
(0.0385895 -0.00426542 -1.44838e-21)
(0.0384921 -0.00435885 0)
(0.0383644 -0.00446319 1.61166e-21)
(0.0382173 -0.00457879 1.57467e-21)
(0.0380394 -0.00472239 1.1104e-23)
(0.0378244 -0.00489181 1.69534e-21)
(0.0375824 -0.00510358 -1.84807e-21)
(0.0372801 -0.00536819 5.70355e-21)
(0.0369177 -0.00568245 3.84266e-21)
(0.0365223 -0.0060544 -2.11903e-22)
(0.0361201 -0.00652645 0)
(0.0356675 -0.00706292 -1.17413e-20)
(0.0347543 -0.00752888 5.31393e-21)
(0.0334539 -0.00793664 -2.64235e-21)
(0.0327518 -0.00908399 5.83026e-21)
(0.0333785 -0.0112307 -5.65475e-21)
(0.0328847 -0.0127071 -1.21946e-20)
(0.0334482 -0.00225019 1.74986e-21)
(0.0335693 -0.00236689 5.07797e-21)
(0.033696 -0.00248176 -6.71927e-21)
(0.0338268 -0.00259281 0)
(0.0339595 -0.00270097 7.91264e-21)
(0.0340962 -0.00280565 -1.02297e-22)
(0.0342321 -0.00290706 -6.14023e-21)
(0.0343684 -0.00300546 0)
(0.0345056 -0.00310007 -6.49135e-24)
(0.0346441 -0.0031915 -1.41654e-21)
(0.0347842 -0.00327865 1.38442e-21)
(0.0349247 -0.00336153 -1.59848e-24)
(0.0350646 -0.00344132 0)
(0.0352051 -0.00351697 0)
(0.035348 -0.00358708 2.47659e-21)
(0.0354915 -0.00365549 -6.2232e-21)
(0.0356391 -0.00371762 -1.20105e-21)
(0.0357866 -0.0037782 3.50235e-21)
(0.035936 -0.00383245 -2.32992e-21)
(0.0360836 -0.00388567 1.13046e-21)
(0.0362331 -0.00393337 -1.06699e-21)
(0.0363821 -0.00397729 2.17733e-21)
(0.0365301 -0.00401647 -2.07897e-21)
(0.0366774 -0.00405128 3.08306e-21)
(0.0368251 -0.00408178 -2.04391e-21)
(0.0369727 -0.00410956 -2.9543e-21)
(0.0371196 -0.00413153 1.96606e-21)
(0.037264 -0.00415055 0)
(0.0374067 -0.004166 0)
(0.0375473 -0.0041772 9.05369e-22)
(0.0376814 -0.00418821 0)
(0.0378116 -0.00419479 8.79652e-22)
(0.0379357 -0.00419522 -8.81062e-22)
(0.0380544 -0.00419134 1.32403e-21)
(0.0381687 -0.00418185 2.00142e-23)
(0.0382775 -0.0041711 4.41863e-22)
(0.0383802 -0.0041607 0)
(0.0384716 -0.00415251 8.01188e-22)
(0.0385516 -0.00414182 -5.8114e-22)
(0.0386238 -0.0041296 4.7818e-22)
(0.0386887 -0.00411721 -2.77649e-22)
(0.0387456 -0.00410544 8.82939e-24)
(0.0387907 -0.00409756 -9.40504e-23)
(0.0388254 -0.00408622 8.70892e-23)
(0.0388531 -0.00407778 -6.78192e-22)
(0.0388731 -0.00407135 3.32559e-22)
(0.0388826 -0.00407135 3.18356e-22)
(0.038879 -0.00407307 -6.99243e-22)
(0.0388648 -0.00408035 -2.05364e-21)
(0.0388395 -0.00409593 -2.69236e-23)
(0.0387999 -0.00412207 -2.1057e-21)
(0.0387416 -0.00416091 7.18902e-22)
(0.03866 -0.00421224 2.2407e-21)
(0.0385516 -0.00427458 -1.45364e-21)
(0.0384141 -0.00435056 0)
(0.038245 -0.00444111 -4.74648e-21)
(0.0380435 -0.00455584 -7.28098e-23)
(0.0378041 -0.00469464 1.65675e-21)
(0.0375228 -0.00486325 1.71507e-21)
(0.0371911 -0.00507383 0)
(0.0368042 -0.00533416 -1.97642e-21)
(0.0363937 -0.00567613 -6.15008e-21)
(0.0359675 -0.00609135 0)
(0.0353791 -0.00650421 4.72448e-21)
(0.0342685 -0.00680266 -2.2503e-21)
(0.0328157 -0.00718692 5.31768e-21)
(0.0324239 -0.00844892 -2.67513e-21)
(0.0333094 -0.010407 5.8808e-21)
(0.0327665 -0.0114425 6.19643e-21)
(0.033259 -0.0024864 -8.94301e-21)
(0.0333857 -0.00260697 5.33802e-21)
(0.0335167 -0.00272532 -1.73164e-21)
(0.0336513 -0.00283907 6.68204e-21)
(0.0337902 -0.00294928 -8.28249e-21)
(0.0339338 -0.00305616 -6.36424e-21)
(0.0340806 -0.00315939 7.89167e-21)
(0.0342294 -0.0032589 0)
(0.0343793 -0.00335445 -4.17497e-24)
(0.0345297 -0.0034462 0)
(0.0346805 -0.00353386 -1.41778e-21)
(0.0348317 -0.00361718 1.38344e-21)
(0.0349833 -0.00369606 6.68592e-21)
(0.035135 -0.00377076 -5.3226e-21)
(0.0352869 -0.00384072 1.28634e-21)
(0.0354395 -0.00390632 3.7285e-21)
(0.0355929 -0.00396744 -1.24454e-21)
(0.035747 -0.00402414 -1.19563e-21)
(0.0359018 -0.00407631 -3.44214e-21)
(0.0360569 -0.00412375 2.29181e-21)
(0.0362119 -0.0041669 1.09288e-21)
(0.0363657 -0.00420571 -2.12522e-21)
(0.0365185 -0.00423999 1.09184e-21)
(0.0366706 -0.00426944 1.01322e-21)
(0.0368219 -0.00429424 0)
(0.0369717 -0.00431465 -9.65655e-22)
(0.0371194 -0.0043309 -9.50511e-22)
(0.0372651 -0.00434258 9.83624e-22)
(0.0374086 -0.00434973 0)
(0.037549 -0.00435313 -1.8079e-21)
(0.0376859 -0.0043521 8.70006e-22)
(0.0378187 -0.00434615 -3.94778e-23)
(0.0379463 -0.00433582 0)
(0.0380688 -0.00432013 -4.38624e-22)
(0.0381862 -0.00429846 1.27517e-21)
(0.0382972 -0.00427474 -8.40039e-22)
(0.0384005 -0.00425358 0)
(0.0384952 -0.00423263 -5.80794e-22)
(0.0385816 -0.00420951 5.55886e-22)
(0.0386604 -0.00418495 9.32402e-23)
(0.0387313 -0.00415993 0)
(0.0387935 -0.00413584 1.71288e-22)
(0.0388459 -0.00411313 8.39441e-23)
(0.0388883 -0.0040899 -8.90464e-23)
(0.0389213 -0.00406827 5.00572e-22)
(0.0389441 -0.00404924 3.1088e-22)
(0.0389553 -0.00403476 -6.66904e-22)
(0.0389536 -0.00402367 6.50449e-22)
(0.0389389 -0.00401708 -6.25527e-22)
(0.0389098 -0.00401694 6.46359e-22)
(0.0388636 -0.00402483 6.85625e-22)
(0.0387963 -0.00404167 -1.29807e-21)
(0.0387037 -0.00406744 0)
(0.0385822 -0.00410256 -1.36477e-21)
(0.0384291 -0.0041489 8.31239e-23)
(0.0382429 -0.00420904 1.53804e-21)
(0.0380215 -0.00428823 1.60603e-21)
(0.0377597 -0.004389 -3.2707e-21)
(0.0374502 -0.0045163 -9.15778e-23)
(0.0370877 -0.00467973 -1.72825e-21)
(0.036682 -0.00489416 3.62968e-21)
(0.0362577 -0.0051785 1.79177e-21)
(0.0357767 -0.00551107 -1.16021e-22)
(0.035002 -0.00577698 2.18907e-21)
(0.0336627 -0.00593962 2.5428e-21)
(0.0323323 -0.00636699 7.36071e-21)
(0.0323144 -0.00768375 0)
(0.0331994 -0.00944556 2.89836e-21)
(0.0321926 -0.0100852 -2.74424e-21)
(0.033061 -0.00273646 0)
(0.0332003 -0.00286049 1.8153e-21)
(0.0333415 -0.00298213 8.83364e-21)
(0.0334836 -0.00309878 -7.00469e-21)
(0.0336284 -0.00321106 -5.02618e-21)
(0.0337774 -0.00331965 8.32167e-21)
(0.0339309 -0.00342425 -1.6054e-21)
(0.034088 -0.00352452 1.56984e-21)
(0.0342478 -0.00362041 1.52532e-21)
(0.0344093 -0.00371195 5.88511e-21)
(0.0345719 -0.00379909 -5.85429e-21)
(0.0347354 -0.00388168 -5.57594e-21)
(0.0348995 -0.00395951 1.46572e-21)
(0.035064 -0.00403254 5.34302e-21)
(0.0352284 -0.00410073 -3.9265e-21)
(0.0353926 -0.00416404 1.25859e-21)
(0.0355563 -0.00422258 -1.22344e-21)
(0.0357197 -0.00427619 -1.1892e-21)
(0.0358826 -0.00432497 3.4725e-21)
(0.0360451 -0.00436876 -1.17574e-21)
(0.0362069 -0.00440765 -1.11373e-21)
(0.0363679 -0.00444152 0)
(0.0365278 -0.00447031 -2.03578e-21)
(0.0366865 -0.00449403 1.03579e-21)
(0.0368435 -0.00451283 1.95612e-21)
(0.0369986 -0.00452682 1.87635e-21)
(0.0371515 -0.004536 -3.80483e-21)
(0.0373018 -0.00454028 1.84288e-21)
(0.0374492 -0.00453984 0)
(0.0375932 -0.00453479 1.76294e-21)
(0.0377334 -0.00452515 -3.17913e-23)
(0.0378691 -0.00451095 -1.73153e-21)
(0.0379999 -0.00449237 8.24726e-22)
(0.0381255 -0.00446905 -2.04859e-21)
(0.0382454 -0.00443982 4.30793e-22)
(0.038359 -0.00440942 0)
(0.0384659 -0.00438003 0)
(0.0385658 -0.00434896 -1.76172e-22)
(0.038658 -0.00431591 -1.82522e-22)
(0.0387423 -0.00428136 -8.1953e-23)
(0.0388183 -0.00424599 2.48253e-24)
(0.0388855 -0.00421036 -8.37825e-23)
(0.038943 -0.00417474 0)
(0.0389903 -0.00413903 -1.30673e-23)
(0.0390268 -0.00410407 0)
(0.0390522 -0.0040706 -3.30992e-22)
(0.0390652 -0.0040394 -3.74978e-24)
(0.0390645 -0.0040107 8.76174e-22)
(0.0390486 -0.00398524 0)
(0.0390156 -0.00396408 6.22457e-22)
(0.0389625 -0.00394817 -6.15037e-22)
(0.038886 -0.00393821 1.32176e-21)
(0.0387824 -0.00393487 0)
(0.038649 -0.00393923 4.04441e-21)
(0.0384839 -0.00395326 7.96165e-23)
(0.0382851 -0.00397946 -1.39721e-21)
(0.0380491 -0.0040207 -1.46169e-21)
(0.0377688 -0.00407881 0)
(0.0374371 -0.00415796 0)
(0.0370565 -0.00426983 1.77153e-21)
(0.036646 -0.00443281 -3.72452e-21)
(0.0362086 -0.00465219 -3.93272e-21)
(0.035631 -0.00486853 0)
(0.0346322 -0.00496991 4.15507e-21)
(0.0331553 -0.0050345 0)
(0.0321048 -0.00553065 -7.43129e-21)
(0.0325144 -0.00688783 2.35873e-21)
(0.0332969 -0.00837554 2.73756e-21)
(0.0318195 -0.00857333 2.73341e-21)
(0.0328409 -0.00300471 0)
(0.0329971 -0.00313179 0)
(0.0331547 -0.00325643 1.84711e-21)
(0.0333112 -0.00337584 -7.09965e-21)
(0.0334681 -0.00349044 8.79381e-21)
(0.0336269 -0.00360089 -1.69339e-21)
(0.0337884 -0.00370694 0)
(0.0339526 -0.00380817 -1.60483e-21)
(0.0341197 -0.00390446 0)
(0.0342894 -0.00399581 -3.00584e-21)
(0.0344614 -0.00408227 7.10682e-23)
(0.0346353 -0.00416379 2.90728e-21)
(0.0348104 -0.0042403 0)
(0.0349863 -0.00431171 -2.6762e-21)
(0.0351626 -0.00437796 7.89822e-21)
(0.0353387 -0.00443901 -5.12617e-21)
(0.0355143 -0.00449484 6.21247e-21)
(0.0356892 -0.00454539 -1.2313e-21)
(0.0358631 -0.00459063 1.15913e-21)
(0.0360358 -0.00463054 -1.14517e-21)
(0.0362073 -0.00466505 -1.08068e-21)
(0.0363774 -0.00469412 3.22842e-21)
(0.036546 -0.00471775 2.07496e-21)
(0.0367128 -0.00473596 0)
(0.0368775 -0.00474881 -1.92733e-21)
(0.0370399 -0.00475638 -9.0538e-22)
(0.0371997 -0.0047587 2.82557e-21)
(0.0373564 -0.00475584 -9.19132e-22)
(0.0375098 -0.00474788 1.72669e-21)
(0.0376595 -0.0047349 -2.6165e-21)
(0.037805 -0.0047169 8.12054e-22)
(0.037946 -0.00469382 -3.96343e-22)
(0.038082 -0.00466599 0)
(0.0382127 -0.00463284 4.05672e-22)
(0.0383376 -0.00459314 4.00087e-22)
(0.0384562 -0.00455219 0)
(0.0385682 -0.00451093 -3.43083e-22)
(0.0386728 -0.0044675 5.17592e-22)
(0.0387695 -0.0044221 -3.33543e-22)
(0.0388578 -0.004375 1.58801e-22)
(0.0389374 -0.00432657 2.06774e-24)
(0.0390077 -0.00427716 1.08406e-22)
(0.039068 -0.0042271 -3.66991e-23)
(0.0391177 -0.00417667 -1.50165e-22)
(0.0391561 -0.00412625 1.58935e-23)
(0.0391823 -0.00407639 -8.36825e-22)
(0.0391952 -0.00402764 0)
(0.0391931 -0.0039804 -5.85184e-22)
(0.0391741 -0.00393503 -3.75467e-23)
(0.0391358 -0.00389199 5.61048e-22)
(0.0390757 -0.00385184 0)
(0.0389909 -0.00381526 6.0135e-22)
(0.0388789 -0.00378317 -5.95525e-22)
(0.0387377 -0.00375682 -1.30832e-21)
(0.0385653 -0.00373784 0)
(0.0383584 -0.00372775 2.78741e-21)
(0.0381114 -0.00372767 -2.81465e-21)
(0.0378166 -0.0037392 2.94391e-21)
(0.0374718 -0.00376878 -3.22944e-23)
(0.0370892 -0.00383079 0)
(0.036683 -0.00393788 1.75061e-21)
(0.0362077 -0.004069 -1.88743e-21)
(0.0354757 -0.00413859 -1.79212e-21)
(0.0342518 -0.00408269 -4.30962e-21)
(0.0327935 -0.00411007 6.24825e-21)
(0.0322125 -0.00471038 -4.36729e-21)
(0.032993 -0.00603401 2.14809e-21)
(0.0334916 -0.00717422 -1.9574e-21)
(0.0314898 -0.00692006 -8.0969e-21)
(0.0326042 -0.00329371 -7.93523e-21)
(0.0327733 -0.0034238 1.40068e-22)
(0.0329462 -0.00355127 7.68947e-21)
(0.0331195 -0.00367324 0)
(0.0332931 -0.0037901 -1.79164e-21)
(0.0334675 -0.00390248 0)
(0.0336428 -0.00401008 3.35696e-21)
(0.033819 -0.00411242 -7.47766e-23)
(0.0339964 -0.0042093 -4.83974e-21)
(0.0341755 -0.00430068 1.55334e-21)
(0.0343564 -0.00438659 1.50866e-21)
(0.0345392 -0.00446702 1.45972e-21)
(0.0347235 -0.00454196 0)
(0.0349091 -0.00461137 0)
(0.0350954 -0.00467519 -1.33794e-21)
(0.0352822 -0.00473338 -1.29751e-21)
(0.0354689 -0.0047859 2.46278e-21)
(0.0356552 -0.0048327 -2.4588e-21)
(0.0358406 -0.00487377 -2.34215e-21)
(0.0360248 -0.00490905 2.2316e-21)
(0.0362076 -0.00493853 -4.41759e-21)
(0.0363885 -0.0049622 4.3867e-23)
(0.0365674 -0.00498005 2.0608e-21)
(0.036744 -0.00499209 9.7701e-22)
(0.0369181 -0.00499835 1.89147e-21)
(0.0370893 -0.00499889 -1.89911e-21)
(0.0372575 -0.00499375 -1.77351e-21)
(0.0374223 -0.00498298 1.78371e-21)
(0.0375833 -0.00496663 0)
(0.0377402 -0.00494475 0)
(0.0378927 -0.00491732 -2.00006e-21)
(0.0380403 -0.00488437 5.40968e-23)
(0.0381826 -0.00484634 7.75077e-22)
(0.0383191 -0.00480233 7.31528e-22)
(0.0384495 -0.0047515 -7.41186e-22)
(0.0385731 -0.00470002 0)
(0.0386896 -0.0046474 3.46748e-22)
(0.0387984 -0.0045923 4.63966e-22)
(0.038899 -0.00453489 -3.08049e-22)
(0.038991 -0.00447532 -7.77093e-24)
(0.039074 -0.00441385 2.20359e-23)
(0.0391473 -0.00435076 -1.06432e-22)
(0.0392104 -0.00428633 -6.23102e-23)
(0.0392625 -0.00422082 -1.29891e-22)
(0.0393027 -0.0041545 6.55036e-22)
(0.0393299 -0.00408767 1.55381e-23)
(0.0393425 -0.00402059 0)
(0.0393388 -0.00395341 4.70565e-22)
(0.0393168 -0.00388629 -1.52751e-21)
(0.0392743 -0.00381952 9.89667e-22)
(0.0392094 -0.00375363 5.34227e-22)
(0.03912 -0.00368934 -2.5114e-23)
(0.0390043 -0.00362759 6.12818e-22)
(0.0388604 -0.00356938 5.07883e-23)
(0.0386853 -0.00351551 -1.16533e-21)
(0.038474 -0.00346619 1.17187e-21)
(0.0382196 -0.00342161 1.33474e-21)
(0.0379175 -0.00338469 -2.73033e-21)
(0.0375739 -0.00336503 -1.06087e-22)
(0.0372039 -0.00337561 -1.54812e-21)
(0.0367941 -0.00341287 1.55206e-21)
(0.0362324 -0.00342598 -1.77215e-21)
(0.0352976 -0.00332971 3.79114e-21)
(0.0339215 -0.00315093 1.92477e-21)
(0.0327128 -0.00321145 -4.13178e-21)
(0.0327322 -0.00391292 1.6791e-21)
(0.0337216 -0.00509783 5.75707e-21)
(0.0337435 -0.00581321 2.57526e-21)
(0.0311334 -0.00513007 0)
(0.0323659 -0.00360481 0)
(0.0325423 -0.00373784 -2.0331e-21)
(0.0327252 -0.00386791 1.82106e-23)
(0.0329111 -0.00399214 0)
(0.0330995 -0.0041109 0)
(0.0332901 -0.00422489 -1.80313e-21)
(0.0334822 -0.00433377 5.19376e-21)
(0.0336749 -0.00443703 -6.76139e-21)
(0.0338677 -0.00453439 3.31565e-21)
(0.0340609 -0.00462578 -1.58738e-21)
(0.0342546 -0.00471117 0)
(0.034449 -0.00479052 -1.49083e-21)
(0.0346442 -0.00486379 1.43485e-21)
(0.0348402 -0.00493094 0)
(0.0350368 -0.00499193 0)
(0.0352337 -0.00504674 -1.26926e-21)
(0.0354307 -0.00509537 8.20848e-23)
(0.0356273 -0.00513779 2.46832e-21)
(0.0358233 -0.00517401 2.3272e-21)
(0.0360182 -0.00520401 -2.30115e-21)
(0.0362117 -0.00522778 -1.10421e-21)
(0.0364032 -0.00524534 -4.16477e-21)
(0.0365926 -0.00525669 4.13284e-23)
(0.0367795 -0.00526185 9.22079e-22)
(0.0369635 -0.00526084 -1.92254e-21)
(0.0371444 -0.0052537 8.94351e-22)
(0.0373217 -0.00524049 -1.78872e-21)
(0.0374953 -0.00522123 0)
(0.0376646 -0.00519598 0)
(0.0378295 -0.00516481 0)
(0.0379895 -0.00512768 3.93911e-22)
(0.0381441 -0.00508475 7.51524e-22)
(0.0382929 -0.00503636 -7.30532e-22)
(0.0384357 -0.00498132 -6.81532e-22)
(0.038572 -0.00491936 6.90243e-22)
(0.0387009 -0.00485729 0)
(0.0388226 -0.00479289 -2.98692e-22)
(0.0389364 -0.00472546 1.414e-22)
(0.0390417 -0.00465514 0)
(0.0391382 -0.00458214 -1.31021e-22)
(0.0392253 -0.00450666 2.40099e-23)
(0.0393024 -0.00442894 -1.53741e-23)
(0.0393688 -0.00434917 6.3098e-23)
(0.0394234 -0.0042675 0)
(0.0394653 -0.00418402 2.25821e-22)
(0.0394932 -0.00409883 -2.22772e-22)
(0.0395054 -0.00401196 0)
(0.0395005 -0.00392348 -2.89423e-23)
(0.0394767 -0.00383356 3.81777e-23)
(0.0394325 -0.00374249 -4.88604e-22)
(0.0393666 -0.00365076 0)
(0.0392774 -0.00355893 -7.18458e-23)
(0.0391631 -0.00346753 5.28478e-22)
(0.0390211 -0.00337677 1.52772e-21)
(0.0388469 -0.00328625 -5.14603e-23)
(0.0386343 -0.00319525 -1.19323e-21)
(0.0383781 -0.00310457 0)
(0.0380807 -0.00302003 0)
(0.0377545 -0.00295233 -1.22243e-21)
(0.0374 -0.00290467 0)
(0.0369519 -0.00284846 0)
(0.0362413 -0.00271374 -1.30233e-22)
(0.0351039 -0.00245732 1.61974e-21)
(0.0337545 -0.00222176 3.31167e-21)
(0.0330624 -0.00237709 -3.28851e-21)
(0.0336922 -0.0031234 -5.06972e-22)
(0.0346238 -0.00403901 -1.8554e-21)
(0.0339739 -0.0042705 -1.93802e-21)
(0.0307223 -0.00320348 0)
(0.032132 -0.0039399 0)
(0.0323155 -0.00407578 2.08257e-21)
(0.0325059 -0.00420826 -6.04292e-21)
(0.0327003 -0.00433442 2.00489e-21)
(0.0328988 -0.00445466 0)
(0.0331017 -0.00456975 5.50232e-21)
(0.0333079 -0.00467938 -8.95312e-21)
(0.033516 -0.00478302 8.93419e-23)
(0.0337252 -0.00488041 8.38159e-21)
(0.0339349 -0.00497142 -1.66707e-21)
(0.0341448 -0.00505599 1.56329e-21)
(0.0343547 -0.00513406 1.50828e-21)
(0.0345646 -0.00520553 -4.34091e-21)
(0.0347744 -0.00527032 5.63568e-21)
(0.0349839 -0.0053284 -2.76206e-21)
(0.035193 -0.00537971 1.25553e-21)
(0.0354017 -0.00542427 -5.04431e-21)
(0.0356095 -0.00546208 1.2718e-21)
(0.0358164 -0.00549315 -1.11116e-21)
(0.0360219 -0.00551749 1.19412e-21)
(0.0362258 -0.00553513 8.63951e-23)
(0.0364277 -0.00554608 6.21996e-21)
(0.0366273 -0.00555038 9.29561e-22)
(0.0368242 -0.00554806 -8.28774e-23)
(0.037018 -0.00553915 -2.76939e-21)
(0.0372084 -0.00552371 9.01778e-22)
(0.037395 -0.00550178 -1.64984e-21)
(0.0375775 -0.0054734 2.44071e-21)
(0.0377555 -0.00543865 0)
(0.0379286 -0.00539757 7.2858e-22)
(0.0380964 -0.00535011 -7.34345e-22)
(0.0382585 -0.00529651 3.1349e-23)
(0.0384145 -0.00523698 3.14407e-22)
(0.0385641 -0.00517001 3.01701e-22)
(0.038707 -0.00509641 -8.91664e-22)
(0.0388421 -0.00502268 5.91975e-22)
(0.0389697 -0.00494574 -3.92752e-22)
(0.039089 -0.00486532 5.13341e-22)
(0.0391995 -0.00478158 -2.47349e-22)
(0.0393008 -0.0046947 6.1941e-23)
(0.0393922 -0.00460478 0)
(0.0394729 -0.00451192 -5.19577e-23)
(0.0395423 -0.00441619 5.12014e-23)
(0.0395992 -0.00431758 9.77629e-23)
(0.0396426 -0.00421607 -2.88199e-22)
(0.0396713 -0.00411166 1.68555e-22)
(0.0396841 -0.00400438 1.87225e-22)
(0.0396799 -0.00389432 0)
(0.0396575 -0.00378165 7.24361e-22)
(0.0396159 -0.00366657 -7.7479e-22)
(0.0395539 -0.00354933 4.39205e-22)
(0.0394698 -0.00343002 -4.28828e-22)
(0.0393613 -0.00330839 -3.62979e-22)
(0.0392243 -0.00318363 -9.16263e-22)
(0.0390536 -0.00305447 -1.01039e-21)
(0.0388441 -0.00292048 0)
(0.0385964 -0.00278482 9.50474e-22)
(0.0383197 -0.00265538 0)
(0.0380195 -0.00253735 4.98065e-23)
(0.037658 -0.00241432 1.32435e-21)
(0.037111 -0.0022338 -1.27588e-21)
(0.0362104 -0.00193642 -1.4942e-21)
(0.0349728 -0.00156283 1.34431e-21)
(0.033939 -0.00135667 -1.27106e-22)
(0.0339764 -0.00162755 1.25045e-22)
(0.0350426 -0.00230316 -4.40509e-21)
(0.0355823 -0.00281984 -1.46144e-21)
(0.0341081 -0.00253595 -2.19096e-21)
(0.0301891 -0.00113045 2.20362e-21)
(0.031897 -0.00430163 0)
(0.0320918 -0.0044403 0)
(0.0322922 -0.0045751 -4.15152e-21)
(0.0324958 -0.00470302 6.13771e-21)
(0.0327033 -0.00482445 1.97417e-21)
(0.0329157 -0.00494023 0)
(0.0331324 -0.00505008 0)
(0.0333524 -0.00515351 -1.77721e-21)
(0.0335748 -0.00525023 3.38042e-21)
(0.033799 -0.00534017 -1.01456e-22)
(0.0340242 -0.00542327 -7.97762e-21)
(0.0342501 -0.00549944 1.58135e-21)
(0.034476 -0.00556859 -1.43778e-21)
(0.0347016 -0.0056306 2.89631e-21)
(0.0349266 -0.00568541 -1.35831e-21)
(0.0351507 -0.00573294 0)
(0.0353736 -0.00577318 0)
(0.035595 -0.00580613 4.5934e-23)
(0.0358149 -0.00583178 3.51451e-21)
(0.0360329 -0.00585015 -1.1281e-21)
(0.0362487 -0.00586129 1.04474e-21)
(0.0364621 -0.00586522 -1.03684e-21)
(0.0366727 -0.00586199 -9.50633e-22)
(0.0368802 -0.00585165 9.98931e-22)
(0.0370843 -0.00583426 9.09766e-22)
(0.0372847 -0.00580988 0)
(0.0374809 -0.00577857 0)
(0.0376726 -0.0057404 -1.16474e-21)
(0.0378594 -0.00569543 0)
(0.0380411 -0.0056437 -6.78726e-22)
(0.0382171 -0.00558518 6.83855e-22)
(0.0383869 -0.00552023 3.33083e-22)
(0.0385504 -0.00544879 -3.19116e-22)
(0.038707 -0.00536926 -5.7465e-22)
(0.0388565 -0.005284 2.91952e-22)
(0.038998 -0.00519793 2.47371e-22)
(0.0391315 -0.00510802 -2.23483e-22)
(0.0392562 -0.00501416 0)
(0.0393717 -0.00491647 0)
(0.0394775 -0.004815 -4.30755e-23)
(0.0395728 -0.00470978 0)
(0.0396569 -0.00460085 0)
(0.0397291 -0.00448818 1.17448e-22)
(0.0397886 -0.00437177 -1.48994e-22)
(0.0398344 -0.00425161 6.61463e-23)
(0.0398658 -0.00412771 -1.71127e-22)
(0.039882 -0.00400013 0)
(0.0398822 -0.00386889 -4.30922e-22)
(0.0398655 -0.00373401 -4.38686e-23)
(0.039831 -0.00359541 0)
(0.0397772 -0.00345284 6.35059e-22)
(0.0397019 -0.00330569 -5.46484e-23)
(0.0396015 -0.00315282 7.28598e-22)
(0.0394717 -0.00299267 3.21187e-22)
(0.0393081 -0.00282415 8.03506e-22)
(0.0391107 -0.00264875 -7.99246e-22)
(0.0388863 -0.00247189 -9.64805e-22)
(0.0386414 -0.00229849 0)
(0.0383534 -0.00211862 1.02827e-21)
(0.0379308 -0.00189242 1.25308e-22)
(0.0372253 -0.00156229 0)
(0.0361763 -0.00112162 0)
(0.0350853 -0.000713665 -1.36071e-21)
(0.0347005 -0.000613353 0)
(0.0354912 -0.000949255 0)
(0.0366226 -0.00139856 1.13781e-21)
(0.0364352 -0.00141783 1.49281e-21)
(0.0340758 -0.000625662 1.73593e-21)
(0.0295688 0.00105727 0)
(0.0316536 -0.00469265 0)
(0.0318637 -0.00483409 0)
(0.0320785 -0.00497119 0)
(0.0322953 -0.00510082 2.10407e-21)
(0.0325148 -0.00522333 1.97948e-21)
(0.0327383 -0.00533958 -1.05636e-22)
(0.0329657 -0.00544932 -3.82597e-21)
(0.0331965 -0.00555205 1.81732e-21)
(0.03343 -0.00564752 -1.7501e-21)
(0.0336659 -0.00573568 -3.37149e-21)
(0.0339038 -0.00581649 0)
(0.0341431 -0.00588991 0)
(0.0343832 -0.00595584 -5.18467e-23)
(0.0346236 -0.0060142 -4.35151e-21)
(0.0348636 -0.00606489 5.45106e-21)
(0.0351029 -0.00610784 -1.05938e-22)
(0.0353409 -0.00614303 -2.57477e-21)
(0.0355773 -0.00617042 -1.21995e-21)
(0.0358117 -0.00619001 -3.52472e-23)
(0.0360438 -0.00620183 0)
(0.0362732 -0.00620589 -2.08767e-21)
(0.0364996 -0.00620223 0)
(0.0367227 -0.00619092 -1.88763e-21)
(0.0369422 -0.006172 2.66818e-21)
(0.0371578 -0.00614556 -2.57284e-21)
(0.0373691 -0.00611166 -7.75926e-22)
(0.0375757 -0.00607039 1.10573e-21)
(0.0377774 -0.00602181 -1.06728e-21)
(0.0379737 -0.00596603 7.02806e-22)
(0.0381643 -0.00590303 0)
(0.0383488 -0.0058329 5.85768e-22)
(0.0385267 -0.00575603 2.26221e-22)
(0.0386978 -0.00567199 -5.56567e-22)
(0.0388616 -0.00557941 5.03719e-22)
(0.0390177 -0.00548211 -2.27175e-22)
(0.0391655 -0.00538294 2.23431e-22)
(0.0393048 -0.0052793 1.0888e-22)
(0.0394349 -0.0051712 -7.89961e-23)
(0.0395553 -0.00505868 -4.46456e-23)
(0.0396656 -0.00494181 1.22741e-22)
(0.0397651 -0.00482061 7.39083e-24)
(0.0398533 -0.0046951 0)
(0.0399297 -0.0045653 -3.62818e-23)
(0.0399937 -0.0044312 6.93473e-23)
(0.0400447 -0.00429282 -6.69476e-23)
(0.0400822 -0.00415012 0)
(0.0401057 -0.00400302 0)
(0.0401144 -0.00385135 -8.80785e-23)
(0.0401074 -0.0036948 2.14955e-22)
(0.0400834 -0.00353286 4.04966e-22)
(0.0400403 -0.00336468 -9.31075e-22)
(0.0399752 -0.00318891 2.02658e-22)
(0.0398843 -0.00300383 -2.52841e-22)
(0.0397647 -0.00280812 -3.25583e-22)
(0.0396162 -0.00260234 6.27434e-22)
(0.0394443 -0.00239006 -6.23959e-22)
(0.0392549 -0.00217504 0)
(0.0390328 -0.00195038 6.51991e-22)
(0.0387092 -0.00168474 1.34602e-22)
(0.0381594 -0.00132624 -8.51566e-22)
(0.0372992 -0.000848842 0)
(0.0362953 -0.000333334 0)
(0.0357201 5.78481e-06 0)
(0.0361983 -1.94284e-05 -1.82114e-21)
(0.0374655 -0.00028891 -8.80865e-22)
(0.0381617 -0.000354797 -1.23087e-21)
(0.0369811 0.00016205 2.49282e-21)
(0.0337465 0.00138559 -1.6402e-22)
(0.0288105 0.00328962 -2.13442e-21)
(0.0313991 -0.00511557 0)
(0.0316263 -0.00525973 4.57866e-21)
(0.0318583 -0.00539908 -5.65412e-21)
(0.0320918 -0.00553036 3.19606e-21)
(0.0323272 -0.00565388 -6.31359e-21)
(0.0325658 -0.00577051 -2.01127e-21)
(0.0328073 -0.00587998 -1.93413e-21)
(0.0330513 -0.00598176 0)
(0.0332974 -0.00607562 3.57272e-21)
(0.0335456 -0.00616151 3.38219e-21)
(0.0337955 -0.00623942 -3.3515e-21)
(0.034047 -0.00630934 1.56999e-21)
(0.0342997 -0.0063712 -1.4447e-21)
(0.0345529 -0.00642495 1.57165e-21)
(0.0348063 -0.00647051 5.49724e-21)
(0.0350591 -0.00650784 -1.15129e-22)
(0.035311 -0.00653691 -1.1442e-22)
(0.0355614 -0.00655771 -2.44631e-21)
(0.0358098 -0.00657024 -1.1538e-21)
(0.0360557 -0.00657451 -2.09926e-21)
(0.0362988 -0.00657057 2.14353e-21)
(0.0365386 -0.00655845 0)
(0.0367748 -0.0065382 5.3283e-23)
(0.0370069 -0.00650991 0)
(0.0372345 -0.00647364 8.37046e-22)
(0.0374574 -0.00642949 7.89444e-22)
(0.0376751 -0.00637753 -3.71714e-22)
(0.0378874 -0.00631786 0)
(0.0380937 -0.00625057 -2.91635e-22)
(0.0382939 -0.00617565 -5.57084e-22)
(0.0384873 -0.00609328 5.60881e-22)
(0.0386738 -0.00600381 -2.69339e-22)
(0.0388529 -0.0059064 4.42132e-22)
(0.0390244 -0.00580032 -8.84921e-22)
(0.0391874 -0.00569049 2.02332e-22)
(0.039342 -0.00557747 0)
(0.0394877 -0.0054595 6.45655e-23)
(0.0396239 -0.00533664 2.37332e-23)
(0.0397502 -0.00520898 -9.40399e-23)
(0.0398664 -0.00507658 6.99448e-23)
(0.039972 -0.00493949 -1.57334e-23)
(0.0400667 -0.00479773 2.81783e-23)
(0.0401501 -0.00465131 -2.03357e-23)
(0.0402219 -0.00450019 0)
(0.0402816 -0.00434429 0)
(0.0403288 -0.00418341 0)
(0.0403628 -0.00401725 -3.37514e-23)
(0.0403826 -0.00384537 -3.3383e-23)
(0.0403872 -0.0036671 0)
(0.0403747 -0.00348146 -1.1831e-22)
(0.0403428 -0.00328701 -2.98928e-23)
(0.0402886 -0.00308204 -9.58483e-23)
(0.04021 -0.00286522 0)
(0.0401077 -0.00263671 0)
(0.0399866 -0.00239888 4.31778e-22)
(0.039851 -0.00215403 -4.29306e-22)
(0.039689 -0.00189628 0)
(0.0394464 -0.00159982 -6.61239e-22)
(0.0390206 -0.0012188 7.21766e-22)
(0.0383269 -0.000720326 5.56816e-22)
(0.0374633 -0.000149926 -7.3778e-22)
(0.0368663 0.00032861 7.32759e-22)
(0.0371451 0.000525258 0)
(0.0383693 0.000453642 8.29822e-22)
(0.0395525 0.000433114 4.94767e-23)
(0.0393299 0.000863995 1.57793e-21)
(0.0370276 0.00188847 2.34603e-21)
(0.0330016 0.00344469 -3.05857e-21)
(0.0276613 0.00545382 2.19397e-21)
(0.0311348 -0.00557312 1.2433e-21)
(0.0313796 -0.00571994 0)
(0.0316296 -0.00586143 1.1501e-21)
(0.0318815 -0.00599424 -5.49894e-21)
(0.0321353 -0.00611865 9.63202e-21)
(0.0323919 -0.00623551 -2.12575e-21)
(0.0326509 -0.00634455 1.977e-21)
(0.0329118 -0.00644523 -3.73349e-21)
(0.033174 -0.00653726 1.88085e-21)
(0.0334374 -0.00662059 1.748e-21)
(0.0337019 -0.00669524 1.66011e-21)
(0.0339674 -0.00676118 -4.728e-21)
(0.0342336 -0.0068184 1.59725e-21)
(0.0345001 -0.00686684 -4.27375e-21)
(0.0347665 -0.00690647 -1.26845e-21)
(0.0350324 -0.00693726 1.25002e-22)
(0.0352972 -0.00695923 2.55143e-21)
(0.0355605 -0.00697238 0)
(0.0358219 -0.00697675 0)
(0.0360807 -0.00697237 1.02548e-21)
(0.0363366 -0.00695929 1.01445e-21)
(0.0365891 -0.00693758 1.80187e-21)
(0.0368377 -0.00690731 -9.02326e-22)
(0.037082 -0.00686856 -1.57325e-21)
(0.0373215 -0.00682142 1.57549e-21)
(0.0375559 -0.00676599 -3.34313e-22)
(0.0377847 -0.00670236 -3.07368e-22)
(0.0380077 -0.00663067 0)
(0.0382243 -0.00655097 2.96334e-22)
(0.0384343 -0.00646329 4.8364e-22)
(0.0386372 -0.00636792 -4.75496e-23)
(0.0388326 -0.00626507 -4.42443e-22)
(0.0390204 -0.00615352 1.63515e-22)
(0.0392003 -0.0060335 0)
(0.0393712 -0.00591075 -5.99221e-23)
(0.0395337 -0.00578352 4.92522e-23)
(0.0396871 -0.00565106 -6.5105e-23)
(0.039831 -0.00551345 8.71394e-23)
(0.0399652 -0.00537079 0)
(0.0400896 -0.00522314 3.8886e-24)
(0.0402038 -0.00507052 -5.6317e-24)
(0.0403076 -0.00491293 7.23933e-25)
(0.0404006 -0.00475031 -1.94407e-23)
(0.0404826 -0.00458251 2.84426e-23)
(0.040553 -0.00440929 -1.67065e-23)
(0.0406113 -0.00423028 -9.17772e-24)
(0.0406566 -0.00404497 6.39546e-23)
(0.040688 -0.00385265 3.88859e-23)
(0.0407039 -0.0036523 1.61209e-23)
(0.0407027 -0.00344251 8.53463e-23)
(0.0406822 -0.00322169 5.77253e-23)
(0.0406415 -0.00298869 9.69248e-23)
(0.0405821 -0.00274365 0)
(0.0405085 -0.00248814 0)
(0.0404233 -0.00222309 2.15846e-22)
(0.0403152 -0.00194239 -4.1856e-22)
(0.0401392 -0.00162363 2.62353e-22)
(0.0398114 -0.00122665 0)
(0.0392581 -0.000717876 -2.73562e-22)
(0.0385464 -0.000124039 -1.03063e-21)
(0.0380228 0.000426094 5.97081e-22)
(0.0382328 0.000758133 2.61748e-23)
(0.0393934 0.000835866 -4.96972e-22)
(0.0408275 0.000892633 -1.17647e-22)
(0.0412704 0.00129035 1.15279e-21)
(0.0398272 0.00225139 -1.43e-21)
(0.0364638 0.00370334 -1.06769e-21)
(0.0317905 0.00550757 0)
(0.0259907 0.00753241 0)
(0.0308618 -0.00606827 -1.27328e-21)
(0.0311248 -0.00621768 -6.12706e-21)
(0.0313936 -0.00636118 4.82938e-21)
(0.0316646 -0.00649535 0)
(0.0319377 -0.00662042 1.098e-21)
(0.0322137 -0.00673728 4.153e-21)
(0.0324923 -0.00684565 -3.10343e-21)
(0.0327724 -0.00694494 4.7691e-21)
(0.0330535 -0.00703487 -3.77107e-21)
(0.0333354 -0.00711536 0)
(0.0336177 -0.00718642 -8.56311e-22)
(0.0339003 -0.00724804 0)
(0.034183 -0.00730019 -1.44702e-21)
(0.0344653 -0.00734284 4.43411e-21)
(0.0347469 -0.00737597 0)
(0.0350274 -0.00739958 0)
(0.0353064 -0.00741371 0)
(0.0355835 -0.0074184 1.68095e-21)
(0.0358583 -0.00741371 -2.24009e-21)
(0.0361302 -0.00739972 -1.04419e-21)
(0.0363989 -0.0073765 0)
(0.0366639 -0.00734416 0)