/*--------------------------------*- C++ -*----------------------------------*\
| =========                 |                                                 |
| \\      /  F ield         | OpenFOAM: The Open Source CFD Toolbox           |
|  \\    /   O peration     | Version:  2312                                  |
|   \\  /    A nd           | Website:  www.openfoam.com                      |
|    \\/     M anipulation  |                                                 |
\*---------------------------------------------------------------------------*/
FoamFile
{
    version     2.0;
    format      ascii;
    arch        "LSB;label=32;scalar=64";
    class       volScalarField;
    location    "600";
    object      k;
}
// * * * * * * * * * * * * * * * * * * * * * * * * * * * * * * * * * * * * * //

dimensions      [0 2 -2 0 0 0 0];

internalField   nonuniform List<scalar> 
76025
(
4.7737e-06
4.77846e-06
4.78348e-06
4.78552e-06
4.78706e-06
4.78562e-06
4.78471e-06
4.78736e-06
4.78994e-06
4.79343e-06
4.79672e-06
4.7996e-06
4.80391e-06
4.80797e-06
4.81367e-06
4.81859e-06
4.82446e-06
4.82992e-06
4.83538e-06
4.84124e-06
4.84697e-06
4.85323e-06
4.85901e-06
4.86516e-06
4.87157e-06
4.8769e-06
4.88315e-06
4.88766e-06
4.89336e-06
4.89818e-06
4.90271e-06
4.90767e-06
4.91219e-06
4.91799e-06
4.92338e-06
4.9294e-06
4.93629e-06
4.94231e-06
4.949e-06
4.9554e-06
4.9624e-06
4.97029e-06
4.9776e-06
4.98654e-06
4.99652e-06
5.00892e-06
5.02255e-06
5.03867e-06
5.05853e-06
5.08162e-06
5.10908e-06
5.13951e-06
5.1749e-06
5.21154e-06
5.25343e-06
5.29494e-06
5.34673e-06
5.40838e-06
5.4808e-06
5.5787e-06
5.67445e-06
5.78658e-06
5.91695e-06
6.06502e-06
6.23337e-06
6.43469e-06
6.64125e-06
6.85945e-06
7.28613e-06
4.80597e-06
4.80997e-06
4.81414e-06
4.81814e-06
4.82151e-06
4.82451e-06
4.82641e-06
4.82867e-06
4.83091e-06
4.83357e-06
4.83656e-06
4.83947e-06
4.84275e-06
4.84615e-06
4.85013e-06
4.85427e-06
4.85885e-06
4.86362e-06
4.86848e-06
4.87344e-06
4.87848e-06
4.88363e-06
4.88885e-06
4.89409e-06
4.89958e-06
4.90475e-06
4.91015e-06
4.91527e-06
4.92046e-06
4.92569e-06
4.93081e-06
4.93593e-06
4.94115e-06
4.94668e-06
4.95269e-06
4.9592e-06
4.96621e-06
4.97345e-06
4.98117e-06
4.98932e-06
4.99828e-06
5.00799e-06
5.01852e-06
5.03002e-06
5.04332e-06
5.05832e-06
5.07545e-06
5.0953e-06
5.11836e-06
5.14468e-06
5.17402e-06
5.20591e-06
5.23964e-06
5.27654e-06
5.31721e-06
5.36545e-06
5.42264e-06
5.49055e-06
5.5707e-06
5.66111e-06
5.76362e-06
5.88783e-06
6.01709e-06
6.16931e-06
6.33844e-06
6.56108e-06
6.75417e-06
7.04247e-06
7.81822e-06
4.84231e-06
4.84566e-06
4.84895e-06
4.85241e-06
4.85568e-06
4.85913e-06
4.86229e-06
4.86537e-06
4.86831e-06
4.87126e-06
4.87432e-06
4.87737e-06
4.88049e-06
4.88359e-06
4.88689e-06
4.89031e-06
4.89402e-06
4.89792e-06
4.90208e-06
4.90637e-06
4.91079e-06
4.9153e-06
4.91994e-06
4.92463e-06
4.92953e-06
4.93443e-06
4.93947e-06
4.94462e-06
4.9499e-06
4.95533e-06
4.96095e-06
4.96675e-06
4.97285e-06
4.97933e-06
4.98632e-06
4.99384e-06
5.00191e-06
5.01051e-06
5.01976e-06
5.02975e-06
5.04066e-06
5.05251e-06
5.06555e-06
5.07984e-06
5.0958e-06
5.11365e-06
5.13366e-06
5.15624e-06
5.18169e-06
5.20968e-06
5.24005e-06
5.2723e-06
5.30746e-06
5.34654e-06
5.39212e-06
5.44561e-06
5.50839e-06
5.58156e-06
5.66405e-06
5.75961e-06
5.86568e-06
5.98725e-06
6.12078e-06
6.27833e-06
6.46772e-06
6.68827e-06
6.8632e-06
7.2519e-06
8.56247e-06
4.88917e-06
4.89129e-06
4.89331e-06
4.89531e-06
4.89726e-06
4.89936e-06
4.90158e-06
4.90394e-06
4.90641e-06
4.90902e-06
4.91177e-06
4.91465e-06
4.91762e-06
4.92062e-06
4.92368e-06
4.92681e-06
4.9301e-06
4.93355e-06
4.93721e-06
4.94105e-06
4.94508e-06
4.94926e-06
4.95361e-06
4.95811e-06
4.96281e-06
4.96771e-06
4.9728e-06
4.97816e-06
4.98381e-06
4.98977e-06
4.99607e-06
5.00277e-06
5.0099e-06
5.01755e-06
5.02577e-06
5.03463e-06
5.04416e-06
5.05439e-06
5.06543e-06
5.07736e-06
5.0903e-06
5.10436e-06
5.11967e-06
5.1366e-06
5.15515e-06
5.17551e-06
5.19791e-06
5.22261e-06
5.2496e-06
5.2787e-06
5.30993e-06
5.34378e-06
5.38172e-06
5.42528e-06
5.47627e-06
5.53541e-06
5.60345e-06
5.68054e-06
5.76688e-06
5.86492e-06
5.97298e-06
6.10042e-06
6.24029e-06
6.40664e-06
6.6177e-06
6.80938e-06
7.03413e-06
7.61025e-06
9.96592e-06
4.92893e-06
4.93293e-06
4.93638e-06
4.93928e-06
4.94169e-06
4.94377e-06
4.94566e-06
4.94747e-06
4.94932e-06
4.95127e-06
4.95339e-06
4.9557e-06
4.95821e-06
4.96088e-06
4.96367e-06
4.96658e-06
4.96962e-06
4.9728e-06
4.97615e-06
4.97968e-06
4.98339e-06
4.98731e-06
4.99146e-06
4.99588e-06
5.00058e-06
5.00562e-06
5.01098e-06
5.01677e-06
5.02297e-06
5.02967e-06
5.03684e-06
5.04457e-06
5.05287e-06
5.06181e-06
5.07142e-06
5.08175e-06
5.09284e-06
5.10472e-06
5.11745e-06
5.13114e-06
5.14587e-06
5.16179e-06
5.17908e-06
5.19801e-06
5.21891e-06
5.24147e-06
5.26588e-06
5.29232e-06
5.32077e-06
5.35143e-06
5.38497e-06
5.42244e-06
5.46545e-06
5.51502e-06
5.5722e-06
5.63699e-06
5.70997e-06
5.79116e-06
5.88154e-06
5.98309e-06
6.0964e-06
6.22951e-06
6.37553e-06
6.55877e-06
6.77599e-06
6.94259e-06
7.23798e-06
8.10301e-06
1.22164e-05
4.96621e-06
4.9709e-06
4.97547e-06
4.9797e-06
4.98349e-06
4.98685e-06
4.98977e-06
4.99232e-06
4.99462e-06
4.99679e-06
4.99892e-06
5.00109e-06
5.00336e-06
5.00575e-06
5.00827e-06
5.01094e-06
5.01376e-06
5.01678e-06
5.02001e-06
5.02349e-06
5.0272e-06
5.0312e-06
5.03547e-06
5.04007e-06
5.045e-06
5.05035e-06
5.05608e-06
5.06233e-06
5.0691e-06
5.07648e-06
5.08446e-06
5.09313e-06
5.10248e-06
5.11257e-06
5.12342e-06
5.13505e-06
5.14749e-06
5.16079e-06
5.17501e-06
5.19027e-06
5.20667e-06
5.22439e-06
5.24367e-06
5.26476e-06
5.28792e-06
5.31274e-06
5.33926e-06
5.36779e-06
5.39856e-06
5.43238e-06
5.4702e-06
5.51317e-06
5.56231e-06
5.61805e-06
5.68084e-06
5.75057e-06
5.82814e-06
5.91342e-06
6.00861e-06
6.11475e-06
6.2348e-06
6.37567e-06
6.53175e-06
6.73668e-06
6.93649e-06
7.12295e-06
7.52473e-06
8.90494e-06
1.57669e-05
5.00848e-06
5.01229e-06
5.01642e-06
5.02067e-06
5.02494e-06
5.02914e-06
5.03313e-06
5.03686e-06
5.04031e-06
5.04351e-06
5.04652e-06
5.0494e-06
5.0522e-06
5.05498e-06
5.05776e-06
5.0606e-06
5.06351e-06
5.06656e-06
5.06979e-06
5.07328e-06
5.07708e-06
5.08125e-06
5.0858e-06
5.09078e-06
5.09619e-06
5.10206e-06
5.10839e-06
5.11527e-06
5.12272e-06
5.13079e-06
5.13953e-06
5.14898e-06
5.15919e-06
5.17021e-06
5.18204e-06
5.19477e-06
5.20839e-06
5.22301e-06
5.23869e-06
5.2556e-06
5.2738e-06
5.29354e-06
5.31501e-06
5.33844e-06
5.36374e-06
5.3912e-06
5.4204e-06
5.45203e-06
5.48663e-06
5.52523e-06
5.56861e-06
5.61756e-06
5.67256e-06
5.73374e-06
5.80154e-06
5.87609e-06
5.95862e-06
6.04882e-06
6.15011e-06
6.26233e-06
6.39117e-06
6.54116e-06
6.71286e-06
6.92935e-06
7.1129e-06
7.34913e-06
7.94402e-06
1.01868e-05
2.09936e-05
5.05779e-06
5.06056e-06
5.06366e-06
5.06704e-06
5.07069e-06
5.0746e-06
5.07867e-06
5.08283e-06
5.08697e-06
5.09106e-06
5.09505e-06
5.09895e-06
5.10276e-06
5.10653e-06
5.11024e-06
5.11395e-06
5.11767e-06
5.12145e-06
5.12534e-06
5.1294e-06
5.1337e-06
5.13829e-06
5.14324e-06
5.14859e-06
5.15438e-06
5.16064e-06
5.16739e-06
5.17472e-06
5.18267e-06
5.19128e-06
5.20061e-06
5.21074e-06
5.2217e-06
5.23359e-06
5.24642e-06
5.26033e-06
5.27531e-06
5.29153e-06
5.30902e-06
5.32796e-06
5.34833e-06
5.37042e-06
5.39431e-06
5.42022e-06
5.44806e-06
5.47853e-06
5.51136e-06
5.54726e-06
5.58678e-06
5.63083e-06
5.67987e-06
5.7344e-06
5.79472e-06
5.86111e-06
5.93412e-06
6.01421e-06
6.10252e-06
6.1988e-06
6.30743e-06
6.42744e-06
6.56675e-06
6.72832e-06
6.91967e-06
7.13205e-06
7.32997e-06
7.65626e-06
8.63894e-06
1.22957e-05
2.83482e-05
5.11466e-06
5.11704e-06
5.1196e-06
5.12229e-06
5.12522e-06
5.12845e-06
5.13197e-06
5.13576e-06
5.13976e-06
5.14395e-06
5.14826e-06
5.15266e-06
5.1571e-06
5.1616e-06
5.16611e-06
5.17064e-06
5.1752e-06
5.17982e-06
5.18454e-06
5.18942e-06
5.19454e-06
5.19994e-06
5.20569e-06
5.21182e-06
5.21838e-06
5.22537e-06
5.23286e-06
5.24093e-06
5.24964e-06
5.25905e-06
5.26926e-06
5.28035e-06
5.29238e-06
5.30546e-06
5.31964e-06
5.33506e-06
5.35171e-06
5.36978e-06
5.38926e-06
5.4103e-06
5.43286e-06
5.45728e-06
5.48357e-06
5.51199e-06
5.54277e-06
5.57621e-06
5.61322e-06
5.6539e-06
5.6987e-06
5.74819e-06
5.80275e-06
5.86273e-06
5.92857e-06
6.00068e-06
6.07973e-06
6.16634e-06
6.26116e-06
6.36488e-06
6.48196e-06
6.61083e-06
6.76275e-06
6.94107e-06
7.14715e-06
7.35621e-06
7.63595e-06
8.13442e-06
9.79595e-06
1.56668e-05
3.87852e-05
5.17702e-06
5.17952e-06
5.18211e-06
5.18473e-06
5.18746e-06
5.19039e-06
5.19355e-06
5.19698e-06
5.20068e-06
5.20465e-06
5.20889e-06
5.21337e-06
5.21808e-06
5.22298e-06
5.22805e-06
5.23325e-06
5.23857e-06
5.244e-06
5.24958e-06
5.25534e-06
5.26135e-06
5.26764e-06
5.27429e-06
5.28132e-06
5.28881e-06
5.29677e-06
5.30528e-06
5.31445e-06
5.32433e-06
5.33503e-06
5.34662e-06
5.35921e-06
5.37282e-06
5.38759e-06
5.40351e-06
5.42076e-06
5.43928e-06
5.45927e-06
5.48063e-06
5.50355e-06
5.52806e-06
5.55454e-06
5.58302e-06
5.61398e-06
5.64767e-06
5.68481e-06
5.72565e-06
5.77128e-06
5.82167e-06
5.87693e-06
5.93745e-06
6.00335e-06
6.07544e-06
6.15407e-06
6.23999e-06
6.33386e-06
6.43597e-06
6.5485e-06
6.6747e-06
6.81494e-06
6.9825e-06
7.18149e-06
7.39717e-06
7.64358e-06
8.07436e-06
8.91591e-06
1.16879e-05
2.09272e-05
5.4948e-05
5.24634e-06
5.24925e-06
5.25224e-06
5.25522e-06
5.25823e-06
5.26136e-06
5.26463e-06
5.26808e-06
5.27177e-06
5.27571e-06
5.27996e-06
5.28453e-06
5.28943e-06
5.29468e-06
5.30024e-06
5.3061e-06
5.31223e-06
5.3186e-06
5.32521e-06
5.33206e-06
5.33918e-06
5.34658e-06
5.3543e-06
5.36238e-06
5.3709e-06
5.37986e-06
5.3894e-06
5.39963e-06
5.4106e-06
5.42244e-06
5.4352e-06
5.44899e-06
5.46382e-06
5.47986e-06
5.49708e-06
5.51567e-06
5.53556e-06
5.557e-06
5.57985e-06
5.60444e-06
5.63091e-06
5.65966e-06
5.69087e-06
5.72508e-06
5.76267e-06
5.80419e-06
5.85016e-06
5.90076e-06
5.95678e-06
6.01822e-06
6.08516e-06
6.15756e-06
6.2367e-06
6.32253e-06
6.41611e-06
6.51794e-06
6.62825e-06
6.75085e-06
6.88776e-06
7.04204e-06
7.23294e-06
7.45371e-06
7.69943e-06
8.05388e-06
8.75083e-06
1.01637e-05
1.48286e-05
2.96363e-05
7.07401e-05
5.32093e-06
5.32425e-06
5.32771e-06
5.33123e-06
5.3348e-06
5.3385e-06
5.34233e-06
5.34631e-06
5.35047e-06
5.35485e-06
5.35949e-06
5.36442e-06
5.36967e-06
5.37526e-06
5.38119e-06
5.38744e-06
5.39403e-06
5.4009e-06
5.40807e-06
5.41553e-06
5.42329e-06
5.43137e-06
5.43984e-06
5.44872e-06
5.45811e-06
5.46802e-06
5.47861e-06
5.48998e-06
5.50219e-06
5.51537e-06
5.52957e-06
5.54494e-06
5.56145e-06
5.57933e-06
5.59848e-06
5.6191e-06
5.64109e-06
5.66468e-06
5.68977e-06
5.71684e-06
5.746e-06
5.77779e-06
5.81242e-06
5.85053e-06
5.89246e-06
5.93874e-06
5.9897e-06
6.04572e-06
6.10713e-06
6.17423e-06
6.24762e-06
6.32711e-06
6.4141e-06
6.50779e-06
6.60993e-06
6.72022e-06
6.8397e-06
6.9748e-06
7.12394e-06
7.30032e-06
7.52618e-06
7.77993e-06
8.11483e-06
8.65611e-06
9.79206e-06
1.22567e-05
2.0253e-05
4.46613e-05
8.52226e-05
5.40585e-06
5.40958e-06
5.41345e-06
5.41738e-06
5.42142e-06
5.42561e-06
5.42996e-06
5.43448e-06
5.43919e-06
5.44409e-06
5.44924e-06
5.45464e-06
5.46034e-06
5.46634e-06
5.47267e-06
5.47931e-06
5.4863e-06
5.49362e-06
5.5013e-06
5.50936e-06
5.51784e-06
5.52679e-06
5.53627e-06
5.54636e-06
5.55713e-06
5.56861e-06
5.58095e-06
5.59422e-06
5.60845e-06
5.62375e-06
5.64013e-06
5.6577e-06
5.67637e-06
5.6963e-06
5.71734e-06
5.73972e-06
5.76331e-06
5.78849e-06
5.81527e-06
5.84436e-06
5.87586e-06
5.91053e-06
5.94854e-06
5.99066e-06
6.03704e-06
6.08828e-06
6.14453e-06
6.20622e-06
6.27365e-06
6.34709e-06
6.42734e-06
6.51449e-06
6.60983e-06
6.71176e-06
6.82309e-06
6.94195e-06
7.07335e-06
7.223e-06
7.39137e-06
7.61089e-06
7.8879e-06
8.21488e-06
8.71972e-06
9.54745e-06
1.15252e-05
1.61442e-05
3.00887e-05
6.25137e-05
9.456e-05
5.50097e-06
5.50542e-06
5.50997e-06
5.51453e-06
5.51918e-06
5.52395e-06
5.52888e-06
5.53396e-06
5.53924e-06
5.54469e-06
5.55039e-06
5.55633e-06
5.56258e-06
5.56912e-06
5.57601e-06
5.58325e-06
5.5909e-06
5.59895e-06
5.60746e-06
5.61643e-06
5.62594e-06
5.63602e-06
5.64674e-06
5.65816e-06
5.67032e-06
5.68328e-06
5.69714e-06
5.71192e-06
5.72763e-06
5.74433e-06
5.76199e-06
5.78069e-06
5.8004e-06
5.82135e-06
5.8434e-06
5.86703e-06
5.89209e-06
5.91921e-06
5.94844e-06
5.98065e-06
6.01585e-06
6.0549e-06
6.09778e-06
6.14528e-06
6.19733e-06
6.2546e-06
6.31704e-06
6.3853e-06
6.45948e-06
6.5403e-06
6.628e-06
6.72347e-06
6.82675e-06
6.93639e-06
7.0565e-06
7.18511e-06
7.3343e-06
7.50629e-06
7.71897e-06
8.0139e-06
8.36353e-06
8.82946e-06
9.62877e-06
1.09479e-05
1.4845e-05
2.39381e-05
4.84034e-05
7.37959e-05
9.87167e-05
5.60949e-06
5.61481e-06
5.62025e-06
5.62568e-06
5.63116e-06
5.63673e-06
5.64243e-06
5.64824e-06
5.6542e-06
5.66031e-06
5.66664e-06
5.67318e-06
5.68e-06
5.68712e-06
5.69461e-06
5.70248e-06
5.71081e-06
5.71959e-06
5.72891e-06
5.73875e-06
5.74918e-06
5.76019e-06
5.77186e-06
5.78419e-06
5.7972e-06
5.81099e-06
5.82562e-06
5.84112e-06
5.85751e-06
5.87489e-06
5.89325e-06
5.91279e-06
5.93353e-06
5.95582e-06
5.97961e-06
6.00549e-06
6.03331e-06
6.06386e-06
6.09712e-06
6.13397e-06
6.17428e-06
6.21883e-06
6.26754e-06
6.32106e-06
6.37933e-06
6.44301e-06
6.512e-06
6.58737e-06
6.6686e-06
6.75752e-06
6.85264e-06
6.95603e-06
7.06539e-06
7.18297e-06
7.31469e-06
7.46207e-06
7.64264e-06
7.86258e-06
8.16596e-06
8.54977e-06
9.00807e-06
9.71342e-06
1.1096e-05
1.3874e-05
2.20273e-05
4.03086e-05
6.31385e-05
8.26815e-05
0.000103106
5.73131e-06
5.73756e-06
5.74394e-06
5.75032e-06
5.75673e-06
5.76321e-06
5.76979e-06
5.77645e-06
5.78322e-06
5.79012e-06
5.79718e-06
5.80444e-06
5.81193e-06
5.81971e-06
5.82781e-06
5.83627e-06
5.84516e-06
5.85452e-06
5.86438e-06
5.87478e-06
5.88576e-06
5.89734e-06
5.90958e-06
5.92249e-06
5.93611e-06
5.95057e-06
5.96593e-06
5.98226e-06
5.99964e-06
6.01823e-06
6.03807e-06
6.05943e-06
6.0824e-06
6.10732e-06
6.13426e-06
6.16374e-06
6.19562e-06
6.23075e-06
6.26902e-06
6.31122e-06
6.35717e-06
6.40753e-06
6.46233e-06
6.52195e-06
6.58675e-06
6.65701e-06
6.73314e-06
6.81597e-06
6.90454e-06
7.00141e-06
7.10218e-06
7.21266e-06
7.32843e-06
7.46178e-06
7.61776e-06
7.80353e-06
8.04378e-06
8.3629e-06
8.76688e-06
9.23428e-06
9.92456e-06
1.1107e-05
1.42642e-05
2.10578e-05
3.8315e-05
5.48864e-05
6.82631e-05
8.28727e-05
0.000101484
5.87301e-06
5.88013e-06
5.88743e-06
5.89475e-06
5.9021e-06
5.90952e-06
5.91701e-06
5.92457e-06
5.93219e-06
5.9399e-06
5.94774e-06
5.95574e-06
5.96393e-06
5.97237e-06
5.98109e-06
5.99016e-06
5.99961e-06
6.00952e-06
6.01991e-06
6.03086e-06
6.0424e-06
6.05459e-06
6.0675e-06
6.08118e-06
6.0957e-06
6.11124e-06
6.12783e-06
6.14564e-06
6.16476e-06
6.18538e-06
6.20759e-06
6.23167e-06
6.25774e-06
6.28612e-06
6.31693e-06
6.35054e-06
6.38695e-06
6.42696e-06
6.47037e-06
6.51798e-06
6.56953e-06
6.62575e-06
6.68665e-06
6.75262e-06
6.82431e-06
6.9016e-06
6.98528e-06
7.07537e-06
7.17015e-06
7.27322e-06
7.37828e-06
7.50069e-06
7.63451e-06
7.80462e-06
8.00547e-06
8.26341e-06
8.61012e-06
9.02299e-06
9.50343e-06
1.01394e-05
1.15575e-05
1.46943e-05
2.22277e-05
3.86053e-05
5.07694e-05
5.96971e-05
7.16293e-05
8.1963e-05
9.90119e-05
6.03583e-06
6.04391e-06
6.0522e-06
6.06052e-06
6.06889e-06
6.07734e-06
6.08586e-06
6.09443e-06
6.10306e-06
6.11176e-06
6.12057e-06
6.12951e-06
6.13863e-06
6.14796e-06
6.15757e-06
6.1675e-06
6.17781e-06
6.18858e-06
6.19984e-06
6.2117e-06
6.22418e-06
6.23741e-06
6.25142e-06
6.26632e-06
6.28223e-06
6.29932e-06
6.31767e-06
6.33748e-06
6.35887e-06
6.38201e-06
6.40708e-06
6.43431e-06
6.46388e-06
6.49606e-06
6.531e-06
6.56897e-06
6.61019e-06
6.65526e-06
6.70405e-06
6.75728e-06
6.81477e-06
6.87727e-06
6.94487e-06
7.01793e-06
7.0971e-06
7.18179e-06
7.272e-06
7.36788e-06
7.46664e-06
7.57843e-06
7.69877e-06
7.85265e-06
8.02798e-06
8.25918e-06
8.5333e-06
8.90456e-06
9.32297e-06
9.77303e-06
1.05184e-05
1.19503e-05
1.59822e-05
2.48226e-05
3.83468e-05
4.7915e-05
5.43317e-05
6.10585e-05
6.86452e-05
7.85193e-05
9.81753e-05
6.22947e-06
6.23842e-06
6.24759e-06
6.2568e-06
6.26606e-06
6.27541e-06
6.28482e-06
6.29429e-06
6.3038e-06
6.31338e-06
6.32305e-06
6.33287e-06
6.34285e-06
6.35307e-06
6.36354e-06
6.37438e-06
6.3856e-06
6.39733e-06
6.4096e-06
6.42255e-06
6.43621e-06
6.45078e-06
6.46623e-06
6.48282e-06
6.50063e-06
6.51985e-06
6.54058e-06
6.56303e-06
6.58735e-06
6.61368e-06
6.64228e-06
6.67329e-06
6.70694e-06
6.74342e-06
6.78289e-06
6.82564e-06
6.87201e-06
6.92244e-06
6.97696e-06
7.03628e-06
7.10029e-06
7.16985e-06
7.24482e-06
7.32552e-06
7.41149e-06
7.50206e-06
7.59645e-06
7.69972e-06
7.81236e-06
7.95208e-06
8.11002e-06
8.32255e-06
8.55754e-06
8.87574e-06
9.2347e-06
9.65558e-06
1.00874e-05
1.08583e-05
1.30095e-05
1.76581e-05
2.87072e-05
3.89707e-05
4.4755e-05
5.03509e-05
5.44706e-05
5.90751e-05
6.36321e-05
7.41813e-05
9.8387e-05
6.45607e-06
6.46633e-06
6.47681e-06
6.48733e-06
6.49788e-06
6.50853e-06
6.51922e-06
6.52998e-06
6.54076e-06
6.55162e-06
6.56256e-06
6.57366e-06
6.58493e-06
6.59647e-06
6.60831e-06
6.62057e-06
6.6333e-06
6.64663e-06
6.66061e-06
6.67539e-06
6.69105e-06
6.7077e-06
6.72543e-06
6.74446e-06
6.7649e-06
6.78687e-06
6.81055e-06
6.83607e-06
6.86357e-06
6.89319e-06
6.92521e-06
6.95973e-06
6.99714e-06
7.03754e-06
7.0813e-06
7.12874e-06
7.18038e-06
7.23649e-06
7.29743e-06
7.36365e-06
7.43516e-06
7.51247e-06
7.59455e-06
7.68151e-06
7.7723e-06
7.86921e-06
7.97918e-06
8.10582e-06
8.25753e-06
8.44859e-06
8.66751e-06
8.95026e-06
9.24475e-06
9.63194e-06
9.97e-06
1.04514e-05
1.15524e-05
1.42878e-05
2.08056e-05
3.18053e-05
3.88962e-05
4.32687e-05
4.5761e-05
5.0433e-05
4.93341e-05
5.11348e-05
5.7987e-05
7.36994e-05
0.000101069
6.73014e-06
6.74131e-06
6.75271e-06
6.76414e-06
6.7756e-06
6.78716e-06
6.7988e-06
6.81052e-06
6.82231e-06
6.83424e-06
6.8463e-06
6.85859e-06
6.87113e-06
6.88402e-06
6.8973e-06
6.91109e-06
6.92546e-06
6.94051e-06
6.95634e-06
6.97306e-06
6.99078e-06
7.00958e-06
7.02967e-06
7.05116e-06
7.07422e-06
7.09896e-06
7.12561e-06
7.15425e-06
7.1852e-06
7.21857e-06
7.25475e-06
7.29374e-06
7.33612e-06
7.3818e-06
7.43154e-06
7.4854e-06
7.54422e-06
7.60775e-06
7.67687e-06
7.75104e-06
7.83007e-06
7.9141e-06
8.00153e-06
8.0953e-06
8.2033e-06
8.32192e-06
8.47507e-06
8.64207e-06
8.86677e-06
9.09506e-06
9.39398e-06
9.67709e-06
1.00113e-05
1.03441e-05
1.09971e-05
1.26696e-05
1.64753e-05
2.52578e-05
3.39801e-05
3.79632e-05
4.13127e-05
4.31758e-05
4.14385e-05
4.04309e-05
4.19421e-05
4.68288e-05
5.78598e-05
7.69782e-05
0.000104832
7.06197e-06
7.07534e-06
7.08888e-06
7.10238e-06
7.11588e-06
7.12941e-06
7.143e-06
7.15663e-06
7.17033e-06
7.18413e-06
7.19809e-06
7.21225e-06
7.2267e-06
7.24149e-06
7.25673e-06
7.27247e-06
7.28887e-06
7.30599e-06
7.32399e-06
7.34296e-06
7.36304e-06
7.38441e-06
7.40723e-06
7.43165e-06
7.45781e-06
7.48588e-06
7.51607e-06
7.54836e-06
7.58317e-06
7.62052e-06
7.66101e-06
7.70461e-06
7.75214e-06
7.80336e-06
7.8596e-06
7.91997e-06
7.98665e-06
8.05693e-06
8.13378e-06
8.21383e-06
8.29895e-06
8.39113e-06
8.49744e-06
8.6151e-06
8.7667e-06
8.9234e-06
9.1462e-06
9.34013e-06
9.62125e-06
9.84105e-06
1.01508e-05
1.03983e-05
1.09558e-05
1.19808e-05
1.44527e-05
1.94988e-05
2.89722e-05
3.39183e-05
3.79958e-05
3.83941e-05
3.83699e-05
3.41029e-05
3.31884e-05
3.47895e-05
3.91916e-05
4.79831e-05
6.21282e-05
8.25043e-05
0.000109082
7.46833e-06
7.48275e-06
7.49744e-06
7.51214e-06
7.52687e-06
7.54169e-06
7.55661e-06
7.57164e-06
7.58681e-06
7.60215e-06
7.61775e-06
7.63367e-06
7.65001e-06
7.66682e-06
7.68426e-06
7.70237e-06
7.72131e-06
7.74115e-06
7.76206e-06
7.78409e-06
7.80747e-06
7.83231e-06
7.85879e-06
7.88702e-06
7.91724e-06
7.94955e-06
7.98432e-06
8.02168e-06
8.06216e-06
8.10563e-06
8.15295e-06
8.2037e-06
8.25909e-06
8.31829e-06
8.38317e-06
8.45002e-06
8.5261e-06
8.60044e-06
8.68675e-06
8.77504e-06
8.88357e-06
9.00001e-06
9.14965e-06
9.30044e-06
9.51009e-06
9.68033e-06
9.93462e-06
1.0085e-05
1.03888e-05
1.06195e-05
1.11723e-05
1.19268e-05
1.38843e-05
1.67501e-05
2.35182e-05
2.93038e-05
3.39883e-05
3.57222e-05
3.53887e-05
3.24958e-05
2.60194e-05
2.58065e-05
2.83858e-05
3.35662e-05
4.1856e-05
5.31447e-05
6.82535e-05
8.79149e-05
0.000110987
7.99316e-06
8.0112e-06
8.02941e-06
8.04758e-06
8.06576e-06
8.08404e-06
8.10241e-06
8.12091e-06
8.13953e-06
8.15838e-06
8.17747e-06
8.19692e-06
8.21678e-06
8.23715e-06
8.25813e-06
8.2798e-06
8.3023e-06
8.32572e-06
8.35021e-06
8.37594e-06
8.40306e-06
8.4317e-06
8.46203e-06
8.49424e-06
8.52859e-06
8.56518e-06
8.60421e-06
8.64603e-06
8.69099e-06
8.73923e-06
8.79145e-06
8.84733e-06
8.90799e-06
8.97157e-06
9.04077e-06
9.10825e-06
9.19314e-06
9.27092e-06
9.38613e-06
9.48823e-06
9.63655e-06
9.77288e-06
9.95461e-06
1.00972e-05
1.03188e-05
1.04528e-05
1.07001e-05
1.09968e-05
1.16789e-05
1.23786e-05
1.38894e-05
1.58312e-05
1.89752e-05
2.34833e-05
2.7786e-05
3.21231e-05
3.31307e-05
3.13443e-05
2.37249e-05
1.81057e-05
1.9201e-05
2.31789e-05
3.04515e-05
3.91953e-05
4.89092e-05
6.04085e-05
7.48263e-05
9.26168e-05
0.000112627
8.67565e-06
8.69475e-06
8.71426e-06
8.73388e-06
8.75352e-06
8.77339e-06
8.79343e-06
8.81377e-06
8.83437e-06
8.85539e-06
8.87687e-06
8.89895e-06
8.9217e-06
8.94528e-06
8.96975e-06
8.99526e-06
9.02191e-06
9.04993e-06
9.07939e-06
9.11048e-06
9.14334e-06
9.17808e-06
9.21484e-06
9.25368e-06
9.2947e-06
9.33844e-06
9.38394e-06
9.43351e-06
9.48282e-06
9.53712e-06
9.59028e-06
9.65079e-06
9.70914e-06
9.7723e-06
9.84159e-06
9.91673e-06
1.00115e-05
1.00917e-05
1.02371e-05
1.03169e-05
1.04804e-05
1.06036e-05
1.07703e-05
1.09938e-05
1.13353e-05
1.1626e-05
1.22976e-05
1.2816e-05
1.34373e-05
1.43548e-05
1.56635e-05
1.77803e-05
2.06469e-05
2.48403e-05
2.84476e-05
2.86321e-05
2.42668e-05
1.48953e-05
1.086e-05
1.25327e-05
1.89971e-05
2.82913e-05
3.78866e-05
4.70661e-05
5.65703e-05
6.75976e-05
8.1058e-05
9.69998e-05
0.000115076
9.61402e-06
9.64044e-06
9.6672e-06
9.69426e-06
9.72162e-06
9.74942e-06
9.77753e-06
9.80607e-06
9.83499e-06
9.86418e-06
9.89375e-06
9.92371e-06
9.95394e-06
9.98466e-06
1.00155e-05
1.0047e-05
1.00783e-05
1.01098e-05
1.01407e-05
1.01709e-05
1.0201e-05
1.02307e-05
1.0261e-05
1.02911e-05
1.03214e-05
1.03536e-05
1.03837e-05
1.04227e-05
1.04471e-05
1.04886e-05
1.05108e-05
1.05597e-05
1.05942e-05
1.06537e-05
1.0714e-05
1.07945e-05
1.08601e-05
1.1002e-05
1.11801e-05
1.12885e-05
1.16407e-05
1.18894e-05
1.21758e-05
1.23415e-05
1.24722e-05
1.27321e-05
1.30857e-05
1.31536e-05
1.3551e-05
1.44392e-05
1.57281e-05
1.76589e-05
2.02321e-05
2.08705e-05
2.03012e-05
1.49103e-05
7.86771e-06
5.66628e-06
7.50532e-06
1.28378e-05
2.13577e-05
3.19801e-05
4.26572e-05
5.2668e-05
6.2654e-05
7.3758e-05
8.66893e-05
0.000101205
0.000117475
1.11869e-05
1.12024e-05
1.12175e-05
1.1231e-05
1.12439e-05
1.12531e-05
1.12695e-05
1.12529e-05
1.12463e-05
1.12623e-05
1.12435e-05
1.12449e-05
1.12445e-05
1.12166e-05
1.1204e-05
1.11897e-05
1.11748e-05
1.11731e-05
1.11469e-05
1.11306e-05
1.11222e-05
1.11213e-05
1.11269e-05
1.11377e-05
1.11496e-05
1.11743e-05
1.11906e-05
1.12433e-05
1.12696e-05
1.13697e-05
1.14285e-05
1.15919e-05
1.17323e-05
1.19332e-05
1.22312e-05
1.23287e-05
1.27952e-05
1.34827e-05
1.36744e-05
1.38096e-05
1.33056e-05
1.31362e-05
1.27532e-05
1.24831e-05
1.23262e-05
1.1917e-05
1.12802e-05
1.06283e-05
9.79865e-06
8.55051e-06
8.0643e-06
7.64103e-06
6.80703e-06
6.78832e-06
5.62275e-06
2.86823e-06
1.76353e-06
3.31245e-06
6.96353e-06
1.28434e-05
2.16403e-05
3.20806e-05
4.32699e-05
5.42187e-05
6.51374e-05
7.67744e-05
8.99003e-05
0.000104347
0.000121248
1.0743e-05
1.07871e-05
1.08314e-05
1.08769e-05
1.09224e-05
1.09677e-05
1.10135e-05
1.10566e-05
1.1101e-05
1.11417e-05
1.11843e-05
1.12241e-05
1.12626e-05
1.13041e-05
1.13369e-05
1.13761e-05
1.14156e-05
1.14294e-05
1.15133e-05
1.16689e-05
1.18975e-05
1.21883e-05
1.25551e-05
1.29794e-05
1.34833e-05
1.40189e-05
1.46337e-05
1.52547e-05
1.59625e-05
1.65814e-05
1.73646e-05
1.7919e-05
1.86983e-05
1.88838e-05
1.91207e-05
1.86117e-05
1.82115e-05
1.74054e-05
1.62043e-05
1.47742e-05
1.31389e-05
1.14497e-05
9.58296e-06
7.88511e-06
5.88611e-06
3.88354e-06
2.60253e-06
1.83621e-06
1.42809e-06
1.35303e-06
1.42546e-06
1.61191e-06
1.78572e-06
1.79724e-06
1.21463e-06
5.47907e-07
4.37119e-07
1.14443e-06
2.96402e-06
6.8175e-06
1.29519e-05
2.15502e-05
3.24366e-05
4.4472e-05
5.656e-05
6.89137e-05
8.25514e-05
9.81365e-05
0.000117614
2.93767e-05
3.04516e-05
3.15275e-05
3.25975e-05
3.36663e-05
3.47198e-05
3.57774e-05
3.68027e-05
3.78509e-05
3.88298e-05
3.98767e-05
4.07852e-05
4.18379e-05
4.26636e-05
4.36966e-05
4.4493e-05
4.53634e-05
4.63457e-05
4.69003e-05
4.71456e-05
4.73058e-05
4.7099e-05
4.69064e-05
4.66588e-05
4.64657e-05
4.55921e-05
4.50448e-05
4.40753e-05
4.27889e-05
4.11303e-05
3.92564e-05
3.70206e-05
3.43569e-05
3.12338e-05
2.7665e-05
2.37003e-05
1.94409e-05
1.51221e-05
1.08867e-05
6.90228e-06
3.67898e-06
1.63746e-06
7.13336e-07
4.40212e-07
3.59449e-07
3.07091e-07
2.78419e-07
2.63609e-07
2.57682e-07
2.63462e-07
2.69677e-07
2.70326e-07
2.53737e-07
2.11551e-07
1.34504e-07
7.8092e-08
9.36158e-08
2.50924e-07
1.08346e-06
3.08698e-06
5.96642e-06
9.26505e-06
1.27651e-05
1.64748e-05
2.0507e-05
2.54239e-05
3.11406e-05
3.74543e-05
4.37339e-05
4.73364e-06
4.73356e-06
4.73342e-06
4.73343e-06
4.73311e-06
4.73807e-06
4.74226e-06
4.74677e-06
4.7495e-06
4.75036e-06
4.75064e-06
4.75174e-06
4.75655e-06
4.76119e-06
4.76366e-06
4.76165e-06
4.7625e-06
4.76526e-06
4.76658e-06
4.76081e-06
4.75958e-06
4.76296e-06
4.76269e-06
4.76345e-06
4.76025e-06
4.75802e-06
4.7587e-06
4.75789e-06
4.75886e-06
4.76085e-06
4.75886e-06
4.75867e-06
4.75817e-06
4.75729e-06
4.75609e-06
4.75372e-06
4.75471e-06
4.75534e-06
4.75474e-06
4.75415e-06
4.75276e-06
4.75412e-06
4.75264e-06
4.75069e-06
4.75246e-06
4.75154e-06
4.75152e-06
4.74872e-06
4.75e-06
4.75535e-06
4.76276e-06
4.76766e-06
4.76939e-06
4.7661e-06
4.76396e-06
4.76027e-06
4.76026e-06
4.76359e-06
4.76856e-06
4.75889e-06
4.75881e-06
4.75738e-06
4.76266e-06
4.76632e-06
4.7711e-06
4.77427e-06
4.77578e-06
4.7746e-06
4.77545e-06
4.7752e-06
4.78123e-06
4.78651e-06
4.78878e-06
4.78713e-06
4.78729e-06
4.78752e-06
4.79041e-06
4.78833e-06
4.78435e-06
4.78415e-06
4.78614e-06
4.78528e-06
4.78572e-06
4.78261e-06
4.78099e-06
4.78143e-06
4.78076e-06
4.78131e-06
4.78269e-06
4.78141e-06
4.78144e-06
4.78081e-06
4.77984e-06
4.77912e-06
4.77718e-06
4.77758e-06
4.77916e-06
4.77945e-06
4.77926e-06
4.77891e-06
4.77942e-06
4.77887e-06
4.77729e-06
4.77925e-06
4.77947e-06
4.78041e-06
4.77832e-06
4.77794e-06
4.78042e-06
4.78653e-06
4.79385e-06
4.80242e-06
4.80194e-06
4.80097e-06
4.80101e-06
4.79691e-06
4.79905e-06
4.80222e-06
4.79265e-06
4.79655e-06
4.80068e-06
4.80492e-06
4.80729e-06
4.8079e-06
4.8078e-06
4.80746e-06
4.80555e-06
4.80748e-06
4.81017e-06
4.81595e-06
4.81754e-06
4.81624e-06
4.81595e-06
4.81545e-06
4.81762e-06
4.81787e-06
4.81252e-06
4.81166e-06
4.81236e-06
4.81322e-06
4.81212e-06
4.81241e-06
4.80813e-06
4.80718e-06
4.80773e-06
4.80673e-06
4.80715e-06
4.80796e-06
4.80731e-06
4.8074e-06
4.80671e-06
4.80573e-06
4.80529e-06
4.80399e-06
4.8039e-06
4.80585e-06
4.80775e-06
4.80725e-06
4.80714e-06
4.80812e-06
4.80786e-06
4.80811e-06
4.80913e-06
4.80892e-06
4.80959e-06
4.80785e-06
4.80918e-06
4.81123e-06
4.81494e-06
4.82032e-06
4.82845e-06
4.83442e-06
4.83987e-06
4.84305e-06
4.84342e-06
4.84105e-06
4.84028e-06
4.84098e-06
4.84253e-06
4.84306e-06
4.84354e-06
4.84296e-06
4.84287e-06
4.84256e-06
4.84268e-06
4.84268e-06
4.84566e-06
4.85005e-06
4.85055e-06
4.84787e-06
4.84771e-06
4.84779e-06
4.84786e-06
4.84921e-06
4.84633e-06
4.84221e-06
4.84175e-06
4.84284e-06
4.84225e-06
4.84104e-06
4.83954e-06
4.83719e-06
4.83644e-06
4.83604e-06
4.83563e-06
4.83558e-06
4.83601e-06
4.83579e-06
4.83593e-06
4.83534e-06
4.83452e-06
4.83422e-06
4.83347e-06
4.83323e-06
4.83522e-06
4.8382e-06
4.83853e-06
4.83854e-06
4.84062e-06
4.84232e-06
4.84312e-06
4.84403e-06
4.84491e-06
4.84614e-06
4.84606e-06
4.84686e-06
4.84821e-06
4.85025e-06
4.85337e-06
4.85851e-06
4.86439e-06
4.87071e-06
4.87674e-06
4.88138e-06
4.88523e-06
4.88729e-06
4.88369e-06
4.88399e-06
4.88368e-06
4.88355e-06
4.8826e-06
4.88211e-06
4.88171e-06
4.88185e-06
4.8864e-06
4.88856e-06
4.88573e-06
4.88546e-06
4.88405e-06
4.88325e-06
4.88488e-06
4.88603e-06
4.88343e-06
4.87695e-06
4.87576e-06
4.87634e-06
4.87738e-06
4.87614e-06
4.87356e-06
4.87365e-06
4.86967e-06
4.86885e-06
4.86934e-06
4.86789e-06
4.86794e-06
4.86804e-06
4.86802e-06
4.86819e-06
4.86772e-06
4.86706e-06
4.86706e-06
4.8666e-06
4.86644e-06
4.86828e-06
4.87159e-06
4.87416e-06
4.87448e-06
4.8764e-06
4.87914e-06
4.88131e-06
4.88285e-06
4.88401e-06
4.88553e-06
4.88666e-06
4.8881e-06
4.88981e-06
4.8916e-06
4.8937e-06
4.89665e-06
4.90055e-06
4.90516e-06
4.91042e-06
4.91553e-06
4.92075e-06
4.92487e-06
4.93031e-06
4.93014e-06
4.92938e-06
4.92903e-06
4.92611e-06
4.92842e-06
4.92828e-06
4.929e-06
4.9255e-06
4.92536e-06
4.92369e-06
4.92401e-06
4.92544e-06
4.92814e-06
4.92763e-06
4.92192e-06
4.91706e-06
4.91445e-06
4.91481e-06
4.9156e-06
4.91389e-06
4.91149e-06
4.91069e-06
4.90822e-06
4.90574e-06
4.90587e-06
4.90424e-06
4.90382e-06
4.90312e-06
4.90315e-06
4.9032e-06
4.90342e-06
4.90315e-06
4.90264e-06
4.90316e-06
4.90305e-06
4.90287e-06
4.90459e-06
4.90781e-06
4.91195e-06
4.91357e-06
4.91549e-06
4.91849e-06
4.92175e-06
4.92445e-06
4.92631e-06
4.92802e-06
4.92961e-06
4.93151e-06
4.93374e-06
4.93602e-06
4.93829e-06
4.94066e-06
4.9434e-06
4.94649e-06
4.95013e-06
4.95395e-06
4.95822e-06
4.96201e-06
4.9815e-06
4.98098e-06
4.98065e-06
4.98005e-06
4.97993e-06
4.97768e-06
4.97923e-06
4.97519e-06
4.97498e-06
4.97422e-06
4.97479e-06
4.97521e-06
4.97442e-06
4.9682e-06
4.9662e-06
4.96061e-06
4.95791e-06
4.95785e-06
4.95788e-06
4.95583e-06
4.95605e-06
4.95473e-06
4.95091e-06
4.94939e-06
4.947e-06
4.94582e-06
4.9457e-06
4.94395e-06
4.94326e-06
4.94315e-06
4.94319e-06
4.94341e-06
4.94328e-06
4.94289e-06
4.94382e-06
4.94398e-06
4.944e-06
4.94553e-06
4.94829e-06
4.95315e-06
4.95631e-06
4.95881e-06
4.96187e-06
4.96562e-06
4.96931e-06
4.97228e-06
4.97466e-06
4.97665e-06
4.97869e-06
4.98107e-06
4.9836e-06
4.9862e-06
4.98875e-06
4.99132e-06
4.99389e-06
4.99665e-06
4.99941e-06
5.00252e-06
5.00532e-06
5.0376e-06
5.03449e-06
5.03614e-06
5.03637e-06
5.03474e-06
5.03484e-06
5.03006e-06
5.02897e-06
5.02722e-06
5.02722e-06
5.02546e-06
5.02068e-06
5.01805e-06
5.01376e-06
5.00946e-06
5.0058e-06
5.00503e-06
5.00614e-06
5.00421e-06
5.00505e-06
5.00458e-06
4.99828e-06
4.99594e-06
4.99367e-06
4.99127e-06
4.99146e-06
4.98917e-06
4.98819e-06
4.98699e-06
4.98675e-06
4.98673e-06
4.98696e-06
4.98703e-06