/*--------------------------------*- C++ -*----------------------------------*\
| =========                 |                                                 |
| \\      /  F ield         | OpenFOAM: The Open Source CFD Toolbox           |
|  \\    /   O peration     | Version:  2312                                  |
|   \\  /    A nd           | Website:  www.openfoam.com                      |
|    \\/     M anipulation  |                                                 |
\*---------------------------------------------------------------------------*/
FoamFile
{
    version     2.0;
    format      ascii;
    arch        "LSB;label=32;scalar=64";
    class       volScalarField;
    location    "600";
    object      nut;
}
// * * * * * * * * * * * * * * * * * * * * * * * * * * * * * * * * * * * * * //

dimensions      [0 2 -1 0 0 0 0];

internalField   nonuniform List<scalar> 
76025
(
8.33337e-05
8.37913e-05
8.37805e-05
8.49939e-05
8.51447e-05
8.66339e-05
8.77882e-05
8.76217e-05
8.92286e-05
8.95754e-05
9.10136e-05
9.1398e-05
9.19973e-05
9.21183e-05
9.39219e-05
9.36253e-05
9.5371e-05
9.54422e-05
9.90497e-05
9.72634e-05
9.84546e-05
0.000100019
0.000101703
0.000102664
0.000105122
0.000104532
0.000109147
0.000110726
0.000110714
0.000119559
0.000123409
0.000124798
0.000131445
0.000130891
0.000138876
0.00013858
0.000143389
0.000156753
0.000161659
0.00016489
0.000164743
0.000164594
0.000164227
0.000163856
0.000163226
0.000162562
0.000161583
0.000160579
0.000159199
0.000157873
0.000156192
0.000154603
0.000152624
0.000150823
0.000148392
0.000146284
0.000143596
0.000141023
0.000138017
0.000135507
0.000127565
0.000106565
9.27045e-05
7.92108e-05
6.88274e-05
5.97836e-05
5.15556e-05
5.09395e-05
6.72841e-05
7.79629e-05
7.85168e-05
7.88405e-05
7.92915e-05
7.97719e-05
8.02518e-05
8.1212e-05
8.19223e-05
8.27738e-05
8.34873e-05
8.43459e-05
8.52899e-05
8.63681e-05
8.70398e-05
8.7691e-05
8.86163e-05
8.91631e-05
9.03689e-05
9.13747e-05
9.29063e-05
9.3894e-05
9.52365e-05
9.63291e-05
9.74753e-05
9.89994e-05
0.000100825
0.000102145
0.000104029
0.000105864
0.000107375
0.000110469
0.000114324
0.000117002
0.000120732
0.000123408
0.000127794
0.000133517
0.000139171
0.000145349
0.000150803
0.000157862
0.000163218
0.000162627
0.000161977
0.000161096
0.000160156
0.000158971
0.00015774
0.000156287
0.000154793
0.000153083
0.000151291
0.00014928
0.000147092
0.000144672
0.000142054
0.000139161
0.000136255
0.000133325
0.000130492
0.000127726
0.000112946
9.52844e-05
7.99793e-05
6.78482e-05
5.85268e-05
5.37993e-05
6.31241e-05
8.01325e-05
7.22398e-05
7.3199e-05
7.40093e-05
7.46946e-05
7.53118e-05
7.57917e-05
7.63818e-05
7.70829e-05
7.78518e-05
7.86852e-05
7.95255e-05
8.04208e-05
8.14283e-05
8.24721e-05
8.33867e-05
8.44158e-05
8.53196e-05
8.63879e-05
8.73479e-05
8.85812e-05
8.98686e-05
9.12284e-05
9.25693e-05
9.39374e-05
9.54173e-05
9.71737e-05
9.89025e-05
0.000100783
0.000102918
0.00010521
0.000107761
0.000110676
0.000113609
0.000116662
0.000120021
0.000123937
0.00012851
0.000133538
0.000138636
0.00014406
0.000150488
0.000158588
0.000160423
0.000159616
0.000158569
0.000157522
0.00015621
0.000154923
0.000153347
0.000151795
0.000149892
0.000147973
0.000145643
0.000143274
0.000140505
0.000137714
0.000134665
0.000131839
0.000128936
0.000126395
0.000122777
0.000103099
8.72061e-05
7.34949e-05
6.23734e-05
5.53656e-05
5.53889e-05
7.07963e-05
8.39943e-05
6.69197e-05
6.78184e-05
6.87775e-05
6.97677e-05
7.05993e-05
7.13106e-05
7.19761e-05
7.26535e-05
7.33628e-05
7.41207e-05
7.49188e-05
7.57498e-05
7.66281e-05
7.75796e-05
7.85722e-05
7.96031e-05
8.06658e-05
8.17448e-05
8.28503e-05
8.39831e-05
8.51858e-05
8.64456e-05
8.7766e-05
8.91495e-05
9.06159e-05
9.2177e-05
9.38424e-05
9.56018e-05
9.75065e-05
9.95994e-05
0.000101817
0.000104185
0.000106757
0.000109467
0.000112526
0.000115891
0.000119668
0.00012385
0.000128311
0.00013324
0.000138814
0.000145303
0.000152972
0.000156947
0.000155803
0.000154652
0.000153246
0.000151831
0.000150128
0.00014837
0.00014627
0.000144063
0.000141517
0.000138889
0.000135974
0.000133045
0.000130013
0.000127186
0.000124403
0.000121753
0.000116393
9.79334e-05
8.21986e-05
6.87602e-05
5.94207e-05
5.50921e-05
6.20458e-05
8.79e-05
7.45825e-05
6.27523e-05
6.32393e-05
6.39009e-05
6.47696e-05
6.56107e-05
6.64271e-05
6.72447e-05
6.80487e-05
6.88279e-05
6.9596e-05
7.03756e-05
7.11782e-05
7.20104e-05
7.28828e-05
7.38041e-05
7.47746e-05
7.57982e-05
7.68647e-05
7.79775e-05
7.91279e-05
8.03204e-05
8.15575e-05
8.28474e-05
8.41981e-05
8.56206e-05
8.71245e-05
8.87182e-05
9.04068e-05
9.22058e-05
9.4129e-05
9.61763e-05
9.8365e-05
0.000100769
0.00010336
0.000106207
0.000109301
0.000112704
0.000116442
0.000120531
0.000125059
0.00013015
0.000135948
0.000142712
0.000150731
0.00015271
0.000151459
0.000149928
0.000148382
0.000146495
0.000144539
0.000142207
0.000139796
0.000137075
0.000134316
0.000131311
0.000128343
0.00012535
0.000122602
0.000119836
0.000117143
0.000107707
9.05698e-05
7.55801e-05
6.37529e-05
5.70396e-05
5.68662e-05
7.33498e-05
8.03711e-05
6.75911e-05
5.95147e-05
5.97405e-05
6.00687e-05
6.06176e-05
6.12142e-05
6.18777e-05
6.26363e-05
6.34558e-05
6.42928e-05
6.51278e-05
6.59617e-05
6.68029e-05
6.76594e-05
6.85379e-05
6.94452e-05
7.0389e-05
7.1376e-05
7.24105e-05
7.34947e-05
7.46299e-05
7.58153e-05
7.70517e-05
7.83412e-05
7.96895e-05
8.11035e-05
8.25925e-05
8.41622e-05
8.58208e-05
8.75774e-05
8.9444e-05
9.14266e-05
9.35374e-05
9.58511e-05
9.83559e-05
0.000101064
0.000103986
0.000107168
0.000110651
0.000114479
0.000118714
0.000123445
0.000128775
0.000134844
0.000141973
0.000149281
0.000147916
0.000146252
0.000144541
0.000142464
0.000140298
0.000137789
0.000135225
0.000132416
0.000129574
0.000126553
0.0001236
0.000120723
0.000117971
0.000115161
0.00011221
9.8166e-05
8.25246e-05
6.90443e-05
5.98318e-05
5.67189e-05
6.26632e-05
8.35076e-05
7.25198e-05
6.25686e-05
5.63748e-05
5.6658e-05
5.69223e-05
5.73123e-05
5.77031e-05
5.81524e-05
5.87193e-05
5.93933e-05
6.01405e-05
6.09358e-05
6.17654e-05
6.26229e-05
6.35054e-05
6.4412e-05
6.53432e-05
6.6302e-05
6.72923e-05
6.832e-05
6.93897e-05
7.05065e-05
7.16739e-05
7.28955e-05
7.41741e-05
7.55137e-05
7.69186e-05
7.83945e-05
7.99467e-05
8.15825e-05
8.33097e-05
8.51379e-05
8.70716e-05
8.91253e-05
9.13599e-05
9.37943e-05
9.63884e-05
9.9179e-05
0.000102201
0.000105495
0.000109101
0.000113064
0.000117438
0.000122288
0.000127664
0.000133763
0.000140747
0.000143948
0.000142123
0.000140228
0.000137964
0.000135642
0.000133029
0.000130403
0.000127573
0.000124726
0.000121757
0.000118906
0.000116082
0.000113206
0.000110145
0.000102876
8.82049e-05
7.4468e-05
6.34042e-05
5.77403e-05
5.89698e-05
7.30163e-05
7.68799e-05
6.55622e-05
5.94726e-05
5.29157e-05
5.33654e-05
5.37532e-05
5.41981e-05
5.45772e-05
5.49537e-05
5.54027e-05
5.59369e-05
5.6545e-05
5.72186e-05
5.79523e-05
5.87421e-05
5.95823e-05
6.04675e-05
6.13927e-05
6.2355e-05
6.33533e-05
6.43887e-05
6.54636e-05
6.65814e-05
6.77459e-05
6.89613e-05
7.02316e-05
7.15611e-05
7.29544e-05
7.44159e-05
7.59511e-05
7.75664e-05
7.92684e-05
8.1064e-05
8.29552e-05
8.49697e-05
8.71421e-05
8.95098e-05
9.20065e-05
9.46775e-05
9.7548e-05
0.000100648
0.000104002
0.000107633
0.00011156
0.000115805
0.000120367
0.000125249
0.000130562
0.000136273
0.000137626
0.000135567
0.000133188
0.000130786
0.000128157
0.000125517
0.000122709
0.000119891
0.000117011
0.000114199
0.000111236
0.000108024
0.000103741
9.13888e-05
7.87455e-05
6.73436e-05
5.96136e-05
5.8033e-05
6.43167e-05
7.86251e-05
7.01698e-05
6.03774e-05
6.04724e-05
4.93464e-05
4.98788e-05
5.03697e-05
5.09167e-05
5.13857e-05
5.18191e-05
5.22812e-05
5.27864e-05
5.33326e-05
5.39227e-05
5.45633e-05
5.52605e-05
5.60162e-05
5.68296e-05
5.76975e-05
5.86166e-05
5.95843e-05
6.05992e-05
6.16612e-05
6.27708e-05
6.393e-05
6.5141e-05
6.64067e-05
6.77301e-05
6.91151e-05
7.05652e-05
7.20849e-05
7.36792e-05
7.53536e-05
7.71128e-05
7.8956e-05
8.09279e-05
8.30345e-05
8.52987e-05
8.76704e-05
9.01835e-05
9.28516e-05
9.56907e-05
9.87059e-05
0.000101898
0.000105259
0.000108779
0.000112433
0.000116175
0.000119968
0.000123869
0.000127737
0.00013057
0.000128167
0.000125748
0.000123145
0.00012049
0.000117705
0.000114902
0.000112039
0.000109073
0.000105749
0.00010123
9.14714e-05
8.10163e-05
7.05558e-05
6.20617e-05
5.8172e-05
6.04979e-05
7.03008e-05
7.22759e-05
6.37677e-05
5.63401e-05
6.7696e-05
4.59513e-05
4.64743e-05
4.69773e-05
4.75577e-05
4.80842e-05
4.8583e-05
4.9102e-05
4.96462e-05
5.02084e-05
5.07905e-05
5.14011e-05
5.20503e-05
5.27462e-05
5.34937e-05
5.42947e-05
5.51498e-05
5.60589e-05
5.7022e-05
5.8039e-05
5.91101e-05
6.0236e-05
6.14174e-05
6.26561e-05
6.39533e-05
6.53116e-05
6.67328e-05
6.82202e-05
6.97772e-05
7.1407e-05
7.3112e-05
7.48883e-05
7.67896e-05
7.88054e-05
8.09238e-05
8.31288e-05
8.54356e-05
8.78464e-05
9.03645e-05
9.29802e-05
9.56815e-05
9.84491e-05
0.000101264
0.000104096
0.000106914
0.000109675
0.000112325
0.000114865
0.000117228
0.000119106
0.000120216
0.000117937
0.000115211
0.000112418
0.000109534
0.00010653
0.000103223
9.67301e-05
8.92609e-05
8.11472e-05
7.24143e-05
6.42898e-05
5.90812e-05
5.85357e-05
6.18553e-05
6.75584e-05
6.59399e-05
5.7981e-05
5.10474e-05
8.5102e-05
4.28442e-05
4.33316e-05
4.38012e-05
4.43567e-05
4.48799e-05
4.53925e-05
4.59349e-05
4.65067e-05
4.70954e-05
4.76972e-05
4.83164e-05
4.89606e-05
4.96374e-05
5.03532e-05
5.11125e-05
5.19187e-05
5.27745e-05
5.36821e-05
5.46434e-05
5.56595e-05
5.67316e-05
5.78602e-05
5.90465e-05
6.02912e-05
6.15955e-05
6.29601e-05
6.43868e-05
6.58774e-05
6.74325e-05
6.90509e-05
7.07306e-05
7.25171e-05
7.44031e-05
7.63414e-05
7.83456e-05
8.04164e-05
8.25505e-05
8.4745e-05
8.69854e-05
8.92596e-05
9.15493e-05
9.38385e-05
9.61036e-05
9.83229e-05
0.000100466
0.000102488
0.000104311
0.000105883
0.00010712
0.000107793
0.000107606
0.000106411
0.000104172
0.000100845
9.65327e-05
9.1474e-05
8.58631e-05
7.97045e-05
7.29173e-05
6.58352e-05
6.01468e-05
5.75145e-05
5.68377e-05
5.59472e-05
5.97827e-05
5.92553e-05
5.28253e-05
5.48846e-05
9.85083e-05
3.99752e-05
4.04338e-05
4.08686e-05
4.13862e-05
4.18809e-05
4.23738e-05
4.29032e-05
4.3469e-05
4.40586e-05
4.46657e-05
4.52909e-05
4.59381e-05
4.66119e-05
4.73165e-05
4.80555e-05
4.88322e-05
4.965e-05
5.0512e-05
5.14211e-05
5.23796e-05
5.33898e-05
5.44533e-05
5.55714e-05
5.67453e-05
5.7976e-05
5.92638e-05
6.061e-05
6.20147e-05
6.34774e-05
6.49927e-05
6.65722e-05
6.82369e-05
6.99845e-05
7.17647e-05
7.35966e-05
7.54767e-05
7.73997e-05
7.93606e-05
8.13448e-05
8.33433e-05
8.53391e-05
8.7319e-05
8.92607e-05
9.11416e-05
9.29252e-05
9.45664e-05
9.59952e-05
9.71002e-05
9.77703e-05
9.78839e-05
9.72585e-05
9.57341e-05
9.33195e-05
9.01213e-05
8.63439e-05
8.21679e-05
7.76062e-05
7.24798e-05
6.66695e-05
6.09529e-05
5.67055e-05
5.3128e-05
4.90047e-05
4.86728e-05
5.81745e-05
5.25523e-05
4.7291e-05
6.79757e-05
0.000110359
3.73325e-05
3.777e-05
3.81786e-05
3.86643e-05
3.91308e-05
3.95974e-05
4.01009e-05
4.06427e-05
4.12124e-05
4.18041e-05
4.24179e-05
4.30561e-05
4.37215e-05
4.44161e-05
4.51421e-05
4.59012e-05
4.66959e-05
4.75288e-05
4.84028e-05
4.93206e-05
5.02847e-05
5.12976e-05
5.23612e-05
5.34773e-05
5.46473e-05
5.58716e-05
5.71515e-05
5.84865e-05
5.98756e-05
6.13099e-05
6.28183e-05
6.43999e-05
6.60357e-05
6.77062e-05
6.9418e-05
7.11682e-05
7.29499e-05
7.47579e-05
7.65784e-05
7.84044e-05
8.02175e-05
8.20046e-05
8.37384e-05
8.53918e-05
8.6918e-05
8.82628e-05
8.93466e-05
9.00687e-05
9.02956e-05
8.98966e-05
8.88106e-05
8.70383e-05
8.46946e-05
8.19279e-05
7.89146e-05
7.5633e-05
7.17749e-05
6.69936e-05
6.14071e-05
5.56339e-05
4.97127e-05
4.40268e-05
4.24276e-05
5.04406e-05
5.11351e-05
4.68793e-05
4.9821e-05
8.33953e-05
0.000116281
3.48787e-05
3.52986e-05
3.56869e-05
3.61476e-05
3.65923e-05
3.70375e-05
3.75173e-05
3.80341e-05
3.85793e-05
3.91481e-05
3.9741e-05
4.03604e-05
4.1009e-05
4.16882e-05
4.23997e-05
4.31443e-05
4.39238e-05
4.47398e-05
4.55949e-05
4.64908e-05
4.74303e-05
4.84152e-05
4.94476e-05
5.05292e-05
5.16611e-05
5.28442e-05
5.40795e-05
5.5366e-05
5.67014e-05
5.80787e-05
5.95324e-05
6.10551e-05
6.2606e-05
6.41981e-05
6.58254e-05
6.74868e-05
6.91735e-05
7.08808e-05
7.25944e-05
7.43064e-05
7.59948e-05
7.76435e-05
7.92185e-05
8.06874e-05
8.19933e-05
8.3073e-05
8.38324e-05
8.41745e-05
8.40044e-05
8.32745e-05
8.20249e-05
8.03909e-05
7.85322e-05
7.64993e-05
7.42471e-05
7.13248e-05
6.70976e-05
6.1308e-05
5.41409e-05
4.62224e-05
3.99824e-05
3.84996e-05
4.56763e-05
4.77828e-05
4.46004e-05
4.2651e-05
6.57688e-05
9.14574e-05
0.000118334
3.26055e-05
3.30089e-05
3.33794e-05
3.38185e-05
3.42451e-05
3.46729e-05
3.51335e-05
3.56292e-05
3.61526e-05
3.66998e-05
3.72714e-05
3.78701e-05
3.84988e-05
3.91594e-05
3.98535e-05
4.05821e-05
4.13469e-05
4.21492e-05
4.29911e-05
4.38741e-05
4.48e-05
4.57704e-05
4.67866e-05
4.785e-05
4.89611e-05
5.01209e-05
5.13295e-05
5.25864e-05
5.3886e-05
5.52352e-05
5.66511e-05
5.81231e-05
5.96184e-05
6.11553e-05
6.27242e-05
6.4325e-05
6.59465e-05
6.75837e-05
6.92195e-05
7.08435e-05
7.24305e-05
7.39602e-05
7.53948e-05
7.66938e-05
7.77918e-05
7.8617e-05
7.90827e-05
7.91403e-05
7.87794e-05
7.80921e-05
7.71985e-05
7.62008e-05
7.50752e-05
7.36049e-05
7.12471e-05
6.7015e-05
6.03868e-05
5.17978e-05
4.28676e-05
3.64941e-05
3.6007e-05
4.40255e-05
4.50398e-05
4.04638e-05
3.97063e-05
5.43085e-05
7.70131e-05
9.75411e-05
0.000121178
3.04796e-05
3.08666e-05
3.122e-05
3.16382e-05
3.20467e-05
3.24575e-05
3.28993e-05
3.33747e-05
3.38771e-05
3.44031e-05
3.49535e-05
3.55308e-05
3.61381e-05
3.67776e-05
3.74511e-05
3.81598e-05
3.89054e-05
3.96895e-05
4.05138e-05
4.13801e-05
4.22899e-05
4.32444e-05
4.42449e-05
4.52921e-05
4.63867e-05
4.75291e-05
4.87192e-05
4.99562e-05
5.1231e-05
5.25711e-05
5.39749e-05
5.54153e-05
5.68918e-05
5.84049e-05
5.99464e-05
6.1513e-05
6.30917e-05
6.46764e-05
6.62489e-05
6.77974e-05
6.92959e-05
7.07206e-05
7.20298e-05
7.31727e-05
7.40889e-05
7.47253e-05
7.50652e-05
7.51671e-05
7.51183e-05
7.50219e-05
7.48763e-05
7.4573e-05
7.3602e-05
7.12566e-05
6.63748e-05
5.84121e-05
4.84841e-05
3.95688e-05
3.41493e-05
3.43979e-05
4.42586e-05
4.04549e-05
3.77447e-05
3.53865e-05
4.91441e-05
6.469e-05
7.93296e-05
9.63517e-05
0.000119108
2.8518e-05
2.88886e-05
2.92263e-05
2.96252e-05
3.00169e-05
3.04117e-05
3.08357e-05
3.12919e-05
3.17744e-05
3.22803e-05
3.28103e-05
3.33671e-05
3.39535e-05
3.45721e-05
3.52246e-05
3.59129e-05
3.66386e-05
3.74036e-05
3.82098e-05
3.90591e-05
3.99533e-05
4.08938e-05
4.1882e-05
4.29186e-05
4.40045e-05
4.51402e-05
4.63252e-05
4.75568e-05
4.88316e-05
5.01713e-05
5.15624e-05
5.29773e-05
5.44316e-05
5.59182e-05
5.74304e-05
5.89627e-05
6.05024e-05
6.20426e-05
6.35643e-05
6.50546e-05
6.64839e-05
6.78245e-05
6.90341e-05
7.00753e-05
7.09365e-05
7.16539e-05
7.23179e-05
7.29981e-05
7.37519e-05
7.44733e-05
7.32311e-05
7.10811e-05
6.76263e-05
6.45611e-05
5.5092e-05
4.47283e-05
3.64355e-05
3.29794e-05
3.50215e-05
4.01832e-05
3.58844e-05
3.37349e-05
3.28239e-05
4.6006e-05
5.65767e-05
6.63369e-05
8.10358e-05
9.49529e-05
0.000117637
2.66848e-05
2.70373e-05
2.73578e-05
2.7736e-05
2.81093e-05
2.84864e-05
2.88912e-05
2.93266e-05
2.97876e-05
3.02716e-05
3.07795e-05
3.13138e-05
3.18773e-05
3.24725e-05
3.31016e-05
3.37664e-05
3.44686e-05
3.52106e-05
3.59943e-05
3.6822e-05
3.76954e-05
3.86166e-05
3.95866e-05
4.06067e-05
4.16776e-05
4.27999e-05
4.39731e-05
4.519e-05
4.64698e-05
4.782e-05
4.92138e-05
5.06464e-05
5.21156e-05
5.36122e-05
5.5128e-05
5.66545e-05
5.8181e-05
5.96985e-05
6.11883e-05
6.26359e-05
6.40148e-05
6.53091e-05
6.65129e-05
6.76652e-05
6.88484e-05
7.01339e-05
7.16072e-05
7.3155e-05
7.14363e-05
6.92724e-05
6.61686e-05
6.42989e-05
6.03045e-05
5.0496e-05
4.09082e-05
3.44462e-05
3.27625e-05
3.96274e-05
3.60948e-05
3.05937e-05
3.03422e-05
3.13893e-05
4.16261e-05
5.00022e-05
5.75062e-05
6.6689e-05
7.84635e-05
9.38063e-05
0.000120051
2.50413e-05
2.53753e-05
2.56802e-05
2.60398e-05
2.63964e-05
2.67573e-05
2.71444e-05
2.75608e-05
2.80022e-05
2.84664e-05
2.89542e-05
2.94683e-05
3.00115e-05
3.05866e-05
3.11957e-05
3.18412e-05
3.2525e-05
3.32498e-05
3.40179e-05
3.48321e-05
3.56946e-05
3.66081e-05
3.75739e-05
3.85944e-05
3.96704e-05
4.08029e-05
4.19896e-05
4.32262e-05
4.45248e-05
4.58709e-05
4.72476e-05
4.86674e-05
5.01231e-05
5.1608e-05
5.31144e-05
5.46327e-05
5.61508e-05
5.76565e-05
5.91327e-05
6.0575e-05
6.19875e-05
6.34182e-05
6.49345e-05
6.66149e-05
6.8554e-05
7.06606e-05
6.89873e-05
6.69078e-05
6.43147e-05
6.22517e-05
5.87998e-05
5.51724e-05
4.53997e-05
3.75639e-05
3.40878e-05
3.54525e-05
3.44417e-05
3.01432e-05
2.74654e-05
2.59941e-05
3.12622e-05
3.80979e-05
4.35911e-05
5.01544e-05
5.73032e-05
6.69632e-05
7.72437e-05
9.39406e-05
0.000121433
2.34816e-05
2.37977e-05
2.40857e-05
2.44246e-05
2.47621e-05
2.51046e-05
2.54719e-05
2.58672e-05
2.62866e-05
2.67285e-05
2.71935e-05
2.76843e-05
2.82036e-05
2.87544e-05
2.9339e-05
2.996e-05
3.06196e-05
3.13209e-05
3.20664e-05
3.28594e-05
3.37024e-05
3.45981e-05
3.55489e-05
3.65569e-05
3.76237e-05
3.87507e-05
3.99311e-05
4.11899e-05
4.25359e-05
4.39372e-05
4.53919e-05
4.68901e-05
4.84196e-05
4.99673e-05
5.15215e-05
5.30716e-05
5.46089e-05
5.61349e-05
5.76646e-05
5.92515e-05
6.09526e-05
6.28426e-05
6.50037e-05
6.73547e-05
6.58719e-05
6.40642e-05
6.16883e-05
5.9709e-05
5.65855e-05
5.45112e-05
4.82152e-05
4.0603e-05
3.62258e-05
3.59116e-05
3.29493e-05
2.94672e-05
2.4681e-05
2.36732e-05
2.37906e-05
3.00791e-05
3.47333e-05
3.92129e-05
4.317e-05
5.1883e-05
5.64463e-05
6.44963e-05
7.79809e-05
0.000100373
0.000121345
2.21926e-05
2.24865e-05
2.27583e-05
2.308e-05
2.34014e-05
2.3728e-05
2.40784e-05
2.4456e-05
2.48578e-05
2.52824e-05
2.57308e-05
2.62056e-05
2.67099e-05
2.72467e-05
2.78187e-05
2.84288e-05
2.90797e-05
2.97748e-05
3.05176e-05
3.13118e-05
3.21612e-05
3.30691e-05
3.40394e-05
3.50745e-05
3.61768e-05
3.73448e-05
3.85748e-05
3.98684e-05
4.12095e-05
4.25959e-05
4.40415e-05
4.5534e-05
4.70663e-05
4.86232e-05
5.01988e-05
5.17961e-05
5.34324e-05
5.51484e-05
5.69833e-05
5.89934e-05
6.12338e-05
6.35909e-05
6.20665e-05
6.04815e-05
5.82575e-05
5.64123e-05
5.35241e-05
5.13507e-05
4.7431e-05
4.17853e-05
3.81468e-05
3.64228e-05
3.12883e-05
2.74722e-05
2.29955e-05
2.09927e-05
1.9826e-05
2.31772e-05
2.80305e-05
3.116e-05
3.472e-05
3.87226e-05
4.22083e-05
4.75713e-05
5.62655e-05
6.87571e-05
8.70924e-05
0.000106573
0.000130646
2.08748e-05
2.11598e-05
2.14203e-05
2.17238e-05
2.20279e-05
2.23373e-05
2.26688e-05
2.30254e-05
2.34047e-05
2.38057e-05
2.42296e-05
2.46791e-05
2.51573e-05
2.56672e-05
2.62121e-05
2.67948e-05
2.74186e-05
2.80871e-05
2.88042e-05
2.9574e-05
3.04007e-05
3.12891e-05
3.22437e-05
3.32699e-05
3.43709e-05
3.55488e-05
3.6838e-05
3.82421e-05
3.97302e-05
4.12927e-05
4.29171e-05
4.45854e-05
4.62891e-05
4.80175e-05
4.97895e-05
5.16196e-05
5.35307e-05
5.55441e-05
5.76719e-05
5.91876e-05
5.77257e-05
5.61679e-05
5.41685e-05
5.23667e-05
4.96332e-05
4.72934e-05
4.37167e-05
4.07262e-05
3.62608e-05
3.3025e-05
2.82401e-05
2.47077e-05
2.10582e-05
1.8436e-05
1.71076e-05
1.74413e-05
2.23719e-05
2.52594e-05
2.87509e-05
3.03141e-05
3.36025e-05
3.53579e-05
4.11844e-05
5.05338e-05
6.36627e-05
8.14121e-05
0.000104061
0.000123461
0.000143331
2.00155e-05
2.02664e-05
2.05065e-05
2.07956e-05
2.10869e-05
2.13838e-05
2.1703e-05
2.20479e-05
2.24163e-05
2.28073e-05
2.32223e-05
2.36638e-05
2.4135e-05
2.46395e-05
2.51807e-05
2.57622e-05
2.63881e-05
2.70631e-05
2.77924e-05
2.85811e-05
2.94346e-05
3.03578e-05
3.13547e-05
3.24295e-05
3.35836e-05
3.48105e-05
3.60996e-05
3.74531e-05
3.88945e-05
4.04344e-05
4.20823e-05
4.38385e-05
4.57095e-05
4.76686e-05
4.96901e-05
5.17251e-05
5.36802e-05
5.41402e-05
5.30564e-05
5.11772e-05
4.96138e-05
4.7347e-05
4.49513e-05
4.21669e-05
3.88434e-05
3.54015e-05
3.16978e-05
2.79819e-05
2.44142e-05
2.13123e-05
1.81978e-05
1.60777e-05
1.48036e-05
1.39965e-05
1.68579e-05
1.99048e-05
2.32318e-05
2.52191e-05
2.68623e-05
2.86934e-05
2.79141e-05
3.30396e-05
4.26268e-05
5.71622e-05
7.77793e-05
0.000100064
0.000124127
0.000147226
0.000156035
1.89155e-05
1.91746e-05
1.94115e-05
1.96812e-05
1.99517e-05
2.02281e-05
2.05245e-05
2.08442e-05
2.11858e-05
2.15494e-05
2.19362e-05
2.2349e-05
2.27909e-05
2.32654e-05
2.37756e-05
2.43247e-05
2.49161e-05
2.55549e-05
2.62489e-05
2.7007e-05
2.78381e-05
2.87527e-05
2.97613e-05
3.08667e-05
3.21028e-05
3.35101e-05
3.50739e-05
3.67866e-05
3.86508e-05
4.06567e-05
4.27885e-05
4.49855e-05
4.71795e-05
4.92112e-05
4.99675e-05
4.84922e-05
4.75444e-05
4.53039e-05
4.40004e-05
4.09419e-05
3.89723e-05
3.53341e-05
3.25327e-05
2.87625e-05
2.5669e-05
2.22388e-05
1.96721e-05
1.69876e-05
1.53275e-05
1.3415e-05
1.23482e-05
1.15394e-05
1.21774e-05
1.44755e-05
1.71641e-05
2.04064e-05
2.2062e-05
2.38828e-05
2.13044e-05
1.88827e-05
2.32412e-05
3.235e-05
4.92493e-05
7.21493e-05
9.79791e-05
0.00012229
0.00014439
0.000163022
0.000166529
1.87255e-05
1.89299e-05
1.91426e-05
1.94093e-05
1.96781e-05
1.99501e-05
2.02408e-05
2.05545e-05
2.08897e-05
2.12464e-05
2.16262e-05
2.20322e-05
2.2468e-05
2.29377e-05
2.34451e-05
2.39943e-05
2.45899e-05
2.52369e-05
2.59399e-05
2.67054e-05
2.75429e-05
2.84687e-05
2.95028e-05
3.06482e-05
3.1905e-05
3.32949e-05
3.48438e-05
3.65628e-05
3.84011e-05
4.03064e-05
4.2148e-05
4.37776e-05
4.36926e-05
4.20606e-05
4.04616e-05
3.8027e-05
3.60553e-05
3.27126e-05
3.04779e-05
2.67293e-05
2.43581e-05
2.09702e-05
1.87013e-05
1.62453e-05
1.4489e-05
1.28167e-05
1.18128e-05
1.04031e-05
9.32374e-06
8.47977e-06
8.66209e-06
9.75257e-06
1.14905e-05
1.42655e-05
1.71227e-05
1.91793e-05
1.93218e-05
1.33521e-05
1.0738e-05
1.36913e-05
2.34397e-05
3.99658e-05
6.24721e-05
8.92071e-05
0.000116051
0.000139732
0.000159461
0.000175594
0.000172035
1.78577e-05
1.8111e-05
1.8337e-05
1.85854e-05
1.88393e-05
1.9106e-05
1.93961e-05
1.97119e-05
2.00525e-05
2.04186e-05
2.08126e-05
2.12386e-05
2.1702e-05
2.22096e-05
2.27689e-05
2.33888e-05
2.4078e-05
2.48618e-05
2.57649e-05
2.67914e-05
2.7937e-05
2.91839e-05
3.05427e-05
3.2015e-05
3.35468e-05
3.50738e-05
3.65465e-05
3.78462e-05
3.64888e-05
3.49501e-05
3.3113e-05
3.11103e-05
2.88951e-05
2.65299e-05
2.41574e-05
2.16733e-05
1.94081e-05
1.71037e-05
1.53294e-05
1.33377e-05
1.21265e-05
1.0738e-05
9.7586e-06
8.75423e-06
7.83977e-06
7.43758e-06
6.63291e-06
6.14987e-06
6.31187e-06
6.84624e-06
7.77346e-06
9.14142e-06
1.12892e-05
1.31174e-05
1.47125e-05
1.27796e-05
7.37957e-06
5.29134e-06
6.82629e-06
1.20508e-05
2.24933e-05
3.9499e-05
6.3687e-05
9.24224e-05
0.000119192
0.000143524
0.000163344
0.000178847
0.000168072
2.03027e-05
2.05192e-05
2.07937e-05
2.11385e-05
2.14807e-05
2.18193e-05
2.22015e-05
2.25553e-05
2.2964e-05
2.34582e-05
2.39224e-05
2.44749e-05
2.50783e-05
2.56785e-05
2.63819e-05
2.7156e-05
2.74872e-05
2.70818e-05
2.6605e-05
2.60943e-05
2.56188e-05
2.50522e-05
2.43214e-05
2.34605e-05
2.2458e-05
2.13133e-05
1.99771e-05
1.8616e-05
1.71496e-05
1.58052e-05
1.44119e-05
1.32181e-05
1.2032e-05
1.09874e-05
1.00913e-05
9.1225e-06
8.50509e-06
8.06172e-06
7.40551e-06
6.78619e-06
6.0237e-06
5.50864e-06
5.02569e-06
4.66464e-06
4.44658e-06
4.28059e-06
4.13748e-06
4.14965e-06
4.1346e-06
3.97233e-06
4.23287e-06
4.61225e-06
4.73839e-06
5.66231e-06
5.62447e-06
2.97772e-06
1.45653e-06
2.21381e-06
4.3151e-06
8.23213e-06
1.58493e-05
2.80762e-05
4.64752e-05
7.0958e-05
9.60957e-05
0.00011826
0.000139768
0.000158858
0.00015674
8.72972e-06
8.62261e-06
8.51971e-06
8.42175e-06
8.32681e-06
8.23525e-06
8.14573e-06
8.05771e-06
7.97065e-06
7.88403e-06
7.79816e-06
7.71112e-06
7.62424e-06
7.5358e-06
7.44507e-06
7.35264e-06
7.25505e-06
7.154e-06
7.04377e-06
6.92966e-06
6.81401e-06
6.69965e-06
6.60003e-06
6.50478e-06
6.42745e-06
6.34581e-06
6.28414e-06
6.20971e-06
6.1573e-06
6.05884e-06
6.00723e-06
5.86359e-06
5.78472e-06
5.53768e-06
5.3195e-06
4.94095e-06
4.62007e-06
4.26445e-06
3.8418e-06
3.4511e-06
3.06679e-06
2.6961e-06
2.28617e-06
1.96209e-06
1.55888e-06
1.13432e-06
8.70064e-07
7.09637e-07
6.59899e-07
7.48515e-07
9.33467e-07
1.19695e-06
1.42587e-06
1.51798e-06
1.07255e-06
4.32712e-07
2.42158e-07
4.55804e-07
1.05255e-06
2.34623e-06
4.80494e-06
9.09099e-06
1.63511e-05
2.76264e-05
4.1797e-05
5.53799e-05
6.8e-05
8.28237e-05
0.00010232
3.53745e-06
3.66718e-06
3.79743e-06
3.92747e-06
4.05789e-06
4.1871e-06
4.31738e-06
4.44458e-06
4.57513e-06
4.6984e-06
4.8303e-06
4.94714e-06
5.08129e-06
5.19053e-06
5.32396e-06
5.43223e-06
5.54834e-06
5.68005e-06
5.76559e-06
5.81527e-06
5.85595e-06
5.85063e-06
5.85127e-06
5.84284e-06
5.84975e-06
5.76665e-06
5.72965e-06
5.63845e-06
5.50947e-06
5.33345e-06
5.1282e-06
4.87606e-06
4.56664e-06
4.19339e-06
3.75521e-06
3.25526e-06
2.70384e-06
2.13017e-06
1.55345e-06
9.97127e-07
5.37241e-07
2.4118e-07
1.0578e-07
6.56656e-08
5.39301e-08
4.63431e-08
4.22595e-08
4.02418e-08
3.95617e-08
4.06785e-08
4.18726e-08
4.22096e-08
3.98423e-08
3.34052e-08
2.13571e-08
1.24663e-08
1.50205e-08
4.043e-08
1.74956e-07
4.98563e-07
9.62475e-07
1.49176e-06
2.05029e-06
2.63791e-06
3.26951e-06
4.02797e-06
4.89831e-06
5.83788e-06
6.73669e-06
6.08531e-05
6.07509e-05
6.04458e-05
6.1234e-05
6.08745e-05
6.02349e-05
5.97323e-05
6.0237e-05
6.13264e-05
6.15264e-05
6.21276e-05
6.16569e-05
6.08065e-05
6.04091e-05
6.13307e-05
6.38121e-05
6.25983e-05
6.22252e-05
6.26378e-05
6.33236e-05
6.32275e-05
6.33499e-05
6.40174e-05
6.36974e-05
6.45526e-05
6.49403e-05
6.5013e-05
6.47203e-05
6.61326e-05
6.72178e-05
6.72032e-05
6.73418e-05
6.81704e-05
6.92874e-05
6.88607e-05
6.93003e-05
7.04862e-05
7.01724e-05
7.05877e-05
7.35265e-05
7.28897e-05
7.18527e-05
7.38755e-05
7.57116e-05
7.57016e-05
7.54633e-05
7.66179e-05
7.77816e-05
7.79949e-05
7.78509e-05
7.72909e-05
7.59777e-05
7.74321e-05
7.73861e-05
7.99573e-05
8.17897e-05
8.22292e-05
8.23849e-05
8.29156e-05
5.64176e-05
5.62113e-05
5.62317e-05
5.62656e-05
5.61542e-05
5.61231e-05
5.63517e-05
5.69382e-05
5.74782e-05
5.76071e-05
5.734e-05
5.69362e-05
5.70131e-05
5.71868e-05
5.84737e-05
5.85598e-05
5.7879e-05
5.78648e-05
5.86512e-05
5.92234e-05
5.88795e-05
5.89369e-05
5.93247e-05
5.9521e-05
6.00363e-05
6.02506e-05
6.06528e-05
6.04615e-05
6.13003e-05
6.24489e-05
6.22207e-05
6.26389e-05
6.32832e-05
6.42956e-05
6.43397e-05
6.46704e-05
6.57699e-05
6.59718e-05
6.59668e-05
6.71699e-05
6.77908e-05
6.75155e-05
6.80564e-05
6.97366e-05
7.08527e-05
7.09438e-05
7.13912e-05
7.22552e-05
7.31787e-05
7.36403e-05
7.32851e-05
7.25953e-05
7.21819e-05
7.21727e-05
7.27208e-05
7.43847e-05
7.57631e-05
7.67946e-05
7.73535e-05
5.22237e-05
5.222e-05
5.23052e-05
5.24039e-05
5.25833e-05
5.28397e-05
5.31558e-05
5.3423e-05
5.34679e-05
5.33197e-05
5.31083e-05
5.31529e-05
5.35047e-05
5.38971e-05
5.43275e-05
5.3941e-05
5.38614e-05
5.42343e-05
5.49035e-05
5.51501e-05
5.47284e-05
5.47539e-05
5.50802e-05
5.54713e-05
5.58283e-05
5.59816e-05
5.63847e-05
5.63159e-05
5.69485e-05
5.78475e-05
5.77752e-05
5.82815e-05
5.87565e-05
5.95332e-05
5.97784e-05
6.01132e-05
6.09637e-05
6.14281e-05
6.15719e-05
6.2141e-05
6.30001e-05
6.33448e-05
6.34469e-05
6.41689e-05
6.54844e-05
6.60334e-05
6.64323e-05
6.69981e-05
6.79642e-05
6.88901e-05
6.93006e-05
6.92934e-05
6.88722e-05
6.86149e-05
6.84779e-05
6.88624e-05
6.96295e-05
7.05132e-05
7.13035e-05
4.88169e-05
4.88915e-05
4.90349e-05
4.92193e-05
4.94129e-05
4.95834e-05
4.9676e-05
4.96684e-05
4.95712e-05
4.95031e-05
4.95756e-05
4.98074e-05
5.01021e-05
5.03148e-05
5.03033e-05
5.01518e-05
5.03802e-05
5.08254e-05
5.11886e-05
5.11858e-05
5.0892e-05
5.09643e-05
5.13003e-05
5.16819e-05
5.19764e-05
5.21248e-05
5.24514e-05
5.25304e-05
5.30585e-05
5.37075e-05
5.38438e-05
5.43249e-05
5.46838e-05
5.52884e-05
5.55936e-05
5.59486e-05
5.66206e-05
5.71813e-05
5.74805e-05
5.7876e-05
5.86429e-05
5.92712e-05
5.94515e-05
5.9754e-05
6.06727e-05
6.15123e-05
6.20986e-05
6.25653e-05
6.32375e-05
6.40915e-05
6.48679e-05
6.54278e-05
6.56537e-05
6.56552e-05
6.55307e-05
6.54387e-05
6.55407e-05
6.58788e-05
6.62759e-05
4.57872e-05
4.5885e-05
4.60125e-05
4.61296e-05
4.61967e-05
4.6212e-05
4.61792e-05
4.61369e-05
4.61715e-05
4.62663e-05
4.64111e-05
4.66249e-05
4.67629e-05
4.67804e-05
4.67574e-05
4.68555e-05
4.71496e-05
4.74333e-05
4.75732e-05
4.74849e-05
4.73566e-05
4.75068e-05
4.78193e-05
4.81726e-05
4.83808e-05
4.85419e-05
4.88395e-05
4.89938e-05
4.94481e-05
4.99483e-05
5.01917e-05
5.06313e-05
5.09432e-05
5.14605e-05
5.18009e-05
5.21658e-05
5.27299e-05
5.32954e-05
5.36714e-05
5.40002e-05
5.45956e-05
5.52876e-05
5.56781e-05
5.59341e-05
5.64909e-05
5.72511e-05
5.79595e-05
5.85087e-05
5.90355e-05
5.96666e-05
6.03803e-05
6.10933e-05
6.17025e-05
6.21354e-05
6.23803e-05
6.24731e-05
6.25022e-05
6.25685e-05
6.25658e-05
4.29153e-05
4.29603e-05
4.30108e-05
4.30388e-05
4.3017e-05
4.30289e-05
4.30309e-05
4.30751e-05
4.31337e-05
4.32672e-05
4.33969e-05
4.35011e-05
4.35435e-05
4.3568e-05
4.36302e-05
4.37813e-05
4.40109e-05
4.41655e-05
4.41795e-05
4.40985e-05
4.40793e-05
4.42706e-05
4.45711e-05
4.48386e-05
4.50127e-05
4.51931e-05
4.54437e-05
4.56476e-05
4.60357e-05
4.64464e-05
4.67282e-05
4.71311e-05
4.74308e-05
4.78907e-05
4.82531e-05
4.86205e-05
4.91091e-05
4.9644e-05
5.0062e-05
5.0379e-05
5.08342e-05
5.14658e-05
5.19904e-05
5.23287e-05
5.27159e-05
5.32776e-05
5.39349e-05
5.45506e-05
5.50917e-05
5.56206e-05
5.61931e-05
5.68178e-05
5.74623e-05
5.8071e-05
5.85898e-05
5.89905e-05
5.92728e-05
5.94813e-05
5.94729e-05
4.00952e-05
4.00953e-05
4.01178e-05
4.01292e-05
4.0147e-05
4.01623e-05
4.02321e-05
4.0282e-05
4.0379e-05
4.04665e-05
4.05364e-05
4.057e-05
4.05833e-05
4.05939e-05
4.07203e-05
4.08731e-05
4.10154e-05
4.1068e-05
4.103e-05
4.09816e-05
4.10732e-05
4.12893e-05
4.15213e-05
4.17378e-05
4.18838e-05
4.20552e-05
4.22956e-05
4.25034e-05
4.28442e-05
4.31923e-05
4.34831e-05
4.38528e-05
4.41442e-05
4.45524e-05
4.49179e-05
4.52803e-05
4.57148e-05
4.62085e-05
4.66468e-05
4.69889e-05
4.73671e-05
4.78953e-05
4.84448e-05
4.88751e-05
4.9243e-05
4.9671e-05
5.02014e-05
5.07799e-05
5.13394e-05
5.18626e-05
5.23727e-05
5.2899e-05
5.34534e-05
5.40265e-05
5.45906e-05
5.51192e-05
5.55892e-05
5.60085e-05
5.61922e-05
3.74277e-05
3.74113e-05
3.74589e-05
3.74979e-05
3.75321e-05
3.75895e-05
3.76191e-05
3.76776e-05
3.77231e-05
3.77654e-05
3.77792e-05
3.77725e-05
3.78124e-05
3.78883e-05
3.79999e-05
3.81034e-05
3.81628e-05
3.81637e-05
3.81246e-05
3.81681e-05
3.83064e-05
3.84715e-05
3.86696e-05
3.88332e-05
3.89645e-05
3.91446e-05
3.93471e-05
3.95645e-05
3.98623e-05
4.01648e-05
4.04505e-05
4.07897e-05