/*--------------------------------*- C++ -*----------------------------------*\
| =========                 |                                                 |
| \\      /  F ield         | OpenFOAM: The Open Source CFD Toolbox           |
|  \\    /   O peration     | Version:  2312                                  |
|   \\  /    A nd           | Website:  www.openfoam.com                      |
|    \\/     M anipulation  |                                                 |
\*---------------------------------------------------------------------------*/
FoamFile
{
    version     2.0;
    format      ascii;
    arch        "LSB;label=32;scalar=64";
    class       volScalarField;
    location    "600";
    object      omega;
}
// * * * * * * * * * * * * * * * * * * * * * * * * * * * * * * * * * * * * * //

dimensions      [0 0 -1 0 0 0 0];

internalField   nonuniform List<scalar> 
76025
(
0.0284331
0.0284973
0.028544
0.0285571
0.0285656
0.0285956
0.0285536
0.0285772
0.0285969
0.0286283
0.0286543
0.0286728
0.0287049
0.0287193
0.0287862
0.0288196
0.0288799
0.0289284
0.028981
0.0290423
0.0290987
0.0291651
0.0292227
0.0292742
0.0293424
0.0293972
0.0294698
0.0295184
0.0295778
0.0296219
0.0296638
0.0297115
0.0297523
0.0297975
0.0298408
0.0298768
0.0299274
0.0299592
0.0300101
0.0300527
0.030122
0.0301972
0.0303093
0.0304325
0.0306109
0.0308124
0.0310833
0.0313781
0.031775
0.0321879
0.0327103
0.0332433
0.0339062
0.0345539
0.0354024
0.0361963
0.0372344
0.038351
0.039711
0.0411691
0.0428203
0.0445507
0.0467808
0.0491731
0.0520547
0.0561086
0.0599056
0.0644796
0.0747229
0.0286665
0.0287019
0.0287658
0.0288298
0.0288796
0.0289314
0.0289545
0.0289788
0.0289985
0.0290211
0.0290475
0.029071
0.0291006
0.029123
0.029161
0.0291959
0.0292382
0.0292821
0.0293269
0.0293727
0.029419
0.029466
0.0295161
0.0295621
0.0296135
0.0296597
0.0297115
0.0297591
0.0298083
0.0298543
0.0299024
0.0299443
0.0299901
0.0300316
0.0300845
0.0301338
0.030198
0.0302597
0.0303441
0.0304307
0.0305513
0.0306828
0.0308591
0.0310539
0.0313062
0.0315838
0.0319268
0.0323019
0.0327497
0.0332358
0.0337989
0.03441
0.0350995
0.0358725
0.0367535
0.0377704
0.0389667
0.040296
0.0417829
0.0433829
0.045125
0.0471792
0.0494032
0.0521504
0.055606
0.0596414
0.0644846
0.0707985
0.0873823
0.0291237
0.0290937
0.0291191
0.029161
0.0292045
0.029256
0.0293024
0.0293453
0.0293822
0.0294142
0.0294448
0.029472
0.0295005
0.0295253
0.0295533
0.0295813
0.0296118
0.0296439
0.0296786
0.0297142
0.029752
0.0297893
0.02983
0.0298691
0.0299124
0.0299535
0.0299989
0.0300428
0.0300918
0.0301383
0.0301933
0.0302454
0.0303088
0.03037
0.0304478
0.0305249
0.0306238
0.0307239
0.0308525
0.0309856
0.0311591
0.0313426
0.0315763
0.0318254
0.0321362
0.0324631
0.0328639
0.0332825
0.0337907
0.0343206
0.0349588
0.0356301
0.0364415
0.0373169
0.0383767
0.039543
0.0409044
0.0423361
0.0439293
0.0455684
0.0474771
0.0495627
0.0520272
0.0550876
0.0584799
0.0635798
0.0678591
0.0760808
0.101941
0.0296894
0.0296331
0.0296556
0.0296719
0.0296857
0.029706
0.0297316
0.0297616
0.0297939
0.0298269
0.0298605
0.0298934
0.0299266
0.0299586
0.0299902
0.030021
0.0300515
0.0300815
0.0301127
0.0301438
0.0301776
0.0302115
0.0302494
0.0302875
0.0303307
0.0303737
0.0304229
0.0304715
0.030528
0.0305835
0.0306509
0.0307183
0.0308011
0.0308846
0.0309886
0.0310943
0.031226
0.0313614
0.031528
0.0317028
0.0319203
0.0321505
0.0324314
0.0327283
0.0330876
0.0334656
0.0339188
0.0343974
0.0349675
0.0355779
0.0363024
0.0370935
0.0380289
0.0390621
0.0402743
0.0416057
0.0430993
0.0446631
0.0463565
0.0481706
0.0502533
0.0526022
0.0554537
0.0586913
0.0633385
0.0679963
0.073613
0.0865785
0.133623
0.0301561
0.0302
0.0302368
0.0302635
0.030281
0.0302938
0.0303038
0.0303131
0.0303227
0.030334
0.0303478
0.0303643
0.030384
0.0304067
0.0304325
0.0304607
0.0304915
0.0305239
0.0305588
0.0305947
0.0306338
0.0306737
0.0307181
0.0307633
0.0308149
0.030867
0.0309274
0.0309882
0.0310593
0.031131
0.0312178
0.0313062
0.0314133
0.031523
0.0316561
0.0317931
0.0319591
0.0321306
0.0323361
0.0325531
0.0328147
0.0330906
0.0334192
0.0337637
0.0341753
0.0346065
0.0351228
0.035667
0.0363205
0.0370241
0.0378671
0.0387881
0.0398719
0.0410599
0.0424351
0.0439213
0.0455522
0.0472355
0.04908
0.0510749
0.0534116
0.0560668
0.0592001
0.063068
0.0680569
0.0725636
0.0803691
0.10082
0.180739
0.030562
0.030627
0.030688
0.0307414
0.030787
0.0308253
0.0308575
0.0308839
0.0309064
0.0309259
0.0309443
0.0309624
0.0309813
0.0310013
0.0310234
0.0310474
0.0310743
0.031104
0.0311381
0.0311753
0.0312185
0.0312648
0.0313183
0.0313741
0.0314385
0.0315047
0.031581
0.0316588
0.0317482
0.0318399
0.0319483
0.0320603
0.0321923
0.0323294
0.0324907
0.032659
0.0328568
0.0330633
0.0333045
0.0335623
0.0338637
0.0341852
0.0345593
0.0349568
0.0354226
0.0359173
0.0365071
0.0371367
0.0378943
0.0387203
0.0396999
0.0407704
0.0420063
0.0433577
0.0448892
0.0465257
0.0482769
0.0501259
0.0521758
0.0544939
0.0571949
0.0602417
0.0638662
0.0684019
0.0738042
0.0788575
0.0901083
0.122793
0.251994
0.0312181
0.0312811
0.0313452
0.0314054
0.0314592
0.0315069
0.0315468
0.0315804
0.0316076
0.031631
0.0316517
0.0316721
0.0316931
0.031716
0.0317412
0.0317689
0.0317994
0.0318324
0.031869
0.0319087
0.031954
0.0320032
0.0320606
0.0321223
0.0321945
0.0322713
0.0323604
0.0324545
0.0325621
0.032676
0.0328081
0.0329474
0.0331072
0.0332757
0.0334674
0.0336708
0.033902
0.0341469
0.0344261
0.0347292
0.0350743
0.0354489
0.0358763
0.0363392
0.0368735
0.0374524
0.0381388
0.0388799
0.0397685
0.0407339
0.0418601
0.0430786
0.0444652
0.0459708
0.0476485
0.049418
0.0513312
0.053432
0.0558365
0.0586106
0.0617285
0.0652632
0.0693807
0.0748366
0.0801383
0.0866346
0.10333
0.155377
0.352996
0.0317917
0.0318227
0.031882
0.0319536
0.0320309
0.0321079
0.0321824
0.0322504
0.0323123
0.0323662
0.0324147
0.0324577
0.0324983
0.0325369
0.0325761
0.0326168
0.03266
0.0327063
0.0327565
0.0328101
0.0328687
0.0329309
0.0329998
0.033073
0.0331551
0.0332424
0.033341
0.0334464
0.0335648
0.0336931
0.0338398
0.0339982
0.034178
0.0343719
0.0345904
0.0348269
0.0350919
0.0353779
0.0357006
0.0360556
0.0364543
0.0368938
0.0373897
0.0379348
0.0385604
0.0392441
0.0400459
0.0409189
0.0419465
0.0430537
0.0443197
0.0456862
0.0472232
0.0488868
0.0507141
0.0526644
0.0548608
0.0573834
0.0603049
0.0636096
0.0672072
0.0712288
0.0762085
0.0822476
0.0880174
0.0973767
0.123115
0.203648
0.46878
0.0327521
0.0327586
0.0327756
0.0328039
0.0328441
0.0328962
0.0329567
0.0330237
0.0330925
0.0331627
0.03323
0.0332961
0.0333579
0.0334186
0.0334755
0.0335325
0.0335882
0.0336462
0.033706
0.0337709
0.0338402
0.0339166
0.0339998
0.034091
0.0341912
0.0342999
0.0344204
0.0345505
0.0346943
0.0348523
0.0350297
0.0352226
0.0354388
0.0356717
0.0359319
0.0362118
0.0365225
0.036857
0.0372333
0.0376456
0.0381087
0.0386197
0.0391978
0.0398362
0.040568
0.0413693
0.0422919
0.0433016
0.0444632
0.0457121
0.0471211
0.0486576
0.0503679
0.0522245
0.0542646
0.0565338
0.0592081
0.0623066
0.0658119
0.0696497
0.0736761
0.0783887
0.0843877
0.0909172
0.0986055
0.112547
0.153619
0.278076
0.572931
0.0339284
0.0339542
0.0339775
0.0340005
0.0340251
0.0340566
0.0340944
0.0341407
0.0341932
0.0342528
0.0343166
0.0343847
0.0344553
0.0345286
0.0346034
0.0346808
0.034759
0.0348411
0.0349241
0.0350136
0.0351057
0.0352066
0.0353133
0.0354294
0.0355549
0.0356895
0.0358367
0.0359928
0.0361641
0.0363495
0.0365552
0.0367759
0.0370224
0.0372843
0.0375791
0.0378932
0.0382453
0.0386258
0.0390587
0.0395335
0.0400721
0.0406669
0.041342
0.0420858
0.0429329
0.0438564
0.0449042
0.0460503
0.0473445
0.0487573
0.0503443
0.0521073
0.0540432
0.0561842
0.0585752
0.0613608
0.064654
0.0683237
0.072376
0.076654
0.0811815
0.086976
0.0941844
0.101847
0.113289
0.135213
0.201581
0.409957
0.645672
0.0352281
0.0352663
0.0353047
0.035342
0.0353793
0.0354194
0.0354632
0.0355121
0.0355665
0.0356274
0.0356938
0.0357666
0.0358429
0.0359256
0.0360091
0.0361
0.0361896
0.0362879
0.0363842
0.0364897
0.0365954
0.0367104
0.0368299
0.0369594
0.0370981
0.0372474
0.0374111
0.0375856
0.03778
0.0379912
0.0382284
0.0384834
0.0387709
0.0390777
0.039424
0.0397951
0.0402084
0.0406626
0.0411706
0.041735
0.0423623
0.0430628
0.0438406
0.044707
0.0456724
0.0467371
0.047932
0.0492519
0.0507253
0.0523651
0.0541977
0.0562587
0.0584991
0.061058
0.0639405
0.0673461
0.0711744
0.0752767
0.0798451
0.0845626
0.090015
0.0975614
0.106459
0.116663
0.134723
0.171524
0.280711
0.539975
0.718113
0.0367703
0.03682
0.0368698
0.0369146
0.0369582
0.0370006
0.0370451
0.037091
0.0371413
0.0371966
0.0372577
0.0373269
0.0374012
0.0374854
0.037574
0.0376732
0.0377773
0.0378923
0.0380138
0.0381461
0.0382854
0.0384361
0.0385931
0.0387633
0.03894
0.0391314
0.0393329
0.0395487
0.039783
0.0400366
0.0403164
0.0406163
0.0409496
0.0413064
0.0417035
0.0421327
0.0426049
0.0431345
0.0437134
0.0443723
0.0450893
0.0459069
0.0468002
0.047813
0.0489232
0.0501745
0.0515547
0.0531072
0.0548125
0.056732
0.0588608
0.0612655
0.0638886
0.0669418
0.0703129
0.0742412
0.078398
0.0829602
0.0882693
0.0937391
0.101129
0.111379
0.123016
0.138337
0.168322
0.233229
0.428264
0.657018
0.77223
0.0385994
0.0386719
0.0387437
0.0388146
0.0388806
0.0389484
0.0390118
0.039079
0.0391422
0.0392129
0.0392814
0.0393608
0.0394407
0.0395322
0.0396275
0.0397331
0.0398455
0.0399678
0.0400985
0.0402414
0.0403921
0.0405594
0.0407327
0.0409269
0.0411269
0.0413508
0.0415829
0.0418394
0.0421123
0.0424138
0.0427381
0.0430899
0.0434752
0.0438884
0.0443497
0.0448434
0.0454002
0.0460153
0.0467026
0.0474735
0.0483292
0.0492868
0.0503557
0.0515353
0.0528589
0.0543155
0.0559433
0.0577472
0.0597334
0.0619722
0.0644432
0.0672203
0.0702632
0.0737568
0.0775277
0.0819286
0.0864749
0.0920239
0.0985383
0.105588
0.11655
0.130718
0.146933
0.171805
0.225387
0.344379
0.603935
0.749607
0.8132
0.0407094
0.0407941
0.040882
0.0409676
0.0410527
0.0411379
0.0412231
0.0413087
0.0413943
0.0414823
0.0415731
0.0416684
0.0417705
0.0418791
0.0419977
0.0421256
0.0422643
0.0424168
0.0425777
0.0427577
0.0429415
0.043148
0.0433546
0.0435864
0.0438172
0.0440762
0.044336
0.0446281
0.0449333
0.0452749
0.0456416
0.0460442
0.0464901
0.0469712
0.0475186
0.0480993
0.0487773
0.0495028
0.0503425
0.0512506
0.0522835
0.0534074
0.0546807
0.056053
0.0576194
0.0593029
0.0612138
0.0632843
0.0656119
0.0681845
0.0710477
0.0741907
0.0777099
0.0816816
0.0860447
0.091215
0.09665
0.103956
0.112294
0.122628
0.139198
0.158587
0.183154
0.229117
0.332846
0.561255
0.735964
0.806888
0.834223
0.0434328
0.0435405
0.0436483
0.0437535
0.0438544
0.043957
0.0440561
0.0441585
0.0442571
0.0443616
0.0444642
0.0445757
0.0446879
0.044812
0.0449384
0.0450798
0.045224
0.0453863
0.0455525
0.0457397
0.0459339
0.0461514
0.04638
0.0466331
0.0469013
0.0471962
0.0475088
0.0478541
0.0482292
0.0486407
0.0490919
0.0495821
0.0501276
0.0507144
0.0513772
0.0520817
0.0529015
0.0537672
0.0547731
0.0558447
0.0570634
0.0583911
0.0598692
0.0614932
0.0633047
0.0652778
0.067496
0.0698933
0.0726269
0.0755581
0.0789376
0.0825298
0.0867981
0.091459
0.0967615
0.103156
0.110117
0.120127
0.132035
0.148189
0.172512
0.200144
0.246361
0.342874
0.554757
0.742215
0.819841
0.847658
0.850862
0.0465037
0.0466408
0.0467807
0.0469194
0.047055
0.0471929
0.0473279
0.0474644
0.0475976
0.0477319
0.0478654
0.048001
0.0481399
0.0482839
0.0484362
0.0485983
0.0487731
0.0489623
0.0491666
0.04939
0.0496295
0.0498927
0.0501733
0.0504812
0.05081
0.0511685
0.0515523
0.0519753
0.0524346
0.0529375
0.0534841
0.0540805
0.0547329
0.0554416
0.0562236
0.0570711
0.0580336
0.05906
0.0602375
0.0614931
0.0629145
0.0644708
0.066171
0.0681
0.0701552
0.0725112
0.0750477
0.0778913
0.0811038
0.0845139
0.088651
0.0927995
0.0982165
0.103728
0.110464
0.119035
0.128531
0.143868
0.162337
0.186958
0.22424
0.274553
0.377912
0.595081
0.779646
0.848452
0.8605
0.860106
0.852034
0.0505505
0.050704
0.0508618
0.0510176
0.0511739
0.0513313
0.0514927
0.0516531
0.0518183
0.0519805
0.0521493
0.0523147
0.0524889
0.0526615
0.0528466
0.0530346
0.0532396
0.053454
0.0536896
0.053941
0.0542171
0.0545135
0.0548388
0.0551857
0.0555688
0.0559739
0.0564247
0.0569134
0.0574527
0.058045
0.0586885
0.059402
0.0601736
0.0610243
0.0619526
0.0629715
0.0641108
0.0653303
0.0667251
0.0681938
0.0698883
0.0716884
0.0737231
0.0759747
0.0784099
0.0812337
0.0842191
0.0876731
0.0915021
0.0955447
0.100753
0.105523
0.112893
0.119371
0.129163
0.141779
0.156241
0.182519
0.209176
0.25233
0.322077
0.435581
0.67718
0.839135
0.897355
0.899907
0.883923
0.863197
0.84167
0.0553464
0.055536
0.0557282
0.0559171
0.0561047
0.0562932
0.0564846
0.0566781
0.0568743
0.0570746
0.0572772
0.0574874
0.0577013
0.0579258
0.0581574
0.0584017
0.0586591
0.058931
0.0592242
0.0595339
0.0598751
0.0602366
0.0606397
0.061069
0.0615467
0.0620567
0.0626239
0.0632396
0.0639076
0.0646385
0.0654141
0.0662722
0.0671756
0.0681774
0.0692478
0.0704407
0.0717437
0.0731687
0.0747763
0.076497
0.0784841
0.0806061
0.0830399
0.0857149
0.0886694
0.0920531
0.0956676
0.0998039
0.104522
0.1094
0.116351
0.122127
0.133124
0.141337
0.158801
0.177606
0.204672
0.24639
0.291409
0.390612
0.526734
0.7908
0.921221
0.958259
0.944799
0.91557
0.874869
0.837036
0.817782
0.0616133
0.0618383
0.0620667
0.0622923
0.062515
0.0627391
0.0629651
0.0631941
0.0634284
0.0636677
0.063917
0.0641722
0.0644439
0.0647231
0.0650276
0.0653412
0.0656885
0.0660451
0.0664405
0.0668452
0.0672908
0.0677489
0.0682478
0.0687691
0.069327
0.069925
0.0705658
0.0712632
0.0720006
0.072815
0.0736699
0.0746326
0.0756408
0.0767921
0.0780207
0.0794276
0.0809566
0.0826719
0.0845974
0.0866829
0.08911
0.0916685
0.0946838
0.0978792
0.101551
0.105534
0.110114
0.11508
0.121471
0.127741
0.137926
0.146122
0.16406
0.178055
0.210125
0.23919
0.292882
0.360225
0.473668
0.679314
0.918273
1.02291
1.0267
1.00392
0.950568
0.882202
0.823783
0.789661
0.78352
0.0693297
0.0696144
0.0699067
0.0701923
0.0704789
0.0707624
0.0710512
0.0713367
0.0716309
0.0719239
0.0722318
0.0725401
0.0728693
0.0731993
0.0735545
0.0739122
0.0742972
0.074689
0.0751082
0.0755417
0.0760029
0.0764894
0.0770081
0.0775668
0.0781648
0.0788305
0.079546
0.080353
0.0812149
0.0821961
0.0832385
0.0844362
0.0856948
0.0871574
0.0887019
0.0904878
0.092388
0.0945497
0.0969139
0.0995201
0.102501
0.105653
0.109403
0.113239
0.117991
0.122833
0.129347
0.135755
0.14593
0.154988
0.172183
0.187144
0.218747
0.245408
0.302586
0.354678
0.468067
0.603546
0.874527
1.05739
1.11986
1.10343
1.06002
0.972054
0.874001
0.792834
0.743605
0.734254
0.744405
0.079343
0.0796735
0.0800115
0.0803433
0.0806735
0.0810017
0.0813318
0.0816599
0.0819905
0.0823213
0.0826596
0.083003
0.0833595
0.0837274
0.0841121
0.0845165
0.0849393
0.0853934
0.0858673
0.0863866
0.0869293
0.087533
0.0881674
0.0888757
0.0896331
0.0904885
0.0914031
0.0924409
0.093542
0.0947981
0.0961134
0.0976201
0.0991782
0.100998
0.102875
0.105086
0.107384
0.110086
0.11298
0.116278
0.120003
0.123977
0.128919
0.133848
0.140811
0.14752
0.158341
0.168295
0.18694
0.202903
0.23528
0.265688
0.31997
0.37653
0.478228
0.603525
0.830994
1.08977
1.21225
1.21833
1.18988
1.115
0.981761
0.849901
0.745432
0.681076
0.664349
0.677081
0.708766
0.0924425
0.0929073
0.0933722
0.0938334
0.0942837
0.0947341
0.0951762
0.0956182
0.0960531
0.0964916
0.0969291
0.0973784
0.0978339
0.0983114
0.0988011
0.0993219
0.0998594
0.100436
0.101033
0.101675
0.102347
0.10307
0.103831
0.104666
0.10556
0.106554
0.107617
0.108817
0.110088
0.111554
0.113082
0.114885
0.116741
0.119006
0.121292
0.124153
0.127011
0.130625
0.134279
0.138776
0.143765
0.149394
0.15687
0.164515
0.17663
0.188682
0.209215
0.22934
0.265334
0.297987
0.359446
0.42085
0.520265
0.64986
0.844814
1.11796
1.29503
1.3428
1.32155
1.26654
1.14188
0.964507
0.805849
0.68844
0.615613
0.589385
0.597036
0.632956
0.680425
0.109008
0.109506
0.110018
0.110521
0.111022
0.11152
0.112018
0.112514
0.113008
0.113506
0.114004
0.114515
0.115027
0.115566
0.11611
0.116693
0.117289
0.117937
0.118611
0.11935
0.120133
0.120996
0.121932
0.122979
0.124125
0.125414
0.126829
0.128431
0.13017
0.132158
0.134262
0.136736
0.139272
0.142435
0.145466
0.149597
0.153273
0.158855
0.163727
0.171464
0.179054
0.190086
0.203546
0.220562
0.244832
0.273444
0.313416
0.360413
0.425522
0.498283
0.613933
0.741821
0.937897
1.19674
1.39508
1.4722
1.46301
1.41648
1.31741
1.13252
0.932126
0.781078
0.665915
0.587208
0.538138
0.531107
0.549868
0.597144
0.654925
0.132944
0.133704
0.134461
0.135208
0.135936
0.136659
0.137369
0.138068
0.138761
0.139442
0.140127
0.140809
0.141505
0.142214
0.142951
0.143717
0.144529
0.145388
0.146309
0.147297
0.148359
0.14952
0.150777
0.152154
0.153649
0.155281
0.157048
0.158994
0.161101
0.163496
0.166049
0.169192
0.172398
0.176844
0.180933
0.187829
0.193359
0.204639
0.213319
0.231748
0.247267
0.276585
0.305988
0.351054
0.401995
0.470025
0.543922
0.647346
0.761957
0.922744
1.12481
1.37193
1.55823
1.62228
1.61885
1.57416
1.50171
1.31242
1.11362
0.958848
0.82616
0.716503
0.618313
0.543252
0.49918
0.493978
0.518226
0.568124
0.628853
0.163428
0.164243
0.165087
0.165909
0.166736
0.167539
0.168356
0.169146
0.169952
0.170735
0.171541
0.172339
0.173174
0.174017
0.17492
0.175848
0.176863
0.177925
0.179097
0.180351
0.181745
0.183252
0.184927
0.186746
0.188792
0.191047
0.193631
0.196589
0.200002
0.204095
0.208877
0.215103
0.222215
0.232339
0.243232
0.260781
0.277671
0.308496
0.335886
0.385977
0.430265
0.505649
0.575913
0.676738
0.78234
0.907098
1.04104
1.23193
1.44119
1.69283
1.80829
1.82314
1.79688
1.74129
1.6614
1.49287
1.25593
1.11558
1.01136
0.915377
0.810467
0.707888
0.606457
0.527605
0.487458
0.483766
0.508324
0.552411
0.605999
0.21087
0.212157
0.213461
0.214758
0.216065
0.217371
0.218692
0.220011
0.22135
0.222695
0.224075
0.225477
0.22694
0.228451
0.230053
0.23173
0.233544
0.235416
0.237448
0.239573
0.241922
0.244453
0.247234
0.250571
0.25474
0.259942
0.266751
0.275396
0.286311
0.300102
0.317423
0.339426
0.366641
0.401572
0.44351
0.498055
0.559567
0.643256
0.729323
0.846361
0.959938
1.10723
1.2477
1.40977
1.59088
1.71186
1.97285
2.13884
2.14691
2.10907
2.02331
1.93174
1.79216
1.59105
1.37986
1.16673
1.06615
1.07086
1.09947
1.0653
0.949514
0.809644
0.669794
0.569862
0.525658
0.513907
0.530716
0.565876
0.611492
0.338575
0.342138
0.345738
0.349356
0.353007
0.356704
0.360472
0.364302
0.368246
0.372275
0.376476
0.380805
0.385377
0.390145
0.395275
0.40063
0.406547
0.412567
0.418979
0.426551
0.434141
0.443925
0.457495
0.474744
0.496466
0.524288
0.560169
0.603959
0.657133
0.719364
0.79299
0.876972
0.975091
1.08608
1.21206
1.35147
1.50442
1.67244
1.84652
2.03495
2.20887
2.38466
2.53759
2.6761
2.77207
2.78396
2.72633
2.56126
2.36992
2.15252
1.90516
1.65668
1.43657
1.19886
0.999694
0.963232
1.21078
1.49626
1.61376
1.56015
1.36538
1.14262
0.931032
0.764096
0.677839
0.649198
0.643213
0.656855
0.678717
1.23062
1.25102
1.27133
1.29153
1.31172
1.3318
1.35206
1.37218
1.39273
1.4132
1.43423
1.45557
1.4772
1.50006
1.52274
1.54721
1.57347
1.59762
1.63453
1.6839
1.74603
1.81925
1.90228
1.99536
2.09777
2.20916
2.32867
2.45658
2.59245
2.73674
2.89061
3.05598
3.23235
3.41005
3.59445
3.76681
3.94183
4.08152
4.21788
4.281
4.28424
4.24678
4.19171
4.01873
3.77587
3.42368
2.99119
2.58754
2.1641
1.80762
1.52706
1.34668
1.25237
1.18397
1.13247
1.26622
1.8051
2.51078
2.81603
2.90572
2.69553
2.37051
1.98376
1.60976
1.35321
1.24438
1.21399
1.18488
1.14948
8.3045
8.30384
8.30231
8.29985
8.29649
8.29209
8.28682
8.28035
8.27319
8.26446
8.25552
8.24421
8.23372
8.2195
8.20753
8.19055
8.17602
8.15938
8.13452
8.10722
8.07825
8.05025
8.01645
7.98564
7.9432
7.90616
7.8617
7.81692
7.76643
7.71177
7.655
7.59232
7.52345
7.44832
7.36711
7.28061
7.19011
7.09899
7.00812
6.92217
6.84791
6.78939
6.74355
6.70385
6.66508
6.62646
6.58831
6.55061
6.51341
6.47669
6.44042
6.40437
6.36854
6.33287
6.29786
6.26424
6.23254
6.2064
6.19276
6.19176
6.19903
6.2108
6.22597
6.24542
6.27218
6.31183
6.35742
6.41575
6.49191
0.0285355
0.0285224
0.028553
0.0285508
0.0285567
0.0285631
0.028585
0.028582
0.0285416
0.0285441
0.0285394
0.02854
0.0285972
0.0286406
0.0286437
0.0285903
0.0285906
0.028621
0.0286518
0.0286095
0.0285889
0.0286046
0.0285835
0.028593
0.0285527
0.028527
0.0285387
0.0285335
0.028524
0.0285446
0.0285053
0.0285034
0.0284922
0.0284776
0.0284696
0.0284314
0.0284405
0.028441
0.0284284
0.0284311
0.0284067
0.0284199
0.0283907
0.0283418
0.0283353
0.0283275
0.0283072
0.0282698
0.0282811
0.0283386
0.0284097
0.0284945
0.0284781
0.0284547
0.0284301
0.0283711
0.0283264
0.0283269
0.0283709
0.0288128
0.0288174
0.0288234
0.0288025
0.0288522
0.0288777
0.0288451
0.0288401
0.0288314
0.0288359
0.0288299
0.0289163
0.028953
0.0289188
0.028881
0.0288766
0.0288809
0.0289215
0.0289219
0.0288495
0.0288443
0.0288508
0.0288565
0.0288424
0.0287863
0.0287765
0.0287936
0.0287719
0.0287658
0.0287719
0.0287396
0.0287367
0.0287189
0.028699
0.0286952
0.0286618
0.0286611
0.0286706
0.0286643
0.0286565
0.0286354
0.0286473
0.0286362
0.028613
0.028582
0.0285631
0.0285625
0.0285309
0.0285239
0.0285454
0.0285947
0.0286899
0.0287807
0.0288277
0.0287996
0.028799
0.028734
0.0286863
0.0286664
0.0291895
0.029252
0.0292697
0.0292892
0.0292636
0.0292563
0.0292224
0.029212
0.0292307
0.0292212
0.0292594
0.0293073
0.02924
0.0292147
0.0291954
0.0292154
0.0292494
0.0292525
0.0291912
0.0291617
0.029166
0.0291905
0.0291343
0.0291252
0.0290868
0.0290869
0.0290694
0.0290762
0.0290475
0.0290482
0.0290227
0.02902
0.0290017
0.0289785
0.0289742
0.0289484
0.0289335
0.0289458
0.0289504
0.0289474
0.0289389
0.0289354
0.0289329
0.0289211
0.028903
0.0288813
0.0288726
0.0288614
0.0288189
0.0288306
0.0288572
0.0289083
0.0289984
0.029085
0.0291786
0.0291863
0.02918
0.0291908
0.0291348
0.0296626
0.0296881
0.0296725
0.0297
0.0296696
0.0296536
0.0296421
0.0296541
0.0296524
0.0296979
0.0297342
0.0296655
0.0296326
0.0296249
0.0296362
0.0296412
0.0296459
0.0296167
0.0295367
0.0295192
0.0295328
0.0295145
0.0295166
0.0294894
0.0294403
0.029436
0.0294465
0.0294148
0.0293991
0.0293873
0.0293655
0.0293578
0.029335
0.0293086
0.0293051
0.0292835
0.0292631
0.0292705
0.0292835
0.0292786
0.0292736
0.029275
0.0292717
0.0292669
0.0292548
0.0292505
0.0292166
0.0292093
0.0292135
0.0291887
0.0291885
0.0292193
0.0292757
0.0293457
0.0294309
0.0295115
0.0295762
0.0296315
0.0296626
0.0302582
0.030252
0.0302088
0.030243
0.0302149
0.0302761
0.0302715
0.0302634
0.0302269
0.0302402
0.0301552
0.0301266
0.0301158
0.0301256
0.030146
0.0301616
0.0301402
0.0300259
0.0300078
0.0300113
0.030021
0.029997
0.029946
0.0299096
0.0298705
0.0298797
0.0298412
0.0298504
0.029801
0.0297906
0.0297707
0.029763
0.029743
0.029715
0.0297102
0.0296917
0.0296694
0.0296692
0.0296948
0.0297025
0.029693
0.0296874
0.0296839
0.0296836
0.0296792
0.0296569
0.0296527
0.0296542
0.0296672
0.0296746
0.029682
0.0296969
0.0297219
0.0297632
0.0298185
0.0298874
0.029959
0.0300333
0.0300956
0.0308946
0.0308833
0.0308439
0.0308053
0.0307925
0.0308217
0.0308397
0.0308275
0.0308112
0.0307503
0.0307303
0.0307296
0.0307588
0.0307379
0.0307611
0.0306588
0.0306117
0.0305396
0.0305233
0.0305422
0.030513
0.0304743
0.030466
0.0304124
0.0303915
0.0303677
0.0303764
0.0303231
0.0302983
0.0302745
0.0302531
0.030239
0.0302146
0.030183
0.0301756
0.0301577
0.0301322
0.0301234
0.0301428
0.0301722
0.0301815
0.030182
0.0301691
0.0301616
0.0301538
0.030167
0.0301688
0.0301701
0.0301769
0.0301948
0.0302057
0.0302173
0.0302347
0.0302574
0.0302895
0.0303335
0.0303829
0.030445
0.0305018
0.0316574
0.0316372
0.0316326
0.0316278
0.0316491
0.0316689
0.0316431
0.031635
0.0316211
0.0316
0.031558
0.0315529
0.0314679
0.0314381
0.0313409
0.0312254
0.0311601
0.0311498
0.0311673
0.0311997
0.0312056
0.0311418
0.0310681
0.0310219
0.030981
0.0309963
0.0309351
0.0309442
0.0308678
0.0308518
0.0308278
0.0308138
0.0307927
0.0307597
0.0307513
0.0307364
0.0307142
0.0307047
0.0307137
0.0307519
0.0307797
0.0307902
0.0307936
0.0308049
0.0308084
0.0308269
0.0308462
0.030859
0.0308714
0.0308883
0.0309214
0.0309515
0.0309646
0.0309915
0.0310113
0.0310453
0.0310784
0.0311259
0.0311699
0.0325306
0.0325766
0.0325145
0.0325489
0.0325366
0.0324335
0.0324525
0.0324351
0.0323829
0.0323243
0.0322645
0.0322074
0.0321131
0.0320544
0.0320293
0.0320285
0.0320232
0.0320464
0.0320477
0.0319788
0.031903
0.0318278
0.0317765
0.0317345
0.0317462
0.0316817
0.0316897
0.031603
0.0315727
0.0315379
0.03151
0.031487
0.0314594
0.0314203
0.0314065
0.0313873
0.0313615
0.0313442
0.0313421
0.0313766
0.0314195
0.0314482
0.0314653
0.0314863
0.03152
0.0315056
0.0315214
0.0315205
0.0315396
0.0315314
0.0315315
0.0315695
0.0316382
0.0316491
0.0316832
0.0317125
0.0317366
0.0317576
0.0317779
0.0337008
0.033663
0.0336389
0.0335721
0.0334475
0.0333814
0.033278
0.0332008
0.033189
0.0332408
0.0332249
0.0331623
0.0331368
0.0331111
0.0331058
0.0329688
0.0329014
0.0328838
0.0328402
0.0328176
0.0328372
0.03272
0.0326598
0.0326252
0.0325658
0.0325742
0.0324812
0.0324891
0.0323822
0.032361
0.0323262
0.0323027
0.0322784
0.0322392
0.0322258
0.0322107
0.0321899
0.0321719
0.032165
0.0321868
0.0322286
0.0322706
0.0323007
0.032328
0.0323626
0.0323942
0.0324202
0.0324451
0.0324671
0.0324923
0.0324999
0.0325191
0.0325578
0.0325886
0.0326245
0.0326577
0.0326863
0.0327186
0.0327427
0.0348621
0.0347083
0.0346565
0.0345519
0.0345623
0.034522
0.0345795
0.0345324
0.0346131
0.03452
0.0345392
0.0343087
0.0342013
0.0340845
0.0340288
0.0339621
0.0339957
0.0340328
0.034058
0.0340101
0.0338563
0.0337315
0.0336751
0.0336353
0.0336447
0.0335411
0.0335471
0.0334154
0.0333849
0.0333357
0.0332961
0.0332605
0.0332266
0.0331769
0.0331539
0.0331301
0.033104
0.033081
0.0330707
0.0330791
0.0331141
0.0331606
0.0332049
0.0332459
0.033287
0.0333345
0.0333797
0.0334261
0.0334638
0.0335079
0.0335395
0.0335731
0.0336129
0.0336564
0.0337018
0.0337531
0.0337994
0.0338542
0.0338987
0.0363824
0.0362586
0.0364129
0.036354
0.0363122
0.0361784
0.0360803
0.0359721
0.0358197
0.03574
0.035633
0.0355883
0.0355886
0.0355111
0.0355044
0.0355133
0.0355506
0.0354688
0.0352947
0.0351164
0.0350393
0.0350252
0.0349423
0.0349097
0.0348184
0.0348158
0.0346798
0.0346873
0.0345439
0.0345154
0.0344628
0.0344241
0.0343925
0.0343446
0.034322
0.0343062
0.034286
0.0342615
0.0342554
0.0342513
0.0342725
0.0343143
0.0343601
0.0344064
0.0344528
0.0345059
0.0345603
0.0346221
0.0346772
0.0347369
0.034788
0.0348379
0.034885
0.0349348
0.0349815
0.0350348
0.0350834
0.0351408
0.0351914
0.0376448
0.037539
0.0375167
0.037496
0.0375383
0.0375954
0.0375952
0.0375711
0.0375602
0.037546
0.0374082
0.0374443
0.0374126
0.0371723
0.0371644
0.0370878
0.03698
0.0368504
0.0367483
0.03678
0.0366121
0.036441
0.0363747
0.0363919
0.0363291
0.0361969
0.0362005
0.0360099
0.0359818
0.0359122
0.0358552
0.0358011
0.0357564
0.035693
0.035652
0.0356232
0.0355952
0.0355684
0.0355541
0.0355497
0.0355576
0.0355902
0.0356379
0.0356899
0.0357419
0.0357995
0.0358586
0.0359266
0.0359944
0.0360688
0.0361406
0.0362148
0.0362853
0.0363602
0.0364297
0.0365059
0.0365747
0.0366524
0.0367195
0.0400099
0.0399867
0.0398913
0.0400014
0.0398875
0.0400234
0.0400055
0.0398297
0.0398641
0.0395325
0.0393993
0.0392518
0.0390458
0.038973
0.038899
0.0388654
0.0388373
0.0388021
0.0387811
0.0384242
0.0383261
0.0382785
0.0383178
0.0381586
0.0380187
0.0380326
0.0378421
0.0378507
0.0376633
0.0376225
0.037544
0.0374813
0.0374348
0.0373743
0.0373339
0.0373117
0.0372926
0.0372701
0.0372573
0.0372566
0.0372555
0.037274
0.0373117
0.0373635
0.0374206
0.0374837
0.0375488
0.0376211
0.0376937
0.0377731
0.0378513
0.0379346
0.0380141
0.0381
0.038181
0.0382704
0.0383537
0.038447
0.0385322
0.0427498
0.0427404
0.042648
0.0423587
0.0422305
0.042129
0.0419911
0.0418832
0.0417616
0.0416107
0.0415924
0.0415702
0.0415826
0.04138
0.0414097
0.0412606
0.041138
0.040937
0.0407317
0.0406862
0.0407232
0.0405663
0.0404036
0.0402458
0.0402826
0.0400552
0.0400507
0.0397817
0.0397517
0.0396526
0.0395688
0.0394883
0.0394271
0.0393455
0.0392783
0.0392312
0.0391979
0.0391633
0.0391448
0.0391448
0.039144
0.0391568
0.0391869
0.0392329
0.0392898
0.0393581
0.0394312
0.039515
0.039601
0.0396963
0.0397913
0.0398945
0.0399937
0.0401011
0.0402015
0.0403117
0.0404133
0.0405265
0.0406286
0.0454688
0.0453265
0.0452396
0.0452252
0.0452833
0.0451975
0.0452165
0.0449817
0.0449689
0.0449434
0.0446823
0.0446384
0.0445692
0.0443459
0.0438673
0.0437578
0.0437515
0.043782
0.0437072
0.043467
0.0433192
0.0431061
0.0429772
0.0430155
0.0427246
0.0427024
0.0424616
0.0424681
0.0422342
0.042171
0.0420583
0.041959
0.0418848
0.0418045
0.0417393
0.0416983
0.0416734
0.0416558
0.0416457
0.0416428
0.0416394
0.0416499
0.0416763
0.0417193
0.0417741
0.0418412
0.0419154
0.0420017
0.042093
0.0421959
0.0423017
0.0424198
0.0425371
0.0426669
0.0427917
0.0429294
0.0430584
0.0432008
0.0433302
0.0494746
0.049394
0.0491685
0.0491742
0.0491599
0.0491104
0.0489032
0.0487245
0.048534
0.0482657
0.0481201
0.0479042
0.0477328
0.0476437
0.0477101
0.0476901
0.047455
0.0471171
0.0469127
0.0466679
0.0465128
0.0464039
0.0463726
0.0460471
0.0460618
0.0457612
0.0457325
0.0453778
0.045327
0.0451843
0.0450562
0.044936
0.044851
0.0447448
0.0446439
0.0445637
0.0445054
0.0444672
0.0444486
0.0444403
0.0444414
0.0444496
0.0444745
0.0445185
0.0445786
0.0446557
0.0447399
0.0448387
0.0449421
0.0450594
0.0451774
0.0453107
0.0454423
0.0455903
0.0457339
0.0458947
0.0460477
0.0462182
0.046376
0.0544427
0.0543329
0.0540018
0.05413
0.0536365
0.0532044
0.0529027
0.0527083
0.0524799
0.0523408
0.0522849
0.0522916
0.0523603
0.0524835
0.0520298
0.0515309
0.0510431
0.0508527
0.0508105
0.0506852
0.0504988
0.0502784
0.0501646
0.0501919
0.049786
0.0496447
0.0493302
0.0493475
0.0490644
0.0489649
0.0488103
0.0486593
0.0485358
0.0484226
0.0483251
0.0482534
0.0482064
0.0481809
0.0481776
0.048173
0.0481828
0.0482022
0.0482289
0.0482709
0.0483271
0.0484059
0.0484965
0.0486056
0.0487228
0.0488584
0.0489976
0.049154
0.04931
0.0494843
0.0496537
0.0498428
0.0500222
0.050222
0.050406
0.0593508
0.0590138
0.0588354
0.0584877
0.058263
0.0580662
0.0579804
0.0578424
0.0577905
0.057602
0.0574784
0.0571932
0.0570661
0.0569201
0.056734
0.0565945
0.0564196
0.0564397
0.0558401
0.05565
0.0554623
0.055574
0.0553174
0.0548221
0.0546431
0.0543315
0.0543763
0.0538964
0.0537756
0.0535723
0.0533648
0.0531775
0.0530575
0.0529201
0.0527756
0.052647
0.0525446
0.0524671
0.0524401
0.0524259
0.0524323
0.0524602