/*--------------------------------*- C++ -*----------------------------------*\
| =========                 |                                                 |
| \\      /  F ield         | OpenFOAM: The Open Source CFD Toolbox           |
|  \\    /   O peration     | Version:  2312                                  |
|   \\  /    A nd           | Website:  www.openfoam.com                      |
|    \\/     M anipulation  |                                                 |
\*---------------------------------------------------------------------------*/
FoamFile
{
    version     2.0;
    format      ascii;
    arch        "LSB;label=32;scalar=64";
    class       volScalarField;
    location    "600";
    object      p;
}
// * * * * * * * * * * * * * * * * * * * * * * * * * * * * * * * * * * * * * //

dimensions      [0 2 -2 0 0 0 0];

internalField   nonuniform List<scalar> 
76025
(
0.000403182
0.000397622
0.000391966
0.000386383
0.000380638
0.000374877
0.000368742
0.000362786
0.000356668
0.000350576
0.000344309
0.000337955
0.000331539
0.000325105
0.000318655
0.000312122
0.00030567
0.000299049
0.000292507
0.000286084
0.000279622
0.000272935
0.000266333
0.000259839
0.000253347
0.000246964
0.000240575
0.000234089
0.000227865
0.000221445
0.0002155
0.000209433
0.000203532
0.000197861
0.000192342
0.00018696
0.000181682
0.000176411
0.000171478
0.00016682
0.000162481
0.000158301
0.000154296
0.000150751
0.00014767
0.000144699
0.000142065
0.000139831
0.000138242
0.000136939
0.000136135
0.000135936
0.000136384
0.000137691
0.000139953
0.000142847
0.000146672
0.000151274
0.000156869
0.000163747
0.000172153
0.000181112
0.000191608
0.000203679
0.000216944
0.000230569
0.000245631
0.00026422
0.000280928
0.000407143
0.000401241
0.000395323
0.000389427
0.000383432
0.000377263
0.000371035
0.000364748
0.000358338
0.00035185
0.000345267
0.000338658
0.000332022
0.000325334
0.000318598
0.000311863
0.000305043
0.000298264
0.000291424
0.000284663
0.0002778
0.000270984
0.000264228
0.000257516
0.000250818
0.000244168
0.000237557
0.000231085
0.000224654
0.000218269
0.000212057
0.00020583
0.000199785
0.000193991
0.00018824
0.000182651
0.000177139
0.000171892
0.000166978
0.000162249
0.000157803
0.00015356
0.000149687
0.000146262
0.000143126
0.000140268
0.000137745
0.000135726
0.000134183
0.000133077
0.00013249
0.00013254
0.000133332
0.000134981
0.000137545
0.000140946
0.0001453
0.000150722
0.000157292
0.000165196
0.000174616
0.000185235
0.000197349
0.000211088
0.000226299
0.000242834
0.000260567
0.000280893
0.000300381
0.000411441
0.000405234
0.000398989
0.000392754
0.000386423
0.000379973
0.000373415
0.000366756
0.000360016
0.000353201
0.000346333
0.000339426
0.000332472
0.000325472
0.000318439
0.000311359
0.000304263
0.00029716
0.000290054
0.00028294
0.000275844
0.000268795
0.000261782
0.000254805
0.000247873
0.000240998
0.00023421
0.000227502
0.000220855
0.000214304
0.000207858
0.000201526
0.000195347
0.000189325
0.000183445
0.000177746
0.000172245
0.000166987
0.000161969
0.000157183
0.00015267
0.000148458
0.000144599
0.0001411
0.000137943
0.000135153
0.000132761
0.000130821
0.000129356
0.000128412
0.000128051
0.000128363
0.000129447
0.00013139
0.000134265
0.000138124
0.000143066
0.000149194
0.000156625
0.00016551
0.000175992
0.0001881
0.000201898
0.000217462
0.000234764
0.00025383
0.000274274
0.000297404
0.0003201
0.000415559
0.000409009
0.000402404
0.000395813
0.000389138
0.000382328
0.000375395
0.000368371
0.000361282
0.000354136
0.000346937
0.000339685
0.000332383
0.000325038
0.000317662
0.000310263
0.000302856
0.000295447
0.000288047
0.000280662
0.000273304
0.000265982
0.000258701
0.000251471
0.000244303
0.000237205
0.000230187
0.000223254
0.000216417
0.00020969
0.000203087
0.000196616
0.000190283
0.000184118
0.000178143
0.000172371
0.000166805
0.000161456
0.000156343
0.000151489
0.000146925
0.00014268
0.000138778
0.000135246
0.000132101
0.000129354
0.000127024
0.000125148
0.000123774
0.000122958
0.000122764
0.000123276
0.000124589
0.000126797
0.000129992
0.000134267
0.000139723
0.000146483
0.000154686
0.000164489
0.00017605
0.000189499
0.000204906
0.000222297
0.00024168
0.000263179
0.000286339
0.000312768
0.000339438
0.000419493
0.000412571
0.000405591
0.00039863
0.000391587
0.000384403
0.000377096
0.000369704
0.00036225
0.000354741
0.000347179
0.000339568
0.000331914
0.000324227
0.000316519
0.0003088
0.000301078
0.000293362
0.000285662
0.000277987
0.000270345
0.000262747
0.000255202
0.00024772
0.00024031
0.000232981
0.000225743
0.000218606
0.000211582
0.000204678
0.000197905
0.00019127
0.000184789
0.000178494
0.000172404
0.00016652
0.000160845
0.000155393
0.000150188
0.000145259
0.00014063
0.000136329
0.00013238
0.000128809
0.00012564
0.00012289
0.000120576
0.000118737
0.000117421
0.000116688
0.000116609
0.000117267
0.000118757
0.000121181
0.000124645
0.000129261
0.000135152
0.000142458
0.000151339
0.000161965
0.000174522
0.000189195
0.000206124
0.00022532
0.000246779
0.000270663
0.000296663
0.000326954
0.000357653
0.000423355
0.000416035
0.000408663
0.000401316
0.000393887
0.000386317
0.000378624
0.000370844
0.000363003
0.000355111
0.000347171
0.000339187
0.000331168
0.000323125
0.000315067
0.000307005
0.000298947
0.000290904
0.000282884
0.000274898
0.000266955
0.000259067
0.000251243
0.000243493
0.000235826
0.000228254
0.000220785
0.000213429
0.000206196
0.000199094
0.000192135
0.000185326
0.00017869
0.000172254
0.000166031
0.000160021
0.00015423
0.000148674
0.000143375
0.000138362
0.000133658
0.000129289
0.000125276
0.000121647
0.000118428
0.000115644
0.000113317
0.000111483
0.000110189
0.000109497
0.000109481
0.000110226
0.00011183
0.000114402
0.000118061
0.000122935
0.000129165
0.000136912
0.000146352
0.000157681
0.000171112
0.000186874
0.000205172
0.000226081
0.000249581
0.00027584
0.000304938
0.000339364
0.000373367
0.000427098
0.00041935
0.000411557
0.000403797
0.000395957
0.000387977
0.000379871
0.000371681
0.000363433
0.000355138
0.0003468
0.000338424
0.000330018
0.000321593
0.000313161
0.000304732
0.000296317
0.000287926
0.000279569
0.000271257
0.000263
0.000254809
0.000246695
0.000238667
0.000230736
0.000222912
0.000215204
0.000207622
0.000200176
0.000192875
0.00018573
0.000178751
0.000171961
0.000165382
0.000159023
0.000152885
0.000146975
0.000141308
0.000135907
0.000130799
0.000126006
0.000121551
0.000117457
0.000113746
0.000110449
0.000107596
0.000105217
0.000103346
0.000102029
0.000101326
0.000101313
0.000102076
0.000103718
0.000106356
0.000110117
0.000115144
0.000121595
0.000129648
0.000139503
0.000151382
0.000165526
0.000182205
0.000201677
0.000224117
0.000249554
0.000278225
0.00031079
0.000349228
0.000386368
0.000430654
0.000422448
0.000414203
0.000405998
0.000397718
0.000389296
0.000380751
0.000372124
0.000363445
0.000354726
0.000345969
0.00033718
0.000328368
0.000319544
0.00031072
0.000301909
0.000293122
0.000284371
0.000275665
0.000267016
0.000258435
0.000249934
0.000241522
0.00023321
0.000225009
0.000216928
0.000208977
0.000201167
0.000193506
0.000186004
0.000178671
0.000171518
0.00016457
0.000157842
0.000151341
0.000145068
0.000139028
0.00013324
0.000127727
0.000122512
0.000117618
0.000113063
0.000108868
0.000105056
0.000101653
9.86947e-05
9.62183e-05
9.42624e-05
9.28702e-05
9.20985e-05
9.20205e-05
9.27249e-05
9.43174e-05
9.692e-05
0.000100671
0.000105723
0.00011225
0.00012045
0.000130545
0.000142782
0.000157438
0.000174828
0.000195254
0.000218984
0.000246184
0.000277377
0.00031353
0.000355328
0.0003961
0.000433981
0.000425291
0.000416566
0.000407888
0.000399136
0.000390244
0.00038123
0.000372139
0.000363003
0.000353833
0.000344634
0.000335411
0.000326173
0.000316932
0.000307701
0.000298494
0.000289322
0.000280196
0.000271129
0.000262132
0.000253217
0.000244394
0.000235676
0.000227072
0.000218594
0.00021025
0.000202052
0.000194007
0.000186127
0.00017842
0.000170895
0.000163565
0.000156454
0.000149574
0.000142926
0.000136511
0.000130338
0.000124424
0.000118792
0.000113463
0.000108456
0.000103788
9.9477e-05
9.55427e-05
9.20115e-05
8.8915e-05
8.62943e-05
8.41963e-05
8.26663e-05
8.17558e-05
8.15341e-05
8.20893e-05
8.3529e-05
8.59794e-05
8.95847e-05
9.45088e-05
0.000100941
0.000109097
0.00011922
0.000131584
0.000146509
0.000164359
0.000185495
0.000210283
0.000239102
0.000272876
0.000312245
0.000356083
0.000397508
0.000437028
0.000427826
0.000418593
0.000409413
0.000400162
0.00039077
0.000381258
0.000371673
0.00036205
0.000352403
0.000342736
0.000333054
0.000323367
0.000313688
0.000304031
0.000294409
0.000284835
0.000275322
0.00026588
0.000256523
0.000247262
0.00023811
0.000229077
0.000220174
0.000211413
0.000202802
0.000194352
0.000186072
0.000177971
0.000170057
0.000162339
0.000154834
0.000147561
0.000140526
0.000133729
0.00012717
0.00012086
0.000114817
0.000109061
0.00010361
9.84808e-05
9.36861e-05
8.92411e-05
8.51644e-05
8.14799e-05
7.82174e-05
7.54139e-05
7.31164e-05
7.13768e-05
7.0247e-05
6.97914e-05
7.00948e-05
7.12639e-05
7.34261e-05
7.67297e-05
8.13479e-05
8.74834e-05
9.53665e-05
0.00010526
0.000117473
0.00013237
0.000150369
0.000171915
0.000197533
0.000227866
0.000263982
0.000305767
0.000350822
0.000392707
0.00043972
0.000429974
0.000420202
0.000410491
0.000400712
0.000390791
0.000380752
0.000370645
0.000360507
0.000350353
0.000340191
0.000330024
0.000319864
0.000309724
0.000299619
0.000289563
0.00027957
0.000269653
0.000259824
0.000250095
0.00024048
0.00023099
0.000221637
0.000212432
0.000203384
0.000194505
0.000185803
0.000177288
0.000168967
0.000160848
0.000152941
0.000145264
0.000137829
0.00013064
0.000123693
0.00011699
0.000110543
0.000104368
9.84833e-05
9.29039e-05
8.76416e-05
8.27068e-05
7.81115e-05
7.38717e-05
7.00088e-05
6.655e-05
6.35286e-05
6.09844e-05
5.89674e-05
5.75339e-05
5.67464e-05
5.66848e-05
5.74515e-05
5.91719e-05
6.19967e-05
6.61049e-05
7.17066e-05
7.90428e-05
8.83964e-05
0.000100111
0.000114605
0.000132365
0.000153973
0.000180135
0.000211599
0.000249292
0.000292115
0.000337542
0.000377896
0.000441974
0.000431649
0.000421304
0.000411029
0.000400689
0.00039021
0.000379613
0.000368954
0.000358271
0.000347584
0.000336898
0.000326221
0.000315563
0.000304939
0.000294365
0.000283857
0.000273428
0.000263092
0.000252862
0.000242751
0.000232773
0.000222939
0.000213261
0.000203749
0.000194415
0.000185268
0.000176316
0.000167568
0.000159031
0.000150712
0.000142622
0.000134777
0.000127185
0.000119843
0.000112748
0.000105904
9.93205e-05
9.30144e-05
8.69994e-05
8.12866e-05
7.58835e-05
7.07971e-05
6.60363e-05
6.16139e-05
5.75479e-05
5.38615e-05
5.05835e-05
4.77482e-05
4.53963e-05
4.35801e-05
4.23623e-05
4.1817e-05
4.20399e-05
4.31518e-05
4.53014e-05
4.86663e-05
5.34559e-05
5.99172e-05
6.8354e-05
7.91486e-05
9.27816e-05
0.000109855
0.000131099
0.000157229
0.000188872
0.000226629
0.000268499
0.000312807
0.000351987
0.000443696
0.000432753
0.000421798
0.000410923
0.000399988
0.000388915
0.000377728
0.000366485
0.000355228
0.000343977
0.000332742
0.000321528
0.000310348
0.000299217
0.000288153
0.000277172
0.00026629
0.00025552
0.000244877
0.000234374
0.000224024
0.00021384
0.000203833
0.000194015
0.000184394
0.000174981
0.000165783
0.000156808
0.000148062
0.000139551
0.000131287
0.000123284
0.00011554
0.000108051
0.000100815
9.38351e-05
8.71221e-05
8.06886e-05
7.45448e-05
6.86972e-05
6.31489e-05
5.79031e-05
5.29651e-05
4.8344e-05
4.40534e-05
4.01112e-05
3.65399e-05
3.33666e-05
3.06237e-05
2.83532e-05
2.66105e-05
2.54636e-05
2.49982e-05
2.53248e-05
2.65828e-05
2.89395e-05
3.25971e-05
3.78063e-05
4.48934e-05
5.42832e-05
6.65388e-05
8.23794e-05
0.000102505
0.000127387
0.00015762
0.000193394
0.000232639
0.000273163
0.000304641
0.000444773
0.000433171
0.000421566
0.000410053
0.000398486
0.000386783
0.00037497
0.000363108
0.000351244
0.0003394
0.000327586
0.000315809
0.000304081
0.000292421
0.000280846
0.000269374
0.000258022
0.000246805
0.000235737
0.000224832
0.000214105
0.000203567
0.00019323
0.000183106
0.000173203
0.00016353
0.000154094
0.000144901
0.000135956
0.000127266
0.000118842
0.000110691
0.000102806
9.51816e-05
8.7815e-05
8.07107e-05
7.38778e-05
6.73253e-05
6.10587e-05
5.50793e-05
4.93861e-05
4.39779e-05
3.88561e-05
3.40254e-05
2.94939e-05
2.52729e-05
2.1377e-05
1.78239e-05
1.46364e-05
1.18443e-05
9.48911e-06
7.62553e-06
6.32318e-06
5.67708e-06
5.81082e-06
6.87263e-06
9.05138e-06
1.25955e-05
1.78569e-05
2.53078e-05
3.55597e-05
4.92522e-05
6.6748e-05
8.84787e-05
0.000115488
0.000147651
0.000183647
0.000220002
0.0002498
0.000445075
0.000432768
0.000420471
0.000408278
0.000396038
0.000383666
0.000371189
0.000358672
0.000346165
0.000333695
0.000321271
0.000308901
0.000296601
0.000284387
0.00027228
0.0002603
0.000248463
0.000236785
0.000225283
0.00021397
0.000202861
0.000191968
0.000181304
0.000170879
0.000160701
0.000150777
0.000141115
0.000131718
0.00012259
0.000113739
0.000105173
9.68892e-05
8.888e-05
8.11375e-05
7.36591e-05
6.64488e-05
5.95131e-05
5.28565e-05
4.64792e-05
4.03776e-05
3.45459e-05
2.8979e-05
2.36738e-05
1.86298e-05
1.38488e-05
9.33395e-06
5.09052e-06
1.12514e-06
-2.55153e-06
-5.92437e-06
-8.97269e-06
-1.16643e-05
-1.395e-05
-1.57534e-05
-1.69759e-05
-1.75024e-05
-1.71734e-05
-1.57374e-05
-1.28234e-05
-7.9796e-06
-7.54242e-07
9.06937e-06
2.18398e-05
3.87658e-05
6.11629e-05
8.87725e-05
0.00011999
0.000151514
0.00018139
0.000444446
0.000431388
0.00041835
0.000405433
0.000392478
0.000379395
0.000366214
0.000353003
0.000339818
0.000326686
0.00031362
0.00030063
0.00028773
0.00027494
0.000262281
0.000249775
0.000237439
0.000225291
0.000213348
0.000201624
0.000190134
0.000178892
0.000167907
0.000157192
0.000146752
0.000136595
0.000126726
0.000117147
0.00010786
9.88728e-05
9.01868e-05
8.17933e-05
7.36816e-05
6.58434e-05
5.82762e-05
5.09825e-05
4.39651e-05
3.72235e-05
3.07523e-05
2.45431e-05
1.85856e-05
1.28704e-05
7.38987e-06
2.13749e-06
-2.89227e-06
-7.70512e-06
-1.23062e-05
-1.67023e-05
-2.08982e-05
-2.49e-05
-2.87141e-05
-3.23289e-05
-3.57166e-05
-3.88309e-05
-4.16324e-05
-4.40484e-05
-4.59479e-05
-4.70926e-05
-4.71986e-05
-4.60709e-05
-4.37089e-05
-3.97715e-05
-3.29728e-05
-2.14369e-05
-4.26568e-06
1.80989e-05
4.37248e-05
7.0969e-05
9.67843e-05
0.000442697
0.000428833
0.000415005
0.000401315
0.000387597
0.000373757
0.000359827
0.000345879
0.000331974
0.000318143
0.0003044
0.000290757
0.000277229
0.000263837
0.000250605
0.000237555
0.000224707
0.00021208
0.000199691
0.000187555
0.000175687
0.000164101
0.000152808
0.000141817
0.000131135
0.000120766
0.000110715
0.00010098
9.15657e-05
8.24754e-05
7.37018e-05
6.52323e-05
5.7054e-05
4.91575e-05
4.15395e-05
3.41992e-05
2.71346e-05
2.03394e-05
1.38028e-05
7.51175e-06
1.45197e-06
-4.39e-06
-1.00267e-05
-1.54705e-05
-2.07339e-05
-2.58325e-05
-3.07828e-05
-3.56076e-05
-4.03379e-05
-4.50031e-05
-4.96218e-05
-5.42005e-05
-5.87556e-05
-6.33179e-05
-6.7914e-05
-7.2495e-05
-7.70131e-05
-8.13571e-05
-8.56021e-05
-8.99646e-05
-9.40649e-05
-9.65299e-05
-9.5444e-05
-8.93357e-05
-7.74909e-05
-6.01692e-05
-3.84413e-05
-1.35609e-05
1.15437e-05
0.000439617
0.000424893
0.000410222
0.000395709
0.00038118
0.000366537
0.000351813
0.000337086
0.000322421
0.000307854
0.000293401
0.000279075
0.000264893
0.000250878
0.000237055
0.000223449
0.000210081
0.000196972
0.000184139
0.000171598
0.000159366
0.000147455
0.000135877
0.000124639
0.000113747
0.000103204
9.30112e-05
8.31656e-05
7.36686e-05
6.45156e-05
5.56925e-05
4.71836e-05
3.89744e-05
3.10552e-05
2.34208e-05
1.60668e-05
8.98567e-06
2.16562e-06
-4.40876e-06
-1.07549e-05
-1.68903e-05
-2.28322e-05
-2.85967e-05
-3.42024e-05
-3.96685e-05
-4.50207e-05
-5.02987e-05
-5.5544e-05
-6.07962e-05
-6.60925e-05
-7.14719e-05
-7.70065e-05
-8.28029e-05
-8.89453e-05
-9.55066e-05
-0.000102537
-0.000110157
-0.000118715
-0.000128503
-0.000139121
-0.00014917
-0.000156977
-0.000160963
-0.000159723
-0.000152149
-0.000138131
-0.000118545
-9.52263e-05
-7.12527e-05
0.000434892
0.000419242
0.000403663
0.000388266
0.000372867
0.000357364
0.00034179
0.00032623
0.000310755
0.000295405
0.000280199
0.000265152
0.000250281
0.000235613
0.000221176
0.000206995
0.000193094
0.000179495
0.000166217
0.000153277
0.000140691
0.000128472
0.00011663
0.000105172
9.41029e-05
8.34229e-05
7.31298e-05
6.3222e-05
5.36971e-05
4.45407e-05
3.57337e-05
2.72562e-05
1.90906e-05
1.12246e-05
3.64843e-06
-3.64878e-06
-1.0681e-05
-1.74658e-05
-2.4023e-05
-3.03728e-05
-3.65339e-05
-4.25262e-05
-4.83675e-05
-5.40817e-05
-5.97069e-05
-6.52831e-05
-7.08498e-05
-7.64449e-05
-8.21138e-05
-8.79367e-05
-9.4036e-05
-0.000100558
-0.000107653
-0.00011544
-0.000124071
-0.000133914
-0.000145465
-0.000158939
-0.000173878
-0.000189162
-0.000203428
-0.000215192
-0.000222708
-0.000224443
-0.000219434
-0.000207379
-0.000189504
-0.000168013
-0.000145571
0.000428326
0.00041169
0.000395149
0.000378816
0.000362498
0.000346086
0.000329617
0.000313181
0.000296856
0.000280687
0.000264696
0.0002489
0.000233321
0.000217985
0.000202924
0.000188166
0.000173738
0.000159663
0.000145962
0.000132652
0.00011975
0.000107269
9.52196e-05
8.36065e-05
7.24317e-05
6.16921e-05
5.13799e-05
4.1488e-05
3.20024e-05
2.29013e-05
1.41616e-05
5.76067e-06
-2.32034e-06
-1.00966e-05
-1.75825e-05
-2.47945e-05
-3.17519e-05
-3.84758e-05
-4.49877e-05
-5.13091e-05
-5.74567e-05
-6.34532e-05
-6.93332e-05
-7.51304e-05
-8.08752e-05
-8.65921e-05
-9.23142e-05
-9.81052e-05
-0.000104074
-0.000110384
-0.000117203
-0.000124677
-0.000132968
-0.000142389
-0.000153421
-0.000166488
-0.000181668
-0.000198519
-0.000216368
-0.000234175
-0.000250502
-0.000263683
-0.00027253
-0.000275931
-0.000272691
-0.00026238
-0.000246626
-0.000227635
-0.000208278
0.000419196
0.000401484
0.000383886
0.000366529
0.000349209
0.000331809
0.000314367
0.000296982
0.000279736
0.000262683
0.000245847
0.00022925
0.000212913
0.000196867
0.000181147
0.000165784
0.000150808
0.000136244
0.000122114
0.000108438
9.52318e-05
8.25096e-05
7.02797e-05
5.85461e-05
4.73083e-05
3.65626e-05
2.63037e-05
1.65195e-05
7.18458e-06
-1.73033e-06
-1.02564e-05
-1.84238e-05
-2.62588e-05
-3.37859e-05
-4.10291e-05
-4.80129e-05
-5.47625e-05
-6.1301e-05
-6.76479e-05
-7.38289e-05
-7.98737e-05
-8.58089e-05
-9.16554e-05
-9.74204e-05
-0.000103113
-0.000108768
-0.000114469
-0.000120341
-0.000126532
-0.000133211
-0.000140532
-0.000148752
-0.00015826
-0.000169438
-0.000182509
-0.000197449
-0.000214103
-0.000232038
-0.000250492
-0.000268113
-0.000283746
-0.000296822
-0.000306545
-0.00031135
-0.000309696
-0.000301385
-0.000288293
-0.000272201
-0.000257039
0.00040781
0.000388963
0.00037027
0.000351849
0.000333485
0.000315055
0.000296601
0.000278229
0.000260031
0.000242067
0.000224367
0.000206955
0.000189858
0.00017311
0.000156748
0.00014081
0.000125326
0.000110327
9.5836e-05
8.1875e-05
6.84621e-05
5.56106e-05
4.33283e-05
3.1616e-05
2.04656e-05
9.86042e-06
-2.17238e-07
-9.7937e-06
-1.89015e-05
-2.75753e-05
-3.58511e-05
-4.37628e-05
-5.13423e-05
-5.86226e-05
-6.56359e-05
-7.24077e-05
-7.89643e-05
-8.5339e-05
-9.15598e-05
-9.76461e-05
-0.000103606
-0.000109435
-0.000115133
-0.000120717
-0.000126222
-0.000131704
-0.00013727
-0.000143038
-0.000149155
-0.000155869
-0.000163485
-0.000172272
-0.000182433
-0.000194066
-0.000207257
-0.000222006
-0.000238066
-0.000254719
-0.000271015
-0.000286623
-0.000301545
-0.000315263
-0.00032606
-0.000332027
-0.000331937
-0.000325936
-0.000315174
-0.000301508
-0.000290186
0.000391859
0.000371749
0.000351798
0.000332172
0.000312639
0.000293059
0.000273475
0.000254
0.000234737
0.000215753
0.000197085
0.000178761
0.000160811
0.000143275
0.000126195
0.000109613
9.35654e-05
7.80843e-05
6.31973e-05
4.89282e-05
3.52961e-05
2.2315e-05
9.99336e-06
-1.66496e-06
-1.26606e-05
-2.30049e-05
-3.27259e-05
-4.1865e-05
-5.04687e-05
-5.85873e-05
-6.62702e-05
-7.35656e-05
-8.05216e-05
-8.71943e-05
-9.36447e-05
-9.99235e-05
-0.000106069
-0.000112106
-0.000118041
-0.000123867
-0.00012957
-0.000135149
-0.00014061
-0.000145962
-0.000151211
-0.000156384
-0.000161565
-0.000166909
-0.000172624
-0.000178919
-0.000185976
-0.000193918
-0.000202866
-0.000213023
-0.000224523
-0.000237111
-0.000250074
-0.000263291
-0.000277213
-0.000292281
-0.000308
-0.000322772
-0.00033458
-0.000341732
-0.000343077
-0.000338441
-0.000328689
-0.000316437
-0.000308196
0.000374151
0.000352714
0.000331528
0.000310695
0.000289972
0.000269226
0.000248503
0.000227926
0.000207608
0.000187626
0.000168022
0.000148831
0.000130087
0.000111835
9.4124e-05
7.70021e-05
6.05125e-05
4.46933e-05
2.95781e-05
1.51954e-05
1.56654e-06
-1.12965e-05
-2.33948e-05
-3.47444e-05
-4.53671e-05
-5.52892e-05
-6.45491e-05
-7.31971e-05
-8.12921e-05
-8.88943e-05
-9.60593e-05
-0.000102845
-0.000109331
-0.0001156
-0.000121713
-0.000127717
-0.000133647
-0.000139521
-0.000145355
-0.000151167
-0.00015696
-0.000162717
-0.000168379
-0.000173846
-0.000179043
-0.00018395
-0.000188648
-0.000193292
-0.000198009
-0.000202835
-0.000207796
-0.000213124
-0.000219194
-0.000226145
-0.000233625
-0.000241587
-0.00025052
-0.000261431
-0.000275118
-0.000291088
-0.000307866
-0.000323533
-0.000336179
-0.000344014
-0.000345657
-0.000340673
-0.000330183
-0.000317852
-0.00031125
0.000347075
0.000324131
0.000301369
0.000279057
0.000256919
0.000234776
0.000212675
0.000190754
0.00016914
0.000147924
0.000127159
0.000106884
8.71414e-05
6.79826e-05
4.94633e-05
3.16379e-05
1.45536e-05
-1.74765e-06
-1.72238e-05
-3.18329e-05
-4.55362e-05
-5.82992e-05
-7.00983e-05
-8.09319e-05
-9.08264e-05
-9.98295e-05
-0.000107996
-0.000115407
-0.000122172
-0.0001284
-0.000134193
-0.000139652
-0.000144881
-0.000149961
-0.000154952
-0.000159914
-0.00016491
-0.000169994
-0.00017522
-0.000180625
-0.000186237
-0.000192027
-0.00019789
-0.000203597
-0.000208851
-0.00021341
-0.000217232
-0.000220602
-0.000223757
-0.000226495
-0.000228432
-0.000229927
-0.000231682
-0.000233643
-0.000235859
-0.000239495
-0.000246182
-0.000256901
-0.000271354
-0.000288079
-0.00030527
-0.000321051
-0.000333453
-0.000340535
-0.000340792
-0.000333737
-0.000320973
-0.000307007
-0.000299759
0.000321691
0.000297223
0.000273188
0.000249599
0.000226171
0.000202758
0.000179416
0.00015629
0.000133522
0.000111215
8.94357e-05
6.82352e-05
4.76653e-05
2.77889e-05
8.67654e-06
-9.59955e-06
-2.69817e-05
-4.34357e-05
-5.8939e-05
-7.34725e-05
-8.70155e-05
-9.95394e-05
-0.000111018
-0.000121439
-0.000130816
-0.000139191
-0.00014663
-0.000153224
-0.000159076
-0.000164303
-0.000169051
-0.000173469
-0.00017769
-0.000181825
-0.000185959
-0.000190137
-0.00019437
-0.000198651
-0.000202991
-0.000207449
-0.000212171
-0.000217342
-0.000223044
-0.000229092
-0.000234866
-0.000239388
-0.000241883
-0.000242838
-0.000243622
-0.000244384
-0.000243812
-0.000241669
-0.000239294
-0.000237312
-0.000236496
-0.000238497
-0.000244709
-0.000255301
-0.000269423
-0.000285597
-0.000302017
-0.000316721
-0.000327596
-0.000332525
-0.000329882
-0.000319357
-0.000302989
-0.000285597
-0.000274523
0.00027498
0.000248503
0.000222187
0.000196544
0.000171245
0.000146034
0.000120936
9.61041e-05
7.16972e-05
4.78335e-05
2.45923e-05
2.03448e-06
-1.97767e-05
-4.07653e-05
-6.08416e-05
-7.99079e-05
-9.78504e-05
-0.000114527
-0.000129823
-0.000143733
-0.00015629
-0.000167508
-0.000177426
-0.000186111
-0.000193634
-0.000200064
-0.000205488
-0.000209998
-0.000213692
-0.000216705
-0.000219211
-0.000221404
-0.000223482
-0.00022564
-0.000228033
-0.000230752
-0.000233794
-0.000237067
-0.000240388
-0.000243552
-0.000246435
-0.000249069
-0.000251596
-0.000254242
-0.000256965
-0.000258986
-0.000259103
-0.00025733
-0.000255498
-0.00025423
-0.000252135
-0.000248728
-0.000245002
-0.000242058
-0.000240822
-0.000242125
-0.000246828
-0.00025562
-0.000268296
-0.000283464
-0.000298829
-0.000311807
-0.000319923
-0.000321
-0.000313678
-0.000298271
-0.000277154
-0.000255225
-0.000239687
0.000244485
0.00021676
0.000189703
0.00016289
0.000136125
0.000109434
8.29345e-05
5.67763e-05
3.1115e-05
6.07487e-06
-1.826e-05
-4.18263e-05
-6.45637e-05
-8.64147e-05
-0.000107348
-0.000127399
-0.000146634
-0.000164888
-0.00018174
-0.000196834
-0.000210002
-0.000221232
-0.000230564
-0.000238047
-0.00024375
-0.000247768
-0.000250243
-0.000251368
-0.0002514
-0.000250671
-0.000249584
-0.000248592
-0.000248153
-0.00024868
-0.000250463
-0.000253584
-0.000257839
-0.000262704
-0.000267405
-0.000271116
-0.00027324
-0.000273456
-0.000271568
-0.000268261
-0.000265153
-0.000263436
-0.000262815
-0.000262308
-0.000261229
-0.00025924
-0.000256463
-0.000253363
-0.000250398
-0.000248035
-0.00024678
-0.000247086
-0.000249591
-0.000255424
-0.000265591
-0.000279455
-0.000294169
-0.000305825
-0.000310783
-0.000306473
-0.000292104
-0.00026909
-0.000240931
-0.000213072
-0.000192291
0.000164436
0.000134012
0.00010393
7.46171e-05
4.56389e-05
1.66923e-05
-1.21147e-05
-4.04984e-05
-6.82184e-05
-9.51262e-05
-0.000121123
-0.000146107
-0.000169947
-0.000192472
-0.000213472
-0.000232697
-0.000249918
-0.000265203
-0.000278851
-0.00029095
-0.000301348
-0.000309813
-0.00031614
-0.000320208
-0.000321999
-0.000321602
-0.000319199
-0.000315048
-0.00030948
-0.00030288
-0.000295688
-0.000288396
-0.000281528
-0.000275598
-0.000271054
-0.000268217
-0.000267202
-0.000267856
-0.000269753
-0.000272274
-0.000274725
-0.000276495
-0.00027704
-0.000276105
-0.000273727
-0.000270327
-0.000266795
-0.000263773
-0.000261228
-0.000258903
-0.000256535
-0.000254188
-0.000252198
-0.000250853
-0.000250225
-0.000250293
-0.000251312
-0.000254475
-0.000261773
-0.000273831
-0.000288149
-0.000299869
-0.000303624
-0.000295544
-0.000274747
-0.000243574
-0.000207228
-0.00017286
-0.000145592
0.00011894
0.000127522
0.000136578
0.000146059
0.000156104
0.000166844
0.000178357
0.00019038
0.000202841
0.000215962
0.000229827
0.000244386
0.000259257
0.000275274
0.000290925
0.000307377
0.000323534
0.000340454
0.000357235
0.000373698
0.000391055
0.000407203
0.000422926
0.00043782
0.000452021
0.000465423
0.000477332
0.000488104
0.00049808
0.000506202
0.000512659
0.000517758
0.000521697
0.00052447
0.000525411
0.00052519
0.000523992
0.000521468
0.000517988
0.000513954
0.000508816
0.000503368
0.000497871
0.000492213
0.000485569
0.000479308
0.00047262
0.000466156
0.000459623
0.000453295
0.000447201
0.000441296
0.000435822
0.000430491
0.000425469
0.000420409
0.000415846
0.000411537
0.000407633
0.000113967
0.00012284
0.000132272
0.000142272
0.000152875
0.000164107
0.000176015
0.000188562
0.000201746
0.000215578
0.000230043
0.000245161
0.000260825
0.000277081
0.000293765
0.000310762
0.000328135
0.000345637
0.000363312
0.000380626
0.000398121
0.000415215
0.000431597
0.000447198
0.000461901
0.000475723
0.000488304
0.000499443
0.000509555
0.000518026
0.000524638
0.000529913
0.000533807
0.000536323
0.000537275
0.00053688
0.000535378
0.000532757
0.000529051
0.000524525
0.000519302
0.000513627
0.000507547
0.000500975
0.000494212
0.000487341
0.000480451
0.000473627
0.00046681
0.000460152
0.000453723
0.000447519
0.000441512
0.00043585
0.000430405
0.00042533
0.000420612
0.000416173
0.000412017
0.000108477
0.000117746
0.000127577
0.000138032
0.000149129
0.000160892
0.000173326
0.000186433
0.000200232
0.000214727
0.00022989
0.00024568
0.000262068
0.000279009
0.000296433
0.00031433
0.000332547
0.000350948
0.000369366
0.000387619
0.000405743
0.000423534
0.000440678
0.000456989
0.000472385
0.000486744
0.000499822
0.000511499
0.00052189
0.000530579
0.000537536
0.000542938
0.000546764
0.000549114
0.000549925
0.000549368
0.000547584
0.000544711
0.000540771
0.00053601
0.000530506
0.000524363
0.000517736
0.000510734
0.000503536
0.000496252
0.000488917
0.000481622
0.000474432
0.000467417
0.000460633
0.000454075
0.00044777
0.000441747
0.00043607
0.000430732
0.000425708
0.000420989
0.000416591
0.000102645
0.000112324
0.000122593
0.000133509
0.000145096
0.00015738
0.000170371
0.000184079
0.000198512
0.000213669
0.000229531
0.000246067
0.000263241
0.000280991
0.000299243
0.000317954
0.000336978
0.000356225
0.000375496
0.000394682
0.000413658
0.000432202
0.000450109
0.000467173
0.000483286
0.000498262
0.000511881
0.000524064
0.000534801
0.000543768
0.000551004
0.000556538
0.000560375
0.000562666
0.00056335
0.000562611
0.00056057
0.000557375
0.000553099
0.000547955
0.000542027
0.000535429
0.000528354
0.000520942
0.000513273
0.000505498
0.000497677
0.000489905
0.000482269
0.000474823
0.000467612
0.000460663
0.000454011
0.000447672
0.000441666
0.000435992
0.000430647
0.000425633
0.000420984
9.62444e-05
0.000106366
0.000117112
0.000128535
0.000140661
0.000153513
0.000167109
0.000181459
0.000196568
0.000212429
0.000229029
0.000246341
0.000264327
0.000282923
0.000302051
0.000321624
0.000341531
0.000361663
0.00038185
0.000401956
0.000421816
0.000441199
0.000459914
0.000477767
0.000494602
0.000510224
0.000524426
0.000537104
0.000548218
0.000557499
0.000564977
0.000570647
0.000574532
0.00057678
0.00057735
0.000576414
0.000574104
0.000570563
0.000565898
0.000560295
0.000553886
0.000546817
0.000539258
0.00053134
0.000523164
0.000514867
0.000506549
0.000498296
0.000490187
0.000482277
0.000474616
0.00046724
0.000460182
0.000453462
0.000447092
0.000441081
0.000435432
0.000430138
0.000425227
8.91334e-05
9.97258e-05
0.000110978
0.000122946
0.000135652
0.000149121
0.000163369
0.000178408
0.000194243
0.000210866
0.000228262
0.000246404
0.00026525
0.00028474
0.000304793
0.000325311
0.00034618
0.000367273
0.000388429
0.000409488
0.000430268
0.00045055
0.000470131
0.000488807
0.000506393
0.000522689
0.000537501
0.000550695
0.000562211
0.000571823
0.000579542
0.000585345
0.000589268
0.000591452
0.000591891
0.000590741
0.000588137
0.00058423
0.000579151
0.000573076
0.000566166
0.000558581
0.000550482
0.00054201
0.000533293
0.000524459
0.000515616
0.000506851
0.000498241
0.000489847
0.00048172
0.0004739
0.000466419
0.000459301
0.000452558
0.000446199
0.000440225
0.000434626
0.000429429
8.12854e-05
9.23731e-05
0.000104157
0.000116693
0.000130008
0.000144124
0.000159061
0.000174831
0.000191438
0.000208876
0.000227128
0.000246163
0.000265936
0.000286383
0.000307421
0.000328949
0.000350848
0.000372975
0.000395166
0.000417243
0.000439011
0.000460253
0.000480755
0.0005003
0.000518685
0.000535701
0.000551154
0.000564896
0.000576842
0.000586802
0.000594768
0.0006007
0.000604648
0.000606753
0.000607037
0.000605647
0.000602724
0.000598426
0.000592905
0.000586338
0.000578901