/*--------------------------------*- C++ -*----------------------------------*\
| =========                 |                                                 |
| \\      /  F ield         | OpenFOAM: The Open Source CFD Toolbox           |
|  \\    /   O peration     | Version:  2312                                  |
|   \\  /    A nd           | Website:  www.openfoam.com                      |
|    \\/     M anipulation  |                                                 |
\*---------------------------------------------------------------------------*/
FoamFile
{
    version     2.0;
    format      ascii;
    arch        "LSB;label=32;scalar=64";
    class       surfaceScalarField;
    location    "600";
    object      phi;
}
// * * * * * * * * * * * * * * * * * * * * * * * * * * * * * * * * * * * * * //

dimensions      [0 3 -1 0 0 0 0];

oriented        oriented;

internalField   nonuniform List<scalar> 
116611
(
0.00101896
0.000421108
-0.00100294
-0.000437127
0.00103487
0.000416713
-0.000432619
0.00105067
0.000411991
-0.000427799
0.00106635
0.000406906
-0.000422581
0.00108176
0.000401443
-0.000416855
0.00109713
0.000395511
-0.000410884
0.00111208
0.000389194
-0.000404137
0.00112699
0.000382447
-0.00039736
0.00114158
0.000375221
-0.000389812
0.00115599
0.000367571
-0.000381985
0.00117009
0.000359411
-0.000373502
0.00118395
0.000350761
-0.000364626
0.00119754
0.000341605
-0.000355196
0.00121091
0.000331922
-0.000345284
0.00122402
0.000321712
-0.000334824
0.00123674
0.000311014
-0.000323732
0.00124926
0.000299664
-0.00031219
0.00126134
0.000287823
-0.000299903
0.00127306
0.000275266
-0.000286986
0.00128441
0.000262223
-0.000273571
0.0012955
0.000248417
-0.00025951
0.00130611
0.000234022
-0.000244624
0.0013163
0.000218965
-0.000229157
0.00132611
0.000203258
-0.000213073
0.0013354
0.000186833
-0.000196126
0.00134427
0.000169703
-0.000178573
0.00135261
0.000151763
-0.000160096
0.00136027
0.000133172
-0.000140834
0.00136759
0.000113751
-0.000121074
0.00137409
9.34771e-05
-9.99714e-05
0.00137996
7.25147e-05
-7.8393e-05
0.00138502
5.0606e-05
-5.56576e-05
0.00138936
2.78649e-05
-3.22122e-05
0.00139306
4.44448e-06
-8.14292e-06
0.001396
-2.00149e-05
1.70758e-05
0.00139818
-4.52702e-05
4.30921e-05
0.0013996
-7.16078e-05
7.01916e-05
0.00139986
-9.89198e-05
9.86555e-05
0.00139925
-0.000127016
0.000127622
0.00139769
-0.000156111
0.000157675
0.00139522
-0.0001861
0.000188571
0.00139164
-0.000217208
0.000220784
0.00138674
-0.000249335
0.000254232
0.00138091
-0.000282249
0.000288082
0.00137404
-0.000316197
0.000323067
0.00136592
-0.000351151
0.00035927
0.00135638
-0.000387215
0.000396758
0.00134567
-0.000424099
0.000434811
0.00133378
-0.000461945
0.000473836
0.00132048
-0.00050083
0.00051413
0.00130576
-0.00054074
0.000555457
0.0012894
-0.000581659
0.000598015
0.00127126
-0.000623504
0.000641653
0.00125136
-0.000666143
0.000686035
0.00122981
-0.00070951
0.00073106
0.00120632
-0.000753686
0.000777179
0.00118076
-0.000798708
0.000824268
0.00115306
-0.000844462
0.000872158
0.0011228
-0.00089112
0.000921382
0.0010896
-0.00093858
0.000971786
0.00105383
-0.000986434
0.0010222
0.00101494
-0.00103488
0.00107376
0.000973126
-0.00108374
0.00112555
0.000927347
-0.001133
0.00117878
0.000877403
-0.00118203
0.00123197
0.000822701
-0.00122969
0.00128439
0.000760632
-0.00127639
0.00133846
0.000696074
-0.00132889
0.00139345
-0.00139572
0.00063925
0.00145254
0.00100235
0.000405156
-0.000986396
0.00101815
0.000400908
0.00103384
0.000396306
0.00104939
0.000391353
0.00106482
0.000386012
0.00108004
0.000380292
0.00109506
0.000374175
0.00110988
0.000367629
0.00112445
0.00036065
0.00113881
0.000353215
0.0011529
0.00034532
0.00116671
0.000336948
0.00118024
0.000328075
0.00119347
0.000318687
0.00120639
0.000308793
0.00121905
0.000298352
0.00123135
0.000287372
0.00124335
0.000275823
0.00125491
0.000263699
0.00126618
0.00025096
0.00127699
0.000237603
0.00128739
0.000223625
0.00129735
0.000209003
0.00130688
0.000193725
0.00131595
0.00017777
0.00132455
0.000161103
0.00133258
0.000143734
0.0013401
0.000125646
0.00134706
0.000106795
0.00135335
8.71881e-05
0.00135906
6.67999e-05
0.00136406
4.5603e-05
0.00136832
2.36096e-05
0.00137195
8.19374e-07
0.00137479
-2.28554e-05
0.00137692
-4.74048e-05
0.00137818
-7.28708e-05
0.0013785
-9.92382e-05
0.00137797
-0.000126487
0.00137651
-0.000154646
0.00137414
-0.000183729
0.00137071
-0.000213781
0.00136617
-0.000244791
0.00136063
-0.000276712
0.00135401
-0.000309575
0.00134625
-0.000343395
0.00133722
-0.000378182
0.00132698
-0.000413865
0.00131549
-0.000450455
0.00130264
-0.000487971
0.0012883
-0.000526407
0.00127237
-0.000565727
0.00125474
-0.00060587
0.00123535
-0.000646758
0.00121418
-0.000688334
0.00119109
-0.000730596
0.00116592
-0.000773543
0.00113858
-0.00081712
0.00110879
-0.000861336
0.00107633
-0.000906113
0.00104117
-0.000951279
0.00100307
-0.00099677
0.000961704
-0.00104238
0.000916456
-0.00108775
0.000866598
-0.00113217
0.000811677
-0.00117477
0.000752305
-0.00121702
0.000693255
-0.00126984
-0.00133953
0.000637064
0.000986028
0.000389193
-0.000970066
0.00100182
0.000385116
0.00101745
0.000380678
0.00103292
0.000375877
0.00104823
0.000370704
0.00106337
0.000365154
0.00107833
0.000359216
0.00109309
0.000352873
0.00110762
0.000346113
0.00112192
0.000338918
0.00113596
0.000331275
0.00114974
0.000323169
0.00116324
0.000314584
0.00117642
0.000305504
0.0011893
0.000295916
0.00120184
0.000285803
0.00121406
0.000275155
0.00122593
0.000263955
0.00123744
0.000252191
0.00124856
0.000239843
0.00125926
0.0002269
0.00126954
0.000213346
0.00127938
0.000199163
0.00128877
0.000184337
0.00129768
0.000168854
0.00130609
0.000152694
0.00131398
0.000135844
0.00132134
0.000118287
0.00132813
0.000100009
0.00133432
8.09914e-05
0.0013399
6.12216e-05
0.00134482
4.06882e-05
0.00134905
1.93783e-05
0.00135259
-2.72702e-06
0.00135541
-2.5673e-05
0.00135747
-4.9466e-05
0.00135872
-7.4118e-05
0.00135912
-9.96411e-05
0.00135867
-0.000126034
0.00135733
-0.000153304
0.00135506
-0.000181466
0.00135181
-0.000210531
0.00134754
-0.000240514
0.00134223
-0.000271408
0.00133586
-0.000303203
0.00132836
-0.000335897
0.00131967
-0.000369485
0.00130974
-0.00040394
0.00129853
-0.000439244
0.00128595
-0.00047539
0.0012719
-0.000512359
0.00125629
-0.000550115
0.00123902
-0.000588604
0.00122003
-0.000627767
0.00119924
-0.000667547
0.00117656
-0.00070791
0.00115184
-0.000748821
0.00112494
-0.000790228
0.00109568
-0.000832076
0.00106386
-0.000874285
0.00102932
-0.000916743
0.00099182
-0.000959269
0.000950961
-0.00100152
0.000906128
-0.00104292
0.000856639
-0.00108268
0.000802433
-0.00112056
0.000745632
-0.00116022
0.000690433
-0.00121464
-0.00128375
0.000634653
0.000969906
0.000373198
-0.00095391
0.000985735
0.000369286
0.00100138
0.000365029
0.00101685
0.000360415
0.00103212
0.000355433
0.0010472
0.000350074
0.00106208
0.000344331
0.00107676
0.000338193
0.00109123
0.000331649
0.00110546
0.000324687
0.00111944
0.00031729
0.00113317
0.000309445
0.00114661
0.000301139
0.00115976
0.000292356
0.00117259
0.000283081
0.0011851
0.000273299
0.00119726
0.000262995
0.00120906
0.000252155
0.00122048
0.000240763
0.00123152
0.000228807
0.00124215
0.000216271
0.00125236
0.00020314
0.00126212
0.0001894
0.00127142
0.000175036
0.00128024
0.000160031
0.00128856
0.000144372
0.00129637
0.000128041
0.00130363
0.000111026
0.00131032
9.3312e-05
0.00131643
7.48837e-05
0.00132193
5.57285e-05
0.00132678
3.5833e-05
0.00133097
1.51894e-05
0.00133448
-6.2341e-06
0.00133727
-2.84686e-05
0.00133932
-5.15182e-05
0.0013406
-7.53937e-05
0.00134106
-0.000100106
0.00134069
-0.000125659
0.00133944
-0.000152059
0.0013373
-0.000179317
0.0013342
-0.000207438
0.00133012
-0.000236427
0.001325
-0.000266291
0.00131882
-0.000297026
0.00131153
-0.000328609
0.00130307
-0.000361023
0.00129338
-0.000394252
0.00128241
-0.00042827
0.00127008
-0.00046306
0.00125631
-0.000498591
0.00124102
-0.000534826
0.00122413
-0.000571714
0.00120557
-0.0006092
0.00118524
-0.000647224
0.00116306
-0.00068573
0.0011389
-0.000724657
0.00111261
-0.000763935
0.00108401
-0.000803477
0.00105291
-0.00084319
0.00101914
-0.000882971
0.000982398
-0.000922528
0.000942215
-0.000961337
0.00089793
-0.000998636
0.000849107
-0.00103386
0.00079652
-0.00106798
0.00074338
-0.00110708
0.000692401
-0.00116366
-0.00122794
0.000636595
0.000954141
0.000357295
-0.000938237
0.000969928
0.000353499
0.000985568
0.000349389
0.00100104
0.000344947
0.00101631
0.000340157
0.00103138
0.000335003
0.00104624
0.000329473
0.00106088
0.000323556
0.00107529
0.000317241
0.00108946
0.000310515
0.00110338
0.000303368
0.00111704
0.000295787
0.00113042
0.000287757
0.00114351
0.000279267
0.00115629
0.000270301
0.00116874
0.000260845
0.00118086
0.000250884
0.00119261
0.000240403
0.00120398
0.000229388
0.00121496
0.000217824
0.00122554
0.000205697
0.00123569
0.000192992
0.00124539
0.000179695
0.00125463
0.000165792
0.0012634
0.000151267
0.00127166
0.000136107
0.00127941
0.000120296
0.00128661
0.000103821
0.00129326
8.66683e-05
0.00129932
6.88238e-05
0.00130477
5.02747e-05
0.0013096
3.10089e-05
0.00131376
1.10211e-05
0.00131726
-9.73125e-06
0.00132006
-3.12661e-05
0.00132213
-5.35863e-05
0.00132344
-7.67017e-05
0.00132395
-0.000100621
0.00132364
-0.000125352
0.00132248
-0.000150899
0.00132044
-0.000177269
0.00131746
-0.000204464
0.00131352
-0.000232484
0.00130856
-0.000261332
0.00130255
-0.000291014
0.00129544
-0.000321497
0.00128717
-0.000352759
0.0012777
-0.000384782
0.00126697
-0.000417538
0.00125491
-0.000451003
0.00124146
-0.00048514
0.00122655
-0.000519911
0.00121009
-0.000555262
0.00119203
-0.000591133
0.00117226
-0.000627456
0.00115069
-0.000664159
0.00112719
-0.00070116
0.00110162
-0.000738363
0.00107381
-0.000775664
0.00104357
-0.000812955
0.0010107
-0.000850101
0.00097482
-0.000886644
0.000935375
-0.000921892
0.000891797
-0.000955057
0.000844176
-0.000986235
0.000794286
-0.00101809
0.000745423
-0.00105822
0.000697754
-0.00111599
-0.00116953
0.000639339
0.000939073
0.000341588
-0.000923366
0.000954697
0.000337875
0.000970216
0.00033387
0.000985602
0.000329561
0.00100083
0.00032493
0.00101587
0.00031996
0.00103071
0.000314635
0.00104533
0.000308939
0.00105971
0.000302858
0.00107385
0.000296379
0.00108773
0.00028949
0.00110133
0.000282178
0.00111466
0.000274431
0.00112769
0.000266236
0.00114041
0.000257579
0.00115281
0.000248448
0.00116487
0.000238827
0.00117657
0.000228704
0.00118789
0.000218062
0.00119883
0.00020689
0.00120935
0.00019517
0.00121946
0.000182891
0.00122911
0.000170037
0.00123831
0.000156594
0.00124703
0.000142547
0.00125525
0.000127884
0.00126296
0.000112591
0.00127013
9.66526e-05
0.00127674
8.0057e-05
0.00128277
6.27912e-05
0.0012882
4.48426e-05
0.00129301
2.62008e-05
0.00129717
6.85921e-06
0.00130067
-1.32304e-05
0.00130348
-3.40734e-05
0.00130557
-5.56739e-05
0.00130691
-7.8041e-05
0.00130747
-0.000101183
0.00130722
-0.000125105
0.00130614
-0.000149813
0.00130418
-0.00017531
0.00130131
-0.000201595
0.00129749
-0.000228667
0.00129268
-0.000256521
0.00128682
-0.000285158
0.00127989
-0.000314564
0.00127183
-0.000344703
0.00126261
-0.000375554
0.00125216
-0.000407088
0.00124043
-0.000439276
0.00122737
-0.000472078
0.0012129
-0.000505448
0.00119697
-0.000539328
0.00117949
-0.000573651
0.00116037
-0.000608337
0.00113951
-0.000643298
0.00111678
-0.000678434
0.00109205
-0.000713631
0.00106515
-0.000748769
0.00103592
-0.000783719
0.00100406
-0.000818246
0.000969117
-0.000851699
0.000930519
-0.000883293
0.000888006
-0.000912544
0.00084247
-0.000940699
0.000796406
-0.000972021
0.000752259
-0.00101407
0.000707063
-0.00107079
-0.0011072
0.000644739
0.000924886
0.000326066
-0.000909365
0.000940314
0.000322447
0.000955641
0.000318543
0.000970854
0.000314348
0.000985936
0.000309849
0.00100086
0.000305032
0.00101561
0.000299884
0.00103017
0.000294386
0.0010445
0.000288525
0.00105859
0.000282284
0.00107243
0.00027565
0.001086
0.000268609
0.00109929
0.000261147
0.00111227
0.00025325
0.00112494
0.000244907
0.00113729
0.000236102
0.00114929
0.000226823
0.00116094
0.000217057
0.00117221
0.000206789
0.0011831
0.000196006
0.00119358
0.000184693
0.00120363
0.000172837
0.00121324
0.000160423
0.0012224
0.000147439
0.00123108
0.000133869
0.00123926
0.000119701
0.00124693
0.000104921
0.00125406
8.95166e-05
0.00126065
7.34744e-05
0.00126666
5.67826e-05
0.00127207
3.94292e-05
0.00127686
2.14057e-05
0.00128102
2.70011e-06
0.00128453
-1.67335e-05
0.00128735
-3.68926e-05
0.00128945
-5.77832e-05
0.00129083
-7.94132e-05
0.00129143
-0.000101789
0.00129125
-0.000124918
0.00129023
-0.000148801
0.00128836
-0.00017344
0.0012856
-0.000198833
0.00128191
-0.000224978
0.00127726
-0.000251864
0.00127158
-0.000279486
0.00126486
-0.000307841
0.00125705
-0.000336896
0.00124812
-0.00036662
0.00123801
-0.000396983
0.00122669
-0.000427952
0.00121409
-0.00045948
0.00120016
-0.000491516
0.00118482
-0.000523992
0.00116801
-0.000556833
0.00114962
-0.000589949
0.00112956
-0.000623237
0.00110771
-0.000656583
0.00108394
-0.000689863
0.0010581
-0.000722933
0.00102999
-0.000755611
0.00099923
-0.000787482
0.000965303
-0.000817772
0.000927787
-0.000845777
0.000887027
-0.000871784
0.000844792
-0.000898464
0.000803631
-0.00093086
0.000764423
-0.000974865
0.000719715
-0.00102608
-0.00103796
0.000650475
0.000911511
0.000310655
-0.0008961
0.000926799
0.000307159
0.000941962
0.00030338
0.000956997
0.000299313
0.000971895
0.00029495
0.000986648
0.00029028
0.00100124
0.000285293
0.00101565
0.000279975
0.00102986
0.000274312
0.00104386
0.000268291
0.00105761
0.000261896
0.00107111
0.000255112
0.00108433
0.000247926
0.00109726
0.000240323
0.00110987
0.000232289
0.00112217
0.00022381
0.00113412
0.000214873
0.00114571
0.000205464
0.00115693
0.000195569
0.00116776
0.000185174
0.00117819
0.000174267
0.00118819
0.000162833
0.00119776
0.000150858
0.00120686
0.00013833
0.0012155
0.000125235
0.00122364
0.000111559
0.00123127
9.72896e-05
0.00123837
8.24144e-05
0.00124493
6.69212e-05
0.00125091
5.07983e-05
0.00125631
3.40341e-05
0.00126109
1.66225e-05
0.00126525
-1.45751e-06
0.00126876
-2.02415e-05
0.00127159
-3.97257e-05
0.00127372
-5.99166e-05
0.00127513
-8.08212e-05
0.00127579
-0.000102445
0.00127566
-0.000124794
0.00127473
-0.000147868
0.00127296
-0.000171669
0.00127032
-0.000196194
0.00126678
-0.000221437
0.00126231
-0.000247389
0.00125686
-0.000274039
0.0012504
-0.000301379
0.00124289
-0.000329391
0.00123431
-0.00035804
0.00122462
-0.00038729
0.00121377
-0.000417099
0.0012017
-0.000447416
0.00118837
-0.00047818
0.00117369
-0.000509319
0.00115761
-0.000540746
0.00114002
-0.000572365
0.00112085
-0.000604064
0.00109999
-0.00063572
0.00107731
-0.00066719
0.00105267
-0.000698292
0.00102578
-0.000728721
0.000996176
-0.000757876
0.000963409
-0.000785004
0.000927492
-0.00080986
0.000889629
-0.000833922
0.000852143
-0.000860978
0.000816909
-0.000895626
0.000782066
-0.000940022
0.000734292
-0.000978311
-0.000957514
0.000653844
0.000898789
0.000295295
-0.00088343
0.000914006
0.000291942
0.000929074
0.000288312
0.000943989
0.000284398
0.000958747
0.000280192
0.000973342
0.000275685
0.000987765
0.000270869
0.00100201
0.000265732
0.00101606
0.000260264
0.0010299
0.000254452
0.00104351
0.000248283
0.00105688
0.000241743
0.00106998
0.00023482
0.00108281
0.000227498
0.00109534
0.000219763
0.00110754
0.000211602
0.00111942
0.000202999
0.00113094
0.000193942
0.00114209
0.000184416
0.00115286
0.000174407
0.00116322
0.000163902
0.00117317
0.000152887
0.00118268
0.000141349
0.00119173
0.000129274
0.00120032
0.00011665
0.00120842
0.000103462
0.00121601
8.96997e-05
0.00122307
7.53495e-05
0.00122959
6.04001e-05
0.00123555
4.484e-05
0.00124093
2.86585e-05
0.0012457
1.18511e-05
0.00124985
-5.61347e-06
0.00125337
-2.37563e-05
0.00125622
-4.25761e-05
0.00125838
-6.20793e-05
0.00125983
-8.22723e-05
0.00126055
-0.000103161
0.0012605
-0.000124748
0.00125967
-0.000147035
0.00125802
-0.000170022
0.00125553
-0.000193705
0.00125217
-0.000218079
0.00124792
-0.000243134
0.00124274
-0.000268858
0.00123659
-0.000295236
0.00122945
-0.000322248
0.00122128
-0.000349869
0.00121205
-0.000378059
0.00120171
-0.000406765
0.00119023
-0.000435929
0.00117753
-0.000465485
0.00116357
-0.000495355
0.00114827
-0.000525448
0.00113157
-0.000555663
0.00111339
-0.000585883
0.00109364
-0.00061597
0.00107219
-0.000645745
0.00104884
-0.000674937
0.0010232
-0.000703083
0.000994831
-0.000729509
0.00096359
-0.000753764
0.000930266
-0.000776536
0.000896887
-0.000800543
0.000865704
-0.000829796
0.000836837
-0.000866759
0.000803703
-0.000906888
0.000748701
-0.000923308
-0.000868708
0.000659896
0.000886631
0.000279973
-0.000871309
0.000901808
0.000276766
0.000916827
0.000273293
0.000931679
0.000269546
0.000946357
0.000265514
0.000960853
0.00026119
0.000975159
0.000256563
0.000989268
0.000251623
0.00100317
0.000246361
0.00101686
0.000240765
0.00103031
0.000234825
0.00104353
0.000228528
0.00105649
0.000221862
0.00106917
0.000214814
0.00108156
0.00020737
0.00109365
0.000199517
0.00110541
0.00019124
0.00111682
0.000182527
0.00112788
0.000173361
0.00113855
0.000163731
0.00114883
0.000153622
0.0011587
0.000143021
0.00116813
0.000131913
0.00117712
0.000120287
0.00118564
0.000108127
0.00119368
9.5423e-05
0.00120122
8.21611e-05
0.00120824
6.83295e-05
0.00121473
5.39169e-05
0.00122065
3.8912e-05
0.00122601
2.33055e-05
0.00123077
7.09146e-06
0.00123492
-9.76854e-06
0.00123845
-2.72817e-05
0.00124132
-4.54503e-05
0.00124352
-6.42809e-05
0.00124503
-8.37797e-05
0.00124582
-0.000103952
0.00124587
-0.0001248
0.00124516
-0.000146325
0.00124367
-0.000168526
0.00124136
-0.0001914
0.00123822
-0.000214939
0.00123422
-0.000239135
0.00122934
-0.000263974
0.00122354
-0.000289438
0.0012168
-0.000315503
0.00120907
-0.000342141
0.00120032
-0.000369314
0.00119053
-0.000396971
0.00117964
-0.000425045
0.00116762
-0.000453463
0.00115441
-0.000482147
0.00113997
-0.000511006
0.00112424
-0.000539935
0.00110717
-0.000568805
0.00108864
-0.000597446
0.0010685
-0.000625606
0.00104645
-0.000652888
0.0010221
-0.000678729
0.000995232
-0.00070264
0.00096639
-0.000724922
0.000937323
-0.000747468
0.000910392
-0.000773612
0.000886568
-0.000805971
0.00086233
-0.000842522
0.000825504
-0.000870062
0.000758337
-0.000856141
-0.000768261
0.000657889
0.000875044
0.000264697
-0.000859767
0.000890178
0.000261631
0.000905156
0.000258315
0.000919966
0.000254736
0.000934596
0.000250884
0.000949035
0.000246751
0.000963273
0.000242325
0.000977299
0.000237597
0.000991105
0.000232555
0.00100468
0.00022719
0.00101802
0.00022149
0.0010311
0.000215445
0.00104392
0.000209043
0.00105646
0.000202272
0.00106871
0.000195119
0.00108066
0.000187572
0.00109228
0.000179618
0.00110356
0.000171242
0.00111449
0.000162432
0.00112505
0.000153174
0.00113522
0.000143454
0.00114498
0.000133259
0.00115432
0.000122575
0.00116322
0.000111388
0.00117166
9.96871e-05
0.00117962
8.74579e-05
0.0011871
7.46885e-05
0.00119406
6.13671e-05
0.00120049
4.74821e-05
0.00120638
3.30226e-05
0.00121171
1.79807e-05
0.00121645
2.34472e-06
0.00122061
-1.39227e-05
0.00122415
-3.08207e-05
0.00122705
-4.83544e-05
0.0012293
-6.65306e-05
0.00123088
-8.53554e-05
0.00123176
-0.000104833
0.00123193
-0.000124967
0.00123136
-0.000145757
0.00123003
-0.000167201
0.00122793
-0.000189297
0.00122503
-0.000212036
0.0012213
-0.000235408
0.00121673
-0.000259399
0.00121128
-0.000283989
0.00120493
-0.000309154
0.00119765
-0.00033486
0.0011894
-0.000361068
0.00118016
-0.000387729
0.00116989
-0.00041478
0.00115858
-0.000442147
0.00114618
-0.000469751
0.00113268
-0.0004975
0.00111802
-0.000525277
0.00110213
-0.000552923
0.00108489
-0.000580204
0.00106605
-0.000606765
0.00104529
-0.000632125
0.00102241
-0.000655845
0.000997824
-0.00067806
0.000973095
-0.000700193
0.000950601
-0.000724975
0.000931786
-0.000754797
0.000914343
-0.000788528
0.00088961
-0.000817788
0.000841813
-0.000822266
0.00075905
-0.000773377
-0.000658295
0.000649084
0.000864078
0.000249475
-0.000848857
0.000879159
0.00024655
0.000894087
0.000243387
0.000908849
0.000239974
0.000923432
0.000236301
0.000937823
0.000232359
0.000952011
0.000228138
0.000965982
0.000223626
0.000979726
0.000218812
0.00099323
0.000213686
0.00100648
0.000208237
0.00101947
0.000202454
0.00103219
0.000196325
0.00104462
0.00018984
0.00105676
0.000182986
0.00106858
0.00017575
0.00108008
0.000168121
0.00109123
0.000160085
0.00110204
0.000151629
0.00111247
0.000142741
0.00112252
0.000133407
0.00113216
0.000123613
0.00114139
0.000113346
0.00115018
0.000102594
0.00115853
9.13436e-05
0.0011664
7.95815e-05
0.0011738
6.72958e-05
0.00118069
5.44747e-05
0.00118706
4.11068e-05
0.00119291
2.71811e-05
0.0011982
1.26916e-05
0.00120292
-2.38402e-06
0.00120707
-1.80719e-05
0.00121062
-3.43708e-05
0.00121356
-5.12875e-05
0.00121585
-6.88287e-05
0.0012175
-8.70002e-05
0.00121847
-0.000105806
0.00121875
-0.000125249
0.00121833
-0.000145329
0.00121717
-0.000166045
0.00121527
-0.000187392
0.00121259
-0.000209361
0.00120913
-0.000231944
0.00120485
-0.000255123
0.00119974
-0.00027888
0.00119378
-0.000303189
0.00118693
-0.000328016
0.00117919
-0.000353322
0.00117052
-0.000379059
0.00116091
-0.000405171
0.00115035
-0.000431591
0.00113884
-0.000458238
0.00112635
-0.000485007
0.00111282
-0.000511751
0.00109815
-0.000538252
0.00108214
-0.00056419
0.00106452
-0.000589153
0.00104518
-0.000612784
0.00102453
-0.00063519
0.001004
-0.000657536
0.000985967
-0.000682156
0.000972125
-0.000711132
0.000960807
-0.000743479
0.000944911
-0.000772631
0.000911548
-0.000784425
0.00084646
-0.000757178
0.000748241
-0.000675158
-0.000537145
0.000627091
0.000853794
0.000234315
-0.000838634
0.000868814
0.000231531
0.000883681
0.00022852
0.000898384
0.000225271
0.000912909
0.000221776
0.000927245
0.000218024
0.000941377
0.000214005
0.000955293
0.000209709
0.000968981
0.000205125
0.000982426
0.000200241
0.000995616
0.000195047
0.00100854
0.000189531
0.00102118
0.000183683
0.00103353
0.00017749
0.00104558
0.000170941
0.0010573
0.000164023
0.0010687
0.000156725
0.00107975
0.000149033
0.00109045
0.000140935
0.00110077
0.000132419
0.0011107
0.000123471
0.00112024
0.000114078
0.00112936
0.000104227
0.00113805
9.39052e-05
0.00114629
8.31e-05
0.00115407
7.17988e-05
0.00116138
5.99894e-05
0.00116819
4.766e-05
0.0011745
3.47992e-05
0.00118029
2.13968e-05
0.00118553
7.44621e-06
0.00119023
-7.08415e-06
0.00119437
-2.22058e-05
0.00119792
-3.79214e-05
0.00120087
-5.42381e-05
0.0012032
-7.11626e-05
0.0012049
-8.87005e-05
0.00120595
-0.000106856
0.00120633
-0.000125631
0.00120603
-0.000145026
0.00120502
-0.000165039
0.0012033
-0.000185664
0.00120083
-0.000206896
0.00119761
-0.000228723
0.00119362
-0.000251129
0.00118883
-0.000274097
0.00118324
-0.0002976
0.00117684
-0.00032161
0.0011696
-0.000346088
0.00116154
-0.000370993
0.00115264
-0.000396273
0.00114291
-0.000421861
0.00113234
-0.000447664
0.00112088
-0.000473548
0.00110844
-0.000499314
0.00109487
-0.000524677
0.00107997
-0.00054929
0.00106371
-0.000572896
0.00104659
-0.000595662
0.00103004
-0.000618639
0.00101635
-0.000643852
0.0010073
-0.000673103
0.00100146
-0.000705292
0.000992458
-0.000734479
0.000969132
-0.000749305
0.000918286
-0.000733579
0.000833891
-0.000672783
0.000725199
-0.000566466
-0.000419927
0.000607981
0.000844255
0.00021922
-0.00082916
0.000859209
0.000216577
0.00087401
0.000213719
0.000888646
0.000210636
0.000903104
0.000207318
0.000917373
0.000203756
0.000931438
0.00019994
0.000945289
0.000195859
0.00095891
0.000191503
0.000972289
0.000186862
0.000985412
0.000181923
0.000998267
0.000176676
0.00101084
0.00017111
0.00102312
0.000165213
0.00103508
0.000158973
0.00104673
0.000152377
0.00105804
0.000145414
0.001069
0.00013807
0.0010796
0.000130334
0.00108983
0.000122193
0.00109967
0.000113633
0.0011091
0.000104642
0.00111812
9.5207e-05
0.00112671
8.53148e-05
0.00113486
7.4953e-05
0.00114255
6.4109e-05
0.00114977
5.2771e-05
0.0011565
4.0927e-05
0.00116274
2.85656e-05
0.00116845
1.56783e-05
0.00117365
2.25264e-06
0.00117831
-1.1743e-05
0.00118241
-2.63109e-05
0.00118595
-4.14572e-05
0.0011889
-5.71895e-05
0.00119125
-7.35145e-05
0.00119299
-9.04376e-05
0.00119409
-0.000107963
0.00119456
-0.000126092
0.00119436
-0.000144826
0.00119348
-0.000164162
0.00119191
-0.000184097
0.00118964
-0.000204623
0.00118665
-0.000225731
0.00118292
-0.000247407
0.00117846
-0.000269635
0.00117325
-0.000292393
0.0011673
-0.000315656
0.00116061
-0.000339393
0.00115318
-0.000363567
0.00114503
-0.000388119
0.00113613
-0.000412968
0.00112646
-0.00043799
0.00111592
-0.000463013
0.00110441
-0.000487798
0.0010918
-0.000512071
0.00107819
-0.000535682
0.00106421
-0.000558911
0.00105135
-0.000582803
0.00104184
-0.000609129
0.00103729
-0.000639301
0.00103623
-0.000672039
0.00103258
-0.000701643
0.00101611
-0.000718015
0.000974867
-0.00070806
0.000901403
-0.000660116
0.00080048
-0.00057186
0.000683821
-0.000449807
-0.000298014
0.000561908
0.000835528
0.000204191
-0.000820499
0.000850414
0.000201691
0.000865145
0.000198987
0.00087971
0.000196071
0.000894096
0.000192932
0.00090829
0.000189561
0.000922281
0.000185949
0.000936055
0.000182085
0.0009496
0.000177959
0.000962901
0.00017356
0.000975946
0.000168878
0.000988722
0.000163901
0.00100121
0.000158618
0.00101341
0.000153018
0.00102529
0.000147088
0.00103686
0.000140816
0.00104808
0.00013419
0.00105895
0.000127198
0.00106946
0.000119826
0.00107959
0.000112061
0.00108933
0.000103892
0.00109867
9.53044e-05
0.00110759
8.62856e-05
0.00111608
7.68228e-05
0.00112413
6.69033e-05
0.00113173
5.65145e-05
0.00113886
4.56444e-05
0.0011455
3.42811e-05
0.00115165
2.24136e-05
0.0011573
1.0034e-05
0.00116243
-2.87968e-06
0.00116704
-1.63483e-05
0.0011711
-3.0374e-05
0.00117461
-4.49646e-05
0.00117754
-6.01277e-05
0.0011799
-7.58701e-05
0.00118166
-9.21969e-05
0.00118281
-0.000109112
0.00118333
-0.000126618
0.00118322
-0.000144716
0.00118247
-0.000163404
0.00118105
-0.000182678
0.00117896
-0.000202534
0.00117619
-0.000222963
0.00117274
-0.000243956
0.00116861
-0.0002655
0.00116379
-0.00028758
0.00115831
-0.000310176
0.00115218
-0.000333256
0.00114538
-0.000356775
0.00113792
-0.000380653
0.00112974
-0.000404787
0.00112077
-0.000429027
0.00111096
-0.000453196
0.00110027
-0.000477109
0.00108894
-0.000500743
0.00107776
-0.000524499
0.00106832
-0.000549471
0.00106273
-0.000577213
0.00106226
-0.000608658
0.00106509
-0.000642136
0.00106513
-0.000672077
0.00105273
-0.000689251
0.00101699
-0.000682275
0.000951063
-0.000642128
0.000858004
-0.000567056
0.000748642
-0.000462498
0.000632352
-0.000333517
-0.000179789
0.000514127
0.000827677
0.000189227
-0.000812713
0.000842496
0.000186871
0.000857158
0.000184325
0.000871651
0.000181578
0.000885962
0.000178621
0.00090008
0.000175443
0.000913992
0.000172037
0.000927684
0.000168393
0.000941145
0.000164498
0.00095436
0.000160345
0.000967317
0.000155921
0.000980003
0.000151215
0.000992403
0.000146218
0.0010045
0.000140916
0.00101629
0.000135299
0.00102776
0.000129353
0.00103888
0.000123066
0.00104965
0.000116426
0.00106006
0.00010942
0.00107008
0.000102035
0.00107972
9.42572e-05
0.00108895
8.6074e-05
0.00109776
7.74722e-05
0.00110615
6.84386e-05
0.00111409
5.89603e-05
0.00112158
4.90248e-05
0.00112861
3.86197e-05
0.00113515
2.77328e-05
0.00114121
1.63539e-05
0.00114677
4.47286e-06
0.00115183
-7.93879e-06
0.00115637
-2.08889e-05
0.00116038
-3.43839e-05
0.00116385
-4.8432e-05
0.00116676
-6.30412e-05
0.00116911
-7.82179e-05
0.00117088
-9.39678e-05
0.00117207
-0.000110295
0.00117265
-0.000127202
0.00117262
-0.000144689
0.00117198
-0.000162758
0.0011707
-0.000181405
0.0011688
-0.000200627
0.00116625
-0.000220422
0.00116308
-0.000240783
0.00115928
-0.000261703
0.00115487
-0.000283169
0.00114985
-0.000305155
0.00114421
-0.000327616
0.00113793
-0.00035049
0.00113095
-0.000373679
0.00112325
-0.000397085
0.00111481
-0.000420587
0.00110573
-0.000444112
0.00109639
-0.000467776
0.00108778
-0.00049213
0.00108153
-0.000518252
0.00107956
-0.000547495
0.00108255
-0.000580208
0.00108815
-0.000614254
0.00109
-0.000643992
0.00107877
-0.000660838
0.00104449
-0.00065497
0.000981463
-0.000619252
0.000892795
-0.000553461
0.000788569
-0.00046283
0.000678807
-0.000352736
0.000569857
-0.000224567
-7.84903e-05
0.000468558
0.000820769
0.000174322
-0.000805864
0.000835526
0.000172115
0.000850122
0.000169729
0.000864545
0.000167155
0.000878784
0.000164382
0.000892826
0.000161402
0.000906658
0.000158205
0.000920267
0.000154783
0.000933641
0.000151124
0.000946766
0.000147219
0.00095963
0.000143057
0.000972218
0.000138627
0.000984518
0.000133918
0.000996515
0.000128919
0.0010082
0.000123616
0.00101955
0.000118
0.00103056
0.000112055
0.00104122
0.000105771
0.0010515
9.91328e-05
0.00106141
9.21286e-05
0.00107092
8.47445e-05
0.00108003
7.6967e-05
0.00108872
6.87828e-05
0.00109698
6.01784e-05
0.0011048
5.11406e-05
0.00111217
4.16564e-05
0.00111907
3.17132e-05
0.00112551
2.12986e-05
0.00113146
1.04034e-05
0.00113692
-9.90669e-07
0.00114189
-1.29067e-05
0.00114635
-2.53489e-05
0.00115029
-3.83262e-05
0.00115371
-5.1847e-05
0.00115659
-6.59191e-05
0.00115892
-8.05493e-05
0.00116069
-9.57429e-05
0.0011619
-0.000111504
0.00116254
-0.000127836
0.00116259
-0.000144741
0.00116205
-0.000162219
0.00116092
-0.000180273
0.00115919
-0.000198902
0.00115688
-0.000218107
0.00115398
-0.000237884
0.0011505
-0.000258223
0.00114643
-0.000279097
0.00114174
-0.000300469
0.0011364
-0.000322279
0.00113039
-0.000344472
0.00112369
-0.000366983
0.00111638
-0.000389775
0.00110869
-0.000412894
0.00110119
-0.000436614
0.00109501
-0.000461599
0.0010918
-0.000488918
0.00109304
-0.000519488
0.00109865
-0.000553111
0.00110553
-0.000587083
0.00110698
-0.000615705
0.00109382
-0.000630835
0.00105712
-0.000624134
0.000992683
-0.000590534
0.000904703
-0.000531273
0.000802999
-0.000451757
0.000697149
-0.000356979
0.000593288
-0.000248875
0.000494659
-0.000125939
1.2265e-05
0.000403904
0.000814867
0.000159469
-0.000800014
0.000829568
0.000157414
0.000844104
0.000155193
0.000858464
0.000152795
0.000872635
0.000150211
0.000886604
0.000147432
0.00090036
0.00014445
0.000913888
0.000141255
0.000927177
0.000137836
0.000940212
0.000134184
0.00095298
0.000130289
0.000965468
0.000126139
0.000977663
0.000121723
0.000989551
0.000117031
0.00100112
0.000112049
0.00101235
0.000106765
0.00102324
0.000101168
0.00103377
9.52425e-05
0.00104392