/*--------------------------------*- C++ -*----------------------------------*\
| =========                 |                                                 |
| \\      /  F ield         | OpenFOAM: The Open Source CFD Toolbox           |
|  \\    /   O peration     | Version:  2312                                  |
|   \\  /    A nd           | Website:  www.openfoam.com                      |
|    \\/     M anipulation  |                                                 |
\*---------------------------------------------------------------------------*/
FoamFile
{
    version     2.0;
    format      ascii;
    arch        "LSB;label=32;scalar=64";
    class       volVectorField;
    location    "600";
    object      U;
}
// * * * * * * * * * * * * * * * * * * * * * * * * * * * * * * * * * * * * * //

dimensions      [0 1 -1 0 0 0 0];

internalField   nonuniform List<vector> 
76025
(
(0.0358295 -0.0051876 0)
(0.0359795 -0.00527901 1.228e-21)
(0.0361356 -0.00536716 0)
(0.036295 -0.00545259 0)
(0.0364517 -0.0055346 -2.29363e-21)
(0.0366144 -0.00561329 -4.41899e-21)
(0.0367739 -0.0056891 7.64313e-21)
(0.0369388 -0.00575933 -3.2379e-21)
(0.0371025 -0.00582773 -1.04101e-21)
(0.0372702 -0.00589169 1.01568e-21)
(0.0374365 -0.00595227 4.24283e-25)
(0.0376046 -0.00600793 2.85615e-21)
(0.0377747 -0.00606212 -3.81665e-21)
(0.0379465 -0.00610944 0)
(0.0381239 -0.00615335 8.93239e-22)
(0.0382983 -0.00619684 0)
(0.0384769 -0.00623134 0)
(0.0386554 -0.00626803 0)
(0.0388342 -0.00629696 8.12224e-22)
(0.0390117 -0.00632761 -7.85033e-22)
(0.0391922 -0.00634881 -7.61293e-22)
(0.0393772 -0.00636783 -2.2211e-21)
(0.0395613 -0.00638042 1.47118e-21)
(0.0397468 -0.00638994 2.08813e-21)
(0.0399318 -0.00639839 -4.02079e-23)
(0.0401162 -0.0064048 6.20901e-22)
(0.0403041 -0.00640006 -1.92401e-21)
(0.040487 -0.0063956 1.91638e-21)
(0.0406717 -0.00638601 -6.19886e-22)
(0.0408566 -0.00636717 5.99681e-22)
(0.0410343 -0.00635748 5.77326e-22)
(0.0412055 -0.00634856 -1.09037e-21)
(0.0413747 -0.00632443 1.6157e-21)
(0.0415413 -0.00630414 2.52257e-22)
(0.0417064 -0.00627438 -1.24186e-21)
(0.0418674 -0.00625144 7.12507e-24)
(0.0420273 -0.00622834 2.31038e-22)
(0.0421798 -0.00619906 -1.0285e-22)
(0.0423241 -0.00617149 5.28634e-24)
(0.0424626 -0.00613933 1.44057e-22)
(0.0425961 -0.00610968 -9.32488e-23)
(0.042726 -0.0060848 4.57459e-23)
(0.0428429 -0.00605545 -8.85152e-23)
(0.0429521 -0.00602833 1.74276e-22)
(0.043057 -0.00599968 1.63709e-22)
(0.0431583 -0.00598037 -3.39029e-22)
(0.043247 -0.00596241 -3.14665e-22)
(0.0433256 -0.00594472 9.33744e-22)
(0.0433995 -0.00593221 -6.5133e-22)
(0.0434677 -0.00592901 -2.64096e-23)
(0.0435273 -0.0059328 1.58886e-21)
(0.0435758 -0.0059465 6.65253e-22)
(0.0436083 -0.00597121 -6.35539e-22)
(0.0436238 -0.00600621 0)
(0.0436226 -0.0060467 7.34734e-22)
(0.0436102 -0.00610218 7.26339e-22)
(0.043577 -0.00617623 -2.76901e-24)
(0.043525 -0.00627135 8.13027e-22)
(0.0434544 -0.00640169 -9.32274e-22)
(0.0433502 -0.00657064 2.90331e-21)
(0.0432031 -0.00676212 2.08668e-21)
(0.0430349 -0.00699875 -6.61379e-23)
(0.0428365 -0.00728578 0)
(0.0426053 -0.0076381 -7.45053e-21)
(0.0423076 -0.00805574 3.35531e-21)
(0.0419506 -0.00851577 -1.75883e-21)
(0.0414842 -0.00912223 4.10695e-21)
(0.0409634 -0.00993796 -4.53864e-21)
(0.0407292 -0.0109182 -9.94064e-21)
(0.0356817 -0.00547055 1.31074e-21)
(0.0358404 -0.00556511 3.83274e-21)
(0.0360022 -0.00565625 -5.08737e-21)
(0.0361675 -0.00574293 0)
(0.0363343 -0.0058271 5.9736e-21)
(0.0365055 -0.00590672 -8.88937e-23)
(0.0366775 -0.00598298 -4.63175e-21)
(0.0368504 -0.00605533 0)
(0.0370249 -0.0061235 -2.97274e-24)
(0.0372007 -0.00618783 -1.06216e-21)
(0.0373783 -0.00624801 1.03541e-21)
(0.0375566 -0.00630398 5.2733e-25)
(0.0377349 -0.00635633 0)
(0.037914 -0.00640454 0)
(0.0380948 -0.0064472 1.81922e-21)
(0.0382762 -0.00648755 -4.58004e-21)
(0.0384599 -0.0065219 -8.79045e-22)
(0.0386436 -0.00655393 2.5483e-21)
(0.0388286 -0.00657994 -1.69125e-21)
(0.0390127 -0.006604 8.14746e-22)
(0.0391982 -0.00662291 -7.59874e-22)
(0.0393833 -0.00663789 1.5522e-21)
(0.0395681 -0.00664853 -1.46336e-21)
(0.0397532 -0.00665496 2.15897e-21)
(0.0399385 -0.00665741 -1.42257e-21)
(0.0401236 -0.00665705 -2.02446e-21)
(0.0403083 -0.00665138 1.34028e-21)
(0.0404913 -0.00664283 0)
(0.0406735 -0.00663105 0)
(0.0408536 -0.00661549 5.91326e-22)
(0.0410306 -0.00659728 0)
(0.0412059 -0.00657596 5.53952e-22)
(0.0413772 -0.00654977 -5.39338e-22)
(0.0415452 -0.00652026 8.00223e-22)
(0.0417106 -0.00648865 1.13394e-23)
(0.0418732 -0.00645597 2.43511e-22)
(0.0420323 -0.00642213 0)
(0.0421845 -0.00638806 4.21814e-22)
(0.0423304 -0.0063522 -3.00595e-22)
(0.0424715 -0.00631462 2.42813e-22)
(0.042608 -0.00627719 -1.37717e-22)
(0.042739 -0.00624156 4.74685e-24)
(0.0428613 -0.00620781 -4.44041e-23)
(0.0429764 -0.00617316 4.13047e-23)
(0.0430862 -0.00613941 -3.13076e-22)
(0.0431904 -0.00610846 1.52104e-22)
(0.0432865 -0.00608115 1.41384e-22)
(0.0433733 -0.00605544 -3.16021e-22)
(0.0434525 -0.0060327 -9.13956e-22)
(0.0435235 -0.00601539 -1.19753e-23)
(0.0435837 -0.00600455 -9.33264e-22)
(0.0436307 -0.00600193 3.19088e-22)
(0.0436615 -0.00600802 1.00535e-21)
(0.0436742 -0.00602214 -6.54016e-22)
(0.0436683 -0.0060453 0)
(0.0436439 -0.00608156 -2.22593e-21)
(0.0435982 -0.00613437 -5.20033e-23)
(0.0435289 -0.0062075 8.05598e-22)
(0.0434335 -0.00630709 8.70839e-22)
(0.0433064 -0.00643877 0)
(0.0431447 -0.00660428 -1.03764e-21)
(0.04295 -0.00680976 -3.4908e-21)
(0.042714 -0.00705779 0)
(0.0424271 -0.00736019 3.00622e-21)
(0.0420662 -0.00772386 -1.7023e-21)
(0.041607 -0.00814887 3.79141e-21)
(0.0410329 -0.00868178 -2.01008e-21)
(0.0405989 -0.00944324 4.64677e-21)
(0.0406633 -0.0104105 5.03993e-21)
(0.0355212 -0.00576688 -6.75122e-21)
(0.0356912 -0.00586452 4.06795e-21)
(0.035863 -0.0059586 -1.3142e-21)
(0.0360365 -0.00604779 5.06348e-21)
(0.0362123 -0.00613295 -6.28251e-21)
(0.0363908 -0.00621408 -4.8139e-21)
(0.0365719 -0.00629101 5.97465e-21)
(0.0367551 -0.00636365 0)
(0.03694 -0.00643195 -1.52486e-24)
(0.0371261 -0.00649592 0)
(0.0373134 -0.00655552 -1.06377e-21)
(0.0375016 -0.00661069 1.03633e-21)
(0.0376906 -0.00666132 4.98227e-21)
(0.0378798 -0.00670763 -3.96403e-21)
(0.0380694 -0.00674926 9.5333e-22)
(0.0382596 -0.00678637 2.7488e-21)
(0.0384502 -0.00681899 -9.18053e-22)
(0.0386413 -0.00684702 -8.74758e-22)
(0.0388327 -0.00687055 -2.503e-21)
(0.0390243 -0.00688941 1.66268e-21)
(0.0392155 -0.00690403 7.86685e-22)
(0.039406 -0.00691435 -1.51465e-21)
(0.0395959 -0.00692029 7.77919e-22)
(0.0397853 -0.00692177 7.13351e-22)
(0.0399742 -0.006919 0)
(0.0401621 -0.00691213 -6.67003e-22)
(0.0403485 -0.00690142 -6.4308e-22)
(0.0405336 -0.00688657 6.67611e-22)
(0.0407173 -0.00686787 0)
(0.0408989 -0.00684577 -1.18498e-21)
(0.0410784 -0.00681957 5.61366e-22)
(0.0412552 -0.00678975 -2.39892e-23)
(0.0414287 -0.00675647 0)
(0.041599 -0.00671938 -2.64263e-22)
(0.0417661 -0.00668091 7.29026e-22)
(0.0419295 -0.00664075 -4.68956e-22)
(0.0420884 -0.00659965 0)
(0.0422422 -0.00655773 -3.07546e-22)
(0.0423908 -0.00651385 2.91163e-22)
(0.0425346 -0.00646875 4.75468e-23)
(0.0426734 -0.00642301 0)
(0.0428063 -0.0063777 8.27781e-23)
(0.0429322 -0.0063335 3.9343e-23)
(0.0430512 -0.00628934 -4.16543e-23)
(0.0431638 -0.00624584 2.31705e-22)
(0.0432697 -0.00620406 1.39788e-22)
(0.0433673 -0.00616468 -3.00981e-22)
(0.0434558 -0.00612699 2.86172e-22)
(0.0435347 -0.00609172 -2.72758e-22)
(0.0436029 -0.00606042 2.83767e-22)
(0.0436586 -0.00603426 3.01175e-22)
(0.0436995 -0.00601419 -5.6009e-22)
(0.0437233 -0.00600079 0)
(0.0437281 -0.00599471 -6.01747e-22)
(0.0437126 -0.0059972 5.01892e-23)
(0.0436756 -0.006011 7.17561e-22)
(0.0436149 -0.00603971 7.76418e-22)
(0.0435278 -0.00608671 -1.61016e-21)
(0.0434112 -0.00615701 -5.81948e-23)
(0.0432606 -0.00625548 -9.12985e-22)
(0.0430726 -0.00638529 2.00798e-21)
(0.0428438 -0.00655149 1.03431e-21)
(0.042565 -0.00675901 -1.33995e-22)
(0.0422213 -0.00701326 1.41679e-21)
(0.0417828 -0.00731992 1.63848e-21)
(0.0412327 -0.0076841 5.56668e-21)
(0.0406121 -0.00817883 0)
(0.0402856 -0.00894948 2.45872e-21)
(0.0404508 -0.00994287 -2.38284e-21)
(0.0353428 -0.0060778 0)
(0.0355272 -0.00617781 1.39127e-21)
(0.035713 -0.00627422 6.74618e-21)
(0.0358992 -0.00636558 -5.34941e-21)
(0.0360865 -0.00645225 -3.82023e-21)
(0.0362754 -0.00653455 6.33242e-21)
(0.0364664 -0.00661223 -1.22012e-21)
(0.0366593 -0.00668512 1.18951e-21)
(0.036854 -0.00675321 1.15567e-21)
(0.0370501 -0.00681652 4.44177e-21)
(0.0372474 -0.00687508 -4.41904e-21)
(0.0374457 -0.00692884 -4.18858e-21)
(0.037645 -0.00697771 1.10796e-21)
(0.0378449 -0.0070217 3.99571e-21)
(0.038045 -0.00706082 -2.92902e-21)
(0.0382452 -0.00709504 9.34226e-22)
(0.0384452 -0.00712446 -9.04469e-22)
(0.038645 -0.007149 -8.75257e-22)
(0.0388445 -0.00716876 2.53983e-21)
(0.0390436 -0.00718368 -8.59839e-22)
(0.0392421 -0.00719386 -8.06125e-22)
(0.0394398 -0.00719927 0)
(0.0396366 -0.00719996 -1.45094e-21)
(0.0398322 -0.00719603 7.38585e-22)
(0.0400266 -0.00718764 1.36952e-21)
(0.0402195 -0.00717488 1.29581e-21)
(0.0404107 -0.00715782 -2.6227e-21)
(0.0406 -0.00713648 1.253e-21)
(0.0407872 -0.00711107 0)
(0.0409721 -0.00708175 1.16585e-21)
(0.0411543 -0.00704858 -2.31582e-23)
(0.0413336 -0.00701178 -1.10962e-21)
(0.0415097 -0.00697117 5.13632e-22)
(0.0416824 -0.0069275 -1.24395e-21)
(0.0418515 -0.00688213 2.52741e-22)
(0.0420166 -0.00683486 0)
(0.0421775 -0.00678588 0)
(0.0423337 -0.0067352 -9.4573e-23)
(0.0424851 -0.00668284 -9.61531e-23)
(0.0426312 -0.00662919 -4.18872e-23)
(0.042772 -0.00657472 1.23462e-24)
(0.0429069 -0.00651984 -4.09176e-23)
(0.0430354 -0.00646501 0)
(0.0431566 -0.00641085 -7.18897e-24)
(0.0432704 -0.00635739 0)
(0.0433766 -0.00630464 -1.48994e-22)
(0.0434739 -0.00625291 9.23766e-25)
(0.0435614 -0.0062023 3.77571e-22)
(0.043638 -0.00615339 0)
(0.0437024 -0.0061071 2.64296e-22)
(0.043753 -0.00606426 -2.6259e-22)
(0.0437878 -0.00602573 5.71034e-22)
(0.043805 -0.00599229 0)
(0.0438026 -0.00596491 1.76869e-21)
(0.0437789 -0.00594495 4.66789e-23)
(0.043732 -0.00593458 -6.26984e-22)
(0.0436594 -0.00593655 -6.79663e-22)
(0.043558 -0.00595402 0)
(0.043424 -0.005991 0)
(0.0432528 -0.00605218 9.36197e-22)
(0.0430408 -0.00614221 -2.06115e-21)
(0.0427814 -0.00626446 -2.31831e-21)
(0.0424613 -0.00642135 0)
(0.0420573 -0.0066155 2.86008e-21)
(0.04154 -0.00685485 0)
(0.0409188 -0.00715755 -5.86075e-21)
(0.0403113 -0.00762507 1.98363e-21)
(0.0401368 -0.00839591 2.42713e-21)
(0.0403456 -0.00931953 2.61958e-21)
(0.0351531 -0.00640701 0)
(0.0353489 -0.00650872 0)
(0.0355479 -0.00660679 1.41704e-21)
(0.0357479 -0.00669965 -5.43921e-21)
(0.035949 -0.00678757 6.73805e-21)
(0.0361513 -0.00687083 -1.29581e-21)
(0.0363548 -0.00694919 0)
(0.0365594 -0.00702241 -1.22383e-21)
(0.0367651 -0.00709037 0)
(0.0369719 -0.00715308 -2.27883e-21)
(0.0371798 -0.00721055 6.12779e-23)
(0.0373886 -0.00726277 2.19985e-21)
(0.0375981 -0.00730974 0)
(0.0378082 -0.00735144 -2.00887e-21)
(0.0380185 -0.00738788 5.91809e-21)
(0.0382289 -0.00741908 -3.82862e-21)
(0.0384389 -0.00744506 4.62107e-21)
(0.0386485 -0.00746585 -9.14946e-22)
(0.0388574 -0.00748148 8.54204e-22)
(0.0390654 -0.00749199 -8.39619e-22)
(0.0392724 -0.00749742 -7.84489e-22)
(0.0394782 -0.00749779 2.3428e-21)
(0.0396827 -0.0074932 1.49287e-21)
(0.0398856 -0.00748373 0)
(0.0400868 -0.0074695 -1.36044e-21)
(0.0402861 -0.00745061 -6.25693e-22)
(0.0404832 -0.00742717 1.96534e-21)
(0.040678 -0.0073993 -6.30051e-22)
(0.0408703 -0.00736714 1.16433e-21)
(0.0410597 -0.00733081 -1.75226e-21)
(0.0412462 -0.00729043 5.34241e-22)
(0.0414295 -0.00724613 -2.56182e-22)
(0.0416094 -0.00719777 0)
(0.0417855 -0.00714661 2.47722e-22)
(0.0419577 -0.00709334 2.32878e-22)
(0.0421257 -0.00703774 0)
(0.0422893 -0.00697998 -1.89804e-22)
(0.0424482 -0.00692027 2.78696e-22)
(0.0426019 -0.00685881 -1.78244e-22)
(0.0427503 -0.00679588 8.17443e-23)
(0.0428928 -0.00673176 1.01453e-24)
(0.0430292 -0.00666675 5.21528e-23)
(0.0431589 -0.00660113 -1.74653e-23)
(0.0432812 -0.00653547 -6.89879e-23)
(0.0433954 -0.00647042 7.26538e-24)
(0.0435008 -0.00640533 -3.65483e-22)
(0.0435968 -0.00634029 0)
(0.0436822 -0.00627566 -2.505e-22)
(0.043756 -0.00621181 -1.8868e-23)
(0.0438168 -0.00614935 2.33127e-22)
(0.0438632 -0.00608891 0)
(0.0438935 -0.00603124 2.48618e-22)
(0.0439059 -0.00597704 -2.47505e-22)
(0.0438984 -0.00592723 -5.63507e-22)
(0.0438689 -0.00588295 0)
(0.043815 -0.00584589 1.26168e-21)
(0.0437335 -0.00581826 -1.30219e-21)
(0.0436209 -0.0058028 1.41671e-21)
(0.0434726 -0.00580294 -9.46554e-24)
(0.0432837 -0.00582311 0)
(0.0430505 -0.00586792 1.0042e-21)
(0.0427617 -0.00593888 -1.14067e-21)
(0.0423974 -0.00603589 -1.20912e-21)
(0.0419286 -0.00616058 -2.95021e-21)
(0.0413388 -0.00632728 4.88919e-21)
(0.0406845 -0.00657368 -3.68954e-21)
(0.0401584 -0.00702646 1.91211e-21)
(0.0401409 -0.00778367 -1.98736e-21)
(0.0402611 -0.00856185 -7.61675e-21)
(0.0349646 -0.00675801 -6.04784e-21)
(0.0351675 -0.0068611 1.20825e-22)
(0.0353755 -0.00696028 5.9208e-21)
(0.0355862 -0.007054 0)
(0.0357994 -0.00714252 -1.37876e-21)
(0.0360148 -0.00722617 0)
(0.0362318 -0.00730469 2.57134e-21)
(0.0364498 -0.00737779 -6.2685e-23)
(0.0366685 -0.00744531 -3.69874e-21)
(0.0368879 -0.00750721 1.18273e-21)
(0.0371079 -0.00756346 1.14876e-21)
(0.0373283 -0.00761403 1.10648e-21)
(0.0375491 -0.00765891 0)
(0.03777 -0.0076981 0)
(0.037991 -0.00773161 -1.00765e-21)
(0.0382118 -0.00775945 -9.73878e-22)
(0.0384322 -0.00778165 1.8379e-21)
(0.0386519 -0.00779827 -1.83323e-21)
(0.0388707 -0.00780934 -1.73557e-21)
(0.0390884 -0.00781492 1.64265e-21)
(0.0393048 -0.00781509 -3.24026e-21)
(0.0395195 -0.00780991 3.87957e-23)
(0.0397325 -0.00779947 1.49645e-21)
(0.0399436 -0.00778387 7.0267e-22)
(0.0401525 -0.00776322 1.34491e-21)
(0.040359 -0.00773763 -1.34621e-21)
(0.040563 -0.00770723 -1.23616e-21)
(0.0407642 -0.00767214 1.23851e-21)
(0.0409624 -0.00763249 0)
(0.0411575 -0.00758842 0)
(0.0413492 -0.00754006 -1.32274e-21)
(0.0415373 -0.00748754 4.10419e-23)
(0.0417216 -0.00743074 4.98436e-22)
(0.0419017 -0.00737135 4.45207e-22)
(0.0420775 -0.00730949 -4.36661e-22)
(0.0422488 -0.00724507 0)
(0.0424152 -0.00717828 1.93408e-22)
(0.0425766 -0.00710934 2.50062e-22)
(0.0427326 -0.00703843 -1.65014e-22)
(0.0428829 -0.00696577 -4.41658e-24)
(0.043027 -0.00689156 1.07663e-23)
(0.0431645 -0.00681603 -5.18101e-23)
(0.043295 -0.00673935 -2.85639e-23)
(0.0434178 -0.00666182 -5.72883e-23)
(0.043532 -0.00658427 2.84069e-22)
(0.0436366 -0.00650624 7.10509e-24)
(0.0437314 -0.00642748 0)
(0.0438154 -0.0063483 1.8443e-22)
(0.0438875 -0.00626893 -6.04999e-22)
(0.0439464 -0.00618978 3.84197e-22)
(0.0439908 -0.00611128 2.08727e-22)
(0.0440192 -0.00603392 -1.76037e-23)
(0.0440296 -0.00595822 2.53676e-22)
(0.04402 -0.00588483 2.87423e-23)
(0.0439877 -0.00581458 -4.77803e-22)
(0.0439299 -0.00574872 4.85907e-22)
(0.0438427 -0.00568892 6.08129e-22)
(0.0437221 -0.00563742 -1.27697e-21)
(0.043563 -0.00559714 -7.79469e-23)
(0.0433605 -0.00557217 -8.29503e-22)
(0.0431086 -0.00556653 8.35828e-22)
(0.0427901 -0.00557756 -1.06874e-21)
(0.0423779 -0.00560451 2.46751e-21)
(0.0418451 -0.00565153 1.451e-21)
(0.041206 -0.00574511 -3.02939e-21)
(0.0405785 -0.00594519 1.68935e-21)
(0.0401877 -0.00638438 5.77536e-21)
(0.0403091 -0.00708373 2.45978e-21)
(0.0401366 -0.00765146 0)
(0.0347832 -0.0071327 0)
(0.034993 -0.00723705 -1.5606e-21)
(0.035208 -0.00733707 8.8034e-24)
(0.0354266 -0.00743118 0)
(0.0356487 -0.00751973 0)
(0.0358744 -0.00760307 -1.3841e-21)
(0.0361027 -0.007681 3.98646e-21)
(0.036333 -0.00775321 -5.19052e-21)
(0.0365646 -0.00781955 2.54795e-21)
(0.036797 -0.00787995 -1.21607e-21)
(0.03703 -0.00793438 0)
(0.0372632 -0.00798276 -1.13695e-21)
(0.0374965 -0.00802508 1.08875e-21)
(0.0377296 -0.00806129 0)
(0.0379623 -0.0080914 0)
(0.0381945 -0.00811543 -9.54406e-22)
(0.038426 -0.00813341 6.68465e-23)
(0.0386564 -0.00814539 1.84811e-21)
(0.0388856 -0.00815144 1.73084e-21)
(0.0391134 -0.00815163 -1.70813e-21)
(0.0393395 -0.00814604 -8.14221e-22)
(0.0395636 -0.00813477 -3.04995e-21)
(0.0397856 -0.00811793 3.34602e-23)
(0.0400053 -0.00809563 6.63791e-22)
(0.0402224 -0.008068 -1.38353e-21)
(0.0404366 -0.00803516 6.32022e-22)
(0.0406479 -0.00799725 -1.26441e-21)
(0.040856 -0.00795441 0)
(0.0410607 -0.00790679 0)
(0.0412617 -0.00785453 0)
(0.041459 -0.0077978 2.62985e-22)
(0.0416521 -0.00773668 4.89983e-22)
(0.0418411 -0.00767122 -4.72997e-22)
(0.0420254 -0.00760326 -4.15827e-22)
(0.042205 -0.00753249 4.07936e-22)
(0.0423797 -0.00745893 0)
(0.0425492 -0.00738276 -1.65026e-22)
(0.0427133 -0.00730416 7.86759e-23)
(0.0428717 -0.00722331 0)
(0.0430239 -0.00714039 -6.6968e-23)
(0.0431696 -0.00705555 1.1763e-23)
(0.0433085 -0.00696896 -7.4213e-24)
(0.0434399 -0.00688075 2.91839e-23)
(0.0435634 -0.006791 0)
(0.0436781 -0.00670023 9.24126e-23)
(0.0437832 -0.00660884 -9.11192e-23)
(0.0438781 -0.00651608 0)
(0.0439622 -0.00642201 -2.00022e-23)
(0.0440346 -0.0063268 1.89581e-23)
(0.0440941 -0.00623063 -1.86044e-22)
(0.0441394 -0.00613365 0)
(0.0441688 -0.00603607 -4.42412e-23)
(0.0441804 -0.00593807 2.02429e-22)
(0.0441716 -0.00583996 5.66459e-22)
(0.0441394 -0.00574217 -3.62025e-23)
(0.0440806 -0.00564549 -4.96582e-22)
(0.043991 -0.00555107 0)
(0.043866 -0.00546063 0)
(0.0437005 -0.00537657 -5.55084e-22)
(0.0434889 -0.00530205 0)
(0.0432195 -0.00523888 0)
(0.0428693 -0.00518126 -1.37482e-22)
(0.0424076 -0.00512888 1.01864e-21)
(0.0418241 -0.00509429 2.51541e-21)
(0.0411842 -0.00512057 -2.6798e-21)
(0.0406527 -0.00528655 -3.32778e-22)
(0.0404398 -0.00569014 -1.82972e-21)
(0.0406222 -0.00627271 -1.98761e-21)
(0.0399023 -0.00652272 0)
(0.034604 -0.00753254 0)
(0.0348242 -0.00763822 1.60422e-21)
(0.0350487 -0.00773903 -4.64564e-21)
(0.035276 -0.00783339 1.54785e-21)
(0.0355066 -0.00792166 0)
(0.035741 -0.00800427 4.22943e-21)
(0.0359787 -0.00808102 -6.88334e-21)
(0.036219 -0.00815166 7.38313e-23)
(0.0364614 -0.00821604 6.43413e-21)
(0.0367053 -0.00827413 -1.28264e-21)
(0.0369502 -0.00832589 1.19391e-21)
(0.0371958 -0.00837127 1.14978e-21)
(0.0374416 -0.00841024 -3.30698e-21)
(0.0376871 -0.00844274 4.28406e-21)
(0.0379322 -0.00846878 -2.0963e-21)
(0.0381764 -0.00848837 9.4557e-22)
(0.0384195 -0.00850153 -3.8001e-21)
(0.0386613 -0.00850832 9.5807e-22)
(0.0389015 -0.0085088 -8.2769e-22)
(0.0391399 -0.00850306 8.93372e-22)
(0.0393761 -0.0084912 6.9326e-23)
(0.0396101 -0.00847333 4.58285e-21)
(0.0398415 -0.00844955 6.74977e-22)
(0.0400701 -0.00842002 -6.65385e-23)
(0.0402956 -0.00838487 -2.00356e-21)
(0.040518 -0.00834425 6.45483e-22)
(0.0407369 -0.00829831 -1.16664e-21)
(0.0409521 -0.0082472 1.71807e-21)
(0.0411634 -0.0081911 0)
(0.0413707 -0.00813015 4.95995e-22)
(0.0415737 -0.00806454 -4.97417e-22)
(0.0417722 -0.00799427 2.02281e-23)
(0.0419661 -0.00791978 2.03229e-22)
(0.0421549 -0.00784262 1.86221e-22)
(0.0423385 -0.00776237 -5.21078e-22)
(0.0425169 -0.00767911 3.44261e-22)
(0.0426897 -0.00759301 -2.17835e-22)
(0.0428567 -0.00750425 2.79085e-22)
(0.0430176 -0.007413 -1.32055e-22)
(0.0431721 -0.00731939 3.16432e-23)
(0.0433199 -0.00722355 0)
(0.0434605 -0.0071256 -2.35461e-23)
(0.0435936 -0.00702561 2.30661e-23)
(0.0437186 -0.00692361 3.98013e-23)
(0.0438352 -0.00681965 -1.12629e-22)
(0.0439423 -0.00671449 6.24212e-23)
(0.0440394 -0.00660778 6.82321e-23)
(0.044126 -0.00649883 0)
(0.0442012 -0.0063877 2.26316e-22)
(0.044264 -0.00627435 -2.4979e-22)
(0.044313 -0.0061586 1.52218e-22)
(0.0443463 -0.00604029 -1.47137e-22)
(0.0443616 -0.00591924 -1.00747e-22)
(0.0443563 -0.00579535 -3.11716e-22)
(0.0443271 -0.00566866 -3.69635e-22)
(0.0442704 -0.00553946 0)
(0.0441821 -0.00540839 3.31314e-22)
(0.0440574 -0.00527653 0)
(0.0438906 -0.00514549 2.42777e-23)
(0.043673 -0.00501707 6.65558e-22)
(0.0433863 -0.00488791 -6.41779e-22)
(0.0430019 -0.00475273 -8.84717e-22)
(0.042497 -0.00461506 8.60365e-22)
(0.0418993 -0.00450172 1.10991e-24)
(0.0413321 -0.00447032 1.71928e-22)
(0.040964 -0.00459799 -4.39153e-21)
(0.0409539 -0.0049302 -1.56076e-21)
(0.0410058 -0.00531122 -2.19239e-21)
(0.0394292 -0.00512209 2.22579e-21)
(0.0344199 -0.00795913 0)
(0.0346541 -0.00806622 0)
(0.0348917 -0.00816791 -3.18891e-21)
(0.0351311 -0.00826255 4.72355e-21)
(0.035373 -0.0083505 1.51295e-21)
(0.0356178 -0.00843223 0)
(0.0358656 -0.00850755 0)
(0.0361158 -0.00857621 -1.36095e-21)
(0.0363681 -0.00863812 2.59044e-21)
(0.0366222 -0.00869325 -8.79697e-23)
(0.0368778 -0.0087416 -6.10845e-21)
(0.0371343 -0.00878317 1.20895e-21)
(0.0373913 -0.00881792 -1.09713e-21)
(0.0376484 -0.00884584 2.20762e-21)
(0.0379051 -0.00886692 -1.02998e-21)
(0.0381609 -0.00888119 0)
(0.0384156 -0.00888868 0)
(0.0386688 -0.00888945 3.64242e-23)
(0.0389201 -0.00888357 2.63825e-21)
(0.0391693 -0.00887113 -8.43722e-22)
(0.039416 -0.00885224 7.7667e-22)
(0.03966 -0.00882702 -7.67916e-22)
(0.0399011 -0.0087956 -6.97608e-22)
(0.0401389 -0.00875814 7.33736e-22)
(0.0403732 -0.00871478 6.60908e-22)
(0.0406039 -0.00866569 0)
(0.0408306 -0.00861105 0)
(0.0410532 -0.00855103 -8.23679e-22)
(0.0412714 -0.0084858 0)
(0.0414852 -0.00841553 -4.6602e-22)
(0.0416942 -0.00834042 4.67255e-22)
(0.0418983 -0.00826041 2.22145e-22)
(0.0420972 -0.00817642 -2.06537e-22)
(0.0422907 -0.00808948 -3.5561e-22)
(0.0424787 -0.00799927 1.73092e-22)
(0.042661 -0.00790588 1.41008e-22)
(0.0428374 -0.00780948 -1.26739e-22)
(0.0430077 -0.00771024 0)
(0.0431718 -0.0076083 0)
(0.0433292 -0.00750379 -2.09421e-23)
(0.0434797 -0.0073968 0)
(0.0436231 -0.00728738 0)
(0.0437591 -0.00717557 4.67247e-23)
(0.0438872 -0.00706139 -5.64451e-23)
(0.0440071 -0.00694475 2.11159e-23)
(0.0441182 -0.00682564 -6.0722e-23)
(0.0442199 -0.00670453 0)
(0.0443112 -0.00658099 -1.10181e-22)
(0.0443917 -0.00645411 -2.21763e-23)
(0.0444601 -0.00632344 0)
(0.0445149 -0.00618863 1.5159e-22)
(0.0445541 -0.00604915 -3.14908e-23)
(0.0445755 -0.00590444 1.9375e-22)
(0.0445761 -0.00575402 6.19875e-23)
(0.0445529 -0.00559749 2.23374e-22)
(0.0445023 -0.00543464 -2.23144e-22)
(0.0444201 -0.00526546 -3.38867e-22)
(0.0443013 -0.00509012 0)
(0.0441378 -0.00490887 4.13418e-22)
(0.0439149 -0.00471985 1.09147e-22)
(0.0436086 -0.00451677 0)
(0.0431926 -0.00429761 0)
(0.0426711 -0.00407604 -8.76411e-22)
(0.0421285 -0.00389427 0)
(0.0417221 -0.00381353 0)
(0.041588 -0.00388315 1.1109e-21)
(0.0417112 -0.00408226 1.61728e-21)
(0.0413143 -0.00414872 1.67755e-21)
(0.0386268 -0.00348316 0)
(0.0342274 -0.00841421 0)
(0.0344773 -0.00852271 0)
(0.0347306 -0.00862528 0)
(0.0349853 -0.0087202 1.61261e-21)
(0.0352416 -0.00880782 1.51376e-21)
(0.0355003 -0.0088886 -8.67052e-23)
(0.035761 -0.00896238 -2.93833e-21)
(0.0360235 -0.00902889 1.39675e-21)
(0.0362874 -0.00908804 -1.33747e-21)
(0.0365528 -0.00913982 -2.5806e-21)
(0.0368192 -0.00918427 0)
(0.0370865 -0.0092214 0)
(0.0373543 -0.00925123 -4.1057e-23)
(0.0376222 -0.00927376 -3.31335e-21)
(0.0378897 -0.00928901 4.14119e-21)
(0.0381565 -0.00929704 -8.41346e-23)
(0.038422 -0.00929791 -1.95011e-21)
(0.038686 -0.00929168 -9.21849e-22)
(0.038948 -0.00927846 -2.9041e-23)
(0.0392076 -0.00925835 0)
(0.0394645 -0.00923148 -1.55865e-21)
(0.0397184 -0.00919798 0)
(0.039969 -0.009158 -1.39636e-21)
(0.040216 -0.00911172 1.96087e-21)
(0.0404591 -0.00905931 -1.88362e-21)
(0.0406981 -0.00900094 -5.63538e-22)
(0.0409328 -0.00893682 7.94864e-22)
(0.0411628 -0.00886713 -7.61494e-22)
(0.0413881 -0.00879205 4.97651e-22)
(0.0416084 -0.00871181 0)
(0.0418235 -0.00862656 3.99739e-22)
(0.0420334 -0.00853623 1.47933e-22)
(0.0422376 -0.00844229 -3.65056e-22)
(0.0424361 -0.0083451 3.13017e-22)
(0.0426287 -0.00824449 -1.33912e-22)
(0.0428154 -0.00814059 1.31513e-22)
(0.042996 -0.00803358 6.13065e-23)
(0.0431704 -0.0079236 -4.17804e-23)
(0.0433382 -0.00781079 -2.20292e-23)
(0.0434995 -0.00769523 6.05024e-23)
(0.043654 -0.00757701 3.08571e-24)
(0.0438015 -0.00745612 0)
(0.0439417 -0.00733256 -1.43736e-23)
(0.0440745 -0.00720626 2.50115e-23)
(0.0441993 -0.00707711 -2.17372e-23)
(0.0443159 -0.00694491 0)
(0.0444236 -0.00680934 0)
(0.0445216 -0.00667039 -8.88252e-25)
(0.0446088 -0.00652769 3.00574e-23)
(0.0446842 -0.00637993 1.73154e-23)
(0.0447463 -0.00622603 -8.7892e-23)
(0.0447933 -0.00606521 -4.31079e-24)
(0.0448228 -0.00589668 -2.47783e-23)
(0.0448323 -0.00571956 -6.32915e-23)
(0.044819 -0.005533 9.46498e-23)
(0.0447795 -0.0053361 -9.46339e-23)
(0.0447093 -0.00512791 0)
(0.0446011 -0.00490722 9.36575e-23)
(0.0444425 -0.00467126 1.20211e-22)
(0.0442128 -0.00441446 -2.62181e-22)
(0.0438871 -0.00413181 0)
(0.0434596 -0.00382873 0)
(0.042985 -0.00353386 0)
(0.0426003 -0.00329533 -1.32296e-21)
(0.0424484 -0.00316039 -8.38789e-22)
(0.0425499 -0.00313242 -1.32419e-21)
(0.0425552 -0.00311078 2.49988e-21)
(0.041289 -0.00276231 -3.16108e-22)
(0.037365 -0.00163826 -1.80403e-21)
(0.0340264 -0.00889997 0)
(0.0342929 -0.00900971 3.51763e-21)
(0.0345629 -0.00911299 -4.34768e-21)
(0.0348344 -0.00920802 2.44442e-21)
(0.0351075 -0.00929514 -4.84408e-21)
(0.0353825 -0.00937483 -1.53795e-21)
(0.035659 -0.00944689 -1.47806e-21)
(0.0359367 -0.00951104 0)
(0.0362152 -0.0095672 2.73369e-21)
(0.0364943 -0.00961535 2.59112e-21)
(0.036774 -0.00965554 -2.5621e-21)
(0.0370538 -0.00968781 1.19407e-21)
(0.0373337 -0.00971219 -1.09603e-21)
(0.0376132 -0.00972872 1.20199e-21)
(0.0378921 -0.00973745 4.1706e-21)
(0.0381699 -0.00973847 -9.05588e-23)
(0.0384462 -0.00973186 -8.97185e-23)
(0.0387208 -0.00971774 -1.84857e-21)
(0.0389931 -0.00969623 -8.70378e-22)
(0.0392628 -0.00966747 -1.57496e-21)
(0.0395296 -0.00963163 1.60819e-21)
(0.0397931 -0.00958885 0)
(0.0400529 -0.00953933 4.06744e-23)
(0.0403088 -0.00948326 0)
(0.0405604 -0.00942085 6.15438e-22)
(0.0408076 -0.00935229 5.76632e-22)
(0.04105 -0.0092778 -2.69456e-22)
(0.0412874 -0.0091976 0)
(0.0415196 -0.00911191 -2.08195e-22)
(0.0417465 -0.00902094 -3.90467e-22)
(0.0419678 -0.00892482 3.91411e-22)
(0.0421836 -0.00882367 -1.8321e-22)
(0.0423932 -0.0087192 2.86999e-22)
(0.042597 -0.00861124 -5.54155e-22)
(0.0427946 -0.00849978 1.23609e-22)
(0.0429862 -0.008385 0)
(0.0431715 -0.00826705 3.54283e-23)
(0.0433505 -0.0081461 1.40554e-23)
(0.0435231 -0.00802224 -4.50791e-23)
(0.043689 -0.00789555 3.17974e-23)
(0.0438483 -0.00776605 -7.01232e-24)
(0.0440009 -0.0076337 7.3237e-24)
(0.0441464 -0.00749843 -5.68041e-24)
(0.0442847 -0.00736008 0)
(0.0444155 -0.00721843 0)
(0.0445383 -0.00707318 0)
(0.0446527 -0.00692388 2.29908e-23)
(0.0447578 -0.00676986 2.74985e-23)
(0.0448527 -0.00661055 0)
(0.0449361 -0.00644533 3.66936e-23)
(0.0450069 -0.0062728 1.01115e-22)
(0.0450634 -0.00609127 7.48055e-23)
(0.0451039 -0.00589957 0)
(0.0451263 -0.00569647 0)
(0.045128 -0.00548052 -5.18275e-23)
(0.0451051 -0.00524985 5.18552e-23)
(0.0450515 -0.00500212 0)
(0.0449557 -0.00473316 -9.62739e-23)
(0.0448 -0.00443712 1.42047e-22)
(0.0445623 -0.00410788 -9.51157e-24)
(0.0442339 -0.00374585 -2.01996e-22)
(0.0438545 -0.00337026 2.03353e-22)
(0.0435389 -0.00301855 0)
(0.0434347 -0.00272594 5.68184e-22)
(0.0435761 -0.00251141 6.44295e-23)
(0.0437402 -0.00231272 1.16747e-21)
(0.0431815 -0.00196987 1.84401e-21)
(0.0406599 -0.00113539 -2.60636e-21)
(0.0354745 0.000362458 1.86511e-21)
(0.0338182 -0.00941922 9.45922e-22)
(0.0341019 -0.00952991 0)
(0.0343894 -0.00963358 8.85121e-22)
(0.0346785 -0.00972838 -4.21522e-21)
(0.0349692 -0.00981465 7.38845e-21)
(0.0352619 -0.00989286 -1.62631e-21)
(0.035556 -0.00996284 1.51757e-21)
(0.0358509 -0.0100243 -2.85249e-21)
(0.0361462 -0.010077 1.43538e-21)
(0.0364417 -0.0101212 1.33812e-21)
(0.036737 -0.0101567 1.26102e-21)
(0.037032 -0.0101836 -3.6019e-21)
(0.0373262 -0.0102021 1.22074e-21)
(0.0376195 -0.0102121 -3.24062e-21)
(0.0379115 -0.0102137 -9.61987e-22)
(0.0382018 -0.010207 9.74256e-23)
(0.0384902 -0.0101922 1.93024e-21)
(0.0387762 -0.0101694 0)
(0.0390595 -0.0101388 0)
(0.0393398 -0.0101005 7.68522e-22)
(0.0396167 -0.0100547 7.61603e-22)
(0.0398899 -0.0100017 1.34563e-21)
(0.040159 -0.0099417 -6.72567e-22)
(0.0404237 -0.00987487 -1.1666e-21)
(0.0406838 -0.00980148 1.1657e-21)
(0.040939 -0.00972177 -2.45952e-22)
(0.0411891 -0.009636 -2.24994e-22)
(0.0414338 -0.0095444 0)
(0.0416729 -0.00944723 2.12921e-22)
(0.0419063 -0.00934473 3.43415e-22)
(0.0421338 -0.00923698 -3.6615e-23)
(0.0423553 -0.00912455 -3.06732e-22)
(0.0425706 -0.00900884 1.0875e-22)
(0.0427797 -0.00888954 0)
(0.0429826 -0.00876677 -3.64187e-23)
(0.0431792 -0.0086407 2.82957e-23)
(0.0433695 -0.00851149 -3.60919e-23)
(0.0435534 -0.00837928 4.28427e-23)
(0.0437308 -0.00824415 0)
(0.0439017 -0.00810613 3.21899e-25)
(0.0440661 -0.00796521 -8.88048e-25)
(0.0442238 -0.00782131 -4.43592e-24)
(0.0443748 -0.00767426 9.4297e-24)
(0.0445188 -0.00752385 -3.10017e-23)
(0.0446556 -0.00736974 2.30198e-23)
(0.0447848 -0.0072115 3.64732e-23)
(0.044906 -0.00704856 -3.61667e-24)
(0.0450185 -0.00688016 1.25347e-22)
(0.0451216 -0.00670531 -9.14643e-23)
(0.0452143 -0.00652292 -2.44952e-22)
(0.0452957 -0.00633187 3.05649e-23)
(0.0453647 -0.00613061 -7.67227e-23)
(0.0454202 -0.00591733 0)
(0.0454603 -0.00568996 0)
(0.045482 -0.00544599 -2.1753e-22)
(0.0454796 -0.00518193 2.71641e-22)
(0.0454431 -0.00489293 -2.06945e-22)
(0.0453567 -0.00457229 0)
(0.045202 -0.00421309 2.68588e-22)
(0.0449719 -0.00381295 1.07643e-22)
(0.0447004 -0.00338447 6.42612e-23)
(0.0444885 -0.00295845 6.29328e-23)
(0.0444785 -0.00256365 -1.50314e-23)
(0.0447232 -0.00220638 -2.22418e-22)
(0.0450183 -0.00185312 4.80111e-22)
(0.0448354 -0.00138457 -8.48254e-22)
(0.0431847 -0.000616617 -7.80336e-22)
(0.0391991 0.000668661 0)
(0.0329076 0.00247568 0)
(0.033604 -0.00997534 -9.72464e-22)
(0.0339059 -0.0100866 -4.68234e-21)
(0.0342118 -0.0101903 3.69957e-21)
(0.0345193 -0.0102844 0)
(0.0348284 -0.0103693 8.41637e-22)
(0.0351394 -0.0104455 3.16777e-21)
(0.035452 -0.0105128 -2.3742e-21)
(0.0357652 -0.0105709 3.63046e-21)
(0.0360787 -0.0106197 -2.87531e-21)
(0.036392 -0.0106592 0)
(0.0367048 -0.0106894 -6.58183e-22)
(0.0370168 -0.0107104 0)
(0.0373275 -0.0107223 -1.09164e-21)
(0.0376367 -0.010725 3.36394e-21)
(0.0379438 -0.0107188 0)
(0.0382487 -0.0107037 0)
(0.0385508 -0.01068 0)
(0.03885 -0.0106477 1.26702e-21)
(0.0391458 -0.0106071 -1.68544e-21)
(0.0394379 -0.0105584 -7.86011e-22)
(0.0397259 -0.0105018 0)
(0.0400097 -0.0104377 0)
(0.0402888 -0.0103662 0)
(0.0405629 -0.0102877 1.35762e-21)