/*--------------------------------*- C++ -*----------------------------------*\
| =========                 |                                                 |
| \\      /  F ield         | OpenFOAM: The Open Source CFD Toolbox           |
|  \\    /   O peration     | Version:  2312                                  |
|   \\  /    A nd           | Website:  www.openfoam.com                      |
|    \\/     M anipulation  |                                                 |
\*---------------------------------------------------------------------------*/
FoamFile
{
    version     2.0;
    format      ascii;
    arch        "LSB;label=32;scalar=64";
    class       volScalarField;
    location    "1000";
    object      nut;
}
// * * * * * * * * * * * * * * * * * * * * * * * * * * * * * * * * * * * * * //

dimensions      [0 2 -1 0 0 0 0];

internalField   nonuniform List<scalar> 
76025
(
6.05355e-06
6.04998e-06
6.0494e-06
6.05229e-06
6.05375e-06
6.05814e-06
6.06038e-06
6.0631e-06
6.06656e-06
6.06923e-06
6.07071e-06
6.07165e-06
6.07121e-06
6.07041e-06
6.07007e-06
6.06821e-06
6.06718e-06
6.06638e-06
6.0676e-06
6.06868e-06
6.07139e-06
6.07559e-06
6.07996e-06
6.0834e-06
6.08575e-06
6.08739e-06
6.09336e-06
6.09596e-06
6.09949e-06
6.10403e-06
6.10779e-06
6.11163e-06
6.11434e-06
6.11743e-06
6.12131e-06
6.12436e-06
6.12717e-06
6.12941e-06
6.13507e-06
6.13748e-06
6.1371e-06
6.13352e-06
6.12126e-06
6.11261e-06
6.10256e-06
6.09415e-06
6.09723e-06
6.10657e-06
6.12154e-06
6.14019e-06
6.15921e-06
6.1747e-06
6.18198e-06
6.17753e-06
6.15955e-06
6.13224e-06
6.09804e-06
6.06124e-06
6.02246e-06
5.98344e-06
5.9477e-06
5.92104e-06
5.84871e-06
5.66151e-06
5.58622e-06
6.0291e-06
6.61295e-06
4.90703e-06
1.6428e-06
6.05181e-06
6.0471e-06
6.04259e-06
6.03984e-06
6.03868e-06
6.03984e-06
6.04168e-06
6.04392e-06
6.04666e-06
6.0502e-06
6.05419e-06
6.05947e-06
6.06465e-06
6.06836e-06
6.07134e-06
6.07286e-06
6.0738e-06
6.07348e-06
6.07335e-06
6.07325e-06
6.07319e-06
6.07249e-06
6.07157e-06
6.07012e-06
6.06854e-06
6.06692e-06
6.06574e-06
6.0648e-06
6.06394e-06
6.06317e-06
6.06236e-06
6.06175e-06
6.0611e-06
6.06052e-06
6.05989e-06
6.05881e-06
6.05708e-06
6.05451e-06
6.05129e-06
6.04788e-06
6.04513e-06
6.04334e-06
6.0428e-06
6.04628e-06
6.05646e-06
6.07218e-06
6.08987e-06
6.10844e-06
6.12637e-06
6.1414e-06
6.15064e-06
6.15098e-06
6.14018e-06
6.11794e-06
6.08664e-06
6.05024e-06
6.01278e-06
5.97553e-06
5.93721e-06
5.89952e-06
5.87023e-06
5.83338e-06
5.7194e-06
5.52615e-06
5.58213e-06
6.17428e-06
6.44814e-06
4.30203e-06
1.37961e-06
6.03812e-06
6.03749e-06
6.0353e-06
6.0323e-06
6.02917e-06
6.02663e-06
6.02491e-06
6.02415e-06
6.0246e-06
6.02646e-06
6.02949e-06
6.03351e-06
6.03814e-06
6.04317e-06
6.04848e-06
6.05344e-06
6.05778e-06
6.06132e-06
6.06365e-06
6.06528e-06
6.06616e-06
6.06644e-06
6.06625e-06
6.06554e-06
6.06422e-06
6.06214e-06
6.05958e-06
6.05688e-06
6.05405e-06
6.05119e-06
6.04832e-06
6.04551e-06
6.04282e-06
6.04021e-06
6.03769e-06
6.0353e-06
6.03312e-06
6.03117e-06
6.02993e-06
6.03031e-06
6.03371e-06
6.04117e-06
6.05284e-06
6.06568e-06
6.07913e-06
6.09276e-06
6.10574e-06
6.11674e-06
6.12383e-06
6.12457e-06
6.11664e-06
6.09863e-06
6.07094e-06
6.03614e-06
5.99827e-06
5.96115e-06
5.926e-06
5.89075e-06
5.85393e-06
5.82023e-06
5.79096e-06
5.72808e-06
5.568e-06
5.41362e-06
5.63453e-06
6.25287e-06
6.09004e-06
3.59522e-06
1.20006e-06
6.01376e-06
6.01606e-06
6.01776e-06
6.01837e-06
6.0177e-06
6.01604e-06
6.01381e-06
6.01138e-06
6.00915e-06
6.00763e-06
6.00719e-06
6.00796e-06
6.00993e-06
6.0131e-06
6.01724e-06
6.02199e-06
6.02701e-06
6.03202e-06
6.03684e-06
6.04128e-06
6.04506e-06
6.04817e-06
6.05074e-06
6.05273e-06
6.05407e-06
6.05469e-06
6.05465e-06
6.05402e-06
6.05289e-06
6.05128e-06
6.04916e-06
6.04673e-06
6.04412e-06
6.04111e-06
6.03788e-06
6.03584e-06
6.03551e-06
6.0366e-06
6.04045e-06
6.04634e-06
6.05317e-06
6.06052e-06
6.06818e-06
6.07582e-06
6.08295e-06
6.08874e-06
6.09188e-06
6.09059e-06
6.08285e-06
6.06695e-06
6.04226e-06
6.00986e-06
5.97266e-06
5.93458e-06
5.89897e-06
5.86664e-06
5.83511e-06
5.80089e-06
5.76545e-06
5.73467e-06
5.69516e-06
5.59029e-06
5.40495e-06
5.36019e-06
5.74111e-06
6.2473e-06
5.45343e-06
2.80131e-06
1.09554e-06
5.98899e-06
5.98968e-06
5.99149e-06
5.99372e-06
5.99575e-06
5.99724e-06
5.9979e-06
5.99751e-06
5.99612e-06
5.99412e-06
5.99206e-06
5.99035e-06
5.9893e-06
5.9891e-06
5.98985e-06
5.99159e-06
5.99428e-06
5.99776e-06
6.00179e-06
6.0061e-06
6.01049e-06
6.01476e-06
6.01875e-06
6.02239e-06
6.02569e-06
6.02862e-06
6.03112e-06
6.03311e-06
6.03457e-06
6.03543e-06
6.03567e-06
6.03552e-06
6.03463e-06
6.03247e-06
6.0302e-06
6.02881e-06
6.02847e-06
6.02981e-06
6.03253e-06
6.03581e-06
6.03921e-06
6.04248e-06
6.0453e-06
6.0471e-06
6.04694e-06
6.0435e-06
6.03521e-06
6.0205e-06
5.99836e-06
5.96889e-06
5.93371e-06
5.89598e-06
5.85958e-06
5.82732e-06
5.79923e-06
5.77223e-06
5.74191e-06
5.70715e-06
5.67352e-06
5.64029e-06
5.57225e-06
5.41959e-06
5.25824e-06
5.37189e-06
5.86197e-06
6.03234e-06
4.52548e-06
2.0806e-06
1.12213e-06
5.96921e-06
5.96634e-06
5.96506e-06
5.96523e-06
5.96653e-06
5.96859e-06
5.97092e-06
5.97298e-06
5.97434e-06
5.97484e-06
5.97454e-06
5.97363e-06
5.97234e-06
5.97098e-06
5.96985e-06
5.96916e-06
5.96907e-06
5.96967e-06
5.97094e-06
5.97283e-06
5.97525e-06
5.97809e-06
5.98113e-06
5.98419e-06
5.98717e-06
5.99003e-06
5.9927e-06
5.99511e-06
5.99717e-06
5.99874e-06
5.99978e-06
6.00033e-06
6.00016e-06
5.99881e-06
5.9962e-06
5.99356e-06
5.99158e-06
5.98981e-06
5.98804e-06
5.98634e-06
5.98527e-06
5.98451e-06
5.98261e-06
5.97817e-06
5.96982e-06
5.95629e-06
5.93665e-06
5.91066e-06
5.87902e-06
5.84371e-06
5.8078e-06
5.77493e-06
5.7479e-06
5.72564e-06
5.70378e-06
5.67746e-06
5.64442e-06
5.60862e-06
5.57474e-06
5.52555e-06
5.4115e-06
5.23504e-06
5.17483e-06
5.45447e-06
5.91074e-06
5.49169e-06
3.418e-06
1.54979e-06
1.38841e-06
5.95241e-06
5.94744e-06
5.94324e-06
5.94014e-06
5.93831e-06
5.93778e-06
5.93842e-06
5.93993e-06
5.94186e-06
5.94383e-06
5.94552e-06
5.94671e-06
5.94729e-06
5.94732e-06
5.94694e-06
5.94635e-06
5.94572e-06
5.94518e-06
5.94483e-06
5.94479e-06
5.9451e-06
5.94578e-06
5.94675e-06
5.94793e-06
5.94922e-06
5.95055e-06
5.95184e-06
5.953e-06
5.95392e-06
5.95447e-06
5.95456e-06
5.95419e-06
5.95317e-06
5.95095e-06
5.94746e-06
5.94342e-06
5.93892e-06
5.93365e-06
5.92786e-06
5.92165e-06
5.91453e-06
5.90576e-06
5.89449e-06
5.87985e-06
5.86113e-06
5.83792e-06
5.81061e-06
5.7803e-06
5.74894e-06
5.71918e-06
5.69285e-06
5.67013e-06
5.65166e-06
5.6336e-06
5.60958e-06
5.57723e-06
5.53967e-06
5.50272e-06
5.45983e-06
5.37541e-06
5.21679e-06
5.07598e-06
5.16354e-06
5.56038e-06
5.73209e-06
4.5269e-06
2.36185e-06
1.28893e-06
2.14273e-06
5.93351e-06
5.92877e-06
5.92387e-06
5.91908e-06
5.91475e-06
5.91119e-06
5.90863e-06
5.90717e-06
5.90672e-06
5.90709e-06
5.90804e-06
5.90928e-06
5.91053e-06
5.91159e-06
5.91237e-06
5.91285e-06
5.91306e-06
5.913e-06
5.91272e-06
5.91231e-06
5.91184e-06
5.91139e-06
5.911e-06
5.91067e-06
5.91035e-06
5.90997e-06
5.90947e-06
5.90879e-06
5.90781e-06
5.90643e-06
5.90457e-06
5.9022e-06
5.89915e-06
5.895e-06
5.88971e-06
5.88348e-06
5.8762e-06
5.8677e-06
5.85787e-06
5.84657e-06
5.83343e-06
5.81799e-06
5.79979e-06
5.77864e-06
5.75456e-06
5.72812e-06
5.70058e-06
5.67312e-06
5.64744e-06
5.62542e-06
5.60626e-06
5.58719e-06
5.56676e-06
5.54067e-06
5.50569e-06
5.46527e-06
5.42503e-06
5.38234e-06
5.31363e-06
5.18193e-06
5.01351e-06
4.97593e-06
5.21807e-06
5.57197e-06
5.14622e-06
3.28575e-06
1.60348e-06
1.37867e-06
4.04722e-06
5.90942e-06
5.90584e-06
5.90187e-06
5.89749e-06
5.89284e-06
5.8881e-06
5.88356e-06
5.87949e-06
5.87609e-06
5.87344e-06
5.87156e-06
5.87039e-06
5.86978e-06
5.86954e-06
5.8695e-06
5.86953e-06
5.86954e-06
5.86944e-06
5.86915e-06
5.86864e-06
5.8679e-06
5.86696e-06
5.86583e-06
5.86453e-06
5.86301e-06
5.86123e-06
5.85914e-06
5.85668e-06
5.8538e-06
5.85039e-06
5.84639e-06
5.8417e-06
5.83618e-06
5.82972e-06
5.82227e-06
5.8137e-06
5.80387e-06
5.79261e-06
5.77979e-06
5.76522e-06
5.74876e-06
5.73019e-06
5.70948e-06
5.68701e-06
5.66309e-06
5.63848e-06
5.61461e-06
5.59164e-06
5.57013e-06
5.55018e-06
5.52905e-06
5.50301e-06
5.46999e-06
5.42878e-06
5.38322e-06
5.34023e-06
5.29578e-06
5.23434e-06
5.12314e-06
4.9597e-06
4.85444e-06
4.94982e-06
5.27231e-06
5.29758e-06
4.05948e-06
2.13451e-06
1.26417e-06
2.06498e-06
8.3577e-06
5.88036e-06
5.87728e-06
5.87415e-06
5.8708e-06
5.86711e-06
5.86303e-06
5.85862e-06
5.854e-06
5.84935e-06
5.84484e-06
5.84062e-06
5.83682e-06
5.83348e-06
5.83059e-06
5.82809e-06
5.82591e-06
5.82397e-06
5.82217e-06
5.82043e-06
5.81865e-06
5.81675e-06
5.81467e-06
5.81238e-06
5.80983e-06
5.80699e-06
5.80379e-06
5.80019e-06
5.79612e-06
5.79152e-06
5.78631e-06
5.78042e-06
5.77375e-06
5.7662e-06
5.75774e-06
5.74832e-06
5.73784e-06
5.72621e-06
5.71335e-06
5.69917e-06
5.68353e-06
5.6664e-06
5.64774e-06
5.62766e-06
5.60653e-06
5.58457e-06
5.56234e-06
5.54028e-06
5.5174e-06
5.49365e-06
5.46762e-06
5.43585e-06
5.39599e-06
5.34841e-06
5.29646e-06
5.24866e-06
5.20173e-06
5.14163e-06
5.0441e-06
4.89461e-06
4.76109e-06
4.75388e-06
4.96644e-06
5.16435e-06
4.51124e-06
2.7459e-06
1.40819e-06
1.42569e-06
4.13517e-06
1.6994e-05
5.84757e-06
5.84409e-06
5.84084e-06
5.83772e-06
5.83461e-06
5.83139e-06
5.82792e-06
5.82414e-06
5.82002e-06
5.81561e-06
5.811e-06
5.80627e-06
5.80153e-06
5.79686e-06
5.79232e-06
5.78794e-06
5.7837e-06
5.77961e-06
5.77562e-06
5.77169e-06
5.76774e-06
5.76371e-06
5.75953e-06
5.75516e-06
5.75054e-06
5.7456e-06
5.74028e-06
5.73452e-06
5.72825e-06
5.72139e-06
5.71388e-06
5.70563e-06
5.69656e-06
5.68666e-06
5.67592e-06
5.66429e-06
5.6517e-06
5.63811e-06
5.62339e-06
5.60749e-06
5.59035e-06
5.57186e-06
5.55219e-06
5.53119e-06
5.50876e-06
5.48512e-06
5.45962e-06
5.43087e-06
5.39803e-06
5.35947e-06
5.31316e-06
5.25997e-06
5.20371e-06
5.14921e-06
5.10034e-06
5.03884e-06
4.94664e-06
4.81126e-06
4.67511e-06
4.60346e-06
4.70213e-06
4.90965e-06
4.6482e-06
3.26828e-06
1.70555e-06
1.21665e-06
2.47356e-06
9.2173e-06
3.11499e-05
5.81084e-06
5.80672e-06
5.80281e-06
5.79911e-06
5.79562e-06
5.79231e-06
5.78908e-06
5.78582e-06
5.78242e-06
5.77881e-06
5.77492e-06
5.77073e-06
5.76625e-06
5.76151e-06
5.75655e-06
5.75141e-06
5.74613e-06
5.74074e-06
5.73525e-06
5.72968e-06
5.72399e-06
5.71818e-06
5.7122e-06
5.70601e-06
5.69959e-06
5.69287e-06
5.68581e-06
5.67835e-06
5.67043e-06
5.66198e-06
5.65293e-06
5.64322e-06
5.63277e-06
5.62155e-06
5.60959e-06
5.59682e-06
5.58317e-06
5.56849e-06
5.55265e-06
5.53552e-06
5.51687e-06
5.49651e-06
5.47433e-06
5.4499e-06
5.42284e-06
5.39287e-06
5.3592e-06
5.3206e-06
5.27584e-06
5.22412e-06
5.16575e-06
5.10544e-06
5.04705e-06
4.99379e-06
4.9279e-06
4.8352e-06
4.70849e-06
4.57994e-06
4.4772e-06
4.483e-06
4.62039e-06
4.55903e-06
3.59425e-06
2.05737e-06
1.2262e-06
1.70592e-06
5.60519e-06
1.94396e-05
4.98171e-05
5.76817e-06
5.7637e-06
5.75927e-06
5.75492e-06
5.75067e-06
5.74659e-06
5.7427e-06
5.73896e-06
5.73533e-06
5.73174e-06
5.7281e-06
5.72433e-06
5.72036e-06
5.71613e-06
5.71161e-06
5.70679e-06
5.70164e-06
5.69619e-06
5.69042e-06
5.68435e-06
5.67797e-06
5.6713e-06
5.66431e-06
5.65698e-06
5.6493e-06
5.64124e-06
5.63276e-06
5.62383e-06
5.61437e-06
5.60433e-06
5.59365e-06
5.58225e-06
5.57006e-06
5.55704e-06
5.5432e-06
5.52839e-06
5.51248e-06
5.49526e-06
5.47652e-06
5.45606e-06
5.43355e-06
5.40861e-06
5.38096e-06
5.3503e-06
5.31612e-06
5.27779e-06
5.2347e-06
5.18607e-06
5.13126e-06
5.07089e-06
5.00663e-06
4.9429e-06
4.87963e-06
4.80855e-06
4.70997e-06
4.5872e-06
4.46884e-06
4.35738e-06
4.29911e-06
4.3475e-06
4.34306e-06
3.70537e-06
2.3675e-06
1.35194e-06
1.37719e-06
3.63383e-06
1.30356e-05
3.56202e-05
7.07965e-05
5.71705e-06
5.71248e-06
5.70785e-06
5.70313e-06
5.69836e-06
5.69356e-06
5.68881e-06
5.68413e-06
5.67955e-06
5.67508e-06
5.67069e-06
5.66632e-06
5.66194e-06
5.65745e-06
5.65282e-06
5.64796e-06
5.64283e-06
5.63739e-06
5.63158e-06
5.62539e-06
5.61878e-06
5.61173e-06
5.60422e-06
5.59623e-06
5.58771e-06
5.57864e-06
5.56898e-06
5.55868e-06
5.54769e-06
5.53595e-06
5.52337e-06
5.50986e-06
5.49534e-06
5.47982e-06
5.46315e-06
5.44517e-06
5.42569e-06
5.40449e-06
5.38134e-06
5.35598e-06
5.32809e-06
5.29733e-06
5.26339e-06
5.22596e-06
5.18464e-06
5.13885e-06
5.08799e-06
5.03142e-06
4.96919e-06
4.90267e-06
4.83371e-06
4.76077e-06
4.67695e-06
4.57118e-06
4.45185e-06
4.33975e-06
4.22902e-06
4.13335e-06
4.10166e-06
4.06781e-06
3.63349e-06
2.56727e-06
1.52616e-06
1.27378e-06
2.57947e-06
8.86188e-06
2.67028e-05
5.62489e-05
9.29391e-05
5.65533e-06
5.65064e-06
5.64586e-06
5.64094e-06
5.63586e-06
5.63062e-06
5.62526e-06
5.6198e-06
5.61427e-06
5.60871e-06
5.60313e-06
5.59754e-06
5.59193e-06
5.58627e-06
5.58052e-06
5.57464e-06
5.56856e-06
5.56223e-06
5.5556e-06
5.5486e-06
5.54117e-06
5.53327e-06
5.52483e-06
5.51581e-06
5.50615e-06
5.49579e-06
5.48467e-06
5.47273e-06
5.45989e-06
5.44609e-06
5.4312e-06
5.41513e-06
5.39782e-06
5.37919e-06
5.35907e-06
5.33725e-06
5.31358e-06
5.28783e-06
5.25978e-06
5.22919e-06
5.19579e-06
5.15929e-06
5.11943e-06
5.07588e-06
5.02822e-06
4.97586e-06
4.91821e-06
4.85504e-06
4.78677e-06
4.71353e-06
4.63322e-06
4.53971e-06
4.4284e-06
4.30658e-06
4.19441e-06
4.08087e-06
3.96438e-06
3.86961e-06
3.76707e-06
3.42703e-06
2.62345e-06
1.69255e-06
1.29537e-06
2.04351e-06
6.20065e-06
1.98409e-05
4.61195e-05
7.87985e-05
0.000114073
5.58114e-06
5.57609e-06
5.57097e-06
5.56571e-06
5.56027e-06
5.55464e-06
5.54881e-06
5.54276e-06
5.5365e-06
5.53005e-06
5.52341e-06
5.51661e-06
5.50964e-06
5.50251e-06
5.4952e-06
5.48769e-06
5.47996e-06
5.47196e-06
5.46363e-06
5.45494e-06
5.4458e-06
5.43616e-06
5.42596e-06
5.41511e-06
5.40354e-06
5.39119e-06
5.37795e-06
5.36376e-06
5.34851e-06
5.33211e-06
5.31443e-06
5.29538e-06
5.27488e-06
5.2528e-06
5.22895e-06
5.20313e-06
5.17516e-06
5.14485e-06
5.11196e-06
5.07626e-06
5.03749e-06
4.99538e-06
4.94963e-06
4.89988e-06
4.84565e-06
4.78642e-06
4.72181e-06
4.6514e-06
4.57421e-06
4.48758e-06
4.3874e-06
4.27088e-06
4.14441e-06
4.02731e-06
3.90763e-06
3.76972e-06
3.63239e-06
3.45424e-06
3.13551e-06
2.541e-06
1.80544e-06
1.38614e-06
1.80779e-06
4.58018e-06
1.46129e-05
3.72947e-05
6.87368e-05
0.000101592
0.000134451
5.49211e-06
5.48648e-06
5.48076e-06
5.47491e-06
5.46887e-06
5.46263e-06
5.45617e-06
5.44946e-06
5.44248e-06
5.43522e-06
5.42766e-06
5.41979e-06
5.41162e-06
5.40313e-06
5.39431e-06
5.38516e-06
5.37564e-06
5.36573e-06
5.35539e-06
5.34459e-06
5.33326e-06
5.32134e-06
5.30878e-06
5.29549e-06
5.2814e-06
5.26642e-06
5.25046e-06
5.23343e-06
5.21521e-06
5.19569e-06
5.17474e-06
5.15226e-06
5.12817e-06
5.10224e-06
5.07431e-06
5.04418e-06
5.01165e-06
4.97651e-06
4.93849e-06
4.89731e-06
4.85268e-06
4.80425e-06
4.75169e-06
4.69461e-06
4.63252e-06
4.56488e-06
4.4908e-06
4.40847e-06
4.31508e-06
4.2079e-06
4.08597e-06
3.95392e-06
3.82855e-06
3.69294e-06
3.55395e-06
3.38005e-06
3.13476e-06
2.80048e-06
2.35494e-06
1.84301e-06
1.50826e-06
1.7599e-06
3.65274e-06
1.08335e-05
2.94406e-05
5.91022e-05
9.20895e-05
0.000123752
0.00015426
5.38475e-06
5.37833e-06
5.37181e-06
5.36511e-06
5.35822e-06
5.3511e-06
5.34374e-06
5.33611e-06
5.32819e-06
5.31993e-06
5.31132e-06
5.30233e-06
5.29294e-06
5.28312e-06
5.27285e-06
5.26211e-06
5.25086e-06
5.23907e-06
5.22671e-06
5.21373e-06
5.20008e-06
5.18572e-06
5.17056e-06
5.15455e-06
5.1376e-06
5.11962e-06
5.10052e-06
5.08019e-06
5.05852e-06
5.03536e-06
5.01059e-06
4.98412e-06
4.95581e-06
4.92542e-06
4.89276e-06
4.85761e-06
4.81973e-06
4.77884e-06
4.73463e-06
4.68674e-06
4.63481e-06
4.57846e-06
4.5173e-06
4.45084e-06
4.37831e-06
4.29834e-06
4.20873e-06
4.10703e-06
3.99142e-06
3.86272e-06
3.72488e-06
3.58329e-06
3.44157e-06
3.29525e-06
3.08911e-06
2.79707e-06
2.45043e-06
2.10605e-06
1.80487e-06
1.63413e-06
1.83982e-06
3.18639e-06
8.26425e-06
2.27555e-05
4.94708e-05
8.22674e-05
0.000114687
0.000144675
0.000172912
5.25365e-06
5.24629e-06
5.23877e-06
5.23104e-06
5.22306e-06
5.21482e-06
5.2063e-06
5.19746e-06
5.18829e-06
5.17874e-06
5.1688e-06
5.15841e-06
5.14756e-06
5.1362e-06
5.12429e-06
5.1118e-06
5.09869e-06
5.0849e-06
5.07041e-06
5.05514e-06
5.03905e-06
5.02207e-06
5.00412e-06
4.98515e-06
4.96504e-06
4.94372e-06
4.92107e-06
4.89697e-06
4.8713e-06
4.8439e-06
4.81464e-06
4.78341e-06
4.74996e-06
4.71408e-06
4.67554e-06
4.63406e-06
4.58935e-06
4.54108e-06
4.48884e-06
4.43226e-06
4.37092e-06
4.30435e-06
4.23192e-06
4.15249e-06
4.06426e-06
3.9652e-06
3.85309e-06
3.72779e-06
3.59137e-06
3.44679e-06
3.29712e-06
3.15024e-06
2.97653e-06
2.74321e-06
2.43465e-06
2.10348e-06
1.84653e-06
1.71422e-06
1.74302e-06
2.00847e-06
3.03725e-06
6.63522e-06
1.74042e-05
4.01112e-05
7.16007e-05
0.00010468
0.000135678
0.000163842
0.000189773
5.09053e-06
5.082e-06
5.07328e-06
5.06429e-06
5.05501e-06
5.0454e-06
5.03545e-06
5.02512e-06
5.01439e-06
5.00322e-06
4.99158e-06
4.97943e-06
4.96673e-06
4.95344e-06
4.9395e-06
4.92488e-06
4.90951e-06
4.89334e-06
4.87631e-06
4.85835e-06
4.83939e-06
4.81936e-06
4.79816e-06
4.7757e-06
4.75188e-06
4.72658e-06
4.69968e-06
4.67104e-06
4.64049e-06
4.60785e-06
4.57302e-06
4.53584e-06
4.496e-06
4.45324e-06
4.40726e-06
4.35772e-06
4.30425e-06
4.24646e-06
4.18393e-06
4.11625e-06
4.0428e-06
3.9625e-06
3.87397e-06
3.77532e-06
3.66432e-06
3.5407e-06
3.40544e-06
3.26183e-06
3.1094e-06
2.95744e-06
2.79201e-06
2.59089e-06
2.34237e-06
2.05372e-06
1.78023e-06
1.61292e-06
1.63392e-06
1.84745e-06
2.24564e-06
3.12408e-06
5.70447e-06
1.33855e-05
3.14427e-05
6.01738e-05
9.30887e-05
0.000125082
0.00015437
0.000180662
0.000204303
4.88249e-06
4.87254e-06
4.86235e-06
4.85183e-06
4.84094e-06
4.82966e-06
4.81796e-06
4.8058e-06
4.79315e-06
4.77997e-06
4.76623e-06
4.75188e-06
4.73686e-06
4.72114e-06
4.70465e-06
4.68734e-06
4.66913e-06
4.64997e-06
4.62977e-06
4.60846e-06
4.58593e-06
4.5621e-06
4.53686e-06
4.51009e-06
4.48166e-06
4.45143e-06
4.41924e-06
4.38493e-06
4.34826e-06
4.3091e-06
4.26731e-06
4.22255e-06
4.17451e-06
4.12287e-06
4.06729e-06
4.00737e-06
3.94272e-06
3.87295e-06
3.79747e-06
3.71537e-06
3.6253e-06
3.52553e-06
3.41401e-06
3.28995e-06
3.15542e-06
3.01265e-06
2.86059e-06
2.71128e-06
2.55183e-06
2.36477e-06
2.14858e-06
1.9116e-06
1.68313e-06
1.50241e-06
1.44377e-06
1.58719e-06
1.95401e-06
2.52046e-06
3.37884e-06
5.27054e-06
1.05325e-05
2.38385e-05
4.82829e-05
7.97353e-05
0.000112117
0.000142499
0.000169986
0.000194386
0.000215745
4.60939e-06
4.59767e-06
4.58564e-06
4.5732e-06
4.56032e-06
4.54695e-06
4.53306e-06
4.51861e-06
4.50356e-06
4.48787e-06
4.47149e-06
4.45436e-06
4.43643e-06
4.41764e-06
4.39792e-06
4.3772e-06
4.3554e-06
4.33243e-06
4.3082e-06
4.28261e-06
4.25554e-06
4.22688e-06
4.1965e-06
4.16424e-06
4.12995e-06
4.09346e-06
4.05457e-06
4.01302e-06
3.96864e-06
3.92137e-06
3.87084e-06
3.81669e-06
3.75857e-06
3.69608e-06
3.62885e-06
3.55647e-06
3.47835e-06
3.39381e-06
3.30169e-06
3.19984e-06
3.08649e-06
2.96177e-06
2.8272e-06
2.68307e-06
2.53464e-06
2.39481e-06
2.24217e-06
2.07059e-06
1.88049e-06
1.68248e-06
1.50366e-06
1.36301e-06
1.30255e-06
1.37269e-06
1.61624e-06
2.09274e-06
2.80804e-06
3.72686e-06
5.16957e-06
8.59683e-06
1.75294e-05
3.63877e-05
6.45717e-05
9.62988e-05
0.000127269
0.000155865
0.000181575
0.000204204
0.000223436
4.23984e-06
4.22591e-06
4.2116e-06
4.19679e-06
4.18142e-06
4.16547e-06
4.14888e-06
4.1316e-06
4.1136e-06
4.09481e-06
4.07519e-06
4.05465e-06
4.03314e-06
4.01059e-06
3.98691e-06
3.96201e-06
3.93581e-06
3.90819e-06
3.87905e-06
3.84827e-06
3.8157e-06
3.78121e-06
3.74463e-06
3.70579e-06
3.6645e-06
3.62056e-06
3.57371e-06
3.52371e-06
3.4705e-06
3.41374e-06
3.35301e-06
3.28796e-06
3.21818e-06
3.1432e-06
3.06261e-06
2.97586e-06
2.88179e-06
2.77839e-06
2.66435e-06
2.54061e-06
2.40862e-06
2.26796e-06
2.12618e-06
1.99626e-06
1.8573e-06
1.70791e-06
1.54886e-06
1.39841e-06
1.26867e-06
1.1686e-06
1.14947e-06
1.22236e-06
1.40502e-06
1.73718e-06
2.28087e-06
3.07336e-06
4.05156e-06
5.22158e-06
7.30403e-06
1.25717e-05
2.51666e-05
4.77931e-05
7.71231e-05
0.000107804
0.000137015
0.000163806
0.000187837
0.000208875
0.000226343
3.72567e-06
3.70918e-06
3.69221e-06
3.67464e-06
3.65641e-06
3.63746e-06
3.61775e-06
3.59723e-06
3.57584e-06
3.55353e-06
3.53021e-06
3.50583e-06
3.48029e-06
3.45353e-06
3.42544e-06
3.39592e-06
3.36488e-06
3.33218e-06
3.29771e-06
3.26133e-06
3.22288e-06
3.1822e-06
3.13913e-06
3.09347e-06
3.04502e-06
2.99352e-06
2.93876e-06
2.88071e-06
2.81906e-06
2.7533e-06
2.68303e-06
2.60779e-06
2.52709e-06
2.44052e-06
2.34718e-06
2.24561e-06
2.13568e-06
2.01774e-06
1.89054e-06
1.76238e-06
1.65183e-06
1.53992e-06
1.41963e-06
1.29874e-06
1.19035e-06
1.09603e-06
1.01061e-06
9.75843e-07
1.00167e-06
1.09434e-06
1.26787e-06
1.5398e-06
1.93375e-06
2.48898e-06
3.25019e-06
4.189e-06
5.17577e-06
6.34814e-06
8.85504e-06
1.55237e-05
3.0368e-05
5.43129e-05
8.30181e-05
0.000112035
0.000139392
0.00016446
0.000186982
0.00020668
0.000222788
3.00324e-06
2.98448e-06
2.96519e-06
2.94523e-06
2.92455e-06
2.90308e-06
2.8808e-06
2.85762e-06
2.83351e-06
2.8084e-06
2.78221e-06
2.75487e-06
2.72631e-06
2.69644e-06
2.66517e-06
2.6324e-06
2.59802e-06
2.56191e-06
2.52396e-06
2.48404e-06
2.442e-06
2.39769e-06
2.35096e-06
2.30166e-06
2.24961e-06
2.19465e-06
2.13662e-06
2.07505e-06
2.00943e-06
1.93942e-06
1.86484e-06
1.78533e-06
1.70041e-06
1.61064e-06
1.51627e-06
1.41552e-06
1.31036e-06
1.21349e-06
1.12899e-06
1.0479e-06
9.77657e-07
9.12753e-07
8.45847e-07
8.01259e-07
7.96722e-07
8.25054e-07
8.91249e-07
1.00357e-06
1.17268e-06
1.40838e-06
1.71766e-06
2.10636e-06
2.58668e-06
3.18558e-06
3.91943e-06
4.70079e-06
5.36112e-06
6.12248e-06
8.32313e-06
1.48366e-05
2.93003e-05
5.20655e-05
7.89563e-05
0.000106036
0.000131613
0.000155148
0.000176403
0.000195054
0.000210171
2.03244e-06
2.01394e-06
1.99497e-06
1.97539e-06
1.95515e-06
1.93423e-06
1.91258e-06
1.89017e-06
1.86696e-06
1.84289e-06
1.81792e-06
1.79199e-06
1.76504e-06
1.73702e-06
1.70786e-06
1.67749e-06
1.64585e-06
1.61284e-06
1.5784e-06
1.54245e-06
1.50489e-06
1.46562e-06
1.42457e-06
1.38183e-06
1.33709e-06
1.28962e-06
1.23932e-06
1.18623e-06
1.1305e-06
1.07264e-06
1.01324e-06
9.52119e-07
8.9009e-07
8.30386e-07
7.74944e-07
7.25382e-07
6.82982e-07
6.46637e-07
6.16107e-07
6.01767e-07
6.13476e-07
6.40594e-07
6.84632e-07
7.48255e-07
8.3547e-07
9.50688e-07
1.09827e-06
1.2811e-06
1.49859e-06
1.746e-06
2.01812e-06
2.31771e-06
2.66101e-06
3.06789e-06
3.51898e-06
3.87896e-06
3.9667e-06
3.91565e-06
4.82362e-06
8.77331e-06
1.89408e-05
3.70488e-05
6.04317e-05
8.52084e-05
0.000109242
0.000131619
0.000151952
0.000169852
0.000184191
9.44302e-07
9.31963e-07
9.19361e-07
9.0644e-07
8.93211e-07
8.79706e-07
8.6595e-07
8.51949e-07
8.37696e-07
8.23173e-07
8.08355e-07
7.93212e-07
7.77714e-07
7.61826e-07
7.4551e-07
7.2873e-07
7.11466e-07
6.93696e-07
6.75374e-07
6.56479e-07
6.37008e-07
6.16957e-07
5.96288e-07
5.75007e-07
5.53427e-07
5.32186e-07
5.11604e-07
4.91915e-07
4.7341e-07
4.57007e-07
4.42948e-07
4.28509e-07
4.17157e-07
4.22949e-07
4.36935e-07
4.56469e-07
4.81766e-07
5.13413e-07
5.51781e-07
5.97169e-07
6.50216e-07
7.11181e-07
7.80343e-07
8.57888e-07
9.43592e-07
1.03635e-06
1.13327e-06
1.22915e-06
1.31863e-06
1.40034e-06
1.48062e-06
1.57356e-06
1.69402e-06
1.83703e-06
1.94455e-06
1.89507e-06
1.56422e-06
9.92048e-07
9.65537e-07
1.69923e-06
4.28943e-06
1.15024e-05
2.50449e-05
4.341e-05
6.44379e-05
8.56472e-05
0.000105584
0.00012327
0.000136477
1.96841e-07
1.94767e-07
1.92779e-07
1.91523e-07
1.91803e-07
1.93687e-07
1.96795e-07
2.00728e-07
2.0519e-07
2.09974e-07
2.14935e-07
2.19966e-07
2.24992e-07
2.29941e-07
2.3476e-07
2.39462e-07
2.4401e-07
2.48163e-07
2.52017e-07
2.5647e-07
2.61664e-07
2.67655e-07
2.74549e-07
2.82435e-07
2.91368e-07
3.01406e-07
3.126e-07
3.2498e-07
3.38539e-07
3.53259e-07
3.69094e-07
3.85787e-07
4.02952e-07
4.20458e-07
4.37926e-07
4.54781e-07
4.70377e-07
4.84072e-07
4.9528e-07
5.03592e-07
5.08934e-07
5.1153e-07
5.11712e-07
5.0974e-07
5.05585e-07
4.98338e-07
4.85843e-07
4.6644e-07
4.42312e-07
4.19531e-07
4.05402e-07
4.05148e-07
4.18212e-07
4.30217e-07
3.91657e-07
2.37817e-07
1.70568e-07
1.44092e-07
1.14787e-07
1.16888e-07
2.11873e-07
6.49506e-07
1.86972e-06
4.54079e-06
9.41585e-06
1.67835e-05
2.629e-05
3.70244e-05
4.69836e-05
7.58666e-08
7.89057e-08
8.20242e-08
8.52431e-08
8.85908e-08
9.20974e-08
9.57806e-08
9.96416e-08
1.03669e-07
1.07843e-07
1.12138e-07
1.16525e-07
1.20969e-07
1.25433e-07
1.29883e-07
1.34264e-07
1.38516e-07
1.42676e-07
1.46642e-07
1.49776e-07
1.52042e-07
1.53458e-07
1.5402e-07
1.53709e-07
1.52501e-07
1.5036e-07
1.47253e-07
1.43149e-07
1.38028e-07
1.3189e-07
1.24767e-07
1.16725e-07
1.07874e-07
9.8375e-08
8.84404e-08
7.83203e-08
6.82898e-08
5.86293e-08
4.96003e-08
4.14196e-08
3.42259e-08
2.80575e-08
2.2875e-08
1.85876e-08
1.5042e-08
1.2026e-08
9.37113e-09
7.0632e-09
5.22653e-09
3.85267e-09
2.83506e-09
1.99828e-09
1.63673e-09
1.80319e-09
1.85488e-09
1.48342e-09
1.13625e-09
8.7626e-10
7.37563e-10
2.83345e-10
6.86042e-10
2.31909e-09
6.36769e-09
1.28677e-08
3.17742e-08
6.70341e-08
1.27438e-07
2.21413e-07
3.89984e-07
6.18269e-06
6.18647e-06
6.1906e-06
6.19569e-06
6.20122e-06
6.20479e-06
6.20576e-06
6.20497e-06
6.20626e-06
6.20631e-06
6.20867e-06
6.21098e-06
6.21239e-06
6.21925e-06
6.22047e-06
6.21958e-06
6.21642e-06
6.21724e-06
6.22935e-06
6.23759e-06
6.23608e-06
6.20998e-06
6.20566e-06
6.18842e-06
6.17184e-06
6.16848e-06
6.17666e-06
6.1934e-06
6.18919e-06
6.18544e-06
6.17604e-06
6.17299e-06
6.16277e-06
6.15587e-06
6.15416e-06
6.15154e-06
6.14744e-06
6.13919e-06
6.13484e-06
6.14383e-06
6.15365e-06
6.13479e-06
6.11677e-06
6.11119e-06
6.11578e-06
6.11692e-06
6.11247e-06
6.10201e-06
6.08982e-06
6.07734e-06
6.07033e-06
6.06646e-06
6.06647e-06
6.06758e-06
6.06929e-06
6.06835e-06
6.0646e-06
6.06062e-06
6.05678e-06
6.17764e-06
6.18197e-06
6.18573e-06
6.18873e-06
6.19019e-06
6.18957e-06
6.18819e-06
6.18781e-06
6.18895e-06
6.19068e-06
6.19327e-06
6.19607e-06
6.19949e-06
6.20222e-06
6.20197e-06
6.20123e-06
6.20294e-06
6.21011e-06
6.21977e-06
6.22107e-06
6.20962e-06
6.19161e-06
6.18396e-06
6.16655e-06
6.15449e-06
6.15542e-06
6.16606e-06
6.17933e-06
6.1765e-06
6.1715e-06
6.16246e-06
6.15845e-06
6.14907e-06
6.14254e-06
6.14063e-06
6.13812e-06
6.13404e-06
6.12639e-06
6.12142e-06
6.12673e-06
6.13645e-06
6.12711e-06
6.11102e-06
6.10017e-06
6.09754e-06
6.09819e-06
6.09729e-06
6.09218e-06
6.08422e-06
6.07359e-06
6.06319e-06
6.0551e-06
6.05063e-06
6.04906e-06
6.05022e-06
6.05183e-06
6.0532e-06
6.05565e-06
6.05482e-06
6.16732e-06
6.16907e-06
6.16982e-06
6.16971e-06
6.169e-06
6.16833e-06
6.16842e-06
6.16964e-06
6.17171e-06
6.1743e-06
6.17713e-06
6.17995e-06
6.18233e-06
6.18334e-06
6.18405e-06
6.18651e-06
6.19239e-06
6.2002e-06
6.20413e-06
6.19834e-06
6.18442e-06
6.17112e-06
6.1604e-06
6.14503e-06
6.138e-06
6.14252e-06
6.15426e-06
6.1649e-06
6.16245e-06
6.15635e-06
6.14778e-06
6.14305e-06
6.13447e-06
6.12829e-06
6.12617e-06
6.12368e-06
6.11971e-06
6.11263e-06
6.10728e-06
6.1097e-06
6.11776e-06
6.11489e-06
6.10277e-06
6.09075e-06
6.08321e-06
6.08019e-06
6.07904e-06
6.07649e-06
6.07211e-06
6.06549e-06
6.0568e-06
6.04758e-06
6.03978e-06
6.03439e-06
6.03156e-06
6.03073e-06
6.03175e-06
6.03444e-06
6.03696e-06
6.14656e-06
6.14652e-06
6.1462e-06
6.14598e-06
6.14623e-06
6.14719e-06
6.14891e-06
6.15121e-06
6.1538e-06
6.15646e-06
6.15905e-06
6.16136e-06
6.16324e-06
6.16512e-06
6.16838e-06
6.17375e-06
6.18035e-06
6.18462e-06
6.18235e-06
6.17254e-06
6.15946e-06
6.14793e-06
6.13594e-06
6.12418e-06
6.12189e-06
6.12915e-06
6.14113e-06
6.14957e-06
6.14682e-06
6.13992e-06
6.13178e-06
6.12658e-06
6.11871e-06
6.11286e-06
6.11056e-06
6.10802e-06
6.10415e-06
6.09759e-06
6.09205e-06
6.0923e-06
6.09815e-06
6.09887e-06
6.09111e-06
6.08033e-06
6.0708e-06
6.0644e-06
6.06082e-06
6.05806e-06
6.05497e-06
6.05107e-06
6.04569e-06
6.0387e-06
6.031e-06
6.02381e-06
6.0179e-06
6.01364e-06
6.01123e-06
6.0108e-06
6.01183e-06
6.12058e-06
6.12096e-06
6.12162e-06
6.12277e-06
6.12443e-06
6.12655e-06
6.12897e-06
6.1315e-06
6.13402e-06
6.13657e-06
6.13909e-06
6.14164e-06
6.14455e-06
6.14843e-06
6.15368e-06
6.15943e-06
6.16342e-06
6.16275e-06
6.15606e-06
6.14511e-06
6.13347e-06
6.12253e-06
6.11135e-06
6.10394e-06
6.10574e-06
6.11496e-06
6.12651e-06
6.1329e-06
6.12949e-06
6.12208e-06
6.11432e-06
6.10883e-06
6.10158e-06
6.09605e-06
6.0936e-06
6.09098e-06
6.0872e-06
6.08109e-06
6.07547e-06
6.07412e-06
6.07777e-06
6.07991e-06
6.07579e-06
6.06739e-06
6.05798e-06
6.04989e-06
6.04392e-06
6.03947e-06
6.03573e-06
6.03229e-06
6.02877e-06
6.02443e-06
6.01899e-06
6.01283e-06
6.00653e-06
6.00068e-06
5.99573e-06
5.9921e-06
5.98987e-06
6.09473e-06
6.09623e-06
6.09798e-06
6.10003e-06
6.10231e-06
6.10471e-06
6.10719e-06
6.10974e-06
6.11245e-06
6.11536e-06
6.11856e-06
6.12223e-06
6.12662e-06
6.13172e-06
6.13684e-06
6.14034e-06
6.14028e-06
6.13552e-06
6.1268e-06
6.11629e-06
6.10586e-06
6.09573e-06
6.087e-06
6.08405e-06
6.08917e-06
6.09956e-06
6.11013e-06
6.11451e-06
6.1103e-06
6.10264e-06
6.09522e-06
6.08961e-06
6.08291e-06
6.07768e-06
6.07509e-06
6.07237e-06
6.06864e-06
6.06292e-06
6.05729e-06
6.0548e-06
6.05648e-06
6.05867e-06
6.05701e-06
6.05118e-06
6.04309e-06
6.0348e-06
6.02761e-06
6.0216e-06
6.01644e-06
6.01206e-06
6.0084e-06
6.00504e-06
6.00143e-06
5.99723e-06
5.99245e-06
5.98729e-06
5.98209e-06
5.97726e-06
5.97304e-06
6.06923e-06
6.07133e-06
6.07352e-06
6.07584e-06
6.07828e-06
6.08084e-06
6.08359e-06
6.08662e-06
6.09e-06
6.09376e-06
6.09796e-06
6.10261e-06
6.10748e-06
6.11196e-06
6.11488e-06
6.11493e-06
6.11131e-06
6.10435e-06
6.09541e-06
6.08594e-06
6.07667e-06
6.06823e-06
6.063e-06
6.06412e-06
6.07173e-06
6.08251e-06
6.09162e-06
6.09406e-06
6.08909e-06
6.08139e-06
6.07431e-06
6.06869e-06
6.06247e-06
6.05752e-06
6.05482e-06
6.05197e-06
6.04826e-06
6.04285e-06
6.03727e-06
6.03394e-06
6.03398e-06
6.03546e-06
6.03507e-06
6.03141e-06
6.02511e-06
6.0176e-06
6.01024e-06
6.00354e-06
5.99742e-06
5.99188e-06
5.98712e-06
5.98315e-06
5.97974e-06
5.97651e-06
5.97313e-06
5.96944e-06
5.96545e-06
5.96131e-06
5.95713e-06
6.04223e-06
6.04458e-06
6.04701e-06
6.04961e-06
6.05242e-06
6.05549e-06
6.05889e-06
6.06267e-06
6.06682e-06
6.07126e-06
6.07588e-06
6.08035e-06
6.08414e-06
6.08642e-06
6.08634e-06
6.08339e-06
6.07777e-06
6.07036e-06
6.0622e-06
6.05397e-06
6.04627e-06
6.04051e-06
6.03911e-06
6.04364e-06
6.05284e-06
6.06329e-06
6.07061e-06
6.07122e-06
6.06564e-06
6.05805e-06
6.05131e-06
6.04578e-06
6.03999e-06