/*--------------------------------*- C++ -*----------------------------------*\
| =========                 |                                                 |
| \\      /  F ield         | OpenFOAM: The Open Source CFD Toolbox           |
|  \\    /   O peration     | Version:  2312                                  |
|   \\  /    A nd           | Website:  www.openfoam.com                      |
|    \\/     M anipulation  |                                                 |
\*---------------------------------------------------------------------------*/
FoamFile
{
    version     2.0;
    format      ascii;
    arch        "LSB;label=32;scalar=64";
    class       volScalarField;
    location    "1000";
    object      nuTilda;
}
// * * * * * * * * * * * * * * * * * * * * * * * * * * * * * * * * * * * * * //

dimensions      [0 2 -1 0 0 0 0];

internalField   nonuniform List<scalar> 
76025
(
3.99738e-05
3.99671e-05
3.99661e-05
3.99715e-05
3.99742e-05
3.99823e-05
3.99865e-05
3.99916e-05
3.9998e-05
4.0003e-05
4.00057e-05
4.00075e-05
4.00066e-05
4.00052e-05
4.00045e-05
4.00011e-05
3.99992e-05
3.99977e-05
3.99999e-05
4.00019e-05
4.0007e-05
4.00148e-05
4.00229e-05
4.00293e-05
4.00337e-05
4.00367e-05
4.00478e-05
4.00526e-05
4.00591e-05
4.00676e-05
4.00745e-05
4.00816e-05
4.00867e-05
4.00924e-05
4.00996e-05
4.01052e-05
4.01104e-05
4.01145e-05
4.0125e-05
4.01294e-05
4.01287e-05
4.01221e-05
4.00994e-05
4.00835e-05
4.00648e-05
4.00493e-05
4.0055e-05
4.00723e-05
4.01e-05
4.01344e-05
4.01695e-05
4.0198e-05
4.02114e-05
4.02032e-05
4.01701e-05
4.01198e-05
4.00565e-05
3.99881e-05
3.99158e-05
3.98428e-05
3.97756e-05
3.97253e-05
3.95882e-05
3.92283e-05
3.90814e-05
3.99282e-05
4.0987e-05
3.76956e-05
2.81111e-05
3.99706e-05
3.99618e-05
3.99534e-05
3.99482e-05
3.99461e-05
3.99483e-05
3.99517e-05
3.99559e-05
3.9961e-05
3.99675e-05
3.9975e-05
3.99848e-05
3.99945e-05
4.00014e-05
4.00069e-05
4.00097e-05
4.00115e-05
4.00109e-05
4.00106e-05
4.00104e-05
4.00103e-05
4.0009e-05
4.00073e-05
4.00046e-05
4.00017e-05
3.99987e-05
3.99965e-05
3.99947e-05
3.99931e-05
3.99917e-05
3.99902e-05
3.99891e-05
3.99879e-05
3.99868e-05
3.99856e-05
3.99836e-05
3.99804e-05
3.99756e-05
3.99696e-05
3.99632e-05
3.99581e-05
3.99548e-05
3.99538e-05
3.99602e-05
3.99792e-05
4.00085e-05
4.00413e-05
4.00757e-05
4.01089e-05
4.01367e-05
4.01537e-05
4.01543e-05
4.01344e-05
4.00933e-05
4.00353e-05
3.99676e-05
3.98977e-05
3.98279e-05
3.97558e-05
3.96846e-05
3.96291e-05
3.9559e-05
3.93404e-05
3.89633e-05
3.90734e-05
4.01972e-05
4.06942e-05
3.63527e-05
2.68601e-05
3.9945e-05
3.99439e-05
3.99398e-05
3.99342e-05
3.99283e-05
3.99236e-05
3.99204e-05
3.9919e-05
3.99198e-05
3.99233e-05
3.99289e-05
3.99364e-05
3.99451e-05
3.99545e-05
3.99644e-05
3.99736e-05
3.99817e-05
3.99883e-05
3.99926e-05
3.99956e-05
3.99973e-05
3.99978e-05
3.99974e-05
3.99961e-05
3.99937e-05
3.99898e-05
3.9985e-05
3.998e-05
3.99747e-05
3.99694e-05
3.99641e-05
3.99588e-05
3.99538e-05
3.99489e-05
3.99442e-05
3.99398e-05
3.99357e-05
3.99321e-05
3.99297e-05
3.99305e-05
3.99368e-05
3.99507e-05
3.99725e-05
3.99964e-05
4.00214e-05
4.00467e-05
4.00707e-05
4.00911e-05
4.01042e-05
4.01056e-05
4.00909e-05
4.00576e-05
4.00061e-05
3.99413e-05
3.98705e-05
3.98009e-05
3.97347e-05
3.9668e-05
3.95981e-05
3.95339e-05
3.94779e-05
3.93571e-05
3.90457e-05
3.87399e-05
3.91758e-05
4.03412e-05
4.00416e-05
3.46163e-05
2.59056e-05
3.98995e-05
3.99038e-05
3.9907e-05
3.99082e-05
3.99069e-05
3.99038e-05
3.98996e-05
3.98951e-05
3.98909e-05
3.98881e-05
3.98872e-05
3.98887e-05
3.98924e-05
3.98983e-05
3.9906e-05
3.99149e-05
3.99243e-05
3.99336e-05
3.99426e-05
3.99509e-05
3.9958e-05
3.99638e-05
3.99686e-05
3.99723e-05
3.99748e-05
3.99759e-05
3.99758e-05
3.99747e-05
3.99726e-05
3.99696e-05
3.99656e-05
3.99611e-05
3.99562e-05
3.99506e-05
3.99446e-05
3.99408e-05
3.99402e-05
3.99422e-05
3.99494e-05
3.99604e-05
3.99731e-05
3.99868e-05
4.0001e-05
4.00152e-05
4.00285e-05
4.00392e-05
4.0045e-05
4.00426e-05
4.00283e-05
3.99987e-05
3.99528e-05
3.98923e-05
3.98225e-05
3.97509e-05
3.96836e-05
3.96223e-05
3.95623e-05
3.94969e-05
3.9429e-05
3.93698e-05
3.92935e-05
3.90894e-05
3.87226e-05
3.86328e-05
3.93822e-05
4.03311e-05
3.88193e-05
3.23677e-05
2.53021e-05
3.98532e-05
3.98544e-05
3.98578e-05
3.9862e-05
3.98658e-05
3.98686e-05
3.98699e-05
3.98691e-05
3.98665e-05
3.98628e-05
3.98589e-05
3.98557e-05
3.98537e-05
3.98534e-05
3.98548e-05
3.9858e-05
3.98631e-05
3.98696e-05
3.98771e-05
3.98852e-05
3.98934e-05
3.99014e-05
3.99089e-05
3.99157e-05
3.99218e-05
3.99273e-05
3.9932e-05
3.99357e-05
3.99384e-05
3.994e-05
3.99405e-05
3.99402e-05
3.99385e-05
3.99345e-05
3.99302e-05
3.99277e-05
3.9927e-05
3.99295e-05
3.99346e-05
3.99407e-05
3.99471e-05
3.99532e-05
3.99584e-05
3.99618e-05
3.99615e-05
3.99551e-05
3.99396e-05
3.99121e-05
3.98707e-05
3.98154e-05
3.97492e-05
3.96779e-05
3.96089e-05
3.95474e-05
3.94938e-05
3.9442e-05
3.93838e-05
3.93167e-05
3.92516e-05
3.9187e-05
3.9054e-05
3.87518e-05
3.84265e-05
3.86563e-05
3.96134e-05
3.99342e-05
3.68622e-05
2.99102e-05
2.54594e-05
3.9816e-05
3.98106e-05
3.98082e-05
3.98086e-05
3.9811e-05
3.98149e-05
3.98193e-05
3.98231e-05
3.98257e-05
3.98266e-05
3.98261e-05
3.98243e-05
3.98219e-05
3.98194e-05
3.98172e-05
3.98159e-05
3.98158e-05
3.98169e-05
3.98193e-05
3.98228e-05
3.98274e-05
3.98327e-05
3.98384e-05
3.98442e-05
3.98498e-05
3.98551e-05
3.98601e-05
3.98646e-05
3.98685e-05
3.98714e-05
3.98734e-05
3.98744e-05
3.98741e-05
3.98716e-05
3.98667e-05
3.98617e-05
3.9858e-05
3.98547e-05
3.98514e-05
3.98482e-05
3.98462e-05
3.98448e-05
3.98412e-05
3.98329e-05
3.98172e-05
3.97917e-05
3.97548e-05
3.97057e-05
3.96458e-05
3.95787e-05
3.95102e-05
3.94472e-05
3.93953e-05
3.93524e-05
3.93102e-05
3.92592e-05
3.9195e-05
3.91252e-05
3.90589e-05
3.89622e-05
3.87357e-05
3.83792e-05
3.82558e-05
3.88214e-05
3.97058e-05
3.88952e-05
3.41459e-05
2.76864e-05
2.69046e-05
3.97844e-05
3.97751e-05
3.97672e-05
3.97613e-05
3.97579e-05
3.97569e-05
3.97581e-05
3.97609e-05
3.97646e-05
3.97683e-05
3.97715e-05
3.97737e-05
3.97748e-05
3.97749e-05
3.97741e-05
3.9773e-05
3.97718e-05
3.97708e-05
3.97702e-05
3.97701e-05
3.97707e-05
3.9772e-05
3.97738e-05
3.9776e-05
3.97784e-05
3.97809e-05
3.97834e-05
3.97856e-05
3.97873e-05
3.97883e-05
3.97885e-05
3.97878e-05
3.97859e-05
3.97817e-05
3.97751e-05
3.97675e-05
3.9759e-05
3.97491e-05
3.97382e-05
3.97265e-05
3.9713e-05
3.96964e-05
3.96751e-05
3.96474e-05
3.96118e-05
3.95676e-05
3.95155e-05
3.94575e-05
3.93973e-05
3.934e-05
3.92891e-05
3.9245e-05
3.92091e-05
3.9174e-05
3.91271e-05
3.90638e-05
3.899e-05
3.8917e-05
3.8832e-05
3.86634e-05
3.83419e-05
3.80512e-05
3.82326e-05
3.90307e-05
3.93648e-05
3.68654e-05
3.09301e-05
2.63899e-05
3.01434e-05
3.97488e-05
3.97399e-05
3.97306e-05
3.97216e-05
3.97134e-05
3.97067e-05
3.97018e-05
3.96991e-05
3.96982e-05
3.96989e-05
3.97007e-05
3.97031e-05
3.97054e-05
3.97074e-05
3.97089e-05
3.97098e-05
3.97102e-05
3.97101e-05
3.97096e-05
3.97088e-05
3.97079e-05
3.97071e-05
3.97063e-05
3.97057e-05
3.97051e-05
3.97044e-05
3.97034e-05
3.97021e-05
3.97003e-05
3.96977e-05
3.96942e-05
3.96897e-05
3.96839e-05
3.96761e-05
3.9666e-05
3.96542e-05
3.96404e-05
3.96243e-05
3.96056e-05
3.95841e-05
3.95591e-05
3.95296e-05
3.94949e-05
3.94543e-05
3.94081e-05
3.93572e-05
3.9304e-05
3.92508e-05
3.92009e-05
3.9158e-05
3.91206e-05
3.90833e-05
3.90432e-05
3.89919e-05
3.89229e-05
3.88428e-05
3.87627e-05
3.86773e-05
3.85389e-05
3.82704e-05
3.79206e-05
3.78416e-05
3.83445e-05
3.90535e-05
3.81969e-05
3.3784e-05
2.79337e-05
2.68554e-05
3.57501e-05
3.97033e-05
3.96966e-05
3.96891e-05
3.96808e-05
3.9672e-05
3.9663e-05
3.96544e-05
3.96467e-05
3.96402e-05
3.96352e-05
3.96316e-05
3.96294e-05
3.96282e-05
3.96278e-05
3.96277e-05
3.96278e-05
3.96278e-05
3.96276e-05
3.9627e-05
3.96261e-05
3.96247e-05
3.96229e-05
3.96207e-05
3.96183e-05
3.96154e-05
3.9612e-05
3.9608e-05
3.96033e-05
3.95979e-05
3.95914e-05
3.95838e-05
3.95748e-05
3.95643e-05
3.9552e-05
3.95378e-05
3.95214e-05
3.95026e-05
3.94811e-05
3.94565e-05
3.94286e-05
3.93969e-05
3.93612e-05
3.93212e-05
3.92777e-05
3.92313e-05
3.91835e-05
3.91369e-05
3.9092e-05
3.90499e-05
3.90107e-05
3.8969e-05
3.89176e-05
3.88522e-05
3.87702e-05
3.86791e-05
3.85926e-05
3.85028e-05
3.83778e-05
3.81492e-05
3.78073e-05
3.75833e-05
3.77864e-05
3.84551e-05
3.85064e-05
3.57797e-05
3.01128e-05
2.62574e-05
2.98508e-05
4.38457e-05
3.96483e-05
3.96425e-05
3.96365e-05
3.96302e-05
3.96232e-05
3.96154e-05
3.9607e-05
3.95983e-05
3.95894e-05
3.95808e-05
3.95728e-05
3.95655e-05
3.95592e-05
3.95537e-05
3.95489e-05
3.95447e-05
3.9541e-05
3.95376e-05
3.95343e-05
3.95309e-05
3.95273e-05
3.95233e-05
3.95189e-05
3.9514e-05
3.95086e-05
3.95025e-05
3.94956e-05
3.94878e-05
3.9479e-05
3.9469e-05
3.94577e-05
3.9445e-05
3.94305e-05
3.94142e-05
3.93961e-05
3.93759e-05
3.93535e-05
3.93287e-05
3.93013e-05
3.9271e-05
3.92378e-05
3.92015e-05
3.91624e-05
3.91212e-05
3.90782e-05
3.90346e-05
3.89912e-05
3.89461e-05
3.88991e-05
3.88475e-05
3.87843e-05
3.87046e-05
3.86091e-05
3.85041e-05
3.8407e-05
3.83111e-05
3.81874e-05
3.79847e-05
3.76691e-05
3.7382e-05
3.73663e-05
3.78215e-05
3.82343e-05
3.68302e-05
3.21954e-05
2.70037e-05
2.70907e-05
3.59609e-05
5.4522e-05
3.9586e-05
3.95794e-05
3.95732e-05
3.95673e-05
3.95613e-05
3.95552e-05
3.95486e-05
3.95414e-05
3.95335e-05
3.95251e-05
3.95163e-05
3.95072e-05
3.94982e-05
3.94892e-05
3.94806e-05
3.94721e-05
3.9464e-05
3.94562e-05
3.94485e-05
3.9441e-05
3.94334e-05
3.94257e-05
3.94177e-05
3.94093e-05
3.94004e-05
3.93909e-05
3.93806e-05
3.93695e-05
3.93574e-05
3.93442e-05
3.93297e-05
3.93138e-05
3.92962e-05
3.92771e-05
3.92562e-05
3.92337e-05
3.92092e-05
3.91828e-05
3.91541e-05
3.9123e-05
3.90895e-05
3.90533e-05
3.90146e-05
3.89733e-05
3.8929e-05
3.88822e-05
3.88316e-05
3.87744e-05
3.87087e-05
3.86313e-05
3.85379e-05
3.843e-05
3.83151e-05
3.8203e-05
3.81019e-05
3.79737e-05
3.77797e-05
3.74905e-05
3.71943e-05
3.70361e-05
3.72535e-05
3.77012e-05
3.71351e-05
3.37355e-05
2.83882e-05
2.59979e-05
3.13119e-05
4.51235e-05
6.74621e-05
3.9516e-05
3.95081e-05
3.95006e-05
3.94935e-05
3.94869e-05
3.94805e-05
3.94743e-05
3.94681e-05
3.94616e-05
3.94547e-05
3.94472e-05
3.94392e-05
3.94306e-05
3.94215e-05
3.94119e-05
3.9402e-05
3.93919e-05
3.93815e-05
3.93709e-05
3.93602e-05
3.93492e-05
3.9338e-05
3.93265e-05
3.93145e-05
3.93021e-05
3.92891e-05
3.92754e-05
3.9261e-05
3.92456e-05
3.92292e-05
3.92116e-05
3.91927e-05
3.91724e-05
3.91505e-05
3.91271e-05
3.91022e-05
3.90754e-05
3.90466e-05
3.90155e-05
3.89818e-05
3.8945e-05
3.89048e-05
3.88608e-05
3.88123e-05
3.87583e-05
3.86984e-05
3.86308e-05
3.8553e-05
3.84623e-05
3.83569e-05
3.82371e-05
3.81125e-05
3.79909e-05
3.78792e-05
3.77399e-05
3.7542e-05
3.72674e-05
3.69839e-05
3.67535e-05
3.67666e-05
3.70736e-05
3.69373e-05
3.46138e-05
2.98217e-05
2.60507e-05
2.83898e-05
3.91185e-05
5.70031e-05
8.20711e-05
3.94343e-05
3.94257e-05
3.94172e-05
3.94088e-05
3.94006e-05
3.93928e-05
3.93853e-05
3.93781e-05
3.93711e-05
3.93642e-05
3.93572e-05
3.93499e-05
3.93422e-05
3.93341e-05
3.93253e-05
3.9316e-05
3.93061e-05
3.92955e-05
3.92843e-05
3.92726e-05
3.92602e-05
3.92473e-05
3.92337e-05
3.92195e-05
3.92046e-05
3.91889e-05
3.91724e-05
3.91549e-05
3.91365e-05
3.91168e-05
3.9096e-05
3.90736e-05
3.90497e-05
3.90242e-05
3.89969e-05
3.89677e-05
3.89363e-05
3.89023e-05
3.88652e-05
3.88245e-05
3.87797e-05
3.87299e-05
3.86745e-05
3.86129e-05
3.85439e-05
3.84663e-05
3.83785e-05
3.82789e-05
3.8166e-05
3.80406e-05
3.79062e-05
3.77718e-05
3.76372e-05
3.74846e-05
3.72706e-05
3.7e-05
3.67346e-05
3.64805e-05
3.6346e-05
3.64578e-05
3.64476e-05
3.4901e-05
3.09497e-05
2.67191e-05
2.68479e-05
3.47168e-05
5.01116e-05
7.10962e-05
9.78459e-05
3.93358e-05
3.9327e-05
3.93181e-05
3.93089e-05
3.92997e-05
3.92904e-05
3.92812e-05
3.92722e-05
3.92633e-05
3.92546e-05
3.92461e-05
3.92376e-05
3.92291e-05
3.92204e-05
3.92114e-05
3.92019e-05
3.9192e-05
3.91814e-05
3.91701e-05
3.9158e-05
3.91451e-05
3.91313e-05
3.91166e-05
3.9101e-05
3.90843e-05
3.90665e-05
3.90476e-05
3.90274e-05
3.90058e-05
3.89827e-05
3.89578e-05
3.89312e-05
3.89025e-05
3.88717e-05
3.88386e-05
3.88028e-05
3.8764e-05
3.87217e-05
3.86753e-05
3.86243e-05
3.85681e-05
3.85059e-05
3.8437e-05
3.83607e-05
3.8276e-05
3.81817e-05
3.80762e-05
3.79582e-05
3.78274e-05
3.76863e-05
3.75388e-05
3.73812e-05
3.71983e-05
3.69644e-05
3.66962e-05
3.64399e-05
3.61825e-05
3.59565e-05
3.58809e-05
3.57997e-05
3.47159e-05
3.16231e-05
2.75756e-05
2.63091e-05
3.1663e-05
4.4604e-05
6.36921e-05
8.69132e-05
0.00011488
3.92163e-05
3.92072e-05
3.91979e-05
3.91883e-05
3.91784e-05
3.91682e-05
3.91577e-05
3.91471e-05
3.91363e-05
3.91254e-05
3.91145e-05
3.91036e-05
3.90926e-05
3.90815e-05
3.90702e-05
3.90587e-05
3.90468e-05
3.90344e-05
3.90213e-05
3.90075e-05
3.89929e-05
3.89774e-05
3.89607e-05
3.89429e-05
3.89238e-05
3.89033e-05
3.88813e-05
3.88576e-05
3.88321e-05
3.88047e-05
3.8775e-05
3.87429e-05
3.87083e-05
3.8671e-05
3.86305e-05
3.85866e-05
3.85388e-05
3.84866e-05
3.84296e-05
3.83673e-05
3.82989e-05
3.82238e-05
3.81415e-05
3.8051e-05
3.79515e-05
3.78414e-05
3.77194e-05
3.75846e-05
3.74376e-05
3.72784e-05
3.7102e-05
3.68941e-05
3.66429e-05
3.63633e-05
3.61012e-05
3.58311e-05
3.55489e-05
3.53151e-05
3.5058e-05
3.41702e-05
3.1806e-05
2.83314e-05
2.64241e-05
2.97687e-05
4.02457e-05
5.73967e-05
7.92647e-05
0.000103925
0.000131875
3.90714e-05
3.90616e-05
3.90515e-05
3.90412e-05
3.90305e-05
3.90194e-05
3.9008e-05
3.89961e-05
3.89837e-05
3.8971e-05
3.89579e-05
3.89445e-05
3.89307e-05
3.89166e-05
3.89022e-05
3.88873e-05
3.8872e-05
3.88561e-05
3.88396e-05
3.88223e-05
3.88041e-05
3.87849e-05
3.87645e-05
3.87429e-05
3.87198e-05
3.8695e-05
3.86685e-05
3.864e-05
3.86093e-05
3.85762e-05
3.85405e-05
3.85019e-05
3.84604e-05
3.84154e-05
3.83668e-05
3.83139e-05
3.82565e-05
3.8194e-05
3.8126e-05
3.80518e-05
3.79709e-05
3.78825e-05
3.7786e-05
3.76804e-05
3.75644e-05
3.74368e-05
3.72965e-05
3.71421e-05
3.69711e-05
3.6777e-05
3.65494e-05
3.62803e-05
3.59828e-05
3.5702e-05
3.54094e-05
3.50647e-05
3.4713e-05
3.42434e-05
3.33609e-05
3.15366e-05
2.88148e-05
2.68931e-05
2.88246e-05
3.69844e-05
5.19394e-05
7.24275e-05
9.62917e-05
0.000121744
0.000148999
3.88961e-05
3.88849e-05
3.88736e-05
3.88619e-05
3.885e-05
3.88376e-05
3.88247e-05
3.88114e-05
3.87975e-05
3.8783e-05
3.87679e-05
3.87522e-05
3.87359e-05
3.87189e-05
3.87013e-05
3.86829e-05
3.86638e-05
3.86439e-05
3.86231e-05
3.86014e-05
3.85785e-05
3.85545e-05
3.85291e-05
3.85022e-05
3.84736e-05
3.84432e-05
3.84107e-05
3.83759e-05
3.83387e-05
3.82987e-05
3.82556e-05
3.82093e-05
3.81596e-05
3.81058e-05
3.80478e-05
3.79849e-05
3.79167e-05
3.78428e-05
3.77624e-05
3.76749e-05
3.75795e-05
3.74754e-05
3.73616e-05
3.7237e-05
3.71005e-05
3.69503e-05
3.67842e-05
3.65975e-05
3.6383e-05
3.61329e-05
3.58433e-05
3.55232e-05
3.52127e-05
3.48692e-05
3.45082e-05
3.4043e-05
3.33587e-05
3.23652e-05
3.09061e-05
2.89709e-05
2.74909e-05
2.86224e-05
3.47657e-05
4.73524e-05
6.60345e-05
8.90538e-05
0.000114212
0.000139921
0.000166271
3.86821e-05
3.86692e-05
3.86561e-05
3.86427e-05
3.86288e-05
3.86145e-05
3.85997e-05
3.85843e-05
3.85683e-05
3.85516e-05
3.85342e-05
3.8516e-05
3.8497e-05
3.84771e-05
3.84562e-05
3.84344e-05
3.84115e-05
3.83874e-05
3.83622e-05
3.83356e-05
3.83077e-05
3.82782e-05
3.8247e-05
3.82141e-05
3.81791e-05
3.81419e-05
3.81023e-05
3.806e-05
3.80148e-05
3.79664e-05
3.79145e-05
3.78588e-05
3.77991e-05
3.77347e-05
3.76652e-05
3.75901e-05
3.75087e-05
3.74204e-05
3.73244e-05
3.72198e-05
3.71055e-05
3.69806e-05
3.68438e-05
3.66939e-05
3.65286e-05
3.63442e-05
3.61349e-05
3.58938e-05
3.56149e-05
3.5298e-05
3.49508e-05
3.45851e-05
3.42094e-05
3.38103e-05
3.32274e-05
3.23546e-05
3.12338e-05
3.00063e-05
2.88124e-05
2.80723e-05
2.89577e-05
3.35057e-05
4.37022e-05
6.01605e-05
8.18092e-05
0.000106585
0.000132381
0.000157842
0.000183009
3.84172e-05
3.84022e-05
3.83868e-05
3.8371e-05
3.83547e-05
3.83379e-05
3.83204e-05
3.83023e-05
3.82835e-05
3.82639e-05
3.82434e-05
3.8222e-05
3.81996e-05
3.81762e-05
3.81515e-05
3.81257e-05
3.80985e-05
3.80698e-05
3.80396e-05
3.80078e-05
3.79742e-05
3.79386e-05
3.79009e-05
3.7861e-05
3.78186e-05
3.77735e-05
3.77254e-05
3.76742e-05
3.76194e-05
3.75607e-05
3.74977e-05
3.74303e-05
3.73578e-05
3.72796e-05
3.71952e-05
3.71039e-05
3.70048e-05
3.68971e-05
3.67798e-05
3.66517e-05
3.65116e-05
3.63581e-05
3.61893e-05
3.6002e-05
3.57912e-05
3.55509e-05
3.5274e-05
3.49582e-05
3.46063e-05
3.42234e-05
3.38155e-05
3.34029e-05
3.28979e-05
3.2187e-05
3.11803e-05
2.99966e-05
2.89854e-05
2.84259e-05
2.85502e-05
2.96333e-05
3.30766e-05
4.10262e-05
5.4949e-05
7.46381e-05
9.84539e-05
0.000124224
0.000150051
0.000174818
0.000198462
3.80815e-05
3.80638e-05
3.80456e-05
3.80269e-05
3.80075e-05
3.79874e-05
3.79666e-05
3.7945e-05
3.79225e-05
3.7899e-05
3.78745e-05
3.78489e-05
3.78222e-05
3.77941e-05
3.77646e-05
3.77335e-05
3.77009e-05
3.76664e-05
3.76301e-05
3.75917e-05
3.7551e-05
3.75079e-05
3.74622e-05
3.74136e-05
3.73619e-05
3.73069e-05
3.72481e-05
3.71853e-05
3.7118e-05
3.70459e-05
3.69685e-05
3.68854e-05
3.67959e-05
3.66993e-05
3.65948e-05
3.64813e-05
3.63579e-05
3.62233e-05
3.60764e-05
3.59158e-05
3.57395e-05
3.55443e-05
3.5326e-05
3.50788e-05
3.47956e-05
3.44733e-05
3.41119e-05
3.37175e-05
3.32859e-05
3.28412e-05
3.2339e-05
3.17003e-05
3.08623e-05
2.98078e-05
2.87087e-05
2.79766e-05
2.80713e-05
2.89892e-05
3.05195e-05
3.33281e-05
3.93115e-05
5.05265e-05
6.77043e-05
8.98575e-05
0.000114997
0.000141039
0.000166368
0.000190077
0.000211979
3.76433e-05
3.7622e-05
3.76002e-05
3.75777e-05
3.75543e-05
3.75301e-05
3.75049e-05
3.74787e-05
3.74514e-05
3.74229e-05
3.73931e-05
3.73619e-05
3.73293e-05
3.7295e-05
3.7259e-05
3.72211e-05
3.71811e-05
3.7139e-05
3.70944e-05
3.70472e-05
3.69972e-05
3.69441e-05
3.68877e-05
3.68276e-05
3.67636e-05
3.66952e-05
3.66221e-05
3.65437e-05
3.64595e-05
3.63691e-05
3.6272e-05
3.61673e-05
3.60542e-05
3.59316e-05
3.57985e-05
3.56537e-05
3.54958e-05
3.53234e-05
3.51347e-05
3.49265e-05
3.46946e-05
3.44332e-05
3.41351e-05
3.37957e-05
3.34177e-05
3.30045e-05
3.25496e-05
3.20865e-05
3.15724e-05
3.09402e-05
3.01651e-05
2.92503e-05
2.829e-05
2.74631e-05
2.71797e-05
2.78593e-05
2.94197e-05
3.14686e-05
3.40397e-05
3.84515e-05
4.69523e-05
6.11507e-05
8.09094e-05
0.000104642
0.000130269
0.000155947
0.000180356
0.000202736
0.000222733
3.70493e-05
3.70233e-05
3.69966e-05
3.69689e-05
3.69401e-05
3.69103e-05
3.68792e-05
3.68468e-05
3.6813e-05
3.67776e-05
3.67406e-05
3.67019e-05
3.66612e-05
3.66184e-05
3.65734e-05
3.6526e-05
3.64759e-05
3.6423e-05
3.6367e-05
3.63076e-05
3.62446e-05
3.61775e-05
3.61061e-05
3.60299e-05
3.59484e-05
3.58613e-05
3.57679e-05
3.56674e-05
3.55593e-05
3.54433e-05
3.53182e-05
3.5183e-05
3.50364e-05
3.48772e-05
3.47039e-05
3.45148e-05
3.43079e-05
3.40804e-05
3.38281e-05
3.35437e-05
3.32198e-05
3.28541e-05
3.24475e-05
3.19971e-05
3.15156e-05
3.1044e-05
3.0507e-05
2.98721e-05
2.91245e-05
2.82872e-05
2.74691e-05
2.67757e-05
2.6462e-05
2.6825e-05
2.79916e-05
2.99561e-05
3.23885e-05
3.49559e-05
3.8245e-05
4.42086e-05
5.50784e-05
7.17081e-05
9.3158e-05
0.000117529
0.000142884
0.000167694
0.000190914
0.000211887
0.000230008
3.62079e-05
3.61752e-05
3.61416e-05
3.61068e-05
3.60705e-05
3.60328e-05
3.59934e-05
3.59524e-05
3.59095e-05
3.58645e-05
3.58175e-05
3.5768e-05
3.57161e-05
3.56615e-05
3.56039e-05
3.55431e-05
3.54788e-05
3.54107e-05
3.53386e-05
3.5262e-05
3.51805e-05
3.50937e-05
3.50011e-05
3.4902e-05
3.4796e-05
3.46823e-05
3.45601e-05
3.44284e-05
3.42869e-05
3.41344e-05
3.39693e-05
3.37902e-05
3.35953e-05
3.33829e-05
3.31506e-05
3.28959e-05
3.2614e-05
3.22967e-05
3.19374e-05
3.15354e-05
3.10914e-05
3.05994e-05
3.00817e-05
2.95858e-05
2.90297e-05
2.83984e-05
2.7682e-05
2.69548e-05
2.62816e-05
2.57281e-05
2.56184e-05
2.60295e-05
2.69879e-05
2.85251e-05
3.06455e-05
3.31818e-05
3.57606e-05
3.83517e-05
4.21683e-05
4.95524e-05
6.2342e-05
8.05378e-05
0.000102646
0.000126752
0.000151202
0.000174786
0.000196674
0.000216266
0.000232766
3.49528e-05
3.49107e-05
3.48673e-05
3.48222e-05
3.47752e-05
3.47262e-05
3.4675e-05
3.46216e-05
3.45657e-05
3.45071e-05
3.44456e-05
3.4381e-05
3.43131e-05
3.42415e-05
3.41659e-05
3.40861e-05
3.40017e-05
3.39122e-05
3.38172e-05
3.37161e-05
3.36086e-05
3.34938e-05
3.33712e-05
3.324e-05
3.30994e-05
3.29482e-05
3.27854e-05
3.26107e-05
3.24225e-05
3.22186e-05
3.1997e-05
3.17553e-05
3.14906e-05
3.12002e-05
3.0879e-05
3.05193e-05
3.01171e-05
2.96693e-05
2.91653e-05
2.8633e-05
2.81514e-05
2.76403e-05
2.70607e-05
2.64419e-05
2.58512e-05
2.5305e-05
2.47805e-05
2.45579e-05
2.47238e-05
2.52949e-05
2.62774e-05
2.76397e-05
2.93391e-05
3.13637e-05
3.36851e-05
3.60884e-05
3.82578e-05
4.05143e-05
4.45939e-05
5.29498e-05
6.6812e-05
8.5459e-05
0.000107163
0.000130202
0.000153252
0.000175373
0.000195886
0.000214207
0.000229393
3.29768e-05
3.29214e-05
3.28642e-05
3.28048e-05
3.27429e-05
3.26783e-05
3.26109e-05
3.25405e-05
3.24668e-05
3.23896e-05
3.23086e-05
3.22235e-05
3.21339e-05
3.20396e-05
3.194e-05
3.18348e-05
3.17235e-05
3.16055e-05
3.14803e-05
3.13471e-05
3.12052e-05
3.10539e-05
3.08922e-05
3.07192e-05
3.05337e-05
3.03346e-05
3.01206e-05
2.98891e-05
2.9637e-05
2.93617e-05
2.90606e-05
2.87302e-05
2.83657e-05
2.79662e-05
2.75289e-05
2.70403e-05
2.65031e-05
2.59804e-05
2.54996e-05
2.50133e-05
2.45697e-05
2.41389e-05
2.3671e-05
2.33442e-05
2.33102e-05
2.35202e-05
2.39913e-05
2.47359e-05
2.57513e-05
2.70047e-05
2.84408e-05
3.00074e-05
3.16866e-05
3.35034e-05
3.54385e-05
3.72506e-05
3.86347e-05
4.01017e-05
4.37927e-05
5.21904e-05
6.59162e-05
8.37679e-05
0.000104046
0.000125319
0.000146572
0.000167058
0.000186186
0.000203355
0.000217484
2.97261e-05
2.96546e-05
2.95807e-05
2.9504e-05
2.94242e-05
2.9341e-05
2.92543e-05
2.91638e-05
2.90693e-05
2.89704e-05
2.88669e-05
2.87583e-05
2.86443e-05
2.85244e-05
2.83982e-05
2.82652e-05
2.81247e-05
2.79762e-05
2.78189e-05
2.76521e-05
2.74749e-05
2.72862e-05
2.70851e-05
2.68714e-05
2.66425e-05
2.63936e-05
2.61226e-05
2.5828e-05
2.55084e-05
2.51644e-05
2.47971e-05
2.44027e-05
2.39833e-05
2.35592e-05
2.31451e-05
2.27564e-05
2.24082e-05
2.2097e-05
2.18256e-05
2.16948e-05
2.18018e-05
2.2044e-05
2.2422e-05
2.29381e-05
2.35961e-05
2.43932e-05
2.53184e-05
2.63482e-05
2.74448e-05
2.8563e-05
2.96707e-05
3.07758e-05
3.19267e-05
3.31659e-05
3.44159e-05
3.53384e-05
3.55545e-05
3.54291e-05
3.75171e-05
4.44726e-05
5.6509e-05
7.22328e-05
9.0051e-05
0.000108853
0.000127921
0.000146577
0.00016423
0.000180236
0.000193316
2.43509e-05
2.42686e-05
2.41837e-05
2.40958e-05
2.40049e-05
2.3911e-05
2.38143e-05
2.37148e-05
2.36122e-05
2.35064e-05
2.33971e-05
2.32838e-05
2.31663e-05
2.3044e-05
2.29165e-05
2.27832e-05
2.26438e-05
2.24976e-05
2.23441e-05
2.21825e-05
2.20124e-05
2.18333e-05
2.16442e-05
2.14444e-05
2.12362e-05
2.10253e-05
2.08151e-05
2.06082e-05
2.0408e-05
2.02258e-05
2.00658e-05
1.98975e-05
1.97622e-05
1.98315e-05
1.99962e-05
2.02198e-05
2.04991e-05
2.08339e-05
2.122e-05
2.16523e-05
2.21282e-05
2.26414e-05
2.31863e-05
2.37572e-05
2.43462e-05
2.49418e-05
2.55245e-05
2.60669e-05
2.65464e-05
2.69645e-05
2.73587e-05
2.77966e-05
2.83378e-05
2.89462e-05
2.93821e-05
2.91836e-05
2.77534e-05
2.46624e-05
2.44908e-05
2.83606e-05
3.63235e-05
4.82201e-05
6.22339e-05
7.71908e-05
9.30575e-05
0.000109193
0.000124954
0.000139517
0.000150739
1.63414e-05
1.62978e-05
1.62556e-05
1.62289e-05
1.62348e-05
1.62749e-05
1.63404e-05
1.64222e-05
1.65135e-05
1.66099e-05
1.67081e-05
1.6806e-05
1.69021e-05
1.69952e-05
1.70845e-05
1.71703e-05
1.72521e-05
1.73258e-05
1.73935e-05
1.74706e-05
1.75594e-05
1.76602e-05
1.77742e-05
1.79019e-05
1.80435e-05
1.81989e-05
1.83677e-05
1.85493e-05
1.87424e-05
1.89457e-05
1.91576e-05
1.93738e-05
1.95891e-05
1.98018e-05
2.00077e-05
2.02007e-05
2.03747e-05
2.0524e-05
2.0644e-05
2.07316e-05
2.07874e-05
2.08144e-05
2.08162e-05
2.07958e-05
2.07525e-05
2.06763e-05
2.05431e-05
2.03312e-05
2.00584e-05
1.97907e-05
1.96192e-05
1.96161e-05
1.97749e-05
1.99176e-05
1.94482e-05
1.71404e-05
1.57616e-05
1.51058e-05
1.42657e-05
1.4331e-05
1.66477e-05
2.2122e-05
2.90806e-05
3.68965e-05
4.54087e-05
5.4301e-05
6.3332e-05
7.22135e-05
7.99227e-05
1.28558e-05
1.29832e-05
1.31102e-05
1.32376e-05
1.33664e-05
1.34974e-05
1.3631e-05
1.37671e-05
1.39049e-05
1.40436e-05
1.41822e-05
1.43198e-05
1.44552e-05
1.45876e-05
1.47161e-05
1.48395e-05
1.49565e-05
1.50683e-05
1.51727e-05
1.52537e-05
1.53115e-05
1.53473e-05
1.53614e-05
1.53536e-05
1.53231e-05
1.52687e-05
1.51886e-05
1.50809e-05
1.49432e-05
1.47731e-05
1.45681e-05
1.43259e-05
1.40446e-05
1.37229e-05
1.33606e-05
1.2959e-05
1.25206e-05
1.20504e-05
1.15553e-05
1.10447e-05
1.0529e-05
1.00175e-05
9.51799e-06
9.03594e-06
8.5696e-06
8.10281e-06
7.61247e-06
7.09255e-06
6.57784e-06
6.09471e-06
5.64467e-06
5.17189e-06
4.9201e-06
5.04073e-06
5.07647e-06
4.80058e-06
4.49097e-06
4.20847e-06
4.03101e-06
3.17345e-06
3.95868e-06
5.3681e-06
6.91097e-06
8.24117e-06
1.03347e-05
1.24624e-05
1.46459e-05
1.68338e-05
1.94271e-05
4.02127e-05
4.02197e-05
4.02273e-05
4.02366e-05
4.02467e-05
4.02533e-05
4.02551e-05
4.02536e-05
4.0256e-05
4.02561e-05
4.02604e-05
4.02646e-05
4.02672e-05
4.02798e-05
4.0282e-05
4.02804e-05
4.02746e-05
4.02761e-05
4.02983e-05
4.03133e-05
4.03106e-05
4.02628e-05
4.02549e-05
4.02233e-05
4.01928e-05
4.01866e-05
4.02016e-05
4.02324e-05
4.02247e-05
4.02178e-05
4.02005e-05
4.01949e-05
4.01761e-05
4.01634e-05
4.01602e-05
4.01554e-05
4.01478e-05
4.01326e-05
4.01246e-05
4.01412e-05
4.01593e-05
4.01245e-05
4.00911e-05
4.00808e-05
4.00893e-05
4.00914e-05
4.00832e-05
4.00638e-05
4.00412e-05
4.0018e-05
4.0005e-05
3.99978e-05
3.99978e-05
3.99999e-05
4.00031e-05
4.00013e-05
3.99944e-05
3.9987e-05
3.99798e-05
4.02034e-05
4.02114e-05
4.02183e-05
4.02238e-05
4.02265e-05
4.02254e-05
4.02228e-05
4.02221e-05
4.02242e-05
4.02274e-05
4.02321e-05
4.02373e-05
4.02436e-05
4.02486e-05
4.02481e-05
4.02468e-05
4.02499e-05
4.0263e-05
4.02807e-05
4.02831e-05
4.02621e-05
4.02291e-05
4.02151e-05
4.0183e-05
4.01608e-05
4.01625e-05
4.01821e-05
4.02065e-05
4.02013e-05
4.01921e-05
4.01755e-05
4.01681e-05
4.01508e-05
4.01388e-05
4.01352e-05
4.01306e-05
4.01231e-05
4.01089e-05
4.00998e-05
4.01096e-05
4.01275e-05
4.01103e-05
4.00805e-05
4.00604e-05
4.00555e-05
4.00567e-05
4.00551e-05
4.00456e-05
4.00308e-05
4.00111e-05
3.99917e-05
3.99767e-05
3.99684e-05
3.99654e-05
3.99676e-05
3.99706e-05
3.99732e-05
3.99777e-05
3.99762e-05
4.01844e-05
4.01877e-05
4.01891e-05
4.01888e-05
4.01875e-05
4.01863e-05
4.01865e-05
4.01887e-05
4.01925e-05
4.01973e-05
4.02025e-05
4.02077e-05
4.02121e-05
4.02139e-05
4.02152e-05
4.02197e-05
4.02305e-05
4.02449e-05
4.02521e-05
4.02415e-05
4.02159e-05
4.01914e-05
4.01717e-05
4.01434e-05
4.01304e-05
4.01387e-05
4.01604e-05
4.018e-05
4.01755e-05
4.01642e-05
4.01484e-05
4.01397e-05
4.01239e-05
4.01125e-05
4.01085e-05
4.01039e-05
4.00966e-05
4.00835e-05
4.00736e-05
4.00781e-05
4.0093e-05
4.00877e-05
4.00652e-05
4.00429e-05
4.0029e-05
4.00233e-05
4.00212e-05
4.00165e-05
4.00083e-05
3.9996e-05
3.99799e-05
3.99627e-05
3.99481e-05
3.99381e-05
3.99328e-05
3.99312e-05
3.99331e-05
3.99382e-05
3.99429e-05
4.01462e-05
4.01461e-05
4.01455e-05
4.01451e-05
4.01456e-05
4.01474e-05
4.01505e-05
4.01548e-05
4.01595e-05
4.01644e-05
4.01692e-05
4.01735e-05
4.01769e-05
4.01804e-05
4.01864e-05
4.01963e-05
4.02084e-05
4.02163e-05
4.02121e-05
4.0194e-05
4.017e-05
4.01487e-05
4.01266e-05
4.01049e-05
4.01006e-05
4.0114e-05
4.01362e-05
4.01517e-05
4.01467e-05
4.01339e-05
4.01189e-05
4.01093e-05
4.00947e-05
4.00839e-05
4.00797e-05
4.0075e-05
4.00678e-05
4.00556e-05
4.00453e-05
4.00458e-05
4.00567e-05
4.0058e-05
4.00436e-05
4.00236e-05
4.00059e-05
3.9994e-05
3.99873e-05
3.99822e-05
3.99764e-05
3.99692e-05
3.99592e-05
3.99461e-05
3.99317e-05
3.99183e-05
3.99073e-05
3.98993e-05
3.98948e-05
3.9894e-05
3.98959e-05
4.00982e-05
4.00989e-05
4.01001e-05
4.01022e-05
4.01053e-05
4.01092e-05
4.01137e-05
4.01184e-05
4.0123e-05
4.01277e-05
4.01324e-05
4.01371e-05
4.01425e-05
4.01496e-05
4.01593e-05
4.01699e-05
4.01773e-05
4.0176e-05
4.01637e-05
4.01435e-05
4.0122e-05
4.01018e-05
4.00811e-05
4.00674e-05
4.00707e-05
4.00878e-05
4.01092e-05
4.0121e-05
4.01147e-05
4.0101e-05
4.00866e-05
4.00765e-05
4.0063e-05
4.00528e-05
4.00482e-05
4.00434e-05
4.00363e-05
4.0025e-05
4.00146e-05
4.00121e-05
4.00188e-05
4.00228e-05
4.00152e-05
3.99996e-05
3.99821e-05
3.9967e-05
3.99558e-05
3.99476e-05
3.99406e-05
3.99342e-05
3.99276e-05
3.99195e-05
3.99093e-05
3.98978e-05
3.9886e-05
3.98751e-05
3.98658e-05
3.9859e-05
3.98548e-05
4.00503e-05
4.00531e-05
4.00563e-05
4.00602e-05
4.00644e-05
4.00688e-05
4.00734e-05
4.00781e-05
4.00832e-05
4.00885e-05
4.00945e-05
4.01013e-05
4.01094e-05
4.01188e-05
4.01282e-05
4.01347e-05
4.01346e-05
4.01258e-05
4.01097e-05
4.00903e-05
4.0071e-05
4.00522e-05
4.0036e-05
4.00305e-05
4.004e-05
4.00593e-05
4.00789e-05
4.0087e-05
4.00792e-05
4.0065e-05
4.00512e-05
4.00408e-05
4.00284e-05
4.00187e-05
4.00139e-05
4.00088e-05
4.00019e-05
3.99912e-05
3.99808e-05
3.99761e-05
3.99793e-05
3.99833e-05
3.99802e-05
3.99694e-05
3.99543e-05
3.99388e-05
3.99254e-05
3.99142e-05
3.99046e-05
3.98964e-05
3.98895e-05
3.98832e-05
3.98765e-05
3.98686e-05
3.98596e-05
3.985e-05
3.98402e-05
3.98312e-05
3.98232e-05
4.0003e-05
4.00069e-05
4.00109e-05
4.00153e-05
4.00198e-05
4.00246e-05
4.00297e-05
4.00353e-05
4.00415e-05
4.00485e-05
4.00563e-05
4.00649e-05
4.0074e-05
4.00822e-05
4.00877e-05
4.00878e-05
4.0081e-05
4.00681e-05
4.00516e-05
4.0034e-05
4.00168e-05
4.00011e-05
3.99914e-05
3.99935e-05
4.00076e-05
4.00277e-05
4.00446e-05
4.00491e-05
4.00399e-05
4.00256e-05
4.00124e-05
4.0002e-05
3.99904e-05
3.99812e-05
3.99762e-05
3.99709e-05
3.99639e-05
3.99539e-05
3.99435e-05
3.99372e-05
3.99373e-05
3.99401e-05
3.99393e-05
3.99325e-05
3.99208e-05
3.99067e-05
3.98929e-05
3.98804e-05
3.9869e-05
3.98586e-05
3.98496e-05
3.98422e-05
3.98358e-05
3.98297e-05
3.98234e-05
3.98165e-05
3.9809e-05
3.98012e-05
3.97933e-05
3.99527e-05
3.99571e-05
3.99616e-05
3.99665e-05
3.99717e-05
3.99774e-05
3.99837e-05
3.99908e-05
3.99985e-05
4.00068e-05
4.00153e-05
4.00236e-05
4.00307e-05
4.00349e-05
4.00348e-05
4.00293e-05
4.00188e-05
4.00051e-05
3.99899e-05
3.99746e-05
3.99602e-05
3.99495e-05
3.99469e-05
3.99553e-05
3.99725e-05
3.99919e-05
4.00055e-05
4.00067e-05
3.99963e-05
3.99822e-05
3.99696e-05
3.99593e-05