/*--------------------------------*- C++ -*----------------------------------*\
| =========                 |                                                 |
| \\      /  F ield         | OpenFOAM: The Open Source CFD Toolbox           |
|  \\    /   O peration     | Version:  2312                                  |
|   \\  /    A nd           | Website:  www.openfoam.com                      |
|    \\/     M anipulation  |                                                 |
\*---------------------------------------------------------------------------*/
FoamFile
{
    version     2.0;
    format      ascii;
    arch        "LSB;label=32;scalar=64";
    class       volScalarField;
    location    "1000";
    object      p;
}
// * * * * * * * * * * * * * * * * * * * * * * * * * * * * * * * * * * * * * //

dimensions      [0 2 -2 0 0 0 0];

internalField   nonuniform List<scalar> 
76025
(
0.000255678
0.000251167
0.000246555
0.000242024
0.000237316
0.000232509
0.000227385
0.000222429
0.000217333
0.00021219
0.00020686
0.000201399
0.000195886
0.000190413
0.000184899
0.000179379
0.000173859
0.000168131
0.000162472
0.000156969
0.000151454
0.000145656
0.000139943
0.00013434
0.000128796
0.000123378
0.000117906
0.000112415
0.000107238
0.000101756
9.64924e-05
9.14883e-05
8.67141e-05
8.23719e-05
7.80964e-05
7.38728e-05
6.96451e-05
6.54559e-05
6.18361e-05
5.85148e-05
5.54653e-05
5.26142e-05
4.99925e-05
4.8049e-05
4.64863e-05
4.50396e-05
4.39456e-05
4.36236e-05
4.39449e-05
4.45253e-05
4.561e-05
4.7325e-05
4.97964e-05
5.32075e-05
5.75203e-05
6.26422e-05
6.85671e-05
7.54613e-05
8.33331e-05
9.22177e-05
0.000102762
0.000114189
0.000127927
0.000142895
0.000158997
0.000176486
0.000193537
0.000216829
0.000247676
0.000260964
0.000256057
0.000251165
0.000246312
0.00024135
0.000236189
0.00023096
0.000225673
0.000220237
0.000214692
0.000209051
0.000203393
0.000197724
0.000192012
0.000186235
0.000180433
0.000174512
0.000168614
0.000162659
0.000156772
0.00015076
0.000144784
0.000138888
0.00013306
0.00012725
0.000121476
0.000115747
0.000110181
0.000104642
9.9151e-05
9.3848e-05
8.8627e-05
8.36564e-05
7.8969e-05
7.42776e-05
6.97151e-05
6.52377e-05
6.11063e-05
5.74189e-05
5.39611e-05
5.07697e-05
4.77807e-05
4.51737e-05
4.30549e-05
4.12495e-05
3.97566e-05
3.86456e-05
3.81766e-05
3.82696e-05
3.88311e-05
3.99174e-05
4.16605e-05
4.41863e-05
4.75772e-05
5.18569e-05
5.70083e-05
6.30556e-05
7.01365e-05
7.82541e-05
8.75625e-05
9.8391e-05
0.000110588
0.000124506
0.000139937
0.000156594
0.000174878
0.000194396
0.000218557
0.00024646
0.000266343
0.000261137
0.000255947
0.000250784
0.000245508
0.000240077
0.000234508
0.000228818
0.000223032
0.000217166
0.00021125
0.000205297
0.00019929
0.000193219
0.000187088
0.000180881
0.000174638
0.000168378
0.000162108
0.000155818
0.000149535
0.0001433
0.00013711
0.000130959
0.000124848
0.000118794
0.000112831
0.000106949
0.000101128
9.54132e-05
8.98255e-05
8.43985e-05
7.91768e-05
7.41354e-05
6.92296e-05
6.45073e-05
6.00107e-05
5.57982e-05
5.18762e-05
4.82127e-05
4.48299e-05
4.17499e-05
3.90227e-05
3.66791e-05
3.47067e-05
3.31427e-05
3.20219e-05
3.14294e-05
3.13786e-05
3.18805e-05
3.29684e-05
3.47226e-05
3.72349e-05
4.05781e-05
4.48051e-05
4.996e-05
5.6092e-05
6.32956e-05
7.16528e-05
8.12896e-05
9.23861e-05
0.000105026
0.000119314
0.000135116
0.000152256
0.00017147
0.000192326
0.000217613
0.000244433
0.000271537
0.000266006
0.000260471
0.000254966
0.000249349
0.000243552
0.000237596
0.000231529
0.00022539
0.000219188
0.000212925
0.000206595
0.000200195
0.000193729
0.000187211
0.000180651
0.000174071
0.000167479
0.000160885
0.000154295
0.000147726
0.000141186
0.000134683
0.000128227
0.00012183
0.000115501
0.000109251
0.000103088
9.70292e-05
9.1094e-05
8.53054e-05
7.96953e-05
7.42694e-05
6.90238e-05
6.39604e-05
5.90907e-05
5.44374e-05
5.00267e-05
4.58876e-05
4.20385e-05
3.84941e-05
3.52712e-05
3.23906e-05
2.98826e-05
2.77711e-05
2.60814e-05
2.48413e-05
2.4101e-05
2.39054e-05
2.42895e-05
2.52903e-05
2.69691e-05
2.94036e-05
3.26671e-05
3.68262e-05
4.19445e-05
4.80873e-05
5.53464e-05
6.38253e-05
7.36519e-05
8.49753e-05
9.78935e-05
0.000112428
0.000128448
0.000146119
0.000166165
0.000188209
0.000214382
0.000240472
0.000276699
0.000270805
0.000264896
0.000259018
0.000253027
0.000246848
0.000240509
0.000234067
0.000227554
0.000220978
0.000214334
0.00020762
0.000200841
0.000194007
0.000187133
0.000180232
0.000173314
0.000166387
0.000159461
0.000152545
0.000145651
0.000138787
0.000131966
0.000125201
0.000118503
0.000111881
0.000105349
9.89217e-05
9.26143e-05
8.64374e-05
8.04128e-05
7.45648e-05
6.88994e-05
6.34176e-05
5.81239e-05
5.30279e-05
4.81543e-05
4.35351e-05
3.91991e-05
3.51639e-05
3.14402e-05
2.80417e-05
2.49874e-05
2.23034e-05
2.00162e-05
1.81545e-05
1.67534e-05
1.58557e-05
1.55049e-05
1.57412e-05
1.66085e-05
1.81632e-05
2.04738e-05
2.36122e-05
2.76516e-05
3.26675e-05
3.8742e-05
4.59733e-05
5.44751e-05
6.43762e-05
7.58028e-05
8.88414e-05
0.000103481
0.000119684
0.000137971
0.000158841
0.000182101
0.000209142
0.000234591
0.000281944
0.000275661
0.000269364
0.000263098
0.000256716
0.000250142
0.000243406
0.000236563
0.00022965
0.000222674
0.000215632
0.000208525
0.000201359
0.000194144
0.000186893
0.000179617
0.000172325
0.000165027
0.000157733
0.000150454
0.000143202
0.000135989
0.000128827
0.000121729
0.000114706
0.000107771
0.000100937
9.42169e-05
8.76229e-05
8.11676e-05
7.48767e-05
6.87719e-05
6.28571e-05
5.71326e-05
5.16047e-05
4.62863e-05
4.12035e-05
3.63848e-05
3.18515e-05
2.7618e-05
2.36958e-05
2.00992e-05
1.68475e-05
1.39653e-05
1.14815e-05
9.42817e-06
7.84025e-06
6.7556e-06
6.21467e-06
6.2602e-06
6.93949e-06
8.30782e-06
1.04301e-05
1.33787e-05
1.72312e-05
2.20713e-05
2.7991e-05
3.50955e-05
4.35043e-05
5.33444e-05
6.47262e-05
7.77216e-05
9.23262e-05
0.000108746
0.000127698
0.000149373
0.000173858
0.000201495
0.000226262
0.000287205
0.000280506
0.000273797
0.000267122
0.000260327
0.000253334
0.000246173
0.000238903
0.000231562
0.00022416
0.000216697
0.00020917
0.000201586
0.000193956
0.000186292
0.000178606
0.000170909
0.000163213
0.000155528
0.000147867
0.000140241
0.000132664
0.000125148
0.000117704
0.000110347
0.000103088
9.59401e-05
8.89157e-05
8.20277e-05
7.52929e-05
6.87383e-05
6.23782e-05
5.62111e-05
5.02374e-05
4.44656e-05
3.89107e-05
3.3599e-05
2.85556e-05
2.37988e-05
1.93422e-05
1.51979e-05
1.13806e-05
7.90977e-06
4.80953e-06
2.10823e-06
-1.63086e-07
-1.97121e-06
-3.28031e-06
-4.0512e-06
-4.241e-06
-3.80201e-06
-2.6795e-06
-8.09922e-07
1.87897e-06
5.46736e-06
1.00439e-05
1.57079e-05
2.25708e-05
3.07543e-05
4.03784e-05
5.1544e-05
6.43287e-05
7.88271e-05
9.55482e-05
0.000115083
0.000137452
0.00016279
0.000190398
0.000214637
0.000292413
0.000285269
0.000278118
0.000271005
0.00026377
0.000256329
0.000248715
0.000240992
0.000233199
0.000225348
0.000217438
0.000209466
0.000201439
0.000193369
0.000185269
0.000177154
0.000169035
0.000160925
0.000152835
0.000144778
0.000136766
0.000128811
0.000120928
0.000113127
0.000105423
9.78265e-05
9.03515e-05
8.3011e-05
7.58177e-05
6.87918e-05
6.19576e-05
5.53212e-05
4.88795e-05
4.26355e-05
3.66006e-05
3.07922e-05
2.52361e-05
1.99545e-05
1.49627e-05
1.02722e-05
5.89429e-06
1.84286e-06
-1.86351e-06
-5.20164e-06
-8.14455e-06
-1.06626e-05
-1.27239e-05
-1.42946e-05
-1.5337e-05
-1.58101e-05
-1.56672e-05
-1.48546e-05
-1.33099e-05
-1.09612e-05
-7.72668e-06
-3.51439e-06
1.7789e-06
8.26682e-06
1.60684e-05
2.52987e-05
3.60704e-05
4.85139e-05
6.29162e-05
7.99389e-05
9.97854e-05
0.000122516
0.000147797
0.000174284
0.000197804
0.00029755
0.000289934
0.000282311
0.000274729
0.000267022
0.000259105
0.000251012
0.000242808
0.000234537
0.000226212
0.00021783
0.00020939
0.000200898
0.000192367
0.000183812
0.000175249
0.000166689
0.000158145
0.00014963
0.000141157
0.000132738
0.000124387
0.000116117
0.00010794
9.98693e-05
9.19181e-05
8.40993e-05
7.64262e-05
6.89123e-05
6.1581e-05
5.4451e-05
4.75233e-05
4.07955e-05
3.42741e-05
2.79711e-05
2.19045e-05
1.60979e-05
1.05694e-05
5.33099e-06
3.92148e-07
-4.23698e-06
-8.54283e-06
-1.25073e-05
-1.61082e-05
-1.93199e-05
-2.21147e-05
-2.44632e-05
-2.63342e-05
-2.76929e-05
-2.85009e-05
-2.87135e-05
-2.82792e-05
-2.71371e-05
-2.52161e-05
-2.24349e-05
-1.8701e-05
-1.39116e-05
-7.95529e-06
-7.14789e-07
7.93759e-06
1.81602e-05
3.01902e-05
4.44938e-05
6.15587e-05
8.12905e-05
0.000103779
0.000127863
0.000152014
0.000172176
0.000302593
0.000294474
0.000286349
0.000278266
0.000270057
0.000261633
0.000253029
0.000244315
0.000235536
0.000226707
0.000217826
0.000208891
0.000199908
0.000190892
0.000181858
0.000172822
0.000163797
0.000154797
0.000145835
0.000136925
0.000128078
0.000119311
0.000110635
0.000102065
9.36126e-05
8.52923e-05
7.7117e-05
6.90994e-05
6.12557e-05
5.361e-05
4.61738e-05
3.89448e-05
3.19224e-05
2.51155e-05
1.85358e-05
1.22007e-05
6.13109e-06
3.41243e-07
-5.15946e-06
-1.03632e-05
-1.52605e-05
-1.98384e-05
-2.40797e-05
-2.7964e-05
-3.1468e-05
-3.45673e-05
-3.72359e-05
-3.94462e-05
-4.11671e-05
-4.23632e-05
-4.29935e-05
-4.3009e-05
-4.23518e-05
-4.09538e-05
-3.87363e-05
-3.56107e-05
-3.14784e-05
-2.62291e-05
-1.97331e-05
-1.18225e-05
-2.26796e-06
9.27006e-06
2.32361e-05
3.97514e-05
5.87915e-05
8.01653e-05
0.000102302
0.000124205
0.000142034
0.000307486
0.000298834
0.000290174
0.00028156
0.000272817
0.000263853
0.000254706
0.000245449
0.000236131
0.000226766
0.000217355
0.000207895
0.000198393
0.000188864
0.000179325
0.000169791
0.000160278
0.0001508
0.00014137
0.000132002
0.00012271
0.00011351
0.000104414
9.54357e-05
8.65896e-05
7.78884e-05
6.93456e-05
6.09735e-05
5.27919e-05
4.48215e-05
3.70668e-05
2.95242e-05
2.21964e-05
1.50939e-05
8.22742e-06
1.61411e-06
-4.72878e-06
-1.07906e-05
-1.65646e-05
-2.20448e-05
-2.72227e-05
-3.20866e-05
-3.66213e-05
-4.08085e-05
-4.46285e-05
-4.80604e-05
-5.10828e-05
-5.3672e-05
-5.58015e-05
-5.74403e-05
-5.85516e-05
-5.90911e-05
-5.90058e-05
-5.82333e-05
-5.6702e-05
-5.43298e-05
-5.10203e-05
-4.66519e-05
-4.10611e-05
-3.40302e-05
-2.52906e-05
-1.45309e-05
-1.57183e-06
1.35919e-05
3.10853e-05
5.03008e-05
7.02192e-05
9.07287e-05
0.000106887
0.000312169
0.000302947
0.000293721
0.000284542
0.000275232
0.000265695
0.000255971
0.000246139
0.000236248
0.000226316
0.000216343
0.000206328
0.000196278
0.000186208
0.000176136
0.00016608
0.000156055
0.000146075
0.000136156
0.000126312
0.000116558
0.000106908
9.73758e-05
8.79766e-05
7.87234e-05
6.96295e-05
6.0708e-05
5.19725e-05
4.34449e-05
3.51395e-05
2.70553e-05
1.91898e-05
1.15494e-05
4.14451e-06
-3.01499e-06
-9.91308e-06
-1.65367e-05
-2.28791e-05
-2.89361e-05
-3.47032e-05
-4.01737e-05
-4.53372e-05
-5.01807e-05
-5.46894e-05
-5.88474e-05
-6.26384e-05
-6.60459e-05
-6.90515e-05
-7.16341e-05
-7.37683e-05
-7.54235e-05
-7.65623e-05
-7.71396e-05
-7.71026e-05
-7.63885e-05
-7.4919e-05
-7.25881e-05
-6.92475e-05
-6.47035e-05
-5.87437e-05
-5.11811e-05
-4.19119e-05
-3.09284e-05
-1.80018e-05
-3.19977e-06
1.29887e-05
3.0611e-05
5.02247e-05
6.68147e-05
0.000316571
0.000306744
0.000296915
0.000287136
0.000277223
0.000267078
0.000256743
0.0002463
0.000235803
0.000225271
0.000214704
0.000204102
0.000193473
0.000182833
0.000172201
0.000161595
0.000151033
0.000140529
0.0001301
0.000119759
0.000109522
9.94049e-05
8.94217e-05
7.95867e-05
6.99135e-05
6.04156e-05
5.11053e-05
4.19994e-05
3.31188e-05
2.44697e-05
1.60484e-05
7.85533e-06
-1.00739e-07
-7.81112e-06
-1.52665e-05
-2.24533e-05
-2.93629e-05
-3.59921e-05
-4.23391e-05
-4.8401e-05
-5.41726e-05
-5.96456e-05
-6.48099e-05
-6.96546e-05
-7.41683e-05
-7.83406e-05
-8.21605e-05
-8.5616e-05
-8.86924e-05
-9.13719e-05
-9.3632e-05
-9.54451e-05
-9.67777e-05
-9.75873e-05
-9.78157e-05
-9.73778e-05
-9.61498e-05
-9.39741e-05
-9.07007e-05
-8.62494e-05
-8.0634e-05
-7.38888e-05
-6.57929e-05
-5.60685e-05
-4.48713e-05
-3.19547e-05
-1.6642e-05
1.19628e-06
1.48219e-05
0.000320612
0.00031014
0.000299668
0.000289251
0.000278698
0.000267908
0.000256925
0.000245834
0.000234694
0.000223527
0.000212333
0.000201113
0.000189874
0.000178633
0.000167412
0.00015623
0.000145105
0.000134053
0.00012309
0.000112233
0.000101496
9.08956e-05
8.04467e-05
7.01637e-05
6.00603e-05
5.01497e-05
4.04447e-05
3.09651e-05
2.17258e-05
1.27267e-05
3.96419e-06
-4.55818e-06
-1.28312e-05
-2.08487e-05
-2.86018e-05
-3.60802e-05
-4.32798e-05
-5.02e-05
-5.68413e-05
-6.32024e-05
-6.92797e-05
-7.50678e-05
-8.05602e-05
-8.57503e-05
-9.06328e-05
-9.5203e-05
-9.9457e-05
-0.00010339
-0.000106995
-0.000110264
-0.000113186
-0.000115744
-0.000117917
-0.000119666
-0.000120931
-0.00012162
-0.000121624
-0.000120867
-0.000119367
-0.000117249
-0.000114614
-0.000111285
-0.000106836
-0.000101045
-9.35289e-05
-8.34105e-05
-6.99271e-05
-5.33496e-05
-3.8312e-05
0.000324192
0.000313031
0.000301875
0.000290778
0.000279544
0.000268067
0.000256395
0.000244618
0.000232798
0.000220958
0.000209101
0.000197226
0.000185344
0.000173471
0.000161631
0.000149844
0.000138129
0.000126504
0.000114986
0.000103591
9.23352e-05
8.12351e-05
7.0306e-05
5.95624e-05
4.90179e-05
3.86853e-05
2.85803e-05
1.87223e-05
9.11835e-06
-2.35141e-07
-9.33953e-06
-1.81885e-05
-2.67745e-05
-3.50941e-05
-4.31394e-05
-5.09045e-05
-5.83895e-05
-6.55966e-05
-7.25281e-05
-7.91846e-05
-8.55647e-05
-9.1666e-05
-9.74863e-05
-0.000103024
-0.000108281
-0.000113258
-0.00011796
-0.00012239
-0.000126551
-0.000130445
-0.000134073
-0.000137429
-0.000140495
-0.000143237
-0.000145602
-0.00014754
-0.000149058
-0.000150273
-0.000151394
-0.000152571
-0.000153688
-0.000154301
-0.000153924
-0.000151986
-0.000147618
-0.000139967
-0.000128333
-0.000112342
-9.50391e-05
0.000327192
0.000315298
0.000303412
0.000291593
0.000279634
0.000267429
0.000255027
0.000242521
0.00022998
0.000217429
0.000204872
0.000192308
0.000179749
0.000167213
0.000154725
0.000142306
0.000129977
0.000117757
0.000105664
9.37139e-05
8.19249e-05
7.03133e-05
5.88949e-05
4.76843e-05
3.66951e-05
2.59401e-05
1.54377e-05
5.20167e-06
-4.76793e-06
-1.44751e-05
-2.39181e-05
-3.30894e-05
-4.19855e-05
-5.06039e-05
-5.89386e-05
-6.69884e-05
-7.47565e-05
-8.22475e-05
-8.9465e-05
-9.64115e-05
-0.000103088
-0.000109497
-0.000115639
-0.000121521
-0.000127149
-0.000132534
-0.000137687
-0.000142622
-0.000147351
-0.000151886
-0.000156234
-0.000160396
-0.000164364
-0.000168129
-0.000171711
-0.000175205
-0.00017882
-0.000182816
-0.000187357
-0.000192378
-0.000197489
-0.000202046
-0.000205315
-0.000206462
-0.000204735
-0.000199563
-0.000190038
-0.000175588
-0.000161337
0.00032946
0.000316781
0.000304116
0.000291525
0.000278794
0.000265813
0.000252633
0.000239353
0.000226046
0.00021274
0.000199441
0.000186149
0.000172875
0.00015964
0.000146469
0.000133386
0.000120414
0.000107573
9.48798e-05
8.23537e-05
7.00121e-05
5.78721e-05
4.59497e-05
3.42597e-05
2.28155e-05
1.1633e-05
7.30454e-07
-9.88604e-06
-2.02199e-05
-3.0273e-05
-4.00406e-05
-4.95173e-05
-5.8704e-05
-6.75991e-05
-7.62009e-05
-8.45129e-05
-9.25415e-05
-0.000100293
-0.000107774
-0.000114988
-0.00012194
-0.000128635
-0.000135081
-0.000141288
-0.000147273
-0.000153053
-0.000158646
-0.000164074
-0.000169354
-0.000174503
-0.000179534
-0.000184467
-0.00018934
-0.000194242
-0.000199358
-0.000204974
-0.000211368
-0.000218681
-0.000226891
-0.000235686
-0.000244331
-0.000251983
-0.000257919
-0.000261474
-0.000262219
-0.000259408
-0.000251787
-0.000239009
-0.000225426
0.000330848
0.000317333
0.000303841
0.00029043
0.000276881
0.000263078
0.000249075
0.000234977
0.000220862
0.000206761
0.000192682
0.000178626
0.000164605
0.00015064
0.00013676
0.000122991
0.000109356
9.58769e-05
8.25724e-05
6.94619e-05
5.6564e-05
4.38963e-05
3.14753e-05
1.93154e-05
7.42971e-06
-4.16422e-06
-1.5455e-05
-2.64435e-05
-3.71331e-05
-4.75228e-05
-5.76067e-05
-6.73845e-05
-7.68584e-05
-8.60275e-05
-9.48943e-05
-0.000103466
-0.00011175
-0.000119755
-0.000127488
-0.000134955
-0.000142164
-0.000149126
-0.000155853
-0.000162365
-0.000168682
-0.000174831
-0.000180834
-0.000186713
-0.000192489
-0.000198185
-0.000203843
-0.000209541
-0.00021543
-0.000221765
-0.000228884
-0.000237058
-0.000246393
-0.000256928
-0.000268431
-0.000280098
-0.00029102
-0.000300675
-0.00030859
-0.00031431
-0.000317324
-0.000316555
-0.000310621
-0.00029926
-0.000286517
0.000331072
0.000316658
0.000302274
0.000287983
0.000273555
0.00025887
0.000243984
0.00022901
0.00021403
0.000199081
0.00018417
0.0001693
0.000154485
0.000139747
0.000125117
0.000110622
9.62875e-05
8.21369e-05
6.81902e-05
5.44674e-05
4.09875e-05
2.77687e-05
1.48278e-05
2.18044e-06
-1.01555e-05
-2.21635e-05
-3.38397e-05
-4.51873e-05
-5.62077e-05
-6.68977e-05
-7.7255e-05
-8.7285e-05
-9.69912e-05
-0.000106377
-0.000115451
-0.000124223
-0.000132705
-0.000140906
-0.000148836
-0.000156503
-0.00016392
-0.000171102
-0.000178069
-0.000184844
-0.000191455
-0.000197931
-0.000204294
-0.000210568
-0.000216785
-0.000222998
-0.000229311
-0.000235901
-0.000243051
-0.0002511
-0.000260288
-0.000270718
-0.000282538
-0.00029562
-0.000309106
-0.000322051
-0.000334142
-0.000345231
-0.000354922
-0.000362573
-0.000367399
-0.000368309
-0.000364047
-0.000354139
-0.000342408
0.000330057
0.000314692
0.000299371
0.000284154
0.000268803
0.000253192
0.00023738
0.000221487
0.000205603
0.000189768
0.000173992
0.000158279
0.000142644
0.000127112
0.000111715
9.64839e-05
8.14466e-05
6.66271e-05
5.20478e-05
3.77298e-05
2.3693e-05
9.95596e-06
-3.46624e-06
-1.65593e-05
-2.93067e-05
-4.17005e-05
-5.37423e-05
-6.54345e-05
-7.67758e-05
-8.77632e-05
-9.83998e-05
-0.000108692
-0.000118643
-0.000128261
-0.000137557
-0.000146544
-0.000155233
-0.000163634
-0.00017176
-0.00017962
-0.000187232
-0.000194614
-0.000201794
-0.000208803
-0.000215676
-0.000222445
-0.000229145
-0.000235817
-0.000242522
-0.000249363
-0.0002565
-0.000264172
-0.000272644
-0.000282078
-0.000292601
-0.000304527
-0.000317867
-0.000331794
-0.000345406
-0.00035856
-0.000371446
-0.000383816
-0.000395033
-0.000404238
-0.000410472
-0.000412785
-0.000410119
-0.000401813
-0.000391568
0.000327062
0.000310661
0.000294311
0.000278081
0.000261725
0.000245106
0.000228288
0.000211398
0.000194533
0.000177738
0.000161026
0.000144402
0.000127881
0.000111491
9.52654e-05
7.9239e-05
6.34412e-05
4.78979e-05
3.26326e-05
1.76674e-05
3.02363e-06
-1.12778e-05
-2.52165e-05
-3.87716e-05
-5.19299e-05
-6.46898e-05
-7.7055e-05
-8.90261e-05
-0.000100603
-0.000111788
-0.000122593
-0.000133027
-0.000143098
-0.000152821
-0.000162212
-0.000171288
-0.000180062
-0.000188546
-0.000196752
-0.000204693
-0.000212387
-0.000219859
-0.000227148
-0.000234301
-0.000241371
-0.000248413
-0.000255483
-0.000262645
-0.000269986
-0.000277615
-0.000285675
-0.000294294
-0.000303511
-0.000313429
-0.000324461
-0.000336741
-0.000349602
-0.000362367
-0.000375108
-0.000388236
-0.000401757
-0.000415173
-0.000427581
-0.000438002
-0.000445358
-0.000448803
-0.000447558
-0.00044099
-0.000432557
0.000322624
0.000305136
0.000287729
0.000270456
0.000253057
0.000235394
0.000217534
0.000199614
0.000181738
0.000163959
0.000146293
0.000128747
0.000111338
9.40968e-05
7.70598e-05
6.02648e-05
4.37447e-05
2.75283e-05
1.16406e-05
-3.89608e-06
-1.90623e-05
-3.3843e-05
-4.8221e-05
-6.21805e-05
-7.57158e-05
-8.88273e-05
-0.000101515
-0.000113778
-0.000125616
-0.000137038
-0.000148052
-0.000158668
-0.000168901
-0.000178767
-0.000188282
-0.000197464
-0.000206324
-0.000214874
-0.000223126
-0.000231091
-0.000238794
-0.000246274
-0.000253595
-0.000260841
-0.000268106
-0.00027547
-0.000282993
-0.000290724
-0.000298716
-0.00030703
-0.00031567
-0.000324564
-0.000333727
-0.000343481
-0.00035393
-0.000364568
-0.000375065
-0.000385867
-0.000397618
-0.000410558
-0.000424396
-0.000438479
-0.000451851
-0.000463311
-0.000471625
-0.000475922
-0.000475771
-0.000470747
-0.000463921
0.00031445
0.000295766
0.000277152
0.000258707
0.000240154
0.000221335
0.00020232
0.000183253
0.00016425
0.00014537
0.000126634
0.000108051
8.96399e-05
7.14337e-05
5.3473e-05
3.57989e-05
1.8448e-05
1.45277e-06
-1.51572e-05
-3.1353e-05
-4.7106e-05
-6.23905e-05
-7.71876e-05
-9.14904e-05
-0.0001053
-0.00011862
-0.000131453
-0.000143804
-0.000155685
-0.000167111
-0.000178097
-0.000188659
-0.000198818
-0.000208594
-0.000218001
-0.000227053
-0.000235758
-0.000244123
-0.000252159
-0.000259885
-0.000267343
-0.0002746
-0.000281752
-0.000288921
-0.000296237
-0.000303804
-0.000311666
-0.000319781
-0.00032806
-0.000336471
-0.000344901
-0.000353208
-0.00036153
-0.000369961
-0.000378037
-0.000385542
-0.00039324
-0.000402133
-0.000412749
-0.000425131
-0.00043901
-0.00045365
-0.000467912
-0.000480354
-0.000489507
-0.000494362
-0.000494748
-0.000490811
-0.000485645
0.000305273
0.000285337
0.000265552
0.000245939
0.000226213
0.000206226
0.000186051
0.000165845
0.000145732
0.00012578
0.000106012
8.6441e-05
6.70877e-05
4.79884e-05
2.91876e-05
1.07287e-05
-7.3506e-06
-2.50197e-05
-4.22536e-05
-5.90308e-05
-7.53275e-05
-9.11164e-05
-0.000106377
-0.000121101
-0.000135282
-0.00014892
-0.000162016
-0.000174583
-0.000186636
-0.000198198
-0.000209294
-0.000219956
-0.000230218
-0.00024011
-0.000249655
-0.000258858
-0.000267711
-0.000276183
-0.000284238
-0.000291861
-0.000299095
-0.000306063
-0.00031295
-0.000319934
-0.000327117
-0.000334549
-0.000342302
-0.000350361
-0.000358357
-0.000365868
-0.000372854
-0.000379338
-0.000385407
-0.00039079
-0.000395297
-0.000399556
-0.000404654
-0.000411525
-0.000420722
-0.000432452
-0.000446476
-0.000461834
-0.000477013
-0.00049027
-0.000499872
-0.000504658
-0.00050466
-0.000500696
-0.000496054
0.000288788
0.000267424
0.000246142
0.000225113
0.000204016
0.000182652
0.000161095
0.000139522
0.000118075
9.68324e-05
7.58242e-05
5.50652e-05
3.45808e-05
1.44153e-05
-5.37421e-06
-2.47291e-05
-4.35978e-05
-6.19376e-05
-7.97151e-05
-9.69076e-05
-0.000113501
-0.000129488
-0.000144866
-0.000159631
-0.000173781
-0.000187317
-0.00020025
-0.000212596
-0.000224378
-0.000235629
-0.000246399
-0.000256751
-0.000266757
-0.000276497
-0.000286036
-0.000295406
-0.000304577
-0.000313437
-0.000321804
-0.000329495
-0.000336448
-0.00034285
-0.000349142
-0.000355717
-0.000362537
-0.000369201
-0.00037562
-0.000382247
-0.000388648
-0.000393737
-0.000397961
-0.000401646
-0.000404367
-0.000406145
-0.000407446
-0.000408917
-0.000411484
-0.000416264
-0.00042418
-0.000435658
-0.000450189
-0.000466308
-0.000482032
-0.000495319
-0.000504242
-0.000507658
-0.000505894
-0.000500338
-0.000494536
0.000273147
0.000250438
0.000227996
0.000205771
0.000183428
0.000160803
0.00013798
0.000115147
9.24614e-05
7.00169e-05
4.78517e-05
2.59789e-05
4.41357e-06
-1.68145e-05
-3.76589e-05
-5.80605e-05
-7.79506e-05
-9.72586e-05
-0.000115922
-0.000133888
-0.000151122
-0.000167604
-0.000183325
-0.000198285
-0.000212495
-0.000225975
-0.000238754
-0.000250865
-0.000262342
-0.000273223
-0.000283553
-0.00029339
-0.000302821
-0.000311975
-0.000321018
-0.000330133
-0.000339437
-0.000348887
-0.000358214
-0.000366948
-0.000374564
-0.00038083
-0.000386258
-0.000391874
-0.000397976
-0.00040354
-0.00040749
-0.000410619
-0.000413759
-0.000416206
-0.00041745
-0.000417746
-0.000417561
-0.000417056
-0.000416396
-0.000416151
-0.000417239
-0.000420825
-0.000428116
-0.000439672
-0.000454658
-0.000470999
-0.000486119
-0.000497746
-0.000504115
-0.000504327
-0.00049898
-0.000489927
-0.000481014
0.000242709
0.000218075
0.000193556
0.00016947
0.000145443
0.000121198
9.67839e-05
7.23922e-05
4.82002e-05
2.43222e-05
8.23546e-07
-2.2244e-05
-4.48164e-05
-6.68317e-05
-8.82641e-05
-0.000109116
-0.000129368
-0.000148976
-0.000167897
-0.000186099
-0.000203559
-0.000220249
-0.000236129
-0.000251165
-0.000265342
-0.000278657
-0.000291112
-0.000302723
-0.000313513
-0.000323519
-0.00033279
-0.000341397
-0.000349443
-0.000357091
-0.000364573
-0.00037217
-0.000380126
-0.000388507
-0.000397116
-0.00040546
-0.000412725
-0.000418045
-0.000421381
-0.000423959
-0.000426754
-0.000429343
-0.000430802
-0.000431158
-0.000430888
-0.000430223
-0.000429092
-0.000427457
-0.00042546
-0.000423376
-0.000421548
-0.000420696
-0.000421711
-0.000425236
-0.000432228
-0.000443606
-0.000458717
-0.000474748
-0.000488215
-0.000496658
-0.000498615
-0.000493479
-0.000482234
-0.000467413
-0.000453645
0.000219478
0.000193737
0.000168341
0.000142925
0.000117264
9.13636e-05
6.53734e-05
3.94734e-05
1.3805e-05
-1.15618e-05
-3.66188e-05
-6.13819e-05
-8.57794e-05
-0.00010963
-0.000132766
-0.000155083
-0.000176548
-0.000197158
-0.000216868
-0.000235604
-0.000253313
-0.000269966
-0.000285574
-0.000300169
-0.000313797
-0.000326523
-0.000338431
-0.000349613
-0.000360154
-0.000370114
-0.000379511
-0.000388319
-0.000396468
-0.000403883
-0.000410549
-0.000416566
-0.000422076
-0.00042699
-0.000431231
-0.000434922
-0.000438117
-0.000440487
-0.000441658
-0.000441707
-0.000440969
-0.000439966
-0.000439
-0.000438083
-0.000437119
-0.000435945
-0.00043436
-0.000432188
-0.000429349
-0.000426128
-0.000423171
-0.000421323
-0.000421401
-0.000423907
-0.000429731
-0.000440309
-0.000455505
-0.000471489
-0.000483108
-0.000487373
-0.000483201
-0.000470664
-0.000451535
-0.000429345
-0.000408512
0.000163028
0.000135087
0.000107369
7.99793e-05
5.2461e-05
2.46068e-05
-3.36356e-06
-3.11059e-05
-5.83862e-05
-8.51027e-05
-0.00011121
-0.000136652
-0.000161406
-0.000185467
-0.000208723
-0.000230973
-0.000252029
-0.000271782
-0.00029024
-0.000307457
-0.000323461
-0.000338252
-0.000351825
-0.000364166
-0.00037527
-0.000385148
-0.000393836
-0.000401401
-0.000407939
-0.000413568
-0.000418423
-0.000422643
-0.000426364
-0.000429714
-0.000432819
-0.000435805
-0.000438689
-0.000441283
-0.000443406
-0.000445001
-0.000446096
-0.000446723
-0.000446817
-0.000446284
-0.000445176
-0.000443669
-0.000441978
-0.000440236
-0.000438483
-0.000436714
-0.000434909
-0.000433025
-0.000430962
-0.000428624
-0.000426024
-0.000423508
-0.000421944
-0.000422559
-0.000426758
-0.000436736
-0.000453737
-0.000473808
-0.000489384
-0.000494271
-0.00048581
-0.000465611
-0.000437537
-0.000406302
-0.000377976
-0.000178315
-0.000169221
-0.000159458
-0.000149249
-0.000138381
-0.0001267
-0.000114112
-0.000100882
-8.71649e-05
-7.26218e-05
-5.71284e-05
-4.08369e-05
-2.4101e-05
-6.05739e-06
1.17919e-05
3.06406e-05
4.9446e-05
6.92296e-05
8.89597e-05
0.00010832
0.00012893
0.000148686
0.000168201
0.000186842
0.000204958
0.000222402
0.000238462
0.000253515
0.000267968
0.000280417
0.000291298
0.000300736
0.000309107
0.000316187
0.000321369
0.000325255
0.000328146
0.000329416
0.000329562
0.000329109
0.000327234
0.000325005
0.000322616
0.000319735
0.000315903
0.000312144
0.000307869
0.000303641
0.000299059
0.000294544
0.000290127
0.000285729
0.000281654
0.000277616
0.00027375
0.000269783
0.000266154
0.000262608
0.000259323
-0.000185642
-0.000176245
-0.000166187
-0.000155473
-0.000144034
-0.000131843
-0.00011884
-0.000105065
-9.05617e-05
-7.52791e-05
-5.92204e-05
-4.23556e-05
-2.47405e-05
-6.41302e-06
1.25382e-05
3.19326e-05
5.19911e-05
7.23389e-05
9.30382e-05
0.000113479
0.000134341
0.000155085
0.000175249
0.00019468
0.000213379
0.000231412
0.000248295
0.000263832
0.00027846
0.000291508
0.000302603
0.000312379
0.000320788
0.00032777
0.000333049
0.000336842
0.000339506
0.000340849
0.000340816
0.000339887
0.000338178
0.000335845
0.000332914
0.000329264
0.000325277
0.000321019
0.00031652
0.000311946
0.00030715
0.000302351
0.000297648
0.000293022
0.000288465
0.000284129
0.000279882
0.000275873
0.000272106
0.000268486
0.000265031
-0.0001936
-0.000183819
-0.000173381
-0.00016221
-0.000150284
-0.000137568
-0.000124058
-0.00010975
-9.46182e-05
-7.86508e-05
-6.18723e-05
-4.43047e-05
-2.59565e-05
-6.88755e-06
1.28311e-05
3.31921e-05
5.41031e-05
7.54143e-05
9.69286e-05
0.000118434
0.000140033
0.000161498
0.000182479
0.000202744
0.000222292
0.000240984
0.000258492
0.000274704
0.000289729
0.000303116
0.000314759
0.000324837
0.0003333
0.000340206
0.000345459
0.000349197
0.000351644
0.000352867
0.000352796
0.000351776
0.000349906
0.000347215
0.000343807
0.000339757
0.000335368
0.000330723
0.000325825
0.000320798
0.000315697
0.000310608
0.000305601
0.00030067
0.000295836
0.000291143
0.000286656
0.000282376
0.00027829
0.000274387
0.00027069
-0.000201937
-0.000191759
-0.000180894
-0.000169278
-0.00015688
-0.000143667
-0.000129625
-0.000114739
-9.89887e-05
-8.23636e-05
-6.48736e-05
-4.65403e-05
-2.73895e-05
-7.48772e-06
1.30881e-05
3.43149e-05
5.60803e-05
7.82896e-05
0.000100712
0.000123239
0.000145777
0.000168084
0.000189925
0.000211088
0.000231497
0.000250922
0.000269099
0.00028597
0.000301476
0.000315274
0.000327392
0.000337791
0.00034643
0.000353398
0.00035865
0.000362346
0.000364645
0.000365676
0.000365442
0.000364186
0.000361978
0.000358892
0.000355096
0.000350718
0.000345906
0.000340817
0.000335489
0.000330025
0.000324523
0.000319043
0.000313637
0.000308333
0.000303166
0.000298158
0.000293342
0.000288719
0.000284301
0.000280094
0.000276144
-0.000210985
-0.000200378
-0.000189051
-0.000176945
-0.000164029
-0.000150268
-0.000135638
-0.00012012
-0.0001037
-8.63727e-05
-6.81425e-05
-4.90235e-05
-2.90474e-05
-8.2772e-06
1.32125e-05
3.53512e-05
5.80469e-05
8.11857e-05
0.000104584
0.000128115
0.000151627
0.000174872
0.000197641
0.000219734
0.000240998
0.000261193
0.000280092
0.000297608
0.000313638
0.000327905
0.000340443
0.00035117
0.000360048
0.000367133
0.000372421
0.000376086
0.00037826
0.000379076
0.000378588
0.000376985
0.000374377
0.000370885
0.00036668
0.000361889
0.00035664
0.000351091
0.000345327
0.000339437
0.000333505
0.000327595
0.000321761
0.000316047
0.000310489
0.000305115
0.000299945
0.000294995
0.000290282
0.000285806
0.000281604
-0.000220968
-0.00020991
-0.000198093
-0.000185457
-0.000171974
-0.000157609
-0.000142336
-0.000126133
-0.000108987
-9.08951e-05
-7.18614e-05
-5.19019e-05
-3.10488e-05
-9.35719e-06
1.31006e-05
3.62371e-05
5.99506e-05
8.41091e-05
0.000108549
0.00013312
0.000157647
0.000181895
0.000205652
0.000228703
0.000250851
0.000271858
0.000291516
0.000309704
0.000326294
0.000341059
0.000354017
0.000365071
0.000374183
0.000381384
0.000386711
0.00039034
0.00039238
0.000392966
0.000392188
0.000390221
0.000387205
0.000383288
0.000378635
0.000373387
0.000367683
0.000361668
0.000355447
0.000349105
0.000342723
0.000336367
0.000330098
0.000323964
0.000318006
0.000312253
0.000306731
0.000301453
0.000296433
0.000291666
0.000287182
-0.000231932
-0.000220402
-0.000208074
-0.000194887