/*--------------------------------*- C++ -*----------------------------------*\
| =========                 |                                                 |
| \\      /  F ield         | OpenFOAM: The Open Source CFD Toolbox           |
|  \\    /   O peration     | Version:  2312                                  |
|   \\  /    A nd           | Website:  www.openfoam.com                      |
|    \\/     M anipulation  |                                                 |
\*---------------------------------------------------------------------------*/
FoamFile
{
    version     2.0;
    format      ascii;
    arch        "LSB;label=32;scalar=64";
    class       surfaceScalarField;
    location    "1000";
    object      phi;
}
// * * * * * * * * * * * * * * * * * * * * * * * * * * * * * * * * * * * * * //

dimensions      [0 3 -1 0 0 0 0];

oriented        oriented;

internalField   nonuniform List<scalar> 
116611
(
0.000915322
0.000429199
-0.000899414
-0.000445106
0.00093119
0.00042519
-0.000441058
0.000946917
0.000420867
-0.000436594
0.000962507
0.000416184
-0.000431774
0.000977845
0.000411172
-0.00042651
0.000993133
0.000405705
-0.000420992
0.00100805
0.000399885
-0.000414802
0.00102293
0.000393681
-0.000408559
0.00103746
0.000386992
-0.000401527
0.00105178
0.000379883
-0.000394204
0.00106582
0.000372292
-0.000386331
0.00107963
0.000364258
-0.000378067
0.00109311
0.00035574
-0.000369214
0.00110635
0.000346729
-0.000359977
0.00111927
0.000337219
-0.000350139
0.00113186
0.000327273
-0.000339858
0.00114427
0.0003167
-0.000329113
0.0011563
0.00030571
-0.000317735
0.00116793
0.000294014
-0.000305644
0.00117914
0.000281903
-0.000293116
0.00119011
0.000269045
-0.000280012
0.00120049
0.000255638
-0.000266019
0.00121043
0.000241606
-0.000251546
0.00121998
0.000227022
-0.000236573
0.001229
0.000211794
-0.000220815
0.00123764
0.000195928
-0.000204566
0.00124573
0.000179299
-0.000187387
0.00125305
0.000162126
-0.000169448
0.00126026
0.000144209
-0.000151424
0.00126679
0.00012553
-0.000132058
0.00127224
0.000106185
-0.000111632
0.00127708
8.60188e-05
-9.08562e-05
0.00128111
6.51436e-05
-6.91749e-05
0.00128456
4.37524e-05
-4.72063e-05
0.00128723
2.14671e-05
-2.4136e-05
0.00128902
-1.48338e-06
-3.10278e-07
0.00129026
-2.54562e-05
2.4223e-05
0.00129005
-5.03214e-05
5.05327e-05
0.00128907
-7.57241e-05
7.66988e-05
0.00128705
-0.000101981
0.000104004
0.00128407
-0.0001289
0.000131876
0.00128019
-0.000156718
0.000160602
0.00127459
-0.000185418
0.000191011
0.00126843
-0.000214502
0.000220669
0.001261
-0.000244476
0.000251899
0.00125277
-0.000275052
0.000283286
0.00124296
-0.000306585
0.000316396
0.00123227
-0.000338484
0.000349174
0.00122055
-0.000370963
0.000382679
0.00120761
-0.000404115
0.000417055
0.00119335
-0.000437938
0.000452205
0.00117754
-0.000472326
0.000488131
0.0011601
-0.000507108
0.000524549
0.00114102
-0.000542101
0.000561187
0.00111995
-0.000577205
0.00059827
0.00109775
-0.000612009
0.000634205
0.00107322
-0.000646935
0.000671472
0.00104711
-0.000681379
0.000707484
0.00101929
-0.00071542
0.000743247
0.000988649
-0.000749014
0.00077965
0.00095557
-0.000781733
0.000814813
0.000919916
-0.000813308
0.000848961
0.000883871
-0.000844835
0.00088088
0.000844782
-0.000877079
0.000916167
0.000798201
-0.000902112
0.000948693
0.000745663
-0.000906093
0.000958631
0.000693305
-0.000899924
0.000952281
0.000644869
-0.000930191
0.000978627
-0.000996023
0.000598813
0.00104208
0.00089885
0.000413359
-0.00088301
0.000914577
0.000409463
0.000930208
0.000405236
0.000945708
0.000400683
0.000961102
0.000395779
0.000976276
0.00039053
0.000991253
0.000384908
0.00100605
0.00037888
0.00102061
0.00037244
0.00103493
0.000365562
0.00104897
0.000358249
0.00106273
0.000350494
0.00107621
0.000342266
0.00108938
0.000333554
0.00110222
0.000324379
0.00111481
0.000314682
0.00112702
0.00030449
0.00113897
0.000293767
0.00115047
0.000282516
0.00116168
0.000270687
0.00117244
0.000258287
0.00118276
0.000245319
0.0011926
0.000231763
0.00120201
0.000217615
0.00121095
0.000202856
0.00121943
0.000187447
0.00122731
0.000171412
0.0012347
0.000154737
0.00124154
0.000137372
0.00124771
0.000119361
0.00125325
0.000100647
0.00125805
8.12112e-05
0.0012621
6.10971e-05
0.00126553
4.03192e-05
0.00126814
1.88653e-05
0.00127004
-3.38745e-06
0.00127105
-2.6468e-05
0.00127105
-5.03227e-05
0.00127022
-7.48945e-05
0.00126845
-0.000100204
0.00126579
-0.000126248
0.00126213
-0.000153049
0.00125732
-0.000180608
0.00125162
-0.000208809
0.00124485
-0.000237707
0.00123706
-0.000267262
0.001228
-0.000297519
0.00121785
-0.000328338
0.00120659
-0.0003597
0.00119409
-0.000391623
0.00118025
-0.000424093
0.00116494
-0.000457014
0.00114808
-0.000490247
0.00112961
-0.000523633
0.00110944
-0.000557039
0.00108771
-0.000590272
0.00106413
-0.000623362
0.00103884
-0.00065609
0.00101167
-0.00068825
0.000982296
-0.000719637
0.000950637
-0.000750074
0.000917433
-0.000780103
0.000883192
-0.000810594
0.000845326
-0.000839213
0.000799483
-0.000856269
0.0007473
-0.00085391
0.000699432
-0.000852055
0.000663208
-0.000893967
-0.000964892
0.000632077
0.000882774
0.000397572
-0.000866988
0.000898417
0.000393821
0.000913928
0.000389725
0.000929316
0.000385295
0.00094457
0.000380525
0.000959682
0.000375418
0.000974633
0.000369957
0.000989394
0.00036412
0.00100394
0.000357897
0.00101823
0.000351264
0.00103227
0.000344211
0.00104604
0.000336725
0.00105952
0.000328789
0.00107268
0.000320388
0.00108555
0.000311517
0.00109807
0.000302154
0.00111027
0.000292296
0.00112211
0.000281923
0.0011336
0.000271029
0.00114469
0.000259593
0.00115537
0.000247613
0.00116561
0.000235074
0.00117541
0.000221964
0.00118475
0.000208273
0.00119362
0.000193989
0.00120197
0.000179096
0.0012098
0.000163586
0.00121709
0.000147446
0.00122379
0.000130668
0.00122991
0.000113241
0.00123541
9.51518e-05
0.00124022
7.63996e-05
0.00124434
5.69734e-05
0.00124777
3.68943e-05
0.00125044
1.619e-05
0.00125236
-5.30156e-06
0.00125345
-2.75603e-05
0.00125369
-5.05613e-05
0.00125308
-7.42841e-05
0.00125159
-9.8715e-05
0.0012492
-0.000123858
0.00124586
-0.000149708
0.00124151
-0.000176265
0.00123619
-0.000203486
0.00122984
-0.000231354
0.00122243
-0.000259855
0.00121389
-0.000288978
0.00120423
-0.000318674
0.00119342
-0.000348889
0.00118139
-0.000379597
0.00116805
-0.000410749
0.00115329
-0.000442255
0.00113704
-0.000473995
0.00111924
-0.000505834
0.00109985
-0.000537653
0.00107891
-0.000569331
0.00105633
-0.000600783
0.00103205
-0.000631812
0.00100593
-0.00066213
0.000977852
-0.000691556
0.000948124
-0.000720346
0.000917276
-0.000749255
0.000884686
-0.000778005
0.000847006
-0.000801532
0.000801081
-0.000810345
0.000752061
-0.00080489
0.000712765
-0.000812759
0.000685851
-0.000867054
-0.000937555
0.000658514
0.000867118
0.000381743
-0.000851289
0.000882773
0.000378166
0.000898254
0.000374244
0.000913568
0.000369981
0.000928718
0.000365375
0.000943716
0.000360421
0.000958555
0.000355117
0.00097322
0.000349455
0.000987691
0.000343425
0.00100194
0.000337011
0.00101596
0.000330197
0.00102972
0.000322967
0.0010432
0.000315308
0.00105638
0.000307207
0.00106925
0.000298648
0.00108178
0.00028962
0.00109397
0.000280108
0.0011058
0.000270098
0.00111725
0.000259579
0.0011283
0.000248541
0.00113894
0.000236971
0.00114916
0.000224859
0.00115893
0.000212193
0.00116824
0.000198964
0.00117706
0.000185162
0.00118539
0.000170772
0.00119319
0.000155785
0.00120044
0.00014019
0.00120713
0.000123981
0.00121323
0.000107145
0.0012187
8.96783e-05
0.00122353
7.15745e-05
0.00122768
5.28218e-05
0.00123113
3.34431e-05
0.00123386
1.34549e-05
0.00123587
-7.30857e-06
0.00123711
-2.8799e-05
0.00123754
-5.09945e-05
0.00123714
-7.3885e-05
0.00123589
-9.7461e-05
0.00123375
-0.00012172
0.0012307
-0.000146654
0.00122669
-0.000172256
0.0012217
-0.0001985
0.00121571
-0.000225365
0.00120869
-0.000252833
0.00120059
-0.000280879
0.00119138
-0.000309461
0.00118102
-0.000338527
0.00116944
-0.000368024
0.00115658
-0.000397886
0.00114235
-0.000428027
0.0011267
-0.000458345
0.0011096
-0.000488734
0.00109104
-0.000519091
0.00107102
-0.000549305
0.00104946
-0.000579227
0.00102626
-0.000608615
0.00100135
-0.000637214
0.000974855
-0.000665064
0.000947229
-0.000692721
0.000918534
-0.00072056
0.000886927
-0.000746397
0.000848737
-0.000763343
0.000803486
-0.000765093
0.000760238
-0.000761642
0.000731376
-0.000783897
0.00071324
-0.000848918
-0.000913256
0.000688941
0.000851757
0.000365884
-0.000835899
0.000867465
0.000362458
0.000882995
0.000358713
0.000898335
0.000354641
0.000913479
0.000350231
0.000928427
0.000345473
0.000943181
0.000340363
0.000957743
0.000334894
0.000972108
0.00032906
0.000986266
0.000322853
0.0010002
0.000316261
0.0010139
0.000309273
0.00102733
0.000301876
0.00104048
0.000294056
0.00105333
0.000285799
0.00106586
0.000277092
0.00107804
0.000267921
0.00108987
0.000258271
0.00110132
0.000248131
0.00111237
0.000237487
0.00112301
0.000226329
0.00113323
0.000214645
0.00114299
0.000202426
0.0011523
0.00018966
0.00116112
0.000176338
0.00116945
0.000162448
0.00117725
0.000147981
0.00118451
0.000132929
0.00119121
0.000117282
0.00119732
0.000101032
0.00120282
8.41747e-05
0.0012077
6.67025e-05
0.00121191
4.86058e-05
0.00121545
2.99095e-05
0.00121829
1.06135e-05
0.00122042
-9.43765e-06
0.00122179
-3.01754e-05
0.00122238
-5.15861e-05
0.00122216
-7.36649e-05
0.00122111
-9.64055e-05
0.00121919
-0.000119802
0.00121638
-0.000143845
0.00121265
-0.000168524
0.00120797
-0.00019382
0.00120232
-0.00021971
0.00119565
-0.00024617
0.00118794
-0.000273167
0.00117914
-0.000300658
0.0011692
-0.000328587
0.00115807
-0.000356895
0.00114569
-0.000385512
0.00113203
-0.000414362
0.00111705
-0.000443361
0.00110073
-0.00047242
0.00108308
-0.000501438
0.00106405
-0.00053028
0.00104357
-0.000558745
0.00102154
-0.000586588
0.000998045
-0.000613713
0.000973426
-0.000640446
0.000947994
-0.000667289
0.000920896
-0.000693462
0.00088925
-0.000714751
0.000850327
-0.00072442
0.000807656
-0.000722422
0.000773478
-0.000727464
0.000756103
-0.000766523
0.000744108
-0.000836923
-0.000887907
0.000718759
0.000836805
0.000350101
-0.000821022
0.000852486
0.000346778
0.000868031
0.000343168
0.000883411
0.000339261
0.000898602
0.000335041
0.000913584
0.000330491
0.000928347
0.000325599
0.000942888
0.000320353
0.000957203
0.000314745
0.000971289
0.000308767
0.00098514
0.000302411
0.000998745
0.000295668
0.00101209
0.000288529
0.00102517
0.000280982
0.00103795
0.000273015
0.00105043
0.000264616
0.00106258
0.000255771
0.00107438
0.000246469
0.00108581
0.000236695
0.00109686
0.000226438
0.00110751
0.000215686
0.00111773
0.000204426
0.0011275
0.000192649
0.00113682
0.000180344
0.00114566
0.0001675
0.001154
0.000154107
0.00116182
0.000140157
0.00116911
0.000125641
0.00117584
0.00011055
0.001182
9.48783e-05
0.00118755
7.86203e-05
0.00119248
6.17691e-05
0.00119677
4.4317e-05
0.00120039
2.62926e-05
0.00120333
7.67124e-06
0.00120557
-1.16746e-05
0.00120707
-3.16752e-05
0.0012078
-5.23226e-05
0.00120775
-7.36133e-05
0.00120689
-9.5542e-05
0.00120519
-0.000118101
0.00120262
-0.000141281
0.00119917
-0.000165068
0.00119479
-0.000189444
0.00118947
-0.000214383
0.00118315
-0.000239857
0.00117581
-0.000265828
0.00116741
-0.000292251
0.00115789
-0.000319074
0.00114724
-0.000346238
0.0011354
-0.000373681
0.00112238
-0.000401337
0.00110815
-0.000429131
0.00109271
-0.000456977
0.00107602
-0.000484756
0.00105804
-0.000512297
0.00103868
-0.000539382
0.00101796
-0.000565867
0.000996144
-0.0005919
0.000973609
-0.000617911
0.000950064
-0.000643744
0.000923546
-0.000666944
0.000890981
-0.000682186
0.000852322
-0.000685761
0.000815703
-0.000685803
0.000793697
-0.000705458
0.000786862
-0.000759688
0.00077702
-0.000827081
-0.000858597
0.000747711
0.000822512
0.000334459
-0.00080687
0.000838071
0.000331219
0.000853528
0.000327711
0.000868861
0.000323928
0.000884041
0.00031986
0.000899043
0.00031549
0.000913841
0.000310801
0.000928417
0.000305777
0.000942755
0.000300407
0.000956845
0.000294677
0.000970678
0.000288578
0.000984246
0.0002821
0.000997541
0.000275233
0.00101055
0.000267969
0.00102327
0.000260297
0.00103568
0.000252206
0.00104777
0.000243685
0.00105952
0.000234722
0.0010709
0.000225306
0.00108192
0.000215426
0.00109253
0.000205069
0.00110273
0.000194224
0.0011125
0.000182881
0.00112182
0.000171028
0.00113066
0.000158655
0.00113902
0.000145754
0.00114686
0.000132313
0.00115418
0.000118327
0.00116094
0.000103785
0.00116714
8.8683e-05
0.00117274
7.30161e-05
0.00117773
5.67755e-05
0.00118209
3.99572e-05
0.00118579
2.25916e-05
0.00118884
4.62601e-06
0.00119119
-1.40293e-05
0.00119283
-3.33125e-05
0.00119373
-5.32185e-05
0.00119386
-7.37441e-05
0.0011932
-9.48835e-05
0.00119173
-0.000116628
0.00118941
-0.000138967
0.00118623
-0.000161885
0.00118215
-0.000185361
0.00117713
-0.000209369
0.00117115
-0.000233878
0.00116418
-0.00025885
0.00115617
-0.000284245
0.00114711
-0.000310014
0.00113698
-0.000336107
0.00112577
-0.000362468
0.00111346
-0.000389035
0.00110007
-0.000415734
0.00108555
-0.00044246
0.00106986
-0.00046907
0.00105295
-0.000495378
0.0010348
-0.000521232
0.0010156
-0.000546675
0.000995723
-0.00057202
0.00097516
-0.000597347
0.000952654
-0.000621238
0.000925517
-0.000639808
0.000892075
-0.000648744
0.000856549
-0.000650235
0.000830458
-0.000659711
0.000822152
-0.000697152
0.000822344
-0.00075988
0.000809617
-0.000814354
-0.000821861
0.000772882
0.000808991
0.000318928
-0.00079346
0.000824418
0.000315792
0.000839739
0.00031239
0.000854946
0.000308722
0.000870024
0.000304782
0.000884955
0.000300559
0.000899715
0.000296041
0.00091428
0.000291212
0.000928628
0.000286059
0.000942739
0.000280566
0.000956594
0.000274723
0.000970179
0.000268515
0.00098348
0.000261932
0.000996487
0.000254963
0.00100919
0.000247597
0.00102157
0.000239825
0.00103362
0.000231635
0.00104532
0.000223017
0.00105667
0.000213961
0.00106764
0.000204456
0.00107822
0.000194491
0.00108839
0.000184055
0.00109813
0.000173138
0.00110743
0.00016173
0.00111626
0.000149821
0.00112461
0.000137401
0.00113246
0.000124462
0.0011398
0.000110996
0.00114659
9.69939e-05
0.00115282
8.24515e-05
0.00115847
6.73636e-05
0.00116353
5.17208e-05
0.00116796
3.55242e-05
0.00117175
1.88009e-05
0.0011749
1.47274e-06
0.00117738
-1.65074e-05
0.00117916
-3.50906e-05
0.00118021
-5.42735e-05
0.00118052
-7.40523e-05
0.00118006
-9.44207e-05
0.0011788
-0.000115369
0.00117672
-0.000136885
0.00117378
-0.000158952
0.00116997
-0.000181549
0.00116525
-0.000204651
0.00115961
-0.000228229
0.00115301
-0.00025225
0.00114544
-0.000276678
0.00113689
-0.000301469
0.00112737
-0.00032658
0.00111685
-0.000351955
0.00110535
-0.000377528
0.00109283
-0.000403212
0.00107925
-0.000428882
0.00106456
-0.000454386
0.00104877
-0.000479584
0.00103201
-0.000504472
0.00101459
-0.000529255
0.000996638
-0.000554071
0.000977373
-0.000578082
0.000954635
-0.0005985
0.000926256
-0.000611429
0.000893896
-0.000616384
0.000866308
-0.000622647
0.000854624
-0.000648027
0.000858313
-0.000700841
0.000859728
-0.000761294
0.000839106
-0.000793733
-0.000774105
0.00079135
0.000796177
0.000303445
-0.000780694
0.000811529
0.00030044
0.000826749
0.00029717
0.000841836
0.000293635
0.000856784
0.000289833
0.000871588
0.000285756
0.000886233
0.000281395
0.000900705
0.00027674
0.000914984
0.00027178
0.000929049
0.000266501
0.000942881
0.000260891
0.000956459
0.000254937
0.000969763
0.000248627
0.000982777
0.000241949
0.000995485
0.00023489
0.00100787
0.000227439
0.00101992
0.000219585
0.00103162
0.000211317
0.00104296
0.000202625
0.00105391
0.000193499
0.00106448
0.000183928
0.00107463
0.000173901
0.00108436
0.00016341
0.00109365
0.000152444
0.00110247
0.000140994
0.00111082
0.00012905
0.00111868
0.000116605
0.00112603
0.000103651
0.00113284
9.01804e-05
0.0011391
7.61877e-05
0.0011448
6.16677e-05
0.00114991
4.66109e-05
0.00115441
3.10253e-05
0.00115828
1.49284e-05
0.00116153
-1.77793e-06
0.00116412
-1.90958e-05
0.00116602
-3.69939e-05
0.00116722
-5.5469e-05
0.00116768
-7.45168e-05
0.00116739
-9.41305e-05
0.00116632
-0.0001143
0.00116445
-0.000135014
0.00116176
-0.000156256
0.00115822
-0.000178008
0.00115381
-0.000200247
0.00114853
-0.000222949
0.00114237
-0.000246084
0.00113531
-0.000269619
0.00112735
-0.000293514
0.0011185
-0.000317724
0.00110873
-0.000342191
0.00109804
-0.000366837
0.00108639
-0.000391559
0.00107374
-0.00041623
0.00106009
-0.000440737
0.00104556
-0.000465058
0.00103041
-0.000489324
0.00101481
-0.000513654
0.000998255
-0.000537514
0.000979059
-0.000558886
0.000955085
-0.000574526
0.000926602
-0.000582946
0.000899797
-0.000589578
0.000885545
-0.000608395
0.00088891
-0.000651392
0.000898686
-0.000710617
0.000894156
-0.000756765
0.000862526
-0.000762102
-0.000719151
0.000807572
0.000783981
0.00028798
-0.000768515
0.000799306
0.000285115
0.000814482
0.000281993
0.000829503
0.000278614
0.000844365
0.000274971
0.000859063
0.000271058
0.00087359
0.000266868
0.000887939
0.000262391
0.000902099
0.00025762
0.000916056
0.000252544
0.000929793
0.000247154
0.000943294
0.000241437
0.000956539
0.000235382
0.00096951
0.000228978
0.000982189
0.000222211
0.000994556
0.000215071
0.0010066
0.000207545
0.00101829
0.000199623
0.00102962
0.000191292
0.00104058
0.000182543
0.00105114
0.000173365
0.0010613
0.000163747
0.00107103
0.00015368
0.00108031
0.000143155
0.00108915
0.000132161
0.00109751
0.000120691
0.00110537
0.000108737
0.00111274
9.62896e-05
0.00111957
8.33433e-05
0.00112587
6.98928e-05
0.0011316
5.59319e-05
0.00113676
4.14521e-05
0.00114132
2.64676e-05
0.00114527
1.09807e-05
0.0011486
-5.11337e-06
0.00115129
-2.17814e-05
0.0011533
-3.90083e-05
0.00115463
-5.67913e-05
0.00115524
-7.51262e-05
0.00115511
-9.40068e-05
0.00115424
-0.000113425
0.00115259
-0.000133369
0.00115016
-0.000153827
0.00114693
-0.000174781
0.0011429
-0.000196214
0.00113805
-0.000218101
0.00113238
-0.000240417
0.00112589
-0.000263127
0.00111857
-0.000286192
0.00111041
-0.000309562
0.00110139
-0.000333172
0.00109149
-0.000356933
0.00108067
-0.000380745
0.00106896
-0.000404521
0.00105647
-0.000428243
0.00104341
-0.000451994
0.00102993
-0.000475846
0.00101569
-0.000499412
0.000999365
-0.000521192
0.000979057
-0.000538579
0.000954399
-0.000549867
0.000929743
-0.00055829
0.000914617
-0.000574453
0.0009166
-0.000610377
0.000930218
-0.00066501
0.000936879
-0.000717279
0.000919374
-0.00073926
0.000874115
-0.000716842
-0.000653853
0.000808817
0.000772395
0.000272537
-0.000756952
0.000787701
0.000269809
0.000802858
0.000266837
0.000817853
0.000263618
0.000832678
0.000260147
0.000847322
0.000256414
0.000861779
0.000252411
0.000876041
0.000248129
0.0008901
0.000243561
0.000903948
0.000238697
0.000917572
0.000233529
0.000930961
0.000228048
0.000944101
0.000222243
0.000956975
0.000216103
0.000969568
0.000209618
0.000981862
0.000202777
0.00099384
0.000195567
0.00100548
0.000187978
0.00101678
0.000179999
0.0010277
0.000171618
0.00103824
0.000162826
0.00104838
0.00015361
0.0010581
0.000143962
0.00106738
0.000133872
0.00107621
0.00012333
0.00108457
0.000112329
0.00109245
0.000100859
0.00109983
8.89128e-05
0.00110669
7.64845e-05
0.00111301
6.35687e-05
0.00111878
5.01579e-05
0.00112399
3.62466e-05
0.00112861
2.18529e-05
0.00113263
6.95542e-06
0.00113605
-8.53301e-06
0.00113884
-2.45667e-05
0.00114097
-4.11407e-05
0.00114243
-5.82532e-05
0.0011432
-7.59011e-05
0.00114328
-9.40794e-05
0.00114263
-0.000112781
0.00114126
-0.000131997
0.00113915
-0.000151717
0.0011363
-0.000171924
0.00113268
-0.000192603
0.00112831
-0.000213729
0.00112317
-0.000235276
0.00111726
-0.000257211
0.00111055
-0.00027949
0.00110305
-0.00030206
0.00109473
-0.000324848
0.00108557
-0.000347776
0.00107561
-0.000370783
0.00106495
-0.000393862
0.00105378
-0.00041707
0.00104221
-0.000440427
0.00102997
-0.000463603
0.00101599
-0.000485436
0.000998672
-0.000503875
0.000977459
-0.000517366
0.000955558
-0.000527966
0.00094105
-0.000543782
0.000942142
-0.000575545
0.000957256
-0.000625491
0.000971202
-0.000678956
0.000965207
-0.000711284
0.000930205
-0.000704259
0.00087021
-0.000656847
-0.000578828
0.000795185
0.000761467
0.00025713
-0.00074606
0.000776743
0.000254532
0.000791875
0.000251705
0.00080685
0.000248644
0.000821653
0.000245343
0.000836274
0.000241793
0.0008507
0.000237985
0.000864921
0.000233908
0.000878926
0.000229555
0.000892707
0.000224916
0.000906253
0.000219983
0.000919553
0.000214747
0.000932597
0.000209199
0.000945372
0.000203328
0.000957865
0.000197125
0.000970062
0.00019058
0.000981946
0.000183682
0.000993504
0.000176421
0.00100472
0.000168785
0.00101557
0.000160764
0.00102605
0.000152348
0.00103614
0.000143525
0.00104581
0.000134287
0.00105506
0.000124624
0.00106386
0.000114525
0.00107221
0.000103983
0.00108008
9.29883e-05
0.00108746
8.15342e-05
0.00109433
6.9614e-05
0.00110068
5.7222e-05
0.00110648
4.43496e-05
0.00111174
3.0996e-05
0.00111641
1.7178e-05
0.00112052
2.84534e-06
0.00112404
-1.20495e-05
0.00112694
-2.74698e-05
0.00112921
-4.3415e-05
0.00113084
-5.98843e-05
0.00113182
-7.68757e-05
0.00113213
-9.43854e-05
0.00113175
-0.000112408
0.00113069
-0.000130934
0.00112893
-0.000149955
0.00112646
-0.000169455
0.00112327
-0.000189417
0.00111936
-0.000209819
0.00111472
-0.000230634
0.00110933
-0.000251826
0.0011032
-0.000273352
0.00109629
-0.000295155
0.00108862
-0.000317176
0.00108022
-0.000339379
0.00107121
-0.000361771
0.00106174
-0.00038439
0.00105188
-0.000407208
0.00104135
-0.000429902
0.00102929
-0.000451537
0.00101437
-0.000470525
0.000996135
-0.000485635
0.000977137
-0.000498368
0.000964252
-0.000515081
0.00096537
-0.000544899
0.00098107
-0.000591245
0.000999362
-0.000643783
0.00100207
-0.000681662
0.000977131
-0.000686347
0.000924554
-0.000651682
0.000852106
-0.000584398
-0.000492256
0.000765534
0.000751233
0.000241757
-0.00073586
0.000766476
0.00023929
0.000781576
0.000236604
0.000796522
0.000233698
0.0008113
0.000230565
0.000825898
0.000227195
0.000840302
0.00022358
0.0008545
0.00021971
0.000868479
0.000215576
0.000882228
0.000211168
0.000895734
0.000206477
0.000908986
0.000201495
0.000921973
0.000196212
0.000934683
0.000190618
0.000947104
0.000184704
0.000959223
0.000178461
0.000971027
0.000171878
0.000982504
0.000164944
0.000993637
0.000157651
0.00100441
0.000149987
0.00101482
0.000141943
0.00102483
0.000133509
0.00103445
0.000124673
0.00104364
0.000115428
0.00105241
0.000105764
0.00106072
9.56707e-05
0.00106857
8.51412e-05
0.00107593
7.41675e-05
0.0010828
6.2743e-05
0.00108916
5.0861e-05
0.001095
3.85127e-05
0.00110029
2.57033e-05
0.00110503
1.24396e-05
0.00110923
-1.3507e-06
0.00111285
-1.56701e-05
0.00111588
-3.05003e-05
0.00111831
-4.58419e-05
0.00112012
-6.1695e-05
0.0011213
-7.80582e-05
0.00112184
-9.49282e-05
0.00112173
-0.0001123
0.00112097
-0.000130166
0.00111953
-0.000148516
0.00111741
-0.000167337
0.0011146
-0.000186611
0.0011111
-0.000206317
0.00110689
-0.000226427
0.00110198
-0.000246908
0.00109634
-0.000267717
0.00109
-0.000288815
0.00108301
-0.000310184
0.00107547
-0.000331841
0.00106751
-0.000353813
0.00105915
-0.000376025
0.00105008
-0.00039814
0.00103955
-0.000419376
0.00102656
-0.000438543
0.00101084
-0.000454808
0.00099469
-0.000469481
0.000984038
-0.000487716
0.000986024
-0.000517068
0.0010021
-0.000560978
0.00102265
-0.000611797
0.00103097
-0.000652095
0.00101389
-0.000664583
0.000968807
-0.000641267
0.000902449
-0.000585324
0.000824537
-0.000506486
-0.000410814
0.000743095
0.000741707
0.000226409
-0.000726359
0.000756921
0.000224075
0.000771992
0.000221534
0.000786907
0.000218783
0.000801655
0.000215817
0.000816224
0.000212626
0.000830601
0.000209203
0.000844773
0.000205538
0.000858729
0.000201621
0.000872453
0.000197443
0.000885934
0.000192996
0.000899159
0.00018827
0.000912115
0.000183256
0.000924789
0.000177944
0.000937169
0.000172324
0.000949242
0.000166388
0.000960996
0.000160123
0.000972418
0.000153522
0.000983495
0.000146574
0.000994213
0.000139269
0.00100456
0.000131597
0.00101452
0.000123548
0.00102408
0.000115113
0.00103323
0.000106281
0.00104195
9.70447e-05
0.00105022
8.73939e-05
0.00105804
7.73205e-05
0.00106539
6.68169e-05
0.00107226
5.58764e-05
0.00107863
4.44909e-05
0.00108449
3.26535e-05
0.00108982
2.03737e-05
0.00109462
7.63841e-06
0.00109889
-5.62344e-06
0.00110261
-1.93861e-05
0.00110576
-3.36461e-05
0.00110832
-4.84049e-05
0.00111029
-6.36631e-05
0.00111165
-7.94198e-05
0.00111239
-9.56723e-05
0.00111251
-0.000112416
0.00111199
-0.000129644
0.00111082
-0.000147347
0.00110899
-0.000165513
0.00110651
-0.000184125
0.00110335
-0.000203163
0.00109953
-0.000222602
0.00109503
-0.000242414
0.00108989
-0.000262576
0.00108416
-0.000283085
0.00107794
-0.000303963
0.00107132
-0.000325219
0.00106425
-0.00034674
0.00105639
-0.000368164
0.00104708
-0.00038883
0.0010356
-0.000407904
0.00102204
-0.000424981
0.00100862
-0.000441389
0.00100057
-0.000461427
0.00100406
-0.000491208
0.00102055
-0.00053356
0.00104193
-0.000582355
0.00105314
-0.000623008
0.00104116
-0.000640115
0.00100184
-0.000625265
0.000940073
-0.000579495
0.000864704
-0.000509955
0.000783062
-0.000424845
-0.000326108
0.000698356
0.000732907
0.000211084
-0.000717582
0.000748098
0.000208884
0.000763143
0.000206489
0.000778031
0.000203895
0.000792751
0.000201097
0.00080729
0.000198087
0.000821637
0.000194856
0.000835779
0.000191395
0.000849705
0.000187695
0.000863401
0.000183748
0.000876853
0.000179543
0.00089005
0.000175073
0.000902978
0.000170328
0.000915623
0.000165299
0.000927973
0.000159974
0.000940014
0.000154346
0.000951735
0.000148403
0.000963121
0.000142136
0.000974159
0.000135536
0.000984838
0.00012859
0.000995144
0.000121291
0.00100506
0.000113628
0.00101459
0.000105592
0.00102369
9.71717e-05
0.00103238
8.83596e-05
0.00104063
7.91461e-05
0.00104843
6.95229e-05
0.00105576
5.94823e-05
0.00106262
4.90171e-05
0.00106899
3.81181e-05
0.00107486
2.67829e-05
0.00108022
1.50193e-05
0.00108507
2.78779e-06
0.0010894
-9.95088e-06
0.00109318
-2.31724e-05
0.00109641
-3.68788e-05
0.00109908
-5.10722e-05
0.00110117
-6.57534e-05
0.00110267
-8.09221e-05
0.00110358
-9.65762e-05
0.00110387
-0.000112712
0.00110355
-0.000129324
0.00110261
-0.000146403
0.00110104
-0.00016394
0.00109883
-0.000181919
0.00109599
-0.000200325
0.00109253
-0.000219141
0.00108848
-0.000238359
0.00108389
-0.000257986
0.00107884
-0.000278038
0.00107338
-0.0002985
0.00106738
-0.000319225
0.00106049
-0.000339842
0.00105212
-0.000359797
0.00104188
-0.000378589
0.00103023
-0.000396255
0.00101949
-0.000414244
0.00101429
-0.000436183
0.0010197
-0.000466844
0.00103662
-0.000508124
0.00105771
-0.000554654
0.00106951
-0.000594155
0.00105988
-0.000613372
0.00102419
-0.000604431
0.000966164
-0.000567237
0.000894069
-0.0005074
0.000815701
-0.000431587
0.0007351
-0.000344243
-0.000241922
0.000650914
0.000724883
0.000195783
-0.000709582
0.00074005
0.000193718
0.00075507
0.000191469
0.000769931
0.000189034
0.000784623
0.000186406
0.000799133
0.000183577
0.00081345
0.00018054
0.00082756
0.000177285
0.000841453
0.000173803
0.000855114
0.000170086
0.000868533
0.000166125
0.000881695
0.000161911
0.000894587
0.000157436
0.000907198
0.000152689
0.000919512
0.00014766
0.000931518
0.00014234
0.000943202
0.000136719
0.000954551
0.000130787
0.000965552
0.000124534
0.000976193
0.000117949
0.000986461
0.000111023
0.000996343
0.000103746
0.00100583
9.61073e-05
0.0010149
8.80977e-05
0.00102355
7.97078e-05
0.00103177
7.09284e-05
0.00103954
6.17509e-05
0.00104686
5.21677e-05
0.0010537
4.21706e-05
0.00106007
3.17508e-05
0.00106594
2.09109e-05
0.00107132
9.64688e-06
0.0010762
-2.09638e-06
0.00108057
-1.43179e-05
0.0010844
-2.70096e-05
0.0010877
-4.01748e-05
0.00109044
-5.38162e-05
0.00109263
-6.79356e-05
0.00109424
-8.25331e-05
0.00109527
-9.76077e-05
0.00109571
-0.000113157
0.00109557
-0.000129176
0.00109482
-0.000145658
0.00109348
-0.000162596
0.00109154
-0.00017998
0.00108902
-0.000197806
0.00108595
-0.000216075
0.00108239
-0.000234797
0.00107838
-0.000253973
0.00107389
-0.000273554
0.00106876
-0.000293369
0.0010626
-0.000313065
0.00105497
-0.000332212
0.0010458
-0.000350625
0.00103599
-0.000368778
0.001028
-0.000388264
0.00102585
-0.000412096
0.0010334
-0.000443738
0.00105058
-0.000484021
0.00107037
-0.000527916
0.00108074
-0.000565024
0.00107087
-0.000584279
0.00103641
-0.00057891
0.000980386
-0.000548411
0.000910426
-0.000497277
0.000834431
-0.000431404
0.000757806
-0.000354963
0.000682867
-0.000269304
-0.000168911
0.000609856
0.000717709
0.000180507
-0.000702433
0.000732849
0.000178578
0.000747841
0.000176476
0.000762675
0.0001742
0.000777338
0.000171743
0.000791817
0.000169097
0.000806102
0.000166255
0.000820179
0.000163208
0.000834036
0.000159946
0.00084766
0.000156461
0.00086104
0.000152746
0.000874161
0.00014879
0.000887012
0.000144585
0.000899579
0.000140122
0.000911849
0.00013539
0.000923809
0.00013038
0.000935447
0.000125082
0.000946749
0.000119485
0.000957703
0.00011358
0.000968296
0.000107356
0.000978516
0.000100803
0.000988351
9.39112e-05
0.000997789
8.66697e-05
0.00100682
7.9069e-05
0.00101543
7.10996e-05
0.0010236
6.27519e-05
0.00103134
5.40174e-05
0.00103862
4.48877e-05
0.00104543
3.53534e-05
0.00105177
2.54088e-05
0.00105763
1.50582e-05
0.001063
4.27462e-06
0.00106789
-6.98283e-06
0.00107227
-1.86983e-05
0.00107613
-3.08741e-05
0.00107947
-4.35137e-05
0.00108227
-5.66203e-05
0.00108453
-7.01959e-05
0.00108624
-8.42417e-05
0.00108739
-9.87576e-05
0.00108798
-0.000113742
0.001088
-0.000129193
0.00108745
-0.000145108
0.00108633
-0.000161485
0.00108468
-0.000178327
0.00108252
-0.000195641
0.00107987
-0.000213429
0.00107674
-0.000231669
0.00107305
-0.000250276
0.00106856
-0.000269067
0.00106294
-0.000287753
0.00105595
-0.000306071
0.00104787
-0.000324131
0.00104003
-0.000342785
0.00103499
-0.000363743
0.0010361
-0.000389367
0.00104578
-0.000421781
0.00106277
-0.00046073
0.00108015
-0.000501396
0.00108724
-0.000535004
0.00107478
-0.000552574
0.00103923
-0.000548726
0.000983377
-0.000523055
0.000914198
-0.000479232
0.000839361
-0.00042244
0.000764452
-0.000356494
0.000692476
-0.000282987
0.000624259
-0.000201088
-0.000103395
0.000558743
0.000711444
0.000165254
-0.000696191
0.00072656
0.000163462
0.000741526
0.00016151
0.000756331
0.000159395
0.000770964
0.00015711
0.000785412
0.00015465
0.000799663
0.000152004
0.000813704
0.000149166
0.000827524
0.000146126
0.000841108
0.000142877
0.000854445
0.000139409