/*--------------------------------*- C++ -*----------------------------------*\
| =========                 |                                                 |
| \\      /  F ield         | OpenFOAM: The Open Source CFD Toolbox           |
|  \\    /   O peration     | Version:  2312                                  |
|   \\  /    A nd           | Website:  www.openfoam.com                      |
|    \\/     M anipulation  |                                                 |
\*---------------------------------------------------------------------------*/
FoamFile
{
    version     2.0;
    format      ascii;
    arch        "LSB;label=32;scalar=64";
    class       volVectorField;
    location    "1000";
    object      U;
}
// * * * * * * * * * * * * * * * * * * * * * * * * * * * * * * * * * * * * * //

dimensions      [0 1 -1 0 0 0 0];

internalField   nonuniform List<vector> 
76025
(
(0.0339871 -0.00280383 0)
(0.0341062 -0.00291026 8.65848e-22)
(0.0342326 -0.00301571 0)
(0.0343602 -0.00311798 0)
(0.0344898 -0.00321642 -1.52223e-21)
(0.03462 -0.00331007 -2.85251e-21)
(0.034752 -0.00340508 4.87185e-21)
(0.0348887 -0.003492 -2.04732e-21)
(0.0350223 -0.00357906 -6.3426e-22)
(0.0351596 -0.00366011 6.02003e-22)
(0.0352959 -0.00373842 1.70946e-24)
(0.0354348 -0.0038114 1.55722e-21)
(0.035575 -0.00388377 -2.08966e-21)
(0.0357158 -0.00394843 0)
(0.035859 -0.00400771 4.44754e-22)
(0.0360025 -0.00406899 0)
(0.0361476 -0.00411833 0)
(0.0362971 -0.00417143 0)
(0.0364453 -0.00421688 3.38481e-22)
(0.0365918 -0.0042648 -2.93164e-22)
(0.0367383 -0.00430233 -2.63154e-22)
(0.036888 -0.00433834 -7.06751e-22)
(0.0370366 -0.00436587 4.55959e-22)
(0.0371851 -0.00438818 5.16176e-22)
(0.0373327 -0.00440984 -5.65137e-23)
(0.0374794 -0.0044298 6.11057e-23)
(0.0376286 -0.00443605 -2.90569e-22)
(0.0377738 -0.00444414 2.66942e-22)
(0.0379185 -0.00444511 -6.45867e-23)
(0.0380713 -0.00442839 4.15149e-23)
(0.0382114 -0.00443099 8.37311e-24)
(0.0383391 -0.00443174 9.65666e-23)
(0.0384654 -0.00441159 -1.70529e-22)
(0.0385868 -0.00439831 -5.7291e-23)
(0.0387071 -0.00436789 2.88612e-22)
(0.0388197 -0.00434646 1.26133e-23)
(0.0389299 -0.00432448 -6.62362e-23)
(0.0390325 -0.00429207 4.92326e-23)
(0.03912 -0.00426218 1.14008e-23)
(0.0391989 -0.00422432 -7.5609e-23)
(0.0392686 -0.00418654 5.22263e-23)
(0.039333 -0.00415147 -2.54265e-23)
(0.0393814 -0.00410604 5.28102e-23)
(0.0394155 -0.00406388 -1.09419e-22)
(0.0394431 -0.00401821 -1.2745e-22)
(0.0394652 -0.00397291 2.13539e-22)
(0.0394784 -0.00392933 2.59515e-22)
(0.0394749 -0.00387831 -7.98744e-22)
(0.0394659 -0.00382823 4.52753e-22)
(0.0394509 -0.0037825 -5.80203e-23)
(0.0394238 -0.0037375 -1.24443e-21)
(0.0393795 -0.00369469 -4.25405e-22)
(0.0393128 -0.00365651 5.35903e-22)
(0.0392227 -0.00362075 0)
(0.0390972 -0.00358202 -3.65659e-22)
(0.0389491 -0.00353783 -4.75595e-22)
(0.0387729 -0.00349868 6.06349e-23)
(0.0385559 -0.0034587 -3.6116e-22)
(0.0383122 -0.00342241 2.87589e-22)
(0.038021 -0.00339008 -6.33611e-22)
(0.0376739 -0.0034059 -6.25057e-22)
(0.0372458 -0.0033879 -4.0287e-22)
(0.0367974 -0.00341067 0)
(0.0363812 -0.00348555 9.60503e-23)
(0.0357843 -0.00353415 6.42006e-22)
(0.0346992 -0.00337928 -1.07184e-22)
(0.0332733 -0.00315386 8.77464e-22)
(0.0323292 -0.00346899 -2.82243e-22)
(0.0324657 -0.00425916 -1.86614e-21)
(0.0338093 -0.0030377 9.39263e-22)
(0.0339358 -0.00314789 2.64168e-21)
(0.034067 -0.00325612 -3.50341e-21)
(0.034202 -0.00336058 0)
(0.0343392 -0.00346192 3.88976e-21)
(0.0344815 -0.00355927 -1.2089e-22)
(0.0346237 -0.00365321 -2.94492e-21)
(0.0347676 -0.0037438 0)
(0.0349129 -0.0038305 -3.01436e-24)
(0.0350593 -0.00391378 -6.16797e-22)
(0.0352071 -0.00399259 5.83802e-22)
(0.0353555 -0.00406689 2.00755e-24)
(0.0355037 -0.0041377 0)
(0.0356525 -0.00420405 0)
(0.035803 -0.00426458 8.45455e-22)
(0.0359528 -0.00432293 -2.16075e-21)
(0.0361061 -0.00437468 -3.81236e-22)
(0.0362588 -0.00442425 1.02877e-21)
(0.0364135 -0.00446741 -6.80703e-22)
(0.0365665 -0.00450874 2.99676e-22)
(0.0367214 -0.00454415 -2.20717e-22)
(0.0368755 -0.00457549 4.90866e-22)
(0.0370282 -0.00460167 -3.66128e-22)
(0.0371797 -0.00462282 4.94492e-22)
(0.037331 -0.00463917 -3.06837e-22)
(0.037482 -0.00465205 -3.04928e-22)
(0.0376325 -0.00465881 1.85948e-22)
(0.0377799 -0.00466179 0)
(0.0379261 -0.00466004 0)
(0.0380708 -0.00465352 -3.16121e-23)
(0.0382097 -0.00464642 0)
(0.0383449 -0.00463366 -9.23452e-23)
(0.038475 -0.00461416 1.12547e-22)
(0.0386002 -0.00458902 -1.90089e-22)
(0.0387222 -0.00455713 2.34975e-23)
(0.038839 -0.0045243 -7.99635e-23)
(0.0389505 -0.00448892 0)
(0.0390523 -0.00445432 -2.29129e-22)
(0.0391439 -0.00441535 1.84933e-22)
(0.0392284 -0.00437259 -1.53128e-22)
(0.0393062 -0.00432661 9.93641e-23)
(0.0393769 -0.0042776 2.28407e-24)
(0.0394366 -0.00423036 3.93792e-23)
(0.039486 -0.00417599 -3.65911e-23)
(0.039528 -0.00412044 3.2289e-22)
(0.0395614 -0.00406115 -1.67858e-22)
(0.039584 -0.00400362 -1.89232e-22)
(0.0395929 -0.00394157 2.89572e-22)
(0.0395909 -0.00387694 9.52383e-22)
(0.0395779 -0.00381195 -2.65211e-23)
(0.0395508 -0.00374841 9.12543e-22)
(0.0395054 -0.00368685 -3.07781e-22)
(0.0394379 -0.00362596 -8.45705e-22)
(0.0393448 -0.00356319 5.96964e-22)
(0.0392235 -0.00349959 0)
(0.0390709 -0.00342854 1.65998e-21)
(0.0388888 -0.00336159 -2.17901e-23)
(0.0386709 -0.00329289 -5.16072e-22)
(0.0384153 -0.00322402 -5.63038e-22)
(0.0381146 -0.00316237 0)
(0.0377526 -0.00310406 2.51186e-22)
(0.0373476 -0.00306862 9.37452e-22)
(0.0369427 -0.00306055 0)
(0.0365233 -0.0030731 -3.00193e-22)
(0.035838 -0.00299532 7.03468e-22)
(0.0345546 -0.002695 -2.83676e-22)
(0.0330735 -0.0024339 1.12975e-22)
(0.0326035 -0.0028659 2.88085e-22)
(0.0333365 -0.00346645 5.56771e-22)
(0.0336262 -0.00328218 -4.77676e-21)
(0.0337607 -0.00339582 2.85474e-21)
(0.0338983 -0.00350719 -9.00812e-22)
(0.0340389 -0.00361426 3.36357e-21)
(0.034183 -0.00371749 -4.16245e-21)
(0.0343315 -0.00381713 -3.05747e-21)
(0.0344833 -0.00391269 3.78285e-21)
(0.0346376 -0.00400427 0)
(0.0347939 -0.00409159 -5.7957e-25)
(0.0349512 -0.00417483 0)
(0.0351094 -0.00425373 -5.92596e-22)
(0.0352683 -0.00432809 5.60718e-22)
(0.0354277 -0.00439778 2.54277e-21)
(0.0355874 -0.00446295 -2.0183e-21)
(0.0357477 -0.00452312 4.5702e-22)
(0.0359083 -0.00457848 1.22203e-21)
(0.0360695 -0.00462911 -4.0943e-22)
(0.0362308 -0.00467489 -3.5503e-22)
(0.0363924 -0.00471591 -8.92716e-22)
(0.0365541 -0.00475183 5.91017e-22)
(0.0367154 -0.00478301 2.31797e-22)
(0.0368755 -0.00480938 -3.87014e-22)
(0.0370346 -0.00483074 2.25302e-22)
(0.0371928 -0.00484671 1.28601e-22)
(0.0373501 -0.00485746 0)
(0.037506 -0.00486319 -6.08203e-23)
(0.0376596 -0.00486424 -3.1383e-23)
(0.0378113 -0.00486004 6.52555e-23)
(0.0379608 -0.00485061 0)
(0.0381075 -0.00483668 1.04995e-22)
(0.0382511 -0.00481758 -1.05857e-22)
(0.0383909 -0.00479278 -4.48616e-23)
(0.0385259 -0.00476273 0)
(0.0386563 -0.00472599 7.7273e-23)
(0.0387824 -0.00468233 -3.17286e-22)
(0.0389022 -0.00463753 2.22501e-22)
(0.0390152 -0.00459233 0)
(0.0391206 -0.0045454 2.08094e-22)
(0.0392186 -0.00449442 -2.2361e-22)
(0.0393095 -0.00443975 -3.57061e-23)
(0.0393931 -0.00438194 0)
(0.0394687 -0.00432199 -8.52448e-23)
(0.0395351 -0.00426028 -4.48689e-23)
(0.039592 -0.00419451 3.83752e-23)
(0.0396396 -0.00412617 -2.60419e-22)
(0.0396772 -0.00405542 -2.02774e-22)
(0.0397037 -0.00398353 3.4982e-22)
(0.0397178 -0.00390859 -3.85236e-22)
(0.0397194 -0.00383075 4.13738e-22)
(0.0397078 -0.00375128 -3.81073e-22)
(0.0396805 -0.00367087 -3.50399e-22)
(0.0396342 -0.00358913 8.30532e-22)
(0.0395649 -0.00350489 0)
(0.0394696 -0.00341709 8.1804e-22)
(0.0393456 -0.00332529 8.12457e-23)
(0.0391916 -0.00322895 -7.16413e-22)
(0.0390072 -0.00313088 -6.93014e-22)
(0.0387881 -0.00303014 1.36298e-21)
(0.0385281 -0.00292636 -9.66657e-23)
(0.0382183 -0.00282098 7.39172e-22)
(0.0378604 -0.00272155 -1.44549e-21)
(0.0374815 -0.00264029 -8.31784e-22)
(0.0371056 -0.00258497 -3.53686e-23)
(0.0366323 -0.00250177 -5.47061e-22)
(0.0357552 -0.00227094 -2.2765e-22)
(0.0343508 -0.00188745 -1.80168e-21)
(0.0331199 -0.00168572 0)
(0.0331276 -0.00214079 -3.94941e-22)
(0.0340158 -0.00263758 3.86624e-22)
(0.0334328 -0.00354077 0)
(0.0335801 -0.00365737 9.62156e-22)
(0.0337291 -0.00377157 4.56432e-21)
(0.0338791 -0.00388114 -3.61439e-21)
(0.0340312 -0.00398627 -2.46932e-21)
(0.0341867 -0.00408743 4.09503e-21)
(0.034346 -0.00418428 -7.61362e-22)
(0.0345084 -0.00427654 7.23119e-22)
(0.0346735 -0.00436411 6.82512e-22)
(0.0348407 -0.00444703 2.49707e-21)
(0.0350094 -0.00452526 -2.48044e-21)
(0.0351794 -0.00459866 -2.18203e-21)
(0.0353504 -0.00466706 6.31457e-22)
(0.0355221 -0.0047304 1.94545e-21)
(0.035694 -0.00478862 -1.37425e-21)
(0.035866 -0.00484163 4.01997e-22)
(0.0360377 -0.00488957 -3.63233e-22)
(0.036209 -0.00493227 -3.24762e-22)
(0.0363798 -0.00496983 8.66166e-22)
(0.0365499 -0.00500208 -3.09837e-22)
(0.0367192 -0.00502908 -2.36174e-22)
(0.0368874 -0.00505066 0)
(0.0370545 -0.00506672 -2.379e-22)
(0.0372203 -0.00507722 1.37127e-22)
(0.0373844 -0.00508229 1.24891e-22)
(0.0375467 -0.00508201 1.71674e-23)
(0.0377067 -0.00507636 -7.24244e-23)
(0.0378643 -0.00506522 -5.2471e-23)
(0.0380191 -0.00504872 0)
(0.0381707 -0.00502691 -1.91883e-22)
(0.0383187 -0.00499977 -3.83673e-23)
(0.0384626 -0.00496733 2.88448e-22)
(0.0386017 -0.00492969 -2.14084e-22)
(0.0387361 -0.00488598 5.95059e-22)
(0.0388657 -0.00483565 -1.03513e-22)
(0.038989 -0.00478474 0)
(0.0391066 -0.00473173 0)
(0.0392178 -0.00467515 9.18484e-23)
(0.039322 -0.00461463 8.21237e-23)
(0.0394189 -0.00455034 5.05565e-23)
(0.0395081 -0.00448266 -1.64192e-24)
(0.0395892 -0.0044118 4.67685e-23)
(0.0396614 -0.00433777 0)
(0.0397241 -0.0042601 -1.5502e-23)
(0.0397769 -0.00417906 0)
(0.0398192 -0.0040948 1.91941e-22)
(0.0398503 -0.00400748 5.53076e-24)
(0.039869 -0.00391671 -7.09675e-22)
(0.0398741 -0.00382237 0)
(0.0398642 -0.00372477 -4.59346e-22)
(0.039837 -0.00362391 4.5417e-22)
(0.0397895 -0.00351938 -8.44216e-22)
(0.0397188 -0.0034105 0)
(0.0396226 -0.00329666 -2.72276e-21)
(0.0394991 -0.00317774 7.59932e-23)
(0.0393474 -0.00305368 8.9823e-22)
(0.0391655 -0.00292493 8.83219e-22)
(0.0389479 -0.00279008 0)
(0.0386864 -0.00264745 0)
(0.0383783 -0.00250018 -7.53376e-22)
(0.0380397 -0.00235987 1.47311e-21)
(0.0376993 -0.00223997 1.43488e-21)
(0.0373309 -0.00212216 0)
(0.0367456 -0.00192102 -1.90636e-21)
(0.0356717 -0.00155071 0)
(0.0342586 -0.00111924 2.195e-21)
(0.0334481 -0.00100109 -8.54912e-22)
(0.033975 -0.00148431 -8.242e-22)
(0.0349606 -0.00183647 -1.16249e-21)
(0.0332219 -0.00381765 0)
(0.0333837 -0.00393706 0)
(0.0335476 -0.00405391 9.68953e-22)
(0.0337118 -0.00416589 -3.59452e-21)
(0.0338767 -0.00427301 4.44414e-21)
(0.0340434 -0.00437577 -8.2522e-22)
(0.0342121 -0.00447387 0)
(0.0343831 -0.00456693 -7.39028e-22)
(0.0345563 -0.0046548 0)
(0.034732 -0.00473748 -1.26729e-21)
(0.0349098 -0.00481498 8.46626e-23)
(0.0350895 -0.00488724 1.17664e-21)
(0.0352706 -0.00495421 0)
(0.0354528 -0.00501579 -9.29463e-22)
(0.0356355 -0.00507193 2.65953e-21)
(0.0358184 -0.00512257 -1.62603e-21)
(0.0360012 -0.0051677 1.81746e-21)
(0.0361834 -0.00520726 -3.51556e-22)
(0.0363649 -0.0052412 2.69169e-22)
(0.0365453 -0.00526948 -2.53399e-22)
(0.0367245 -0.00529205 -1.77121e-22)
(0.0369024 -0.00530882 5.12576e-22)
(0.0370786 -0.00531976 2.46149e-22)
(0.0372531 -0.00532487 0)
(0.0374255 -0.00532417 -5.54892e-23)
(0.0375956 -0.0053177 4.94313e-23)
(0.0377632 -0.00530546 -3.07383e-23)
(0.0379279 -0.00528748 4.6857e-23)
(0.0380894 -0.00526379 -2.45782e-22)
(0.0382474 -0.00523442 3.67513e-22)
(0.0384015 -0.00519929 -2.05589e-22)
(0.0385514 -0.00515836 1.2205e-22)
(0.0386966 -0.00511182 0)
(0.0388369 -0.00505865 -1.32103e-22)
(0.0389726 -0.00499843 -1.50087e-22)
(0.0391016 -0.0049374 0)
(0.0392249 -0.00487309 2.05622e-22)
(0.0393414 -0.00480488 -3.00347e-22)
(0.0394508 -0.00473279 2.03997e-22)
(0.0395525 -0.00465685 -1.10261e-22)
(0.0396463 -0.00457715 -2.16435e-24)
(0.0397317 -0.00449373 -9.32315e-23)
(0.0398082 -0.00440662 2.96415e-23)
(0.0398751 -0.00431571 1.16021e-22)
(0.039932 -0.00422095 1.36279e-23)
(0.0399782 -0.00412235 7.69524e-22)
(0.0400127 -0.00401988 0)
(0.0400343 -0.00391332 4.93362e-22)
(0.0400415 -0.00380232 -3.25552e-23)
(0.0400326 -0.00368654 -5.30556e-22)
(0.0400054 -0.00356567 0)
(0.0399579 -0.00343928 -5.42106e-22)
(0.0398879 -0.00330692 5.37026e-22)
(0.039794 -0.00316827 1.00113e-21)
(0.0396751 -0.00302311 0)
(0.0395293 -0.00287099 -2.07103e-21)
(0.0393527 -0.00271066 2.14949e-21)
(0.0391383 -0.00253983 -2.14728e-21)
(0.0388808 -0.00235823 -1.04388e-22)
(0.0385885 -0.00217307 0)
(0.0382862 -0.00199757 -1.07902e-21)
(0.0379785 -0.00183105 9.58856e-22)
(0.0375644 -0.00162502 1.36364e-21)
(0.0368059 -0.00128784 1.95478e-21)
(0.0355744 -0.000804974 -3.871e-21)
(0.0343537 -0.000393096 2.46813e-21)
(0.0341465 -0.000383374 -1.23976e-21)
(0.0351131 -0.000839539 1.73425e-21)
(0.0359805 -0.000933142 3.23095e-21)
(0.0329991 -0.00411514 -4.29805e-21)
(0.0331719 -0.0042374 1.60298e-22)
(0.0333491 -0.00435684 4.08864e-21)
(0.033528 -0.00447111 0)
(0.0337082 -0.00458019 -8.97409e-22)
(0.0338898 -0.00468454 0)
(0.0340725 -0.00478389 1.56761e-21)
(0.0342562 -0.00487778 -8.48827e-23)
(0.0344409 -0.00496602 -2.17287e-21)
(0.0346269 -0.00504856 6.61716e-22)
(0.0348144 -0.00512539 6.2081e-22)
(0.0350035 -0.00519649 5.67439e-22)
(0.035194 -0.00526182 0)
(0.0353857 -0.00532131 0)
(0.0355782 -0.00537493 -4.44757e-22)
(0.0357712 -0.00542262 -4.01656e-22)
(0.0359643 -0.00546435 6.55493e-22)
(0.0361571 -0.00550007 -6.54587e-22)
(0.0363494 -0.00552974 -5.233e-22)
(0.0365406 -0.00555333 3.96576e-22)
(0.0367305 -0.0055708 -7.38625e-22)
(0.0369188 -0.00558213 5.21078e-23)
(0.0371052 -0.00558729 1.92911e-22)
(0.0372895 -0.00558627 3.14253e-23)
(0.0374713 -0.00557908 -2.1745e-23)
(0.0376505 -0.00556572 2.18356e-23)
(0.0378267 -0.00554622 1.85037e-22)
(0.0379996 -0.00552058 -1.86118e-22)
(0.038169 -0.00548882 0)
(0.0383346 -0.00545093 0)
(0.0384961 -0.00540684 5.93568e-22)
(0.0386529 -0.0053566 6.57098e-23)
(0.0388048 -0.00530042 -2.9642e-22)
(0.0389515 -0.00523713 -3.73253e-22)
(0.0390931 -0.00516715 3.7691e-22)
(0.0392277 -0.00509627 0)
(0.0393562 -0.00502164 -2.0781e-22)
(0.0394777 -0.00494288 -3.68729e-22)
(0.0395919 -0.00485995 2.38496e-22)
(0.0396985 -0.00477281 -8.51744e-24)
(0.039797 -0.00468146 -2.11078e-23)
(0.0398871 -0.00458591 9.71892e-23)
(0.0399682 -0.00448615 7.44757e-23)
(0.0400398 -0.0043821 1.45418e-22)
(0.0401011 -0.00427361 -7.13699e-22)
(0.0401513 -0.00416054 1.31734e-23)
(0.0401893 -0.00404265 0)
(0.0402137 -0.00391953 -6.47787e-22)
(0.0402231 -0.0037907 1.85272e-21)
(0.0402159 -0.00365572 -1.27387e-21)
(0.0401906 -0.00351423 -6.28713e-22)
(0.0401458 -0.0033659 -4.70262e-23)
(0.0400803 -0.00321041 -5.94801e-22)
(0.039993 -0.00304736 -1.48255e-23)
(0.0398824 -0.00287609 1.26282e-21)
(0.0397452 -0.00269508 -1.36925e-21)
(0.0395757 -0.00250187 -1.28695e-21)
(0.0393681 -0.00229465 2.57655e-21)
(0.0391254 -0.00207675 -9.53642e-23)
(0.0388664 -0.00185858 1.31871e-21)
(0.0386068 -0.00164647 -1.31753e-21)
(0.0382975 -0.0014157 1.22692e-21)
(0.0377663 -0.00109525 -2.5088e-21)
(0.0368113 -0.000623043 -1.47889e-21)
(0.0355643 -8.32112e-05 2.65723e-21)
(0.0347951 0.00024655 -2.03695e-21)
(0.0352763 0.000164262 -5.4144e-21)
(0.0364767 -0.000176321 -1.32142e-21)
(0.0369566 2.86454e-05 0)
(0.0327747 -0.00443454 0)
(0.0329554 -0.00455956 -1.09805e-21)
(0.0331422 -0.00468143 1.37591e-23)
(0.0333324 -0.00479774 0)
(0.0335257 -0.00490847 0)
(0.0337218 -0.00501413 -8.81385e-22)
(0.0339199 -0.00511443 2.43479e-21)
(0.034119 -0.0052089 -3.09986e-21)
(0.0343187 -0.00529731 1.49686e-21)
(0.0345189 -0.00537956 -6.76052e-22)
(0.0347197 -0.00545563 0)
(0.0349211 -0.00552546 -5.79394e-22)
(0.0351231 -0.00558897 5.18496e-22)
(0.0353257 -0.00564611 0)
(0.0355288 -0.00569683 0)
(0.0357321 -0.0057411 -3.45915e-22)
(0.0359354 -0.0057789 9.30047e-23)
(0.0361385 -0.00581022 6.20344e-22)
(0.0363409 -0.00583504 4.63098e-22)
(0.0365423 -0.00585336 -4.3444e-22)
(0.0367424 -0.00586515 -1.64013e-22)
(0.0369409 -0.00587042 -3.63747e-22)
(0.0371373 -0.00586916 4.75167e-23)
(0.0373313 -0.00586136 -5.10405e-23)
(0.0375228 -0.00584705 1.91068e-23)
(0.0377112 -0.00582622 -9.56089e-23)
(0.0378964 -0.00579891 1.96775e-22)
(0.038078 -0.00576512 0)
(0.0382557 -0.00572487 0)
(0.0384292 -0.00567819 0)
(0.0385982 -0.00562498 -1.33462e-22)
(0.0387622 -0.00556541 -3.27368e-22)
(0.0389209 -0.00549958 3.61636e-22)
(0.0390742 -0.00542614 4.44291e-22)
(0.0392219 -0.0053467 -4.46437e-22)
(0.0393626 -0.00526566 0)
(0.039497 -0.00518029 2.68488e-22)
(0.0396243 -0.00509033 -1.3647e-22)
(0.0397442 -0.00499578 0)
(0.0398564 -0.00489664 1.47298e-22)
(0.0399603 -0.00479292 -2.82933e-23)
(0.0400557 -0.0046846 1.908e-23)
(0.0401418 -0.00457159 -7.53876e-23)
(0.040218 -0.00445376 0)
(0.0402836 -0.00433085 -3.38022e-22)
(0.0403375 -0.00420255 3.33564e-22)
(0.0403786 -0.00406847 0)
(0.0404059 -0.00392819 -4.66844e-23)
(0.0404182 -0.00378127 3.15966e-23)
(0.0404145 -0.0036273 6.69688e-22)
(0.0403938 -0.00346593 0)
(0.0403556 -0.00329676 -8.64905e-23)
(0.0402987 -0.00311929 -6.8338e-22)
(0.0402218 -0.00293264 -2.2508e-21)
(0.0401221 -0.00273523 -1.06709e-22)
(0.0399948 -0.00252452 1.38995e-21)
(0.0398348 -0.00229805 0)
(0.0396421 -0.00205673 0)
(0.03943 -0.00180777 1.64378e-21)
(0.0392163 -0.00155912 0)
(0.0389802 -0.00129943 0)
(0.038604 -0.000977899 -1.10509e-22)
(0.0378947 -0.000525993 -1.67991e-21)
(0.0368095 4.95629e-05 -3.80025e-21)
(0.035803 0.00056977 3.92591e-21)
(0.0357304 0.000778721 -7.42334e-22)
(0.0368161 0.000671135 1.60343e-21)
(0.0379149 0.000548523 2.03849e-21)
(0.0377517 0.00110154 0)
(0.0325513 -0.00477785 0)
(0.0327411 -0.00490549 1.12426e-21)
(0.0329367 -0.00502956 -3.17081e-21)
(0.0331361 -0.00514762 1.06046e-21)
(0.0333395 -0.00525965 0)
(0.033547 -0.0053662 2.66069e-21)
(0.033758 -0.00546699 -4.23782e-21)
(0.0339712 -0.00556156 9.9797e-23)
(0.0341858 -0.00564966 3.68611e-21)
(0.0344014 -0.00573121 -7.36343e-22)
(0.0346176 -0.00580615 6.23296e-22)
(0.034834 -0.0058744 5.68438e-22)
(0.0350506 -0.00593587 -1.52367e-21)
(0.035267 -0.00599046 1.87962e-21)
(0.0354832 -0.00603811 -8.86229e-22)
(0.035699 -0.00607879 3.05302e-22)
(0.0359142 -0.00611248 -1.26189e-21)
(0.0361285 -0.00613918 3.30317e-22)
(0.0363419 -0.00615888 -1.50311e-22)
(0.0365539 -0.00617159 2.45721e-22)
(0.0367644 -0.00617733 9.83138e-23)
(0.036973 -0.00617611 3.98537e-22)
(0.0371793 -0.00616795 -5.88277e-23)
(0.0373831 -0.00615286 -9.59748e-23)
(0.0375839 -0.00613088 2.11146e-22)
(0.0377816 -0.00610203 -1.01986e-22)
(0.0379758 -0.00606634 3.9197e-22)
(0.0381661 -0.00602383 -6.43241e-22)
(0.0383522 -0.00597455 0)
(0.0385338 -0.00591848 -3.35809e-22)
(0.0387106 -0.00585558 3.38479e-22)
(0.0388821 -0.00578604 3.31428e-23)
(0.0390481 -0.0057098 -2.45269e-22)
(0.0392086 -0.00562549 -2.69559e-22)
(0.0393629 -0.00553592 8.51848e-22)
(0.0395102 -0.00544398 -5.52102e-22)
(0.039651 -0.00534729 4.68197e-22)
(0.0397844 -0.00524573 -6.24367e-22)
(0.0399102 -0.00513932 3.15779e-22)
(0.040028 -0.00502804 -7.90763e-23)
(0.0401372 -0.00491182 0)
(0.0402375 -0.00479056 9.02888e-23)
(0.0403282 -0.00466407 -8.90036e-23)
(0.0404086 -0.00453211 -1.88208e-22)
(0.0404779 -0.00439437 5.68632e-22)
(0.0405354 -0.00425052 -3.94414e-22)
(0.0405802 -0.00410018 -3.83963e-22)
(0.0406117 -0.003943 0)
(0.0406292 -0.00377857 -1.64839e-21)
(0.0406323 -0.00360649 1.61103e-21)
(0.0406202 -0.00342626 -7.66716e-22)
(0.0405924 -0.00323725 7.61524e-22)
(0.0405475 -0.00303843 8.61502e-22)
(0.0404831 -0.00282818 1.61682e-21)
(0.0403952 -0.002604 1.59067e-21)
(0.0402795 -0.00236328 0)
(0.0401352 -0.00210554 -1.83096e-21)
(0.0399713 -0.00183538 0)
(0.0398039 -0.00156005 1.30212e-22)
(0.0396267 -0.00127508 -1.69325e-21)
(0.0393597 -0.000944726 1.83807e-21)
(0.0388409 -0.000506551 1.80014e-21)
(0.0379609 6.73263e-05 -2.17923e-21)
(0.0369496 0.00067826 -2.18888e-22)
(0.0365107 0.00110223 1.13132e-22)
(0.0372377 0.00120387 6.70753e-21)
(0.0386301 0.00118139 2.53723e-21)
(0.0392353 0.00137164 2.42062e-21)
(0.0382184 0.00229371 -2.46727e-21)
(0.0323237 -0.00514771 0)
(0.0325262 -0.00527786 0)
(0.0327335 -0.00540402 -2.17652e-21)
(0.0329437 -0.00552364 3.20403e-21)
(0.0331574 -0.0056367 9.94379e-22)
(0.0333753 -0.00574378 0)
(0.033597 -0.00584461 0)
(0.0338218 -0.00593875 -8.0643e-22)
(0.0340489 -0.00602596 1.44308e-21)
(0.0342779 -0.00610618 -1.16918e-22)
(0.0345083 -0.00617936 -3.16321e-21)
(0.0347395 -0.00624543 6.21619e-22)
(0.0349711 -0.00630429 -4.72005e-22)
(0.0352026 -0.00635583 9.74829e-22)
(0.0354336 -0.00639998 -3.91437e-22)
(0.0356638 -0.00643668 0)
(0.035893 -0.0064659 0)
(0.0361208 -0.00648763 5.14636e-23)
(0.036347 -0.00650187 5.90661e-22)
(0.0365714 -0.00650862 -1.49591e-22)
(0.0367937 -0.00650792 5.70441e-23)
(0.0370136 -0.00649978 -4.66492e-23)
(0.0372309 -0.00648424 5.31358e-23)
(0.0374451 -0.00646135 -6.52572e-26)
(0.0376562 -0.00643115 -1.04803e-22)
(0.0378636 -0.00639368 0)
(0.0380672 -0.006349 0)
(0.0382665 -0.00629715 4.10215e-22)
(0.0384613 -0.00623819 0)
(0.0386513 -0.0061721 4.06047e-22)
(0.0388361 -0.00609887 -4.09134e-22)
(0.0390154 -0.0060188 -2.24427e-22)
(0.0391887 -0.00593152 2.48901e-22)
(0.0393564 -0.005836 5.85887e-22)
(0.0395172 -0.0057361 -2.92909e-22)
(0.0396711 -0.00563291 -3.37472e-22)
(0.039818 -0.00552463 3.52403e-22)
(0.0399573 -0.00541118 0)
(0.0400885 -0.00529252 0)
(0.0402115 -0.00516859 1.003e-22)
(0.0403255 -0.00503927 0)
(0.0404303 -0.00490442 0)
(0.0405253 -0.00476383 -3.15784e-22)
(0.0406098 -0.00461729 4.25044e-22)
(0.0406835 -0.00446453 -2.23782e-22)
(0.0407459 -0.00430527 4.10213e-22)
(0.0407965 -0.0041392 0)
(0.040835 -0.00396593 1.36449e-21)
(0.0408611 -0.00378502 -3.41281e-23)
(0.0408744 -0.00359588 0)
(0.0408742 -0.00339775 -1.83635e-21)
(0.0408594 -0.0031895 -4.08935e-23)
(0.0408278 -0.00296946 -1.81339e-21)
(0.0407763 -0.00273526 -9.96047e-22)
(0.0407013 -0.00248435 -1.92792e-21)
(0.0406022 -0.00221565 1.91512e-21)
(0.0404856 -0.00193191 1.8534e-21)
(0.0403648 -0.00163886 0)
(0.0402392 -0.00133513 -2.05259e-21)
(0.040054 -0.00099505 9.3886e-23)
(0.0396785 -0.00056513 0)
(0.0389877 -3.64766e-06 0)
(0.0380816 0.000641006 2.20692e-21)
(0.037482 0.00119512 0)
(0.03787 0.00148242 0)
(0.0392257 0.00155605 -2.50345e-21)
(0.0404518 0.00174476 -2.28786e-21)
(0.0402209 0.00230816 -2.99358e-21)
(0.0382773 0.00351779 0)
(0.0320869 -0.00554674 0)
(0.032305 -0.00567933 0)
(0.0325274 -0.00580748 0)
(0.0327519 -0.00592857 1.09152e-21)
(0.032979 -0.00604249 9.65634e-22)
(0.0332093 -0.00614986 -1.16675e-22)
(0.033443 -0.00625042 -1.8343e-21)
(0.0336794 -0.00634371 8.24284e-22)
(0.0339182 -0.00642951 -7.54127e-22)
(0.0341591 -0.00650778 -1.3888e-21)
(0.0344018 -0.00657849 0)
(0.0346459 -0.00664159 0)
(0.0348909 -0.00669702 -5.69823e-23)
(0.0351363 -0.00674467 -1.38826e-21)
(0.0353815 -0.00678449 1.48756e-21)
(0.035626 -0.00681639 -1.16788e-22)
(0.0358694 -0.00684037 -5.94357e-22)
(0.0361114 -0.00685639 -2.26326e-22)
(0.0363515 -0.00686446 -3.93202e-23)
(0.0365894 -0.00686459 0)
(0.0368248 -0.0068568 -7.0887e-23)
(0.0370574 -0.00684113 0)
(0.0372867 -0.00681762 1.54431e-22)
(0.0375126 -0.00678633 -4.2318e-22)
(0.0377348 -0.00674733 5.34828e-22)
(0.0379529 -0.00670068 2.73069e-22)
(0.0381666 -0.00664645 -4.86756e-22)
(0.0383756 -0.0065847 5.40267e-22)
(0.0385796 -0.0065155 -3.78083e-22)
(0.0387784 -0.00643885 0)
(0.0389715 -0.00635482 -5.36476e-22)
(0.0391586 -0.0062637 -3.52413e-22)
(0.0393395 -0.00616485 5.95369e-22)
(0.0395144 -0.00605773 -6.76035e-22)
(0.0396816 -0.00594707 3.67226e-22)
(0.039842 -0.00583202 -3.61312e-22)
(0.0399948 -0.00571153 -1.83279e-22)
(0.0401396 -0.00558553 2.12283e-22)
(0.0402762 -0.00545399 1.02487e-22)
(0.0404042 -0.00531687 -3.10154e-22)
(0.0405233 -0.00517405 -2.88586e-23)
(0.040633 -0.00502543 0)
(0.0407332 -0.00487086 1.09035e-22)
(0.0408235 -0.00471015 -2.224e-22)
(0.0409037 -0.00454308 2.26358e-22)
(0.0409736 -0.00436935 0)
(0.041033 -0.0041886 0)
(0.0410817 -0.00400033 5.30672e-22)
(0.0411193 -0.0038039 -9.91984e-22)
(0.0411452 -0.00359847 -2.09107e-21)
(0.0411583 -0.00338289 4.10518e-21)
(0.0411569 -0.00315548 -1.08534e-21)
(0.0411384 -0.00291401 1.03721e-21)
(0.0411003 -0.00265616 1.00808e-21)
(0.0410426 -0.00238074 -2.16487e-21)
(0.0409707 -0.00208941 2.14944e-21)
(0.040895 -0.00178623 0)
(0.0408167 -0.00147071 -2.3575e-21)
(0.0406959 -0.00112352 9.04927e-23)
(0.0404283 -0.000699547 2.32554e-21)
(0.0398954 -0.000153489 0)
(0.0391304 0.000496238 0)
(0.0385124 0.00111849 0)
(0.0386781 0.00153659 5.63937e-21)
(0.0398808 0.0017211 3.05629e-21)
(0.0413877 0.00189946 2.84238e-21)
(0.0419184 0.00240131 -5.78079e-21)
(0.0406102 0.00331303 -3.10127e-22)
(0.0378263 0.00480257 3.36355e-21)
(0.0318405 -0.00597748 0)
(0.0320752 -0.00611243 2.47232e-21)
(0.0323144 -0.00624247 -3.04689e-21)
(0.0325558 -0.00636489 1.62626e-21)
(0.0327992 -0.00647954 -3.21123e-21)
(0.0330453 -0.00658703 -9.77178e-22)
(0.033294 -0.00668709 -9.03888e-22)
(0.0335447 -0.00677925 0)
(0.0337971 -0.00686327 1.53078e-21)
(0.0340511 -0.00693912 1.34556e-21)
(0.0343066 -0.0070068 -1.32345e-21)
(0.0345634 -0.00706629 5.5176e-22)
(0.034821 -0.00711752 -4.22214e-22)
(0.0350791 -0.00716043 5.70204e-22)
(0.0353372 -0.00719499 1.43278e-21)
(0.0355948 -0.00722114 -1.25854e-22)
(0.0358515 -0.00723888 -1.25254e-22)
(0.0361067 -0.0072482 -4.12034e-22)
(0.03636 -0.00724912 -1.32924e-22)
(0.0366111 -0.00724166 -4.00403e-23)
(0.0368594 -0.00722586 9.03878e-23)
(0.0371046 -0.00720177 0)
(0.0373463 -0.00716944 5.66626e-23)
(0.0375842 -0.00712894 0)
(0.0378178 -0.00708036 -2.205e-22)
(0.0380469 -0.00702378 -2.77756e-22)
(0.0382712 -0.00695927 1.67321e-22)
(0.0384903 -0.00688693 0)
(0.038704 -0.00680683 2.61367e-22)
(0.0389118 -0.00671899 5.67551e-22)
(0.0391135 -0.00662355 -5.71459e-22)
(0.0393088 -0.00652076 3.07923e-22)
(0.0394976 -0.0064097 -7.39163e-22)
(0.0396799 -0.00629075 1.50565e-21)
(0.039854 -0.00616858 -3.91421e-22)
(0.040021 -0.00604113 0)
(0.0401802 -0.00590798 -2.30436e-22)
(0.0403313 -0.00576913 2.36691e-23)
(0.040474 -0.00562457 3.47888e-22)
(0.0406082 -0.00547429 -2.94829e-22)
(0.0407337 -0.00531824 5.69995e-23)
(0.0408503 -0.00515631 -1.93056e-22)
(0.0409579 -0.00498838 1.25584e-22)
(0.0410564 -0.00481426 0)
(0.0411458 -0.00463368 0)
(0.0412257 -0.00444626 0)
(0.0412961 -0.00425151 5.70564e-22)
(0.0413565 -0.00404878 5.77682e-22)
(0.0414065 -0.00383722 0)
(0.0414451 -0.00361572 1.11959e-21)
(0.0414709 -0.00338267 1.23379e-21)
(0.0414821 -0.00313603 1.20765e-21)
(0.041477 -0.00287377 0)
(0.0414565 -0.00259492 0)
(0.0414256 -0.00230058 -2.41024e-21)
(0.0413924 -0.00199341 2.39181e-21)
(0.0413572 -0.00167245 0)
(0.0412883 -0.00132201 2.38353e-21)
(0.0411024 -0.000903957 -2.44306e-21)
(0.0406961 -0.000374452 -2.77484e-21)
(0.0400734 0.000264554 2.79154e-21)
(0.0395176 0.000913963 -2.78025e-21)
(0.0395832 0.00140994 0)
(0.04064 0.00168107 -2.77022e-21)
(0.0422477 0.00188227 2.20196e-22)
(0.0432606 0.00231007 -6.27183e-21)
(0.0426753 0.00317239 -6.84324e-21)
(0.0402264 0.00438111 6.8963e-21)
(0.0366347 0.00602177 -3.38712e-21)
(0.031586 -0.00644262 6.98524e-22)
(0.0318377 -0.00657983 0)
(0.0320944 -0.00671163 6.13567e-22)
(0.0323536 -0.00683521 -2.81769e-21)
(0.032615 -0.00695039 4.84192e-21)
(0.032879 -0.00705778 -1.06735e-21)
(0.0331454 -0.00715711 9.23662e-22)
(0.0334132 -0.00724787 -1.62302e-21)
(0.0336823 -0.00732982 8.33997e-22)
(0.0339522 -0.00740292 7.04604e-22)
(0.034223 -0.00746716 6.12916e-22)
(0.0344944 -0.00752254 -1.59857e-21)
(0.0347662 -0.00756901 5.643e-22)
(0.035038 -0.00760653 -1.14415e-21)
(0.0353095 -0.00763508 -2.2e-22)
(0.0355802 -0.00765464 1.35519e-22)
(0.0358498 -0.00766524 4.72136e-22)
(0.0361178 -0.0076669 0)
(0.0363838 -0.00765966 0)
(0.0366473 -0.00764358 -2.67874e-23)
(0.0369079 -0.00761871 -3.80543e-23)
(0.0371652 -0.00758513 -3.22924e-22)
(0.0374187 -0.00754292 1.58749e-22)
(0.0376681 -0.00749218 5.7784e-22)
(0.0379129 -0.00743301 -5.78778e-22)
(0.0381529 -0.0073655 2.11018e-22)
(0.0383876 -0.00728977 2.43061e-22)
(0.0386168 -0.00720593 0)
(0.0388402 -0.00711407 -2.65523e-22)
(0.0390572 -0.00701421 -6.60094e-22)
(0.0392678 -0.00690664 -5.67461e-23)
(0.0394716 -0.00679141 7.26514e-22)
(0.0396686 -0.00666751 -4.33287e-22)
(0.0398586 -0.00653672 0)
(0.0400405 -0.0064023 2.40273e-22)
(0.040215 -0.00626219 -2.49201e-22)
(0.0403816 -0.00611628 2.32348e-22)
(0.0405401 -0.00596461 -5.05294e-22)
(0.0406904 -0.0058072 0)
(0.0408324 -0.00564405 -6.98528e-23)
(0.0409661 -0.00547511 6.81926e-23)
(0.0410913 -0.00530029 -1.11366e-22)
(0.0412081 -0.00511943 4.27158e-22)
(0.0413163 -0.00493229 -8.68995e-22)
(0.0414158 -0.00473851 5.77595e-22)
(0.0415064 -0.00453765 6.01943e-22)
(0.0415877 -0.00432907 -5.41e-22)
(0.0416594 -0.00411201 1.28772e-21)
(0.0417208 -0.00388542 -1.21991e-21)
(0.0417708 -0.00364785 -3.10746e-21)
(0.0418082 -0.00339749 4.05739e-23)
(0.0418323 -0.00313269 -1.22041e-21)
(0.0418447 -0.00285284 0)
(0.0418507 -0.0025589 0)
(0.0418562 -0.00225236 -2.66387e-21)
(0.0418592 -0.00193111 3.94851e-21)
(0.0418321 -0.00158111 -2.68554e-21)
(0.0417073 -0.00116986 0)
(0.0414002 -0.000657679 2.97456e-21)
(0.040908 -3.89725e-05 5.78656e-21)
(0.0404544 0.00060906 -2.88819e-21)
(0.0405137 0.0011393 -1.08976e-22)
(0.0414805 0.00146059 2.98905e-21)
(0.0431069 0.00167985 -4.19315e-23)
(0.0444195 0.00206397 -6.38134e-21)
(0.0443735 0.00284228 6.60114e-21)
(0.0425056 0.00405017 3.53978e-21)
(0.0390324 0.00548843 0)
(0.0346718 0.00721318 0)
(0.0313236 -0.00694506 -7.15074e-22)
(0.0315934 -0.00708445 -3.32615e-21)
(0.0318685 -0.00721785 2.61544e-21)
(0.0321463 -0.00734239 0)
(0.0324264 -0.00745784 5.50965e-22)
(0.0327095 -0.00756484 1.96298e-21)
(0.0329948 -0.00766311 -1.48011e-21)
(0.0332817 -0.00775213 2.05552e-21)
(0.0335694 -0.00783163 -1.61936e-21)
(0.0338578 -0.00790158 0)
(0.0341465 -0.00796197 -3.25065e-22)
(0.0344353 -0.00801279 0)
(0.0347238 -0.00805401 -3.70962e-22)
(0.0350118 -0.0080856 1.24133e-21)
(0.0352988 -0.00810754 0)
(0.0355845 -0.00811986 0)
(0.0358685 -0.00812259 0)
(0.0361504 -0.00811579 7.42243e-23)
(0.0364298 -0.00809953 -1.04099e-22)
(0.0367063 -0.00807391 2.72691e-23)
(0.0369795 -0.00803902 0)