/*--------------------------------*- C++ -*----------------------------------*\
| =========                 |                                                 |
| \\      /  F ield         | OpenFOAM: The Open Source CFD Toolbox           |
|  \\    /   O peration     | Version:  2312                                  |
|   \\  /    A nd           | Website:  www.openfoam.com                      |
|    \\/     M anipulation  |                                                 |
\*---------------------------------------------------------------------------*/
FoamFile
{
    version     2.0;
    format      ascii;
    arch        "LSB;label=32;scalar=64";
    class       volScalarField;
    location    "1500";
    object      epsilon;
}
// * * * * * * * * * * * * * * * * * * * * * * * * * * * * * * * * * * * * * //

dimensions      [0 2 -3 0 0 0 0];

internalField   nonuniform List<scalar> 
76025
(
0.000254804
0.000253887
0.000253015
0.000252538
0.000251987
0.000251787
0.000251595
0.000251235
0.000250606
0.000249779
0.000248838
0.000248039
0.000247052
0.000247432
0.000247245
0.000246825
0.00024618
0.000244907
0.000244336
0.000244243
0.000243811
0.000242831
0.000241523
0.000240509
0.000239762
0.000239635
0.000239676
0.000239532
0.000239251
0.000239494
0.000239345
0.000239083
0.00023946
0.000239126
0.000239559
0.000239562
0.000239759
0.000240119
0.000240674
0.000241257
0.000242387
0.000243754
0.000246041
0.000248061
0.000250641
0.00025329
0.000256431
0.000259691
0.000263266
0.000266813
0.00027076
0.000274553
0.000279204
0.000282794
0.000287977
0.000291609
0.000297027
0.000301362
0.000309041
0.000314806
0.000324494
0.000330924
0.000343797
0.000351938
0.000365822
0.000377726
0.000391316
0.000414647
0.000429502
0.000257223
0.000256575
0.000255861
0.000254978
0.000254295
0.000253652
0.000253223
0.00025294
0.000252522
0.000252084
0.000251414
0.000250823
0.000250111
0.000249494
0.000248969
0.000248611
0.000247942
0.000247938
0.000247341
0.000247452
0.000247153
0.000247355
0.000246937
0.000246544
0.000246433
0.000246404
0.000246406
0.000246506
0.000246263
0.000246123
0.000246336
0.000246529
0.000247655
0.000248171
0.000249623
0.000250304
0.000250047
0.000250345
0.000251343
0.000252455
0.000255016
0.000257346
0.000259809
0.000261147
0.00026274
0.000264821
0.000267216
0.000269476
0.000272035
0.000274998
0.000278334
0.000281923
0.000286464
0.000290285
0.000295448
0.000299331
0.000305928
0.000311196
0.000320611
0.000327405
0.000339773
0.000347636
0.000362984
0.000371704
0.000390459
0.000401896
0.000428012
0.000444396
0.000477761
0.000260386
0.00026006
0.000259531
0.00025891
0.000258249
0.000257625
0.000256931
0.000256391
0.000255881
0.000255462
0.000254977
0.000254511
0.000253977
0.00025345
0.000252989
0.00025247
0.00025206
0.000251563
0.000251626
0.000251457
0.000251375
0.000251479
0.000251588
0.000251904
0.000252121
0.000252354
0.000252683
0.000253089
0.000253274
0.000254397
0.000254863
0.000254524
0.000254616
0.000255477
0.000256391
0.000257438
0.000258468
0.000259378
0.000260389
0.0002618
0.000263671
0.000265521
0.000267897
0.000270218
0.000273948
0.000277844
0.000280766
0.000282761
0.000285292
0.00028875
0.000292843
0.000297269
0.000303969
0.000308383
0.000313394
0.00031667
0.000323796
0.000329058
0.000339208
0.000345969
0.000359103
0.000367914
0.000385361
0.000396525
0.000418279
0.000432684
0.000459858
0.000481762
0.000520463
0.000264456
0.000264464
0.000264206
0.000263638
0.000262958
0.00026228
0.000261584
0.000260963
0.000260464
0.000260073
0.000259619
0.000259497
0.000259555
0.000259298
0.000259115
0.000259153
0.000259054
0.000258974
0.000258986
0.000259008
0.000258662
0.000258465
0.000258595
0.000258889
0.000259085
0.00025998
0.000260468
0.000261082
0.000261571
0.00026117
0.000261349
0.000261602
0.000262422
0.000263514
0.00026465
0.000266356
0.000267949
0.000269678
0.000271912
0.000274101
0.000275849
0.000277219
0.000278939
0.00028056
0.000282844
0.000285333
0.000289138
0.00029262
0.000297299
0.000304179
0.000309694
0.000315902
0.000323428
0.000328169
0.000331881
0.000333912
0.00034031
0.000346347
0.000357052
0.000365435
0.000381185
0.000393478
0.000415079
0.000429683
0.000454229
0.000470627
0.000500161
0.000528193
0.000566138
0.000269124
0.000269196
0.000269176
0.000268932
0.00026906
0.000269004
0.000268657
0.000267998
0.000267209
0.00026656
0.000266415
0.000266396
0.00026637
0.0002662
0.000266024
0.000266412
0.000266159
0.000266494
0.000266279
0.000266343
0.000266548
0.000266881
0.000267137
0.000267888
0.000268873
0.000268907
0.000269191
0.000269458
0.000270143
0.000271101
0.000271558
0.000273891
0.000274994
0.000276244
0.000277431
0.000277187
0.000277937
0.000279375
0.000281284
0.000282974
0.000285213
0.000286969
0.00028941
0.000291961
0.000294744
0.000298338
0.000302013
0.000306708
0.000310587
0.000316608
0.000322094
0.000328289
0.000332967
0.000336632
0.000342882
0.000349554
0.000359111
0.000368339
0.000381644
0.000393703
0.000412492
0.000428094
0.000450738
0.00046625
0.000491083
0.000508707
0.000545146
0.000574055
0.000631249
0.000276172
0.000275815
0.000276039
0.000275801
0.000276133
0.000276186
0.000276807
0.000276946
0.00027692
0.000276317
0.000276397
0.000275999
0.000276065
0.000276378
0.000276513
0.000276492
0.000276402
0.000277075
0.00027675
0.000277239
0.000277156
0.000277468
0.000278506
0.000279074
0.00028084
0.000281445
0.000282063
0.000282571
0.000281801
0.000281925
0.000282631
0.000283708
0.000284807
0.000285988
0.000287206
0.000288553
0.000290071
0.000291891
0.000293957
0.000296276
0.0002986
0.000301184
0.000303882
0.000307079
0.000310368
0.000314633
0.000319206
0.00032357
0.000328085
0.000332119
0.000337423
0.000342238
0.000349514
0.000356386
0.000365675
0.000374344
0.000386182
0.000397017
0.000412931
0.000426869
0.000446598
0.00046271
0.000483495
0.000501476
0.000526692
0.000553541
0.000595257
0.000640305
0.000705931
0.000284587
0.000284705
0.000284305
0.00028361
0.000284082
0.000283836
0.000284047
0.000284403
0.000285048
0.000285429
0.000285652
0.000286627
0.000286148
0.000286502
0.000286346
0.000286562
0.000287433
0.000287799
0.000289254
0.000288745
0.000289857
0.000289216
0.000289123
0.000289474
0.000290201
0.000291142
0.000292448
0.000293459
0.000294755
0.000296722
0.000298357
0.000299828
0.000300975
0.000302219
0.000303715
0.000305688
0.000308367
0.000311507
0.00031681
0.000320108
0.000322193
0.000324145
0.00032663
0.000330507
0.000334105
0.000342355
0.000348918
0.000353756
0.000357733
0.000361862
0.000367819
0.000373949
0.000382409
0.00038951
0.000399695
0.000408175
0.000421201
0.000432319
0.000450284
0.00046378
0.000483224
0.000499519
0.000519143
0.000544981
0.000572348
0.000615774
0.000666519
0.00072422
0.000815244
0.000294821
0.000295194
0.000294951
0.000295451
0.000295662
0.000295577
0.000296485
0.000296813
0.000296732
0.000297725
0.00029795
0.000297459
0.00029744
0.000297831
0.00029881
0.000300355
0.000300246
0.000300463
0.000300746
0.000301391
0.000302497
0.000303721
0.000305087
0.000305881
0.000308079
0.000308724
0.000308585
0.000309359
0.000311092
0.000313434
0.000315095
0.000318474
0.000321601
0.000323343
0.00032826
0.000330504
0.000329664
0.000330427
0.000332746
0.000335409
0.000338646
0.000342949
0.00034742
0.000352903
0.000358545
0.000364669
0.000370335
0.000376513
0.000383128
0.000390596
0.000400366
0.000410056
0.00042062
0.000428421
0.000439736
0.000447985
0.00046363
0.000475122
0.000494223
0.000506925
0.00052762
0.000546487
0.000570542
0.00060922
0.000639916
0.000708739
0.000753336
0.000850946
0.000944806
0.000308857
0.000308788
0.000308512
0.00030921
0.000309396
0.000309091
0.000309276
0.000309688
0.000311758
0.000312617
0.000313542
0.000314021
0.000313328
0.000313546
0.000314741
0.000316297
0.000317233
0.000319624
0.000320496
0.000320289
0.000320121
0.000321295
0.000322821
0.000323703
0.000327593
0.000329132
0.000330751
0.000332055
0.000331544
0.00033261
0.00033491
0.000337518
0.00034299
0.000346559
0.000351443
0.000358106
0.000360919
0.000359791
0.000360538
0.000362428
0.000366359
0.000370357
0.000375983
0.000382639
0.000389075
0.000396248
0.000403425
0.000410546
0.000419351
0.000427775
0.000443148
0.000456572
0.000469149
0.000477389
0.000486869
0.000496687
0.000513776
0.000524279
0.000543669
0.000555401
0.000582314
0.00060424
0.000642742
0.000687458
0.000734869
0.0008167
0.000876745
0.00100954
0.00111643
0.000326416
0.000327115
0.00032815
0.000328597
0.000328401
0.000328186
0.00032932
0.000329475
0.000328728
0.000328667
0.000329227
0.000330523
0.000331431
0.00033293
0.000335682
0.000335583
0.000337341
0.000336707
0.000337152
0.000338233
0.00033964
0.000341412
0.000343607
0.000346393
0.000350445
0.000355285
0.000356851
0.000356601
0.000357189
0.000359332
0.000364232
0.00036851
0.000370487
0.000371759
0.000373681
0.000376882
0.000379672
0.000384991
0.000388689
0.000394832
0.000401579
0.000408019
0.000417426
0.000428768
0.000435785
0.000442511
0.000449824
0.000453204
0.000459533
0.000468605
0.000480142
0.000492056
0.000505817
0.000518993
0.000538518
0.00055586
0.00057303
0.000582801
0.000602709
0.000617375
0.000655117
0.000683007
0.00074148
0.000790467
0.000866197
0.000958506
0.00104781
0.00122587
0.00133337
0.000345417
0.00034491
0.000345427
0.00034643
0.000347395
0.000348094
0.000349682
0.000351221
0.000352132
0.000353668
0.000355998
0.00035535
0.00035619
0.000355992
0.000356946
0.000357896
0.000360728
0.000362423
0.000364696
0.000368337
0.000369367
0.000369273
0.000370629
0.00037345
0.000376103
0.000379321
0.000382066
0.000384931
0.000388284
0.000391463
0.000396769
0.000402621
0.000406069
0.000414425
0.000413153
0.000417824
0.0004178
0.000419804
0.00042487
0.00042985
0.000436659
0.000443684
0.00045086
0.000460392
0.000467948
0.000479886
0.000489413
0.000504538
0.00051639
0.000533647
0.000550296
0.000569156
0.000585964
0.000599817
0.000621249
0.000651996
0.00066284
0.000662987
0.000683475
0.00070546
0.000757983
0.000796949
0.000875527
0.000933636
0.001048
0.00114439
0.00130326
0.00148365
0.00167737
0.000373212
0.000373135
0.000372772
0.000372852
0.000373109
0.000373512
0.000374517
0.000376164
0.000377861
0.000379505
0.000382288
0.000384569
0.000385674
0.000389067
0.000390313
0.00039039
0.000390874
0.00039234
0.000396086
0.000400645
0.00040367
0.00040732
0.000413399
0.000416016
0.000415574
0.000415353
0.000417177
0.000420717
0.000424618
0.000429396
0.000435943
0.000444702
0.000455293
0.000456906
0.000459942
0.000461378
0.000465119
0.000470812
0.0004757
0.000482326
0.000487716
0.000495645
0.000503015
0.000513135
0.000523909
0.000536088
0.000550297
0.00056501
0.000582041
0.000598543
0.000616172
0.000634497
0.000653575
0.00066719
0.000680444
0.00068995
0.000714434
0.000740303
0.000786508
0.000827905
0.000894821
0.000954175
0.00105211
0.00113876
0.00128693
0.00141449
0.00164161
0.00183146
0.00216583
0.000399546
0.000400644
0.000402281
0.00040408
0.00040574
0.00040742
0.000409381
0.000411302
0.000413696
0.000415671
0.00041834
0.0004212
0.000423786
0.000427199
0.000428337
0.000433689
0.000435572
0.000437576
0.000437609
0.00043749
0.000439214
0.000441122
0.000445393
0.000447946
0.000453156
0.000456033
0.000462709
0.000466345
0.000474997
0.000480081
0.00049022
0.000498961
0.000504329
0.000518053
0.00052426
0.000529509
0.00052599
0.0005267
0.00053018
0.000539559
0.000547447
0.000560805
0.000571803
0.000587458
0.000603605
0.000618658
0.000641538
0.000658104
0.000679613
0.00070521
0.000724296
0.000742761
0.000780276
0.000795079
0.000792769
0.00080482
0.000840153
0.000879438
0.000940038
0.000999921
0.00108806
0.00117465
0.00130213
0.00142897
0.00161471
0.00180172
0.00207336
0.0023387
0.0027455
0.000441161
0.000443517
0.000445445
0.000447458
0.00045296
0.00045514
0.000457305
0.000458241
0.000457791
0.000458833
0.000461571
0.000464842
0.000468501
0.000472459
0.000476376
0.000482269
0.000488958
0.000497837
0.000501135
0.000500717
0.000500276
0.000502071
0.000505971
0.000511763
0.000516522
0.000524286
0.000529176
0.000540713
0.000546714
0.000560571
0.000566902
0.000574027
0.000569609
0.000578407
0.00057683
0.000579364
0.000587349
0.000594994
0.000608128
0.000618765
0.000634106
0.000648949
0.000662899
0.000682572
0.000696483
0.000714049
0.000734643
0.0007506
0.000772893
0.000811406
0.000828741
0.00082925
0.000840031
0.000864423
0.000905526
0.000951618
0.0010126
0.00107626
0.00116039
0.00124826
0.00136598
0.00149009
0.00165663
0.00183402
0.00206897
0.00232346
0.00264772
0.00300927
0.00345156
0.000496665
0.00049934
0.000502276
0.000504823
0.00050838
0.000511929
0.000513579
0.000521074
0.000523693
0.000526655
0.000528545
0.000526731
0.000527393
0.000530476
0.000534569
0.000539716
0.000544761
0.000550073
0.000554083
0.000558227
0.000561275
0.00056609
0.000569975
0.000576109
0.000580216
0.000587798
0.000592859
0.00060212
0.000608018
0.00061832
0.000623969
0.000635625
0.000642393
0.000655951
0.000664715
0.000680488
0.000691889
0.000708095
0.000727568
0.000737349
0.000765058
0.000779536
0.000796445
0.000811069
0.000806353
0.000808476
0.000820516
0.000838448
0.000862319
0.00088949
0.000923482
0.000962397
0.0010099
0.00106186
0.00112465
0.00119277
0.00127688
0.00136804
0.00148293
0.00160692
0.00176536
0.00193548
0.00215422
0.00238799
0.00268762
0.00300802
0.00340658
0.00385169
0.00433222
0.000568679
0.000572157
0.000575977
0.000580374
0.000584728
0.000589849
0.000594263
0.000599604
0.000605502
0.00060736
0.000617977
0.000621791
0.000625832
0.000628849
0.000625385
0.00062514
0.000628899
0.000633247
0.000639526
0.00064497
0.000652435
0.000658517
0.000667517
0.000674497
0.000685554
0.000693399
0.000706599
0.000716495
0.000730498
0.000747676
0.000755711
0.000781961
0.00079459
0.000809183
0.000820837
0.000814237
0.000813235
0.00081945
0.000829895
0.000841621
0.000855615
0.000871062
0.000889297
0.000909959
0.000933865
0.000960952
0.000992254
0.00102732
0.00106767
0.00111266
0.00116459
0.00122243
0.00128966
0.00136457
0.00145253
0.00155045
0.00166678
0.00179581
0.0019509
0.00212184
0.00232942
0.00255641
0.00283425
0.00313427
0.00350541
0.00389352
0.00439004
0.00486669
0.00553208
0.000668869
0.000673633
0.000678475
0.000683675
0.000689734
0.00069573
0.000702232
0.000708691
0.000715109
0.000722233
0.000728104
0.000737599
0.000751207
0.00074905
0.000757475
0.000753833
0.000754638
0.000758356
0.000765245
0.000772378
0.000781942
0.000790706
0.000802398
0.000812462
0.000826374
0.000837709
0.000854047
0.000866843
0.000885762
0.000900617
0.000921707
0.000939183
0.000960799
0.000986728
0.0010003
0.00103771
0.00105736
0.00107996
0.0010989
0.00109444
0.00108783
0.00109884
0.0011213
0.00115144
0.00118793
0.00122985
0.00127757
0.00133084
0.00139099
0.0014579
0.00153369
0.00161804
0.00171414
0.00182115
0.0019439
0.00208044
0.00223838
0.00241342
0.00261794
0.00284322
0.00310898
0.00339967
0.00374418
0.00411895
0.00456072
0.00503964
0.00559628
0.00619371
0.00689253
0.00081116
0.000817521
0.000823916
0.00083145
0.000838126
0.000846723
0.000855179
0.000864529
0.000878201
0.000886491
0.000903408
0.000912703
0.000935842
0.000943787
0.000951871
0.000938822
0.000953876
0.00094398
0.000942413
0.000946761
0.000957391
0.000968225
0.000982162
0.000995875
0.00101128
0.00102676
0.00104489
0.00106202
0.00108164
0.00110008
0.00112115
0.00114147
0.00116371
0.0011871
0.0012096
0.00123553
0.00126098
0.00128925
0.00132005
0.00135361
0.00139102
0.00143322
0.00148071
0.0015336
0.00159243
0.0016574
0.00172948
0.00180887
0.00189684
0.00199367
0.00210142
0.00222021
0.0023531
0.00249977
0.00266494
0.00284721
0.0030543
0.00328214
0.00354394
0.00382976
0.00416254
0.00452109
0.00494354
0.00539143
0.00592151
0.0064765
0.0071263
0.00781435
0.0085774
0.00102542
0.0010336
0.00104178
0.00105131
0.0010604
0.00107083
0.00108103
0.00109239
0.00110489
0.00111776
0.00113124
0.00114545
0.0011589
0.00117343
0.00118563
0.00120001
0.00121417
0.00122946
0.00125133
0.00126954
0.00129549
0.00132398
0.00134274
0.00139099
0.0014124
0.00140263
0.00140407
0.00141584
0.00143451
0.00145829
0.00148541
0.00151591
0.00154876
0.00158471
0.00162389
0.00166616
0.00171221
0.00176179
0.0018153
0.00187314
0.00193583
0.00200379
0.00207755
0.00215754
0.00224444
0.00233875
0.00244144
0.00255308
0.00267521
0.00280798
0.00295352
0.00311235
0.00328761
0.00347948
0.00369285
0.00392682
0.00418936
0.00447665
0.00480245
0.00515599
0.00556235
0.00599556
0.00650218
0.00702749
0.00765526
0.008282
0.0090567
0.00980176
0.0107441
0.0013687
0.00138104
0.00139362
0.00140763
0.00142207
0.0014378
0.00145387
0.0014713
0.0014894
0.00150903
0.00152891
0.0015507
0.00157205
0.0015956
0.00161847
0.00164384
0.00166962
0.00169666
0.00172676
0.00175475
0.00178755
0.00181895
0.00185042
0.00188377
0.00191526
0.0019465
0.00198003
0.00201699
0.00205756
0.00210181
0.00214952
0.00220073
0.0022554
0.00231367
0.00237571
0.00244168
0.00251183
0.00258644
0.00266584
0.00275034
0.00284038
0.00293641
0.00303898
0.00314864
0.00326616
0.00339223
0.00352794
0.00367416
0.00383251
0.00400401
0.00419089
0.00439358
0.00461553
0.0048574
0.00512439
0.00541586
0.00574032
0.00609342
0.00649009
0.00691741
0.00740384
0.00791645
0.00851354
0.00912047
0.00985509
0.0105632
0.0114936
0.012314
0.0135687
0.00202749
0.00205223
0.00207759
0.00210396
0.00213127
0.00215968
0.00218902
0.00221963
0.0022512
0.00228438
0.00231862
0.00235458
0.00239172
0.00243054
0.00247045
0.00251178
0.00255428
0.00259768
0.00264203
0.00268805
0.00273424
0.00278345
0.00283431
0.0028877
0.00294459
0.00300304
0.00306338
0.00312613
0.00319164
0.00326015
0.00333179
0.00340672
0.00348509
0.00356706
0.00365286
0.0037427
0.00383689
0.00393581
0.00403982
0.00414936
0.00426496
0.00438718
0.00451675
0.00465441
0.00480111
0.00495785
0.00512594
0.00530663
0.00550182
0.00571295
0.0059427
0.00619264
0.00646529
0.00676172
0.00708728
0.00744143
0.00783335
0.00825712
0.00873001
0.00923466
0.00980607
0.0103997
0.0110973
0.0117898
0.0126628
0.0134809
0.0146604
0.0156569
0.0175857
0.00335749
0.00340358
0.00345084
0.00349961
0.00354986
0.00360137
0.00365422
0.00370824
0.00376349
0.00381987
0.00387757
0.00393638
0.00399663
0.00405786
0.00412047
0.00418371
0.00424799
0.00431316
0.0043795
0.0044472
0.00451604
0.00458641
0.00465826
0.00473172
0.00480692
0.00488385
0.00496263
0.0050435
0.00512669
0.00521245
0.005301
0.00539258
0.00548744
0.00558582
0.00568806
0.00579447
0.00590544
0.0060215
0.00614309
0.00627091
0.00640564
0.00654806
0.00669912
0.00685985
0.0070315
0.00721537
0.00741301
0.00762618
0.00785698
0.00810737
0.00838031
0.00867758
0.00900304
0.00935686
0.00974307
0.0101629
0.0106243
0.0111205
0.011671
0.0122533
0.0129133
0.0135943
0.0144186
0.0152321
0.0163482
0.0174114
0.0191173
0.0208658
0.0243889
0.00594137
0.00601698
0.00609258
0.0061686
0.00624493
0.00632144
0.00639816
0.00647506
0.00655208
0.00662917
0.00670635
0.00678361
0.00686103
0.00693855
0.0070163
0.00709425
0.00717249
0.00725112
0.0073302
0.00740968
0.00748967
0.00757011
0.00765108
0.00773266
0.00781507
0.00789843
0.00798312
0.00806938
0.00815757
0.00824798
0.00834102
0.008437
0.00853639
0.00863939
0.00874671
0.00885836
0.00897501
0.00909747
0.0092262
0.00936266
0.00950713
0.00966078
0.00982493
0.010001
0.0101906
0.0103951
0.0106162
0.0108567
0.0111185
0.0114046
0.0117178
0.0120604
0.0124358
0.0128463
0.0132898
0.0137758
0.0143002
0.014869
0.0154918
0.0161634
0.0169335
0.0177688
0.0188229
0.0199674
0.0216707
0.0235869
0.0269583
0.0320316
0.0417889
0.0104536
0.0105439
0.0106329
0.0107213
0.0108088
0.0108954
0.0109807
0.011065
0.0111479
0.0112296
0.01131
0.0113893
0.0114675
0.0115444
0.0116207
0.0116963
0.011771
0.0118458
0.0119201
0.0119931
0.0120661
0.0121377
0.012208
0.0122777
0.0123474
0.0124174
0.0124896
0.0125632
0.0126387
0.0127158
0.0127959
0.0128787
0.0129657
0.0130564
0.0131529
0.0132524
0.0133578
0.0134697
0.0135894
0.0137202
0.0138595
0.0140112
0.0141768
0.0143581
0.0145565
0.0147722
0.0150085
0.0152703
0.015559
0.0158787
0.0162304
0.0166175
0.0170395
0.017503
0.0179959
0.0185486
0.0191243
0.0197988
0.0205224
0.0214098
0.0224434
0.0237729
0.02548
0.0278735
0.0315272
0.0373963
0.0475598
0.0672598
0.0986691
0.0173758
0.0174583
0.0175371
0.0176134
0.0176868
0.0177579
0.017826
0.0178913
0.0179536
0.0180139
0.0180737
0.0181323
0.0181894
0.0182461
0.0183057
0.0183626
0.0184127
0.0184623
0.0185105
0.0185551
0.0186031
0.0186451
0.01868
0.01872
0.0187575
0.018796
0.0188457
0.0188944
0.0189472
0.0189924
0.0190496
0.0191033
0.0191682
0.0192349
0.0193177
0.0194007
0.0194913
0.0195793
0.0196805
0.019803
0.0199396
0.020093
0.0202614
0.0204469
0.0206468
0.0208665
0.0211155
0.0214002
0.02172
0.022077
0.0224674
0.0228982
0.0233646
0.0238855
0.0244402
0.0251164
0.0258104
0.0268425
0.0279338
0.0296232
0.0316536
0.0348545
0.03936
0.046882
0.0598807
0.0836582
0.119133
0.193788
0.296868
0.0276715
0.0277006
0.0277287
0.0277534
0.0277801
0.0278065
0.0278289
0.0278494
0.0278664
0.0278933
0.0279304
0.0279645
0.027999
0.0280677
0.028234
0.0282932
0.0282443
0.0282715
0.0283059
0.0283172
0.0284317
0.0284013
0.0282863
0.028389
0.0283065
0.0282863
0.0284333
0.0284845
0.0285186
0.0283743
0.0284861
0.0283662
0.0283963
0.0283821
0.0285992
0.02869
0.0287457
0.0285662
0.0285196
0.0285892
0.0287144
0.0288409
0.028972
0.029113
0.0292726
0.0294935
0.029786
0.0301435
0.0305526
0.0310109
0.0315114
0.0320761
0.0327073
0.0334537
0.0343117
0.0354944
0.0369116
0.0395151
0.0424834
0.0475869
0.0546151
0.0660208
0.0841106
0.110874
0.173132
0.25204
0.353736
0.449597
0.464783
0.0415861
0.0415702
0.0416946
0.0416399
0.041771
0.041809
0.0418268
0.0417306
0.0416724
0.0417838
0.0418178
0.041823
0.041707
0.0416915
0.0416938
0.0418073
0.0417022
0.0418411
0.0418899
0.0419012
0.0417663
0.0418861
0.0419004
0.0418966
0.0416846
0.0416401
0.0416156
0.0417954
0.0417382
0.0418771
0.041929
0.0417441
0.0417686
0.041853
0.0419055
0.0422963
0.0424505
0.0423084
0.0422476
0.0424179
0.0425885
0.0429031
0.0432221
0.0435868
0.0440203
0.0445262
0.0451033
0.0457357
0.0464238
0.0471828
0.0480353
0.0490267
0.0502909
0.0519581
0.054003
0.058784
0.065594
0.0767329
0.0899937
0.110223
0.138789
0.180166
0.242309
0.33143
0.413486
0.480181
0.461977
0.374807
0.24389
0.0742956
0.0741485
0.074365
0.074173
0.0744306
0.0741949
0.0744948
0.0745632
0.0742833
0.0741704
0.0743655
0.0741317
0.0743127
0.0741251
0.0740652
0.0742503
0.0739644
0.0741111
0.0738026
0.0739477
0.0735908
0.0737267
0.0733467
0.0733956
0.0729903
0.0730787
0.0730555
0.0729951
0.0728865
0.0727467
0.0725678
0.0723502
0.07211
0.0719298
0.0718661
0.0718961
0.0713491
0.0719872
0.0713946
0.0725953
0.0720939
0.0738161
0.0737963
0.0741919
0.0749676
0.0760365
0.0774393
0.0791701
0.0813792
0.0841957
0.087817
0.0924793
0.0985867
0.106622
0.116911
0.130624
0.14421
0.163701
0.188483
0.22643
0.275165
0.337155
0.412352
0.421921
0.356996
0.237854
0.174047
0.130415
0.0999429
0.23876
0.239727
0.241125
0.241659
0.244282
0.245184
0.246234
0.247001
0.245365
0.247568
0.246881
0.249179
0.248845
0.251229
0.251911
0.251655
0.252133
0.252019
0.254138
0.254609
0.255191
0.255448
0.25577
0.253768
0.25513
0.255447
0.254187
0.252653
0.251081
0.249427
0.247697
0.245895
0.244036
0.242116
0.240144
0.238105
0.236009
0.233829
0.231586
0.229245
0.226819
0.224278
0.221608
0.21877
0.215743
0.212458
0.208882
0.204928
0.200515
0.195573
0.189918
0.183471
0.17593
0.167189
0.156807
0.144251
0.128688
0.109767
0.0840994
0.0581438
0.0565031
0.0797562
0.103175
0.114507
0.114925
0.105503
0.0956377
0.0892028
0.0874851
0.000251225
0.000251632
0.000252036
0.000252542
0.000253069
0.000253363
0.000253691
0.000254063
0.00025447
0.000255289
0.000256042
0.000256818
0.000258013
0.000259452
0.000260251
0.000260691
0.000261593
0.000262192
0.000262643
0.000263085
0.000263636
0.000263747
0.000264228
0.000264725
0.000265439
0.00026632
0.000267387
0.000267977
0.000268159
0.000268252
0.000269034
0.000270057
0.000271555
0.000270946
0.00027028
0.00027018
0.000270167
0.00026989
0.000269321
0.000268851
0.000267972
0.000267736
0.000267464
0.000266211
0.000265364
0.000264124
0.000263583
0.000262515
0.000261349
0.000260209
0.000259653
0.000259202
0.000258915
0.000258547
0.000258035
0.000257749
0.000257236
0.00025659
0.000255597
0.000252978
0.000253222
0.000253544
0.000253975
0.000254215
0.000254505
0.000254836
0.000255193
0.000255683
0.000256467
0.000257177
0.00025832
0.000259502
0.000260205
0.000260612
0.000261005
0.000262018
0.000262548
0.000262946
0.000263405
0.000263881
0.000264099
0.000264593
0.00026519
0.000265863
0.000266712
0.000267818
0.000268416
0.000268626
0.000268709
0.000269514
0.000270494
0.00027198
0.000271725
0.000271108
0.000270866
0.000270903
0.000270742
0.000270203
0.000269768
0.000269011
0.000268585
0.000268617
0.000268104
0.000267138
0.00026593
0.00026517
0.000264294
0.000263545
0.000262538
0.000261413
0.00026075
0.000259945
0.00025961
0.000259263
0.000258942
0.000258591
0.000258192
0.000257728
0.000254497
0.000254845
0.000255277
0.000255648
0.000255982
0.000256342
0.000256759
0.000257187
0.000257798
0.000258501
0.000259256
0.000260208
0.000260803
0.000261144
0.000261394
0.000261999
0.000262985
0.000263422
0.000263672
0.000264188
0.000264721
0.000264915
0.000265501
0.000266187
0.000266845
0.000267731
0.000268822
0.000269481
0.000269688
0.000269832
0.000270642
0.000271563
0.000273113
0.000273025
0.000272496
0.000272232
0.000272278
0.000272219
0.000271889
0.000271588
0.000270997
0.000270257
0.000270084
0.000270064
0.000269669
0.000268752
0.000267889
0.000266983
0.00026623
0.000265528
0.000264573
0.000263742
0.000262794
0.000262056
0.000261382
0.00026108
0.000260912
0.000260891
0.000260666
0.000256965
0.000257364
0.000257982
0.000258379
0.000258684
0.000259068
0.000259427
0.000259886
0.000260417
0.000260965
0.000261578
0.00026213
0.00026244
0.000262727
0.000263145
0.000264003
0.000264574
0.000264878
0.000265131
0.000265735
0.000266236
0.000266631
0.000267237
0.000267982
0.000268589
0.000269497
0.00027058
0.000271294
0.000271524
0.000271722
0.000272536
0.000273443
0.000274894
0.000275188
0.000274802
0.000274518
0.000274508
0.000274631
0.000274461
0.000274119
0.000273529
0.000272883
0.00027247
0.000272548
0.000272326
0.000271757
0.000271175
0.000270471
0.000269745
0.000269173
0.000268509
0.000267838
0.000267084
0.000266331
0.000265572
0.000265055
0.000264642
0.000264761
0.000264465
0.000260435
0.000260944
0.000261309
0.000261695
0.000262024
0.000262392
0.000262656
0.00026305
0.000263426
0.000263854
0.000264258
0.000264581
0.000264856
0.000265274
0.000265851
0.000266461
0.000266788
0.000267041
0.000267405
0.000268181
0.000268694
0.000269112
0.000269748
0.000270502
0.000271067
0.000272019
0.000273088
0.000273852
0.000274124
0.000274372
0.000275208
0.000276069
0.000277611
0.000277934
0.000277805
0.000277571
0.000277541
0.000277774
0.000277683
0.00027768
0.000277398
0.000276559
0.000276197
0.0002762
0.000276096
0.000275601
0.00027511
0.000274657
0.00027407
0.000273452
0.000272978
0.000272515
0.000272043
0.000271439
0.000270851
0.000270229
0.000269444
0.000269061
0.000269188
0.000264694
0.000264963
0.000265139
0.000265374
0.000265665
0.000266054
0.000266464
0.000266748
0.000267067
0.000267368
0.000267649
0.000267927
0.000268285
0.000268742
0.000269223
0.000269604
0.000269877
0.000270178
0.000270792
0.000271574
0.00027209
0.000272554
0.000273227
0.000273951
0.000274511
0.000275526
0.000276593
0.00027741
0.000277739
0.000278042
0.000278919
0.000279786
0.000281224
0.000282074
0.000281932
0.000281611
0.00028164
0.000282089
0.000282455
0.000282088
0.000282068
0.000281779
0.000281162
0.000281087
0.000281195
0.000281077
0.000280507
0.00028028
0.00028007
0.000279651
0.000278926
0.000278392
0.00027791
0.00027767
0.000277075
0.000277068
0.000276752
0.000276574
0.000276133
0.000269338
0.00026946
0.000269794
0.000270186
0.00027048
0.000270851
0.000271151
0.000271422
0.000271649
0.00027189
0.000272171
0.00027245
0.000272796
0.000273188
0.000273516
0.00027382
0.000274121
0.00027462
0.00027543
0.00027611
0.000276625
0.000277131
0.000277808
0.000278459
0.000279033
0.000280118
0.000281193
0.00028206
0.000282453
0.000282823
0.000283754
0.000284626
0.000286139
0.000286867
0.000287322
0.000287318
0.000287092
0.000287291
0.0002877
0.000288473
0.00028833
0.000287995
0.000287409
0.000287556
0.000287381
0.000287327
0.000287651
0.000287397
0.000287706
0.000287685
0.000287059
0.000286088
0.000285475
0.00028485
0.000284904
0.00028495
0.000284942
0.000284474
0.000284644
0.000274831
0.000275117
0.000275516
0.000275898
0.000276184
0.000276367
0.000276656
0.000277047
0.000277354
0.000277643
0.000277855
0.000278168
0.000278561
0.00027885
0.000279184
0.000279509
0.000279971
0.000280674
0.000281425
0.000282018
0.000282569
0.000283127
0.000283757
0.000284363
0.000285003
0.00028617
0.000287282
0.000288205
0.000288677
0.000289133
0.000290141
0.000291056
0.00029253
0.000293675
0.000294029
0.000293979
0.000294584
0.000294555
0.000294929
0.000295293
0.000296452
0.000296356
0.000295794
0.00029566
0.000295822
0.000296319
0.000296026
0.000295721
0.000295714
0.000295828
0.000296675
0.000296599
0.00029576
0.000295286
0.000294691
0.000294974
0.000294999
0.000294795
0.000295167
0.000282696
0.000283121
0.000282959
0.000283055
0.00028317
0.000283642
0.000283807
0.000284116
0.000284466
0.000284683
0.000285191
0.000285661
0.000285885
0.000286381
0.000286702
0.000287156
0.000287696
0.000288392
0.000289013
0.000289604
0.000290146
0.000290708
0.000291294
0.000291906
0.000292624
0.000293895
0.000295034
0.00029602
0.000296581
0.000297134
0.000298235
0.000299226
0.000300711
0.000301922
0.000303058
0.000303098
0.000303055
0.000303473
0.000304192
0.000304738
0.000305362
0.000306644
0.000306712
0.000306518
0.000306144
0.000306288
0.000306977
0.000307846
0.000308066
0.000308162
0.000307821
0.000308084
0.00030805
0.000308739
0.000308565
0.000308697
0.000309076
0.000309131
0.000309229
0.000292516
0.000292635
0.000292643
0.00029262
0.000293012
0.000293318
0.000293592
0.000293919
0.000294139
0.000294171
0.000294643
0.000294831
0.000295392
0.000295693
0.000296279
0.000296776
0.000297469
0.000298062
0.000298629
0.0002992
0.000299766
0.000300342
0.000300945
0.000301628
0.000302487
0.000303883
0.000305078
0.000306152
0.000306829
0.000307512
0.000308737
0.000309842
0.000311359
0.000312757
0.000313823
0.000314625
0.000315202
0.000314938
0.000315476
0.000316473