/*--------------------------------*- C++ -*----------------------------------*\
| =========                 |                                                 |
| \\      /  F ield         | OpenFOAM: The Open Source CFD Toolbox           |
|  \\    /   O peration     | Version:  2312                                  |
|   \\  /    A nd           | Website:  www.openfoam.com                      |
|    \\/     M anipulation  |                                                 |
\*---------------------------------------------------------------------------*/
FoamFile
{
    version     2.0;
    format      ascii;
    arch        "LSB;label=32;scalar=64";
    class       volScalarField;
    location    "1500";
    object      k;
}
// * * * * * * * * * * * * * * * * * * * * * * * * * * * * * * * * * * * * * //

dimensions      [0 2 -2 0 0 0 0];

internalField   nonuniform List<scalar> 
76025
(
0.00194682
0.00194498
0.00194011
0.00194004
0.00193925
0.00193909
0.00193814
0.00193601
0.0019326
0.00193076
0.00192883
0.00193019
0.00192922
0.00192677
0.00192712
0.00192515
0.00192432
0.00192149
0.00191736
0.00191564
0.001916
0.00191456
0.00191431
0.00191367
0.00191307
0.00191476
0.00191488
0.00191515
0.00191556
0.00191455
0.00191231
0.00191688
0.00191873
0.00192121
0.00192323
0.00192004
0.00192106
0.0019267
0.00193465
0.00194198
0.00194725
0.0019541
0.00196432
0.00197524
0.00198798
0.00200377
0.00202086
0.00204186
0.00206128
0.00208379
0.00210432
0.00212724
0.00215279
0.00217417
0.00220541
0.00222583
0.00226269
0.002288
0.00233602
0.00237095
0.00242721
0.00246813
0.00253869
0.00258155
0.00264945
0.00270921
0.00278263
0.00290634
0.0029924
0.00196394
0.00196104
0.00195664
0.00195301
0.00195309
0.00195378
0.00195259
0.00194998
0.00194762
0.00194648
0.00194463
0.0019432
0.00194527
0.00194565
0.00194607
0.00194288
0.00194404
0.00194394
0.00194412
0.00194231
0.00194396
0.00194395
0.00194432
0.00194448
0.00194244
0.00194211
0.00194506
0.00194758
0.00195042
0.00195358
0.0019559
0.00195757
0.00196099
0.00196473
0.00197131
0.00197914
0.00198208
0.00198693
0.0019891
0.00200119
0.0020132
0.00202619
0.0020333
0.00204148
0.00205082
0.00206482
0.00208201
0.00210103
0.00211412
0.00213098
0.00214513
0.00216602
0.00218606
0.00221088
0.00223789
0.00226749
0.00230692
0.0023441
0.00239714
0.00244127
0.0025086
0.0025584
0.00262916
0.00267044
0.002753
0.00281083
0.00293484
0.00303987
0.00320142
0.0019865
0.00198354
0.00197953
0.00197516
0.00197178
0.00197258
0.00197272
0.00197126
0.00197238
0.00197216
0.00196949
0.00196972
0.00196852
0.00196904
0.00196927
0.00197217
0.00197301
0.00197438
0.00197498
0.00197368
0.00197719
0.00197825
0.00197746
0.00198245
0.00198373
0.00198139
0.00198129
0.00198353
0.00198766
0.00199098
0.00200107
0.0020052
0.00200421
0.00201091
0.00202448
0.00202335
0.00203226
0.00203144
0.00203494
0.00204501
0.00205659
0.00206768
0.00208314
0.00209814
0.0021136
0.00213187
0.00215471
0.00218461
0.00219674
0.00220069
0.00221194
0.00223245
0.00225483
0.00228338
0.00231624
0.00235218
0.00239833
0.00244079
0.00249821
0.00254854
0.00261834
0.00266459
0.00273147
0.0027757
0.00286257
0.00294296
0.00307339
0.00321937
0.00340133
0.00200908
0.00201054
0.0020102
0.00200925
0.00200705
0.00200353
0.00200049
0.00199905
0.00199852
0.00199581
0.0019953
0.00199596
0.00199521
0.00199866
0.00199986
0.0019996
0.00200434
0.00200588
0.00200837
0.00200941
0.00201165
0.00201335
0.00201085
0.00201097
0.00201237
0.00201519
0.00201853
0.0020231
0.00202865
0.00203375
0.00204029
0.00204644
0.00205199
0.00205669
0.002064
0.00207123
0.00207852
0.0020887
0.00210386
0.00212482
0.0021345
0.00213298
0.00213854
0.00214747
0.00216142
0.00217546
0.00219314
0.00221007
0.00223028
0.00225291
0.00227661
0.00230524
0.00233336
0.00236862
0.0024047
0.00244817
0.00249666
0.00254571
0.00260645
0.00266382
0.0027314
0.00277876
0.00284615
0.00289969
0.00300435
0.00310923
0.00326595
0.00343459
0.0036384
0.00203643
0.00203782
0.00203909
0.00203969
0.00204189
0.00204252
0.00204222
0.00204073
0.00204277
0.00204259
0.00204238
0.00203876
0.00203951
0.00203754
0.00203713
0.00203887
0.00204075
0.00204559
0.00204841
0.00205522
0.00205629
0.0020543
0.00205746
0.00206184
0.00206426
0.00206761
0.00207017
0.00206667
0.00206694
0.00207053
0.00207592
0.002081
0.00208773
0.00209432
0.00210207
0.00211014
0.00211855
0.00212834
0.00213889
0.00215068
0.0021635
0.00217688
0.00219289
0.00220943
0.00223225
0.00225398
0.00227917
0.00230043
0.00232531
0.00234864
0.00237445
0.00240431
0.00243606
0.00247638
0.00251446
0.00256712
0.00261478
0.00267172
0.00272975
0.00279092
0.0028513
0.00290866
0.00297854
0.00306036
0.00318734
0.00331706
0.00349808
0.00368349
0.00392057
0.00207293
0.00207666
0.00207788
0.00207771
0.00208136
0.00207892
0.00208111
0.00207867
0.00207797
0.00207829
0.00208017
0.00208236
0.00208434
0.00208608
0.00208716
0.00209257
0.00209464
0.00209391
0.00209423
0.0020963
0.00209948
0.00210525
0.00211164
0.00211695
0.00212269
0.00213511
0.00213929
0.00213519
0.00213789
0.0021416
0.00215621
0.00216256
0.00215978
0.00216043
0.00216686
0.00217307
0.00218339
0.00219456
0.0022075
0.00222355
0.00224059
0.00226065
0.00228052
0.00230745
0.00234042
0.00237103
0.00239401
0.00241204
0.00243152
0.00245243
0.00248048
0.00251328
0.00255271
0.00259721
0.00264186
0.0027001
0.00274485
0.00280283
0.00284659
0.00290936
0.00296273
0.00304551
0.00312988
0.00325644
0.0033975
0.00356194
0.00376253
0.0039804
0.00425938
0.00211906
0.00211834
0.00211956
0.0021211
0.0021245
0.00212685
0.00212936
0.00213316
0.00213637
0.0021373
0.00213954
0.00214466
0.00214709
0.00215029
0.00215221
0.00215014
0.00215271
0.00215508
0.00215627
0.00216445
0.00216091
0.00216884
0.00216594
0.00216654
0.00217012
0.00217568
0.00218109
0.00218709
0.00219358
0.00220091
0.00221064
0.0022197
0.00222925
0.00224119
0.00225135
0.00226629
0.00228117
0.00229713
0.00231432
0.00232991
0.0023451
0.00236113
0.00237869
0.00240167
0.00242291
0.00245037
0.00247475
0.00250499
0.00253845
0.00257162
0.00261329
0.00265531
0.00270173
0.00274875
0.00279975
0.00286384
0.00290234
0.00294789
0.00298078
0.00304182
0.00310373
0.00322143
0.0033333
0.00350374
0.00365601
0.0038638
0.00408414
0.00434664
0.00468746
0.00218217
0.00218044
0.00218331
0.00218517
0.00218601
0.00218768
0.00218852
0.00218628
0.00218721
0.0021908
0.00219521
0.0021984
0.00220108
0.00220428
0.00220807
0.00221324
0.00221843
0.00222574
0.00223207
0.00223671
0.00224886
0.00224933
0.00225557
0.00225194
0.00225326
0.00225811
0.00226594
0.0022839
0.00229313
0.0023123
0.00232048
0.00231619
0.00231907
0.00232915
0.00234284
0.00235911
0.00237999
0.00239934
0.00242254
0.00244136
0.00246178
0.00248024
0.00249917
0.00252466
0.00254825
0.0025834
0.00261667
0.00265712
0.00270048
0.00274069
0.00278658
0.00283595
0.00287932
0.00292755
0.00298035
0.00305725
0.003096
0.00315559
0.00317003
0.00324637
0.00335004
0.00349036
0.00362516
0.00381324
0.00397548
0.0042361
0.00446655
0.004822
0.00520405
0.00224879
0.00224953
0.0022521
0.00225643
0.00226048
0.00226348
0.00226515
0.00226722
0.00227273
0.00227777
0.00228151
0.0022918
0.00229425
0.00229253
0.0022927
0.00229543
0.00230078
0.00230722
0.00232241
0.00232728
0.00232425
0.00232522
0.00232957
0.00233816
0.00235052
0.00236752
0.00238914
0.00239689
0.0023961
0.00240207
0.00241195
0.00242121
0.00243189
0.00244166
0.00245479
0.00246789
0.00248659
0.00250607
0.00252946
0.00255495
0.00258098
0.00261323
0.00264202
0.00268269
0.00271588
0.00276342
0.00280171
0.00284813
0.00288907
0.00292145
0.00296462
0.00299617
0.00302984
0.00308953
0.00318213
0.00321759
0.00321962
0.00328007
0.0033835
0.0035025
0.00364087
0.00378873
0.00395787
0.00415942
0.0043762
0.00468071
0.00496207
0.00542882
0.00582607
0.00233345
0.00233864
0.0023401
0.00233778
0.00233921
0.00234252
0.00234601
0.00234872
0.00235171
0.00235513
0.00235773
0.00236251
0.00236683
0.00237557
0.00238273
0.00239345
0.00240504
0.00241637
0.0024236
0.00244688
0.00245479
0.00246368
0.00247023
0.00246672
0.00247251
0.00248841
0.00250073
0.00251987
0.00254752
0.00254134
0.0025667
0.00256162
0.00256318
0.0025794
0.00259198
0.00261668
0.0026345
0.00266654
0.00268991
0.00273137
0.00275937
0.00281102
0.0028439
0.00290718
0.00294536
0.00302633
0.00306862
0.00316849
0.00320872
0.0032587
0.00329463
0.00325928
0.00324368
0.00327239
0.00330802
0.00337201
0.00346264
0.00357163
0.00369475
0.00382921
0.00398576
0.00415818
0.00436784
0.00460608
0.00489141
0.00524266
0.0056158
0.00616938
0.00660014
0.00244327
0.00245482
0.00245752
0.00245988
0.00245281
0.00245761
0.00245446
0.00245454
0.00246182
0.00246679
0.00248093
0.00248896
0.00249363
0.00249653
0.00250036
0.00250466
0.00251181
0.00252086
0.00252937
0.00254227
0.00255409
0.00256651
0.00258127
0.00259372
0.00261183
0.00262947
0.00264695
0.00266976
0.0026868
0.00271066
0.00272831
0.00275016
0.00278957
0.00280582
0.00279951
0.00280184
0.00282314
0.00284402
0.00288074
0.00291111
0.0029589
0.00299639
0.00305512
0.00309872
0.00316815
0.00322149
0.00329414
0.00337479
0.00342629
0.00352432
0.00357674
0.00370622
0.00366421
0.00376647
0.00372069
0.00374448
0.0038201
0.00393201
0.00406758
0.00422722
0.00441633
0.00463017
0.0048943
0.00518431
0.00555638
0.00595707
0.00646707
0.00704127
0.00765007
0.0025567
0.00256493
0.00257248
0.00257945
0.00258616
0.0025964
0.00260536
0.00261058
0.00262604
0.00263074
0.00262612
0.00262593
0.00262917
0.00263814
0.00264486
0.00265753
0.00267135
0.0026831
0.0027046
0.00271913
0.00273775
0.00276416
0.00277433
0.00276932
0.00277413
0.00278792
0.00280369
0.00282599
0.0028469
0.00287056
0.00289459
0.00291667
0.00294735
0.00297498
0.00300472
0.00302323
0.00305013
0.00306854
0.00310125
0.00313385
0.00317602
0.00322805
0.00327504
0.00334352
0.00339617
0.00347332
0.00352988
0.00361287
0.0036993
0.00375845
0.00385294
0.00397536
0.00395628
0.00405177
0.00403871
0.0041064
0.004216
0.00436324
0.00453453
0.00473983
0.00497545
0.00525192
0.0055767
0.00594797
0.00639923
0.00688665
0.00750936
0.00811725
0.00894937
0.00271967
0.0027154
0.00271792
0.00272446
0.00273268
0.0027444
0.00275499
0.0027645
0.00277487
0.00278331
0.00279197
0.00280473
0.00281594
0.00282476
0.00283423
0.00284138
0.00285124
0.00286373
0.00288086
0.00290116
0.00292207
0.00295022
0.00297232
0.00299841
0.00302531
0.00303981
0.00308083
0.00309671
0.00308394
0.0030855
0.00310093
0.00312112
0.00315187
0.00318141
0.0032193
0.00325175
0.00329306
0.00332855
0.00337288
0.00341861
0.00346406
0.00351277
0.00356635
0.00361118
0.00367585
0.00372422
0.00379525
0.00385962
0.00392896
0.00402782
0.00416489
0.00422602
0.00423314
0.00430624
0.00441938
0.00456566
0.00473329
0.00493162
0.00515547
0.00541878
0.00571847
0.00606967
0.00647092
0.00693517
0.00746417
0.00806035
0.00874159
0.00946762
0.0103326
0.00292754
0.00294104
0.00294622
0.00295159
0.00295535
0.00294889
0.00295136
0.00296166
0.00297504
0.00299059
0.00300587
0.00302289
0.00304094
0.0030593
0.003074
0.00309535
0.00311492
0.00312808
0.00316131
0.00316052
0.00316562
0.00317476
0.00318955
0.00321447
0.00324073
0.00327158
0.00330046
0.00333477
0.00336218
0.00339926
0.00343015
0.00347471
0.00350885
0.00356145
0.00360021
0.00365242
0.00370942
0.00373755
0.00381853
0.0038582
0.00389966
0.00387337
0.00394131
0.00392111
0.00394054
0.00398511
0.00404667
0.00412283
0.00420781
0.00430583
0.00441462
0.00454108
0.00468236
0.00484202
0.00501712
0.00521695
0.00544041
0.005698
0.0059893
0.00632447
0.00670508
0.00713782
0.00762819
0.00817567
0.00879041
0.00946501
0.0102078
0.0110155
0.0118811
0.00318039
0.00319275
0.00320567
0.00321489
0.00323345
0.00324191
0.00326496
0.00327129
0.00326286
0.00326726
0.0032816
0.00330373
0.00332728
0.00335606
0.00337882
0.00340894
0.00343359
0.0034636
0.00349037
0.00351943
0.00355047
0.00356686
0.00361898
0.00364349
0.00366954
0.00364568
0.00369747
0.00367857
0.00368012
0.00369922
0.00372633
0.00375924
0.00379056
0.00382614
0.00385925
0.00389148
0.00392711
0.00396051
0.0040026
0.00404959
0.00410121
0.00416216
0.00422909
0.0043058
0.00438975
0.0044826
0.00458264
0.00469237
0.00481149
0.0049435
0.00508791
0.00524999
0.00542996
0.005634
0.00586219
0.00612171
0.00641257
0.00674267
0.007112
0.00752776
0.00799078
0.00850437
0.00907327
0.00969204
0.0103736
0.0111008
0.0118892
0.0127349
0.0135678
0.00349213
0.00350596
0.00352065
0.00353331
0.00355018
0.00356803
0.00360517
0.00362296
0.00365977
0.00367093
0.00366256
0.00366231
0.00367757
0.00370547
0.00373524
0.00376757
0.00379637
0.00382687
0.00385159
0.00388021
0.00390292
0.00392905
0.00395246
0.00398334
0.00400558
0.00403786
0.00406857
0.00410424
0.00415423
0.00419567
0.00425227
0.00431039
0.00434723
0.00444349
0.00448379
0.00446608
0.00446754
0.00450017
0.00455287
0.00461894
0.00469482
0.00477878
0.00487069
0.00497088
0.00507972
0.00519916
0.00532974
0.00547413
0.00563273
0.00580896
0.00600376
0.00622125
0.00646246
0.00673196
0.00703065
0.00736344
0.00773087
0.00813778
0.0085842
0.00907388
0.00960736
0.010185
0.0108111
0.0114775
0.0121991
0.0129486
0.0137658
0.0145747
0.0154859
0.00392758
0.0039471
0.00396553
0.00398749
0.00400658
0.00402777
0.00405388
0.00407837
0.00410004
0.00412556
0.00415798
0.00420835
0.00422571
0.00421586
0.0042189
0.00423551
0.00425623
0.00428256
0.00430748
0.00433603
0.00436067
0.00439017
0.00441611
0.00444915
0.00447855
0.00451596
0.00455209
0.00459433
0.00464015
0.00468803
0.00473974
0.00479681
0.00485149
0.00491402
0.00498141
0.00504844
0.00512911
0.00521503
0.00531236
0.00541753
0.00552945
0.00564891
0.00577692
0.00591536
0.0060655
0.00622951
0.00640871
0.00660552
0.00682133
0.00705829
0.00731759
0.00760218
0.00791295
0.00825299
0.00862269
0.00902517
0.00946005
0.00993056
0.0104354
0.0109778
0.011556
0.0121719
0.0128252
0.0135137
0.0142391
0.0149946
0.015778
0.016587
0.0174035
0.004526
0.00455164
0.00458541
0.00461654
0.00465952
0.00469362
0.00474318
0.00477826
0.00483072
0.00486333
0.00492552
0.00495856
0.00503292
0.00505756
0.0050798
0.00503194
0.0050854
0.00504919
0.00503708
0.00505059
0.00507523
0.00511043
0.00515008
0.00519618
0.00524591
0.00530139
0.00536055
0.00542473
0.00549286
0.0055667
0.00564371
0.00572754
0.00581678
0.00591238
0.00601441
0.00612315
0.00623846
0.00636231
0.00649451
0.00663629
0.00678862
0.00695259
0.00712918
0.00731971
0.00752524
0.0077473
0.00798699
0.00824595
0.00852516
0.00882641
0.00915016
0.00949744
0.00986875
0.0102658
0.0106886
0.011139
0.0116164
0.0121233
0.0126579
0.0132234
0.0138173
0.014441
0.0150938
0.0157713
0.0164756
0.017196
0.0179259
0.0186814
0.0193718
0.00536773
0.00539849
0.00543291
0.00546611
0.00550427
0.00553884
0.00557777
0.00561013
0.00564702
0.00567574
0.00571396
0.00574201
0.0057801
0.00580218
0.00583774
0.00586159
0.00589901
0.00593783
0.00598136
0.00603835
0.00609665
0.00616878
0.00624706
0.00633311
0.00642888
0.00652952
0.00663312
0.00673926
0.00684883
0.00696242
0.00708111
0.00720542
0.0073364
0.00747443
0.00762031
0.00777474
0.00793824
0.00811164
0.00829564
0.00849084
0.0086979
0.00891755
0.00915036
0.00939706
0.00965822
0.0099346
0.0102268
0.0105357
0.0108619
0.0112063
0.0115694
0.0119528
0.0123559
0.0127794
0.0132235
0.0136897
0.0141777
0.0146899
0.0152237
0.0157831
0.0163634
0.0169651
0.0175882
0.0182223
0.0188746
0.019518
0.0201661
0.0208
0.0213993
0.00666599
0.00671484
0.00676497
0.00681533
0.00686716
0.00691818
0.00696994
0.00702039
0.00707128
0.00712146
0.00717184
0.00722499
0.00728216
0.00734902
0.00741844
0.00749696
0.00758213
0.00767407
0.0077731
0.00787998
0.0079938
0.00811455
0.00824154
0.00837411
0.0085113
0.00865308
0.0087994
0.00895034
0.00910613
0.00926716
0.00943384
0.00960664
0.009786
0.00997236
0.0101661
0.0103676
0.0105771
0.010795
0.0110217
0.0112574
0.0115024
0.0117571
0.0120218
0.012297
0.0125828
0.01288
0.0131889
0.0135103
0.0138448
0.0141935
0.014557
0.0149369
0.0153335
0.0157493
0.0161817
0.0166326
0.0171012
0.0175904
0.0180948
0.0186215
0.0191571
0.0197059
0.0202663
0.0208201
0.0213802
0.0218933
0.0224131
0.0228851
0.0233701
0.00890939
0.00899998
0.00909258
0.00918744
0.00928424
0.00938231
0.00948159
0.0095819
0.00968347
0.00978673
0.00989228
0.0100014
0.010115
0.0102346
0.01036
0.0104921
0.0106306
0.0107755
0.0109263
0.0110822
0.0112432
0.011408
0.0115768
0.011749
0.0119245
0.0121032
0.0122851
0.0124702
0.0126585
0.0128501
0.0130451
0.0132436
0.0134458
0.0136519
0.0138619
0.0140762
0.0142948
0.0145182
0.0147466
0.0149801
0.0152192
0.0154641
0.0157153
0.0159734
0.0162388
0.0165122
0.0167945
0.0170865
0.0173892
0.0177039
0.0180315
0.0183736
0.0187304
0.0191049
0.0194964
0.0199044
0.0203269
0.0207669
0.0212134
0.0216809
0.0221288
0.0225885
0.0230476
0.0234717
0.0238812
0.0241774
0.0245596
0.0248456
0.0252457
0.0129577
0.013104
0.0132518
0.0134016
0.0135529
0.0137052
0.0138582
0.0140117
0.0141654
0.0143194
0.0144737
0.0146287
0.0147847
0.0149423
0.0151017
0.015263
0.0154263
0.0155915
0.0157586
0.0159274
0.0160978
0.0162696
0.0164426
0.0166165
0.0167908
0.0169653
0.01714
0.0173148
0.0174899
0.0176654
0.0178414
0.0180179
0.0181952
0.0183732
0.0185522
0.0187323
0.0189137
0.0190967
0.0192815
0.0194688
0.0196588
0.019852
0.0200492
0.020251
0.0204586
0.0206728
0.0208943
0.0211246
0.0213644
0.021615
0.0218775
0.0221534
0.0224414
0.0227484
0.0230635
0.0234023
0.0237529
0.0241173
0.0244735
0.0248416
0.0251205
0.0254676
0.0257748
0.025987
0.0261323
0.0261395
0.026616
0.0269092
0.0274395
0.0189108
0.0190811
0.0192506
0.0194202
0.0195894
0.019758
0.0199257
0.0200923
0.0202574
0.0204207
0.020582
0.0207413
0.0208987
0.0210541
0.0212077
0.0213597
0.0215102
0.0216594
0.0218075
0.021954
0.022099
0.022242
0.0223828
0.022521
0.0226563
0.0227888
0.0229185
0.0230457
0.0231709
0.0232942
0.0234158
0.0235359
0.0236546
0.0237717
0.0238882
0.0240023
0.024115
0.0242272
0.0243387
0.024452
0.0245646
0.0246781
0.0247945
0.024914
0.0250396
0.0251707
0.0253066
0.02545
0.0256
0.0257583
0.025927
0.0261062
0.0262926
0.0265
0.0266906
0.0269454
0.0272069
0.0274645
0.0276731
0.0278175
0.0277995
0.0278634
0.0278018
0.0276371
0.0276431
0.0278194
0.0282426
0.0292242
0.0304212
0.0261388
0.0262998
0.0264571
0.0266119
0.0267638
0.0269126
0.027058
0.0272
0.027338
0.0274718
0.0276011
0.027726
0.0278465
0.0279623
0.028074
0.0281816
0.0282853
0.0283874
0.0284876
0.028583
0.0286778
0.0287661
0.0288525
0.0289313
0.0290028
0.0290678
0.0291274
0.0291816
0.0292376
0.029291
0.0293411
0.0293875
0.0294305
0.029469
0.0295062
0.0295261
0.029546
0.029566
0.0295852
0.0296111
0.0296173
0.0296301
0.029653
0.0296735
0.0297083
0.0297378
0.0297592
0.0297844
0.0298085
0.029838
0.0298766
0.0299176
0.0299579
0.0300032
0.0300053
0.0301314
0.030097
0.0299807
0.0297566
0.0294207
0.0290978
0.0288259
0.0284609
0.0286798
0.0290831
0.0300035
0.0312111
0.0351927
0.0399612
0.0336958
0.033811
0.0339195
0.0340232
0.0341213
0.034215
0.0343053
0.0343898
0.0344673
0.0345385
0.0346023
0.0346629
0.0347183
0.0347672
0.034812
0.0348513
0.0348816
0.0349164
0.0349528
0.0349744
0.0350252
0.0350493
0.0351523
0.0351836
0.0351957
0.03519
0.0351141
0.0350456
0.035092
0.0350963
0.035089
0.0350715
0.0350438
0.0350058
0.0349477
0.0347881
0.0347463
0.0346986
0.0346431
0.0345708
0.0343717
0.0343023
0.0342329
0.0340594
0.0339623
0.0337909
0.033579
0.0333861
0.033199
0.0330095
0.0328138
0.0326021
0.0323636
0.0320971
0.0317853
0.0314243
0.0310473
0.0306609
0.030215
0.0298779
0.029529
0.0296108
0.0296515
0.0311452
0.0327053
0.0365928
0.0428778
0.0552109
0.0732499
0.0407215
0.0407379
0.0407487
0.0407602
0.0407677
0.0407805
0.0408351
0.0408527
0.0408604
0.0408651
0.0408154
0.0408347
0.0408298
0.0408158
0.0407897
0.0407346
0.040619
0.0404935
0.0403699
0.0402424
0.0401148
0.0399834
0.0398508
0.0397083
0.0395581
0.0393987
0.0392311
0.0390612
0.0388919
0.0387223
0.0385453
0.038365
0.0381772
0.0379849
0.0377893
0.0375795
0.0373634
0.0371423
0.0369116
0.0366802
0.0364361
0.0361917
0.035952
0.0357086
0.0354704
0.0352237
0.0349625
0.0346859
0.0343834
0.0340635
0.0337228
0.0333548
0.0329539
0.0325337
0.0320388
0.0314938
0.0311357
0.030754
0.0302556
0.0308096
0.0311714
0.0325592
0.0353225
0.0397234
0.0484964
0.0624221
0.0794246
0.0996908
0.109459
0.0440203
0.0439675
0.0439031
0.0438339
0.043756
0.0436748
0.04359
0.0435001
0.0434022
0.0432985
0.0431886
0.0430768
0.0429615
0.0428411
0.042716
0.042583
0.0424386
0.0422801
0.0421123
0.0419367
0.0417515
0.0415573
0.0413581
0.0411498
0.0409372
0.0407162
0.0404924
0.0402604
0.0400288
0.0397904
0.0395498
0.0393067
0.039058
0.0388093
0.0385599
0.0383072
0.0380589
0.0378092
0.0375594
0.0373041
0.0370474
0.0367821
0.0365084
0.036217
0.0359045
0.0355601
0.0351805
0.0347536
0.0342799
0.0337351
0.0331798
0.0325746
0.0320188
0.0314433
0.0311248
0.0308637
0.0318332
0.0321229
0.0335874
0.0360817
0.0404862
0.0467199
0.0558747
0.069517
0.0843789
0.0971061
0.102021
0.0964225
0.0838551
0.0431116
0.0429911
0.0428618
0.0427414
0.0426121
0.0424864
0.0423496
0.0422144
0.0420721
0.0419236
0.0417678
0.0416101
0.0414443
0.0412746
0.0410944
0.0409077
0.0407195
0.040515
0.0403122
0.0400894
0.0398693
0.0396289
0.0393897
0.0391327
0.0388698
0.0385959
0.0383096
0.0380092
0.0376971
0.0373717
0.0370346
0.0366849
0.0363228
0.0359473
0.0355617
0.0351519
0.0347527
0.0343119
0.0338976
0.0334333
0.0329963
0.0325228
0.0320616
0.0316004
0.031154
0.030714
0.0303138
0.0299624
0.0296693
0.0294447
0.0299078
0.0303029
0.0305243
0.031437
0.0326414
0.0340926
0.0360442
0.0389903
0.042731
0.0483438
0.0555931
0.0647292
0.0756609
0.0822893
0.0797818
0.0696258
0.0599685
0.052371
0.047426
0.0330466
0.0331309
0.0332187
0.0334246
0.0335284
0.0336793
0.033756
0.034016
0.0341131
0.0342246
0.034315
0.0342668
0.0344947
0.0345267
0.0345583
0.034784
0.0347256
0.0349427
0.0349706
0.0350336
0.0351423
0.0351693
0.0353782
0.0354433
0.0353714
0.035548
0.0354872
0.0353959
0.0353058
0.0352112
0.0351104
0.0350024
0.0348879
0.0347666
0.0346394
0.0345039
0.0343616
0.0342088
0.0340475
0.0338739
0.0336887
0.0334889
0.0332726
0.0330355
0.032775
0.0324835
0.0321557
0.0317825
0.0313519
0.0308516
0.0302659
0.0295771
0.0287348
0.0277163
0.0264602
0.0248699
0.0227735
0.0200138
0.0159893
0.0132123
0.015208
0.0188529
0.0213397
0.0221284
0.0218524
0.0202498
0.0190467
0.0183705
0.0180728
0.00191757
0.00191796
0.0019195
0.00191968
0.00192079
0.00192124
0.00192323
0.00192426
0.00192534
0.00192659
0.00192781
0.0019282
0.00193434
0.00193848
0.00194055
0.00194039
0.00194569
0.00194901
0.00195202
0.0019545
0.00195786
0.00196041
0.00196296
0.00196519
0.00196915
0.00197369
0.00198013
0.00198611
0.00198954
0.00198948
0.00199099
0.00199487
0.00200062
0.00200028
0.00199952
0.00199903
0.00199991
0.00199909
0.00199553
0.00199427
0.00199042
0.00199042
0.00198971
0.00198544
0.00198335
0.00197899
0.00197439
0.00197053
0.00196743
0.00196372
0.00196189
0.0019608
0.0019613
0.0019594
0.00195732
0.00195561
0.0019535
0.00195145
0.00194922
0.00192543
0.00192587
0.00192651
0.00192712
0.00192816
0.00192947
0.00193051
0.00193111
0.00193192
0.00193275
0.00193417
0.00193841
0.00194214
0.00194434
0.00194502
0.0019465
0.00195272
0.00195555
0.00195791
0.00196041
0.00196383
0.00196675
0.001969
0.00197182
0.0019755
0.00198
0.0019866
0.00199263
0.00199583
0.00199593
0.00199783
0.00200141
0.00200716
0.00200735
0.0020075
0.00200714
0.00200723
0.00200755
0.00200548
0.00200399
0.00200026
0.00199876
0.00199868
0.00199675
0.00199452
0.00199215
0.00198774
0.00198305
0.0019798
0.00197649
0.00197299
0.00197302
0.00197276
0.00197157
0.00196932
0.00196931
0.00196909
0.00196852
0.001967
0.00193371
0.00193477
0.00193462
0.00193508
0.00193711
0.00193895
0.00193998
0.00194092
0.00194191
0.0019437
0.00194609
0.00194931
0.00195099
0.00195229
0.00195346
0.00195736
0.00196217
0.00196443
0.00196626
0.00196922
0.00197314
0.00197593
0.00197812
0.00198126
0.00198467
0.00198935
0.00199593
0.00200211
0.00200511
0.00200552
0.00200774
0.00201107
0.00201678
0.00201789
0.00201755
0.00201777
0.00201939
0.00201912
0.00201749
0.00201621
0.00201324
0.00201235
0.00201252
0.00201143
0.00200909
0.00200719
0.00200469
0.00200128
0.00199816
0.00199478
0.00199185
0.00199017
0.0019899
0.00198826
0.00198873
0.0019887
0.00198884
0.00198826
0.00198821
0.00194631
0.00194816
0.00194818
0.00194915
0.0019516
0.00195269
0.00195387
0.00195528
0.00195713
0.00195882
0.00196079
0.0019624
0.00196339
0.00196468
0.00196731
0.0019719
0.00197483
0.00197658
0.00197847
0.00198224
0.00198629
0.00198887
0.00199117
0.0019944
0.0019976
0.00200254
0.00200903
0.00201527
0.00201818
0.00201888
0.00202142
0.00202453
0.00203025
0.00203176
0.00203291
0.00203249
0.00203331
0.00203553
0.00203533
0.00203413
0.00203113
0.00202856
0.00202797
0.00202945
0.00202845
0.0020263
0.00202327
0.00202013
0.00201825
0.0020163
0.00201393
0.00201125
0.00201091
0.00201078
0.00200865
0.00200944
0.00200794
0.00200947
0.00200937
0.00196423
0.00196448
0.00196627
0.00196599
0.0019667
0.0019695
0.00197157
0.00197354
0.001975
0.00197624
0.00197754
0.00197867
0.00197992
0.00198214
0.0019855
0.00198878
0.00199071
0.00199227
0.00199476
0.0019994
0.0020029
0.00200538
0.00200785
0.00201106
0.00201417
0.00201947
0.00202594
0.00203222
0.00203516
0.00203621
0.00203904
0.00204206
0.00204765
0.00205057
0.00205079
0.00205195
0.00205281
0.00205471
0.00205461
0.00205572
0.00205428
0.0020513
0.0020511
0.00205103
0.00205194
0.00205192
0.00205122
0.00204876
0.00204404
0.00204308
0.00204299
0.00204129
0.00203854
0.00203618
0.00203659
0.00203691
0.002035
0.0020362
0.00203599
0.00198572
0.00198747
0.0019882
0.00198917
0.00199151
0.00199341
0.00199524
0.00199641
0.00199751
0.00199853
0.00199961
0.00200079
0.00200246
0.00200508
0.00200779
0.00200995
0.00201154
0.00201341
0.00201698
0.00202154
0.00202467
0.00202717
0.00202976
0.00203286
0.00203598
0.00204162
0.00204807
0.00205434
0.00205738
0.0020588
0.00206197
0.00206496
0.00207053
0.00207406
0.00207579
0.00207558
0.0020774
0.00207974
0.00208297
0.00208288
0.00208256
0.00208163
0.00208172
0.00208117
0.00208281
0.00208323
0.00208231
0.00208195
0.00208089
0.00207774
0.00207533
0.00207364
0.00207382
0.00207406
0.00207219
0.00207323
0.00207291
0.00207326
0.00207351
0.00201378
0.00201613
0.00201647
0.00201769
0.00201854
0.00201903
0.00201981
0.00202185
0.00202307
0.00202562
0.00202716
0.00202869
0.00203066
0.00203276
0.00203466
0.00203639
0.00203809
0.00204074
0.00204503
0.00204873
0.00205161
0.00205424
0.0020569
0.00205979
0.00206311
0.00206922
0.00207572
0.00208201
0.00208527
0.00208712
0.00209068
0.00209381
0.00209925
0.00210354
0.00210595
0.00210785
0.00210792
0.00211022
0.00211369
0.00211886
0.0021189
0.00211631
0.00211576
0.00211605
0.00211791
0.00212019
0.00212465
0.00212514
0.00212418
0.00212605
0.0021252
0.00212364
0.00212281
0.00212066
0.00211897
0.00212065
0.00212058
0.00212057
0.00211828
0.00205334
0.00205289
0.0020536
0.00205275
0.00205425
0.00205459
0.0020558
0.00205731
0.00205828
0.00205867
0.00206111
0.00206358
0.00206543
0.00206754
0.00206889
0.00207081
0.00207296
0.00207643
0.00208025
0.00208347
0.00208622
0.00208888
0.00209156
0.00209444
0.00209805
0.00210455
0.00211113
0.00211741
0.00212093
0.00212326
0.00212727
0.00213063
0.00213613
0.00214094
0.00214406
0.00214696
0.00214917
0.00215072
0.00215372
0.00215784
0.00216243
0.00216597
0.00216418
0.00216275
0.00216169
0.00216222
0.00216473
0.0021661
0.00216714
0.00216852
0.00217041
0.00217222
0.00217521
0.00217937
0.00218002
0.00218047
0.00217924
0.00217945
0.00217906
0.00208965
0.00208997
0.00209023
0.0020917
0.00209289
0.00209451
0.00209688
0.00209871
0.00210056
0.00210205
0.00210462
0.00210553
0.00210795
0.00210918
0.00211163
0.00211399
0.00211648
0.0021198
0.0021228
0.00212571
0.00212835
0.00213101
0.00213375
0.00213686
0.00214096
0.00214795
0.00215475
0.00216111
0.00216503
0.00216793
0.00217248
0.00217624
0.00218181
0.00218728
0.00219109
0.00219471
0.00219634
0.00220092
0.00220399
0.00220808
0.00221116
0.00221458
0.00222092
0.00222097
0.00222145
0.00222144
0.00222307
0.00222422
0.00222621
0.00222837
0.00223042
0.00223257
0.00223557
0.00223864
0.00224096
0.00224492
0.00225047
0.00225146
0.00224984
0.00214604
0.00214491
0.00214665
0.00214789
0.0021497
0.00215149
0.00215114
0.0021535
0.00215217
0.00215545
0.00215638
0.00215771
0.0021611
0.00216215
0.00216516
0.00216731
0.00217075
0.00217348
0.00217635
0.00217912
0.00218185
0.00218462
0.00218756
0.00219108
0.00219573
0.00220326
0.00221016
0.00221663
0.00222102
0.00222457
0.00222973
0.00223407
0.00223984
0.00224602
0.00225087
0.00225591
0.00225977
0.00226104
0.00226773
0.00227244
0.00228078
0.00228163
0.0022899
0.00228859
0.0022898
0.0022915
0.00229479
0.00229804
0.00230139
0.00230472
0.00230766
0.0023103
0.00231208
0.00231596
0.00231945
0.00232229
0.002327
0.0023319
0.00233379
0.00223366
0.00223286
0.00223165
0.00223034
0.00222917
0.00222792
0.00222673
0.00222597
0.002225
0.00222522
0.00222509
0.00222525
0.00222655
0.00222792
0.00223147
0.00223321
0.00223661
0.00223898
0.00224177
0.00224451
0.00224725
0.00225
0.00225329
0.00225748
0.00226293
0.00227095
0.00227816
0.00228498
0.00229002
0.0022944
0.00230033
0.00230541
0.00231156
0.0023182
0.00232434
0.00232946
0.00233624
0.00234236
0.00234368
0.0023471
0.00235852
0.00236545
0.00236912
0.0023797
0.00237983
0.00238142
0.00238391
0.0023874
0.00239052
0.00239324
0.00239537
0.00239824
0.00240161
0.00240611
0.0024124
0.00241986
0.0024259
0.00243081
0.00243858
0.00233208
0.00232964
0.00232661
0.00232397
0.00232133
0.00231901
0.00231687
0.00231512
0.00231355
0.00231252
0.00231165
0.00231111
0.00231126
0.00231168
0.00231445
0.00231648
0.00231923
0.00232221
0.00232524
0.00232818
0.00233107
0.00233398
0.0023378
0.00234281
0.0023493
0.00235746
0.00236499
0.00237224
0.00237803
0.00238335
0.00239019
0.00239629
0.00240322
0.00241071
0.00241831
0.00242518
0.00243149
0.00244012
0.00245123
0.00245149
0.002458
0.00246718
0.00247266
0.00248287
0.00248954
0.00249347
0.0024973
0.00250088
0.00250569
0.00251015
0.00251656
0.00252376
0.00253216
0.00254299
0.0025462
0.00254591
0.00254562
0.00254618
0.00255158
0.00244873
0.00244548
0.0024416
0.00243821
0.00243481
0.00243182
0.00242899
0.0024266
0.00242446
0.00242279
0.00242144
0.00242052
0.00242009
0.00241994
0.00241978
0.00242151
0.00242365
0.00242594
0.00242868
0.00243165
0.00243451
0.00243744
0.00244183
0.00244785
0.00245542
0.00246404
0.00247223
0.00248028
0.00248713
0.00249369