/*--------------------------------*- C++ -*----------------------------------*\
| =========                 |                                                 |
| \\      /  F ield         | OpenFOAM: The Open Source CFD Toolbox           |
|  \\    /   O peration     | Version:  2312                                  |
|   \\  /    A nd           | Website:  www.openfoam.com                      |
|    \\/     M anipulation  |                                                 |
\*---------------------------------------------------------------------------*/
FoamFile
{
    version     2.0;
    format      ascii;
    arch        "LSB;label=32;scalar=64";
    class       volScalarField;
    location    "1500";
    object      nut;
}
// * * * * * * * * * * * * * * * * * * * * * * * * * * * * * * * * * * * * * //

dimensions      [0 2 -1 0 0 0 0];

internalField   nonuniform List<scalar> 
76025
(
0.00133871
0.00134102
0.00133891
0.00134133
0.00134317
0.00134401
0.00134372
0.0013427
0.00134133
0.00134321
0.00134559
0.00135183
0.00135588
0.00135034
0.00135186
0.0013514
0.00135377
0.00135681
0.00135413
0.00135222
0.00135513
0.00135855
0.00136556
0.0013704
0.0013738
0.00137696
0.00137689
0.00137811
0.00138033
0.00137747
0.00137509
0.00138319
0.00138369
0.0013892
0.00138962
0.00138499
0.00138532
0.00139137
0.00139965
0.00140686
0.00140792
0.0014099
0.00141143
0.00141554
0.00141911
0.00142666
0.00143332
0.0014449
0.00145252
0.00146468
0.00147191
0.00148338
0.00149391
0.00150438
0.00152007
0.00152906
0.00155131
0.00156339
0.00158921
0.0016071
0.00163399
0.00165673
0.00168718
0.00170427
0.00172697
0.00174885
0.00178084
0.0018334
0.00187636
0.00134956
0.00134896
0.00134667
0.00134633
0.00135005
0.00135443
0.00135507
0.00135297
0.00135193
0.00135269
0.00135371
0.00135491
0.00136166
0.00136556
0.00136904
0.00136652
0.00137183
0.00137172
0.00137528
0.00137211
0.00137611
0.00137497
0.00137781
0.00138024
0.00137796
0.00137766
0.00138184
0.00138486
0.00139026
0.00139558
0.00139769
0.00139897
0.00139748
0.0013999
0.00140109
0.00140841
0.00141404
0.00141928
0.00141673
0.00142769
0.00143038
0.00143578
0.00143215
0.00143631
0.00144069
0.00144895
0.00145998
0.0014743
0.0014787
0.00148618
0.00148793
0.00149775
0.0015014
0.00151548
0.00152559
0.0015459
0.00156563
0.00158913
0.00161306
0.00163829
0.00166693
0.00169455
0.00171391
0.00172668
0.00174695
0.00176928
0.00181115
0.00187147
0.0019307
0.00136396
0.00136161
0.00135887
0.00135612
0.00135495
0.00135933
0.00136319
0.00136404
0.00136832
0.00137025
0.00136915
0.00137197
0.00137318
0.00137677
0.00137959
0.0013865
0.00138994
0.00139463
0.00139512
0.00139422
0.00139965
0.00140056
0.00139884
0.00140414
0.00140475
0.00140014
0.00139818
0.00139909
0.0014039
0.00140237
0.00141403
0.00142176
0.00141986
0.00142454
0.00143868
0.00143123
0.00143812
0.00143192
0.00143128
0.00143769
0.00144369
0.00144915
0.00145785
0.00146622
0.00146765
0.00147218
0.00148825
0.00151905
0.00152233
0.00150951
0.00150368
0.00150888
0.00150536
0.00152163
0.0015407
0.00157245
0.00159878
0.00162941
0.0016559
0.00168962
0.0017182
0.00173683
0.00174247
0.00174871
0.00176315
0.00180153
0.00184864
0.00193621
0.00200056
0.00137368
0.00137563
0.00137651
0.00137816
0.00137871
0.00137743
0.0013769
0.0013782
0.00138011
0.00137843
0.00138014
0.0013817
0.00138035
0.00138651
0.00138915
0.00138858
0.00139571
0.00139829
0.0014017
0.00140303
0.00140804
0.0014115
0.00140729
0.00140585
0.00140675
0.00140584
0.00140785
0.00141091
0.00141602
0.00142533
0.00143352
0.00144079
0.00144409
0.0014447
0.00144874
0.00144956
0.00145111
0.00145596
0.00146503
0.00148243
0.00148649
0.00147705
0.0014756
0.00147935
0.00148653
0.00149277
0.00149716
0.00150228
0.0015058
0.00150175
0.00150621
0.001514
0.00151505
0.00153863
0.00156813
0.00161545
0.0016485
0.00168403
0.00171241
0.0017476
0.00176148
0.00176614
0.00175642
0.00176115
0.00178841
0.00184873
0.00191934
0.00201002
0.00210446
0.00138684
0.00138837
0.0013902
0.00139229
0.00139463
0.00139577
0.00139717
0.00139856
0.0014055
0.00140867
0.00140915
0.00140426
0.00140543
0.00140361
0.00140397
0.00140432
0.00140826
0.00141316
0.00141821
0.00142732
0.00142769
0.00142316
0.00142616
0.00142824
0.00142634
0.0014308
0.00143283
0.00142657
0.00142333
0.00142322
0.00142824
0.00142302
0.00142648
0.00142901
0.00143345
0.00144574
0.00145336
0.00145927
0.00146378
0.00147112
0.00147703
0.0014862
0.00149541
0.0015048
0.00152154
0.00153261
0.001548
0.00155287
0.00156683
0.00156802
0.00157538
0.00158477
0.00160405
0.00163954
0.00165954
0.00169675
0.0017135
0.00174412
0.00175724
0.00178061
0.00177383
0.00177865
0.00177144
0.00180788
0.00186185
0.00194663
0.00202018
0.0021272
0.0021915
0.00140034
0.00140719
0.00140771
0.00140869
0.00141194
0.00140836
0.00140817
0.00140416
0.00140335
0.00140684
0.00140899
0.00141399
0.00141634
0.0014171
0.00141788
0.00142534
0.00142863
0.00142417
0.00142628
0.00142658
0.00143134
0.00143759
0.00144095
0.00144526
0.00144397
0.00145777
0.00146028
0.00145207
0.00145972
0.00146415
0.00148048
0.00148357
0.00147405
0.00146884
0.00147133
0.00147287
0.00147911
0.00148496
0.00149197
0.0015019
0.00151313
0.00152713
0.00154029
0.00156047
0.00158838
0.0016081
0.00161593
0.00161824
0.00162185
0.00162983
0.00164112
0.0016611
0.00167795
0.00170348
0.00171777
0.0017528
0.00175585
0.00178084
0.0017661
0.00178461
0.00176893
0.00180408
0.0018235
0.00190317
0.00197244
0.00206285
0.00214042
0.00222694
0.00231299
0.00142008
0.00141853
0.00142216
0.00142772
0.00142992
0.00143432
0.00143665
0.00143998
0.00144104
0.00144038
0.00144226
0.00144424
0.00144995
0.00145247
0.00145586
0.00145197
0.00145103
0.00145237
0.00144667
0.00146024
0.00144988
0.00146378
0.00146034
0.00145937
0.00146053
0.00146328
0.00146399
0.00146699
0.00146922
0.00146926
0.00147415
0.00147897
0.00148603
0.00149582
0.00150197
0.00151215
0.00151876
0.00152457
0.00152157
0.00152624
0.00153621
0.00154789
0.00155906
0.00157069
0.00158137
0.00157845
0.00157972
0.00159644
0.00162114
0.0016448
0.00167103
0.00169692
0.00171791
0.0017458
0.00176503
0.00180839
0.0017999
0.0018091
0.00177589
0.00179556
0.00179416
0.00186977
0.00192621
0.00202733
0.00210182
0.00218198
0.00225232
0.00234789
0.00242566
0.00145366
0.00144951
0.00145454
0.00145455
0.00145462
0.00145727
0.00145392
0.00144935
0.00145097
0.00145089
0.00145562
0.00146228
0.00146593
0.00146827
0.0014685
0.00146778
0.00147522
0.00148388
0.00149093
0.00149394
0.00150468
0.00149925
0.00150083
0.00149211
0.00148321
0.00148649
0.00149749
0.00151752
0.00152129
0.00153527
0.001538
0.00151607
0.00150506
0.00150999
0.0015049
0.00151552
0.00154639
0.00156801
0.00158735
0.00159931
0.00161062
0.00161435
0.001618
0.00162552
0.00162998
0.00164712
0.00166397
0.00168766
0.00171309
0.00173075
0.00174553
0.00176521
0.00177392
0.00180045
0.00181796
0.00187776
0.00186068
0.00188625
0.00182998
0.00187109
0.00191434
0.00200634
0.00207305
0.00214811
0.0022228
0.0022787
0.00238341
0.0024592
0.00257978
0.00147361
0.00147491
0.0014796
0.00148194
0.00148637
0.0014918
0.0014931
0.00149385
0.00149115
0.00149365
0.00149414
0.00150534
0.00151191
0.00150859
0.00150308
0.00149926
0.0015018
0.00149893
0.0015146
0.00152193
0.00151878
0.00151449
0.00151298
0.00152
0.00151788
0.0015327
0.00155319
0.00155714
0.00155851
0.00156127
0.00156333
0.00156319
0.00155185
0.00154824
0.00154318
0.00153068
0.00154184
0.00157102
0.00159716
0.00162101
0.00163646
0.0016595
0.00167089
0.00169276
0.0017062
0.00173448
0.00175116
0.00177828
0.00179135
0.00179566
0.00178498
0.00176956
0.00176105
0.00179951
0.00187182
0.00187595
0.00181584
0.00184691
0.00189513
0.00198789
0.00204878
0.00213806
0.00219346
0.00226497
0.00234545
0.00241436
0.00252752
0.00262741
0.0027363
0.00150131
0.00150477
0.00150189
0.00149687
0.00149961
0.00150483
0.00150413
0.00150689
0.00151416
0.00151886
0.00151962
0.00151981
0.00152119
0.00152555
0.00152217
0.00153635
0.00154319
0.00156069
0.00156798
0.00159313
0.0015968
0.00160005
0.00159829
0.00158093
0.00157
0.00156859
0.00157721
0.00160258
0.00163523
0.00161761
0.00162785
0.00160259
0.00159598
0.00161072
0.00161809
0.00163508
0.00164525
0.00166222
0.00167539
0.00170055
0.00170644
0.00174297
0.00174378
0.00177404
0.00179162
0.00186273
0.00188403
0.00199368
0.00201646
0.0020395
0.00203464
0.00194299
0.00187208
0.001857
0.00182885
0.00184101
0.00188313
0.00196995
0.00203847
0.00213753
0.00218246
0.00227837
0.00231567
0.00241559
0.00248596
0.00258078
0.00270884
0.00279435
0.00294034
0.0015554
0.00157244
0.00157355
0.001572
0.00155865
0.00156161
0.00155054
0.00154385
0.00154899
0.0015485
0.00155606
0.001569
0.00157118
0.0015757
0.00157632
0.00157756
0.00157412
0.00157806
0.00157883
0.00157921
0.00158948
0.00160538
0.00161797
0.00162127
0.0016324
0.00164048
0.00165042
0.00166649
0.00167326
0.00168929
0.00168847
0.00169068
0.00172471
0.00170969
0.00170725
0.00169097
0.00171688
0.00173405
0.0017579
0.00177436
0.00180452
0.00182124
0.00186319
0.00187707
0.00193044
0.00194633
0.0019955
0.00203162
0.00204604
0.00209478
0.00209229
0.00217207
0.00206221
0.00212859
0.0020055
0.00193545
0.00198145
0.00209878
0.00217867
0.00227971
0.00231582
0.00242106
0.00246237
0.00259088
0.00265133
0.00279083
0.00288819
0.00300755
0.00314011
0.00157633
0.00158682
0.00159773
0.00160605
0.00161331
0.00162435
0.0016312
0.00163057
0.00164253
0.00164127
0.00162361
0.00161375
0.00161309
0.00160996
0.00161301
0.00162817
0.00164312
0.0016514
0.0016621
0.0016609
0.00167111
0.00168823
0.00167567
0.00165913
0.00166666
0.00168417
0.00169582
0.00170841
0.00171787
0.0017271
0.00172976
0.00172166
0.00171717
0.00174334
0.00176664
0.0017829
0.00180018
0.00179994
0.00181962
0.00183256
0.00186141
0.00189213
0.00191908
0.00196074
0.00198137
0.00202533
0.00203781
0.00207918
0.00211606
0.00212405
0.00216833
0.00224164
0.00215537
0.00221454
0.00215743
0.00219962
0.00223915
0.00231447
0.0023529
0.00244223
0.00248984
0.00260166
0.00266032
0.00279607
0.00286381
0.00301758
0.00309156
0.00323789
0.00332815
0.00166613
0.00165635
0.00165267
0.00165324
0.00165643
0.00166378
0.00166861
0.0016723
0.00167512
0.00167733
0.00167701
0.00168088
0.001684
0.00168103
0.00168783
0.00167541
0.00167977
0.00168676
0.00170687
0.00173148
0.00174964
0.00177579
0.00178521
0.00180633
0.00181775
0.00182364
0.00184616
0.0018507
0.00180204
0.00178476
0.00176537
0.00175711
0.00177282
0.00175836
0.00177917
0.00179723
0.00185552
0.00189317
0.00193117
0.00194941
0.00197275
0.0019803
0.0020019
0.00199785
0.00201467
0.00201773
0.00202069
0.00203721
0.00204426
0.00207045
0.00215543
0.002164
0.0020669
0.00209908
0.00221727
0.00233105
0.00239999
0.00248895
0.00254468
0.0026429
0.00270488
0.00282271
0.00289413
0.00302924
0.00310535
0.00324536
0.00331703
0.00344945
0.00349977
0.00174844
0.00175523
0.0017538
0.00175228
0.00173541
0.00171955
0.00171428
0.00172274
0.00174005
0.0017543
0.00176175
0.00176922
0.00177643
0.00178288
0.00178525
0.00178802
0.00178593
0.00176893
0.00179483
0.00179543
0.00180281
0.00180675
0.00180957
0.00181716
0.00182995
0.00183734
0.00185265
0.00185101
0.00186091
0.00185516
0.00186794
0.00189298
0.00194534
0.00197362
0.00202233
0.0020723
0.00210842
0.00211302
0.00215794
0.00216514
0.00215841
0.00208071
0.002109
0.00202727
0.00200652
0.00200168
0.00200614
0.0020381
0.00206175
0.00205645
0.00211646
0.00223808
0.00234897
0.00244101
0.00250179
0.00257403
0.00263068
0.002715
0.00278222
0.00288394
0.00296213
0.00307725
0.00316126
0.00328008
0.0033613
0.00347015
0.00354188
0.00362904
0.00368079
0.0018329
0.00183729
0.00184136
0.00184262
0.00185091
0.00184772
0.00186806
0.00184833
0.00182962
0.00182425
0.00183371
0.00186493
0.00188924
0.00191089
0.00192207
0.00193783
0.00194775
0.0019628
0.00197884
0.001997
0.00202133
0.00202269
0.00206804
0.00207383
0.0020887
0.00203503
0.00207539
0.00202264
0.0020047
0.00199182
0.00200282
0.00200098
0.00201302
0.0020086
0.00201656
0.00200287
0.0020061
0.00199366
0.00198176
0.00200167
0.00197866
0.00200006
0.00202106
0.00205727
0.00215078
0.00223684
0.00230349
0.00236348
0.00241621
0.00247269
0.00252286
0.00257754
0.0026276
0.00269034
0.00275007
0.0028277
0.00289839
0.00299095
0.00306977
0.0031738
0.00325527
0.00336309
0.00343938
0.00354031
0.00360356
0.003687
0.0037345
0.00378949
0.00382428
0.00193
0.00193349
0.00193679
0.00193597
0.00193994
0.00194249
0.00196841
0.00197018
0.00199083
0.00199687
0.00195362
0.00194137
0.00194494
0.00196509
0.00200785
0.00204356
0.00206252
0.0020814
0.00208768
0.00210094
0.00210129
0.00210984
0.00210628
0.00211718
0.00210636
0.00211623
0.0021084
0.00211589
0.0021262
0.00211901
0.00215342
0.00213841
0.00214055
0.00219606
0.00220433
0.00220467
0.00220883
0.00222422
0.00224797
0.00228144
0.00231848
0.00235954
0.00240091
0.00244392
0.00248678
0.00253167
0.00257651
0.00262522
0.00267451
0.00272947
0.00278558
0.00284953
0.00291448
0.00298903
0.00306272
0.00314736
0.00322716
0.0033189
0.00339944
0.00349234
0.00356618
0.00365199
0.00371145
0.00378268
0.00382087
0.00387565
0.00388487
0.00392834
0.00390147
0.00207564
0.00208149
0.00208598
0.00209311
0.00209463
0.0020986
0.00210621
0.00211231
0.00211566
0.00212095
0.00213705
0.00216096
0.00213935
0.00213553
0.00211481
0.0021418
0.0021605
0.00217658
0.00218217
0.00219077
0.00218864
0.00219377
0.00218742
0.00219277
0.00218444
0.00219104
0.00218365
0.00219152
0.0021877
0.00219625
0.00219361
0.00220494
0.00220476
0.00220252
0.00223263
0.00221045
0.00223926
0.00226647
0.00231131
0.00241353
0.00252956
0.00261359
0.00267864
0.00273503
0.0027873
0.00283987
0.00289333
0.00295073
0.00301062
0.00307548
0.00314226
0.00321461
0.00328756
0.00336604
0.00344235
0.0035237
0.00359829
0.00367754
0.00374369
0.0038147
0.00386578
0.00392217
0.00395378
0.00399029
0.00400107
0.00401526
0.00400355
0.00399785
0.00395493
0.00227282
0.00228075
0.00229677
0.00230696
0.0023314
0.00234162
0.00236769
0.00237686
0.00239151
0.00240124
0.00241692
0.00242451
0.00243602
0.00243922
0.00243982
0.00242734
0.00244006
0.00243066
0.00242303
0.00242486
0.00242139
0.00242762
0.00243046
0.00244009
0.00244913
0.00246349
0.00247509
0.00249383
0.00251047
0.00253522
0.00255688
0.0025865
0.00261675
0.00265021
0.00269146
0.00273111
0.00277771
0.00282575
0.00287572
0.0029282
0.00298175
0.00303545
0.00308924
0.00314425
0.00320054
0.00325923
0.00331966
0.00338312
0.0034484
0.00351688
0.0035858
0.00365647
0.003725
0.0037943
0.00385831
0.00392208
0.00397627
0.00403019
0.00406894
0.00410919
0.00412792
0.00415137
0.00414763
0.00415213
0.00412565
0.0041092
0.00405827
0.00401946
0.00393755
0.00252885
0.00253766
0.00254995
0.00255782
0.0025714
0.00257845
0.00259017
0.00259306
0.00259754
0.00259382
0.00259753
0.00259057
0.00259458
0.00258206
0.00258691
0.00257685
0.00257943
0.00258098
0.00257319
0.00258484
0.0025822
0.00258679
0.00261579
0.00259508
0.00263364
0.00273566
0.00282026
0.00288703
0.00294288
0.00299171
0.00303807
0.00308238
0.00312769
0.00317285
0.00321834
0.0032651
0.00331232
0.00336129
0.00341189
0.00346396
0.00351727
0.00357176
0.00362716
0.00368355
0.00374048
0.00379805
0.00385546
0.00391295
0.0039691
0.00402503
0.00407874
0.00413139
0.00417939
0.00422426
0.0042616
0.00429528
0.00431826
0.00433835
0.00434333
0.00434825
0.00433241
0.00432042
0.00428179
0.00425254
0.0041883
0.00413977
0.00404127
0.00397251
0.00383593
0.0029219
0.00293838
0.0029555
0.0029698
0.00298453
0.0029959
0.00300729
0.00301484
0.00302152
0.0030247
0.00302775
0.00302963
0.00303596
0.00304633
0.00306029
0.00307718
0.0030989
0.00312392
0.00314919
0.00318477
0.0032173
0.00325799
0.00330361
0.00335036
0.00340413
0.00346202
0.00351947
0.00357452
0.00362708
0.00367741
0.0037263
0.00377414
0.00382146
0.00386845
0.00391524
0.00396194
0.0040085
0.00405495
0.00410115
0.00414698
0.00419222
0.00423671
0.00428013
0.00432229
0.00436276
0.00440137
0.0044375
0.00447109
0.00450127
0.0045282
0.00455074
0.00457027
0.0045846
0.00459579
0.00459884
0.00459722
0.00458524
0.00457017
0.00454045
0.00451159
0.00446112
0.00441473
0.00434193
0.00427752
0.00417452
0.00408381
0.00393362
0.0038278
0.00362265
0.00352355
0.00355221
0.00358142
0.00361073
0.00363996
0.00366837
0.0036962
0.00372277
0.00374878
0.00377355
0.00379845
0.00382345
0.00385005
0.00387863
0.00391006
0.00394447
0.00398191
0.00402285
0.00406679
0.00411207
0.0041609
0.00420805
0.00425573
0.00430223
0.00434611
0.0043902
0.00443405
0.00447694
0.00451848
0.00455847
0.00459685
0.00463362
0.00466879
0.00470237
0.00473432
0.0047646
0.00479315
0.00481988
0.00484465
0.00486733
0.00488775
0.00490575
0.00492112
0.00493368
0.00494318
0.00494948
0.00495224
0.00495142
0.0049465
0.00493763
0.00492404
0.00490629
0.0048837
0.00485821
0.00482693
0.00479165
0.00474718
0.00470065
0.00463924
0.00458119
0.0044943
0.00441565
0.004308
0.00420557
0.00405345
0.0039025
0.00370286
0.00354843
0.0032618
0.00450072
0.00454063
0.00458001
0.00461886
0.00465687
0.00469401
0.00473
0.00476491
0.00479854
0.00483106
0.00486229
0.00489279
0.00492239
0.00495202
0.00498134
0.00501142
0.00504174
0.00507251
0.00510331
0.00513389
0.00516436
0.00519428
0.00522349
0.0052517
0.00527857
0.005304
0.00532783
0.00534991
0.00537009
0.00538827
0.00540434
0.00541821
0.00542982
0.00543907
0.00544592
0.00545021
0.00545184
0.00545074
0.00544676
0.00543988
0.00542992
0.00541675
0.00540032
0.0053805
0.00535728
0.00533065
0.00530033
0.00526639
0.0052284
0.00518647
0.00514017
0.0050901
0.00503446
0.00497755
0.00491358
0.00484999
0.00477943
0.00470731
0.00461881
0.00453262
0.00439808
0.00429399
0.00414676
0.0039902
0.00375947
0.00353185
0.00333504
0.00312328
0.00277844
0.00541722
0.00544594
0.00547432
0.00550253
0.00553044
0.00555794
0.00558491
0.00561124
0.00563678
0.00566141
0.00568503
0.00570762
0.00572916
0.00574971
0.00576928
0.00578796
0.00580577
0.00582279
0.00583901
0.00585424
0.0058685
0.0058815
0.00589316
0.0059032
0.00591139
0.00591757
0.00592166
0.00592355
0.00592334
0.00592094
0.00591619
0.00590901
0.00589926
0.0058868
0.0058717
0.00585323
0.00583153
0.00580668
0.00577848
0.0057474
0.00571232
0.00567353
0.00563152
0.00558583
0.00553727
0.00548534
0.00542926
0.00536937
0.00530487
0.00523599
0.00516302
0.00508592
0.00500307
0.00491987
0.00482438
0.00474347
0.00465864
0.00456565
0.00444895
0.0043087
0.00410742
0.00393236
0.00369575
0.00344276
0.00317355
0.00295302
0.00266292
0.00239966
0.00199312
0.00588229
0.00590398
0.00592482
0.00594494
0.0059643
0.00598289
0.00600072
0.00601769
0.00603368
0.00604857
0.00606221
0.00607463
0.00608579
0.0060956
0.00610403
0.00611119
0.00611717
0.00612251
0.00612736
0.00613093
0.00613431
0.00613578
0.00613713
0.00613567
0.00613124
0.00612403
0.0061136
0.0061004
0.00608726
0.0060725
0.00605516
0.00603526
0.00601231
0.0059862
0.00595726
0.00592056
0.00588175
0.00584076
0.00579688
0.00575163
0.00569619
0.00563939
0.00558213
0.00551928
0.00545683
0.00538784
0.00531065
0.00522848
0.00513973
0.00504625
0.00494965
0.00484765
0.00474033
0.00462876
0.00450261
0.00440524
0.00426288
0.00408591
0.00388311
0.00363861
0.00339526
0.00314575
0.00286115
0.00265585
0.00241456
0.00216649
0.0018434
0.00165726
0.0014566
0.00588097
0.00589327
0.00590452
0.00591492
0.00592441
0.00593313
0.0059417
0.00594919
0.00595531
0.00595992
0.0059622
0.00596375
0.00596405
0.0059623
0.00595818
0.00595315
0.00594728
0.00594313
0.00594003
0.00593306
0.00593499
0.00592977
0.00595351
0.0059514
0.00594355
0.00592946
0.00588834
0.00585028
0.00584944
0.00583693
0.005817
0.00579483
0.00576614
0.00573366
0.00569017
0.00561418
0.00557467
0.00553439
0.00548834
0.00543161
0.00533246
0.0052704
0.00520548
0.00510609
0.00502785
0.00492484
0.00480593
0.00468765
0.00456702
0.00444202
0.00431322
0.00417766
0.00403456
0.00388187
0.00372042
0.00353848
0.0033612
0.00315203
0.00294143
0.00271212
0.00247923
0.00226405
0.00201038
0.00186216
0.00160765
0.00144054
0.00138892
0.00141568
0.00162665
0.00539334
0.00539202
0.0053894
0.00538764
0.00538444
0.00538271
0.00539277
0.00539347
0.00539221
0.00538825
0.00536801
0.00536654
0.00535863
0.00534187
0.00530361
0.00527822
0.00525737
0.00521992
0.00518182
0.00514708
0.00509388
0.005066
0.00505291
0.00499868
0.0049754
0.0049389
0.00487164
0.00482086
0.00477347
0.00475597
0.00469411
0.00466996
0.00461943
0.0045753
0.00449393
0.0044301
0.00437082
0.00434638
0.00429957
0.0042355
0.00416108
0.00408743
0.00401523
0.00394185
0.00386824
0.00378604
0.00369348
0.00359216
0.0034825
0.00336749
0.00324803
0.00312161
0.00298821
0.00284751
0.00269248
0.00251496
0.00236373
0.00215418
0.00193925
0.00179526
0.00160119
0.00144514
0.00133504
0.00128088
0.0012226
0.00139139
0.00160499
0.00198944
0.00232005
0.00419373
0.00418528
0.00416057
0.00415292
0.00412517
0.00410614
0.00408847
0.00408101
0.00406835
0.00403813
0.0040144
0.00399314
0.00398285
0.00396203
0.0039387
0.00390357
0.00388692
0.00384514
0.00381023
0.0037775
0.00375631
0.00371079
0.00367405
0.00363747
0.00361828
0.00358316
0.00354596
0.00349035
0.00345505
0.00340269
0.00335751
0.00333106
0.00328709
0.00323883
0.00319332
0.00312248
0.00307094
0.00304096
0.00300523
0.00295262
0.00290046
0.0028381
0.00277538
0.0027084
0.00263564
0.00255596
0.00246966
0.00237677
0.00227814
0.00217081
0.00206267
0.0019479
0.00183469
0.00171255
0.0016145
0.00145841
0.0013904
0.00121029
0.0011282
0.00106303
0.00106292
0.00109037
0.00115959
0.0013123
0.00154971
0.00176738
0.00202769
0.0022325
0.00259482
0.00225148
0.00224335
0.00222338
0.00221663
0.00219562
0.00218962
0.00216678
0.00215099
0.00214457
0.0021327
0.00211132
0.00210202
0.00208022
0.00206844
0.00205207
0.00202841
0.00201755
0.00199338
0.00198173
0.00195604
0.001944
0.00191709
0.00190383
0.00187781
0.00186296
0.00183457
0.00180803
0.00178126
0.00175473
0.00172789
0.00170104
0.00167408
0.00164666
0.00161684
0.00158374
0.0015468
0.00152346
0.00147189
0.00144849
0.00138577
0.00135917
0.00128964
0.00125365
0.00121135
0.00116519
0.00111659
0.00106798
0.00102055
0.00097352
0.000926759
0.000916715
0.00089365
0.000850584
0.00083422
0.000820212
0.00080083
0.000810808
0.000835805
0.000871881
0.000928945
0.00101086
0.00111844
0.00124944
0.00144444
0.00160467
0.0018343
0.00185961
0.00189277
0.00202546
0.000411657
0.00041209
0.000411875
0.000416075
0.000414167
0.000416367
0.000416481
0.000421609
0.000426846
0.000425817
0.000429261
0.000424109
0.000430347
0.000427054
0.000426678
0.000432709
0.000430439
0.000436036
0.000433092
0.00043385
0.000435549
0.000435779
0.000440417
0.000445525
0.000441352
0.000445217
0.000445895
0.000446297
0.000446807
0.000447364
0.000447914
0.000448424
0.000448888
0.000449307
0.000449687
0.000449996
0.000450258
0.000450422
0.000450506
0.000450478
0.000450332
0.000450046
0.000449606
0.00044897
0.000448116
0.000446987
0.000445512
0.000443625
0.000441188
0.000438015
0.000434096
0.000429127
0.000422396
0.000413528
0.000401849
0.000385897
0.000362712
0.000328419
0.000273594
0.000270208
0.000368393
0.000401085
0.000397232
0.000384866
0.00037396
0.000349798
0.000341391
0.000340492
0.000336015
0.00131729
0.00131569
0.0013157
0.00131331
0.0013121
0.00131118
0.0013122
0.00131168
0.00131105
0.00130855
0.00130635
0.00130293
0.00130516
0.00130349
0.00130226
0.00129985
0.00130246
0.00130393
0.0013057
0.00130683
0.00130859
0.00131144
0.00131246
0.00131297
0.00131472
0.00131643
0.00131975
0.0013248
0.00132848
0.00132794
0.00132609
0.00132623
0.00132653
0.00132906
0.00133131
0.00133116
0.0013324
0.00133266
0.00133073
0.00133137
0.00133058
0.00133176
0.00133216
0.00133269
0.00133413
0.00133452
0.00133103
0.00133124
0.00133297
0.00133376
0.00133413
0.00133496
0.00133713
0.00133644
0.00133624
0.0013354
0.00133517
0.00133573
0.00133785
0.00131892
0.00131824
0.00131743
0.00131604
0.00131622
0.0013165
0.00131621
0.00131519
0.00131377
0.00131088
0.00130918
0.0013091
0.00130817
0.00130759
0.00130646
0.00130648
0.00130975
0.0013109
0.00131208
0.00131315
0.00131536
0.00131818
0.00131874
0.00131953
0.00132111
0.00132291
0.00132625
0.00133133
0.00133457
0.00133429
0.00133284
0.00133277
0.00133311
0.00133463
0.00133786
0.00133858
0.00133851
0.00133974
0.00133965
0.0013398
0.00133858
0.00133869
0.00133843
0.0013384
0.00134025
0.00134313
0.00134103
0.00133913
0.00133854
0.00133918
0.00134018
0.00134364
0.00134745
0.00134755
0.00134627
0.00134794
0.00134946
0.00135077
0.00135111
0.00132234
0.00132198
0.00131954
0.00131825
0.0013193
0.00131994
0.0013192
0.00131829
0.00131649
0.00131534
0.00131474
0.00131427
0.00131353
0.00131356
0.00131388
0.00131608
0.00131761
0.00131846
0.00131966
0.00132105
0.00132363
0.00132641
0.00132642
0.00132721
0.0013285
0.00133035
0.00133373
0.00133873
0.00134171
0.00134154
0.00134049
0.00134037
0.00134035
0.00134226
0.00134441
0.001346
0.00134794
0.00134787
0.00134733
0.00134711
0.00134608
0.00134857
0.00134966
0.0013483
0.00134714
0.00134917
0.00135015
0.00135013
0.00134972
0.00134872
0.00134962
0.00135159
0.00135609
0.00135767
0.00136181
0.00136335
0.00136442
0.00136374
0.00136483
0.00132676
0.00132723
0.00132407
0.00132336
0.00132512
0.00132463
0.0013244
0.00132396
0.00132377
0.00132327
0.00132282
0.00132221
0.00132199
0.00132228
0.00132371
0.00132557
0.00132665
0.00132747
0.00132875
0.00133078
0.00133371
0.00133519
0.00133525
0.00133586
0.00133712
0.00133922
0.00134251
0.00134732
0.00135006
0.00135002
0.00134937
0.00134904
0.00134952
0.00135008
0.0013535
0.00135435
0.00135548
0.00135784
0.00135841
0.0013585
0.00135742
0.00135719
0.00135846
0.00136005
0.00135983
0.00135978
0.00135862
0.00135794
0.00135907
0.00135931
0.00135947
0.00135926
0.00136263
0.00136631
0.00136732
0.00137106
0.00137116
0.00137262
0.00137402
0.0013333
0.00133104
0.0013316
0.00132925
0.00132855
0.00133047
0.00133193
0.00133259
0.00133265
0.00133217
0.00133188
0.00133177
0.00133207
0.00133295
0.00133458
0.00133592
0.00133688
0.0013377
0.00133923
0.00134157
0.0013437
0.00134494
0.00134507
0.00134561
0.00134697
0.00134933
0.00135268
0.00135728
0.00135986
0.00136003
0.00135967
0.00135945
0.0013593
0.0013616
0.00136253
0.00136522
0.00136652
0.0013679
0.00136821
0.00136969
0.00136917
0.00136935
0.00137087
0.00137076
0.00137249
0.00137493
0.00137645
0.00137542
0.00137201
0.00137383
0.0013761
0.00137613
0.00137481
0.00137468
0.00137823
0.00138184
0.00138327
0.00138686
0.00138592
0.00134071
0.00134171
0.0013418
0.00134192
0.0013436
0.00134421
0.0013446
0.00134474
0.00134462
0.00134448
0.00134451
0.00134471
0.00134516
0.00134639
0.00134761
0.00134862
0.00134937
0.00135038
0.0013521
0.00135432
0.00135593
0.00135698
0.00135709
0.00135763
0.00135902
0.00136154
0.00136487
0.00136919
0.00137163
0.00137201
0.00137192
0.00137164
0.00137201
0.00137253
0.00137551
0.00137681
0.00137908
0.00137998
0.00138248
0.00138416
0.00138384
0.00138402
0.00138717
0.00138681
0.00138847
0.00138961
0.0013912
0.00139184
0.00139147
0.00138933
0.00138973
0.00139012
0.00139277
0.00139429
0.00139477
0.00139621
0.00139738
0.00139874
0.00140132
0.00135509
0.00135765
0.00135641
0.0013561
0.00135575
0.00135456
0.00135411
0.00135549
0.00135599
0.0013582
0.00135886
0.00135953
0.00136043
0.00136129
0.00136221
0.00136301
0.00136379
0.00136486
0.00136656
0.00136814
0.00136944
0.00137044
0.00137064
0.00137129
0.00137288
0.00137567
0.00137904
0.00138315
0.00138554
0.00138619
0.00138636
0.00138625
0.0013861
0.00138824
0.00138921
0.00139175
0.00139294
0.00139501
0.00139761
0.00140069
0.00140143
0.00139964
0.00140176
0.00140144
0.00140475
0.00140804
0.00141238
0.00141427
0.00141149
0.00141408
0.00141603
0.00141875
0.00142068
0.00142092
0.00141838
0.0014204
0.00142035
0.00142267
0.00141876
0.0013807
0.00137866
0.00137761
0.00137456
0.00137516
0.0013747
0.00137487
0.00137496
0.00137473
0.00137382
0.00137602
0.00137777
0.00137829
0.00137968
0.00137983
0.00138079
0.00138137
0.00138253
0.00138392
0.00138529
0.00138624
0.00138704
0.00138751
0.00138837
0.00139003
0.00139295
0.00139625
0.00140008
0.00140244
0.0014033
0.00140371
0.00140373
0.00140387
0.0014047
0.0014071
0.00141115
0.00141116
0.00141333
0.00141548
0.00141915
0.00141962
0.00142474
0.00142508
0.00142384
0.00142167
0.00141998
0.00142468
0.00142796
0.00142937
0.00143064
0.00142904
0.00143179
0.00143981
0.00144764
0.00145144
0.00145064
0.00144888
0.00145016
0.00144781
0.00139018
0.00138852
0.00138966
0.00139113
0.00139215
0.001392
0.00139434
0.00139525
0.00139599
0.00139691
0.00139782
0.00139674
0.00139885
0.00139806
0.00139975
0.00140064
0.00140132
0.00140232
0.00140327
0.00140425
0.00140512
0.0014059
0.00140669
0.00140783
0.00140977
0.00141286
0.00141633
0.00141996
0.00142242
0.00142358
0.00142428
0.00142448
0.00142471
0.00142612
0.00142573
0.00143026
0.00143259
0.00143659
0.00143719
0.00143994
0.00144102
0.00143943
0.00144736
0.00144834
0.00145074
0.00145004
0.00144891
0.00144632
0.00144787
0.00145024
0.00145452
0.00145608
0.00146015
0.0014609
0.00146475
0.0014693
0.00147477
0.0014758
0.00147321
0.001417
0.00141492
0.00141719
0.00141893
0.00141942
0.00142031
0.00141852
0.00142005
0.00141724
0.00142141
0.00142035
0.0014212
0.00142296
0.0014229
0.00142403
0.00142448
0.00142567
0.00142642
0.00142747
0.00142838
0.00142925
0.00143014
0.00143112
0.00143247
0.00143448
0.00143769
0.00144105
0.00144442
0.00144694
0.00144835
0.0014493
0.00144975
0.00145016
0.00145165
0.00145297
0.00145577
0.00145809
0.00146094
0.0014671
0.00146856
0.00147472
0.00147079
0.00147768
0.00147082
0.00147153
0.00147358
0.00147972
0.00148314
0.0014864
0.00148837
0.00148372
0.0014847
0.00148476
0.0014883
0.00149437
0.00149735
0.00150195
0.00150422
0.0015031
0.001478
0.00147687
0.0014744
0.00147208
0.00146897
0.00146484
0.0014623
0.00146017
0.001456
0.00145583
0.00145225
0.00145104
0.00145061
0.00145005
0.00145255
0.00145176
0.00145347
0.00145397
0.00145495
0.00145582
0.00145676
0.00145764
0.0014589
0.00146064
0.00146295
0.00146641
0.00146983
0.00147318
0.00147596
0.00147776
0.00147906
0.00147979
0.00148042
0.00148173
0.00148295
0.00148686
0.00149042
0.00149335
0.00149506
0.00149615
0.0015061
0.00150787
0.00150672
0.00151554
0.00151263
0.00151353
0.00151358
0.00151715
0.00151319
0.00151697
0.0015179
0.0015203
0.00151917
0.00152121
0.00152618
0.00153299
0.00154027
0.00154051
0.00155342
0.00152848
0.00152082
0.00151898
0.00151434
0.00150928
0.00150396
0.00149755
0.00149657
0.0014945
0.00149367
0.00149318
0.00149044
0.00148907
0.00148612
0.00148681
0.00148725
0.00148815