/*--------------------------------*- C++ -*----------------------------------*\
| =========                 |                                                 |
| \\      /  F ield         | OpenFOAM: The Open Source CFD Toolbox           |
|  \\    /   O peration     | Version:  2312                                  |
|   \\  /    A nd           | Website:  www.openfoam.com                      |
|    \\/     M anipulation  |                                                 |
\*---------------------------------------------------------------------------*/
FoamFile
{
    version     2.0;
    format      ascii;
    arch        "LSB;label=32;scalar=64";
    class       volScalarField;
    location    "1500";
    object      p;
}
// * * * * * * * * * * * * * * * * * * * * * * * * * * * * * * * * * * * * * //

dimensions      [0 2 -2 0 0 0 0];

internalField   nonuniform List<scalar> 
76025
(
-0.0438047
-0.0503351
-0.0570049
-0.0637176
-0.0703589
-0.0770981
-0.0840286
-0.0907164
-0.097568
-0.104289
-0.111044
-0.117817
-0.124617
-0.131368
-0.138179
-0.144916
-0.151502
-0.158091
-0.164674
-0.171083
-0.177366
-0.183689
-0.189852
-0.195835
-0.201721
-0.207408
-0.213191
-0.218834
-0.224027
-0.22936
-0.23422
-0.238858
-0.243631
-0.248196
-0.252505
-0.256461
-0.260016
-0.263766
-0.267206
-0.270436
-0.273253
-0.275825
-0.278642
-0.281118
-0.283293
-0.285031
-0.28677
-0.288411
-0.28952
-0.290497
-0.291413
-0.292013
-0.29259
-0.293234
-0.293714
-0.2935
-0.293759
-0.293586
-0.293452
-0.293299
-0.292967
-0.292702
-0.292715
-0.292795
-0.29272
-0.292369
-0.292521
-0.293452
-0.294347
-0.0474183
-0.0543305
-0.0612898
-0.0683172
-0.0753823
-0.0824925
-0.0895949
-0.0967036
-0.103842
-0.110975
-0.118122
-0.125262
-0.132389
-0.139489
-0.146522
-0.153481
-0.160432
-0.167279
-0.174114
-0.180799
-0.187443
-0.193955
-0.200345
-0.206594
-0.212748
-0.218795
-0.224712
-0.230382
-0.235846
-0.241149
-0.24626
-0.25131
-0.256167
-0.260721
-0.26508
-0.269175
-0.273067
-0.276762
-0.280226
-0.283503
-0.286479
-0.289253
-0.291849
-0.294165
-0.296247
-0.298085
-0.299757
-0.301217
-0.302417
-0.303465
-0.304375
-0.305083
-0.305683
-0.306198
-0.306532
-0.306657
-0.306825
-0.306849
-0.306772
-0.306647
-0.306603
-0.306665
-0.306707
-0.306845
-0.307025
-0.307279
-0.307785
-0.308737
-0.309552
-0.0513476
-0.0585971
-0.0659064
-0.0733014
-0.0807435
-0.0881796
-0.0956245
-0.103097
-0.110588
-0.118093
-0.125593
-0.133071
-0.140519
-0.147923
-0.155263
-0.162562
-0.169803
-0.176976
-0.184067
-0.19107
-0.197967
-0.204739
-0.21139
-0.217915
-0.22431
-0.230559
-0.236617
-0.242482
-0.248166
-0.253661
-0.258998
-0.264154
-0.269059
-0.27372
-0.278158
-0.282366
-0.286335
-0.290061
-0.293564
-0.296831
-0.299833
-0.302586
-0.305118
-0.307437
-0.309535
-0.311403
-0.313053
-0.314497
-0.315728
-0.316766
-0.317634
-0.318338
-0.318908
-0.319367
-0.31971
-0.319925
-0.320075
-0.320166
-0.320203
-0.320246
-0.320349
-0.320533
-0.320783
-0.32116
-0.321663
-0.322305
-0.323133
-0.324397
-0.325464
-0.0555
-0.0631155
-0.0708007
-0.0785727
-0.0863813
-0.0941953
-0.10202
-0.109864
-0.117719
-0.125576
-0.13342
-0.141241
-0.149029
-0.156776
-0.164472
-0.172111
-0.179682
-0.187173
-0.194572
-0.20187
-0.209052
-0.216111
-0.223038
-0.22982
-0.236445
-0.242901
-0.249176
-0.255264
-0.261157
-0.266848
-0.272333
-0.277597
-0.282625
-0.287414
-0.291963
-0.296265
-0.300315
-0.304113
-0.307661
-0.310952
-0.313982
-0.316756
-0.319296
-0.321607
-0.323681
-0.325515
-0.327121
-0.328513
-0.329697
-0.330685
-0.331506
-0.332175
-0.33271
-0.333133
-0.333457
-0.333688
-0.333861
-0.334007
-0.334141
-0.334305
-0.334544
-0.334886
-0.335344
-0.335946
-0.336717
-0.337699
-0.338895
-0.340534
-0.341972
-0.0600343
-0.0680428
-0.0761221
-0.0842912
-0.0924969
-0.100709
-0.10893
-0.117165
-0.125407
-0.133647
-0.141871
-0.150068
-0.158228
-0.166343
-0.174403
-0.182395
-0.19031
-0.198135
-0.205861
-0.213474
-0.220963
-0.228317
-0.235524
-0.242571
-0.249448
-0.256145
-0.26265
-0.268953
-0.275044
-0.280914
-0.286556
-0.291962
-0.297125
-0.302034
-0.306684
-0.31107
-0.315187
-0.319035
-0.32261
-0.325914
-0.328945
-0.331708
-0.334216
-0.336477
-0.338492
-0.340265
-0.341806
-0.343129
-0.344245
-0.34517
-0.345926
-0.346533
-0.347012
-0.347384
-0.347671
-0.347893
-0.348079
-0.348261
-0.348469
-0.348738
-0.349104
-0.349596
-0.350237
-0.35106
-0.3521
-0.353416
-0.354998
-0.357088
-0.359091
-0.0650442
-0.0734715
-0.0819704
-0.0905624
-0.0991909
-0.107824
-0.116462
-0.125111
-0.133767
-0.142417
-0.151047
-0.159645
-0.1682
-0.176702
-0.185141
-0.193504
-0.20178
-0.209957
-0.218024
-0.225966
-0.233773
-0.241431
-0.248927
-0.256252
-0.263392
-0.270335
-0.277071
-0.283587
-0.289874
-0.295923
-0.301726
-0.307275
-0.312561
-0.317574
-0.322309
-0.326761
-0.330925
-0.3348
-0.338386
-0.341685
-0.344696
-0.347424
-0.349881
-0.352079
-0.354025
-0.355724
-0.357185
-0.35842
-0.359444
-0.360276
-0.360937
-0.361455
-0.361853
-0.362156
-0.362389
-0.362579
-0.362758
-0.36296
-0.363221
-0.363568
-0.364038
-0.364658
-0.365466
-0.366502
-0.367811
-0.369456
-0.371426
-0.373979
-0.376527
-0.0705697
-0.079441
-0.0883855
-0.0974263
-0.106504
-0.115583
-0.124665
-0.133755
-0.142848
-0.15193
-0.160988
-0.170008
-0.178978
-0.187888
-0.196726
-0.205479
-0.214135
-0.22268
-0.231102
-0.239388
-0.247525
-0.2555
-0.2633
-0.270911
-0.278322
-0.285519
-0.29249
-0.299223
-0.305707
-0.311935
-0.317898
-0.323586
-0.328991
-0.334103
-0.338917
-0.343427
-0.347629
-0.351522
-0.355105
-0.358382
-0.361354
-0.364027
-0.366413
-0.368527
-0.370377
-0.371969
-0.373312
-0.37442
-0.375313
-0.376016
-0.376554
-0.376954
-0.377246
-0.377455
-0.377613
-0.37775
-0.377901
-0.378099
-0.378378
-0.378767
-0.379304
-0.380032
-0.380994
-0.382241
-0.383818
-0.385785
-0.388135
-0.39112
-0.394088
-0.0766668
-0.0860099
-0.0954274
-0.104945
-0.114498
-0.12405
-0.133602
-0.143159
-0.152716
-0.162257
-0.171768
-0.181234
-0.190644
-0.199986
-0.209246
-0.218411
-0.227468
-0.236402
-0.245199
-0.253846
-0.262331
-0.270638
-0.278754
-0.286665
-0.294356
-0.301814
-0.309026
-0.31598
-0.322665
-0.32907
-0.335187
-0.341008
-0.346523
-0.351725
-0.356608
-0.361167
-0.365397
-0.369295
-0.372862
-0.376099
-0.37901
-0.381602
-0.383889
-0.385883
-0.387596
-0.389039
-0.390222
-0.391166
-0.391894
-0.392435
-0.392817
-0.393069
-0.393222
-0.393307
-0.393358
-0.393413
-0.393503
-0.393656
-0.393908
-0.394302
-0.394881
-0.395702
-0.396809
-0.398258
-0.400092
-0.402372
-0.405097
-0.408487
-0.411883
-0.0834073
-0.0932542
-0.103177
-0.113203
-0.123264
-0.133321
-0.143372
-0.153425
-0.163474
-0.173503
-0.183495
-0.193436
-0.203312
-0.213112
-0.222819
-0.232421
-0.241901
-0.251245
-0.260438
-0.269466
-0.278314
-0.286968
-0.295412
-0.303633
-0.311614
-0.319341
-0.326803
-0.333984
-0.340872
-0.347456
-0.353729
-0.359678
-0.365294
-0.370572
-0.375503
-0.380086
-0.384318
-0.388196
-0.39172
-0.394891
-0.397714
-0.400194
-0.402347
-0.40419
-0.405736
-0.406999
-0.407993
-0.408742
-0.409272
-0.409612
-0.409794
-0.409851
-0.409819
-0.409735
-0.409636
-0.409557
-0.409528
-0.409587
-0.409776
-0.410148
-0.410753
-0.411647
-0.412879
-0.414506
-0.416575
-0.419164
-0.422277
-0.426132
-0.430159
-0.0908797
-0.101263
-0.111723
-0.122291
-0.132893
-0.143486
-0.154072
-0.164655
-0.175229
-0.185777
-0.196281
-0.206725
-0.217096
-0.227379
-0.237561
-0.247624
-0.257552
-0.267331
-0.276944
-0.286375
-0.295607
-0.304624
-0.313411
-0.321953
-0.330233
-0.338238
-0.345954
-0.353365
-0.360459
-0.367225
-0.37365
-0.379722
-0.385432
-0.390773
-0.39574
-0.400329
-0.404539
-0.408368
-0.411818
-0.414891
-0.41759
-0.419923
-0.421905
-0.423556
-0.424894
-0.425935
-0.4267
-0.427213
-0.427503
-0.427598
-0.42753
-0.427337
-0.427063
-0.426751
-0.426439
-0.426164
-0.425963
-0.425883
-0.425975
-0.426294
-0.426892
-0.427825
-0.429147
-0.430919
-0.433201
-0.436081
-0.43958
-0.443989
-0.448814
-0.0991953
-0.110154
-0.121189
-0.132333
-0.14351
-0.154673
-0.165824
-0.176969
-0.188099
-0.199198
-0.210247
-0.221227
-0.232124
-0.242923
-0.253607
-0.264159
-0.274561
-0.284798
-0.294852
-0.304706
-0.314341
-0.323741
-0.332889
-0.341767
-0.350359
-0.358649
-0.366623
-0.374269
-0.381569
-0.388512
-0.395083
-0.401271
-0.407063
-0.412454
-0.417438
-0.422013
-0.426177
-0.429931
-0.433276
-0.436214
-0.43875
-0.440892
-0.442657
-0.444065
-0.445142
-0.445906
-0.446386
-0.446606
-0.446596
-0.44639
-0.446021
-0.445531
-0.444965
-0.444367
-0.443778
-0.443243
-0.442814
-0.442546
-0.442493
-0.442711
-0.443253
-0.44418
-0.445551
-0.447434
-0.449896
-0.45303
-0.456864
-0.46176
-0.467133
-0.108459
-0.120031
-0.13168
-0.143441
-0.155234
-0.167008
-0.178765
-0.19051
-0.202235
-0.213923
-0.225551
-0.237101
-0.248556
-0.259902
-0.271121
-0.282193
-0.293101
-0.303824
-0.314344
-0.324643
-0.334701
-0.344501
-0.354023
-0.363248
-0.37216
-0.380744
-0.388983
-0.396863
-0.404369
-0.411485
-0.418197
-0.42449
-0.430354
-0.435781
-0.440764
-0.4453
-0.449387
-0.453027
-0.456222
-0.458977
-0.461298
-0.463194
-0.464687
-0.4658
-0.466559
-0.46699
-0.467122
-0.466981
-0.466602
-0.466025
-0.465285
-0.46443
-0.463506
-0.462553
-0.461621
-0.460767
-0.460053
-0.45954
-0.459284
-0.459343
-0.459777
-0.460649
-0.462025
-0.463978
-0.46658
-0.46993
-0.474049
-0.479267
-0.484647
-0.118804
-0.131028
-0.143329
-0.155748
-0.168199
-0.18063
-0.193037
-0.205426
-0.217789
-0.230105
-0.242351
-0.254507
-0.266556
-0.278483
-0.290268
-0.301892
-0.313334
-0.324574
-0.335591
-0.346364
-0.356874
-0.367102
-0.377023
-0.386619
-0.395873
-0.404768
-0.413287
-0.421408
-0.429119
-0.436401
-0.443237
-0.449615
-0.455527
-0.460963
-0.465916
-0.470381
-0.474355
-0.477842
-0.480844
-0.483367
-0.485422
-0.487021
-0.488186
-0.488947
-0.489324
-0.489351
-0.489056
-0.488469
-0.487634
-0.486591
-0.485385
-0.484064
-0.482676
-0.481279
-0.479931
-0.478698
-0.477641
-0.47682
-0.476298
-0.476137
-0.476403
-0.477164
-0.478492
-0.480466
-0.483165
-0.486688
-0.491078
-0.496616
-0.502555
-0.130414
-0.143337
-0.156336
-0.169456
-0.182606
-0.195727
-0.208822
-0.221898
-0.234943
-0.247934
-0.260846
-0.273654
-0.286343
-0.298892
-0.311281
-0.323487
-0.335493
-0.347276
-0.358814
-0.370085
-0.381067
-0.391741
-0.402079
-0.412062
-0.421674
-0.430891
-0.439693
-0.44806
-0.455971
-0.463411
-0.470363
-0.476816
-0.482759
-0.488183
-0.493083
-0.497454
-0.501295
-0.504606
-0.507391
-0.509655
-0.511404
-0.512652
-0.513417
-0.513732
-0.513628
-0.513137
-0.512295
-0.511147
-0.509734
-0.508109
-0.506327
-0.504439
-0.502502
-0.50058
-0.49874
-0.497046
-0.495562
-0.494353
-0.493487
-0.493031
-0.493059
-0.493643
-0.494862
-0.496797
-0.499534
-0.503172
-0.507761
-0.513607
-0.520049
-0.143446
-0.157122
-0.170874
-0.184748
-0.198649
-0.212514
-0.226346
-0.240151
-0.25392
-0.267628
-0.28125
-0.294762
-0.308142
-0.321364
-0.334406
-0.347244
-0.359857
-0.372222
-0.384317
-0.396119
-0.407605
-0.418748
-0.429527
-0.439918
-0.449898
-0.459443
-0.468531
-0.477141
-0.48525
-0.492845
-0.499906
-0.506422
-0.512382
-0.517775
-0.522594
-0.526836
-0.530496
-0.533572
-0.53607
-0.537991
-0.539338
-0.540128
-0.540388
-0.540153
-0.539462
-0.538355
-0.536872
-0.535064
-0.532978
-0.530672
-0.528208
-0.525653
-0.523066
-0.520517
-0.518072
-0.515805
-0.513786
-0.512087
-0.510783
-0.509946
-0.509654
-0.509984
-0.511019
-0.512843
-0.515546
-0.519222
-0.523937
-0.529881
-0.536744
-0.158107
-0.172588
-0.187143
-0.201823
-0.216528
-0.231191
-0.24581
-0.260397
-0.274938
-0.289406
-0.303776
-0.318026
-0.332132
-0.346068
-0.359809
-0.373327
-0.3866
-0.399599
-0.412302
-0.424681
-0.436713
-0.448368
-0.459624
-0.470452
-0.480824
-0.490716
-0.500103
-0.508962
-0.517273
-0.525019
-0.532182
-0.538746
-0.544698
-0.550026
-0.554721
-0.558777
-0.562189
-0.564953
-0.567073
-0.568553
-0.569399
-0.569634
-0.569292
-0.568412
-0.567039
-0.565214
-0.562983
-0.5604
-0.557521
-0.55441
-0.551136
-0.547772
-0.544391
-0.541069
-0.537886
-0.534919
-0.532246
-0.529948
-0.528101
-0.526784
-0.526077
-0.526059
-0.526817
-0.528437
-0.531015
-0.534651
-0.539419
-0.545452
-0.552292
-0.174712
-0.190061
-0.205482
-0.221032
-0.236602
-0.252124
-0.267598
-0.283029
-0.298403
-0.31369
-0.328864
-0.343901
-0.358777
-0.373466
-0.387943
-0.402179
-0.416149
-0.429822
-0.443169
-0.456161
-0.468769
-0.480965
-0.492717
-0.504
-0.514781
-0.525033
-0.53473
-0.543847
-0.552364
-0.560256
-0.567506
-0.574095
-0.580005
-0.585226
-0.589742
-0.593548
-0.596638
-0.599015
-0.600685
-0.601649
-0.601918
-0.601514
-0.600473
-0.598835
-0.596648
-0.59396
-0.590825
-0.587304
-0.583464
-0.579378
-0.575126
-0.57079
-0.566456
-0.56221
-0.558141
-0.554334
-0.550875
-0.547849
-0.545337
-0.543421
-0.542181
-0.541699
-0.54206
-0.543359
-0.545693
-0.549185
-0.553939
-0.560193
-0.567702
-0.193503
-0.209782
-0.226133
-0.242618
-0.259123
-0.275573
-0.291968
-0.308312
-0.32459
-0.340775
-0.356836
-0.37274
-0.388459
-0.403967
-0.41924
-0.43425
-0.448965
-0.463356
-0.477392
-0.491037
-0.504263
-0.517037
-0.529323
-0.541093
-0.552309
-0.56294
-0.572958
-0.582336
-0.591051
-0.599078
-0.606394
-0.612977
-0.618809
-0.623872
-0.628156
-0.631649
-0.634349
-0.636262
-0.637388
-0.637734
-0.637309
-0.636137
-0.634254
-0.631705
-0.628542
-0.62482
-0.620601
-0.615956
-0.610962
-0.605706
-0.60028
-0.594779
-0.589301
-0.583946
-0.578812
-0.573995
-0.569587
-0.565677
-0.562351
-0.55969
-0.557773
-0.556684
-0.556505
-0.557333
-0.559271
-0.562455
-0.567017
-0.573237
-0.581021
-0.214906
-0.232179
-0.249524
-0.26701
-0.284517
-0.301963
-0.319346
-0.336673
-0.353925
-0.371074
-0.388084
-0.404922
-0.421557
-0.43796
-0.454101
-0.469948
-0.48547
-0.500632
-0.5154
-0.52974
-0.543618
-0.556997
-0.569842
-0.582118
-0.593789
-0.604821
-0.615185
-0.624848
-0.633779
-0.64195
-0.649333
-0.655904
-0.66164
-0.666523
-0.670538
-0.673673
-0.675924
-0.677289
-0.677771
-0.677371
-0.676104
-0.673998
-0.671094
-0.667442
-0.6631
-0.658129
-0.652603
-0.646603
-0.64022
-0.633554
-0.626713
-0.619807
-0.61295
-0.606257
-0.599837
-0.593799
-0.588243
-0.583262
-0.578943
-0.575368
-0.572612
-0.570754
-0.569873
-0.570061
-0.571421
-0.574088
-0.578208
-0.584053
-0.59159
-0.239516
-0.257872
-0.276298
-0.294874
-0.313468
-0.331996
-0.350453
-0.368843
-0.387148
-0.405333
-0.423363
-0.441201
-0.458817
-0.476177
-0.493249
-0.509997
-0.526385
-0.542376
-0.557929
-0.573011
-0.58758
-0.601599
-0.615034
-0.627843
-0.639994
-0.651452
-0.662179
-0.672137
-0.681288
-0.689599
-0.697035
-0.703569
-0.709174
-0.713828
-0.71751
-0.720208
-0.721912
-0.722619
-0.722326
-0.721036
-0.718767
-0.71555
-0.711431
-0.706465
-0.700713
-0.694248
-0.687152
-0.679519
-0.671458
-0.663085
-0.654526
-0.645913
-0.637381
-0.629062
-0.621086
-0.613573
-0.606635
-0.600369
-0.594862
-0.590191
-0.586425
-0.583632
-0.581883
-0.581257
-0.58185
-0.583789
-0.587209
-0.592347
-0.599176
-0.268111
-0.287646
-0.307252
-0.327019
-0.346801
-0.366509
-0.386135
-0.405682
-0.425128
-0.444437
-0.463567
-0.482484
-0.501153
-0.51954
-0.537607
-0.555318
-0.572634
-0.589514
-0.605916
-0.621802
-0.637128
-0.651851
-0.665932
-0.679328
-0.691998
-0.703901
-0.714997
-0.725242
-0.734598
-0.743022
-0.750479
-0.756932
-0.762351
-0.766708
-0.769977
-0.77214
-0.773184
-0.7731
-0.77188
-0.769528
-0.766062
-0.761516
-0.755938
-0.749387
-0.741931
-0.733651
-0.724643
-0.715019
-0.704905
-0.694442
-0.68378
-0.673078
-0.662499
-0.652202
-0.642341
-0.633057
-0.624473
-0.616692
-0.609799
-0.603858
-0.598922
-0.595043
-0.592271
-0.590674
-0.590335
-0.591375
-0.593917
-0.598175
-0.604043
-0.301345
-0.322135
-0.342992
-0.36402
-0.385063
-0.406024
-0.426895
-0.447675
-0.46834
-0.488849
-0.50916
-0.529235
-0.549036
-0.568525
-0.587663
-0.60641
-0.624723
-0.64256
-0.659876
-0.676627
-0.692766
-0.708246
-0.723021
-0.737044
-0.750268
-0.762647
-0.774133
-0.784679
-0.794239
-0.802767
-0.81022
-0.816558
-0.82174
-0.825734
-0.828508
-0.830036
-0.8303
-0.829283
-0.826972
-0.823367
-0.818488
-0.812368
-0.805058
-0.796618
-0.787122
-0.77666
-0.765346
-0.753309
-0.740702
-0.727693
-0.714466
-0.701217
-0.688147
-0.675451
-0.663318
-0.651918
-0.641395
-0.63186
-0.62339
-0.616028
-0.609799
-0.604723
-0.600822
-0.598145
-0.596766
-0.596805
-0.598422
-0.601857
-0.607133
-0.339737
-0.361854
-0.384039
-0.406403
-0.428783
-0.451076
-0.47327
-0.495364
-0.517329
-0.539125
-0.560706
-0.582031
-0.603059
-0.623747
-0.644054
-0.663934
-0.683342
-0.702231
-0.720551
-0.738253
-0.755287
-0.771602
-0.787146
-0.801866
-0.81571
-0.828625
-0.840556
-0.851448
-0.861248
-0.869904
-0.877363
-0.883579
-0.888503
-0.892091
-0.894305
-0.895112
-0.894487
-0.892396
-0.888815
-0.883739
-0.877184
-0.869188
-0.859797
-0.849072
-0.837093
-0.823965
-0.809822
-0.79482
-0.779142
-0.762996
-0.746612
-0.73024
-0.714132
-0.698534
-0.683683
-0.669789
-0.657021
-0.645498
-0.635286
-0.626391
-0.618798
-0.612476
-0.607417
-0.603646
-0.601249
-0.600316
-0.601018
-0.603541
-0.608264
-0.381541
-0.405088
-0.428679
-0.452469
-0.476284
-0.500011
-0.523632
-0.547141
-0.57051
-0.593697
-0.616655
-0.63934
-0.661707
-0.68371
-0.7053
-0.726429
-0.74705
-0.767105
-0.786542
-0.805305
-0.823336
-0.840581
-0.856984
-0.872482
-0.88702
-0.900539
-0.912975
-0.924262
-0.93434
-0.943148
-0.950627
-0.956721
-0.961371
-0.964519
-0.966112
-0.966123
-0.964517
-0.961234
-0.95624
-0.949521
-0.941101
-0.931021
-0.919315
-0.906037
-0.891261
-0.875108
-0.857734
-0.839317
-0.820069
-0.80024
-0.780117
-0.760022
-0.740287
-0.721237
-0.703179
-0.686381
-0.671046
-0.657304
-0.6452
-0.634703
-0.625732
-0.618193
-0.612066
-0.607389
-0.604253
-0.602594
-0.602379
-0.603297
-0.606058
-0.430647
-0.455701
-0.48088
-0.506266
-0.531682
-0.557011
-0.582234
-0.607343
-0.632304
-0.657074
-0.6816
-0.705828
-0.729709
-0.753196
-0.776245
-0.798804
-0.820821
-0.842234
-0.862986
-0.883015
-0.902255
-0.920643
-0.938112
-0.954596
-0.970029
-0.984343
-0.997469
-1.00933
-1.01987
-1.029
-1.03665
-1.04277
-1.04728
-1.05012
-1.05121
-1.05049
-1.04789
-1.04334
-1.03679
-1.02822
-1.0176
-1.00497
-0.990364
-0.973827
-0.955452
-0.935373
-0.913761
-0.890821
-0.866815
-0.842063
-0.816933
-0.791844
-0.767255
-0.743638
-0.72144
-0.701049
-0.682747
-0.666675
-0.652821
-0.641016
-0.63101
-0.622569
-0.615631
-0.61027
-0.606594
-0.604284
-0.602861
-0.601423
-0.601576
-0.47596
-0.502869
-0.529674
-0.556689
-0.583743
-0.610699
-0.637528
-0.66422
-0.690747
-0.717066
-0.743118
-0.768849
-0.794214
-0.819161
-0.843639
-0.867585
-0.890934
-0.913627
-0.935601
-0.956787
-0.97712
-0.996532
-1.01495
-1.0323
-1.04851
-1.06351
-1.07721
-1.08954
-1.10041
-1.10975
-1.11748
-1.12351
-1.12777
-1.13019
-1.13067
-1.12911
-1.12541
-1.11952
-1.1114
-1.10102
-1.08836
-1.07342
-1.05623
-1.03683
-1.01529
-0.991705
-0.966235
-0.939094
-0.910575
-0.881051
-0.850972
-0.820864
-0.791335
-0.76305
-0.736692
-0.712885
-0.692084
-0.674471
-0.659885
-0.647798
-0.637456
-0.628259
-0.620087
-0.613311
-0.608237
-0.604505
-0.601618
-0.59906
-0.598603
-0.547687
-0.576211
-0.605201
-0.634397
-0.663626
-0.692785
-0.721842
-0.750783
-0.779579
-0.808179
-0.836521
-0.864549
-0.892206
-0.919432
-0.946164
-0.972335
-0.997876
-1.02272
-1.04679
-1.07003
-1.09235
-1.11369
-1.13395
-1.15307
-1.17094
-1.18749
-1.20262
-1.21626
-1.2283
-1.23865
-1.24723
-1.25394
-1.25869
-1.2614
-1.26194
-1.26015
-1.25584
-1.24882
-1.23893
-1.22611
-1.21036
-1.19171
-1.17018
-1.14581
-1.11866
-1.0888
-1.0564
-1.02167
-0.984965
-0.946714
-0.907484
-0.867976
-0.829036
-0.791647
-0.756907
-0.725944
-0.699729
-0.678826
-0.663109
-0.651505
-0.64205
-0.633161
-0.624607
-0.617026
-0.611077
-0.606643
-0.603587
-0.602133
-0.603205
-0.574349
-0.60497
-0.635014
-0.665457
-0.696077
-0.726598
-0.756973
-0.787215
-0.817303
-0.847176
-0.876769
-0.906019
-0.934869
-0.963261
-0.991136
-1.01842
-1.04505
-1.07094
-1.09602
-1.12022
-1.14346
-1.16565
-1.18671
-1.20654
-1.22506
-1.24218
-1.25779
-1.27179
-1.28405
-1.29448
-1.30299
-1.30948
-1.31388
-1.31619
-1.31636
-1.3143
-1.3098
-1.30265
-1.29258
-1.27937
-1.26289
-1.24313
-1.22004
-1.19356
-1.16367
-1.13037
-1.09372
-1.05386
-1.01107
-0.965751
-0.918538
-0.870341
-0.822405
-0.776338
-0.734062
-0.697669
-0.669116
-0.649729
-0.639507
-0.636442
-0.636519
-0.635931
-0.633447
-0.629743
-0.6259
-0.622144
-0.618275
-0.614935
-0.61396
-0.703668
-0.73741
-0.772088
-0.80687
-0.841453
-0.875838
-0.910077
-0.944188
-0.978154
-1.01192
-1.04542
-1.07856
-1.11129
-1.14353
-1.1752
-1.20625
-1.23659
-1.26614
-1.29482
-1.32254
-1.34919
-1.3747
-1.39896
-1.42186
-1.44331
-1.46319
-1.48137
-1.49772
-1.51214
-1.52445
-1.53452
-1.54216
-1.54715
-1.54922
-1.54811
-1.54372
-1.53606
-1.5252
-1.51122
-1.49407
-1.47348
-1.44906
-1.42044
-1.38733
-1.34954
-1.30695
-1.25956
-1.2075
-1.1511
-1.09094
-1.02795
-0.963459
-0.899246
-0.837539
-0.780903
-0.732023
-0.693314
-0.66626
-0.650754
-0.644705
-0.644187
-0.645115
-0.644833
-0.642881
-0.639596
-0.635222
-0.629929
-0.624985
-0.624187
0.119753
0.122618
0.125679
0.128944
0.132393
0.136063
0.139974
0.144021
0.148209
0.152551
0.157078
0.161763
0.166462
0.171536
0.176189
0.180898
0.185144
0.1896
0.193649
0.197477
0.201188
0.203897
0.206225
0.207725
0.208577
0.208745
0.207812
0.206031
0.203471
0.199988
0.195136
0.189533
0.183185
0.176181
0.168022
0.159325
0.150188
0.14052
0.130436
0.120234
0.109769
0.0991633
0.0888491
0.0787417
0.0683129
0.0585081
0.0486509
0.0393715
0.030338
0.0216936
0.0134987
0.00569315
-0.00165515
-0.00856395
-0.0150791
-0.0214777
-0.027332
-0.0328731
-0.0380453
0.121543
0.124578
0.127843
0.131295
0.134955
0.138832
0.142924
0.147198
0.151653
0.156294
0.161087
0.166005
0.17101
0.176109
0.181233
0.186175
0.191022
0.195694
0.200124
0.204145
0.20784
0.210969
0.213454
0.215214
0.216208
0.216354
0.215597
0.213784
0.211187
0.207512
0.202584
0.19685
0.190312
0.182827
0.174473
0.165428
0.155851
0.145781
0.135309
0.124552
0.113619
0.102638
0.0917745
0.0808857
0.0701991
0.0597624
0.0496046
0.0398541
0.0304348
0.0213868
0.0127787
0.00460635
-0.00318043
-0.0105266
-0.0175213
-0.0240791
-0.0302185
-0.0359622
-0.0413469
0.123413
0.126637
0.13008
0.13374
0.137624
0.14173
0.146052
0.150583
0.155316
0.160242
0.165325
0.170526
0.175823
0.181194
0.186587
0.191942
0.197198
0.202229
0.206952
0.211281
0.215158
0.218558
0.22128
0.223243
0.224391
0.224609
0.223895
0.222132
0.219421
0.215623
0.210624
0.204697
0.197808
0.189977
0.181286
0.171878
0.161847
0.15132
0.140377
0.129141
0.117712
0.106169
0.0946544
0.0832713
0.0720845
0.0611731
0.0505596
0.0402958
0.0304064
0.0209152
0.0118637
0.00324705
-0.00493642
-0.0126946
-0.0199919
-0.0268389
-0.0332702
-0.0392989
-0.0449637
0.125127
0.12854
0.132191
0.136074
0.140195
0.144553
0.149144
0.153959
0.15899
0.164221
0.169626
0.175174
0.180833
0.186561
0.192292
0.197997
0.20358
0.208957
0.214023
0.218711
0.222916
0.22656
0.229512
0.231675
0.232982
0.23332
0.23266
0.230912
0.228112
0.224196
0.219059
0.212891
0.205678
0.197518
0.188449
0.178618
0.16812
0.157081
0.145604
0.133821
0.121832
0.109733
0.0976604
0.0857404
0.0740063
0.0625458
0.0514012
0.0406165
0.0302324
0.0202746
0.0107701
0.00172944
-0.00684006
-0.014944
-0.0225822
-0.0297688
-0.0365234
-0.042859
-0.0488016
0.12672
0.130338
0.13421
0.138328
0.142699
0.147322
0.152195
0.157311
0.162657
0.168218
0.17397
0.179882
0.185916
0.192023
0.198141
0.204213
0.210159
0.215901
0.221339
0.226388
0.230934
0.234864
0.238067
0.240447
0.241923
0.242392
0.241807
0.240066
0.237194
0.233151
0.227839
0.221422
0.213904
0.205388
0.195915
0.185625
0.174631
0.163056
0.151017
0.138649
0.126073
0.113402
0.100756
0.0882391
0.0759181
0.0638718
0.0521621
0.0408369
0.0299361
0.0194888
0.00951733
3.47028e-05
-0.00895489
-0.0174546
-0.0254731
-0.0330208
-0.0401124
-0.0467621
-0.0529963
0.128238
0.132076
0.136182
0.14055
0.145186
0.150091
0.155262
0.160694
0.166373
0.172283
0.178398
0.184686
0.191108
0.197613
0.20414
0.21062
0.216974
0.223113
0.228942
0.234358
0.239247
0.243491
0.246974
0.249592
0.251253
0.251858
0.251352
0.249624
0.246688
0.242514
0.237019
0.230347
0.222512
0.21361
0.203706
0.19293
0.18141
0.169274
0.156649
0.143673
0.130478
0.117185
0.103908
0.0907515
0.077804
0.0651439
0.0528375
0.040937
0.029484
0.0185095
0.00803481
-0.00192811
-0.0113755
-0.0203091
-0.0287359
-0.0366662
-0.044115
-0.0510987
-0.0576443
0.129637
0.133711
0.13807
0.142708
0.147631
0.152841
0.158333
0.164103
0.170139
0.176421
0.182924
0.189615
0.196452
0.203382
0.210342
0.21726
0.224049
0.230616
0.236859
0.242666
0.24792
0.2525
0.256283
0.259158
0.26102
0.261768
0.261343
0.259634
0.256636
0.252328
0.246642
0.239701
0.231527
0.222216
0.211851
0.200561
0.188481
0.175748
0.162499
0.148875
0.135015
0.121046
0.107089
0.0932547
0.0796399
0.0663268
0.0533843
0.0408679
0.0288218
0.0172792
0.00626184
-0.00421736
-0.0141531
-0.0235465
-0.032405
-0.0407404
-0.0485688
-0.0559076
-0.0627848
0.130879
0.135205
0.139834
0.144761
0.149992
0.155527
0.161366
0.167501
0.17392
0.180604
0.187526
0.194652
0.201936
0.209323
0.216748
0.224132
0.231386
0.238411
0.245098
0.251328
0.256977
0.261917
0.266021
0.269169
0.271246
0.272148
0.271809
0.270121
0.267063
0.262615
0.256723
0.249493
0.240957
0.231212
0.220355
0.208517
0.195839
0.182466
0.168545
0.154225
0.13965
0.124956
0.110273
0.0957181
0.0813917
0.0673816
0.0537604
0.0405874
0.027909
0.0157598
0.00416411
-0.00686371
-0.0173181
-0.0272009
-0.0365203
-0.0452885
-0.0535224
-0.0612405
-0.0684717
0.13193
0.136524
0.141441
0.146674
0.152233
0.158118
0.164326
0.170853
0.177684
0.184801
0.192174
0.199767
0.207532
0.215412
0.223336
0.231222
0.238976
0.246493
0.253658
0.260343
0.266417
0.271745
0.276193
0.279633
0.281942
0.283012
0.282766
0.2811
0.27798
0.273382
0.267267
0.259726
0.250804
0.240597
0.229213
0.216788
0.20347
0.189411
0.174771
0.159704
0.144365
0.128899
0.113441
0.0981146
0.0830275
0.0682721
0.0539261
0.040053
0.0267012
0.0139074
0.0016969
-0.00991528
-0.0209234
-0.0313292
-0.0411406
-0.0503711
-0.059039
-0.0671634
-0.0747735
0.132741
0.137622
0.142847
0.148411
0.154322
0.160582
0.167189
0.174136
0.18141
0.18899
0.196846
0.204941
0.213222
0.22163
0.230091
0.238516
0.246809
0.254855
0.262532
0.269706
0.276238
0.281984
0.286802
0.290557
0.293117
0.294367
0.294223
0.29258
0.289395
0.284639
0.278283
0.27041
0.261073
0.250372
0.238423
0.225369
0.211365
0.196574
0.181163
0.165299
0.149143
0.132852
0.116565
0.100414
0.0845129
0.0689602
0.0538388
0.0392154
0.0251422
0.0116579
-0.00121061
-0.0134477
-0.0250476
-0.0360124
-0.0463503
-0.0560756
-0.065207
-0.0737648
-0.0817787
0.133269
0.13846
0.144018
0.149938
0.156229
0.162891
0.169925
0.177323
0.185071
0.193147
0.201522
0.210153
0.218988
0.227963
0.236999
0.246004
0.254873
0.263487
0.271715
0.279415
0.286439
0.292635
0.297852
0.301946
0.304777
0.306223
0.306188
0.304571
0.301317
0.296394
0.289779
0.281549
0.271768
0.260538
0.247984
0.234256
0.219517
0.203941
0.187706
0.170988
0.153958
0.136781
0.119607
0.102573
0.0858009
0.0693942
0.0534409
0.0380123
0.0231647
0.00893958
-0.00463445
-0.0175418
-0.0297765
-0.0413401
-0.0522413
-0.0624959
-0.0721237
-0.0811454
-0.0895927
0.133473
0.138996
0.14491
0.151211
0.157907
0.165
0.172491
0.180371
0.188627
0.197236
0.206166
0.215373
0.224803
0.234386
0.24404
0.253668
0.263157
0.27238
0.2812
0.289465
0.297018
0.303698
0.309345
0.313805
0.316928
0.318584
0.318669
0.31708
0.313753
0.30865
0.301758
0.293147
0.28289
0.271093
0.25789
0.243438
0.227912
0.211494
0.194373
0.176738
0.158771
0.140643
0.122516
0.104535
0.0868286
0.0695068
0.0526631
0.0363728
0.0206953
0.00567541
-0.00865682
-0.0222842
-0.0351998
-0.0474054
-0.0589109
-0.0697322
-0.0798902
-0.0894079
-0.0983194
0.133273
0.139153
0.145449
0.152157
0.159288
0.166844
0.174825
0.183224
0.192025
0.201207
0.210734
0.220561
0.23063
0.240868
0.251188
0.261484
0.271639
0.281518
0.290973
0.299846
0.307968
0.31517
0.321279
0.326132
0.32957
0.331453
0.331666
0.330108
0.326703
0.321409
0.314217
0.305198
0.29443
0.282025
0.268125
0.252897
0.236524
0.219202
0.201131
0.182508
0.163532
0.144383
0.125231
0.106232
0.0875225
0.0692181
0.0514191
0.0342046
0.0176377
0.00176509
-0.0133815
-0.027782
-0.0414297
-0.0543257
-0.06648
-0.07791
-0.0886371
-0.0986867
-0.108094
0.13258
0.138842
0.145548
0.152695
0.160294
0.168347
0.176856
0.185813
0.195203
0.205001
0.215171
0.225666
0.236424
0.247367
0.258401
0.269418
0.28029
0.290874
0.301014
0.310541
0.319276
0.327038
0.333646
0.338922
0.342698
0.344824
0.345177
0.343651
0.340163
0.334663
0.327149
0.317691
0.306374
0.293315
0.278665
0.262601
0.245318
0.227023
0.207931
0.188249
0.168185
0.147936
0.127682
0.107587
0.0877975
0.0684365
0.0496091
0.0314012
0.0138781
-0.00291052
-0.0189306
-0.0341619
-0.048596
-0.0622346
-0.0750894
-0.0871772
-0.0985199
-0.109145
-0.11909
0.131291
0.137964
0.145111
0.152731
0.160834
0.169424
0.178502
0.18806
0.198084
0.208546
0.219409
0.230624
0.242123
0.253825
0.26563
0.277423
0.289067
0.300411
0.311288
0.321519
0.330914
0.33928
0.346424
0.352156
0.356296
0.358684
0.359187
0.357695
0.354116
0.348395
0.340532
0.330601
0.318692
0.304929
0.289472
0.272508
0.254245
0.234902
0.214707
0.193887
0.172655
0.151222
0.129781
0.108507
0.0875547
0.0670558
0.0471211
0.0278425
0.00929028
-0.00848344
-0.0254423
-0.0415652
-0.0568437
-0.0712819
-0.0848896
-0.0976839
-0.10969
-0.120936
-0.13146
0.129292
0.136406
0.144029
0.152157
0.160802
0.16997
0.17966
0.189867
0.200573
0.211751
0.223362
0.235351
0.24765
0.26017
0.272807
0.285435
0.297912
0.310075
0.321748
0.332738
0.342844
0.351862
0.359582
0.365805
0.370337
0.373007
0.373671
0.372214
0.368536
0.362575
0.354336
0.343894
0.331346
0.316824
0.300496
0.28256
0.263239
0.242767
0.221383
0.199329
0.176839
0.154131
0.131412
0.108868
0.0866625
0.0649371
0.0438096
0.0233763
0.003714
-0.0151221
-0.0330935
-0.0501782
-0.0663691
-0.0816677
-0.0960841
-0.109638
-0.122355
-0.134267
-0.145412
0.126428
0.134018
0.142152
0.150828
0.160058
0.169848
0.1802
0.191106
0.202548
0.2145
0.226917
0.239744
0.252906
0.266309
0.279843
0.293374
0.306749
0.319797
0.332327
0.344135
0.355008
0.364726
0.373068
0.379819
0.384772
0.387745
0.388582
0.387161
0.383375
0.377152
0.368504
0.357509
0.344271
0.328928
0.311658
0.292674
0.272211
0.25052
0.227855
0.20447
0.180617
0.156532
0.132431
0.108516
0.0849593
0.0619102
0.0394951
0.0178165
-0.0030452
-0.0230299
-0.0420975
-0.060224
-0.0774007
-0.0936296
-0.108924
-0.123304
-0.136796
-0.14943
-0.16125
0.122534
0.130635
0.13932
0.148585