/*--------------------------------*- C++ -*----------------------------------*\
| =========                 |                                                 |
| \\      /  F ield         | OpenFOAM: The Open Source CFD Toolbox           |
|  \\    /   O peration     | Version:  2312                                  |
|   \\  /    A nd           | Website:  www.openfoam.com                      |
|    \\/     M anipulation  |                                                 |
\*---------------------------------------------------------------------------*/
FoamFile
{
    version     2.0;
    format      ascii;
    arch        "LSB;label=32;scalar=64";
    class       surfaceScalarField;
    location    "1500";
    object      phi;
}
// * * * * * * * * * * * * * * * * * * * * * * * * * * * * * * * * * * * * * //

dimensions      [0 3 -1 0 0 0 0];

oriented        oriented;

internalField   nonuniform List<scalar> 
116611
(
0.0320447
0.0114045
-0.0316359
-0.0118133
0.0324497
0.011321
-0.0117261
0.0328494
0.0112299
-0.0116296
0.0332434
0.0111305
-0.0115245
0.0336328
0.0110228
-0.0114123
0.0340225
0.0109054
-0.011295
0.0343998
0.0107797
-0.011157
0.0347796
0.0106457
-0.0110255
0.0351483
0.0105016
-0.0108704
0.035514
0.0103485
-0.0107141
0.0358713
0.0101839
-0.0105412
0.0362234
0.0100093
-0.0103614
0.0365676
0.00982385
-0.010168
0.0369046
0.00962682
-0.0099639
0.0372332
0.00941898
-0.00974757
0.0375508
0.00920027
-0.00951783
0.0378614
0.00896717
-0.00927777
0.0381628
0.00872531
-0.00902668
0.0384513
0.00846621
-0.00875479
0.0387304
0.00819862
-0.00847768
0.0390018
0.00791361
-0.008185
0.0392606
0.00761729
-0.0078761
0.0395066
0.00730594
-0.00755193
0.0397423
0.00698163
-0.00721738
0.0399643
0.00664233
-0.00686429
0.0401783
0.00628835
-0.00650236
0.0403776
0.00591672
-0.006116
0.040557
0.00553113
-0.00571054
0.0407309
0.00513052
-0.00530444
0.0408791
0.00471399
-0.00486221
0.0410224
0.00428536
-0.00442866
0.0411536
0.0038341
-0.00396526
0.0412659
0.00336564
-0.00347795
0.0413632
0.0028831
-0.00298036
0.0414414
0.0023798
-0.00245801
0.0415005
0.00186212
-0.00192128
0.0415523
0.00132547
-0.00137726
0.0415845
0.000772567
-0.000804734
0.0416026
0.000201669
-0.00021978
0.041596
-0.000392607
0.000399161
0.0415721
-0.00100007
0.00102398
0.0415411
-0.00162599
0.00165706
0.0414887
-0.00227091
0.00232323
0.0414162
-0.00293425
0.00300683
0.0413207
-0.00361696
0.0037124
0.0412127
-0.00431541
0.00442347
0.0410904
-0.00503238
0.00515466
0.0409392
-0.00577046
0.00592166
0.040773
-0.00652424
0.00669044
0.0405887
-0.0072948
0.00747906
0.0403822
-0.00808325
0.0082898
0.0401631
-0.0088853
0.00910442
0.0399292
-0.0097041
0.00993797
0.0396739
-0.0105417
0.0107969
0.0393889
-0.011395
0.0116801
0.039099
-0.0122577
0.0125475
0.0387818
-0.0131384
0.0134557
0.0384521
-0.0140302
0.0143599
0.0381037
-0.0149312
0.0152796
0.0377368
-0.015838
0.0162049
0.0373657
-0.0167503
0.0171214
0.0369797
-0.0176775
0.0180635
0.0365741
-0.0186071
0.0190126
0.0361555
-0.0195395
0.019958
0.0357229
-0.0204714
0.020904
0.035284
-0.0214024
0.0218414
0.0348556
-0.0223296
0.022758
0.0344357
-0.0232533
0.0236732
-0.0242344
0.0339946
0.0246755
0.0317003
0.0109975
-0.0312932
0.0321036
0.0109176
0.0325031
0.0108305
0.0328979
0.0107357
0.0332889
0.0106319
0.0336741
0.0105202
0.0340539
0.0103999
0.0344292
0.0102704
0.0347986
0.0101322
0.035163
0.0099841
0.0355207
0.00982617
0.0358718
0.00965817
0.0362161
0.00947961
0.0365526
0.00929023
0.0368809
0.00909069
0.0372018
0.00887936
0.0375123
0.0086567
0.0378157
0.00842195
0.0381067
0.00817516
0.03839
0.00791535
0.0386612
0.00764236
0.0389221
0.00735646
0.039171
0.00705698
0.0394089
0.00674376
0.0396349
0.00641635
0.0398494
0.00607379
0.0400494
0.00571678
0.0402358
0.00534475
0.0404088
0.00495745
0.0405671
0.00455572
0.040715
0.00413747
0.0408473
0.00370183
0.0409627
0.00325017
0.041064
0.00278186
0.0411477
0.00229611
0.0412167
0.00179312
0.0412694
0.00127274
0.0413063
0.000735681
0.0413279
0.000180082
0.0413298
-0.000394536
0.0413159
-0.000986136
0.0412849
-0.00159498
0.0412353
-0.00222139
0.0411678
-0.00286669
0.0410814
-0.00353055
0.040978
-0.00421201
0.0408565
-0.00491093
0.0407149
-0.00562881
0.0405552
-0.00636454
0.0403772
-0.00711683
0.0401801
-0.00788612
0.0399663
-0.00867155
0.0397352
-0.00947303
0.0394848
-0.0102912
0.0392152
-0.0111255
0.038931
-0.0119734
0.0386276
-0.012835
0.038307
-0.0137096
0.0379699
-0.0145942
0.0376195
-0.0154876
0.037258
-0.0163888
0.0368798
-0.0172993
0.0364883
-0.0182156
0.0360857
-0.0191368
0.0356757
-0.0200614
0.035261
-0.0209878
0.0348461
-0.0219146
0.0344311
-0.0228383
-0.0237996
0.0339962
0.0313788
0.010594
-0.0309753
0.0317796
0.0105169
0.0321773
0.0104328
0.0325715
0.0103415
0.032961
0.0102423
0.033346
0.0101352
0.033726
0.0100198
0.0341007
0.00989578
0.03447
0.00976287
0.0348334
0.00962072
0.0351905
0.00946909
0.0355409
0.00930773
0.0358842
0.00913633
0.0362199
0.00895455
0.0365483
0.00876228
0.0368685
0.0085591
0.0371804
0.00834482
0.0374834
0.00811901
0.0377771
0.0078814
0.038061
0.0076315
0.0383343
0.00736908
0.0385969
0.00709381
0.0388484
0.00680543
0.0390887
0.00650356
0.0393171
0.00618792
0.0395327
0.00585814
0.0397356
0.00551394
0.0399253
0.00515503
0.0401015
0.00478127
0.0402648
0.0043924
0.0404144
0.00398783
0.040549
0.00356729
0.0406686
0.00313056
0.0407731
0.00267737
0.0408618
0.00220737
0.0409347
0.00172025
0.0409913
0.00121608
0.0410323
0.000694696
0.041057
0.000155442
0.0410642
-0.000401764
0.0410542
-0.000976124
0.0410269
-0.00156772
0.0409825
-0.00217701
0.0409204
-0.00280457
0.0408402
-0.00345029
0.0407419
-0.00411378
0.0406259
-0.00479492
0.0404914
-0.00549427
0.0403383
-0.0062115
0.0401673
-0.00694579
0.0399783
-0.00769708
0.0397719
-0.00846516
0.0395484
-0.00924958
0.0393075
-0.0100502
0.0390487
-0.0108668
0.0387733
-0.0116979
0.0384811
-0.0125429
0.0381725
-0.0134009
0.0378485
-0.0142702
0.0375102
-0.0151493
0.0371588
-0.0160374
0.0367943
-0.0169348
0.036419
-0.0178404
0.0360351
-0.0187529
0.0356451
-0.0196713
0.0352513
-0.0205939
0.0348559
-0.0215193
0.0344586
-0.022441
-0.0233961
0.0340552
0.03108
0.0101924
-0.0306784
0.0314785
0.0101184
0.0318738
0.0100375
0.0322657
0.00994956
0.0326537
0.00985429
0.0330375
0.0097514
0.0334167
0.00964065
0.0337908
0.00952171
0.0341594
0.00939424
0.0345222
0.00925795
0.0348787
0.00911256
0.0352287
0.00895778
0.0355717
0.00879335
0.0359073
0.00861894
0.0362353
0.00843428
0.0365553
0.00823911
0.036867
0.00803313
0.0371699
0.00781606
0.0374638
0.00758752
0.0377481
0.00734722
0.0380223
0.00709482
0.0382861
0.00683
0.0385391
0.00655249
0.0387807
0.00626192
0.0390106
0.00595799
0.0392284
0.00564037
0.0394337
0.00530869
0.039626
0.00496274
0.039805
0.00460224
0.0399706
0.00422684
0.0401222
0.00383617
0.0402596
0.00342995
0.0403822
0.00300787
0.0404899
0.00256968
0.0405822
0.00211505
0.0406588
0.00164365
0.0407196
0.00115535
0.0407643
0.000649945
0.0407927
0.000127069
0.0408042
-0.000413269
0.0407987
-0.000970591
0.0407761
-0.0015452
0.0407365
-0.00213739
0.0406793
-0.00274737
0.0406043
-0.00337528
0.0405116
-0.00402108
0.0404013
-0.00468463
0.0402731
-0.00536604
0.0401268
-0.00606523
0.0399629
-0.00678188
0.0397816
-0.00751571
0.039583
-0.00826658
0.0393674
-0.00903401
0.0391348
-0.0098176
0.0388851
-0.0106171
0.0386189
-0.0114317
0.0383368
-0.0122608
0.0380389
-0.0131031
0.0377262
-0.0139575
0.0373997
-0.0148228
0.0370611
-0.0156988
0.0367119
-0.0165856
0.036354
-0.0174825
0.0359894
-0.0183884
0.0356196
-0.0193016
0.0352457
-0.02022
0.0348686
-0.0211422
0.0344883
-0.0220606
-0.0230112
0.0341033
0.0308005
0.00979125
-0.0303993
0.0311981
0.0097208
0.031592
0.00964359
0.0319822
0.00955938
0.0323685
0.00946799
0.0327507
0.00936925
0.0331283
0.00926296
0.0335012
0.00914887
0.0338688
0.00902666
0.0342307
0.00889604
0.0345865
0.00875669
0.034936
0.00860834
0.0352787
0.00845069
0.0356141
0.00828347
0.035942
0.00810642
0.0362619
0.00791921
0.0365735
0.00772157
0.0368763
0.00751319
0.0371701
0.00729373
0.0374545
0.00706284
0.0377291
0.00682024
0.0379934
0.00656565
0.0382471
0.00629878
0.0384897
0.00601933
0.0387208
0.00572693
0.0389399
0.00542121
0.0391467
0.00510188
0.0393408
0.00476865
0.0395219
0.00442121
0.0396895
0.00405922
0.0398434
0.00368227
0.0399832
0.00329014
0.0401085
0.00288258
0.0402189
0.00245925
0.0403141
0.00201984
0.0403938
0.001564
0.0404577
0.00109146
0.0405056
0.000601966
0.0405375
9.52261e-05
0.0405528
-0.000428563
0.0405514
-0.000969162
0.0405331
-0.00152697
0.040498
-0.00210221
0.0404455
-0.00269495
0.0403756
-0.0033054
0.0402882
-0.00393368
0.0401833
-0.00457968
0.0400607
-0.00524342
0.0399205
-0.005925
0.039763
-0.00662439
0.0395885
-0.00734124
0.0393972
-0.00807531
0.0391893
-0.00882608
0.0389649
-0.00959317
0.0387241
-0.0103763
0.0384674
-0.011175
0.0381953
-0.0119886
0.0379082
-0.0128161
0.0376073
-0.0136565
0.037294
-0.0145095
0.0369703
-0.0153751
0.0366378
-0.016253
0.0362979
-0.0171426
0.0359515
-0.0180419
0.0355993
-0.0189494
0.0352422
-0.0198629
0.0348817
-0.0207817
0.0345197
-0.0216986
-0.0226525
0.034161
0.0305369
0.00938947
-0.0301352
0.030935
0.00932277
0.031329
0.00924953
0.031719
0.00916948
0.0321046
0.00908238
0.0324857
0.00898808
0.0328623
0.00888644
0.0332339
0.00877723
0.0336003
0.00866022
0.0339612
0.00853515
0.0343162
0.00840172
0.0346649
0.00825964
0.0350069
0.00810865
0.0353419
0.00794848
0.0356694
0.0077789
0.0359891
0.00759957
0.0363005
0.00741016
0.0366033
0.00721037
0.0368972
0.00699988
0.0371817
0.00677835
0.0374564
0.00654546
0.0377211
0.00630101
0.0379752
0.00604468
0.0382183
0.00577619
0.0384501
0.00549519
0.03867
0.00520127
0.0388778
0.00489409
0.0390731
0.00457335
0.0392556
0.00423871
0.0394249
0.0038899
0.0395807
0.00352652
0.0397225
0.00314831
0.03985
0.00275507
0.0399628
0.00234642
0.0400606
0.00192205
0.040143
0.00148161
0.0402097
0.00102472
0.0402607
0.000551018
0.0402956
6.02905e-05
0.0403141
-0.000447093
0.0403161
-0.000971134
0.0403014
-0.00151227
0.0402698
-0.00207062
0.0402211
-0.00264625
0.0401552
-0.00323944
0.040072
-0.00385047
0.0399716
-0.00447932
0.0398542
-0.00512602
0.0397199
-0.00579075
0.039569
-0.0064735
0.0394017
-0.0071739
0.039218
-0.00789161
0.0390181
-0.00862619
0.0388023
-0.00937731
0.0385706
-0.0101446
0.0383234
-0.0109279
0.0380615
-0.0117267
0.0377856
-0.0125402
0.0374972
-0.0133682
0.037198
-0.0142103
0.0368896
-0.0150667
0.0365729
-0.0159363
0.0362486
-0.0168183
0.0359169
-0.0177103
0.0355792
-0.0186116
0.0352369
-0.0195207
0.0348926
-0.0204374
0.0345494
-0.0213555
-0.0223143
0.0342113
0.0302883
0.00898705
-0.0298859
0.0306872
0.00892393
0.0310821
0.00885464
0.0314727
0.00877883
0.0318588
0.00869625
0.0322402
0.0086067
0.0326167
0.00851001
0.0329879
0.00840596
0.0333538
0.00829435
0.033714
0.00817493
0.0340683
0.00804745
0.0344163
0.00791163
0.0347577
0.00776725
0.0350921
0.00761406
0.0354192
0.00745182
0.0357385
0.00728024
0.0360497
0.00709896
0.0363524
0.00690766
0.0366463
0.00670603
0.0369308
0.0064938
0.0372057
0.00627058
0.0374705
0.00603617
0.0377249
0.00579033
0.0379684
0.00553271
0.0382006
0.00526298
0.0384212
0.00498069
0.0386297
0.00468553
0.0388259
0.00437716
0.0390094
0.00405519
0.0391799
0.00371942
0.0393369
0.00336949
0.0394802
0.00300508
0.0396093
0.00262598
0.0397239
0.00223178
0.0398238
0.00182219
0.0399085
0.0013969
0.0399778
0.000955411
0.0400315
0.000497355
0.0400693
2.2495e-05
0.0400908
-0.000468647
0.040096
-0.00097627
0.0400845
-0.00150082
0.0400563
-0.00204246
0.0400114
-0.0026013
0.0399496
-0.00317769
0.0398711
-0.00377194
0.0397759
-0.00438411
0.0396641
-0.00501418
0.0395357
-0.00566238
0.0393909
-0.00632876
0.03923
-0.00701298
0.0390531
-0.00771468
0.0388603
-0.00843342
0.038652
-0.00916903
0.0384286
-0.00992121
0.0381904
-0.0106897
0.0379383
-0.0114746
0.0376736
-0.0122755
0.0373977
-0.0130923
0.0371119
-0.0139245
0.0368168
-0.0147717
0.0365129
-0.0156324
0.0362007
-0.0165061
0.0358815
-0.0173911
0.0355572
-0.0182873
0.0352303
-0.0191937
0.0349031
-0.0201102
0.034579
-0.0210313
-0.0219926
0.0342572
0.0300558
0.00858452
-0.0296533
0.030455
0.00852475
0.0308505
0.00845915
0.0312419
0.00838741
0.0316289
0.00830923
0.0320112
0.0082244
0.0323885
0.00813272
0.0327605
0.00803398
0.0331269
0.00792795
0.0334874
0.00781441
0.0338418
0.0076931
0.0341897
0.00756372
0.0345309
0.00742608
0.034865
0.00727991
0.0351918
0.00712503
0.0355109
0.00696116
0.0358219
0.00678798
0.0361243
0.00660518
0.036418
0.00641236
0.0367025
0.0062093
0.0369774
0.00599567
0.0372424
0.00577115
0.0374972
0.00553555
0.0377413
0.00528861
0.0379743
0.00503004
0.0381956
0.00475935
0.038405
0.00447616
0.038602
0.00418013
0.0387864
0.0038708
0.0389578
0.003548
0.0391158
0.00321146
0.0392601
0.00286081
0.0393903
0.00249577
0.0395061
0.00211595
0.0396073
0.00172099
0.0396936
0.00131062
0.0397647
0.000884318
0.0398204
0.000441677
0.0398604
-1.75306e-05
0.0398845
-0.00049273
0.0398925
-0.000984272
0.0398843
-0.00149264
0.0398599
-0.00201806
0.0398192
-0.00256061
0.0397621
-0.00312056
0.0396883
-0.00369818
0.039598
-0.00429373
0.039491
-0.00490723
0.0393675
-0.00553889
0.0392277
-0.00618891
0.039072
-0.00685728
0.0389007
-0.00754345
0.0387142
-0.00824688
0.0385126
-0.00896745
0.0382966
-0.00970522
0.0380669
-0.0104599
0.0378243
-0.011232
0.0375703
-0.0120214
0.0373055
-0.0128275
0.0370305
-0.0136495
0.0367458
-0.0144869
0.0364522
-0.0153388
0.0361512
-0.0162051
0.035845
-0.0170848
0.0355356
-0.017978
0.0352256
-0.0188837
0.0349169
-0.0198015
0.034611
-0.0207253
-0.0216904
0.0343088
0.0298416
0.00818222
-0.0294393
0.0302407
0.00812558
0.0306364
0.00806346
0.0310282
0.00799559
0.0314158
0.00792164
0.0317988
0.00784138
0.032177
0.0077546
0.0325499
0.00766107
0.0329172
0.00756061
0.0332786
0.007453
0.0336338
0.00733794
0.0339824
0.00721513
0.0343241
0.00708432
0.0346588
0.00694528
0.034986
0.00679782
0.0353054
0.0066417
0.0356168
0.00647661
0.0359197
0.00630231
0.0362136
0.00611843
0.0364983
0.00592457
0.0367735
0.00572048
0.0370388
0.00550589
0.0372938
0.0052805
0.0375383
0.00504419
0.0377716
0.00479671
0.0379934
0.00453755
0.0382033
0.00426625
0.038401
0.00398246
0.0385861
0.00368566
0.0387584
0.00337569
0.0389174
0.00305244
0.0390627
0.0027155
0.0391941
0.00236438
0.0393113
0.00199879
0.0394139
0.00161838
0.0395017
0.00122281
0.0395745
0.000811577
0.0396319
0.000384269
0.0396738
-5.94329e-05
0.0396999
-0.000518891
0.0397103
-0.000994629
0.0397047
-0.00148709
0.0396833
-0.00199666
0.039646
-0.00252326
0.0395925
-0.00306711
0.0395228
-0.00362845
0.0394367
-0.00420757
0.0393341
-0.00480471
0.0392152
-0.00541999
0.03908
-0.00605362
0.0389289
-0.00670623
0.0387626
-0.00737712
0.0385813
-0.00806564
0.0383855
-0.00877167
0.0381761
-0.00949573
0.0379538
-0.0102376
0.0377195
-0.0109977
0.0374736
-0.0117756
0.0372169
-0.0125708
0.0369502
-0.0133827
0.0366745
-0.0142113
0.0363916
-0.0150559
0.0361033
-0.0159168
0.0358116
-0.0167931
0.0355185
-0.017685
0.035226
-0.0185912
0.0349358
-0.0195112
0.0346475
-0.0204371
-0.0214067
0.0343638
0.029648
0.00778019
-0.029246
0.0300469
0.00772669
0.0304424
0.00766796
0.0308342
0.0076038
0.0312219
0.00753393
0.0316052
0.0074581
0.0319837
0.00737605
0.0323572
0.00728762
0.0327252
0.00719255
0.0330876
0.00709067
0.0334438
0.00698171
0.0337936
0.00686537
0.0341365
0.00674138
0.0344723
0.00660952
0.0348005
0.00646959
0.0351208
0.00632135
0.035433
0.0061645
0.0357365
0.00599876
0.0360311
0.00582383
0.0363164
0.00563931
0.0365921
0.0054448
0.0368578
0.00524013
0.0371133
0.00502503
0.0373581
0.00479934
0.037592
0.00456279
0.0378146
0.00431494
0.0380255
0.00405542
0.0382241
0.00378382
0.0384101
0.00349966
0.0385833
0.00320251
0.0387434
0.00289233
0.0388899
0.00256896
0.0390226
0.00223178
0.0391409
0.00188049
0.0392445
0.00151468
0.0393335
0.00113384
0.0394076
0.00073751
0.0394665
0.00032538
0.03951
-0.000102943
0.0395378
-0.000546721
0.0395499
-0.00100675
0.0395463
-0.00148341
0.0395268
-0.00197716
0.0394914
-0.00248793
0.0394402
-0.00301587
0.039373
-0.00356129
0.0392898
-0.00412433
0.0391906
-0.00470551
0.0390754
-0.00530485
0.0389441
-0.00592229
0.0387969
-0.00655897
0.0386342
-0.00721449
0.0384569
-0.00788836
0.0382658
-0.00858058
0.0380618
-0.00929164
0.0378454
-0.0100213
0.0376174
-0.0107697
0.0373784
-0.0115366
0.0371295
-0.0123219
0.0368719
-0.0131251
0.036607
-0.0139464
0.0363365
-0.0147854
0.0360621
-0.0156424
0.0357853
-0.0165164
0.035508
-0.0174076
0.0352314
-0.0183146
0.0349569
-0.0192367
0.0346853
-0.0201655
-0.0211462
0.0344248
0.0294762
0.00737833
-0.0290744
0.0298749
0.00732804
0.0302702
0.00727267
0.0306619
0.0072121
0.0310496
0.00714618
0.0314331
0.00707461
0.031812
0.00699714
0.032186
0.00691365
0.0325547
0.00682388
0.0329177
0.00672763
0.0332747
0.00662477
0.0336251
0.00651489
0.0339688
0.00639769
0.0343054
0.00627296
0.0346345
0.0061405
0.0349558
0.00600005
0.0352689
0.00585133
0.0355736
0.00569413
0.0358693
0.00552808
0.0361557
0.0053529
0.0364324
0.00516811
0.0366991
0.00497343
0.0369554
0.00476879
0.0372009
0.00455384
0.0374354
0.00432824
0.0376587
0.00409163
0.0378704
0.00384373
0.03807
0.00358419
0.0382571
0.00331264
0.038431
0.00302854
0.0385918
0.0027316
0.0387389
0.00242185
0.038872
0.00209867
0.0389908
0.00176166
0.0390951
0.00141037
0.0391848
0.00104422
0.0392595
0.000662772
0.0393191
0.000265759
0.0393634
-0.000147227
0.0393922
-0.000575503
0.0394054
-0.00101998
0.039403
-0.00148099
0.0393846
-0.00195881
0.0393503
-0.00245354
0.0392998
-0.0029654
0.0392334
-0.0034949
0.0391511
-0.00404204
0.0390529
-0.00460726
0.0389389
-0.00519087
0.0388092
-0.00579263
0.0386642
-0.00641394
0.0385049
-0.00705516
0.038332
-0.00771548
0.0381463
-0.00839493
0.0379486
-0.00909385
0.0377392
-0.00981198
0.037519
-0.0105495
0.0372888
-0.0113064
0.0370496
-0.0120827
0.0368029
-0.0128783
0.0365499
-0.0136935
0.0362922
-0.0145276
0.036031
-0.0153812
0.0357676
-0.0162531
0.0355032
-0.0171432
0.0352383
-0.0180497
0.0349735
-0.0189719
0.0347104
-0.0199024
-0.0208918
0.034456
0.0293263
0.00697601
-0.028924
0.0297254
0.00692895
0.030121
0.00687704
0.0305129
0.00682016
0.0309009
0.00675825
0.0312844
0.00669104
0.0316634
0.00661821
0.0320374
0.00653964
0.0324061
0.00645513
0.0327694
0.0063644
0.0331268
0.00626737
0.0334779
0.00616374
0.0338224
0.00605315
0.03416
0.00593542
0.0344902
0.00581033
0.0348126
0.00567762
0.0351269
0.00553701
0.0354327
0.00538831
0.0357297
0.00523112
0.0360175
0.00506514
0.0362955
0.00489006
0.0365635
0.0047054
0.0368211
0.00451119
0.0370679
0.0043071
0.0373035
0.00409262
0.0375276
0.00386751
0.0377399
0.00363146
0.0379398
0.00338424
0.038127
0.00312548
0.0383009
0.00285459
0.0384616
0.00257097
0.0386088
0.00227461
0.0387424
0.00196513
0.0388619
0.00164217
0.038967
0.00130523
0.0390575
0.000953711
0.0391332
0.000587107
0.0391937
0.000205203
0.0392389
-0.000192367
0.0392685
-0.00060511
0.0392823
-0.00103378
0.0392801
-0.00147879
0.0392615
-0.00194025
0.0392264
-0.00241848
0.0391749
-0.00291387
0.0391072
-0.00342724
0.0390238
-0.00395858
0.0389248
-0.00450825
0.0388107
-0.00507679
0.0386821
-0.00566406
0.0385398
-0.00627162
0.0383849
-0.00690021
0.0382178
-0.00754848
0.0380392
-0.00821626
0.037849
-0.00890369
0.0376478
-0.00961077
0.0374362
-0.0103379
0.0372152
-0.0110853
0.0369858
-0.0118533
0.0367493
-0.0126418
0.0365069
-0.0134511
0.0362599
-0.0142806
0.0360091
-0.0151304
0.0357553
-0.0159992
0.0354986
-0.0168866
0.0352391
-0.0177901
0.0349761
-0.0187089
0.0347091
-0.0196355
-0.0206178
0.0344352
0.0291987
0.00657321
-0.0287959
0.0295983
0.0065293
0.0299945
0.00648089
0.0303868
0.0064278
0.0307751
0.00636994
0.0311591
0.00630707
0.0315385
0.00623882
0.031913
0.00616512
0.0322824
0.00608577
0.0326462
0.00600055
0.0330042
0.00590936
0.033356
0.00581198
0.0337011
0.00570806
0.0340392
0.00559729
0.03437
0.0054795
0.0346933
0.0053544
0.0350084
0.00522183
0.0353151
0.00508163
0.0356129
0.00493331
0.0359016
0.00477647
0.0361807
0.00461098
0.0364496
0.00443644
0.0367082
0.0042526
0.0369559
0.0040594
0.0371924
0.00385616
0.0374173
0.00364259
0.0376304
0.00341839
0.0378313
0.00318333
0.0380197
0.00293703
0.0381953
0.002679
0.0383577
0.00240858
0.0385067
0.00212564
0.0386419
0.00182996
0.0387631
0.00152099
0.0388698
0.00119844
0.0389617
0.000861851
0.0390383
0.000510507
0.0390992
0.000144332
0.0391438
-0.000237025
0.0391721
-0.000633399
0.0391838
-0.00104545
0.0391789
-0.00147391
0.0391576
-0.00191891
0.03912
-0.00238089
0.0390667
-0.00286056
0.0389982
-0.00335877
0.0389151
-0.00387547
0.038818
-0.00441113
0.0387074
-0.0049662
0.0385837
-0.00554042
0.0384474
-0.00613523
0.0382984
-0.00675124
0.0381369
-0.00738705
0.0379633
-0.00804257
0.0377779
-0.00871832
0.0375818
-0.00941468
0.037376
-0.0101321
0.0371616
-0.0108709
0.0369395
-0.0116313
0.0367107
-0.012413
0.036476
-0.0132164
0.0362359
-0.0140405
0.0359906
-0.0148852
0.0357402
-0.0157487
0.0354841
-0.0166305
0.0352219
-0.0175279
0.0349526
-0.0184397
0.0346747
-0.0193576
-0.0203232
0.0343801
0.0290946
0.00616985
-0.0286913
0.0294948
0.00612911
0.0298916
0.00608407
0.0302848
0.00603465
0.0306741
0.00598066
0.0310592
0.00592197
0.0314398
0.00585822
0.0318154
0.00578946
0.0321858
0.00571543
0.0325505
0.00563584
0.0329093
0.00555053
0.033262
0.00545931
0.033608
0.00536201
0.0339471
0.00525821
0.0342789
0.00514771
0.034603
0.00503024
0.0349193
0.00490562
0.0352271
0.00477378
0.0355261
0.0046343
0.0358159
0.00448673
0.036096
0.00433081
0.036366
0.00416646
0.0366255
0.00399314
0.0368741
0.00381076
0.0371114
0.00361884
0.0373372
0.00341683
0.0375509
0.00320462
0.0377525
0.00298182
0.0379415
0.00274802
0.0381175
0.00250299
0.0382799
0.0022461
0.0384286
0.00197701
0.038563
0.00169558
0.0386828
0.00140118
0.0387877
0.00109355
0.0388772
0.000772313
0.038951
0.000436681
0.039009
8.6312e-05
0.039051
-0.000278988
0.0390773
-0.000659671
0.039088
-0.00105622
0.0390836
-0.00146943
0.0390642
-0.00189954
0.03903
-0.00234668
0.0389812
-0.00281179
0.0389179
-0.00329546
0.0388402
-0.00379777
0.0387483
-0.00431923
0.0386425
-0.00486038
0.0385232
-0.00542111
0.0383902
-0.00600226
0.0382433
-0.00660438
0.0380834
-0.00722709
0.0379114
-0.00787059
0.0377285
-0.00853546
0.0375359
-0.00922201
0.0373343
-0.0099306
0.0371246
-0.0106612
0.0369073
-0.011414
0.0366828
-0.0121884
0.0364509
-0.0129846
0.0362116
-0.0138012
0.0359645
-0.014638
0.0357088
-0.0154931
0.0354439
-0.0163655
0.035169
-0.017253
0.0348834
-0.0181541
0.03459
-0.0190642
-0.0200228
0.0342896
0.0290154
0.00576545
-0.028611
0.0294166
0.00572786
0.0298145
0.0056862
0.0302087
0.00564047
0.0305988
0.00559056
0.0309845
0.00553621
0.0313658
0.0054769
0.0317426
0.00541269
0.0321143
0.00534374
0.0324805
0.00526967
0.0328407
0.00519029
0.0331948
0.00510528
0.0335422
0.00501456
0.0338827
0.00491777
0.0342158
0.00481453
0.0345414
0.00470471
0.0348588
0.00458813
0.035168
0.00446465
0.0354683
0.00433399
0.0357592
0.0041958
0.0360403
0.0040497
0.0363112
0.0038956
0.0365713
0.00373304
0.0368205
0.00356158
0.0370583
0.00338103
0.0372845
0.00319067
0.0374986
0.00299048
0.0377002
0.00278019
0.0378891
0.00255917
0.0380646
0.00232746
0.0382264
0.00208436
0.038374
0.00182934
0.0385073
0.00156229
0.038626
0.00128247
0.0387299
0.000989666
0.0388188
0.000683435
0.0388924
0.000363083
0.0389508
2.78837e-05
0.0389939
-0.000322097
0.039022
-0.000687738
0.0390352
-0.00106947
0.0390335
-0.0014677
0.0390168
-0.00188284
0.0389851
-0.00231495
0.0389383
-0.00276498
0.0388763
-0.00323351
0.0387995
-0.00372092
0.0387079
-0.00422769
0.0386019
-0.00475438
0.0384821
-0.00530126
0.0383488
-0.00586898
0.0382025
-0.00645811
0.0380443
-0.00706885
0.0378751
-0.00770139
0.0376956
-0.00835601
0.0375065
-0.00903284
0.0373079
-0.00973203
0.0371001
-0.0104534
0.036883
-0.0111968
0.0366562
-0.0119617
0.0364194
-0.0127478
0.036172
-0.0135538
0.0359131
-0.0143791
0.035642
-0.015222
0.0353579
-0.0160814
0.0350598
-0.016955
0.034747
-0.0178413
0.034418
-0.0187351
-0.0196742
0.0340693
0.0289623
0.00535978
-0.0285567
0.0293648
0.00532535
0.0297639
0.00528715
0.0301593
0.00524505
0.0305509
0.00519902
0.0309381
0.00514899
0.0313205
0.00509444
0.0316981
0.00503509
0.0320707
0.00497118
0.0324379
0.00490245
0.0327997
0.00482853
0.0331555
0.00474944
0.0335048
0.00466531
0.0338467
0.00457578
0.0341811
0.00448017
0.0345075
0.00437829
0.0348257
0.00426998
0.0351353
0.00415507
0.0354359
0.00403335
0.0357272
0.0039045
0.0360087
0.00376822
0.03628
0.00362424
0.0365408
0.00347225
0.0367906
0.00331175
0.0370292
0.00314246
0.037256
0.0029639
0.0374706
0.00277583
0.0376727
0.00257808
0.0378619
0.00237
0.0380378
0.00215153
0.0382
0.00192215
0.0383482
0.00168115
0.0384823
0.00142824
0.0386019
0.00116285
0.0387072
0.000884408
0.0387979
0.000592694
0.0388739
0.000287091
0.038935
-3.32372e-05
0.0389808
-0.000367854
0.0390111
-0.000718038
0.0390257
-0.00108412
0.0390245
-0.00146648
0.0390073
-0.00186566
0.0389745
-0.00228215
0.0389263
-0.00271675
0.0388629
-0.00317011
0.0387848
-0.00364278
0.0386923
-0.00413528
0.0385861
-0.00464814
0.0384667
-0.00518182
0.0383345
-0.00573682
0.03819
-0.00631355
0.0380334
-0.00691229
0.0378652
-0.0075332
0.0376856
-0.00817643
0.0374947
-0.00884194
0.0372924
-0.00952968
0.0370783
-0.0102393
0.0368521
-0.0109706
0.0366132
-0.0117228
0.0363608
-0.0124954
0.0360944
-0.0132874
0.0358132
-0.0140979
0.0355166
-0.0149254
0.035204
-0.0157688
0.0348752
-0.0166261
0.0345299
-0.0174961
0.0341671
-0.0183723
-0.0192865
0.0337794
0.0289397
0.00495245
-0.0285324
0.029344
0.00492109
0.0297449
0.00488625
0.0301421
0.00484783
0.0305355
0.00480565
0.0309248
0.00475971
0.0313095
0.00470968
0.0316894
0.00465521
0.0320642
0.00459644
0.0324333
0.00453334
0.0327964
0.00446541
0.0331533
0.00439248
0.0335039
0.00431476
0.0338475
0.00423218
0.0341835
0.00414415
0.0345115
0.00405026
0.0348312
0.00395033
0.0351422
0.00384409
0.0354442
0.00373136
0.0357369
0.00361178
0.0360199
0.00348518
0.0362928
0.00335133
0.0365552
0.00320985
0.0368065
0.00306046
0.0370464
0.00290261
0.0372744
0.00273588
0.0374903
0.00255993
0.0376938
0.00237456
0.0378845
0.00217934
0.038062
0.00197398
0.0382261
0.00175804
0.0383764
0.00153087
0.0385127
0.00129192
0.0386347
0.00104088
0.0387421
0.000777016
0.0388347
0.000500107
0.0389121
0.000209675
0.038974
-9.51426e-05
0.0390201
-0.000413909
0.0390501
-0.000748057
0.039064
-0.00109805
0.0390619
-0.00146441
0.039044
-0.00184774
0.0390105
-0.00224867
0.0389617
-0.00266791
0.0388977
-0.00310612
0.0388189
-0.00356392
0.0387254
-0.00404187
0.0386178
-0.00454051
0.0384963
-0.00506029
0.0383611
-0.00560162
0.0382124
-0.00616483
0.0380502
-0.00675014
0.0378747
-0.00735765
0.0376856
-0.00798736
0.0374828
-0.00863915
0.0372659
-0.00931282
0.0370346
-0.010008
0.0367882
-0.0107242
0.0365261
-0.0114607
0.0362478
-0.0122171
0.0359525
-0.0129921
0.0356399
-0.0137852
0.0353095
-0.014595
0.0349614
-0.0154207
0.0345965
-0.0162613
0.0342172
-0.0171167
0.0338285
-0.0179836
-0.0188958
0.0334377
0.02895
0.00454331
-0.0285409
0.0293562
0.00451488
0.0297592
0.00448329
0.0301586
0.00444846
0.030554
0.00441023
0.0309452
0.00436849
0.0313318
0.00432306
0.0317134
0.00427364
0.0320896
0.00422024
0.0324601
0.00416278
0.0328246
0.0041009
0.0331828
0.00403437
0.0335343
0.00396318
0.0338792
0.00388733
0.0342168
0.00380649
0.0345468
0.00372028
0.0348687
0.00362846
0.0351821
0.00353066
0.0354867
0.00342684
0.035782
0.0033164
0.036068
0.00319926
0.036344
0.00307534
0.0366098
0.00294402
0.0368649
0.00280532
0.0371089
0.0026586
0.0373416
0.00250324
0.0375624
0.00233912
0.0377709
0.00216605
0.0379666
0.00198363
0.0381491
0.00179147
0.0383181
0.00158908
0.038473
0.00137594
0.0386134
0.00115152
0.0387389
0.000915388
0.0388489
0.000666994
0.0389432
0.000405857
0.0390214
0.000131471
0.0390831
-0.000156882
0.0391285
-0.000459262
0.0391573
-0.000776844
0.0391695
-0.0011103
0.0391653
-0.00146022
0.0391448
-0.00182723
0.0391081
-0.00221199
0.0390554
-0.00261514
0.0389866
-0.00303737
0.038902
-0.00347928
0.0388015
-0.00394145
0.0386854
-0.00442442
0.0385538
-0.00492863
0.0384066
-0.00545445
0.038244
-0.00600217
0.0380658
-0.00657194
0.0378719
-0.00716382
0.0376623
-0.00777773
0.0374366
-0.00841348
0.0371946
-0.00907076
0.0369357
-0.0097491
0.0366595
-0.010448
0.0363655
-0.0111667
0.036053
-0.0119046
0.0357217
-0.0126608
0.0353712
-0.0134347
0.0350018
-0.0142256
0.0346146
-0.0150335
0.0342122
-0.0158589
0.0337993
-0.0167038
0.0333837
-0.017568
-0.0184865
0.0329744
0.0289994
0.00413225
-0.0285883
0.0294075
0.00410677
0.0298124
0.00407841
0.0302137
0.0040471
0.0306112
0.00401275
0.0310045
0.0039752
0.0313933
0.00393431
0.0317771
0.00388982
0.0321557
0.00384163
0.0325289
0.0037896
0.0328963
0.00373349
0.0332575
0.0036731
0.0336124
0.00360833
0.0339606
0.00353908
0.034302
0.00346515
0.034636
0.00338625
0.0349623
0.00330218
0.0352804
0.0032125
0.0355901
0.0031172
0.0358908
0.00301571
0.0361823
0.00290776
0.0364642
0.00279343
0.036736
0.00267216
0.0369973
0.00254403
0.0372473
0.00240862
0.0374853
0.00226522
0.0377109
0.00211354
0.0379237
0.0019533
0.0381231
0.00178415
0.0383089
0.00160569
0.0384806
0.00141744
0.0386376
0.00121893
0.0387795
0.00100963
0.0389058
0.000789055
0.0390162
0.00055664
0.0391102
0.000311814
0.0391877
5.39758e-05
0.0392483
-0.000217442
0.0392918
-0.000502849
0.0393181
-0.000803127
0.0393268
-0.00111901
0.0393178
-0.00145117
0.0392908
-0.0018003
0.039246
-0.0021671
0.0391831
-0.00255227
0.0391022
-0.00295651
0.0390034
-0.00338047
0.0388867
-0.00382477
0.0387523
-0.00428994
0.0386001
-0.00477647
0.0384304
-0.00528472
0.0382432
-0.00581494
0.0380385
-0.00636728
0.0378164
-0.00694172
0.0375768
-0.00753813
0.0373195
-0.00815619
0.0370442
-0.00879551
0.0367507
-0.00945551
0.0364383
-0.0101356
0.0361066
-0.010835
0.0357552
-0.0115533
0.0353841
-0.0122896
0.0349935
-0.0130441
0.0345848
-0.013817
0.0341613
-0.01461
0.0337282
-0.0154258
0.0332931
-0.0162687
0.0328654
-0.0171402
-0.018072
0.0324509
0.0291022
0.00371792
-0.0286879
0.0295137
0.00369527
0.0299221
0.00367001
0.0303272
0.00364206
0.0307286
0.00361133
0.0311261
0.00357768
0.0315194
0.00354098
0.0319082
0.00350105
0.0322921
0.00345771
0.0326709
0.00341081
0.0330442
0.00336018
0.0334117
0.00330565
0.0337729
0.0032471
0.0341276
0.00318437
0.0344755
0.00311729
0.0348161
0.00304562
0.0351491
0.00296917
0.035474
0.00288763
0.0357904
0.00280081
0.0360976
0.00270843
0.0363952
0.00261018
0.0366827
0.002506