/*--------------------------------*- C++ -*----------------------------------*\
| =========                 |                                                 |
| \\      /  F ield         | OpenFOAM: The Open Source CFD Toolbox           |
|  \\    /   O peration     | Version:  2312                                  |
|   \\  /    A nd           | Website:  www.openfoam.com                      |
|    \\/     M anipulation  |                                                 |
\*---------------------------------------------------------------------------*/
FoamFile
{
    version     2.0;
    format      ascii;
    arch        "LSB;label=32;scalar=64";
    class       volVectorField;
    location    "1500";
    object      U;
}
// * * * * * * * * * * * * * * * * * * * * * * * * * * * * * * * * * * * * * //

dimensions      [0 1 -1 0 0 0 0];

internalField   nonuniform List<vector> 
76025
(
(1.0614 -0.231421 0)
(1.06767 -0.230717 -6.40634e-21)
(1.07395 -0.229831 0)
(1.08024 -0.228784 0)
(1.08647 -0.227575 1.66505e-20)
(1.09293 -0.225941 3.71644e-20)
(1.09934 -0.22434 -6.76977e-20)
(1.10582 -0.222354 2.9753e-20)
(1.11228 -0.220291 1.13351e-20)
(1.11873 -0.218018 -1.20227e-20)
(1.12516 -0.215511 6.41813e-22)
(1.13162 -0.212724 -4.00101e-20)
(1.13811 -0.209775 5.32809e-20)
(1.14455 -0.206523 0)
(1.15102 -0.202934 -1.54359e-20)
(1.15733 -0.19933 0)
(1.16362 -0.195265 0)
(1.16983 -0.191133 0)
(1.17597 -0.186607 -1.7269e-20)
(1.18194 -0.182068 1.89015e-20)
(1.18787 -0.177088 1.95531e-20)
(1.19379 -0.1719 5.93432e-20)
(1.19952 -0.166498 -4.01262e-20)
(1.20512 -0.160818 -6.42276e-20)
(1.2106 -0.154971 -1.21267e-21)
(1.21593 -0.148961 -2.41651e-20)
(1.22125 -0.142439 6.95271e-20)
(1.2263 -0.135883 -7.02544e-20)
(1.23119 -0.128934 2.39022e-20)
(1.23588 -0.121613 -2.45511e-20)
(1.24033 -0.114546 -2.53088e-20)
(1.24469 -0.107118 5.3441e-20)
(1.24896 -0.0991393 -8.10702e-20)
(1.25299 -0.0912681 -1.42448e-20)
(1.25676 -0.08304 7.19832e-20)
(1.2602 -0.0749037 3.20111e-22)
(1.26347 -0.0663238 -1.47986e-20)
(1.26667 -0.0572876 7.87193e-21)
(1.26969 -0.0484915 2.96757e-22)
(1.27239 -0.0393472 -1.20747e-20)
(1.27475 -0.0301908 8.01792e-21)
(1.27695 -0.0205956 -3.9595e-21)
(1.27911 -0.0104555 7.88971e-21)
(1.281 -0.000424039 -1.58602e-20)
(1.28249 0.00981552 -1.61664e-20)
(1.28371 0.0201135 3.12072e-20)
(1.28481 0.0308664 3.20527e-20)
(1.2857 0.0415747 -9.62929e-20)
(1.28617 0.0524258 6.2644e-20)
(1.28643 0.0634499 -7.2134e-22)
(1.28645 0.0746746 -1.58241e-19)
(1.2862 0.0862108 -6.20466e-20)
(1.28581 0.0980124 6.36945e-20)
(1.28521 0.110141 0)
(1.2842 0.122303 -6.17138e-20)
(1.28285 0.134533 -6.3358e-20)
(1.28134 0.1471 1.04779e-21)
(1.27946 0.160046 -6.19367e-20)
(1.27717 0.173505 6.24702e-20)
(1.2745 0.187346 -1.84009e-19)
(1.2719 0.201029 -1.25691e-19)
(1.26886 0.215648 -3.83665e-21)
(1.26538 0.230675 0)
(1.26138 0.24613 3.13884e-19)
(1.25694 0.26204 -1.21739e-19)
(1.25217 0.27812 6.28897e-20)
(1.24697 0.295419 -1.24784e-19)
(1.24135 0.313879 1.29982e-19)
(1.23814 0.331842 2.56375e-19)
(1.0623 -0.242153 -6.21734e-21)
(1.0689 -0.241428 -2.21429e-20)
(1.07552 -0.240484 2.85364e-20)
(1.08218 -0.239335 0)
(1.08882 -0.238021 -4.62716e-20)
(1.09556 -0.236444 -3.11305e-21)
(1.10227 -0.234667 4.02884e-20)
(1.10902 -0.232653 0)
(1.1158 -0.230412 7.0233e-22)
(1.12258 -0.227962 1.22747e-20)
(1.12938 -0.225287 -1.29757e-20)
(1.13617 -0.222369 8.0955e-22)
(1.14293 -0.219222 0)
(1.14967 -0.215831 0)
(1.15641 -0.212145 -3.38725e-20)
(1.16306 -0.208268 8.3575e-20)
(1.16968 -0.20408 1.81026e-20)
(1.17621 -0.19969 -5.61738e-20)
(1.18269 -0.195003 3.73324e-20)
(1.18903 -0.190114 -1.92228e-20)
(1.19529 -0.184945 2.16125e-20)
(1.20144 -0.179521 -4.15607e-20)
(1.20747 -0.173839 4.42908e-20)
(1.21337 -0.167894 -6.80597e-20)
(1.21913 -0.161694 4.57609e-20)
(1.22476 -0.155272 7.1772e-20)
(1.23027 -0.148577 -4.85841e-20)
(1.23554 -0.141667 0)
(1.24063 -0.134485 0)
(1.24556 -0.127036 -2.73084e-20)
(1.25031 -0.119362 0)
(1.25493 -0.111472 -2.87614e-20)
(1.25933 -0.103345 2.91294e-20)
(1.26347 -0.0950397 -4.44595e-20)
(1.26738 -0.0865154 6.37583e-22)
(1.27106 -0.0777781 -1.52187e-20)
(1.27453 -0.0687646 0)
(1.27778 -0.0595501 -3.27625e-20)
(1.28083 -0.0501834 2.5259e-20)
(1.28362 -0.0406527 -2.10891e-20)
(1.28615 -0.0308817 1.27096e-20)
(1.28843 -0.0208466 -1.62758e-22)
(1.29048 -0.0106922 4.5255e-21)
(1.29227 -0.000457672 -4.2104e-21)
(1.29377 0.00993394 3.41591e-20)
(1.29502 0.0205565 -1.71316e-20)
(1.29605 0.0313788 -1.74355e-20)
(1.29682 0.0422724 3.29077e-20)
(1.29729 0.0533797 1.00221e-19)
(1.2975 0.0647278 -4.06548e-22)
(1.29746 0.0762665 9.89112e-20)
(1.29714 0.0880452 -3.31692e-20)
(1.2966 0.100034 -9.81716e-20)
(1.29584 0.112158 6.54029e-20)
(1.29479 0.124404 0)
(1.29344 0.137016 1.96202e-19)
(1.29185 0.14986 6.02783e-22)
(1.28997 0.16297 -6.47551e-20)
(1.28777 0.176362 -6.59296e-20)
(1.2853 0.190086 0)
(1.28254 0.204351 6.24815e-20)
(1.2795 0.218984 1.92677e-19)
(1.27612 0.233918 0)
(1.27237 0.249295 -1.29039e-19)
(1.2683 0.265219 7.07507e-20)
(1.26385 0.281801 -1.32656e-19)
(1.25917 0.299167 6.61663e-20)
(1.25408 0.317038 -1.32098e-19)
(1.24995 0.335226 -1.32012e-19)
(1.06343 -0.253672 3.40062e-20)
(1.07028 -0.252894 -2.01349e-20)
(1.07719 -0.251891 8.41345e-21)
(1.08417 -0.250679 -3.73686e-20)
(1.0912 -0.249255 4.7188e-20)
(1.09826 -0.247611 4.35646e-20)
(1.10533 -0.245733 -5.49463e-20)
(1.11243 -0.243624 0)
(1.11954 -0.241278 7.40204e-22)
(1.12667 -0.238691 0)
(1.13379 -0.235862 1.47236e-20)
(1.14089 -0.232786 -1.46603e-20)
(1.14797 -0.22946 -8.10907e-20)
(1.15502 -0.225884 6.46408e-20)
(1.16203 -0.222047 -1.68514e-20)
(1.169 -0.217946 -5.44019e-20)
(1.17592 -0.213584 1.84691e-20)
(1.18277 -0.208953 1.90123e-20)
(1.18954 -0.204064 6.19467e-20)
(1.19623 -0.198903 -4.11667e-20)
(1.2028 -0.193486 -2.22409e-20)
(1.20925 -0.187802 4.54987e-20)
(1.21558 -0.181853 -2.1829e-20)
(1.22177 -0.175639 -2.44388e-20)
(1.22783 -0.16916 0)
(1.23372 -0.162425 2.59059e-20)
(1.23943 -0.15545 2.59908e-20)
(1.24495 -0.14822 -2.54466e-20)
(1.2503 -0.140726 0)
(1.25546 -0.132982 5.63026e-20)
(1.26044 -0.124986 -2.95071e-20)
(1.26522 -0.116774 -1.2928e-21)
(1.26976 -0.108354 0)
(1.27406 -0.0997089 1.52028e-20)
(1.27813 -0.0908573 -4.75936e-20)
(1.28196 -0.0817895 3.2306e-20)
(1.28555 -0.0725155 0)
(1.28889 -0.0630506 2.5551e-20)
(1.292 -0.0534078 -2.62722e-20)
(1.29486 -0.0435968 -4.34652e-21)
(1.29745 -0.0335703 0)
(1.29977 -0.0233475 -8.84321e-21)
(1.30184 -0.0129521 -4.4309e-21)
(1.30365 -0.00238588 4.25482e-21)
(1.3052 0.00836249 -2.60023e-20)
(1.30647 0.0193067 -1.78125e-20)
(1.30748 0.0304228 3.42819e-20)
(1.30822 0.0416777 -3.48567e-20)
(1.30869 0.0531006 3.51724e-20)
(1.30889 0.0647025 -3.4401e-20)
(1.30884 0.0764733 -3.38978e-20)
(1.30853 0.0884288 6.96912e-20)
(1.30798 0.10057 0)
(1.3072 0.112894 6.91632e-20)
(1.30617 0.125419 7.38684e-22)
(1.30487 0.138187 -6.79526e-20)
(1.30331 0.151182 -6.77597e-20)
(1.3015 0.164439 1.3462e-19)
(1.2994 0.178015 -6.2209e-22)
(1.29702 0.191965 6.81462e-20)
(1.29435 0.2063 -1.3642e-19)
(1.29143 0.220983 -6.89694e-20)
(1.28822 0.236087 9.45342e-22)
(1.28473 0.251684 -6.7565e-20)
(1.28101 0.267837 -6.57331e-20)
(1.27703 0.284567 -2.08284e-19)
(1.2729 0.302029 0)
(1.26816 0.320075 -7.05331e-20)
(1.26448 0.338899 6.89928e-20)
(1.06472 -0.265954 0)
(1.07188 -0.265131 -7.70056e-21)
(1.07908 -0.264069 -4.54251e-20)
(1.08637 -0.262789 3.66966e-20)
(1.09371 -0.261283 3.33846e-20)
(1.1011 -0.259542 -5.49355e-20)
(1.10853 -0.257559 1.1739e-20)
(1.11598 -0.255335 -1.33021e-20)
(1.12345 -0.252865 -1.33262e-20)
(1.13092 -0.250145 -5.97437e-20)
(1.13838 -0.247169 6.03909e-20)
(1.14583 -0.243932 6.60997e-20)
(1.15325 -0.240431 -1.48128e-20)
(1.16063 -0.236663 -7.06885e-20)
(1.16797 -0.232624 5.50688e-20)
(1.17526 -0.228311 -1.97727e-20)
(1.18249 -0.223726 2.05551e-20)
(1.18965 -0.218862 2.13339e-20)
(1.19672 -0.213724 -6.47894e-20)
(1.20371 -0.20831 2.08975e-20)
(1.21058 -0.202622 2.24721e-20)
(1.21733 -0.196659 0)
(1.22395 -0.190418 5.09842e-20)
(1.23042 -0.183907 -2.5141e-20)
(1.23674 -0.177127 -5.26977e-20)
(1.24289 -0.170084 -5.48998e-20)
(1.24886 -0.162778 1.09294e-19)
(1.25464 -0.155207 -5.64658e-20)
(1.26023 -0.147376 0)
(1.26561 -0.139292 -5.9346e-20)
(1.27077 -0.130969 -9.35261e-22)
(1.27571 -0.122421 6.1259e-20)
(1.28042 -0.113646 -3.2106e-20)
(1.28489 -0.104641 8.18284e-20)
(1.28911 -0.0954203 -1.60425e-20)
(1.29308 -0.0859939 0)
(1.29678 -0.0763648 0)
(1.30023 -0.0665352 9.10551e-21)
(1.30342 -0.0565255 8.94067e-21)
(1.30634 -0.0463412 4.70774e-21)
(1.30898 -0.0359537 -1.46973e-22)
(1.31134 -0.0253735 4.52137e-21)
(1.31344 -0.0146126 0)
(1.31526 -0.00368575 -3.30933e-22)
(1.31681 0.00739265 0)
(1.31807 0.0186189 1.76492e-20)
(1.31906 0.0299979 1.36026e-22)
(1.31978 0.0415227 -5.47477e-20)
(1.32024 0.0531906 0)
(1.32042 0.0650136 -3.6008e-20)
(1.32035 0.0769998 3.56187e-20)
(1.32004 0.0891506 -7.01376e-20)
(1.31948 0.101482 0)
(1.31868 0.114005 -2.1207e-19)
(1.31764 0.126716 7.36377e-22)
(1.31634 0.139634 6.96496e-20)
(1.31481 0.152784 6.94102e-20)
(1.31303 0.166199 0)
(1.31099 0.179919 0)
(1.30869 0.193977 -6.8433e-20)
(1.30614 0.208396 1.37117e-19)
(1.30339 0.2232 1.37625e-19)
(1.30046 0.23843 0)
(1.29735 0.254147 -1.4325e-19)
(1.29409 0.270419 0)
(1.29059 0.287286 2.12464e-19)
(1.28693 0.304892 -7.1097e-20)
(1.28259 0.323087 -7.30785e-20)
(1.2793 0.342163 -7.54959e-20)
(1.06613 -0.278961 0)
(1.07366 -0.278098 0)
(1.08123 -0.27698 -9.85006e-21)
(1.08885 -0.275629 4.34136e-20)
(1.09653 -0.274039 -5.48275e-20)
(1.10426 -0.272198 1.17696e-20)
(1.11203 -0.270102 0)
(1.11983 -0.267751 1.34489e-20)
(1.12765 -0.265142 0)
(1.13548 -0.262268 3.19968e-20)
(1.1433 -0.259127 2.76639e-21)
(1.1511 -0.255712 -3.35606e-20)
(1.15888 -0.25202 0)
(1.16662 -0.248048 3.86457e-20)
(1.17432 -0.243792 -1.18289e-19)
(1.18195 -0.239249 8.09128e-20)
(1.18952 -0.234419 -1.06018e-19)
(1.197 -0.229301 2.18392e-20)
(1.20439 -0.223895 -2.35441e-20)
(1.21167 -0.218205 2.3094e-20)
(1.21884 -0.212228 2.45728e-20)
(1.22588 -0.205965 -7.56715e-20)
(1.23279 -0.199416 -5.21257e-20)
(1.23954 -0.192585 0)
(1.24612 -0.185475 5.58278e-20)
(1.25253 -0.178089 2.9039e-20)
(1.25875 -0.170432 -8.58582e-20)
(1.26477 -0.162506 2.91458e-20)
(1.27058 -0.154318 -6.17718e-20)
(1.27616 -0.145877 9.26267e-20)
(1.28152 -0.13719 -3.28331e-20)
(1.28664 -0.128262 1.67956e-20)
(1.29152 -0.119097 0)
(1.29614 -0.109709 -1.67908e-20)
(1.30049 -0.100105 -1.71611e-20)
(1.30457 -0.0902989 0)
(1.30838 -0.0802972 1.86866e-20)
(1.31191 -0.0701083 -2.79469e-20)
(1.31516 -0.0597427 1.89707e-20)
(1.31813 -0.0491962 -9.64601e-21)
(1.32082 -0.0384578 -1.59112e-22)
(1.32321 -0.027545 -7.30048e-21)
(1.32533 -0.0164714 2.38069e-21)
(1.32716 -0.00524505 9.3618e-21)
(1.3287 0.00612751 2.74012e-22)
(1.32996 0.017645 5.66182e-20)
(1.33093 0.0293058 0)
(1.33163 0.0411049 3.68472e-20)
(1.33204 0.0530374 -4.95316e-22)
(1.3322 0.0651037 -3.69995e-20)
(1.3321 0.077316 0)
(1.33176 0.0896818 -3.6885e-20)
(1.33118 0.102212 3.64581e-20)
(1.33037 0.114911 7.173e-20)
(1.32932 0.127789 0)
(1.32805 0.140868 -1.43541e-19)
(1.32655 0.154167 1.4387e-19)
(1.32483 0.167724 -1.43539e-19)
(1.32287 0.181571 -1.32398e-21)
(1.32071 0.195743 0)
(1.31837 0.210261 -7.24193e-20)
(1.31591 0.225163 7.12807e-20)
(1.31334 0.240493 7.51398e-20)
(1.31065 0.256322 1.43719e-19)
(1.3078 0.272711 -2.2245e-19)
(1.3047 0.289697 1.47215e-19)
(1.30144 0.307424 -7.33221e-20)
(1.29753 0.325765 7.6215e-20)
(1.29482 0.345053 2.20536e-19)
(1.06752 -0.292725 3.54383e-20)
(1.07549 -0.291825 4.00209e-21)
(1.08349 -0.290655 -3.996e-20)
(1.09154 -0.289236 0)
(1.09962 -0.287564 1.17879e-20)
(1.10773 -0.285626 0)
(1.11587 -0.283415 -2.89971e-20)
(1.12404 -0.280933 -1.95057e-21)
(1.13224 -0.278173 4.70015e-20)
(1.14043 -0.275133 -1.72537e-20)
(1.14863 -0.27181 -1.70938e-20)
(1.1568 -0.268201 -1.90562e-20)
(1.16495 -0.264302 0)
(1.17306 -0.260109 0)
(1.18111 -0.255617 2.04914e-20)
(1.1891 -0.250826 2.1326e-20)
(1.19702 -0.245735 -4.6395e-20)
(1.20484 -0.240341 4.63185e-20)
(1.21256 -0.234647 4.89153e-20)
(1.22017 -0.228657 -5.12892e-20)
(1.22765 -0.22237 1.02746e-19)
(1.235 -0.215785 1.78972e-22)
(1.24219 -0.208904 -5.59171e-20)
(1.24922 -0.201727 -2.91886e-20)
(1.25607 -0.194259 -5.91068e-20)
(1.26273 -0.186509 5.91847e-20)
(1.26919 -0.178481 6.21542e-20)
(1.27544 -0.170178 -6.23217e-20)
(1.28146 -0.161609 0)
(1.28725 -0.152782 0)
(1.2928 -0.143712 8.43138e-20)
(1.29809 -0.134399 1.37077e-21)
(1.30312 -0.124846 -3.4995e-20)
(1.30789 -0.115065 -3.62909e-20)
(1.31237 -0.105067 3.6527e-20)
(1.31656 -0.094865 0)
(1.32046 -0.0844695 -1.87652e-20)
(1.32407 -0.073894 -2.96243e-20)
(1.32738 -0.0631514 1.98253e-20)
(1.33039 -0.0522321 -1.9972e-22)
(1.3331 -0.04113 -1.56885e-21)
(1.33551 -0.0298644 7.38245e-21)
(1.33762 -0.0184433 5.06353e-21)
(1.33942 -0.00686826 9.91883e-21)
(1.34093 0.0048457 -4.8844e-20)
(1.34214 0.0166808 2.62715e-22)
(1.34306 0.0286346 0)
(1.3437 0.0407082 -3.94144e-20)
(1.34408 0.0528988 1.1582e-19)
(1.34421 0.065206 -7.72123e-20)
(1.34409 0.0776384 -3.82441e-20)
(1.34374 0.0902044 -6.72888e-22)
(1.34316 0.102919 -3.73933e-20)
(1.34236 0.115795 -4.79432e-22)
(1.34134 0.128845 7.44335e-20)
(1.3401 0.142083 -7.5381e-20)
(1.33865 0.155528 -7.45324e-20)
(1.337 0.169216 1.48213e-19)
(1.33517 0.183173 -6.11284e-22)
(1.3332 0.197436 7.46082e-20)
(1.33114 0.212031 -7.39328e-20)
(1.32901 0.227008 7.35371e-20)
(1.32678 0.242414 -1.47556e-19)
(1.32442 0.258318 -7.5599e-20)
(1.32189 0.274777 1.47039e-19)
(1.31914 0.291835 -7.84845e-20)
(1.3163 0.309642 -2.31772e-19)
(1.31287 0.328077 -7.55069e-20)
(1.3109 0.347484 0)
(1.06884 -0.307313 0)
(1.07729 -0.306376 1.06147e-20)
(1.08577 -0.305151 -8.14716e-22)
(1.09429 -0.303662 0)
(1.10284 -0.301903 0)
(1.11141 -0.299863 1.46407e-20)
(1.11999 -0.297534 -4.68542e-20)
(1.12858 -0.294917 6.41911e-20)
(1.13719 -0.292006 -3.18853e-20)
(1.14579 -0.288798 1.74154e-20)
(1.15438 -0.285288 0)
(1.16294 -0.281476 1.92318e-20)
(1.17148 -0.277357 -2.13779e-20)
(1.17997 -0.272928 0)
(1.1884 -0.268185 0)
(1.19677 -0.263128 2.36275e-20)
(1.20504 -0.257758 1.85144e-21)
(1.21323 -0.252074 -4.94091e-20)
(1.2213 -0.246076 -5.14624e-20)
(1.22925 -0.239765 5.28501e-20)
(1.23705 -0.233145 2.6991e-20)
(1.24471 -0.22621 1.1508e-19)
(1.25221 -0.218968 9.06454e-22)
(1.25953 -0.21142 -3.171e-20)
(1.26665 -0.203572 6.11931e-20)
(1.27358 -0.195432 -3.16425e-20)
(1.28028 -0.187008 6.43997e-20)
(1.28676 -0.178306 0)
(1.29299 -0.169332 0)
(1.29898 -0.160091 0)
(1.30471 -0.150594 -1.74079e-20)
(1.31017 -0.140852 -3.58062e-20)
(1.31535 -0.130874 3.68332e-20)
(1.32024 -0.120673 3.81068e-20)
(1.32484 -0.110256 -3.8333e-20)
(1.32914 -0.0996366 0)
(1.33312 -0.0888315 2.01441e-20)
(1.3368 -0.0778557 -1.03096e-20)
(1.34016 -0.0667153 0)
(1.34321 -0.0553914 1.04801e-20)
(1.34595 -0.0438938 -1.949e-21)
(1.34836 -0.0322441 1.29415e-21)
(1.35045 -0.0204514 -5.0795e-21)
(1.35223 -0.008525 0)
(1.35371 0.00351715 -2.05421e-20)
(1.35488 0.015667 2.03285e-20)
(1.35577 0.0279286 0)
(1.35638 0.0402943 -7.33779e-22)
(1.35673 0.0527505 5.22924e-22)
(1.35683 0.0652974 3.90941e-20)
(1.35668 0.0779486 0)
(1.3563 0.0907193 -1.12848e-21)
(1.35569 0.103625 -3.83671e-20)
(1.35487 0.116678 -1.16781e-19)
(1.35385 0.12989 -1.25878e-21)
(1.35263 0.143276 7.56067e-20)
(1.35123 0.156849 0)
(1.34967 0.170638 0)
(1.34801 0.184675 7.74981e-20)
(1.34627 0.198997 0)
(1.34447 0.213645 0)
(1.34259 0.228674 -3.7563e-22)
(1.34061 0.244124 -7.61e-20)
(1.3385 0.260063 -1.55181e-19)
(1.33628 0.276551 1.54524e-19)
(1.33391 0.293644 -4.08652e-21)
(1.33157 0.311511 7.51311e-20)
(1.32875 0.330005 7.8121e-20)
(1.32754 0.349575 0)
(1.07013 -0.322786 0)
(1.07906 -0.321808 -1.07226e-20)
(1.08803 -0.320526 3.72435e-20)
(1.09705 -0.318965 -1.15856e-20)
(1.1061 -0.317117 0)
(1.11517 -0.31497 -4.65029e-20)
(1.12425 -0.312518 8.10738e-20)
(1.13333 -0.309759 2.18897e-21)
(1.14241 -0.30669 -9.10776e-20)
(1.15148 -0.303306 1.75732e-20)
(1.16052 -0.299603 -2.09775e-20)
(1.16953 -0.295578 -2.19658e-20)
(1.17849 -0.291226 6.70428e-20)
(1.18739 -0.286547 -9.26745e-20)
(1.19623 -0.281535 4.72216e-20)
(1.205 -0.276191 -2.67258e-20)
(1.21366 -0.270515 1.03785e-19)
(1.22222 -0.264514 -2.50494e-20)
(1.23066 -0.258186 2.93874e-20)
(1.23896 -0.251529 -2.76417e-20)
(1.24711 -0.244552 1.76918e-21)
(1.25509 -0.237256 -1.8219e-19)
(1.26291 -0.229636 -3.20891e-20)
(1.27054 -0.221696 -1.62692e-21)
(1.27796 -0.213443 9.87289e-20)
(1.28517 -0.204888 -3.28173e-20)
(1.29214 -0.196032 6.95674e-20)
(1.29886 -0.186892 -1.05792e-19)
(1.30531 -0.177483 0)
(1.3115 -0.167809 -3.70709e-20)
(1.31741 -0.157875 3.72416e-20)
(1.32303 -0.147685 9.20911e-22)
(1.32835 -0.137247 -2.00382e-20)
(1.33337 -0.126581 -2.04048e-20)
(1.33807 -0.1157 6.15575e-20)
(1.34244 -0.104621 -4.10067e-20)
(1.3465 -0.0933655 3.17861e-20)
(1.35022 -0.0819464 -4.26258e-20)
(1.35362 -0.070376 2.1584e-20)
(1.35669 -0.0586342 -5.33325e-21)
(1.35943 -0.046733 0)
(1.36184 -0.0346937 5.41285e-21)
(1.36392 -0.0225246 -5.35484e-21)
(1.36569 -0.0102332 -1.07102e-20)
(1.36715 0.00216909 3.18828e-20)
(1.36831 0.0146648 -2.1379e-20)
(1.36917 0.0272416 -2.08999e-20)
(1.36973 0.0399 0)
(1.37002 0.0526326 -8.32135e-20)
(1.37004 0.0654349 8.18832e-20)
(1.36981 0.0783166 -4.00441e-20)
(1.36936 0.0912904 3.96415e-20)
(1.3687 0.104374 4.04777e-20)
(1.36785 0.117592 7.90115e-20)
(1.3668 0.130964 7.81465e-20)
(1.36558 0.14448 0)
(1.36424 0.158129 -7.96226e-20)
(1.36281 0.171973 0)
(1.36132 0.186063 1.35109e-21)
(1.35976 0.200431 -7.75805e-20)
(1.35813 0.215107 7.78874e-20)
(1.35643 0.230147 7.72813e-20)
(1.35466 0.245595 -7.91995e-20)
(1.35283 0.261531 -1.66502e-21)
(1.35101 0.278022 2.2669e-22)
(1.34916 0.29514 2.37414e-19)
(1.34741 0.313041 8.11236e-20)
(1.34531 0.33163 8.21195e-20)
(1.34474 0.351295 -7.97737e-20)
(1.07147 -0.339219 0)
(1.0809 -0.338192 0)
(1.09036 -0.336844 2.7736e-20)
(1.09989 -0.3352 -4.14168e-20)
(1.10945 -0.333257 -1.60684e-20)
(1.11903 -0.330997 0)
(1.12863 -0.328416 0)
(1.13824 -0.32551 1.93733e-20)
(1.14784 -0.322272 -4.0628e-20)
(1.15742 -0.318697 -3.65007e-21)
(1.16697 -0.314782 1.08356e-19)
(1.17646 -0.310529 -2.24034e-20)
(1.1859 -0.305934 2.41201e-20)
(1.19527 -0.300995 -4.85975e-20)
(1.20456 -0.295708 2.66855e-20)
(1.21377 -0.290072 0)
(1.22286 -0.284085 0)
(1.23184 -0.277746 8.83768e-22)
(1.24068 -0.271065 -8.87208e-20)
(1.24937 -0.264043 2.96719e-20)
(1.25789 -0.256677 -3.23794e-20)
(1.26623 -0.248979 3.14491e-20)
(1.27438 -0.240947 3.3057e-20)
(1.28233 -0.232582 -3.21862e-20)
(1.29006 -0.223887 -3.3952e-20)
(1.29756 -0.21488 0)
(1.30479 -0.205576 0)
(1.31176 -0.195977 5.53958e-20)
(1.31845 -0.18609 0)
(1.32485 -0.175923 3.90992e-20)
(1.33095 -0.165491 -3.92548e-20)
(1.33674 -0.154818 -1.97053e-20)
(1.34221 -0.143911 2.0093e-20)
(1.34735 -0.132777 4.19325e-20)
(1.35215 -0.121428 -2.0846e-20)
(1.35662 -0.109873 -2.17731e-20)
(1.36074 -0.0981391 2.23778e-20)
(1.36451 -0.0862514 0)
(1.36793 -0.0742222 0)
(1.37101 -0.062028 5.78781e-21)
(1.37373 -0.0496886 0)
(1.37613 -0.0372249 0)
(1.37818 -0.0246534 -1.68417e-20)
(1.37991 -0.0119812 2.23036e-20)
(1.38133 0.000778308 -1.11789e-20)
(1.38243 0.0136194 2.14034e-20)
(1.38323 0.0265332 0)
(1.38373 0.0395158 6.46564e-20)
(1.38393 0.0525469 -5.93014e-22)
(1.38388 0.065618 0)
(1.38356 0.0787243 -8.40873e-20)
(1.38303 0.0919027 -5.3106e-22)
(1.38229 0.10519 -8.22716e-20)
(1.38135 0.118568 -4.16023e-20)
(1.38027 0.132018 -8.19124e-20)
(1.37906 0.145601 8.11996e-20)
(1.37776 0.159346 8.01994e-20)
(1.37639 0.173262 0)
(1.37497 0.187378 -8.07955e-20)
(1.3735 0.201743 4.96167e-22)
(1.372 0.216399 0)
(1.37049 0.231414 0)
(1.36901 0.246833 7.90132e-20)
(1.3676 0.262744 0)
(1.36627 0.279214 0)
(1.36503 0.296327 -8.00626e-20)
(1.36396 0.314239 -7.88849e-20)
(1.36258 0.332916 -8.36348e-20)
(1.36258 0.352448 0)
(1.07291 -0.356735 0)
(1.08284 -0.355653 0)
(1.09282 -0.354227 0)
(1.10287 -0.352487 -1.63173e-20)
(1.11296 -0.350425 -1.86701e-20)
(1.12309 -0.348029 -2.49416e-21)
(1.13322 -0.345296 3.69635e-20)
(1.14336 -0.342222 -1.95525e-20)
(1.15349 -0.338804 2.21176e-20)
(1.16361 -0.335031 4.49533e-20)
(1.17369 -0.330903 0)
(1.18372 -0.326412 0)
(1.19369 -0.321559 -1.03885e-21)
(1.20358 -0.316338 7.98173e-20)
(1.21338 -0.310748 -1.12008e-19)
(1.22307 -0.304787 -2.1757e-21)
(1.23264 -0.298459 5.82187e-20)
(1.24207 -0.291763 2.97199e-20)
(1.25135 -0.284701 -1.90884e-21)
(1.26046 -0.277288 0)
(1.26937 -0.269524 6.69464e-20)
(1.2781 -0.261408 0)
(1.28661 -0.252947 7.06099e-20)
(1.29489 -0.244134 -1.08317e-19)
(1.30295 -0.234975 1.11245e-19)
(1.31075 -0.225483 3.88979e-20)
(1.31829 -0.215673 -5.87722e-20)
(1.32554 -0.205564 5.94393e-20)
(1.33247 -0.195183 -3.9738e-20)
(1.33909 -0.184533 0)
(1.34539 -0.173599 -4.20587e-20)
(1.35138 -0.162391 -2.23929e-20)
(1.35701 -0.150934 4.2951e-20)
(1.36228 -0.139252 -4.39674e-20)
(1.36719 -0.127373 2.24062e-20)
(1.37174 -0.11531 -2.25198e-20)
(1.37591 -0.103083 -1.12283e-20)
(1.37972 -0.0907039 1.19076e-20)
(1.38315 -0.0781915 5.80068e-21)
(1.38622 -0.0655212 -1.74996e-20)
(1.38893 -0.0527209 -1.49305e-21)
(1.39127 -0.0398179 0)
(1.39326 -0.0268318 5.6584e-21)
(1.39491 -0.013751 -1.12258e-20)
(1.39623 -0.000585916 1.11196e-20)
(1.39722 0.0126408 0)
(1.39791 0.0259044 0)
(1.39829 0.0391897 2.23042e-20)
(1.39839 0.052503 -4.35815e-20)
(1.39823 0.0658511 -8.72476e-20)
(1.3978 0.0791963 1.72386e-19)
(1.39715 0.0925803 -4.34637e-20)
(1.39629 0.106018 4.25998e-20)
(1.39524 0.119528 4.18417e-20)
(1.39407 0.133111 -8.44617e-20)
(1.39283 0.146782 8.34756e-20)
(1.39153 0.160558 0)
(1.39019 0.174476 -8.31861e-20)
(1.38883 0.18858 4.48143e-22)
(1.38748 0.202919 8.10023e-20)
(1.38619 0.217537 0)
(1.38498 0.232503 0)
(1.3839 0.247866 0)
(1.38297 0.263724 1.64341e-19)
(1.38221 0.280137 8.42528e-20)
(1.3816 0.297208 8.33905e-20)
(1.38121 0.315082 -1.64103e-19)
(1.38049 0.333736 -1.79428e-21)
(1.3815 0.353319 8.46761e-20)
(1.07447 -0.375387 0)
(1.08495 -0.374246 -3.04234e-20)
(1.09547 -0.372745 3.84814e-20)
(1.10606 -0.370911 -2.79055e-20)
(1.1167 -0.368735 5.42757e-20)
(1.12738 -0.366207 2.02977e-20)
(1.13807 -0.363317 2.15301e-20)
(1.14878 -0.360063 0)
(1.15948 -0.356442 -4.62119e-20)
(1.17016 -0.352445 -4.79565e-20)
(1.1808 -0.348066 4.93865e-20)
(1.19139 -0.34331 -2.73945e-20)
(1.2019 -0.338175 2.96055e-20)
(1.21232 -0.332656 -2.53604e-20)
(1.22264 -0.326747 -1.20753e-19)
(1.23284 -0.320448 -2.28333e-21)
(1.24292 -0.313755 -2.23093e-21)
(1.25285 -0.306673 6.45203e-20)
(1.26261 -0.299205 3.28145e-20)
(1.27219 -0.291355 7.05225e-20)
(1.28156 -0.283141 -6.81849e-20)
(1.29071 -0.274557 0)
(1.29962 -0.265612 2.21828e-21)
(1.30828 -0.256312 0)
(1.31668 -0.246662 -3.81597e-20)
(1.32481 -0.236675 -3.89663e-20)
(1.33264 -0.226358 1.9875e-20)
(1.34017 -0.215725 0)
(1.34738 -0.204785 2.1781e-20)
(1.35425 -0.193563 4.34212e-20)
(1.36076 -0.182069 -4.35794e-20)
(1.36691 -0.170305 2.17562e-20)
(1.37268 -0.158314 -4.55645e-20)
(1.37807 -0.146089 9.14321e-20)
(1.38307 -0.133644 -2.32478e-20)
(1.38768 -0.121013 0)
(1.3919 -0.108226 -1.22789e-20)
(1.39571 -0.0953002 5.49824e-22)
(1.39914 -0.0822609 1.83224e-20)
(1.40217 -0.0690726 -1.52457e-20)
(1.40482 -0.0557836 2.96122e-21)
(1.40709 -0.0424049 -9.08206e-21)
(1.40899 -0.0289634 5.94522e-21)
(1.41052 -0.0154625 0)
(1.41169 -0.00191481 0)
(1.41252 0.0116678 0)
(1.41302 0.0252876 2.31786e-20)
(1.41321 0.0389102 2.291e-20)
(1.41311 0.052548 0)
(1.41273 0.0661885 4.41871e-20)
(1.41212 0.0797848 4.5002e-20)
(1.4113 0.0933485 4.41234e-20)
(1.41031 0.106915 0)
(1.40921 0.120505 0)
(1.40804 0.134143 -8.63617e-20)
(1.4068 0.147874 8.52698e-20)
(1.40554 0.161695 0)
(1.40429 0.175623 8.28015e-20)
(1.40309 0.189706 -8.22901e-20)
(1.40197 0.204004 -8.3329e-20)
(1.40098 0.218563 8.2937e-20)
(1.40014 0.233459 -8.17093e-20)
(1.39951 0.248742 0)
(1.39906 0.264506 -8.16394e-20)
(1.39884 0.28082 1.65168e-21)
(1.39878 0.297775 -1.66105e-19)
(1.39894 0.315526 -1.69768e-19)
(1.39872 0.33398 1.67917e-19)
(1.40063 0.353295 -8.3712e-20)
(1.07613 -0.395287 -7.59906e-21)
(1.08722 -0.394078 0)
(1.09834 -0.392493 -8.30272e-21)
(1.10952 -0.390555 4.75321e-20)
(1.12076 -0.388252 -8.82433e-20)
(1.13202 -0.385571 2.04925e-20)
(1.1433 -0.382509 -2.15786e-20)
(1.15458 -0.379062 4.86031e-20)
(1.16585 -0.375225 -2.43501e-20)
(1.1771 -0.370994 -2.52093e-20)
(1.18832 -0.366356 -2.83593e-20)
(1.19949 -0.361313 8.58667e-20)
(1.21058 -0.355864 -2.72752e-20)
(1.22157 -0.350009 9.47106e-20)
(1.23246 -0.343746 3.33142e-20)
(1.24322 -0.337076 2.39078e-21)
(1.25383 -0.330004 -6.68173e-20)
(1.26428 -0.322519 0)
(1.27455 -0.314633 0)
(1.28462 -0.306346 -3.82808e-20)
(1.29447 -0.297669 -3.68798e-20)
(1.30407 -0.288614 -7.89202e-20)
(1.31342 -0.279163 4.01144e-20)
(1.32251 -0.269334 8.2554e-20)
(1.3313 -0.259135 -8.24584e-20)
(1.33979 -0.248584 2.18981e-20)
(1.34795 -0.237686 2.2303e-20)
(1.35578 -0.226453 0)
(1.36325 -0.214905 -2.18357e-20)
(1.37033 -0.203065 -4.59093e-20)
(1.37703 -0.190961 -5.96322e-22)
(1.38334 -0.178584 4.68288e-20)
(1.38926 -0.165947 -2.4542e-20)
(1.39478 -0.153093 0)
(1.39988 -0.140055 1.25526e-20)
(1.40456 -0.126852 -1.26979e-20)
(1.40882 -0.113505 1.22446e-20)
(1.41266 -0.100024 -2.53822e-20)
(1.41607 -0.086431 0)
(1.41907 -0.0727051 -3.24837e-21)
(1.42165 -0.0588883 3.14944e-21)
(1.42382 -0.0450083 -4.77094e-21)
(1.42557 -0.0310676 1.84961e-20)
(1.42692 -0.0170888 -3.65852e-20)
(1.42786 -0.00308832 2.41165e-20)
(1.42844 0.0109032 2.38241e-20)
(1.42867 0.0248854 -2.27859e-20)
(1.42859 0.038852 4.72262e-20)
(1.42822 0.0527609 -4.60114e-20)
(1.4276 0.0666512 -1.13282e-19)
(1.42679 0.0804812 6.10866e-22)
(1.42583 0.094194 -4.3991e-20)
(1.4248 0.10787 0)
(1.4237 0.12156 0)
(1.42257 0.13528 -8.7376e-20)
(1.42141 0.149037 1.29096e-19)
(1.42025 0.162856 -8.53334e-20)
(1.41915 0.176777 0)
(1.41813 0.190831 8.47809e-20)
(1.41725 0.205074 1.66782e-19)
(1.41656 0.219551 -8.27438e-20)
(1.41607 0.234337 -1.06735e-21)
(1.41582 0.249491 8.23485e-20)
(1.41579 0.265103 2.8983e-22)
(1.41598 0.281246 -1.66686e-19)
(1.41629 0.297998 1.65786e-19)
(1.41677 0.315509 8.38771e-20)
(1.41678 0.333638 0)
(1.41902 0.352515 0)
(1.07785 -0.416564 7.62239e-21)
(1.08959 -0.415288 4.57429e-20)
(1.10136 -0.413601 -3.63069e-20)
(1.11319 -0.411537 0)
(1.12507 -0.409085 -1.04216e-20)
(1.13698 -0.406235 -4.74825e-20)
(1.14889 -0.402985 3.45049e-20)
(1.1608 -0.39933 -6.60595e-20)
(1.17271 -0.395261 5.24111e-20)
(1.18458 -0.390775 0)
(1.19642 -0.385862 1.314e-20)
(1.20819 -0.380519 0)
(1.21988 -0.37475 3.42794e-20)
(1.23146 -0.368547 -9.68196e-20)
(1.24293 -0.361908 0)
(1.25426 -0.354835 0)
(1.26544 -0.347322 0)
(1.27644 -0.339378 -5.67904e-20)
(1.28725 -0.331009 7.58995e-20)
(1.29784 -0.322222 3.83042e-20)
(1.30818 -0.313017 0)
(1.31827 -0.303418 0)
(1.32808 -0.293415 0)
(1.33759 -0.283017 -1.09531e-19)
(1.34678 -0.272248 1.31593e-19)
(1.35563 -0.261114 -6.62582e-20)
(1.36413 -0.249625 -4.58458e-20)
(1.37227 -0.237791 4.70157e-20)
(1.38003 -0.225626 -4.71629e-20)
(1.38741 -0.213158 2.48781e-20)
(1.39437 -0.200417 -4.93308e-20)
(1.40091 -0.187411 2.38779e-20)
(1.40703 -0.174166 5.0423e-20)
(1.41272 -0.160688 2.6146e-20)
(1.41796 -0.146995 -1.2528e-20)
(1.42275 -0.133133 1.26413e-20)
(1.42707 -0.119132 0)
(1.43092 -0.105008 -6.24418e-22)
(1.4343 -0.0907739 6.63659e-21)
(1.43719 -0.0764169 1.33659e-23)
(1.43961 -0.0619805 -3.26418e-21)
(1.44156 -0.0474935 8.04622e-21)
(1.44305 -0.0329892 -1.29421e-20)
(1.44411 -0.018487 -6.46732e-21)
(1.44478 -0.00401256 1.27778e-20)
(1.44508 0.0103943 0)
(1.44507 0.0247381 -4.90239e-20)
(1.44478 0.039011 -7.20906e-20)
(1.44426 0.0532061 1.3436e-22)
(1.44355 0.0673132 7.03188e-20)
(1.4427 0.0812698 0)
(1.44173 0.0951254 0)
(1.44067 0.108981 -4.61047e-20)
(1.43951 0.122814 9.02755e-20)
(1.43831 0.136612 4.25793e-22)
(1.43711 0.150402 -4.4117e-20)
(1.43596 0.164216 1.72642e-19)
(1.43492 0.178093 -8.52456e-20)
(1.43403 0.192068 -8.40418e-20)
(1.43334 0.2062 -1.6895e-19)
(1.43287 0.220537 1.8688e-22)
(1.43264 0.235155 1.01381e-21)
(1.43265 0.250113 9.54397e-22)
(1.43286 0.265494 1.66369e-19)
(1.43325 0.281368 -8.20121e-20)
(1.43368 0.297805 -8.29021e-20)
(1.43418 0.314931 8.5076e-20)
(1.43417 0.332668 8.62379e-20)
(1.43549 0.350612 0)
(1.0797 -0.439288 -3.66071e-20)
(1.09212 -0.437942 1.75076e-20)
(1.10456 -0.436166 0)
(1.11708 -0.433988 -1.16106e-20)
(1.12965 -0.431398 0)
(1.14226 -0.428374 3.85816e-20)
(1.15489 -0.424923 -2.47961e-20)
(1.1675 -0.421039 5.59797e-20)
(1.18009 -0.416727 -5.67054e-20)
(1.19264 -0.41197 -1.5841e-20)
(1.20514 -0.406763 8.02201e-20)
(1.21757 -0.401092 -6.45471e-20)
(1.22991 -0.394962 0)
(1.24214 -0.38838 -7.23055e-20)
(1.25423 -0.381338 1.46714e-19)
(1.26617 -0.373847 -7.44003e-20)
(1.27794 -0.365895 0)
(1.28954 -0.357477 -1.00893e-19)
(1.30091 -0.34861 1.43341e-19)
(1.31204 -0.339309 -8.3298e-20)
(1.32292 -0.329567 0)
(1.33351 -0.319383 0)
(1.34381 -0.308782 0)
(1.35378 -0.297741 2.23676e-20)
(1.36341 -0.286308 4.74053e-20)
(1.37267 -0.274489 -4.7387e-20)
(1.38154 -0.262312 2.36272e-20)
(1.39002 -0.249785 0)
(1.39809 -0.236925 5.05466e-20)
(1.40573 -0.223745 -7.52717e-20)
(1.41292 -0.210285 0)
(1.41964 -0.196555 5.21002e-20)
(1.42589 -0.182558 -2.55546e-20)
(1.43166 -0.168348 -2.57653e-20)
(1.43692 -0.153937 1.36958e-20)
(1.44168 -0.139342 0)
(1.44592 -0.124622 0)
(1.44965 -0.109776 1.33401e-20)
(1.45286 -0.0948522 0)
(1.45558 -0.0798568 -6.82143e-21)
(1.45782 -0.0648298 1.65499e-21)
(1.45962 -0.0498185 6.71413e-21)
(1.46098 -0.0348054 -1.39524e-22)
(1.46196 -0.0198148 1.32273e-20)
(1.46257 -0.00488146 2.65478e-20)
(1.46283 0.00995177 1.30138e-20)
(1.46278 0.0246909 -2.63263e-20)
(1.46245 0.0393047 -2.54268e-20)
(1.46187 0.0537871 -4.91985e-20)
(1.46106 0.0681904 4.85822e-20)
(1.46007 0.0824675 0)
(1.45894 0.0965683 -4.72505e-20)
(1.45768 0.110533 -4.44041e-22)
(1.45634 0.124412 5.24127e-22)
(1.45499 0.13823 -8.90233e-20)
(1.45369 0.15201 0)
(1.45252 0.165775 -4.36802e-20)
(1.4515 0.179565 0)
(1.45068 0.193416 0)
(1.45008 0.207389 8.35402e-20)
(1.44972 0.22153 -8.16062e-22)
(1.44956 0.235911 -8.35377e-20)
(1.4496 0.250586 8.33531e-20)
(1.44976 0.265631 -8.21684e-20)
(1.45001 0.281103 8.35603e-20)
(1.45022 0.297066 -8.27818e-20)
(1.4504 0.31363 -1.69162e-19)
(1.45009 0.33073 -1.73153e-19)