/*--------------------------------*- C++ -*----------------------------------*\
| =========                 |                                                 |
| \\      /  F ield         | OpenFOAM: The Open Source CFD Toolbox           |
|  \\    /   O peration     | Version:  2312                                  |
|   \\  /    A nd           | Website:  www.openfoam.com                      |
|    \\/     M anipulation  |                                                 |
\*---------------------------------------------------------------------------*/
FoamFile
{
    version     2.0;
    format      ascii;
    arch        "LSB;label=32;scalar=64";
    class       volScalarField;
    location    "100";
    object      epsilon;
}
// * * * * * * * * * * * * * * * * * * * * * * * * * * * * * * * * * * * * * //

dimensions      [0 2 -3 0 0 0 0];

internalField   nonuniform List<scalar> 
76025
(
0.000254065
0.000253387
0.000252701
0.000252057
0.000251337
0.000250705
0.000249982
0.000249341
0.000248598
0.000247911
0.000247154
0.00024645
0.000245677
0.000244969
0.000244217
0.000243559
0.0002428
0.000242159
0.000241352
0.000240674
0.000239956
0.000239272
0.000238536
0.000237861
0.000237119
0.00023643
0.000235793
0.000235065
0.000234416
0.000233759
0.000233013
0.000232382
0.000231768
0.000231179
0.000230662
0.000230096
0.000229748
0.000229369
0.000229147
0.000228944
0.000228869
0.000228971
0.000229195
0.000229599
0.000229937
0.000230574
0.000231289
0.000232864
0.000234526
0.000237662
0.000241222
0.000247898
0.000253878
0.000264965
0.000275079
0.000297221
0.000315597
0.000356763
0.000369961
0.000411078
0.000451268
0.00051627
0.000561674
0.00062487
0.000672778
0.000751053
0.000846112
0.00101577
0.00123996
0.000256185
0.000255613
0.000254968
0.000254352
0.000253641
0.000253011
0.000252304
0.000251653
0.000250962
0.000250299
0.000249591
0.000248917
0.000248202
0.000247506
0.000246811
0.000246117
0.00024543
0.000244745
0.000244065
0.000243368
0.000242689
0.000242011
0.000241347
0.000240683
0.000240053
0.000239397
0.000238788
0.000238174
0.000237581
0.000237018
0.000236501
0.000235964
0.000235517
0.000235062
0.000234688
0.000234357
0.000234087
0.000233918
0.000233796
0.00023377
0.000233956
0.000234115
0.000234642
0.000235075
0.000236108
0.000237078
0.000238904
0.000240899
0.000243814
0.000247857
0.000252837
0.000260011
0.000269589
0.000281601
0.000299587
0.000319714
0.000345576
0.000373554
0.000405599
0.000460848
0.000505063
0.000568709
0.000607605
0.00067942
0.000731742
0.000846983
0.000982745
0.00123553
0.0016222
0.000258461
0.000258079
0.000257611
0.000257137
0.000256577
0.000256012
0.000255397
0.000254779
0.000254136
0.000253498
0.000252838
0.00025218
0.000251514
0.000250837
0.000250172
0.000249501
0.000248845
0.000248186
0.000247543
0.000246897
0.000246265
0.000245633
0.000245021
0.000244414
0.000243837
0.000243264
0.000242717
0.000242186
0.000241686
0.000241214
0.000240789
0.000240392
0.000240049
0.00023975
0.000239513
0.000239352
0.000239241
0.000239274
0.000239337
0.000239612
0.000239903
0.000240499
0.000241113
0.000242162
0.00024327
0.000244992
0.00024698
0.000249828
0.000253502
0.00025856
0.000265032
0.000274594
0.000285077
0.000301922
0.000318257
0.000343665
0.000368652
0.00040637
0.000446277
0.000497907
0.000539938
0.000600312
0.000645669
0.000729752
0.00080308
0.000970843
0.00114882
0.00151123
0.00201025
0.000261048
0.000260771
0.000260458
0.000260132
0.000259761
0.000259357
0.000258909
0.000258429
0.000257913
0.000257372
0.000256807
0.000256223
0.000255628
0.000255019
0.000254405
0.000253786
0.000253172
0.000252558
0.000251955
0.000251357
0.000250773
0.000250199
0.000249644
0.000249104
0.000248589
0.000248095
0.000247629
0.000247192
0.000246788
0.000246432
0.000246105
0.000245851
0.000245629
0.000245461
0.000245359
0.00024535
0.000245432
0.000245618
0.000245927
0.000246358
0.00024697
0.000247733
0.00024878
0.000250046
0.000251785
0.000253936
0.00025691
0.0002607
0.000265969
0.000272548
0.000281823
0.000292608
0.000307805
0.000324876
0.000347451
0.000374375
0.00040618
0.000446906
0.000487322
0.000539023
0.00058571
0.000652883
0.000710894
0.000818069
0.000922382
0.00116133
0.00140421
0.00190766
0.00259058
0.000264632
0.000264304
0.000263994
0.000263698
0.000263403
0.000263099
0.00026278
0.00026244
0.000262073
0.000261679
0.000261258
0.000260812
0.000260342
0.000259855
0.000259352
0.000258838
0.000258318
0.000257796
0.000257277
0.000256765
0.000256262
0.000255774
0.000255301
0.000254849
0.000254418
0.000254013
0.000253641
0.000253303
0.000253002
0.000252754
0.000252567
0.000252349
0.00025222
0.000252206
0.000252262
0.000252421
0.000252685
0.000253075
0.000253599
0.000254292
0.000255172
0.000256306
0.000257734
0.000259589
0.000261959
0.000265087
0.000269116
0.00027446
0.000281217
0.000290106
0.000300936
0.000314894
0.000331587
0.000352319
0.000377456
0.000407313
0.000443167
0.000484444
0.000529823
0.000584527
0.000640394
0.000714962
0.000797172
0.000933878
0.00109004
0.00142254
0.00174926
0.00244908
0.0032239
0.000269647
0.000269234
0.000268852
0.000268498
0.00026817
0.000267859
0.000267561
0.000267267
0.000266973
0.000266672
0.000266361
0.000266036
0.000265695
0.000265338
0.000264968
0.000264585
0.000264193
0.000263795
0.000263395
0.000262996
0.000262605
0.000262224
0.000261866
0.000261524
0.000261217
0.000260942
0.000260662
0.000260438
0.000260092
0.000259977
0.000259909
0.000259916
0.000259991
0.00026015
0.000260402
0.00026076
0.000261243
0.000261865
0.000262669
0.000263668
0.000264953
0.000266543
0.000268611
0.000271195
0.000274585
0.000278843
0.000284387
0.000291287
0.000300092
0.000310838
0.000324268
0.000340401
0.000360298
0.000384008
0.000412852
0.000446663
0.000486601
0.000532183
0.000583796
0.000645016
0.000713235
0.000807152
0.00092702
0.00110644
0.00135987
0.00177273
0.00222882
0.00312466
0.0039946
0.000276234
0.000275773
0.000275336
0.000274925
0.00027454
0.00027418
0.000273843
0.000273526
0.000273225
0.000272938
0.000272659
0.000272388
0.000272119
0.000271851
0.00027158
0.000271308
0.000271037
0.000270767
0.000270507
0.000270248
0.000270001
0.000269774
0.000269478
0.000269314
0.000268963
0.000268871
0.000268617
0.00026852
0.000268515
0.000268551
0.000268647
0.000268818
0.000269072
0.000269428
0.000269899
0.000270503
0.00027127
0.000272221
0.000273425
0.000274902
0.000276785
0.000279095
0.000282072
0.000285715
0.000290408
0.000296114
0.000303353
0.00031209
0.000322902
0.000335937
0.000351736
0.000370837
0.000393779
0.000421242
0.000454094
0.000492161
0.000537277
0.00058846
0.000649076
0.000722947
0.00081295
0.000942744
0.0011109
0.00136668
0.00172597
0.00223281
0.00287477
0.00394157
0.00487528
0.000284563
0.000284099
0.000283646
0.00028321
0.000282796
0.000282403
0.000282033
0.000281682
0.000281356
0.000281049
0.00028076
0.000280488
0.000280233
0.000280001
0.000279784
0.00027958
0.000279342
0.000279171
0.000278899
0.000278774
0.000278527
0.000278448
0.000278251
0.000278236
0.000278227
0.000278261
0.00027833
0.000278443
0.000278608
0.000278846
0.000279158
0.000279569
0.000280084
0.000280734
0.000281531
0.000282513
0.00028371
0.000285173
0.000286973
0.00028916
0.000291876
0.000295153
0.000299257
0.000304142
0.000310283
0.000317481
0.00032651
0.000337
0.000350068
0.000365338
0.000384118
0.000406399
0.000433254
0.000465264
0.00050313
0.000547535
0.000600437
0.000662017
0.000739386
0.00083538
0.000963151
0.00114338
0.00138258
0.00174017
0.00221224
0.00284665
0.00370457
0.00487731
0.0059385
0.000294874
0.000294486
0.000294079
0.00029367
0.000293261
0.000292866
0.000292485
0.000292131
0.000291796
0.000291497
0.000291221
0.000290975
0.00029068
0.000290499
0.000290182
0.000290071
0.00028983
0.000289754
0.000289557
0.000289485
0.000289486
0.000289506
0.000289544
0.000289632
0.000289768
0.000289963
0.000290215
0.00029054
0.000290936
0.00029143
0.000292022
0.000292746
0.000293606
0.000294648
0.00029588
0.000297364
0.000299118
0.000301226
0.000303749
0.000306768
0.000310407
0.000314728
0.000319985
0.000326149
0.000333737
0.000342518
0.000353461
0.000366043
0.000381838
0.000400079
0.000422825
0.000449398
0.000481751
0.000519985
0.000565419
0.000619712
0.00068505
0.000764965
0.000868229
0.00100062
0.00118407
0.0014336
0.00177003
0.00224939
0.0028413
0.00365117
0.00470918
0.00594556
0.00733514
0.000307311
0.000307004
0.000306805
0.000306486
0.000306245
0.000305929
0.000305655
0.00030534
0.000305063
0.000304726
0.000304504
0.000304143
0.000303992
0.000303705
0.000303604
0.000303384
0.000303291
0.000303286
0.000303294
0.00030334
0.000303431
0.000303569
0.000303755
0.000303997
0.0003043
0.000304675
0.000305126
0.00030567
0.00030631
0.000307079
0.000307977
0.000309048
0.000310293
0.000311774
0.000313493
0.000315534
0.000317905
0.000320719
0.000324025
0.000327944
0.000332582
0.000338061
0.000344624
0.000352323
0.000361704
0.000372608
0.000386151
0.000401759
0.000421403
0.00044393
0.000472238
0.000504792
0.000545003
0.000592034
0.000649199
0.000718617
0.00080433
0.000913952
0.00105719
0.0012465
0.00150666
0.00184743
0.00230957
0.00291583
0.00365257
0.00467388
0.005875
0.00723402
0.00932306
0.000322518
0.000322409
0.000322289
0.00032215
0.000322004
0.000321845
0.000321681
0.00032151
0.00032134
0.000321169
0.00032101
0.000320853
0.000320721
0.000320606
0.000320537
0.000320548
0.000320579
0.000320653
0.000320775
0.000320947
0.000321174
0.000321462
0.000321815
0.000322242
0.000322747
0.000323344
0.000324037
0.000324849
0.000325785
0.000326883
0.000328145
0.000329625
0.000331325
0.000333322
0.000335617
0.000338316
0.000341422
0.000345087
0.000349353
0.000354403
0.000360325
0.000367348
0.000375684
0.00038555
0.000397448
0.000411437
0.000428599
0.000448563
0.000473396
0.000501969
0.000537743
0.000578817
0.000630274
0.000690562
0.000766399
0.000859739
0.000979183
0.00113479
0.00133812
0.00160867
0.0019648
0.00242321
0.00302715
0.00376409
0.00469023
0.00591733
0.0072238
0.00896283
0.0127654
0.000341798
0.000341814
0.000341827
0.000341836
0.000341843
0.000341847
0.000341848
0.000341849
0.00034185
0.000341855
0.000341869
0.000341893
0.000341934
0.000341996
0.000342093
0.000342235
0.000342424
0.000342667
0.000342966
0.00034333
0.000343762
0.000344271
0.00034486
0.000345545
0.000346326
0.000347228
0.000348249
0.000349425
0.000350759
0.000352297
0.000354045
0.000356066
0.000358367
0.00036104
0.000364093
0.000367657
0.000371741
0.000376542
0.000382107
0.000388697
0.000396394
0.000405559
0.000416367
0.00042926
0.000444639
0.000462925
0.000485014
0.000511068
0.000542969
0.000580278
0.000626661
0.000680938
0.000749671
0.000831792
0.000937924
0.00106981
0.00124237
0.00146431
0.00175225
0.0021257
0.00259745
0.00319748
0.00394554
0.00483513
0.00599596
0.00737551
0.00891065
0.0118102
0.0194586
0.000366432
0.000366562
0.000366698
0.000366845
0.000367003
0.000367173
0.000367354
0.000367547
0.000367753
0.000367974
0.000368212
0.00036847
0.000368752
0.000369063
0.000369409
0.0003698
0.000370243
0.000370746
0.000371316
0.000371962
0.00037269
0.000373512
0.000374435
0.000375475
0.00037664
0.000377953
0.000379423
0.000381088
0.000382959
0.000385088
0.000387487
0.000390234
0.000393345
0.000396932
0.000401015
0.000405761
0.000411195
0.000417564
0.000424953
0.0004337
0.000443915
0.000456107
0.00047044
0.000487641
0.000508003
0.000532485
0.000561722
0.000596849
0.000639362
0.000690433
0.000753524
0.000829743
0.000926415
0.00104479
0.00119828
0.00138904
0.00163731
0.00194758
0.00234391
0.00283685
0.00344508
0.00419999
0.00509329
0.00618896
0.00759297
0.00910226
0.0115707
0.0167725
0.0318149
0.00039849
0.000398753
0.000399031
0.000399331
0.000399656
0.000400008
0.000400387
0.000400796
0.000401235
0.000401706
0.000402211
0.000402753
0.000403334
0.000403959
0.000404633
0.000405362
0.000406155
0.000407019
0.000407964
0.000409001
0.000410138
0.00041139
0.000412768
0.00041429
0.000415972
0.000417839
0.000419912
0.000422235
0.000424828
0.000427755
0.000431044
0.000434789
0.000439029
0.000443902
0.000449462
0.000455913
0.000463327
0.000472006
0.000482121
0.000494083
0.000508111
0.000524856
0.000544591
0.000568343
0.000596468
0.000630579
0.000671243
0.000720947
0.000780883
0.00085474
0.000945379
0.00105779
0.00119854
0.00137315
0.0015948
0.00186742
0.00221318
0.00263248
0.00315624
0.00378215
0.00454704
0.00545753
0.00652701
0.00789707
0.00951102
0.0115343
0.0160284
0.0264162
0.0564414
0.000440946
0.000441402
0.000441881
0.000442393
0.000442943
0.000443533
0.000444166
0.000444845
0.000445572
0.000446351
0.000447185
0.000448076
0.000449029
0.000450047
0.000451136
0.000452302
0.000453552
0.000454897
0.000456345
0.000457911
0.000459604
0.000461446
0.000463449
0.000465643
0.000468044
0.000470695
0.000473628
0.000476896
0.000480541
0.000484643
0.000489264
0.000494519
0.000500496
0.000507364
0.000515247
0.000524391
0.00053497
0.000547349
0.000561856
0.000579004
0.000599237
0.000623374
0.000652015
0.000686511
0.000727656
0.00077774
0.0008378
0.000911752
0.00100096
0.0011119
0.00124651
0.0014145
0.00161935
0.0018729
0.00218324
0.00255952
0.00302078
0.00356639
0.0042316
0.00500461
0.00594095
0.00701654
0.00835178
0.0100265
0.0120559
0.0156162
0.0245617
0.0459602
0.0987334
0.000498084
0.000498835
0.000499621
0.000500454
0.000501341
0.000502285
0.000503289
0.000504359
0.000505499
0.000506713
0.000508008
0.000509387
0.000510856
0.000512421
0.000514089
0.000515867
0.000517767
0.000519798
0.000521974
0.000524314
0.000526835
0.000529561
0.000532521
0.000535748
0.000539285
0.000543185
0.000547504
0.000552315
0.0005577
0.000563766
0.00057063
0.000578448
0.000587387
0.000597671
0.000609543
0.000623325
0.00063937
0.000658149
0.000680254
0.000706394
0.000737396
0.000774354
0.000818464
0.000871476
0.00093505
0.00101207
0.00110466
0.0012177
0.00135336
0.00151998
0.00171865
0.00196326
0.00225211
0.0026059
0.00302113
0.00352043
0.00410965
0.00479614
0.00561587
0.00655263
0.00767847
0.00898995
0.0107167
0.0128057
0.016253
0.0235054
0.0419643
0.086752
0.144758
0.000577207
0.000578426
0.000579698
0.000581037
0.000582451
0.000583945
0.000585524
0.000587196
0.000588967
0.000590845
0.000592838
0.000594955
0.000597206
0.000599601
0.000602153
0.000604876
0.000607786
0.000610903
0.000614251
0.000617855
0.000621752
0.000625978
0.000630585
0.000635632
0.000641188
0.000647336
0.000654173
0.000661818
0.000670414
0.000680126
0.000691161
0.000703758
0.000718213
0.000734862
0.000754142
0.000776526
0.000802654
0.000833195
0.000869128
0.000911521
0.000961695
0.0010212
0.00109193
0.00117614
0.00127646
0.00139617
0.00153866
0.00170891
0.00191043
0.00215167
0.00243385
0.00277312
0.00316266
0.00363405
0.00416502
0.00480633
0.0055287
0.00637566
0.00736798
0.0084951
0.00988367
0.0116023
0.0139032
0.0171881
0.0242919
0.0402725
0.0791508
0.145619
0.168785
0.000689463
0.000691459
0.000693543
0.000695737
0.00069805
0.00070049
0.000703063
0.000705783
0.000708659
0.000711707
0.000714939
0.000718373
0.000722027
0.000725921
0.000730082
0.000734538
0.000739321
0.000744471
0.000750034
0.000756061
0.00076262
0.00076979
0.00077766
0.000786335
0.000795941
0.000806622
0.000818555
0.000831942
0.000847027
0.000864096
0.000883489
0.000905605
0.000930916
0.000959978
0.000993453
0.00103211
0.00107687
0.00112882
0.0011892
0.00125961
0.00134183
0.0014379
0.00155027
0.00168167
0.00183537
0.0020149
0.0022246
0.00246901
0.00275339
0.00308447
0.00346615
0.0039129
0.00441731
0.00501892
0.00567423
0.00647918
0.00733342
0.00838798
0.00958014
0.0109853
0.0128577
0.0152752
0.0188965
0.0259137
0.0416812
0.0770224
0.1466
0.176647
0.175646
0.000858156
0.000861613
0.000865224
0.000869022
0.000873025
0.000877246
0.000881703
0.000886419
0.00089142
0.000896734
0.000902392
0.000908431
0.000914893
0.000921825
0.000929282
0.000937326
0.000946029
0.000955472
0.00096576
0.000977001
0.000989318
0.00100286
0.00101778
0.00103427
0.00105256
0.00107288
0.00109553
0.00112083
0.00114916
0.00118097
0.00121675
0.00125709
0.00130267
0.00135426
0.00141276
0.00147923
0.00155486
0.00164103
0.00173937
0.00185167
0.00198013
0.00212728
0.00229577
0.00248891
0.00271008
0.00296343
0.00325351
0.00358499
0.00396454
0.00439664
0.0048906
0.00545323
0.00608755
0.0068266
0.00762249
0.00861708
0.00961602
0.0109946
0.0124401
0.0144318
0.0172496
0.0211988
0.0290695
0.0455055
0.0808398
0.151144
0.185084
0.186185
0.170466
0.00112161
0.0011283
0.00113538
0.00114289
0.00115088
0.00115938
0.00116843
0.00117807
0.00118837
0.00119937
0.00121113
0.00122374
0.00123726
0.00125179
0.00126744
0.00128431
0.00130252
0.00132222
0.00134356
0.00136672
0.00139188
0.00141928
0.00144915
0.00148176
0.00151743
0.00155648
0.00159931
0.00164635
0.00169809
0.0017551
0.001818
0.00188753
0.00196452
0.00204992
0.00214482
0.00225049
0.00236832
0.0025
0.00264733
0.00281254
0.00299783
0.00320631
0.00344075
0.00370533
0.004003
0.00433965
0.00471837
0.00514667
0.00562943
0.00617248
0.00678902
0.00747505
0.0082598
0.00914156
0.0101274
0.0113503
0.0125998
0.0145337
0.0164365
0.019891
0.0247386
0.0336631
0.0532476
0.0912381
0.161726
0.194717
0.196802
0.182184
0.140585
0.00161094
0.00162592
0.00164165
0.00165822
0.00167567
0.00169408
0.00171353
0.00173409
0.00175585
0.00177889
0.00180329
0.00182919
0.0018566
0.0018859
0.00191724
0.00195074
0.00198655
0.00202483
0.00206575
0.00210953
0.00215637
0.00220654
0.00226031
0.002318
0.00237995
0.00244655
0.00251825
0.00259555
0.00267902
0.0027693
0.00286712
0.00297334
0.00308891
0.00321495
0.00335271
0.00350365
0.00366944
0.00385199
0.00405343
0.00427628
0.00452317
0.00479759
0.00510238
0.00544318
0.00582189
0.00624808
0.00672003
0.00725474
0.00784491
0.00851374
0.00925992
0.0100899
0.0110606
0.0121193
0.0134333
0.0149829
0.0168621
0.0197613
0.0230796
0.0302617
0.0410932
0.0645219
0.110778
0.177482
0.20585
0.206719
0.191168
0.148646
0.101634
0.00259632
0.00262563
0.00265617
0.00268807
0.00272127
0.00275634
0.00279336
0.00283234
0.00287334
0.00291643
0.00296167
0.00300915
0.00305901
0.00311117
0.00316575
0.00322292
0.00328288
0.00334584
0.003412
0.0034816
0.0035549
0.00363219
0.00371377
0.00379999
0.00389125
0.00398797
0.00409064
0.00419983
0.00431617
0.00444038
0.00457331
0.00471594
0.00486941
0.00503503
0.0052143
0.00540894
0.00562095
0.00585254
0.00610635
0.00638528
0.00669263
0.00703246
0.00740809
0.00782654
0.008289
0.00881023
0.00937954
0.010035
0.0107354
0.0115661
0.0124504
0.0135124
0.0147468
0.0161614
0.0181155
0.02035
0.0238675
0.0289422
0.0373969
0.0545596
0.0821427
0.140842
0.196861
0.217259
0.215574
0.19606
0.150108
0.10324
0.069566
0.00454049
0.0045902
0.00464144
0.0046943
0.00474889
0.00480484
0.00486228
0.00492138
0.00498229
0.00504517
0.00511015
0.00517737
0.005247
0.00531916
0.00539398
0.00547163
0.00555227
0.00563611
0.00572335
0.00581423
0.00590902
0.00600802
0.00611155
0.00621999
0.00633377
0.00645335
0.00657931
0.00671226
0.00685298
0.00700232
0.0071613
0.00733105
0.00751295
0.00770854
0.00791972
0.00814853
0.00839767
0.00866973
0.00896853
0.00929716
0.00966101
0.0100636
0.0105113
0.0110098
0.0115639
0.0121892
0.0128712
0.0136767
0.0145137
0.0156129
0.0166977
0.0183015
0.0199798
0.0223771
0.0256378
0.0300594
0.0380388
0.0504311
0.0749998
0.115296
0.182551
0.219676
0.229022
0.2223
0.193973
0.144098
0.0992761
0.0670788
0.0477606
0.00809407
0.00815275
0.00821246
0.00827339
0.00833565
0.00839924
0.00846424
0.00853069
0.00859872
0.00866834
0.0087397
0.0088129
0.00888809
0.00896539
0.00904499
0.00912705
0.00921176
0.00929933
0.00939
0.00948404
0.00958175
0.00968347
0.00978959
0.00990055
0.0100169
0.0101391
0.0102679
0.010404
0.0105484
0.010702
0.0108663
0.0110431
0.0112343
0.0114419
0.0116687
0.0119174
0.0121923
0.0124961
0.0128356
0.0132123
0.0136375
0.014109
0.0146437
0.0152364
0.0159135
0.0166688
0.0175402
0.0185852
0.0197509
0.0214102
0.0230496
0.0259779
0.0286473
0.034034
0.040896
0.0533385
0.0744912
0.110429
0.16983
0.219869
0.238927
0.238464
0.222495
0.180251
0.130015
0.0891907
0.0609448
0.043817
0.0344487
0.0137429
0.0137903
0.0138378
0.0138852
0.0139331
0.0139811
0.0140298
0.014079
0.0141292
0.0141801
0.0142323
0.0142856
0.0143404
0.0143968
0.0144551
0.0145155
0.0145783
0.0146436
0.0147118
0.0147834
0.0148586
0.0149381
0.0150223
0.0151119
0.0152076
0.0153101
0.0154204
0.0155397
0.0156694
0.015811
0.0159664
0.0161377
0.0163277
0.0165393
0.0167773
0.0170447
0.0173499
0.0176929
0.0180906
0.0185325
0.0190538
0.0196233
0.0203073
0.0210564
0.0219765
0.0229988
0.0244117
0.0260382
0.0283335
0.0311901
0.0349597
0.0408226
0.0476199
0.062692
0.0820256
0.119231
0.175254
0.227149
0.249392
0.253428
0.241286
0.203828
0.15121
0.106402
0.0733389
0.0512619
0.0378001
0.0302872
0.0264349
0.0222159
0.0222178
0.0222199
0.0222221
0.0222253
0.0222283
0.022232
0.0222356
0.0222399
0.0222443
0.0222494
0.0222548
0.0222612
0.0222684
0.0222767
0.0222864
0.0222978
0.0223112
0.0223278
0.0223478
0.0223718
0.0224002
0.0224336
0.022473
0.0225189
0.0225724
0.0226345
0.0227071
0.0227928
0.0228962
0.023022
0.023176
0.0233646
0.0235937
0.0238722
0.0242025
0.0246031
0.0250599
0.0256242
0.0262319
0.0270277
0.0278321
0.0289749
0.0301301
0.0317435
0.033828
0.0370457
0.0407037
0.0464979
0.0529771
0.0644216
0.0775868
0.103275
0.145032
0.198125
0.243131
0.263189
0.266919
0.253554
0.213176
0.157428
0.111196
0.077715
0.0547866
0.0397672
0.030479
0.0251725
0.0224755
0.021436
0.0338097
0.0337898
0.033765
0.0337362
0.0337042
0.0336701
0.0336341
0.0335969
0.0335586
0.03352
0.0334811
0.0334427
0.0334047
0.0333678
0.0333324
0.0332991
0.0332689
0.0332457
0.0332465
0.0332471
0.033252
0.0332624
0.0332792
0.0333051
0.0333413
0.0333943
0.033469
0.0335793
0.0337327
0.033938
0.0341994
0.034528
0.0349258
0.0354061
0.0359712
0.0366314
0.0374071
0.0382792
0.0393573
0.0404886
0.0420994
0.0435743
0.0462613
0.048209
0.0533495
0.0612276
0.0704887
0.0818131
0.096358
0.116145
0.142812
0.18121
0.226819
0.253185
0.276387
0.275206
0.253516
0.199953
0.141832
0.0994624
0.0709749
0.0512113
0.037686
0.0288044
0.0232274
0.0200088
0.018414
0.0178874
0.0181286
0.0598233
0.059789
0.0597566
0.0597264
0.0596958
0.0596627
0.0596264
0.0595863
0.0595416
0.0594921
0.059437
0.0593766
0.0593101
0.0592378
0.0591593
0.0590742
0.0589837
0.0588861
0.0587839
0.058673
0.0585532
0.0584249
0.0582895
0.058152
0.0580192
0.0579833
0.058059
0.0583063
0.0587133
0.0593018
0.0600411
0.0609852
0.062074
0.0634281
0.064925
0.0668166
0.0688478
0.0715156
0.0742983
0.0781542
0.0820331
0.0877386
0.0932353
0.102033
0.109793
0.117542
0.128513
0.142999
0.162649
0.188019
0.220129
0.251873
0.262208
0.246749
0.197071
0.138087
0.0983266
0.0724349
0.0540953
0.0408453
0.0314336
0.0249668
0.0207173
0.0179035
0.0162514
0.0154573
0.0152764
0.0157447
0.0166516
0.187013
0.187842
0.188654
0.189421
0.190171
0.190875
0.191551
0.192195
0.192788
0.193373
0.193878
0.194394
0.194821
0.195234
0.195604
0.195872
0.196203
0.196291
0.196494
0.196321
0.196028
0.195646
0.195205
0.194979
0.194655
0.193667
0.192915
0.192268
0.191517
0.190584
0.189398
0.187951
0.186186
0.184101
0.181623
0.178742
0.175352
0.171421
0.166811
0.161449
0.155167
0.147815
0.139242
0.129207
0.11754
0.104101
0.0889662
0.072484
0.0559023
0.0444347
0.0453596
0.0555082
0.0602575
0.0582839
0.051184
0.0429856
0.0379715
0.0331363
0.0315636
0.0294717
0.0279014
0.0261386
0.0250168
0.0235388
0.0229996
0.0224818
0.0223509
0.0234227
0.0253866
0.000253775
0.000254262
0.000254747
0.000255215
0.0002558
0.000256411
0.000257124
0.000257877
0.000258476
0.000259151
0.000259795
0.000260662
0.000262639
0.000263782
0.000264269
0.000264507
0.000265252
0.000265726
0.000265749
0.000265832
0.000265849
0.000266303
0.000266506
0.000267097
0.00026777
0.000268217
0.000268772
0.000269015
0.000268728
0.000268971
0.000269666
0.000270554
0.00027111
0.000270226
0.000269688
0.000269039
0.000268781
0.000268314
0.000267746
0.000267462
0.000266762
0.000266589
0.000266179
0.000264839
0.000263955
0.000263011
0.000261772
0.000260548
0.000259329
0.00025869
0.000258348
0.00025811
0.000257778
0.000257389
0.000256815
0.000256264
0.000255714
0.000255178
0.000254661
0.000255585
0.000256056
0.000256515
0.000257018
0.000257553
0.000258051
0.000258583
0.000259105
0.000259731
0.000260549
0.000261578
0.000263202
0.000264243
0.000264734
0.00026496
0.000265315
0.000266119
0.000266258
0.000266282
0.000266318
0.000266548
0.000267055
0.00026711
0.000267915
0.000268487
0.000268781
0.000269358
0.000269584
0.000269266
0.000269459
0.000270198
0.000271046
0.000271813
0.000271012
0.000270416
0.00026973
0.000269418
0.00026905
0.00026848
0.000268121
0.000267522
0.000267264
0.000267013
0.000266318
0.000265239
0.00026445
0.000263424
0.000262316
0.00026127
0.000260073
0.000259374
0.000259019
0.000258722
0.000258441
0.000258161
0.000257819
0.000257445
0.00025706
0.000256674
0.000257898
0.000258274
0.000258665
0.000259081
0.000259516
0.000260004
0.000260592
0.000261312
0.000262233
0.000263335
0.000264467
0.000265326
0.000265746
0.000265982
0.000266338
0.00026705
0.000267365
0.000267396
0.000267325
0.000267488
0.000267931
0.000268215
0.000268474
0.000269277
0.00026966
0.00027005
0.000270594
0.000270835
0.000270481
0.000270624
0.000271415
0.000272196
0.000272824
0.000272293
0.000271793
0.000271131
0.000270751
0.000270422
0.000269886
0.000269547
0.000268968
0.000268606
0.00026839
0.000268016
0.000267234
0.000266447
0.000265613
0.000264653
0.000263697
0.000262731
0.000261674
0.000260903
0.00026041
0.000260027
0.000259741
0.00025949
0.000259252
0.00025901
0.000258778
0.000260709
0.000261074
0.000261493
0.00026197
0.000262531
0.000263195
0.000263972
0.000264845
0.000265766
0.000266611
0.000267239
0.000267618
0.000267875
0.000268299
0.000268823
0.00026915
0.000269264
0.000269215
0.000269238
0.000269593
0.000270035
0.000270295
0.000270629
0.000271317
0.000271636
0.000272071
0.000272573
0.000272818
0.000272453
0.000272569
0.00027338
0.000274097
0.000274743
0.000274387
0.000273886
0.000273289
0.000272847
0.000272514
0.000272032
0.000271707
0.000271207
0.000270739
0.000270487
0.000270231
0.000269804
0.000269118
0.000268401
0.000267624
0.000266786
0.000265968
0.000265086
0.000264229
0.000263511
0.000262917
0.000262445
0.000262068
0.000261768
0.000261512
0.000261301
0.000264684
0.000265137
0.000265664
0.000266243
0.00026689
0.000267582
0.000268295
0.000268979
0.000269578
0.00027004
0.000270376
0.000270682
0.000271085
0.000271501
0.000271771
0.000271915
0.000271948
0.000271926
0.000272054
0.000272561
0.000272899
0.000273152
0.00027358
0.000274099
0.00027439
0.000274898
0.000275337
0.000275577
0.000275206
0.000275308
0.000276122
0.000276778
0.000277442
0.000277211
0.0002768
0.000276214
0.000275793
0.000275448
0.000274969
0.000274644
0.000274262
0.00027373
0.000273406
0.000273188
0.000272921
0.00027253
0.000271946
0.000271296
0.000270581
0.000269866
0.000269142
0.000268404
0.000267703
0.000267062
0.000266498
0.000266009
0.000265597
0.000265244
0.000264954
0.000270145
0.000270604
0.000271113
0.00027163
0.00027217
0.000272693
0.000273188
0.000273625
0.000273997
0.000274322
0.000274643
0.000274993
0.000275283
0.000275496
0.000275632
0.000275685
0.000275636
0.000275632
0.00027608
0.000276478
0.000276785
0.000277086
0.000277505
0.000277868
0.000278173
0.000278723
0.000279103
0.00027934
0.000278964
0.000279063
0.00027987
0.000280471
0.000281156
0.000281012
0.000280698
0.000280208
0.00027971
0.000279374
0.000278986
0.000278634
0.000278296
0.00027789
0.000277402
0.000277131
0.000276917
0.000276683
0.000276373
0.000275947
0.000275398
0.000274788
0.000274161
0.000273523
0.000272897
0.000272297
0.000271742
0.000271235
0.000270785
0.000270383
0.00027004
0.000276805
0.000277173
0.000277576
0.000277969
0.000278364
0.00027873
0.000279064
0.000279363
0.000279637
0.000279888
0.000280104
0.000280292
0.000280438
0.000280543
0.000280572
0.000280525
0.000280515
0.000280851
0.000281258
0.000281594
0.000281883
0.000282174
0.000282481
0.000282773
0.000283148
0.000283671
0.000284009
0.00028424
0.000283855
0.000283957
0.000284758
0.000285307
0.000286008
0.000285951
0.000285694
0.000285329
0.000284892
0.000284495
0.000284123
0.000283785
0.000283481
0.000283167
0.000282795
0.000282399
0.000282111
0.000281885
0.000281677
0.000281447
0.000281162
0.000280796
0.000280347
0.000279854
0.000279342
0.000278827
0.000278329
0.000277852
0.000277416
0.000277007
0.000276656
0.00028485
0.000285119
0.000285413
0.000285667
0.000285915
0.000286102
0.000286307
0.00028645
0.000286604
0.000286733
0.000286854
0.000286955
0.000287016
0.000287037
0.000287019
0.000287036
0.000287262
0.000287594
0.00028792
0.000288202
0.000288452
0.000288681
0.000288898
0.000289208
0.000289633
0.000290094
0.000290416
0.000290636
0.00029024
0.00029035
0.000291142
0.000291646
0.000292367
0.000292379
0.000292184
0.000291878
0.000291527
0.000291168
0.000290812
0.000290476
0.000290179
0.000289908
0.000289627
0.000289322
0.000289021
0.000288752
0.000288524
0.000288327
0.00028814
0.00028794
0.000287715
0.00028744
0.000287121
0.000286762
0.000286393
0.000286014
0.00028565
0.000285288
0.000284972
0.000294552
0.000294655
0.000294791
0.000294877
0.000294973
0.000295058
0.000295145
0.000295222
0.000295296
0.00029536
0.000295412
0.000295438
0.000295436
0.000295402
0.000295421
0.000295533
0.000295786
0.000296077
0.000296355
0.000296586
0.000296771
0.000296932
0.000297108
0.000297396
0.000297815
0.000298253
0.000298555
0.000298752
0.00029835
0.000298468
0.000299248
0.000299714
0.000300444
0.000300544
0.000300415
0.000300177
0.000299893
0.000299594
0.000299284
0.000298981
0.00029871
0.000298473
0.000298241
0.000297998
0.000297756
0.000297528
0.000297322
0.000297142
0.000296993
0.000296855
0.00029672
0.00029658
0.000296435
0.000296258
0.000296086
0.00029587
0.000295656
0.000295408
0.000295198
0.000306189
0.000306224
0.000306256
0.000306283
0.00030631
0.000306335
0.000306358
0.000306377
0.000306387
0.000306385
0.000306328
0.000306264
0.000306216
0.000306216
0.000306271
0.00030643
0.000306663
0.000306904
0.000307106
0.000307251
0.000307356
0.000307454
0.000307601
0.000307881
0.000308296
0.000308717
0.000309005
0.000309174
0.000308765
0.000308892
0.000309659
0.000310098
0.000310831
0.000311012
0.000310948
0.000310772
0.000310552
0.000310319
0.000310072
0.000309821
0.00030959
0.000309393
0.000309215
0.000309039
0.000308861
0.000308689
0.000308531
0.000308392
0.000308278
0.000308183
0.000308101