/*--------------------------------*- C++ -*----------------------------------*\
| =========                 |                                                 |
| \\      /  F ield         | OpenFOAM: The Open Source CFD Toolbox           |
|  \\    /   O peration     | Version:  2312                                  |
|   \\  /    A nd           | Website:  www.openfoam.com                      |
|    \\/     M anipulation  |                                                 |
\*---------------------------------------------------------------------------*/
FoamFile
{
    version     2.0;
    format      ascii;
    arch        "LSB;label=32;scalar=64";
    class       volScalarField;
    location    "100";
    object      k;
}
// * * * * * * * * * * * * * * * * * * * * * * * * * * * * * * * * * * * * * //

dimensions      [0 2 -2 0 0 0 0];

internalField   nonuniform List<scalar> 
76025
(
0.00193846
0.00193582
0.00193317
0.00193065
0.00192781
0.00192555
0.00192292
0.00192075
0.00191805
0.00191571
0.0019131
0.00191066
0.00190796
0.0019055
0.00190292
0.00190075
0.00189807
0.00189622
0.0018935
0.00189154
0.00188939
0.00188759
0.00188547
0.00188383
0.00188201
0.00188045
0.00187943
0.00187788
0.00187707
0.00187606
0.00187492
0.00187407
0.00187375
0.00187253
0.00187263
0.00187262
0.00187363
0.00187498
0.00187679
0.00187957
0.00188196
0.0018867
0.00189115
0.00189772
0.00190604
0.00191472
0.00192583
0.00193991
0.00195907
0.00198315
0.00201609
0.002058
0.00211231
0.00217397
0.0022636
0.00235991
0.00248998
0.00262594
0.0027673
0.00294629
0.00312235
0.00327433
0.00345565
0.00364865
0.00390198
0.00420143
0.00469007
0.00530838
0.00630257
0.0019524
0.00195035
0.00194801
0.00194577
0.00194308
0.00194079
0.00193816
0.00193583
0.00193337
0.00193104
0.0019286
0.00192631
0.00192389
0.0019216
0.00191934
0.00191716
0.00191498
0.00191293
0.0019109
0.00190889
0.00190699
0.00190518
0.0019035
0.00190195
0.00190058
0.0018993
0.0018982
0.00189706
0.00189588
0.0018953
0.00189413
0.00189417
0.00189447
0.00189506
0.00189594
0.00189743
0.00189918
0.00190163
0.00190459
0.00190815
0.00191281
0.00191812
0.00192496
0.00193314
0.00194311
0.0019558
0.00197162
0.00199228
0.00201861
0.00205316
0.00209634
0.00215175
0.00221785
0.00230278
0.00239796
0.00251208
0.00263667
0.00276754
0.00291645
0.00306632
0.00321779
0.00340548
0.0036112
0.0038693
0.00417159
0.00459277
0.00523838
0.00611955
0.00739551
0.00196763
0.00196635
0.00196475
0.00196318
0.00196124
0.00195931
0.00195718
0.00195505
0.00195286
0.00195069
0.0019485
0.00194633
0.00194417
0.00194198
0.00193989
0.00193783
0.00193586
0.00193397
0.00193219
0.00193053
0.00192894
0.00192753
0.00192625
0.00192497
0.0019238
0.00192246
0.00192081
0.00191978
0.00191955
0.00191961
0.00192005
0.00192076
0.00192178
0.00192312
0.00192485
0.00192705
0.00192976
0.00193311
0.00193711
0.00194204
0.00194782
0.00195491
0.00196332
0.00197365
0.00198625
0.00200211
0.00202189
0.00204742
0.00207941
0.00212043
0.00217121
0.00223396
0.00230949
0.00239703
0.00249731
0.00260903
0.00272921
0.00286445
0.00300829
0.00316976
0.00335472
0.00356774
0.00380104
0.00410382
0.00448177
0.00505381
0.00588207
0.00693144
0.00836944
0.00198588
0.00198499
0.00198399
0.00198296
0.0019818
0.00198053
0.00197912
0.00197759
0.00197597
0.00197427
0.00197253
0.00197075
0.00196901
0.00196726
0.00196554
0.00196387
0.00196229
0.00196079
0.00195937
0.00195807
0.00195676
0.00195579
0.00195387
0.00195327
0.0019516
0.00195138
0.00195006
0.00195004
0.00195031
0.00195088
0.00195175
0.00195294
0.00195445
0.00195642
0.00195881
0.00196179
0.00196534
0.00196962
0.00197467
0.00198074
0.00198795
0.00199667
0.00200726
0.00202035
0.00203674
0.00205738
0.00208369
0.00211677
0.00215835
0.00220938
0.00227086
0.00234346
0.00242602
0.00251999
0.00262256
0.00273625
0.00286048
0.0029993
0.00315248
0.00333173
0.00352736
0.00376696
0.00404567
0.00444591
0.00495079
0.00573324
0.00672287
0.0079848
0.00966081
0.00200838
0.00200754
0.00200674
0.00200598
0.00200522
0.00200445
0.00200368
0.00200289
0.00200202
0.00200103
0.00199998
0.00199882
0.00199765
0.00199639
0.00199518
0.00199392
0.00199264
0.00199132
0.00199006
0.0019889
0.00198756
0.00198595
0.00198554
0.0019842
0.00198416
0.00198434
0.00198461
0.00198515
0.00198596
0.00198708
0.00198851
0.0019903
0.00199249
0.00199514
0.00199831
0.00200211
0.00200663
0.00201201
0.00201843
0.0020262
0.00203561
0.00204719
0.00206148
0.00207934
0.00210156
0.00212931
0.00216341
0.00220502
0.00225463
0.00231281
0.00237963
0.00245486
0.00253876
0.00263142
0.00273373
0.00284884
0.00297789
0.00312694
0.0032984
0.00349834
0.003735
0.0040306
0.00440339
0.0049241
0.00559427
0.00657517
0.00771505
0.00920613
0.0109141
0.00203763
0.00203654
0.0020356
0.0020348
0.0020341
0.00203341
0.00203269
0.00203188
0.00203089
0.00203061
0.00202971
0.00202945
0.00202846
0.00202819
0.00202716
0.00202686
0.00202569
0.00202534
0.00202413
0.00202356
0.0020231
0.00202273
0.00202268
0.00202272
0.00202299
0.00202353
0.00202432
0.00202537
0.00202673
0.00202842
0.00203051
0.00203302
0.00203606
0.0020397
0.00204407
0.00204927
0.00205552
0.00206297
0.00207197
0.00208286
0.0020961
0.00211223
0.00213187
0.00215571
0.00218445
0.00221878
0.00225923
0.00230631
0.00236022
0.00242128
0.00248971
0.00256611
0.00265159
0.00274784
0.00285752
0.00298418
0.00313058
0.00330296
0.00350311
0.00374392
0.00403629
0.00440966
0.00489966
0.005569
0.00643302
0.00760596
0.00889732
0.0105621
0.0122431
0.00207528
0.00207412
0.00207312
0.00207227
0.00207152
0.00207087
0.00206998
0.00206941
0.00206837
0.00206789
0.00206684
0.0020664
0.00206603
0.00206564
0.00206495
0.00206508
0.00206515
0.00206531
0.00206548
0.00206573
0.00206599
0.00206635
0.00206688
0.00206761
0.00206858
0.00206981
0.00207136
0.00207326
0.00207555
0.00207829
0.00208159
0.00208547
0.00209012
0.00209556
0.00210205
0.00210964
0.00211865
0.0021292
0.00214171
0.00215652
0.00217405
0.00219475
0.0022191
0.00224761
0.00228068
0.00231888
0.00236242
0.00241198
0.00246773
0.00253073
0.00260167
0.00268226
0.0027746
0.00288113
0.00300552
0.00315087
0.00332154
0.00352354
0.0037637
0.0040603
0.00443259
0.00492212
0.00556993
0.00641834
0.00748899
0.00881644
0.0102322
0.0120143
0.0134929
0.00212104
0.00212002
0.00211886
0.00211809
0.00211693
0.00211656
0.00211554
0.00211529
0.00211441
0.00211411
0.00211428
0.00211442
0.0021145
0.00211465
0.00211487
0.00211525
0.00211577
0.00211644
0.00211727
0.00211825
0.00211936
0.00212063
0.00212209
0.00212377
0.00212574
0.00212802
0.0021307
0.00213379
0.00213742
0.00214163
0.00214656
0.00215223
0.00215884
0.00216643
0.00217524
0.00218533
0.00219704
0.00221041
0.0022259
0.00224378
0.00226445
0.00228824
0.00231558
0.00234691
0.00238262
0.00242335
0.00246945
0.00252201
0.00258151
0.00264985
0.00272804
0.002819
0.00292477
0.00304885
0.00319491
0.00336679
0.00357137
0.00381709
0.00411884
0.00450137
0.00499221
0.00563757
0.00646279
0.00749877
0.00874771
0.0101793
0.0117039
0.0134643
0.0146556
0.00217561
0.00217515
0.00217407
0.00217363
0.00217253
0.0021721
0.00217176
0.0021719
0.00217201
0.00217222
0.00217258
0.00217308
0.00217368
0.0021744
0.00217526
0.00217627
0.00217745
0.00217881
0.00218037
0.00218214
0.00218412
0.00218633
0.00218881
0.00219158
0.00219469
0.0021982
0.00220215
0.0022066
0.00221166
0.00221739
0.00222392
0.00223129
0.0022397
0.00224918
0.00225999
0.00227218
0.0022861
0.00230179
0.0023197
0.00234013
0.00236345
0.00239003
0.00242032
0.00245483
0.00249408
0.0025389
0.00258995
0.00264868
0.00271602
0.00279444
0.00288527
0.00299223
0.00311729
0.00326537
0.00344044
0.00364956
0.00390316
0.00421532
0.0046095
0.00511354
0.00575926
0.00658203
0.00758859
0.0087998
0.010176
0.0116745
0.0132455
0.0148268
0.0157813
0.0022421
0.00224194
0.00224188
0.00224154
0.00224159
0.00224164
0.00224177
0.00224205
0.00224248
0.00224306
0.00224381
0.00224474
0.00224583
0.0022471
0.00224855
0.00225019
0.00225205
0.00225412
0.00225643
0.00225899
0.00226183
0.00226497
0.00226842
0.00227225
0.00227647
0.00228116
0.00228635
0.00229214
0.00229862
0.00230585
0.00231399
0.00232307
0.00233332
0.00234479
0.00235775
0.00237226
0.0023887
0.00240711
0.00242799
0.00245163
0.00247845
0.00250886
0.00254342
0.00258272
0.00262755
0.00267891
0.00273789
0.00280623
0.0028854
0.00297828
0.00308675
0.0032153
0.0033667
0.00354806
0.00376541
0.00403109
0.00435988
0.00477259
0.00529658
0.00595688
0.00678112
0.0077816
0.00895446
0.0102982
0.0117391
0.0132588
0.0147678
0.0160539
0.017092
0.00232315
0.00232365
0.00232419
0.00232472
0.00232533
0.00232599
0.00232674
0.0023276
0.0023286
0.00232974
0.00233107
0.00233258
0.00233429
0.00233621
0.00233835
0.00234072
0.00234334
0.00234624
0.00234942
0.00235291
0.00235675
0.00236095
0.00236556
0.00237061
0.00237617
0.00238226
0.00238898
0.00239641
0.00240467
0.00241382
0.00242402
0.00243534
0.00244799
0.00246205
0.0024778
0.00249531
0.00251497
0.00253684
0.00256144
0.00258911
0.00262034
0.00265564
0.00269574
0.00274143
0.00279383
0.0028542
0.00292418
0.00300582
0.00310139
0.00321422
0.00334747
0.00350682
0.00369738
0.00392947
0.00421287
0.00456554
0.00500514
0.00555608
0.00624045
0.00707573
0.00807505
0.00922943
0.01053
0.0119402
0.0133858
0.0148636
0.0161722
0.0172457
0.0187709
0.00242326
0.00242434
0.00242549
0.00242674
0.00242807
0.00242951
0.00243106
0.00243274
0.00243456
0.00243654
0.0024387
0.00244107
0.00244366
0.0024465
0.00244959
0.00245295
0.00245662
0.00246061
0.00246496
0.00246969
0.00247485
0.00248046
0.00248659
0.00249327
0.00250057
0.00250852
0.00251727
0.00252687
0.00253744
0.00254906
0.00256187
0.00257596
0.00259152
0.00260867
0.00262764
0.00264859
0.00267187
0.00269766
0.00272651
0.00275887
0.00279544
0.00283689
0.00288429
0.00293868
0.0030017
0.00307495
0.00316087
0.00326198
0.00338188
0.00352478
0.00369622
0.0039038
0.00415645
0.00446769
0.0048513
0.00532757
0.00591303
0.00662826
0.00748333
0.00848566
0.00962947
0.0108954
0.0122625
0.0136652
0.0150599
0.0163963
0.017436
0.0186649
0.0214661
0.00254876
0.0025504
0.00255218
0.00255412
0.00255624
0.00255853
0.002561
0.00256367
0.00256653
0.0025696
0.00257289
0.00257643
0.00258023
0.00258432
0.0025887
0.00259341
0.00259847
0.00260391
0.00260977
0.00261609
0.00262291
0.00263029
0.00263826
0.0026469
0.00265624
0.00266641
0.00267748
0.00268954
0.00270269
0.00271701
0.00273265
0.00274972
0.00276841
0.00278887
0.00281139
0.00283619
0.00286372
0.00289432
0.00292866
0.00296745
0.00301165
0.00306227
0.0031208
0.00318875
0.00326842
0.00336208
0.00347331
0.00360561
0.00376462
0.00395613
0.00418901
0.00447284
0.00482054
0.00524647
0.00576571
0.00639464
0.00714384
0.00802367
0.00903208
0.0101656
0.0114032
0.0127214
0.0140776
0.0154062
0.0166835
0.0177772
0.0187177
0.0207792
0.0259953
0.00270829
0.00271061
0.00271312
0.00271587
0.00271887
0.00272213
0.00272566
0.00272947
0.00273356
0.00273795
0.00274264
0.00274765
0.00275298
0.00275866
0.00276471
0.00277114
0.00277797
0.00278524
0.00279299
0.00280125
0.00281008
0.0028195
0.00282961
0.00284044
0.0028521
0.00286468
0.00287827
0.00289297
0.00290889
0.00292616
0.00294493
0.00296541
0.00298782
0.00301244
0.00303966
0.00306989
0.0031037
0.00314176
0.00318493
0.00323432
0.00329127
0.00335734
0.0034346
0.00352541
0.00363297
0.0037608
0.00391399
0.00409779
0.00432018
0.00458883
0.00491535
0.00530982
0.00578649
0.00635598
0.00703038
0.00781691
0.0087183
0.00973395
0.0108529
0.0120611
0.0133294
0.0146266
0.0158946
0.0170941
0.0181679
0.019066
0.0204989
0.0242943
0.0341603
0.00291341
0.0029167
0.00292023
0.00292405
0.00292819
0.00293267
0.00293751
0.00294271
0.00294829
0.00295428
0.00296067
0.00296747
0.0029747
0.00298238
0.00299051
0.00299912
0.00300823
0.00301786
0.00302804
0.00303882
0.00305023
0.00306235
0.00307522
0.00308895
0.00310364
0.0031194
0.00313633
0.00315459
0.00317434
0.0031958
0.00321921
0.0032449
0.00327323
0.00330469
0.00333984
0.00337942
0.00342424
0.00347542
0.00353417
0.0036022
0.00368147
0.00377439
0.00388392
0.00401367
0.0041681
0.00435242
0.00457322
0.00483761
0.00515476
0.00553316
0.00598409
0.00651525
0.00713786
0.00785536
0.00867476
0.00959298
0.0106073
0.0117081
0.0128774
0.014093
0.0153205
0.0165189
0.0176371
0.0186543
0.0194918
0.0207268
0.0233173
0.030755
0.0485858
0.00318096
0.00318574
0.0031908
0.00319621
0.00320201
0.00320822
0.00321486
0.00322196
0.00322954
0.00323762
0.00324622
0.00325536
0.00326506
0.00327533
0.0032862
0.00329769
0.00330984
0.00332267
0.00333623
0.00335058
0.00336576
0.00338186
0.00339901
0.00341729
0.00343685
0.00345784
0.00348045
0.00350491
0.0035315
0.00356057
0.00359253
0.00362792
0.00366734
0.00371159
0.00376156
0.00381842
0.00388347
0.00395844
0.00404518
0.0041462
0.00426437
0.00440319
0.00456672
0.00475983
0.00498803
0.00525772
0.00557583
0.00594984
0.00638744
0.00689568
0.00748177
0.00814943
0.00890423
0.00974313
0.0106688
0.0116697
0.0127408
0.0138632
0.0150136
0.0161645
0.0172769
0.0183112
0.0192366
0.0200517
0.0209735
0.0233223
0.0287014
0.0430389
0.0644087
0.00353631
0.00354322
0.0035505
0.00355823
0.00356646
0.0035752
0.0035845
0.00359437
0.00360485
0.00361598
0.00362779
0.00364031
0.00365357
0.00366761
0.00368248
0.00369823
0.00371491
0.00373259
0.00375136
0.00377131
0.00379259
0.00381534
0.00383971
0.0038659
0.00389413
0.00392469
0.00395788
0.00399412
0.00403388
0.00407774
0.00412639
0.00418068
0.00424159
0.00431034
0.00438834
0.0044773
0.00457921
0.00469641
0.00483166
0.00498809
0.00516942
0.00537984
0.00562396
0.00590696
0.00623419
0.00661146
0.0070442
0.00753805
0.00809734
0.00872628
0.00942703
0.0102004
0.0110462
0.0119583
0.0129351
0.0139582
0.0150218
0.0160946
0.0171534
0.0181693
0.0191025
0.0199358
0.0206535
0.0215726
0.0232785
0.0282315
0.0394696
0.0617329
0.0744043
0.00402144
0.00403181
0.0040427
0.00405419
0.00406635
0.0040792
0.00409278
0.00410715
0.00412235
0.00413843
0.00415546
0.0041735
0.00419262
0.0042129
0.00423444
0.00425737
0.00428177
0.00430787
0.00433584
0.0043659
0.00439827
0.00443324
0.00447112
0.00451229
0.00455716
0.00460622
0.00466004
0.00471928
0.00478468
0.00485714
0.00493769
0.00502751
0.00512799
0.00524072
0.00536754
0.00551055
0.00567215
0.00585502
0.00606216
0.00629691
0.00656277
0.00686366
0.00720362
0.00758671
0.00801699
0.00849827
0.00903388
0.00962684
0.0102786
0.010991
0.0117624
0.0125921
0.0134747
0.0144027
0.015368
0.0163472
0.0173329
0.0182815
0.0191829
0.0200065
0.0207231
0.0213738
0.0221225
0.0239818
0.0278947
0.0382573
0.0592872
0.0736716
0.0779092
0.00470565
0.00472181
0.00473882
0.00475683
0.00477591
0.00479612
0.00481755
0.00484029
0.00486445
0.00489012
0.00491743
0.00494652
0.00497753
0.00501067
0.00504616
0.00508423
0.00512512
0.00516914
0.00521661
0.0052679
0.00532342
0.00538361
0.005449
0.00552012
0.00559758
0.00568207
0.00577432
0.00587516
0.00598548
0.00610632
0.00623881
0.00638423
0.00654399
0.00671971
0.00691318
0.00712639
0.00736153
0.00762101
0.00790742
0.00822346
0.00857204
0.00895599
0.00937822
0.00984154
0.0103487
0.0109016
0.0115022
0.0121512
0.0128489
0.0135944
0.0143839
0.0152144
0.0160747
0.0169559
0.0178407
0.0187056
0.0195403
0.0202997
0.0209981
0.0216014
0.022128
0.0229407
0.0245068
0.0287971
0.0380678
0.0582982
0.0732004
0.0781152
0.0772148
0.00573902
0.00576805
0.00579874
0.00583131
0.00586591
0.00590268
0.00594175
0.00598333
0.00602764
0.00607486
0.0061252
0.00617889
0.00623615
0.00629725
0.00636244
0.00643201
0.00650628
0.00658558
0.00667027
0.00676075
0.00685744
0.00696078
0.00707128
0.00718944
0.00731583
0.00745105
0.00759576
0.00775067
0.00791655
0.00809428
0.00828481
0.00848922
0.00870871
0.00894464
0.0091985
0.00947196
0.00976683
0.0100851
0.0104287
0.0108
0.011201
0.011634
0.012101
0.0126037
0.0131438
0.0137221
0.0143397
0.0149952
0.0156877
0.0164132
0.0171654
0.0179362
0.0187085
0.0194726
0.0202023
0.0208854
0.021507
0.0220424
0.0225282
0.0229849
0.0237109
0.0256995
0.0299032
0.0395261
0.0592407
0.0732938
0.0783381
0.0777001
0.0721425
0.00746627
0.00752348
0.00758369
0.00764715
0.007714
0.00778434
0.00785827
0.00793594
0.00801748
0.00810302
0.0081927
0.00828667
0.00838511
0.00848813
0.00859592
0.00870864
0.0088265
0.00894973
0.00907855
0.00921325
0.00935411
0.00950146
0.00965565
0.00981707
0.00998614
0.0101633
0.0103491
0.0105441
0.0107489
0.0109643
0.0111911
0.01143
0.0116823
0.011949
0.0122314
0.012531
0.0128492
0.0131878
0.0135485
0.013933
0.0143431
0.0147804
0.0152462
0.0157417
0.0162674
0.0168229
0.0174081
0.0180191
0.0186541
0.0193023
0.019954
0.020594
0.0212033
0.0217762
0.0222844
0.0227409
0.0231165
0.0234712
0.0238638
0.0248553
0.0268593
0.0321761
0.043051
0.062163
0.0738563
0.0784758
0.077604
0.0719191
0.0627698
0.0105628
0.010652
0.0107438
0.0108384
0.010936
0.0110365
0.0111401
0.0112467
0.0113566
0.0114698
0.0115863
0.0117064
0.0118301
0.0119575
0.0120888
0.0122241
0.0123636
0.0125074
0.0126557
0.0128086
0.0129664
0.0131293
0.0132975
0.0134713
0.013651
0.013837
0.0140295
0.0142292
0.0144364
0.0146517
0.0148759
0.0151097
0.015354
0.0156099
0.0158786
0.0161613
0.0164593
0.0167742
0.0171073
0.01746
0.0178339
0.0182298
0.0186486
0.0190903
0.0195547
0.0200397
0.0205414
0.0210554
0.0215736
0.0220745
0.0225475
0.0229745
0.0233491
0.0236754
0.0239288
0.0241679
0.0243749
0.0249375
0.0260447
0.0290988
0.0353012
0.0486678
0.0655505
0.0743602
0.0780751
0.0764999
0.0701368
0.060937
0.0537297
0.015283
0.0153767
0.0154716
0.0155681
0.0156661
0.0157659
0.0158675
0.0159712
0.0160769
0.0161849
0.0162951
0.0164076
0.0165226
0.0166401
0.0167601
0.0168828
0.0170082
0.0171363
0.0172673
0.0174013
0.0175384
0.0176787
0.0178223
0.0179696
0.0181205
0.0182754
0.0184346
0.0185983
0.0187671
0.0189413
0.0191217
0.0193088
0.0195035
0.0197067
0.0199193
0.0201426
0.0203777
0.020626
0.0208888
0.0211672
0.021463
0.021774
0.0221026
0.0224466
0.0228044
0.023169
0.0235307
0.0238907
0.0242138
0.0244698
0.0246722
0.0248174
0.0249259
0.0250078
0.0250785
0.0254064
0.0260572
0.0281561
0.0322934
0.0412339
0.0564693
0.0692666
0.0749026
0.076814
0.0741159
0.0665796
0.0575742
0.0504386
0.0463036
0.0213277
0.0213959
0.0214638
0.0215319
0.0216001
0.0216685
0.021737
0.0218059
0.021875
0.0219443
0.0220139
0.022084
0.0221545
0.0222255
0.0222972
0.0223695
0.0224426
0.0225165
0.0225912
0.0226668
0.0227434
0.022821
0.0228998
0.0229799
0.0230613
0.0231443
0.0232291
0.0233157
0.0234048
0.0234968
0.0235928
0.0236935
0.0237996
0.023912
0.0240316
0.0241597
0.0242974
0.0244461
0.0246065
0.0247793
0.0249644
0.025149
0.025355
0.0255612
0.0257694
0.0259511
0.0261143
0.0261275
0.0260746
0.0260361
0.0259427
0.0258717
0.0258468
0.0259852
0.0265406
0.028062
0.0313827
0.0384677
0.0503807
0.0644128
0.0714512
0.0756495
0.0748556
0.0699881
0.0610664
0.0524904
0.0459482
0.0420253
0.0403711
0.0279456
0.0279633
0.0279781
0.0279909
0.0280012
0.02801
0.0280164
0.0280218
0.0280224
0.0280219
0.0280193
0.0280156
0.0280104
0.0280042
0.0279969
0.0279884
0.0279789
0.0279684
0.027957
0.0279447
0.0279316
0.0279179
0.0279036
0.0278889
0.0278741
0.0278592
0.0278445
0.027831
0.0278208
0.0278188
0.0278178
0.027819
0.0278223
0.0278286
0.0278396
0.0278571
0.0278823
0.0279162
0.0279561
0.0280054
0.0280315
0.028028
0.0279807
0.0279281
0.0277723
0.0276013
0.0273842
0.0271064
0.0269019
0.0267142
0.0265655
0.0266773
0.0272014
0.0288256
0.031806
0.0385268
0.0486188
0.0613871
0.068275
0.073296
0.0731475
0.0697094
0.0617656
0.0531822
0.0456882
0.0401876
0.0368958
0.0354465
0.0351805
0.0342564
0.0342051
0.0341246
0.0340715
0.033986
0.0339296
0.0338383
0.0337773
0.0336798
0.0336131
0.0335095
0.0334351
0.0333356
0.03325
0.033155
0.0330569
0.0329557
0.0328514
0.032744
0.0326335
0.0325199
0.0324031
0.0322833
0.0321605
0.0320348
0.031906
0.031774
0.0316393
0.0315048
0.0313716
0.0312408
0.0311138
0.030991
0.0308724
0.0307538
0.0306332
0.0305005
0.0303534
0.0301743
0.0299656
0.0297098
0.0294198
0.0290908
0.028759
0.0283607
0.0279613
0.0276713
0.0273336
0.0273055
0.0275382
0.0282586
0.0300365
0.0335613
0.0408079
0.0497278
0.0599564
0.0653236
0.0704561
0.0702556
0.0668528
0.0591044
0.0508453
0.0434992
0.0376532
0.033509
0.0310444
0.0299217
0.0296642
0.0300715
0.0377639
0.0376565
0.0375417
0.0374222
0.0372964
0.0371676
0.0370334
0.0368966
0.0367547
0.0366105
0.0364616
0.0363103
0.0361551
0.0359972
0.0358363
0.0356723
0.0355055
0.0353355
0.0351624
0.0349862
0.0348069
0.0346247
0.0344399
0.0342528
0.0340646
0.0338758
0.033689
0.0335037
0.0333173
0.0331292
0.0329382
0.0327419
0.0325379
0.0323192
0.0320713
0.0317948
0.0314695
0.0311118
0.0306929
0.0302635
0.0297992
0.0293226
0.0288122
0.0283512
0.0279647
0.0279314
0.0281403
0.028851
0.0303732
0.032896
0.0371161
0.0431737
0.0510816
0.0569392
0.0627337
0.0664008
0.0653404
0.0603392
0.0522823
0.0447491
0.038259
0.0330299
0.0291039
0.0263701
0.0247293
0.0239344
0.0236881
0.0239167
0.0246189
0.0373275
0.0371956
0.0370619
0.0369274
0.0367907
0.0366506
0.0365067
0.0363587
0.0362061
0.0360489
0.0358864
0.0357187
0.0355453
0.0353662
0.0351811
0.0349894
0.0347917
0.0345864
0.0343744
0.0341542
0.0339257
0.0336882
0.0334412
0.0331838
0.0329168
0.0326371
0.0323397
0.0320252
0.0316919
0.0313401
0.0309662
0.0305749
0.0301601
0.0297381
0.0293075
0.0288971
0.0284917
0.0281484
0.0278212
0.02762
0.0274183
0.0274658
0.0276621
0.0280614
0.0288185
0.029991
0.0317824
0.0341537
0.0374407
0.0415158
0.046882
0.0521178
0.0560373
0.0552576
0.0506091
0.0432721
0.0364217
0.0313679
0.0277825
0.0249479
0.0224723
0.0204474
0.0189152
0.0179523
0.0173923
0.0171172
0.0170633
0.0173403
0.0180501
0.0279785
0.0280764
0.0281736
0.0282677
0.0283607
0.0284509
0.0285387
0.028625
0.0287068
0.0287891
0.0288649
0.0289415
0.0290126
0.0290806
0.0291484
0.0292051
0.0292686
0.0293128
0.0293651
0.0293848
0.0293914
0.0294109
0.0293908
0.0293785
0.0293781
0.0293725
0.0293411
0.0293101
0.0292729
0.0292224
0.0291494
0.0290508
0.0289193
0.0287536
0.0285453
0.0282923
0.0279829
0.0276121
0.0271634
0.0266263
0.0259784
0.0251974
0.0242581
0.0231203
0.0217461
0.0200905
0.0181232
0.0158342
0.0133371
0.0114736
0.0116714
0.0133792
0.0141472
0.0138562
0.0127257
0.0114353
0.0102782
0.00977059
0.00918186
0.00893005
0.00858067
0.0082997
0.00794576
0.00779378
0.0076304
0.00753276
0.00751699
0.00776605
0.00820335
0.00193391
0.00193568
0.00193727
0.00193874
0.0019409
0.00194286
0.00194511
0.00194677
0.00194816
0.00194954
0.00195102
0.00195409
0.00196036
0.00196361
0.00196464
0.00196382
0.00196764
0.00197
0.0019712
0.00197189
0.00197317
0.00197568
0.00197625
0.00197928
0.00198245
0.00198492
0.00198986
0.00199288
0.00199314
0.0019942
0.00199519
0.00199875
0.00200147
0.00199887
0.00199747
0.00199518
0.00199424
0.00199327
0.00199068
0.00198952
0.00198582
0.0019852
0.00198384
0.00197879
0.00197575
0.0019717
0.00196703
0.0019622
0.00195807
0.00195553
0.00195388
0.00195333
0.00195246
0.00195105
0.00194901
0.00194696
0.0019449
0.00194275
0.00194073
0.00194593
0.0019475
0.00194887
0.00195037
0.00195188
0.00195311
0.00195435
0.00195546
0.00195729
0.00195988
0.00196344
0.00196791
0.00197031
0.00197121
0.0019715
0.00197283
0.0019769
0.00197813
0.00197871
0.00197932
0.00198136
0.00198293
0.00198377
0.00198742
0.00198983
0.00199236
0.0019974
0.00200022
0.00200016
0.00200094
0.00200237
0.00200565
0.00200823
0.00200614
0.002005
0.00200307
0.00200174
0.00200082
0.001999
0.00199745
0.00199445
0.00199313
0.001992
0.00198931
0.00198569
0.00198266
0.00197872
0.00197451
0.0019702
0.00196678
0.00196396
0.00196223
0.00196116
0.00196013
0.00195923
0.00195807
0.0019568
0.00195549
0.00195412
0.00196011
0.00196122
0.00196233
0.00196349
0.00196464
0.00196595
0.00196763
0.00196981
0.00197277
0.00197602
0.00197883
0.00198058
0.00198139
0.00198197
0.00198328
0.00198631
0.00198807
0.00198861
0.00198895
0.00199021
0.0019923
0.00199358
0.00199477
0.00199821
0.00200014
0.002003
0.00200789
0.00201058
0.0020103
0.00201088
0.0020127
0.00201565
0.00201811
0.00201663
0.00201546
0.002014
0.00201228
0.00201128
0.00201003
0.00200863
0.00200614
0.00200426
0.00200318
0.00200163
0.00199884
0.00199605
0.0019929
0.00198955
0.00198582
0.00198227
0.00197912
0.00197647
0.00197467
0.0019732
0.00197212
0.0019712
0.00197034
0.00196951
0.00196872
0.00197761
0.00197864
0.00197985
0.00198118
0.00198278
0.00198471
0.001987
0.00198955
0.00199212
0.00199387
0.00199526
0.00199599
0.00199677
0.00199834
0.0020005
0.00200203
0.00200277
0.00200288
0.00200327
0.0020054
0.00200703
0.00200818
0.00200973
0.00201261
0.00201431
0.00201756
0.00202218
0.00202471
0.00202426
0.00202476
0.00202681
0.00202941
0.00203186
0.00203087
0.00202985
0.0020287
0.0020272
0.00202584
0.00202464
0.0020235
0.00202188
0.0020195
0.00201829
0.0020172
0.00201563
0.00201346
0.00201071
0.00200786
0.00200478
0.0020016
0.00199864
0.00199587
0.0019936
0.00199172
0.00199023
0.00198906
0.00198812
0.00198733
0.00198669
0.00200025
0.00200152
0.00200305
0.00200472
0.00200663
0.00200868
0.00201074
0.00201256
0.00201376
0.00201481
0.00201558
0.00201642
0.00201772
0.00201907
0.00202013
0.00202082
0.00202092
0.00202089
0.00202253
0.00202427
0.00202564
0.00202687
0.00202864
0.00203075
0.00203241
0.00203609
0.00204039
0.00204274
0.0020422
0.00204265
0.00204483
0.0020471
0.00204961
0.002049
0.00204815
0.00204722
0.00204605
0.00204473
0.00204342
0.00204226
0.00204104
0.00203937
0.00203743
0.00203632
0.00203527
0.00203405
0.00203247
0.00203034
0.0020279
0.00202515
0.00202242
0.00201979
0.00201741
0.00201534
0.00201359
0.00201213
0.00201095
0.00200999
0.00200924
0.00203007
0.00203144
0.00203302
0.00203459
0.00203619
0.00203751
0.00203862
0.00203923
0.00204022
0.00204067
0.00204166
0.00204234
0.0020433
0.00204401
0.0020446
0.0020448
0.00204486
0.00204576
0.00204723
0.00204864
0.00204986
0.00205111
0.00205261
0.0020542
0.002056
0.00206005
0.00206386
0.00206604
0.00206542
0.00206587
0.00206812
0.0020701
0.00207267
0.00207242
0.00207177
0.00207108
0.00207019
0.00206906
0.00206788
0.00206678
0.00206574
0.00206453
0.00206303
0.00206152
0.00206032
0.00205928
0.00205827
0.00205715
0.00205578
0.00205408
0.00205203
0.00204985
0.00204767
0.00204564
0.00204381
0.00204221
0.00204083
0.00203967
0.00203874
0.00206718
0.00206816
0.00206911
0.00206996
0.00207055
0.00207103
0.00207151
0.00207186
0.00207232
0.00207275
0.00207329
0.00207384
0.00207435
0.00207468
0.00207482
0.00207487
0.00207518
0.00207618
0.00207744
0.00207867
0.00207975
0.00208079
0.00208188
0.00208331
0.00208533
0.00208968
0.002093
0.00209503
0.00209435
0.00209482
0.00209711
0.00209884
0.00210146
0.00210151
0.00210105
0.00210053
0.00209988
0.002099
0.00209797
0.00209699
0.00209612
0.00209518
0.00209408
0.00209291
0.00209178
0.00209077
0.00208987
0.00208906
0.00208826
0.00208737
0.00208637
0.0020852
0.00208383
0.00208238
0.00208093
0.00207957
0.00207836
0.00207727
0.0020764
0.00211057
0.0021109
0.00211116
0.0021114
0.00211158
0.00211173
0.00211186
0.002112
0.00211219
0.00211242
0.00211269
0.00211295
0.00211315
0.00211322
0.0021132
0.00211334
0.0021137
0.0021147
0.00211587
0.00211694
0.00211777
0.00211847
0.00211911
0.00212033
0.00212296
0.00212712
0.00212993
0.00213184
0.00213112
0.00213163
0.00213392
0.00213543
0.00213806
0.00213846
0.00213827
0.00213798
0.00213763
0.00213708
0.00213629
0.00213547
0.00213476
0.00213406
0.00213325
0.00213235
0.00213145
0.00213064
0.00212994
0.00212933
0.00212879
0.00212825
0.00212768
0.00212709
0.00212647
0.00212573
0.00212507
0.00212413
0.00212343
0.00212266
0.00212203
0.00216221
0.00216225
0.00216221
0.00216216
0.00216206
0.00216184
0.00216173
0.00216163
0.00216159
0.00216157
0.0021617
0.00216159
0.00216128
0.00216085
0.00216064
0.00216069
0.00216115
0.00216198
0.00216281
0.00216343
0.00216381
0.00216408
0.00216441
0.00216607
0.00216918
0.0021727
0.00217529
0.00217706
0.00217632
0.00217684
0.00217913
0.00218047
0.00218306
0.00218381
0.0021838
0.0021837
0.00218357
0.00218333
0.00218289
0.00218234
0.00218185
0.00218143
0.00218098
0.00218045
0.0021799
0.00217938
0.00217895
0.00217861
0.00217837
0.0021782
0.00217805
0.0021779
0.00217774
0.00217755
0.00217733
0.00217706
0.00217678
0.00217651
0.00217627
0.00222664
0.00222633
0.00222589
0.00222557
0.00222514
0.00222479
0.00222441
0.00222407
0.00222368
0.00222324
0.0022227
0.00222203
0.0022213
0.0022207
0.00222049
0.00222052
0.0022209
0.00222146
0.00222191
0.00222215
0.00222217
0.0022221
0.00222244
0.00222418
0.00222718
0.00223031
0.00223265
0.0022342
0.00223345
0.00223398
0.00223624
0.00223746
0.00223997
0.00224112
0.00224148
0.00224169
0.0022419
0.00224204
0.00224195
0.00224172
0.00224149
0.00224133
0.00224118
0.002241
0.00224079
0.00224059
0.00224046
0.0022404
0.00224035
0.00224037
0.00224047
0.00224064
0.00224085
0.00224109
0.00224133
0.00224156
0.00224181
0.002242
0.00224225
0.00230653
0.00230566
0.00230498
0.00230421
0.00230342
0.00230262
0.00230174
0.00230082
0.0022998
0.0022987
0.00229753
0.00229639
0.00229539
0.0022947
0.00229436
0.00229422
0.00229425
0.00229426
0.00229414
0.00229365
0.00229308
0.00229274
0.0022932
0.00229495
0.0022978
0.00230071
0.0023029
0.00230425
0.00230348
0.00230401
0.00230624
0.0023074
0.00230979
0.00231119
0.00231182
0.00231223
0.00231271
0.00231329
0.00231373
0.002314
0.00231419
0.00231444
0.00231476
0.00231511
0.00231543
0.00231571
0.00231599
0.00231632
0.00231669
0.00231709
0.00231755
0.00231806
0.00231862
0.00231922
0.00231987
0.00232051
0.00232122
0.00232183
0.00232269
0.00240612
0.00240472
0.00240356
0.0024022
0.00240085
0.0023994
0.00239789
0.00239632
0.00239471
0.00239311
0.00239159
0.00239025
0.00238919
0.00238845
0.00238794
0.0023875
0.00238708
0.0023865
0.00238565
0.00238458
0.00238359
0.00238313
0.00238365
0.00238532
0.00238786
0.00239039
0.00239224
0.00239328
0.00239248
0.00239299
0.00239517
0.00239632
0.00239859
0.00240037
0.00240154
0.00240241
0.00240327
0.00240425
0.00240516
0.0024059
0.00240649
0.00240705
0.0024077
0.00240843
0.00240921
0.00241
0.00241077
0.00241155
0.00241236
0.00241319
0.00241406
0.00241495
0.00241588
0.00241685
0.00241787
0.00241889
0.00242002
0.00242102
0.00242236
0.00253045
0.00252835
0.00252654
0.00252447
0.00252243
0.00252029
0.00251814
0.00251598
0.00251386
0.00251185
0.00251
0.00250837
0.00250696
0.00250572
0.00250451
0.00250323
0.0025018
0.00250011
0.00249817
0.00249622
0.0024946
0.00249395
0.00249447
0.00249601
0.00249832
0.00250061
0.00250229
0.00250309
0.00250226
0.00250273
0.00250486
0.00250606
0.00250818
0.00251003