/*--------------------------------*- C++ -*----------------------------------*\
| =========                 |                                                 |
| \\      /  F ield         | OpenFOAM: The Open Source CFD Toolbox           |
|  \\    /   O peration     | Version:  2312                                  |
|   \\  /    A nd           | Website:  www.openfoam.com                      |
|    \\/     M anipulation  |                                                 |
\*---------------------------------------------------------------------------*/
FoamFile
{
    version     2.0;
    format      ascii;
    arch        "LSB;label=32;scalar=64";
    class       volScalarField;
    location    "100";
    object      nut;
}
// * * * * * * * * * * * * * * * * * * * * * * * * * * * * * * * * * * * * * //

dimensions      [0 2 -1 0 0 0 0];

internalField   nonuniform List<scalar> 
76025
(
0.00133111
0.00133103
0.00133099
0.00133092
0.00133081
0.00133104
0.00133124
0.00133166
0.00133188
0.00133231
0.00133276
0.00133316
0.00133357
0.00133397
0.00133446
0.00133502
0.00133542
0.00133635
0.00133698
0.00133796
0.00133892
0.00134019
0.0013413
0.00134277
0.00134437
0.00134605
0.00134823
0.00135017
0.00135275
0.00135509
0.00135778
0.00136023
0.00136337
0.00136507
0.00136827
0.00137162
0.00137517
0.00137944
0.00138344
0.00138876
0.00139276
0.00139917
0.0014044
0.00141168
0.001422
0.00143101
0.00144319
0.00145446
0.00147283
0.00148934
0.0015165
0.00153765
0.00158173
0.00160533
0.00167643
0.00168637
0.00176808
0.00173953
0.00186295
0.0019005
0.00194433
0.00186901
0.00191345
0.00191742
0.00203677
0.00211527
0.00233977
0.00249674
0.00288317
0.00133914
0.00133932
0.00133949
0.00133965
0.0013397
0.00133986
0.00133998
0.00134021
0.0013405
0.00134081
0.00134122
0.00134165
0.00134215
0.0013427
0.00134333
0.00134406
0.00134476
0.00134564
0.00134652
0.00134753
0.00134861
0.00134983
0.00135116
0.00135268
0.00135427
0.00135617
0.00135804
0.00135992
0.00136161
0.00136401
0.00136531
0.00136847
0.0013715
0.00137502
0.00137848
0.0013826
0.00138675
0.00139133
0.00139639
0.00140178
0.00140751
0.00141437
0.00142129
0.00143075
0.00143922
0.00145212
0.00146442
0.00148289
0.00150415
0.00153069
0.00156432
0.00160263
0.00164212
0.00169478
0.00172745
0.00177643
0.00181055
0.00184534
0.00188736
0.00183621
0.00184506
0.00183531
0.00193163
0.00198321
0.00214037
0.00224139
0.00251302
0.0027279
0.0030344
0.00134814
0.00134837
0.00134863
0.00134895
0.00134923
0.00134955
0.00134986
0.00135018
0.00135057
0.00135097
0.00135146
0.00135197
0.00135254
0.00135313
0.00135381
0.00135457
0.00135538
0.00135633
0.00135735
0.00135856
0.0013598
0.00136131
0.0013629
0.00136447
0.00136604
0.00136734
0.00136808
0.00136961
0.00137211
0.00137489
0.00137794
0.00138124
0.00138468
0.00138834
0.00139222
0.00139634
0.00140092
0.00140559
0.00141105
0.00141661
0.00142332
0.00143015
0.00143881
0.0014477
0.00145956
0.00147254
0.00148968
0.00151013
0.00153512
0.00156505
0.00160084
0.00163569
0.00168388
0.00171275
0.00176364
0.00178264
0.00181844
0.00181721
0.00182506
0.00181613
0.00187591
0.00190832
0.0020139
0.00207703
0.00225104
0.00236772
0.00271052
0.00286126
0.00313607
0.00135965
0.00135988
0.00136013
0.00136044
0.00136078
0.00136116
0.00136157
0.00136199
0.00136248
0.00136299
0.00136359
0.00136423
0.00136499
0.00136582
0.00136673
0.00136774
0.00136885
0.00137007
0.00137136
0.0013728
0.00137416
0.00137595
0.00137629
0.00137844
0.00137893
0.00138137
0.00138209
0.00138451
0.00138715
0.00138998
0.00139306
0.0013962
0.00139963
0.0014034
0.00140743
0.00141176
0.00141639
0.0014215
0.001427
0.00143329
0.00144016
0.00144835
0.00145759
0.00146917
0.0014828
0.00150019
0.001521
0.00154685
0.00157636
0.00161191
0.00164682
0.00168916
0.0017209
0.00175923
0.00178155
0.0017999
0.00181302
0.00181161
0.0018354
0.00185342
0.00191188
0.0019561
0.00207214
0.00217457
0.00239156
0.00254733
0.00289682
0.00300795
0.00324244
0.0013718
0.00137235
0.00137287
0.00137337
0.00137387
0.00137441
0.00137502
0.00137571
0.00137644
0.00137715
0.00137792
0.00137868
0.00137954
0.0013804
0.00138139
0.00138238
0.0013834
0.00138436
0.0013854
0.00138653
0.0013874
0.00138778
0.00138978
0.00139037
0.00139267
0.00139514
0.00139757
0.0014002
0.00140301
0.00140596
0.00140903
0.00141279
0.00141662
0.00142048
0.00142468
0.0014292
0.00143416
0.00143964
0.00144584
0.00145303
0.0014615
0.00147164
0.00148399
0.00149903
0.00151737
0.00153934
0.00156524
0.00159437
0.00162686
0.00165946
0.0016935
0.00172239
0.00174939
0.00176883
0.00178192
0.00179329
0.00180091
0.00181651
0.00184807
0.00188435
0.00196054
0.00204503
0.0021891
0.00233672
0.00258397
0.00273521
0.00306241
0.00311453
0.00332535
0.00138579
0.00138643
0.00138711
0.00138785
0.0013886
0.00138927
0.00138983
0.00139025
0.00139043
0.00139161
0.001392
0.00139334
0.00139377
0.00139528
0.00139581
0.00139741
0.00139788
0.0013995
0.00139994
0.00140129
0.00140273
0.00140425
0.0014061
0.00140799
0.00141004
0.00141228
0.00141488
0.00141759
0.00142136
0.00142437
0.00142767
0.00143117
0.00143505
0.00143929
0.00144407
0.00144944
0.00145559
0.00146269
0.00147095
0.00148083
0.00149245
0.00150646
0.00152279
0.00154221
0.00156405
0.00158896
0.00161531
0.00164345
0.00167068
0.00169746
0.00172043
0.00174102
0.00175628
0.00176964
0.00178003
0.00179438
0.00181267
0.00184497
0.00189186
0.00195581
0.00205577
0.00216819
0.0023307
0.00252273
0.00273889
0.00293702
0.00319658
0.00321323
0.00337718
0.0014032
0.00140397
0.00140484
0.0014058
0.00140674
0.0014077
0.00140823
0.00140908
0.00140922
0.00141005
0.00141006
0.00141086
0.00141175
0.0014126
0.00141307
0.00141467
0.00141618
0.0014178
0.00141941
0.00142111
0.00142277
0.00142446
0.00142675
0.00142864
0.00143184
0.00143404
0.00143754
0.0014407
0.00144391
0.00144754
0.00145161
0.00145611
0.00146122
0.0014669
0.00147342
0.00148077
0.00148922
0.00149884
0.00150983
0.00152255
0.00153688
0.00155332
0.00157122
0.0015913
0.00161199
0.00163432
0.0016558
0.00167768
0.00169734
0.00171584
0.00173193
0.00174607
0.0017595
0.00177352
0.00179035
0.0018155
0.00184809
0.00189882
0.00196416
0.00205235
0.00217517
0.00231288
0.00251343
0.00271282
0.00292452
0.00313312
0.00327775
0.00329588
0.00336086
0.00142286
0.00142382
0.00142452
0.00142568
0.00142621
0.0014277
0.00142819
0.00142963
0.0014301
0.00143125
0.00143296
0.00143453
0.00143595
0.00143734
0.00143875
0.00144033
0.00144226
0.00144407
0.00144661
0.00144859
0.00145139
0.00145354
0.00145658
0.00145896
0.00146171
0.00146467
0.001468
0.00147167
0.0014758
0.00148037
0.00148552
0.00149119
0.0014976
0.00150465
0.00151263
0.00152139
0.00153123
0.00154199
0.00155387
0.00156699
0.00158113
0.0015966
0.00161257
0.00162989
0.00164663
0.00166478
0.00168092
0.00169866
0.00171331
0.00172978
0.00174373
0.00175987
0.00177699
0.00179811
0.00182591
0.00186321
0.00191181
0.00198079
0.00206501
0.00218297
0.00232881
0.0025017
0.00271889
0.00290824
0.00311315
0.00327603
0.00332786
0.00334527
0.00325516
0.00144467
0.00144596
0.00144652
0.00144795
0.00144851
0.00144988
0.00145132
0.00145327
0.00145508
0.00145685
0.00145872
0.00146062
0.00146291
0.00146479
0.00146755
0.00146948
0.0014723
0.00147452
0.00147764
0.00148041
0.00148309
0.00148599
0.00148917
0.00149249
0.00149603
0.0014998
0.00150389
0.00150828
0.00151315
0.00151843
0.00152429
0.00153061
0.00153765
0.00154521
0.00155361
0.00156257
0.0015725
0.00158299
0.00159438
0.00160662
0.00161959
0.00163348
0.00164763
0.00166291
0.00167749
0.00169375
0.00170799
0.00172493
0.00173872
0.00175666
0.00177197
0.00179308
0.00181541
0.00184551
0.00188408
0.00193435
0.00200149
0.00209056
0.0022025
0.00235189
0.00252115
0.00271978
0.00292809
0.00309829
0.00328006
0.00335959
0.00335299
0.00332771
0.00305576
0.00147223
0.00147348
0.00147436
0.00147545
0.00147668
0.00147827
0.00147977
0.00148167
0.00148358
0.00148598
0.00148807
0.00149106
0.00149326
0.00149635
0.00149878
0.00150207
0.00150501
0.0015078
0.00151085
0.00151406
0.00151741
0.00152093
0.00152464
0.00152857
0.00153273
0.00153716
0.00154188
0.00154693
0.00155244
0.00155831
0.00156475
0.0015716
0.00157913
0.00158712
0.00159591
0.00160517
0.00161535
0.00162596
0.00163741
0.0016495
0.00166228
0.00167572
0.0016894
0.00170395
0.00171787
0.00173343
0.00174709
0.0017641
0.0017781
0.00179828
0.00181587
0.0018432
0.00187177
0.00191372
0.00196557
0.00203512
0.00212695
0.00224299
0.00238825
0.00256205
0.00274683
0.00294993
0.00312456
0.00327343
0.0033956
0.00338512
0.00334094
0.00320646
0.00282012
0.00150606
0.00150723
0.00150848
0.00150982
0.00151129
0.00151291
0.00151465
0.00151658
0.00151868
0.00152099
0.00152347
0.00152619
0.00152906
0.00153213
0.00153526
0.00153833
0.00154163
0.00154508
0.00154869
0.00155246
0.00155643
0.00156058
0.00156497
0.00156957
0.00157447
0.00157963
0.00158516
0.00159106
0.00159744
0.00160421
0.00161157
0.00161935
0.00162782
0.00163671
0.00164638
0.00165642
0.00166731
0.00167842
0.00169024
0.00170234
0.001715
0.00172784
0.00174091
0.00175435
0.00176751
0.001782
0.00179556
0.00181278
0.00182865
0.00185232
0.00187543
0.00191218
0.0019521
0.00201237
0.00208422
0.00218203
0.00230256
0.00244828
0.00261927
0.00280104
0.00298686
0.00316374
0.00329658
0.00340884
0.00343825
0.0033602
0.00325846
0.00298649
0.00248416
0.00154623
0.00154753
0.00154895
0.00155049
0.00155217
0.00155399
0.00155597
0.00155811
0.00156044
0.00156295
0.00156567
0.0015686
0.00157175
0.00157511
0.00157864
0.00158233
0.00158618
0.00159022
0.00159444
0.00159888
0.00160355
0.00160845
0.00161365
0.00161911
0.00162493
0.00163104
0.00163762
0.00164458
0.00165206
0.00165994
0.00166839
0.00167722
0.00168665
0.00169638
0.00170673
0.00171723
0.00172836
0.00173942
0.00175094
0.00176236
0.00177426
0.00178597
0.00179823
0.00181062
0.00182376
0.00183826
0.00185396
0.00187381
0.00189576
0.00192695
0.00196212
0.00201424
0.00207403
0.0021597
0.00225835
0.00238779
0.00253287
0.00270028
0.00287632
0.00304868
0.00321292
0.00334137
0.00342999
0.00347589
0.00340431
0.00328051
0.00307061
0.00265483
0.00213127
0.00159554
0.00159702
0.00159866
0.00160045
0.00160242
0.00160455
0.00160686
0.00160936
0.00161205
0.00161494
0.00161804
0.00162136
0.0016249
0.00162867
0.00163267
0.00163688
0.00164131
0.00164596
0.00165084
0.00165596
0.00166136
0.00166703
0.00167302
0.00167932
0.00168597
0.001693
0.00170048
0.00170833
0.00171665
0.0017253
0.00173442
0.00174379
0.00175359
0.00176353
0.00177387
0.0017842
0.00179496
0.00180556
0.00181652
0.00182734
0.00183887
0.00185038
0.00186324
0.00187664
0.00189257
0.00191052
0.00193289
0.00196035
0.00199498
0.00204015
0.00209589
0.00217003
0.0022575
0.0023711
0.00249683
0.00264947
0.00280528
0.00297505
0.0031324
0.00327845
0.00339701
0.0034679
0.0035019
0.00345155
0.00329916
0.00312479
0.00272514
0.00231687
0.00191162
0.00165659
0.00165833
0.00166025
0.00166237
0.00166469
0.00166721
0.00166996
0.00167292
0.0016761
0.00167952
0.00168316
0.00168704
0.00169116
0.00169552
0.00170012
0.00170496
0.00171004
0.00171536
0.00172092
0.00172672
0.0017328
0.00173914
0.00174579
0.0017527
0.00175998
0.00176761
0.00177562
0.00178393
0.0017926
0.00180153
0.00181081
0.00182026
0.00183003
0.0018399
0.00185011
0.0018604
0.00187118
0.0018821
0.0018936
0.0019055
0.00191871
0.00193282
0.00194951
0.00196811
0.00199149
0.00201866
0.002054
0.00209623
0.0021511
0.00221724
0.00230009
0.00239885
0.00251432
0.00264782
0.00278929
0.0029449
0.00309094
0.00323934
0.00335862
0.0034616
0.00351669
0.00352806
0.00348358
0.0033302
0.00312339
0.0028364
0.00235948
0.00201086
0.00186075
0.00173245
0.00173457
0.00173689
0.00173942
0.00174218
0.00174519
0.00174846
0.00175198
0.00175577
0.00175982
0.00176414
0.00176874
0.0017736
0.00177873
0.00178413
0.00178979
0.00179571
0.00180188
0.00180831
0.00181498
0.0018219
0.00182907
0.0018365
0.00184421
0.00185225
0.00186056
0.00186917
0.00187804
0.0018872
0.00189661
0.00190633
0.00191629
0.00192661
0.00193725
0.0019484
0.00196007
0.00197261
0.00198607
0.00200075
0.00201696
0.00203557
0.00205677
0.00208222
0.00211193
0.00214878
0.00219215
0.0022467
0.00231009
0.00238915
0.00247813
0.00258549
0.00270086
0.00283164
0.00296524
0.00310211
0.00323587
0.00335221
0.00345926
0.00352691
0.00357174
0.00355576
0.00350009
0.00335213
0.00312358
0.00283626
0.0024759
0.00199224
0.00185222
0.00215177
0.00182834
0.00183107
0.001834
0.00183717
0.00184058
0.00184425
0.0018482
0.00185244
0.00185697
0.0018618
0.00186693
0.00187238
0.00187813
0.00188419
0.00189057
0.00189725
0.00190424
0.00191154
0.00191914
0.00192704
0.00193524
0.00194374
0.00195258
0.00196176
0.00197127
0.0019811
0.00199125
0.00200175
0.00201261
0.00202387
0.00203558
0.00204783
0.00206073
0.00207444
0.00208917
0.00210521
0.00212291
0.00214272
0.00216494
0.00219026
0.00221949
0.0022534
0.00229325
0.00233975
0.00239478
0.00245825
0.00253298
0.00261645
0.00271322
0.00281551
0.00293132
0.00304452
0.00316844
0.00327855
0.00339084
0.00348149
0.00355494
0.00360645
0.00361238
0.00358881
0.00349865
0.00335676
0.00310768
0.00282581
0.00243585
0.00208265
0.00176672
0.0019217
0.00257922
0.00194989
0.00195339
0.00195713
0.00196114
0.00196543
0.00197003
0.00197494
0.00198018
0.00198576
0.00199169
0.00199798
0.00200463
0.00201165
0.00201905
0.00202682
0.00203499
0.00204356
0.00205254
0.00206193
0.00207176
0.00208208
0.0020929
0.00210424
0.00211611
0.00212853
0.00214152
0.00215514
0.00216944
0.00218447
0.00220035
0.00221719
0.00223518
0.00225448
0.00227541
0.00229821
0.00232338
0.00235123
0.00238248
0.00241742
0.00245666
0.00250086
0.00255076
0.00260694
0.00267
0.00274028
0.00281773
0.00290244
0.00299255
0.00308883
0.00318512
0.00328623
0.0033768
0.0034723
0.00354152
0.0036155
0.00364826
0.00367334
0.00365658
0.00359414
0.00349743
0.00332281
0.00308295
0.00276131
0.0024368
0.00200766
0.00178115
0.00177139
0.00235536
0.00295192
0.00211103
0.00211581
0.00212086
0.00212621
0.00213189
0.00213792
0.0021443
0.00215106
0.00215821
0.00216577
0.00217376
0.00218219
0.00219109
0.00220047
0.00221036
0.0022208
0.0022318
0.00224347
0.00225584
0.00226899
0.00228296
0.0022978
0.00231359
0.00233039
0.00234828
0.00236735
0.00238767
0.00240935
0.00243249
0.00245721
0.00248364
0.00251194
0.00254229
0.00257491
0.00261003
0.00264793
0.00268889
0.00273323
0.00278126
0.00283309
0.00288882
0.00294866
0.00301257
0.00308042
0.00315168
0.0032259
0.00330171
0.00337822
0.0034534
0.00352483
0.00359243
0.00364704
0.00369933
0.00371978
0.00374603
0.00371203
0.00368703
0.003586
0.003457
0.00327922
0.003006
0.00269166
0.00233092
0.00199745
0.00168014
0.00171023
0.0021579
0.00276526
0.00311014
0.00232229
0.00232888
0.0023359
0.0023434
0.00235141
0.00235994
0.00236905
0.00237874
0.00238906
0.00240003
0.0024117
0.0024241
0.00243725
0.00245124
0.00246614
0.002482
0.00249889
0.00251687
0.00253601
0.00255637
0.00257803
0.00260107
0.00262556
0.00265157
0.00267915
0.00270835
0.00273918
0.00277167
0.00280582
0.0028416
0.00287902
0.00291804
0.00295865
0.00300083
0.00304459
0.00308991
0.00313681
0.0031853
0.00323534
0.00328692
0.00333977
0.00339348
0.0034479
0.00350236
0.00355655
0.00360931
0.00365973
0.00370677
0.00374783
0.00378307
0.00380745
0.00382031
0.00382018
0.00379036
0.00375812
0.00365449
0.00357364
0.00337317
0.0031899
0.00290995
0.00255474
0.00223432
0.00185943
0.00164012
0.00161336
0.00202377
0.00260556
0.00294963
0.00314779
0.00264287
0.00265384
0.00266544
0.00267775
0.00269081
0.00270467
0.00271937
0.002735
0.00275161
0.00276926
0.002788
0.00280785
0.00282889
0.0028511
0.00287451
0.00289913
0.00292499
0.00295207
0.00298039
0.00300991
0.00304063
0.00307249
0.00310545
0.00313945
0.0031744
0.00321021
0.00324678
0.00328396
0.00332164
0.00335967
0.00339792
0.00343624
0.00347452
0.00351262
0.00355047
0.00358795
0.00362501
0.00366149
0.00369741
0.00373241
0.00376662
0.00379922
0.0038303
0.00385841
0.00388416
0.00390509
0.00392222
0.00393204
0.00393457
0.00392801
0.00390608
0.00387339
0.00381374
0.0037331
0.00362697
0.00345875
0.00330397
0.00300874
0.00277897
0.00239041
0.00204533
0.00176579
0.00151139
0.00154112
0.001953
0.00248298
0.00280646
0.00298247
0.00333185
0.00311438
0.00313315
0.003153
0.00317395
0.00319605
0.00321923
0.00324344
0.00326864
0.00329481
0.0033219
0.00334989
0.00337865
0.00340832
0.00343834
0.00346858
0.003499
0.00352956
0.0035602
0.00359085
0.00362146
0.00365194
0.00368223
0.00371225
0.00374191
0.00377112
0.00379979
0.00382781
0.00385508
0.00388149
0.00390694
0.00393132
0.00395452
0.00397644
0.00399699
0.00401607
0.00403359
0.00404946
0.00406353
0.00407571
0.00408569
0.00409341
0.00409817
0.00410011
0.00409724
0.00409084
0.00407661
0.00405856
0.004028
0.00399211
0.00393857
0.00386986
0.00378301
0.00365825
0.0035215
0.00332706
0.00310643
0.00285217
0.00250898
0.00222073
0.00183733
0.00158002
0.00144412
0.00150576
0.00195954
0.00238489
0.00268123
0.00283527
0.00313168
0.00348905
0.00386761
0.00388929
0.00391113
0.00393311
0.0039554
0.00397718
0.00399846
0.0040193
0.00403973
0.00405977
0.00407943
0.00409871
0.00411753
0.00413619
0.00415464
0.00417281
0.00419061
0.00420796
0.00422479
0.004241
0.00425653
0.00427128
0.00428518
0.00429813
0.00431007
0.00432089
0.0043305
0.00433881
0.00434571
0.00435111
0.00435489
0.00435697
0.00435722
0.00435555
0.00435183
0.00434593
0.00433768
0.00432692
0.00431342
0.00429684
0.004277
0.00425303
0.00422501
0.00419082
0.00415188
0.00410241
0.00404874
0.00397604
0.00390186
0.00379174
0.00367498
0.00351561
0.00332725
0.00312148
0.00284468
0.00258318
0.00224037
0.00193382
0.00163247
0.00139676
0.00136538
0.00151353
0.00196442
0.00229058
0.00254491
0.00268643
0.00294937
0.0032371
0.00373486
0.00462977
0.00463591
0.00464153
0.00464667
0.00465128
0.00465587
0.00466039
0.00466477
0.00466895
0.00467288
0.00467651
0.00467978
0.00468263
0.00468503
0.00468693
0.00468829
0.00468906
0.00468918
0.00468858
0.00468719
0.00468495
0.00468177
0.00467757
0.00467226
0.00466575
0.00465792
0.00464868
0.0046379
0.00462548
0.00461128
0.00459519
0.00457708
0.00455679
0.00453418
0.00450902
0.00448119
0.00445034
0.00441637
0.00437874
0.00433729
0.00429144
0.00424001
0.00418289
0.00411874
0.00404739
0.00396353
0.00387161
0.00375595
0.00363573
0.0034516
0.00328097
0.00302877
0.00279868
0.00251529
0.00220782
0.00193264
0.00160647
0.00141478
0.00125144
0.0013272
0.00157211
0.00196565
0.00220475
0.00238882
0.00254873
0.00276864
0.00300506
0.00341336
0.00404019
0.00505784
0.00505356
0.00504875
0.00504341
0.0050375
0.00503105
0.00502406
0.00501654
0.00500844
0.00499975
0.00499046
0.00498055
0.00497001
0.00495881
0.00494692
0.00493431
0.00492093
0.00490672
0.00489164
0.00487561
0.00485856
0.0048404
0.00482105
0.00480041
0.00477836
0.0047548
0.00472959
0.00470258
0.00467377
0.00464298
0.00461018
0.00457517
0.00453771
0.00449755
0.00445435
0.004408
0.00435787
0.00430414
0.00424546
0.00418253
0.00411291
0.0040345
0.0039511
0.00385942
0.00375563
0.0036362
0.00349918
0.00330575
0.00309807
0.00284954
0.00262791
0.00231894
0.0020988
0.00178559
0.00155018
0.00132874
0.00118992
0.00120601
0.00134511
0.00169834
0.00192308
0.00215989
0.00226658
0.00244576
0.00258139
0.00278024
0.00311776
0.00362761
0.00425807
0.00511435
0.00510324
0.00509107
0.00507837
0.00506464
0.00505043
0.00503517
0.00501954
0.0050019
0.00498375
0.00496457
0.00494476
0.00492402
0.00490255
0.00488021
0.00485697
0.00483279
0.00480763
0.00478141
0.00475409
0.00472558
0.00469582
0.00466472
0.00463219
0.00459815
0.00456246
0.00452507
0.00448598
0.00444558
0.00440515
0.00436195
0.00431604
0.00426681
0.00421413
0.00415764
0.00409757
0.00403275
0.0039642
0.00388814
0.00380883
0.00371154
0.00360293
0.00346983
0.00333381
0.0031587
0.00298125
0.00276468
0.00253965
0.00229884
0.00205926
0.00181681
0.00156901
0.00139842
0.00119285
0.00110997
0.00112042
0.0012139
0.00149309
0.00168222
0.00190787
0.00199577
0.00214566
0.00227068
0.00239236
0.00256162
0.00283552
0.00324118
0.00373361
0.00421375
0.00475403
0.0047394
0.00471669
0.00470153
0.0046773
0.00466116
0.00463533
0.00461789
0.00459037
0.00457131
0.00454212
0.00452088
0.00449274
0.00446826
0.00444107
0.00441291
0.00438371
0.0043534
0.00432177
0.00428879
0.00425441
0.00421856
0.00418117
0.00414217
0.00410146
0.0040589
0.00401435
0.00396767
0.00391922
0.00386858
0.00381544
0.00375932
0.00369961
0.00363569
0.00356572
0.00348952
0.00340305
0.00330886
0.00319792
0.00308076
0.00293923
0.00279884
0.00262864
0.00247052
0.00228045
0.00208008
0.00186022
0.00165197
0.00144315
0.00128833
0.00111561
0.00104653
0.000981577
0.00103339
0.00112332
0.00133068
0.0014592
0.00167379
0.001752
0.00188688
0.0019971
0.00209245
0.0021913
0.00232901
0.00254121
0.00284583
0.00320102
0.00352371
0.00379672
0.00379625
0.00377691
0.00375668
0.00373598
0.00371444
0.00369256
0.00366987
0.00364683
0.00362297
0.00359874
0.00357366
0.00354814
0.00352187
0.00349504
0.00346754
0.00343932
0.00341031
0.00338011
0.00334698
0.00331347
0.00327911
0.00324386
0.00320769
0.00317048
0.00313232
0.00309279
0.00305195
0.00300855
0.00296164
0.00291058
0.0028551
0.00279434
0.00272819
0.00265513
0.00257349
0.00248371
0.00238268
0.00227578
0.00215423
0.00203585
0.00189834
0.00177589
0.00161502
0.00150057
0.00131927
0.00114678
0.00101107
0.000915677
0.000861658
0.000838547
0.000868164
0.000925761
0.00103536
0.00115246
0.00128153
0.00144188
0.00151566
0.00163875
0.00173451
0.00181197
0.00185611
0.00191731
0.00202286
0.00217273
0.00236956
0.00257671
0.00274256
0.00287806
0.00300895
0.00209619
0.00208259
0.00206876
0.00205482
0.00204068
0.00202629
0.00201163
0.0019967
0.00198146
0.00196592
0.00195004
0.00193383
0.00191725
0.00190029
0.00188295
0.00186517
0.00184697
0.00182827
0.00180907
0.00178934
0.00176909
0.00174824
0.00172669
0.00170424
0.00168076
0.00165334
0.00162123
0.00158311
0.00153958
0.00149065
0.00143737
0.00137958
0.00131886
0.00125484
0.00119066
0.00112478
0.00106118
0.000997126
0.000937596
0.000878493
0.000824772
0.000773812
0.00073864
0.000694575
0.000680785
0.000688704
0.000707407
0.000734147
0.000775674
0.000825026
0.000898624
0.000970584
0.00107783
0.00111371
0.00116971
0.00122041
0.00121421
0.00122255
0.00128418
0.00137142
0.00144592
0.00150715
0.00155429
0.00162012
0.0016752
0.00170599
0.00171533
0.00171879
0.00176094
0.000376719
0.000377688
0.000378669
0.00037966
0.000380656
0.000381668
0.000382671
0.000383702
0.000384709
0.000385748
0.000386771
0.000387796
0.00038885
0.000389846
0.000390927
0.000391912
0.000392954
0.000393963
0.000394963
0.000395841
0.00039661
0.000397913
0.000398268
0.000398393
0.000399047
0.000400929
0.000401633
0.000402133
0.000402686
0.000403264
0.000403763
0.000404124
0.00040427
0.000404175
0.000403775
0.000403045
0.000401899
0.000400292
0.000398096
0.000395209
0.000391443
0.000386576
0.000380354
0.000372345
0.000362091
0.000348954
0.000332266
0.00031131
0.000286375
0.000266637
0.000270281
0.00029023
0.00029893
0.00029647
0.000284755
0.000273788
0.000250389
0.000259287
0.000240391
0.000243526
0.000237497
0.000237184
0.000227134
0.000232249
0.000227834
0.000227154
0.000227529
0.000231743
0.000238572
0.00132637
0.00132626
0.00132591
0.00132549
0.0013254
0.00132492
0.00132431
0.00132269
0.00132151
0.00131994
0.00131866
0.00131842
0.00131691
0.00131555
0.00131451
0.00131222
0.00131364
0.00131445
0.00131593
0.00131644
0.00131806
0.00131916
0.00131893
0.00132005
0.00132095
0.00132203
0.00132588
0.0013287
0.00133047
0.00133069
0.00132857
0.00132894
0.00132983
0.00133072
0.0013315
0.00133165
0.00133167
0.0013327
0.00133206
0.00133192
0.00133045
0.00133049
0.00133071
0.00133064
0.001331
0.0013303
0.00133027
0.00132997
0.00133061
0.00133043
0.00132994
0.00133042
0.00133094
0.00133103
0.00133122
0.00133128
0.00133132
0.00133117
0.0013311
0.00133341
0.0013331
0.00133258
0.00133203
0.00133132
0.00133043
0.00132938
0.00132821
0.00132749
0.00132682
0.00132641
0.00132423
0.00132223
0.00132099
0.00132025
0.00132026
0.00132171
0.00132266
0.00132331
0.00132396
0.00132555
0.00132512
0.00132598
0.00132686
0.00132724
0.00132916
0.00133304
0.00133568
0.00133718
0.00133727
0.00133551
0.00133571
0.00133537
0.00133653
0.00133795
0.00133878
0.00133854
0.00133914
0.00133954
0.00133925
0.00133822
0.00133774
0.00133748
0.00133736
0.00133792
0.00133782
0.00133769
0.00133763
0.00133713
0.00133862
0.00133839
0.00133786
0.00133794
0.00133799
0.00133821
0.00133839
0.0013386
0.00133881
0.00133895
0.00134078
0.00134035
0.00133983
0.00133925
0.00133858
0.00133785
0.00133712
0.00133639
0.00133571
0.0013345
0.00133256
0.0013306
0.00132959
0.00132918
0.00132916
0.00132967
0.00133045
0.00133103
0.00133183
0.00133272
0.00133331
0.00133361
0.00133391
0.00133452
0.00133521
0.00133709
0.00134093
0.00134332
0.00134471
0.00134478
0.00134328
0.00134336
0.00134354
0.00134418
0.00134509
0.00134642
0.00134601
0.00134632
0.0013473
0.00134712
0.00134668
0.00134597
0.0013456
0.00134539
0.00134557
0.00134578
0.00134574
0.0013461
0.00134591
0.00134603
0.00134719
0.00134755
0.00134764
0.00134761
0.00134763
0.00134767
0.00134772
0.00134785
0.00134798
0.00135011
0.00134963
0.0013491
0.00134847
0.00134775
0.00134697
0.00134611
0.00134512
0.00134393
0.00134201
0.00134073
0.00133981
0.00133958
0.00133956
0.00133984
0.00134025
0.00134068
0.00134107
0.00134148
0.00134257
0.00134254
0.0013428
0.00134321
0.00134364
0.00134433
0.00134652
0.0013502
0.00135236
0.00135358
0.00135367
0.00135239
0.00135232
0.0013524
0.00135283
0.00135394
0.00135537
0.00135556
0.00135539
0.00135619
0.00135628
0.0013566
0.00135575
0.00135538
0.00135521
0.00135524
0.00135577
0.00135568
0.00135577
0.00135586
0.00135572
0.0013562
0.00135684
0.00135744
0.00135794
0.00135835
0.0013587
0.00135897
0.00135923
0.00135944
0.00136045
0.00135985
0.00135923
0.00135853
0.00135783
0.00135709
0.00135626
0.00135526
0.00135386
0.00135295
0.00135231
0.0013519
0.00135163
0.00135137
0.00135144
0.00135165
0.00135162
0.00135169
0.00135324
0.00135306
0.0013532
0.00135359
0.00135384
0.00135409
0.00135487
0.00135727
0.00136083
0.00136278
0.00136389
0.00136398
0.00136287
0.00136267
0.00136274
0.00136307
0.00136395
0.00136561
0.00136613
0.00136608
0.0013667
0.00136677
0.00136704
0.00136746
0.00136646
0.00136607
0.001366
0.00136632
0.00136712
0.00136754
0.00136785
0.00136775
0.00136775
0.00136794
0.00136829
0.00136876
0.00136927
0.00136981
0.00137032
0.00137084
0.00137131
0.00137299
0.00137252
0.00137207
0.00137158
0.00137101
0.00137015
0.00136915
0.00136779
0.00136725
0.00136625
0.00136597
0.00136513
0.00136498
0.00136488
0.00136499
0.001365
0.00136532
0.00136654
0.00136628
0.00136619
0.0013663
0.00136649
0.00136642
0.00136675
0.00136764
0.00137033
0.00137353
0.00137527
0.00137629
0.00137641
0.00137542
0.00137511
0.00137516
0.00137554
0.00137622
0.0013777
0.00137896
0.00137912
0.00137947
0.00137974
0.00138003
0.00138042
0.00138084
0.00138017
0.00137963
0.0013794
0.0013796
0.00138022
0.00138113
0.00138191
0.00138231
0.00138258
0.00138282
0.00138312
0.00138346
0.00138387
0.00138431
0.00138479
0.00138527
0.0013894
0.00138887
0.00138812
0.0013873
0.00138612
0.00138494
0.00138393
0.00138292
0.00138217
0.0013815
0.00138116
0.00138096
0.00138092
0.00138085
0.00138089
0.00138119
0.00138164
0.00138133
0.001381
0.001381
0.001381
0.00138096
0.00138091
0.00138137
0.00138223
0.00138544
0.00138819
0.00138975
0.00139074
0.00139086
0.00138997
0.00138959
0.00138965
0.00139
0.00139064
0.00139173
0.00139301
0.00139378
0.00139423
0.00139458
0.00139493
0.00139521
0.00139558
0.00139599
0.0013959
0.00139566
0.00139551
0.00139556
0.0013959
0.00139653
0.00139742
0.00139832
0.00139904
0.00139967
0.00140022
0.0014008
0.00140137
0.00140196
0.00140256
0.00140743
0.00140654
0.00140543
0.0014045
0.00140352
0.00140281
0.00140198
0.00140146
0.00140096
0.00140064
0.0014004
0.00140026
0.00140022
0.00140021
0.00140027
0.00140037
0.00139976
0.00139945
0.00139943
0.00139946
0.00139936
0.00139916
0.00139895
0.00139908
0.00140048
0.00140375
0.0014059
0.00140735
0.00140832
0.00140845
0.00140764
0.0014072
0.00140719
0.00140766
0.00140835
0.00140945
0.00141068
0.00141169
0.00141238
0.00141292
0.00141343
0.00141383
0.00141412
0.00141442
0.0014147
0.00141494
0.00141513
0.00141529
0.00141548
0.00141575
0.0014161
0.00141667
0.00141741
0.0014182
0.00141915
0.00141977
0.00142063
0.00142142
0.00142214
0.00142849
0.00142805
0.00142733
0.00142684
0.00142625
0.00142555
0.00142498
0.00142447
0.00142407
0.00142374
0.00142366
0.00142338
0.00142299
0.00142258
0.00142221
0.00142175
0.00142114
0.00142083
0.00142059
0.0014203
0.00141991
0.00141948
0.00141907
0.00141989
0.00142195
0.00142449
0.00142644
0.00142781
0.00142878
0.00142889
0.00142816
0.0014277
0.00142762
0.00142812
0.00142872
0.00142972
0.00143091
0.00143202
0.00143292
0.00143365
0.00143431
0.0014349
0.00143541
0.0014359
0.00143634
0.00143675
0.00143718
0.0014376
0.001438
0.00143844
0.0014389
0.00143939
0.00143988
0.00144049
0.00144103
0.00144173
0.0014424
0.00144325
0.00144396
0.00145731
0.00145675
0.00145601
0.00145546
0.00145477
0.0014542
0.0014536
0.00145306
0.0014525
0.00145194
0.0014515
0.00145093
0.0014502
0.00144943
0.00144889
0.00144818
0.00144757
0.00144716
0.00144679
0.00144642
0.00144595
0.0014454
0.00144516
0.0014461
0.00144806
0.00145014
0.00145184
0.00145306
0.001454
0.0014541
0.00145343
0.00145296
0.00145279
0.00145343
0.0014542
0.00145529
0.0014566
0.00145788
0.00145892
0.0014598
0.00146059
0.00146131
0.00146196
0.00146256
0.00146312
0.00146368
0.00146426
0.00146483
0.00146532
0.00146579
0.00146632
0.00146689
0.0014675
0.00146815
0.00146883
0.00146953
0.00147026
0.00147088
0.00147174
0.00149169
0.00149078
0.00149014
0.00148935
0.00148862
0.00148785
0.00148707
0.00148629
0.00148545
0.00148459
0.00148367
0.00148262
0.00148152
0.00148057
0.00147976
0.00147895
0.00147826
0.00147762
0.00147704
0.00147616
0.00147533
0.00147475
0.0014748
0.00147583
0.00147768
0.00147966
0.00148129
0.00148244
0.00148336
0.00148343
0.00148282
0.00148239
0.00148213
0.0014826
0.00148335
0.00148427
0.00148552
0.00148695
0.00148828
0.00148944
0.00149046
0.00149145
0.00149242
0.00149334
0.0014942
0.00149499
0.00149573
0.00149648
0.0014972
0.00149789
0.00149858
0.00149927
0.0015
0.00150073
0.00150154
0.00150229
0.00150319
0.00150393
0.00150507
0.00153341
0.00153245
0.00153151
0.00153053
0.00152952
0.00152848
0.00152742
0.00152631
0.00152516
0.00152396
0.00152274
0.00152152
0.00152042
0.00151946
0.00151869