/*--------------------------------*- C++ -*----------------------------------*\
| =========                 |                                                 |
| \\      /  F ield         | OpenFOAM: The Open Source CFD Toolbox           |
|  \\    /   O peration     | Version:  2312                                  |
|   \\  /    A nd           | Website:  www.openfoam.com                      |
|    \\/     M anipulation  |                                                 |
\*---------------------------------------------------------------------------*/
FoamFile
{
    version     2.0;
    format      ascii;
    arch        "LSB;label=32;scalar=64";
    class       volScalarField;
    location    "100";
    object      p;
}
// * * * * * * * * * * * * * * * * * * * * * * * * * * * * * * * * * * * * * //

dimensions      [0 2 -2 0 0 0 0];

internalField   nonuniform List<scalar> 
76025
(
0.0667352
0.0617275
0.0566124
0.051486
0.0463533
0.0411789
0.0357828
0.0305626
0.0252077
0.0199015
0.0145468
0.00914352
0.00370153
-0.00171216
-0.00718291
-0.0126549
-0.0180262
-0.0234879
-0.0289147
-0.0342633
-0.0395605
-0.0449632
-0.0502863
-0.0555144
-0.0607295
-0.0658351
-0.0709907
-0.0761783
-0.0810904
-0.0861805
-0.0910042
-0.0957886
-0.10061
-0.105381
-0.110017
-0.114557
-0.118971
-0.123569
-0.128067
-0.132459
-0.136688
-0.14087
-0.145266
-0.149578
-0.153697
-0.157842
-0.162063
-0.166359
-0.170462
-0.174679
-0.178953
-0.183243
-0.187704
-0.192292
-0.196919
-0.201599
-0.206559
-0.211747
-0.217111
-0.2227
-0.228458
-0.234816
-0.24155
-0.248564
-0.256065
-0.26443
-0.273212
-0.282786
-0.29362
0.0671074
0.0618404
0.0565388
0.0511993
0.0458079
0.0403427
0.0348655
0.0293646
0.0238129
0.0182338
0.0126237
0.00700388
0.00137776
-0.00425963
-0.00988707
-0.0154858
-0.021111
-0.0266871
-0.0322831
-0.0378026
-0.0433407
-0.0488238
-0.0542518
-0.0596153
-0.0649482
-0.0702491
-0.0755106
-0.0806477
-0.0857113
-0.0907251
-0.0956431
-0.100581
-0.105432
-0.110161
-0.114853
-0.119449
-0.124019
-0.128518
-0.132916
-0.137277
-0.141547
-0.145807
-0.150023
-0.154154
-0.158273
-0.162381
-0.166498
-0.170587
-0.174683
-0.178832
-0.183036
-0.187276
-0.191599
-0.196019
-0.200528
-0.20518
-0.210038
-0.215061
-0.22028
-0.225708
-0.231415
-0.237597
-0.244143
-0.251045
-0.258452
-0.266554
-0.275275
-0.284663
-0.295153
0.0674516
0.061952
0.0564093
0.0508159
0.0451659
0.0394842
0.033769
0.0280133
0.0222248
0.0164072
0.0105747
0.0047392
-0.0011001
-0.0069365
-0.0127565
-0.0185745
-0.0243757
-0.0301538
-0.0359036
-0.0416226
-0.0472996
-0.0529193
-0.0584861
-0.0639992
-0.0694589
-0.0748601
-0.0801763
-0.0854081
-0.0905702
-0.0956561
-0.100677
-0.105631
-0.110487
-0.115254
-0.119949
-0.124559
-0.129088
-0.133534
-0.137912
-0.142231
-0.146476
-0.150659
-0.154787
-0.158878
-0.162942
-0.166973
-0.170988
-0.174998
-0.179019
-0.183059
-0.187137
-0.191263
-0.195462
-0.199757
-0.20416
-0.208688
-0.213379
-0.218249
-0.223325
-0.228638
-0.234236
-0.240201
-0.246551
-0.253304
-0.260555
-0.268407
-0.27693
-0.28615
-0.296397
0.0676714
0.0619134
0.0561053
0.0502494
0.044347
0.0384054
0.0324274
0.026418
0.0203854
0.014335
0.00827364
0.00220737
-0.00385863
-0.00991796
-0.0159632
-0.0219906
-0.0279916
-0.0339609
-0.0398918
-0.0457783
-0.0516116
-0.0573877
-0.0631028
-0.0687513
-0.0743272
-0.0798254
-0.0852409
-0.0905723
-0.0958168
-0.100972
-0.106038
-0.111011
-0.11589
-0.120675
-0.125368
-0.129966
-0.134472
-0.138893
-0.143234
-0.147495
-0.151679
-0.155792
-0.159849
-0.163856
-0.167819
-0.171746
-0.175652
-0.17955
-0.183451
-0.187366
-0.191317
-0.195316
-0.199381
-0.203532
-0.207786
-0.212163
-0.216693
-0.221401
-0.226313
-0.231461
-0.236888
-0.242651
-0.248791
-0.255343
-0.262386
-0.269996
-0.278268
-0.287207
-0.297111
0.0676734
0.0616381
0.0555534
0.0494229
0.0432486
0.0370349
0.0307889
0.0245174
0.0182265
0.0119223
0.00561084
-0.000700777
-0.00700528
-0.0132958
-0.0195653
-0.0258064
-0.032013
-0.0381781
-0.044295
-0.0503566
-0.0563565
-0.0622889
-0.0681474
-0.0739259
-0.0796191
-0.0852231
-0.090734
-0.0961469
-0.101458
-0.106666
-0.111769
-0.116767
-0.12166
-0.126447
-0.131127
-0.1357
-0.140171
-0.144543
-0.148822
-0.153011
-0.157116
-0.161144
-0.165105
-0.169006
-0.172858
-0.17667
-0.180454
-0.184223
-0.187989
-0.191767
-0.195573
-0.199421
-0.203329
-0.207317
-0.211404
-0.215611
-0.219963
-0.224487
-0.22921
-0.234165
-0.23939
-0.244932
-0.250839
-0.257157
-0.263952
-0.271286
-0.279249
-0.287837
-0.297341
0.0674466
0.0611172
0.0547405
0.0483194
0.0418562
0.0353569
0.0288289
0.0222794
0.0157147
0.00914165
0.0025675
-0.00399983
-0.0105526
-0.0170835
-0.023585
-0.0300494
-0.0364696
-0.042838
-0.0491471
-0.0553897
-0.0615588
-0.0676476
-0.0736495
-0.0795582
-0.0853684
-0.0910755
-0.0966747
-0.102162
-0.107533
-0.112787
-0.117922
-0.122937
-0.127832
-0.132607
-0.13726
-0.141795
-0.146213
-0.150522
-0.154725
-0.158828
-0.162838
-0.166761
-0.170607
-0.174386
-0.178108
-0.181783
-0.185423
-0.189042
-0.192653
-0.19627
-0.199909
-0.203586
-0.207318
-0.211125
-0.215025
-0.21904
-0.223193
-0.22751
-0.23202
-0.236753
-0.241747
-0.247045
-0.252694
-0.258745
-0.265251
-0.272273
-0.279871
-0.288047
-0.297058
0.0669595
0.0603178
0.0536309
0.0469012
0.040132
0.0333299
0.026503
0.019659
0.0128054
0.00594956
-0.000900429
-0.00773623
-0.0145497
-0.0213329
-0.0280774
-0.034775
-0.0414173
-0.0479961
-0.0545035
-0.0609316
-0.067273
-0.0735203
-0.0796665
-0.085705
-0.09163
-0.0974363
-0.103119
-0.108674
-0.114098
-0.119389
-0.124544
-0.129563
-0.134446
-0.139194
-0.143806
-0.148284
-0.152634
-0.15686
-0.160968
-0.164965
-0.168858
-0.172654
-0.176365
-0.179999
-0.183569
-0.187085
-0.190561
-0.194009
-0.197444
-0.20088
-0.204332
-0.207818
-0.211354
-0.214958
-0.21865
-0.222451
-0.226382
-0.23047
-0.234741
-0.239226
-0.243961
-0.248988
-0.254353
-0.260103
-0.266284
-0.27295
-0.280139
-0.287868
-0.296338
0.0661642
0.0591907
0.0521742
0.0451172
0.0380234
0.0309004
0.0237571
0.0166018
0.00944287
0.00228845
-0.00485269
-0.0119716
-0.0190593
-0.0261069
-0.0331055
-0.0400456
-0.0469184
-0.0537148
-0.0604264
-0.0670447
-0.0735615
-0.0799689
-0.0862595
-0.0924261
-0.0984627
-0.104363
-0.110123
-0.115738
-0.121205
-0.12652
-0.131682
-0.136691
-0.141547
-0.146251
-0.150803
-0.155206
-0.159466
-0.163589
-0.167581
-0.171449
-0.175202
-0.178849
-0.182401
-0.185868
-0.189263
-0.192597
-0.195885
-0.19914
-0.202377
-0.205609
-0.208854
-0.212127
-0.215444
-0.218824
-0.222286
-0.225848
-0.229534
-0.233367
-0.237374
-0.241585
-0.246035
-0.250764
-0.255813
-0.261226
-0.267043
-0.273309
-0.280051
-0.287329
-0.295217
0.065009
0.0576828
0.0503164
0.0429121
0.0354741
0.0280109
0.0205324
0.0130478
0.00556591
-0.00190407
-0.0093525
-0.0167695
-0.0241452
-0.03147
-0.0387338
-0.0459267
-0.0530387
-0.0600602
-0.066982
-0.0737949
-0.0804901
-0.087059
-0.0934934
-0.0997858
-0.10593
-0.111919
-0.117748
-0.123413
-0.12891
-0.134237
-0.139392
-0.144374
-0.149185
-0.153826
-0.158298
-0.162604
-0.166751
-0.170747
-0.174598
-0.178313
-0.181901
-0.185373
-0.18874
-0.192014
-0.195209
-0.198337
-0.201413
-0.20445
-0.207464
-0.21047
-0.213483
-0.216519
-0.219595
-0.222727
-0.225935
-0.229236
-0.232651
-0.236205
-0.239923
-0.243835
-0.247973
-0.252374
-0.257074
-0.262109
-0.267519
-0.27333
-0.279587
-0.286366
-0.293585
0.0634348
0.0557333
0.047995
0.0402215
0.0324179
0.0245937
0.0167597
0.00892607
0.00110253
-0.00670078
-0.0144733
-0.0222041
-0.0298825
-0.0374977
-0.0450391
-0.0524955
-0.0598563
-0.0671109
-0.0742491
-0.0812611
-0.0881371
-0.094868
-0.101445
-0.10786
-0.114106
-0.120176
-0.126065
-0.131769
-0.137284
-0.142607
-0.147737
-0.152674
-0.157419
-0.161975
-0.166342
-0.170526
-0.174535
-0.178377
-0.18206
-0.185593
-0.188988
-0.192256
-0.19541
-0.198463
-0.20143
-0.204324
-0.20716
-0.209953
-0.212719
-0.215472
-0.218228
-0.221003
-0.223813
-0.226673
-0.229602
-0.232618
-0.235741
-0.238992
-0.242397
-0.245984
-0.24978
-0.253819
-0.258131
-0.262748
-0.267704
-0.273007
-0.278738
-0.284859
-0.291308
0.0613733
0.053272
0.0451375
0.036971
0.0287784
0.0205706
0.0123592
0.00415541
-0.00402999
-0.0121859
-0.0203006
-0.0283624
-0.0363593
-0.0442797
-0.0521116
-0.0598433
-0.0674627
-0.0749584
-0.0823193
-0.0895345
-0.0965936
-0.103487
-0.110204
-0.116737
-0.123079
-0.129222
-0.13516
-0.140889
-0.146405
-0.151707
-0.156792
-0.161661
-0.166318
-0.170762
-0.174997
-0.179031
-0.182872
-0.186529
-0.190011
-0.193331
-0.1965
-0.199531
-0.20244
-0.20524
-0.207947
-0.210576
-0.213143
-0.215663
-0.218151
-0.220625
-0.223098
-0.225586
-0.228105
-0.23067
-0.233297
-0.236005
-0.238812
-0.241737
-0.244803
-0.248035
-0.251458
-0.255097
-0.258981
-0.263139
-0.267599
-0.272368
-0.277558
-0.28293
-0.289197
0.0587449
0.0502168
0.0416598
0.0330744
0.0244676
0.0158515
0.00723902
-0.00135781
-0.00992705
-0.0184565
-0.0269332
-0.0353444
-0.0436769
-0.051918
-0.0600546
-0.0680737
-0.0759621
-0.0837074
-0.0912973
-0.0987201
-0.105964
-0.113019
-0.119874
-0.12652
-0.13295
-0.139154
-0.145128
-0.150867
-0.156366
-0.161625
-0.166641
-0.171418
-0.175956
-0.180259
-0.184331
-0.188181
-0.191819
-0.195255
-0.1985
-0.201569
-0.204475
-0.207233
-0.20986
-0.212371
-0.214783
-0.217112
-0.219377
-0.221592
-0.223774
-0.225939
-0.228101
-0.230277
-0.232481
-0.234727
-0.237031
-0.239408
-0.241874
-0.244449
-0.247149
-0.249995
-0.253007
-0.256206
-0.259618
-0.263266
-0.267188
-0.271419
-0.27612
-0.280968
-0.286851
0.0554559
0.0464718
0.0374637
0.0284315
0.019383
0.010332
0.00129243
-0.0077224
-0.0166994
-0.0256251
-0.0344853
-0.0432659
-0.0519525
-0.0605312
-0.0689874
-0.0773069
-0.0854754
-0.093479
-0.101304
-0.108939
-0.116369
-0.123585
-0.130574
-0.137326
-0.143833
-0.150086
-0.15608
-0.161809
-0.16727
-0.172461
-0.177382
-0.182034
-0.186422
-0.190548
-0.194419
-0.198047
-0.201441
-0.204615
-0.207581
-0.210356
-0.212957
-0.215399
-0.217701
-0.219882
-0.22196
-0.223953
-0.225879
-0.227756
-0.229599
-0.231426
-0.233251
-0.235088
-0.236952
-0.238855
-0.240812
-0.242836
-0.24494
-0.247138
-0.249444
-0.251871
-0.254434
-0.257149
-0.260035
-0.263113
-0.266429
-0.27004
-0.274152
-0.278708
-0.285797
0.0513967
0.041925
0.0324348
0.0229252
0.0134052
0.00389017
-0.0056046
-0.0150646
-0.0244754
-0.0338221
-0.0430892
-0.052261
-0.0613219
-0.0702564
-0.0790486
-0.0876826
-0.0961429
-0.104414
-0.112482
-0.120332
-0.12795
-0.135324
-0.142441
-0.149291
-0.155863
-0.16215
-0.168145
-0.173842
-0.179239
-0.184333
-0.189125
-0.193619
-0.197817
-0.201725
-0.205352
-0.208711
-0.211814
-0.214677
-0.217315
-0.219747
-0.221992
-0.224069
-0.226001
-0.227806
-0.229505
-0.23112
-0.232669
-0.23417
-0.235641
-0.237098
-0.238555
-0.240027
-0.241526
-0.243065
-0.244654
-0.246302
-0.24802
-0.249816
-0.251697
-0.253672
-0.255749
-0.257936
-0.260248
-0.262699
-0.265336
-0.268203
-0.271489
-0.275424
-0.282428
0.046437
0.036443
0.026437
0.0164168
0.00639266
-0.00361815
-0.0135989
-0.0235336
-0.0334066
-0.0432013
-0.0529009
-0.0624878
-0.071945
-0.0812552
-0.0904011
-0.0993652
-0.10813
-0.116679
-0.124996
-0.133065
-0.140872
-0.148401
-0.155641
-0.162578
-0.169202
-0.175504
-0.181478
-0.187117
-0.192419
-0.197382
-0.202007
-0.206299
-0.210263
-0.213904
-0.217235
-0.220271
-0.223027
-0.225521
-0.227773
-0.229803
-0.231635
-0.233291
-0.234796
-0.236173
-0.237445
-0.238634
-0.239761
-0.240846
-0.241907
-0.242961
-0.244021
-0.245102
-0.246213
-0.247365
-0.248564
-0.249816
-0.251125
-0.252494
-0.253924
-0.255416
-0.256972
-0.258594
-0.260288
-0.262072
-0.264004
-0.266151
-0.268769
-0.27212
-0.27562
0.0404241
0.0298703
0.0193114
0.00874423
-0.00181961
-0.0123609
-0.0228612
-0.0333033
-0.0436696
-0.0539421
-0.064102
-0.0741303
-0.0840079
-0.0937159
-0.103235
-0.112546
-0.12163
-0.130468
-0.139042
-0.147335
-0.15533
-0.163012
-0.170366
-0.177378
-0.184037
-0.190334
-0.19626
-0.20181
-0.206981
-0.211772
-0.216186
-0.220227
-0.2239
-0.227216
-0.23019
-0.232839
-0.235182
-0.237239
-0.239035
-0.240595
-0.241946
-0.243114
-0.244128
-0.245015
-0.245801
-0.24651
-0.247167
-0.247792
-0.248404
-0.24902
-0.249654
-0.250317
-0.251017
-0.25176
-0.252549
-0.253383
-0.254263
-0.255183
-0.256139
-0.257124
-0.258131
-0.259155
-0.2602
-0.261309
-0.262573
-0.264139
-0.266421
-0.269495
-0.273619
0.033168
0.0220133
0.0108611
-0.000292875
-0.0114354
-0.0225452
-0.033602
-0.044587
-0.0554808
-0.0662635
-0.0769146
-0.0874128
-0.0977373
-0.107867
-0.117781
-0.127457
-0.136875
-0.146014
-0.154853
-0.163374
-0.171558
-0.179388
-0.186846
-0.193919
-0.200594
-0.20686
-0.212709
-0.218134
-0.223132
-0.227703
-0.231851
-0.235581
-0.2389
-0.241822
-0.244365
-0.246549
-0.248397
-0.249935
-0.251192
-0.252198
-0.252986
-0.253586
-0.254033
-0.254358
-0.254591
-0.254761
-0.254893
-0.255011
-0.255134
-0.255278
-0.255454
-0.255673
-0.255938
-0.256251
-0.25661
-0.25701
-0.257445
-0.257902
-0.258367
-0.258824
-0.25926
-0.25967
-0.26008
-0.260575
-0.261278
-0.262387
-0.264195
-0.266438
-0.26923
0.024452
0.0126513
0.000861318
-0.0109234
-0.0226878
-0.0344083
-0.0460627
-0.0576304
-0.0690901
-0.0804197
-0.0915965
-0.102597
-0.113398
-0.123977
-0.13431
-0.144373
-0.154142
-0.163595
-0.172709
-0.181462
-0.189835
-0.197807
-0.20536
-0.212477
-0.219144
-0.22535
-0.231084
-0.23634
-0.241115
-0.245409
-0.249226
-0.252574
-0.255461
-0.257904
-0.259925
-0.26155
-0.262805
-0.263723
-0.26434
-0.264692
-0.264817
-0.264755
-0.264546
-0.264226
-0.263832
-0.263394
-0.262943
-0.262502
-0.26209
-0.261723
-0.26141
-0.261157
-0.260965
-0.260832
-0.260749
-0.260707
-0.260688
-0.260673
-0.260636
-0.260555
-0.260426
-0.260276
-0.260153
-0.260157
-0.260401
-0.261137
-0.262386
-0.264037
-0.266084
0.013973
0.00147703
-0.0109996
-0.0234635
-0.0358973
-0.0482747
-0.060572
-0.0727662
-0.084834
-0.0967511
-0.108492
-0.120031
-0.131343
-0.142402
-0.153181
-0.163654
-0.173794
-0.183577
-0.192976
-0.201968
-0.210529
-0.218637
-0.22627
-0.233411
-0.240043
-0.246152
-0.251727
-0.256761
-0.26125
-0.265195
-0.268601
-0.271475
-0.27383
-0.275689
-0.277077
-0.278025
-0.278567
-0.278743
-0.278596
-0.278172
-0.277518
-0.276682
-0.27571
-0.274647
-0.273535
-0.27241
-0.271304
-0.270241
-0.269243
-0.268321
-0.267485
-0.266736
-0.266073
-0.265487
-0.264962
-0.264479
-0.264007
-0.263519
-0.262989
-0.262404
-0.261817
-0.261248
-0.260711
-0.260267
-0.260145
-0.260589
-0.261426
-0.262629
-0.264049
0.00137817
-0.0118691
-0.0250874
-0.0382859
-0.0514441
-0.0645327
-0.0775256
-0.0903978
-0.103123
-0.115675
-0.128025
-0.140145
-0.152005
-0.163578
-0.174833
-0.185742
-0.196274
-0.206401
-0.216095
-0.225327
-0.234072
-0.242304
-0.249999
-0.257135
-0.263694
-0.26966
-0.27502
-0.279766
-0.283892
-0.2874
-0.290297
-0.29259
-0.294299
-0.29545
-0.296072
-0.296204
-0.295887
-0.295172
-0.294111
-0.29276
-0.291179
-0.289425
-0.287557
-0.285627
-0.283686
-0.281775
-0.279929
-0.278175
-0.276532
-0.275013
-0.273622
-0.272359
-0.271216
-0.270176
-0.269214
-0.268296
-0.267389
-0.266472
-0.265543
-0.264619
-0.263743
-0.26281
-0.261817
-0.26101
-0.260846
-0.261109
-0.261499
-0.262263
-0.263411
-0.0139311
-0.0279902
-0.0420102
-0.0560014
-0.0699398
-0.083793
-0.0975326
-0.111131
-0.124561
-0.137791
-0.15079
-0.163528
-0.175973
-0.188091
-0.199851
-0.21122
-0.222163
-0.232649
-0.242645
-0.25212
-0.261043
-0.269385
-0.27712
-0.284221
-0.290668
-0.296439
-0.301521
-0.305903
-0.309577
-0.312545
-0.314813
-0.316393
-0.317308
-0.317587
-0.317269
-0.316398
-0.31503
-0.313224
-0.311047
-0.308571
-0.305868
-0.303014
-0.300078
-0.297128
-0.294222
-0.29141
-0.288731
-0.286214
-0.283875
-0.281724
-0.279758
-0.277969
-0.276337
-0.274837
-0.273441
-0.272124
-0.270873
-0.269712
-0.268597
-0.267506
-0.26627
-0.264886
-0.263681
-0.26313
-0.262915
-0.262619
-0.26253
-0.263102
-0.264279
-0.0324345
-0.047353
-0.0622203
-0.0770488
-0.0918119
-0.106474
-0.121005
-0.135374
-0.149549
-0.163496
-0.177183
-0.190575
-0.203635
-0.216329
-0.228619
-0.240468
-0.251839
-0.262695
-0.273
-0.282717
-0.291811
-0.30025
-0.308
-0.315032
-0.321318
-0.326837
-0.331568
-0.335497
-0.338617
-0.340928
-0.342436
-0.343156
-0.343112
-0.342341
-0.340885
-0.338803
-0.336158
-0.333029
-0.329498
-0.325656
-0.321599
-0.31742
-0.313211
-0.309056
-0.305029
-0.301189
-0.297578
-0.294226
-0.291143
-0.288331
-0.285773
-0.283451
-0.281336
-0.279409
-0.277666
-0.276124
-0.274759
-0.27356
-0.272278
-0.270867
-0.269254
-0.268075
-0.267452
-0.266874
-0.265936
-0.265122
-0.264789
-0.265205
-0.266251
-0.0547786
-0.0706106
-0.0863902
-0.102116
-0.117762
-0.133291
-0.14867
-0.163866
-0.178843
-0.193566
-0.207996
-0.222096
-0.235825
-0.249145
-0.262012
-0.274387
-0.286225
-0.297487
-0.308129
-0.31811
-0.32739
-0.335928
-0.343687
-0.350631
-0.356726
-0.361943
-0.366256
-0.369644
-0.372095
-0.373602
-0.37417
-0.373815
-0.372568
-0.370472
-0.367582
-0.363969
-0.359717
-0.354922
-0.349695
-0.344153
-0.338421
-0.332622
-0.326878
-0.321295
-0.315966
-0.310956
-0.306307
-0.302037
-0.29814
-0.294605
-0.291416
-0.288573
-0.286088
-0.28395
-0.282139
-0.280606
-0.279164
-0.277706
-0.276085
-0.274665
-0.27386
-0.273402
-0.272597
-0.271217
-0.269869
-0.2688
-0.268284
-0.268585
-0.269526
-0.0795943
-0.09645
-0.113218
-0.129923
-0.146535
-0.163014
-0.179323
-0.195425
-0.211281
-0.226853
-0.242098
-0.256974
-0.271437
-0.285443
-0.298945
-0.311896
-0.324247
-0.335952
-0.346962
-0.357231
-0.366709
-0.37535
-0.383109
-0.389943
-0.395809
-0.400672
-0.404498
-0.407262
-0.40895
-0.409556
-0.40908
-0.407536
-0.404953
-0.401375
-0.396865
-0.391506
-0.385401
-0.37867
-0.371452
-0.3639
-0.356178
-0.348452
-0.340883
-0.333615
-0.326765
-0.320411
-0.3146
-0.309342
-0.304628
-0.300436
-0.296748
-0.293562
-0.290893
-0.288671
-0.286745
-0.28499
-0.283216
-0.281712
-0.280939
-0.280759
-0.280503
-0.279421
-0.277926
-0.276244
-0.274627
-0.273329
-0.272744
-0.272938
-0.273688
-0.110161
-0.128116
-0.146035
-0.163868
-0.181593
-0.199174
-0.216569
-0.233736
-0.250634
-0.267217
-0.283441
-0.299258
-0.314619
-0.329473
-0.343767
-0.357448
-0.370461
-0.382753
-0.394268
-0.40495
-0.414746
-0.423598
-0.431452
-0.438254
-0.443951
-0.448489
-0.451818
-0.453887
-0.454657
-0.454107
-0.452238
-0.449069
-0.444633
-0.438984
-0.4322
-0.424383
-0.415667
-0.406212
-0.396205
-0.385856
-0.37539
-0.365036
-0.355023
-0.345556
-0.336802
-0.328884
-0.321869
-0.315762
-0.310506
-0.306005
-0.302121
-0.298717
-0.295685
-0.292929
-0.290505
-0.288704
-0.287811
-0.287861
-0.288281
-0.287936
-0.286818
-0.285288
-0.283516
-0.281578
-0.279766
-0.278429
-0.277717
-0.2776
-0.27795
-0.138063
-0.157351
-0.17642
-0.195399
-0.214267
-0.232969
-0.251459
-0.269692
-0.287624
-0.305208
-0.322393
-0.339126
-0.355355
-0.371021
-0.386066
-0.400433
-0.41406
-0.426886
-0.438849
-0.449885
-0.45993
-0.46892
-0.476791
-0.483482
-0.488935
-0.493092
-0.495899
-0.49731
-0.497283
-0.495785
-0.492794
-0.488303
-0.482333
-0.474927
-0.466161
-0.456144
-0.445026
-0.432996
-0.42029
-0.407178
-0.393964
-0.380971
-0.368521
-0.356907
-0.346344
-0.336944
-0.328685
-0.321435
-0.315045
-0.309412
-0.304622
-0.300804
-0.298033
-0.296041
-0.294864
-0.294659
-0.295084
-0.295229
-0.29492
-0.294095
-0.292714
-0.290858
-0.288741
-0.286671
-0.284855
-0.283455
-0.282472
-0.281871
-0.281809
-0.184695
-0.205296
-0.226061
-0.246687
-0.267161
-0.287468
-0.307564
-0.327396
-0.346912
-0.366057
-0.384773
-0.403002
-0.420682
-0.43775
-0.454142
-0.46979
-0.484626
-0.498575
-0.511565
-0.523521
-0.534366
-0.544023
-0.552412
-0.559449
-0.565036
-0.569028
-0.571264
-0.571648
-0.570171
-0.566829
-0.561605
-0.554488
-0.545491
-0.534664
-0.522095
-0.507915
-0.492303
-0.475498
-0.457793
-0.439544
-0.421154
-0.40307
-0.385777
-0.369746
-0.355353
-0.342874
-0.332404
-0.323729
-0.316393
-0.309914
-0.304416
-0.300917
-0.300165
-0.300895
-0.301646
-0.302112
-0.302158
-0.301724
-0.300841
-0.299429
-0.297521
-0.295396
-0.293239
-0.291171
-0.289317
-0.287737
-0.286403
-0.285408
-0.285127
-0.200899
-0.222857
-0.244299
-0.265818
-0.287317
-0.308626
-0.329679
-0.35044
-0.370861
-0.390882
-0.410442
-0.429479
-0.447926
-0.465718
-0.482784
-0.499052
-0.514444
-0.528881
-0.54228
-0.55456
-0.565642
-0.575455
-0.58395
-0.591117
-0.597045
-0.601731
-0.604791
-0.605792
-0.604616
-0.601267
-0.595718
-0.587912
-0.577796
-0.565337
-0.55054
-0.533459
-0.514219
-0.493047
-0.470309
-0.446537
-0.422458
-0.399
-0.377262
-0.358331
-0.343215
-0.332653
-0.326622
-0.324128
-0.323295
-0.321934
-0.318442
-0.31387
-0.31089
-0.309832
-0.309417
-0.308821
-0.307823
-0.306644
-0.305177
-0.303247
-0.30094
-0.29852
-0.296179
-0.294038
-0.292177
-0.290614
-0.2893
-0.288385
-0.288407
-0.286854
-0.311396
-0.336237
-0.360825
-0.385125
-0.409217
-0.433083
-0.456647
-0.479833
-0.502579
-0.524824
-0.546495
-0.567515
-0.587808
-0.607294
-0.625887
-0.643493
-0.660013
-0.67534
-0.689359
-0.701943
-0.712946
-0.722188
-0.729453
-0.734439
-0.736959
-0.73725
-0.735567
-0.731771
-0.725551
-0.716655
-0.704921
-0.690226
-0.672478
-0.651641
-0.627771
-0.601053
-0.571826
-0.540615
-0.508164
-0.475443
-0.443642
-0.414056
-0.388027
-0.366702
-0.350682
-0.33993
-0.333766
-0.330857
-0.329493
-0.328044
-0.325879
-0.322991
-0.31983
-0.316875
-0.314247
-0.31193
-0.309889
-0.307864
-0.30557
-0.302955
-0.300239
-0.29769
-0.295498
-0.293782
-0.29254
-0.291599
-0.290923
-0.291359
0.0724622
0.0763418
0.0804598
0.0848086
0.0894188
0.094341
0.0996075
0.105108
0.110801
0.116765
0.12305
0.129597
0.136251
0.143457
0.150281
0.157375
0.164133
0.17127
0.178121
0.184782
0.191667
0.197626
0.20328
0.208267
0.212722
0.21661
0.219485
0.221587
0.223066
0.223542
0.222819
0.221342
0.219157
0.216301
0.212298
0.207682
0.202576
0.196805
0.190527
0.184065
0.177149
0.170023
0.163069
0.156213
0.148878
0.141999
0.134946
0.128274
0.121698
0.115374
0.109357
0.103592
0.0981905
0.0930521
0.0882328
0.0834456
0.0790638
0.0749159
0.0710552
0.0731074
0.0771352
0.0814491
0.0860207
0.0908751
0.096023
0.101476
0.107211
0.113222
0.119516
0.126074
0.132877
0.139891
0.147136
0.154504
0.161852
0.169265
0.176634
0.18393
0.190907
0.197787
0.20423
0.210146
0.215462
0.220116
0.224096
0.227255
0.229431
0.230924
0.231393
0.230675
0.229202
0.226917
0.223734
0.21965
0.214819
0.209403
0.203417
0.196893
0.19
0.182843
0.175498
0.168114
0.160587
0.153107
0.14574
0.138498
0.131497
0.124665
0.118066
0.111763
0.105753
0.0999988
0.0945669
0.0893782
0.0845116
0.0799538
0.0756789
0.0716672
0.0736877
0.0779046
0.0824003
0.0871888
0.0922775
0.0976737
0.103373
0.109372
0.115676
0.12228
0.129158
0.136275
0.14362
0.151166
0.158861
0.166669
0.17452
0.182303
0.189934
0.197317
0.204438
0.21121
0.217451
0.223063
0.227985
0.232141
0.235451
0.237802
0.239309
0.239767
0.239123
0.237602
0.235114
0.231706
0.227421
0.222373
0.216646
0.21036
0.203554
0.196364
0.188876
0.181137
0.173277
0.165383
0.157541
0.149823
0.142245
0.134866
0.127711
0.12081
0.114204
0.107886
0.101862
0.096135
0.0907402
0.0856706
0.0809021
0.0764265
0.0722258
0.0741097
0.0785197
0.0832252
0.0882367
0.093564
0.099214
0.105187
0.11148
0.118092
0.125016
0.132234
0.13972
0.147451
0.155383
0.16346
0.171658
0.179886
0.188069
0.196098
0.203913
0.211423
0.218519
0.22508
0.230997
0.236196
0.240577
0.244056
0.246555
0.248114
0.248583
0.247953
0.246349
0.243698
0.240111
0.235603
0.230297
0.224269
0.217635
0.210473
0.202907
0.195018
0.186881
0.178626
0.170363
0.16213
0.154012
0.146047
0.138286
0.130774
0.123536
0.1166
0.109977
0.103678
0.0977064
0.0920669
0.0867517
0.0817506
0.0770566
0.0726623
0.0743462
0.078963
0.0838917
0.0891421
0.0947242
0.100645
0.106908
0.113512
0.120453
0.127722
0.135302
0.14317
0.151298
0.159639
0.16814
0.176749
0.185391
0.193994
0.202458
0.210701
0.21862
0.226085
0.232991
0.23923
0.244711
0.249333
0.253008
0.255646
0.257275
0.257765
0.257113
0.255418
0.252628
0.248853
0.244112
0.238524
0.232176
0.225178
0.217626
0.209642
0.201327
0.192781
0.184116
0.175427
0.166771
0.158227
0.149855
0.141704
0.133815
0.12622
0.118941
0.111995
0.105391
0.099134
0.093221
0.0876488
0.082411
0.0774982
0.0729011
0.0743779
0.0792151
0.084381
0.0898858
0.09574
0.101951
0.108523
0.115457
0.122747
0.130383
0.138348
0.146618
0.155161
0.163934
0.172884
0.181947
0.19105
0.20011
0.209031
0.217715
0.226054
0.233922
0.241204
0.247785
0.253565
0.258441
0.262321
0.265108
0.266814
0.267329
0.266651
0.264862
0.261925
0.257941
0.252949
0.247058
0.240367
0.232987
0.225028
0.216612
0.207854
0.198862
0.18974
0.180586
0.171476
0.162488
0.153685
0.145119
0.13683
0.128852
0.121208
0.113916
0.106985
0.100418
0.0942166
0.0883756
0.0828878
0.0777419
0.0729279
0.0741659
0.0792381
0.0846566
0.0904326
0.0965773
0.103098
0.110001
0.117286
0.124947
0.132976
0.141353
0.150054
0.159044
0.16828
0.177706
0.187256
0.196851
0.206402
0.215809
0.224966
0.233756
0.242055
0.249739
0.256687
0.262787
0.267934
0.27203
0.274977
0.276769
0.277311
0.276607
0.274718
0.271618
0.267409
0.262143
0.255928
0.248869
0.241084
0.232692
0.22382
0.214589
0.205111
0.195498
0.18585
0.176257
0.166795
0.15753
0.148518
0.1398
0.131412
0.123378
0.115716
0.108436
0.101543
0.0950347
0.088907
0.0831514
0.077756
0.0727105
0.0736676
0.0789902
0.0846784
0.0907437
0.0971981
0.10405
0.111306
0.118965
0.127025
0.135473
0.144292
0.153455
0.162925
0.172657
0.182592
0.19266
0.202779
0.212856
0.222785
0.23245
0.241727
0.250488
0.258602
0.265942
0.272386
0.277823
0.282151
0.285268
0.287155
0.287729
0.286993
0.284994
0.281721
0.277271
0.271712
0.265148
0.257695
0.249476
0.240619
0.231256
0.221514
0.211517
0.201378
0.191206
0.181094
0.171124
0.161365
0.151873
0.142696
0.133869
0.125419
0.117362
0.109711
0.102467
0.0956316
0.0891975
0.083156
0.0774946
0.0722022
0.0728339
0.0784238
0.0843997
0.090774
0.0975594
0.104766
0.112398
0.120459
0.128943
0.137841
0.147132
0.156789
0.166774
0.177038
0.187518
0.198143
0.208824
0.219464
0.229949
0.240157
0.249959
0.259216
0.267792
0.275551
0.282366
0.288115
0.292689
0.29599
0.297981
0.298588
0.297815
0.295698
0.292239
0.287534
0.281659
0.274722
0.266845
0.25816
0.248803
0.238911
0.228623
0.218068
0.207367
0.196633
0.185966
0.17545
0.16516
0.155156
0.145487
0.13619
0.127294
0.118815
0.110765
0.103148
0.0959622
0.0892007
0.0828541
0.0769086
0.0713528
0.0716071
0.0774825
0.0837659
0.0904704
0.0976102
0.105195
0.113232
0.121723
0.130663
0.140041
0.149839
0.160025
0.170561
0.181395
0.192462
0.203684
0.214968
0.226211
0.237292
0.248083
0.258446
0.268236
0.277309
0.285519
0.29273
0.298814
0.303654
0.30715
0.309253
0.309897
0.309082
0.306839
0.303181
0.298203
0.291987
0.284649
0.276318
0.267133
0.257238
0.246781
0.235906
0.224751
0.213447
0.20211
0.190846
0.179745
0.168886
0.158333
0.148137
0.138337
0.128962
0.120031
0.111554
0.103537
0.0959757
0.0888638
0.0821907
0.0759417
0.0701044
0.0699213
0.0761023
0.082715
0.0897734
0.0972927
0.105284
0.113754
0.122706
0.132135
0.14203
0.15237
0.163125
0.174253
0.185698
0.197394
0.209256
0.221188
0.233077
0.244799
0.256216
0.267183
0.277546
0.287151
0.295846
0.303483
0.309926
0.315052
0.318756
0.32098
0.321663
0.320803
0.318425
0.314554
0.309281
0.3027
0.29493
0.28611
0.276387
0.265916
0.254851
0.243346
0.231549
0.219595
0.20761
0.195705
0.183977
0.172507
0.161364
0.150602
0.140262
0.130373
0.120957
0.112023
0.103576
0.0956131
0.0881258
0.0811031
0.0745292
0.0683909
0.0677007
0.0742092
0.0811749
0.0886127
0.0965391
0.104966
0.113902
0.123348
0.133302
0.143751
0.154675
0.16604
0.177802
0.189905
0.202275
0.214826
0.227453
0.240038
0.252449
0.26454
0.276155
0.287135
0.297313
0.306529
0.314624
0.321452
0.326884
0.330813
0.333168
0.333892
0.332983
0.330461
0.326359
0.320769
0.313794
0.305561
0.296216
0.285915
0.274822
0.263104
0.250922
0.238433
0.225781
0.2131
0.200506
0.188103
0.175977
0.164201
0.15283
0.141909
0.13147
0.121532
0.112108
0.1032
0.0948049
0.0869151
0.0795177
0.0725956
0.0661348
0.0648546
0.0717146
0.0790592
0.0869045
0.0952679
0.104163
0.113598
0.123576
0.134094
0.145139
0.156689
0.16871
0.181156
0.193965
0.207061
0.220352
0.233727
0.24706
0.260212
0.273028
0.285343
0.296986
0.307782
0.317557
0.326143
0.333387
0.33915
0.343318
0.345816
0.346585
0.345622
0.342945
0.338593
0.332663
0.325264
0.316532
0.30662
0.295697
0.283937
0.271515
0.258604
0.24537
0.231967
0.218536
0.205201
0.192072
0.17924
0.166782
0.154758
0.143213
0.132181
0.121682
0.11173
0.102327
0.0934688
0.0851467
0.077347
0.0700513
0.0632443
0.0612773
0.068515
0.0762667
0.0845496
0.0933827
0.102781
0.112753
0.123303
0.134427
0.146113
0.158338
0.171065
0.184246
0.197816
0.211693
0.22578
0.239961
0.254101
0.268052
0.28165
0.294719
0.307076
0.318537
0.328914
0.33803
0.34572
0.351838
0.356266
0.358916
0.359734
0.358712
0.355868
0.351248
0.344951
0.337096
0.327825
0.317304
0.30571
0.29323
0.280049
0.266353
0.252316
0.238104
0.223865
0.209732
0.195821
0.182229
0.169037
0.156309
0.144092
0.132421
0.12132
0.1108
0.100864
0.0915072
0.0827204
0.0744883
0.0667911
0.0596123
0.056842
0.0644858
0.0726754
0.0814293
0.090768
0.100707
0.111258
0.122424
0.134202
0.146578
0.15953
0.173018
0.186991
0.20138
0.216101
0.231047
0.246096
0.261106
0.275919
0.290359
0.304241
0.317369
0.329545
0.340571
0.350258
0.358429
0.364931
0.369638
0.372454
0.373323
0.372238
0.369214
0.364304
0.357611
0.349263
0.339412
0.328234
0.315918
0.30266
0.288662
0.274118
0.259216
0.244131
0.22902
0.214027
0.199272
0.184861
0.170878
0.15739
0.144448
0.13209
0.120339
0.109207
0.0986967
0.0888038
0.0795166
0.070819
0.0626897
0.0551109
0.0513997
0.0594809
0.0681421
0.0774034
0.0872868
0.0978094
0.108983
0.120813
0.133295
0.146417
0.160152
0.174461
0.189289
0.204563
0.220193
0.236066
0.252053
0.268003
0.283746
0.299096
0.313856
0.327816
0.340765
0.352491
0.362792
0.371482
0.378398
0.383405
0.386401
0.387325
0.386171
0.382953
0.37773
0.370611
0.361732
0.351255
0.339367
0.32627
0.312174
0.297292
0.281833
0.265996
0.249968
0.233917
0.217994
0.202329
0.187032
0.172195
0.157887
0.144164
0.131065
0.118612
0.106821
0.0956921
0.0852209
0.0753945
0.0661954
0.0576006
0.0495908
0.044764
0.0533171
0.0624874
0.0722965
0.0827682
0.0939211
0.105768
0.118315
0.131558
0.145485
0.160067
0.175263
0.191014
0.207245
0.223858
0.240734
0.257735
0.2747
0.291449
0.307783
0.32349
0.338348
0.35213
0.364611
0.375575
0.384825
0.392188
0.397521
0.400711
0.401696
0.400467
0.397039
0.391476
0.383896
0.374443
0.36329
0.350637
0.336697
0.321695
0.305859
0.289411
0.272564
0.255516
0.238448
0.221519
0.20487
0.188617
0.172856
0.157663