/*--------------------------------*- C++ -*----------------------------------*\
| =========                 |                                                 |
| \\      /  F ield         | OpenFOAM: The Open Source CFD Toolbox           |
|  \\    /   O peration     | Version:  2312                                  |
|   \\  /    A nd           | Website:  www.openfoam.com                      |
|    \\/     M anipulation  |                                                 |
\*---------------------------------------------------------------------------*/
FoamFile
{
    version     2.0;
    format      ascii;
    arch        "LSB;label=32;scalar=64";
    class       surfaceScalarField;
    location    "100";
    object      phi;
}
// * * * * * * * * * * * * * * * * * * * * * * * * * * * * * * * * * * * * * //

dimensions      [0 3 -1 0 0 0 0];

oriented        oriented;

internalField   nonuniform List<scalar> 
116611
(
0.029078
0.0106094
-0.0286747
-0.0110127
0.029478
0.0104978
-0.0108978
0.0298733
0.0103774
-0.0107727
0.0302637
0.0102476
-0.0106381
0.0306482
0.0101082
-0.0104927
0.0310331
0.00995758
-0.0103424
0.0314059
0.00979737
-0.0101702
0.0317798
0.00962669
-0.0100006
0.0321441
0.00944444
-0.00980874
0.0325036
0.00925105
-0.00961061
0.0328555
0.00904498
-0.00939686
0.0332017
0.00882667
-0.00917283
0.0335396
0.00859578
-0.0089337
0.0338709
0.00835133
-0.00868269
0.0341943
0.00809384
-0.00841715
0.0345064
0.00782359
-0.00813569
0.0348131
0.00753674
-0.00784344
0.0351089
0.0072381
-0.00753394
0.0353942
0.00692073
-0.00720603
0.0356688
0.00659148
-0.00686602
0.0359361
0.00624289
-0.00651019
0.0361904
0.00587949
-0.0061338
0.0364327
0.00549849
-0.00574083
0.0366648
0.00510132
-0.00533345
0.0368829
0.00468621
-0.00490429
0.0370911
0.00425277
-0.00446092
0.0372863
0.00379866
-0.00399394
0.0374617
0.00332749
-0.00350286
0.0376314
0.0028363
-0.00300597
0.0377776
0.00232434
-0.00247059
0.0379132
0.00179561
-0.00193115
0.0380329
0.00124125
-0.00136101
0.0381363
0.000666153
-0.000769567
0.0382219
7.12278e-05
-0.000156805
0.03829
-0.000549173
0.000481099
0.0383384
-0.0011891
0.00114066
0.0383749
-0.00185478
0.00181834
0.0383893
-0.00254384
0.00252943
0.0383851
-0.00325563
0.00325978
0.0383579
-0.00399486
0.00402204
0.0383108
-0.00475611
0.00480328
0.0382481
-0.00554465
0.00560737
0.0381612
-0.00635919
0.00644601
0.0380503
-0.00719834
0.0073093
0.0379185
-0.00806543
0.00819725
0.0377641
-0.00895841
0.00911276
0.0375879
-0.0098801
0.0100564
0.0373832
-0.0108286
0.0110333
0.0371573
-0.011805
0.012031
0.0369051
-0.01281
0.0130621
0.0366271
-0.0138445
0.0141225
0.0363252
-0.0149073
0.0152092
0.0359963
-0.0159997
0.0163286
0.0356389
-0.0171227
0.0174802
0.0352516
-0.0182748
0.0186621
0.0348372
-0.0194566
0.019871
0.0343939
-0.0206705
0.0211138
0.0339201
-0.0219152
0.0223891
0.0334157
-0.023192
0.0236964
0.0328776
-0.0244996
0.0250377
0.0323135
-0.0258375
0.0264016
0.0317183
-0.0272156
0.0278108
0.0310911
-0.0286322
0.0292595
0.0304352
-0.0300879
0.0307437
0.0297543
-0.0315873
0.0322682
0.0290391
-0.0331422
0.0338574
0.0282987
-0.0347505
0.0354909
0.0275253
-0.0364025
0.0371759
-0.0380885
0.0267007
0.038913
0.0286651
0.010208
-0.0282638
0.0290625
0.0101004
0.0294558
0.00998413
0.0298447
0.00985876
0.0302297
0.00972327
0.0306089
0.00957838
0.0309829
0.00942337
0.0313518
0.00925771
0.0317148
0.00908144
0.0320721
0.00889372
0.0324228
0.00869436
0.0327663
0.00848311
0.0331027
0.00825937
0.0334313
0.00802274
0.0337515
0.0077737
0.0340643
0.00751073
0.034367
0.00723411
0.034662
0.00694308
0.0349453
0.00663742
0.0352204
0.00631634
0.0354838
0.00597953
0.0357364
0.00562692
0.0359771
0.00525779
0.0362064
0.00487198
0.0364237
0.00446888
0.0366291
0.00404742
0.0368198
0.00360796
0.0369972
0.00315004
0.0371607
0.00267281
0.0373084
0.00217661
0.0374438
0.00166025
0.0375624
0.00112268
0.0376642
0.000564353
0.0377506
-1.52064e-05
0.0378186
-0.00061713
0.0378706
-0.00124109
0.0379039
-0.00188808
0.037918
-0.00255795
0.0379139
-0.00325156
0.0378889
-0.00396986
0.0378452
-0.00471237
0.0377803
-0.00547978
0.0376934
-0.0062723
0.0375857
-0.00709058
0.0374555
-0.00793531
0.0373033
-0.00880614
0.0371271
-0.00970392
0.0369273
-0.0106289
0.0367038
-0.0115815
0.0364556
-0.0125618
0.0361815
-0.0135704
0.0358817
-0.0146074
0.0355551
-0.0156731
0.0352006
-0.0167682
0.0348182
-0.0178925
0.0344078
-0.0190462
0.0339675
-0.0202302
0.0334972
-0.0214449
0.032996
-0.0226908
0.032465
-0.0239686
0.0319065
-0.025279
0.0313168
-0.0266259
0.0306964
-0.0280117
0.0300479
-0.0294394
0.029374
-0.0309134
0.0286704
-0.0324386
0.0279312
-0.0340113
0.0271471
-0.0356184
-0.0372495
0.0263081
0.028267
0.00980988
-0.0278688
0.0286617
0.00970573
0.0290527
0.00959309
0.0294398
0.00947166
0.0298221
0.009341
0.0301996
0.0092009
0.030572
0.00905097
0.0309388
0.00889083
0.0313001
0.00872022
0.0316551
0.00853869
0.0320035
0.00834593
0.0323451
0.00814158
0.0326792
0.00792524
0.0330054
0.00769652
0.0333239
0.00745516
0.033634
0.00720067
0.0339354
0.00693275
0.0342275
0.0066509
0.0345102
0.00635476
0.0347827
0.00604381
0.0350445
0.00571773
0.0352954
0.00537606
0.0355348
0.00501836
0.0357626
0.00464421
0.0359783
0.00425319
0.0361809
0.00384478
0.0363703
0.00341859
0.0365462
0.00297414
0.0367079
0.00251108
0.0368556
0.00202897
0.0369886
0.00152726
0.0371058
0.00100548
0.037207
0.000463087
0.0372921
-0.000100288
0.0373601
-0.000685087
0.0374107
-0.00129175
0.0374433
-0.00192066
0.0374577
-0.00257232
0.0374534
-0.00324725
0.0374294
-0.00394588
0.0373855
-0.0046685
0.0373211
-0.00541541
0.037236
-0.00618714
0.0371295
-0.00698415
0.037001
-0.00780674
0.03685
-0.0086552
0.0366761
-0.00952999
0.0364787
-0.0104315
0.0362571
-0.0113599
0.0360109
-0.0123156
0.0357393
-0.0132988
0.0354418
-0.0143099
0.0351177
-0.0153491
0.0347663
-0.0164167
0.0343868
-0.0175131
0.0339791
-0.0186385
0.0335424
-0.0197935
0.0330764
-0.0209789
0.0325809
-0.0221953
0.0320558
-0.0234435
0.0315014
-0.0247247
0.0309177
-0.0260421
0.0303052
-0.0273993
0.0296658
-0.0288
0.0289989
-0.0302465
0.0282992
-0.0317389
0.0275568
-0.0332689
0.0267605
-0.0348221
-0.0363925
0.0259035
0.0278851
0.00941437
-0.0274896
0.0282772
0.00931364
0.0286656
0.00920469
0.02905
0.00908725
0.02943
0.00896101
0.0298053
0.00882561
0.0301756
0.00868074
0.0305403
0.00852606
0.0308993
0.00836121
0.0312522
0.00818586
0.0315985
0.00799963
0.0319379
0.00780217
0.03227
0.00759312
0.0325944
0.00737211
0.0329108
0.00713875
0.0332188
0.0068927
0.033518
0.00663354
0.033808
0.00636088
0.0340885
0.00607431
0.0343588
0.00577342
0.0346188
0.0054578
0.0348678
0.00512701
0.0351055
0.00478064
0.0353315
0.00441825
0.0355453
0.00403943
0.0357464
0.0036437
0.0359344
0.00323059
0.0361088
0.00279969
0.0362693
0.0023506
0.0364154
0.00188286
0.0365466
0.001396
0.0366626
0.00088953
0.0367627
0.00036294
0.0368466
-0.000184154
0.0369137
-0.00075216
0.0369635
-0.00134156
0.0369956
-0.00195279
0.0370096
-0.00258629
0.0370048
-0.0032425
0.0369808
-0.00392183
0.036937
-0.00462471
0.0368731
-0.00535147
0.0367885
-0.00610256
0.0366827
-0.00687834
0.0365551
-0.0076792
0.0364054
-0.00850547
0.0362329
-0.0093575
0.036037
-0.0102356
0.0358172
-0.0111401
0.0355728
-0.0120712
0.0353032
-0.0130292
0.0350078
-0.0140145
0.0346859
-0.0150272
0.034337
-0.0160678
0.0339606
-0.0171367
0.0335563
-0.0182342
0.0331237
-0.0193608
0.0326621
-0.0205174
0.0321713
-0.0217044
0.0316512
-0.0229234
0.0311025
-0.024176
0.0305259
-0.0254656
0.0299222
-0.0267956
0.029291
-0.0281688
0.0286289
-0.0295844
0.0279277
-0.0310377
0.0271755
-0.0325167
0.0263632
-0.0340097
-0.0355189
0.0254896
0.0275202
0.00902147
-0.0271273
0.0279096
0.00892417
0.0282954
0.00881895
0.0286771
0.00870553
0.0290545
0.0085836
0.0294273
0.00845286
0.029795
0.008313
0.0301574
0.00816369
0.030514
0.00800458
0.0308645
0.00783533
0.0312086
0.00765558
0.0315458
0.00746498
0.0318757
0.00726318
0.032198
0.0070498
0.0325123
0.00682448
0.0328182
0.00658684
0.0331152
0.00633649
0.0334031
0.00607303
0.0336813
0.00579606
0.0339495
0.00550518
0.0342074
0.00519998
0.0344543
0.00488005
0.03469
0.00454496
0.034914
0.00419428
0.0351258
0.00382759
0.0353251
0.00344444
0.0355113
0.00304437
0.035684
0.00262697
0.0358428
0.00219179
0.0359873
0.00173839
0.036117
0.0012663
0.0362315
0.000775053
0.0363302
0.000264184
0.0364128
-0.000266711
0.0364787
-0.000818074
0.0365275
-0.00139036
0.0365587
-0.00198402
0.0365719
-0.00259947
0.0365666
-0.00323714
0.0365422
-0.00389746
0.0364983
-0.00458084
0.0364345
-0.00528764
0.0363502
-0.00601825
0.0362449
-0.00677305
0.0361181
-0.00755238
0.0359692
-0.00835659
0.0357976
-0.00918597
0.0356029
-0.0100408
0.0353843
-0.0109215
0.0351413
-0.0118282
0.0348733
-0.0127612
0.0345798
-0.013721
0.0342602
-0.0147077
0.0339141
-0.0157217
0.033541
-0.0167635
0.0331402
-0.0178334
0.0327113
-0.018932
0.0322539
-0.0200599
0.0317678
-0.0212183
0.0312534
-0.022409
0.0307117
-0.0236343
0.0301434
-0.0248972
0.029548
-0.0262003
0.0289227
-0.0275435
0.0282606
-0.0289223
0.0275515
-0.0303286
0.0267846
-0.0317499
0.0259555
-0.0331806
-0.0346343
0.0250708
0.0271721
0.00863092
-0.0267816
0.0275592
0.00853714
0.0279424
0.00843571
0.0283216
0.00832637
0.0286964
0.00820881
0.0290665
0.00808275
0.0294316
0.00794789
0.0297914
0.00780392
0.0301454
0.0076505
0.0304934
0.00748732
0.030835
0.00731401
0.0311698
0.00713023
0.0314973
0.00693563
0.0318173
0.00672985
0.0321292
0.00651252
0.0324328
0.00628326
0.0327276
0.00604169
0.0330132
0.00578742
0.0332892
0.00552005
0.0335552
0.00523918
0.0338108
0.0049444
0.0340556
0.0046353
0.0342891
0.00431147
0.0345109
0.00397247
0.0347206
0.00361788
0.0349178
0.00324727
0.0351019
0.00286019
0.0352727
0.00245621
0.0354296
0.00203488
0.0355722
0.00159575
0.0357002
0.00113837
0.0358129
0.000662292
0.0359101
0.000167044
0.0359911
-0.000347768
0.0360557
-0.000882611
0.0361032
-0.00143792
0.0361334
-0.00201415
0.0361456
-0.0026117
0.0361395
-0.00323102
0.0361145
-0.0038725
0.0360702
-0.00453655
0.0360061
-0.00522353
0.0359217
-0.00593382
0.0358164
-0.00666777
0.0356898
-0.00742573
0.0355412
-0.00820801
0.0353702
-0.00901493
0.0351761
-0.00984679
0.0349585
-0.0107039
0.0347169
-0.0115865
0.0344506
-0.012495
0.0341592
-0.0134296
0.0338421
-0.0143906
0.0334988
-0.0153784
0.0331287
-0.0163933
0.0327312
-0.0174359
0.0323059
-0.0185067
0.0318528
-0.0196068
0.0313722
-0.0207377
0.0308648
-0.0219016
0.0303313
-0.0231007
0.0297712
-0.0243372
0.0291821
-0.0256111
0.0285578
-0.0269192
0.0278896
-0.028254
0.0271668
-0.0296058
0.0263827
-0.0309657
0.0255402
-0.0323381
-0.0337459
0.0246518
0.0268407
0.00824235
-0.0264521
0.0272256
0.00815221
0.0276067
0.00805469
0.0279835
0.00794952
0.0283559
0.00783643
0.0287235
0.00771513
0.0290861
0.00758534
0.0294432
0.00744675
0.0297947
0.00729905
0.0301401
0.00714193
0.030479
0.00697505
0.0308112
0.00679808
0.0311362
0.00661066
0.0314536
0.00641245
0.031763
0.00620307
0.0320641
0.00598217
0.0323565
0.00574935
0.0326396
0.00550424
0.0329132
0.00524645
0.0331768
0.00497556
0.0334301
0.00469119
0.0336724
0.00439291
0.0339036
0.00408032
0.0341231
0.00375298
0.0343305
0.00341048
0.0345254
0.00305238
0.0347073
0.00267824
0.0348759
0.00228763
0.0350307
0.00188009
0.0351713
0.00145519
0.0352972
0.00101247
0.035408
0.000551478
0.0355033
7.17633e-05
0.0355826
-0.00042707
0.0356454
-0.000945496
0.0356915
-0.00148395
0.0357202
-0.00204286
0.0357311
-0.00262265
0.0357238
-0.00322373
0.0356978
-0.00384651
0.0356527
-0.00449137
0.0355878
-0.00515869
0.0355028
-0.00584882
0.0353972
-0.00656212
0.0352704
-0.00729892
0.0351219
-0.00805954
0.0349512
-0.00884429
0.0347579
-0.00965347
0.0345414
-0.0104874
0.0343011
-0.0113463
0.0340366
-0.0122304
0.0337472
-0.0131402
0.0334323
-0.0140757
0.0330915
-0.0150375
0.0327241
-0.016026
0.0323299
-0.0170417
0.0319088
-0.0180856
0.031461
-0.0191591
0.0309873
-0.020264
0.0304881
-0.0214023
0.0299628
-0.0225754
0.029409
-0.0237834
0.0288213
-0.0250235
0.0281917
-0.0262896
0.0275108
-0.0275731
0.0267708
-0.0288658
0.0259711
-0.030166
0.0251232
-0.0314902
-0.0328625
0.0242399
0.0265256
0.0078555
-0.0261387
0.0269087
0.00776909
0.0272878
0.00767557
0.0276626
0.00757468
0.0280329
0.00746616
0.0283983
0.00734972
0.0287586
0.00722509
0.0291133
0.00709197
0.0294623
0.00695007
0.0298052
0.00679908
0.0301415
0.00663868
0.0304711
0.00646854
0.0307934
0.00628832
0.0311082
0.00609768
0.031415
0.00589627
0.0317134
0.00568372
0.0320031
0.00545965
0.0322837
0.0052237
0.0325547
0.00497546
0.0328157
0.00471456
0.0330663
0.00444057
0.0333061
0.0041531
0.0335347
0.00385173
0.0337516
0.00353604
0.0339565
0.0032056
0.0341489
0.00285999
0.0343284
0.00249876
0.0344945
0.00212148
0.0346469
0.0017277
0.0347851
0.00131698
0.0349087
0.000888865
0.0350173
0.000442908
0.0351104
-2.13338e-05
0.0351876
-0.00050427
0.0352484
-0.00100637
0.0352926
-0.00152805
0.0353195
-0.00206976
0.0353287
-0.0026319
0.0353199
-0.00321489
0.0352925
-0.00381912
0.0352461
-0.00444498
0.0351802
-0.00509283
0.0350944
-0.00576304
0.0349883
-0.00645594
0.0348612
-0.00717186
0.0347128
-0.00791112
0.0345425
-0.00867399
0.0343498
-0.00946078
0.0341341
-0.0102717
0.033895
-0.0111071
0.0336319
-0.0119673
0.0333441
-0.0128524
0.0330311
-0.0137628
0.0326926
-0.014699
0.0323283
-0.0156616
0.0319381
-0.0166515
0.0315224
-0.0176699
0.0310817
-0.0187184
0.030616
-0.0197984
0.0301247
-0.020911
0.0296053
-0.022056
0.0290529
-0.023231
0.0284602
-0.0244307
0.0278184
-0.0256479
0.0271202
-0.0268748
0.026363
-0.0281086
0.0255543
-0.0293573
0.0247126
-0.0306485
-0.0319853
0.0238353
0.026227
0.00747031
-0.0258418
0.0266084
0.00738765
0.0269858
0.00729818
0.0273589
0.00720164
0.0277273
0.00709775
0.0280907
0.00698626
0.0284489
0.00686689
0.0288016
0.00673934
0.0291483
0.00660333
0.0294888
0.00645856
0.0298228
0.00630472
0.0301498
0.00614149
0.0304696
0.00596854
0.0307818
0.00578554
0.0310859
0.00559213
0.0313816
0.00538797
0.0316686
0.00517268
0.0319464
0.00494591
0.0322146
0.00470725
0.0324728
0.00445633
0.0327207
0.00419274
0.0329577
0.00391608
0.0331835
0.00362593
0.0333976
0.00332189
0.0335997
0.00300351
0.0337894
0.00267037
0.0339661
0.00232204
0.0341295
0.00195807
0.0342792
0.00157802
0.0344147
0.00118144
0.0345357
0.000767895
0.0346417
0.000336922
0.0347322
-0.000111905
0.034807
-0.000579022
0.0348655
-0.00106488
0.0349074
-0.0015699
0.0349321
-0.00209453
0.0349394
-0.00263916
0.0349287
-0.00320422
0.0348997
-0.00379009
0.0348519
-0.00439715
0.0347848
-0.00502577
0.034698
-0.00567628
0.0345911
-0.00634903
0.0344636
-0.00704431
0.0343149
-0.00776244
0.0341446
-0.00850368
0.0339521
-0.0092683
0.033737
-0.0100566
0.0334986
-0.0108688
0.0332364
-0.0117051
0.0329501
-0.0125661
0.0326393
-0.013452
0.0323038
-0.0143635
0.0319436
-0.0153015
0.0315592
-0.016267
0.0311505
-0.0172613
0.0307177
-0.0182855
0.0302595
-0.0193402
0.0297734
-0.0204249
0.0292547
-0.0215374
0.0286969
-0.0226731
0.0280919
-0.0238258
0.0274327
-0.0249887
0.026716
-0.0261581
0.0259468
-0.0273393
0.0251401
-0.0285505
0.0243129
-0.0298214
-0.031098
0.0234256
0.0259458
0.0070868
-0.0255623
0.0263256
0.0070079
0.0267013
0.0069225
0.0270726
0.00683032
0.0274392
0.00673112
0.0278009
0.00662462
0.0281572
0.00651056
0.0285079
0.00638866
0.0288526
0.00625863
0.029191
0.00612017
0.0295227
0.00597298
0.0298475
0.00581675
0.0301648
0.00565115
0.0304745
0.00547587
0.0307761
0.00529055
0.0310692
0.00509486
0.0313535
0.00488842
0.0316285
0.00467088
0.0318939
0.00444185
0.0321493
0.00420096
0.0323942
0.00394781
0.0326283
0.00368199
0.0328511
0.0034031
0.0330623
0.00311071
0.0332614
0.00280441
0.033448
0.00248376
0.0336217
0.00214832
0.0337821
0.00179766
0.0339288
0.00143133
0.0340614
0.00104888
0.0341794
0.000649864
0.0342825
0.00023383
0.0343703
-0.000199644
0.0344422
-0.000651011
0.0344981
-0.00112072
0.0345374
-0.00160919
0.0345597
-0.00211685
0.0345647
-0.00264413
0.0345519
-0.00319141
0.0345209
-0.00375909
0.0344712
-0.00434753
0.0344026
-0.0049571
0.0343144
-0.00558812
0.0342063
-0.00624092
0.0340778
-0.00691579
0.0339283
-0.00761302
0.0337576
-0.00833288
0.0335649
-0.00907564
0.0333499
-0.00984158
0.0331122
-0.010631
0.0328513
-0.0114443
0.0325671
-0.0122818
0.0322595
-0.0131443
0.0319285
-0.0140325
0.0315743
-0.0149473
0.0311968
-0.0158896
0.0307957
-0.0168602
0.0303695
-0.0178593
0.0299154
-0.0188861
0.0294288
-0.0199384
0.0289039
-0.0210124
0.0283333
-0.0221025
0.0277105
-0.023203
0.0270321
-0.0243103
0.0263012
-0.0254272
0.0255307
-0.0265688
0.0247386
-0.0277585
0.0239208
-0.0290037
-0.0301382
0.0229611
0.0256834
0.00670506
-0.0253016
0.0260614
0.00662991
0.0264353
0.00654857
0.0268049
0.00646077
0.0271697
0.00636626
0.0275295
0.00626479
0.027884
0.00615609
0.0282328
0.00603987
0.0285756
0.00591587
0.0289119
0.00578378
0.0292416
0.00564332
0.0295642
0.00549417
0.0298793
0.00533602
0.0301866
0.00516854
0.0304858
0.00499141
0.0307764
0.00480426
0.031058
0.00460676
0.0313304
0.00439855
0.031593
0.00417923
0.0318455
0.00394845
0.0320875
0.0037058
0.0323186
0.00345089
0.0325384
0.00318331
0.0327465
0.00290264
0.0329424
0.00260845
0.0331259
0.00230032
0.0332964
0.00197781
0.0334535
0.00164048
0.033597
0.00128788
0.0337263
0.000919559
0.0338411
0.000535067
0.033941
0.000133947
0.0340255
-0.000284212
0.0340944
-0.000719883
0.0341472
-0.0011735
0.0341835
-0.0016455
0.034203
-0.00213631
0.0342052
-0.00264633
0.0341897
-0.00317597
0.0341562
-0.0037256
0.0341043
-0.00429559
0.0340335
-0.0048863
0.0339434
-0.00549804
0.0338336
-0.00613113
0.0337037
-0.00678587
0.0335532
-0.00746254
0.0333818
-0.00816143
0.033189
-0.00888283
0.0329745
-0.00962708
0.032738
-0.0103945
0.0324795
-0.0111857
0.0321988
-0.0120012
0.0318959
-0.0128415
0.031571
-0.0137076
0.0312236
-0.0145999
0.0308529
-0.0155189
0.0304571
-0.0164644
0.0300334
-0.0174355
0.0295771
-0.0184299
0.0290829
-0.0194442
0.0285442
-0.0204737
0.0279552
-0.0215135
0.0273126
-0.0225604
0.0266185
-0.0236163
0.0258841
-0.0246928
0.0251271
-0.0258118
0.0243558
-0.0269872
0.0235136
-0.0281615
-0.0290245
0.0223999
0.025441
0.00632506
-0.025061
0.0258172
0.00625369
0.0261893
0.00617643
0.0265571
0.00609303
0.0269201
0.00600324
0.0272781
0.00590681
0.0276307
0.00580348
0.0279776
0.00569299
0.0283184
0.00557506
0.0286528
0.0054494
0.0289804
0.00531572
0.0293008
0.00517372
0.0296138
0.00502308
0.0299188
0.00486349
0.0302156
0.00469462
0.0305037
0.00451612
0.0307828
0.00432766
0.0310525
0.00412886
0.0313124
0.00391935
0.0315621
0.00369877
0.0318012
0.00346673
0.0320292
0.00322282
0.0322459
0.00296663
0.0324508
0.00269776
0.0326435
0.00241577
0.0328236
0.00212023
0.0329907
0.00181072
0.0331444
0.00148677
0.0332843
0.00114794
0.0334101
0.000793783
0.0335213
0.000423838
0.0336176
3.76486e-05
0.0336986
-0.000365204
0.0337639
-0.000785197
0.0338132
-0.00122277
0.033846
-0.00167836
0.0338621
-0.00215238
0.033861
-0.00264525
0.0338424
-0.00315737
0.033806
-0.00368913
0.0337513
-0.00424087
0.0336779
-0.00481296
0.0335856
-0.00540572
0.0334739
-0.00601946
0.0333426
-0.0066545
0.0331911
-0.00731113
0.0330194
-0.0079897
0.0328271
-0.00869054
0.0326141
-0.00941405
0.0323802
-0.0101607
0.0321255
-0.010931
0.0318497
-0.0117254
0.0315528
-0.0125446
0.0312339
-0.0133887
0.030892
-0.0142579
0.0305248
-0.0151517
0.0301293
-0.0160689
0.0297012
-0.0170074
0.0292354
-0.0179641
0.0287262
-0.0189349
0.0281683
-0.0199158
0.0275589
-0.0209041
0.0268997
-0.0219012
0.0262003
-0.0229168
0.0254778
-0.0239704
0.0247462
-0.0250802
0.0239799
-0.0262209
0.0230321
-0.0272137
-0.0275776
0.0215852
0.02522
0.00594673
-0.0248416
0.0255945
0.00587917
0.0259649
0.00580603
0.0263309
0.00572706
0.0266921
0.00564202
0.0270482
0.00555068
0.0273989
0.00545278
0.0277439
0.00534805
0.0280827
0.00523623
0.028415
0.00511704
0.0287406
0.0049902
0.0290589
0.00485541
0.0293696
0.00471235
0.0296724
0.00456073
0.0299668
0.0044002
0.0302525
0.00423044
0.030529
0.0040511
0.0307961
0.00386182
0.0310532
0.00366223
0.0313
0.00345197
0.0315361
0.00323063
0.0317611
0.00299783
0.0319745
0.00275316
0.0321761
0.00249619
0.0323653
0.00222651
0.0325419
0.00194368
0.0327054
0.00164725
0.0328554
0.00133678
0.0329915
0.00101181
0.0331134
0.000671881
0.0332207
0.000316537
0.033313
-5.4674e-05
0.03339
-0.000442205
0.0334514
-0.000846523
0.0334967
-0.00126808
0.0335256
-0.0017073
0.0335379
-0.00216464
0.0335331
-0.0026405
0.033511
-0.00313528
0.0334713
-0.00364938
0.0334136
-0.00418316
0.0333376
-0.00473698
0.033243
-0.00531118
0.0331297
-0.00590611
0.0329973
-0.00652209
0.0328456
-0.00715947
0.0326745
-0.00781863
0.032484
-0.00849994
0.0322737
-0.00920383
0.0320438
-0.0099307
0.0317937
-0.0106809
0.0315231
-0.0114548
0.0312309
-0.0122523
0.0309154
-0.0130733
0.0305744
-0.0139169
0.0302047
-0.014782
0.0298022
-0.0156664
0.0293623
-0.0165675
0.02888
-0.0174817
0.0283508
-0.0184057
0.0277722
-0.0193372
0.027146
-0.0202779
0.0264809
-0.021236
0.0257926
-0.0222286
0.0250968
-0.0232746
0.0243819
-0.0243652
0.0235492
-0.0253883
0.0223397
-0.0260041
-0.0256613
0.0204234
0.0250216
0.00556988
-0.0246448
0.0253946
0.00550619
0.0257634
0.00543723
0.0261277
0.00536275
0.0264872
0.00528253
0.0268416
0.00519632
0.0271904
0.0051039
0.0275335
0.00500499
0.0278704
0.00489935
0.0282007
0.0047867
0.0285242
0.00466677
0.0288403
0.00453925
0.0291488
0.00440386
0.0294493
0.00426028
0.0297413
0.00410819
0.0300245
0.00394726
0.0302984
0.00377715
0.0305627
0.00359749
0.030817
0.00340794
0.0310609
0.00320811
0.0312939
0.00299761
0.0315157
0.00277605
0.0317258
0.00254302
0.0319239
0.0022981
0.0321096
0.00204086
0.0322824
0.00177085
0.032442
0.00148764
0.032588
0.00119076
0.0327201
0.000879753
0.0328378
0.000554153
0.0329408
0.000213487
0.0330289
-0.000142694
0.0331015
-0.000514874
0.0331585
-0.000903521
0.0331995
-0.00130909
0.0332243
-0.00173204
0.0332325
-0.00217282
0.0332238
-0.00263184
0.0331981
-0.00310954
0.033155
-0.00360631
0.0330944
-0.00412253
0.033016
-0.0046586
0.0329197
-0.00521488
0.0328053
-0.00579173
0.0326727
-0.00638951
0.0325219
-0.00700859
0.0323526
-0.00764933
0.0321647
-0.00831204
0.0319578
-0.00899701
0.0317316
-0.00970443
0.031485
-0.0104343
0.0312167
-0.0111865
0.0309249
-0.0119605
0.0306071
-0.0127555
0.0302602
-0.0135701
0.0298806
-0.0144023
0.0294639
-0.0152498
0.0290059
-0.0161095
0.0285029
-0.0169787
0.027953
-0.0178558
0.0273583
-0.0187426
0.0267271
-0.0196467
0.0260742
-0.0205832
0.0254156
-0.0215699
0.0247461
-0.0226051
0.0239925
-0.0236117
0.0229432
-0.0243389
0.0212552
-0.0243162
-0.0231386
0.0187325
0.0248474
0.00519431
-0.0244718
0.025219
0.00513456
0.0255864
0.00506984
0.0259492
0.00499991
0.0263072
0.00492457
0.0266599
0.00484357
0.0270071
0.0047567
0.0273484
0.00466369
0.0276835
0.00456431
0.0280119
0.00445828
0.0283333
0.00434534
0.0286474
0.00422519
0.0289537
0.00409756
0.0292519
0.00396212
0.0295415
0.00381857
0.0298221
0.00366658
0.0300935
0.00350582
0.0303551
0.00333592
0.0306065
0.00315653
0.0308473
0.00296727
0.0310772
0.00276775
0.0312956
0.00255758
0.0315023
0.00233634
0.0316968
0.00210362
0.0318787
0.00185896
0.0320476
0.00160193
0.0322032
0.00133208
0.032345
0.00104892
0.0324728
0.000752001
0.0325861
0.000440831
0.0326847
0.000114924
0.0327681
-0.000226173
0.0328362
-0.00058298
0.0328887
-0.000955973
0.0329252
-0.00134563
0.0329456
-0.00175244
0.0329497
-0.00217684
0.0329371
-0.00261931
0.0329079
-0.00308029
0.0328618
-0.00356019
0.0327987
-0.00405944
0.0327185
-0.00457843
0.0326212
-0.00511754
0.0325066
-0.00567713
0.0323746
-0.00625753
0.032225
-0.00685901
0.0320575
-0.0074818
0.0318715
-0.00812604
0.0316662
-0.00879174
0.0314405
-0.00947873
0.0311928
-0.0101867
0.0309212
-0.0109149
0.0306232
-0.0116625
0.0302959
-0.0124282
0.0299359
-0.0132101
0.0295396
-0.014006
0.0291034
-0.0148135
0.0286242
-0.0156303
0.028101
-0.0164555
0.0275365
-0.0172913
0.026939
-0.0181451
0.026323
-0.0190306
0.0257038
-0.019964
0.0250799
-0.020946
0.0243924
-0.0219177
0.0234671
-0.0226863
0.0219916
-0.0228634
0.0196796
-0.0220042
-0.0200053
0.0165463
0.0246989
0.0048198
-0.0243244
0.0250694
0.00476404
0.0254356
0.00470362
0.0257972
0.00463831
0.0261539
0.00456792
0.0265053
0.00449221
0.026851
0.00441096
0.0271907
0.00432394
0.0275241
0.0042309
0.0278508
0.00413159
0.0281704
0.00402574
0.0284826
0.00391307
0.0287868
0.0037933
0.0290828
0.00366613
0.0293701
0.00353124
0.0296484
0.00338833
0.0299172
0.00323704
0.030176
0.00307704
0.0304246
0.00290796
0.0306625
0.00272943
0.0308891
0.00254105
0.0311043
0.00234244
0.0313075
0.00213316
0.0314983
0.00191279
0.0316764
0.00168089
0.0318413
0.001437
0.0319927
0.00118066
0.0321303
0.000911372
0.0322536
0.000628659
0.0323624
0.00033202
0.0324564
2.09538e-05
0.0325352
-0.000305029
0.0325987
-0.000646469
0.0326466
-0.00100387
0.0326788
-0.00137776
0.0326949
-0.00176862
0.032695
-0.00217695
0.032679
-0.00260324
0.0326466
-0.00304795
0.032598
-0.00351153
0.0325329
-0.00399437
0.0324513
-0.00449686
0.0323531
-0.00501933
0.032238
-0.00556204
0.0321057
-0.00612521
0.0319556
-0.00670895
0.0317871
-0.00731326
0.0315991
-0.00793802
0.0313903
-0.00858294
0.0311591
-0.00924757
0.0309036
-0.00993119
0.0306216
-0.0106328
0.0303103
-0.0113513
0.0299669
-0.0120848
0.0295882
-0.0128314
0.0291712
-0.013589
0.0287137
-0.014356
0.0282155
-0.0151322
0.0276803
-0.0159202
0.0271168
-0.0167278
0.0265392
-0.0175676
0.0259621
-0.0184535
0.0253841
-0.0193859
0.0247535
-0.0203154
0.0239169
-0.0210811
0.022595
-0.0213644
0.0204924
-0.0207609
0.0175852
-0.0190969
-0.0166687
0.0142486
0.0245786
0.00444608
-0.0242049
0.0249483
0.00439436
0.0253136
0.00433829
0.0256742
0.00427767
0.0260298
0.0042123
0.0263801
0.00414195
0.0267247
0.00406641
0.0270632
0.00398546
0.0273952
0.00389886
0.0277204
0.00380636
0.0280385
0.0037077
0.0283489
0.00360262
0.0286514
0.00349083
0.0289455
0.00337205
0.0292307
0.00324597
0.0295068
0.00311226
0.0297732
0.00297061
0.0300296
0.00282066
0.0302755
0.00266205
0.0305105
0.00249441
0.0307343
0.00231735
0.0309462
0.00213046
0.0311461
0.00193332
0.0313334
0.00172549
0.0315077
0.00150652
0.0316688
0.00127593
0.0318162
0.00103325
0.0319496
0.000777967
0.0320687
0.000509579
0.0321732
0.000227561
0.0322627
-6.86021e-05
0.0323372
-0.000379466
0.0323963
-0.000705582
0.0324399
-0.0010475
0.0324679
-0.00140575
0.0324801
-0.00178086
0.0324765
-0.00217336
0.032457
-0.00258372
0.0324215
-0.00301241
0.0323698
-0.00345984
0.0323018
-0.00392638
0.0322173
-0.00441232
0.0321158
-0.00491791
0.0319971
-0.00544327
0.0318603
-0.00598845
0.0317047
-0.00655337
0.0315293
-0.00713783
0.0313328
-0.00774148
0.0311136
-0.00836379
0.0308701
-0.00900402
0.0306001
-0.00966123
0.0303014
-0.0103342
0.0299715
-0.0110213
0.0296076
-0.0117209
0.0292075
-0.0124313
0.0287698
-0.0131514
0.0282955
-0.0138818
0.0277893
-0.014626
0.0272609
-0.0153918
0.0267244
-0.0161913
0.0261928
-0.0170359
0.0256621
-0.0179229
0.025081
-0.0188047
0.0243069
-0.0195413
0.0230824
-0.0198566
0.0211179
-0.0193999
0.0183328
-0.0179758
0.015017
-0.0157811
-0.013252
0.0116003
0.0244895
0.00407282
-0.0241163
0.0248587
0.00402518
0.0252235
0.00397352
0.0255835
0.00391763
0.0259385
0.00385732
0.026288
0.0037924
0.0266318
0.00372263
0.0269694
0.00364782
0.0273006
0.00356774
0.0276248
0.00348214
0.0279417
0.00339077
0.0282509
0.00329338
0.0285521
0.00318969
0.0288447
0.00307941
0.0291285
0.00296225
0.0294028
0.00283789
0.0296674
0.002706
0.0299219
0.00256625
0.0301656
0.00241826
0.0303984
0.00226168
0.0306196
0.00209609
0.030829
0.0019211
0.0310261
0.00173627
0.0312104
0.00154115
0.0313816
0.00133529
0.0315394
0.00111818
0.0316833
0.000889345
0.031813
0.000648246
0.0319282
0.000394354
0.0320287
0.000127117
0.0321141
-0.000154005
0.0321842
-0.000449617
0.0322389
-0.000760279
0.032278
-0.00108656
0.0323012
-0.00142902
0.0323086
-0.00178819
0.0322998
-0.0021646
0.0322748
-0.00255871
0.0322334
-0.00297097
0.0321753
-0.00340175
0.0321002
-0.00385134
0.0320079
-0.00431996
0.0318977
-0.00480774
0.0317691
-0.00531468
0.0316214
-0.00584068
0.0314535
-0.0063855
0.0312644
-0.00694874
0.0310527
-0.00752985
0.030817
-0.00812808
0.0305555
-0.00874247
0.0302661
-0.00937182
0.0299466
-0.0100147
0.0295951
-0.0106698
0.0292099
-0.0113357
0.0287907
-0.0120121
0.02834
-0.0127006
0.0278638
-0.0134056
0.0273729
-0.0141351
0.0268811
-0.0149
0.0263989
-0.0157091
0.0259172
-0.0165542
0.0253788
-0.0173845
0.0246419
-0.0180679
0.0234642
-0.0183635
0.0215746
-0.0179671
0.018875
-0.0167003
0.0156076
-0.0147084
0.0121947
-0.0123682
-0.0100379
0.00898062
0.0244373
0.00369948
-0.024064
0.0248066
0.00365594
0.0251714
0.0036087
0.0255315
0.00355757
0.0258864
0.00350236
0.0262359
0.00344288
0.0265796
0.00337893
0.0269171
0.00331031
0.0272481
0.00323678
0.0275721
0.00315813
0.0278888
0.00307412
0.0281976
0.00298449
0.0284984
0.00288897
0.0287905
0.00278729
0.0290736
0.00267915
0.0293472
0.00256425
0.029611
0.00244227
0.0298644
0.00231286
0.0301069
0.00217567
0.0303383
0.00203032
0.030558
0.00187643
0.0307655
0.00171357
0.0309604
0.00154132
0.0311424
0.00135922
0.0313109
0.00116679
0.0314655
0.000963529
0.0316059
0.000748926
0.0317317
0.000522439
0.0318426
0.000283508
0.0319382
3.1558e-05
0.0320181
-0.00023399
0.0320823
-0.000513749
0.0321303
-0.000808305
0.032162
-0.00111825
0.0321771
-0.00144415
0.0321755
-0.00178657
0.0321569
-0.00214603
0.0321212
-0.002523
0.0320681
-0.0029179
0.0319974
-0.00333106
0.0319088
-0.00376273
0.0318019
-0.00421305
0.0316763
-0.00468206
0.0315312
-0.00516965
0.0313661
-0.00567555
0.03118
-0.00619937
0.0309718
-0.00674052
0.0307401
-0.00729823
0.0304836
-0.00787154
0.0302005
-0.00845931
0.0298889
-0.00906031
0.0295476
-0.00967343
0.0291759
-0.0102981
0.028775
-0.0109347
0.0283489
-0.011586
0.0279054
-0.0122571
0.0274564
-0.0129565
0.0270145
-0.0136932
0.0265856
-0.0144711
0.0261521
-0.0152756
0.0256451
-0.0160472
0.0249167
-0.0166561
0.0237334
-0.0168846
0.0218469
-0.016477
0.0191741
-0.0152943
0.0159341
-0.0134603
0.0125292
-0.0113035
0.00929726
-0.00913625
-0.00722787
0.00648722
0.0244316
0.00332515
-0.0240573
0.0248019
0.00328569
0.0251677
0.00324286
0.0255288
0.00319648
0.0258848
0.00314637
0.0262353
0.00309235
0.02658
0.00303423
0.0269185
0.00297182
0.0272504
0.0029049
0.0275753
0.00283327
0.0278927
0.00275669
0.0282022
0.00267493
0.0285035
0.00258772
0.028796
0.0024948
0.0290792
0.00239588
0.0293528
0.00229067
0.0296162
0.00217886
0.029869
0.0020601
0.0301106
0.00193406
0.0303406