/*--------------------------------*- C++ -*----------------------------------*\
| =========                 |                                                 |
| \\      /  F ield         | OpenFOAM: The Open Source CFD Toolbox           |
|  \\    /   O peration     | Version:  2312                                  |
|   \\  /    A nd           | Website:  www.openfoam.com                      |
|    \\/     M anipulation  |                                                 |
\*---------------------------------------------------------------------------*/
FoamFile
{
    version     2.0;
    format      ascii;
    arch        "LSB;label=32;scalar=64";
    class       volVectorField;
    location    "100";
    object      U;
}
// * * * * * * * * * * * * * * * * * * * * * * * * * * * * * * * * * * * * * //

dimensions      [0 1 -1 0 0 0 0];

internalField   nonuniform List<vector> 
76025
(
(0.97257 -0.199766 0)
(0.977455 -0.201013 7.81966e-21)
(0.982395 -0.202155 0)
(0.987377 -0.203202 0)
(0.992301 -0.204155 -1.14023e-20)
(0.997411 -0.20484 -1.87674e-20)
(1.0025 -0.205563 3.04175e-20)
(1.00767 -0.206029 -1.2241e-20)
(1.01283 -0.206471 -2.88435e-21)
(1.01802 -0.206785 2.19038e-21)
(1.0232 -0.206964 1.85778e-22)
(1.02842 -0.206964 1.5775e-21)
(1.03368 -0.206901 -2.37677e-21)
(1.03894 -0.206635 0)
(1.04427 -0.206169 -1.27069e-21)
(1.0495 -0.205757 0)
(1.05477 -0.205001 0)
(1.06002 -0.204299 0)
(1.06527 -0.203326 -3.60513e-21)
(1.07042 -0.202405 4.72023e-21)
(1.07558 -0.201197 5.40294e-21)
(1.0808 -0.199911 1.80459e-20)
(1.08594 -0.198482 -1.2433e-20)
(1.09105 -0.196905 -2.26084e-20)
(1.09611 -0.195277 -1.3094e-21)
(1.1011 -0.193644 -1.02174e-20)
(1.10617 -0.191631 2.82144e-20)
(1.1111 -0.189676 -2.9296e-20)
(1.116 -0.187519 1.04873e-20)
(1.12088 -0.185088 -1.11732e-20)
(1.1256 -0.182934 -1.1992e-20)
(1.13026 -0.18068 2.6657e-20)
(1.13494 -0.178038 -4.09265e-20)
(1.13952 -0.175644 -7.81961e-21)
(1.14403 -0.172952 3.78337e-20)
(1.14841 -0.170437 3.41425e-22)
(1.15278 -0.167776 -7.75143e-21)
(1.15718 -0.164811 4.09434e-21)
(1.16151 -0.162056 1.37844e-22)
(1.16573 -0.159131 -6.30223e-21)
(1.16983 -0.156342 4.18254e-21)
(1.17394 -0.153475 -2.12103e-21)
(1.1781 -0.150237 4.28265e-21)
(1.18218 -0.1473 -8.74598e-21)
(1.18616 -0.144222 -9.06977e-21)
(1.19015 -0.141316 1.7628e-20)
(1.19415 -0.138138 1.84528e-20)
(1.19815 -0.135134 -5.55942e-20)
(1.2021 -0.132164 3.68074e-20)
(1.2061 -0.129281 3.17783e-23)
(1.21014 -0.126433 -9.43802e-20)
(1.21423 -0.123539 -3.76194e-20)
(1.21841 -0.120657 3.85723e-20)
(1.22264 -0.117819 0)
(1.22693 -0.115032 -3.84575e-20)
(1.23131 -0.112505 -3.9402e-20)
(1.23584 -0.109868 7.52486e-22)
(1.24053 -0.107326 -3.93255e-20)
(1.24536 -0.104852 4.05219e-20)
(1.25026 -0.102289 -1.19876e-19)
(1.25545 -0.100014 -8.17284e-20)
(1.26114 -0.0978833 -8.20774e-22)
(1.26717 -0.0958218 0)
(1.27364 -0.0939124 2.12772e-19)
(1.28079 -0.0920494 -8.5008e-20)
(1.28895 -0.0907506 4.27476e-20)
(1.29789 -0.0894863 -8.6614e-20)
(1.30766 -0.0879331 8.73417e-20)
(1.31816 -0.0867725 1.73251e-19)
(0.97036 -0.208383 8.75111e-21)
(0.9755 -0.209663 2.27055e-20)
(0.980682 -0.210812 -3.05628e-20)
(0.985911 -0.211828 0)
(0.991143 -0.212749 2.763e-20)
(0.996476 -0.213497 -2.86306e-21)
(1.0018 -0.214134 -1.87566e-20)
(1.00717 -0.214622 0)
(1.01258 -0.214975 1.84834e-22)
(1.01801 -0.215204 -2.24377e-21)
(1.02346 -0.2153 1.53257e-21)
(1.02893 -0.21525 2.74366e-22)
(1.03439 -0.215071 0)
(1.03987 -0.214751 0)
(1.04536 -0.214246 -4.34772e-21)
(1.05082 -0.213657 9.67713e-21)
(1.0563 -0.212874 3.10754e-21)
(1.06174 -0.212002 -1.17704e-20)
(1.06718 -0.210953 7.94414e-21)
(1.07256 -0.209808 -4.82342e-21)
(1.07794 -0.208505 6.6949e-21)
(1.08326 -0.207077 -1.22515e-20)
(1.08854 -0.205518 1.50818e-20)
(1.09378 -0.203823 -2.39946e-20)
(1.09897 -0.202006 1.65874e-20)
(1.10413 -0.200092 2.85244e-20)
(1.10924 -0.198033 -1.95384e-20)
(1.11426 -0.195893 0)
(1.11922 -0.193628 0)
(1.12412 -0.191262 -1.26933e-20)
(1.12895 -0.188806 0)
(1.13375 -0.186259 -1.42708e-20)
(1.13847 -0.183619 1.50617e-20)
(1.1431 -0.180925 -2.31844e-20)
(1.14766 -0.178155 3.3437e-22)
(1.15215 -0.175314 -8.01535e-21)
(1.1566 -0.172373 0)
(1.16096 -0.169409 -1.7172e-20)
(1.16524 -0.166434 1.30683e-20)
(1.16946 -0.163439 -1.08964e-20)
(1.17362 -0.160394 6.66772e-21)
(1.17773 -0.157287 -7.42041e-23)
(1.18179 -0.154209 2.4653e-21)
(1.18579 -0.151169 -2.28887e-21)
(1.18976 -0.148109 1.90027e-20)
(1.19372 -0.145032 -9.59082e-21)
(1.19766 -0.141976 -9.91782e-21)
(1.20158 -0.138981 1.90339e-20)
(1.20551 -0.135982 5.84372e-20)
(1.20947 -0.132998 5.97042e-24)
(1.21345 -0.130051 5.87729e-20)
(1.21745 -0.127142 -1.99916e-20)
(1.22152 -0.124302 -5.99228e-20)
(1.22564 -0.12155 3.95636e-20)
(1.22984 -0.118867 0)
(1.23413 -0.116212 1.21918e-19)
(1.23853 -0.113635 9.0193e-22)
(1.24307 -0.11118 -4.06422e-20)
(1.24776 -0.10883 -4.16766e-20)
(1.25266 -0.106607 0)
(1.25785 -0.104436 4.13302e-20)
(1.26343 -0.102405 1.27555e-19)
(1.26943 -0.100589 0)
(1.27596 -0.098968 -8.6862e-20)
(1.28324 -0.0975296 4.51049e-20)
(1.29148 -0.0963328 -8.85401e-20)
(1.30054 -0.0953827 4.37354e-20)
(1.3102 -0.0945327 -8.91009e-20)
(1.3198 -0.0939677 -8.85946e-20)
(0.968083 -0.217533 -4.30953e-20)
(0.973453 -0.218815 2.60678e-20)
(0.978879 -0.219964 -7.38102e-21)
(0.984363 -0.220976 2.49249e-20)
(0.98989 -0.221854 -3.05737e-20)
(0.995455 -0.222595 -1.86483e-20)
(1.00105 -0.223192 2.27459e-20)
(1.00668 -0.223646 0)
(1.01234 -0.223954 2.16825e-22)
(1.01803 -0.224116 0)
(1.02373 -0.224133 -1.02925e-21)
(1.02944 -0.224003 5.55714e-22)
(1.03514 -0.223725 -3.41305e-21)
(1.04084 -0.223301 2.88582e-21)
(1.04654 -0.222725 -1.67547e-21)
(1.05223 -0.221999 -8.37328e-21)
(1.0579 -0.221127 2.80606e-21)
(1.06356 -0.220106 3.88761e-21)
(1.06919 -0.218945 1.55496e-20)
(1.07479 -0.217636 -1.04529e-20)
(1.08034 -0.216191 -6.62431e-21)
(1.08584 -0.21461 1.49012e-20)
(1.09129 -0.212895 -6.80662e-21)
(1.09669 -0.211045 -8.89529e-21)
(1.10204 -0.209067 0)
(1.10732 -0.206968 1.04213e-20)
(1.11252 -0.204762 1.12083e-20)
(1.11765 -0.202441 -1.05732e-20)
(1.12271 -0.200006 0)
(1.1277 -0.197471 2.6378e-20)
(1.13263 -0.194829 -1.43308e-20)
(1.13748 -0.192107 -7.07484e-22)
(1.14224 -0.189316 0)
(1.14692 -0.186447 8.02664e-21)
(1.15152 -0.183514 -2.53341e-20)
(1.15604 -0.180516 1.6846e-20)
(1.16047 -0.177474 0)
(1.16483 -0.174396 1.34249e-20)
(1.16911 -0.171279 -1.35276e-20)
(1.17333 -0.168136 -2.25989e-21)
(1.17747 -0.164964 0)
(1.18155 -0.161784 -4.72119e-21)
(1.18558 -0.158604 -2.41658e-21)
(1.18955 -0.155417 2.36632e-21)
(1.19349 -0.152235 -1.44114e-20)
(1.19739 -0.149069 -9.957e-21)
(1.20126 -0.145935 1.95461e-20)
(1.20513 -0.142832 -2.01521e-20)
(1.20898 -0.139764 2.02872e-20)
(1.21285 -0.136746 -1.99575e-20)
(1.21673 -0.133791 -2.0069e-20)
(1.22064 -0.130896 4.11741e-20)
(1.22459 -0.128068 0)
(1.2286 -0.125312 4.15391e-20)
(1.23267 -0.122633 -8.05646e-23)
(1.23683 -0.120042 -4.20835e-20)
(1.24111 -0.11756 -4.23791e-20)
(1.24554 -0.11519 8.45822e-20)
(1.25015 -0.11294 1.91367e-22)
(1.25499 -0.110815 4.33085e-20)
(1.26012 -0.108819 -8.72251e-20)
(1.26564 -0.107013 -4.36396e-20)
(1.27165 -0.105425 1.06626e-21)
(1.27829 -0.104066 -4.38334e-20)
(1.28573 -0.102949 -4.36687e-20)
(1.29403 -0.102087 -1.34056e-19)
(1.30291 -0.10146 0)
(1.31195 -0.1009 -4.58513e-20)
(1.32051 -0.100779 4.42447e-20)
(0.965772 -0.227218 0)
(0.971398 -0.228498 8.32317e-21)
(0.977083 -0.229638 3.58308e-20)
(0.982824 -0.230634 -2.81816e-20)
(0.988616 -0.231485 -1.57778e-20)
(0.99445 -0.23219 2.64293e-20)
(1.00032 -0.232743 -4.24104e-21)
(1.00623 -0.233144 3.21072e-21)
(1.01215 -0.233392 2.63552e-21)
(1.0181 -0.233485 5.22275e-21)
(1.02405 -0.233423 -4.88663e-21)
(1.03001 -0.233204 1.21704e-21)
(1.03597 -0.232827 1.52144e-21)
(1.04192 -0.232292 -5.99609e-21)
(1.04786 -0.231598 6.31865e-21)
(1.05379 -0.230746 -3.3324e-21)
(1.05968 -0.22974 4.1318e-21)
(1.06555 -0.228579 4.92787e-21)
(1.07138 -0.227268 -1.6812e-20)
(1.07717 -0.225807 5.13395e-21)
(1.08292 -0.2242 6.71233e-21)
(1.0886 -0.22245 0)
(1.09423 -0.220559 1.84504e-20)
(1.09979 -0.218532 -8.87047e-21)
(1.10529 -0.216374 -2.09146e-20)
(1.1107 -0.214094 -2.32427e-20)
(1.11604 -0.211695 4.59389e-20)
(1.1213 -0.209179 -2.4929e-20)
(1.12647 -0.206552 0)
(1.13155 -0.203823 -2.812e-20)
(1.13655 -0.201 -7.00599e-22)
(1.14146 -0.198096 3.06476e-20)
(1.14627 -0.195116 -1.68522e-20)
(1.15099 -0.192065 4.33548e-20)
(1.15562 -0.18895 -8.30053e-21)
(1.16015 -0.185781 0)
(1.16459 -0.182567 0)
(1.16895 -0.179313 4.75784e-21)
(1.17322 -0.17603 4.65145e-21)
(1.17741 -0.172729 2.44506e-21)
(1.18152 -0.169418 -7.73104e-23)
(1.18556 -0.166104 2.41984e-21)
(1.18954 -0.162793 0)
(1.19346 -0.159495 -1.5027e-22)
(1.19732 -0.156223 0)
(1.20115 -0.152982 1.00177e-20)
(1.20495 -0.149778 2.2027e-22)
(1.20873 -0.14662 -3.10808e-20)
(1.2125 -0.143513 0)
(1.21626 -0.140466 -2.10268e-20)
(1.22003 -0.137482 2.06996e-20)
(1.22383 -0.134569 -4.15784e-20)
(1.22765 -0.131735 0)
(1.23153 -0.128992 -1.27562e-19)
(1.23548 -0.126348 -6.6286e-23)
(1.23952 -0.123813 4.24547e-20)
(1.24369 -0.121394 4.27395e-20)
(1.24802 -0.119108 0)
(1.25254 -0.116965 0)
(1.2573 -0.114979 -4.38878e-20)
(1.26237 -0.113167 8.83397e-20)
(1.26788 -0.111568 8.89714e-20)
(1.27396 -0.110216 0)
(1.28074 -0.109133 -9.04072e-20)
(1.28827 -0.108313 0)
(1.29642 -0.107734 1.36254e-19)
(1.30477 -0.107365 -4.46104e-20)
(1.3129 -0.107115 -4.63233e-20)
(1.32037 -0.107405 -4.61294e-20)
(0.963477 -0.237448 0)
(0.969378 -0.238725 0)
(0.975338 -0.239851 7.47773e-21)
(0.981351 -0.240823 -2.48639e-20)
(0.987416 -0.24164 3.04005e-20)
(0.993525 -0.242301 -4.96614e-21)
(0.999673 -0.242801 0)
(1.00585 -0.243139 -3.25857e-21)
(1.01205 -0.243314 0)
(1.01827 -0.243324 -1.98253e-21)
(1.0245 -0.243168 2.07156e-21)
(1.03072 -0.242845 2.79293e-22)
(1.03695 -0.242356 0)
(1.04316 -0.241698 4.76186e-21)
(1.04935 -0.240873 -1.68048e-20)
(1.05552 -0.239883 1.39576e-20)
(1.06165 -0.238728 -2.19657e-20)
(1.06774 -0.237412 4.71579e-21)
(1.07379 -0.235936 -6.40489e-21)
(1.07979 -0.234303 6.59794e-21)
(1.08572 -0.232517 8.1429e-21)
(1.0916 -0.230582 -2.50934e-20)
(1.0974 -0.228501 -1.86708e-20)
(1.10313 -0.22628 0)
(1.10877 -0.223925 2.25965e-20)
(1.11433 -0.221442 1.28732e-20)
(1.1198 -0.218836 -3.6487e-20)
(1.12517 -0.216114 1.29726e-20)
(1.13045 -0.213283 -2.90275e-20)
(1.13562 -0.210351 4.38309e-20)
(1.14069 -0.207328 -1.62386e-20)
(1.14566 -0.20422 8.54189e-21)
(1.15052 -0.201038 0)
(1.15528 -0.197789 -8.89145e-21)
(1.15993 -0.194482 -9.08615e-21)
(1.16447 -0.191126 0)
(1.16891 -0.18773 9.8263e-21)
(1.17326 -0.184304 -1.47054e-20)
(1.17751 -0.180858 9.76719e-21)
(1.18166 -0.177403 -5.01957e-21)
(1.18573 -0.173946 -8.34233e-23)
(1.18972 -0.170494 -3.90178e-21)
(1.19364 -0.167058 1.27704e-21)
(1.19749 -0.163648 5.13322e-21)
(1.20129 -0.16027 4.51678e-23)
(1.20503 -0.156933 3.15571e-20)
(1.20874 -0.153644 0)
(1.21242 -0.150411 2.10537e-20)
(1.21607 -0.147241 -5.49538e-23)
(1.21971 -0.144142 -2.12769e-20)
(1.22336 -0.141123 0)
(1.22702 -0.138191 -2.18452e-20)
(1.23072 -0.135356 2.15385e-20)
(1.23447 -0.132627 4.33023e-20)
(1.2383 -0.130013 0)
(1.24223 -0.127526 -8.83988e-20)
(1.24629 -0.125175 8.88552e-20)
(1.2505 -0.122976 -8.93845e-20)
(1.25492 -0.120943 -6.88606e-22)
(1.25961 -0.119097 0)
(1.26468 -0.117464 -4.58014e-20)
(1.27024 -0.11608 4.53349e-20)
(1.27643 -0.11497 4.63345e-20)
(1.2833 -0.114143 9.09435e-20)
(1.29073 -0.11357 -1.37396e-19)
(1.29844 -0.113228 9.13574e-20)
(1.30592 -0.11308 -4.50612e-20)
(1.31289 -0.113119 4.54769e-20)
(1.31931 -0.113822 1.37564e-19)
(0.961187 -0.248275 -3.56823e-20)
(0.967386 -0.249546 3.61117e-21)
(0.973641 -0.250654 3.18369e-20)
(0.979949 -0.251597 0)
(0.986305 -0.252373 -5.74816e-21)
(0.992704 -0.252982 0)
(0.999139 -0.253419 6.69832e-21)
(1.0056 -0.253683 -1.80694e-21)
(1.01209 -0.253773 -6.61506e-21)
(1.01859 -0.253687 8.46574e-22)
(1.0251 -0.253424 3.64187e-22)
(1.0316 -0.252984 -9.81856e-22)
(1.0381 -0.252367 0)
(1.04457 -0.251572 0)
(1.05103 -0.250601 3.10579e-21)
(1.05745 -0.249455 3.95901e-21)
(1.06382 -0.248135 -1.10513e-20)
(1.07015 -0.246645 1.10487e-20)
(1.07643 -0.244988 1.36554e-20)
(1.08264 -0.243166 -1.61316e-20)
(1.08878 -0.241183 3.32299e-20)
(1.09485 -0.239045 8.82211e-22)
(1.10083 -0.236756 -2.02875e-20)
(1.10673 -0.234322 -1.14159e-20)
(1.11253 -0.23175 -2.44272e-20)
(1.11823 -0.229045 2.45284e-20)
(1.12383 -0.226216 2.77196e-20)
(1.12931 -0.223269 -2.7871e-20)
(1.13469 -0.220214 0)
(1.13995 -0.217058 0)
(1.14509 -0.21381 4.22454e-20)
(1.15012 -0.210481 1.15174e-21)
(1.15503 -0.207081 -1.82035e-20)
(1.15981 -0.203618 -1.9486e-20)
(1.16448 -0.200101 1.92028e-20)
(1.16903 -0.196542 0)
(1.17347 -0.192951 -9.89055e-21)
(1.17779 -0.189338 -1.55961e-20)
(1.18201 -0.185714 1.02228e-20)
(1.18612 -0.182087 -9.63259e-23)
(1.19014 -0.178469 -8.38699e-22)
(1.19407 -0.174868 3.94232e-21)
(1.19791 -0.171294 2.73202e-21)
(1.20168 -0.167755 5.46475e-21)
(1.20538 -0.164261 -2.70937e-20)
(1.20902 -0.16082 4.03092e-23)
(1.21262 -0.15744 0)
(1.21617 -0.154129 -2.23185e-20)
(1.2197 -0.150896 6.65414e-20)
(1.22322 -0.147748 -4.44286e-20)
(1.22673 -0.144694 -2.24541e-20)
(1.23027 -0.141743 -4.19818e-22)
(1.23384 -0.138905 -2.26013e-20)
(1.23747 -0.136188 -7.7074e-22)
(1.24118 -0.133603 4.48628e-20)
(1.24498 -0.131162 -4.57928e-20)
(1.24891 -0.128877 -4.6052e-20)
(1.25302 -0.126765 9.16575e-20)
(1.25736 -0.124846 1.53195e-22)
(1.26203 -0.12315 4.6529e-20)
(1.26714 -0.121702 -4.57137e-20)
(1.27281 -0.120531 4.60045e-20)
(1.27908 -0.119646 -9.19454e-20)
(1.28586 -0.119036 -4.65603e-20)
(1.2929 -0.118657 9.07335e-20)
(1.29981 -0.118496 -4.66213e-20)
(1.30615 -0.118539 -1.38917e-19)
(1.3119 -0.11889 -4.73156e-20)
(1.31757 -0.120019 0)
(0.958872 -0.259745 0)
(0.9654 -0.261007 -8.42873e-21)
(0.971982 -0.262093 -1.75123e-22)
(0.978612 -0.263002 0)
(0.985287 -0.263731 0)
(0.992 -0.26428 -4.34564e-21)
(0.998745 -0.264645 9.46054e-21)
(1.00551 -0.264825 -1.02649e-20)
(1.0123 -0.264818 4.58684e-21)
(1.0191 -0.264624 -8.58097e-22)
(1.0259 -0.26424 0)
(1.03269 -0.263669 9.95e-22)
(1.03947 -0.262908 -2.48661e-21)
(1.04622 -0.261959 0)
(1.05295 -0.260824 0)
(1.05963 -0.259503 5.46994e-21)
(1.06626 -0.258 1.80343e-21)
(1.07284 -0.256317 -1.25466e-20)
(1.07935 -0.254457 -1.53335e-20)
(1.08578 -0.252425 1.61029e-20)
(1.09214 -0.250225 8.98592e-21)
(1.0984 -0.247863 4.18259e-20)
(1.10457 -0.245344 8.96348e-22)
(1.11064 -0.242676 -1.31778e-20)
(1.1166 -0.239864 2.48047e-20)
(1.12245 -0.236916 -1.39639e-20)
(1.12817 -0.233842 2.82378e-20)
(1.13378 -0.230649 0)
(1.13925 -0.227346 0)
(1.1446 -0.223945 0)
(1.14981 -0.220453 -8.73436e-21)
(1.15489 -0.216884 -1.86527e-20)
(1.15983 -0.213246 1.93153e-20)
(1.16465 -0.209551 2.05078e-20)
(1.16932 -0.205808 -2.02139e-20)
(1.17387 -0.20203 0)
(1.17829 -0.198227 1.07227e-20)
(1.18258 -0.194412 -5.31814e-21)
(1.18675 -0.190593 0)
(1.19081 -0.186783 5.47078e-21)
(1.19476 -0.182992 -1.03513e-21)
(1.1986 -0.17923 6.86513e-22)
(1.20235 -0.175506 -2.74914e-21)
(1.20602 -0.17183 0)
(1.20961 -0.168211 -1.13871e-20)
(1.21314 -0.164659 1.12242e-20)
(1.21661 -0.161181 0)
(1.22004 -0.157787 -4.73386e-22)
(1.22344 -0.154485 7.57414e-23)
(1.22683 -0.151283 2.26876e-20)
(1.23022 -0.148192 0)
(1.23362 -0.145218 -4.60991e-22)
(1.23706 -0.142372 -2.29366e-20)
(1.24055 -0.139664 -7.0233e-20)
(1.24412 -0.137104 -7.47766e-22)
(1.24779 -0.134705 4.63631e-20)
(1.2516 -0.132486 0)
(1.25563 -0.130466 0)
(1.25995 -0.128673 4.71865e-20)
(1.26466 -0.127133 0)
(1.26987 -0.125869 0)
(1.2756 -0.124893 2.85749e-22)
(1.28178 -0.124195 -4.61366e-20)
(1.2882 -0.123745 -9.34385e-20)
(1.2945 -0.123506 9.22667e-20)
(1.30027 -0.123481 -1.14135e-22)
(1.30534 -0.123717 4.61128e-20)
(1.31009 -0.124438 4.67602e-20)
(1.31553 -0.125961 0)
(0.956511 -0.271902 0)
(0.963402 -0.273152 8.54706e-21)
(0.970342 -0.274211 -2.1277e-20)
(0.977327 -0.27508 7.51815e-21)
(0.984352 -0.275756 0)
(0.99141 -0.276237 1.18645e-20)
(0.998494 -0.276521 -1.62039e-20)
(1.0056 -0.276607 2.02586e-21)
(1.01271 -0.276492 6.0211e-21)
(1.01983 -0.276176 -1.45072e-21)
(1.02694 -0.275658 -1.16655e-21)
(1.03404 -0.274939 -2.17642e-21)
(1.04112 -0.274019 9.13558e-21)
(1.04817 -0.272899 -1.51538e-20)
(1.05517 -0.271581 8.53427e-21)
(1.06213 -0.270066 -7.00471e-21)
(1.06902 -0.268358 2.65697e-20)
(1.07585 -0.266461 -6.19923e-21)
(1.08261 -0.264377 9.80973e-21)
(1.08928 -0.262112 -8.07632e-21)
(1.09585 -0.259672 1.78214e-21)
(1.10232 -0.257062 -6.73791e-20)
(1.10868 -0.254289 -1.33926e-20)
(1.11493 -0.251361 -1.6908e-21)
(1.12105 -0.248286 4.13212e-20)
(1.12704 -0.245071 -1.42821e-20)
(1.13289 -0.241728 3.20323e-20)
(1.13861 -0.238264 -4.92292e-20)
(1.14418 -0.234692 0)
(1.14961 -0.231021 -1.85904e-20)
(1.15489 -0.227263 1.87233e-20)
(1.16001 -0.22343 5.313e-22)
(1.16499 -0.219534 -1.06983e-20)
(1.16981 -0.215584 -1.09015e-20)
(1.17449 -0.211595 3.29726e-20)
(1.17901 -0.207577 -2.15991e-20)
(1.1834 -0.203544 1.6902e-20)
(1.18764 -0.199508 -2.24195e-20)
(1.19176 -0.195479 1.11874e-20)
(1.19574 -0.19147 -2.80118e-21)
(1.1996 -0.187491 0)
(1.20335 -0.183554 2.91897e-21)
(1.207 -0.179669 -2.87843e-21)
(1.21056 -0.175846 -5.88877e-21)
(1.21403 -0.172095 1.76253e-20)
(1.21743 -0.168425 -1.17342e-20)
(1.22078 -0.164844 -1.16918e-20)
(1.22407 -0.161363 0)
(1.22734 -0.157988 -4.7842e-20)
(1.23059 -0.15473 4.74613e-20)
(1.23383 -0.151595 -2.35166e-20)
(1.23709 -0.148594 2.32417e-20)
(1.24038 -0.145736 2.37449e-20)
(1.24372 -0.143032 4.74235e-20)
(1.24714 -0.140495 4.74801e-20)
(1.2507 -0.138143 0)
(1.25444 -0.135997 -4.82183e-20)
(1.25845 -0.13408 0)
(1.26282 -0.132419 6.29295e-22)
(1.26762 -0.131035 -4.74328e-20)
(1.27287 -0.129935 4.70565e-20)
(1.2785 -0.129113 4.70496e-20)
(1.28431 -0.12854 -4.70508e-20)
(1.29 -0.128187 -5.3702e-22)
(1.29519 -0.12804 -3.88714e-22)
(1.29966 -0.128144 1.40504e-19)
(1.30357 -0.128624 4.72571e-20)
(1.30782 -0.129815 4.85395e-20)
(1.31353 -0.131598 -4.78162e-20)
(0.9541 -0.284805 0)
(0.961381 -0.286036 0)
(0.96871 -0.287062 -1.33819e-20)
(0.97608 -0.287883 1.95641e-20)
(0.983487 -0.288497 4.76912e-21)
(0.990923 -0.288903 0)
(0.998379 -0.289096 0)
(1.00585 -0.289076 -1.40603e-21)
(1.01332 -0.28884 1.9213e-22)
(1.02079 -0.288389 -2.74981e-21)
(1.02824 -0.287723 7.12616e-21)
(1.03567 -0.28684 -1.80946e-21)
(1.04307 -0.285743 4.18112e-21)
(1.05043 -0.284433 -8.12629e-21)
(1.05774 -0.282912 6.02896e-21)
(1.06499 -0.281182 0)
(1.07216 -0.279247 0)
(1.07926 -0.277111 8.97251e-22)
(1.08627 -0.27478 -2.80308e-20)
(1.09317 -0.272257 9.98692e-21)
(1.09997 -0.269551 -1.19219e-20)
(1.10666 -0.266667 1.18311e-20)
(1.11321 -0.263614 1.35487e-20)
(1.11964 -0.260399 -1.26912e-20)
(1.12592 -0.257033 -1.45332e-20)
(1.13206 -0.253525 0)
(1.13804 -0.249885 0)
(1.14387 -0.246124 2.63325e-20)
(1.14954 -0.242254 0)
(1.15504 -0.238288 1.98341e-20)
(1.16037 -0.234237 -1.99703e-20)
(1.16553 -0.230115 -1.03364e-20)
(1.17053 -0.225935 1.0744e-20)
(1.17536 -0.221709 2.24276e-20)
(1.18002 -0.21745 -1.11013e-20)
(1.18452 -0.213172 -1.16507e-20)
(1.18885 -0.208888 1.1751e-20)
(1.19304 -0.204612 0)
(1.19708 -0.200357 0)
(1.20098 -0.196133 3.04234e-21)
(1.20474 -0.191955 0)
(1.20839 -0.187832 0)
(1.21192 -0.183776 -9.1824e-21)
(1.21535 -0.179797 1.21957e-20)
(1.21869 -0.175905 -6.18512e-21)
(1.22196 -0.17211 1.20314e-20)
(1.22516 -0.168419 0)
(1.22831 -0.164843 3.70555e-20)
(1.23142 -0.161389 -1.21271e-22)
(1.2345 -0.158066 0)
(1.23758 -0.154883 -4.91077e-20)
(1.24068 -0.15185 -9.16246e-23)
(1.24381 -0.148977 -4.87362e-20)
(1.24702 -0.146279 -2.47714e-20)
(1.25034 -0.143771 -4.93987e-20)
(1.25384 -0.141475 4.86793e-20)
(1.25758 -0.139413 4.85732e-20)
(1.26164 -0.137607 0)
(1.26608 -0.136074 -4.88486e-20)
(1.27089 -0.13482 -1.3082e-22)
(1.276 -0.133838 0)
(1.28124 -0.133106 0)
(1.28631 -0.132592 4.7161e-20)
(1.2909 -0.132284 0)
(1.29475 -0.132211 0)
(1.29796 -0.132481 -4.69534e-20)
(1.30113 -0.133305 -4.76676e-20)
(1.30558 -0.135023 -4.86914e-20)
(1.31156 -0.136709 0)
(0.951657 -0.298523 0)
(0.959352 -0.299727 0)
(0.967095 -0.300711 0)
(0.974879 -0.301475 5.55226e-21)
(0.982696 -0.302018 3.24541e-21)
(0.990539 -0.302335 -2.29299e-21)
(0.998397 -0.302425 -5.70475e-21)
(1.00626 -0.302285 1.42233e-21)
(1.01412 -0.301915 3.72844e-22)
(1.02197 -0.301314 2.30552e-21)
(1.0298 -0.300481 0)
(1.03759 -0.299418 0)
(1.04534 -0.298125 -1.01204e-21)
(1.05304 -0.296604 1.58185e-20)
(1.06067 -0.294858 -2.72225e-20)
(1.06823 -0.29289 -2.08998e-21)
(1.07571 -0.290704 1.61417e-20)
(1.08309 -0.288305 9.11836e-21)
(1.09037 -0.285699 -1.07118e-21)
(1.09753 -0.282892 0)
(1.10457 -0.279892 2.51887e-20)
(1.11147 -0.276706 0)
(1.11823 -0.273343 2.89991e-20)
(1.12484 -0.269813 -4.65103e-20)
(1.13129 -0.266126 4.87156e-20)
(1.13758 -0.262293 1.78811e-20)
(1.14369 -0.258326 -2.79369e-20)
(1.14963 -0.254238 2.88265e-20)
(1.15538 -0.250042 -1.95259e-20)
(1.16095 -0.245751 0)
(1.16633 -0.241379 -2.20439e-20)
(1.17152 -0.23694 -1.23217e-20)
(1.17653 -0.23245 2.29285e-20)
(1.18135 -0.22792 -2.3652e-20)
(1.18599 -0.223368 1.21101e-20)
(1.19044 -0.218807 -1.19498e-20)
(1.19472 -0.214252 -5.97365e-21)
(1.19883 -0.209718 6.29636e-21)
(1.20278 -0.205217 3.08983e-21)
(1.20658 -0.200763 -9.23154e-21)
(1.21023 -0.196369 -7.98195e-22)
(1.21375 -0.192046 0)
(1.21715 -0.187806 3.09852e-21)
(1.22043 -0.18366 -6.215e-21)
(1.22362 -0.179616 6.22928e-21)
(1.22672 -0.175686 0)
(1.22976 -0.171877 0)
(1.23273 -0.168199 1.29884e-20)
(1.23567 -0.16466 -2.51809e-20)
(1.23859 -0.161269 -5.11025e-20)
(1.2415 -0.158035 1.01243e-19)
(1.24445 -0.154971 -2.55252e-20)
(1.24745 -0.152089 2.50901e-20)
(1.25057 -0.149406 2.49657e-20)
(1.25386 -0.14694 -5.05072e-20)
(1.25737 -0.14471 4.9713e-20)
(1.26116 -0.142736 0)
(1.26527 -0.14103 -4.97178e-20)
(1.26968 -0.139594 -6.80831e-23)
(1.2743 -0.138421 4.83195e-20)
(1.27897 -0.137489 0)
(1.28343 -0.136775 0)
(1.28739 -0.136263 0)
(1.29063 -0.135976 9.55227e-20)
(1.29315 -0.136005 4.8442e-20)
(1.29546 -0.136525 4.89806e-20)
(1.29855 -0.137817 -9.7299e-20)
(1.30375 -0.139907 2.83042e-22)
(1.30828 -0.141017 5.08166e-20)
(0.949212 -0.313133 0)
(0.957345 -0.314301 1.46103e-20)
(0.965527 -0.315233 -1.77062e-20)
(0.973749 -0.315929 6.46516e-21)
(0.982004 -0.316387 -1.32842e-20)
(0.990281 -0.316603 -2.53877e-21)
(0.99857 -0.316574 -1.28648e-21)
(1.00686 -0.3163 0)
(1.01514 -0.315778 -1.54924e-21)
(1.0234 -0.315008 -4.16938e-21)
(1.03163 -0.31399 4.99443e-21)
(1.03981 -0.312725 -4.74156e-21)
(1.04794 -0.311214 6.95422e-21)
(1.05601 -0.30946 -3.75977e-21)
(1.06399 -0.307465 -3.13927e-20)
(1.07189 -0.305234 -2.18509e-21)
(1.07969 -0.302771 -2.14756e-21)
(1.08738 -0.300082 2.05191e-20)
(1.09495 -0.297173 1.12692e-20)
(1.10239 -0.294052 2.66925e-20)
(1.10968 -0.290727 -2.54419e-20)
(1.11681 -0.287207 0)
(1.12379 -0.283503 1.30204e-21)
(1.13059 -0.279624 0)
(1.13722 -0.275584 -1.70836e-20)
(1.14365 -0.271394 -1.8006e-20)
(1.1499 -0.267068 9.45863e-21)
(1.15594 -0.262619 0)
(1.16178 -0.258064 1.10425e-20)
(1.16741 -0.253415 2.26122e-20)
(1.17284 -0.24869 -2.27545e-20)
(1.17805 -0.243905 1.16769e-20)
(1.18306 -0.239074 -2.49124e-20)
(1.18786 -0.234214 4.93408e-20)
(1.19245 -0.229341 -1.24445e-20)
(1.19685 -0.224472 0)
(1.20105 -0.219622 -6.5653e-21)
(1.20507 -0.214805 2.88286e-22)
(1.2089 -0.210039 9.71696e-21)
(1.21258 -0.205335 -8.09905e-21)
(1.21609 -0.200707 1.58873e-21)
(1.21946 -0.196168 -4.96612e-21)
(1.22269 -0.19173 3.25646e-21)
(1.22581 -0.187404 0)
(1.22882 -0.183199 0)
(1.23174 -0.179125 0)
(1.23459 -0.175191 1.33118e-20)
(1.23739 -0.171407 1.32848e-20)
(1.24015 -0.167782 0)
(1.24291 -0.164324 2.59983e-20)
(1.24568 -0.161046 2.6491e-20)
(1.24852 -0.15796 2.62433e-20)
(1.25147 -0.155081 0)
(1.25457 -0.152426 0)
(1.25788 -0.15001 -5.14731e-20)
(1.26143 -0.147846 5.05801e-20)
(1.26523 -0.145942 0)
(1.26925 -0.144297 4.96676e-20)
(1.2734 -0.1429 -4.92029e-20)
(1.2775 -0.141734 -4.91619e-20)
(1.28134 -0.140779 4.88223e-20)
(1.28466 -0.140022 -4.79051e-20)
(1.28725 -0.139484 0)
(1.2891 -0.139242 -4.80388e-20)
(1.2906 -0.139465 3.53257e-22)
(1.29271 -0.140365 -9.75934e-20)
(1.2965 -0.142172 -9.99131e-20)
(1.3021 -0.144127 1.02132e-19)
(1.30059 -0.14409 -5.29814e-20)
(0.946793 -0.328724 4.27957e-21)
(0.955395 -0.329846 0)
(0.964044 -0.330715 3.22148e-21)
(0.972734 -0.331329 -1.09728e-20)
(0.981454 -0.331688 1.63902e-20)
(0.990193 -0.331787 -3.17061e-21)
(0.99894 -0.331624 1.29835e-21)
(1.00768 -0.331196 1.95498e-21)
(1.01641 -0.330502 -7.62508e-22)
(1.02511 -0.329543 -2.39952e-21)
(1.03377 -0.328317 -4.62562e-21)
(1.04237 -0.326827 1.65405e-20)
(1.05091 -0.325074 -4.65012e-21)
(1.05937 -0.32306 2.46944e-20)
(1.06774 -0.320789 1.05476e-20)
(1.07601 -0.318266 2.28186e-21)
(1.08416 -0.315496 -2.09157e-20)
(1.09218 -0.312486 0)
(1.10006 -0.309242 0)
(1.10778 -0.305774 -1.49778e-20)
(1.11535 -0.302091 -1.46195e-20)
(1.12274 -0.298203 -3.35511e-20)
(1.12994 -0.294121 1.69791e-20)
(1.13695 -0.289858 3.74363e-20)
(1.14375 -0.285428 -3.75161e-20)
(1.15035 -0.280843 1.04778e-20)
(1.15672 -0.27612 1.09427e-20)
(1.16287 -0.271275 0)
(1.1688 -0.266323 -1.10931e-20)
(1.17449 -0.261281 -2.41455e-20)
(1.17995 -0.256168 -7.15589e-22)
(1.18517 -0.251001 2.5174e-20)
(1.19016 -0.245796 -1.33761e-20)
(1.19492 -0.240573 0)
(1.19946 -0.235349 6.8121e-21)
(1.20377 -0.230141 -6.85819e-21)
(1.20787 -0.224968 6.57252e-21)
(1.21177 -0.219845 -1.35346e-20)
(1.21547 -0.214789 0)
(1.21899 -0.209814 -1.73842e-21)
(1.22234 -0.204935 1.70585e-21)
(1.22554 -0.200165 -2.62757e-21)
(1.22859 -0.195516 1.02564e-20)
(1.23152 -0.191 -2.0501e-20)
(1.23434 -0.186626 1.35556e-20)
(1.23707 -0.182405 1.36733e-20)
(1.23974 -0.178345 -1.31193e-20)
(1.24237 -0.174457 2.75696e-20)
(1.24498 -0.170751 -2.68667e-20)
(1.24762 -0.167236 -6.71795e-20)
(1.25031 -0.163926 1.7055e-22)
(1.25311 -0.160833 -2.63411e-20)
(1.25605 -0.157969 0)
(1.25917 -0.155346 0)
(1.26249 -0.15297 -5.22244e-20)
(1.26598 -0.150843 7.70058e-20)
(1.26961 -0.14896 -5.06689e-20)
(1.27327 -0.147311 0)
(1.2768 -0.145877 4.99986e-20)
(1.28001 -0.144643 9.8571e-20)
(1.28266 -0.143603 -4.87272e-20)
(1.28458 -0.142773 -5.22665e-22)
(1.28575 -0.142229 4.83514e-20)
(1.28651 -0.14212 2.82981e-22)
(1.28769 -0.142685 -9.86275e-20)
(1.29051 -0.144091 9.98245e-20)
(1.29524 -0.146255 5.12304e-20)
(1.29849 -0.147302 0)
(1.28256 -0.144996 0)
(0.944428 -0.345391 -4.31193e-21)
(0.953533 -0.346459 -1.60183e-20)
(0.962684 -0.347253 1.25937e-20)
(0.971874 -0.347773 0)
(0.981092 -0.348017 1.58438e-21)
(0.990326 -0.347982 1.47618e-21)
(0.999563 -0.347665 -1.70054e-21)
(1.00879 -0.347064 -4.82617e-21)
(1.01799 -0.346177 3.88753e-21)
(1.02716 -0.345004 0)
(1.03628 -0.343546 1.73957e-21)
(1.04533 -0.341804 0)
(1.05431 -0.33978 9.53744e-21)
(1.06319 -0.337477 -2.4911e-20)
(1.07197 -0.334899 0)
(1.08063 -0.332052 0)
(1.08915 -0.328941 0)
(1.09753 -0.325574 -2.10965e-20)
(1.10574 -0.321959 2.82524e-20)
(1.11378 -0.318106 1.50559e-20)
(1.12164 -0.314026 0)
(1.12929 -0.309729 0)
(1.13674 -0.30523 0)
(1.14396 -0.300541 -5.10756e-20)
(1.15096 -0.295678 6.20792e-20)
(1.15771 -0.290658 -3.18732e-20)
(1.16422 -0.285496 -2.27915e-20)
(1.17048 -0.280211 2.4045e-20)
(1.17648 -0.27482 -2.41489e-20)
(1.18223 -0.269344 1.31526e-20)
(1.18771 -0.263802 -2.66318e-20)
(1.19293 -0.258214 1.27804e-20)
(1.19789 -0.252598 2.74963e-20)
(1.2026 -0.246975 1.42648e-20)
(1.20705 -0.241365 -6.80575e-21)
(1.21126 -0.235788 6.85556e-21)
(1.21524 -0.230263 0)
(1.219 -0.224807 -3.33187e-22)
(1.22254 -0.219439 3.57408e-21)
(1.22589 -0.214173 2.64439e-23)
(1.22905 -0.209027 -1.78005e-21)
(1.23206 -0.204012 4.44535e-21)
(1.23491 -0.199142 -7.15004e-21)
(1.23765 -0.194429 -3.6069e-21)
(1.24028 -0.189884 7.18658e-21)
(1.24284 -0.185517 0)
(1.24535 -0.181337 -2.80647e-20)
(1.24785 -0.177355 -4.17916e-20)
(1.25036 -0.173581 -2.05154e-22)
(1.25294 -0.170024 4.11052e-20)
(1.2556 -0.166695 0)
(1.25838 -0.163601 0)
(1.26131 -0.160747 -2.71397e-20)
(1.26437 -0.158133 5.34959e-20)
(1.26754 -0.155757 3.10786e-22)
(1.27076 -0.153608 -2.63157e-20)
(1.2739 -0.151675 1.02467e-19)
(1.27684 -0.149943 -5.04143e-20)
(1.27938 -0.148398 -4.98322e-20)
(1.28135 -0.147037 -9.96891e-20)
(1.28258 -0.14588 8.65901e-24)
(1.28307 -0.144997 4.35906e-22)
(1.28313 -0.144534 2.72831e-22)
(1.28349 -0.14471 9.97518e-20)
(1.28531 -0.145767 -4.98306e-20)
(1.28934 -0.147651 -5.10484e-20)
(1.29332 -0.149573 5.25855e-20)
(1.28732 -0.148329 5.50584e-20)
(1.2466 -0.141699 0)
(0.942137 -0.363243 1.4157e-20)
(0.951787 -0.364246 -7.89692e-21)
(0.961481 -0.364953 0)
(0.971211 -0.365364 1.43924e-21)
(0.980966 -0.365479 0)
(0.990733 -0.365293 4.58304e-22)
(1.0005 -0.364802 5.11131e-22)
(1.01024 -0.364005 5.58366e-21)
(1.01996 -0.362901 -6.14e-21)
(1.02963 -0.361489 -2.92079e-21)
(1.03924 -0.359771 1.7247e-20)
(1.04878 -0.357747 -1.42563e-20)
(1.05822 -0.355421 0)
(1.06756 -0.352795 -2.20197e-20)
(1.07677 -0.349875 4.6438e-20)
(1.08585 -0.346667 -2.44205e-20)
(1.09477 -0.343177 0)
(1.10353 -0.339413 -3.87724e-20)
(1.1121 -0.335385 5.66981e-20)
(1.12047 -0.331105 -3.37778e-20)
(1.12863 -0.326583 0)
(1.13657 -0.321833 0)
(1.14427 -0.316869 0)
(1.15172 -0.311708 1.03994e-20)
(1.15892 -0.306366 2.3077e-20)
(1.16584 -0.300861 -2.31284e-20)
(1.17249 -0.295212 1.18285e-20)
(1.17885 -0.28944 0)
(1.18493 -0.283564 2.66821e-20)
(1.19072 -0.277607 -3.99734e-20)
(1.19622 -0.271591 0)
(1.20142 -0.265537 2.87888e-20)
(1.20634 -0.259468 -1.4098e-20)
(1.21097 -0.253407 -1.42237e-20)
(1.21533 -0.247375 7.56843e-21)
(1.21942 -0.241395 0)
(1.22326 -0.235487 0)
(1.22685 -0.229672 7.2549e-21)
(1.23022 -0.223968 0)
(1.23338 -0.218393 -3.71725e-21)
(1.23635 -0.212963 9.08521e-22)
(1.23916 -0.207694 3.71431e-21)
(1.24183 -0.202598 -5.12225e-23)
(1.24438 -0.197688 7.34926e-21)
(1.24685 -0.192976 1.49086e-20)
(1.24926 -0.188471 7.47778e-21)
(1.25166 -0.184183 -1.48196e-20)
(1.25406 -0.180121 -1.45335e-20)
(1.25651 -0.176292 -2.84886e-20)
(1.25904 -0.172699 2.80599e-20)
(1.26165 -0.169346 0)
(1.26434 -0.166232 -2.78115e-20)
(1.26711 -0.16335 -3.31821e-22)
(1.2699 -0.160693 1.58131e-22)
(1.27264 -0.158249 -5.29026e-20)
(1.27523 -0.156004 0)
(1.27754 -0.153946 -2.59394e-20)
(1.27939 -0.152063 0)
(1.28065 -0.150354 0)
(1.28117 -0.14884 5.00041e-20)
(1.28099 -0.147592 -3.00034e-22)
(1.2804 -0.146746 -5.0306e-20)