/*--------------------------------*- C++ -*----------------------------------*\
| =========                 |                                                 |
| \\      /  F ield         | OpenFOAM: The Open Source CFD Toolbox           |
|  \\    /   O peration     | Version:  2312                                  |
|   \\  /    A nd           | Website:  www.openfoam.com                      |
|    \\/     M anipulation  |                                                 |
\*---------------------------------------------------------------------------*/
FoamFile
{
    version     2.0;
    format      ascii;
    arch        "LSB;label=32;scalar=64";
    class       volScalarField;
    location    "2000";
    object      nut;
}
// * * * * * * * * * * * * * * * * * * * * * * * * * * * * * * * * * * * * * //

dimensions      [0 2 -1 0 0 0 0];

internalField   nonuniform List<scalar> 
76025
(
6.10792e-06
6.10696e-06
6.10392e-06
6.10667e-06
6.11257e-06
6.12085e-06
6.12912e-06
6.13711e-06
6.14524e-06
6.15389e-06
6.16322e-06
6.17195e-06
6.17882e-06
6.1842e-06
6.18963e-06
6.19483e-06
6.20058e-06
6.20631e-06
6.21177e-06
6.21656e-06
6.2174e-06
6.2184e-06
6.21937e-06
6.22334e-06
6.23343e-06
6.24544e-06
6.25987e-06
6.27481e-06
6.29115e-06
6.30807e-06
6.32677e-06
6.34412e-06
6.36227e-06
6.37818e-06
6.39216e-06
6.40241e-06
6.40991e-06
6.41455e-06
6.41492e-06
6.4122e-06
6.40795e-06
6.40313e-06
6.39715e-06
6.39421e-06
6.3878e-06
6.39197e-06
6.40453e-06
6.41862e-06
6.43089e-06
6.43822e-06
6.43839e-06
6.43138e-06
6.41971e-06
6.40696e-06
6.39558e-06
6.38824e-06
6.37983e-06
6.36599e-06
6.33914e-06
6.28991e-06
6.2149e-06
6.10921e-06
5.99074e-06
5.87804e-06
5.25366e-06
3.42884e-06
4.2861e-06
3.26854e-05
0.000110167
6.11515e-06
6.11862e-06
6.11831e-06
6.11668e-06
6.11685e-06
6.11878e-06
6.12414e-06
6.13123e-06
6.13906e-06
6.14713e-06
6.15566e-06
6.16473e-06
6.17388e-06
6.18234e-06
6.18952e-06
6.19612e-06
6.20207e-06
6.20779e-06
6.21327e-06
6.2187e-06
6.22284e-06
6.22556e-06
6.22701e-06
6.22451e-06
6.22272e-06
6.22242e-06
6.22362e-06
6.22608e-06
6.22964e-06
6.23394e-06
6.23861e-06
6.24368e-06
6.24763e-06
6.2515e-06
6.25568e-06
6.26017e-06
6.26509e-06
6.2699e-06
6.27593e-06
6.28976e-06
6.30674e-06
6.32535e-06
6.34496e-06
6.36485e-06
6.38393e-06
6.40061e-06
6.41306e-06
6.41971e-06
6.41962e-06
6.41297e-06
6.40134e-06
6.3875e-06
6.37453e-06
6.36447e-06
6.35717e-06
6.34927e-06
6.33564e-06
6.31034e-06
6.26795e-06
6.20288e-06
6.10724e-06
5.98391e-06
5.86761e-06
5.70265e-06
4.74309e-06
2.91071e-06
5.52362e-06
4.22563e-05
0.000121199
6.09355e-06
6.10785e-06
6.11813e-06
6.1241e-06
6.12711e-06
6.12847e-06
6.12997e-06
6.13281e-06
6.13729e-06
6.14307e-06
6.14977e-06
6.15725e-06
6.16546e-06
6.17414e-06
6.18278e-06
6.19109e-06
6.19888e-06
6.20614e-06
6.21292e-06
6.21938e-06
6.22551e-06
6.23113e-06
6.23616e-06
6.23983e-06
6.24236e-06
6.24424e-06
6.24588e-06
6.24759e-06
6.24958e-06
6.25206e-06
6.25504e-06
6.25882e-06
6.2639e-06
6.27017e-06
6.27759e-06
6.28619e-06
6.29599e-06
6.30695e-06
6.31891e-06
6.33185e-06
6.34543e-06
6.35903e-06
6.37178e-06
6.38258e-06
6.3902e-06
6.39348e-06
6.39161e-06
6.38451e-06
6.37308e-06
6.3592e-06
6.34537e-06
6.33385e-06
6.3257e-06
6.31988e-06
6.31298e-06
6.29995e-06
6.27553e-06
6.23549e-06
6.17578e-06
6.08995e-06
5.97369e-06
5.843e-06
5.72765e-06
5.42819e-06
4.08196e-06
2.61565e-06
8.06981e-06
5.43899e-05
0.000131221
6.05052e-06
6.06538e-06
6.08165e-06
6.09841e-06
6.11252e-06
6.1232e-06
6.13073e-06
6.13614e-06
6.14063e-06
6.14506e-06
6.14989e-06
6.15531e-06
6.16141e-06
6.16821e-06
6.17567e-06
6.18354e-06
6.19161e-06
6.19965e-06
6.20752e-06
6.21516e-06
6.22256e-06
6.22973e-06
6.23666e-06
6.24331e-06
6.24952e-06
6.25527e-06
6.26061e-06
6.26568e-06
6.27061e-06
6.27557e-06
6.28064e-06
6.28602e-06
6.29201e-06
6.29865e-06
6.30592e-06
6.3138e-06
6.32222e-06
6.33101e-06
6.3399e-06
6.34845e-06
6.35606e-06
6.36198e-06
6.36534e-06
6.36529e-06
6.36123e-06
6.35306e-06
6.34137e-06
6.32751e-06
6.31344e-06
6.30121e-06
6.29226e-06
6.28663e-06
6.28251e-06
6.27619e-06
6.26287e-06
6.23793e-06
6.19813e-06
6.1411e-06
6.0626e-06
5.95601e-06
5.82445e-06
5.69584e-06
5.55837e-06
5.00792e-06
3.35511e-06
2.62479e-06
1.26644e-05
6.7485e-05
0.000140581
6.01695e-06
6.02457e-06
6.03526e-06
6.04862e-06
6.06331e-06
6.07786e-06
6.09442e-06
6.10969e-06
6.12254e-06
6.13314e-06
6.14201e-06
6.1497e-06
6.15673e-06
6.16349e-06
6.17026e-06
6.17724e-06
6.18447e-06
6.19193e-06
6.19955e-06
6.20723e-06
6.2149e-06
6.22251e-06
6.23003e-06
6.23745e-06
6.24473e-06
6.25183e-06
6.25872e-06
6.26538e-06
6.27183e-06
6.27807e-06
6.28406e-06
6.28992e-06
6.2959e-06
6.30203e-06
6.3082e-06
6.31428e-06
6.32002e-06
6.32509e-06
6.32903e-06
6.33126e-06
6.33117e-06
6.3282e-06
6.32201e-06
6.31263e-06
6.30057e-06
6.28697e-06
6.27337e-06
6.26149e-06
6.25271e-06
6.24747e-06
6.24482e-06
6.2422e-06
6.23579e-06
6.22119e-06
6.19458e-06
6.15362e-06
6.09719e-06
6.02294e-06
5.92473e-06
5.79852e-06
5.6604e-06
5.53716e-06
5.31191e-06
4.38818e-06
2.68391e-06
3.16823e-06
2.03652e-05
8.1321e-05
0.000149551
6.00309e-06
6.00191e-06
6.00365e-06
6.00847e-06
6.01616e-06
6.026e-06
6.03818e-06
6.05189e-06
6.06596e-06
6.07975e-06
6.09521e-06
6.11041e-06
6.1243e-06
6.13668e-06
6.1477e-06
6.15766e-06
6.16684e-06
6.1755e-06
6.18381e-06
6.19189e-06
6.19979e-06
6.20753e-06
6.21511e-06
6.22251e-06
6.22973e-06
6.23674e-06
6.2435e-06
6.24998e-06
6.25613e-06
6.26187e-06
6.26709e-06
6.27193e-06
6.27653e-06
6.2807e-06
6.2842e-06
6.2867e-06
6.28781e-06
6.28714e-06
6.28427e-06
6.27892e-06
6.27101e-06
6.26075e-06
6.24875e-06
6.236e-06
6.2238e-06
6.21352e-06
6.20626e-06
6.20246e-06
6.20151e-06
6.20155e-06
6.19957e-06
6.19184e-06
6.17463e-06
6.14505e-06
6.10168e-06
6.04433e-06
5.972e-06
5.87983e-06
5.76085e-06
5.62034e-06
5.48718e-06
5.34839e-06
4.91086e-06
3.58176e-06
2.23917e-06
4.80779e-06
3.20931e-05
9.56021e-05
0.00015816
6.00774e-06
6.00141e-06
5.99602e-06
5.99234e-06
5.99101e-06
5.99219e-06
5.99585e-06
6.0019e-06
6.00994e-06
6.01942e-06
6.03041e-06
6.04256e-06
6.05524e-06
6.06766e-06
6.08026e-06
6.09451e-06
6.10902e-06
6.12279e-06
6.13552e-06
6.14717e-06
6.15777e-06
6.16741e-06
6.17625e-06
6.18441e-06
6.19195e-06
6.1989e-06
6.20524e-06
6.21093e-06
6.21594e-06
6.22011e-06
6.22338e-06
6.22593e-06
6.22758e-06
6.22795e-06
6.22676e-06
6.22376e-06
6.2188e-06
6.21188e-06
6.20317e-06
6.19309e-06
6.18233e-06
6.17179e-06
6.16251e-06
6.15551e-06
6.1515e-06
6.15069e-06
6.15247e-06
6.15528e-06
6.15669e-06
6.15359e-06
6.14273e-06
6.12127e-06
6.08738e-06
6.04055e-06
5.98127e-06
5.90936e-06
5.82109e-06
5.70877e-06
5.5705e-06
5.42723e-06
5.30154e-06
5.07127e-06
4.26617e-06
2.72709e-06
2.2382e-06
8.93851e-06
4.79957e-05
0.000110158
0.00016651
6.0082e-06
6.00687e-06
6.00251e-06
5.99648e-06
5.99028e-06
5.98479e-06
5.98065e-06
5.97825e-06
5.97779e-06
5.97922e-06
5.98239e-06
5.98714e-06
5.99328e-06
6.00041e-06
6.0083e-06
6.01713e-06
6.02675e-06
6.03679e-06
6.0468e-06
6.05615e-06
6.06494e-06
6.07468e-06
6.08538e-06
6.09591e-06
6.10558e-06
6.11409e-06
6.12125e-06
6.12699e-06
6.13126e-06
6.13384e-06
6.13494e-06
6.1348e-06
6.13305e-06
6.12965e-06
6.12476e-06
6.11867e-06
6.11181e-06
6.1047e-06
6.09801e-06
6.09246e-06
6.08874e-06
6.08744e-06
6.08886e-06
6.09282e-06
6.09857e-06
6.10466e-06
6.10902e-06
6.10909e-06
6.1022e-06
6.08591e-06
6.05847e-06
6.01914e-06
5.96819e-06
5.90653e-06
5.8343e-06
5.74843e-06
5.64137e-06
5.50719e-06
5.35797e-06
5.22449e-06
5.071e-06
4.59744e-06
3.36976e-06
2.08554e-06
3.15998e-06
1.80721e-05
6.71655e-05
0.000124858
0.000174667
5.97563e-06
5.9855e-06
5.99177e-06
5.99429e-06
5.99333e-06
5.98966e-06
5.98451e-06
5.97881e-06
5.97323e-06
5.96836e-06
5.9645e-06
5.96181e-06
5.96039e-06
5.96016e-06
5.96096e-06
5.96268e-06
5.96525e-06
5.96856e-06
5.9724e-06
5.97638e-06
5.98032e-06
5.98438e-06
5.98865e-06
5.99289e-06
5.99673e-06
5.99983e-06
6.0019e-06
6.00281e-06
6.00248e-06
6.00047e-06
5.99717e-06
5.99458e-06
5.994e-06
5.99412e-06
5.99475e-06
5.99606e-06
5.99837e-06
6.00202e-06
6.00729e-06
6.01433e-06
6.02302e-06
6.03291e-06
6.04311e-06
6.0523e-06
6.05873e-06
6.06038e-06
6.05517e-06
6.04125e-06
6.01724e-06
5.98252e-06
5.93723e-06
5.88219e-06
5.81839e-06
5.74578e-06
5.66148e-06
5.55825e-06
5.42817e-06
5.27642e-06
5.13136e-06
4.99914e-06
4.70215e-06
3.81729e-06
2.42163e-06
1.98086e-06
6.55189e-06
3.47232e-05
8.81964e-05
0.000139589
0.000182723
5.92562e-06
5.93708e-06
5.94842e-06
5.95832e-06
5.96625e-06
5.97192e-06
5.97511e-06
5.97567e-06
5.97385e-06
5.97035e-06
5.96588e-06
5.96091e-06
5.95579e-06
5.95088e-06
5.94644e-06
5.94258e-06
5.9393e-06
5.9366e-06
5.93445e-06
5.93274e-06
5.93132e-06
5.93006e-06
5.92891e-06
5.92782e-06
5.92667e-06
5.92535e-06
5.92376e-06
5.92187e-06
5.91953e-06
5.91643e-06
5.91244e-06
5.90875e-06
5.90729e-06
5.90963e-06
5.91723e-06
5.9279e-06
5.94027e-06
5.95362e-06
5.96735e-06
5.98074e-06
5.99284e-06
6.00248e-06
6.00827e-06
6.00868e-06
6.00224e-06
5.98767e-06
5.96408e-06
5.93111e-06
5.88898e-06
5.83837e-06
5.78026e-06
5.71531e-06
5.64291e-06
5.55981e-06
5.45913e-06
5.3323e-06
5.17963e-06
5.02415e-06
4.89019e-06
4.67963e-06
4.04803e-06
2.79149e-06
1.81352e-06
3.10629e-06
1.63702e-05
5.83996e-05
0.000109801
0.000154189
0.000190957
5.87332e-06
5.88037e-06
5.889e-06
5.89868e-06
5.90897e-06
5.91925e-06
5.92862e-06
5.93635e-06
5.94225e-06
5.94641e-06
5.9489e-06
5.94971e-06
5.94891e-06
5.94674e-06
5.94357e-06
5.93974e-06
5.93551e-06
5.93109e-06
5.92663e-06
5.92223e-06
5.91795e-06
5.91377e-06
5.90972e-06
5.90581e-06
5.90206e-06
5.89849e-06
5.89511e-06
5.89195e-06
5.88876e-06
5.88534e-06
5.88295e-06
5.88323e-06
5.88787e-06
5.89693e-06
5.90804e-06
5.91981e-06
5.93128e-06
5.94155e-06
5.94968e-06
5.95464e-06
5.95535e-06
5.95071e-06
5.93973e-06
5.92162e-06
5.89592e-06
5.86249e-06
5.82163e-06
5.77392e-06
5.72017e-06
5.66104e-06
5.59657e-06
5.52527e-06
5.44317e-06
5.34361e-06
5.21864e-06
5.06564e-06
4.90106e-06
4.75706e-06
4.58264e-06
4.11666e-06
3.05593e-06
1.90005e-06
2.04817e-06
8.1705e-06
3.71613e-05
8.55576e-05
0.000131032
0.000168375
0.000199052
5.82212e-06
5.82515e-06
5.82936e-06
5.83483e-06
5.84156e-06
5.84936e-06
5.85783e-06
5.86648e-06
5.87499e-06
5.88317e-06
5.89069e-06
5.89712e-06
5.90216e-06
5.90583e-06
5.9083e-06
5.90971e-06
5.91017e-06
5.90978e-06
5.9086e-06
5.90673e-06
5.90427e-06
5.90135e-06
5.89809e-06
5.89463e-06
5.89108e-06
5.88754e-06
5.88414e-06
5.88088e-06
5.87758e-06
5.8747e-06
5.87502e-06
5.87868e-06
5.88351e-06
5.8884e-06
5.89248e-06
5.89495e-06
5.89503e-06
5.89192e-06
5.88486e-06
5.87314e-06
5.85615e-06
5.83349e-06
5.80497e-06
5.77062e-06
5.73073e-06
5.68573e-06
5.63619e-06
5.58259e-06
5.52503e-06
5.46268e-06
5.39309e-06
5.31146e-06
5.21114e-06
5.08563e-06
4.93253e-06
4.76093e-06
4.60541e-06
4.43835e-06
4.07098e-06
3.19317e-06
2.02884e-06
1.68144e-06
4.7253e-06
2.378e-05
6.69407e-05
0.000112865
0.000151276
0.000181914
0.000206738
5.76859e-06
5.76947e-06
5.77073e-06
5.77256e-06
5.77514e-06
5.77858e-06
5.7829e-06
5.78795e-06
5.79357e-06
5.79964e-06
5.80598e-06
5.81226e-06
5.81818e-06
5.82362e-06
5.82852e-06
5.83284e-06
5.83645e-06
5.83914e-06
5.84082e-06
5.84151e-06
5.84135e-06
5.84046e-06
5.83891e-06
5.83678e-06
5.83414e-06
5.83102e-06
5.82743e-06
5.82313e-06
5.81794e-06
5.81316e-06
5.8108e-06
5.80885e-06
5.80605e-06
5.80167e-06
5.79506e-06
5.78562e-06
5.77281e-06
5.75622e-06
5.73558e-06
5.71071e-06
5.68163e-06
5.64844e-06
5.61135e-06
5.57062e-06
5.52651e-06
5.47925e-06
5.42885e-06
5.37475e-06
5.31523e-06
5.24683e-06
5.16421e-06
5.06059e-06
4.93129e-06
4.77638e-06
4.60265e-06
4.43736e-06
4.26119e-06
3.94286e-06
3.21315e-06
2.12889e-06
1.55609e-06
3.20793e-06
1.59226e-05
5.31513e-05
9.89913e-05
0.000138595
0.000170181
0.000194729
0.000214152
5.70973e-06
5.70947e-06
5.70918e-06
5.70897e-06
5.70892e-06
5.70917e-06
5.70981e-06
5.71089e-06
5.71239e-06
5.7143e-06
5.7166e-06
5.71918e-06
5.72188e-06
5.72455e-06
5.72709e-06
5.72941e-06
5.73137e-06
5.73277e-06
5.73347e-06
5.73339e-06
5.73251e-06
5.73084e-06
5.72831e-06
5.72482e-06
5.72024e-06
5.71447e-06
5.70742e-06
5.69881e-06
5.68821e-06
5.67575e-06
5.66249e-06
5.64923e-06
5.63656e-06
5.62388e-06
5.6096e-06
5.59275e-06
5.57288e-06
5.54999e-06
5.52414e-06
5.49542e-06
5.46392e-06
5.4297e-06
5.39273e-06
5.35295e-06
5.3102e-06
5.26403e-06
5.21327e-06
5.15538e-06
5.08607e-06
4.99927e-06
4.88952e-06
4.75271e-06
4.5932e-06
4.41898e-06
4.24741e-06
4.05556e-06
3.75275e-06
3.13255e-06
2.17253e-06
1.52603e-06
2.50035e-06
1.13897e-05
4.30013e-05
8.81864e-05
0.000129107
0.000162065
0.000187578
0.000206835
0.000221407
5.64412e-06
5.64295e-06
5.64162e-06
5.64017e-06
5.63862e-06
5.63701e-06
5.63538e-06
5.63378e-06
5.63224e-06
5.63077e-06
5.6294e-06
5.62812e-06
5.62689e-06
5.62561e-06
5.62421e-06
5.62262e-06
5.62078e-06
5.61857e-06
5.61586e-06
5.61252e-06
5.60844e-06
5.60355e-06
5.59774e-06
5.59088e-06
5.58285e-06
5.57353e-06
5.56282e-06
5.55062e-06
5.53682e-06
5.52126e-06
5.50361e-06
5.48358e-06
5.46109e-06
5.43626e-06
5.40969e-06
5.38221e-06
5.35484e-06
5.32843e-06
5.30162e-06
5.27343e-06
5.24321e-06
5.21041e-06
5.17454e-06
5.1351e-06
5.09121e-06
5.04114e-06
4.98157e-06
4.90733e-06
4.81263e-06
4.69188e-06
4.54693e-06
4.37892e-06
4.20678e-06
4.03197e-06
3.82278e-06
3.51446e-06
2.97062e-06
2.15332e-06
1.53469e-06
2.17212e-06
8.7425e-06
3.5379e-05
7.91783e-05
0.000121303
0.000155975
0.000183075
0.000203364
0.000217769
0.000227857
5.57039e-06
5.56829e-06
5.56598e-06
5.56348e-06
5.56079e-06
5.55791e-06
5.55482e-06
5.55154e-06
5.54807e-06
5.54441e-06
5.54056e-06
5.53653e-06
5.53231e-06
5.52785e-06
5.52312e-06
5.51807e-06
5.51266e-06
5.50681e-06
5.50045e-06
5.49347e-06
5.48577e-06
5.47726e-06
5.46786e-06
5.45744e-06
5.44591e-06
5.43314e-06
5.419e-06
5.40337e-06
5.38621e-06
5.36747e-06
5.34693e-06
5.32432e-06
5.29924e-06
5.27129e-06
5.24027e-06
5.20635e-06
5.17047e-06
5.13394e-06
5.09813e-06
5.06447e-06
5.03042e-06
4.99388e-06
4.95344e-06
4.90754e-06
4.85357e-06
4.78741e-06
4.70359e-06
4.59586e-06
4.46298e-06
4.30414e-06
4.1391e-06
3.97004e-06
3.79103e-06
3.56294e-06
3.23826e-06
2.74587e-06
2.07655e-06
1.55929e-06
2.05348e-06
7.18355e-06
2.94627e-05
7.09591e-05
0.000113816
0.000150276
0.000179457
0.000201616
0.000217337
0.000227295
0.000233236
5.48558e-06
5.48256e-06
5.47928e-06
5.47576e-06
5.472e-06
5.46798e-06
5.46368e-06
5.45909e-06
5.45419e-06
5.44896e-06
5.44339e-06
5.43745e-06
5.43113e-06
5.4244e-06
5.41723e-06
5.40958e-06
5.40141e-06
5.39266e-06
5.38329e-06
5.37321e-06
5.36235e-06
5.35063e-06
5.33795e-06
5.32422e-06
5.30935e-06
5.2932e-06
5.27565e-06
5.25657e-06
5.2359e-06
5.21355e-06
5.18941e-06
5.16328e-06
5.13485e-06
5.10363e-06
5.06907e-06
5.03078e-06
4.98871e-06
4.9435e-06
4.8965e-06
4.84924e-06
4.80391e-06
4.75664e-06
4.70359e-06
4.64075e-06
4.56255e-06
4.46405e-06
4.34233e-06
4.19341e-06
4.03447e-06
3.87223e-06
3.71185e-06
3.5232e-06
3.27327e-06
2.92983e-06
2.47871e-06
1.95779e-06
1.59279e-06
2.07656e-06
6.29995e-06
2.47533e-05
6.29078e-05
0.00010567
0.000143631
0.000175048
0.000199714
0.000217737
0.00022932
0.0002354
0.000237886
5.3844e-06
5.38048e-06
5.37625e-06
5.37172e-06
5.36689e-06
5.36174e-06
5.35626e-06
5.35041e-06
5.34417e-06
5.33751e-06
5.33041e-06
5.32284e-06
5.31475e-06
5.30613e-06
5.29693e-06
5.2871e-06
5.27661e-06
5.26539e-06
5.2534e-06
5.24055e-06
5.22679e-06
5.21202e-06
5.19616e-06
5.1791e-06
5.16073e-06
5.14095e-06
5.11958e-06
5.09652e-06
5.07167e-06
5.04487e-06
5.01596e-06
4.98473e-06
4.95091e-06
4.91414e-06
4.87389e-06
4.82948e-06
4.78022e-06
4.72566e-06
4.66611e-06
4.603e-06
4.53761e-06
4.46993e-06
4.39262e-06
4.29903e-06
4.18177e-06
4.04595e-06
3.89754e-06
3.74259e-06
3.5879e-06
3.4225e-06
3.21898e-06
2.94768e-06
2.59375e-06
2.18854e-06
1.81755e-06
1.63818e-06
2.22032e-06
5.87651e-06
2.09844e-05
5.47945e-05
9.63401e-05
0.000135201
0.000168622
0.000195929
0.000216826
0.000231169
0.000239167
0.000241976
0.000241647
5.25917e-06
5.25427e-06
5.24902e-06
5.2434e-06
5.23741e-06
5.23104e-06
5.22425e-06
5.21702e-06
5.20932e-06
5.20112e-06
5.19237e-06
5.18305e-06
5.17311e-06
5.16251e-06
5.15119e-06
5.1391e-06
5.1262e-06
5.1124e-06
5.09765e-06
5.08186e-06
5.06495e-06
5.04683e-06
5.02739e-06
5.00651e-06
4.98406e-06
4.9599e-06
4.93385e-06
4.90583e-06
4.87564e-06
4.84304e-06
4.80776e-06
4.76953e-06
4.72804e-06
4.68297e-06
4.63393e-06
4.58034e-06
4.52139e-06
4.45608e-06
4.38362e-06
4.30355e-06
4.21505e-06
4.11619e-06
4.00371e-06
3.87596e-06
3.73545e-06
3.5868e-06
3.43241e-06
3.278e-06
3.0958e-06
2.86998e-06
2.58277e-06
2.23861e-06
1.89963e-06
1.67944e-06
1.7288e-06
2.4875e-06
5.79986e-06
1.80035e-05
4.66844e-05
8.56897e-05
0.000124612
0.000159508
0.0001892
0.000213077
0.000230729
0.000241841
0.000246818
0.000246948
0.000244427
5.09964e-06
5.09351e-06
5.08697e-06
5.08e-06
5.07259e-06
5.06471e-06
5.05633e-06
5.04741e-06
5.03793e-06
5.02783e-06
5.01709e-06
5.00564e-06
4.99343e-06
4.98042e-06
4.96653e-06
4.95171e-06
4.93588e-06
4.91895e-06
4.90085e-06
4.88146e-06
4.8607e-06
4.83843e-06
4.81454e-06
4.78886e-06
4.76124e-06
4.73147e-06
4.69945e-06
4.66502e-06
4.6279e-06
4.58778e-06
4.54434e-06
4.4972e-06
4.44595e-06
4.39012e-06
4.32926e-06
4.26285e-06
4.19017e-06
4.10999e-06
4.02067e-06
3.9204e-06
3.80751e-06
3.68088e-06
3.54267e-06
3.39539e-06
3.24166e-06
3.09087e-06
2.91698e-06
2.71083e-06
2.46579e-06
2.18281e-06
1.88302e-06
1.64472e-06
1.57342e-06
1.86592e-06
2.8741e-06
5.98205e-06
1.56603e-05
3.87672e-05
7.38193e-05
0.00011179
0.000147443
0.000178976
0.000205518
0.000226461
0.000241262
0.000249679
0.000252215
0.000250192
0.000245766
4.89193e-06
4.88416e-06
4.87591e-06
4.86715e-06
4.85787e-06
4.84802e-06
4.83756e-06
4.82646e-06
4.81468e-06
4.80215e-06
4.78882e-06
4.77464e-06
4.75954e-06
4.74345e-06
4.72629e-06
4.70798e-06
4.68843e-06
4.66754e-06
4.64518e-06
4.62125e-06
4.59561e-06
4.5681e-06
4.53857e-06
4.50682e-06
4.47264e-06
4.43584e-06
4.39628e-06
4.35362e-06
4.30755e-06
4.25771e-06
4.20373e-06
4.14517e-06
4.08156e-06
4.01239e-06
3.93693e-06
3.85415e-06
3.76277e-06
3.66107e-06
3.54735e-06
3.42072e-06
3.28445e-06
3.13799e-06
2.98501e-06
2.83771e-06
2.67086e-06
2.47804e-06
2.25811e-06
2.01835e-06
1.77473e-06
1.56866e-06
1.45108e-06
1.56826e-06
2.09825e-06
3.38801e-06
6.35442e-06
1.38035e-05
3.12388e-05
6.09293e-05
9.67459e-05
0.000132346
0.000165016
0.000193618
0.000217428
0.000235845
0.000248268
0.000254564
0.000255246
0.000251596
0.000245898
4.61581e-06
4.60588e-06
4.59537e-06
4.58425e-06
4.57249e-06
4.56004e-06
4.54686e-06
4.53289e-06
4.51808e-06
4.50237e-06
4.48568e-06
4.46795e-06
4.44909e-06
4.42902e-06
4.40763e-06
4.38483e-06
4.36049e-06
4.33449e-06
4.30668e-06
4.27692e-06
4.24503e-06
4.21083e-06
4.17411e-06
4.13459e-06
4.09209e-06
4.04652e-06
3.99751e-06
3.9447e-06
3.88769e-06
3.82605e-06
3.75931e-06
3.68697e-06
3.60833e-06
3.52253e-06
3.4282e-06
3.32385e-06
3.2077e-06
3.08003e-06
2.9443e-06
2.79824e-06
2.65364e-06
2.50947e-06
2.34933e-06
2.16977e-06
1.97516e-06
1.77052e-06
1.57716e-06
1.42344e-06
1.33233e-06
1.38997e-06
1.691e-06
2.44741e-06
3.99231e-06
6.804e-06
1.22681e-05
2.42502e-05
4.72726e-05
7.93969e-05
0.000114035
0.000147115
0.000177052
0.000203056
0.000224519
0.00024081
0.00025139
0.00025616
0.000255568
0.000250772
0.000244149
4.24033e-06
4.22765e-06
4.21427e-06
4.20016e-06
4.18527e-06
4.16955e-06
4.15293e-06
4.13536e-06
4.11677e-06
4.09707e-06
4.0762e-06
4.05405e-06
4.03053e-06
4.00553e-06
3.97893e-06
3.9506e-06
3.92041e-06
3.88818e-06
3.85376e-06
3.81695e-06
3.77754e-06
3.73533e-06
3.69002e-06
3.64135e-06
3.58925e-06
3.53329e-06
3.47307e-06
3.40819e-06
3.3382e-06
3.26256e-06
3.18071e-06
3.09184e-06
2.99474e-06
2.88785e-06
2.76976e-06
2.64359e-06
2.50804e-06
2.36539e-06
2.23513e-06
2.09809e-06
1.94869e-06
1.7911e-06
1.62623e-06
1.46503e-06
1.32821e-06
1.2249e-06
1.18809e-06
1.26006e-06
1.48513e-06
1.96629e-06
2.9087e-06
4.58389e-06
7.13883e-06
1.08865e-05
1.79857e-05
3.33372e-05
5.95869e-05
9.19941e-05
0.000124781
0.000155355
0.000182765
0.000206463
0.000225939
0.000240557
0.000249845
0.000253661
0.000252277
0.000246465
0.000238289
3.7176e-06
3.70169e-06
3.68496e-06
3.66734e-06
3.64879e-06
3.62924e-06
3.60863e-06
3.58688e-06
3.56392e-06
3.53966e-06
3.51399e-06
3.48682e-06
3.45802e-06
3.42747e-06
3.39503e-06
3.36056e-06
3.32388e-06
3.28482e-06
3.24319e-06
3.19877e-06
3.15134e-06
3.10061e-06
3.04634e-06
2.98851e-06
2.9267e-06
2.86041e-06
2.78918e-06
2.71248e-06
2.62969e-06
2.54022e-06
2.44322e-06
2.3369e-06
2.22208e-06
2.10041e-06
1.97006e-06
1.84934e-06
1.73323e-06
1.61379e-06
1.48885e-06
1.36097e-06
1.24167e-06
1.14174e-06
1.05767e-06
1.01409e-06
1.03671e-06
1.14135e-06
1.35609e-06
1.72993e-06
2.35156e-06
3.36924e-06
4.94701e-06
7.06516e-06
9.47023e-06
1.27472e-05
2.03332e-05
3.7719e-05
6.5321e-05
9.68693e-05
0.000127543
0.00015567
0.00018072
0.000202356
0.000220168
0.000233554
0.000242058
0.000245419
0.000243606
0.000236875
0.0002286
2.98527e-06
2.96637e-06
2.94657e-06
2.92581e-06
2.90403e-06
2.88116e-06
2.85714e-06
2.83188e-06
2.80531e-06
2.77733e-06
2.74783e-06
2.71672e-06
2.68388e-06
2.64917e-06
2.61246e-06
2.5736e-06
2.53244e-06
2.4888e-06
2.4425e-06
2.39335e-06
2.34115e-06
2.28569e-06
2.22674e-06
2.16376e-06
2.09628e-06
2.0239e-06
1.94625e-06
1.8631e-06
1.7741e-06
1.67934e-06
1.5791e-06
1.47094e-06
1.36321e-06
1.27346e-06
1.18454e-06
1.09684e-06
1.01723e-06
9.49801e-07
8.8323e-07
8.33117e-07
8.23258e-07
8.51105e-07
9.2272e-07
1.05175e-06
1.25908e-06
1.57082e-06
2.01784e-06
2.64572e-06
3.52548e-06
4.72466e-06
6.20505e-06
7.6763e-06
8.78208e-06
1.05289e-05
1.69996e-05
3.4197e-05
6.13398e-05
9.14256e-05
0.000119946
0.000145699
0.000168483
0.000188192
0.00020453
0.000216982
0.000225053
0.000228257
0.000226038
0.000218085
0.000210883
2.00703e-06
1.98794e-06
1.96802e-06
1.94723e-06
1.92551e-06
1.90282e-06
1.87911e-06
1.85433e-06
1.82842e-06
1.80131e-06
1.77292e-06
1.74317e-06
1.71197e-06
1.67924e-06
1.64487e-06
1.60879e-06
1.57089e-06
1.53104e-06
1.48916e-06
1.44535e-06
1.39913e-06
1.34984e-06
1.29735e-06
1.24171e-06
1.18313e-06
1.12192e-06
1.05871e-06
9.94137e-07
9.28473e-07
8.64461e-07
8.04875e-07
7.51215e-07
7.04869e-07
6.67116e-07
6.36132e-07
6.19072e-07
6.29227e-07
6.55809e-07
7.0021e-07
7.66215e-07
8.59585e-07
9.88202e-07
1.16186e-06
1.3911e-06
1.68314e-06
2.03752e-06
2.45389e-06
2.95546e-06
3.58898e-06
4.35899e-06
5.12069e-06
5.55761e-06
5.31417e-06
5.03358e-06
8.22296e-06
2.06146e-05
4.36472e-05
7.14663e-05
9.78403e-05
0.000121253
0.000141711
0.000159371
0.000174118
0.000185571
0.000193187
0.000196005
0.000192635
0.000183511
0.000179681
9.23172e-07
9.10256e-07
8.96898e-07
8.83149e-07
8.69044e-07
8.54591e-07
8.39777e-07
8.24577e-07
8.08962e-07
7.92892e-07
7.76326e-07
7.59223e-07
7.41548e-07
7.2327e-07
7.04341e-07
6.84726e-07
6.64407e-07
6.43396e-07
6.21671e-07
5.99236e-07
5.76489e-07
5.53995e-07
5.32049e-07
5.10945e-07
4.9112e-07
4.72946e-07
4.57183e-07
4.43587e-07
4.3046e-07
4.31658e-07
4.43797e-07
4.62095e-07
4.86166e-07
5.16369e-07
5.53118e-07
5.96517e-07
6.46869e-07
7.04571e-07
7.71367e-07
8.50341e-07
9.43638e-07
1.05126e-06
1.17111e-06
1.29719e-06
1.41739e-06
1.52192e-06
1.62266e-06
1.75779e-06
1.96603e-06
2.23471e-06
2.41431e-06
2.22737e-06
1.57749e-06
1.36993e-06
1.85877e-06
4.70969e-06
1.38294e-05
3.30946e-05
5.45242e-05
7.4095e-05
9.0878e-05
0.00010534
0.000117765
0.000127713
0.000134556
0.000137216
0.000134564
0.00013162
0.000130824
1.92926e-07
1.91424e-07
1.91543e-07
1.93379e-07
1.965e-07
2.00468e-07
2.04964e-07
2.09771e-07
2.14736e-07
2.19749e-07
2.2472e-07
2.29601e-07
2.34354e-07
2.38783e-07
2.42978e-07
2.47695e-07
2.5308e-07
2.59191e-07
2.6614e-07
2.74014e-07
2.8286e-07
2.92715e-07
3.03606e-07
3.15531e-07
3.28459e-07
3.423e-07
3.56913e-07
3.72065e-07
3.87303e-07
4.02218e-07
4.16323e-07
4.28908e-07
4.39205e-07
4.46519e-07
4.50383e-07
4.50816e-07
4.48878e-07
4.47114e-07
4.48305e-07
4.52192e-07
4.53739e-07
4.47575e-07
4.32716e-07
4.10981e-07
3.84018e-07
3.55859e-07
3.39521e-07
3.43514e-07
3.55527e-07
3.45293e-07
2.72706e-07
2.4477e-07
2.0319e-07
2.01297e-07
1.77044e-07
2.44482e-07
7.61311e-07
2.37596e-06
5.80026e-06
1.13069e-05
1.84033e-05
2.62685e-05
3.42243e-05
4.14945e-05
4.75401e-05
5.19407e-05
5.44809e-05
5.62657e-05
5.80775e-05
8.17751e-08
8.48295e-08
8.79932e-08
9.13026e-08
9.47661e-08
9.83794e-08
1.02128e-07
1.05988e-07
1.09927e-07
1.13908e-07
1.17891e-07
1.21824e-07
1.25646e-07
1.29362e-07
1.32841e-07
1.35543e-07
1.37415e-07
1.38461e-07
1.3867e-07
1.38018e-07
1.36476e-07
1.34007e-07
1.3058e-07
1.26165e-07
1.20747e-07
1.14331e-07
1.06952e-07
9.86871e-08
8.96625e-08
8.00617e-08
7.01287e-08
6.01596e-08
5.04868e-08
4.14528e-08
3.33822e-08
2.6568e-08
2.12439e-08
1.74232e-08
1.46135e-08
1.19592e-08
9.03286e-09
6.35058e-09
4.30027e-09
2.99322e-09
2.00325e-09
1.22755e-09
1.0336e-09
1.11276e-09
1.30837e-09
1.45315e-09
1.49338e-09
1.55296e-09
1.29666e-09
9.60244e-10
6.27397e-10
1.02957e-09
2.66197e-09
6.56615e-09
1.26426e-08
3.24859e-08
6.90384e-08
1.2411e-07
1.9376e-07
2.75569e-07
3.66076e-07
4.62739e-07
5.59436e-07
6.81188e-07
7.89276e-07
6.11423e-06
6.11626e-06
6.12231e-06
6.13106e-06
6.1431e-06
6.15604e-06
6.16315e-06
6.16384e-06
6.16029e-06
6.15744e-06
6.15438e-06
6.15206e-06
6.14925e-06
6.14975e-06
6.14651e-06
6.13976e-06
6.13322e-06
6.13229e-06
6.13931e-06
6.14877e-06
6.14942e-06
6.12565e-06
6.12511e-06
6.11212e-06
6.08432e-06
6.07207e-06
6.07353e-06
6.08624e-06
6.11094e-06
6.11239e-06
6.09351e-06
6.07334e-06
6.05826e-06
6.05101e-06
6.05213e-06
6.05347e-06
6.04436e-06
6.04168e-06
6.04861e-06
6.05733e-06
6.06934e-06
6.06823e-06
6.07618e-06
6.06688e-06
6.05259e-06
6.05227e-06
6.05446e-06
6.06543e-06
6.06546e-06
6.05491e-06
6.04892e-06
6.05134e-06
6.06107e-06
6.07233e-06
6.08827e-06
6.09998e-06
6.10523e-06
6.10715e-06
6.1079e-06
6.11827e-06
6.1271e-06
6.13724e-06
6.14517e-06
6.15018e-06
6.15003e-06
6.14562e-06
6.14257e-06
6.13928e-06
6.13749e-06
6.13599e-06
6.13471e-06
6.13338e-06
6.1308e-06
6.12562e-06
6.12056e-06
6.11884e-06
6.12221e-06
6.12978e-06
6.13395e-06
6.12604e-06
6.10941e-06
6.10657e-06
6.08977e-06
6.06717e-06
6.05966e-06
6.0641e-06
6.07881e-06
6.09876e-06
6.09747e-06
6.07976e-06
6.06086e-06
6.04627e-06
6.03881e-06
6.03937e-06
6.04085e-06
6.03301e-06
6.02849e-06
6.03321e-06
6.04106e-06
6.05178e-06
6.05462e-06
6.06072e-06
6.06021e-06
6.05077e-06
6.04398e-06
6.04209e-06
6.04852e-06
6.05926e-06
6.05527e-06
6.04689e-06
6.04161e-06
6.04236e-06
6.04772e-06
6.05792e-06
6.07118e-06
6.08721e-06
6.10032e-06
6.10936e-06
6.12943e-06
6.13329e-06
6.13455e-06
6.1323e-06
6.12862e-06
6.12528e-06
6.12187e-06
6.12016e-06
6.11917e-06
6.11854e-06
6.11761e-06
6.11602e-06
6.11345e-06
6.10949e-06
6.10555e-06
6.10392e-06
6.10578e-06
6.11062e-06
6.11528e-06
6.11319e-06
6.10256e-06
6.09203e-06
6.08572e-06
6.068e-06
6.05098e-06
6.04746e-06
6.05423e-06
6.06941e-06
6.08488e-06
6.08146e-06
6.06494e-06
6.04723e-06
6.03322e-06
6.0256e-06
6.02564e-06
6.02718e-06
6.02079e-06
6.01515e-06
6.01723e-06
6.02374e-06
6.03323e-06
6.03826e-06
6.0435e-06
6.04701e-06
6.04406e-06
6.03768e-06
6.03265e-06
6.03288e-06
6.04042e-06
6.04693e-06
6.04458e-06
6.03833e-06
6.03322e-06
6.03173e-06
6.0344e-06
6.04088e-06
6.05133e-06
6.06369e-06
6.0784e-06
6.1153e-06
6.11082e-06
6.10765e-06
6.10461e-06
6.10188e-06
6.10039e-06
6.09979e-06
6.09973e-06
6.09953e-06
6.09867e-06
6.09697e-06
6.09448e-06
6.09144e-06
6.08856e-06
6.08726e-06
6.0884e-06
6.09157e-06
6.09516e-06
6.09553e-06
6.0896e-06
6.08012e-06
6.07263e-06
6.06345e-06
6.04707e-06
6.03526e-06
6.03504e-06
6.04349e-06
6.05804e-06
6.06948e-06
6.06445e-06
6.04896e-06
6.03238e-06
6.01899e-06
6.01136e-06
6.01092e-06
6.01241e-06
6.00738e-06
6.0013e-06
6.00092e-06
6.0056e-06
6.01369e-06
6.0197e-06
6.02475e-06
6.02954e-06
6.03122e-06
6.02858e-06
6.02397e-06
6.0207e-06
6.02249e-06
6.02881e-06
6.03407e-06
6.03468e-06
6.03057e-06
6.02533e-06
6.02198e-06
6.02157e-06
6.02436e-06
6.03014e-06
6.03871e-06
6.08326e-06
6.08062e-06
6.07913e-06
6.07836e-06
6.07827e-06
6.07863e-06
6.07899e-06
6.07879e-06
6.07778e-06
6.076e-06
6.07372e-06
6.07139e-06
6.06949e-06
6.06865e-06
6.06944e-06
6.0716e-06
6.07409e-06
6.07501e-06
6.07198e-06
6.06516e-06
6.05799e-06
6.05112e-06
6.04048e-06
6.02684e-06
6.01959e-06
6.02199e-06
6.03144e-06
6.0446e-06
6.05251e-06
6.04627e-06
6.03169e-06
6.01619e-06
6.00344e-06
5.99593e-06
5.99506e-06
5.9964e-06
5.99256e-06
5.98658e-06
5.9843e-06
5.98684e-06
5.99319e-06
5.99932e-06
6.00434e-06
6.00926e-06
6.0132e-06
6.01427e-06
6.01244e-06
6.00922e-06
6.00748e-06
6.00972e-06
6.01538e-06
6.02145e-06
6.02479e-06
6.02329e-06
6.01916e-06
6.0149e-06
6.01209e-06
6.01141e-06
6.01297e-06
6.05426e-06
6.05454e-06
6.05509e-06
6.05574e-06
6.05634e-06
6.05646e-06
6.0559e-06
6.0546e-06
6.05281e-06
6.0509e-06
6.04924e-06
6.04815e-06
6.04784e-06
6.04848e-06
6.04996e-06
6.0516e-06
6.05238e-06
6.05082e-06
6.04642e-06
6.04074e-06
6.03504e-06
6.02781e-06
6.01725e-06
6.00699e-06
6.00352e-06
6.00788e-06
6.01766e-06
6.02898e-06
6.03386e-06
6.02672e-06
6.01299e-06
5.9985e-06
5.98642e-06
5.97912e-06
5.97786e-06
5.97898e-06
5.97613e-06
5.97061e-06
5.96706e-06
5.96752e-06
5.97184e-06
5.97732e-06
5.98223e-06
5.98688e-06
5.99141e-06
5.9947e-06
5.99584e-06
5.99478e-06
5.99275e-06
5.99208e-06
5.99448e-06
6.00006e-06
6.00678e-06
6.01253e-06
6.01566e-06
6.0149e-06
6.01202e-06
6.00864e-06
6.00585e-06
6.02992e-06
6.0311e-06
6.03182e-06
6.03181e-06
6.03131e-06
6.03025e-06
6.02876e-06
6.02714e-06
6.02573e-06
6.02477e-06
6.02435e-06
6.02449e-06
6.02511e-06
6.02612e-06
6.02713e-06
6.0276e-06
6.02674e-06
6.02407e-06
6.02018e-06
6.01581e-06
6.01057e-06
6.00309e-06
5.99387e-06
5.98705e-06
5.98657e-06
5.99226e-06
6.00178e-06
6.01102e-06
6.01333e-06
6.00558e-06
5.99264e-06
5.97912e-06
5.96772e-06
5.96068e-06
5.95908e-06
5.95993e-06
5.95787e-06
5.953e-06
5.94877e-06
5.94747e-06
5.94968e-06
5.95389e-06
5.95834e-06
5.96259e-06
5.96689e-06
5.9709e-06
5.97389e-06
5.97521e-06
5.97484e-06
5.97383e-06
5.97391e-06
5.97641e-06
5.98169e-06
5.98878e-06
5.99647e-06
6.00449e-06
6.01066e-06
6.0138e-06
6.01251e-06
6.00504e-06
6.00399e-06
6.00368e-06
6.00264e-06
6.00135e-06
5.99995e-06
5.99877e-06
5.99799e-06
5.99768e-06
5.99781e-06
5.99825e-06
5.99887e-06
5.99956e-06
6.00015e-06
6.00035e-06
5.99988e-06
5.99842e-06
5.99612e-06
5.99323e-06
5.98956e-06
5.98435e-06
5.97727e-06
5.97014e-06
5.96645e-06
5.96822e-06
5.97466e-06
5.98344e-06
5.99053e-06
5.99072e-06
5.98258e-06
5.97039e-06