/*--------------------------------*- C++ -*----------------------------------*\
| =========                 |                                                 |
| \\      /  F ield         | OpenFOAM: The Open Source CFD Toolbox           |
|  \\    /   O peration     | Version:  2312                                  |
|   \\  /    A nd           | Website:  www.openfoam.com                      |
|    \\/     M anipulation  |                                                 |
\*---------------------------------------------------------------------------*/
FoamFile
{
    version     2.0;
    format      ascii;
    arch        "LSB;label=32;scalar=64";
    class       volScalarField;
    location    "2000";
    object      nuTilda;
}
// * * * * * * * * * * * * * * * * * * * * * * * * * * * * * * * * * * * * * //

dimensions      [0 2 -1 0 0 0 0];

internalField   nonuniform List<scalar> 
76025
(
4.00748e-05
4.0073e-05
4.00674e-05
4.00724e-05
4.00834e-05
4.00987e-05
4.0114e-05
4.01287e-05
4.01438e-05
4.01597e-05
4.01769e-05
4.0193e-05
4.02056e-05
4.02155e-05
4.02255e-05
4.0235e-05
4.02456e-05
4.02561e-05
4.02661e-05
4.02749e-05
4.02764e-05
4.02782e-05
4.028e-05
4.02873e-05
4.03057e-05
4.03277e-05
4.0354e-05
4.03813e-05
4.0411e-05
4.04417e-05
4.04756e-05
4.0507e-05
4.05398e-05
4.05685e-05
4.05937e-05
4.06122e-05
4.06257e-05
4.0634e-05
4.06346e-05
4.06298e-05
4.06221e-05
4.06135e-05
4.06027e-05
4.05974e-05
4.05859e-05
4.05934e-05
4.0616e-05
4.06413e-05
4.06633e-05
4.06765e-05
4.06768e-05
4.06642e-05
4.06432e-05
4.06203e-05
4.05999e-05
4.05867e-05
4.05715e-05
4.05466e-05
4.0498e-05
4.04087e-05
4.02718e-05
4.00772e-05
3.98564e-05
3.96439e-05
3.84172e-05
3.41751e-05
3.63157e-05
6.87252e-05
0.000128675
4.00881e-05
4.00946e-05
4.0094e-05
4.0091e-05
4.00913e-05
4.00949e-05
4.01048e-05
4.01179e-05
4.01323e-05
4.01472e-05
4.0163e-05
4.01797e-05
4.01965e-05
4.02121e-05
4.02253e-05
4.02374e-05
4.02483e-05
4.02588e-05
4.02688e-05
4.02788e-05
4.02864e-05
4.02913e-05
4.0294e-05
4.02894e-05
4.02861e-05
4.02856e-05
4.02878e-05
4.02923e-05
4.02988e-05
4.03067e-05
4.03152e-05
4.03245e-05
4.03317e-05
4.03388e-05
4.03464e-05
4.03546e-05
4.03635e-05
4.03723e-05
4.03833e-05
4.04085e-05
4.04393e-05
4.04731e-05
4.05086e-05
4.05445e-05
4.05789e-05
4.06089e-05
4.06313e-05
4.06433e-05
4.06431e-05
4.06312e-05
4.06102e-05
4.05853e-05
4.0562e-05
4.05438e-05
4.05306e-05
4.05164e-05
4.04917e-05
4.04458e-05
4.03687e-05
4.02498e-05
4.00735e-05
3.98436e-05
3.96241e-05
3.9308e-05
3.73428e-05
3.27013e-05
3.89583e-05
7.63018e-05
0.000137783
4.00481e-05
4.00746e-05
4.00937e-05
4.01047e-05
4.01103e-05
4.01128e-05
4.01156e-05
4.01208e-05
4.01291e-05
4.01397e-05
4.01521e-05
4.01659e-05
4.0181e-05
4.0197e-05
4.02129e-05
4.02281e-05
4.02424e-05
4.02558e-05
4.02682e-05
4.028e-05
4.02912e-05
4.03015e-05
4.03107e-05
4.03174e-05
4.03221e-05
4.03255e-05
4.03285e-05
4.03316e-05
4.03353e-05
4.03398e-05
4.03452e-05
4.03521e-05
4.03614e-05
4.03728e-05
4.03863e-05
4.0402e-05
4.04198e-05
4.04397e-05
4.04614e-05
4.04848e-05
4.05094e-05
4.0534e-05
4.0557e-05
4.05765e-05
4.05902e-05
4.05961e-05
4.05927e-05
4.05799e-05
4.05593e-05
4.05343e-05
4.05093e-05
4.04885e-05
4.04737e-05
4.04631e-05
4.04506e-05
4.0427e-05
4.03826e-05
4.03095e-05
4.02e-05
4.00415e-05
3.98244e-05
3.95773e-05
3.93563e-05
3.8769e-05
3.58337e-05
3.17807e-05
4.34006e-05
8.55169e-05
0.000146238
3.99682e-05
3.99958e-05
4.00261e-05
4.00572e-05
4.00833e-05
4.01031e-05
4.0117e-05
4.0127e-05
4.01352e-05
4.01434e-05
4.01523e-05
4.01623e-05
4.01736e-05
4.01861e-05
4.01998e-05
4.02143e-05
4.02291e-05
4.02439e-05
4.02583e-05
4.02723e-05
4.02858e-05
4.0299e-05
4.03116e-05
4.03238e-05
4.03351e-05
4.03456e-05
4.03554e-05
4.03646e-05
4.03736e-05
4.03826e-05
4.03919e-05
4.04016e-05
4.04125e-05
4.04246e-05
4.04378e-05
4.04521e-05
4.04674e-05
4.04833e-05
4.04994e-05
4.05149e-05
4.05286e-05
4.05393e-05
4.05454e-05
4.05453e-05
4.0538e-05
4.05232e-05
4.05021e-05
4.0477e-05
4.04515e-05
4.04293e-05
4.0413e-05
4.04028e-05
4.03953e-05
4.03838e-05
4.03595e-05
4.0314e-05
4.02411e-05
4.01361e-05
3.99906e-05
3.97912e-05
3.9542e-05
3.92948e-05
3.90268e-05
3.79089e-05
3.3975e-05
3.18103e-05
4.9665e-05
9.53487e-05
0.000154282
3.99055e-05
3.99197e-05
3.99397e-05
3.99646e-05
3.9992e-05
4.0019e-05
4.00498e-05
4.0078e-05
4.01018e-05
4.01214e-05
4.01378e-05
4.0152e-05
4.01649e-05
4.01774e-05
4.01899e-05
4.02027e-05
4.0216e-05
4.02297e-05
4.02437e-05
4.02578e-05
4.02718e-05
4.02858e-05
4.02995e-05
4.03131e-05
4.03264e-05
4.03394e-05
4.03519e-05
4.03641e-05
4.03758e-05
4.03872e-05
4.03981e-05
4.04087e-05
4.04196e-05
4.04308e-05
4.0442e-05
4.0453e-05
4.04634e-05
4.04726e-05
4.04797e-05
4.04838e-05
4.04836e-05
4.04782e-05
4.0467e-05
4.045e-05
4.04281e-05
4.04034e-05
4.03786e-05
4.0357e-05
4.0341e-05
4.03314e-05
4.03265e-05
4.03218e-05
4.031e-05
4.02833e-05
4.02345e-05
4.01592e-05
4.00549e-05
3.99167e-05
3.97323e-05
3.94924e-05
3.92261e-05
3.8985e-05
3.85354e-05
3.65511e-05
3.19998e-05
3.34542e-05
5.79057e-05
0.000105857
0.000162114
3.98796e-05
3.98774e-05
3.98806e-05
3.98897e-05
3.9904e-05
3.99224e-05
3.99452e-05
3.99707e-05
3.99969e-05
4.00225e-05
4.00512e-05
4.00794e-05
4.01051e-05
4.01279e-05
4.01483e-05
4.01667e-05
4.01836e-05
4.01995e-05
4.02148e-05
4.02296e-05
4.02441e-05
4.02583e-05
4.02722e-05
4.02858e-05
4.0299e-05
4.03118e-05
4.03241e-05
4.0336e-05
4.03472e-05
4.03577e-05
4.03672e-05
4.0376e-05
4.03844e-05
4.0392e-05
4.03983e-05
4.04029e-05
4.04049e-05
4.04037e-05
4.03985e-05
4.03887e-05
4.03743e-05
4.03556e-05
4.03337e-05
4.03104e-05
4.02881e-05
4.02693e-05
4.0256e-05
4.0249e-05
4.02473e-05
4.02473e-05
4.02437e-05
4.02295e-05
4.01979e-05
4.01434e-05
4.00632e-05
3.99566e-05
3.98213e-05
3.96473e-05
3.94202e-05
3.91481e-05
3.88863e-05
3.86091e-05
3.77037e-05
3.45811e-05
3.04962e-05
3.7483e-05
6.824e-05
0.000116978
0.000169736
3.98883e-05
3.98764e-05
3.98663e-05
3.98594e-05
3.9857e-05
3.98592e-05
3.9866e-05
3.98773e-05
3.98924e-05
3.99101e-05
3.99306e-05
3.99533e-05
3.99769e-05
4.00001e-05
4.00235e-05
4.00499e-05
4.00768e-05
4.01023e-05
4.01258e-05
4.01473e-05
4.01669e-05
4.01846e-05
4.02009e-05
4.02159e-05
4.02297e-05
4.02425e-05
4.02541e-05
4.02645e-05
4.02737e-05
4.02814e-05
4.02873e-05
4.0292e-05
4.0295e-05
4.02957e-05
4.02935e-05
4.0288e-05
4.0279e-05
4.02663e-05
4.02503e-05
4.02318e-05
4.02121e-05
4.01927e-05
4.01756e-05
4.01627e-05
4.01553e-05
4.01538e-05
4.01571e-05
4.01623e-05
4.01649e-05
4.01591e-05
4.01391e-05
4.00995e-05
4.00367e-05
3.99496e-05
3.98387e-05
3.97032e-05
3.95355e-05
3.93198e-05
3.90506e-05
3.87671e-05
3.85144e-05
3.80414e-05
3.62694e-05
3.21364e-05
3.04927e-05
4.4717e-05
8.06916e-05
0.000128667
0.000177218
3.98891e-05
3.98867e-05
3.98785e-05
3.98672e-05
3.98556e-05
3.98453e-05
3.98375e-05
3.9833e-05
3.98321e-05
3.98348e-05
3.98408e-05
3.98497e-05
3.98612e-05
3.98746e-05
3.98893e-05
3.99058e-05
3.99238e-05
3.99426e-05
3.99612e-05
3.99786e-05
3.9995e-05
4.00131e-05
4.0033e-05
4.00525e-05
4.00704e-05
4.00862e-05
4.00994e-05
4.01101e-05
4.01179e-05
4.01227e-05
4.01247e-05
4.01245e-05
4.01213e-05
4.0115e-05
4.01059e-05
4.00947e-05
4.0082e-05
4.00688e-05
4.00564e-05
4.00461e-05
4.00392e-05
4.00368e-05
4.00394e-05
4.00468e-05
4.00574e-05
4.00687e-05
4.00768e-05
4.00769e-05
4.00642e-05
4.0034e-05
3.9983e-05
3.99096e-05
3.98141e-05
3.96979e-05
3.95607e-05
3.93963e-05
3.91891e-05
3.89259e-05
3.86283e-05
3.83577e-05
3.80409e-05
3.70228e-05
3.4015e-05
2.99289e-05
3.34307e-05
5.56344e-05
9.51082e-05
0.000140851
0.000184604
3.98281e-05
3.98466e-05
3.98584e-05
3.98631e-05
3.98613e-05
3.98544e-05
3.98448e-05
3.98341e-05
3.98236e-05
3.98144e-05
3.98072e-05
3.98021e-05
3.97995e-05
3.9799e-05
3.98005e-05
3.98038e-05
3.98086e-05
3.98148e-05
3.9822e-05
3.98295e-05
3.98369e-05
3.98445e-05
3.98525e-05
3.98605e-05
3.98677e-05
3.98735e-05
3.98773e-05
3.9879e-05
3.98784e-05
3.98747e-05
3.98685e-05
3.98636e-05
3.98625e-05
3.98628e-05
3.9864e-05
3.98664e-05
3.98707e-05
3.98776e-05
3.98874e-05
3.99006e-05
3.99168e-05
3.99353e-05
3.99543e-05
3.99715e-05
3.99834e-05
3.99865e-05
3.99768e-05
3.99509e-05
3.99061e-05
3.9841e-05
3.97558e-05
3.96518e-05
3.95304e-05
3.93912e-05
3.92282e-05
3.90265e-05
3.8769e-05
3.84635e-05
3.81662e-05
3.78904e-05
3.72535e-05
3.51845e-05
3.11359e-05
2.95255e-05
4.08791e-05
7.03769e-05
0.000111171
0.000153423
0.000191967
3.97339e-05
3.97556e-05
3.97769e-05
3.97956e-05
3.98105e-05
3.98211e-05
3.98271e-05
3.98282e-05
3.98248e-05
3.98182e-05
3.98098e-05
3.98004e-05
3.97908e-05
3.97816e-05
3.97732e-05
3.97659e-05
3.97598e-05
3.97547e-05
3.97506e-05
3.97474e-05
3.97447e-05
3.97423e-05
3.97402e-05
3.97381e-05
3.97359e-05
3.97334e-05
3.97304e-05
3.97269e-05
3.97225e-05
3.97166e-05
3.97091e-05
3.97021e-05
3.96993e-05
3.97037e-05
3.97181e-05
3.97382e-05
3.97616e-05
3.97867e-05
3.98125e-05
3.98377e-05
3.98604e-05
3.98784e-05
3.98893e-05
3.989e-05
3.9878e-05
3.98507e-05
3.98064e-05
3.97443e-05
3.96646e-05
3.95685e-05
3.94574e-05
3.93325e-05
3.91921e-05
3.90296e-05
3.88306e-05
3.85766e-05
3.82657e-05
3.7943e-05
3.76597e-05
3.72042e-05
3.57521e-05
3.23374e-05
2.88485e-05
3.3277e-05
5.38633e-05
8.85268e-05
0.000128376
0.000166208
0.000199557
3.9635e-05
3.96483e-05
3.96647e-05
3.9683e-05
3.97025e-05
3.97219e-05
3.97396e-05
3.97542e-05
3.97653e-05
3.97731e-05
3.97778e-05
3.97794e-05
3.97779e-05
3.97738e-05
3.97678e-05
3.97606e-05
3.97526e-05
3.97443e-05
3.97359e-05
3.97276e-05
3.97195e-05
3.97116e-05
3.97039e-05
3.96965e-05
3.96894e-05
3.96827e-05
3.96763e-05
3.96703e-05
3.96642e-05
3.96578e-05
3.96532e-05
3.96538e-05
3.96626e-05
3.96797e-05
3.97007e-05
3.9723e-05
3.97446e-05
3.9764e-05
3.97793e-05
3.97886e-05
3.979e-05
3.97812e-05
3.97606e-05
3.97264e-05
3.96778e-05
3.96144e-05
3.95366e-05
3.94453e-05
3.93419e-05
3.92274e-05
3.91017e-05
3.89616e-05
3.87989e-05
3.85994e-05
3.83457e-05
3.80297e-05
3.76829e-05
3.73732e-05
3.69899e-05
3.59168e-05
3.31312e-05
2.92038e-05
2.97866e-05
4.35573e-05
7.23219e-05
0.000109123
0.000146077
0.0001789
0.000207076
3.95375e-05
3.95433e-05
3.95513e-05
3.95618e-05
3.95746e-05
3.95894e-05
3.96055e-05
3.9622e-05
3.96381e-05
3.96536e-05
3.96679e-05
3.96801e-05
3.96896e-05
3.96966e-05
3.97012e-05
3.97039e-05
3.97048e-05
3.9704e-05
3.97018e-05
3.96983e-05
3.96936e-05
3.96881e-05
3.96819e-05
3.96753e-05
3.96686e-05
3.96619e-05
3.96555e-05
3.96493e-05
3.9643e-05
3.96376e-05
3.96382e-05
3.96451e-05
3.96543e-05
3.96636e-05
3.96713e-05
3.9676e-05
3.96761e-05
3.96702e-05
3.96569e-05
3.96346e-05
3.96023e-05
3.95592e-05
3.95047e-05
3.9439e-05
3.93622e-05
3.92753e-05
3.9179e-05
3.90743e-05
3.89611e-05
3.88377e-05
3.86988e-05
3.85345e-05
3.83303e-05
3.80713e-05
3.77498e-05
3.73816e-05
3.70404e-05
3.66655e-05
3.58074e-05
3.35249e-05
2.97122e-05
2.82826e-05
3.73041e-05
6.10976e-05
9.4939e-05
0.000130883
0.000163633
0.000191225
0.000214261
3.94351e-05
3.94367e-05
3.94392e-05
3.94427e-05
3.94476e-05
3.94542e-05
3.94625e-05
3.94722e-05
3.94829e-05
3.94946e-05
3.95067e-05
3.95187e-05
3.953e-05
3.95404e-05
3.95497e-05
3.9558e-05
3.95648e-05
3.957e-05
3.95732e-05
3.95745e-05
3.95742e-05
3.95725e-05
3.95695e-05
3.95655e-05
3.95604e-05
3.95545e-05
3.95476e-05
3.95394e-05
3.95295e-05
3.95204e-05
3.95159e-05
3.95122e-05
3.95068e-05
3.94984e-05
3.94858e-05
3.94677e-05
3.94431e-05
3.94113e-05
3.93716e-05
3.93236e-05
3.92673e-05
3.92029e-05
3.91306e-05
3.90508e-05
3.8964e-05
3.88706e-05
3.87703e-05
3.8662e-05
3.85421e-05
3.84033e-05
3.8234e-05
3.80192e-05
3.77471e-05
3.74151e-05
3.70343e-05
3.66633e-05
3.62577e-05
3.54961e-05
3.35812e-05
3.00918e-05
2.77157e-05
3.35665e-05
5.33833e-05
8.45854e-05
0.000119667
0.000152564
0.000180533
0.000203054
0.000221231
3.93217e-05
3.93212e-05
3.93206e-05
3.93202e-05
3.93201e-05
3.93206e-05
3.93218e-05
3.93239e-05
3.93268e-05
3.93305e-05
3.9335e-05
3.93399e-05
3.93452e-05
3.93503e-05
3.93552e-05
3.93597e-05
3.93634e-05
3.93662e-05
3.93675e-05
3.93673e-05
3.93657e-05
3.93624e-05
3.93575e-05
3.93508e-05
3.9342e-05
3.93308e-05
3.93172e-05
3.93006e-05
3.92801e-05
3.92559e-05
3.92302e-05
3.92044e-05
3.91798e-05
3.9155e-05
3.91272e-05
3.90942e-05
3.90553e-05
3.90103e-05
3.89594e-05
3.89026e-05
3.88401e-05
3.8772e-05
3.86981e-05
3.86182e-05
3.8532e-05
3.84383e-05
3.83347e-05
3.82158e-05
3.80722e-05
3.78907e-05
3.76583e-05
3.73638e-05
3.70134e-05
3.66215e-05
3.62256e-05
3.57702e-05
3.50217e-05
3.33524e-05
3.02535e-05
2.7575e-05
3.14017e-05
4.80759e-05
7.68763e-05
0.000111163
0.000144441
0.000173224
0.000196435
0.000214352
0.000228086
3.91945e-05
3.91922e-05
3.91896e-05
3.91868e-05
3.91838e-05
3.91806e-05
3.91774e-05
3.91743e-05
3.91713e-05
3.91685e-05
3.91658e-05
3.91633e-05
3.91609e-05
3.91584e-05
3.91557e-05
3.91526e-05
3.9149e-05
3.91447e-05
3.91394e-05
3.91328e-05
3.91249e-05
3.91153e-05
3.9104e-05
3.90905e-05
3.90748e-05
3.90565e-05
3.90355e-05
3.90115e-05
3.89844e-05
3.89537e-05
3.89188e-05
3.88792e-05
3.88345e-05
3.87851e-05
3.87321e-05
3.8677e-05
3.8622e-05
3.85688e-05
3.85146e-05
3.84574e-05
3.83959e-05
3.83288e-05
3.82552e-05
3.81739e-05
3.80829e-05
3.79785e-05
3.78534e-05
3.76962e-05
3.74934e-05
3.7231e-05
3.69102e-05
3.653e-05
3.61303e-05
3.57133e-05
3.51983e-05
3.44039e-05
3.28804e-05
3.01826e-05
2.76157e-05
3.0252e-05
4.44268e-05
7.09031e-05
0.000104215
0.00013787
0.000167792
0.000192291
0.000211102
0.000224644
0.000234206
3.90504e-05
3.90463e-05
3.90417e-05
3.90368e-05
3.90315e-05
3.90259e-05
3.90198e-05
3.90133e-05
3.90065e-05
3.89993e-05
3.89917e-05
3.89838e-05
3.89755e-05
3.89667e-05
3.89574e-05
3.89474e-05
3.89367e-05
3.89251e-05
3.89126e-05
3.88987e-05
3.88835e-05
3.88666e-05
3.8848e-05
3.88273e-05
3.88043e-05
3.87789e-05
3.87507e-05
3.87194e-05
3.86851e-05
3.86474e-05
3.86061e-05
3.85605e-05
3.85098e-05
3.8453e-05
3.83899e-05
3.83205e-05
3.82469e-05
3.81715e-05
3.80973e-05
3.80273e-05
3.79561e-05
3.78794e-05
3.77941e-05
3.76967e-05
3.75814e-05
3.7439e-05
3.72567e-05
3.70193e-05
3.67214e-05
3.63576e-05
3.59702e-05
3.55627e-05
3.51185e-05
3.45318e-05
3.36517e-05
3.21953e-05
2.98948e-05
2.77306e-05
2.98069e-05
4.19674e-05
6.60532e-05
9.79688e-05
0.000131664
0.000162752
0.000188974
0.000209468
0.000224237
0.000233671
0.000239326
3.88831e-05
3.88771e-05
3.88706e-05
3.88636e-05
3.88562e-05
3.88482e-05
3.88397e-05
3.88305e-05
3.88208e-05
3.88104e-05
3.87993e-05
3.87875e-05
3.87749e-05
3.87614e-05
3.87471e-05
3.87318e-05
3.87155e-05
3.8698e-05
3.86792e-05
3.8659e-05
3.86371e-05
3.86136e-05
3.8588e-05
3.85603e-05
3.85302e-05
3.84975e-05
3.84619e-05
3.84231e-05
3.8381e-05
3.83353e-05
3.82858e-05
3.82321e-05
3.81734e-05
3.81087e-05
3.80368e-05
3.79568e-05
3.78685e-05
3.7773e-05
3.76732e-05
3.75721e-05
3.74746e-05
3.73723e-05
3.72567e-05
3.71186e-05
3.69451e-05
3.67238e-05
3.64459e-05
3.60988e-05
3.57193e-05
3.53217e-05
3.49176e-05
3.4427e-05
3.37494e-05
3.27587e-05
3.13292e-05
2.94346e-05
2.78849e-05
2.98948e-05
4.0427e-05
6.19738e-05
9.19086e-05
0.000125023
0.000156932
0.000184951
0.000207692
0.000224614
0.000235597
0.00024139
0.000243764
3.86814e-05
3.86735e-05
3.86651e-05
3.8656e-05
3.86463e-05
3.86359e-05
3.86249e-05
3.86131e-05
3.86005e-05
3.85871e-05
3.85728e-05
3.85575e-05
3.85412e-05
3.85237e-05
3.85051e-05
3.84852e-05
3.84639e-05
3.84411e-05
3.84166e-05
3.83905e-05
3.83624e-05
3.83321e-05
3.82996e-05
3.82646e-05
3.82268e-05
3.8186e-05
3.81418e-05
3.8094e-05
3.80423e-05
3.79863e-05
3.79258e-05
3.78601e-05
3.77887e-05
3.77107e-05
3.76249e-05
3.75297e-05
3.74234e-05
3.73049e-05
3.71745e-05
3.70351e-05
3.68894e-05
3.67371e-05
3.65613e-05
3.63458e-05
3.60713e-05
3.57471e-05
3.53844e-05
3.49959e-05
3.45972e-05
3.4158e-05
3.35976e-05
3.28121e-05
3.17096e-05
3.03123e-05
2.88653e-05
2.80904e-05
3.0428e-05
3.9641e-05
5.84998e-05
8.5821e-05
0.000117562
0.000149642
0.000179123
0.000204169
0.000223753
0.000237356
0.000244988
0.000247676
0.000247361
3.84284e-05
3.84184e-05
3.84077e-05
3.83963e-05
3.8384e-05
3.8371e-05
3.83572e-05
3.83424e-05
3.83266e-05
3.83098e-05
3.82919e-05
3.82727e-05
3.82523e-05
3.82305e-05
3.82071e-05
3.81822e-05
3.81555e-05
3.81269e-05
3.80963e-05
3.80635e-05
3.80283e-05
3.79904e-05
3.79497e-05
3.79059e-05
3.78587e-05
3.78077e-05
3.77526e-05
3.7693e-05
3.76286e-05
3.75588e-05
3.74829e-05
3.74003e-05
3.73101e-05
3.72115e-05
3.71036e-05
3.69848e-05
3.6853e-05
3.67057e-05
3.65407e-05
3.63563e-05
3.61497e-05
3.59156e-05
3.56448e-05
3.53309e-05
3.49777e-05
3.45943e-05
3.41847e-05
3.37625e-05
3.32467e-05
3.25781e-05
3.16738e-05
3.04942e-05
2.92021e-05
2.82737e-05
2.8489e-05
3.13587e-05
3.9495e-05
5.55646e-05
7.9695e-05
0.000109226
0.000140643
0.000170938
0.000197933
0.000220218
0.000236937
0.000247547
0.000252317
0.000252442
0.000250024
3.81004e-05
3.80877e-05
3.80741e-05
3.80596e-05
3.80442e-05
3.80278e-05
3.80103e-05
3.79916e-05
3.79718e-05
3.79507e-05
3.79281e-05
3.79041e-05
3.78784e-05
3.7851e-05
3.78217e-05
3.77904e-05
3.77569e-05
3.77209e-05
3.76824e-05
3.76411e-05
3.75967e-05
3.75489e-05
3.74975e-05
3.74421e-05
3.73823e-05
3.73175e-05
3.72476e-05
3.71721e-05
3.70902e-05
3.70013e-05
3.69044e-05
3.67986e-05
3.66828e-05
3.65556e-05
3.64157e-05
3.62616e-05
3.60912e-05
3.59008e-05
3.56859e-05
3.54409e-05
3.51599e-05
3.48382e-05
3.44785e-05
3.40847e-05
3.36612e-05
3.32325e-05
3.27202e-05
3.20851e-05
3.12857e-05
3.02913e-05
2.91348e-05
2.81197e-05
2.77959e-05
2.90651e-05
3.25907e-05
3.98401e-05
5.30989e-05
7.35873e-05
0.000100134
0.000130001
0.000160264
0.000188534
0.000213117
0.000232879
0.000246993
0.000255065
0.000257502
0.000255557
0.000251308
3.76634e-05
3.76468e-05
3.76292e-05
3.76105e-05
3.75906e-05
3.75695e-05
3.75471e-05
3.75232e-05
3.74978e-05
3.74708e-05
3.7442e-05
3.74113e-05
3.73786e-05
3.73436e-05
3.73063e-05
3.72663e-05
3.72235e-05
3.71776e-05
3.71284e-05
3.70755e-05
3.70187e-05
3.69575e-05
3.68915e-05
3.68203e-05
3.67432e-05
3.66598e-05
3.65697e-05
3.64719e-05
3.63655e-05
3.62496e-05
3.61231e-05
3.59846e-05
3.58328e-05
3.56658e-05
3.54816e-05
3.52767e-05
3.50471e-05
3.47872e-05
3.44908e-05
3.41532e-05
3.37804e-05
3.33679e-05
3.2923e-05
3.24797e-05
3.19582e-05
3.1327e-05
3.05642e-05
2.96716e-05
2.86854e-05
2.7774e-05
2.72154e-05
2.77721e-05
2.99769e-05
3.40647e-05
4.05257e-05
5.10148e-05
6.75357e-05
9.04242e-05
0.000117883
0.000147198
0.000175872
0.000202023
0.000224322
0.000241815
0.000253709
0.000259762
0.000260419
0.000256906
0.000251435
3.70635e-05
3.70415e-05
3.70182e-05
3.69935e-05
3.69673e-05
3.69395e-05
3.69101e-05
3.68788e-05
3.68456e-05
3.68103e-05
3.67727e-05
3.67326e-05
3.66899e-05
3.66443e-05
3.65956e-05
3.65435e-05
3.64877e-05
3.64278e-05
3.63635e-05
3.62944e-05
3.622e-05
3.61398e-05
3.60532e-05
3.59595e-05
3.5858e-05
3.57484e-05
3.56297e-05
3.55006e-05
3.536e-05
3.52065e-05
3.50383e-05
3.48538e-05
3.46505e-05
3.44253e-05
3.41734e-05
3.38893e-05
3.35659e-05
3.32011e-05
3.2802e-05
3.23583e-05
3.19031e-05
3.14321e-05
3.08865e-05
3.02434e-05
2.95031e-05
2.86675e-05
2.78132e-05
2.70796e-05
2.66178e-05
2.69124e-05
2.83246e-05
3.12236e-05
3.5617e-05
4.13209e-05
4.91806e-05
6.15226e-05
8.01424e-05
0.000104383
0.000131844
0.000159975
0.000186778
0.000210813
0.000231035
0.00024656
0.000256709
0.000261298
0.000260729
0.000256115
0.000249757
3.6209e-05
3.61793e-05
3.61479e-05
3.61147e-05
3.60796e-05
3.60424e-05
3.60031e-05
3.59613e-05
3.5917e-05
3.58699e-05
3.58199e-05
3.57666e-05
3.57098e-05
3.56492e-05
3.55844e-05
3.55151e-05
3.54409e-05
3.53612e-05
3.52757e-05
3.51836e-05
3.50845e-05
3.49774e-05
3.48617e-05
3.47363e-05
3.46007e-05
3.44537e-05
3.42938e-05
3.41194e-05
3.39287e-05
3.37196e-05
3.34896e-05
3.32353e-05
3.29518e-05
3.26323e-05
3.22699e-05
3.18708e-05
3.14273e-05
3.09424e-05
3.04816e-05
2.99763e-05
2.93986e-05
2.87546e-05
2.80367e-05
2.72833e-05
2.65964e-05
2.60435e-05
2.58385e-05
2.62353e-05
2.73804e-05
2.94682e-05
3.26952e-05
3.69927e-05
4.18923e-05
4.74223e-05
5.55465e-05
6.92563e-05
8.94174e-05
0.000114138
0.000140786
0.000167241
0.000192007
0.000214003
0.000232383
0.000246318
0.000255224
0.000258893
0.000257561
0.000251978
0.00024415
3.49322e-05
3.48916e-05
3.48487e-05
3.48034e-05
3.47555e-05
3.47049e-05
3.46513e-05
3.45946e-05
3.45344e-05
3.44705e-05
3.44027e-05
3.43304e-05
3.42535e-05
3.41714e-05
3.40837e-05
3.39899e-05
3.38893e-05
3.37815e-05
3.36655e-05
3.35407e-05
3.34061e-05
3.32606e-05
3.31032e-05
3.29334e-05
3.27493e-05
3.2549e-05
3.23302e-05
3.20903e-05
3.18261e-05
3.15341e-05
3.12094e-05
3.08431e-05
3.04344e-05
2.99851e-05
2.9483e-05
2.8997e-05
2.85081e-05
2.79805e-05
2.73983e-05
2.67653e-05
2.61354e-05
2.55738e-05
2.50733e-05
2.48025e-05
2.4944e-05
2.55715e-05
2.67403e-05
2.84939e-05
3.08943e-05
3.40136e-05
3.77804e-05
4.1768e-05
4.54862e-05
4.97652e-05
5.78748e-05
7.27627e-05
9.3721e-05
0.000117981
0.000143116
0.000167521
0.000190131
0.000210158
0.000226913
0.000239629
0.000247754
0.000250976
0.000249237
0.000242798
0.000234911
3.29238e-05
3.28677e-05
3.28088e-05
3.27467e-05
3.26812e-05
3.26121e-05
3.2539e-05
3.24618e-05
3.23801e-05
3.22934e-05
3.22015e-05
3.21037e-05
3.19997e-05
3.18888e-05
3.17704e-05
3.16439e-05
3.15084e-05
3.1363e-05
3.12069e-05
3.1039e-05
3.0858e-05
3.06626e-05
3.04513e-05
3.02212e-05
2.99695e-05
2.96931e-05
2.93889e-05
2.90535e-05
2.86827e-05
2.82733e-05
2.78221e-05
2.7312e-05
2.67767e-05
2.63074e-05
2.58185e-05
2.53098e-05
2.48223e-05
2.43874e-05
2.39356e-05
2.3579e-05
2.35071e-05
2.37088e-05
2.42064e-05
2.5037e-05
2.623e-05
2.77839e-05
2.96697e-05
3.18777e-05
3.44331e-05
3.73027e-05
4.02538e-05
4.27765e-05
4.44857e-05
4.69475e-05
5.45278e-05
6.99528e-05
9.07321e-05
0.000113692
0.000136738
0.000158736
0.000178997
0.000197001
0.000212192
0.000223901
0.000231542
0.000234585
0.000232477
0.000224943
0.000218153
2.96277e-05
2.95532e-05
2.9475e-05
2.93927e-05
2.93061e-05
2.9215e-05
2.91189e-05
2.90175e-05
2.89106e-05
2.87975e-05
2.86777e-05
2.85508e-05
2.84161e-05
2.82729e-05
2.81204e-05
2.79578e-05
2.77843e-05
2.75986e-05
2.73998e-05
2.71874e-05
2.69585e-05
2.67082e-05
2.64345e-05
2.61357e-05
2.58105e-05
2.54582e-05
2.50796e-05
2.46757e-05
2.42452e-05
2.38038e-05
2.33712e-05
2.29613e-05
2.25898e-05
2.22739e-05
2.20047e-05
2.18524e-05
2.19434e-05
2.21767e-05
2.25515e-05
2.3078e-05
2.37692e-05
2.46377e-05
2.56896e-05
2.69181e-05
2.82901e-05
2.97457e-05
3.12455e-05
3.28353e-05
3.46e-05
3.64842e-05
3.81441e-05
3.90253e-05
3.854e-05
3.79627e-05
4.36385e-05
5.81459e-05
7.7373e-05
9.83522e-05
0.000118751
0.000137828
0.000155263
0.000170816
0.000184105
0.000194586
0.000201623
0.000204239
0.000201111
0.000192691
0.00018918
2.42095e-05
2.41219e-05
2.40303e-05
2.3935e-05
2.38362e-05
2.37337e-05
2.36273e-05
2.35167e-05
2.34016e-05
2.32814e-05
2.31557e-05
2.30238e-05
2.28852e-05
2.27394e-05
2.25855e-05
2.24228e-05
2.22507e-05
2.20687e-05
2.18758e-05
2.16714e-05
2.14584e-05
2.12417e-05
2.1024e-05
2.08083e-05
2.05997e-05
2.0403e-05
2.02278e-05
2.00731e-05
1.99204e-05
1.99345e-05
2.00755e-05
2.02828e-05
2.05466e-05
2.08643e-05
2.12331e-05
2.16463e-05
2.2099e-05
2.25874e-05
2.31176e-05
2.37033e-05
2.43465e-05
2.5034e-05
2.57424e-05
2.64337e-05
2.70495e-05
2.75556e-05
2.80206e-05
2.86134e-05
2.94671e-05
3.04801e-05
3.11109e-05
3.04536e-05
2.78147e-05
2.6811e-05
2.90358e-05
3.727e-05
5.10448e-05
6.90589e-05
8.56179e-05
0.000100343
0.000113263
0.000124757
0.000134925
0.00014326
0.000149088
0.000151374
0.000149096
0.000146578
0.000145901
1.62588e-05
1.62267e-05
1.62293e-05
1.62684e-05
1.63342e-05
1.64168e-05
1.6509e-05
1.66058e-05
1.67042e-05
1.68018e-05
1.68969e-05
1.69889e-05
1.7077e-05
1.7158e-05
1.72337e-05
1.73176e-05
1.7412e-05
1.75173e-05
1.76349e-05
1.77654e-05
1.79087e-05
1.80646e-05
1.82324e-05
1.84112e-05
1.85994e-05
1.8795e-05
1.89952e-05
1.91966e-05
1.93931e-05
1.958e-05
1.97521e-05
1.99022e-05
2.00225e-05
2.01068e-05
2.01509e-05
2.01558e-05
2.01337e-05
2.01136e-05
2.01272e-05
2.01714e-05
2.01889e-05
2.01188e-05
1.99469e-05
1.96875e-05
1.93512e-05
1.8981e-05
1.87562e-05
1.88118e-05
1.89765e-05
1.88365e-05
1.77439e-05
1.72657e-05
1.64728e-05
1.64339e-05
1.59103e-05
1.72605e-05
2.304e-05
3.0979e-05
3.94957e-05
4.79695e-05
5.597e-05
6.33133e-05
6.99749e-05
7.57128e-05
8.03456e-05
8.36739e-05
8.55853e-05
8.69258e-05
8.82853e-05
1.31002e-05
1.32215e-05
1.33436e-05
1.3468e-05
1.35946e-05
1.37231e-05
1.38527e-05
1.39825e-05
1.41114e-05
1.42382e-05
1.43618e-05
1.44809e-05
1.45939e-05
1.47013e-05
1.47998e-05
1.4875e-05
1.49265e-05
1.4955e-05
1.49606e-05
1.49429e-05
1.49007e-05
1.48324e-05
1.4736e-05
1.4609e-05
1.44485e-05
1.42514e-05
1.40143e-05
1.37338e-05
1.34068e-05
1.30307e-05
1.26044e-05
1.21286e-05
1.16068e-05
1.10469e-05
1.04633e-05
9.88157e-06
9.34328e-06
8.89075e-06
8.50784e-06
8.09152e-06
7.54276e-06
6.90633e-06
6.26458e-06
5.72183e-06
5.17511e-06
4.5786e-06
4.38589e-06
4.46756e-06
4.65219e-06
4.77589e-06
4.80861e-06
4.85589e-06
4.64174e-06
4.30589e-06
3.87121e-06
4.38161e-06
5.55644e-06
6.96424e-06
8.20485e-06
1.03922e-05
1.2555e-05
1.45488e-05
1.62765e-05
1.77908e-05
1.91177e-05
2.029e-05
2.12947e-05
2.23931e-05
2.32541e-05
4.00864e-05
4.00902e-05
4.01014e-05
4.01176e-05
4.01398e-05
4.01637e-05
4.01768e-05
4.0178e-05
4.01715e-05
4.01662e-05
4.01606e-05
4.01563e-05
4.01512e-05
4.01521e-05
4.01461e-05
4.01336e-05
4.01216e-05
4.01199e-05
4.01328e-05
4.01503e-05
4.01515e-05
4.01076e-05
4.01066e-05
4.00825e-05
4.0031e-05
4.00083e-05
4.0011e-05
4.00346e-05
4.00804e-05
4.0083e-05
4.00481e-05
4.00106e-05
3.99826e-05
3.99691e-05
3.99711e-05
3.99737e-05
3.99567e-05
3.99517e-05
3.99646e-05
3.99808e-05
4.00032e-05
4.00011e-05
4.00159e-05
3.99986e-05
3.9972e-05
3.99714e-05
3.99755e-05
3.99959e-05
3.9996e-05
3.99763e-05
3.99652e-05
3.99697e-05
3.99878e-05
4.00087e-05
4.00383e-05
4.00601e-05
4.00698e-05
4.00733e-05
4.00747e-05
4.00939e-05
4.01102e-05
4.0129e-05
4.01436e-05
4.01529e-05
4.01526e-05
4.01445e-05
4.01388e-05
4.01327e-05
4.01295e-05
4.01267e-05
4.01243e-05
4.01219e-05
4.01171e-05
4.01075e-05
4.00982e-05
4.0095e-05
4.01012e-05
4.01152e-05
4.01229e-05
4.01083e-05
4.00775e-05
4.00723e-05
4.00411e-05
3.99991e-05
3.99852e-05
3.99934e-05
4.00208e-05
4.00578e-05
4.00554e-05
4.00225e-05
3.99874e-05
3.99602e-05
3.99463e-05
3.99474e-05
3.99501e-05
3.99355e-05
3.99271e-05
3.99359e-05
3.99505e-05
3.99705e-05
3.99758e-05
3.99872e-05
3.99862e-05
3.99686e-05
3.9956e-05
3.99524e-05
3.99644e-05
3.99844e-05
3.9977e-05
3.99614e-05
3.99515e-05
3.99529e-05
3.99629e-05
3.99819e-05
4.00066e-05
4.00364e-05
4.00607e-05
4.00774e-05
4.01146e-05
4.01217e-05
4.0124e-05
4.01199e-05
4.01131e-05
4.01069e-05
4.01006e-05
4.00974e-05
4.00956e-05
4.00944e-05
4.00927e-05
4.00898e-05
4.0085e-05
4.00777e-05
4.00704e-05
4.00674e-05
4.00708e-05
4.00798e-05
4.00884e-05
4.00845e-05
4.00648e-05
4.00453e-05
4.00336e-05
4.00007e-05
3.9969e-05
3.99625e-05
3.99751e-05
4.00033e-05
4.0032e-05
4.00257e-05
3.9995e-05
3.9962e-05
3.99359e-05
3.99217e-05
3.99217e-05
3.99246e-05
3.99127e-05
3.99021e-05
3.9906e-05
3.99182e-05
3.99359e-05
3.99453e-05
3.99551e-05
3.99616e-05
3.99561e-05
3.99442e-05
3.99348e-05
3.99353e-05
3.99493e-05
3.99615e-05
3.99571e-05
3.99454e-05
3.99359e-05
3.99331e-05
3.99381e-05
3.99502e-05
3.99697e-05
3.99927e-05
4.002e-05
4.00884e-05
4.00801e-05
4.00743e-05
4.00686e-05
4.00636e-05
4.00608e-05
4.00597e-05
4.00596e-05
4.00592e-05
4.00576e-05
4.00545e-05
4.00499e-05
4.00442e-05
4.00389e-05
4.00365e-05
4.00386e-05
4.00445e-05
4.00511e-05
4.00518e-05
4.00408e-05
4.00232e-05
4.00093e-05
3.99922e-05
3.99617e-05
3.99397e-05
3.99393e-05
3.99551e-05
3.99822e-05
4.00034e-05
3.99941e-05
3.99652e-05
3.99343e-05
3.99093e-05
3.9895e-05
3.98942e-05
3.9897e-05
3.98876e-05
3.98762e-05
3.98755e-05
3.98843e-05
3.98994e-05
3.99107e-05
3.99201e-05
3.9929e-05
3.99322e-05
3.99272e-05
3.99186e-05
3.99125e-05
3.99159e-05
3.99277e-05
3.99375e-05
3.99386e-05
3.99309e-05
3.99212e-05
3.99149e-05
3.99141e-05
3.99194e-05
3.99301e-05
3.99461e-05
4.0029e-05
4.00241e-05
4.00214e-05
4.00199e-05
4.00198e-05
4.00204e-05
4.00211e-05
4.00207e-05
4.00189e-05
4.00156e-05
4.00113e-05
4.0007e-05
4.00035e-05
4.00019e-05
4.00034e-05
4.00074e-05
4.0012e-05
4.00137e-05
4.00081e-05
3.99954e-05
3.99821e-05
3.99693e-05
3.99494e-05
3.9924e-05
3.99104e-05
3.99149e-05
3.99326e-05
3.99571e-05
3.99719e-05
3.99602e-05
3.9933e-05
3.99041e-05
3.98802e-05
3.98662e-05
3.98645e-05
3.9867e-05
3.98598e-05
3.98486e-05
3.98444e-05
3.98491e-05
3.9861e-05
3.98725e-05
3.98819e-05
3.98911e-05
3.98985e-05
3.99005e-05
3.98971e-05
3.9891e-05
3.98878e-05
3.9892e-05
3.99026e-05
3.99139e-05
3.99202e-05
3.99173e-05
3.99096e-05
3.99017e-05
3.98964e-05
3.98951e-05
3.98981e-05
3.99751e-05
3.99756e-05
3.99767e-05
3.99779e-05
3.9979e-05
3.99792e-05
3.99782e-05
3.99758e-05
3.99724e-05
3.99689e-05
3.99658e-05
3.99637e-05
3.99632e-05
3.99644e-05
3.99671e-05
3.99702e-05
3.99716e-05
3.99687e-05
3.99605e-05
3.99499e-05
3.99393e-05
3.99258e-05
3.99061e-05
3.98869e-05
3.98804e-05
3.98885e-05
3.99068e-05
3.9928e-05
3.99371e-05
3.99238e-05
3.98981e-05
3.9871e-05
3.98483e-05
3.98346e-05
3.98323e-05
3.98344e-05
3.9829e-05
3.98187e-05
3.9812e-05
3.98129e-05
3.9821e-05
3.98313e-05
3.98405e-05
3.98492e-05
3.98577e-05
3.98639e-05
3.9866e-05
3.9864e-05
3.98602e-05
3.9859e-05
3.98634e-05
3.98739e-05
3.98865e-05
3.98972e-05
3.99031e-05
3.99017e-05
3.98963e-05
3.989e-05
3.98847e-05
3.99297e-05
3.99319e-05
3.99333e-05
3.99333e-05
3.99323e-05
3.99303e-05
3.99276e-05
3.99245e-05
3.99219e-05
3.99201e-05
3.99193e-05
3.99196e-05
3.99208e-05
3.99226e-05
3.99245e-05
3.99254e-05
3.99238e-05
3.99188e-05
3.99115e-05
3.99034e-05
3.98936e-05
3.98796e-05
3.98623e-05
3.98495e-05
3.98486e-05
3.98593e-05
3.98771e-05
3.98944e-05
3.98987e-05
3.98842e-05
3.986e-05
3.98346e-05
3.98132e-05
3.98e-05
3.9797e-05
3.97986e-05
3.97947e-05
3.97856e-05
3.97776e-05
3.97751e-05
3.97793e-05
3.97872e-05
3.97956e-05
3.98036e-05
3.98117e-05
3.98192e-05
3.98248e-05
3.98273e-05
3.98266e-05
3.98247e-05
3.98249e-05
3.98296e-05
3.98395e-05
3.98528e-05
3.98672e-05
3.98822e-05
3.98937e-05
3.98996e-05
3.98972e-05
3.98832e-05
3.98813e-05
3.98807e-05
3.98787e-05
3.98763e-05
3.98737e-05
3.98715e-05
3.987e-05
3.98694e-05
3.98697e-05
3.98705e-05
3.98717e-05
3.9873e-05
3.98741e-05
3.98745e-05
3.98736e-05
3.98708e-05
3.98665e-05
3.98611e-05
3.98542e-05
3.98444e-05
3.98312e-05
3.98178e-05
3.98109e-05
3.98142e-05
3.98263e-05
3.98428e-05
3.9856e-05
3.98564e-05
3.98411e-05
3.98183e-05
3.97946e-05
3.97744e-05