/*--------------------------------*- C++ -*----------------------------------*\
| =========                 |                                                 |
| \\      /  F ield         | OpenFOAM: The Open Source CFD Toolbox           |
|  \\    /   O peration     | Version:  2312                                  |
|   \\  /    A nd           | Website:  www.openfoam.com                      |
|    \\/     M anipulation  |                                                 |
\*---------------------------------------------------------------------------*/
FoamFile
{
    version     2.0;
    format      ascii;
    arch        "LSB;label=32;scalar=64";
    class       volScalarField;
    location    "2000";
    object      p;
}
// * * * * * * * * * * * * * * * * * * * * * * * * * * * * * * * * * * * * * //

dimensions      [0 2 -2 0 0 0 0];

internalField   nonuniform List<scalar> 
76025
(
0.000268157
0.000264323
0.000260348
0.00025654
0.000252564
0.000248513
0.000244092
0.000239884
0.000235554
0.000231211
0.000226646
0.000221918
0.000217099
0.000212293
0.000207476
0.000202653
0.000197845
0.000192821
0.000187852
0.000183065
0.000178245
0.000173119
0.000168014
0.000162952
0.000157908
0.000152959
0.000147948
0.000142873
0.000138094
0.000133002
0.000128265
0.000123463
0.00011872
0.000114434
0.00011029
0.000106276
0.000102159
9.80663e-05
9.43213e-05
9.08403e-05
8.76504e-05
8.46405e-05
8.18634e-05
7.9449e-05
7.76685e-05
7.58276e-05
7.43357e-05
7.32761e-05
7.29891e-05
7.30095e-05
7.35866e-05
7.48259e-05
7.67287e-05
7.94915e-05
8.32071e-05
8.74157e-05
9.26918e-05
9.86099e-05
0.00010553
0.000113805
0.000123653
0.000133917
0.000145434
0.00015822
0.000171495
0.000183612
0.000196095
0.000212162
0.000223351
0.0002738
0.000269581
0.000265362
0.00026125
0.000257074
0.000252714
0.000248296
0.000243839
0.000239232
0.000234502
0.000229651
0.000224773
0.000219887
0.000214971
0.000209996
0.000204999
0.000199873
0.000194766
0.000189598
0.000184501
0.000179245
0.000173994
0.000168779
0.000163579
0.00015836
0.000153149
0.000147967
0.000142937
0.000137898
0.000132865
0.000127966
0.00012304
0.000118333
0.000113918
0.000109488
0.000105155
0.000100834
9.68166e-05
9.31649e-05
8.97076e-05
8.65144e-05
8.34929e-05
8.08269e-05
7.85606e-05
7.66158e-05
7.49219e-05
7.35588e-05
7.2739e-05
7.24955e-05
7.27837e-05
7.36577e-05
7.52346e-05
7.76133e-05
8.08872e-05
8.51052e-05
9.01876e-05
9.62998e-05
0.000103503
0.000111903
0.000121757
0.000133275
0.000145859
0.000159825
0.000175182
0.000191717
0.000209833
0.000228101
0.00024641
0.000255234
0.000279864
0.000275382
0.000270898
0.000266515
0.000262086
0.000257539
0.000252862
0.000248063
0.000243161
0.000238169
0.000233123
0.000228046
0.000222928
0.000217757
0.000212525
0.000207207
0.00020184
0.000196445
0.000191034
0.000185589
0.000180126
0.000174683
0.000169251
0.000163824
0.00015841
0.000153026
0.000147707
0.000142437
0.000137181
0.000131973
0.000126838
0.000121825
0.000116998
0.000112332
0.000107766
0.000103344
9.91052e-05
9.51137e-05
9.13696e-05
8.78484e-05
8.45872e-05
8.16063e-05
7.89533e-05
7.6638e-05
7.46668e-05
7.30839e-05
7.19281e-05
7.12812e-05
7.11917e-05
7.17202e-05
7.29183e-05
7.48706e-05
7.76723e-05
8.14081e-05
8.61613e-05
9.19949e-05
9.90286e-05
0.000107379
0.000117182
0.00012862
0.000141804
0.000156675
0.000173249
0.00019154
0.000211939
0.000235134
0.000258116
0.000280218
0.000290244
0.000285787
0.000281031
0.000276256
0.000271591
0.000266889
0.000262049
0.000257054
0.00025194
0.000246746
0.00024149
0.00023618
0.000230813
0.000225383
0.00021989
0.000214338
0.000208736
0.000203103
0.000197449
0.000191783
0.000186107
0.000180433
0.000174765
0.000169109
0.000163471
0.000157864
0.000152293
0.000146765
0.000141283
0.000135858
0.000130506
0.000125254
0.000120151
0.00011521
0.000110425
0.00010579
0.000101317
9.70275e-05
9.29461e-05
8.9101e-05
8.55148e-05
8.22125e-05
7.92167e-05
7.65486e-05
7.42351e-05
7.23067e-05
7.07984e-05
6.9745e-05
6.92069e-05
6.92547e-05
6.99616e-05
7.13937e-05
7.36348e-05
7.6786e-05
8.09502e-05
8.62357e-05
9.27553e-05
0.000100638
0.000110034
0.000121113
0.000134054
0.000148997
0.000165981
0.000185044
0.000206386
0.000230914
0.000258801
0.000286333
0.000312043
0.000323807
0.000291554
0.000286493
0.000281401
0.000276426
0.000271417
0.000266263
0.000260955
0.000255533
0.000250034
0.000244476
0.00023886
0.000233185
0.00022745
0.000221662
0.000215831
0.000209969
0.000204083
0.000198182
0.000192272
0.000186361
0.000180454
0.000174558
0.000168682
0.000162833
0.000157021
0.00015125
0.000145532
0.000139877
0.000134297
0.000128799
0.00012341
0.000118171
0.000113093
0.000108175
0.000103415
9.88214e-05
9.44175e-05
9.02338e-05
8.63032e-05
8.26512e-05
7.92981e-05
7.62645e-05
7.35717e-05
7.12457e-05
6.93168e-05
6.78229e-05
6.68121e-05
6.63459e-05
6.64952e-05
6.73356e-05
6.89474e-05
7.14223e-05
7.48666e-05
7.93981e-05
8.51463e-05
9.22553e-05
0.000100887
0.000111224
0.000123463
0.000137801
0.0001544
0.000173386
0.000194913
0.000219489
0.000248286
0.000280488
0.000312282
0.000341102
0.000354047
0.000297328
0.000291933
0.00028651
0.000281212
0.000275884
0.000270409
0.000264779
0.000259033
0.00025321
0.00024733
0.000241397
0.00023541
0.000229372
0.000223289
0.000217171
0.000211027
0.000204864
0.000198688
0.000192509
0.000186332
0.000180165
0.000174018
0.000167898
0.000161815
0.000155775
0.000149788
0.000143864
0.000138012
0.00013224
0.000126558
0.000121001
0.000115606
0.000110381
0.000105322
0.00010043
9.57163e-05
9.12076e-05
8.69336e-05
8.2923e-05
7.91989e-05
7.5781e-05
7.26886e-05
6.99435e-05
6.75724e-05
6.56098e-05
6.40993e-05
6.30934e-05
6.26536e-05
6.28507e-05
6.37646e-05
6.54843e-05
6.81102e-05
7.17583e-05
7.6562e-05
8.26724e-05
9.02604e-05
9.95177e-05
0.000110656
0.000123902
0.000139478
0.000157591
0.000178463
0.000202429
0.000230393
0.000263333
0.000299401
0.000334834
0.000365487
0.000378801
0.00030308
0.000297322
0.000291545
0.000285904
0.000280237
0.000274422
0.000268449
0.000262357
0.00025619
0.000249969
0.0002437
0.000237383
0.000231019
0.000224615
0.00021818
0.000211724
0.000205253
0.000198778
0.000192305
0.000185843
0.000179402
0.000172989
0.000166614
0.000160285
0.000154011
0.000147801
0.000141664
0.000135608
0.000129642
0.000123782
0.00011807
0.000112532
0.000107168
0.00010197
9.6943e-05
9.21037e-05
8.74782e-05
8.30952e-05
7.89813e-05
7.51588e-05
7.16469e-05
6.84652e-05
6.56362e-05
6.31885e-05
6.11585e-05
5.95911e-05
5.85397e-05
5.8067e-05
5.82459e-05
5.916e-05
6.09041e-05
6.35871e-05
6.73355e-05
7.2297e-05
7.86418e-05
8.65647e-05
9.62854e-05
0.000108046
0.000122102
0.000138714
0.000158156
0.000180785
0.000207207
0.000238616
0.000275245
0.000314566
0.000352416
0.000383216
0.000396116
0.000308728
0.000302581
0.000296422
0.00029041
0.000284377
0.000278196
0.000271853
0.000265394
0.000258861
0.000252279
0.000245655
0.000238987
0.000232278
0.000225533
0.000218763
0.000211979
0.000205189
0.000198402
0.000191628
0.000184874
0.000178151
0.000171468
0.000164833
0.000158254
0.000151742
0.000145303
0.000138948
0.000132684
0.000126521
0.000120483
0.000114609
0.000108914
0.00010339
9.80333e-05
9.28528e-05
8.78689e-05
8.31087e-05
7.85999e-05
7.43669e-05
7.04301e-05
6.68071e-05
6.35163e-05
6.058e-05
5.80267e-05
5.5893e-05
5.4224e-05
5.30737e-05
5.25059e-05
5.25948e-05
5.34263e-05
5.50995e-05
5.77299e-05
6.14537e-05
6.64314e-05
7.28509e-05
8.09289e-05
9.09105e-05
0.000103066
0.000117686
0.000135086
0.000155648
0.000179911
0.00020878
0.000243388
0.000282947
0.000324629
0.000363134
0.000392413
0.000404148
0.000314241
0.000307681
0.000301113
0.000294703
0.000288277
0.000281701
0.000274965
0.000268113
0.000261192
0.000254228
0.000247229
0.000240192
0.00023312
0.00022602
0.000218903
0.000211778
0.000204658
0.00019755
0.000190464
0.000183409
0.000176394
0.00016943
0.000162523
0.000155685
0.000148922
0.000142244
0.000135659
0.000129177
0.000122807
0.000116582
0.000110533
0.000104665
9.89694e-05
9.34455e-05
8.81059e-05
8.2973e-05
7.80733e-05
7.34319e-05
6.907e-05
6.50045e-05
6.12511e-05
5.78265e-05
5.47522e-05
5.20565e-05
4.97755e-05
4.79541e-05
4.66457e-05
4.59133e-05
4.58312e-05
4.64856e-05
4.79781e-05
5.04287e-05
5.39811e-05
5.88069e-05
6.51085e-05
7.3121e-05
8.31122e-05
9.53826e-05
0.000110271
0.000128176
0.000149622
0.000175359
0.00020647
0.000243556
0.000285088
0.000327813
0.000365162
0.000392018
0.000401179
0.000319593
0.000312593
0.000305589
0.000298755
0.000291908
0.000284913
0.000277756
0.000270486
0.000263152
0.000255782
0.000248384
0.000240957
0.000233503
0.000226029
0.000218545
0.000211065
0.000203598
0.000196153
0.000188741
0.000181371
0.000174052
0.000166794
0.000159605
0.000152496
0.000145475
0.000138549
0.000131728
0.000125021
0.000118441
0.000112027
0.000105799
9.97505e-05
9.38766e-05
8.81801e-05
8.26762e-05
7.73878e-05
7.23395e-05
6.75531e-05
6.30462e-05
5.88327e-05
5.49256e-05
5.13403e-05
4.80969e-05
4.52223e-05
4.27512e-05
4.07264e-05
3.91987e-05
3.82288e-05
3.78883e-05
3.82622e-05
3.94515e-05
4.15784e-05
4.47909e-05
4.92677e-05
5.52216e-05
6.29026e-05
7.26013e-05
8.46568e-05
9.94736e-05
0.000117559
0.000139582
0.000166453
0.000199147
0.000237558
0.000279895
0.000321868
0.000356791
0.000381593
0.000389987
0.000324726
0.000317258
0.000309791
0.000302505
0.000295212
0.000287769
0.000280166
0.000272452
0.000264678
0.000256877
0.000249055
0.000241214
0.000233354
0.000225484
0.000217615
0.00020976
0.000201929
0.000194133
0.000186381
0.000178683
0.000171048
0.000163487
0.000156009
0.000148623
0.000141337
0.00013416
0.0001271
0.000120165
0.000113378
0.000106773
0.000100357
9.41216e-05
8.80626e-05
8.21872e-05
7.65129e-05
7.1062e-05
6.58564e-05
6.09142e-05
5.6249e-05
5.1871e-05
4.77907e-05
4.40208e-05
4.05794e-05
3.74909e-05
3.47869e-05
3.25063e-05
3.06957e-05
2.9411e-05
2.87189e-05
2.86999e-05
2.94516e-05
3.10942e-05
3.37752e-05
3.76755e-05
4.30135e-05
5.00526e-05
5.91108e-05
7.05757e-05
8.49261e-05
0.000102762
0.000124846
0.000152099
0.000185149
0.000223572
0.00026513
0.000304457
0.000336386
0.000359528
0.000366272
0.000329569
0.000321603
0.000313643
0.000305877
0.000298109
0.000290192
0.000282115
0.00027393
0.000265692
0.000257433
0.000249164
0.000240885
0.000232599
0.000224312
0.000216038
0.00020779
0.00019958
0.000191417
0.000183312
0.000175276
0.000167316
0.000159445
0.00015167
0.000144001
0.000136446
0.000129013
0.00012171
0.000114547
0.000107555
0.000100755
9.41458e-05
8.7717e-05
8.14689e-05
7.5412e-05
6.95648e-05
6.3948e-05
5.85799e-05
5.3474e-05
4.86394e-05
4.40827e-05
3.98109e-05
3.5834e-05
3.2167e-05
2.88306e-05
2.5852e-05
2.32644e-05
2.11077e-05
1.94302e-05
1.82906e-05
1.77612e-05
1.79317e-05
1.89146e-05
2.08515e-05
2.39196e-05
2.83405e-05
3.4392e-05
4.24217e-05
5.28571e-05
6.6215e-05
8.31159e-05
0.000104316
0.000130639
0.000162579
0.00019966
0.000238554
0.000274133
0.000303261
0.000324983
0.000330383
0.000334043
0.000325545
0.00031706
0.000308784
0.000300512
0.000292093
0.000283514
0.000274831
0.000266101
0.000257361
0.000248621
0.000239882
0.000231147
0.000222425
0.000213728
0.00020507
0.000196465
0.000187922
0.000179452
0.000171066
0.000162773
0.000154582
0.000146504
0.000138547
0.000130718
0.000123027
0.000115478
0.000108091
0.000100893
9.38967e-05
8.70903e-05
8.04671e-05
7.40308e-05
6.77944e-05
6.1776e-05
5.59932e-05
5.04601e-05
4.51851e-05
4.01728e-05
3.5426e-05
3.09481e-05
2.6746e-05
2.28305e-05
1.92175e-05
1.59278e-05
1.29867e-05
1.04246e-05
8.27917e-06
6.59722e-06
5.43803e-06
4.87772e-06
5.01533e-06
5.98061e-06
7.94383e-06
1.11277e-05
1.5818e-05
2.23659e-05
3.11788e-05
4.27175e-05
5.75372e-05
7.63892e-05
0.000100222
0.000129799
0.000164019
0.000199031
0.000231147
0.000258314
0.000278862
0.000281815
0.00033806
0.000328994
0.000319951
0.00031113
0.000302323
0.000293371
0.000284261
0.000275051
0.000265802
0.000256554
0.000247319
0.000238098
0.000228894
0.000219717
0.000210579
0.000201496
0.000192482
0.000183547
0.000174702
0.000165957
0.000157323
0.000148808
0.000140423
0.000132176
0.000124073
0.000116123
0.000108333
0.000100727
9.33276e-05
8.6132e-05
7.91277e-05
7.23113e-05
6.56898e-05
5.92775e-05
5.30908e-05
4.71438e-05
4.14453e-05
3.59989e-05
3.08047e-05
2.58614e-05
2.11689e-05
1.67298e-05
1.255e-05
8.63899e-06
5.00927e-06
1.67572e-06
-1.34345e-06
-4.02504e-06
-6.33861e-06
-8.24314e-06
-9.68174e-06
-1.05738e-05
-1.0805e-05
-1.02174e-05
-8.60283e-06
-5.71021e-06
-1.26788e-06
5.00047e-06
1.34254e-05
2.45753e-05
3.95054e-05
5.96873e-05
8.57624e-05
0.000116007
0.000147433
0.000177397
0.000203799
0.000223982
0.000229472
0.000341512
0.000331841
0.0003222
0.000312801
0.000303424
0.000293905
0.000284231
0.000274464
0.000264668
0.000254885
0.000245129
0.000235402
0.000225707
0.000216054
0.000206458
0.000196935
0.000187497
0.000178159
0.000168929
0.000159818
0.000150837
0.000141995
0.000133301
0.000124762
0.000116386
0.000108179
0.000100153
9.23368e-05
8.47376e-05
7.73444e-05
7.0147e-05
6.31457e-05
5.63499e-05
4.97735e-05
4.34296e-05
3.73277e-05
3.14713e-05
2.5859e-05
2.04864e-05
1.53484e-05
1.04409e-05
5.7619e-06
1.31153e-06
-2.90856e-06
-6.89611e-06
-1.0649e-05
-1.41643e-05
-1.74371e-05
-2.04581e-05
-2.32087e-05
-2.56548e-05
-2.77377e-05
-2.93675e-05
-3.04236e-05
-3.07709e-05
-3.02927e-05
-2.89131e-05
-2.65339e-05
-2.28007e-05
-1.6744e-05
-6.65363e-06
9.1674e-06
3.09902e-05
5.75142e-05
8.65166e-05
0.000115187
0.000141194
0.000161989
0.00016937
0.000344276
0.000333957
0.000323681
0.000313665
0.000303683
0.000293564
0.000283294
0.000272938
0.000262565
0.00025222
0.000241918
0.000231663
0.000221457
0.000211312
0.000201243
0.000191266
0.000181397
0.000171647
0.000162029
0.000152551
0.000143225
0.000134058
0.00012506
0.000116238
0.000107598
9.91455e-05
9.09017e-05
8.28844e-05
7.50892e-05
6.75017e-05
6.01163e-05
5.29374e-05
4.59759e-05
3.9244e-05
3.27513e-05
2.65021e-05
2.04947e-05
1.47232e-05
9.179e-06
3.85319e-06
-1.26237e-06
-6.17475e-06
-1.08907e-05
-1.54176e-05
-1.97653e-05
-2.39469e-05
-2.7978e-05
-3.18751e-05
-3.56523e-05
-3.93156e-05
-4.28572e-05
-4.62533e-05
-4.94733e-05
-5.25033e-05
-5.5386e-05
-5.82422e-05
-6.11875e-05
-6.40591e-05
-6.60489e-05
-6.55518e-05
-6.04726e-05
-4.91147e-05
-3.09749e-05
-6.97395e-06
2.03144e-05
4.75042e-05
7.26711e-05
9.32109e-05
9.80814e-05
0.000346191
0.000335179
0.000324223
0.000313549
0.000302921
0.000292162
0.000281259
0.000270279
0.000259295
0.000248357
0.00023748
0.00022667
0.000215931
0.000205272
0.000194712
0.000184268
0.000173954
0.000163785
0.00015377
0.000143921
0.000134247
0.000124756
0.000115455
0.000106351
9.74503e-05
8.87639e-05
8.0314e-05
7.21057e-05
6.41257e-05
5.63617e-05
4.88126e-05
4.14848e-05
3.4388e-05
2.75311e-05
2.09184e-05
1.45487e-05
8.41522e-06
2.50768e-06
-3.1859e-06
-8.67763e-06
-1.39793e-05
-1.91029e-05
-2.40622e-05
-2.88746e-05
-3.35632e-05
-3.81581e-05
-4.26951e-05
-4.72128e-05
-5.17497e-05
-5.63409e-05
-6.10231e-05
-6.58499e-05
-7.0921e-05
-7.64212e-05
-8.26374e-05
-8.98495e-05
-9.80264e-05
-0.000106533
-0.000114103
-0.000118756
-0.000118009
-0.000109962
-9.41834e-05
-7.20481e-05
-4.69425e-05
-2.19217e-05
1.75137e-06
2.11521e-05
2.67455e-05
0.000347101
0.000335352
0.000323673
0.000312301
0.000300991
0.000289558
0.000277988
0.000266353
0.000254731
0.000243174
0.000231702
0.000220319
0.000209032
0.00019785
0.000186793
0.000175879
0.000165123
0.00015454
0.000144141
0.000133935
0.000123931
0.000114138
0.000104561
9.52062e-05
8.60772e-05
7.71908e-05
6.85582e-05
6.01706e-05
5.20126e-05
4.40782e-05
3.6371e-05
2.8899e-05
2.16711e-05
1.4693e-05
7.96466e-06
1.48021e-06
-4.77106e-06
-1.08027e-05
-1.66294e-05
-2.22659e-05
-2.77276e-05
-3.30314e-05
-3.81985e-05
-4.32567e-05
-4.82435e-05
-5.3206e-05
-5.82e-05
-6.32883e-05
-6.85425e-05
-7.4051e-05
-7.9939e-05
-8.63953e-05
-9.37053e-05
-0.000102259
-0.000112422
-0.000124214
-0.000137174
-0.000150545
-0.000162815
-0.000171224
-0.000173009
-0.000166831
-0.000152828
-0.000133068
-0.000111006
-8.90076e-05
-6.81061e-05
-5.09545e-05
-4.57358e-05
0.000346707
0.00033416
0.0003217
0.000309575
0.00029753
0.000285371
0.000273085
0.000260748
0.000248442
0.000236225
0.00022412
0.000212132
0.000200267
0.000188536
0.00017696
0.000165557
0.000154344
0.000143336
0.000132542
0.000121973
0.000111635
0.000101535
9.16792e-05
8.20717e-05
7.27257e-05
6.3657e-05
5.48635e-05
4.63282e-05
3.80382e-05
2.99914e-05
2.21916e-05
1.4645e-05
7.35615e-06
3.24996e-07
-6.45427e-06
-1.29925e-05
-1.93041e-05
-2.54048e-05
-3.1311e-05
-3.70385e-05
-4.26045e-05
-4.80291e-05
-5.33389e-05
-5.8571e-05
-6.37754e-05
-6.90174e-05
-7.43785e-05
-7.9961e-05
-8.58972e-05
-9.23645e-05
-9.96035e-05
-0.000107938
-0.000117773
-0.000129453
-0.000142968
-0.000158042
-0.000174561
-0.000191704
-0.00020681
-0.000216708
-0.000219589
-0.000214869
-0.000203125
-0.000186442
-0.000167857
-0.000149724
-0.000133288
-0.000120375
-0.000118056
0.000344953
0.000331565
0.000318288
0.000305378
0.000292569
0.000279658
0.000266632
0.000253571
0.000240565
0.000227676
0.000214929
0.000202332
0.000189892
0.000177623
0.000165543
0.000153675
0.000142036
0.00013064
0.000119499
0.000108621
9.80114e-05
8.76759e-05
7.7615e-05
6.78304e-05
5.83329e-05
4.91232e-05
4.0186e-05
3.15054e-05
2.30762e-05
1.49009e-05
6.98587e-06
-6.62926e-07
-8.04304e-06
-1.51575e-05
-2.2015e-05
-2.86282e-05
-3.50127e-05
-4.11844e-05
-4.71589e-05
-5.29514e-05
-5.85784e-05
-6.4061e-05
-6.943e-05
-7.47328e-05
-8.00391e-05
-8.54462e-05
-9.10829e-05
-9.71139e-05
-0.000103746
-0.000111231
-0.000119875
-0.000130011
-0.000141863
-0.000155327
-0.000170318
-0.000187395
-0.000206514
-0.000225419
-0.000240947
-0.000251114
-0.000255056
-0.00025225
-0.000243166
-0.000229744
-0.000214738
-0.000200975
-0.000190147
-0.000183311
-0.000186523
0.000340975
0.000326659
0.000312468
0.000298684
0.000285028
0.000271287
0.000257445
0.000243589
0.000229816
0.000216191
0.000202745
0.000189488
0.000176426
0.000163573
0.000150952
0.000138583
0.000126485
0.000114673
0.000103156
9.19397e-05
8.10299e-05
7.04312e-05
6.01499e-05
5.01978e-05
4.05801e-05
3.12828e-05
2.22834e-05
1.35679e-05
5.13183e-06
-3.02433e-06
-1.08985e-05
-1.84905e-05
-2.58042e-05
-3.28487e-05
-3.96369e-05
-4.61843e-05
-5.2507e-05
-5.86196e-05
-6.4534e-05
-7.02593e-05
-7.58055e-05
-8.11902e-05
-8.64497e-05
-9.16509e-05
-9.68978e-05
-0.000102332
-0.00010813
-0.000114497
-0.00012167
-0.000129899
-0.000139413
-0.000150294
-0.000162357
-0.000175681
-0.000191313
-0.000209877
-0.000229768
-0.000248251
-0.000263445
-0.000274322
-0.000279818
-0.000279174
-0.000272667
-0.000262164
-0.000250385
-0.000240707
-0.000235575
-0.00023568
-0.000245488
0.000335609
0.00032033
0.000305224
0.000290561
0.000276051
0.000261473
0.000246812
0.000232161
0.000217625
0.000203278
0.000189155
0.000175269
0.000161629
0.00014825
0.000135156
0.00012237
0.000109914
9.78008e-05
8.60402e-05
7.46357e-05
6.35858e-05
5.28825e-05
4.25232e-05
3.2508e-05
2.28229e-05
1.3446e-05
4.36081e-06
-4.43901e-06
-1.2954e-05
-2.11815e-05
-2.91193e-05
-3.67676e-05
-4.41311e-05
-5.12181e-05
-5.80404e-05
-6.46114e-05
-7.0944e-05
-7.70481e-05
-8.29288e-05
-8.85868e-05
-9.40232e-05
-9.9252e-05
-0.000104317
-0.000109306
-0.000114351
-0.000119619
-0.000125294
-0.000131563
-0.000138595
-0.000146536
-0.000155401
-0.000165058
-0.000175727
-0.000188634
-0.000204805
-0.000223395
-0.000242438
-0.000260455
-0.000276337
-0.000288664
-0.000295811
-0.000296909
-0.000292475
-0.000284229
-0.000274976
-0.000268496
-0.000268109
-0.000274464
-0.000289657
0.000325764
0.000309403
0.000293207
0.000277519
0.000262032
0.000246501
0.000230909
0.000215354
0.000199948
0.000184775
0.000169875
0.000155264
0.000140951
0.000126955
0.000113301
0.000100013
8.71128e-05
7.46143e-05
6.25268e-05
5.08572e-05
3.96125e-05
2.8798e-05
1.84124e-05
8.43693e-06
-1.16132e-06
-1.04129e-05
-1.93376e-05
-2.79478e-05
-3.62513e-05
-4.42534e-05
-5.19599e-05
-5.93786e-05
-6.65202e-05
-7.33982e-05
-8.00283e-05
-8.64273e-05
-9.26088e-05
-9.85797e-05
-0.000104334
-0.000109853
-0.000115108
-0.000120081
-0.000124792
-0.000129327
-0.000133836
-0.000138502
-0.000143473
-0.000148797
-0.000154416
-0.000160369
-0.000166693
-0.00017364
-0.000182426
-0.000194526
-0.000209896
-0.000227475
-0.000246365
-0.000265456
-0.000282956
-0.000296681
-0.000304961
-0.000307134
-0.000303904
-0.000297046
-0.000289446
-0.000285077
-0.00028796
-0.000299394
-0.000319966
0.000315808
0.000298309
0.000281091
0.000264413
0.000247959
0.000231491
0.000214997
0.000198581
0.000182366
0.000166446
0.000150866
0.000135647
0.000120802
0.000106351
9.23231e-05
7.87446e-05
6.5636e-05
5.30072e-05
4.08562e-05
2.91706e-05
1.79379e-05
7.15222e-06
-3.20221e-06
-1.31551e-05
-2.27375e-05
-3.19744e-05
-4.08852e-05
-4.9485e-05
-5.77863e-05
-6.58003e-05
-7.35398e-05
-8.10205e-05
-8.82635e-05
-9.52962e-05
-0.000102151
-0.00010886
-0.000115438
-0.000121867
-0.000128075
-0.000133949
-0.00013937
-0.000144287
-0.00014876
-0.00015292
-0.000156856
-0.000160564
-0.000164104
-0.000167576
-0.000170683
-0.000173118
-0.000175448
-0.000178803
-0.000184926
-0.000194761
-0.000208473
-0.000226022
-0.000246306
-0.00026714
-0.000285899
-0.000300236
-0.000308716
-0.000310951
-0.000307779
-0.000301184
-0.000294141
-0.000290637
-0.000295173
-0.000310199
-0.000336201
0.000296311
0.000277547
0.000258965
0.000241042
0.000223426
0.000205824
0.000188213
0.000170713
0.000153465
0.000136577
0.000120106
0.000104077
8.85074e-05
7.34235e-05
5.88625e-05
4.4864e-05
3.1462e-05
1.86815e-05
6.53485e-06
-4.98233e-06
-1.58934e-05
-2.62402e-05
-3.60768e-05
-4.54572e-05
-5.44272e-05
-6.30264e-05
-7.12894e-05
-7.92452e-05
-8.69165e-05
-9.43212e-05
-0.000101474
-0.000108393
-0.000115108
-0.000121666
-0.000128143
-0.000134628
-0.000141201
-0.000147867
-0.0001545
-0.000160833
-0.000166541
-0.000171429
-0.00017564
-0.000179473
-0.000182835
-0.000185085
-0.000185973
-0.000186391
-0.000186197
-0.000184387
-0.000182763
-0.00018321
-0.000186569
-0.000194079
-0.000207024
-0.000225159
-0.000246373
-0.000267761
-0.000286468
-0.000300261
-0.000307695
-0.000308482
-0.00030372
-0.000295765
-0.00028771
-0.000283562
-0.000288119
-0.000304687
-0.000334051
0.0002803
0.000260239
0.000240652
0.000221731
0.00020311
0.000184536
0.000165994
0.000147603
0.000129518
0.000111861
9.47063e-05
7.80829e-05
6.20025e-05
4.64767e-05
3.15243e-05
1.7171e-05
3.45157e-06
-9.59653e-06
-2.1944e-05
-3.35752e-05
-4.45028e-05
-5.47686e-05
-6.44311e-05
-7.35582e-05
-8.22244e-05
-9.05062e-05
-9.84745e-05
-0.000106182
-0.000113653
-0.000120869
-0.000127775
-0.000134294
-0.000140364
-0.000145997
-0.000151335
-0.000156676
-0.000162404
-0.000168823
-0.000175943
-0.000183297
-0.000189912
-0.000194728
-0.000197664
-0.000199947
-0.000202394
-0.000203842
-0.000202533
-0.000199631
-0.00019681
-0.000193659
-0.000190334
-0.000188535
-0.00019043
-0.000197151
-0.000209303
-0.000226506
-0.000246768
-0.000267207
-0.000284735
-0.000296766
-0.000301601
-0.000298969
-0.000290259
-0.000278463
-0.000267318
-0.000260976
-0.000264086
-0.000280153
-0.00031042
0.000245227
0.000223393
0.000201764
0.000181057
0.000160891
0.000140896
0.000121017
0.000101376
8.21432e-05
6.34606e-05
4.54291e-05
2.81258e-05
1.16366e-05
-3.95987e-06
-1.86451e-05
-3.24627e-05
-4.5454e-05
-5.76394e-05
-6.90419e-05
-7.97053e-05
-8.96925e-05
-9.90665e-05
-0.000107889
-0.000116224
-0.000124144
-0.000131721
-0.000139031
-0.000146141
-0.000153099
-0.000159914
-0.000166536
-0.000172844
-0.00017865
-0.000183762
-0.000188079
-0.000191696
-0.000194933
-0.000198199
-0.000201858
-0.000206
-0.000209958
-0.000212302
-0.000212388
-0.000211766
-0.000212132
-0.000212995
-0.000212547
-0.000210236
-0.00020661
-0.000202478
-0.000198602
-0.000196124
-0.000196564
-0.00020097
-0.000210099
-0.000224632
-0.00024333
-0.000262906
-0.000279233
-0.00028875
-0.000289217
-0.000280293
-0.000263962
-0.000244798
-0.000228084
-0.00021804
-0.000218435
-0.000232367
-0.000261951
0.000221004
0.0001983
0.000176236
0.000154608
0.00013315
0.0001118
9.06311e-05
6.97864e-05
4.94224e-05
2.96422e-05
1.0456e-05
-8.20513e-06
-2.63042e-05
-4.36146e-05
-5.98513e-05
-7.47759e-05
-8.8284e-05
-0.000100383
-0.000111138
-0.000120634
-0.000128965
-0.000136254
-0.000142663
-0.000148401
-0.000153722
-0.00015892
-0.000164305
-0.000170163
-0.000176707
-0.000184013
-0.00019195
-0.000200142
-0.000207965
-0.000214649
-0.000219492
-0.000222159
-0.000222732
-0.000221317
-0.000218559
-0.00021593
-0.000214777
-0.000215022
-0.000215566
-0.000215671
-0.000215196
-0.000214554
-0.000213753
-0.000212422
-0.000210392
-0.000207787
-0.000204883
-0.000202208
-0.00020058
-0.000201008
-0.000205022
-0.000214843
-0.000231305
-0.000251015
-0.000267478
-0.000274924
-0.000269929
-0.000252227
-0.000225225
-0.000195693
-0.000170781
-0.000155348
-0.000152155
-0.000162785
-0.000189137
0.000158444
0.000133342
0.000108932
8.56272e-05
6.28245e-05
4.00965e-05
1.75355e-05
-4.51405e-06
-2.57244e-05
-4.58677e-05
-6.4784e-05
-8.23354e-05
-9.8527e-05
-0.000113513
-0.000127396
-0.000140139
-0.000151595
-0.000161618
-0.000170122
-0.000177093
-0.000182591
-0.00018675
-0.000189762
-0.000191873
-0.000193369
-0.000194567
-0.000195786
-0.00019733
-0.000199446
-0.000202283
-0.00020585
-0.000209996
-0.000214409
-0.00021867
-0.000222384
-0.000225316
-0.000227282
-0.000227902
-0.00022701
-0.000224933
-0.000222339
-0.000219941
-0.000218035
-0.000216394
-0.000214845
-0.000213287
-0.000211605
-0.000209667
-0.000207559
-0.000205535
-0.000203842
-0.000202652
-0.000202037
-0.000202107
-0.000203424
-0.000208179
-0.000219965
-0.000239048
-0.000258925
-0.000269829
-0.000264351
-0.000241557
-0.000206844
-0.000168009
-0.000133049
-0.000109929
-0.000102343
-0.00010798
-0.000130551
-0.000183368
-0.000173104
-0.00016227
-0.000151045
-0.000139154
-0.000126433
-0.00011285
-9.86911e-05
-8.40924e-05
-6.86552e-05
-5.2304e-05
-3.52474e-05
-1.77779e-05
1.00686e-06
1.95407e-05
3.89236e-05
5.82089e-05
7.84427e-05
9.84623e-05
0.000118066
0.000138964
0.000158849
0.000178284
0.000197029
0.000215116
0.000232288
0.000247979
0.000262705
0.000276695
0.000288474
0.000298793
0.000307676
0.000315411
0.000321781
0.00032641
0.00032986
0.000332321
0.000333257
0.000333224
0.000332653
0.000330553
0.000328153
0.000325987
0.000323329
0.000319612
0.000316103
0.000312127
0.000308276
0.000304143
0.000300124
0.000296207
0.000292364
0.000288921
0.000285521
0.000282296
0.000278986
0.000276098
0.000273333
0.000270905
-0.000190606
-0.000179999
-0.000168792
-0.000156954
-0.000144427
-0.000131172
-0.000117138
-0.000102369
-8.69098e-05
-7.07019e-05
-5.37595e-05
-3.6082e-05
-1.77059e-05
1.36842e-06
2.09622e-05
4.09724e-05
6.15363e-05
8.23394e-05
0.000103348
0.000124025
0.000145159
0.000165955
0.000186161
0.000205631
0.000224203
0.000241918
0.000258418
0.000273548
0.000287683
0.000300056
0.000310517
0.000319591
0.000327265
0.000333529
0.000338231
0.000341555
0.000343767
0.000344709
0.000344418
0.000343303
0.000341343
0.000338906
0.000336152
0.000332678
0.000328892
0.000324889
0.000320758
0.00031661
0.000312271
0.000307964
0.000303787
0.000299733
0.00029579
0.000292114
0.000288556
0.000285294
0.000282345
0.000279575
0.000277002
-0.000198842
-0.000187796
-0.000176127
-0.000163738
-0.000150627
-0.000136758
-0.000122134
-0.000106752
-9.05908e-05
-7.36355e-05
-5.59165e-05
-3.74655e-05
-1.82986e-05
1.52793e-06
2.19378e-05
4.29371e-05
6.44156e-05
8.61901e-05
0.000108052
0.000129831
0.000151671
0.000173244
0.000194261
0.000214466
0.0002338
0.000252164
0.000269289
0.000285048
0.000299526
0.000312238
0.000323147
0.000332405
0.000340016
0.000346158
0.000350775
0.000353973
0.000355922
0.000356716
0.000356311
0.000355048
0.000353007
0.000350258
0.000346982
0.000343153
0.000339004
0.000334664
0.000330154
0.000325563
0.000320938
0.000316376
0.000311946
0.000307643
0.000303484
0.000299512
0.000295796
0.000292335
0.000289114
0.000286097
0.000283315
-0.000207546
-0.000196037
-0.000183874
-0.000170966
-0.000157304
-0.000142858
-0.000127619
-0.000111579
-9.47181e-05
-7.70293e-05
-5.85271e-05
-3.92406e-05
-1.92042e-05
1.50996e-06
2.28272e-05
4.47294e-05
6.70966e-05
8.98034e-05
0.00011262
0.00013546
0.000158234
0.000180665
0.000202523
0.000223569
0.000243728
0.000262822
0.000280603
0.000296984
0.000311901
0.000325002
0.0003363
0.000345779
0.000353461
0.000359596
0.000364132
0.000367201
0.000368944
0.000369514
0.000368919
0.000367406
0.000365074
0.000361978
0.00035831
0.000354162
0.000349615
0.000344848
0.000339919
0.000334915
0.000329927
0.000325022
0.000320249
0.000315634
0.00031121
0.000306991
0.000303009
0.000299257
0.000295742
0.000292452
0.000289453
-0.000216834
-0.000204823
-0.000192132
-0.000178669
-0.000164425
-0.000149365
-0.000133472
-0.000116731
-9.9132e-05
-8.06742e-05
-6.13677e-05
-4.12345e-05
-2.03142e-05
1.3233e-06
2.36022e-05
4.64538e-05
6.97784e-05
9.34478e-05
0.000117275
0.000141143
0.000164894
0.000188261
0.000211031
0.000232983
0.000253987
0.000273838
0.00029231
0.000309299
0.000324703
0.00033823
0.000349881
0.000359607
0.000367437
0.000373606
0.000378092
0.000381046
0.000382603
0.000382923
0.000382062
0.000380206
0.000377484
0.000373999
0.000369916
0.000365344
0.000360369
0.000355152
0.000349798
0.000344392
0.000339014
0.000333722
0.000328568
0.000323591
0.000318822
0.000314282
0.000309988
0.000305949
0.00030218
0.000298664
0.000295461
-0.000226972
-0.000214429
-0.000201169
-0.000187102
-0.000172219
-0.000156484
-0.000139878
-0.000122384
-0.000103994
-8.471e-05
-6.4543e-05
-4.35161e-05
-2.16686e-05
9.38211e-07
2.42289e-05
4.81131e-05
7.24816e-05
9.71935e-05
0.000122081
0.000147001
0.000171765
0.000196129
0.000219871
0.000242768
0.00026464
0.000285269
0.000304457
0.000322071
0.000337991
0.000351961
0.000363972
0.000373953
0.000381936
0.000388133
0.000392573
0.000395411
0.000396776
0.000396826
0.000395653
0.000393421
0.000390277
0.000386353
0.000381804
0.000376758
0.000371331
0.000365663
0.000359869
0.000354037
0.000348241
0.000342543
0.000336994
0.000331639
0.000326511
0.000321636
0.000317033
0.000312713
0.000308688
0.000304934
0.000301508
-0.000238061
-0.000224958
-0.0002111
-0.000196394
-0.000180833
-0.000164379
-0.000147012
-0.000128714
-0.000109478
-8.9306e-05
-6.82102e-05
-4.62167e-05
-2.33673e-05
2.77899e-07
2.46419e-05
4.96272e-05
7.51138e-05
0.000100952
0.000126974
0.000153012
0.000178861
0.000204284
0.000229054
0.000252935
0.000275716
0.00029717
0.000317108
0.000335378
0.000351841
0.000366277