/*--------------------------------*- C++ -*----------------------------------*\
| =========                 |                                                 |
| \\      /  F ield         | OpenFOAM: The Open Source CFD Toolbox           |
|  \\    /   O peration     | Version:  2312                                  |
|   \\  /    A nd           | Website:  www.openfoam.com                      |
|    \\/     M anipulation  |                                                 |
\*---------------------------------------------------------------------------*/
FoamFile
{
    version     2.0;
    format      ascii;
    arch        "LSB;label=32;scalar=64";
    class       surfaceScalarField;
    location    "2000";
    object      phi;
}
// * * * * * * * * * * * * * * * * * * * * * * * * * * * * * * * * * * * * * //

dimensions      [0 3 -1 0 0 0 0];

oriented        oriented;

internalField   nonuniform List<scalar> 
116611
(
0.00095076
0.000414907
-0.000934834
-0.000430833
0.000966636
0.000410178
-0.000426055
0.000982482
0.000405158
-0.000421004
0.000998201
0.000399782
-0.000415501
0.00101353
0.000393982
-0.000409316
0.0010288
0.000387667
-0.000402931
0.00104353
0.000380935
-0.000395669
0.00105825
0.000373747
-0.000388464
0.00107273
0.000366058
-0.000380544
0.00108704
0.000357941
-0.000372246
0.001101
0.000349267
-0.000363231
0.0011147
0.000340091
-0.000353789
0.0011281
0.000330376
-0.00034377
0.0011414
0.00032012
-0.000333425
0.00115446
0.000309345
-0.0003224
0.00116712
0.000298081
-0.000310748
0.00117963
0.000286105
-0.000298608
0.00119164
0.000273624
-0.000285637
0.00120327
0.000260376
-0.000272007
0.00121452
0.000246669
-0.000257917
0.00122559
0.00023211
-0.00024318
0.00123617
0.000216953
-0.00022754
0.00124641
0.000201121
-0.000211359
0.00125628
0.00018462
-0.000194486
0.00126558
0.000167378
-0.000176681
0.00127445
0.00014938
-0.000158255
0.00128277
0.000130517
-0.000138838
0.00129026
0.000111041
-0.000118525
0.00129745
9.06419e-05
-9.78293e-05
0.00130371
6.93574e-05
-7.5616e-05
0.00130901
4.73983e-05
-5.27008e-05
0.00131337
2.44794e-05
-2.88377e-05
0.0013167
7.37693e-07
-4.07655e-06
0.00131937
-2.36709e-05
2.10025e-05
0.00132102
-4.92282e-05
4.75786e-05
0.00132178
-7.55338e-05
7.47726e-05
0.0013215
-0.000103026
0.000103312
0.00131984
-0.000131455
0.000133115
0.00131736
-0.000160566
0.000163047
0.00131391
-0.000190711
0.000194161
0.00130952
-0.000221764
0.000226145
0.00130415
-0.00025399
0.000259365
0.00129757
-0.000287232
0.000293814
0.00129031
-0.000321258
0.000328517
0.00128223
-0.000356399
0.000364474
0.00127311
-0.000392613
0.000401735
0.00126255
-0.00043012
0.000440678
0.00125085
-0.000468474
0.000480173
0.00123787
-0.00050787
0.000520855
0.00122325
-0.000548342
0.000562956
0.00120694
-0.000589878
0.000606196
0.00118861
-0.000632435
0.000650757
0.00116818
-0.000675879
0.000696316
0.00114572
-0.000720142
0.0007426
0.00112132
-0.000765271
0.000789669
0.00109477
-0.000811359
0.000837905
0.0010658
-0.00085854
0.000887516
0.00103427
-0.000906714
0.000938244
0.000999597
-0.000956161
0.000990832
0.000961064
-0.00100705
0.00104558
0.000919701
-0.00105881
0.00110017
0.000873501
-0.00111159
0.00115779
0.000822166
-0.00116323
0.00121456
0.000763992
-0.00121219
0.00127036
0.000705391
-0.0012671
0.0013257
0.000652208
-0.00135515
0.00140833
0.000581931
-0.00146264
0.00153292
0.000476079
-0.00148081
0.00158666
-0.00137016
0.000351483
0.00149476
0.000933743
0.000399202
-0.000918039
0.000949354
0.000394567
0.000964926
0.000389586
0.000980441
0.000384267
0.000995854
0.00037857
0.00101104
0.000372484
0.00102598
0.000365993
0.00104069
0.00035904
0.00105513
0.000351618
0.00106936
0.000343709
0.00108331
0.000335318
0.00109696
0.000326436
0.0011103
0.000317033
0.00112334
0.000307086
0.00113607
0.000296617
0.00114857
0.000285575
0.0011607
0.000273978
0.00117254
0.000261788
0.00118391
0.000249005
0.001195
0.000235579
0.0012056
0.000221504
0.00121577
0.000206789
0.00122548
0.000191411
0.00123475
0.000175352
0.00124353
0.000158592
0.00125182
0.000141092
0.00125947
0.000122869
0.0012666
0.000103914
0.00127307
8.41672e-05
0.00127877
6.36542e-05
0.00128382
4.23467e-05
0.00128806
2.02448e-05
0.00129148
-2.6817e-06
0.00129426
-2.6457e-05
0.00129617
-5.11357e-05
0.00129734
-7.67008e-05
0.00129752
-0.000103203
0.00129668
-0.000130623
0.00129503
-0.000158913
0.00129246
-0.000188136
0.00128901
-0.000218315
0.00128451
-0.00024949
0.00127892
-0.00028164
0.00127237
-0.000314709
0.00126474
-0.000348771
0.00125595
-0.000383824
0.00124576
-0.000419923
0.00123423
-0.000456949
0.00122127
-0.000494909
0.00120672
-0.000533797
0.00119045
-0.000573605
0.00117231
-0.000614293
0.00115223
-0.000655805
0.0011302
-0.000698107
0.00110614
-0.000741207
0.0010799
-0.000785127
0.00105128
-0.000829915
0.00102009
-0.000875522
0.000985978
-0.000922051
0.000948517
-0.000969584
0.000907505
-0.0010178
0.000861691
-0.00106578
0.000809927
-0.00111146
0.000752979
-0.00115524
0.000697928
-0.00121205
0.000647342
-0.00130456
0.000577556
-0.00139286
0.000469135
-0.00137239
-0.00124056
0.000339534
0.00091735
0.000383487
-0.000901635
0.000932879
0.000379039
0.000948255
0.000374209
0.000963518
0.000369005
0.000978661
0.000363426
0.000993674
0.000357471
0.00100854
0.000351126
0.00102321
0.000344368
0.00103765
0.000337178
0.00105183
0.00032953
0.00106574
0.000321411
0.00107937
0.000312808
0.0010927
0.000303706
0.0011057
0.000294086
0.00111838
0.000283936
0.00113072
0.000273234
0.00114272
0.000261977
0.00115436
0.000250145
0.00116564
0.000237728
0.00117651
0.000224704
0.00118695
0.000211067
0.00119694
0.000196798
0.00120647
0.00018188
0.00121552
0.0001663
0.00122408
0.00015004
0.00123208
0.000133083
0.00123954
0.000115418
0.00124642
9.70277e-05
0.00125269
7.79021e-05
0.00125832
5.80245e-05
0.00126328
3.7384e-05
0.00126753
1.59966e-05
0.00127106
-6.2162e-06
0.00127388
-2.92759e-05
0.00127592
-5.31782e-05
0.00127717
-7.79441e-05
0.00127755
-0.000103588
0.00127706
-0.000130129
0.0012757
-0.000157554
0.00127344
-0.000185875
0.00127024
-0.000215113
0.00126602
-0.000245277
0.00126076
-0.000276374
0.00125443
-0.000308384
0.00124698
-0.000341314
0.00123831
-0.000375163
0.00122832
-0.000409933
0.00121696
-0.000445583
0.00120413
-0.00048208
0.00118974
-0.000519405
0.00117368
-0.000557544
0.00115586
-0.000596472
0.00113621
-0.000636159
0.00111468
-0.000676573
0.00109115
-0.000717685
0.00106549
-0.00075946
0.00103744
-0.000801868
0.0010068
-0.000844881
0.0009733
-0.000888552
0.000936563
-0.000932847
0.000895923
-0.000977157
0.000850123
-0.00101998
0.000798404
-0.00105974
0.000743921
-0.00110076
0.00069462
-0.00116275
0.000646186
-0.00125613
0.000570636
-0.00131731
0.000456697
-0.00125845
-0.0011078
0.000323935
0.000900942
0.000367576
-0.000885031
0.000916618
0.000363364
0.000932058
0.000358769
0.000947281
0.000353782
0.000962305
0.000348401
0.000977154
0.000342623
0.000991833
0.000336447
0.00100633
0.000329867
0.00102064
0.000322874
0.00103472
0.000315451
0.00104855
0.000307578
0.00106212
0.00029924
0.0010754
0.000290422
0.00108838
0.000281108
0.00110103
0.000271282
0.00111334
0.000260928
0.00112529
0.00025003
0.00113686
0.000238574
0.00114804
0.000226545
0.00115882
0.000213931
0.00116916
0.000200719
0.00117907
0.000186891
0.00118851
0.000172436
0.00119748
0.000157338
0.00120593
0.000141583
0.00121386
0.000125154
0.00122124
0.000108038
0.00122805
9.02219e-05
0.00123425
7.1696e-05
0.00123983
5.24445e-05
0.00124476
3.2462e-05
0.001249
1.17513e-05
0.00125256
-9.77204e-06
0.00125539
-3.21123e-05
0.00125748
-5.52685e-05
0.0012588
-7.92585e-05
0.00125931
-0.000104096
0.00125897
-0.000129792
0.00125776
-0.000156347
0.00125565
-0.000183768
0.00125261
-0.000212064
0.00124857
-0.00024124
0.00124349
-0.000271297
0.00123733
-0.000302223
0.00123002
-0.000334008
0.0012215
-0.000366642
0.00121168
-0.000400112
0.00120049
-0.000434388
0.00118785
-0.000469445
0.00117371
-0.000505263
0.00115799
-0.000541824
0.00114062
-0.000579107
0.00112154
-0.000617072
0.00110063
-0.000655667
0.00107777
-0.000694823
0.00105277
-0.000734464
0.00102544
-0.000774533
0.000995573
-0.000815018
0.000962933
-0.000855912
0.000926998
-0.000896912
0.000886779
-0.000936939
0.000841113
-0.000974308
0.000790582
-0.00100921
0.000740878
-0.00105105
0.000698222
-0.00112009
0.000649417
-0.00120732
0.000566025
-0.00123392
0.000446468
-0.00113889
-0.000974795
0.000313464
0.000884444
0.000351637
-0.000868505
0.000900224
0.000347584
0.000915801
0.000343192
0.000931149
0.000338434
0.000946257
0.000333293
0.000961124
0.000327756
0.000975756
0.000321815
0.00099016
0.000315463
0.00100434
0.000308694
0.00101829
0.0003015
0.001032
0.000293868
0.00104545
0.000285787
0.00105863
0.000277242
0.00107152
0.00026822
0.0010841
0.000258706
0.00109634
0.000248684
0.00110823
0.000238139
0.00111975
0.000227054
0.00113088
0.000215417
0.0011416
0.000203211
0.00115189
0.000190423
0.00116175
0.00017704
0.00117114
0.000163047
0.00118004
0.00014843
0.00118845
0.000133176
0.00119633
0.000117271
0.00120367
0.000100701
0.00121044
8.34556e-05
0.00121661
6.55223e-05
0.00122217
4.68873e-05
0.00122708
2.75486e-05
0.00123133
7.49697e-06
0.00123491
-1.33508e-05
0.00123779
-3.49847e-05
0.00123993
-5.74095e-05
0.00124131
-8.06382e-05
0.00124189
-0.000104682
0.00124165
-0.000129548
0.00124054
-0.000155242
0.00123854
-0.000181768
0.00123561
-0.000209128
0.00123169
-0.000237323
0.00122674
-0.000266345
0.0012207
-0.000296184
0.00121352
-0.000326827
0.00120513
-0.000358258
0.00119548
-0.000390462
0.00118452
-0.00042342
0.00117218
-0.000457111
0.00115844
-0.000491515
0.00114322
-0.000526605
0.00112645
-0.00056234
0.00110804
-0.00059866
0.00108786
-0.000635484
0.00106575
-0.000672715
0.00104155
-0.000710265
0.0010151
-0.000748085
0.000986235
-0.000786152
0.000954607
-0.000824284
0.000919441
-0.000861746
0.000879577
-0.000897075
0.000834534
-0.000929265
0.000787119
-0.000961799
0.000744667
-0.0010086
0.000708038
-0.00108346
0.000655002
-0.00115429
0.000561623
-0.00114054
0.000436337
-0.0010136
-0.000840718
0.000302259
0.000868426
0.000335923
-0.000852712
0.000884069
0.000331941
0.000899598
0.000327663
0.00091497
0.000323063
0.000930146
0.000318117
0.000945095
0.000312806
0.0009598
0.00030711
0.000974248
0.000301015
0.000988433
0.000294508
0.00100235
0.000287579
0.00101601
0.000280217
0.00102938
0.000272413
0.00104247
0.000264155
0.00105526
0.000255431
0.00106773
0.000246229
0.00107988
0.000236534
0.00109169
0.000226334
0.00110313
0.000215613
0.00111419
0.000204357
0.00112485
0.000192553
0.00113508
0.000180186
0.00114488
0.000167241
0.00115422
0.000153707
0.00116309
0.000139568
0.00117145
0.000124812
0.0011793
0.000109426
0.0011866
9.3397e-05
0.00119334
7.67136e-05
0.0011995
5.93642e-05
0.00120505
4.13362e-05
0.00120997
2.2632e-05
0.00121424
3.22531e-06
0.00121784
-1.69532e-05
0.00122075
-3.7889e-05
0.00122293
-5.95895e-05
0.00122435
-8.20644e-05
0.00122499
-0.000105323
0.00122482
-0.000129371
0.00122379
-0.000154213
0.00122187
-0.00017985
0.00121902
-0.00020628
0.0012152
-0.000233498
0.00121035
-0.000261498
0.00120443
-0.000290268
0.00119741
-0.000319798
0.00118922
-0.000350075
0.00117985
-0.000381085
0.00116924
-0.000412811
0.00115736
-0.000445232
0.00114416
-0.000478314
0.00112957
-0.000512014
0.00111349
-0.000546269
0.00109583
-0.000580995
0.00107644
-0.000616091
0.00105518
-0.000651459
0.00103194
-0.000687022
0.00100659
-0.000722737
0.000978906
-0.00075847
0.000948318
-0.000793697
0.000913796
-0.000827224
0.000874466
-0.000857745
0.000831427
-0.000886226
0.000790002
-0.000920374
0.000756578
-0.000975176
0.000723
-0.00104988
0.000661118
-0.00109241
0.000556726
-0.00103614
0.000426624
-0.000883503
-0.000706548
0.000292454
0.000853407
0.0003205
-0.000837984
0.000868769
0.000316579
0.000884054
0.000312377
0.00089924
0.000307877
0.000914295
0.000303063
0.000929185
0.000297916
0.000943878
0.000292417
0.000958345
0.000286548
0.000972564
0.00028029
0.000986515
0.000273628
0.00100018
0.000266548
0.00101356
0.000259037
0.00102663
0.000251083
0.00103939
0.000242674
0.00105182
0.000233798
0.00106391
0.000224442
0.00107565
0.000214593
0.00108703
0.000204239
0.00109802
0.000193366
0.00110861
0.000181961
0.00111878
0.000170011
0.00112852
0.000157503
0.00113781
0.000144422
0.00114662
0.000130757
0.00115493
0.000116495
0.00116274
0.000101622
0.00117001
8.61279e-05
0.00117672
7.00005e-05
0.00118286
5.32285e-05
0.00118839
3.58017e-05
0.0011933
1.77245e-05
0.00119757
-1.04963e-06
0.00120118
-2.05657e-05
0.00120411
-4.0812e-05
0.00120631
-6.17957e-05
0.00120777
-8.35251e-05
0.00120846
-0.000106007
0.00120833
-0.000129246
0.00120736
-0.000153243
0.00120551
-0.000177999
0.00120274
-0.000203511
0.00119902
-0.000229776
0.00119431
-0.000256786
0.00118858
-0.000284536
0.00118179
-0.000313015
0.00117393
-0.000342213
0.00116496
-0.000372113
0.00115484
-0.000402694
0.00114353
-0.000433921
0.00113097
-0.000465749
0.00111707
-0.000498114
0.00110173
-0.000530936
0.00108486
-0.000564121
0.00106634
-0.000597568
0.00104607
-0.000631194
0.00102399
-0.000664938
0.000999933
-0.000698682
0.00097349
-0.000732027
0.0009438
-0.000764007
0.000909891
-0.000793315
0.00087199
-0.000819845
0.000833562
-0.000847798
0.000801345
-0.000888157
0.000776568
-0.000950399
0.000740453
-0.00101377
0.000665375
-0.00101733
0.000550143
-0.000920913
0.00041674
-0.0007501
-0.000573694
0.000283886
0.000839437
0.00030527
-0.000824206
0.000854563
0.000301453
0.000869586
0.000297354
0.000884504
0.000292959
0.000899306
0.000288261
0.000913975
0.000283247
0.000928489
0.000277903
0.000942822
0.000272214
0.000956948
0.000266164
0.000970841
0.000259735
0.000984477
0.000252912
0.000997836
0.000245679
0.0010109
0.000238022
0.00102365
0.000229927
0.00103606
0.00022138
0.00104814
0.000212368
0.00105985
0.000202878
0.00107119
0.000192897
0.00108215
0.000182413
0.0010927
0.000171412
0.00110282
0.000159883
0.00111252
0.000147811
0.00112175
0.000135186
0.00113052
0.000121993
0.00113879
0.000108222
0.00114655
9.38605e-05
0.00115378
7.88969e-05
0.00116046
6.33209e-05
0.00116657
4.7121e-05
0.00117208
3.02903e-05
0.00117697
1.28312e-05
0.00118124
-5.31956e-06
0.00118486
-2.4179e-05
0.00118779
-4.37419e-05
0.00119001
-6.40152e-05
0.00119149
-8.50063e-05
0.0011922
-0.000106721
0.00119212
-0.000129162
0.00119121
-0.000152333
0.00118944
-0.000176234
0.0011868
-0.000200864
0.00118324
-0.00022622
0.00117875
-0.000252299
0.00117331
-0.000279095
0.00116689
-0.000306596
0.00115947
-0.000334788
0.001151
-0.000363647
0.00114145
-0.000393142
0.00113076
-0.000423228
0.00111885
-0.000453845
0.00110566
-0.000484922
0.0010911
-0.000516372
0.00107508
-0.000548106
0.00105756
-0.000580041
0.00103847
-0.00061211
0.00101774
-0.000644201
0.00099504
-0.000675985
0.000969681
-0.000706668
0.000940725
-0.000735051
0.000907974
-0.000760564
0.00087371
-0.000785581
0.000843628
-0.000817716
0.000822658
-0.000867188
0.000802425
-0.000930166
0.000756195
-0.000967538
0.000665027
-0.000926162
0.000540569
-0.000796454
0.000406215
-0.000615746
-0.000442928
0.000275448
0.000826272
0.00029012
-0.000811123
0.00084128
0.000286445
0.000856144
0.000282489
0.000870865
0.000278238
0.000885442
0.000273684
0.00089987
0.000268819
0.00091414
0.000263633
0.00092824
0.000258114
0.000942153
0.000252251
0.000955859
0.000246028
0.000969338
0.000239433
0.000982566
0.00023245
0.000995523
0.000225065
0.00100819
0.000217263
0.00102054
0.00020903
0.00103255
0.00020035
0.00104422
0.000191211
0.00105552
0.000181599
0.00106643
0.000171501
0.00107694
0.000160904
0.00108703
0.000149794
0.00109668
0.00013816
0.00110588
0.000125988
0.0011146
0.000113268
0.00112284
9.99877e-05
0.00113056
8.61351e-05
0.00113776
7.16998e-05
0.00114441
5.66718e-05
0.00115049
4.10398e-05
0.00115598
2.48012e-05
0.00116086
7.94988e-06
0.00116512
-9.58252e-06
0.00116873
-2.77917e-05
0.00117167
-4.668e-05
0.00117391
-6.62549e-05
0.00117543
-8.65236e-05
0.0011762
-0.000107492
0.0011762
-0.000129165
0.00117542
-0.000151545
0.00117382
-0.000174634
0.00117138
-0.000198431
0.0011681
-0.000222936
0.00116394
-0.000248142
0.00115889
-0.000274041
0.00115291
-0.000300617
0.00114597
-0.00032785
0.00113803
-0.00035571
0.00112905
-0.000384157
0.00111896
-0.00041314
0.00110771
-0.000442597
0.00109525
-0.000472455
0.00108151
-0.000502636
0.00106647
-0.000533069
0.00105012
-0.000563687
0.00103239
-0.000594381
0.00101305
-0.000624866
0.000991539
-0.000654471
0.000967002
-0.000682131
0.000939072
-0.000707121
0.000909341
-0.000730833
0.000882518
-0.000758758
0.000864391
-0.000799589
0.000853049
-0.000855846
0.000828833
-0.00090595
0.000764862
-0.000903567
0.000657138
-0.000818437
0.000526177
-0.000665493
0.000393766
-0.000483335
-0.000321559
0.000272397
0.000813699
0.000275004
-0.000798583
0.000828662
0.000271483
0.00084346
0.000267691
0.000858089
0.000263609
0.000872543
0.00025923
0.000886817
0.000254545
0.000900907
0.000249543
0.000914806
0.000244215
0.000928505
0.000238551
0.000941993
0.00023254
0.000955257
0.000226169
0.000968281
0.000219427
0.000981047
0.000212299
0.000993537
0.000204774
0.00100573
0.000196836
0.00101761
0.000188472
0.00102915
0.000179668
0.00104034
0.00017041
0.00105116
0.000160686
0.00106158
0.00015048
0.00107159
0.000139782
0.00108117
0.000128577
0.00109031
0.000116853
0.00109898
0.000104599
0.00110716
9.18033e-05
0.00111484
7.84538e-05
0.001122
6.45408e-05
0.00112862
5.00539e-05
0.00113468
3.49827e-05
0.00114015
1.93287e-05
0.00114503
3.06805e-06
0.0011493
-1.38545e-05
0.00115294
-3.14288e-05
0.00115592
-4.96616e-05
0.00115823
-6.85612e-05
0.00115984
-8.81352e-05
0.00116074
-0.00010839
0.0011609
-0.00012933
0.00116032
-0.000150959
0.00115896
-0.000173279
0.00115682
-0.000196287
0.00115386
-0.000219981
0.00115007
-0.000244351
0.00114542
-0.000269387
0.00113987
-0.000295069
0.00113339
-0.000321372
0.00112595
-0.000348265
0.0011175
-0.000375705
0.001108
-0.000403642
0.00109742
-0.000432017
0.00108573
-0.000460769
0.00107294
-0.00048984
0.00105904
-0.000519168
0.001044
-0.00054865
0.00102765
-0.000578028
0.0010095
-0.000606718
0.000988822
-0.000633795
0.000965225
-0.000658534
0.000939932
-0.000681828
0.000916973
-0.000707874
0.000902077
-0.000743862
0.000896481
-0.000793994
0.000887147
-0.000846513
0.000847524
-0.000866326
0.000761127
-0.000817171
0.000639319
-0.000696629
0.000505107
-0.000531282
0.000375587
-0.000353815
-0.000205066
0.000259094
0.000801644
0.000259922
-0.000786562
0.000816575
0.000256553
0.000831341
0.000252925
0.00084593
0.00024902
0.000860332
0.000244829
0.000874537
0.00024034
0.000888537
0.000235543
0.000902323
0.000230429
0.000915888
0.000224986
0.000929224
0.000219205
0.000942319
0.000213074
0.000955163
0.000206582
0.000967744
0.000199718
0.000980047
0.00019247
0.000992057
0.000184825
0.00100376
0.000176771
0.00101513
0.000168293
0.00102616
0.000159379
0.00103683
0.000150017
0.00104712
0.000140192
0.00105701
0.000129892
0.00106648
0.000119105
0.00107552
0.000107817
0.0010841
9.60174e-05
0.00109221
8.3694e-05
0.00109983
7.08359e-05
0.00110694
5.74327e-05
0.00111352
4.34734e-05
0.00111955
2.89501e-05
0.00112501
1.38641e-05
0.00112991
-1.82891e-06
0.00113422
-1.81587e-05
0.00113791
-3.51207e-05
0.00114097
-5.27233e-05
0.00114338
-7.0975e-05
0.00114513
-8.98833e-05
0.0011462
-0.000109454
0.00114656
-0.000129693
0.0011462
-0.0001506
0.0011451
-0.000172178
0.00114323
-0.000194422
0.00114058
-0.000217328
0.00113711
-0.000240885
0.00113281
-0.00026508
0.00112763
-0.000289895
0.00112156
-0.000315304
0.00111458
-0.000341276
0.00110664
-0.000367773
0.00109775
-0.000394751
0.0010879
-0.000422165
0.0010771
-0.000449971
0.00106538
-0.000478119
0.00105272
-0.00050651
0.00103897
-0.000534899
0.00102372
-0.000562774
0.00100634
-0.000589342
0.000986518
-0.00061397
0.000965327
-0.000637343
0.000946387
-0.000662888
0.000935177
-0.000696663
0.000934282
-0.000742967
0.000935007
-0.000794719
0.000914159
-0.000825664
0.000849219
-0.000801386
0.000741202
-0.000709153
0.000610661
-0.000566088
0.00047737
-0.000397991
0.000352696
-0.00022914
-9.50602e-05
0.00024269
0.000790122
0.000244886
-0.000775086
0.000805011
0.000241664
0.000819739
0.000238197
0.000834291
0.000234468
0.000848657
0.000230463
0.000862823
0.000226174
0.000876778
0.000221588
0.00089051
0.000216697
0.000904009
0.000211488
0.000917263
0.00020595
0.000930263
0.000200074
0.000942998
0.000193847
0.000955456
0.00018726
0.000967626
0.0001803
0.000979496
0.000172956
0.00099105
0.000165216
0.00100228
0.000157067
0.00101316
0.000148496
0.00102368
0.000139493
0.00103383
0.000130043
0.00104359
0.000120135
0.00105294
0.000109756
0.00106186
9.88939e-05
0.00107034
8.7537e-05
0.00107836
7.56738e-05
0.00108591
6.32934e-05
0.00109295
5.03851e-05
0.00109949
3.69378e-05
0.00110549
2.29468e-05
0.00111095
8.4059e-06
0.00111586
-6.74022e-06
0.0011202
-2.24974e-05
0.00112395
-3.88688e-05
0.00112709
-5.58633e-05
0.0011296
-7.34891e-05
0.00113147
-9.17533e-05
0.00113268
-0.000110661
0.0011332
-0.000130217
0.00113302
-0.000150421
0.00113212
-0.000171274
0.00113047
-0.000192773
0.00112806
-0.000214911
0.00112485
-0.000237679
0.00112084
-0.000261066
0.00111599
-0.000285054
0.00111031
-0.000309623
0.00110378
-0.000334745
0.0010964
-0.000360391
0.00108818
-0.000386531
0.00107915
-0.000413138
0.00106935
-0.000440169
0.00105876
-0.000467529
0.00104724
-0.000494984
0.00103441
-0.000522075
0.00101978
-0.000548144
0.00100315
-0.000572711
0.000985622
-0.00059644
0.000970598
-0.000622319
0.000963286
-0.000655577
0.000966739
-0.000700116
0.000974656
-0.000750883
0.000967133
-0.000787196
0.000920168
-0.000778699
0.000827111
-0.000708329
0.000704053
-0.000586095
0.000571857
-0.000433892
0.000444085
-0.00027022
0.000327292
-0.000112346
9.79427e-06
0.000222437
0.00077918
0.000229903
-0.000764197
0.000794015
0.000226828
0.000808691
0.000223522
0.000823194
0.000219965
0.000837512
0.000216145
0.000851632
0.000212053
0.000865542
0.000207679
0.000879229
0.00020301
0.00089268
0.000198037
0.000905883
0.000192747
0.000918825
0.000187131
0.000931495
0.000181177
0.00094388
0.000174875
0.000955969
0.000168212
0.000967749
0.000161176
0.000979207
0.000153757
0.000990331
0.000145943
0.00100111
0.00013772
0.00101152
0.000129078
0.00102156
0.000120004
0.00103121
0.000110486
0.00104045
0.000100513
0.00104928
9.0071e-05
0.00105766
7.91501e-05
0.0010656
6.77386e-05
0.00107306
5.58259e-05
0.00108005
4.34011e-05
0.00108653
3.04538e-05
0.0010925
1.69822e-05
0.00109794
2.96375e-06
0.00110285
-1.16471e-05
0.0011072
-2.6847e-05
0.00111097
-4.26435e-05
0.00111415
-5.90456e-05
0.00111672
-7.60609e-05
0.00111867
-9.36962e-05
0.00111996
-0.000111956
0.00112059
-0.000130845
0.00112053
-0.000150363
0.00111977
-0.000170512
0.00111829
-0.000191288
0.00111606
-0.000212688
0.00111309
-0.000234706
0.00110935
-0.000257331
0.00110485
-0.000280551
0.00109958
-0.00030435
0.00109354
-0.000328712
0.00108677
-0.000353621
0.00107931
-0.000379063
0.00107117
-0.000405004
0.00106235
-0.000431344
0.00105267
-0.000457857
0.00104183
-0.000484138
0.00102942
-0.000509666
0.00101544
-0.000534164
0.00100112
-0.000558396
0.000989801
-0.000585117
0.000986394
-0.000618913
0.000993909
-0.000663092
0.00100712
-0.000713326
0.00100843
-0.000752191
0.000974416
-0.000753186
0.000894293
-0.000698576
0.000779845
-0.00059388
0.000651747
-0.000457998
0.000524955
-0.0003071
0.00040712
-0.000152384
0.00030287
-8.09712e-06
9.88602e-05
0.000213804
0.000768884
0.000214985
-0.000753966
0.000783656
0.000212057
0.000798268
0.00020891
0.000812707
0.000205525
0.000826962
0.00020189
0.000841021
0.000197995
0.00085487
0.000193829
0.000868497
0.000189383
0.000881889
0.000184645
0.000895033
0.000179603
0.000907916
0.000174248
0.000920525
0.000168568
0.000932847
0.000162553
0.00094487
0.000156189
0.00095658
0.000149466
0.000967964
0.000142373
0.000979011
0.000134896
0.000989706
0.000127025
0.00100004
0.000118748
0.00100999
0.000110051
0.00101955
0.000100925
0.00102871
9.13559e-05
0.00103745
8.13333e-05
0.00104575
7.08456e-05
0.00105361
5.98817e-05
0.001061
4.84311e-05
0.00106792
3.64828e-05
0.00107435
2.40287e-05
0.00108026
1.10652e-05
0.00108567
-2.44658e-06
0.00109055
-1.65285e-05
0.00109489
-3.11815e-05
0.00109866
-4.64144e-05
0.00110185
-6.22359e-05
0.00110444
-7.86538e-05
0.00110642
-9.56745e-05
0.00110777
-0.000113303
0.00110847
-0.000131544
0.0011085
-0.0001504
0.00110786
-0.000169872
0.00110654
-0.00018996
0.00110451
-0.000210662
0.00110178
-0.000231976
0.00109834
-0.000253894
0.00109421
-0.000276413
0.00108938
-0.000299525
0.0010839
-0.000323229
0.0010778
-0.000347518
0.00107109
-0.000372359
0.00106374
-0.000397649
0.00105556
-0.000423165
0.00104626
-0.000448561
0.0010356
-0.000473476
0.00102381
-0.000497871
0.00101233
-0.000522693
0.00100451
-0.000550567
0.00100489
-0.000585503
0.00101605
-0.000630069
0.00103293
-0.000679973
0.00103929
-0.00071969
0.001013
-0.000725903
0.000941876
-0.000682058
0.000834892
-0.000591592
0.000712016
-0.000471004
0.000588632
-0.000334614
0.00047231
-0.000190778
0.000366481
-4.65543e-05
0.000274338
8.40455e-05
0.000178923
0.000194275
0.00075933
0.00020014
-0.000744485
0.000774027
0.000197359
0.000788564
0.000194373
0.000802929
0.000191161
0.000817109
0.00018771
0.000831091
0.000184012
0.000844864
0.000180057
0.000858414
0.000175833
0.000871729
0.000171329
0.000884797
0.000166536
0.000897603
0.000161442
0.000910134
0.000156037
0.000922379
0.000150308
0.000934323
0.000144245
0.000945954
0.000137836
0.000957258
0.000131069
0.000968223
0.000123932
0.000978835
0.000116413
0.000989082
0.000108501
0.00099895
0.000100184
0.00100843
9.14486e-05
0.0010175
8.22845e-05
0.00102615
7.268e-05
0.00103437
6.26236e-05
0.00104215
5.21046e-05
0.00104947
4.11124e-05
0.00105632
2.9636e-05
0.00106267
1.76711e-05
0.00106853
5.20376e-06
0.0010739
-7.80816e-06
0.00107874
-2.13689e-05
0.00108304
-3.54854e-05
0.00108679
-5.0167e-05
0.00108998
-6.54221e-05
0.00109258
-8.12587e-05
0.00109459
-9.76835e-05
0.00109599
-0.000114703
0.00109677
-0.000132321
0.00109691
-0.000150543
0.00109641
-0.000169371
0.00109526
-0.000188808
0.00109345
-0.000208855
0.00109099
-0.000229513
0.00108788
-0.000250784
0.00108414
-0.000272672
0.0010798
-0.000295182
0.00107488
-0.00031831
0.00106937
-0.000342017
0.00106321
-0.000366191
0.00105618
-0.00039062
0.00104805
-0.000415034
0.00103875
-0.00043926
0.00102881
-0.000463539
0.00101996
-0.000489025
0.00101551
-0.000518236
0.00101951
-0.000554568
0.00103369
-0.00059969
0.00105256
-0.000648931
0.00106054
-0.000687958
0.00103702
-0.000696169
0.000970237
-0.00065912
0.000868161
-0.000579981
0.000750231
-0.000473663
0.000631796
-0.000352569
0.00052006
-0.000222877
0.00041712
-8.78384e-05
0.000324308
4.62581e-05
0.000242852
0.000165502
0.000250985
0.000170789
0.000750617
0.000185375
-0.000735852
0.000765234
0.000182742
0.000779689
0.000179918
0.00079397
0.00017688
0.000808064
0.000173616
0.00082196
0.000170117
0.000835644
0.000166372
0.000849105
0.000162372
0.000862329
0.000158106
0.000875303
0.000153562
0.000888015
0.00014873
0.000900452
0.0001436
0.0009126
0.000138159
0.000924447
0.000132398
0.00093598
0.000126303
0.000947186
0.000119863
0.000958051
0.000113066
0.000968564
0.000105901
0.00097871
9.83544e-05
0.000988479
9.04152e-05
0.000997856
8.20714e-05
0.00100683
7.3311e-05
0.00101539
6.41227e-05
0.00102352
5.44952e-05
0.0010312
4.44177e-05
0.00103844
3.3879e-05
0.0010452
2.28698e-05
0.00105149
1.13857e-05
0.00105729
-6.01948e-07
0.0010626
-1.31195e-05
0.0010674
-2.61693e-05
0.00107168
-3.97613e-05
0.00107542
-5.39049e-05
0.00107861
-6.86093e-05
0.00108123
-8.38827e-05
0.00108328
-9.97326e-05
0.00108474
-0.000116166
0.00108561
-0.000133189
0.00108587
-0.000150806
0.00108553
-0.000169024
0.00108456
-0.000187846
0.00108299
-0.00020728
0.00108081
-0.000227333
0.00107804
-0.000248015
0.0010747
-0.000269332
0.00107079
-0.000291274
0.00106627
-0.00031379
0.00106102
-0.000336762
0.00105483
-0.000360003
0.00104756
-0.00038335
0.00103938
-0.000406853
0.00103117
-0.000431056
0.00102494
-0.000457307
0.00102385
-0.000487934
0.00103122
-0.000525604
0.00104757
-0.000570918
0.00106648
-0.000618599
0.00107275
-0.000655207
0.00104749
-0.000662695
0.000980575
-0.000629255
0.000880387
-0.000558932
0.000766244
-0.000465838
0.000653089
-0.000360508
0.000547352
-0.000246833
0.000450401
-0.000125926
0.000361757
8.05284e-07
0.000282578
0.000125437
0.000214308
0.000233772
0.000307653
0.000157641
0.000742845
0.000170686
-0.000728157
0.000757382
0.000168205
0.000771754
0.000165546
0.000785949
0.000162685
0.000799955
0.00015961
0.000813758
0.000156313
0.000827348
0.000152783
0.000840711
0.000149009
0.000853834
0.000144982
0.000866705
0.000140691
0.000879312
0.000136124
0.00089164
0.000131271
0.000903678
0.000126121
0.000915413
0.000120663
0.000926832
0.000114884
0.000937922
0.000108773
0.000948671
0.000102317
0.000959066
9.55053e-05
0.000969096
8.83248e-05
0.000978748
8.07636e-05
0.000988009
7.28096e-05
0.00099687
6.4451e-05
0.00100532
5.56762e-05
0.00101334
4.64739e-05
0.00102092
3.68331e-05
0.00102806
2.67427e-05
0.00103473
1.61967e-05
0.00104093
5.18221e-06
0.00104667
-6.33682e-06
0.00105192
-1.83689e-05
0.00105667
-3.0922e-05
0.00106092
-4.40061e-05
0.00106464
-5.76307e-05
0.00106784
-7.18048e-05
0.00107049
-8.65369e-05
0.00107259
-0.000101835
0.00107413
-0.000117706
0.0010751
-0.000134158
0.0010755
-0.000151198
0.00107531
-0.000168835
0.00107454
-0.000187078
0.0010732
-0.000205939
0.00107129
-0.000225427
0.00106882
-0.000245543
0.00106575
-0.000266263
0.001062
-0.000287519
0.00105741
-0.000309199
0.00105182
-0.000331176
0.00104525
-0.000353432
0.00103817
-0.000376269
0.00103184
-0.000400526
0.00102845
-0.000427665
0.0010308
-0.000459654
0.00104111
-0.000498241
0.00105836
-0.000542854
0.00107501
-0.000587571
0.00107624
-0.000619833
0.00104526
-0.000624223
0.000974465
-0.0005919
0.000873562
-0.000528352
0.000761971
-0.000447341
0.000653908
-0.000357774
0.0005546
-0.0002612
0.000464545
-0.000156778
0.000382312
-4.36927e-05
0.000307421
7.56968e-05
0.000241535
0.000191323
0.000185568
0.000289738
0.000355461
0.00013776
0.000736081
0.000156067
-0.000721462
0.000750545
0.000153741
0.000764839
0.000151252
0.000778952
0.000148572
0.000792871
0.000145691
0.000806584
0.0001426
0.000820078
0.000139288
0.000833342
0.000135746
0.000846362
0.000131962
0.000859126
0.000127927
0.000871621
0.000123629
0.000883834
0.000119058