/*--------------------------------*- C++ -*----------------------------------*\
| =========                 |                                                 |
| \\      /  F ield         | OpenFOAM: The Open Source CFD Toolbox           |
|  \\    /   O peration     | Version:  2312                                  |
|   \\  /    A nd           | Website:  www.openfoam.com                      |
|    \\/     M anipulation  |                                                 |
\*---------------------------------------------------------------------------*/
FoamFile
{
    version     2.0;
    format      ascii;
    arch        "LSB;label=32;scalar=64";
    class       volVectorField;
    location    "2000";
    object      U;
}
// * * * * * * * * * * * * * * * * * * * * * * * * * * * * * * * * * * * * * //

dimensions      [0 1 -1 0 0 0 0];

internalField   nonuniform List<vector> 
76025
(
(0.0342091 -0.0040292 0)
(0.0343293 -0.00415328 1.24952e-21)
(0.0344603 -0.00427549 0)
(0.0345971 -0.00439652 0)
(0.0347245 -0.00451164 -2.33553e-21)
(0.0348576 -0.00463008 -4.53402e-21)
(0.0349843 -0.00474301 7.84783e-21)
(0.0351146 -0.00485368 -3.33139e-21)
(0.0352472 -0.00496335 -1.08266e-21)
(0.0353857 -0.00506953 1.06007e-21)
(0.0355224 -0.00517354 -8.70282e-24)
(0.0356608 -0.005274 2.98677e-21)
(0.0358001 -0.0053749 -3.99472e-21)
(0.0359427 -0.00546921 0)
(0.0360971 -0.00556444 9.52471e-22)
(0.0362454 -0.00565787 0)
(0.0364008 -0.00574672 0)
(0.0365548 -0.00583766 0)
(0.0367109 -0.00592455 8.7632e-22)
(0.0368647 -0.00601431 -8.58293e-22)
(0.0370225 -0.00609688 -8.40399e-22)
(0.0371882 -0.00617777 -2.4537e-21)
(0.0373568 -0.00625281 1.6342e-21)
(0.0375285 -0.00632731 2.35558e-21)
(0.0377013 -0.00640201 -3.67828e-23)
(0.0378709 -0.00647806 7.2582e-22)
(0.038048 -0.00654389 -2.24618e-21)
(0.0382191 -0.00661078 2.24383e-21)
(0.0383886 -0.00667746 -7.35397e-22)
(0.0385635 -0.00672862 7.29204e-22)
(0.0387271 -0.00678803 7.16999e-22)
(0.0388767 -0.00685367 -1.38887e-21)
(0.0390225 -0.00689837 2.07756e-21)
(0.0391605 -0.00695563 3.22547e-22)
(0.0392944 -0.00700298 -1.59392e-21)
(0.0394207 -0.00705964 6.16788e-24)
(0.0395417 -0.00711945 3.00023e-22)
(0.0396526 -0.00716555 -1.40349e-22)
(0.0397531 -0.00721319 4.52107e-24)
(0.0398511 -0.00726005 2.01959e-22)
(0.0399461 -0.00731377 -1.3118e-22)
(0.0400397 -0.00737694 6.50138e-23)
(0.0401295 -0.00743683 -1.27646e-22)
(0.0402185 -0.00750252 2.51957e-22)
(0.0403143 -0.00757072 2.44111e-22)
(0.0404164 -0.00765524 -4.96076e-22)
(0.0405166 -0.00774759 -4.82799e-22)
(0.0406092 -0.00784052 1.43271e-21)
(0.0407001 -0.00794192 -9.90332e-22)
(0.0407852 -0.00805585 -3.49272e-23)
(0.0408597 -0.00818128 2.48471e-21)
(0.0409173 -0.00831902 1.0397e-21)
(0.0409528 -0.00847026 -1.02733e-21)
(0.0409686 -0.0086391 0)
(0.0409645 -0.00882112 1.15544e-21)
(0.0409517 -0.00902489 1.16685e-21)
(0.0409191 -0.00925999 -1.87952e-23)
(0.0408672 -0.00953201 1.27862e-21)
(0.0408008 -0.00986369 -1.45988e-21)
(0.0406897 -0.0102598 4.4858e-21)
(0.0405374 -0.0106961 3.1978e-21)
(0.0403772 -0.0112255 -5.70959e-23)
(0.0401363 -0.0118143 0)
(0.0397444 -0.0124623 -1.05565e-20)
(0.0392665 -0.0132958 4.64777e-21)
(0.0395355 -0.0146204 -2.3785e-21)
(0.040369 -0.0163994 5.36152e-21)
(0.0394191 -0.017318 -5.90372e-21)
(0.0351303 -0.0167529 -1.25772e-20)
(0.0340275 -0.0042762 1.33167e-21)
(0.0341513 -0.00440329 3.86022e-21)
(0.0342811 -0.00452861 -5.10667e-21)
(0.0344171 -0.00465038 0)
(0.0345558 -0.00477076 6.03631e-21)
(0.034699 -0.00488812 -7.43656e-23)
(0.0348429 -0.00500374 -4.70121e-21)
(0.0349849 -0.00511705 0)
(0.0351276 -0.00522751 -1.4593e-23)
(0.0352719 -0.00533586 -1.08618e-21)
(0.035419 -0.00544138 1.06302e-21)
(0.0355668 -0.0055436 -1.0914e-23)
(0.0357144 -0.00564377 0)
(0.0358619 -0.00574126 0)
(0.0360121 -0.00583409 1.92156e-21)
(0.0361643 -0.00592722 -4.83957e-21)
(0.0363202 -0.00601533 -9.39698e-22)
(0.0364768 -0.00610353 2.73419e-21)
(0.0366352 -0.00618659 -1.81777e-21)
(0.0367929 -0.00626983 8.78286e-22)
(0.0369531 -0.00634908 -8.39551e-22)
(0.0371135 -0.00642584 1.70568e-21)
(0.0372743 -0.0064997 -1.62995e-21)
(0.0374357 -0.00657111 2.42553e-21)
(0.0375984 -0.00663991 -1.60665e-21)
(0.0377621 -0.00670757 -2.31774e-21)
(0.0379252 -0.00677096 1.54872e-21)
(0.038087 -0.00683304 0)
(0.0382478 -0.00689288 0)
(0.0384061 -0.00695038 7.21075e-22)
(0.0385599 -0.00700761 0)
(0.0387115 -0.00706103 7.01961e-22)
(0.0388588 -0.00711183 -6.86203e-22)
(0.0390032 -0.00716082 1.00038e-21)
(0.0391459 -0.00720876 8.68171e-24)
(0.0392865 -0.00725584 3.0965e-22)
(0.0394241 -0.0073029 0)
(0.0395546 -0.00735229 5.62919e-22)
(0.0396798 -0.00740098 -4.08891e-22)
(0.0398034 -0.00745114 3.34086e-22)
(0.0399261 -0.00750385 -1.9391e-22)
(0.040047 -0.00755941 5.58878e-24)
(0.0401632 -0.00761879 -6.53716e-23)
(0.040276 -0.00767806 6.04867e-23)
(0.0403877 -0.00774143 -4.72508e-22)
(0.040497 -0.00780928 2.32714e-22)
(0.0406001 -0.00788466 2.24848e-22)
(0.0406937 -0.00796402 -4.80118e-22)
(0.040779 -0.00805019 -1.42801e-21)
(0.0408541 -0.00814506 -1.54953e-23)
(0.0409157 -0.00824967 -1.47381e-21)
(0.0409604 -0.00836606 5.12054e-22)
(0.040986 -0.0084951 1.60425e-21)
(0.0409921 -0.00863733 -1.04623e-21)
(0.04098 -0.00879673 0)
(0.0409495 -0.00897864 -3.56009e-21)
(0.0408988 -0.0091897 -8.34042e-23)
(0.040824 -0.00943424 1.27403e-21)
(0.0407215 -0.00972106 1.38048e-21)
(0.0405878 -0.0100639 0)
(0.040418 -0.0104672 -1.58731e-21)
(0.0401932 -0.0109331 -5.27208e-21)
(0.0398474 -0.0114363 0)
(0.0393283 -0.0120046 4.3078e-21)
(0.0389075 -0.0128614 -2.42666e-21)
(0.0393884 -0.0142949 5.17986e-21)
(0.0401372 -0.0158764 -2.65806e-21)
(0.0383735 -0.0161102 6.1594e-21)
(0.0334566 -0.0151629 6.70359e-21)
(0.0338436 -0.0045365 -6.82489e-21)
(0.0339757 -0.00466802 4.07496e-21)
(0.0341105 -0.00479727 -1.33155e-21)
(0.0342471 -0.00492178 5.13073e-21)
(0.0343881 -0.00504357 -6.37244e-21)
(0.0345338 -0.00516275 -4.90751e-21)
(0.034684 -0.00527957 6.09773e-21)
(0.0348371 -0.0053936 0)
(0.0349918 -0.00550484 -1.32961e-23)
(0.0351472 -0.00561342 0)
(0.0353034 -0.00571929 -1.10842e-21)
(0.0354604 -0.00582214 1.0735e-21)
(0.0356182 -0.00592179 5.22944e-21)
(0.0357765 -0.00601861 -4.16414e-21)
(0.0359351 -0.00611196 1.00338e-21)
(0.0360949 -0.00620245 2.92393e-21)
(0.0362557 -0.00628982 -9.84017e-22)
(0.0364176 -0.00637426 -9.37157e-22)
(0.0365805 -0.0064556 -2.7236e-21)
(0.0367445 -0.00653361 1.81245e-21)
(0.0369088 -0.0066088 8.71411e-22)
(0.0370727 -0.0066812 -1.68693e-21)
(0.0372367 -0.00675066 8.62248e-22)
(0.0374007 -0.00681706 8.12675e-22)
(0.0375648 -0.00688065 0)
(0.0377286 -0.00694151 -7.77542e-22)
(0.0378912 -0.00699992 -7.54211e-22)
(0.038053 -0.00705535 7.82367e-22)
(0.0382141 -0.00710786 0)
(0.0383736 -0.00715803 -1.45337e-21)
(0.0385317 -0.00720506 7.06917e-22)
(0.0386876 -0.00724818 -1.83675e-23)
(0.0388408 -0.00728983 0)
(0.0389916 -0.0073304 -3.31762e-22)
(0.0391402 -0.00737064 9.35493e-22)
(0.0392861 -0.00741108 -6.06135e-22)
(0.0394285 -0.00745308 0)
(0.0395668 -0.00749645 -4.14755e-22)
(0.0397018 -0.00753925 3.99485e-22)
(0.0398344 -0.00758244 6.58681e-23)
(0.0399643 -0.0076269 0)
(0.0400905 -0.00767378 1.2173e-22)
(0.0402123 -0.00772314 5.94995e-23)
(0.0403295 -0.00777386 -6.17998e-23)
(0.0404423 -0.00782759 3.51586e-22)
(0.0405495 -0.00788553 2.21893e-22)
(0.0406492 -0.00794909 -4.6629e-22)
(0.0407392 -0.00801694 4.60415e-22)
(0.0408184 -0.00808964 -4.48109e-22)
(0.040885 -0.00816856 4.58619e-22)
(0.0409369 -0.00825523 4.86001e-22)
(0.0409721 -0.00835126 -9.44155e-22)
(0.0409893 -0.00845794 0)
(0.040988 -0.00857731 -1.01425e-21)
(0.0409674 -0.00871242 6.4709e-23)
(0.0409259 -0.00886697 1.17827e-21)
(0.0408597 -0.00904616 1.2615e-21)
(0.0407639 -0.00925546 -2.59762e-21)
(0.040636 -0.00950445 -7.75054e-23)
(0.0404728 -0.00980269 -1.46175e-21)
(0.0402601 -0.0101503 3.17747e-21)
(0.0399578 -0.0105409 1.6138e-21)
(0.0394991 -0.0109634 -1.90425e-22)
(0.0389035 -0.0114915 2.06094e-21)
(0.0386547 -0.0124096 2.27925e-21)
(0.0393891 -0.0138509 7.65292e-21)
(0.0396731 -0.0150538 0)
(0.0369437 -0.0147657 3.43762e-21)
(0.0314019 -0.0135828 -3.32222e-21)
(0.0336311 -0.00480808 0)
(0.0337818 -0.00494349 1.39335e-21)
(0.0339323 -0.00507657 6.81448e-21)
(0.0340808 -0.0052046 -5.41344e-21)
(0.0342297 -0.00532874 -3.90327e-21)
(0.0343811 -0.00544988 6.46545e-21)
(0.034536 -0.00556797 -1.24454e-21)
(0.0346945 -0.00568275 1.2296e-21)
(0.0348559 -0.00579421 1.18734e-21)
(0.0350196 -0.00590248 4.61258e-21)
(0.0351849 -0.0060076 -4.60398e-21)
(0.0353515 -0.00610951 -4.3895e-21)
(0.0355195 -0.00620803 1.15768e-21)
(0.0356884 -0.00630317 4.22258e-21)
(0.0358581 -0.00639491 -3.11411e-21)
(0.0360281 -0.00648327 1.00423e-21)
(0.0361983 -0.00656835 -9.78513e-22)
(0.0363686 -0.00665004 -9.53436e-22)
(0.0365391 -0.00672843 2.7699e-21)
(0.0367097 -0.00680343 -9.35123e-22)
(0.0368803 -0.00687516 -8.88356e-22)
(0.0370508 -0.00694355 0)
(0.0372211 -0.0070086 -1.65371e-21)
(0.0373912 -0.00707037 8.42393e-22)
(0.0375606 -0.00712905 1.58494e-21)
(0.0377292 -0.00718472 1.52437e-21)
(0.0378969 -0.00723738 -3.0961e-21)
(0.0380636 -0.00728691 1.5033e-21)
(0.0382289 -0.0073335 0)
(0.0383927 -0.00737732 1.44445e-21)
(0.0385547 -0.00741833 -1.9194e-23)
(0.0387142 -0.00745592 -1.4173e-21)
(0.0388714 -0.00749298 6.61769e-22)
(0.0390262 -0.00752965 -1.5945e-21)
(0.0391785 -0.00756579 3.20257e-22)
(0.0393282 -0.00760176 0)
(0.0394751 -0.0076377 0)
(0.039619 -0.00767348 -1.30888e-22)
(0.0397597 -0.00770893 -1.3209e-22)
(0.0398969 -0.00774462 -6.06254e-23)
(0.0400305 -0.00778128 1.83243e-24)
(0.0401599 -0.00781935 -6.02203e-23)
(0.0402846 -0.00785897 0)
(0.0404038 -0.00790008 -6.78817e-24)
(0.0405167 -0.00794333 0)
(0.0406224 -0.00798914 -2.33981e-22)
(0.0407192 -0.00803789 -2.82629e-24)
(0.0408053 -0.00808951 6.37042e-22)
(0.0408791 -0.00814466 0)
(0.0409396 -0.00820453 4.52936e-22)
(0.0409856 -0.00827057 -4.4708e-22)
(0.0410161 -0.00834432 9.6164e-22)
(0.0410299 -0.00842734 0)
(0.0410255 -0.00852138 3.03747e-21)
(0.0410004 -0.00862859 5.95852e-23)
(0.0409509 -0.00875172 -1.06444e-21)
(0.0408722 -0.00889486 -1.13931e-21)
(0.0407603 -0.00906382 0)
(0.0406129 -0.00926661 0)
(0.040423 -0.00950909 1.49832e-21)
(0.0401624 -0.0097875 -3.26305e-21)
(0.0397721 -0.0100893 -3.58126e-21)
(0.0392066 -0.0104236 0)
(0.0386279 -0.0109361 4.18429e-21)
(0.0386856 -0.011919 0)
(0.039557 -0.0132761 -8.13231e-21)
(0.0391315 -0.0140032 2.76669e-21)
(0.0353655 -0.0131797 3.54402e-21)
(0.0292907 -0.0117637 3.77858e-21)
(0.0333892 -0.00509451 0)
(0.0335564 -0.00523269 0)
(0.0337255 -0.00536876 1.44157e-21)
(0.0338924 -0.00549977 -5.53554e-21)
(0.0340579 -0.00562656 6.86908e-21)
(0.0342236 -0.00575 -1.32041e-21)
(0.0343901 -0.00586993 0)
(0.0345577 -0.00598607 -1.25672e-21)
(0.0347269 -0.00609831 0)
(0.0348981 -0.00620668 -2.37551e-21)
(0.0350711 -0.00631129 4.32406e-23)
(0.0352459 -0.0064122 2.30607e-21)
(0.0354222 -0.00650942 0)
(0.0355998 -0.00660297 -2.13637e-21)
(0.0357783 -0.00669284 6.31757e-21)
(0.0359575 -0.00677908 -4.10042e-21)
(0.036137 -0.0068617 4.99036e-21)
(0.0363166 -0.00694069 -9.96951e-22)
(0.036496 -0.00701606 9.4297e-22)
(0.0366752 -0.00708783 -9.23026e-22)
(0.036854 -0.00715598 -8.74277e-22)
(0.0370325 -0.00722052 2.63831e-21)
(0.0372103 -0.0072815 1.69786e-21)
(0.0373874 -0.00733899 0)
(0.0375636 -0.00739305 -1.58774e-21)
(0.0377388 -0.00744378 -7.43216e-22)
(0.0379128 -0.00749121 2.33319e-21)
(0.0380853 -0.00753542 -7.57005e-22)
(0.0382561 -0.00757646 1.44034e-21)
(0.0384251 -0.00761453 -2.18045e-21)
(0.0385921 -0.00764938 6.88974e-22)
(0.0387567 -0.00768059 -3.37082e-22)
(0.0389189 -0.00771143 0)
(0.0390786 -0.00774126 3.17386e-22)
(0.0392357 -0.00776994 3.02653e-22)
(0.0393901 -0.00779773 0)
(0.0395414 -0.00782489 -2.62534e-22)
(0.0396895 -0.0078517 3.87887e-22)
(0.0398338 -0.00787839 -2.50949e-22)
(0.0399741 -0.00790524 1.19175e-22)
(0.0401101 -0.00793257 1.62559e-24)
(0.0402413 -0.00796058 8.17767e-23)
(0.0403668 -0.00798939 -2.7381e-23)
(0.0404859 -0.00801901 -1.10211e-22)
(0.0405977 -0.00804958 8.74069e-24)
(0.0407009 -0.00808133 -6.20066e-22)
(0.0407944 -0.00811465 0)
(0.0408771 -0.00815001 -4.27535e-22)
(0.0409481 -0.00818807 -2.36082e-23)
(0.0410068 -0.0082298 4.15188e-22)
(0.0410524 -0.00827628 0)
(0.0410837 -0.00832862 4.51786e-22)
(0.0410989 -0.0083878 -4.46663e-22)
(0.0410949 -0.00845484 -9.87664e-22)
(0.0410678 -0.00853106 0)
(0.0410127 -0.00861863 2.18784e-21)
(0.0409254 -0.00872151 -2.25221e-21)
(0.0408034 -0.00884559 2.41208e-21)
(0.0406426 -0.00899664 -2.17533e-24)
(0.0404248 -0.0091741 0)
(0.0401018 -0.00936717 1.61926e-21)
(0.0396139 -0.00956868 -1.77791e-21)
(0.0389898 -0.00983256 -1.83391e-21)
(0.0385813 -0.0103701 -4.29463e-21)
(0.0390296 -0.0113952 6.96627e-21)
(0.0397883 -0.0125247 -5.23448e-21)
(0.0383657 -0.0126715 2.76991e-21)
(0.0335672 -0.011365 -3.10671e-21)
(0.0270601 -0.00979447 -1.12772e-20)
(0.0331418 -0.00540037 -6.19347e-21)
(0.0333157 -0.00554057 1.0446e-22)
(0.0334956 -0.00567867 6.03032e-21)
(0.0336764 -0.00581166 0)
(0.033858 -0.00594039 -1.40487e-21)
(0.0340406 -0.00606568 0)
(0.0342236 -0.00618732 2.65655e-21)
(0.0344066 -0.0063049 -5.58329e-23)
(0.0345896 -0.00641819 -3.84909e-21)
(0.0347729 -0.00652714 1.24255e-21)
(0.0349568 -0.00663181 1.19979e-21)
(0.0351416 -0.00673223 1.17424e-21)
(0.0353272 -0.00682846 0)
(0.0355137 -0.00692054 0)
(0.0357009 -0.00700851 -1.07558e-21)
(0.0358887 -0.00709239 -1.0461e-21)
(0.0360769 -0.00717224 2.00409e-21)
(0.0362652 -0.00724806 -2.00375e-21)
(0.0364535 -0.0073199 -1.91714e-21)
(0.0366416 -0.00738777 1.83485e-21)
(0.0368291 -0.00745171 -3.62961e-21)
(0.037016 -0.00751177 4.49312e-23)
(0.037202 -0.00756798 1.72259e-21)
(0.037387 -0.00762041 8.21374e-22)
(0.0375709 -0.00766911 1.58544e-21)
(0.0377534 -0.00771415 -1.59485e-21)
(0.0379343 -0.00775561 -1.49901e-21)
(0.0381135 -0.00779353 1.51074e-21)
(0.0382908 -0.00782792 0)
(0.0384661 -0.00785897 0)
(0.0386392 -0.00788625 -1.71482e-21)
(0.0388096 -0.00791002 3.71039e-23)
(0.0389773 -0.00793349 6.45888e-22)
(0.039142 -0.00795569 5.9179e-22)
(0.0393037 -0.00797666 -5.81023e-22)
(0.0394622 -0.00799666 0)
(0.0396173 -0.00801594 2.6562e-22)
(0.0397686 -0.00803468 3.62263e-22)
(0.0399158 -0.00805299 -2.39081e-22)
(0.0400584 -0.00807095 -4.0895e-24)
(0.0401961 -0.00808865 1.69553e-23)
(0.0403283 -0.00810615 -8.1271e-23)
(0.040454 -0.00812348 -4.88943e-23)
(0.0405727 -0.00814068 -9.96452e-23)
(0.0406836 -0.00815792 4.98324e-22)
(0.0407859 -0.00817549 8.5473e-24)
(0.040879 -0.00819384 0)
(0.0409626 -0.00821343 3.63395e-22)
(0.041036 -0.00823482 -1.15971e-21)
(0.0410985 -0.00825856 7.5584e-22)
(0.0411491 -0.00828517 4.06995e-22)
(0.0411857 -0.00831504 -1.41278e-23)
(0.0412052 -0.00834843 4.70591e-22)
(0.0412037 -0.00838571 4.9532e-23)
(0.0411767 -0.00842774 -9.0477e-22)
(0.0411199 -0.00847667 9.33266e-22)
(0.0410308 -0.00853644 1.09201e-21)
(0.0409064 -0.00861152 -2.26071e-21)
(0.0407347 -0.00870241 -1.01079e-22)
(0.0404786 -0.00880033 -1.3919e-21)
(0.0400783 -0.00889321 1.39377e-21)
(0.0395123 -0.00899693 -1.68037e-21)
(0.0389444 -0.00922667 3.72475e-21)
(0.0388874 -0.00981668 2.11722e-21)
(0.0396779 -0.010804 -4.24991e-21)
(0.0399424 -0.0115319 2.52249e-21)
(0.0372957 -0.0110421 8.91181e-21)
(0.0315409 -0.00932035 3.85042e-21)
(0.0246822 -0.00766454 0)
(0.0329071 -0.00572877 0)
(0.0330834 -0.00587059 -1.60431e-21)
(0.0332672 -0.00600998 2.48959e-23)
(0.0334543 -0.00614396 0)
(0.0336448 -0.0062735 0)
(0.0338388 -0.0063995 -1.43854e-21)
(0.0340353 -0.00652178 4.14709e-21)
(0.0342331 -0.00663989 -5.40363e-21)
(0.0344315 -0.00675354 2.64452e-21)
(0.03463 -0.00686262 -1.27039e-21)
(0.0348285 -0.00696709 0)
(0.035027 -0.00706694 -1.19983e-21)
(0.0352256 -0.00716216 1.16886e-21)
(0.0354241 -0.00725275 0)
(0.0356226 -0.00733873 0)
(0.0358211 -0.00742012 -1.0365e-21)
(0.0360195 -0.00749699 6.26129e-23)
(0.0362176 -0.00756938 2.03492e-21)
(0.0364153 -0.00763735 1.91929e-21)
(0.0366125 -0.00770096 -1.9126e-21)
(0.036809 -0.00776028 -9.16875e-22)
(0.0370045 -0.00781536 -3.50042e-21)
(0.0371989 -0.00786628 3.18849e-23)
(0.0373921 -0.00791312 7.91388e-22)
(0.0375837 -0.00795593 -1.63607e-21)
(0.0377737 -0.0079948 7.61404e-22)
(0.0379618 -0.00802981 -1.53871e-21)
(0.0381479 -0.008061 0)
(0.0383318 -0.00808845 0)
(0.0385133 -0.00811233 0)
(0.0386922 -0.00813206 3.43053e-22)
(0.0388679 -0.00814895 6.50253e-22)
(0.0390406 -0.00816526 -6.23011e-22)
(0.0392101 -0.00818004 -5.66412e-22)
(0.0393762 -0.00819332 5.56303e-22)
(0.0395387 -0.00820526 0)
(0.0396973 -0.00821599 -2.40759e-22)
(0.0398517 -0.00822561 1.16193e-22)
(0.0400014 -0.00823418 0)
(0.0401461 -0.00824175 -1.05654e-22)
(0.0402852 -0.00824839 1.91883e-23)
(0.0404183 -0.00825418 -1.23667e-23)
(0.0405449 -0.00825923 4.95783e-23)
(0.0406647 -0.00826369 0)
(0.0407772 -0.00826778 1.79619e-22)
(0.0408824 -0.00827179 -1.77054e-22)
(0.0409799 -0.00827601 0)
(0.0410693 -0.00828066 -1.6659e-23)
(0.04115 -0.00828588 2.33178e-23)
(0.0412207 -0.00829163 -3.75923e-22)
(0.0412794 -0.00829775 0)
(0.0413233 -0.00830391 -4.69307e-23)
(0.0413489 -0.0083098 4.08797e-22)
(0.041352 -0.00831536 1.20642e-21)
(0.0413291 -0.0083214 -3.23689e-23)
(0.0412775 -0.00833012 -9.50324e-22)
(0.0411952 -0.00834449 0)
(0.0410735 -0.00836481 0)
(0.0408841 -0.00838355 -1.04122e-21)
(0.0405731 -0.00838646 0)
(0.0400976 -0.00837337 0)
(0.039532 -0.00840384 -1.80794e-22)
(0.039208 -0.008648 1.56201e-21)
(0.039636 -0.00928024 3.66697e-21)
(0.0405133 -0.0100834 -3.86379e-21)
(0.0398292 -0.0102364 -4.13216e-22)
(0.0358417 -0.00911685 -2.81554e-21)
(0.0292775 -0.00707509 -3.22563e-21)
(0.0221919 -0.00540034 0)
(0.0326834 -0.00608173 0)
(0.0328657 -0.00622519 1.64172e-21)
(0.0330543 -0.00636569 -4.78802e-21)
(0.0332458 -0.00650021 1.58644e-21)
(0.0334411 -0.00662982 0)
(0.0336412 -0.00675555 4.40049e-21)
(0.0338454 -0.00687731 -7.18165e-21)
(0.0340528 -0.00699469 6.7036e-23)
(0.0342622 -0.00710743 6.7648e-21)
(0.0344731 -0.00721543 -1.34301e-21)
(0.0346849 -0.00731862 1.27631e-21)
(0.0348972 -0.00741696 1.23593e-21)
(0.0351095 -0.00751041 -3.55182e-21)
(0.0353217 -0.00759892 4.6319e-21)
(0.0355335 -0.00768247 -2.27605e-21)
(0.0357448 -0.00776106 1.04895e-21)
(0.0359554 -0.00783472 -4.19732e-21)
(0.0361651 -0.0079035 1.05364e-21)
(0.0363739 -0.00796746 -9.42648e-22)
(0.0365816 -0.00802666 1.00782e-21)
(0.0367881 -0.00808119 6.63785e-23)
(0.0369932 -0.00813112 5.30818e-21)
(0.0371967 -0.00817654 7.9818e-22)
(0.0373985 -0.00821754 -6.41608e-23)
(0.0375984 -0.0082542 -2.412e-21)
(0.0377962 -0.00828661 7.81432e-22)
(0.0379918 -0.00831486 -1.45848e-21)
(0.0381849 -0.008339 2.1735e-21)
(0.0383754 -0.00835918 0)
(0.0385633 -0.00837545 6.59333e-22)
(0.0387479 -0.00838719 -6.66245e-22)
(0.0389291 -0.00839665 1.75473e-23)
(0.0391069 -0.00840491 2.81965e-22)
(0.0392811 -0.00841122 2.64358e-22)
(0.0394514 -0.00841567 -7.53086e-22)
(0.0396177 -0.00841838 4.96454e-22)
(0.0397796 -0.0084195 -3.34099e-22)
(0.0399368 -0.00841913 4.33601e-22)
(0.040089 -0.00841738 -2.09161e-22)
(0.0402359 -0.00841433 5.11811e-23)
(0.0403774 -0.00841009 0)
(0.0405133 -0.00840478 -4.40359e-23)
(0.0406435 -0.00839854 4.33706e-23)
(0.040768 -0.00839151 8.23442e-23)
(0.0408866 -0.00838381 -2.41847e-22)
(0.0409992 -0.00837551 1.46514e-22)
(0.0411055 -0.00836656 1.55725e-22)
(0.0412047 -0.00835676 0)
(0.0412955 -0.0083457 5.98723e-22)
(0.0413761 -0.00833282 -6.28409e-22)
(0.0414441 -0.00831738 3.47801e-22)
(0.0414966 -0.00829859 -3.3931e-22)
(0.0415303 -0.00827579 -2.94359e-22)
(0.0415422 -0.00824885 -7.28115e-22)
(0.0415303 -0.00821864 -8.04034e-22)
(0.0414931 -0.00818664 0)
(0.0414242 -0.00815235 7.73335e-22)
(0.0413011 -0.00810861 0)
(0.0410774 -0.00804034 2.93489e-23)
(0.0407034 -0.00793843 1.1811e-21)
(0.0402064 -0.00783406 -1.13507e-21)
(0.0398069 -0.00784056 -1.40931e-21)
(0.0399447 -0.00813504 1.3195e-21)
(0.0408149 -0.00872826 2.21647e-23)
(0.0412898 -0.0091433 2.4458e-22)
(0.0392368 -0.00860193 -6.7696e-21)
(0.0339489 -0.00692961 -2.56079e-21)
(0.0267833 -0.00467895 -3.59958e-21)
(0.0195953 -0.00303561 3.67399e-21)
(0.0324592 -0.00646078 0)
(0.032653 -0.0066062 0)
(0.0328518 -0.00674805 -3.312e-21)
(0.0330518 -0.00688323 4.89958e-21)
(0.0332544 -0.00701286 1.58903e-21)
(0.0334611 -0.00713806 0)
(0.0336717 -0.00725877 0)
(0.0338857 -0.00737464 -1.44584e-21)
(0.0341025 -0.0074855 2.75292e-21)
(0.0343217 -0.00759126 -6.60912e-23)
(0.0345428 -0.00769193 -6.53376e-21)
(0.0347652 -0.0077875 1.30346e-21)
(0.0349885 -0.00787793 -1.18622e-21)
(0.0352123 -0.00796318 2.40077e-21)
(0.035436 -0.00804322 -1.1387e-21)
(0.0356593 -0.00811804 0)
(0.035882 -0.00818763 0)
(0.0361036 -0.00825205 3.50524e-23)
(0.0363239 -0.00831132 2.99595e-21)
(0.0365429 -0.00836551 -9.5995e-22)
(0.0367601 -0.00841469 9.08356e-22)
(0.0369756 -0.00845893 -8.93054e-22)
(0.037189 -0.00849833 -8.28271e-22)
(0.0374002 -0.00853297 8.67122e-22)
(0.037609 -0.00856295 8.00218e-22)
(0.0378153 -0.00858837 0)
(0.0380189 -0.00860932 0)
(0.0382195 -0.00862586 -1.05985e-21)
(0.0384172 -0.00863818 0)
(0.0386116 -0.00864614 -6.36073e-22)
(0.0388024 -0.00864934 6.42438e-22)
(0.0389893 -0.00865083 3.03725e-22)
(0.0391724 -0.00865043 -2.84882e-22)
(0.0393514 -0.00864781 -5.13778e-22)
(0.0395262 -0.00864311 2.50662e-22)
(0.0396967 -0.0086365 2.20054e-22)
(0.0398626 -0.00862811 -2.05568e-22)
(0.0400239 -0.0086181 0)
(0.0401804 -0.00860657 0)
(0.0403322 -0.00859366 -4.09908e-23)
(0.0404792 -0.00857948 0)
(0.0406217 -0.00856412 0)
(0.0407595 -0.00854764 1.09147e-22)
(0.0408926 -0.00853005 -1.39539e-22)
(0.0410209 -0.00851123 6.35212e-23)
(0.041144 -0.00849093 -1.47962e-22)
(0.041261 -0.00846873 0)
(0.0413709 -0.00844402 -3.8408e-22)
(0.0414722 -0.00841601 -2.6624e-23)
(0.041563 -0.00838374 0)
(0.0416412 -0.00834614 5.37512e-22)
(0.0417043 -0.00830215 -3.70877e-23)
(0.0417503 -0.00825105 5.96676e-22)
(0.0417781 -0.00819274 2.66071e-22)
(0.0417867 -0.00812744 6.51762e-22)
(0.0417709 -0.00805362 -6.46965e-22)
(0.0417128 -0.0079639 -7.85919e-22)
(0.0415721 -0.00784283 0)
(0.0413 -0.0076761 8.69426e-22)
(0.0408995 -0.00747822 1.32262e-22)
(0.0405262 -0.00732751 0)
(0.0405356 -0.00736925 0)
(0.041256 -0.00769559 -1.31878e-21)
(0.0422165 -0.00807795 0)
(0.0416448 -0.00788919 0)
(0.0379727 -0.00663888 1.73412e-21)
(0.0315852 -0.00454676 2.67726e-21)
(0.0240691 -0.00220602 2.94021e-21)
(0.0169633 -0.00063879 0)
(0.0322259 -0.00686709 0)
(0.0324347 -0.00701469 0)
(0.0326479 -0.0071582 0)
(0.0328614 -0.00729436 1.69692e-21)
(0.0330763 -0.00742429 1.6057e-21)
(0.033294 -0.00754915 -7.86424e-23)
(0.0335145 -0.00766888 -3.1059e-21)
(0.0337375 -0.00778316 1.47724e-21)
(0.0339628 -0.00789183 -1.43841e-21)
(0.03419 -0.00799486 -2.77226e-21)
(0.0344192 -0.00809229 0)
(0.0346498 -0.00818418 0)
(0.0348817 -0.00827054 -3.90959e-23)
(0.0351145 -0.00835138 -3.64803e-21)
(0.0353476 -0.00842668 4.59748e-21)
(0.0355806 -0.00849646 -8.03218e-23)
(0.0358132 -0.00856074 -2.19018e-21)
(0.036045 -0.00861955 -1.04021e-21)
(0.0362757 -0.00867295 -1.64797e-23)
(0.0365048 -0.00872099 0)
(0.0367322 -0.00876376 -1.83165e-21)
(0.0369575 -0.00880131 0)
(0.0371805 -0.00883376 -1.68545e-21)
(0.037401 -0.00886118 2.40261e-21)
(0.0376188 -0.00888369 -2.34643e-21)
(0.0378337 -0.00890139 -7.2524e-22)
(0.0380455 -0.00891436 1.03996e-21)
(0.038254 -0.00892272 -1.01328e-21)
(0.0384591 -0.00892664 6.68945e-22)
(0.0386606 -0.00892579 0)
(0.038858 -0.00892045 5.78913e-22)
(0.0390513 -0.0089136 2.34131e-22)
(0.0392405 -0.00890442 -5.28601e-22)
(0.0394256 -0.0088929 4.75365e-22)
(0.0396065 -0.00887922 -2.14968e-22)
(0.039783 -0.00886357 2.1139e-22)
(0.0399553 -0.00884612 1.00948e-22)
(0.0401234 -0.00882701 -8.2183e-23)
(0.0402873 -0.00880638 -4.23967e-23)
(0.040447 -0.00878432 1.20624e-22)
(0.0406028 -0.00876089 8.17708e-24)
(0.0407545 -0.00873608 0)
(0.0409022 -0.00870979 -3.50506e-23)
(0.0410456 -0.00868179 6.69339e-23)
(0.0411843 -0.00865173 -6.43335e-23)
(0.0413177 -0.00861908 0)
(0.041445 -0.00858316 0)
(0.041565 -0.00854313 -9.33548e-23)
(0.0416766 -0.00849796 2.10735e-22)
(0.0417783 -0.00844646 3.94462e-22)
(0.0418688 -0.0083874 -8.55968e-22)
(0.041947 -0.00831971 1.90112e-22)
(0.0420126 -0.00824266 -2.22065e-22)
(0.0420653 -0.00815551 -2.69836e-22)
(0.0421009 -0.00805574 5.13651e-22)
(0.042104 -0.00793543 -5.10038e-22)
(0.0420401 -0.00777885 0)
(0.0418642 -0.00756887 5.06138e-22)
(0.0415693 -0.00730967 1.33713e-22)
(0.041273 -0.00705811 -6.77132e-22)
(0.0412722 -0.00693158 0)
(0.0419051 -0.00703657 0)
(0.0430309 -0.0072767 0)
(0.0433891 -0.0072032 -2.02355e-21)
(0.0411769 -0.00626566 -1.35278e-21)
(0.0359195 -0.0044078 -2.20713e-21)
(0.0287445 -0.00205616 4.38987e-21)
(0.0210908 0.000246849 -5.71088e-22)
(0.0141863 0.00157778 -3.11879e-21)
(0.0319814 -0.00730191 0)
(0.0322062 -0.00745173 3.68136e-21)
(0.0324357 -0.00759695 -4.55576e-21)
(0.0326653 -0.00773421 2.5954e-21)
(0.0328959 -0.0078646 -5.12417e-21)
(0.0331287 -0.00798931 -1.6434e-21)
(0.0333635 -0.00810827 -1.58668e-21)
(0.0335999 -0.00822112 0)
(0.0338375 -0.00832769 2.94511e-21)
(0.0340763 -0.00842797 2.79402e-21)
(0.0343161 -0.00852204 -2.78367e-21)
(0.0345569 -0.00860997 1.31844e-21)
(0.0347985 -0.00869182 -1.22538e-21)
(0.0350405 -0.00876763 1.31267e-21)
(0.0352828 -0.00883745 4.69014e-21)
(0.0355249 -0.00890133 -8.70817e-23)
(0.0357666 -0.00895932 -8.66315e-23)
(0.0360074 -0.0090115 -2.12033e-21)
(0.0362471 -0.00905796 -1.00406e-21)
(0.0364852 -0.00909878 -1.86334e-21)
(0.0367216 -0.00913405 1.88981e-21)
(0.0369558 -0.00916388 0)
(0.0371876 -0.00918837 2.97358e-23)
(0.0374168 -0.00920763 0)
(0.0376431 -0.00922179 7.72923e-22)
(0.0378662 -0.00923097 7.38369e-22)
(0.0380861 -0.00923525 -3.52513e-22)
(0.0383024 -0.0092348 0)
(0.0385152 -0.00922976 -2.99282e-22)
(0.0387241 -0.00921962 -5.73597e-22)
(0.0389289 -0.00920582 5.71945e-22)
(0.0391295 -0.00919023 -2.67175e-22)
(0.0393262 -0.00917218 4.55661e-22)
(0.0395188 -0.00915179 -8.85632e-22)
(0.0397073 -0.00912925 2.0581e-22)
(0.0398918 -0.00910477 0)
(0.0400723 -0.0090785 7.66289e-23)
(0.0402488 -0.00905056 1.34105e-23)
(0.0404215 -0.00902104 -1.0649e-22)
(0.0405903 -0.00898995 8.26752e-23)
(0.0407553 -0.00895723 -1.71556e-23)
(0.0409164 -0.00892273 3.85323e-23)
(0.0410733 -0.00888619 -2.62692e-23)
(0.0412258 -0.00884723 0)
(0.0413734 -0.00880538 0)
(0.0415158 -0.00875998 0)
(0.0416523 -0.00871024 -6.4371e-23)
(0.0417823 -0.00865521 -6.1425e-23)
(0.0419052 -0.00859373 0)
(0.0420204 -0.00852454 -1.46952e-22)
(0.0421279 -0.00844645 -8.34016e-23)
(0.0422282 -0.00835842 -1.18528e-22)
(0.0423215 -0.00825903 0)
(0.0424044 -0.00814489 0)
(0.0424629 -0.00800742 3.59503e-22)
(0.042467 -0.0078307 -3.5719e-22)
(0.0423776 -0.00759641 0)
(0.0421863 -0.0073029 -5.1339e-22)
(0.0419914 -0.00699371 5.50542e-22)
(0.0420515 -0.00676742 3.4793e-22)
(0.0426882 -0.00672513 -5.21869e-22)
(0.0439 -0.00682752 5.0959e-22)
(0.0447996 -0.00674788 0)
(0.0437052 -0.00597883 8.74719e-22)
(0.0395875 -0.00430237 6.51684e-23)
(0.0330806 -0.00201223 2.05609e-21)
(0.0254813 0.000452223 3.41647e-21)
(0.0178906 0.00265589 -5.01898e-21)
(0.0112443 0.00373127 3.35081e-21)
(0.0317258 -0.0077672 1.00399e-21)
(0.0319672 -0.00791904 0)
(0.0322137 -0.00806579 9.28832e-22)
(0.0324605 -0.00820396 -4.47097e-21)
(0.0327082 -0.00833466 7.85146e-21)
(0.032958 -0.0084591 -1.7422e-21)
(0.0332096 -0.0085772 1.62128e-21)
(0.0334624 -0.00868858 -3.08913e-21)
(0.0337159 -0.00879305 1.56159e-21)
(0.0339698 -0.00889058 1.45235e-21)
(0.034224 -0.00898126 1.39724e-21)
(0.0344784 -0.00906516 -3.98583e-21)
(0.0347328 -0.00914237 1.34276e-21)
(0.0349871 -0.00921296 -3.66102e-21)
(0.0352409 -0.00927701 -1.09747e-21)
(0.035494 -0.00933459 9.43382e-23)
(0.0357461 -0.00938581 2.22122e-21)
(0.035997 -0.00943079 0)
(0.0362464 -0.00946966 0)
(0.036494 -0.00950253 9.31094e-22)
(0.0367396 -0.00952955 9.14288e-22)
(0.0369828 -0.00955085 1.67035e-21)
(0.0372233 -0.00956658 -8.43261e-22)
(0.0374611 -0.00957687 -1.50418e-21)
(0.0376957 -0.00958189 1.50966e-21)
(0.0379271 -0.00958176 -3.36016e-22)
(0.0381551 -0.00957662 -3.16603e-22)
(0.0383794 -0.00956669 0)
(0.0386 -0.00955194 3.04232e-22)
(0.0388167 -0.00953199 5.3289e-22)
(0.039029 -0.00950941 -3.6731e-23)
(0.0392375 -0.00948468 -4.81753e-22)
(0.0394419 -0.00945746 1.96436e-22)
(0.0396424 -0.00942795 0)
(0.0398388 -0.00939631 -7.91543e-23)
(0.0400312 -0.00936272 7.06456e-23)
(0.0402197 -0.00932729 -7.73638e-23)
(0.0404042 -0.00929009 1.25915e-22)
(0.0405847 -0.00925112 0)
(0.0407613 -0.00921032 1.07386e-23)
(0.0409338 -0.00916756 -1.12817e-23)
(0.0411023 -0.00912263 1.14737e-23)
(0.0412665 -0.00907523 -5.39201e-23)
(0.0414264 -0.00902495 9.6863e-23)
(0.0415818 -0.00897128 -6.17155e-23)
(0.0417327 -0.00891357 -5.17829e-23)
(0.0418788 -0.00885098 8.44099e-23)
(0.0420203 -0.00878247 -5.63145e-23)
(0.0421574 -0.00870693 8.9141e-23)
(0.0422908 -0.00862324 2.26699e-22)
(0.0424219 -0.00853026 3.48299e-23)
(0.0425511 -0.00842617 1.19964e-22)
(0.042675 -0.00830682 0)
(0.0427808 -0.00816299 0)
(0.0428419 -0.00797878 1.91079e-22)
(0.0428261 -0.00773602 -3.39731e-22)
(0.0427304 -0.00743082 1.99736e-22)
(0.0426459 -0.00709933 0)
(0.0428081 -0.00682841 -1.0445e-22)
(0.0435183 -0.00671126 -5.68688e-22)
(0.0448262 -0.00672862 3.66006e-22)
(0.046059 -0.00661956 5.1168e-24)
(0.0457397 -0.00592952 -2.21085e-22)
(0.0425954 -0.00436543 -2.98663e-22)
(0.0368163 -0.00211868 9.22519e-22)
(0.0295785 0.000413066 -1.60698e-21)
(0.021906 0.00288397 -1.5355e-21)
(0.0145457 0.00496615 0)
(0.00822995 0.00578965 0)
(0.0314601 -0.00826576 -1.02753e-21)
(0.0317189 -0.00841929 -4.97632e-21)
(0.031983 -0.00856718 3.92703e-21)
(0.0322475 -0.00870586 0)
(0.032513 -0.00883644 8.98192e-22)
(0.0327806 -0.00896018 3.4268e-21)
(0.03305 -0.009077 -2.5609e-21)
(0.0333205 -0.0091865 3.97345e-21)
(0.0335915 -0.00928848 -3.14584e-21)
(0.0338626 -0.00938291 0)
(0.0341335 -0.00946987 -7.15078e-22)
(0.0344041 -0.00954944 0)
(0.0346742 -0.00962172 -1.25177e-21)
(0.0349434 -0.00968679 3.81004e-21)
(0.0352115 -0.00974474 0)
(0.0354783 -0.00979569 0)
(0.0357434 -0.00983978 0)
(0.0360067 -0.00987714 1.50925e-21)
(0.0362678 -0.00990794 -2.01747e-21)
(0.0365266 -0.00993236 -9.48223e-22)
(0.0367829 -0.00995057 0)
(0.0370363 -0.00996275 0)
(0.0372866 -0.00996909 0)