/*--------------------------------*- C++ -*----------------------------------*\
| =========                 |                                                 |
| \\      /  F ield         | OpenFOAM: The Open Source CFD Toolbox           |
|  \\    /   O peration     | Version:  2312                                  |
|   \\  /    A nd           | Website:  www.openfoam.com                      |
|    \\/     M anipulation  |                                                 |
\*---------------------------------------------------------------------------*/
FoamFile
{
    version     2.0;
    format      ascii;
    arch        "LSB;label=32;scalar=64";
    class       volScalarField;
    location    "800";
    object      k;
}
// * * * * * * * * * * * * * * * * * * * * * * * * * * * * * * * * * * * * * //

dimensions      [0 2 -2 0 0 0 0];

internalField   nonuniform List<scalar> 
76025
(
4.94347e-06
4.94461e-06
4.94371e-06
4.9445e-06
4.94331e-06
4.9468e-06
4.94868e-06
4.95198e-06
4.95337e-06
4.95592e-06
4.95872e-06
4.96212e-06
4.96771e-06
4.97236e-06
4.97992e-06
4.98668e-06
4.99575e-06
5.0055e-06
5.01567e-06
5.02656e-06
5.03863e-06
5.05222e-06
5.06599e-06
5.08079e-06
5.09825e-06
5.11443e-06
5.13509e-06
5.15216e-06
5.17451e-06
5.19412e-06
5.21782e-06
5.2399e-06
5.26535e-06
5.29175e-06
5.31988e-06
5.34918e-06
5.38103e-06
5.41425e-06
5.4507e-06
5.48918e-06
5.53126e-06
5.57954e-06
5.63178e-06
5.69161e-06
5.75873e-06
5.83906e-06
5.92706e-06
6.03119e-06
6.15409e-06
6.2947e-06
6.46263e-06
6.65684e-06
6.8997e-06
7.18366e-06
7.5863e-06
8.04328e-06
8.68909e-06
9.55527e-06
1.07693e-05
1.24361e-05
1.4551e-05
1.73817e-05
2.08437e-05
2.49176e-05
2.95203e-05
3.42563e-05
3.92595e-05
4.44293e-05
4.85689e-05
5.04025e-06
5.0414e-06
5.04226e-06
5.04369e-06
5.04376e-06
5.04564e-06
5.04729e-06
5.05011e-06
5.05292e-06
5.05604e-06
5.0596e-06
5.06345e-06
5.06857e-06
5.07379e-06
5.08095e-06
5.08798e-06
5.09675e-06
5.10595e-06
5.11651e-06
5.12754e-06
5.13974e-06
5.15283e-06
5.16714e-06
5.18203e-06
5.19886e-06
5.21556e-06
5.23472e-06
5.2543e-06
5.27575e-06
5.2984e-06
5.32299e-06
5.34806e-06
5.37564e-06
5.40445e-06
5.43574e-06
5.46928e-06
5.50524e-06
5.54446e-06
5.58728e-06
5.63387e-06
5.68597e-06
5.74337e-06
5.80879e-06
5.88189e-06
5.96559e-06
6.06023e-06
6.1689e-06
6.29479e-06
6.43993e-06
6.61164e-06
6.81305e-06
7.06032e-06
7.35867e-06
7.7457e-06
8.23242e-06
8.88999e-06
9.77464e-06
1.09781e-05
1.25943e-05
1.46875e-05
1.73569e-05
2.05624e-05
2.42794e-05
2.84509e-05
3.29843e-05
3.78474e-05
4.28381e-05
4.75545e-05
5.14846e-05
5.15353e-06
5.15567e-06
5.15767e-06
5.16013e-06
5.16199e-06
5.16426e-06
5.16657e-06
5.16933e-06
5.17252e-06
5.17606e-06
5.18015e-06
5.18457e-06
5.18987e-06
5.19553e-06
5.20249e-06
5.21e-06
5.21873e-06
5.2282e-06
5.23883e-06
5.25031e-06
5.26284e-06
5.27632e-06
5.29099e-06
5.30664e-06
5.32368e-06
5.34171e-06
5.36142e-06
5.38251e-06
5.40536e-06
5.42981e-06
5.45635e-06
5.48466e-06
5.51531e-06
5.54829e-06
5.58405e-06
5.6228e-06
5.66503e-06
5.71108e-06
5.76174e-06
5.81724e-06
5.87898e-06
5.94804e-06
6.02564e-06
6.11313e-06
6.21242e-06
6.32557e-06
6.45582e-06
6.60634e-06
6.7832e-06
6.99236e-06
7.24602e-06
7.5565e-06
7.94984e-06
8.45344e-06
9.1183e-06
1.00032e-05
1.1185e-05
1.27465e-05
1.47553e-05
1.72672e-05
2.02808e-05
2.37812e-05
2.77298e-05
3.20602e-05
3.66941e-05
4.14577e-05
4.61607e-05
5.03356e-05
5.40153e-05
5.28168e-06
5.28563e-06
5.28942e-06
5.29329e-06
5.297e-06
5.30076e-06
5.30455e-06
5.30848e-06
5.31268e-06
5.31717e-06
5.32212e-06
5.32746e-06
5.33345e-06
5.33996e-06
5.34732e-06
5.35545e-06
5.36454e-06
5.37457e-06
5.38564e-06
5.39774e-06
5.41096e-06
5.42527e-06
5.44082e-06
5.45758e-06
5.47572e-06
5.49539e-06
5.51677e-06
5.53993e-06
5.56509e-06
5.59231e-06
5.62187e-06
5.65389e-06
5.68866e-06
5.72644e-06
5.76761e-06
5.81249e-06
5.86168e-06
5.91552e-06
5.97499e-06
6.04044e-06
6.11339e-06
6.1952e-06
6.28733e-06
6.39169e-06
6.51057e-06
6.64713e-06
6.80524e-06
6.99063e-06
7.21067e-06
7.47669e-06
7.8037e-06
8.215e-06
8.74169e-06
9.42868e-06
1.03328e-05
1.15224e-05
1.30688e-05
1.50329e-05
1.74534e-05
2.03372e-05
2.36679e-05
2.74077e-05
3.1504e-05
3.5884e-05
4.04373e-05
4.49917e-05
4.93174e-05
5.28767e-05
5.66388e-05
5.42619e-06
5.4321e-06
5.43798e-06
5.44383e-06
5.44966e-06
5.45549e-06
5.46133e-06
5.46724e-06
5.47328e-06
5.47953e-06
5.48609e-06
5.493e-06
5.5004e-06
5.50833e-06
5.51693e-06
5.52626e-06
5.53644e-06
5.54756e-06
5.55969e-06
5.57291e-06
5.58732e-06
5.60293e-06
5.61994e-06
5.63826e-06
5.65827e-06
5.68009e-06
5.7039e-06
5.72982e-06
5.75806e-06
5.78881e-06
5.82233e-06
5.85884e-06
5.89869e-06
5.94218e-06
5.98981e-06
6.04196e-06
6.09936e-06
6.16249e-06
6.23246e-06
6.30987e-06
6.39643e-06
6.49396e-06
6.60443e-06
6.73038e-06
6.87513e-06
7.04305e-06
7.24016e-06
7.4747e-06
7.75843e-06
8.10772e-06
8.54588e-06
9.10466e-06
9.82672e-06
1.07649e-05
1.19799e-05
1.35323e-05
1.54718e-05
1.78283e-05
2.06054e-05
2.37884e-05
2.73446e-05
3.12296e-05
3.53876e-05
3.97342e-05
4.41356e-05
4.83823e-05
5.21678e-05
5.51594e-05
5.91378e-05
5.59412e-06
5.60114e-06
5.60851e-06
5.61607e-06
5.62381e-06
5.63171e-06
5.63975e-06
5.6479e-06
5.65623e-06
5.66475e-06
5.67355e-06
5.68267e-06
5.6922e-06
5.70223e-06
5.71285e-06
5.72415e-06
5.73625e-06
5.74925e-06
5.76326e-06
5.77838e-06
5.79471e-06
5.8124e-06
5.8315e-06
5.85224e-06
5.8749e-06
5.89964e-06
5.92666e-06
5.95617e-06
5.9884e-06
6.0236e-06
6.06209e-06
6.10418e-06
6.15028e-06
6.20081e-06
6.25636e-06
6.31748e-06
6.38502e-06
6.45972e-06
6.54285e-06
6.63548e-06
6.73958e-06
6.85772e-06
6.99269e-06
7.14818e-06
7.32909e-06
7.54208e-06
7.79631e-06
8.10451e-06
8.48422e-06
8.95951e-06
9.56232e-06
1.03334e-05
1.13214e-05
1.25792e-05
1.4157e-05
1.60938e-05
1.84108e-05
2.11093e-05
2.41728e-05
2.75752e-05
3.12787e-05
3.52346e-05
3.93796e-05
4.36062e-05
4.774e-05
5.15258e-05
5.46369e-05
5.72574e-05
6.17359e-05
5.79578e-06
5.80277e-06
5.81052e-06
5.81884e-06
5.8277e-06
5.83703e-06
5.84676e-06
5.85685e-06
5.8673e-06
5.8781e-06
5.88928e-06
5.90088e-06
5.91294e-06
5.92555e-06
5.93877e-06
5.95271e-06
5.96746e-06
5.98313e-06
5.99984e-06
6.01772e-06
6.03689e-06
6.05752e-06
6.07971e-06
6.10387e-06
6.1302e-06
6.15892e-06
6.19027e-06
6.22452e-06
6.26197e-06
6.30296e-06
6.34787e-06
6.39714e-06
6.45128e-06
6.51087e-06
6.57663e-06
6.64935e-06
6.73008e-06
6.81998e-06
6.9206e-06
7.03373e-06
7.16181e-06
7.30865e-06
7.47844e-06
7.67679e-06
7.91128e-06
8.19219e-06
8.53351e-06
8.95409e-06
9.47877e-06
1.01393e-05
1.09744e-05
1.20277e-05
1.33439e-05
1.49632e-05
1.69144e-05
1.92107e-05
2.18501e-05
2.48172e-05
2.80866e-05
3.16299e-05
3.5405e-05
3.93544e-05
4.34018e-05
4.74001e-05
5.11239e-05
5.4277e-05
5.6675e-05
5.92658e-05
6.46229e-05
6.04233e-06
6.04867e-06
6.05602e-06
6.06424e-06
6.07333e-06
6.08323e-06
6.09386e-06
6.10518e-06
6.11716e-06
6.12978e-06
6.14303e-06
6.15692e-06
6.17149e-06
6.18677e-06
6.20284e-06
6.21976e-06
6.23763e-06
6.25656e-06
6.27668e-06
6.29809e-06
6.321e-06
6.34546e-06
6.37195e-06
6.40069e-06
6.43195e-06
6.46599e-06
6.50313e-06
6.5437e-06
6.58811e-06
6.6368e-06
6.69025e-06
6.74907e-06
6.81392e-06
6.8856e-06
6.96508e-06
7.0535e-06
7.15226e-06
7.26315e-06
7.38825e-06
7.53057e-06
7.69338e-06
7.88257e-06
8.10468e-06
8.36846e-06
8.68556e-06
9.07141e-06
9.54604e-06
1.01349e-05
1.08689e-05
1.17836e-05
1.2917e-05
1.43053e-05
1.59786e-05
1.79565e-05
2.02457e-05
2.28408e-05
2.57273e-05
2.88837e-05
3.22824e-05
3.58936e-05
3.96666e-05
4.35273e-05
4.73791e-05
5.10114e-05
5.41402e-05
5.64953e-05
5.83227e-05
6.12184e-05
6.82349e-05
6.34514e-06
6.35094e-06
6.35782e-06
6.36568e-06
6.37459e-06
6.38455e-06
6.39553e-06
6.4075e-06
6.42044e-06
6.43434e-06
6.4492e-06
6.46502e-06
6.48182e-06
6.49965e-06
6.51854e-06
6.53856e-06
6.55982e-06
6.58241e-06
6.60644e-06
6.63211e-06
6.65945e-06
6.68896e-06
6.72091e-06
6.75557e-06
6.79325e-06
6.83431e-06
6.87912e-06
6.92815e-06
6.9819e-06
7.04097e-06
7.10602e-06
7.17786e-06
7.25743e-06
7.34587e-06
7.44454e-06
7.55517e-06
7.67981e-06
7.82126e-06
7.98271e-06
8.169e-06
8.38511e-06
8.64006e-06
8.94406e-06
9.31025e-06
9.7554e-06
1.03005e-05
1.09706e-05
1.1795e-05
1.28047e-05
1.40311e-05
1.55016e-05
1.72371e-05
1.92488e-05
2.15384e-05
2.40986e-05
2.69153e-05
2.99707e-05
3.32413e-05
3.66982e-05
4.03062e-05
4.39974e-05
4.767e-05
5.12008e-05
5.42769e-05
5.65782e-05
5.80705e-05
5.96733e-05
6.31977e-05
7.25122e-05
6.71712e-06
6.72297e-06
6.72985e-06
6.73772e-06
6.74671e-06
6.75686e-06
6.76821e-06
6.78075e-06
6.79452e-06
6.80955e-06
6.82586e-06
6.84346e-06
6.86241e-06
6.88274e-06
6.90451e-06
6.92782e-06
6.95275e-06
6.97941e-06
7.008e-06
7.03853e-06
7.07155e-06
7.10733e-06
7.14618e-06
7.18843e-06
7.23448e-06
7.28478e-06
7.33985e-06
7.40028e-06
7.46678e-06
7.54016e-06
7.62138e-06
7.71159e-06
7.81218e-06
7.92489e-06
8.0518e-06
8.19562e-06
8.35965e-06
8.54825e-06
8.76681e-06
9.0225e-06
9.32405e-06
9.68322e-06
1.01154e-05
1.06383e-05
1.12729e-05
1.20429e-05
1.29739e-05
1.40918e-05
1.54201e-05
1.69779e-05
1.87776e-05
2.08246e-05
2.31163e-05
2.56452e-05
2.83981e-05
3.13598e-05
3.45112e-05
3.78265e-05
4.12724e-05
4.47994e-05
4.83116e-05
5.16654e-05
5.47031e-05
5.69596e-05
5.80706e-05
5.89908e-05
6.08013e-05
6.54555e-05
7.87522e-05
7.17506e-06
7.18169e-06
7.18935e-06
7.19799e-06
7.20778e-06
7.21881e-06
7.23112e-06
7.2448e-06
7.25991e-06
7.27652e-06
7.29469e-06
7.3145e-06
7.33601e-06
7.35931e-06
7.3845e-06
7.41168e-06
7.441e-06
7.47262e-06
7.50665e-06
7.54366e-06
7.58392e-06
7.62779e-06
7.67566e-06
7.72797e-06
7.78528e-06
7.84819e-06
7.91743e-06
7.99385e-06
8.07848e-06
8.17253e-06
8.27747e-06
8.39508e-06
8.52758e-06
8.67771e-06
8.84891e-06
9.04549e-06
9.27284e-06
9.53771e-06
9.84859e-06
1.02157e-05
1.06519e-05
1.11714e-05
1.17933e-05
1.25373e-05
1.34244e-05
1.44751e-05
1.57088e-05
1.71415e-05
1.87846e-05
2.06443e-05
2.27212e-05
2.50115e-05
2.75066e-05
3.01968e-05
3.30672e-05
3.6104e-05
3.92833e-05
4.25742e-05
4.59329e-05
4.92809e-05
5.24825e-05
5.53366e-05
5.76243e-05
5.81252e-05
5.84182e-05
5.94381e-05
6.18118e-05
6.85102e-05
8.72531e-05
7.74259e-06
7.75076e-06
7.76004e-06
7.77038e-06
7.78196e-06
7.79489e-06
7.80925e-06
7.82514e-06
7.84267e-06
7.86196e-06
7.88312e-06
7.90627e-06
7.93153e-06
7.95905e-06
7.98896e-06
8.02148e-06
8.05673e-06
8.0951e-06
8.13707e-06
8.18299e-06
8.23328e-06
8.28844e-06
8.34903e-06
8.41571e-06
8.48928e-06
8.57067e-06
8.66099e-06
8.76157e-06
8.87404e-06
9.00034e-06
9.14286e-06
9.30452e-06
9.48894e-06
9.70056e-06
9.94482e-06
1.02284e-05
1.05593e-05
1.09471e-05
1.1403e-05
1.19402e-05
1.25728e-05
1.33169e-05
1.41878e-05
1.52034e-05
1.63793e-05
1.77276e-05
1.92581e-05
2.09764e-05
2.28842e-05
2.49799e-05
2.72585e-05
2.97138e-05
3.23354e-05
3.51147e-05
3.80337e-05
4.10803e-05
4.42166e-05
4.74054e-05
5.05808e-05
5.361e-05
5.63105e-05
5.83419e-05
5.89036e-05
5.84847e-05
5.87531e-05
5.98297e-05
6.33652e-05
7.36189e-05
9.56731e-05
8.45432e-06
8.46478e-06
8.4766e-06
8.48971e-06
8.50427e-06
8.52043e-06
8.53829e-06
8.55795e-06
8.57959e-06
8.60337e-06
8.62944e-06
8.65798e-06
8.6892e-06
8.72331e-06
8.76055e-06
8.80119e-06
8.8459e-06
8.89507e-06
8.94917e-06
9.00878e-06
9.07455e-06
9.14724e-06
9.22777e-06
9.31722e-06
9.41685e-06
9.52821e-06
9.65314e-06
9.79383e-06
9.95295e-06
1.01337e-05
1.03399e-05
1.05762e-05
1.08481e-05
1.11622e-05
1.15261e-05
1.19485e-05
1.24394e-05
1.30098e-05
1.36715e-05
1.4437e-05
1.53186e-05
1.63283e-05
1.74767e-05
1.87732e-05
2.02242e-05
2.18349e-05
2.36095e-05
2.55466e-05
2.76435e-05
2.98962e-05
3.22984e-05
3.48442e-05
3.7522e-05
4.03242e-05
4.32247e-05
4.62134e-05
4.92193e-05
5.22092e-05
5.50607e-05
5.75512e-05
5.94336e-05
5.9971e-05
5.96308e-05
5.87627e-05
5.8896e-05
6.06369e-05
6.62134e-05
8.19407e-05
9.90299e-05
9.36245e-06
9.37626e-06
9.39186e-06
9.40918e-06
9.42841e-06
9.44972e-06
9.47322e-06
9.49909e-06
9.52754e-06
9.55879e-06
9.59308e-06
9.6307e-06
9.67191e-06
9.71716e-06
9.76716e-06
9.82238e-06
9.88344e-06
9.95101e-06
1.00259e-05
1.01091e-05
1.02017e-05
1.03049e-05
1.04204e-05
1.05499e-05
1.06956e-05
1.086e-05
1.10461e-05
1.12573e-05
1.14977e-05
1.17721e-05
1.20859e-05
1.24452e-05
1.28572e-05
1.33294e-05
1.38703e-05
1.44887e-05
1.51938e-05
1.59949e-05
1.6901e-05
1.79204e-05
1.90606e-05
2.03278e-05
2.17268e-05
2.32608e-05
2.49315e-05
2.67389e-05
2.8682e-05
3.07575e-05
3.29636e-05
3.52971e-05
3.77504e-05
4.03192e-05
4.29864e-05
4.57452e-05
4.85523e-05
5.14005e-05
5.41527e-05
5.68151e-05
5.90962e-05
6.06147e-05
6.09291e-05
6.05367e-05
5.99628e-05
5.82834e-05
5.90453e-05
6.2119e-05
7.1156e-05
8.79631e-05
0.000103852
1.05499e-05
1.05691e-05
1.05909e-05
1.06152e-05
1.06422e-05
1.06723e-05
1.07056e-05
1.07424e-05
1.07829e-05
1.08275e-05
1.08767e-05
1.09312e-05
1.09917e-05
1.10587e-05
1.11331e-05
1.12157e-05
1.13076e-05
1.141e-05
1.15242e-05
1.16519e-05
1.17949e-05
1.19553e-05
1.21355e-05
1.23384e-05
1.25672e-05
1.28253e-05
1.3117e-05
1.34466e-05
1.38193e-05
1.42404e-05
1.47158e-05
1.52517e-05
1.58547e-05
1.65311e-05
1.72877e-05
1.81307e-05
1.90664e-05
2.01e-05
2.12367e-05
2.24804e-05
2.38344e-05
2.53012e-05
2.68823e-05
2.85784e-05
3.03892e-05
3.23138e-05
3.43499e-05
3.64948e-05
3.87428e-05
4.10871e-05
4.35237e-05
4.60496e-05
4.86349e-05
5.12738e-05
5.38904e-05
5.64822e-05
5.87901e-05
6.09344e-05
6.20596e-05
6.19857e-05
6.15174e-05
6.1136e-05
5.92304e-05
5.78928e-05
5.94739e-05
6.47676e-05
7.72056e-05
8.98905e-05
0.000102714
1.2159e-05
1.21889e-05
1.22228e-05
1.22609e-05
1.23035e-05
1.2351e-05
1.24037e-05
1.24625e-05
1.25279e-05
1.26007e-05
1.26816e-05
1.27715e-05
1.28713e-05
1.29823e-05
1.31056e-05
1.32428e-05
1.33955e-05
1.35655e-05
1.37548e-05
1.39657e-05
1.42008e-05
1.44627e-05
1.47546e-05
1.50797e-05
1.54415e-05
1.58438e-05
1.62907e-05
1.67862e-05
1.73348e-05
1.79407e-05
1.86085e-05
1.93423e-05
2.01467e-05
2.10255e-05
2.19828e-05
2.30221e-05
2.41467e-05
2.53593e-05
2.66626e-05
2.80586e-05
2.95488e-05
3.11346e-05
3.28164e-05
3.45945e-05
3.64682e-05
3.8436e-05
4.04948e-05
4.26413e-05
4.48657e-05
4.71617e-05
4.95113e-05
5.19228e-05
5.43366e-05
5.67525e-05
5.90391e-05
6.11891e-05
6.27403e-05
6.35147e-05
6.30782e-05
6.27612e-05
6.16142e-05
6.03508e-05
5.7817e-05
5.7638e-05
6.0767e-05
6.95142e-05
7.90653e-05
9.09992e-05
9.89254e-05
1.44637e-05
1.45188e-05
1.45815e-05
1.46519e-05
1.47308e-05
1.48188e-05
1.49165e-05
1.50249e-05
1.51449e-05
1.52776e-05
1.54241e-05
1.55856e-05
1.57635e-05
1.59593e-05
1.61746e-05
1.64111e-05
1.66706e-05
1.69551e-05
1.72667e-05
1.76076e-05
1.798e-05
1.83865e-05
1.88295e-05
1.93115e-05
1.98352e-05
2.04032e-05
2.10184e-05
2.16834e-05
2.24009e-05
2.31737e-05
2.40044e-05
2.48959e-05
2.58507e-05
2.68714e-05
2.79605e-05
2.91206e-05
3.03537e-05
3.16621e-05
3.30476e-05
3.4512e-05
3.60566e-05
3.76822e-05
3.93893e-05
4.11772e-05
4.30452e-05
4.49891e-05
4.7005e-05
4.90874e-05
5.12164e-05
5.33916e-05
5.55684e-05
5.77756e-05
5.98872e-05
6.19111e-05
6.36689e-05
6.43784e-05
6.46099e-05
6.44976e-05
6.37005e-05
6.25438e-05
6.11541e-05
5.81126e-05
5.65699e-05
5.80729e-05
6.38464e-05
7.1171e-05
8.0253e-05
9.01312e-05
9.47929e-05
1.80916e-05
1.82075e-05
1.83361e-05
1.84777e-05
1.86331e-05
1.8803e-05
1.89882e-05
1.91895e-05
1.94078e-05
1.96442e-05
1.98995e-05
2.01748e-05
2.04713e-05
2.07899e-05
2.1132e-05
2.14987e-05
2.18912e-05
2.23108e-05
2.27587e-05
2.32364e-05
2.37453e-05
2.42866e-05
2.48621e-05
2.54731e-05
2.61213e-05
2.68085e-05
2.75364e-05
2.83068e-05
2.91219e-05
2.99837e-05
3.08944e-05
3.18563e-05
3.28719e-05
3.39436e-05
3.50738e-05
3.62649e-05
3.75192e-05
3.88388e-05
4.02256e-05
4.16811e-05
4.32064e-05
4.48016e-05
4.64662e-05
4.81976e-05
4.99944e-05
5.18459e-05
5.37501e-05
5.56926e-05
5.7635e-05
5.96023e-05
6.14734e-05
6.33436e-05
6.49324e-05
6.61938e-05
6.64409e-05
6.63591e-05
6.55768e-05
6.45473e-05
6.29234e-05
6.09719e-05
5.81214e-05
5.52205e-05
5.52906e-05
5.90747e-05
6.50997e-05
7.18395e-05
8.01172e-05
8.54577e-05
8.89289e-05
2.43667e-05
2.45708e-05
2.47916e-05
2.50284e-05
2.52814e-05
2.55507e-05
2.58366e-05
2.61391e-05
2.64586e-05
2.67953e-05
2.715e-05
2.75232e-05
2.79155e-05
2.83272e-05
2.8759e-05
2.92115e-05
2.9685e-05
3.01804e-05
3.06983e-05
3.12395e-05
3.18049e-05
3.23955e-05
3.30125e-05
3.36572e-05
3.4331e-05
3.50355e-05
3.57727e-05
3.65445e-05
3.73532e-05
3.82011e-05
3.90908e-05
4.0025e-05
4.10063e-05
4.20375e-05
4.31213e-05
4.42601e-05
4.54562e-05
4.67116e-05
4.80277e-05
4.94053e-05
5.0844e-05
5.23424e-05
5.38972e-05
5.55029e-05
5.71574e-05
5.88327e-05
6.05456e-05
6.22422e-05
6.38702e-05
6.55101e-05
6.68363e-05
6.80079e-05
6.82114e-05
6.78605e-05
6.74838e-05
6.65193e-05
6.4943e-05
6.26589e-05
6.01102e-05
5.71954e-05
5.34525e-05
5.35277e-05
5.58704e-05
5.98319e-05
6.55341e-05
7.06167e-05
7.44909e-05
7.85367e-05
8.24565e-05
3.48054e-05
3.5056e-05
3.5317e-05
3.55876e-05
3.58681e-05
3.61587e-05
3.64593e-05
3.67701e-05
3.7091e-05
3.74234e-05
3.77708e-05
3.81327e-05
3.85085e-05
3.88983e-05
3.93018e-05
3.97194e-05
4.01512e-05
4.05975e-05
4.10596e-05
4.15384e-05
4.2035e-05
4.25502e-05
4.30853e-05
4.3642e-05
4.42222e-05
4.48281e-05
4.54622e-05
4.61269e-05
4.68252e-05
4.75598e-05
4.83338e-05
4.91502e-05
5.00118e-05
5.09214e-05
5.18815e-05
5.28942e-05
5.39615e-05
5.50843e-05
5.62631e-05
5.74956e-05
5.87796e-05
6.01089e-05
6.14769e-05
6.28739e-05
6.42968e-05
6.56751e-05
6.7111e-05
6.83692e-05
6.95135e-05
7.03729e-05
7.03736e-05
6.99552e-05
6.95252e-05
6.84255e-05
6.7122e-05
6.47466e-05
6.15183e-05
5.8327e-05
5.57343e-05
5.11075e-05
5.1138e-05
5.3e-05
5.52755e-05
5.85713e-05
6.02952e-05
6.24215e-05
6.67979e-05
7.10865e-05
7.65198e-05
4.95881e-05
4.97731e-05
4.99604e-05
5.01487e-05
5.03383e-05
5.05308e-05
5.07267e-05
5.09256e-05
5.11274e-05
5.13324e-05
5.15414e-05
5.17551e-05
5.19741e-05
5.21991e-05
5.24305e-05
5.26692e-05
5.29158e-05
5.31711e-05
5.34418e-05
5.37281e-05
5.40296e-05
5.43452e-05
5.46768e-05
5.50282e-05
5.54028e-05
5.58033e-05
5.62336e-05
5.66958e-05
5.71934e-05
5.77298e-05
5.83077e-05
5.89299e-05
5.95989e-05
6.03166e-05
6.10849e-05
6.1905e-05
6.27775e-05
6.37021e-05
6.46763e-05
6.56885e-05
6.67375e-05
6.78051e-05
6.88853e-05
6.99673e-05
7.10236e-05
7.19231e-05
7.27932e-05
7.29084e-05
7.26715e-05
7.23616e-05
7.16618e-05
7.04566e-05
6.89164e-05
6.64437e-05
6.33581e-05
5.921e-05
5.53101e-05
5.27343e-05
4.88055e-05
4.78364e-05
4.85629e-05
4.896e-05
4.75318e-05
4.75135e-05
4.91823e-05
5.40127e-05
5.94838e-05
6.474e-05
7.13137e-05
6.75125e-05
6.7526e-05
6.75319e-05
6.75219e-05
6.74949e-05
6.748e-05
6.74723e-05
6.74567e-05
6.74353e-05
6.74097e-05
6.73812e-05
6.7351e-05
6.73202e-05
6.72898e-05
6.72611e-05
6.72351e-05
6.7213e-05
6.71962e-05
6.7186e-05
6.71832e-05
6.71862e-05
6.71867e-05
6.71997e-05
6.72447e-05
6.73249e-05
6.74355e-05
6.7589e-05
6.7775e-05
6.80042e-05
6.82805e-05
6.86016e-05
6.89696e-05
6.93861e-05
6.98509e-05
7.03649e-05
7.09297e-05
7.15426e-05
7.22008e-05
7.28935e-05
7.3574e-05
7.42786e-05
7.49404e-05
7.56065e-05
7.60215e-05
7.62328e-05
7.57452e-05
7.54634e-05
7.47539e-05
7.37553e-05
7.23439e-05
7.05243e-05
6.76778e-05
6.42614e-05
6.00119e-05
5.55266e-05
5.0991e-05
4.78583e-05
4.48538e-05
4.41882e-05
4.30626e-05
4.08473e-05
3.64406e-05
3.66939e-05
3.89005e-05
4.35736e-05
4.88643e-05
5.42001e-05
5.98775e-05
6.65026e-05
8.6777e-05
8.65194e-05
8.62427e-05
8.59501e-05
8.56422e-05
8.53284e-05
8.50101e-05
8.46861e-05
8.43565e-05
8.40215e-05
8.36819e-05
8.33384e-05
8.29921e-05
8.26441e-05
8.22956e-05
8.1948e-05
8.1603e-05
8.12621e-05
8.09271e-05
8.06003e-05
8.0284e-05
7.99801e-05
7.97005e-05
7.94244e-05
7.92109e-05
7.89729e-05
7.88716e-05
7.87008e-05
7.86421e-05
7.86457e-05
7.86663e-05
7.87336e-05
7.88464e-05
7.89971e-05
7.91947e-05
7.94452e-05
7.97299e-05
8.00416e-05
8.03391e-05
8.03644e-05
8.04099e-05
7.98899e-05
7.96315e-05
7.89622e-05
7.81451e-05
7.70671e-05
7.56578e-05
7.38054e-05
7.13273e-05
6.80171e-05
6.41808e-05
5.93601e-05
5.47005e-05
4.94989e-05
4.49506e-05
4.10732e-05
3.8723e-05
3.73928e-05
3.39104e-05
2.76004e-05
2.51789e-05
2.68169e-05
3.05868e-05
3.52055e-05
4.02185e-05
4.53082e-05
5.04901e-05
5.59839e-05
6.18296e-05
0.000105159
0.000104634
0.000104088
0.000103522
0.000102939
0.00010234
0.000101728
0.000101104
0.000100469
9.9824e-05
9.91714e-05
9.85119e-05
9.78469e-05
9.71776e-05
9.65058e-05
9.58338e-05
9.51636e-05
9.44973e-05
9.38366e-05
9.31871e-05
9.25569e-05
9.19459e-05
9.13558e-05
9.07864e-05
9.02447e-05
8.97286e-05
8.92533e-05
8.88098e-05
8.84093e-05
8.80534e-05
8.77387e-05
8.74651e-05
8.72146e-05
8.69592e-05
8.66698e-05
8.63148e-05
8.58697e-05
8.53184e-05
8.45885e-05
8.37573e-05
8.28185e-05
8.17134e-05
8.03538e-05
7.87526e-05
7.66441e-05
7.40134e-05
7.06794e-05
6.6796e-05
6.21543e-05
5.71839e-05
5.17599e-05
4.63997e-05
4.1157e-05
3.61317e-05
3.24485e-05
2.96895e-05
2.6513e-05
1.94889e-05
1.54834e-05
1.63048e-05
1.93112e-05
2.3624e-05
2.83173e-05
3.32176e-05
3.81087e-05
4.29625e-05
4.78193e-05
5.26872e-05
5.74316e-05
0.000120383
0.00011963
0.000118853
0.000118051
0.000117228
0.000116385
0.000115525
0.000114648
0.000113758
0.000112854
0.000111939
0.000111013
0.000110079
0.000109137
0.00010819
0.000107249
0.000106313
0.000105382
0.000104455
0.000103533
0.00010262
0.000101715
0.00010082
9.99413e-05
9.90807e-05
9.82342e-05
9.73978e-05
9.65653e-05
9.57295e-05
9.48809e-05
9.40067e-05
9.30868e-05
9.21166e-05
9.11237e-05
9.0082e-05
8.8968e-05
8.77407e-05
8.63738e-05
8.48153e-05
8.30103e-05
8.0804e-05
7.82459e-05
7.51054e-05
7.15091e-05
6.72667e-05
6.2521e-05
5.74094e-05
5.19256e-05
4.62949e-05
4.04341e-05
3.49151e-05
2.93378e-05
2.47895e-05
2.01082e-05
1.69693e-05
1.15236e-05
8.40284e-06
8.07328e-06
9.71338e-06
1.34424e-05
1.78484e-05
2.25579e-05
2.72925e-05
3.20341e-05
3.67471e-05
4.13663e-05
4.58041e-05
4.99306e-05
5.35984e-05
0.000129303
0.000128396
0.000127468
0.000126517
0.000125544
0.00012455
0.000123542
0.000122521
0.000121487
0.00012044
0.000119378
0.000118302
0.000117211
0.000116107
0.000114989
0.000113859
0.000112718
0.000111567
0.000110406
0.000109236
0.000108059
0.000106877
0.000105687
0.000104478
0.000103246
0.00010199
0.000100707
9.93877e-05
9.80231e-05
9.66e-05
9.51e-05
9.35074e-05
9.17881e-05
8.99045e-05
8.78071e-05
8.54841e-05
8.2846e-05
7.99181e-05
7.65638e-05
7.28878e-05
6.86565e-05
6.41631e-05
5.90608e-05
5.38884e-05
4.82096e-05
4.27036e-05
3.70753e-05
3.07679e-05
2.47457e-05
1.9347e-05
1.46368e-05
1.04853e-05
7.65629e-06
5.5116e-06
4.17071e-06
3.28163e-06
3.41247e-06
5.15975e-06
8.544e-06
1.27418e-05
1.71851e-05
2.1642e-05
2.61299e-05
3.07046e-05
3.53075e-05
3.97826e-05
4.3919e-05
4.75042e-05
5.03922e-05
0.000125642
0.000124773
0.000123873
0.000122943
0.000121985
0.000120999
0.000119988
0.000118951
0.000117889
0.000116804
0.000115696
0.000114563
0.000113406
0.000112225
0.000111019
0.000109788
0.00010853
0.000107246
0.000105938
0.0001046
0.000103243
0.000101833
0.000100363
9.88264e-05
9.72179e-05
9.55104e-05
9.36636e-05
9.16517e-05
8.9446e-05
8.70231e-05
8.4359e-05
8.1441e-05
7.82568e-05
7.4819e-05
7.11183e-05
6.72205e-05
6.30821e-05
5.87979e-05
5.43081e-05
4.96081e-05
4.46958e-05
3.94594e-05
3.40069e-05
2.82212e-05
2.27549e-05
1.7204e-05
1.23546e-05
8.83941e-06
6.39516e-06
4.57615e-06
3.20491e-06
2.33111e-06
1.74014e-06
1.30574e-06
1.1025e-06
1.19609e-06
1.94186e-06
3.49161e-06
6.18404e-06
1.00459e-05
1.44149e-05
1.88847e-05
2.32751e-05
2.76693e-05
3.21036e-05
3.63947e-05
4.03381e-05
4.36996e-05
4.63567e-05
9.89951e-05
9.81529e-05
9.72879e-05
9.63994e-05
9.54867e-05
9.45471e-05
9.35806e-05
9.25852e-05
9.15597e-05
9.0505e-05
8.94157e-05
8.82988e-05
8.71403e-05
8.59558e-05
8.47242e-05
8.34614e-05
8.21468e-05
8.07943e-05
7.93949e-05
7.79311e-05
7.63615e-05
7.47009e-05
7.29445e-05
7.10855e-05
6.91031e-05
6.70136e-05
6.48335e-05
6.25701e-05
6.02152e-05
5.77727e-05
5.5228e-05
5.25752e-05
4.97822e-05
4.68297e-05
4.36531e-05
4.02366e-05
3.64566e-05
3.23859e-05
2.78316e-05
2.3108e-05
1.81227e-05
1.3388e-05
9.39391e-06
6.43445e-06
4.35645e-06
2.89935e-06
1.93723e-06
1.31752e-06
9.11329e-07
6.16869e-07
4.41351e-07
3.45695e-07
2.92314e-07
2.34216e-07
2.13845e-07
2.83425e-07
4.9519e-07
9.55312e-07
1.90483e-06
3.76573e-06
6.90061e-06
1.08265e-05
1.49381e-05
1.8719e-05
2.2686e-05
2.64134e-05
2.97732e-05
3.26554e-05
3.53365e-05
4.95417e-05
5.01103e-05
5.06994e-05
5.12552e-05
5.18348e-05
5.23665e-05
5.29241e-05
5.3426e-05
5.39449e-05
5.44165e-05
5.48675e-05
5.53207e-05
5.56668e-05
5.60811e-05
5.63367e-05
5.64247e-05
5.6457e-05
5.64515e-05
5.64243e-05
5.64913e-05
5.64903e-05
5.6281e-05
5.6024e-05
5.55511e-05
5.49226e-05
5.422e-05
5.33607e-05
5.22767e-05
5.09159e-05
4.92382e-05
4.72071e-05
4.47877e-05
4.1944e-05
3.86436e-05
3.48608e-05
3.05901e-05
2.58584e-05
2.07489e-05
1.54678e-05
1.02279e-05
5.59458e-06
2.3144e-06
7.44518e-07
4.23965e-07
4.12385e-07
3.89428e-07
3.39049e-07
2.90361e-07
2.3434e-07
1.82785e-07
1.48635e-07
1.18375e-07
8.86603e-08
6.93448e-08
6.29549e-08
8.1665e-08
1.40563e-07
2.65797e-07
4.82396e-07
7.97564e-07
1.191e-06
1.6235e-06
2.10573e-06
2.71438e-06
3.33797e-06
3.92171e-06
4.40233e-06
4.82612e-06
5.40004e-06
5.10913e-06
5.10841e-06
5.10791e-06
5.10622e-06
5.10583e-06
5.1044e-06
5.10244e-06
5.09721e-06
5.09245e-06
5.08791e-06
5.08619e-06
5.0855e-06
5.09004e-06
5.09156e-06
5.08023e-06
5.0669e-06
5.06463e-06
5.06652e-06
5.05997e-06
5.04782e-06
5.04569e-06
5.05213e-06
5.04193e-06
5.03929e-06
5.02606e-06
5.01632e-06
5.02009e-06
5.01919e-06
5.01881e-06
5.01872e-06
5.01057e-06
5.00706e-06
5.00539e-06
4.99968e-06
4.99667e-06
4.98794e-06
4.98623e-06
4.98515e-06
4.98319e-06
4.98237e-06
4.97103e-06
4.97027e-06
4.96507e-06
4.95565e-06
4.95565e-06
4.95077e-06
4.94469e-06
4.94237e-06
4.94367e-06
4.94516e-06
4.94588e-06
4.94693e-06
4.94593e-06
4.94482e-06
4.94423e-06
4.94334e-06
4.94281e-06
4.94251e-06
4.94325e-06
5.21964e-06
5.21794e-06
5.21681e-06
5.21509e-06
5.21337e-06
5.21059e-06
5.20718e-06
5.20337e-06
5.20202e-06
5.20271e-06
5.19974e-06
5.19923e-06
5.19243e-06
5.18628e-06
5.17174e-06
5.16749e-06
5.16822e-06
5.16159e-06
5.15125e-06
5.14416e-06
5.14524e-06
5.14546e-06
5.13133e-06
5.12847e-06
5.11347e-06
5.10651e-06
5.10889e-06
5.10852e-06
5.1048e-06
5.10196e-06
5.09618e-06
5.09221e-06
5.08885e-06
5.08188e-06
5.07942e-06
5.07263e-06
5.06756e-06
5.06647e-06
5.06555e-06
5.06393e-06
5.05825e-06
5.05391e-06
5.04935e-06
5.04264e-06
5.03835e-06
5.03486e-06
5.03024e-06
5.02558e-06
5.02568e-06
5.0276e-06
5.02965e-06
5.03253e-06
5.03504e-06
5.0359e-06
5.03703e-06
5.03741e-06
5.03785e-06
5.03855e-06
5.03927e-06
5.364e-06
5.36055e-06
5.35334e-06
5.34833e-06
5.34394e-06
5.33997e-06
5.33654e-06
5.33373e-06
5.33185e-06
5.32926e-06
5.32449e-06
5.31945e-06
5.30969e-06
5.30049e-06
5.29079e-06
5.28961e-06
5.28482e-06
5.27418e-06
5.26376e-06
5.25994e-06
5.26099e-06
5.25431e-06
5.23957e-06
5.23527e-06
5.2196e-06
5.21424e-06
5.21535e-06
5.21468e-06
5.20814e-06
5.20326e-06
5.19908e-06
5.19407e-06
5.18927e-06
5.18167e-06
5.17867e-06
5.17292e-06
5.16697e-06
5.16414e-06
5.16327e-06
5.16204e-06
5.15842e-06
5.1543e-06
5.14996e-06
5.14525e-06
5.14004e-06
5.13606e-06
5.13117e-06
5.12812e-06
5.1247e-06
5.12535e-06
5.12759e-06
5.1308e-06
5.13511e-06
5.13871e-06
5.1421e-06
5.14498e-06
5.14737e-06
5.14986e-06
5.15156e-06
5.52224e-06
5.517e-06
5.51173e-06
5.5064e-06
5.50151e-06
5.497e-06
5.49293e-06
5.48885e-06
5.48427e-06
5.47811e-06
5.47029e-06
5.46158e-06
5.45133e-06
5.4429e-06
5.43594e-06
5.43134e-06
5.42032e-06
5.40812e-06
5.39922e-06
5.39749e-06
5.39838e-06
5.38321e-06
5.36944e-06
5.3628e-06
5.34692e-06
5.34265e-06
5.34273e-06
5.34031e-06
5.33138e-06
5.32508e-06
5.32132e-06
5.3151e-06
5.30922e-06
5.30129e-06
5.29732e-06
5.29195e-06
5.28574e-06
5.28158e-06
5.27986e-06
5.27867e-06
5.27626e-06
5.27266e-06
5.2687e-06
5.26482e-06
5.2605e-06
5.25715e-06
5.25164e-06
5.249e-06
5.24528e-06
5.24425e-06
5.24528e-06
5.24769e-06
5.2516e-06
5.25613e-06
5.26089e-06
5.26566e-06
5.27005e-06
5.27452e-06
5.27793e-06
5.71178e-06
5.70593e-06
5.701e-06
5.69523e-06
5.68959e-06
5.68369e-06
5.67757e-06
5.67072e-06
5.66288e-06
5.65373e-06
5.64376e-06
5.63365e-06
5.62386e-06
5.61533e-06
5.60665e-06
5.59639e-06
5.58234e-06
5.57143e-06
5.56522e-06
5.5651e-06
5.55566e-06
5.53786e-06
5.52466e-06
5.51526e-06
5.49953e-06
5.49565e-06
5.49384e-06
5.48936e-06
5.47835e-06
5.47086e-06
5.46664e-06
5.45913e-06
5.45224e-06
5.44381e-06
5.43888e-06
5.43342e-06
5.42696e-06
5.4219e-06
5.41909e-06
5.4176e-06
5.41585e-06
5.41299e-06
5.40952e-06
5.40606e-06
5.40229e-06
5.39869e-06
5.39472e-06
5.39192e-06
5.38792e-06
5.38729e-06
5.38734e-06
5.38868e-06
5.39139e-06
5.39526e-06
5.3999e-06
5.40511e-06
5.41038e-06
5.41602e-06
5.42078e-06
5.94033e-06
5.93322e-06
5.92722e-06
5.92002e-06
5.91263e-06
5.90448e-06
5.89573e-06
5.88611e-06
5.87571e-06
5.86463e-06
5.85337e-06
5.84226e-06
5.83135e-06
5.82019e-06
5.80753e-06
5.79326e-06
5.77913e-06
5.76977e-06
5.76363e-06
5.75835e-06
5.74312e-06
5.72409e-06
5.71055e-06
5.69831e-06
5.68286e-06
5.67852e-06
5.6743e-06
5.6673e-06
5.65438e-06
5.64565e-06
5.64035e-06
5.63143e-06
5.62336e-06
5.61418e-06
5.60827e-06
5.60235e-06
5.5956e-06
5.58975e-06
5.58587e-06
5.58375e-06
5.58221e-06
5.58e-06
5.57711e-06
5.57409e-06
5.57087e-06
5.56752e-06
5.56414e-06
5.56103e-06
5.55906e-06
5.55817e-06
5.55819e-06
5.55906e-06
5.5609e-06
5.56378e-06
5.56757e-06
5.5722e-06
5.57723e-06
5.58293e-06
5.58806e-06
6.21483e-06
6.20571e-06
6.19783e-06
6.18852e-06
6.17885e-06
6.16827e-06
6.15706e-06
6.1451e-06
6.13262e-06
6.11971e-06
6.10656e-06
6.09313e-06
6.07914e-06
6.06414e-06
6.04804e-06
6.03214e-06
6.01874e-06
6.00913e-06
6.00008e-06
5.98854e-06
5.9688e-06
5.94902e-06
5.93407e-06
5.91908e-06
5.9037e-06
5.89796e-06
5.89083e-06
5.88094e-06
5.86614e-06
5.85594e-06
5.84905e-06
5.83852e-06
5.82905e-06
5.81897e-06
5.81181e-06
5.80514e-06
5.79798e-06
5.79137e-06
5.78642e-06
5.7834e-06
5.7815e-06
5.77963e-06
5.77727e-06
5.77467e-06
5.77184e-06
5.76894e-06
5.76603e-06
5.76403e-06
5.76394e-06
5.76375e-06
5.76409e-06
5.76497e-06
5.76649e-06
5.7688e-06
5.77186e-06
5.77572e-06
5.78008e-06
5.78524e-06
5.79001e-06
6.54582e-06
6.53418e-06
6.52402e-06
6.51225e-06
6.5001e-06
6.48699e-06
6.47324e-06
6.45875e-06
6.44369e-06
6.42802e-06
6.41176e-06
6.39478e-06
6.37705e-06
6.35869e-06
6.34049e-06
6.32389e-06
6.30991e-06
6.29747e-06
6.28337e-06
6.26554e-06
6.24239e-06
6.22154e-06
6.20416e-06
6.18652e-06
6.17065e-06
6.16249e-06
6.15193e-06
6.13881e-06
6.12201e-06
6.10997e-06
6.10098e-06
6.08856e-06
6.07741e-06