/*--------------------------------*- C++ -*----------------------------------*\
| =========                 |                                                 |
| \\      /  F ield         | OpenFOAM: The Open Source CFD Toolbox           |
|  \\    /   O peration     | Version:  2312                                  |
|   \\  /    A nd           | Website:  www.openfoam.com                      |
|    \\/     M anipulation  |                                                 |
\*---------------------------------------------------------------------------*/
FoamFile
{
    version     2.0;
    format      ascii;
    arch        "LSB;label=32;scalar=64";
    class       volScalarField;
    location    "800";
    object      nut;
}
// * * * * * * * * * * * * * * * * * * * * * * * * * * * * * * * * * * * * * //

dimensions      [0 2 -1 0 0 0 0];

internalField   nonuniform List<scalar> 
76025
(
0.000169721
0.000169842
0.000169831
0.00016994
0.000169947
0.000170073
0.000170136
0.000170316
0.000170354
0.000170415
0.000170489
0.00017058
0.000170716
0.000170836
0.000171012
0.00017118
0.000171395
0.000171638
0.000171887
0.000172145
0.00017242
0.000172717
0.000173014
0.000173322
0.000173682
0.00017401
0.000174421
0.000174767
0.000175203
0.000175592
0.000176051
0.000176482
0.000176971
0.000177474
0.000178011
0.000178568
0.000179168
0.000179791
0.000180466
0.000181178
0.000181943
0.000182813
0.000183743
0.000184788
0.000185958
0.00018733
0.000188815
0.00019056
0.00019257
0.000194863
0.000197517
0.000200579
0.000204314
0.000208633
0.000214755
0.000221597
0.000231136
0.000243641
0.000260591
0.000282698
0.000308873
0.000340238
0.00037318
0.000404485
0.000429214
0.000443842
0.000445321
0.000427753
0.000404506
0.000171576
0.000171628
0.000171723
0.000171812
0.000171816
0.000171869
0.000171915
0.00017201
0.000172098
0.000172183
0.000172274
0.00017237
0.000172492
0.00017262
0.000172783
0.000172949
0.000173146
0.000173357
0.000173595
0.000173845
0.000174116
0.000174402
0.00017471
0.000175025
0.000175374
0.000175718
0.000176104
0.000176496
0.000176919
0.000177361
0.000177834
0.000178315
0.000178837
0.000179379
0.000179961
0.000180581
0.000181239
0.000181951
0.00018272
0.00018355
0.000184467
0.000185466
0.00018659
0.000187833
0.000189238
0.000190808
0.000192588
0.000194625
0.000196944
0.000199651
0.000202792
0.000206601
0.000211143
0.000216968
0.000224203
0.000233825
0.000246481
0.000263115
0.000284394
0.000310033
0.000339653
0.000370491
0.000400038
0.000424732
0.000440851
0.000447377
0.000437814
0.000411828
0.000379767
0.000173649
0.000173783
0.000173851
0.000174013
0.000174071
0.00017413
0.000174177
0.000174233
0.000174297
0.000174369
0.000174452
0.000174544
0.000174655
0.000174777
0.000174926
0.000175088
0.000175275
0.000175479
0.000175705
0.000175949
0.000176214
0.000176496
0.0001768
0.000177121
0.000177466
0.000177828
0.000178218
0.00017863
0.000179071
0.000179537
0.000180038
0.000180567
0.000181133
0.000181736
0.000182384
0.000183079
0.00018383
0.000184641
0.000185523
0.000186482
0.000187537
0.000188704
0.000190002
0.000191449
0.000193073
0.000194902
0.000196984
0.000199362
0.000202125
0.000205353
0.000209225
0.00021391
0.000219781
0.000227205
0.00023685
0.000249402
0.000265612
0.000286024
0.00031055
0.000338426
0.000367876
0.00039634
0.000421338
0.00043923
0.000447491
0.000444669
0.000424322
0.000391651
0.000352389
0.000175786
0.000175915
0.000176132
0.000176242
0.000176342
0.000176439
0.00017653
0.000176619
0.000176709
0.000176802
0.000176903
0.000177011
0.000177132
0.000177265
0.000177415
0.000177582
0.000177768
0.000177974
0.0001782
0.000178446
0.000178712
0.000179
0.000179309
0.000179639
0.000179993
0.000180373
0.000180781
0.000181218
0.000181687
0.00018219
0.00018273
0.00018331
0.000183933
0.000184603
0.000185327
0.000186108
0.000186957
0.000187877
0.000188885
0.000189983
0.000191196
0.000192541
0.000194041
0.000195722
0.000197617
0.000199769
0.000202234
0.000205093
0.000208449
0.000212463
0.000217346
0.00022342
0.000231103
0.000240957
0.000253625
0.000269732
0.000289672
0.000313353
0.000339983
0.000368048
0.000395505
0.000419704
0.000438371
0.000448009
0.000447475
0.000434721
0.000404492
0.000366649
0.000321368
0.000178055
0.000178213
0.000178393
0.00017856
0.000178717
0.000178868
0.000179014
0.000179156
0.000179295
0.000179434
0.000179576
0.000179722
0.000179875
0.000180038
0.000180212
0.0001804
0.000180605
0.000180826
0.000181066
0.000181326
0.000181607
0.00018191
0.000182236
0.000182585
0.000182961
0.000183367
0.000183806
0.000184278
0.000184787
0.000185336
0.000185929
0.000186569
0.00018726
0.000188008
0.00018882
0.000189702
0.000190664
0.000191712
0.000192864
0.000194127
0.000195527
0.000197087
0.000198838
0.000200813
0.000203059
0.000205639
0.000208635
0.000212165
0.000216393
0.000221546
0.00022794
0.000235987
0.000246203
0.000259145
0.000275318
0.000294979
0.00031794
0.00034347
0.000370182
0.000396315
0.000419686
0.000437893
0.000448912
0.000449649
0.000440348
0.000417475
0.000379105
0.00033771
0.000286898
0.000180746
0.000180905
0.000181077
0.000181254
0.000181434
0.000181615
0.000181797
0.000181979
0.000182162
0.000182345
0.000182531
0.000182721
0.000182917
0.00018312
0.000183332
0.000183556
0.000183793
0.000184045
0.000184315
0.000184603
0.000184912
0.000185244
0.000185599
0.00018598
0.000186392
0.000186838
0.000187319
0.000187839
0.000188402
0.000189011
0.00018967
0.000190385
0.000191161
0.000192004
0.000192924
0.000193926
0.000195025
0.00019623
0.00019756
0.000199029
0.000200664
0.000202502
0.000204582
0.000206955
0.000209689
0.000212877
0.000216646
0.000221174
0.000226697
0.000233533
0.00024208
0.0002528
0.000266166
0.000282542
0.000302059
0.000324439
0.000348939
0.000374367
0.000399069
0.000421277
0.000438862
0.000449808
0.000452274
0.000443942
0.000425882
0.000393055
0.000349033
0.000305278
0.000249212
0.000183964
0.000184111
0.000184273
0.000184446
0.000184631
0.000184823
0.000185023
0.000185229
0.000185441
0.000185659
0.000185882
0.000186111
0.000186347
0.000186592
0.000186846
0.000187112
0.00018739
0.000187684
0.000187994
0.000188323
0.000188673
0.000189047
0.000189445
0.000189874
0.000190337
0.000190837
0.000191377
0.000191961
0.000192594
0.000193281
0.000194027
0.000194838
0.000195722
0.000196686
0.000197742
0.0001989
0.000200175
0.000201582
0.000203144
0.000204885
0.000206839
0.000209058
0.000211601
0.000214546
0.000217995
0.000222092
0.000227025
0.000233043
0.000240459
0.000249647
0.000261007
0.000274907
0.000291583
0.000311021
0.000332875
0.00035639
0.000380471
0.000403721
0.000424451
0.000441043
0.000451507
0.000454275
0.000447682
0.000430535
0.000403742
0.000361992
0.000315361
0.00026919
0.00020962
0.000187837
0.000187966
0.000188113
0.000188275
0.000188452
0.000188643
0.000188847
0.000189063
0.000189291
0.000189529
0.000189778
0.000190037
0.000190307
0.000190589
0.000190883
0.000191191
0.000191513
0.000191853
0.000192211
0.000192589
0.000192991
0.000193417
0.000193873
0.000194365
0.000194894
0.000195465
0.000196083
0.000196752
0.000197478
0.000198266
0.000199125
0.000200063
0.000201087
0.000202211
0.000203447
0.00020481
0.000206321
0.000208003
0.000209885
0.000212009
0.000214419
0.000217195
0.000220428
0.000224236
0.000228775
0.000234248
0.000240908
0.000249055
0.000259021
0.000271132
0.000285638
0.00030264
0.000322
0.000343292
0.000365789
0.000388458
0.000410084
0.000429239
0.000444334
0.000453983
0.000456376
0.000450411
0.00043472
0.000409309
0.000373839
0.00032549
0.000278883
0.00023086
0.000173816
0.000192484
0.0001926
0.000192734
0.000192883
0.000193051
0.000193235
0.000193436
0.000193654
0.000193887
0.000194137
0.000194402
0.000194682
0.000194979
0.000195291
0.000195621
0.000195968
0.000196334
0.000196721
0.00019713
0.000197564
0.000198023
0.000198515
0.000199043
0.000199612
0.000200225
0.000200888
0.000201605
0.000202384
0.000203231
0.000204154
0.000205163
0.000206268
0.000207483
0.000208822
0.000210305
0.000211954
0.000213798
0.000215874
0.000218225
0.000220918
0.00022402
0.000227652
0.000231949
0.00023708
0.000243255
0.000250721
0.000259749
0.000270611
0.000283534
0.000298648
0.000315918
0.000335107
0.00035573
0.000377076
0.000398224
0.000418052
0.000435373
0.000448806
0.000456959
0.000458717
0.000452464
0.000437583
0.000413251
0.000380171
0.000336499
0.000285212
0.000240478
0.000191562
0.000143267
0.000198024
0.000198139
0.00019827
0.000198416
0.000198579
0.000198761
0.000198961
0.000199181
0.000199419
0.000199678
0.000199956
0.000200255
0.000200574
0.000200914
0.000201277
0.000201663
0.000202074
0.00020251
0.000202975
0.000203469
0.000203999
0.00020457
0.000205185
0.000205849
0.000206568
0.000207347
0.000208194
0.000209116
0.000210124
0.000211227
0.000212439
0.000213776
0.000215255
0.000216901
0.00021874
0.000220809
0.000223153
0.000225829
0.000228909
0.000232489
0.000236681
0.000241635
0.00024754
0.000254598
0.000263032
0.000273061
0.000284873
0.000298587
0.000314207
0.000331591
0.00035041
0.000370167
0.000390164
0.000409584
0.000427441
0.000442648
0.000454118
0.00046054
0.000460834
0.00045414
0.000439033
0.000415477
0.000383397
0.000343098
0.000292292
0.000243174
0.000200519
0.00015177
0.000123334
0.000204616
0.00020474
0.00020488
0.000205035
0.000205207
0.000205397
0.000205607
0.000205837
0.000206088
0.000206363
0.00020666
0.000206982
0.000207329
0.000207703
0.000208104
0.000208534
0.000208996
0.000209491
0.00021002
0.000210592
0.00021121
0.000211879
0.000212604
0.000213391
0.000214247
0.00021518
0.0002162
0.000217318
0.000218548
0.000219905
0.00022141
0.000223084
0.000224958
0.000227068
0.000229458
0.000232186
0.000235322
0.000238953
0.000243186
0.000248147
0.000253989
0.000260865
0.000268973
0.000278489
0.000289556
0.000302266
0.000316623
0.000332526
0.000349741
0.000367899
0.000386485
0.000404879
0.000422298
0.000437938
0.000450802
0.000459931
0.000464343
0.000462829
0.00045478
0.000439446
0.000415656
0.00038417
0.000345364
0.000295352
0.000244023
0.000201266
0.000159495
0.000120426
0.000113216
0.000212477
0.000212623
0.000212784
0.00021296
0.000213154
0.000213368
0.000213602
0.000213858
0.000214137
0.000214441
0.000214773
0.000215132
0.000215522
0.000215943
0.000216399
0.000216891
0.00021742
0.000217994
0.000218616
0.000219293
0.000220029
0.000220832
0.000221707
0.000222665
0.000223714
0.000224868
0.00022614
0.000227548
0.000229112
0.000230859
0.000232818
0.000235029
0.000237536
0.000240398
0.000243683
0.000247475
0.00025187
0.000256981
0.000262934
0.000269863
0.0002779
0.000287174
0.000297771
0.000309767
0.000323159
0.000337852
0.000353666
0.000370315
0.00038741
0.000404466
0.000420891
0.000436043
0.000449121
0.000459409
0.000465887
0.000467854
0.000464353
0.0004544
0.000437999
0.000414154
0.000382284
0.000343753
0.00029605
0.000244702
0.000199354
0.000160562
0.000122331
0.000101211
0.000107691
0.000221926
0.000222102
0.000222296
0.000222507
0.000222738
0.000222991
0.000223267
0.000223568
0.000223896
0.000224253
0.000224641
0.000225063
0.000225521
0.000226018
0.000226557
0.000227142
0.00022778
0.000228478
0.000229241
0.000230076
0.000230991
0.000231997
0.000233104
0.000234327
0.000235681
0.000237187
0.000238867
0.000240749
0.000242868
0.000245263
0.000247983
0.000251085
0.000254636
0.000258714
0.000263405
0.000268806
0.000275017
0.00028214
0.000290272
0.000299491
0.000309852
0.000321372
0.000334018
0.000347701
0.000362258
0.000377467
0.000393043
0.000408597
0.000423676
0.000437762
0.000450253
0.000460532
0.000467809
0.000471513
0.000470565
0.000464717
0.000452804
0.000434441
0.000410126
0.00037811
0.000339177
0.000293711
0.00024489
0.000197059
0.000157824
0.000122572
9.60039e-05
9.29055e-05
0.000102509
0.000233425
0.000233642
0.000233883
0.000234145
0.000234432
0.000234746
0.000235089
0.000235462
0.000235868
0.000236311
0.000236793
0.000237318
0.000237889
0.000238512
0.000239196
0.000239946
0.00024077
0.000241676
0.000242675
0.000243778
0.000244999
0.000246355
0.000247864
0.000249548
0.000251435
0.000253556
0.000255946
0.000258649
0.000261713
0.000265194
0.000269152
0.000273656
0.000278778
0.000284593
0.000291173
0.000298585
0.000306888
0.000316119
0.000326294
0.000337398
0.000349377
0.000362136
0.000375534
0.000389376
0.000403418
0.000417361
0.000430853
0.000443477
0.000454787
0.000464271
0.00047135
0.000475455
0.000475828
0.000472105
0.000463086
0.000449277
0.000428802
0.000402767
0.000371137
0.000331095
0.000285546
0.000239946
0.00019494
0.000152281
0.000119541
9.22836e-05
8.10889e-05
8.87639e-05
0.000103125
0.000247683
0.000247962
0.000248274
0.000248616
0.000248992
0.000249406
0.000249858
0.000250353
0.000250894
0.000251486
0.000252133
0.000252845
0.00025363
0.000254495
0.000255449
0.000256504
0.000257672
0.000258967
0.000260407
0.00026201
0.0002638
0.000265801
0.000268042
0.000270557
0.000273382
0.000276558
0.000280129
0.000284144
0.000288652
0.000293704
0.000299352
0.000305642
0.000312617
0.000320309
0.000328739
0.000337911
0.00034781
0.000358396
0.000369604
0.000381338
0.000393471
0.000405839
0.000418244
0.000430445
0.000442166
0.000453082
0.000462828
0.000470991
0.000477119
0.000480705
0.000481262
0.000478271
0.000471054
0.000459496
0.000442252
0.000420877
0.000392068
0.000359929
0.000320539
0.000273722
0.000230326
0.000189537
0.0001474
0.000113533
8.74791e-05
7.27954e-05
7.63041e-05
8.63053e-05
0.000100647
0.000265872
0.000266268
0.000266711
0.000267203
0.000267747
0.000268348
0.00026901
0.000269743
0.000270553
0.00027145
0.000272441
0.000273537
0.000274751
0.000276095
0.000277586
0.000279239
0.000281075
0.000283114
0.000285379
0.000287895
0.000290691
0.000293795
0.000297238
0.000301052
0.00030527
0.000309924
0.000315045
0.000320662
0.000326798
0.000333474
0.000340702
0.000348484
0.000356815
0.000365673
0.000375025
0.000384819
0.000394988
0.000405442
0.000416069
0.000426733
0.000437274
0.0004475
0.000457191
0.000466091
0.000473912
0.000480325
0.000484972
0.000487451
0.000487339
0.000484168
0.000477516
0.00046694
0.000451957
0.000432619
0.000407651
0.000379549
0.000343179
0.000304381
0.000259448
0.000217006
0.000178346
0.00014048
0.000106335
8.14197e-05
6.55939e-05
6.65635e-05
7.35361e-05
8.58478e-05
9.96241e-05
0.000290207
0.00029087
0.000291618
0.000292452
0.000293381
0.000294413
0.000295556
0.000296819
0.000298213
0.000299751
0.000301444
0.000303308
0.000305356
0.000307604
0.000310069
0.000312767
0.000315717
0.000318936
0.000322442
0.000326254
0.000330388
0.000334861
0.000339686
0.000344877
0.000350443
0.00035639
0.000362721
0.000369432
0.000376516
0.000383956
0.000391732
0.000399813
0.000408157
0.000416715
0.000425422
0.000434202
0.000442961
0.000451588
0.000459953
0.000467905
0.000475268
0.00048184
0.000487393
0.000491665
0.000494374
0.000495185
0.000493775
0.000489755
0.000482757
0.000472376
0.000458305
0.000440153
0.00041784
0.000391198
0.000359968
0.000322717
0.00028064
0.000242605
0.00020059
0.000163896
0.000131161
9.737e-05
7.43537e-05
5.88625e-05
5.86844e-05
6.419e-05
7.33462e-05
8.67176e-05
0.00010452
0.000326076
0.000327387
0.000328833
0.000330416
0.000332145
0.000334027
0.00033607
0.00033828
0.000340667
0.000343237
0.000345999
0.000348959
0.000352127
0.000355507
0.000359107
0.000362933
0.000366988
0.000371277
0.000375801
0.000380562
0.000385559
0.000390788
0.000396246
0.000401925
0.000407815
0.000413902
0.00042017
0.000426598
0.000433161
0.000439827
0.000446558
0.000453311
0.000460032
0.000466657
0.000473111
0.000479304
0.000485135
0.000490481
0.000495203
0.000499142
0.000502115
0.000503914
0.000504308
0.000503036
0.000499836
0.00049436
0.000486382
0.00047549
0.000461435
0.000443908
0.000422723
0.000397599
0.000369077
0.000335645
0.000297554
0.000258709
0.00021787
0.000182926
0.000145613
0.000116823
8.76358e-05
6.46552e-05
5.19447e-05
5.13708e-05
5.65848e-05
6.36203e-05
7.52813e-05
9.04017e-05
0.000113501
0.000384318
0.000386425
0.000388679
0.000391072
0.000393603
0.000396273
0.000399078
0.000402018
0.00040509
0.000408294
0.000411631
0.000415098
0.000418695
0.000422418
0.000426265
0.000430229
0.000434305
0.000438486
0.000442765
0.000447133
0.000451579
0.000456094
0.000460661
0.000465268
0.000469896
0.000474525
0.000479132
0.000483691
0.000488171
0.000492534
0.000496737
0.00050073
0.000504453
0.000507834
0.000510793
0.000513232
0.00051504
0.00051609
0.000516235
0.000515309
0.000513124
0.000509473
0.000504124
0.00049683
0.000487376
0.000475365
0.000460835
0.000443172
0.000422451
0.00039846
0.000371043
0.000339558
0.000304454
0.000265031
0.000229805
0.000192503
0.000158736
0.000127447
9.85929e-05
7.6293e-05
5.44133e-05
4.63771e-05
4.6003e-05
4.96873e-05
5.65181e-05
6.62601e-05
7.89549e-05
9.70176e-05
0.000125176
0.000468854
0.00047093
0.000473059
0.000475234
0.000477454
0.000479715
0.000482015
0.000484349
0.000486714
0.000489112
0.000491563
0.000494055
0.000496578
0.000499121
0.000501675
0.000504231
0.000506778
0.000509305
0.000511804
0.000514264
0.000516673
0.000519013
0.000521267
0.000523415
0.000525442
0.000527324
0.000529038
0.000530554
0.000531838
0.00053285
0.000533541
0.000533856
0.000533729
0.000533081
0.000531822
0.000529851
0.000527047
0.000523279
0.000518396
0.000512223
0.000504571
0.000495243
0.00048401
0.00047069
0.000455122
0.000436808
0.000416458
0.000392542
0.000366344
0.000336127
0.000302583
0.000265638
0.000232499
0.000196056
0.000165672
0.000132621
0.000106055
8.10233e-05
6.26333e-05
4.51413e-05
4.02905e-05
4.11324e-05
4.377e-05
4.92353e-05
5.79887e-05
6.92981e-05
8.50735e-05
0.000106061
0.000138705
0.000560509
0.000561352
0.000562167
0.00056294
0.000563667
0.000564359
0.000565018
0.000565632
0.000566195
0.0005667
0.000567145
0.000567525
0.000567836
0.000568071
0.000568224
0.000568285
0.000568248
0.0005681
0.000567858
0.000567503
0.000567009
0.000566337
0.000565466
0.000564393
0.000563109
0.00056159
0.000559817
0.00055775
0.000555353
0.000552585
0.000549388
0.000545698
0.000541441
0.000536529
0.000530866
0.000524343
0.000516837
0.000508219
0.000498328
0.000486968
0.000473981
0.000459195
0.000442406
0.000423632
0.0004026
0.000378902
0.000353324
0.000322785
0.000290867
0.000257852
0.000226231
0.000192671
0.000163385
0.000132853
0.000107529
8.23221e-05
6.40411e-05
4.83216e-05
3.75578e-05
3.45938e-05
3.54547e-05
3.72978e-05
4.02827e-05
4.88065e-05
6.03829e-05
7.56558e-05
9.35982e-05
0.000117141
0.000152102
0.00063113
0.000630253
0.000629273
0.000628108
0.000626738
0.000625428
0.000624121
0.000622669
0.000621084
0.00061937
0.000617526
0.00061555
0.00061344
0.000611189
0.000608792
0.00060624
0.000603525
0.000600635
0.000597556
0.000594265
0.000590716
0.000586789
0.000582543
0.000578111
0.00057348
0.000568552
0.000563384
0.000557816
0.000551877
0.00054552
0.000538644
0.000531178
0.000523041
0.000514133
0.000504357
0.000493619
0.000481784
0.000468744
0.000454306
0.00043818
0.000420444
0.000400895
0.000379536
0.000355694
0.000329395
0.000299873
0.000270498
0.000240379
0.000210472
0.000180672
0.000153599
0.000125706
0.000102153
7.97746e-05
6.16367e-05
4.65557e-05
3.57283e-05
3.03667e-05
2.9675e-05
2.95734e-05
3.01778e-05
3.27452e-05
4.3261e-05
5.68623e-05
7.1786e-05
8.66275e-05
0.000104387
0.000128983
0.000163074
0.000659496
0.000656773
0.000653879
0.000650832
0.000647625
0.000644321
0.000640918
0.000637398
0.000633748
0.000629959
0.000626023
0.000621932
0.000617678
0.000613253
0.000608648
0.000603854
0.000598859
0.000593654
0.000588223
0.000582552
0.000576621
0.000570401
0.000563893
0.000556918
0.00054985
0.000542032
0.000534521
0.000525848
0.000517175
0.000508082
0.000498198
0.000487635
0.000476299
0.00046406
0.000450881
0.000436728
0.000421382
0.000404823
0.00038668
0.000366057
0.000344035
0.000319064
0.00029388
0.00026754
0.000239935
0.000213149
0.000185581
0.00016022
0.0001349
0.000111622
9.05238e-05
7.09238e-05
5.56121e-05
4.18836e-05
3.17582e-05
2.60454e-05
2.39246e-05
2.34243e-05
2.22696e-05
2.10593e-05
2.66712e-05
4.04397e-05
5.69809e-05
7.18418e-05
8.46763e-05
9.8239e-05
0.000115727
0.000139585
0.000169991
0.000632158
0.000628322
0.000624333
0.000620188
0.000615886
0.000611432
0.000606824
0.000602063
0.000597143
0.00059206
0.000586808
0.000581381
0.000575772
0.000569971
0.000563971
0.000557763
0.000551335
0.000544677
0.000537775
0.000530618
0.000523203
0.000515502
0.000507488
0.000499121
0.000490387
0.000481229
0.000471664
0.000461587
0.000450985
0.000439795
0.000427924
0.000415299
0.000401757
0.000387124
0.000371208
0.000353944
0.000335148
0.000315119
0.000293309
0.000271013
0.000247269
0.0002241
0.000199307
0.000176391
0.000152339
0.000130691
0.00010913
9.08585e-05
7.28987e-05
5.82239e-05
4.48001e-05
3.44304e-05
2.59419e-05
2.09392e-05
1.84491e-05
1.70688e-05
1.56778e-05
1.30167e-05
1.38717e-05
2.21355e-05
3.62157e-05
5.4209e-05
7.07728e-05
8.4309e-05
9.63564e-05
0.000109492
0.000126192
0.000147564
0.000172688
0.000545088
0.000540934
0.000536632
0.000532181
0.000527581
0.000522829
0.000517924
0.000512863
0.000507642
0.000502258
0.000496705
0.000490978
0.000485069
0.000478971
0.000472678
0.000466194
0.000459505
0.000452595
0.000445451
0.000438054
0.000430386
0.000422424
0.000414129
0.000405466
0.000396392
0.00038683
0.000376704
0.000365932
0.000354428
0.00034211
0.000328887
0.000314677
0.000299439
0.000283335
0.000266232
0.00024836
0.000229422
0.000210205
0.000189939
0.000170378
0.000149619
0.000131036
0.000111346
9.50583e-05
7.83162e-05
6.47732e-05
5.23165e-05
4.18351e-05
3.22366e-05
2.44136e-05
1.8844e-05
1.51034e-05
1.27867e-05
1.06024e-05
9.20368e-06
6.97384e-06
6.59757e-06
9.21654e-06
1.5377e-05
2.77909e-05
4.46477e-05
6.26972e-05
7.87792e-05
9.24917e-05
0.000105127
0.000118272
0.000133541
0.000151215
0.000170482
0.000400282
0.000396705
0.000393025
0.000389238
0.00038534
0.000381328
0.000377207
0.000372975
0.000368625
0.00036415
0.000359542
0.000354796
0.000349903
0.000344856
0.000339644
0.000334264
0.000328704
0.000322954
0.00031701
0.000310841
0.00030443
0.000297731
0.000290643
0.000283036
0.000274853
0.000266052
0.000256587
0.000246416
0.000235498
0.000223819
0.000211353
0.000198164
0.000184226
0.00016974
0.000154639
0.000139495
0.000124008
0.00010925
9.44721e-05
8.12606e-05
6.828e-05
5.74954e-05
4.6917e-05
3.88903e-05
3.08153e-05
2.51625e-05
1.95739e-05
1.43446e-05
1.10845e-05
8.72676e-06
6.73388e-06
4.98099e-06
3.89348e-06
3.18893e-06
3.20849e-06
3.42724e-06
4.47504e-06
8.26187e-06
1.61042e-05
2.83004e-05
4.40439e-05
6.03536e-05
7.51491e-05
8.85765e-05
0.000101442
0.00011422
0.000127664
0.00014213
0.000157149
0.000222127
0.000219981
0.000217775
0.000215507
0.000213175
0.000210777
0.00020831
0.000205773
0.000203162
0.000200475
0.000197706
0.000194855
0.000191908
0.000188874
0.000185727
0.000182486
0.000179117
0.000175629
0.000172033
0.000168201
0.000164161
0.000159641
0.000154563
0.000148935
0.000142753
0.000136004
0.000128673
0.000120804
0.000112446
0.000103705
9.46743e-05
8.55374e-05
7.64011e-05
6.75319e-05
5.8974e-05
5.10457e-05
4.36577e-05
3.7106e-05
3.11895e-05
2.60405e-05
2.15063e-05
1.74941e-05
1.40663e-05
1.09211e-05
8.40893e-06
6.08793e-06
4.43213e-06
3.31319e-06
2.57665e-06
2.00111e-06
1.58786e-06
1.45835e-06
1.40784e-06
1.44856e-06
1.40209e-06
1.53146e-06
2.36494e-06
4.13892e-06
7.77151e-06
1.47117e-05
2.54383e-05
3.90701e-05
5.25847e-05
6.44295e-05
7.60946e-05
8.73016e-05
9.81295e-05
0.000108606
0.000119806
6.74008e-05
6.66773e-05
6.59369e-05
6.51805e-05
6.44051e-05
6.36111e-05
6.27945e-05
6.19578e-05
6.10938e-05
6.02098e-05
5.92906e-05
5.83554e-05
5.73708e-05
5.63805e-05
5.53181e-05
5.42661e-05
5.31162e-05
5.19736e-05
5.07387e-05
4.9126e-05
4.7138e-05
4.48703e-05
4.23835e-05
3.97419e-05
3.69891e-05
3.41942e-05
3.14155e-05
2.87042e-05
2.60857e-05
2.35925e-05
2.12326e-05
1.90208e-05
1.69498e-05
1.50235e-05
1.32178e-05
1.15357e-05
9.9297e-06
8.43083e-06
6.95759e-06
5.60792e-06
4.28975e-06
3.15465e-06
2.23575e-06
1.56124e-06
1.12142e-06
8.16777e-07
6.46474e-07
5.44268e-07
4.74796e-07
3.97407e-07
3.28227e-07
2.78853e-07
2.44495e-07
1.97152e-07
1.64292e-07
1.83155e-07
2.85019e-07
5.18767e-07
1.02195e-06
2.19093e-06
4.68689e-06
9.04194e-06
1.4901e-05
1.92958e-05
2.43229e-05
2.9084e-05
3.34039e-05
3.72794e-05
4.23797e-05
5.80458e-06
5.876e-06
5.95035e-06
6.02181e-06
6.09658e-06
6.16697e-06
6.24092e-06
6.30971e-06
6.38108e-06
6.44834e-06
6.51396e-06
6.58105e-06
6.63708e-06
6.70151e-06
6.75033e-06
6.78081e-06
6.80572e-06
6.82711e-06
6.84597e-06
6.87761e-06
6.90271e-06
6.90484e-06
6.90183e-06
6.87532e-06
6.83036e-06
6.7765e-06
6.7049e-06
6.60712e-06
6.47626e-06
6.3066e-06
6.09263e-06
5.82869e-06
5.50857e-06
5.126e-06
4.67494e-06
4.1513e-06
3.55464e-06
2.89172e-06
2.18682e-06
1.46709e-06
8.13461e-07
3.40322e-07
1.10384e-07
6.32447e-08
6.18695e-08
5.87624e-08
5.14586e-08
4.43252e-08
3.59813e-08
2.82276e-08
2.30848e-08
1.84891e-08
1.39256e-08
1.09519e-08
9.99651e-09
1.30358e-08
2.25514e-08
4.28496e-08
7.81189e-08
1.29697e-07
1.94429e-07
2.65999e-07
3.4615e-07
4.47507e-07
5.5179e-07
6.49958e-07
7.31484e-07
8.03799e-07
9.01037e-07
0.000172242
0.00017221
0.000172194
0.000172151
0.000172133
0.000172088
0.000172032
0.000171977
0.000171836
0.000171719
0.00017168
0.000171614
0.000171611
0.000171589
0.000171331
0.000171046
0.000170966
0.000170965
0.000170833
0.000170626
0.000170589
0.000170689
0.000170487
0.000170419
0.00017018
0.000169989
0.000170032
0.000170009
0.000170019
0.000170009
0.000169835
0.000169743
0.000169717
0.000169648
0.00016962
0.000169513
0.000169521
0.000169534
0.000169529
0.000169555
0.000169391
0.000169421
0.000169365
0.000169263
0.00016933
0.000169304
0.000169265
0.000169282
0.000169362
0.000169437
0.000169496
0.000169541
0.000169525
0.000169536
0.000169558
0.000169569
0.000169598
0.000169625
0.000169683
0.000174085
0.000174033
0.000173968
0.000173907
0.000173875
0.000173822
0.000173855
0.00017376
0.000173724
0.00017374
0.000173608
0.000173537
0.000173305
0.000173247
0.000172898
0.000172794
0.000172778
0.000172626
0.000172443
0.000172328
0.000172348
0.000172334
0.000172062
0.000171995
0.00017173
0.000171583
0.000171609
0.000171595
0.00017155
0.000171492
0.00017136
0.000171263
0.00017121
0.000171118
0.000171103
0.000171021
0.000170978
0.000170994
0.000171007
0.000171015
0.000170944
0.000170903
0.000170866
0.000170817
0.000170802
0.000170786
0.000170764
0.000170758
0.00017082
0.000170893
0.000170996
0.000171092
0.000171216
0.000171263
0.000171305
0.000171367
0.000171396
0.000171451
0.000171492
0.000176694
0.000176625
0.000176406
0.000176259
0.000176139
0.000176032
0.000175928
0.00017582
0.000175781
0.000175777
0.000175678
0.000175538
0.000175315
0.000175146
0.000174892
0.000174836
0.000174786
0.000174565
0.000174406
0.000174332
0.000174326
0.000174217
0.000173929
0.000173843
0.000173569
0.000173449
0.000173458
0.000173436
0.000173348
0.000173257
0.000173152
0.000173042
0.000172966
0.000172862
0.000172841
0.000172769
0.000172717
0.000172711
0.000172725
0.000172735
0.000172695
0.000172653
0.000172615
0.000172585
0.000172565
0.00017254
0.000172486
0.000172518
0.000172515
0.000172614
0.00017268
0.000172766
0.000172926
0.000173034
0.000173193
0.00017331
0.000173408
0.000173487
0.000173565
0.000179218
0.000179107
0.000178996
0.000178877
0.000178766
0.000178657
0.000178558
0.000178449
0.000178351
0.000178235
0.00017808
0.000177881
0.000177664
0.000177493
0.000177322
0.000177237
0.000177058
0.000176824
0.000176683
0.000176619
0.000176688
0.000176384
0.000176125
0.000176004
0.000175729
0.000175628
0.000175623
0.000175575
0.000175447
0.000175333
0.000175238
0.000175112
0.000175018
0.000174907
0.000174874
0.000174807
0.000174742
0.000174725
0.000174736
0.000174742
0.000174725
0.000174686
0.000174645
0.000174617
0.000174589
0.000174594
0.000174518
0.000174539
0.000174524
0.000174587
0.000174707
0.000174777
0.00017488
0.000174994
0.000175126
0.000175258
0.00017538
0.000175504
0.000175606
0.00018223
0.000182125
0.000182042
0.000181933
0.000181819
0.000181694
0.000181562
0.000181412
0.000181254
0.000181073
0.000180876
0.000180666
0.000180472
0.000180309
0.000180136
0.000179958
0.000179716
0.000179519
0.000179419
0.000179407
0.000179282
0.000178934
0.000178698
0.000178534
0.000178261
0.000178171
0.000178137
0.000178059
0.000177897
0.000177764
0.000177666
0.000177522
0.000177414
0.000177294
0.000177248
0.000177182
0.000177105
0.000177075
0.000177081
0.000177083
0.000177079
0.000177056
0.000177023
0.000176994
0.000176955
0.000176952
0.000176908
0.000176931
0.000176883
0.000176944
0.000177024
0.000177109
0.000177195
0.000177297
0.000177412
0.000177537
0.000177662
0.000177793
0.000177911
0.000185837
0.000185715
0.000185611
0.00018548
0.000185339
0.000185179
0.000185006
0.000184816
0.000184618
0.000184408
0.000184197
0.000183988
0.000183791
0.000183594
0.000183366
0.00018312
0.000182879
0.000182722
0.000182623
0.000182536
0.000182301
0.000181942
0.000181712
0.000181503
0.000181237
0.000181144
0.000181074
0.00018096
0.000180768
0.000180617
0.000180505
0.000180343
0.000180218
0.000180086
0.000180028
0.000179957
0.000179877
0.000179828
0.000179821
0.000179819
0.000179823
0.000179814
0.000179794
0.000179773
0.000179747
0.000179725
0.000179678
0.000179701
0.000179695
0.000179775
0.000179815
0.000179919
0.000179976
0.000180058
0.000180153
0.00018026
0.000180373
0.000180496
0.00018061
0.000190063
0.000189908
0.00018977
0.000189604
0.000189428
0.000189235
0.000189029
0.000188812
0.00018859
0.000188361
0.000188132
0.0001879
0.000187663
0.000187409
0.000187131
0.000186863
0.000186645
0.000186492
0.000186347
0.000186166
0.000185851
0.000185495
0.00018525
0.000184999
0.000184738
0.000184629
0.000184517
0.000184361
0.000184141
0.00018397
0.000183837
0.000183656
0.000183511
0.000183369
0.000183289
0.000183211
0.000183129
0.000183067
0.000183038
0.000183029
0.000183031
0.000183032
0.000183023
0.00018301
0.000182992
0.000182973
0.000182951
0.000182965
0.00018302
0.000183104
0.000183151
0.000183261
0.000183304
0.00018337
0.000183448
0.000183538
0.000183634
0.000183742
0.000183842
0.000195011
0.00019482
0.000194647
0.000194447
0.00019424
0.000194016
0.000193782
0.000193538
0.000193286
0.000193026
0.000192758
0.00019248
0.000192191
0.000191888
0.000191587
0.00019132
0.000191104
0.000190911
0.000190691
0.000190418
0.000190048
0.000189691
0.000189416
0.000189127
0.000188864
0.000188725
0.000188564
0.000188364
0.000188116
0.000187921
0.000187761
0.000187557
0.00018739