/*--------------------------------*- C++ -*----------------------------------*\
| =========                 |                                                 |
| \\      /  F ield         | OpenFOAM: The Open Source CFD Toolbox           |
|  \\    /   O peration     | Version:  2312                                  |
|   \\  /    A nd           | Website:  www.openfoam.com                      |
|    \\/     M anipulation  |                                                 |
\*---------------------------------------------------------------------------*/
FoamFile
{
    version     2.0;
    format      ascii;
    arch        "LSB;label=32;scalar=64";
    class       volScalarField;
    location    "800";
    object      omega;
}
// * * * * * * * * * * * * * * * * * * * * * * * * * * * * * * * * * * * * * //

dimensions      [0 0 -1 0 0 0 0];

internalField   nonuniform List<scalar> 
76025
(
0.029127
0.029113
0.0291095
0.0290955
0.0290873
0.0290863
0.0290867
0.0290751
0.029077
0.0290815
0.0290853
0.0290897
0.0290993
0.0291061
0.0291202
0.0291312
0.0291475
0.0291632
0.0291801
0.0291996
0.029223
0.0292515
0.0292808
0.0293141
0.0293539
0.0293916
0.0294408
0.0294801
0.0295344
0.0295805
0.0296381
0.0296909
0.0297526
0.0298171
0.0298851
0.029956
0.0300335
0.0301141
0.0302035
0.0302971
0.030401
0.0305205
0.0306504
0.0308008
0.030968
0.0311699
0.0313909
0.0316499
0.0319577
0.0323032
0.0327193
0.0331882
0.0337701
0.034432
0.0353254
0.0362969
0.0375929
0.0392187
0.0413267
0.0439907
0.0471101
0.051087
0.0558542
0.0616034
0.0687776
0.0771814
0.0881601
0.103867
0.12007
0.0293762
0.0293741
0.0293628
0.0293558
0.0293555
0.0293575
0.0293593
0.0293594
0.0293607
0.0293642
0.0293695
0.0293754
0.0293843
0.0293929
0.0294066
0.0294191
0.0294361
0.0294534
0.0294738
0.0294949
0.0295191
0.0295457
0.0295756
0.0296074
0.0296445
0.0296814
0.0297251
0.02977
0.0298201
0.0298736
0.0299323
0.0299922
0.0300589
0.0301287
0.030205
0.0302872
0.0303755
0.0304723
0.0305783
0.030694
0.0308239
0.0309673
0.0311313
0.0313145
0.0315243
0.0317609
0.0320316
0.0323431
0.0326993
0.033116
0.0335963
0.0341736
0.0348516
0.0356997
0.0367185
0.0380198
0.0396568
0.0417237
0.0442845
0.047374
0.051102
0.0555005
0.0606927
0.0669856
0.0748196
0.0845984
0.0978454
0.115472
0.135569
0.0296778
0.0296673
0.0296673
0.0296537
0.0296544
0.0296575
0.0296627
0.0296691
0.0296764
0.0296845
0.0296938
0.0297035
0.0297149
0.0297266
0.0297411
0.0297564
0.0297745
0.0297939
0.029816
0.0298399
0.0298662
0.0298948
0.0299264
0.0299605
0.0299982
0.0300386
0.0300836
0.0301322
0.0301856
0.0302433
0.0303067
0.0303747
0.030449
0.0305293
0.030617
0.0307123
0.0308167
0.0309308
0.0310567
0.0311946
0.0313484
0.0315204
0.0317136
0.0319309
0.0321766
0.0324551
0.0327733
0.0331373
0.0335595
0.0340504
0.0346327
0.0353256
0.0361717
0.0372063
0.0384982
0.0401088
0.0421103
0.0445642
0.0475133
0.0510221
0.0551295
0.060002
0.0658137
0.0729917
0.0819996
0.0932328
0.108787
0.128521
0.153283
0.0300461
0.0300464
0.0300309
0.0300341
0.0300383
0.030043
0.0300489
0.0300561
0.0300646
0.0300741
0.030085
0.0300968
0.0301101
0.0301242
0.0301402
0.0301576
0.0301771
0.0301987
0.0302225
0.0302486
0.0302774
0.0303089
0.0303433
0.0303808
0.0304219
0.0304669
0.0305164
0.0305706
0.0306301
0.0306949
0.030766
0.0308434
0.030928
0.0310203
0.0311213
0.0312318
0.0313531
0.0314861
0.031633
0.0317946
0.0319745
0.0321759
0.032402
0.0326569
0.0329454
0.033274
0.0336503
0.0340852
0.034592
0.0351906
0.0359045
0.0367693
0.037826
0.0391301
0.0407405
0.0427178
0.045116
0.0479742
0.0513361
0.0552568
0.0598423
0.0653026
0.071866
0.0800965
0.0903677
0.103496
0.121924
0.144216
0.176243
0.0304749
0.030481
0.0304832
0.0304875
0.0304933
0.0305001
0.0305078
0.0305167
0.0305267
0.0305379
0.0305503
0.0305639
0.030579
0.0305955
0.0306135
0.0306333
0.0306551
0.030679
0.0307053
0.0307341
0.0307659
0.0308006
0.0308388
0.0308803
0.0309261
0.0309766
0.0310322
0.0310934
0.0311605
0.0312341
0.0313148
0.0314032
0.0315
0.0316059
0.0317222
0.0318497
0.0319901
0.0321445
0.0323153
0.0325038
0.0327139
0.0329497
0.0332152
0.0335157
0.0338577
0.0342496
0.0347025
0.0352306
0.0358535
0.0365962
0.0374918
0.0385812
0.0399131
0.04154
0.043513
0.0458755
0.0486626
0.0519063
0.0556629
0.060024
0.0651549
0.0713178
0.0788298
0.0883672
0.100229
0.115893
0.137608
0.163334
0.206128
0.0309502
0.0309618
0.030973
0.0309845
0.0309965
0.031009
0.0310222
0.031036
0.0310506
0.0310661
0.0310826
0.0311002
0.0311191
0.0311393
0.0311612
0.0311849
0.0312105
0.0312383
0.0312686
0.0313016
0.0313377
0.031377
0.03142
0.031467
0.031519
0.0315763
0.0316394
0.0317089
0.0317852
0.0318691
0.0319612
0.0320623
0.0321733
0.0322952
0.0324292
0.0325767
0.0327394
0.032919
0.0331183
0.0333393
0.0335864
0.0338649
0.0341804
0.0345398
0.0349522
0.0354293
0.0359864
0.0366432
0.0374254
0.038365
0.0395006
0.0408757
0.0425353
0.0445214
0.0468684
0.0496049
0.0527621
0.0563867
0.0605729
0.0654562
0.0712724
0.0783327
0.0870702
0.098225
0.112097
0.131091
0.156538
0.187558
0.247724
0.0315051
0.0315179
0.0315322
0.0315476
0.0315641
0.0315817
0.0316001
0.0316194
0.0316396
0.0316608
0.031683
0.0317062
0.0317308
0.0317567
0.0317843
0.0318136
0.0318451
0.0318788
0.031915
0.0319542
0.0319965
0.0320424
0.0320922
0.0321469
0.0322071
0.0322732
0.032346
0.0324259
0.0325138
0.0326103
0.0327164
0.0328331
0.0329615
0.0331028
0.0332586
0.0334306
0.0336211
0.0338323
0.0340675
0.0343301
0.0346251
0.0349599
0.0353421
0.0357816
0.036291
0.0368864
0.0375884
0.0384224
0.0394195
0.0406148
0.0420465
0.0437518
0.0457637
0.0481098
0.050813
0.0539036
0.0574291
0.0614712
0.0661717
0.0717161
0.0784151
0.0866314
0.0969477
0.110096
0.126625
0.14994
0.179715
0.220164
0.308286
0.0321679
0.0321795
0.0321936
0.0322095
0.0322275
0.0322473
0.0322688
0.0322918
0.0323162
0.0323422
0.0323696
0.0323986
0.0324291
0.0324614
0.0324955
0.0325317
0.0325702
0.0326113
0.0326552
0.0327022
0.0327529
0.0328072
0.0328665
0.0329314
0.0330023
0.03308
0.0331652
0.0332587
0.0333613
0.0334741
0.0335982
0.0337348
0.0338854
0.0340515
0.0342354
0.0344391
0.0346657
0.0349184
0.0352014
0.0355201
0.0358802
0.0362926
0.0367679
0.0373199
0.0379655
0.0387256
0.0396253
0.0406935
0.0419614
0.0434609
0.0452215
0.0472685
0.0496231
0.0523068
0.0553481
0.0587986
0.0627366
0.0672904
0.0726534
0.0790637
0.0869165
0.0966391
0.108988
0.124628
0.144822
0.17357
0.20913
0.265175
0.392569
0.0329646
0.0329748
0.0329876
0.0330027
0.0330203
0.0330404
0.0330627
0.0330874
0.0331143
0.0331433
0.0331746
0.033208
0.0332438
0.0332818
0.0333223
0.0333655
0.0334115
0.0334607
0.0335131
0.0335695
0.0336297
0.033695
0.033766
0.0338435
0.0339281
0.0340205
0.0341217
0.0342327
0.0343545
0.0344885
0.034636
0.0347987
0.0349785
0.0351776
0.0353988
0.0356453
0.0359209
0.0362307
0.0365801
0.0369774
0.0374301
0.0379529
0.0385605
0.0392705
0.0401036
0.0410834
0.0422355
0.0435864
0.0451613
0.0469822
0.0490685
0.0514375
0.0541107
0.0571195
0.0605151
0.0643828
0.068839
0.074066
0.0803097
0.0878673
0.0972397
0.108939
0.123897
0.14277
0.168138
0.203605
0.248145
0.329907
0.506132
0.0339207
0.0339306
0.0339429
0.0339576
0.0339749
0.0339949
0.0340177
0.0340432
0.0340715
0.0341027
0.0341368
0.0341738
0.0342139
0.0342571
0.0343035
0.0343534
0.034407
0.0344645
0.0345264
0.0345926
0.0346646
0.0347428
0.0348279
0.0349208
0.0350223
0.0351333
0.0352549
0.0353884
0.0355352
0.0356969
0.0358755
0.0360732
0.0362926
0.036537
0.03681
0.0371163
0.0374616
0.0378528
0.0382982
0.0388083
0.039395
0.0400738
0.0408639
0.0417848
0.0428575
0.0441033
0.0455429
0.047195
0.0490761
0.0512013
0.0535876
0.0562574
0.0592477
0.0626128
0.0664375
0.0708459
0.075996
0.0821352
0.0895603
0.0986467
0.110041
0.124352
0.14268
0.166015
0.198673
0.242587
0.30322
0.431279
0.638527
0.0350661
0.0350771
0.0350905
0.0351062
0.0351245
0.0351456
0.0351697
0.0351968
0.0352271
0.0352608
0.035298
0.0353388
0.0353834
0.035432
0.0354847
0.0355418
0.0356036
0.0356704
0.0357425
0.0358211
0.035907
0.0360007
0.0361031
0.0362151
0.0363379
0.0364727
0.0366208
0.0367841
0.0369643
0.0371639
0.0373854
0.0376319
0.0379074
0.0382164
0.0385644
0.0389579
0.0394048
0.0399145
0.0404981
0.0411678
0.0419386
0.0428245
0.0438455
0.0450191
0.0463619
0.0478888
0.0496136
0.0515492
0.05371
0.0561141
0.0587894
0.0617754
0.0651355
0.0689523
0.0733521
0.0784987
0.0845998
0.0919869
0.101
0.112143
0.126264
0.144042
0.166851
0.1968
0.239396
0.295321
0.387546
0.568899
0.77068
0.0364397
0.0364531
0.0364691
0.0364875
0.0365085
0.0365326
0.0365599
0.0365904
0.0366245
0.0366625
0.0367045
0.0367507
0.0368015
0.0368571
0.0369178
0.036984
0.037056
0.0371346
0.0372208
0.0373153
0.037419
0.0375328
0.0376579
0.0377955
0.037947
0.0381143
0.0382993
0.0385043
0.0387323
0.0389863
0.0392703
0.0395889
0.0399473
0.0403521
0.0408105
0.041331
0.0419235
0.0425987
0.0433684
0.0442454
0.0452421
0.0463722
0.0476466
0.0490801
0.0506849
0.0524714
0.0544526
0.0566446
0.0590696
0.0617603
0.0647639
0.0681442
0.071997
0.0764345
0.0816371
0.0878059
0.0952219
0.104325
0.115481
0.129444
0.1473
0.16972
0.198965
0.239004
0.294717
0.372626
0.517982
0.727378
0.888401
0.0380952
0.0381122
0.0381321
0.0381548
0.0381806
0.0382097
0.0382424
0.0382789
0.0383195
0.0383645
0.0384143
0.0384691
0.0385294
0.0385956
0.0386682
0.0387476
0.0388352
0.0389318
0.0390383
0.0391557
0.0392853
0.0394283
0.0395865
0.0397616
0.0399559
0.0401718
0.0404122
0.0406806
0.0409809
0.0413176
0.041696
0.042122
0.0426025
0.0431451
0.043758
0.0444503
0.0452314
0.046111
0.0470991
0.0482051
0.0494384
0.0508079
0.0523226
0.0539924
0.0558282
0.0578459
0.0600685
0.0625228
0.0652468
0.0682935
0.0717338
0.0756608
0.0802079
0.0855208
0.0918571
0.099444
0.108699
0.120176
0.134253
0.152208
0.175229
0.204184
0.243501
0.298198
0.373176
0.494703
0.689695
0.881979
0.96606
0.040109
0.0401308
0.0401563
0.0401853
0.0402181
0.040255
0.0402964
0.0403424
0.0403935
0.04045
0.0405125
0.0405814
0.0406572
0.0407407
0.0408333
0.0409358
0.0410493
0.041175
0.0413142
0.0414685
0.0416396
0.0418296
0.0420409
0.0422761
0.0425383
0.0428308
0.0431577
0.0435233
0.0439324
0.0443906
0.0449035
0.0454777
0.0461198
0.0468369
0.047636
0.0485245
0.0495094
0.0505978
0.0517968
0.0531136
0.054556
0.056133
0.0578558
0.0597387
0.0618005
0.0640666
0.0665703
0.0693553
0.0724814
0.0760271
0.08009
0.0848012
0.0903403
0.0968963
0.104845
0.114407
0.126288
0.141062
0.15923
0.183073
0.213377
0.252293
0.307596
0.382737
0.493934
0.673132
0.877506
0.990978
1.00705
0.0425944
0.0426237
0.042658
0.042697
0.0427412
0.0427911
0.0428468
0.0429089
0.0429778
0.0430543
0.0431388
0.0432329
0.0433375
0.0434537
0.0435825
0.0437254
0.0438838
0.0440597
0.0442547
0.0444712
0.0447116
0.0449784
0.0452748
0.0456038
0.0459692
0.0463748
0.0468246
0.0473232
0.0478752
0.0484854
0.0491589
0.0499007
0.0507159
0.0516099
0.0525879
0.0536554
0.0548184
0.0560833
0.0574579
0.0589513
0.0605749
0.0623431
0.0642744
0.0663926
0.068728
0.0713199
0.0742173
0.077485
0.0812016
0.0854726
0.0904366
0.0962836
0.103247
0.111587
0.121854
0.134201
0.149949
0.169295
0.19361
0.226454
0.267088
0.322555
0.401834
0.509922
0.679864
0.889721
1.01181
1.04154
1.02054
0.0457327
0.0457767
0.0458278
0.045886
0.0459518
0.0460259
0.0461086
0.0462013
0.0463049
0.0464202
0.0465482
0.0466901
0.0468473
0.047021
0.0472128
0.0474246
0.047658
0.0479152
0.0481983
0.0485097
0.0488518
0.0492272
0.049639
0.0500898
0.050583
0.0511216
0.0517091
0.0523488
0.0530443
0.0537994
0.054618
0.0555042
0.0564625
0.0574982
0.058617
0.0598258
0.0611326
0.0625474
0.0640823
0.065752
0.067575
0.0695743
0.0717784
0.0742227
0.0769515
0.0800208
0.0834991
0.0874781
0.0920626
0.0974076
0.103685
0.111198
0.120225
0.131183
0.144827
0.161215
0.182821
0.208668
0.243124
0.289213
0.345475
0.429605
0.543725
0.707912
0.926412
1.04433
1.07519
1.06001
0.992987
0.0498392
0.0499149
0.050002
0.0501002
0.0502103
0.0503332
0.0504695
0.0506199
0.0507857
0.0509678
0.0511673
0.0513854
0.0516234
0.0518826
0.0521645
0.0524705
0.0528023
0.0531614
0.0535497
0.0539689
0.0544209
0.0549079
0.0554319
0.0559952
0.0566002
0.0572497
0.0579465
0.0586938
0.0594953
0.060355
0.0612777
0.0622689
0.0633351
0.0644839
0.0657242
0.0670668
0.0685246
0.0701128
0.07185
0.0737586
0.0758658
0.0782048
0.0808163
0.0837507
0.0870701
0.0908531
0.0951951
0.100229
0.106091
0.113028
0.121248
0.131263
0.143326
0.15826
0.176874
0.199488
0.230224
0.265854
0.317565
0.381606
0.466251
0.596823
0.760822
0.986585
1.08796
1.10875
1.09417
1.03936
0.906933
0.0554828
0.0556146
0.0557613
0.0559226
0.0560992
0.0562917
0.0565006
0.0567265
0.0569701
0.057232
0.0575132
0.0578142
0.0581361
0.0584797
0.058846
0.059236
0.0596509
0.060092
0.0605606
0.0610582
0.0615866
0.0621478
0.062744
0.0633777
0.0640519
0.0647701
0.0655362
0.0663548
0.0672312
0.0681716
0.0691833
0.0702747
0.0714557
0.0727378
0.0741344
0.0756615
0.0773376
0.0791851
0.0812305
0.0835055
0.0860488
0.0889072
0.0921384
0.0958135
0.100022
0.104875
0.11051
0.117127
0.124904
0.134267
0.145422
0.159315
0.175932
0.197214
0.22329
0.256501
0.30099
0.35286
0.432127
0.521918
0.663216
0.854076
1.06441
1.14997
1.15048
1.12919
1.06424
0.945311
0.783508
0.0634026
0.0635849
0.0637843
0.0639995
0.0642306
0.0644777
0.0647406
0.0650197
0.0653152
0.0656275
0.0659573
0.0663054
0.0666725
0.0670596
0.0674676
0.0678975
0.0683507
0.0688287
0.0693332
0.0698662
0.0704303
0.0710282
0.0716633
0.0723394
0.0730608
0.0738329
0.0746615
0.0755534
0.0765167
0.0775604
0.0786952
0.0799333
0.0812887
0.082778
0.0844203
0.086238
0.0882576
0.0905106
0.0930346
0.095875
0.0990872
0.102738
0.106913
0.111714
0.117276
0.123763
0.131382
0.140447
0.151189
0.164408
0.180131
0.200284
0.224045
0.256047
0.293657
0.345549
0.409125
0.491647
0.609681
0.749681
0.982343
1.15418
1.21449
1.20417
1.15953
1.06575
0.943461
0.80951
0.658724
0.074235
0.07444
0.0746565
0.0748843
0.0751237
0.0753753
0.0756394
0.0759164
0.076207
0.0765129
0.0768382
0.077183
0.0775479
0.0779335
0.0783412
0.0787722
0.0792283
0.0797117
0.0802253
0.0807725
0.081357
0.0819829
0.0826551
0.0833793
0.0841619
0.0850106
0.0859337
0.0869411
0.0880441
0.0892556
0.0905906
0.0920662
0.0937026
0.0955228
0.0975541
0.0998286
0.102385
0.105268
0.108533
0.112247
0.116494
0.121373
0.127016
0.133578
0.141274
0.150352
0.161147
0.17417
0.189749
0.209364
0.232576
0.263348
0.299035
0.349009
0.405149
0.488207
0.58006
0.719879
0.889851
1.13217
1.26923
1.28852
1.26286
1.18962
1.03978
0.900768
0.785179
0.670239
0.551674
0.0884697
0.0886665
0.088871
0.0890834
0.089305
0.0895367
0.089779
0.090033
0.0902999
0.0905812
0.0908787
0.0911944
0.0915302
0.0918883
0.092271
0.0926809
0.0931209
0.0935945
0.0941112
0.0946746
0.0952888
0.0959592
0.0966934
0.0974997
0.0983872
0.0993667
0.10045
0.101651
0.102986
0.104472
0.106132
0.10799
0.110075
0.11242
0.115067
0.118062
0.121465
0.125344
0.129787
0.134893
0.140802
0.147661
0.155706
0.165161
0.176412
0.18982
0.206024
0.225873
0.249844
0.280632
0.316764
0.365684
0.421803
0.500129
0.589217
0.719248
0.863665
1.09132
1.29948
1.3828
1.36972
1.31268
1.17995
0.973509
0.814507
0.713927
0.635523
0.552669
0.468855
0.106971
0.107141
0.107317
0.107501
0.107692
0.107894
0.108108
0.108335
0.108577
0.108836
0.109115
0.109416
0.109742
0.110097
0.110483
0.110905
0.111367
0.111875
0.112435
0.113053
0.113737
0.114499
0.115356
0.116318
0.117397
0.118609
0.11997
0.121501
0.123223
0.125166
0.12736
0.129843
0.132659
0.135861
0.139514
0.143693
0.148495
0.15403
0.16045
0.167908
0.176667
0.186933
0.199208
0.213728
0.231432
0.252591
0.27898
0.310983
0.350428
0.400415
0.459144
0.538382
0.629069
0.752268
0.900869
1.09527
1.33951
1.47707
1.48907
1.45612
1.35355
1.11285
0.848198
0.684118
0.606992
0.564074
0.519222
0.464228
0.407807
0.131581
0.131734
0.131894
0.132062
0.13224
0.132431
0.132638
0.132862
0.133107
0.133376
0.133672
0.133999
0.134361
0.134763
0.13521
0.135708
0.136264
0.136885
0.137579
0.138357
0.139232
0.140217
0.14134
0.142614
0.144059
0.145698
0.147556
0.149665
0.152061
0.154789
0.157902
0.16146
0.16554
0.17023
0.175644
0.18191
0.18921
0.19772
0.207767
0.219541
0.233726
0.250388
0.270966
0.295142
0.325693
0.361565
0.407681
0.460649
0.528741
0.609352
0.708994
0.836957
0.983608
1.18182
1.4154
1.57698
1.61855
1.59633
1.52272
1.3106
0.944049
0.663133
0.53679
0.490041
0.474968
0.461204
0.436285
0.401073
0.363723
0.166349
0.166529
0.166718
0.166921
0.16714
0.167378
0.16764
0.167929
0.168249
0.168605
0.169001
0.169445
0.16994
0.170496
0.171118
0.171818
0.172606
0.173492
0.174491
0.17562
0.176904
0.178362
0.180015
0.181893
0.184028
0.186457
0.189231
0.192401
0.196036
0.200214
0.205033
0.210608
0.217083
0.224629
0.23348
0.243866
0.256214
0.270749
0.288394
0.309052
0.334933
0.36463
0.403166
0.446466
0.503116
0.566322
0.647663
0.735164
0.852613
0.982138
1.15535
1.34764
1.58651
1.72555
1.75881
1.7394
1.69112
1.49723
1.11619
0.736588
0.533228
0.435794
0.400116
0.393999
0.395497
0.392379
0.378941
0.357046
0.332574
0.22085
0.221155
0.221479
0.221825
0.2222
0.222607
0.223054
0.223546
0.22409
0.224693
0.225363
0.226107
0.226935
0.227857
0.228888
0.230053
0.231365
0.232838
0.234492
0.236349
0.238436
0.240789
0.243452
0.246485
0.249956
0.253946
0.258552
0.263889
0.270096
0.27734
0.285833
0.295817
0.307631
0.321611
0.338359
0.358221
0.382442
0.410903
0.44654
0.487212
0.540066
0.597133
0.674522
0.752265
0.858912
0.96523
1.09735
1.2412
1.4361
1.65621
1.85285
1.94246
1.9387
1.89656
1.84375
1.6524
1.27363
0.875956
0.631683
0.483699
0.399761
0.359791
0.346443
0.346346
0.349548
0.349757
0.342998
0.330197
0.314394
0.323029
0.323657
0.324325
0.325038
0.325802
0.326621
0.327517
0.328497
0.329569
0.330742
0.332027
0.333435
0.334982
0.336682
0.338557
0.340625
0.342916
0.345457
0.348273
0.351421
0.354955
0.358971
0.363632
0.369134
0.375641
0.383347
0.392485
0.403334
0.416238
0.431599
0.449958
0.471868
0.498236
0.52966
0.567819
0.61281
0.668072
0.731517
0.810438
0.896964
1.00551
1.11597
1.25884
1.38565
1.56447
1.69712
1.89412
2.14491
2.23246
2.21697
2.1736
2.10506
1.96644
1.72835
1.2999
0.957513
0.762557
0.624525
0.530545
0.450234
0.390182
0.358587
0.347707
0.346645
0.348057
0.348296
0.344021
0.334231
0.320665
0.565634
0.567199
0.568813
0.570484
0.57223
0.574064
0.576005
0.578067
0.580274
0.582638
0.585191
0.587941
0.590941
0.594181
0.597756
0.601623
0.60592
0.610643
0.615802
0.621874
0.628911
0.637891
0.649334
0.663553
0.681021
0.702263
0.727921
0.758683
0.79546
0.83914
0.891044
0.95211
1.02429
1.10791
1.20593
1.31687
1.44493
1.58459
1.74123
1.90504
2.07826
2.25558
2.41761
2.5841
2.70604
2.82592
2.78752
2.66795
2.48197
2.2868
2.01838
1.59846
1.23603
0.901406
0.786325
0.781009
0.821103
0.843605
0.795732
0.682852
0.566659
0.483356
0.442622
0.429451
0.421891
0.416885
0.41107
0.402369
0.386932
1.46875
1.47206
1.47547
1.47896
1.4826
1.48633
1.49027
1.49433
1.49867
1.50316
1.50809
1.51312
1.5189
1.52457
1.53158
1.538
1.54655
1.55452
1.56478
1.58635
1.61995
1.66482
1.72106
1.78868
1.8682
1.9598
2.06374
2.17983
2.30836
2.44877
2.60109
2.76409
2.93704
3.1171
3.30261
3.48801
3.67147
3.84137
4.00018
4.1206
4.22465
4.24389
4.20167
4.12137
3.88477
3.54975
2.9966
2.42071
1.91941
1.55224
1.34465
1.2397
1.19558
1.188
1.30162
1.54746
1.73739
1.8415
1.86391
1.71878
1.47232
1.19737
1.00249
0.970107
0.932698
0.908176
0.891307
0.875963
0.833809
8.53493
8.52796
8.52041
8.5116
8.50226
8.49144
8.48018
8.46726
8.45389
8.43884
8.42306
8.40607
8.38724
8.36844
8.34577
8.32124
8.29552
8.26873
8.24198
8.21381
8.18379
8.15095
8.11727
8.07977
8.04095
8.00118
7.95845
7.91218
7.86194
7.8074
7.74822
7.68401
7.61432
7.53875
7.45695
7.36881
7.27457
7.17526
7.07321
6.97152
6.87751
6.80062
6.7448
6.70356
6.66541
6.62716
6.58877
6.5507
6.51282
6.4754
6.43864
6.40241
6.36672
6.33179
6.29769
6.26467
6.23299
6.20303
6.17515
6.14944
6.12563
6.1034
6.08327
6.06555
6.04935
6.03379
6.01835
6.00414
5.99314
0.0296626
0.0296638
0.0296638
0.0296613
0.0296621
0.0296616
0.0296598
0.0296389
0.0296355
0.0296294
0.0296261
0.0296335
0.0296603
0.029673
0.0296516
0.029623
0.0296236
0.0296348
0.0296195
0.0295842
0.029578
0.0295985
0.0295737
0.02957
0.0295338
0.0295097
0.0295244
0.0295231
0.0295191
0.0295204
0.0295027
0.029498
0.0294926
0.0294708
0.029458
0.0294252
0.0294136
0.0294051
0.0293943
0.029385
0.0293464
0.0293368
0.0293158
0.0292779
0.0292663
0.0292419
0.0292127
0.0291962
0.0291899
0.0291858
0.02918
0.0291783
0.0291752
0.0291668
0.0291596
0.0291524
0.0291442
0.0291379
0.0291322
0.0299832
0.0299825
0.0299872
0.0299878
0.0299835
0.0299765
0.0299514
0.0299457
0.0299441
0.0299454
0.029951
0.0299604
0.0299612
0.0299358
0.0299121
0.0299054
0.0299126
0.0299004
0.0298721
0.0298509
0.0298539
0.0298574
0.0298225
0.0298175
0.0297763
0.0297612
0.0297705
0.0297708
0.029757
0.0297503
0.0297396
0.0297332
0.0297229
0.0296981
0.0296863
0.0296608
0.0296387
0.0296295
0.029622
0.0296111
0.0295901
0.0295718
0.0295515
0.0295207
0.0294981
0.0294804
0.0294573
0.029431
0.0294209
0.0294196
0.0294139
0.0294142
0.0294075
0.0294045
0.0294038
0.0293954
0.029393
0.0293877
0.0293849
0.0303576
0.03035
0.0303468
0.0303436
0.0303393
0.0303352
0.0303337
0.0303362
0.0303324
0.0303182
0.0303082
0.0303037
0.0302865
0.0302633
0.0302518
0.0302547
0.030236
0.0302132
0.0301811
0.030172
0.030179
0.0301596
0.0301248
0.0301149
0.0300721
0.030062
0.0300669
0.0300668
0.0300445
0.0300321
0.030026
0.0300162
0.0300017
0.0299758
0.0299621
0.0299412
0.0299158
0.0299005
0.029893
0.0298842
0.0298701
0.0298536
0.0298349
0.0298129
0.0297861
0.0297673
0.0297484
0.0297251
0.0297058
0.0296925
0.0296942
0.0296979
0.0296955
0.0296977
0.02969
0.0296866
0.0296836
0.0296844
0.0296809
0.0308129
0.0308029
0.0307926
0.0307831
0.0307749
0.0307684
0.0307628
0.0307586
0.0307498
0.0307354
0.0307182
0.0307036
0.0306833
0.0306654
0.0306558
0.0306445
0.0306132
0.0305847
0.0305589
0.03056
0.0305531
0.0305198
0.0304865
0.0304697
0.0304272
0.0304202
0.0304215
0.0304161
0.0303875
0.0303713
0.0303663
0.0303526
0.0303352
0.0303092
0.0302922
0.0302732
0.0302488
0.030228
0.0302161
0.0302084
0.0301976
0.0301837
0.0301681
0.0301507
0.0301308
0.0301107
0.0300923
0.0300735
0.0300548
0.030038
0.0300232
0.030025
0.0300298
0.0300361
0.0300407
0.0300452
0.0300494
0.0300535
0.0300556
0.0313437
0.0313297
0.031317
0.031304
0.0312926
0.0312817
0.0312706
0.0312589
0.0312428
0.0312236
0.0312024
0.0311826
0.031162
0.0311428
0.0311246
0.0310983
0.031062
0.0310352
0.031018
0.0310194
0.0309884
0.0309492
0.0309162
0.030892
0.0308509
0.0308448
0.0308405
0.0308289
0.0307951
0.0307759
0.0307693
0.0307518
0.0307317
0.030705
0.0306851
0.0306658
0.0306425
0.0306193
0.0306023
0.0305935
0.0305843
0.0305722
0.0305583
0.0305438
0.0305293
0.0305094
0.0304945
0.0304747
0.0304604
0.0304463
0.0304328
0.0304258
0.0304264
0.0304307
0.030437
0.030445
0.0304532
0.0304624
0.0304691
0.0319653
0.0319479
0.0319335
0.0319173
0.0319017
0.0318853
0.0318678
0.0318486
0.0318263
0.0318026
0.0317778
0.0317535
0.0317282
0.0317014
0.0316718
0.0316365
0.0316009
0.0315767
0.0315603
0.0315464
0.0315035
0.031461
0.0314264
0.0313951
0.0313559
0.031348
0.0313369
0.031318
0.0312798
0.0312576
0.0312477
0.0312262
0.0312031
0.031175
0.0311523
0.0311317
0.031108
0.0310839
0.0310636
0.0310521
0.0310428
0.031032
0.0310194
0.0310063
0.0309929
0.030978
0.0309673
0.030946
0.0309362
0.0309173
0.0309107
0.0308975
0.030898
0.0309
0.0309047
0.0309119
0.0309205
0.030931
0.0309399
0.0326988
0.0326774
0.0326598
0.0326391
0.0326184
0.0325959
0.032572
0.0325461
0.0325182
0.0324892
0.0324589
0.0324275
0.0323939
0.0323578
0.0323199
0.0322811
0.032247
0.0322218
0.0321985
0.0321677
0.0321161
0.0320711
0.0320327
0.0319951
0.0319571
0.0319449
0.0319257
0.031899
0.0318568
0.0318309
0.0318165
0.0317906
0.031764
0.0317337
0.0317084
0.0316855
0.0316607
0.0316353
0.0316132
0.0315983
0.0315876
0.0315772
0.0315658
0.0315538
0.0315416
0.0315289
0.0315169
0.0315035
0.0314935
0.031478
0.0314718
0.0314577
0.0314586
0.0314599
0.0314632
0.0314689
0.0314761
0.0314858
0.0314944
0.0335663
0.0335397
0.0335173
0.0334911
0.0334644
0.0334354
0.0334048
0.0333721
0.0333376
0.0333013
0.0332632
0.0332231
0.0331808
0.0331374
0.0330945
0.033054
0.0330183
0.0329864
0.0329506
0.0329041
0.0328464
0.0327983
0.0327542
0.0327109
0.0326724
0.0326533
0.0326252
0.0325901
0.0325438
0.0325135
0.0324934
0.0324625
0.0324318
0.0323988
0.0323704
0.0323447
0.0323182
0.0322913
0.0322672
0.032249
0.0322358
0.0322248
0.032214
0.032203
0.0321919
0.0321807
0.0321695
0.0321579
0.0321473
0.0321362
0.0321292
0.0321281
0.0321274
0.0321285
0.0321314
0.0321362
0.0321424
0.0321509
0.0321585
0.0345944
0.0345612
0.0345327
0.0345
0.0344663
0.03443
0.0343917
0.0343512
0.0343085
0.0342637
0.0342169
0.0341684
0.034119
0.0340699
0.0340227
0.0339779
0.0339353
0.0338915
0.033841
0.0337815
0.0337189
0.0336657
0.0336144
0.0335654
0.0335239
0.0334957
0.0334577
0.0334138
0.0333628
0.0333271
0.0333001
0.0332637
0.0332281
0.0331917
0.0331596
0.0331305
0.0331017
0.033073
0.0330466
0.0330252
0.033009
0.0329961
0.0329848
0.0329742
0.0329638
0.0329534
0.0329431
0.0329351
0.032929
0.0329241
0.0329217
0.0329216
0.0329227
0.0329253
0.0329291
0.0329344
0.0329407
0.0329491
0.0329562
0.0358167
0.0357756
0.0357399
0.0356994
0.0356576
0.0356129
0.035566
0.0355166
0.0354649
0.0354112
0.035356
0.0352997
0.0352433
0.0351878
0.0351335
0.0350799
0.0350253
0.0349667
0.0349015
0.0348313
0.0347631
0.0347023
0.0346427
0.0345872
0.0345397
0.0345001
0.0344512
0.0343981
0.0343416
0.034299
0.0342639
0.034221
0.0341798
0.0341392
0.0341027
0.0340695
0.0340377
0.0340067
0.0339778
0.0339532
0.0339337
0.0339184
0.0339058
0.0338946
0.0338841
0.0338754
0.0338711
0.0338609
0.0338624
0.0338628
0.033864
0.0338664
0.03387
0.0338748
0.0338806
0.0338876
0.0338952
0.0339044
0.0339121
0.0372777
0.0372273
0.037183
0.0371334
0.0370824
0.0370283
0.0369718
0.0369127
0.0368515
0.0367885
0.0367241
0.036659
0.0365937
0.0365283
0.0364627
0.0363957
0.0363257
0.0362512
0.0361721
0.0360919
0.0360157
0.0359448
0.0358756
0.0358117
0.0357549
0.035702
0.0356411
0.0355779
0.0355145
0.0354635
0.0354192
0.0353686
0.0353208
0.0352749
0.0352331
0.0351952
0.0351596
0.0351256
0.035094
0.0350662
0.0350433
0.035025
0.0350103
0.0349984
0.0349926
0.0349813
0.0349824
0.0349811
0.0349825
0.0349852
0.0349891
0.0349943
0.0350007
0.0350082
0.0350166
0.0350259
0.0350358
0.0350468
0.035056
0.0390362
0.0389749
0.0389204
0.0388605
0.0387988
0.0387339
0.0386664
0.0385963
0.038524
0.0384498
0.0383739
0.0382968
0.0382186
0.0381391
0.0380578
0.0379739
0.0378864
0.0377955
0.0377026
0.0376109
0.0375235
0.0374401
0.0373593
0.0372843
0.0372147
0.0371464
0.0370723
0.0369978
0.0369257
0.0368644
0.0368093
0.0367497
0.036694
0.0366416
0.0365938
0.0365502
0.03651
0.0364723
0.0364374
0.0364063
0.03638
0.0363585
0.0363419
0.0363293
0.0363218
0.0363206
0.0363206
0.0363222
0.0363258
0.036331
0.0363378
0.0363459
0.0363554
0.0363659
0.0363773
0.0363896
0.0364022
0.0364156
0.0364272
0.0411711
0.0410964
0.0410294
0.0409568
0.040882
0.0408037
0.0407226
0.0406386
0.0405519
0.0404627
0.0403713
0.0402777
0.040182
0.0400839
0.0399831
0.0398794
0.0397728
0.0396643
0.0395557
0.0394494
0.0393471
0.0392483
0.039153
0.0390631
0.0389771
0.0388913
0.0388022
0.0387148
0.0386314
0.0385578
0.0384901
0.0384197
0.0383546
0.0382945
0.0382393
0.0381893
0.0381435
0.0381013
0.0380626
0.038028
0.0379982
0.0379737
0.0379549
0.0379413
0.0379383
0.0379364
0.0379375
0.0379411
0.0379469
0.0379548
0.0379645
0.0379758
0.0379885
0.0380024
0.0380173
0.0380328
0.0380486
0.038065
0.0380795
0.0437884
0.0436964
0.0436127
0.0435232
0.043431
0.043335
0.0432356
0.0431327
0.0430265
0.0429171
0.0428046
0.0426892
0.0425708
0.0424495
0.0423254
0.0421987
0.0420702
0.0419411
0.0418131
0.0416879
0.0415662
0.0414482
0.0413341
0.0412248
0.0411185
0.0410128
0.0409062
0.0408031
0.0407054
0.0406169
0.0405344
0.0404511
0.0403749
0.0403053
0.0402417
0.040184
0.0401318
0.0400843
0.0400412
0.0400029
0.0399699
0.0399427
0.0399222
0.0399113
0.0399051
0.039904
0.0399064
0.039912
0.0399203
0.0399311
0.0399441
0.039959
0.0399755
0.0399933
0.0400121
0.0400315
0.040051
0.0400708
0.040089
0.0470392
0.0469229
0.0468153
0.0467019
0.0465851
0.0464641
0.046339
0.0462099
0.0460767
0.0459397
0.045799
0.0456548
0.0455073
0.0453569
0.045204
0.0450493
0.0448936
0.0447384
0.044585
0.0444347
0.0442879
0.044145
0.0440064
0.0438722
0.0437411
0.0436116
0.043484
0.0433617
0.0432457
0.043139
0.0430388
0.0429399
0.0428503
0.0427694
0.0426959
0.0426296
0.04257
0.0425166
0.0424689
0.0424271
0.0423913
0.042362
0.0423399
0.0423268
0.0423244
0.0423244
0.0423291
0.0423376
0.0423496
0.0423645
0.0423821
0.0424019
0.0424235
0.0424466
0.0424707
0.0424953
0.0425201
0.0425446
0.0425679
0.0511543
0.0510024
0.0508588
0.0507097
0.0505564
0.0503985
0.050236
0.0500688
0.0498971
0.0497212
0.0495413
0.0493577
0.049171
0.0489818
0.0487906
0.0485985
0.0484065
0.0482159
0.0480277
0.047843
0.0476624
0.0474863
0.0473151
0.0471487
0.0469864
0.0468278
0.0466738
0.0465268
0.0463872
0.0462579
0.0461363
0.0460185
0.0459128
0.0458185
0.0457336
0.0456578
0.0455905
0.0455311
0.0454793
0.0454348
0.0453977
0.045368
0.0453469
0.0453399
0.0453373
0.0453414
0.0453514
0.0453663
0.0453855
0.0454084
0.0454344
0.0454632
0.0454941
0.0455266
0.0455602
0.0455942
0.0456281
0.0456612
0.0456941
0.0564908
0.0562881
0.0560917
0.0558898
0.0556826
0.0554696
0.0552512
0.0550275
0.0547986
0.054565
0.0543271
0.0540856
0.0538413
0.0535949
0.0533476
0.0531004
0.0528547
0.0526115
0.0523721
0.0521375
0.0519082
0.0516851
0.0514683
0.0512582
0.0510545
0.0508576
0.0506683
0.0504876
0.0503172
0.050159
0.0500107
0.0498696
0.0497442
0.0496343
0.0495368
0.0494511
0.0493766
0.0493128
0.0492591
0.0492151
0.0491806
0.0491569
0.0491472
0.0491448
0.0491526
0.0491693
0.0491938
0.0492251
0.0492622
0.0493042
0.0493503
0.0493998
0.0494519
0.0495056
0.0495603
0.0496149
0.0496688
0.0497211
0.0497741
0.0635043
0.0632425
0.0629788
0.0627097
0.062434
0.0621517
0.0618623
0.0615654
0.0612614
0.0609504
0.0606329
0.0603098
0.0599818
0.0596501
0.0593173
0.0589848
0.0586543
0.0583275
0.058006
0.0576912
0.0573843
0.0570865
0.0567985
0.0565209
0.0562543
0.0559991
0.0557558
0.0555252
0.0553104
0.0551121
0.0549285
0.0547576
0.0546086
0.0544818
0.054373
0.0542811
0.0542054
0.0541455
0.0541009
0.0540714
0.0540577
0.0540534
0.0540668
0.0540945
0.0541355
0.0541886
0.0542525
0.0543256