/*--------------------------------*- C++ -*----------------------------------*\
| =========                 |                                                 |
| \\      /  F ield         | OpenFOAM: The Open Source CFD Toolbox           |
|  \\    /   O peration     | Version:  2312                                  |
|   \\  /    A nd           | Website:  www.openfoam.com                      |
|    \\/     M anipulation  |                                                 |
\*---------------------------------------------------------------------------*/
FoamFile
{
    version     2.0;
    format      ascii;
    arch        "LSB;label=32;scalar=64";
    class       volScalarField;
    location    "800";
    object      p;
}
// * * * * * * * * * * * * * * * * * * * * * * * * * * * * * * * * * * * * * //

dimensions      [0 2 -2 0 0 0 0];

internalField   nonuniform List<scalar> 
76025
(
0.000235106
0.000228713
0.000222231
0.000215726
0.000209107
0.000202591
0.00019558
0.000188752
0.000181757
0.000174774
0.000167698
0.000160555
0.000153335
0.000146084
0.000138836
0.000131346
0.000124112
0.000116568
0.00010917
0.000101685
9.42953e-05
8.67378e-05
7.92041e-05
7.17865e-05
6.43158e-05
5.68982e-05
4.95517e-05
4.19536e-05
3.46774e-05
2.71828e-05
2.00565e-05
1.26969e-05
5.62108e-06
-1.67202e-06
-8.72345e-06
-1.58155e-05
-2.26861e-05
-2.96836e-05
-3.67359e-05
-4.35039e-05
-5.01524e-05
-5.67644e-05
-6.34391e-05
-7.01363e-05
-7.64354e-05
-8.28062e-05
-8.90798e-05
-9.54823e-05
-0.000101488
-0.000107524
-0.00011348
-0.000119305
-0.000125118
-0.000130835
-0.000136304
-0.000141803
-0.000147264
-0.000152795
-0.000158266
-0.000163436
-0.000169
-0.000174614
-0.000179933
-0.000185151
-0.00019053
-0.000196641
-0.000202101
-0.000206113
-0.000210776
0.000238515
0.000231863
0.000225148
0.00021837
0.000211481
0.000204461
0.000197377
0.00019023
0.000182991
0.000175676
0.00016829
0.000160853
0.000153372
0.00014582
0.000138237
0.000130635
0.000122982
0.000115327
0.000107619
9.99553e-05
9.22368e-05
8.45442e-05
7.68656e-05
6.92176e-05
6.15749e-05
5.39353e-05
4.63137e-05
3.87762e-05
3.12801e-05
2.3779e-05
1.63906e-05
8.95182e-06
1.607e-06
-5.65177e-06
-1.28864e-05
-2.00182e-05
-2.71253e-05
-3.41475e-05
-4.10592e-05
-4.79104e-05
-5.46496e-05
-6.13494e-05
-6.79468e-05
-7.44212e-05
-8.08217e-05
-8.71423e-05
-9.33896e-05
-9.9514e-05
-0.000105519
-0.000111447
-0.000117286
-0.000122992
-0.000128574
-0.00013402
-0.00013931
-0.000144514
-0.000149647
-0.000154675
-0.00015962
-0.00016442
-0.000169146
-0.000173833
-0.000178359
-0.000182685
-0.000186889
-0.000190994
-0.000194747
-0.00019772
-0.000201914
0.000242163
0.000235203
0.000228167
0.000221055
0.00021383
0.000206518
0.000199125
0.00019165
0.000184096
0.000176468
0.00016878
0.000161044
0.000153259
0.00014543
0.000137577
0.000129685
0.000121772
0.000113843
0.000105904
9.79631e-05
9.00297e-05
8.21187e-05
7.42222e-05
6.63476e-05
5.84974e-05
5.06744e-05
4.29072e-05
3.51929e-05
2.75158e-05
1.98875e-05
1.2314e-05
4.79167e-06
-2.65366e-06
-1.00218e-05
-1.73256e-05
-2.45447e-05
-3.16851e-05
-3.87278e-05
-4.56864e-05
-5.25671e-05
-5.93439e-05
-6.60232e-05
-7.25975e-05
-7.90784e-05
-8.54665e-05
-9.17408e-05
-9.79041e-05
-0.000103953
-0.000109887
-0.000115695
-0.000121374
-0.000126909
-0.000132292
-0.000137522
-0.000142588
-0.000147502
-0.000152269
-0.000156879
-0.000161326
-0.00016557
-0.000169616
-0.000173447
-0.000176989
-0.000180175
-0.000183009
-0.000185465
-0.000187451
-0.00018867
-0.000191028
0.000245705
0.0002384
0.000231014
0.000223559
0.000216005
0.000208354
0.000200616
0.000192803
0.00018492
0.000176975
0.000168973
0.000160922
0.000152828
0.000144699
0.000136543
0.000128364
0.000120172
0.000111972
0.000103773
9.55817e-05
8.74079e-05
7.92561e-05
7.11309e-05
6.30401e-05
5.49904e-05
4.69866e-05
3.90368e-05
3.11428e-05
2.33086e-05
1.55394e-05
7.83939e-06
2.11478e-07
-7.33914e-06
-1.48039e-05
-2.21791e-05
-2.94633e-05
-3.6654e-05
-4.37481e-05
-5.07449e-05
-5.76401e-05
-6.44263e-05
-7.11028e-05
-7.76702e-05
-8.41278e-05
-9.0469e-05
-9.66875e-05
-0.000102782
-0.00010875
-0.000114581
-0.000120267
-0.000125803
-0.000131177
-0.000136377
-0.000141394
-0.000146218
-0.000150843
-0.000155263
-0.000159461
-0.000163411
-0.000167072
-0.000170408
-0.000173377
-0.000175904
-0.000177908
-0.000179349
-0.000180158
-0.000180346
-0.000179672
-0.000180062
0.000249065
0.000241399
0.000233654
0.000225844
0.000217936
0.000209928
0.000201837
0.000193676
0.000185451
0.000177166
0.000168829
0.000160449
0.000152033
0.000143589
0.000135124
0.000126647
0.000118165
0.000109686
0.000101217
9.27674e-05
8.43435e-05
7.59524e-05
6.76014e-05
5.92971e-05
5.10458e-05
4.28528e-05
3.47239e-05
2.66649e-05
1.86803e-05
1.07736e-05
2.94863e-06
-4.79177e-06
-1.24413e-05
-1.99905e-05
-2.74377e-05
-3.47835e-05
-4.20253e-05
-4.91588e-05
-5.61806e-05
-6.30882e-05
-6.98791e-05
-7.65508e-05
-8.31015e-05
-8.95281e-05
-9.58266e-05
-0.000101992
-0.000108021
-0.000113906
-0.000119639
-0.000125212
-0.000130615
-0.000135836
-0.000140861
-0.000145676
-0.000150266
-0.000154615
-0.000158702
-0.000162497
-0.000165959
-0.000169031
-0.000171653
-0.000173755
-0.000175247
-0.000176037
-0.000176053
-0.000175195
-0.000173547
-0.000170797
-0.000168987
0.000252262
0.000244216
0.000236092
0.000227905
0.000219621
0.000211239
0.000202779
0.000194251
0.000185663
0.000177021
0.000168333
0.000159608
0.000150855
0.000142082
0.000133297
0.000124508
0.000115725
0.000106956
9.82077e-05
8.94898e-05
8.08097e-05
7.21752e-05
6.35934e-05
5.50712e-05
4.66149e-05
3.82307e-05
2.99244e-05
2.17016e-05
1.35666e-05
5.52342e-06
-2.42394e-06
-1.02723e-05
-1.80148e-05
-2.56442e-05
-3.31598e-05
-4.05619e-05
-4.78474e-05
-5.50123e-05
-6.20539e-05
-6.89708e-05
-7.5761e-05
-8.24217e-05
-8.89503e-05
-9.53439e-05
-0.000101599
-0.00010771
-0.000113672
-0.000119478
-0.000125119
-0.000130587
-0.000135868
-0.00014095
-0.000145815
-0.000150445
-0.000154817
-0.000158906
-0.000162676
-0.000166083
-0.000169067
-0.000171557
-0.000173469
-0.000174709
-0.000175169
-0.000174736
-0.000173309
-0.000170771
-0.000167256
-0.000162384
-0.000158743
0.000255241
0.000246792
0.000238267
0.000229681
0.000221001
0.000212225
0.000203373
0.000194459
0.000185489
0.000176472
0.000167416
0.00015833
0.000149224
0.000140107
0.000130988
0.000121876
0.00011278
0.00010371
9.46738e-05
8.56805e-05
7.67383e-05
6.78553e-05
5.90389e-05
5.02965e-05
4.16347e-05
3.30598e-05
2.45778e-05
1.61938e-05
7.91259e-06
-2.61661e-07
-8.32537e-06
-1.62751e-05
-2.41042e-05
-3.1807e-05
-3.9384e-05
-4.68348e-05
-5.41564e-05
-6.13458e-05
-6.8401e-05
-7.53212e-05
-8.21046e-05
-8.8749e-05
-9.5252e-05
-0.000101611
-0.000107821
-0.000113879
-0.000119779
-0.000125513
-0.000131073
-0.000136448
-0.000141624
-0.000146584
-0.00015131
-0.000155776
-0.000159953
-0.000163804
-0.00016728
-0.000170321
-0.000172852
-0.000174782
-0.000176007
-0.00017641
-0.000175857
-0.000174217
-0.00017135
-0.000167143
-0.000161728
-0.000154702
-0.000149236
0.000257943
0.000249067
0.000240118
0.00023111
0.00022201
0.000212818
0.000203554
0.000194233
0.000184863
0.000175452
0.000166009
0.000156546
0.000147071
0.000137595
0.000128129
0.000118681
0.000109262
9.9882e-05
9.05495e-05
8.1274e-05
7.20644e-05
6.2929e-05
5.38759e-05
4.49125e-05
3.60457e-05
2.7282e-05
1.86271e-05
1.00863e-05
1.6642e-06
-6.63517e-06
-1.48088e-05
-2.28527e-05
-3.07605e-05
-3.8529e-05
-4.61592e-05
-5.36503e-05
-6.1e-05
-6.82061e-05
-7.52677e-05
-8.21846e-05
-8.89557e-05
-9.55795e-05
-0.000102054
-0.000108377
-0.000114545
-0.000120555
-0.000126399
-0.000132072
-0.000137564
-0.000142861
-0.00014795
-0.000152811
-0.000157421
-0.00016175
-0.00016576
-0.000169403
-0.000172617
-0.000175327
-0.000177442
-0.000178852
-0.000179433
-0.000179042
-0.000177522
-0.000174713
-0.000170444
-0.000164633
-0.00015736
-0.000148356
-0.000140533
0.00026031
0.000250981
0.000241581
0.000232127
0.000222584
0.000212953
0.000203254
0.000193504
0.000183712
0.000173887
0.00016404
0.000154181
0.000144321
0.000134472
0.000124644
0.000114849
0.000105096
9.53958e-05
8.57591e-05
7.61952e-05
6.67135e-05
5.73228e-05
4.80315e-05
3.88472e-05
2.97769e-05
2.08272e-05
1.20038e-05
3.31177e-06
-5.24456e-06
-1.36615e-05
-2.19366e-05
-3.00656e-05
-3.80426e-05
-4.58672e-05
-5.35407e-05
-6.10624e-05
-6.84306e-05
-7.56446e-05
-8.27048e-05
-8.96117e-05
-9.63653e-05
-0.000102965
-0.00010941
-0.000115698
-0.000121828
-0.000127795
-0.000133593
-0.000139216
-0.000144653
-0.000149892
-0.000154916
-0.000159703
-0.000164227
-0.00016845
-0.000172327
-0.000175799
-0.000178793
-0.00018122
-0.000182973
-0.000183924
-0.000183927
-0.000182812
-0.000180395
-0.000176483
-0.000170886
-0.000163558
-0.000154541
-0.000144194
-0.000135972
0.000262267
0.000252458
0.000242581
0.000232654
0.000222642
0.000212546
0.000202388
0.000192187
0.000181951
0.000171691
0.000161418
0.000151145
0.000140884
0.000130646
0.000120443
0.000110287
0.000100189
9.01602e-05
8.02119e-05
7.03542e-05
6.05967e-05
5.09489e-05
4.14192e-05
3.20155e-05
2.27451e-05
1.36142e-05
4.62855e-06
-4.20716e-06
-1.28889e-05
-2.14137e-05
-2.97796e-05
-3.79821e-05
-4.60173e-05
-5.38867e-05
-6.15921e-05
-6.91331e-05
-7.65095e-05
-8.37222e-05
-9.07729e-05
-9.76634e-05
-0.000104395
-0.000110968
-0.000117382
-0.000123638
-0.000129733
-0.000135663
-0.000141424
-0.000147009
-0.000152409
-0.000157609
-0.000162592
-0.000167333
-0.000171802
-0.000175954
-0.000179738
-0.000183085
-0.000185913
-0.000188119
-0.000189583
-0.000190158
-0.000189675
-0.000187938
-0.00018473
-0.000179826
-0.000173031
-0.000164285
-0.000153646
-0.000142134
-0.000132537
0.000263729
0.00025341
0.000243027
0.000232599
0.00022209
0.000211502
0.00020086
0.000190181
0.000179478
0.000168761
0.000158042
0.000147335
0.000136654
0.00012601
0.000115418
0.000104889
9.44351e-05
8.40694e-05
7.38029e-05
6.36467e-05
5.3611e-05
4.37054e-05
3.39388e-05
2.43193e-05
1.48538e-05
5.54874e-06
-3.59071e-06
-1.25602e-05
-2.13564e-05
-2.9977e-05
-3.84205e-05
-4.66832e-05
-5.47636e-05
-6.26649e-05
-7.03892e-05
-7.79372e-05
-8.53107e-05
-9.25123e-05
-9.95453e-05
-0.000106413
-0.000113117
-0.000119659
-0.000126041
-0.000132264
-0.000138326
-0.000144225
-0.000149958
-0.000155518
-0.000160896
-0.000166078
-0.000171044
-0.000175767
-0.000180212
-0.000184332
-0.000188067
-0.000191344
-0.000194071
-0.000196136
-0.000197404
-0.000197711
-0.000196867
-0.000194647
-0.000190806
-0.000185093
-0.000177328
-0.000167392
-0.000155597
-0.000143263
-0.000133738
0.00026459
0.00025373
0.00024281
0.000231851
0.000220816
0.000209708
0.000198553
0.000187372
0.000176175
0.000164977
0.00015379
0.000142629
0.000131508
0.000120443
0.000109445
9.85303e-05
8.77108e-05
7.69996e-05
6.6409e-05
5.59506e-05
4.56353e-05
3.5473e-05
2.54727e-05
1.56425e-05
5.98942e-06
-3.48071e-06
-1.27631e-05
-2.18541e-05
-3.07513e-05
-3.94539e-05
-4.796e-05
-5.62676e-05
-6.43785e-05
-7.22968e-05
-8.00254e-05
-8.75669e-05
-9.49248e-05
-0.000102104
-0.000109108
-0.000115943
-0.000122611
-0.000129116
-0.00013546
-0.000141647
-0.000147676
-0.000153548
-0.00015926
-0.000164806
-0.000170176
-0.000175357
-0.000180326
-0.000185055
-0.000189507
-0.000193632
-0.000197369
-0.000200638
-0.000203343
-0.000205362
-0.000206548
-0.000206724
-0.00020568
-0.00020316
-0.000198899
-0.000192645
-0.000184244
-0.000173632
-0.000161674
-0.000149064
-0.000136985
0.000264727
0.000253292
0.000241802
0.000230279
0.000218687
0.000207028
0.000195331
0.000183618
0.000171901
0.000160196
0.000148517
0.00013688
0.0001253
0.000113795
0.000102377
9.10636e-05
7.98674e-05
6.88027e-05
5.78827e-05
4.71194e-05
3.65243e-05
2.61076e-05
1.58785e-05
5.84488e-06
-3.98653e-06
-1.36104e-05
-2.30228e-05
-3.22209e-05
-4.12038e-05
-4.99719e-05
-5.85237e-05
-6.68592e-05
-7.49828e-05
-8.29e-05
-9.06148e-05
-9.81317e-05
-0.000105456
-0.000112595
-0.000119555
-0.000126341
-0.000132959
-0.000139415
-0.000145714
-0.000151859
-0.000157854
-0.000163699
-0.000169391
-0.000174927
-0.000180295
-0.000185483
-0.000190468
-0.000195223
-0.00019971
-0.00020388
-0.000207671
-0.000211003
-0.000213774
-0.000215859
-0.000217101
-0.000217315
-0.000216269
-0.000213682
-0.00020928
-0.00020284
-0.000194216
-0.000183567
-0.000172031
-0.00016014
-0.000151539
0.000263983
0.000251939
0.000239843
0.000227722
0.000215537
0.000203295
0.000191024
0.000178748
0.000166483
0.000154243
0.000142046
0.000129909
0.00011785
0.000105886
9.40321e-05
8.23057e-05
7.07219e-05
5.92957e-05
4.80409e-05
3.69704e-05
2.6096e-05
1.54282e-05
4.97629e-06
-5.25215e-06
-1.52509e-05
-2.50153e-05
-3.45423e-05
-4.38307e-05
-5.28812e-05
-6.16942e-05
-7.02692e-05
-7.86092e-05
-8.67209e-05
-9.46109e-05
-0.000102285
-0.000109751
-0.000117016
-0.00012409
-0.000130981
-0.000137698
-0.000144248
-0.00015064
-0.000156879
-0.000162972
-0.00016892
-0.000174727
-0.000180391
-0.000185907
-0.000191268
-0.000196461
-0.000201468
-0.000206262
-0.000210809
-0.000215062
-0.000218962
-0.000222429
-0.000225366
-0.000227643
-0.000229104
-0.000229558
-0.000228755
-0.0002264
-0.000222258
-0.000216122
-0.000207856
-0.000197749
-0.000186288
-0.00017396
-0.000162669
0.000262164
0.000249472
0.000236731
0.000223973
0.00021116
0.000198298
0.000185418
0.000172546
0.000159699
0.000146895
0.000134152
0.000121489
0.000108926
9.64817e-05
8.41734e-05
7.2019e-05
6.00352e-05
4.8238e-05
3.66422e-05
2.52616e-05
1.41084e-05
3.19343e-06
-7.47399e-06
-1.78864e-05
-2.80381e-05
-3.79251e-05
-4.75456e-05
-5.68999e-05
-6.59899e-05
-7.48156e-05
-8.3379e-05
-9.16873e-05
-9.97495e-05
-0.000107574
-0.00011517
-0.000122548
-0.00012972
-0.000136697
-0.00014349
-0.000150109
-0.000156565
-0.000162865
-0.000169018
-0.000175031
-0.000180907
-0.000186651
-0.000192261
-0.000197738
-0.000203075
-0.000208262
-0.000213286
-0.000218125
-0.000222749
-0.000227119
-0.000231178
-0.000234857
-0.000238063
-0.000240675
-0.00024254
-0.000243475
-0.000243224
-0.000241528
-0.000238197
-0.000232963
-0.000225698
-0.000216459
-0.000205443
-0.000193391
-0.000179794
0.000259011
0.000245628
0.000232199
0.000218761
0.000205276
0.000191752
0.000178223
0.000164715
0.000151249
0.000137845
0.000124522
0.000111302
9.82073e-05
8.52572e-05
7.24719e-05
5.98707e-05
4.7472e-05
3.52934e-05
2.33508e-05
1.16591e-05
2.31328e-07
-1.09211e-05
-2.17887e-05
-3.23642e-05
-4.26423e-05
-5.26201e-05
-6.22972e-05
-7.16759e-05
-8.07583e-05
-8.95466e-05
-9.80484e-05
-0.000106275
-0.000114236
-0.000121946
-0.000129416
-0.00013666
-0.000143692
-0.000150527
-0.000157176
-0.000163653
-0.000169969
-0.000176133
-0.000182156
-0.000188045
-0.000193807
-0.000199447
-0.000204968
-0.000210372
-0.000215655
-0.000220815
-0.000225841
-0.000230718
-0.000235426
-0.000239934
-0.000244198
-0.000248159
-0.000251742
-0.000254844
-0.000257332
-0.00025906
-0.00025979
-0.000259309
-0.00025733
-0.000253447
-0.000247377
-0.000239007
-0.000228654
-0.000217133
-0.000205692
0.000254146
0.00024002
0.000225848
0.000211675
0.000197465
0.000183228
0.000168999
0.000154807
0.000140677
0.000126629
0.000112687
9.88754e-05
8.52173e-05
7.1736e-05
5.84536e-05
4.53918e-05
3.25709e-05
2.00102e-05
7.72736e-06
-4.26168e-06
-1.59429e-05
-2.73046e-05
-3.83373e-05
-4.90341e-05
-5.93909e-05
-6.94064e-05
-7.90824e-05
-8.8423e-05
-9.74319e-05
-0.000106117
-0.000114491
-0.000122567
-0.00013036
-0.000137885
-0.00014516
-0.000152201
-0.000159026
-0.00016565
-0.00017209
-0.000178359
-0.000184471
-0.000190438
-0.000196271
-0.00020198
-0.000207573
-0.000213058
-0.00021844
-0.000223724
-0.000228912
-0.000234006
-0.000239003
-0.000243897
-0.000248678
-0.000253331
-0.000257828
-0.000262136
-0.000266213
-0.000269997
-0.000273403
-0.000276339
-0.000278549
-0.000279727
-0.000279301
-0.00027679
-0.000271797
-0.000264173
-0.000254031
-0.000242383
-0.000230757
0.000246896
0.000231961
0.000216983
0.000202015
0.000187025
0.000172022
0.000157045
0.000142126
0.000127292
0.000112569
9.79816e-05
8.35578e-05
6.9324e-05
5.53059e-05
4.15283e-05
2.80151e-05
1.47888e-05
1.87033e-06
-1.0721e-05
-2.29683e-05
-3.48568e-05
-4.63746e-05
-5.75127e-05
-6.8265e-05
-7.86288e-05
-8.86049e-05
-9.81978e-05
-0.000107413
-0.000116259
-0.000124749
-0.000132899
-0.000140728
-0.000148253
-0.000155497
-0.00016248
-0.000169223
-0.000175748
-0.000182073
-0.000188218
-0.000194198
-0.000200029
-0.000205725
-0.000211298
-0.000216758
-0.000222117
-0.000227382
-0.000232564
-0.00023767
-0.000242707
-0.000247682
-0.000252601
-0.000257468
-0.000262289
-0.000267071
-0.000271824
-0.000276556
-0.000281297
-0.000286037
-0.000290741
-0.000295237
-0.000299146
-0.00030185
-0.000302787
-0.000301441
-0.000297258
-0.000289901
-0.000279647
-0.000267956
-0.000256876
0.000236211
0.000220418
0.000204591
0.0001888
0.000173007
0.000157221
0.000141484
0.000125832
0.000110294
9.48989e-05
7.96762e-05
6.46559e-05
4.98678e-05
3.53406e-05
2.11017e-05
7.17754e-06
-6.40712e-06
-1.96294e-05
-3.24684e-05
-4.49059e-05
-5.69265e-05
-6.85182e-05
-7.96721e-05
-9.03833e-05
-0.000100651
-0.000110479
-0.000119873
-0.000128843
-0.000137403
-0.000145572
-0.00015337
-0.000160823
-0.000167955
-0.000174793
-0.000181364
-0.000187695
-0.000193811
-0.000199734
-0.000205487
-0.000211087
-0.000216551
-0.000221893
-0.000227125
-0.00023226
-0.000237308
-0.000242281
-0.000247189
-0.000252043
-0.000256856
-0.000261639
-0.000266407
-0.000271181
-0.000275998
-0.000280905
-0.000285975
-0.000291278
-0.000296926
-0.000302889
-0.00030903
-0.000314925
-0.000320063
-0.000323897
-0.000325877
-0.000325156
-0.000321207
-0.000313801
-0.000303591
-0.000292523
-0.000282767
0.000221247
0.000204591
0.000187911
0.000171304
0.000154723
0.000138172
0.000121698
0.000105339
8.91299e-05
7.31011e-05
5.72858e-05
4.17174e-05
2.6428e-05
1.14492e-05
-3.18871e-06
-1.74564e-05
-3.13267e-05
-4.47742e-05
-5.77763e-05
-7.03129e-05
-8.23676e-05
-9.39278e-05
-0.000104985
-0.000115536
-0.000125582
-0.000135128
-0.000144186
-0.000152768
-0.000160895
-0.000168593
-0.000175891
-0.000182819
-0.000189411
-0.000195703
-0.000201727
-0.000207518
-0.000213105
-0.000218515
-0.000223772
-0.000228895
-0.000233902
-0.000238804
-0.000243613
-0.00024834
-0.000252994
-0.000257587
-0.000262129
-0.000266634
-0.00027112
-0.000275612
-0.000280148
-0.000284783
-0.000289609
-0.00029472
-0.000300245
-0.000306285
-0.000312876
-0.000319849
-0.00032682
-0.000333405
-0.000339303
-0.000343851
-0.000346078
-0.000345368
-0.000341319
-0.000333891
-0.000324266
-0.000314475
-0.000306609
0.000202293
0.000184783
0.000167254
0.00014984
0.00013248
0.000115176
9.79762e-05
8.09256e-05
6.40614e-05
4.74185e-05
3.10332e-05
1.49421e-05
-8.1876e-07
-1.62145e-05
-3.1211e-05
-4.57754e-05
-5.98772e-05
-7.34881e-05
-8.65827e-05
-9.9139e-05
-0.00011114
-0.000122571
-0.000133426
-0.000143701
-0.000153399
-0.000162529
-0.000171105
-0.000179147
-0.000186683
-0.000193748
-0.000200379
-0.000206618
-0.000212509
-0.000218098
-0.000223427
-0.000228538
-0.000233466
-0.000238244
-0.000242898
-0.000247448
-0.000251908
-0.000256287
-0.000260594
-0.000264832
-0.000269007
-0.000273125
-0.000277196
-0.000281242
-0.000285301
-0.000289432
-0.000293722
-0.000298262
-0.000303188
-0.000308582
-0.000314523
-0.000321026
-0.000327927
-0.000334965
-0.000342012
-0.000348899
-0.000354852
-0.000359063
-0.00036101
-0.000360113
-0.00035589
-0.000348882
-0.000340401
-0.000332363
-0.000326833
0.000181002
0.000162576
0.000144142
0.000125863
0.000107665
8.95478e-05
7.15622e-05
5.3759e-05
3.6179e-05
1.88617e-05
1.84809e-06
-1.48203e-05
-3.11027e-05
-4.69591e-05
-6.23504e-05
-7.72391e-05
-9.15901e-05
-0.000105371
-0.000118552
-0.000131107
-0.000143018
-0.000154267
-0.000164847
-0.000174754
-0.000183997
-0.000192587
-0.000200542
-0.000207892
-0.000214673
-0.000220931
-0.000226716
-0.000232084
-0.000237094
-0.000241804
-0.000246272
-0.000250548
-0.000254677
-0.000258697
-0.000262634
-0.000266507
-0.000270324
-0.000274086
-0.000277793
-0.000281448
-0.00028506
-0.000288644
-0.000292221
-0.00029583
-0.000299524
-0.000303386
-0.00030751
-0.000311974
-0.000316834
-0.00032209
-0.000327747
-0.000333756
-0.000340057
-0.000346663
-0.000353274
-0.000359251
-0.000364301
-0.000368239
-0.00037004
-0.00036873
-0.000364496
-0.000358278
-0.000351331
-0.000345389
-0.000342043
0.000158942
0.000139458
0.000119971
0.000100672
8.14808e-05
6.23941e-05
4.34697e-05
2.47632e-05
6.32063e-06
-1.18135e-05
-2.9593e-05
-4.69708e-05
-6.39001e-05
-8.03346e-05
-9.62287e-05
-0.000111539
-0.000126224
-0.000140244
-0.000153564
-0.000166153
-0.000177984
-0.000189037
-0.000199302
-0.000208777
-0.000217469
-0.000225392
-0.000232574
-0.000239057
-0.000244889
-0.00025013
-0.000254851
-0.000259125
-0.000263033
-0.000266652
-0.00027006
-0.000273323
-0.000276498
-0.000279623
-0.000282722
-0.000285801
-0.000288856
-0.000291876
-0.00029486
-0.000297828
-0.000300822
-0.000303912
-0.000307156
-0.000310592
-0.000314201
-0.000317939
-0.000321744
-0.000325643
-0.000329664
-0.000333842
-0.000338334
-0.000343277
-0.000348582
-0.000353759
-0.000358613
-0.000363772
-0.000368989
-0.000372701
-0.000373637
-0.000371816
-0.000367934
-0.000362855
-0.000357768
-0.000354074
-0.000352891
0.000138422
0.000117584
9.67823e-05
7.61965e-05
5.57437e-05
3.54259e-05
1.5306e-05
-4.55447e-06
-2.41037e-05
-4.32914e-05
-6.20651e-05
-8.03708e-05
-9.81545e-05
-0.000115362
-0.000131942
-0.00014784
-0.000163009
-0.0001774
-0.00019097
-0.000203679
-0.000215493
-0.000226388
-0.00023635
-0.000245374
-0.000253466
-0.000260644
-0.000266942
-0.000272409
-0.000277113
-0.000281134
-0.000284564
-0.000287505
-0.000290066
-0.000292355
-0.000294473
-0.000296513
-0.000298547
-0.000300629
-0.000302788
-0.000305033
-0.000307354
-0.000309733
-0.000312147
-0.000314599
-0.000317099
-0.000319726
-0.000322557
-0.000325634
-0.000328928
-0.000332234
-0.000335255
-0.000337885
-0.000340372
-0.000343188
-0.000346355
-0.000349305
-0.000352055
-0.000355601
-0.000360595
-0.000366143
-0.000370557
-0.000372909
-0.000373078
-0.000371313
-0.00036813
-0.000364339
-0.000360956
-0.000359128
-0.000359785
0.000117824
9.54453e-05
7.30538e-05
5.08928e-05
2.88845e-05
7.03287e-06
-1.45907e-05
-3.59157e-05
-5.68819e-05
-7.74304e-05
-9.74997e-05
-0.000117027
-0.000135947
-0.000154197
-0.000171712
-0.000188431
-0.000204292
-0.000219234
-0.0002332
-0.000246134
-0.000257985
-0.000268716
-0.000278301
-0.00028673
-0.000294013
-0.000300177
-0.000305267
-0.000309347
-0.000312501
-0.000314833
-0.000316466
-0.000317542
-0.000318212
-0.000318636
-0.000318973
-0.000319373
-0.000319969
-0.000320868
-0.000322134
-0.000323793
-0.000325808
-0.000328108
-0.000330558
-0.00033301
-0.000335287
-0.000337303
-0.000339057
-0.000340611
-0.000342348
-0.000344579
-0.000346925
-0.000348437
-0.000348768
-0.000349057
-0.000349746
-0.000350699
-0.00035322
-0.00035749
-0.000362066
-0.000366068
-0.000369068
-0.00037065
-0.000370634
-0.000369161
-0.000366702
-0.000363984
-0.000361877
-0.000361325
-0.000363131
0.000104577
8.00632e-05
5.5725e-05
3.16312e-05
7.7066e-06
-1.60271e-05
-3.94896e-05
-6.2604e-05
-8.53036e-05
-0.000107522
-0.000129188
-0.000150229
-0.000170572
-0.00019014
-0.000208862
-0.000226666
-0.000243487
-0.000259261
-0.000273921
-0.000287393
-0.000299608
-0.000310503
-0.000320025
-0.000328138
-0.000334834
-0.000340131
-0.000344077
-0.000346749
-0.000348256
-0.000348737
-0.000348369
-0.000347361
-0.000345948
-0.000344383
-0.000342919
-0.000341783
-0.000341158
-0.000341149
-0.000341765
-0.000342918
-0.000344449
-0.000346175
-0.000347985
-0.000349852
-0.000351817
-0.000353734
-0.000355024
-0.000355054
-0.000354183
-0.000353793
-0.000354431
-0.00035452
-0.00035263
-0.000350934
-0.000351575
-0.000353487
-0.000355748
-0.00035844
-0.000361555
-0.000364504
-0.000366674
-0.000367701
-0.000367481
-0.000366156
-0.00036413
-0.000362054
-0.000360712
-0.000360913
-0.000363266
7.78055e-05
5.12743e-05
2.45886e-05
-1.86404e-06
-2.81323e-05
-5.42013e-05
-7.99797e-05
-0.000105376
-0.000130307
-0.000154693
-0.000178445
-0.000201476
-0.000223692
-0.000244999
-0.000265298
-0.000284491
-0.000302473
-0.000319128
-0.0003343
-0.000347868
-0.000359806
-0.000370085
-0.000378651
-0.000385465
-0.000390516
-0.000393828
-0.00039547
-0.000395555
-0.00039424
-0.000391728
-0.000388265
-0.000384138
-0.000379666
-0.000375188
-0.00037104
-0.00036753
-0.000364901
-0.000363288
-0.000362679
-0.000362878
-0.000363504
-0.000364016
-0.00036392
-0.000363117
-0.000362278
-0.000362243
-0.000362906
-0.000362938
-0.000361122
-0.00035825
-0.000356607
-0.000356562
-0.000356562
-0.000355944
-0.000355227
-0.000355366
-0.00035665
-0.000358659
-0.000360937
-0.000362967
-0.000364241
-0.000364432
-0.000363508
-0.000361656
-0.000359251
-0.000356925
-0.000355508
-0.000355851
-0.000358522
7.02193e-05
4.14712e-05
1.32055e-05
-1.5053e-05
-4.32476e-05
-7.12089e-05
-9.88237e-05
-0.00012601
-0.000152686
-0.000178764
-0.000204149
-0.000228744
-0.000252448
-0.000275165
-0.000296809
-0.000317321
-0.000336693
-0.000355
-0.000372024
-0.00038726
-0.000400425
-0.00041148
-0.000420436
-0.000427245
-0.000431843
-0.000434184
-0.000434269
-0.000432154
-0.000427974
-0.00042197
-0.000414491
-0.000406014
-0.000397127
-0.000388517
-0.000380907
-0.000374981
-0.000371258
-0.00036996
-0.000370902
-0.000373426
-0.000376447
-0.000378641
-0.000378611
-0.000375346
-0.000369812
-0.000364858
-0.000362593
-0.000362825
-0.000363664
-0.000363606
-0.000362105
-0.000360071
-0.000358643
-0.000357926
-0.000357601
-0.000357634
-0.000358082
-0.000358938
-0.000360056
-0.000361064
-0.000361403
-0.000360576
-0.000358463
-0.000355261
-0.000351422
-0.000347747
-0.000345308
-0.000345005
-0.000347057
-6.89381e-06
-3.81359e-05
-6.9498e-05
-0.00010051
-0.000131219
-0.000161678
-0.000191779
-0.00022137
-0.00025033
-0.000278563
-0.000305954
-0.000332372
-0.000357663
-0.000381658
-0.00040417
-0.000424974
-0.00044381
-0.000460351
-0.000474606
-0.000486885
-0.000497195
-0.000505271
-0.000510858
-0.00051382
-0.000514111
-0.000511714
-0.000506642
-0.000498966
-0.00048886
-0.000476626
-0.000462705
-0.000447679
-0.000432244
-0.000417182
-0.000403314
-0.000391429
-0.000382192
-0.000376026
-0.00037301
-0.000372801
-0.000374621
-0.000377297
-0.000379432
-0.000380024
-0.000378547
-0.000375199
-0.000370894
-0.000366943
-0.000364345
-0.000362788
-0.000361531
-0.000360434
-0.000359658
-0.000359241
-0.000359052
-0.000359032
-0.000359136
-0.000359327
-0.000359535
-0.000359593
-0.000359217
-0.000357984
-0.000355407
-0.000351357
-0.000346431
-0.000341758
-0.000338432
-0.00033697
-0.000337604
5.81905e-05
6.56952e-05
7.35699e-05
8.18984e-05
9.07814e-05
0.000100254
0.000110372
0.000120954
0.000132003
0.000143658
0.000155893
0.000168706
0.000181734
0.000195892
0.000209503
0.000223975
0.000237889
0.000252479
0.000266833
0.000281006
0.000295936
0.000309248
0.000322328
0.000334512
0.000345973
0.00035664
0.000365812
0.000373894
0.000380979
0.000386457
0.000390314
0.000392823
0.000394163
0.000394407
0.000392873
0.000390283
0.000386748
0.000382048
0.00037651
0.000370456
0.000363623
0.000356256
0.000348882
0.000341635
0.000333316
0.000325649
0.000317462
0.000309636
0.000301942
0.000294439
0.000287271
0.000280343
0.000273848
0.000267488
0.000261673
0.000255745
0.000250325
0.000245267
0.000240582
5.59784e-05
6.37078e-05
7.19668e-05
8.07403e-05
9.00656e-05
9.99565e-05
0.000110437
0.000121475
0.000133095
0.000145294
0.000158039
0.000171338
0.000185096
0.000199373
0.000213993
0.000228827
0.000243889
0.000258994
0.000274172
0.000289021
0.000303877
0.000318205
0.000331834
0.000344655
0.000356567
0.000367519
0.000377251
0.000385631
0.000392848
0.000398511
0.000402482
0.00040513
0.000406432
0.000406331
0.000404774
0.000401975
0.000398113
0.000393243
0.00038743
0.000380894
0.000373766
0.000366158
0.000358247
0.00035003
0.000341664
0.000333299
0.000324961
0.000316775
0.00030873
0.000300883
0.000293321
0.000286053
0.000279048
0.00027241
0.000266065
0.000260093
0.000254471
0.000249186
0.000244216
5.3442e-05
6.15254e-05
7.01346e-05
7.93055e-05
8.90562e-05
9.94021e-05
0.000110345
0.000121883
0.000134033
0.000146795
0.000160131
0.000174007
0.000188398
0.000203259
0.000218499
0.000234106
0.000249911
0.000265809
0.000281645
0.000297275
0.000312647
0.000327569
0.000341862
0.000355302
0.000367786
0.000379171
0.000389297
0.000398082
0.000405505
0.000411315
0.000415518
0.000418223
0.000419417
0.000419135
0.000417409
0.000414404
0.000410225
0.000405031
0.000398896
0.000392005
0.000384484
0.0003764
0.000367936
0.000359253
0.000350437
0.000341628
0.000332861
0.000324222
0.000315768
0.000307539
0.000299594
0.000291941
0.000284607
0.00027761
0.000270995
0.000264753
0.00025886
0.000253319
0.00024812
5.0527e-05
5.8974e-05
6.79731e-05
7.75545e-05
8.7742e-05
9.8553e-05
0.000109995
0.000122073
0.000134788
0.000148138
0.000162097
0.000176634
0.000191714
0.000207276
0.000223234
0.000239548
0.000256067
0.000272707
0.000289287
0.000305706
0.000321813
0.000337386
0.000352314
0.000366374
0.000379438
0.000391329
0.000401886
0.000411043
0.000418718
0.000424724
0.000429095
0.000431837
0.00043297
0.000432576
0.000430671
0.000427423
0.000422933
0.000417355
0.000410814
0.000403482
0.000395479
0.00038692
0.000377989
0.000368847
0.000359546
0.000350234
0.000340975
0.000331853
0.000322941
0.000314283
0.000305923
0.00029789
0.00029021
0.000282893
0.000275956
0.000269396
0.000263207
0.000257392
0.000251948
4.71489e-05
5.59807e-05
6.53939e-05
7.54173e-05
8.60752e-05
9.7385e-05
0.000109359
0.000122003
0.000135318
0.000149294
0.000163912
0.00017914
0.000194937
0.000211239
0.000227969
0.000245043
0.000262343
0.000279761
0.000297139
0.000314347
0.000331215
0.000347526
0.000363136
0.000377844
0.000391498
0.000403923
0.00041495
0.000424481
0.000432434
0.000438658
0.000443163
0.000445943
0.000447034
0.000446518
0.000444424
0.000440907
0.000436086
0.000430111
0.00042313
0.00041531
0.0004068
0.000397746
0.000388309
0.000378632
0.000368808
0.000358965
0.000349195
0.000339579
0.000330186
0.00032107
0.000312272
0.000303826
0.000295755
0.000288073
0.000280787
0.000273901
0.000267412
0.000261318
0.000255614
4.32365e-05
5.24776e-05
6.23294e-05
7.28222e-05
8.39814e-05
9.58248e-05
0.000108366
0.000121611
0.00013556
0.000150204
0.000165521
0.000181479
0.000198033
0.00021512
0.000232662
0.000250563
0.000268708
0.000286966
0.000305189
0.00032322
0.000340885
0.000357982
0.00037433
0.000389731
0.000404012
0.000416997
0.000428518
0.00043845
0.000446704
0.000453156