/*--------------------------------*- C++ -*----------------------------------*\
| =========                 |                                                 |
| \\      /  F ield         | OpenFOAM: The Open Source CFD Toolbox           |
|  \\    /   O peration     | Version:  2312                                  |
|   \\  /    A nd           | Website:  www.openfoam.com                      |
|    \\/     M anipulation  |                                                 |
\*---------------------------------------------------------------------------*/
FoamFile
{
    version     2.0;
    format      ascii;
    arch        "LSB;label=32;scalar=64";
    class       surfaceScalarField;
    location    "800";
    object      phi;
}
// * * * * * * * * * * * * * * * * * * * * * * * * * * * * * * * * * * * * * //

dimensions      [0 3 -1 0 0 0 0];

oriented        oriented;

internalField   nonuniform List<scalar> 
116611
(
0.00105226
0.000406228
-0.00103644
-0.000422042
0.00106794
0.000401638
-0.000417318
0.00108344
0.000396684
-0.000412192
0.00109879
0.000391348
-0.000406699
0.00111386
0.000385611
-0.000400677
0.00112899
0.000379458
-0.000394584
0.00114367
0.000372897
-0.000387576
0.00115831
0.000365899
-0.000380539
0.00117262
0.000358443
-0.000372756
0.00118673
0.000350517
-0.000364622
0.00120056
0.000342103
-0.000355934
0.00121419
0.000333198
-0.000346831
0.00122754
0.000323806
-0.000337162
0.00124058
0.000313868
-0.000326907
0.00125342
0.000303415
-0.000316254
0.00126573
0.000292406
-0.000304713
0.00127795
0.000280798
-0.000293015
0.00128964
0.000268641
-0.000280337
0.00130107
0.000255816
-0.000267243
0.00131201
0.000242439
-0.000253377
0.00132267
0.000228355
-0.000239022
0.00133287
0.000213658
-0.000223852
0.00134258
0.000198266
-0.000207975
0.0013519
0.000182213
-0.000191536
0.00136073
0.000165454
-0.000174281
0.00136904
0.000147953
-0.000156269
0.00137692
0.000129682
-0.00013756
0.00138407
0.000110698
-0.000117846
0.00139089
9.09396e-05
-9.77634e-05
0.0013969
7.03296e-05
-7.63383e-05
0.0014025
4.90193e-05
-5.46144e-05
0.00140721
2.67527e-05
-3.1466e-05
0.00141149
3.68894e-06
-7.96833e-06
0.00141493
-2.02129e-05
1.67702e-05
0.0014178
-4.50606e-05
4.21965e-05
0.00141983
-7.07338e-05
6.87004e-05
0.00142123
-9.73832e-05
9.59852e-05
0.00142182
-0.000124957
0.000124368
0.00142149
-0.000153449
0.000153776
0.00142035
-0.000182945
0.000184089
0.00141837
-0.000213355
0.00021533
0.00141555
-0.000244798
0.000247621
0.00141179
-0.000277233
0.000280989
0.001407
-0.00031064
0.000315437
0.00140135
-0.000345098
0.000350746
0.00139465
-0.000380574
0.000387274
0.00138698
-0.000417141
0.000424804
0.00137815
-0.000454739
0.000463569
0.00136835
-0.000493408
0.00050321
0.00135742
-0.000533191
0.000544124
0.00134537
-0.000574128
0.000586175
0.00133219
-0.000616221
0.000629402
0.00131781
-0.000659532
0.000673909
0.00130227
-0.000704127
0.000719673
0.0012857
-0.000750074
0.000766644
0.00126808
-0.000797564
0.000815183
0.0012495
-0.0008468
0.000865373
0.00122991
-0.000897907
0.000917501
0.00120906
-0.00095103
0.000971883
0.00118682
-0.00100604
0.00102827
0.0011626
-0.00106278
0.00108701
0.00113606
-0.00112094
0.00114748
0.00110673
-0.00118012
0.00120944
0.00107412
-0.00123994
0.00127256
0.00103798
-0.00130008
0.00133622
0.000997718
-0.00136024
0.0014005
0.000952718
-0.00142005
0.00146505
0.000903212
-0.00147794
0.00152744
-0.00153202
0.000849336
0.0015859
0.00103503
0.000390479
-0.00101928
0.00105063
0.000386038
0.00106607
0.000381241
0.00108135
0.000376074
0.00109645
0.000370504
0.00111137
0.000364547
0.00112608
0.000358183
0.00114059
0.000351393
0.00115486
0.000344167
0.0011689
0.000336481
0.00118268
0.000328325
0.00119618
0.00031969
0.00120943
0.000310557
0.00122239
0.000300911
0.00123504
0.000290759
0.0012474
0.000280056
0.00125939
0.000268801
0.00127106
0.00025697
0.00128233
0.00024455
0.00129325
0.000231521
0.00130374
0.000217867
0.00131381
0.000203582
0.00132344
0.000188639
0.00133262
0.000173031
0.00134134
0.000156737
0.00134957
0.000139722
0.00135726
0.000121994
0.00136442
0.000103535
0.00137104
8.4316e-05
0.00137704
6.43281e-05
0.00138251
4.35528e-05
0.00138731
2.19553e-05
0.00139146
-4.59691e-07
0.00139496
-2.37121e-05
0.00139773
-4.78364e-05
0.00139982
-7.28273e-05
0.00140116
-9.87206e-05
0.00140172
-0.000125511
0.00140149
-0.000153222
0.00140042
-0.000181879
0.00139854
-0.000211472
0.00139577
-0.000242029
0.00139209
-0.000273552
0.00138751
-0.000306058
0.00138198
-0.000339568
0.00137548
-0.000374081
0.00136797
-0.000409624
0.00135943
-0.0004462
0.00134985
-0.000483834
0.00133921
-0.000522547
0.00132747
-0.000562383
0.00131462
-0.000603379
0.00130069
-0.0006456
0.0012857
-0.000689138
0.00126973
-0.0007341
0.00125279
-0.000780627
0.00123485
-0.000828856
0.00121578
-0.000878841
0.00119531
-0.000930557
0.00117309
-0.000983814
0.00114866
-0.00103836
0.00112161
-0.00109388
0.00109152
-0.00115003
0.00105807
-0.00120649
0.00102096
-0.00126297
0.000979912
-0.0013192
0.000934502
-0.00137464
0.000884568
-0.001428
-0.00147728
0.000829823
0.00101828
0.000374844
-0.00100265
0.00103379
0.000370534
0.00104915
0.000365879
0.00106436
0.000360867
0.00107938
0.00035548
0.00109422
0.00034971
0.00110886
0.000343541
0.00112329
0.000336961
0.0011375
0.000329956
0.00115147
0.000322511
0.00116519
0.000314612
0.00117863
0.000306244
0.00119179
0.000297393
0.00120466
0.000288045
0.00121723
0.000278189
0.00122948
0.000267807
0.0012414
0.000256885
0.00125296
0.000245406
0.00126416
0.000233353
0.00127497
0.000220711
0.00128537
0.000207464
0.00129535
0.000193597
0.0013049
0.000179093
0.001314
0.000163936
0.00132262
0.000148111
0.00133075
0.000131596
0.00133836
0.000114381
0.00134545
9.64468e-05
0.00135199
7.77784e-05
0.00135796
5.83586e-05
0.00136334
3.81702e-05
0.0013681
1.71959e-05
0.00137222
-4.58092e-06
0.00137569
-2.71802e-05
0.00137847
-5.06174e-05
0.00138055
-7.49073e-05
0.00138189
-0.000100065
0.00138249
-0.000126103
0.0013823
-0.000153039
0.00138131
-0.000180886
0.00137949
-0.000209653
0.00137682
-0.000239353
0.00137327
-0.00027
0.00136881
-0.000301606
0.00136343
-0.000334183
0.00135709
-0.000367743
0.00134977
-0.000402303
0.00134145
-0.00043788
0.00133211
-0.000474494
0.00132174
-0.000512177
0.00131033
-0.000550976
0.0012979
-0.00059095
0.00128448
-0.000632176
0.00127009
-0.000674752
0.00125477
-0.000718775
0.00123847
-0.000764334
0.00122109
-0.00081147
0.00120238
-0.000860137
0.00118202
-0.000910196
0.00115962
-0.000961413
0.00113477
-0.00101351
0.0011071
-0.00106621
0.00107628
-0.00111921
0.00104206
-0.00117227
0.0010042
-0.00122512
0.000962467
-0.00127746
0.000916487
-0.00132866
0.000865756
-0.00137727
-0.00142025
0.000808727
0.00100211
0.000359308
-0.000986571
0.00101751
0.00035513
0.00103277
0.000350617
0.00104788
0.000345759
0.00106282
0.000340543
0.00107757
0.000334954
0.00109213
0.000328981
0.00110648
0.00032261
0.00112061
0.000315827
0.00113451
0.000308619
0.00114815
0.000300971
0.00116152
0.000292869
0.00117461
0.0002843
0.00118741
0.000275248
0.0011999
0.000265699
0.00121207
0.000255639
0.0012239
0.000245053
0.00123538
0.000233926
0.00124649
0.000222241
0.00125722
0.000209984
0.00126755
0.000197139
0.00127745
0.000183691
0.00128692
0.000169622
0.00129594
0.000154918
0.00130449
0.000139563
0.00131254
0.000123539
0.00132009
0.000106831
0.00132712
8.94235e-05
0.0013336
7.13005e-05
0.00133951
5.24453e-05
0.00134484
3.28422e-05
0.00134956
1.24751e-05
0.00135365
-8.67443e-06
0.0013571
-3.0625e-05
0.00135987
-5.33903e-05
0.00136195
-7.69857e-05
0.00136331
-0.000101425
0.00136393
-0.000126724
0.00136378
-0.000152895
0.00136285
-0.000179951
0.0013611
-0.000207905
0.00135851
-0.000236768
0.00135507
-0.000266554
0.00135074
-0.000297274
0.00134549
-0.000328941
0.00133932
-0.000361571
0.0013322
-0.00039518
0.00132411
-0.000429791
0.00131505
-0.000465433
0.00130502
-0.000502147
0.00129403
-0.000539991
0.00128212
-0.000579031
0.00126929
-0.000619348
0.00125555
-0.000661018
0.00124088
-0.000704096
0.00122514
-0.000748595
0.00120813
-0.000794459
0.00118955
-0.000841559
0.00116905
-0.000889698
0.00114627
-0.000938632
0.00112086
-0.000988105
0.00109253
-0.00103787
0.00106102
-0.0010877
0.00102612
-0.00113737
0.000987645
-0.00118664
0.000945336
-0.00123515
0.000898794
-0.00128211
0.000847233
-0.00132571
-0.00136146
0.00078844
0.000986508
0.000343872
-0.000971071
0.00100181
0.000339826
0.00101697
0.000335456
0.00103198
0.000330753
0.00104682
0.000325703
0.00106148
0.000320294
0.00107595
0.000314514
0.00109021
0.00030835
0.00110425
0.000301787
0.00111805
0.000294813
0.00113161
0.000287414
0.0011449
0.000279576
0.00115792
0.000271284
0.00117064
0.000262526
0.00118305
0.000253285
0.00119515
0.000243548
0.0012069
0.000233299
0.0012183
0.000222524
0.00122933
0.000211208
0.00123998
0.000199335
0.00125023
0.000186891
0.00126006
0.000173859
0.00126946
0.000160225
0.00127841
0.000145972
0.00128689
0.000131085
0.00129488
0.000115547
0.00130237
9.93435e-05
0.00130933
8.24584e-05
0.00131575
6.48762e-05
0.00132162
4.65809e-05
0.0013269
2.75572e-05
0.00133159
7.79001e-06
0.00133565
-1.27403e-05
0.00133908
-3.40503e-05
0.00134184
-5.61538e-05
0.00134392
-7.90655e-05
0.0013453
-0.000102799
0.00134594
-0.000127369
0.00134584
-0.000152789
0.00134496
-0.000179071
0.00134328
-0.000206227
0.00134078
-0.000234271
0.00133744
-0.000263215
0.00133324
-0.000293072
0.00132816
-0.000323858
0.00132218
-0.00035559
0.00131529
-0.000388291
0.00130749
-0.000421991
0.00129879
-0.000456729
0.00128919
-0.000492555
0.00127873
-0.000529529
0.00126741
-0.000567713
0.00125523
-0.000607164
0.00124213
-0.000647914
0.00122798
-0.000689952
0.0012126
-0.000733214
0.00119572
-0.000777574
0.00117702
-0.000822859
0.00115617
-0.000868856
0.00113288
-0.000915342
0.00110687
-0.000962095
0.00107791
-0.00100891
0.00104579
-0.00105558
0.00101034
-0.00110192
0.000971365
-0.00114767
0.000928594
-0.00119238
0.000881486
-0.00123501
0.000828816
-0.00127304
-0.00129966
0.000767025
0.000971516
0.000328538
-0.000956182
0.000986718
0.000324623
0.00100178
0.000320397
0.00101668
0.000315849
0.00103142
0.000310966
0.00104598
0.000305736
0.00106034
0.000300148
0.0010745
0.000294188
0.00108845
0.000287844
0.00110216
0.000281103
0.00111562
0.00027395
0.00112882
0.000266373
0.00114175
0.000258357
0.00115439
0.000249889
0.00116672
0.000240954
0.00117873
0.000231538
0.0011904
0.000221625
0.00120172
0.000211202
0.00121268
0.000200253
0.00122325
0.000188764
0.00123342
0.000176719
0.00124318
0.000164102
0.0012525
0.0001509
0.00126138
0.000137095
0.00126979
0.000122674
0.00127772
0.000107619
0.00128515
9.1916e-05
0.00129206
7.55492e-05
0.00129843
5.85033e-05
0.00130425
4.07628e-05
0.00130949
2.23128e-05
0.00131414
3.13858e-06
0.00131818
-1.67803e-05
0.00132159
-3.74584e-05
0.00132435
-5.89097e-05
0.00132643
-8.11483e-05
0.00132782
-0.000104188
0.00132849
-0.000128043
0.00132843
-0.000152726
0.00132761
-0.00017825
0.00132601
-0.000204629
0.00132361
-0.000231875
0.0013204
-0.000260003
0.00131636
-0.000289029
0.00131147
-0.000318971
0.00130574
-0.000349855
0.00129916
-0.000381709
0.00129173
-0.000414571
0.00128349
-0.000448485
0.00127444
-0.000483501
0.00126457
-0.000519668
0.00125388
-0.000557022
0.00124229
-0.000595574
0.00122968
-0.000635299
0.00121585
-0.000676125
0.00120057
-0.000717931
0.00118355
-0.000760561
0.00116453
-0.00080383
0.00114321
-0.00084754
0.00111936
-0.000891496
0.00109278
-0.000935507
0.00106326
-0.000979392
0.00103065
-0.00102297
0.000994786
-0.00106605
0.000955465
-0.00110834
0.000912327
-0.00114924
0.000864613
-0.00118729
0.000810441
-0.00121887
-0.00123378
0.000744558
0.00095716
0.000313306
-0.000941929
0.000972259
0.000309524
0.000987215
0.000305442
0.00100202
0.000301048
0.00101665
0.000296332
0.0010311
0.000291282
0.00104537
0.000285886
0.00105942
0.00028013
0.00107326
0.000274004
0.00108687
0.000267494
0.00110024
0.000260586
0.00111334
0.000253269
0.00112617
0.000245527
0.00113871
0.000237347
0.00115095
0.000228716
0.00116287
0.000219618
0.00117446
0.00021004
0.00118569
0.000199966
0.00119656
0.000189383
0.00120705
0.000178275
0.00121714
0.000166626
0.00122682
0.000154423
0.00123607
0.00014165
0.00124488
0.000128291
0.00125322
0.000114332
0.00126108
9.97565e-05
0.00126845
8.45499e-05
0.0012753
6.86968e-05
0.00128162
5.21822e-05
0.00128739
3.49908e-05
0.0012926
1.71082e-05
0.00129722
-1.48088e-06
0.00130123
-2.07966e-05
0.00130463
-4.08521e-05
0.00130738
-6.16616e-05
0.00130947
-8.32389e-05
0.00131088
-0.000105598
0.00131159
-0.000128753
0.00131158
-0.000152717
0.00131084
-0.000177505
0.00130934
-0.00020313
0.00130707
-0.000229607
0.00130402
-0.000256956
0.00130019
-0.000285195
0.00129557
-0.00031435
0.00129016
-0.00034445
0.00128398
-0.00037553
0.00127704
-0.000407629
0.00126934
-0.000440787
0.00126088
-0.000475037
0.00125161
-0.000510399
0.00124146
-0.000546867
0.00123029
-0.000584403
0.00121792
-0.000622932
0.00120414
-0.000662342
0.0011887
-0.00070249
0.00117135
-0.000743215
0.00115186
-0.000784345
0.00113003
-0.000825703
0.00110565
-0.000867118
0.00107857
-0.000908423
0.00104863
-0.000949451
0.00101568
-0.00099003
0.000979572
-0.00102994
0.000940055
-0.00106883
0.00089661
-0.0011058
0.000848068
-0.00113875
0.000791439
-0.00116224
-0.00116168
0.000719342
0.00094346
0.000298174
-0.000928328
0.000958459
0.000294525
0.000973313
0.000290588
0.000988011
0.000286351
0.00100254
0.000281803
0.00101689
0.000276932
0.00103105
0.000271728
0.001045
0.000266178
0.00105874
0.000260269
0.00107224
0.00025399
0.0010855
0.000247327
0.0010985
0.000240268
0.00111123
0.000232799
0.00112367
0.000224907
0.00113581
0.000216577
0.00114763
0.000207797
0.00115912
0.00019855
0.00117026
0.000188824
0.00118104
0.000178604
0.00119144
0.000167874
0.00120144
0.00015662
0.00121104
0.000144827
0.00122021
0.00013248
0.00122894
0.000119564
0.00123721
0.000106063
0.001245
9.19629e-05
0.0012523
7.72481e-05
0.0012591
6.19035e-05
0.00126536
4.59143e-05
0.00127109
2.92655e-05
0.00127625
1.19428e-05
0.00128084
-6.07027e-06
0.00128484
-2.47921e-05
0.00128822
-4.4236e-05
0.00129098
-6.4416e-05
0.00129308
-8.53465e-05
0.00129453
-0.000107042
0.00129529
-0.000129517
0.00129536
-0.000152785
0.00129472
-0.000176864
0.00129336
-0.00020177
0.00129127
-0.000227521
0.00128846
-0.00025414
0.00128491
-0.000281652
0.00128065
-0.000310085
0.00127567
-0.000339471
0.00126998
-0.000369843
0.00126358
-0.000401229
0.00125645
-0.000433649
0.00124852
-0.000467107
0.0012397
-0.000501585
0.00122987
-0.000537037
0.00121886
-0.000573387
0.00120646
-0.000610533
0.00119246
-0.000648349
0.00117667
-0.000686694
0.00115887
-0.000725417
0.00113889
-0.000764362
0.00111656
-0.000803373
0.00109173
-0.000842295
0.00106428
-0.000880973
0.00103408
-0.000919246
0.00100098
-0.000956935
0.00096482
-0.000993781
0.000925247
-0.00102925
0.000881462
-0.00106201
0.000831562
-0.00108885
0.000770688
-0.00110137
-0.00107929
0.000688289
0.000930433
0.000283133
-0.000915393
0.000945337
0.000279621
0.000960094
0.000275831
0.000974692
0.000271752
0.00098912
0.000267374
0.00100337
0.000262685
0.00101742
0.000257674
0.00103127
0.000252329
0.0010449
0.000246639
0.0010583
0.000240592
0.00107145
0.000234174
0.00108435
0.000227374
0.00109697
0.000220177
0.0011093
0.000212572
0.00112134
0.000204543
0.00113306
0.000196078
0.00114444
0.000187163
0.00115549
0.000177782
0.00116617
0.000167922
0.00117647
0.000157569
0.00118639
0.000146706
0.00119589
0.00013532
0.00120498
0.000123396
0.00121362
0.000110918
0.00122181
9.78721e-05
0.00122953
8.42422e-05
0.00123677
7.00136e-05
0.0012435
5.51713e-05
0.00124971
3.97005e-05
0.00125539
2.35862e-05
0.00126052
6.81426e-06
0.00126509
-1.06333e-05
0.00126907
-2.87732e-05
0.00127245
-4.76192e-05
0.00127522
-6.71861e-05
0.00127736
-8.74889e-05
0.00127886
-0.000108543
0.00127971
-0.000130365
0.0012799
-0.000152971
0.00127941
-0.000176381
0.00127826
-0.000200614
0.00127643
-0.000225693
0.00127393
-0.000251643
0.00127077
-0.00027849
0.00126695
-0.000306262
0.00126246
-0.000334981
0.00125728
-0.000364668
0.00125138
-0.000395328
0.00124469
-0.000426955
0.0012371
-0.00045952
0.00122849
-0.000492974
0.0012187
-0.000527246
0.00120755
-0.000562243
0.00119488
-0.000597856
0.00118049
-0.000633964
0.00116423
-0.000670435
0.00114595
-0.000707132
0.0011255
-0.000743914
0.00110277
-0.000780638
0.00107763
-0.00081716
0.00104998
-0.000853327
0.00101971
-0.000888976
0.000986682
-0.000923903
0.000950659
-0.000957759
0.000911096
-0.000989691
0.000866672
-0.00101759
0.000814206
-0.00103639
0.000746418
-0.00103358
-0.000985639
0.00065277
0.0009181
0.000268179
-0.000903146
0.000932915
0.000264806
0.00094758
0.000261166
0.000962084
0.000257248
0.000976417
0.000253042
0.000990566
0.000248536
0.00100452
0.00024372
0.00101827
0.000238583
0.00103179
0.000233113
0.00104509
0.000227298
0.00105813
0.000221126
0.00107092
0.000214585
0.00108344
0.000207661
0.00109567
0.000200342
0.0011076
0.000192615
0.00111921
0.000184465
0.00113049
0.000175879
0.00114143
0.000166843
0.00115201
0.000157342
0.00116222
0.000147362
0.00117204
0.000136889
0.00118145
0.000125907
0.00119044
0.000114402
0.001199
0.000102359
0.00120711
8.97616e-05
0.00121476
7.65963e-05
0.00122193
6.28473e-05
0.0012286
4.84997e-05
0.00123476
3.35385e-05
0.0012404
1.79487e-05
0.0012455
1.71548e-06
0.00125004
-1.51804e-05
0.00125402
-3.27544e-05
0.00125743
-5.10216e-05
0.00126024
-6.99979e-05
0.00126245
-8.97001e-05
0.00126405
-0.000110145
0.00126504
-0.000131352
0.00126541
-0.00015334
0.00126516
-0.000176131
0.00126429
-0.000199745
0.0012628
-0.000224208
0.0012607
-0.00024954
0.00125797
-0.000275763
0.00125461
-0.000302892
0.00125056
-0.000330936
0.00124579
-0.000359893
0.0012402
-0.000389744
0.00123371
-0.00042046
0.00122618
-0.00045199
0.00121747
-0.000484269
0.00120744
-0.000517218
0.00119594
-0.000550743
0.00118283
-0.00058474
0.00116796
-0.000619096
0.00115122
-0.000653692
0.00113249
-0.000688402
0.00111167
-0.000723096
0.00108867
-0.000757637
0.00106339
-0.000791887
0.00103576
-0.000825691
0.00100565
-0.000858872
0.000972923
-0.000891171
0.000937193
-0.00092203
0.000897507
-0.000950004
0.000851559
-0.000971637
0.000794081
-0.000978909
0.000715256
-0.000954752
-0.000876762
0.00060638
0.000906494
0.000253306
-0.000891621
0.000921225
0.000250075
0.000935804
0.000246587
0.00095022
0.000242832
0.000964461
0.0002388
0.000978517
0.00023448
0.000992376
0.000229861
0.00100603
0.000224934
0.00101945
0.000219685
0.00103265
0.000214105
0.00104559
0.00020818
0.00105828
0.000201899
0.00107069
0.000195249
0.00108282
0.000188218
0.00109464
0.000180791
0.00110615
0.000172956
0.00111733
0.0001647
0.00112816
0.000156007
0.00113864
0.000146864
0.00114875
0.000137256
0.00115847
0.000127169
0.00116779
0.000116588
0.00117669
0.000105498
0.00118517
9.38835e-05
0.0011932
8.173e-05
0.00120077
6.90221e-05
0.00120788
5.57443e-05
0.00121449
4.18815e-05
0.00122061
2.74181e-05
0.00122622
1.23389e-05
0.00123131
-3.37237e-06
0.00123587
-1.97356e-05
0.00123988
-3.67665e-05
0.00124334
-5.44818e-05
0.00124624
-7.28993e-05
0.00124858
-9.20374e-05
0.00125035
-0.000111915
0.00125155
-0.000132553
0.00125218
-0.00015397
0.00125224
-0.000176188
0.00125172
-0.000199226
0.00125061
-0.000223101
0.0012489
-0.000247827
0.00124655
-0.000273412
0.00124351
-0.000299856
0.00123972
-0.00032715
0.0012351
-0.000355272
0.00122955
-0.00038419
0.00122295
-0.00041386
0.00121518
-0.000444224
0.00120613
-0.000475214
0.00119566
-0.000506752
0.00118367
-0.000538752
0.00117005
-0.000571116
0.00115469
-0.000603741
0.00113752
-0.000636517
0.00111844
-0.000669327
0.00109739
-0.000702046
0.0010743
-0.000734547
0.0010491
-0.000766689
0.00102172
-0.00079831
0.000992046
-0.000829196
0.000959831
-0.000858956
0.000924388
-0.000886586
0.00088395
-0.000909566
0.000834497
-0.000922183
0.000768094
-0.000912507
0.000674614
-0.000861272
-0.000755453
0.000553305
0.000895665
0.000238512
-0.000880871
0.000910316
0.000235424
0.000924813
0.00023209
0.000939146
0.0002285
0.000953302
0.000224644
0.000967271
0.000220511
0.00098104
0.000216092
0.000994599
0.000211375
0.00100793
0.00020635
0.00102103
0.000201006
0.00103388
0.00019533
0.00104647
0.000189311
0.00105878
0.000182936
0.00107081
0.000176193
0.00108253
0.000169068
0.00109394
0.000161548
0.00110502
0.00015362
0.00111576
0.00014527
0.00112614
0.000136483
0.00113615
0.000127244
0.00114578
0.000117541
0.00115501
0.000107356
0.00116383
9.66755e-05
0.00117223
8.5484e-05
0.00118019
7.37659e-05
0.00118771
6.15056e-05
0.00119477
4.86873e-05
0.00120135
3.52951e-05
0.00120746
2.13131e-05
0.00121307
6.725e-06
0.00121819
-8.48773e-06
0.0012228
-2.43446e-05
0.00122689
-4.08629e-05
0.00123047
-5.80608e-05
0.00123353
-7.5957e-05
0.00123606
-9.45705e-05
0.00123807
-0.00011392
0.00123954
-0.000134024
0.00124047
-0.000154899
0.00124084
-0.000176561
0.00124064
-0.000199021
0.00123982
-0.000222286
0.00123835
-0.000246358
0.00123617
-0.000271232
0.00123321
-0.000296896
0.00122939
-0.000323327
0.00122461
-0.000350496
0.00121879
-0.000378364
0.00121181
-0.000406884
0.00120359
-0.000435999
0.00119402
-0.000465644
0.00118301
-0.000495748
0.00117049
-0.000526229
0.00115637
-0.000556999
0.00114059
-0.000587962
0.00112309
-0.000619015
0.00110381
-0.000650049
0.00108271
-0.000680945
0.00105975
-0.000711582
0.00103487
-0.000741816
0.00100802
-0.000771457
0.000979024
-0.000800199
0.000947391
-0.000827324
0.000911733
-0.000850928
0.000868797
-0.000866631
0.000812137
-0.000865523
0.000732105
-0.000832474
0.000622328
-0.000751496
-0.00062064
0.000487515
0.000885682
0.000223793
-0.000870962
0.000900258
0.000220848
0.000914679
0.000217669
0.000928933
0.000214245
0.000943011
0.000210566
0.000956899
0.000206623
0.000970587
0.000202404
0.000984061
0.000197901
0.00099731
0.000193101
0.00101032
0.000187994
0.00102308
0.000182569
0.00103558
0.000176812
0.00104781
0.000170713
0.00105974
0.000164258
0.00107137
0.000157435
0.00108269
0.00015023
0.00109368
0.00014263
0.00110433
0.00013462
0.00111463
0.000126186
0.00112456
0.000117313
0.00113411
0.000107987
0.00114328
9.8193e-05
0.00115204
8.79143e-05
0.00116038
7.71356e-05
0.00116831
6.5841e-05
0.0011758
5.40143e-05
0.00118285
4.16388e-05
0.00118945
2.86982e-05
0.00119558
1.51755e-05
0.00120126
1.0537e-06
0.00120646
-1.36881e-05
0.00121118
-2.90684e-05
0.00121542
-4.51051e-05
0.00121918
-6.1816e-05
0.00122244
-7.92184e-05
0.0012252
-9.7329e-05
0.00122744
-0.000116163
0.00122915
-0.000135732
0.0012303
-0.000156049
0.00123086
-0.000177119
0.00123078
-0.000198945
0.00123002
-0.000221526
0.00122852
-0.000244855
0.0012262
-0.000268918
0.001223
-0.000293696
0.00121884
-0.000319165
0.00121364
-0.000345291
0.00120731
-0.000372037
0.00119978
-0.000399356
0.00119098
-0.000427195
0.00118083
-0.000455496
0.00116927
-0.000484192
0.00115625
-0.000513208
0.00114172
-0.000542464
0.00112563
-0.00057187
0.00110794
-0.000601332
0.00108864
-0.000630747
0.0010677
-0.000660008
0.00104512
-0.000688996
0.00102085
-0.000717551
0.000994795
-0.000745401
0.000966581
-0.000771984
0.000935092
-0.000795835
0.000897524
-0.00081336
0.000848318
-0.000817425
0.000778787
-0.000795991
0.00068101
-0.000734698
0.000556952
-0.000627437
-0.000485123
0.000421435
0.000876644
0.000209139
-0.000861991
0.000891153
0.000206339
0.000905507
0.000203316
0.000919693
0.000200058
0.000933702
0.000196558
0.00094752
0.000192804
0.000961137
0.000188788
0.00097454
0.000184498
0.000987717
0.000179924
0.00100066
0.000175055
0.00101334
0.00016988
0.00102577
0.000164387
0.00103792
0.000158563
0.00104978
0.000152396
0.00106135
0.000145873
0.0010726
0.00013898
0.00108352
0.000131704
0.00109411
0.00012403
0.00110435
0.000115944
0.00111424
0.000107431
0.00112375
9.84749e-05
0.00113288
8.90607e-05
0.00114162
7.91722e-05
0.00114996
6.87931e-05
0.0011579
5.79069e-05
0.00116542
4.64966e-05
0.00117251
3.45455e-05
0.00117917
2.20365e-05
0.00118539
8.95266e-06
0.00119117
-4.72445e-06
0.0011965
-1.9015e-05
0.00120137
-3.39353e-05
0.00120576
-4.95015e-05
0.00120968
-6.57286e-05
0.00121309
-8.26303e-05
0.00121598
-0.000100219
0.00121832
-0.000118503
0.00122008
-0.000137491
0.00122121
-0.000157187
0.00122169
-0.000177591
0.00122144
-0.000198701
0.00122042
-0.000220509
0.00121858
-0.000243006
0.00121583
-0.000266175
0.00121213
-0.000289995
0.00120741
-0.000314442
0.0012016
-0.000339484
0.00119465
-0.000365085
0.0011865
-0.000391202
0.00117709
-0.000417788
0.00116638
-0.000444787
0.00115433
-0.00047214
0.0011409
-0.000499778
0.00112606
-0.000527629
0.00110981
-0.000555613
0.00109212
-0.000583646
0.00107301
-0.000611637
0.00105249
-0.000639489
0.00103057
-0.000667078
0.00100719
-0.000694168
0.000982039
-0.000720249
0.000954167
-0.000744112
0.000921072
-0.00076274
0.000877691
-0.000769979
0.000816084
-0.000755818
0.000727883
-0.00070779
0.000611365
-0.00061818
0.000475795
-0.000491867
-0.000345607
0.000336279
0.000868714
0.000194537
-0.000854112
0.000883173
0.000191881
0.000897476
0.000189012
0.000911613
0.000185921
0.000925573
0.000182599
0.000939342
0.000179034
0.000952911
0.000175219
0.000966267
0.000171142
0.000979398
0.000166793
0.000992292
0.000162161
0.00100494
0.000157235
0.00101732
0.000152002
0.00102943
0.000146451
0.00104126
0.000140568
0.00105279
0.000134341
0.00106402
0.000127756
0.00107492
0.000120799
0.0010855
0.000113455
0.00109573
0.000105709
0.00110562
9.75465e-05
0.00111514
8.89513e-05
0.00112429
7.99074e-05
0.00113307
7.03985e-05
0.00114145
6.04081e-05
0.00114944
4.99195e-05
0.00115702
3.8916e-05
0.00116418
2.7381e-05
0.00117092
1.52978e-05
0.00117723
2.65008e-06
0.00118308
-1.05805e-05
0.00118848
-2.44102e-05
0.00119339
-3.88529e-05
0.00119782
-5.39218e-05
0.00120171
-6.96283e-05
0.00120507
-8.59825e-05
0.00120784
-0.000102992
0.00121
-0.000120664
0.00121151
-0.000139
0.00121232
-0.000158001
0.0012124
-0.000177667
0.00121169
-0.00019799
0.00121014
-0.000218963
0.00120771
-0.000240573
0.00120434
-0.000262805
0.00119998
-0.000285639
0.00119459
-0.00030905
0.00118812
-0.00033301
0.00118052
-0.000357485
0.00117175
-0.000382437
0.00116179
-0.000407821
0.00115059
-0.000433591
0.00113814
-0.000459691
0.00112443
-0.000486064
0.00110945
-0.000512647
0.00109321
-0.000539373
0.00107574
-0.000566176
0.00105708
-0.000592978
0.00103727
-0.000619683
0.0010163
-0.000646102
0.000993874
-0.000671747
0.00096909
-0.000695465
0.000939616
-0.000714637
0.000900616
-0.000723741
0.00084466
-0.000714023
0.000763636
-0.000674794
0.000654511
-0.000598665
0.00052427
-0.00048794
0.000386605
-0.000354202
-0.000213192
0.000254189
0.00086219
0.000179954
-0.000847607
0.000876631
0.000177439
0.00089092
0.000174724
0.000905044
0.000171797
0.000918993
0.00016865
0.000932755
0.000165273
0.000946318
0.000161655
0.000959671
0.000157789
0.000972803
0.000153661
0.000985701
0.000149263
0.000998353
0.000144582
0.00101075
0.000139607
0.00102287
0.000134325
0.00103472
0.000128723
0.00104627
0.000122788
0.00105752
0.000116507
0.00106846
0.000109865
0.00107906
0.000102847
0.00108933
9.54395e-05
0.00109925
8.76259e-05
0.00110881
7.93909e-05
0.001118
7.07186e-05
0.00112681
6.15929e-05
0.00113522
5.19976e-05
0.00114322
4.19164e-05
0.0011508
3.13333e-05
0.00115795
2.02326e-05
0.00116465
8.5987e-06
0.00117089
-3.58424e-06
0.00117664
-1.63324e-05
0.00118189
-2.9659e-05
0.00118661
-4.35761e-05
0.00119078
-5.80945e-05
0.00119438
-7.32237e-05
0.00119737
-8.89714e-05
0.00119972
-0.000105343
0.0012014
-0.000122343
0.00120237
-0.000139973
0.0012026
-0.000158231
0.00120205
-0.000177114
0.00120068
-0.000196616
0.00119844
-0.000216728
0.00119531
-0.000237438
0.00119123
-0.000258729
0.00118617
-0.000280584
0.0011801
-0.00030298
0.00117298
-0.00032589
0.00116478
-0.000349285
0.00115548
-0.00037313
0.00114505
-0.000397389
0.00113347
-0.00042202
0.00112076
-0.00044698
0.00110692
-0.000472223
0.00109198
-0.000497703
0.00107598
-0.000523374
0.00105899
-0.000549188
0.00104108
-0.000575068
0.00102224
-0.000600844
0.0010022
-0.000626059
0.000979974
-0.000649522
0.000953202
-0.000668693
0.000917155
-0.00067859
0.000864603
-0.000671188
0.000787904
-0.000637324
0.000683754
-0.000570644
0.000557905
-0.000472816
0.000422868
-0.000352902
0.000292077
-0.000223411
-0.000100733
0.000179618
0.00085761
0.000165337
-0.000842993
0.000872089
0.00016296
0.000886418
0.000160395
0.000900586
0.000157629
0.000914581
0.000154655
0.000928392
0.000151462
0.000942005
0.000148042
0.00095541
0.000144384
0.000968593
0.000140478
0.000981543
0.000136314
0.000994246
0.000131879
0.00100669
0.000127163
0.00101886
0.000122153
0.00103075
0.000116837
0.00104233
0.0001112
0.00105361
0.000105231
0.00106456
9.89142e-05
0.00107517
9.22357e-05
0.00108543
8.51808e-05
0.00109532
7.77343e-05
0.00110483
6.98808e-05
0.00111395
6.16047e-05
0.00112265
5.28902e-05
0.00113093
4.37217e-05
0.00113876
3.40833e-05
0.00114613
2.39595e-05
0.00115303
1.33352e-05
0.00115943
2.19524e-06
0.00116533
-9.47596e-06
0.00117069
-2.16924e-05
0.00117549
-3.44665e-05
0.00117973
-4.78093e-05
0.00118336
-6.17307e-05
0.00118638
-7.62389e-05
0.00118875
-9.13404e-05
0.00119044
-0.00010704
0.00119144
-0.000123339
0.0011917
-0.000140239
0.00119121
-0.000157737
0.00118993
-0.000175829
0.00118782
-0.000194509
0.00118485
-0.000213766
0.00118101
-0.000233588
0.00117624
-0.000253962
0.00117052
-0.000274869
0.00116383
-0.000296289
0.00115614
-0.000318201
0.00114744
-0.000340578
0.0011377
-0.000363392
0.00112692
-0.000386616
0.00111512
-0.000410219
0.00110232
-0.000434174
0.00108855
-0.000458455
0.00107388
-0.000483038
0.00105841
-0.000507898
0.0010422
-0.000532982
0.00102525
-0.000558115
0.0010072
-0.000582793
0.000986927
-0.000605788
0.000961839
-0.000624435
0.000927151
-0.000634005
0.000875708
-0.000627147
0.000800427
-0.000595907
0.000698532
-0.000535429
0.000575525
-0.000447637
0.000443083
-0.000340374
0.000313489
-0.000223309
0.000197413
-0.000107334
-8.69039e-06
0.000105371
0.000855619
0.000150639
-0.000840921
0.000870179
0.0001484
0.000884587
0.000145987
0.00089883
0.000143386
0.000912895
0.000140589
0.00092677
0.000137588
0.000940439
0.000134372
0.000953891
0.000130932
0.00096711
0.000127259
0.000980082
0.000123341
0.000992793
0.000119168
0.00100523
0.000114729
0.00101737
0.00011001
0.00102921
0.000105
0.00104072
9.96867e-05
0.0010519
9.40555e-05
0.00106272
8.8093e-05
0.00107317
8.1785e-05
0.00108323
7.51169e-05
0.00109289
6.80735e-05
0.00110213
6.06397e-05