/*--------------------------------*- C++ -*----------------------------------*\
| =========                 |                                                 |
| \\      /  F ield         | OpenFOAM: The Open Source CFD Toolbox           |
|  \\    /   O peration     | Version:  2312                                  |
|   \\  /    A nd           | Website:  www.openfoam.com                      |
|    \\/     M anipulation  |                                                 |
\*---------------------------------------------------------------------------*/
FoamFile
{
    version     2.0;
    format      ascii;
    arch        "LSB;label=32;scalar=64";
    class       volVectorField;
    location    "800";
    object      U;
}
// * * * * * * * * * * * * * * * * * * * * * * * * * * * * * * * * * * * * * //

dimensions      [0 1 -1 0 0 0 0];

internalField   nonuniform List<vector> 
76025
(
(0.0359868 -0.0064 0)
(0.0361506 -0.00648663 5.89307e-22)
(0.0363157 -0.00656938 0)
(0.0364833 -0.00664956 0)
(0.0366479 -0.00672818 -1.05961e-21)
(0.0368215 -0.00679827 -1.99329e-21)
(0.036993 -0.00686886 3.44454e-21)
(0.0371694 -0.00693222 -1.44901e-21)
(0.0373449 -0.00699482 -4.52374e-22)
(0.0375214 -0.0070536 4.3268e-22)
(0.0376989 -0.00710856 -1.74644e-24)
(0.0378792 -0.00715755 1.14096e-21)
(0.0380626 -0.00720546 -1.53505e-21)
(0.0382458 -0.00724801 0)
(0.0384334 -0.00728374 3.3198e-22)
(0.0386172 -0.00732244 0)
(0.0388053 -0.0073488 0)
(0.0389932 -0.00737924 0)
(0.0391826 -0.00739949 2.59669e-22)
(0.0393707 -0.00742156 -2.35883e-22)
(0.0395602 -0.00743477 -2.15506e-22)
(0.0397525 -0.00744617 -5.8044e-22)
(0.039943 -0.00745315 3.8013e-22)
(0.0401342 -0.00745474 4.57098e-22)
(0.0403254 -0.00745511 -3.98424e-23)
(0.0405156 -0.0074557 7.77882e-23)
(0.0407083 -0.0074435 -3.00196e-22)
(0.0408974 -0.00743255 2.73905e-22)
(0.0410887 -0.0074157 -6.85108e-23)
(0.0412787 -0.00739228 5.04867e-23)
(0.0414662 -0.0073753 2.91009e-23)
(0.0416505 -0.00735671 1.11666e-23)
(0.0418348 -0.00732492 -3.63178e-23)
(0.0420189 -0.00730014 -3.47246e-23)
(0.0422012 -0.0072642 1.36926e-22)
(0.0423823 -0.00723344 1.01319e-23)
(0.042562 -0.00719922 -4.14568e-23)
(0.0427414 -0.00715615 2.77359e-23)
(0.0429186 -0.00711775 2.99811e-24)
(0.0430912 -0.00707554 -5.24714e-23)
(0.0432623 -0.00703545 3.57336e-23)
(0.0434338 -0.0069933 -1.98088e-23)
(0.0436029 -0.00694164 4.22782e-23)
(0.0437703 -0.0068984 -9.25609e-23)
(0.0439344 -0.00685105 -1.04342e-22)
(0.044099 -0.0068096 2.00499e-22)
(0.044261 -0.00676106 2.27298e-22)
(0.0444226 -0.00671775 -7.0239e-22)
(0.0445823 -0.00667671 4.70485e-22)
(0.0447427 -0.00664032 2.77127e-25)
(0.044904 -0.00660716 -1.2769e-21)
(0.0450661 -0.00657689 -5.12114e-22)
(0.0452295 -0.00655199 5.41198e-22)
(0.045396 -0.00653458 0)
(0.0455706 -0.00652529 -5.39862e-22)
(0.0457585 -0.00652926 -5.59638e-22)
(0.045965 -0.0065453 1.38737e-23)
(0.0461956 -0.00657982 -5.4394e-22)
(0.0464539 -0.00663843 5.45591e-22)
(0.0467308 -0.0067141 -1.56025e-21)
(0.0470208 -0.00681199 -1.01894e-21)
(0.0473166 -0.00693679 -6.7223e-24)
(0.0475976 -0.00708332 0)
(0.0478494 -0.00725282 2.27177e-21)
(0.0480582 -0.00744628 -8.85112e-22)
(0.0482162 -0.00766974 4.28142e-22)
(0.0483088 -0.00794504 -8.32508e-22)
(0.048309 -0.00825211 7.59896e-22)
(0.0481691 -0.0085544 1.46706e-21)
(0.0358354 -0.00668886 6.27158e-22)
(0.0360075 -0.00677781 1.80797e-21)
(0.0361816 -0.00686291 -2.41059e-21)
(0.0363578 -0.00694421 0)
(0.0365345 -0.0070227 2.71757e-21)
(0.0367151 -0.00709579 -7.86287e-23)
(0.0368966 -0.00716597 -2.08111e-21)
(0.0370799 -0.00723153 0)
(0.0372648 -0.00729327 -2.60042e-24)
(0.0374508 -0.00735107 -4.4703e-22)
(0.0376381 -0.00740491 4.26658e-22)
(0.0378265 -0.00745417 2.13019e-28)
(0.038016 -0.00749961 0)
(0.038207 -0.00754076 0)
(0.0383999 -0.00757642 6.46811e-22)
(0.0385928 -0.00760982 -1.65664e-21)
(0.0387873 -0.00763725 -3.00345e-22)
(0.0389817 -0.00766212 8.21723e-22)
(0.0391769 -0.00768162 -5.43249e-22)
(0.039372 -0.00769823 2.4304e-22)
(0.0395676 -0.00770985 -1.95377e-22)
(0.0397631 -0.0077176 4.19185e-22)
(0.0399584 -0.00772145 -3.35644e-22)
(0.0401537 -0.00772078 4.69602e-22)
(0.0403488 -0.00771644 -2.95643e-22)
(0.0405436 -0.0077091 -3.33092e-22)
(0.0407382 -0.00769657 2.13038e-22)
(0.0409313 -0.00768147 0)
(0.0411239 -0.00766234 0)
(0.0413155 -0.00763999 2.7563e-23)
(0.0415061 -0.00761411 0)
(0.0416957 -0.00758598 -1.46278e-23)
(0.0418837 -0.00755338 3.90182e-23)
(0.0420699 -0.00751922 -6.6566e-23)
(0.0422547 -0.00748198 6.85893e-24)
(0.0424378 -0.00744297 -4.00874e-23)
(0.0426196 -0.00740116 0)
(0.0427992 -0.00735768 -1.26269e-22)
(0.0429767 -0.00731373 1.0491e-22)
(0.0431523 -0.00726798 -9.27398e-23)
(0.043326 -0.00722054 6.19785e-23)
(0.0434982 -0.00717195 4.27485e-25)
(0.0436682 -0.00712312 2.68577e-23)
(0.0438364 -0.00707494 -2.50526e-23)
(0.0440032 -0.00702576 2.26693e-22)
(0.0441689 -0.00697703 -1.1828e-22)
(0.044333 -0.00692909 -1.30501e-22)
(0.044496 -0.00688346 2.44656e-22)
(0.0446582 -0.00683887 7.82981e-22)
(0.0448206 -0.00679684 3.40934e-25)
(0.0449835 -0.00675857 8.15379e-22)
(0.0451477 -0.00672511 -2.83879e-22)
(0.0453155 -0.00669821 -8.55113e-22)
(0.0454896 -0.00667949 5.65396e-22)
(0.0456741 -0.00667004 0)
(0.0458747 -0.00667325 1.73966e-21)
(0.0460952 -0.00669181 1.10341e-23)
(0.0463377 -0.00672835 -5.60474e-22)
(0.0465992 -0.00678408 -5.59612e-22)
(0.0468712 -0.00685763 0)
(0.0471433 -0.00695141 5.13502e-22)
(0.0474003 -0.00706352 1.49304e-21)
(0.0476273 -0.00719453 0)
(0.0478132 -0.00734819 -9.20976e-22)
(0.0479491 -0.00752925 4.24223e-22)
(0.0480293 -0.00774483 -8.49373e-22)
(0.0480382 -0.00799906 4.20051e-22)
(0.0479563 -0.00827685 -8.20239e-22)
(0.0477416 -0.0085767 -7.72174e-22)
(0.0356761 -0.00699544 -3.14187e-21)
(0.0358566 -0.00708597 1.91957e-21)
(0.0360397 -0.00717273 -6.09923e-22)
(0.0362252 -0.00725535 2.29689e-21)
(0.0364127 -0.00733403 -2.85639e-21)
(0.0366019 -0.00740847 -2.12143e-21)
(0.0367929 -0.00747871 2.63778e-21)
(0.0369856 -0.00754462 0)
(0.03718 -0.00760616 -1.91821e-24)
(0.0373757 -0.00766331 0)
(0.0375725 -0.00771605 -4.3126e-22)
(0.0377702 -0.00776431 4.09698e-22)
(0.0379687 -0.00780805 1.89435e-21)
(0.038168 -0.00784735 -1.5073e-21)
(0.0383681 -0.00788197 3.45499e-22)
(0.0385691 -0.00791215 9.47129e-22)
(0.0387706 -0.00793782 -3.20588e-22)
(0.0389725 -0.00795905 -2.81488e-22)
(0.0391746 -0.00797596 -7.46589e-22)
(0.0393767 -0.00798843 4.93573e-22)
(0.0395786 -0.00799661 2.09933e-22)
(0.0397801 -0.00800051 -3.63467e-22)
(0.0399813 -0.0080002 1.98238e-22)
(0.040182 -0.00799558 1.44504e-22)
(0.0403823 -0.00798687 0)
(0.0405818 -0.00797432 -1.01072e-22)
(0.0407801 -0.00795797 -7.02464e-23)
(0.0409775 -0.00793778 9.26503e-23)
(0.0411739 -0.00791382 0)
(0.0413691 -0.00788649 -4.22224e-23)
(0.0415632 -0.00785551 -7.22637e-24)
(0.0417557 -0.00782163 -1.42774e-23)
(0.0419464 -0.00778475 0)
(0.0421355 -0.00774526 2.80619e-23)
(0.0423228 -0.00770338 -1.3037e-22)
(0.0425083 -0.00765916 9.14107e-23)
(0.0426919 -0.00761303 0)
(0.0428734 -0.00756518 1.05025e-22)
(0.043053 -0.00751564 -1.1191e-22)
(0.0432306 -0.00746468 -2.01419e-23)
(0.0434062 -0.00741245 0)
(0.0435797 -0.0073595 -4.93256e-23)
(0.0437513 -0.00730602 -2.72227e-23)
(0.0439212 -0.00725206 2.68156e-23)
(0.0440894 -0.0071981 -1.70359e-22)
(0.0442561 -0.0071447 -1.26104e-22)
(0.0444213 -0.00709242 2.48323e-22)
(0.0445854 -0.00704156 -2.69999e-22)
(0.0447491 -0.00699265 2.78027e-22)
(0.044913 -0.0069468 -2.73544e-22)
(0.0450784 -0.00690521 -2.79574e-22)
(0.0452471 -0.00686908 5.93399e-22)
(0.0454217 -0.00683997 0)
(0.0456058 -0.00681976 6.03793e-22)
(0.0458032 -0.0068104 4.4877e-24)
(0.0460177 -0.00681403 -5.97015e-22)
(0.0462503 -0.00683246 -5.86089e-22)
(0.0464984 -0.00686637 1.13866e-21)
(0.0467549 -0.00691599 -2.98989e-24)
(0.0470086 -0.00698069 5.42398e-22)
(0.0472467 -0.00706056 -1.04258e-21)
(0.0474561 -0.0071569 -5.05801e-22)
(0.0476252 -0.00727233 -5.69547e-24)
(0.0477452 -0.00741062 -4.60923e-22)
(0.0478089 -0.00757678 -4.52658e-22)
(0.0478103 -0.00777568 -1.27447e-21)
(0.0477354 -0.00801155 0)
(0.0475632 -0.00827071 -3.7589e-22)
(0.0472167 -0.00855377 3.82771e-22)
(0.0355125 -0.00731958 0)
(0.0357022 -0.00741162 6.37661e-22)
(0.0358947 -0.0074996 3.04753e-21)
(0.0360895 -0.00758317 -2.42552e-21)
(0.0362866 -0.00766238 -1.67731e-21)
(0.0364856 -0.0077372 2.79346e-21)
(0.0366865 -0.00780746 -5.24817e-22)
(0.036889 -0.00787311 5.04368e-22)
(0.0370931 -0.0079341 4.79674e-22)
(0.0372984 -0.0079904 1.78495e-21)
(0.0375048 -0.00804197 -1.78222e-21)
(0.0377122 -0.00808876 -1.60088e-21)
(0.0379203 -0.00813074 4.55757e-22)
(0.0381289 -0.00816791 1.46309e-21)
(0.0383379 -0.00820024 -1.04926e-21)
(0.0385474 -0.00822776 3.17304e-22)
(0.0387571 -0.00825052 -2.94169e-22)
(0.0389668 -0.00826852 -2.71104e-22)
(0.0391765 -0.00828187 7.37252e-22)
(0.0393859 -0.00829058 -2.57189e-22)
(0.0395949 -0.00829471 -2.11366e-22)
(0.0398033 -0.00829431 0)
(0.040011 -0.00828946 -2.9205e-22)
(0.0402179 -0.00828025 1.57979e-22)
(0.0404238 -0.00826682 2.13717e-22)
(0.0406285 -0.00824933 1.45992e-22)
(0.040832 -0.00822784 -3.17118e-22)
(0.0410342 -0.00820241 1.02697e-22)
(0.041235 -0.00817324 0)
(0.0414342 -0.00814051 1.44667e-23)
(0.0416318 -0.0081044 -1.80295e-23)
(0.0418276 -0.00806513 5.46081e-23)
(0.0420215 -0.0080229 -6.89009e-23)
(0.0422135 -0.00797803 2.00654e-22)
(0.0424036 -0.00793072 -3.45425e-23)
(0.0425915 -0.00788116 0)
(0.0427773 -0.0078296 0)
(0.042961 -0.0077762 4.01634e-23)
(0.0431425 -0.00772121 4.01948e-23)
(0.0433219 -0.00766493 2.40529e-23)
(0.0434991 -0.00760758 -8.08828e-25)
(0.0436741 -0.00754943 2.5628e-23)
(0.0438472 -0.00749073 0)
(0.0440184 -0.00743182 -3.87577e-24)
(0.0441878 -0.00737313 0)
(0.0443557 -0.00731506 1.25717e-22)
(0.0445224 -0.00725808 6.55043e-24)
(0.0446884 -0.00720277 -4.21474e-22)
(0.0448546 -0.00714992 0)
(0.0450223 -0.00710052 -2.97597e-22)
(0.0451934 -0.00705585 2.92404e-22)
(0.0453702 -0.00701739 -5.91104e-22)
(0.0455559 -0.0069868 0)
(0.0457537 -0.00696582 -1.83663e-21)
(0.0459659 -0.00695589 3.67527e-24)
(0.0461931 -0.00695801 5.96152e-22)
(0.0464322 -0.00697258 5.83551e-22)
(0.0466767 -0.00699932 0)
(0.0469165 -0.00703784 0)
(0.0471396 -0.00708798 -5.30569e-22)
(0.0473341 -0.00715067 1.02389e-21)
(0.0474893 -0.00722824 9.87486e-22)
(0.0475963 -0.00732422 0)
(0.0476482 -0.00744323 -9.29488e-22)
(0.0476391 -0.00759073 0)
(0.0475632 -0.00777071 1.28047e-21)
(0.0474028 -0.00798568 -4.27438e-22)
(0.047129 -0.00821826 -3.72133e-22)
(0.0466286 -0.00845809 -3.17936e-22)
(0.0353453 -0.00766238 0)
(0.0355449 -0.00775579 0)
(0.0357472 -0.00784486 6.3379e-22)
(0.0359518 -0.00792919 -2.37969e-21)
(0.0361587 -0.00800883 2.95727e-21)
(0.0363677 -0.00808373 -5.55674e-22)
(0.0365786 -0.00815378 0)
(0.0367912 -0.00821887 -5.0805e-22)
(0.0370052 -0.00827899 0)
(0.0372205 -0.00833408 -8.97464e-22)
(0.0374368 -0.00838411 4.88791e-23)
(0.037654 -0.00842904 8.48222e-22)
(0.0378719 -0.00846885 0)
(0.0380902 -0.00850353 -7.04719e-22)
(0.0383087 -0.00853309 2.04156e-21)
(0.0385273 -0.00855755 -1.27256e-21)
(0.0387459 -0.00857695 1.46741e-21)
(0.0389642 -0.00859132 -2.8952e-22)
(0.0391821 -0.00860074 2.40836e-22)
(0.0393994 -0.00860526 -2.26526e-22)
(0.0396159 -0.00860496 -1.808e-22)
(0.0398316 -0.00859991 5.44414e-22)
(0.0400463 -0.00859023 3.03844e-22)
(0.0402597 -0.00857602 0)
(0.0404718 -0.00855742 -1.8943e-22)
(0.0406824 -0.00853457 -4.33803e-23)
(0.0408915 -0.00850759 2.11621e-22)
(0.0410988 -0.00847663 -4.4778e-23)
(0.0413043 -0.00844186 7.52638e-24)
(0.0415079 -0.00840346 -7.48194e-24)
(0.0417096 -0.00836162 -3.90841e-23)
(0.0419092 -0.00831651 3.0997e-23)
(0.0421066 -0.00826846 0)
(0.0423017 -0.0082178 -4.35484e-23)
(0.0424946 -0.00816468 -5.33686e-23)
(0.0426851 -0.00810933 0)
(0.0428734 -0.00805197 8.05316e-23)
(0.0430592 -0.00799285 -1.29302e-22)
(0.0432428 -0.00793222 8.80066e-23)
(0.043424 -0.00787034 -5.02825e-23)
(0.0436029 -0.00780745 -9.43294e-25)
(0.0437796 -0.00774383 -4.45606e-23)
(0.0439543 -0.00767979 1.46189e-23)
(0.044127 -0.00761568 6.14938e-23)
(0.0442982 -0.0075519 7.76459e-25)
(0.0444682 -0.00748891 4.09638e-22)
(0.0446376 -0.00742728 0)
(0.0448073 -0.00736775 2.85104e-22)
(0.0449787 -0.00731122 -2.41238e-24)
(0.0451537 -0.00725883 -2.99741e-22)
(0.0453346 -0.00721193 0)
(0.045524 -0.00717195 -3.16716e-22)
(0.0457245 -0.00714024 3.09048e-22)
(0.0459375 -0.00711781 6.12279e-22)
(0.0461625 -0.00710513 0)
(0.0463962 -0.00710205 -1.20935e-21)
(0.0466321 -0.00710798 1.18734e-21)
(0.0468611 -0.00712228 -1.15462e-21)
(0.0470724 -0.00714475 -1.22567e-23)
(0.0472551 -0.00717602 0)
(0.0473992 -0.00721796 -5.20636e-22)
(0.0474963 -0.00727374 4.96016e-22)
(0.0475396 -0.00734763 4.97738e-22)
(0.0475234 -0.00744474 9.40724e-22)
(0.0474425 -0.00757046 -1.369e-21)
(0.0472896 -0.00772765 8.81341e-22)
(0.0470399 -0.00791691 -4.42566e-22)
(0.0466512 -0.00811326 4.20133e-22)
(0.0459583 -0.00828518 1.14113e-21)
(0.0351745 -0.00802605 -2.66364e-21)
(0.0353845 -0.00812069 9.38904e-23)
(0.0355973 -0.00821064 2.61805e-21)
(0.0358124 -0.00829552 0)
(0.0360297 -0.00837533 -5.87874e-22)
(0.0362491 -0.00845007 0)
(0.0364704 -0.00851958 1.05305e-21)
(0.0366934 -0.0085838 -4.90029e-23)
(0.0369177 -0.00864267 -1.487e-21)
(0.0371433 -0.00869616 4.61081e-22)
(0.0373699 -0.00874425 4.37858e-22)
(0.0375972 -0.00878689 4.09353e-22)
(0.0378251 -0.00882408 0)
(0.0380533 -0.00885582 0)
(0.0382816 -0.00888213 -3.39167e-22)
(0.0385097 -0.00890303 -3.14723e-22)
(0.0387376 -0.00891857 5.48406e-22)
(0.0389649 -0.00892879 -5.48761e-22)
(0.0391915 -0.00893379 -4.73859e-22)
(0.0394172 -0.00893362 4.01427e-22)
(0.0396418 -0.00892839 -7.66862e-22)
(0.0398652 -0.0089182 3.6348e-23)
(0.0400872 -0.00890317 2.92239e-22)
(0.0403076 -0.00888343 1.09112e-22)
(0.0405263 -0.00885913 1.61833e-22)
(0.0407432 -0.00883042 -1.62421e-22)
(0.0409581 -0.00879748 -6.77535e-23)
(0.0411709 -0.00876046 6.80593e-23)
(0.0413816 -0.00871955 0)
(0.0415899 -0.00867495 0)
(0.0417959 -0.00862686 1.26903e-22)
(0.0419995 -0.00857546 3.20245e-23)
(0.0422006 -0.0085212 -8.14916e-23)
(0.0423991 -0.0084643 -1.23926e-22)
(0.0425951 -0.00840498 1.22428e-22)
(0.0427885 -0.00834346 0)
(0.0429793 -0.00827999 -8.04066e-23)
(0.0431675 -0.00821483 -1.47285e-22)
(0.0433532 -0.00814824 9.68625e-23)
(0.0435365 -0.00808049 -2.32666e-24)
(0.0437175 -0.00801184 -9.53269e-24)
(0.0438963 -0.0079426 4.4568e-23)
(0.0440732 -0.00787311 3.35456e-23)
(0.0442484 -0.00780375 6.94865e-23)
(0.0444226 -0.007735 -3.49093e-22)
(0.0445965 -0.0076674 6.34431e-25)
(0.044771 -0.00760166 0)
(0.0449477 -0.00753864 -3.15827e-22)
(0.0451283 -0.00747936 9.45837e-22)
(0.045315 -0.00742495 -6.38597e-22)
(0.04551 -0.00737658 -3.25508e-22)
(0.045715 -0.0073352 -1.26209e-23)
(0.0459308 -0.00730139 -3.20908e-22)
(0.0461559 -0.00727515 -1.35564e-23)
(0.0463867 -0.00725593 6.21814e-22)
(0.0466167 -0.00724283 -6.29539e-22)
(0.0468375 -0.00723499 -6.03732e-22)
(0.0470396 -0.007232 1.16824e-21)
(0.047213 -0.00723428 -8.45828e-24)
(0.0473486 -0.00724331 5.49991e-22)
(0.0474386 -0.00726169 -5.37079e-22)
(0.0474763 -0.00729318 5.13247e-22)
(0.0474563 -0.00734243 -1.00058e-21)
(0.0473735 -0.00741474 -4.82689e-22)
(0.0472225 -0.00751498 9.77605e-22)
(0.0469921 -0.00764441 -4.60478e-22)
(0.0466472 -0.00780024 -1.32198e-21)
(0.0461222 -0.00794382 -3.98193e-22)
(0.045157 -0.00802151 0)
(0.0350009 -0.00841237 0)
(0.035222 -0.00850809 -6.80252e-22)
(0.0354458 -0.00859873 5.33017e-24)
(0.035672 -0.0086839 0)
(0.0359004 -0.00876363 0)
(0.0361309 -0.00883788 -5.70069e-22)
(0.0363632 -0.00890654 1.60205e-21)
(0.036597 -0.00896951 -2.0629e-21)
(0.0368322 -0.00902675 1.00547e-21)
(0.0370686 -0.00907823 -4.63312e-22)
(0.0373058 -0.00912392 0)
(0.0375436 -0.00916381 -4.11249e-22)
(0.0377819 -0.0091979 3.79307e-22)
(0.0380203 -0.00922618 0)
(0.0382586 -0.0092487 0)
(0.0384966 -0.00926549 -2.83557e-22)
(0.038734 -0.0092766 5.17137e-23)
(0.0389707 -0.00928211 5.31602e-22)
(0.0392063 -0.0092821 4.40882e-22)
(0.0394408 -0.00927666 -4.29608e-22)
(0.0396738 -0.00926593 -1.82928e-22)
(0.0399052 -0.00925001 -5.80668e-22)
(0.0401349 -0.00922904 2.63914e-23)
(0.0403626 -0.0092032 7.01375e-23)
(0.0405882 -0.00917263 -1.80089e-22)
(0.0408116 -0.00913752 3.79956e-23)
(0.0410327 -0.00909806 -8.24057e-23)
(0.0412512 -0.00905445 0)
(0.0414672 -0.00900688 0)
(0.0416805 -0.00895558 0)
(0.0418911 -0.00890076 -2.86937e-23)
(0.042099 -0.00884264 -9.15032e-23)
(0.042304 -0.00878172 1.00571e-22)
(0.0425061 -0.0087182 1.43221e-22)
(0.0427054 -0.00865229 -1.41507e-22)
(0.0429018 -0.00858426 0)
(0.0430955 -0.00851438 9.92491e-23)
(0.0432865 -0.00844291 -4.89929e-23)
(0.0434749 -0.00837014 0)
(0.0436609 -0.00829635 5.93221e-23)
(0.0438446 -0.00822186 -1.1878e-23)
(0.0440264 -0.00814702 7.99442e-24)
(0.0442068 -0.00807221 -3.33977e-23)
(0.0443864 -0.00799791 0)
(0.044566 -0.00792469 -1.52387e-22)
(0.0447467 -0.00785322 1.49928e-22)
(0.0449301 -0.00778431 0)
(0.0451179 -0.00771886 -1.43723e-23)
(0.045312 -0.0076578 2.52893e-24)
(0.045514 -0.00760194 3.21044e-22)
(0.045725 -0.00755185 0)
(0.0459449 -0.00750764 -1.62693e-23)
(0.0461714 -0.00746893 -3.20499e-22)
(0.0464006 -0.00743485 -9.86036e-22)
(0.0466263 -0.00740426 -2.16996e-23)
(0.0468407 -0.00737615 6.11062e-22)
(0.0470352 -0.00734995 0)
(0.0472012 -0.00732581 0)
(0.0473304 -0.00730483 5.9554e-22)
(0.0474157 -0.0072891 0)
(0.0474506 -0.00728169 0)
(0.0474299 -0.00728665 -1.87785e-23)
(0.0473488 -0.00730872 -5.40507e-22)
(0.0472023 -0.00735303 -1.0473e-21)
(0.0469833 -0.0074233 1.04968e-21)
(0.0466736 -0.00751833 -3.00064e-23)
(0.0462217 -0.00762903 5.05231e-22)
(0.0455183 -0.00769845 4.80849e-22)
(0.044165 -0.00764114 0)
(0.0348247 -0.00882326 0)
(0.0350577 -0.0089199 6.82411e-22)
(0.0352934 -0.00901103 -1.94309e-21)
(0.0355315 -0.00909627 6.54177e-22)
(0.0357717 -0.00917564 0)
(0.036014 -0.00924911 1.69033e-21)
(0.036258 -0.00931656 -2.7219e-21)
(0.0365034 -0.0093779 5.40098e-23)
(0.0367501 -0.0094331 2.4422e-21)
(0.0369977 -0.00948212 -4.89964e-22)
(0.0372461 -0.00952496 4.29265e-22)
(0.037495 -0.0095616 4.00968e-22)
(0.0377441 -0.00959205 -1.10761e-21)
(0.0379932 -0.00961633 1.39897e-21)
(0.0382419 -0.00963448 -6.72023e-22)
(0.0384901 -0.00964656 2.63685e-22)
(0.0387374 -0.00965263 -1.07404e-21)
(0.0389837 -0.00965279 2.75499e-22)
(0.0392287 -0.00964715 -1.8259e-22)
(0.0394721 -0.00963581 2.33948e-22)
(0.0397138 -0.00961892 5.24945e-23)
(0.0399536 -0.00959662 8.2042e-22)
(0.0401912 -0.00956909 6.72973e-23)
(0.0404265 -0.0095365 -5.12071e-23)
(0.0406592 -0.00949904 -1.97038e-22)
(0.0408894 -0.00945691 4.41256e-23)
(0.0411168 -0.00941034 3.73291e-24)
(0.0413413 -0.00935954 -2.87266e-23)
(0.0415629 -0.00930475 0)
(0.0417814 -0.00924621 -7.50032e-23)
(0.0419968 -0.00918414 7.53904e-23)
(0.0422091 -0.00911886 1.10267e-23)
(0.0424183 -0.00905083 -7.2044e-23)
(0.0426243 -0.00898026 -8.22991e-23)
(0.0428273 -0.00890741 2.74995e-22)
(0.0430273 -0.00883256 -1.80719e-22)
(0.0432243 -0.00875602 1.64308e-22)
(0.0434187 -0.00867806 -2.25285e-22)
(0.0436105 -0.00859902 1.15907e-22)
(0.0438002 -0.00851923 -3.07186e-23)
(0.043988 -0.00843906 0)
(0.0441747 -0.00835893 3.6301e-23)
(0.0443609 -0.00827935 -3.57649e-23)
(0.0445476 -0.00820087 -7.79808e-23)
(0.044736 -0.00812417 2.37137e-22)
(0.0449277 -0.00804996 -1.59473e-22)
(0.0451241 -0.007979 -1.61074e-22)
(0.0453268 -0.00791196 0)
(0.0455368 -0.00784931 -6.894e-22)
(0.0457545 -0.0077912 6.77185e-22)
(0.0459788 -0.00773735 -3.28904e-22)
(0.0462071 -0.007687 3.20302e-22)
(0.0464351 -0.00763906 3.35062e-22)
(0.046657 -0.00759229 6.46938e-22)
(0.0468656 -0.00754559 6.32437e-22)
(0.0470536 -0.00749828 0)
(0.0472133 -0.00745031 -6.40496e-22)
(0.0473376 -0.00740239 0)
(0.0474199 -0.00735608 1.31544e-23)
(0.0474544 -0.0073138 -5.75617e-22)
(0.0474358 -0.00727881 5.87629e-22)
(0.0473596 -0.00725513 5.66464e-22)
(0.0472212 -0.00724732 -5.89156e-22)
(0.0470148 -0.00725985 2.50366e-24)
(0.0467301 -0.00729439 2.58909e-23)
(0.0463358 -0.00734566 1.64845e-21)
(0.0457537 -0.0073934 5.44097e-22)
(0.0447924 -0.00735771 4.50316e-22)
(0.0428686 -0.00710121 -4.9029e-22)
(0.0346459 -0.00926094 0)
(0.0348918 -0.00935833 0)
(0.0351405 -0.00944976 -1.29603e-21)
(0.0353913 -0.00953483 1.92338e-21)
(0.0356443 -0.00961355 6.02678e-22)
(0.0358992 -0.00968592 0)
(0.0361557 -0.0097518 0)
(0.0364135 -0.00981111 -5.12194e-22)
(0.0366725 -0.00986383 9.41737e-22)
(0.0369322 -0.00990993 -6.25683e-23)
(0.0371925 -0.00994941 -2.13689e-21)
(0.0374531 -0.00998226 4.22677e-22)
(0.0377136 -0.0100085 -3.46144e-22)
(0.0379739 -0.0100282 7.09345e-22)
(0.0382335 -0.0100413 -3.0575e-22)
(0.0384924 -0.0100481 0)
(0.0387501 -0.0100484 0)
(0.0390064 -0.0100426 2.62146e-23)
(0.0392611 -0.0100306 6.21691e-22)
(0.0395139 -0.0100127 -1.81109e-22)
(0.0397646 -0.00998891 1.37269e-22)
(0.0400129 -0.00995953 -1.28195e-22)
(0.0402587 -0.00992472 -7.71841e-23)
(0.0405018 -0.00988468 1.04124e-22)
(0.0407419 -0.00983964 5.05914e-23)
(0.0409791 -0.00978983 0)
(0.0412131 -0.00973549 0)
(0.0414438 -0.00967689 4.84503e-23)
(0.0416711 -0.00961428 0)
(0.0418951 -0.00954793 9.70494e-23)
(0.0421156 -0.0094781 -9.75022e-23)
(0.0423327 -0.0094052 -6.07962e-23)
(0.0425465 -0.00932963 7.14597e-23)
(0.0427568 -0.00925166 1.75181e-22)
(0.042964 -0.00917158 -9.13148e-23)
(0.0431682 -0.00908972 -1.11133e-22)
(0.0433695 -0.00900641 1.15611e-22)
(0.0435683 -0.008922 0)
(0.043765 -0.00883687 0)
(0.0439601 -0.00875144 3.5915e-23)
(0.0441544 -0.00866616 0)
(0.0443487 -0.00858156 0)
(0.044544 -0.00849821 -1.20088e-22)
(0.0447416 -0.00841671 1.61406e-22)
(0.0449429 -0.00833768 -8.50591e-23)
(0.045149 -0.00826167 1.62932e-22)
(0.045361 -0.00818905 0)
(0.0455793 -0.00811995 5.27545e-22)
(0.0458034 -0.00805413 -3.73664e-24)
(0.0460316 -0.00799094 0)
(0.046261 -0.00792941 -6.91222e-22)
(0.0464871 -0.00786832 -5.75635e-24)
(0.0467047 -0.0078064 -6.65744e-22)
(0.0469074 -0.00774257 -3.44232e-22)
(0.047089 -0.00767609 -6.6592e-22)
(0.0472429 -0.00760676 6.47376e-22)
(0.0473629 -0.00753497 6.28457e-22)
(0.0474433 -0.00746177 0)
(0.0474789 -0.00738892 -6.3184e-22)
(0.0474647 -0.00731888 1.58451e-23)
(0.0473963 -0.0072548 0)
(0.0472694 -0.0072004 0)
(0.047079 -0.00715971 6.11129e-22)
(0.0468178 -0.00713578 0)
(0.0464672 -0.0071268 0)
(0.0459747 -0.00712047 -6.57854e-22)
(0.0452137 -0.0070784 -5.97427e-22)
(0.0438581 -0.00689087 -5.90251e-22)
(0.0411129 -0.00638684 0)
(0.0344644 -0.00972792 0)
(0.0347244 -0.00982588 0)
(0.0349871 -0.00991737 0)
(0.0352519 -0.010002 6.32414e-22)
(0.0355187 -0.0100798 5.7241e-22)
(0.0357872 -0.0101507 -5.88459e-23)
(0.0360573 -0.0102146 -1.10987e-21)
(0.0363285 -0.0102715 5.11518e-22)
(0.0366006 -0.0103213 -4.75186e-22)
(0.0368733 -0.0103639 -8.95893e-22)
(0.0371463 -0.0103995 0)
(0.0374194 -0.010428 0)
(0.0376921 -0.0104494 -2.79896e-23)
(0.0379643 -0.0104639 -1.00824e-21)
(0.0382356 -0.0104714 1.16613e-21)
(0.0385057 -0.010472 -5.79787e-23)
(0.0387744 -0.010466 -5.10898e-22)
(0.0390413 -0.0104534 -2.19926e-22)
(0.0393061 -0.0104343 -1.77208e-23)
(0.0395687 -0.010409 0)
(0.0398288 -0.0103776 -2.54357e-22)
(0.0400861 -0.0103404 0)
(0.0403404 -0.0102975 -1.44892e-22)
(0.0405916 -0.0102493 1.22552e-22)
(0.0408395 -0.010196 -7.39468e-23)
(0.0410839 -0.0101378 1.88926e-23)
(0.0413248 -0.010075 -6.78008e-23)
(0.041562 -0.0100079 9.26383e-23)
(0.0417955 -0.00993692 -7.09319e-23)
(0.0420252 -0.00986222 0)
(0.0422513 -0.00978415 -1.45333e-22)
(0.0424737 -0.00970323 -1.08214e-22)
(0.0426926 -0.00961981 1.65571e-22)
(0.0429081 -0.00953421 -1.97791e-22)
(0.0431205 -0.00944681 1.13214e-22)
(0.04333 -0.00935797 -1.11793e-22)
(0.0435371 -0.0092681 -5.97166e-23)
(0.0437423 -0.00917763 6.98821e-23)
(0.0439462 -0.00908703 3.57462e-23)
(0.0441496 -0.00899678 -1.06788e-22)
(0.0443536 -0.00890742 -9.97805e-24)
(0.044559 -0.00881948 0)
(0.0447671 -0.00873347 3.95373e-23)
(0.0449789 -0.00864983 -8.1166e-23)
(0.0451951 -0.00856886 8.28828e-23)
(0.0454163 -0.00849062 0)
(0.0456421 -0.00841489 0)
(0.0458713 -0.00834111 1.86878e-22)
(0.0461018 -0.00826843 -3.47832e-22)
(0.0463305 -0.00819574 -7.20412e-22)
(0.0465532 -0.00812182 1.40408e-21)
(0.0467652 -0.00804548 -3.57206e-22)
(0.0469611 -0.00796571 3.41727e-22)
(0.0471357 -0.00788181 3.33789e-22)
(0.0472834 -0.00779344 -6.85125e-22)
(0.0473992 -0.00770074 6.70404e-22)
(0.0474781 -0.00760432 0)
(0.0475155 -0.00750531 -6.91884e-22)
(0.047507 -0.00740541 2.08293e-23)
(0.0474486 -0.00730686 6.75637e-22)
(0.0473361 -0.00721241 0)
(0.0471651 -0.00712517 0)
(0.0469298 -0.00704808 0)
(0.0466183 -0.00698144 1.428e-21)
(0.0461959 -0.00691751 7.03742e-22)
(0.0455716 -0.00683164 6.33252e-22)
(0.0445275 -0.00666124 -1.416e-21)
(0.0425414 -0.00626633 -6.10714e-23)
(0.0387049 -0.00550044 6.67921e-22)
(0.0342807 -0.0102272 0)
(0.034556 -0.0103255 1.35725e-21)
(0.0348339 -0.0104168 -1.68398e-21)
(0.0351138 -0.0105006 9.1301e-22)
(0.0353955 -0.0105771 -1.82071e-21)
(0.035679 -0.0106462 -5.62566e-22)
(0.0359637 -0.0107077 -5.29799e-22)
(0.0362493 -0.0107617 0)
(0.0365357 -0.010808 9.37836e-22)
(0.0368224 -0.0108467 8.5506e-22)
(0.0371092 -0.0108778 -8.43874e-22)
(0.0373957 -0.0109013 3.68383e-22)
(0.0376816 -0.0109173 -3.07894e-22)
(0.0379666 -0.0109258 3.80874e-22)
(0.0382503 -0.0109269 1.11666e-21)
(0.0385325 -0.0109207 -5.98623e-23)
(0.0388128 -0.0109075 -5.93792e-23)
(0.039091 -0.0108873 -4.16437e-22)
(0.0393667 -0.0108604 -1.73379e-22)
(0.0396396 -0.0108269 -2.41911e-22)
(0.0399096 -0.0107871 2.64017e-22)
(0.0401764 -0.0107412 0)
(0.0404398 -0.0106896 2.35255e-23)
(0.0406996 -0.0106324 0)
(0.0409556 -0.01057 7.65398e-24)
(0.0412078 -0.0105027 -1.87561e-23)
(0.041456 -0.0104308 2.24075e-23)
(0.0417003 -0.0103547 0)
(0.0419405 -0.0102748 6.14772e-23)
(0.0421768 -0.0101913 1.45922e-22)
(0.0424092 -0.0101046 -1.4611e-22)
(0.0426379 -0.0100154 8.35336e-23)
(0.0428631 -0.00992408 -2.11824e-22)
(0.0430851 -0.00983092 4.28326e-22)
(0.0433044 -0.00973643 -1.13989e-22)
(0.0435214 -0.00964105 0)
(0.0437367 -0.00954528 -7.14741e-23)
(0.0439511 -0.0094496 6.5927e-24)
(0.0441653 -0.00935451 1.13221e-22)
(0.0443804 -0.0092605 -9.59983e-23)
(0.0445971 -0.00916801 1.89051e-23)
(0.0448164 -0.00907739 -6.41775e-23)
(0.0450388 -0.00898885 4.16694e-23)
(0.0452646 -0.00890241 0)
(0.0454935 -0.00881784 0)
(0.0457248 -0.00873465 0)
(0.0459567 -0.00865209 1.84928e-22)
(0.0461869 -0.00856921 1.85296e-22)
(0.0464124 -0.00848493 0)
(0.0466293 -0.00839814 3.54786e-22)
(0.0468338 -0.00830782 3.73172e-22)
(0.0470213 -0.00821307 3.66465e-22)
(0.0471877 -0.00811324 0)
(0.0473284 -0.00800795 0)
(0.0474394 -0.0078971 -7.11943e-22)
(0.0475164 -0.00778096 7.02033e-22)
(0.0475557 -0.00766013 0)
(0.0475534 -0.0075356 6.96879e-22)
(0.047506 -0.00740875 -7.05159e-22)
(0.0474098 -0.00728139 -7.63344e-22)
(0.047261 -0.00715551 7.50341e-22)
(0.0470548 -0.00703322 -7.76973e-22)
(0.0467826 -0.00691537 0)
(0.0464216 -0.00679691 -7.90462e-22)
(0.0459048 -0.00666012 3.6961e-24)
(0.0450715 -0.00646038 -1.76349e-21)
(0.043549 -0.0061087 -1.68434e-21)
(0.0406258 -0.00543988 1.68048e-21)
(0.0355342 -0.0044262 -7.39918e-22)
(0.0340956 -0.0107623 3.51502e-22)
(0.0343873 -0.0108606 0)
(0.0346817 -0.0109514 3.27976e-22)
(0.034978 -0.0110341 -1.52455e-21)
(0.035276 -0.011109 2.65362e-21)
(0.0355755 -0.0111758 -5.85107e-22)
(0.0358762 -0.0112345 5.25666e-22)
(0.0361776 -0.011285 -9.46756e-22)
(0.0364794 -0.0113273 4.83819e-22)
(0.0367813 -0.0113614 4.29004e-22)
(0.037083 -0.0113874 3.83558e-22)
(0.0373841 -0.0114052 -1.0517e-21)
(0.0376842 -0.011415 3.6744e-22)
(0.037983 -0.0114168 -8.44595e-22)
(0.0382802 -0.0114108 -2.09958e-22)
(0.0385754 -0.0113971 6.15771e-23)
(0.0388684 -0.0113758 4.34334e-22)
(0.0391587 -0.0113473 0)
(0.039446 -0.0113116 0)
(0.0397302 -0.0112691 9.89698e-23)
(0.0400109 -0.0112201 9.39566e-23)
(0.040288 -0.0111647 7.94146e-23)
(0.0405612 -0.0111035 -4.18612e-23)
(0.0408304 -0.0110366 3.21044e-23)
(0.0410954 -0.0109645 -3.21453e-23)
(0.0413561 -0.0108875 3.59186e-23)
(0.0416127 -0.010806 4.9316e-23)
(0.0418649 -0.0107204 0)
(0.042113 -0.0106312 -6.06402e-23)
(0.0423571 -0.0105387 -1.72299e-22)
(0.0425974 -0.0104435 -2.3883e-23)
(0.0428341 -0.0103461 1.93131e-22)
(0.0430676 -0.010247 -1.20197e-22)
(0.0432985 -0.0101468 0)
(0.0435272 -0.0100459 6.90324e-23)
(0.0437545 -0.00994476 -7.30149e-23)
(0.043981 -0.00984393 6.96017e-23)
(0.0442075 -0.00974385 -1.52994e-22)
(0.0444346 -0.00964489 0)
(0.0446629 -0.00954732 -2.13823e-23)
(0.0448929 -0.00945128 2.11196e-23)
(0.0451247 -0.00935676 -3.4449e-23)
(0.045358 -0.00926352 1.32596e-22)
(0.0455921 -0.00917111 -2.68824e-22)
(0.0458256 -0.00907891 1.76732e-22)
(0.0460567 -0.00898614 1.84221e-22)
(0.0462831 -0.00889189 -1.67642e-22)
(0.0465021 -0.00879523 3.81446e-22)
(0.0467105 -0.00869525 -3.60063e-22)
(0.0469051 -0.0085911 -9.13345e-22)
(0.0470824 -0.00848207 5.66856e-24)
(0.047239 -0.00836758 -3.55614e-22)
(0.0473715 -0.00824721 0)
(0.0474765 -0.00812075 0)
(0.0475509 -0.00798814 -7.48489e-22)
(0.0475914 -0.00784957 1.11313e-21)
(0.047595 -0.00770545 -7.56511e-22)
(0.0475586 -0.0075564 0)
(0.0474795 -0.00740336 8.22922e-22)
(0.0473544 -0.00724734 1.61342e-21)
(0.0471795 -0.00708922 -8.14598e-22)
(0.0469482 -0.00692934 9.65516e-24)
(0.0466447 -0.00676415 9.29335e-22)
(0.0462201 -0.00657945 -6.19104e-23)
(0.0455461 -0.00634138 -1.98783e-21)
(0.0443394 -0.00597966 2.02831e-21)
(0.0420323 -0.00538466 9.91902e-22)
(0.0378831 -0.00441749 0)
(0.0315587 -0.00320876 0)
(0.0339104 -0.0113374 -3.46794e-22)
(0.03422 -0.0114355 -1.66532e-21)
(0.0345321 -0.0115255 1.32283e-21)
(0.0348462 -0.0116068 0)
(0.0351619 -0.0116795 2.89433e-22)
(0.0354789 -0.0117436 1.04996e-21)
(0.0357968 -0.011799 -7.97007e-22)
(0.0361153 -0.0118455 1.14608e-21)
(0.036434 -0.0118832 -9.11168e-22)
(0.0367525 -0.0119122 0)
(0.0370705 -0.0119324 -1.97627e-22)
(0.0373875 -0.0119438 0)
(0.0377031 -0.0119467 -2.64748e-22)
(0.0380171 -0.011941 8.6002e-22)
(0.038329 -0.0119271 0)
(0.0386385 -0.011905 0)
(0.0389453 -0.0118749 0)
(0.0392489 -0.0118372 1.95428e-22)
(0.0395492 -0.011792 -2.61667e-22)
(0.0398458 -0.0117397 -9.76066e-23)
(0.0401384 -0.0116806 0)
(0.040427 -0.0116152 0)
(0.0407113 -0.0115436 0)
(0.0409911 -0.0114665 -1.11111e-22)
(0.0412665 -0.0113841 1.59374e-22)