/*--------------------------------*- C++ -*----------------------------------*\
| =========                 |                                                 |
| \\      /  F ield         | OpenFOAM: The Open Source CFD Toolbox           |
|  \\    /   O peration     | Version:  2312                                  |
|   \\  /    A nd           | Website:  www.openfoam.com                      |
|    \\/     M anipulation  |                                                 |
\*---------------------------------------------------------------------------*/
FoamFile
{
    version     2.0;
    format      ascii;
    arch        "LSB;label=32;scalar=64";
    class       volScalarField;
    location    "1400";
    object      k;
}
// * * * * * * * * * * * * * * * * * * * * * * * * * * * * * * * * * * * * * //

dimensions      [0 2 -2 0 0 0 0];

internalField   nonuniform List<scalar> 
76025
(
4.75245e-06
4.75702e-06
4.76224e-06
4.76399e-06
4.76502e-06
4.76381e-06
4.76297e-06
4.7653e-06
4.76689e-06
4.76961e-06
4.77255e-06
4.77529e-06
4.77891e-06
4.78272e-06
4.78865e-06
4.79394e-06
4.8001e-06
4.80525e-06
4.8108e-06
4.81654e-06
4.82239e-06
4.82885e-06
4.83495e-06
4.84154e-06
4.84864e-06
4.85409e-06
4.86109e-06
4.86603e-06
4.87215e-06
4.87737e-06
4.88233e-06
4.88657e-06
4.89122e-06
4.89608e-06
4.90075e-06
4.90579e-06
4.91155e-06
4.9167e-06
4.92228e-06
4.92751e-06
4.93379e-06
4.94091e-06
4.94733e-06
4.9551e-06
4.96394e-06
4.97484e-06
4.9875e-06
5.00253e-06
5.02056e-06
5.04127e-06
5.06633e-06
5.09485e-06
5.12695e-06
5.16298e-06
5.2039e-06
5.24724e-06
5.29747e-06
5.35669e-06
5.4255e-06
5.52371e-06
5.62218e-06
5.73806e-06
5.87141e-06
6.03033e-06
6.20107e-06
6.43518e-06
6.66707e-06
6.91611e-06
7.41086e-06
4.78188e-06
4.7859e-06
4.79098e-06
4.79582e-06
4.79977e-06
4.80342e-06
4.80566e-06
4.8081e-06
4.81026e-06
4.81265e-06
4.81545e-06
4.81828e-06
4.82151e-06
4.82486e-06
4.829e-06
4.8333e-06
4.83822e-06
4.8432e-06
4.84832e-06
4.85348e-06
4.85877e-06
4.86417e-06
4.8697e-06
4.87526e-06
4.88114e-06
4.88667e-06
4.89248e-06
4.89796e-06
4.90349e-06
4.90905e-06
4.91433e-06
4.91931e-06
4.92433e-06
4.92942e-06
4.93474e-06
4.94032e-06
4.94633e-06
4.9525e-06
4.95924e-06
4.96666e-06
4.97513e-06
4.98398e-06
4.99361e-06
5.00438e-06
5.01665e-06
5.03038e-06
5.04595e-06
5.06394e-06
5.08448e-06
5.10765e-06
5.13356e-06
5.16254e-06
5.19463e-06
5.23061e-06
5.27092e-06
5.31769e-06
5.374e-06
5.44113e-06
5.52378e-06
5.61743e-06
5.72581e-06
5.85037e-06
5.99024e-06
6.14199e-06
6.32318e-06
6.57788e-06
6.79728e-06
7.12633e-06
7.87554e-06
4.82717e-06
4.82845e-06
4.83058e-06
4.83354e-06
4.83673e-06
4.84041e-06
4.84389e-06
4.84729e-06
4.85054e-06
4.85364e-06
4.85681e-06
4.85996e-06
4.86321e-06
4.86647e-06
4.87002e-06
4.87369e-06
4.8777e-06
4.8819e-06
4.88636e-06
4.89095e-06
4.89567e-06
4.90045e-06
4.90534e-06
4.91026e-06
4.91535e-06
4.92042e-06
4.92555e-06
4.93075e-06
4.93602e-06
4.94139e-06
4.94684e-06
4.95233e-06
4.95799e-06
4.9639e-06
4.97015e-06
4.97679e-06
4.98392e-06
4.99159e-06
4.99996e-06
5.00924e-06
5.01943e-06
5.03087e-06
5.04306e-06
5.05652e-06
5.07118e-06
5.08736e-06
5.10527e-06
5.12527e-06
5.14763e-06
5.17243e-06
5.19999e-06
5.23045e-06
5.26454e-06
5.30312e-06
5.34799e-06
5.4011e-06
5.4641e-06
5.53883e-06
5.6251e-06
5.72368e-06
5.83564e-06
5.95945e-06
6.10129e-06
6.25454e-06
6.46992e-06
6.71725e-06
6.93303e-06
7.32367e-06
8.35672e-06
4.87335e-06
4.87553e-06
4.8774e-06
4.87928e-06
4.88119e-06
4.88341e-06
4.88587e-06
4.88855e-06
4.8914e-06
4.89433e-06
4.89738e-06
4.90049e-06
4.90369e-06
4.90695e-06
4.91033e-06
4.91381e-06
4.91746e-06
4.92129e-06
4.92532e-06
4.92956e-06
4.93398e-06
4.93851e-06
4.94314e-06
4.94784e-06
4.95261e-06
4.95747e-06
4.9624e-06
4.96747e-06
4.97275e-06
4.97825e-06
4.98402e-06
4.9901e-06
4.99655e-06
5.00346e-06
5.01086e-06
5.01884e-06
5.02749e-06
5.03685e-06
5.04705e-06
5.05819e-06
5.07038e-06
5.08359e-06
5.09811e-06
5.11393e-06
5.13087e-06
5.14922e-06
5.16923e-06
5.19125e-06
5.21555e-06
5.24238e-06
5.27206e-06
5.3051e-06
5.34246e-06
5.38556e-06
5.4361e-06
5.49553e-06
5.56497e-06
5.64504e-06
5.73599e-06
5.83788e-06
5.95194e-06
6.08109e-06
6.22808e-06
6.39476e-06
6.63497e-06
6.86265e-06
7.10541e-06
7.59268e-06
9.07515e-06
4.91341e-06
4.91793e-06
4.92183e-06
4.92511e-06
4.92785e-06
4.93024e-06
4.93244e-06
4.93458e-06
4.93676e-06
4.93903e-06
4.94143e-06
4.94394e-06
4.9466e-06
4.9494e-06
4.95236e-06
4.95547e-06
4.95877e-06
4.96226e-06
4.96598e-06
4.96993e-06
4.9741e-06
4.97848e-06
4.98302e-06
4.98772e-06
4.99255e-06
4.99755e-06
5.00271e-06
5.00809e-06
5.01378e-06
5.01982e-06
5.02627e-06
5.03318e-06
5.04062e-06
5.04864e-06
5.05727e-06
5.0666e-06
5.07667e-06
5.08755e-06
5.0993e-06
5.112e-06
5.12573e-06
5.14057e-06
5.15664e-06
5.17406e-06
5.19325e-06
5.21403e-06
5.23654e-06
5.26114e-06
5.28816e-06
5.31795e-06
5.35103e-06
5.3882e-06
5.43068e-06
5.47984e-06
5.53689e-06
5.60283e-06
5.678e-06
5.76315e-06
5.85757e-06
5.96352e-06
6.08245e-06
6.21855e-06
6.36975e-06
6.56029e-06
6.81025e-06
7.02695e-06
7.30744e-06
7.9019e-06
9.89737e-06
4.95165e-06
4.95692e-06
4.96208e-06
4.96689e-06
4.97121e-06
4.97504e-06
4.9784e-06
4.98135e-06
4.98402e-06
4.98651e-06
4.98892e-06
4.99131e-06
4.99374e-06
4.99626e-06
4.9989e-06
5.00171e-06
5.00472e-06
5.00796e-06
5.01146e-06
5.01522e-06
5.01926e-06
5.02356e-06
5.02813e-06
5.03294e-06
5.03799e-06
5.04331e-06
5.04888e-06
5.05477e-06
5.06105e-06
5.06778e-06
5.07498e-06
5.08273e-06
5.09108e-06
5.10008e-06
5.10973e-06
5.12014e-06
5.13134e-06
5.14341e-06
5.1564e-06
5.17042e-06
5.18557e-06
5.20198e-06
5.21984e-06
5.23927e-06
5.26072e-06
5.28458e-06
5.31038e-06
5.33848e-06
5.36918e-06
5.40303e-06
5.44072e-06
5.48324e-06
5.53167e-06
5.58705e-06
5.65012e-06
5.72166e-06
5.80171e-06
5.89106e-06
5.98991e-06
6.10153e-06
6.22685e-06
6.37039e-06
6.53258e-06
6.75117e-06
6.99459e-06
7.21421e-06
7.55969e-06
8.29986e-06
1.10501e-05
4.9952e-06
4.99961e-06
5.00437e-06
5.00926e-06
5.01411e-06
5.0188e-06
5.02323e-06
5.02733e-06
5.0311e-06
5.03457e-06
5.03781e-06
5.04088e-06
5.04384e-06
5.04674e-06
5.04966e-06
5.05264e-06
5.05574e-06
5.05901e-06
5.06251e-06
5.06626e-06
5.0703e-06
5.07463e-06
5.07927e-06
5.08423e-06
5.08951e-06
5.09514e-06
5.10111e-06
5.10749e-06
5.11432e-06
5.12168e-06
5.12958e-06
5.1381e-06
5.14728e-06
5.15719e-06
5.1678e-06
5.17926e-06
5.19159e-06
5.20491e-06
5.21928e-06
5.23487e-06
5.25178e-06
5.27023e-06
5.29031e-06
5.31246e-06
5.33679e-06
5.36369e-06
5.39335e-06
5.42563e-06
5.46082e-06
5.49959e-06
5.54261e-06
5.59082e-06
5.64508e-06
5.70619e-06
5.77467e-06
5.85135e-06
5.93604e-06
6.03085e-06
6.1353e-06
6.25467e-06
6.38825e-06
6.54057e-06
6.72249e-06
6.9579e-06
7.19314e-06
7.43354e-06
7.87097e-06
8.87711e-06
1.29712e-05
5.04532e-06
5.04862e-06
5.05232e-06
5.05632e-06
5.06058e-06
5.06502e-06
5.06955e-06
5.07405e-06
5.07849e-06
5.08279e-06
5.08697e-06
5.09101e-06
5.09493e-06
5.09876e-06
5.10253e-06
5.10629e-06
5.11009e-06
5.11398e-06
5.11802e-06
5.12225e-06
5.12673e-06
5.13147e-06
5.1365e-06
5.14185e-06
5.14753e-06
5.1536e-06
5.16004e-06
5.16694e-06
5.17435e-06
5.18235e-06
5.19097e-06
5.2003e-06
5.21037e-06
5.22125e-06
5.23295e-06
5.24561e-06
5.25929e-06
5.27413e-06
5.29022e-06
5.30775e-06
5.32687e-06
5.34773e-06
5.37057e-06
5.39573e-06
5.4234e-06
5.45371e-06
5.48701e-06
5.52356e-06
5.56359e-06
5.60758e-06
5.65602e-06
5.70976e-06
5.76952e-06
5.83602e-06
5.90979e-06
5.99155e-06
6.08266e-06
6.18375e-06
6.29615e-06
6.42523e-06
6.56718e-06
6.73214e-06
6.93649e-06
7.17831e-06
7.41126e-06
7.70903e-06
8.29283e-06
9.78189e-06
1.52462e-05
5.10234e-06
5.10498e-06
5.10787e-06
5.11097e-06
5.11434e-06
5.11799e-06
5.1219e-06
5.12603e-06
5.13033e-06
5.13476e-06
5.13929e-06
5.14387e-06
5.14848e-06
5.15309e-06
5.1577e-06
5.16232e-06
5.16695e-06
5.17164e-06
5.17643e-06
5.18137e-06
5.18649e-06
5.19185e-06
5.19749e-06
5.20345e-06
5.20975e-06
5.21647e-06
5.22361e-06
5.23128e-06
5.23955e-06
5.2485e-06
5.25816e-06
5.26865e-06
5.27998e-06
5.29221e-06
5.30539e-06
5.31966e-06
5.3351e-06
5.35186e-06
5.37009e-06
5.38997e-06
5.41165e-06
5.43529e-06
5.46127e-06
5.48973e-06
5.52092e-06
5.55485e-06
5.59185e-06
5.6322e-06
5.67648e-06
5.72504e-06
5.77861e-06
5.83767e-06
5.90292e-06
5.97521e-06
6.05527e-06
6.14404e-06
6.24256e-06
6.3517e-06
6.47444e-06
6.61299e-06
6.76429e-06
6.94738e-06
7.17066e-06
7.41424e-06
7.66938e-06
8.08273e-06
8.93002e-06
1.11579e-05
1.90098e-05
5.16579e-06
5.16831e-06
5.17094e-06
5.17364e-06
5.17648e-06
5.17951e-06
5.18278e-06
5.18628e-06
5.19005e-06
5.19406e-06
5.19834e-06
5.20285e-06
5.20756e-06
5.21246e-06
5.2175e-06
5.22268e-06
5.22797e-06
5.23339e-06
5.23895e-06
5.24469e-06
5.25065e-06
5.25687e-06
5.2634e-06
5.27029e-06
5.27758e-06
5.28534e-06
5.29357e-06
5.30241e-06
5.31191e-06
5.32216e-06
5.33317e-06
5.34509e-06
5.35789e-06
5.37168e-06
5.38652e-06
5.40258e-06
5.41998e-06
5.4389e-06
5.45951e-06
5.48202e-06
5.5065e-06
5.53324e-06
5.56247e-06
5.59431e-06
5.62885e-06
5.66621e-06
5.70671e-06
5.7506e-06
5.79873e-06
5.85158e-06
5.91012e-06
5.97476e-06
6.04633e-06
6.12561e-06
6.21309e-06
6.31034e-06
6.41794e-06
6.53627e-06
6.67083e-06
6.81683e-06
6.98177e-06
7.18613e-06
7.42403e-06
7.68452e-06
8.01105e-06
8.62878e-06
9.91357e-06
1.32709e-05
2.49263e-05
5.2364e-06
5.23925e-06
5.24217e-06
5.24509e-06
5.24806e-06
5.25111e-06
5.25427e-06
5.25758e-06
5.26108e-06
5.26479e-06
5.26876e-06
5.273e-06
5.27754e-06
5.28238e-06
5.28752e-06
5.29295e-06
5.29866e-06
5.30464e-06
5.31089e-06
5.31742e-06
5.32426e-06
5.33143e-06
5.33897e-06
5.3469e-06
5.35528e-06
5.36414e-06
5.3735e-06
5.3835e-06
5.39419e-06
5.40567e-06
5.41797e-06
5.43124e-06
5.4455e-06
5.46088e-06
5.47749e-06
5.49555e-06
5.51515e-06
5.53651e-06
5.55974e-06
5.58497e-06
5.61229e-06
5.64199e-06
5.67416e-06
5.70885e-06
5.74627e-06
5.78658e-06
5.83032e-06
5.87796e-06
5.93035e-06
5.98812e-06
6.05242e-06
6.12352e-06
6.20256e-06
6.28993e-06
6.38612e-06
6.49294e-06
6.60955e-06
6.73852e-06
6.8834e-06
7.03681e-06
7.22351e-06
7.45058e-06
7.71431e-06
8.03121e-06
8.51859e-06
9.46625e-06
1.14446e-05
1.65519e-05
3.45174e-05
5.3123e-06
5.31553e-06
5.31887e-06
5.32224e-06
5.32566e-06
5.32915e-06
5.33272e-06
5.33638e-06
5.34016e-06
5.3441e-06
5.34825e-06
5.35264e-06
5.35732e-06
5.36232e-06
5.36769e-06
5.37343e-06
5.37957e-06
5.38609e-06
5.39302e-06
5.40032e-06
5.40803e-06
5.41614e-06
5.42469e-06
5.43367e-06
5.44315e-06
5.45315e-06
5.4637e-06
5.47496e-06
5.48699e-06
5.49989e-06
5.51373e-06
5.52867e-06
5.54473e-06
5.56208e-06
5.58081e-06
5.60112e-06
5.62303e-06
5.64676e-06
5.67229e-06
5.69974e-06
5.72927e-06
5.76113e-06
5.79539e-06
5.83233e-06
5.87224e-06
5.91567e-06
5.96319e-06
6.01553e-06
6.0735e-06
6.13764e-06
6.20901e-06
6.28767e-06
6.37521e-06
6.47114e-06
6.57671e-06
6.69309e-06
6.8181e-06
6.9588e-06
7.11088e-06
7.28005e-06
7.49852e-06
7.76046e-06
8.08725e-06
8.5397e-06
9.29646e-06
1.072e-05
1.39113e-05
2.23595e-05
4.65222e-05
5.39714e-06
5.40083e-06
5.40463e-06
5.40847e-06
5.41238e-06
5.41638e-06
5.42048e-06
5.42469e-06
5.42901e-06
5.43349e-06
5.43815e-06
5.44305e-06
5.44822e-06
5.45371e-06
5.45958e-06
5.46584e-06
5.47255e-06
5.4797e-06
5.48733e-06
5.49541e-06
5.50397e-06
5.51301e-06
5.52255e-06
5.53259e-06
5.5432e-06
5.55439e-06
5.56621e-06
5.57883e-06
5.59229e-06
5.60671e-06
5.62216e-06
5.63876e-06
5.65652e-06
5.6756e-06
5.69604e-06
5.71802e-06
5.74153e-06
5.76679e-06
5.79375e-06
5.82271e-06
5.85388e-06
5.88765e-06
5.92422e-06
5.96416e-06
6.00786e-06
6.05606e-06
6.10922e-06
6.16812e-06
6.2332e-06
6.30506e-06
6.38447e-06
6.47144e-06
6.56789e-06
6.67219e-06
6.78728e-06
6.91157e-06
7.04592e-06
7.19817e-06
7.36085e-06
7.56576e-06
7.8337e-06
8.16744e-06
8.62698e-06
9.30941e-06
1.04326e-05
1.27537e-05
1.84847e-05
3.32867e-05
5.54596e-05
5.491e-06
5.49537e-06
5.49985e-06
5.50436e-06
5.50893e-06
5.51358e-06
5.51834e-06
5.5232e-06
5.52818e-06
5.53331e-06
5.53864e-06
5.54418e-06
5.55001e-06
5.55614e-06
5.56265e-06
5.56955e-06
5.57691e-06
5.58474e-06
5.59308e-06
5.60193e-06
5.61133e-06
5.62126e-06
5.63177e-06
5.64285e-06
5.65457e-06
5.66692e-06
5.67998e-06
5.69388e-06
5.70867e-06
5.72443e-06
5.74123e-06
5.75918e-06
5.77826e-06
5.79868e-06
5.82048e-06
5.84384e-06
5.86884e-06
5.89575e-06
5.92461e-06
5.95593e-06
5.98995e-06
6.02721e-06
6.06794e-06
6.11287e-06
6.16218e-06
6.21679e-06
6.27661e-06
6.34288e-06
6.41517e-06
6.49506e-06
6.58232e-06
6.67776e-06
6.78259e-06
6.89477e-06
7.01857e-06
7.15001e-06
7.29791e-06
7.46477e-06
7.65955e-06
7.9335e-06
8.28436e-06
8.7515e-06
9.41725e-06
1.04053e-05
1.22503e-05
1.66669e-05
2.8397e-05
4.44167e-05
6.03373e-05
5.59794e-06
5.60311e-06
5.60844e-06
5.61382e-06
5.61926e-06
5.62477e-06
5.63038e-06
5.63608e-06
5.64189e-06
5.64783e-06
5.65395e-06
5.66027e-06
5.66684e-06
5.67368e-06
5.68087e-06
5.68841e-06
5.69638e-06
5.7048e-06
5.71371e-06
5.72314e-06
5.73312e-06
5.74367e-06
5.75484e-06
5.76664e-06
5.77912e-06
5.79228e-06
5.80625e-06
5.82112e-06
5.83692e-06
5.85376e-06
5.87172e-06
5.89089e-06
5.91132e-06
5.93325e-06
5.95676e-06
5.9821e-06
6.00942e-06
6.039e-06
6.07103e-06
6.10609e-06
6.14439e-06
6.18653e-06
6.23263e-06
6.28354e-06
6.33899e-06
6.40048e-06
6.46687e-06
6.54092e-06
6.62017e-06
6.70893e-06
6.80359e-06
6.90807e-06
7.01999e-06
7.14001e-06
7.27223e-06
7.41681e-06
7.58731e-06
7.78746e-06
8.06197e-06
8.44176e-06
8.91628e-06
9.5728e-06
1.04871e-05
1.21765e-05
1.60264e-05
2.57712e-05
3.95142e-05
4.84986e-05
6.22454e-05
5.71806e-06
5.72411e-06
5.73037e-06
5.73674e-06
5.74318e-06
5.74973e-06
5.75636e-06
5.76307e-06
5.76986e-06
5.77677e-06
5.7838e-06
5.79101e-06
5.79843e-06
5.80608e-06
5.81403e-06
5.82231e-06
5.83096e-06
5.84003e-06
5.84956e-06
5.8596e-06
5.87019e-06
5.88136e-06
5.89316e-06
5.90565e-06
5.91887e-06
5.93286e-06
5.94776e-06
5.96365e-06
5.98059e-06
5.99874e-06
6.01818e-06
6.03901e-06
6.06138e-06
6.08553e-06
6.11157e-06
6.13984e-06
6.17046e-06
6.20373e-06
6.23998e-06
6.27971e-06
6.32311e-06
6.37079e-06
6.42271e-06
6.47995e-06
6.54175e-06
6.61047e-06
6.68362e-06
6.76627e-06
6.85243e-06
6.95102e-06
7.05127e-06
7.16484e-06
7.28122e-06
7.41217e-06
7.55935e-06
7.73388e-06
7.94737e-06
8.23125e-06
8.63414e-06
9.12456e-06
9.7595e-06
1.06398e-05
1.22504e-05
1.61464e-05
2.58532e-05
3.63011e-05
4.56914e-05
5.3302e-05
6.36964e-05
5.85807e-06
5.86492e-06
5.87206e-06
5.87936e-06
5.8868e-06
5.89438e-06
5.90208e-06
5.90987e-06
5.91773e-06
5.92569e-06
5.93374e-06
5.94193e-06
5.95027e-06
5.9588e-06
5.96757e-06
5.97662e-06
5.986e-06
5.99577e-06
6.00597e-06
6.01667e-06
6.02793e-06
6.03979e-06
6.05233e-06
6.06563e-06
6.07973e-06
6.09475e-06
6.11082e-06
6.12804e-06
6.14651e-06
6.16641e-06
6.18782e-06
6.2109e-06
6.23585e-06
6.26289e-06
6.29219e-06
6.32404e-06
6.3586e-06
6.39616e-06
6.43718e-06
6.48197e-06
6.53085e-06
6.5843e-06
6.64234e-06
6.70616e-06
6.77474e-06
6.85126e-06
6.93172e-06
7.02343e-06
7.1158e-06
7.22342e-06
7.32572e-06
7.44992e-06
7.57268e-06
7.7312e-06
7.91207e-06
8.14742e-06
8.448e-06
8.86585e-06
9.3696e-06
9.9675e-06
1.08141e-05
1.26826e-05
1.66172e-05
2.692e-05
3.53417e-05
4.14269e-05
4.73269e-05
5.29571e-05
6.01389e-05
6.01927e-06
6.02704e-06
6.0351e-06
6.04338e-06
6.05181e-06
6.06043e-06
6.0692e-06
6.0781e-06
6.0871e-06
6.09623e-06
6.10546e-06
6.11484e-06
6.12437e-06
6.13409e-06
6.14404e-06
6.15425e-06
6.16478e-06
6.17568e-06
6.18701e-06
6.19883e-06
6.21122e-06
6.22423e-06
6.23797e-06
6.2525e-06
6.26792e-06
6.28439e-06
6.30205e-06
6.32101e-06
6.34145e-06
6.36353e-06
6.38735e-06
6.41313e-06
6.44106e-06
6.47138e-06
6.50429e-06
6.54004e-06
6.57882e-06
6.621e-06
6.66706e-06
6.71716e-06
6.77186e-06
6.83138e-06
6.89616e-06
6.96712e-06
7.04344e-06
7.12807e-06
7.21624e-06
7.3151e-06
7.41201e-06
7.5258e-06
7.63237e-06
7.77862e-06
7.92751e-06
8.14638e-06
8.38466e-06
8.72919e-06
9.13288e-06
9.63535e-06
1.01743e-05
1.10738e-05
1.32766e-05
1.81508e-05
2.81213e-05
3.50553e-05
3.88406e-05
4.23222e-05
4.79982e-05
5.1742e-05
5.32286e-05
6.21077e-06
6.21945e-06
6.22844e-06
6.23762e-06
6.24695e-06
6.25646e-06
6.26614e-06
6.27595e-06
6.28589e-06
6.29596e-06
6.30618e-06
6.31655e-06
6.32712e-06
6.3379e-06
6.34894e-06
6.36028e-06
6.37199e-06
6.3841e-06
6.3967e-06
6.40985e-06
6.42364e-06
6.43813e-06
6.45344e-06
6.46963e-06
6.48688e-06
6.50532e-06
6.52511e-06
6.54637e-06
6.56933e-06
6.59412e-06
6.62088e-06
6.64989e-06
6.68134e-06
6.71542e-06
6.75242e-06
6.79247e-06
6.83593e-06
6.88316e-06
6.93471e-06
6.99065e-06
7.05184e-06
7.11824e-06
7.19082e-06
7.26954e-06
7.35439e-06
7.44555e-06
7.54005e-06
7.64202e-06
7.74592e-06
7.87213e-06
8.01078e-06
8.20234e-06
8.41411e-06
8.70914e-06
9.03412e-06
9.46606e-06
9.87847e-06
1.03781e-05
1.1438e-05
1.4118e-05
2.08191e-05
2.9119e-05
3.42545e-05
3.73922e-05
3.93924e-05
4.30131e-05
4.51426e-05
4.35214e-05
4.48542e-05
6.43506e-06
6.4452e-06
6.45566e-06
6.46631e-06
6.47711e-06
6.48807e-06
6.49919e-06
6.51041e-06
6.52176e-06
6.5332e-06
6.5448e-06
6.55653e-06
6.56846e-06
6.5806e-06
6.59303e-06
6.60575e-06
6.61889e-06
6.63245e-06
6.64658e-06
6.66129e-06
6.67674e-06
6.69297e-06
6.71013e-06
6.72828e-06
6.74765e-06
6.76836e-06
6.79056e-06
6.81442e-06
6.84017e-06
6.86784e-06
6.89775e-06
6.93005e-06
6.96506e-06
7.00292e-06
7.0441e-06
7.08858e-06
7.13716e-06
7.18994e-06
7.24778e-06
7.31062e-06
7.3796e-06
7.454e-06
7.53569e-06
7.62121e-06
7.71408e-06
7.80758e-06
7.91061e-06
8.02321e-06
8.15978e-06
8.32158e-06
8.52916e-06
8.77297e-06
9.07159e-06
9.40879e-06
9.78363e-06
1.01181e-05
1.06841e-05
1.20285e-05
1.54897e-05
2.38068e-05
2.98925e-05
3.31476e-05
3.57684e-05
3.72505e-05
3.76957e-05
3.55155e-05
3.53842e-05
3.66325e-05
3.98191e-05
6.70651e-06
6.71766e-06
6.72915e-06
6.74084e-06
6.75269e-06
6.76471e-06
6.77691e-06
6.78923e-06
6.80171e-06
6.81431e-06
6.8271e-06
6.84007e-06
6.85329e-06
6.86677e-06
6.88059e-06
6.89479e-06
6.90946e-06
6.92466e-06
6.94049e-06
6.95703e-06
6.97439e-06
6.99266e-06
7.01197e-06
7.03248e-06
7.05438e-06
7.07776e-06
7.10288e-06
7.12984e-06
7.15894e-06
7.19021e-06
7.22419e-06
7.26074e-06
7.30058e-06
7.34341e-06
7.39031e-06
7.44067e-06
7.49629e-06
7.55629e-06
7.62252e-06
7.69379e-06
7.77231e-06
7.85406e-06
7.94489e-06
8.03262e-06
8.1365e-06
8.23867e-06
8.37686e-06
8.51936e-06
8.72126e-06
8.92782e-06
9.20905e-06
9.47273e-06
9.80497e-06
1.00623e-05
1.04104e-05
1.11328e-05
1.3016e-05
1.75864e-05
2.55456e-05
2.99812e-05
3.24231e-05
3.47508e-05
3.3972e-05
3.35331e-05
3.02184e-05
3.02609e-05
3.13244e-05
3.31272e-05
3.76622e-05
7.03503e-06
7.04845e-06
7.06217e-06
7.07604e-06
7.09003e-06
7.10416e-06
7.11841e-06
7.13277e-06
7.14724e-06
7.16182e-06
7.17657e-06
7.19149e-06
7.20667e-06
7.22212e-06
7.23794e-06
7.25417e-06
7.27091e-06
7.28823e-06
7.30624e-06
7.32503e-06
7.34472e-06
7.3654e-06
7.38728e-06
7.41046e-06
7.4352e-06
7.46147e-06
7.48978e-06
7.51997e-06
7.55254e-06
7.58733e-06
7.62529e-06
7.66586e-06
7.71076e-06
7.75853e-06
7.81223e-06
7.86892e-06
7.93337e-06
8.00091e-06
8.07722e-06
8.1554e-06
8.24374e-06
8.32801e-06
8.43106e-06
8.52785e-06
8.66781e-06
8.79555e-06
8.99533e-06
9.17195e-06
9.42887e-06
9.63706e-06
9.92037e-06
1.01072e-05
1.0422e-05
1.08722e-05
1.19938e-05
1.43641e-05
2.04075e-05
2.62496e-05
2.96523e-05
3.20018e-05
3.21716e-05
3.09182e-05
2.76954e-05
2.47179e-05
2.53007e-05
2.71495e-05
2.90458e-05
3.19744e-05
3.89793e-05
7.43915e-06
7.45369e-06
7.46864e-06
7.48378e-06
7.49909e-06
7.51457e-06
7.53023e-06
7.54602e-06
7.56199e-06
7.5781e-06
7.59445e-06
7.61103e-06
7.62792e-06
7.64517e-06
7.66286e-06
7.68105e-06
7.69987e-06
7.71937e-06
7.73972e-06
7.76097e-06
7.78332e-06
7.80687e-06
7.83193e-06
7.85848e-06
7.88701e-06
7.91735e-06
7.95027e-06
7.98537e-06
8.02385e-06
8.06497e-06
8.11048e-06
8.15858e-06
8.21287e-06
8.26857e-06
8.33361e-06
8.39755e-06
8.47379e-06
8.54588e-06
8.6332e-06
8.71251e-06
8.81407e-06
8.90745e-06
9.04527e-06
9.16298e-06
9.35223e-06
9.50205e-06
9.73245e-06
9.87774e-06
1.01108e-05
1.02663e-05
1.05272e-05
1.09144e-05
1.18228e-05
1.31664e-05
1.63462e-05
2.10025e-05
2.54797e-05
2.89202e-05
3.1218e-05
3.08982e-05
2.75718e-05
2.04961e-05
1.94061e-05
2.10264e-05
2.37626e-05
2.70292e-05
3.09479e-05
3.64085e-05
4.66339e-05
7.95808e-06
7.97628e-06
7.9948e-06
8.0135e-06
8.03235e-06
8.05136e-06
8.07055e-06
8.08987e-06
8.10935e-06
8.12901e-06
8.1489e-06
8.16907e-06
8.18959e-06
8.21051e-06
8.23195e-06
8.25396e-06
8.2767e-06
8.30025e-06
8.32476e-06
8.35033e-06
8.37722e-06
8.40545e-06
8.43537e-06
8.46689e-06
8.50056e-06
8.53628e-06
8.5746e-06
8.61511e-06
8.65906e-06
8.70543e-06
8.75652e-06
8.80915e-06
8.86955e-06
8.92768e-06
8.99954e-06
9.06052e-06
9.1444e-06
9.20764e-06
9.30682e-06
9.39078e-06
9.5147e-06
9.62143e-06
9.78608e-06
9.89362e-06
1.0086e-05
1.01913e-05
1.03529e-05
1.04928e-05
1.07981e-05
1.1123e-05
1.1758e-05
1.26231e-05
1.40638e-05
1.60853e-05
1.94099e-05
2.31108e-05
2.69093e-05
2.90037e-05
2.82665e-05
2.13898e-05
1.47869e-05
1.45459e-05
1.6496e-05
2.20224e-05
2.78008e-05
3.36784e-05
3.95339e-05
4.67407e-05
5.85236e-05
8.63854e-06
8.65779e-06
8.67758e-06
8.69771e-06
8.71804e-06
8.73869e-06
8.75961e-06
8.78082e-06
8.80232e-06
8.82418e-06
8.84644e-06
8.8692e-06
8.89255e-06
8.91657e-06
8.94138e-06
8.96709e-06
8.99383e-06
9.02174e-06
9.05101e-06
9.08177e-06
9.11416e-06
9.14834e-06
9.18425e-06
9.2224e-06
9.26196e-06
9.30466e-06
9.34819e-06
9.39582e-06
9.44429e-06
9.49574e-06
9.54808e-06
9.60138e-06
9.66078e-06
9.71471e-06
9.78085e-06
9.83023e-06
9.92063e-06
9.96606e-06
1.00805e-05
1.01552e-05
1.02499e-05
1.03534e-05
1.04527e-05
1.05436e-05
1.07686e-05
1.07774e-05
1.10111e-05
1.11515e-05
1.13791e-05
1.17147e-05
1.22589e-05
1.30801e-05
1.46146e-05
1.68405e-05
1.98225e-05
2.3884e-05
2.5334e-05
2.41978e-05
1.57026e-05
9.99196e-06
9.7337e-06
1.24245e-05
1.9983e-05
2.86185e-05
3.67412e-05
4.38322e-05
5.0558e-05
5.86676e-05
7.05874e-05
9.56974e-06
9.59641e-06
9.62344e-06
9.651e-06
9.67907e-06
9.70752e-06
9.73629e-06
9.76558e-06
9.79513e-06
9.82505e-06
9.85525e-06
9.8858e-06
9.9165e-06
9.94755e-06
9.97876e-06
1.00101e-05
1.00417e-05
1.00732e-05
1.01041e-05
1.01343e-05
1.01636e-05
1.01921e-05
1.02196e-05
1.02487e-05
1.02745e-05
1.03057e-05
1.03297e-05
1.03647e-05
1.03914e-05
1.04238e-05
1.04466e-05
1.04743e-05
1.05013e-05
1.05354e-05
1.05666e-05
1.06215e-05
1.06712e-05
1.06825e-05
1.08442e-05
1.08487e-05
1.09639e-05
1.11782e-05
1.13785e-05
1.15899e-05
1.11625e-05
1.12568e-05
1.13586e-05
1.09767e-05
1.11192e-05
1.16122e-05
1.21389e-05
1.31746e-05
1.44883e-05
1.63289e-05
1.65919e-05
1.67181e-05
1.62656e-05
1.11165e-05
5.99424e-06
5.42104e-06
7.86603e-06
1.34319e-05
2.24537e-05
3.33913e-05
4.40523e-05
5.30829e-05
6.12059e-05
7.04294e-05
8.24518e-05
1.11082e-05
1.11215e-05
1.11422e-05
1.11346e-05
1.11322e-05
1.11327e-05
1.115e-05
1.11392e-05
1.11399e-05
1.11361e-05
1.11283e-05
1.11218e-05
1.11366e-05
1.11207e-05
1.11274e-05
1.11033e-05
1.10928e-05
1.10891e-05
1.10652e-05
1.10489e-05
1.09963e-05
1.09699e-05
1.0976e-05
1.09873e-05
1.09893e-05
1.10072e-05
1.10115e-05
1.10449e-05
1.10657e-05
1.11157e-05
1.11815e-05
1.1248e-05
1.13878e-05
1.15007e-05
1.16682e-05
1.19205e-05
1.19139e-05
1.23286e-05
1.27864e-05
1.27578e-05
1.27562e-05
1.2428e-05
1.2244e-05
1.18396e-05
1.14707e-05
1.11997e-05
1.06304e-05
9.8467e-06
9.22286e-06
8.31027e-06
7.25788e-06
6.28202e-06
5.19578e-06
4.65871e-06
4.68869e-06
5.39387e-06
5.18858e-06
2.70296e-06
1.48496e-06
3.95247e-06
7.65909e-06
1.38219e-05
2.30939e-05
3.44434e-05
4.63375e-05
5.77515e-05
6.86713e-05
8.03406e-05
9.38508e-05
1.05527e-05
1.05859e-05
1.0622e-05
1.06591e-05
1.06977e-05
1.07367e-05
1.07774e-05
1.08163e-05
1.08563e-05
1.08952e-05
1.09328e-05
1.09709e-05
1.10072e-05
1.10417e-05
1.10817e-05
1.11062e-05
1.1151e-05
1.11797e-05
1.1193e-05
1.12729e-05
1.14387e-05
1.16634e-05
1.19693e-05
1.23232e-05
1.27707e-05
1.324e-05
1.38101e-05
1.43583e-05
1.50461e-05
1.56392e-05
1.63841e-05
1.69377e-05
1.76142e-05
1.80887e-05
1.81069e-05
1.81544e-05
1.76307e-05
1.73219e-05
1.63341e-05
1.50881e-05
1.36667e-05
1.20867e-05
1.02895e-05
8.4386e-06
6.79815e-06
4.79957e-06
3.20397e-06
2.17087e-06
1.54531e-06
1.17425e-06
9.77349e-07
9.02144e-07
8.99067e-07
1.05999e-06
1.40148e-06
1.74056e-06
1.52434e-06
7.16432e-07
5.8488e-07
1.30387e-06
3.7375e-06
8.45001e-06
1.54604e-05
2.50458e-05
3.71982e-05
5.11335e-05
6.53455e-05
8.00184e-05
9.694e-05
2.77249e-05
2.8759e-05
2.98005e-05
3.08399e-05
3.18851e-05
3.29183e-05
3.39596e-05
3.49776e-05
3.6006e-05
3.70046e-05
3.80027e-05
3.89885e-05
3.99274e-05
4.09123e-05
4.17742e-05
4.27314e-05
4.35636e-05
4.44036e-05
4.52456e-05
4.60544e-05
4.64986e-05
4.66416e-05
4.66251e-05
4.65021e-05
4.6275e-05
4.59146e-05
4.52258e-05
4.45342e-05
4.35992e-05
4.23464e-05
4.07559e-05
3.881e-05
3.64926e-05
3.37913e-05
3.07001e-05
2.72471e-05
2.34839e-05
1.95192e-05
1.55064e-05
1.17022e-05
7.99173e-06
4.73675e-06
2.37676e-06
1.05858e-06
4.97782e-07
2.67387e-07
1.8636e-07
1.7612e-07
1.83504e-07
1.93103e-07
2.02203e-07
2.11288e-07
2.19343e-07
2.28153e-07
2.40806e-07
2.48011e-07
2.13505e-07
1.60239e-07
1.95566e-07
3.88444e-07
1.15278e-06
3.8419e-06
7.76718e-06
1.21113e-05
1.65821e-05
2.12127e-05
2.58652e-05
3.02225e-05
3.24486e-05
4.75372e-06
4.75289e-06
4.75722e-06
4.75696e-06
4.76089e-06
4.76099e-06
4.7619e-06
4.76211e-06
4.76275e-06
4.76537e-06
4.76568e-06
4.76605e-06
4.76914e-06
4.77398e-06
4.77618e-06
4.77288e-06
4.77385e-06
4.77459e-06
4.77495e-06
4.76845e-06
4.7674e-06
4.77093e-06
4.76898e-06
4.76917e-06
4.76503e-06
4.76183e-06
4.76214e-06
4.76158e-06
4.76254e-06
4.76316e-06
4.75999e-06
4.75881e-06
4.75807e-06
4.7563e-06
4.7545e-06
4.75159e-06
4.75174e-06
4.75084e-06
4.74928e-06
4.74749e-06
4.74481e-06
4.74483e-06
4.74236e-06
4.73879e-06
4.73874e-06
4.73761e-06
4.73701e-06
4.73561e-06
4.73602e-06
4.73944e-06
4.74453e-06
4.74907e-06
4.74782e-06
4.74793e-06
4.74379e-06
4.74356e-06
4.74154e-06
4.74356e-06
4.74761e-06
4.77733e-06
4.7781e-06
4.77965e-06
4.78247e-06
4.78394e-06
4.78901e-06
4.79197e-06
4.79192e-06
4.79143e-06
4.79036e-06
4.79228e-06
4.79389e-06
4.79839e-06
4.79943e-06
4.79647e-06
4.79594e-06
4.79739e-06
4.79941e-06
4.79483e-06
4.79161e-06
4.79141e-06
4.79357e-06
4.79187e-06
4.79218e-06
4.78618e-06
4.78427e-06
4.78469e-06
4.78405e-06
4.78456e-06
4.78463e-06
4.78211e-06
4.78117e-06
4.78016e-06
4.77834e-06
4.77687e-06
4.77446e-06
4.77422e-06
4.77373e-06
4.77296e-06
4.77148e-06
4.77015e-06
4.76938e-06
4.76853e-06
4.76667e-06
4.76539e-06
4.76559e-06
4.76416e-06
4.76354e-06
4.76328e-06
4.76535e-06
4.7703e-06
4.77598e-06
4.78254e-06
4.78217e-06
4.78315e-06
4.7789e-06
4.7762e-06
4.77721e-06
4.77882e-06
4.80978e-06
4.81041e-06
4.81462e-06
4.81861e-06
4.82058e-06
4.81965e-06
4.82077e-06
4.8192e-06
4.82149e-06
4.82133e-06
4.82366e-06
4.82793e-06
4.82917e-06
4.82776e-06
4.82709e-06
4.82697e-06
4.82619e-06
4.82438e-06
4.8193e-06
4.81898e-06
4.81997e-06
4.82085e-06
4.81723e-06
4.81608e-06
4.81155e-06
4.81041e-06
4.81042e-06
4.80974e-06
4.80982e-06
4.80953e-06
4.80761e-06
4.80672e-06
4.80553e-06
4.80369e-06
4.80242e-06
4.80057e-06
4.79984e-06
4.80019e-06
4.79974e-06
4.79871e-06
4.79782e-06
4.79801e-06
4.79725e-06
4.79692e-06
4.79417e-06
4.79427e-06
4.79363e-06
4.79376e-06
4.79275e-06
4.79455e-06
4.79879e-06
4.80378e-06
4.8108e-06
4.81659e-06
4.82116e-06
4.82419e-06
4.825e-06
4.82604e-06
4.8264e-06
4.85345e-06
4.85336e-06
4.85686e-06
4.85572e-06
4.85697e-06
4.85692e-06
4.85609e-06
4.85373e-06
4.85556e-06
4.85951e-06
4.86314e-06
4.86278e-06
4.85882e-06
4.85783e-06
4.8579e-06
4.85833e-06
4.8553e-06
4.85243e-06
4.84993e-06
4.85026e-06
4.85017e-06
4.84846e-06
4.8454e-06
4.84473e-06
4.83966e-06
4.83874e-06
4.83913e-06
4.838e-06
4.83794e-06
4.83725e-06
4.8358e-06
4.83493e-06
4.83369e-06
4.83192e-06
4.83087e-06
4.82935e-06
4.82861e-06
4.82936e-06
4.82934e-06
4.82898e-06
4.82897e-06
4.82877e-06
4.82831e-06
4.82755e-06
4.82798e-06
4.82878e-06
4.82991e-06
4.82869e-06
4.83002e-06
4.83126e-06
4.8336e-06
4.83677e-06
4.84161e-06
4.84742e-06
4.85328e-06
4.85907e-06
4.86369e-06
4.86793e-06
4.87075e-06
4.89597e-06
4.8958e-06
4.89452e-06
4.89326e-06
4.89527e-06
4.89381e-06
4.89676e-06
4.89691e-06
4.90038e-06
4.90006e-06
4.89516e-06
4.89442e-06
4.89396e-06
4.89405e-06
4.8935e-06
4.89529e-06
4.88912e-06
4.88459e-06
4.88297e-06
4.88408e-06
4.88445e-06
4.88068e-06
4.87834e-06
4.87639e-06
4.87215e-06
4.87206e-06
4.87138e-06
4.87017e-06
4.86965e-06
4.86888e-06
4.86772e-06
4.86685e-06
4.86561e-06
4.86394e-06
4.86303e-06
4.86176e-06
4.86111e-06
4.86189e-06
4.86337e-06
4.86321e-06
4.86361e-06
4.86438e-06
4.86555e-06
4.86604e-06
4.86679e-06
4.86752e-06
4.86869e-06
4.86974e-06
4.87106e-06
4.87242e-06
4.87421e-06
4.87643e-06
4.87948e-06
4.88357e-06
4.88829e-06
4.89363e-06
4.89886e-06
4.90429e-06
4.90872e-06
4.94542e-06
4.94491e-06
4.94203e-06
4.94369e-06
4.94267e-06
4.94524e-06
4.94443e-06
4.94021e-06
4.93944e-06
4.93635e-06
4.93662e-06
4.93579e-06
4.93735e-06
4.93711e-06
4.9324e-06
4.92995e-06
4.92376e-06
4.9226e-06
4.92374e-06
4.92451e-06
4.92002e-06
4.91673e-06
4.91391e-06
4.91161e-06
4.90817e-06
4.9079e-06
4.90662e-06
4.90531e-06
4.90457e-06
4.90369e-06
4.90274e-06
4.90188e-06
4.90071e-06
4.89918e-06
4.89844e-06
4.89748e-06
4.897e-06
4.89772e-06
4.89994e-06
4.90165e-06
4.90224e-06
4.90314e-06
4.90508e-06
4.90704e-06
4.90893e-06
4.9103e-06
4.91155e-06
4.91302e-06
4.9147e-06
4.91656e-06
4.91866e-06
4.92093e-06
4.92344e-06
4.92644e-06
4.92985e-06
4.93384e-06
4.93801e-06
4.94268e-06
4.94684e-06
4.99496e-06
4.99083e-06
4.98868e-06
4.98732e-06
4.98579e-06
4.98548e-06
4.98585e-06
4.98752e-06
4.98725e-06
4.98436e-06
4.98456e-06
4.9826e-06
4.98218e-06
4.97726e-06
4.97336e-06
4.96907e-06
4.96707e-06
4.96881e-06
4.96648e-06
4.96249e-06
4.96132e-06
4.95716e-06
4.95476e-06
4.9523e-06
4.94901e-06
4.94824e-06
4.94697e-06
4.94553e-06
4.94427e-06
4.94339e-06
4.94251e-06
4.94164e-06
4.94052e-06
4.93914e-06
4.93854e-06
4.93777e-06
4.9375e-06
4.93814e-06
4.94043e-06
4.94352e-06
4.9452e-06
4.94648e-06
4.94862e-06
4.95138e-06
4.95444e-06
4.95698e-06
4.95898e-06
4.96083e-06
4.96272e-06
4.96483e-06
4.96722e-06
4.9698e-06
4.97246e-06
4.97528e-06
4.97817e-06
4.98134e-06
4.98455e-06
4.98815e-06
4.99139e-06
5.05327e-06
5.0527e-06
5.0515e-06
5.05099e-06
5.04938e-06
5.04476e-06
5.04521e-06
5.04451e-06
5.04232e-06
5.03713e-06
5.03426e-06
5.03045e-06
5.02642e-06
5.02181e-06
5.01928e-06
5.01867e-06
5.01843e-06
5.01314e-06
5.01171e-06
5.01171e-06
5.00573e-06
5.00308e-06
4.99954e-06
4.99634e-06
4.99344e-06
4.99325e-06
4.99104e-06
4.98924e-06
4.98785e-06
4.98688e-06