/*--------------------------------*- C++ -*----------------------------------*\
| =========                 |                                                 |
| \\      /  F ield         | OpenFOAM: The Open Source CFD Toolbox           |
|  \\    /   O peration     | Version:  2312                                  |
|   \\  /    A nd           | Website:  www.openfoam.com                      |
|    \\/     M anipulation  |                                                 |
\*---------------------------------------------------------------------------*/
FoamFile
{
    version     2.0;
    format      ascii;
    arch        "LSB;label=32;scalar=64";
    class       volScalarField;
    location    "1400";
    object      nut;
}
// * * * * * * * * * * * * * * * * * * * * * * * * * * * * * * * * * * * * * //

dimensions      [0 2 -1 0 0 0 0];

internalField   nonuniform List<scalar> 
76025
(
8.3763e-05
8.46192e-05
8.50288e-05
8.5966e-05
8.60398e-05
8.71594e-05
8.80662e-05
8.8033e-05
8.9987e-05
9.02866e-05
9.14015e-05
9.17342e-05
9.25592e-05
9.32469e-05
9.48719e-05
9.50362e-05
9.63028e-05
9.66698e-05
9.9963e-05
9.89626e-05
0.000100201
0.000102197
0.000104078
0.000105122
0.000107627
0.000107327
0.000111137
0.000113335
0.000112483
0.000120059
0.000127366
0.000128769
0.000134429
0.000135755
0.000143158
0.000145271
0.000150858
0.000164819
0.000164729
0.000164648
0.00016452
0.000164388
0.000164117
0.00016381
0.000163351
0.000162818
0.000162063
0.000161229
0.000160073
0.000158741
0.000157135
0.000155469
0.000153513
0.000151507
0.000148942
0.000146802
0.000144243
0.000141746
0.00013883
0.000123639
0.000107047
8.75308e-05
7.95682e-05
7.10425e-05
6.36818e-05
5.66528e-05
4.82899e-05
4.43655e-05
6.81138e-05
7.80284e-05
7.89052e-05
7.92982e-05
7.98299e-05
8.0269e-05
8.06961e-05
8.15847e-05
8.21209e-05
8.30159e-05
8.37975e-05
8.46513e-05
8.55049e-05
8.65219e-05
8.71949e-05
8.79394e-05
8.90058e-05
8.95719e-05
9.08624e-05
9.18707e-05
9.3443e-05
9.44698e-05
9.59899e-05
9.71732e-05
9.83897e-05
0.000100028
0.000101844
0.000103216
0.000105118
0.000106854
0.000108296
0.000111854
0.000115756
0.000118412
0.000122044
0.000124921
0.000129399
0.000135308
0.000141756
0.000148499
0.000154542
0.000162617
0.000163452
0.000163018
0.00016251
0.000161829
0.000161042
0.000160045
0.000158916
0.000157552
0.000156045
0.000154298
0.000152392
0.00015027
0.000147975
0.000145592
0.000143084
0.000140445
0.000137685
0.000134739
0.000116311
9.91687e-05
8.71143e-05
7.77472e-05
6.93909e-05
6.15516e-05
5.42775e-05
4.69856e-05
4.86691e-05
7.77054e-05
7.28202e-05
7.39609e-05
7.46346e-05
7.52474e-05
7.58338e-05
7.63175e-05
7.6916e-05
7.75757e-05
7.83047e-05
7.9122e-05
7.99665e-05
8.08582e-05
8.18473e-05
8.28451e-05
8.37532e-05
8.47905e-05
8.57315e-05
8.68438e-05
8.78673e-05
8.91471e-05
9.04796e-05
9.18966e-05
9.32716e-05
9.46596e-05
9.61746e-05
9.79536e-05
9.97295e-05
0.000101614
0.000103752
0.000106067
0.000108695
0.000111688
0.000114601
0.000117652
0.000121118
0.000125225
0.000130002
0.000135273
0.000140451
0.000146007
0.000152685
0.000160841
0.000161326
0.00016064
0.00015976
0.00015879
0.000157594
0.000156309
0.00015477
0.000153141
0.000151226
0.000149221
0.000146936
0.000144609
0.000142062
0.000139499
0.000136733
0.000133882
0.000120298
0.000103699
9.01651e-05
7.97436e-05
7.17392e-05
6.42114e-05
5.67005e-05
4.95962e-05
4.52256e-05
5.19349e-05
8.12731e-05
6.76337e-05
6.87349e-05
6.95501e-05
7.0388e-05
7.11247e-05
7.17768e-05
7.2407e-05
7.30595e-05
7.37381e-05
7.44621e-05
7.52315e-05
7.6044e-05
7.69107e-05
7.78443e-05
7.88139e-05
7.98209e-05
8.08699e-05
8.19467e-05
8.30655e-05
8.42229e-05
8.54525e-05
8.6735e-05
8.8071e-05
8.94601e-05
9.09273e-05
9.24866e-05
9.41449e-05
9.58913e-05
9.77815e-05
9.98619e-05
0.000102094
0.000104479
0.000106972
0.000109673
0.00011274
0.000116128
0.000119849
0.000123939
0.000128231
0.00013285
0.000137947
0.000143787
0.000150254
0.000156927
0.000157233
0.00015611
0.000154779
0.000153345
0.000151681
0.000149894
0.000147859
0.000145695
0.00014332
0.00014086
0.00013825
0.000135552
0.000132657
0.000124559
0.000109625
9.59867e-05
8.47509e-05
7.58052e-05
6.82189e-05
6.05171e-05
5.32829e-05
4.68538e-05
4.58155e-05
5.90842e-05
7.35106e-05
6.31938e-05
6.39844e-05
6.46025e-05
6.53794e-05
6.61464e-05
6.68944e-05
6.7646e-05
6.83899e-05
6.91136e-05
6.98294e-05
7.05603e-05
7.13203e-05
7.21176e-05
7.29612e-05
7.38554e-05
7.47988e-05
7.57963e-05
7.68404e-05
7.79362e-05
7.90757e-05
8.02618e-05
8.14942e-05
8.27781e-05
8.41173e-05
8.55218e-05
8.70007e-05
8.85622e-05
9.0211e-05
9.19628e-05
9.38305e-05
9.58209e-05
9.79399e-05
0.000100172
0.000102668
0.000105437
0.000108397
0.000111581
0.000115034
0.000118733
0.000122711
0.000127029
0.000131722
0.00013687
0.000142549
0.000148627
0.000153045
0.000151597
0.000150046
0.000148252
0.000146341
0.000144176
0.000141907
0.00013944
0.000136895
0.000134174
0.000131304
0.000124372
0.000111578
9.92634e-05
8.82899e-05
7.90174e-05
7.11926e-05
6.37946e-05
5.62854e-05
4.9556e-05
4.49837e-05
4.79063e-05
6.9143e-05
6.62573e-05
5.95377e-05
6.01128e-05
6.04737e-05
6.10126e-05
6.16078e-05
6.22596e-05
6.29888e-05
6.37634e-05
6.45451e-05
6.53198e-05
6.60925e-05
6.6874e-05
6.76739e-05
6.84998e-05
6.93589e-05
7.02581e-05
7.12032e-05
7.2198e-05
7.32445e-05
7.43433e-05
7.54933e-05
7.66937e-05
7.79453e-05
7.92511e-05
8.06165e-05
8.20491e-05
8.35533e-05
8.51348e-05
8.68017e-05
8.85631e-05
9.04266e-05
9.2391e-05
9.44533e-05
9.67691e-05
9.93255e-05
0.000101982
0.000104819
0.000107866
0.000111129
0.000114624
0.000118381
0.000122422
0.000126714
0.00013128
0.000136263
0.000141339
0.00014591
0.000146408
0.000144491
0.000142447
0.000140169
0.00013779
0.000135224
0.000132536
0.000129637
0.000121274
0.000110854
0.000100346
9.03537e-05
8.14339e-05
7.36185e-05
6.65016e-05
5.92319e-05
5.21992e-05
4.66909e-05
4.48476e-05
5.26987e-05
7.51404e-05
5.93996e-05
5.60973e-05
5.66912e-05
5.69855e-05
5.73848e-05
5.78086e-05
5.82889e-05
5.8871e-05
5.95406e-05
6.02652e-05
6.10231e-05
6.1805e-05
6.26072e-05
6.34293e-05
6.42722e-05
6.51385e-05
6.60326e-05
6.69599e-05
6.79259e-05
6.89352e-05
6.99916e-05
7.10975e-05
7.22545e-05
7.34642e-05
7.47289e-05
7.60513e-05
7.74358e-05
7.88856e-05
8.0406e-05
8.20021e-05
8.36809e-05
8.54466e-05
8.72927e-05
8.92393e-05
9.14057e-05
9.37852e-05
9.62153e-05
9.8798e-05
0.000101552
0.000104485
0.000107602
0.000110909
0.000114407
0.000118064
0.000121816
0.000125632
0.000129468
0.000132922
0.000135522
0.000137096
0.000137494
0.000135776
0.000133276
0.000129074
0.000122997
0.000115755
0.000107701
9.9125e-05
9.06014e-05
8.25123e-05
7.51402e-05
6.83348e-05
6.16097e-05
5.46481e-05
4.86498e-05
4.50458e-05
4.65897e-05
6.00781e-05
6.88847e-05
5.41225e-05
5.25137e-05
5.32123e-05
5.35897e-05
5.40148e-05
5.441e-05
5.48139e-05
5.52858e-05
5.58322e-05
5.64398e-05
5.71003e-05
5.78099e-05
5.85648e-05
5.93602e-05
6.01913e-05
6.10546e-05
6.19486e-05
6.28742e-05
6.38334e-05
6.48297e-05
6.58662e-05
6.69465e-05
6.80735e-05
6.925e-05
7.04789e-05
7.17627e-05
7.31051e-05
7.45085e-05
7.59773e-05
7.75149e-05
7.91261e-05
8.0813e-05
8.25651e-05
8.4436e-05
8.64893e-05
8.87029e-05
9.09595e-05
9.33399e-05
9.58532e-05
9.84983e-05
0.000101268
0.000104148
0.000107112
0.000110118
0.000113093
0.000115932
0.000118508
0.000120682
0.000122185
0.000122788
0.00012231
0.000120625
0.000117772
0.000113764
0.000108659
0.000102651
9.6032e-05
8.91172e-05
8.2199e-05
7.55478e-05
6.92935e-05
6.31205e-05
5.67277e-05
5.05825e-05
4.62115e-05
4.51736e-05
5.04079e-05
6.80231e-05
6.31836e-05
4.85258e-05
4.89139e-05
4.96532e-05
5.01039e-05
5.05998e-05
5.10529e-05
5.14859e-05
5.19499e-05
5.24542e-05
5.29945e-05
5.35732e-05
5.41971e-05
5.4871e-05
5.55958e-05
5.63693e-05
5.71882e-05
5.80492e-05
5.89504e-05
5.98909e-05
6.08708e-05
6.18913e-05
6.29539e-05
6.40605e-05
6.52134e-05
6.64152e-05
6.76681e-05
6.89753e-05
7.03388e-05
7.1762e-05
7.32474e-05
7.47982e-05
7.64148e-05
7.80826e-05
7.98826e-05
8.18329e-05
8.38782e-05
8.59642e-05
8.81419e-05
9.04069e-05
9.27482e-05
9.51463e-05
9.75716e-05
9.99837e-05
0.000102333
0.000104547
0.000106539
0.00010819
0.000109366
0.000109949
0.000109837
0.000108919
0.000107129
0.000104468
0.000100966
9.66946e-05
9.17773e-05
8.63614e-05
8.06816e-05
7.4963e-05
6.93749e-05
6.38709e-05
5.81534e-05
5.23615e-05
4.75856e-05
4.53812e-05
4.70528e-05
5.45934e-05
6.62462e-05
5.72642e-05
4.76824e-05
4.55181e-05
4.62262e-05
4.66798e-05
4.71958e-05
4.7687e-05
4.81627e-05
4.86603e-05
4.91814e-05
4.97184e-05
5.02735e-05
5.08556e-05
5.14742e-05
5.21359e-05
5.28438e-05
5.35988e-05
5.44005e-05
5.52485e-05
5.61422e-05
5.70811e-05
5.80652e-05
5.90947e-05
6.017e-05
6.1292e-05
6.2462e-05
6.36811e-05
6.49512e-05
6.6273e-05
6.76486e-05
6.90792e-05
7.05659e-05
7.21064e-05
7.3684e-05
7.53952e-05
7.72266e-05
7.90859e-05
8.09829e-05
8.29341e-05
8.49276e-05
8.69453e-05
8.89619e-05
9.0943e-05
9.28501e-05
9.4636e-05
9.6241e-05
9.75984e-05
9.86359e-05
9.9268e-05
9.93947e-05
9.89538e-05
9.79012e-05
9.62177e-05
9.38732e-05
9.08714e-05
8.72483e-05
8.30863e-05
7.85264e-05
7.37364e-05
6.88708e-05
6.40375e-05
5.90617e-05
5.38511e-05
4.90678e-05
4.61374e-05
4.60997e-05
4.88674e-05
5.52414e-05
5.96727e-05
5.0445e-05
5.05182e-05
4.2404e-05
4.30629e-05
4.34843e-05
4.3975e-05
4.44579e-05
4.4939e-05
4.54488e-05
4.59844e-05
4.65334e-05
4.70931e-05
4.76686e-05
4.82677e-05
4.88972e-05
4.95623e-05
5.02664e-05
5.10124e-05
5.18021e-05
5.26371e-05
5.35185e-05
5.4447e-05
5.54228e-05
5.64461e-05
5.75173e-05
5.86363e-05
5.98035e-05
6.1019e-05
6.22821e-05
6.35934e-05
6.49524e-05
6.63579e-05
6.7803e-05
6.92814e-05
7.08773e-05
7.25663e-05
7.4236e-05
7.59377e-05
7.76633e-05
7.93995e-05
8.11262e-05
8.28183e-05
8.44455e-05
8.59774e-05
8.73754e-05
8.85948e-05
8.95874e-05
9.03004e-05
9.06848e-05
9.06817e-05
9.02312e-05
8.92795e-05
8.77968e-05
8.57457e-05
8.31142e-05
7.99245e-05
7.62597e-05
7.22758e-05
6.81225e-05
6.39199e-05
5.96715e-05
5.51401e-05
5.0629e-05
4.72212e-05
4.59999e-05
4.63037e-05
4.74097e-05
5.48865e-05
5.31794e-05
4.45926e-05
5.94852e-05
3.95203e-05
4.01385e-05
4.05279e-05
4.09834e-05
4.14375e-05
4.18965e-05
4.23896e-05
4.29143e-05
4.34578e-05
4.40148e-05
4.45872e-05
4.51794e-05
4.57956e-05
4.64396e-05
4.71145e-05
4.78232e-05
4.8569e-05
4.93543e-05
5.01816e-05
5.10524e-05
5.19682e-05
5.29294e-05
5.39368e-05
5.49902e-05
5.60896e-05
5.72344e-05
5.84233e-05
5.96561e-05
6.09308e-05
6.22453e-05
6.35873e-05
6.49763e-05
6.64559e-05
6.79944e-05
6.9509e-05
7.10454e-05
7.25892e-05
7.41276e-05
7.56412e-05
7.71083e-05
7.85058e-05
7.98092e-05
8.09878e-05
8.20092e-05
8.2836e-05
8.34289e-05
8.37442e-05
8.37356e-05
8.3351e-05
8.25262e-05
8.12064e-05
7.93419e-05
7.69384e-05
7.40399e-05
7.07752e-05
6.7315e-05
6.37662e-05
6.0179e-05
5.63734e-05
5.22581e-05
4.85793e-05
4.6211e-05
4.4724e-05
4.33477e-05
4.58171e-05
5.30446e-05
4.55142e-05
4.44571e-05
7.11774e-05
3.68516e-05
3.74374e-05
3.78036e-05
3.82304e-05
3.86574e-05
3.90901e-05
3.95567e-05
4.00564e-05
4.05784e-05
4.1118e-05
4.1676e-05
4.22554e-05
4.28586e-05
4.34875e-05
4.4144e-05
4.48298e-05
4.55473e-05
4.62986e-05
4.70864e-05
4.79124e-05
4.87784e-05
4.96856e-05
5.06349e-05
5.16266e-05
5.26609e-05
5.37372e-05
5.48545e-05
5.60122e-05
5.72079e-05
5.84392e-05
5.96895e-05
6.10064e-05
6.23938e-05
6.37977e-05
6.51965e-05
6.66101e-05
6.80246e-05
6.94288e-05
7.08047e-05
7.21362e-05
7.34044e-05
7.45895e-05
7.56659e-05
7.66075e-05
7.73808e-05
7.79508e-05
7.82716e-05
7.82918e-05
7.79466e-05
7.71677e-05
7.59018e-05
7.41244e-05
7.18965e-05
6.93098e-05
6.65378e-05
6.37005e-05
6.07873e-05
5.76273e-05
5.39633e-05
5.00442e-05
4.65011e-05
4.32195e-05
4.04931e-05
4.12382e-05
5.09886e-05
4.54835e-05
4.01613e-05
5.37487e-05
7.75334e-05
3.43695e-05
3.49259e-05
3.52735e-05
3.56779e-05
3.60838e-05
3.64953e-05
3.69383e-05
3.7413e-05
3.79104e-05
3.84267e-05
3.89631e-05
3.95224e-05
4.01069e-05
4.07178e-05
4.13562e-05
4.20229e-05
4.27194e-05
4.34473e-05
4.42084e-05
4.50043e-05
4.58364e-05
4.6706e-05
4.76139e-05
4.85608e-05
4.9547e-05
5.05719e-05
5.1635e-05
5.27357e-05
5.38715e-05
5.50388e-05
5.62244e-05
5.74881e-05
5.88104e-05
6.01202e-05
6.1445e-05
6.27815e-05
6.41182e-05
6.54449e-05
6.67462e-05
6.801e-05
6.92187e-05
7.03552e-05
7.13947e-05
7.23133e-05
7.30743e-05
7.3642e-05
7.3958e-05
7.39683e-05
7.35942e-05
7.27928e-05
7.15492e-05
6.99174e-05
6.80153e-05
6.59563e-05
6.38641e-05
6.16623e-05
5.90559e-05
5.56434e-05
5.14181e-05
4.65361e-05
4.15424e-05
3.80123e-05
3.8704e-05
4.79745e-05
4.27788e-05
3.74923e-05
4.60188e-05
6.18009e-05
7.78921e-05
3.20758e-05
3.26041e-05
3.29351e-05
3.33197e-05
3.37078e-05
3.41019e-05
3.45256e-05
3.49795e-05
3.54555e-05
3.59505e-05
3.64658e-05
3.70041e-05
3.75681e-05
3.81591e-05
3.8778e-05
3.94256e-05
4.0103e-05
4.08114e-05
4.15521e-05
4.23265e-05
4.31356e-05
4.39806e-05
4.48621e-05
4.57808e-05
4.67369e-05
4.773e-05
4.87599e-05
4.98256e-05
5.09254e-05
5.20515e-05
5.32104e-05
5.44395e-05
5.57073e-05
5.69646e-05
5.82444e-05
5.95357e-05
6.08294e-05
6.21152e-05
6.33797e-05
6.46113e-05
6.57928e-05
6.69074e-05
6.79294e-05
6.8835e-05
6.95798e-05
7.01268e-05
7.0401e-05
7.03689e-05
6.99619e-05
6.92225e-05
6.81902e-05
6.70084e-05
6.57501e-05
6.44384e-05
6.29131e-05
6.07391e-05
5.7247e-05
5.22666e-05
4.60916e-05
3.96032e-05
3.5977e-05
3.73044e-05
4.40261e-05
3.9613e-05
3.48142e-05
4.04081e-05
5.29565e-05
6.15039e-05
7.72315e-05
2.99395e-05
3.0441e-05
3.07564e-05
3.11223e-05
3.14932e-05
3.18706e-05
3.22761e-05
3.27105e-05
3.31665e-05
3.36413e-05
3.41362e-05
3.46539e-05
3.51968e-05
3.57668e-05
3.63648e-05
3.69918e-05
3.76489e-05
3.83373e-05
3.90584e-05
3.98132e-05
4.0603e-05
4.14285e-05
4.22906e-05
4.31897e-05
4.41259e-05
4.50989e-05
4.61088e-05
4.7154e-05
4.82335e-05
4.93339e-05
5.04928e-05
5.17129e-05
5.29448e-05
5.41909e-05
5.54567e-05
5.67329e-05
5.80099e-05
5.92774e-05
6.05239e-05
6.17383e-05
6.29041e-05
6.40053e-05
6.5014e-05
6.59046e-05
6.66228e-05
6.71407e-05
6.73877e-05
6.73987e-05
6.71525e-05
6.68127e-05
6.64042e-05
6.60331e-05
6.55067e-05
6.45589e-05
6.24613e-05
5.85438e-05
5.22133e-05
4.47862e-05
3.77889e-05
3.44232e-05
3.74511e-05
3.96942e-05
3.54259e-05
3.19692e-05
3.72788e-05
4.55925e-05
5.49514e-05
6.40306e-05
7.77092e-05
2.79763e-05
2.84524e-05
2.87538e-05
2.91025e-05
2.94575e-05
2.98194e-05
3.0208e-05
3.06242e-05
3.10618e-05
3.15179e-05
3.19939e-05
3.24923e-05
3.30156e-05
3.35655e-05
3.41433e-05
3.47503e-05
3.53877e-05
3.60568e-05
3.67593e-05
3.74963e-05
3.82694e-05
3.90794e-05
3.99273e-05
4.08137e-05
4.17388e-05
4.27027e-05
4.37051e-05
4.47448e-05
4.58182e-05
4.69184e-05
4.80832e-05
4.92912e-05
5.04978e-05
5.17319e-05
5.29846e-05
5.42487e-05
5.55148e-05
5.6773e-05
5.80135e-05
5.92238e-05
6.03879e-05
6.14865e-05
6.24892e-05
6.33708e-05
6.40863e-05
6.46495e-05
6.50488e-05
6.5426e-05
6.57799e-05
6.62704e-05
6.66878e-05
6.69417e-05
6.62068e-05
6.3773e-05
5.8659e-05
5.11217e-05
4.23965e-05
3.64343e-05
3.36962e-05
3.94939e-05
3.48897e-05
3.151e-05
2.85478e-05
3.48665e-05
4.10051e-05
4.69232e-05
5.42243e-05
6.25439e-05
7.34549e-05
2.61517e-05
2.66019e-05
2.68884e-05
2.72193e-05
2.75572e-05
2.79023e-05
2.82727e-05
2.86697e-05
2.90875e-05
2.9524e-05
2.99801e-05
3.04584e-05
3.09612e-05
3.14904e-05
3.20474e-05
3.26336e-05
3.32502e-05
3.38989e-05
3.45813e-05
3.52989e-05
3.60534e-05
3.68458e-05
3.76773e-05
3.85486e-05
3.94602e-05
4.04125e-05
4.1405e-05
4.24379e-05
4.3501e-05
4.46165e-05
4.57993e-05
4.70102e-05
4.82402e-05
4.94972e-05
5.07694e-05
5.20489e-05
5.33263e-05
5.45931e-05
5.58403e-05
5.70542e-05
5.82204e-05
5.93195e-05
6.03336e-05
6.12635e-05
6.21267e-05
6.30172e-05
6.39731e-05
6.5113e-05
6.63711e-05
6.75891e-05
6.69929e-05
6.55001e-05
6.11386e-05
5.69981e-05
4.83843e-05
4.0051e-05
3.49748e-05
3.56286e-05
3.54733e-05
2.95949e-05
2.76857e-05
2.60829e-05
3.23728e-05
3.72168e-05
4.12329e-05
4.59162e-05
5.4439e-05
6.20985e-05
6.73089e-05
2.45176e-05
2.49426e-05
2.52156e-05
2.55304e-05
2.58527e-05
2.61823e-05
2.65357e-05
2.69145e-05
2.73138e-05
2.77316e-05
2.81691e-05
2.86286e-05
2.91126e-05
2.96232e-05
3.01619e-05
3.07302e-05
3.13299e-05
3.19626e-05
3.26305e-05
3.33352e-05
3.40787e-05
3.48626e-05
3.56886e-05
3.65576e-05
3.74707e-05
3.84282e-05
3.943e-05
4.04739e-05
4.15527e-05
4.269e-05
4.38688e-05
4.50602e-05
4.62858e-05
4.75393e-05
4.88132e-05
5.00994e-05
5.13887e-05
5.26706e-05
5.39349e-05
5.51675e-05
5.63634e-05
5.75247e-05
5.86879e-05
5.99144e-05
6.12735e-05
6.28457e-05
6.46397e-05
6.63979e-05
6.49101e-05
6.3349e-05
5.94019e-05
5.76513e-05
5.29071e-05
4.44167e-05
3.81707e-05
3.4877e-05
3.41737e-05
3.01593e-05
2.51639e-05
2.36776e-05
2.48497e-05
2.97763e-05
3.33849e-05
3.68822e-05
4.03984e-05
4.71849e-05
5.3616e-05
5.58176e-05
6.17476e-05
2.29823e-05
2.33837e-05
2.36433e-05
2.39413e-05
2.42473e-05
2.45607e-05
2.48967e-05
2.52567e-05
2.56367e-05
2.60346e-05
2.64518e-05
2.68905e-05
2.73532e-05
2.78418e-05
2.83585e-05
2.89045e-05
2.94821e-05
3.00929e-05
3.07396e-05
3.14241e-05
3.21486e-05
3.29152e-05
3.37256e-05
3.45815e-05
3.54847e-05
3.64358e-05
3.74368e-05
3.84786e-05
3.95866e-05
4.07741e-05
4.20019e-05
4.3266e-05
4.45663e-05
4.5889e-05
4.72249e-05
4.85606e-05
4.98894e-05
5.12032e-05
5.25043e-05
5.38033e-05
5.51399e-05
5.6566e-05
5.81522e-05
5.99524e-05
6.19981e-05
6.39604e-05
6.21084e-05
6.06083e-05
5.71361e-05
5.52529e-05
5.1023e-05
4.69873e-05
4.06709e-05
3.67467e-05
3.36838e-05
2.94702e-05
2.41038e-05
2.15899e-05
2.00799e-05
2.39742e-05
2.71462e-05
2.97189e-05
3.28284e-05
3.59974e-05
4.02572e-05
4.2498e-05
4.6973e-05
5.32557e-05
6.07471e-05
2.17018e-05
2.20764e-05
2.23219e-05
2.26051e-05
2.28965e-05
2.31951e-05
2.35154e-05
2.38591e-05
2.42228e-05
2.46048e-05
2.50065e-05
2.543e-05
2.5878e-05
2.63526e-05
2.6856e-05
2.739e-05
2.79569e-05
2.85591e-05
2.91993e-05
2.98802e-05
3.06048e-05
3.13759e-05
3.2196e-05
3.30676e-05
3.39923e-05
3.49712e-05
3.60027e-05
3.70824e-05
3.8223e-05
3.94031e-05
4.06148e-05
4.18765e-05
4.31808e-05
4.45163e-05
4.58782e-05
4.72528e-05
4.86492e-05
5.00758e-05
5.15692e-05
5.31646e-05
5.49081e-05
5.68315e-05
5.8933e-05
6.08317e-05
5.89946e-05
5.7503e-05
5.42676e-05
5.24494e-05
4.83453e-05
4.5517e-05
4.1116e-05
3.68879e-05
3.24128e-05
2.75276e-05
2.34284e-05
1.95372e-05
1.79474e-05
1.7873e-05
2.21585e-05
2.4578e-05
2.67775e-05
2.97851e-05
3.15762e-05
3.549e-05
3.69889e-05
4.2425e-05
4.88692e-05
5.60627e-05
6.40013e-05
2.04299e-05
2.07891e-05
2.10257e-05
2.1294e-05
2.15702e-05
2.18534e-05
2.21565e-05
2.24813e-05
2.28249e-05
2.3186e-05
2.35661e-05
2.39674e-05
2.43926e-05
2.4844e-05
2.53241e-05
2.58349e-05
2.63788e-05
2.69585e-05
2.75769e-05
2.82372e-05
2.89428e-05
2.9697e-05
3.05043e-05
3.1368e-05
3.22936e-05
3.32826e-05
3.43337e-05
3.548e-05
3.67279e-05
3.80361e-05
3.94047e-05
4.08206e-05
4.22773e-05
4.37581e-05
4.5276e-05
4.6822e-05
4.84438e-05
5.01389e-05
5.19441e-05
5.38409e-05
5.57602e-05
5.72741e-05
5.52383e-05
5.35561e-05
5.07798e-05
4.85173e-05
4.47232e-05
4.18746e-05
3.72495e-05
3.36597e-05
2.93522e-05
2.49961e-05
2.15828e-05
1.78487e-05
1.60329e-05
1.45365e-05
1.69325e-05
1.98728e-05
2.21957e-05
2.44551e-05
2.58043e-05
2.79861e-05
2.93752e-05
3.08496e-05
3.64873e-05
4.41483e-05
5.2031e-05
6.0307e-05
6.7569e-05
1.95683e-05
1.98947e-05
2.01152e-05
2.03724e-05
2.0638e-05
2.09105e-05
2.12028e-05
2.15171e-05
2.18506e-05
2.22021e-05
2.25729e-05
2.29653e-05
2.33821e-05
2.38258e-05
2.42992e-05
2.48048e-05
2.53457e-05
2.59252e-05
2.65472e-05
2.72154e-05
2.79335e-05
2.87048e-05
2.95334e-05
3.04215e-05
3.1374e-05
3.23894e-05
3.34711e-05
3.46119e-05
3.5808e-05
3.70771e-05
3.84416e-05
3.98971e-05
4.1464e-05
4.31184e-05
4.48881e-05
4.66907e-05
4.85449e-05
5.02976e-05
5.18341e-05
5.24673e-05
5.09042e-05
4.87314e-05
4.63417e-05
4.34297e-05
4.02264e-05
3.65312e-05
3.26946e-05
2.89726e-05
2.5025e-05
2.17981e-05
1.85459e-05
1.57748e-05
1.41354e-05
1.24351e-05
1.27118e-05
1.47725e-05
1.74548e-05
2.0034e-05
2.23304e-05
2.38526e-05
2.46956e-05
2.11126e-05
2.29266e-05
2.82717e-05
3.62845e-05
4.67257e-05
5.96634e-05
7.26865e-05
8.69715e-05
1.85316e-05
1.88558e-05
1.90727e-05
1.93129e-05
1.956e-05
1.98141e-05
2.00865e-05
2.03793e-05
2.06904e-05
2.10193e-05
2.13674e-05
2.17368e-05
2.21304e-05
2.25505e-05
2.30002e-05
2.34819e-05
2.39987e-05
2.45537e-05
2.51526e-05
2.58029e-05
2.65125e-05
2.72878e-05
2.81379e-05
2.90697e-05
3.00833e-05
3.12026e-05
3.24703e-05
3.38685e-05
3.53863e-05
3.70271e-05
3.87897e-05
4.0649e-05
4.25857e-05
4.44683e-05
4.62663e-05
4.76591e-05
4.85034e-05
4.67266e-05
4.552e-05
4.24809e-05
4.03437e-05
3.68307e-05
3.38054e-05
2.98967e-05
2.67335e-05
2.29391e-05
2.01328e-05
1.73179e-05
1.51278e-05
1.32316e-05
1.15763e-05
1.03099e-05
9.76118e-06
1.0228e-05
1.21375e-05
1.45333e-05
1.74023e-05
1.95763e-05
2.15351e-05
1.87188e-05
1.43109e-05
1.57365e-05
2.00442e-05
3.00376e-05
4.33779e-05
5.96703e-05
7.90753e-05
9.74664e-05
0.000119215
1.83464e-05
1.86256e-05
1.88252e-05
1.9065e-05
1.93115e-05
1.95619e-05
1.98292e-05
2.01164e-05
2.04216e-05
2.07441e-05
2.10857e-05
2.14487e-05
2.18363e-05
2.22511e-05
2.26962e-05
2.31745e-05
2.36885e-05
2.42421e-05
2.4839e-05
2.54848e-05
2.6187e-05
2.69568e-05
2.781e-05
2.87655e-05
2.98252e-05
3.09956e-05
3.22788e-05
3.37038e-05
3.52591e-05
3.69169e-05
3.86008e-05
4.02057e-05
4.16052e-05
4.25391e-05
4.19453e-05
3.92345e-05
3.76312e-05
3.4116e-05
3.18955e-05
2.81972e-05
2.5354e-05
2.21304e-05
1.92732e-05
1.67349e-05
1.47183e-05
1.25616e-05
1.13129e-05
9.87615e-06
8.79243e-06
7.73592e-06
7.10872e-06
7.29173e-06
8.15533e-06
9.55875e-06
1.16632e-05
1.46846e-05
1.6844e-05
1.85309e-05
1.3616e-05
9.3811e-06
9.58751e-06
1.32751e-05
2.33501e-05
3.76082e-05
5.59314e-05
7.85382e-05
0.000102419
0.000123986
0.000144507
1.75254e-05
1.78417e-05
1.80538e-05
1.82805e-05
1.8517e-05
1.8766e-05
1.90355e-05
1.93276e-05
1.96401e-05
1.99736e-05
2.03303e-05
2.07141e-05
2.11288e-05
2.15796e-05
2.20733e-05
2.26187e-05
2.3222e-05
2.38895e-05
2.46438e-05
2.5503e-05
2.64628e-05
2.75145e-05
2.86399e-05
2.98549e-05
3.11493e-05
3.24941e-05
3.37814e-05
3.50496e-05
3.61752e-05
3.60554e-05
3.43582e-05
3.23707e-05
3.0272e-05
2.78234e-05
2.5494e-05
2.28327e-05
2.05631e-05
1.79597e-05
1.60533e-05
1.39066e-05
1.22269e-05
1.09233e-05
9.65998e-06
8.84324e-06
7.48382e-06
6.83314e-06
6.40171e-06
5.52083e-06
5.25211e-06
5.45279e-06
5.79398e-06
6.59425e-06
7.62439e-06
9.20649e-06
1.03545e-05
1.17466e-05
1.29482e-05
9.83921e-06
5.6316e-06
4.71149e-06
6.3782e-06
1.12785e-05
2.13046e-05
3.72464e-05
5.98813e-05
8.83945e-05
0.000115291
0.000140343
0.0001623
1.99067e-05
2.01938e-05
2.0457e-05
2.07238e-05
2.10024e-05
2.12913e-05
2.16375e-05
2.19602e-05
2.23358e-05
2.27323e-05
2.31528e-05
2.36134e-05
2.41645e-05
2.46987e-05
2.53322e-05
2.5956e-05
2.66762e-05
2.72579e-05
2.6776e-05
2.62942e-05
2.56723e-05
2.51324e-05
2.45539e-05
2.38171e-05
2.28904e-05
2.18869e-05
2.06707e-05
1.93843e-05
1.79407e-05
1.65399e-05
1.51295e-05
1.37987e-05
1.25833e-05
1.1424e-05
1.03841e-05
9.50754e-06
8.5251e-06
7.91567e-06
7.41143e-06
6.69489e-06
6.12386e-06
5.51262e-06
5.07322e-06
4.63854e-06
4.2795e-06
4.08385e-06
3.87193e-06
3.63259e-06
3.5902e-06
3.4834e-06
3.30903e-06
3.20896e-06
3.01677e-06
3.10813e-06
3.48865e-06
4.69053e-06
5.41858e-06
2.99028e-06
1.23353e-06
2.45324e-06
4.37065e-06
8.1545e-06
1.55826e-05
2.77627e-05
4.59492e-05
7.23182e-05
9.99945e-05
0.000130105
0.000157438
8.8234e-06
8.70242e-06
8.58785e-06
8.47855e-06
8.37353e-06
8.27276e-06
8.17547e-06
8.07969e-06
7.98709e-06
7.89467e-06
7.80421e-06
7.71283e-06
7.62317e-06
7.53117e-06
7.4405e-06
7.34468e-06
7.25124e-06
7.14996e-06
7.0464e-06
6.93037e-06
6.81807e-06
6.69514e-06
6.58469e-06
6.47387e-06
6.38739e-06
6.29117e-06
6.22533e-06
6.13499e-06
6.0907e-06
5.9973e-06
5.95194e-06
5.83015e-06
5.73248e-06
5.57709e-06
5.29132e-06
5.05052e-06
4.68144e-06
4.41444e-06
4.02766e-06
3.61058e-06
3.23696e-06
2.86385e-06
2.45701e-06
2.04283e-06
1.70572e-06
1.27926e-06
9.2671e-07
6.98219e-07
5.63638e-07
4.8653e-07
4.68319e-07
5.13599e-07
5.99017e-07
7.97598e-07
1.13582e-06
1.50304e-06
1.40714e-06
6.34325e-07
3.64355e-07
5.00477e-07
1.2583e-06
2.72963e-06
5.40749e-06
9.96198e-06
1.76757e-05
3.02438e-05
4.82475e-05
6.85745e-05
9.23502e-05
3.34747e-06
3.47278e-06
3.59936e-06
3.72615e-06
3.8541e-06
3.98121e-06
4.10982e-06
4.2364e-06
4.3648e-06
4.49054e-06
4.61688e-06
4.74273e-06
4.86386e-06
4.9913e-06
5.10548e-06
5.23135e-06
5.34432e-06
5.45859e-06
5.57426e-06
5.68805e-06
5.76222e-06
5.80125e-06
5.822e-06
5.83083e-06
5.82707e-06
5.81148e-06
5.75213e-06
5.69607e-06
5.60817e-06
5.48285e-06
5.31494e-06
5.10109e-06
4.83782e-06
4.52176e-06
4.14994e-06
3.72353e-06
3.2466e-06
2.73129e-06
2.19644e-06
1.67793e-06
1.1597e-06
6.94854e-07
3.51813e-07
1.57837e-07
7.46883e-08
4.03582e-08
2.82913e-08
2.68899e-08
2.8177e-08
2.98189e-08
3.13999e-08
3.2994e-08
3.44413e-08
3.60206e-08
3.8224e-08
3.95799e-08
3.42553e-08
2.5841e-08
3.16881e-08
6.31927e-08
1.87697e-07
6.24257e-07
1.25777e-06
1.95349e-06
2.66267e-06
3.38947e-06
4.1082e-06
4.76098e-06
5.10704e-06
6.10598e-05
6.08419e-05
6.04173e-05
6.11261e-05
6.08395e-05
6.02676e-05
5.99114e-05
6.04249e-05
6.13762e-05
6.13782e-05
6.18241e-05
6.1365e-05
6.05638e-05
6.051e-05
6.13368e-05
6.38291e-05
6.23406e-05
6.20161e-05
6.26588e-05
6.32265e-05
6.28707e-05
6.29312e-05
6.39787e-05
6.37533e-05
6.46596e-05
6.50422e-05
6.5111e-05
6.47694e-05
6.6169e-05
6.74845e-05
6.74283e-05
6.75338e-05
6.83609e-05
6.9581e-05
6.92023e-05
6.96985e-05
7.0879e-05
7.07352e-05
7.11885e-05
7.423e-05
7.37725e-05
7.26254e-05
7.46129e-05
7.6341e-05
7.6207e-05
7.61075e-05
7.72147e-05
7.81681e-05
7.8714e-05
7.93956e-05
7.94385e-05
7.87382e-05
7.9923e-05
7.93687e-05
8.10385e-05
8.22312e-05
8.27373e-05
8.32973e-05
8.34978e-05
5.65186e-05
5.61343e-05
5.62728e-05
5.63042e-05
5.62356e-05
5.62814e-05
5.65017e-05
5.69472e-05
5.73174e-05
5.73339e-05
5.71186e-05
5.67729e-05
5.69574e-05
5.72097e-05
5.83732e-05
5.83514e-05
5.76113e-05
5.77438e-05
5.85626e-05
5.89196e-05
5.84668e-05
5.86638e-05
5.92843e-05
5.9525e-05
6.00454e-05
6.0232e-05
6.06204e-05
6.04108e-05
6.13278e-05
6.25272e-05
6.22957e-05
6.26932e-05
6.34081e-05
6.44127e-05
6.45011e-05
6.48769e-05
6.59666e-05
6.62337e-05
6.63137e-05
6.76314e-05
6.83554e-05
6.80811e-05
6.86403e-05
7.02428e-05
7.12648e-05
7.1321e-05
7.1764e-05
7.24533e-05
7.33079e-05
7.40979e-05
7.41899e-05
7.40432e-05
7.40163e-05
7.40566e-05
7.43453e-05
7.55241e-05
7.64685e-05
7.74106e-05
7.75589e-05
5.23581e-05
5.21698e-05
5.23654e-05
5.24743e-05
5.26482e-05
5.28403e-05
5.30738e-05
5.32223e-05
5.32574e-05
5.31165e-05
5.29831e-05
5.30939e-05
5.34746e-05
5.38243e-05
5.41565e-05
5.37229e-05
5.36671e-05
5.40944e-05
5.46985e-05
5.47703e-05
5.43723e-05
5.45958e-05
5.5015e-05
5.54252e-05
5.57973e-05
5.5924e-05
5.63043e-05
5.6252e-05
5.69563e-05
5.78852e-05
5.77991e-05
5.83141e-05
5.88532e-05
5.9619e-05
5.98928e-05
6.02749e-05
6.11191e-05
6.16209e-05
6.18214e-05
6.24949e-05
6.34563e-05
6.38343e-05
6.39468e-05
6.46843e-05
6.59184e-05
6.64197e-05
6.68001e-05
6.73119e-05
6.8123e-05
6.90557e-05
6.96401e-05
6.99256e-05
6.98817e-05
6.9935e-05
6.99383e-05
7.03263e-05
7.09532e-05
7.18562e-05
7.2199e-05
4.90083e-05
4.88999e-05
4.91326e-05
4.92593e-05
4.94185e-05
4.95262e-05
4.95611e-05
4.95097e-05
4.94565e-05
4.94526e-05
4.95659e-05
4.98005e-05
5.00436e-05
5.01809e-05
5.01265e-05
4.99965e-05
5.02313e-05
5.06619e-05
5.09303e-05
5.08519e-05
5.06451e-05
5.08635e-05
5.1243e-05
5.16586e-05
5.19258e-05
5.20497e-05
5.23705e-05
5.24677e-05
5.30644e-05
5.3731e-05
5.38509e-05
5.4348e-05
5.4762e-05
5.53605e-05
5.56824e-05
5.60794e-05
5.67519e-05
5.73282e-05
5.76576e-05
5.81374e-05
5.89992e-05
5.96524e-05
5.98251e-05
6.01379e-05
6.10541e-05
6.18556e-05
6.24116e-05
6.28254e-05
6.34291e-05
6.42111e-05
6.49787e-05
6.5604e-05
6.59869e-05
6.62098e-05
6.63014e-05
6.63854e-05
6.65851e-05
6.71086e-05
6.72122e-05
4.5994e-05
4.58968e-05
4.60455e-05
4.61055e-05
4.61682e-05
4.61554e-05
4.61568e-05
4.61369e-05
4.61924e-05
4.62851e-05
4.64058e-05
4.65801e-05
4.66768e-05
4.66693e-05
4.66307e-05
4.67625e-05
4.70209e-05
4.72576e-05
4.73087e-05
4.7229e-05
4.72107e-05
4.74399e-05
4.77867e-05
4.8131e-05
4.83285e-05
4.84764e-05
4.87529e-05
4.89424e-05
4.94506e-05
4.99582e-05
5.0188e-05
5.06414e-05
5.10008e-05
5.15116e-05
5.18575e-05
5.22575e-05
5.28259e-05
5.3393e-05
5.37917e-05
5.41621e-05
5.48369e-05
5.55701e-05
5.59656e-05
5.62204e-05
5.67836e-05
5.7528e-05
5.82032e-05
5.87175e-05
5.91965e-05
5.97636e-05
6.04224e-05
6.11043e-05
6.17229e-05
6.22196e-05
6.25739e-05
6.28027e-05
6.29599e-05
6.32834e-05
6.31005e-05
4.31149e-05
4.29787e-05
4.30523e-05
4.30782e-05
4.30729e-05
4.30954e-05
4.31055e-05
4.31202e-05
4.32058e-05
4.32984e-05
4.34141e-05
4.34713e-05
4.34902e-05
4.3488e-05
4.35274e-05
4.37065e-05
4.38825e-05
4.3984e-05
4.39743e-05
4.39458e-05
4.39997e-05
4.42424e-05
4.45375e-05
4.4807e-05
4.49589e-05
4.51187e-05
4.53699e-05
4.56007e-05
4.60367e-05
4.64468e-05
4.67172e-05
4.71301e-05
4.7469e-05
4.79219e-05
4.82795e-05
4.86732e-05
4.91701e-05
4.96998e-05
5.0131e-05
5.04725e-05
5.09805e-05
5.1655e-05
5.21966e-05
5.25332e-05
5.29232e-05
5.34834e-05
5.41228e-05
5.47119e-05
5.52172e-05
5.57003e-05
5.62242e-05
5.68037e-05
5.74134e-05
5.80075e-05
5.85396e-05
5.89835e-05
5.93221e-05
5.97431e-05
5.95567e-05
4.02811e-05
4.01019e-05
4.0164e-05
4.01646e-05
4.01769e-05
4.02119e-05
4.02723e-05
4.036e-05
4.04376e-05
4.0481e-05
4.0521e-05
4.05171e-05
4.05306e-05
4.05579e-05
4.06644e-05
4.0798e-05
4.08972e-05
4.09286e-05
4.08853e-05
4.08858e-05
4.1033e-05
4.12543e-05
4.14999e-05
4.17022e-05
4.1826e-05
4.1989e-05
4.22234e-05
4.24676e-05
4.2841e-05
4.31859e-05
4.3466e-05
4.38418e-05
4.4165e-05
4.45668e-05
4.49201e-05
4.52995e-05
4.57428e-05
4.62297e-05
4.66735e-05
4.70284e-05
4.74396e-05
4.80053e-05
4.85789e-05
4.9013e-05
4.93797e-05
4.98072e-05
5.03311e-05
5.08958e-05
5.14324e-05
5.19245e-05
5.23992e-05
5.28889e-05
5.34081e-05
5.39509e-05
5.4494e-05
5.50158e-05
5.54834e-05
5.60499e-05
5.60148e-05
3.76599e-05
3.75287e-05
3.76082e-05
3.76335e-05
3.76648e-05
3.76782e-05
3.77328e-05
3.77755e-05
3.77957e-05
3.77785e-05
3.77714e-05
3.77685e-05
3.77971e-05
3.78627e-05
3.79636e-05
3.80528e-05
3.80839e-05
3.80329e-05
3.80342e-05
3.81258e-05
3.82599e-05
3.84635e-05
3.86475e-05
3.87941e-05
3.8909e-05
3.90794e-05
3.9291e-05
3.95326e-05
3.98569e-05
4.01549e-05
4.04299e-05
4.07717e-05
4.10781e-05
4.14364e-05