/*--------------------------------*- C++ -*----------------------------------*\
| =========                 |                                                 |
| \\      /  F ield         | OpenFOAM: The Open Source CFD Toolbox           |
|  \\    /   O peration     | Version:  2312                                  |
|   \\  /    A nd           | Website:  www.openfoam.com                      |
|    \\/     M anipulation  |                                                 |
\*---------------------------------------------------------------------------*/
FoamFile
{
    version     2.0;
    format      ascii;
    arch        "LSB;label=32;scalar=64";
    class       volScalarField;
    location    "1400";
    object      omega;
}
// * * * * * * * * * * * * * * * * * * * * * * * * * * * * * * * * * * * * * //

dimensions      [0 0 -1 0 0 0 0];

internalField   nonuniform List<scalar> 
76025
(
0.0282721
0.0283212
0.0283583
0.0283753
0.0283657
0.0283701
0.0283565
0.0283802
0.028399
0.0283811
0.0284042
0.0283699
0.0284037
0.0284054
0.0284699
0.0285255
0.0286009
0.0286588
0.0287155
0.0287808
0.028836
0.0289033
0.0289503
0.0290039
0.0290656
0.0291211
0.0291941
0.0292628
0.029334
0.0294053
0.0294642
0.0295231
0.0295728
0.0296306
0.0296836
0.0297307
0.0297876
0.0298309
0.029881
0.0299276
0.029989
0.0300563
0.0301452
0.030249
0.0303881
0.0305546
0.0307752
0.0310275
0.0313641
0.0317578
0.0322419
0.0327708
0.0333976
0.0340776
0.0349391
0.0357436
0.036726
0.0377907
0.0390801
0.040594
0.0423389
0.044365
0.0468176
0.0496599
0.0526531
0.0572178
0.0616682
0.066374
0.077368
0.0285335
0.0285422
0.0285841
0.028645
0.0286916
0.0287369
0.0287645
0.0287886
0.0288087
0.0288206
0.0288441
0.0288513
0.0288724
0.0288849
0.0289167
0.0289592
0.0290092
0.0290597
0.0291102
0.0291621
0.0292136
0.0292661
0.0293187
0.0293694
0.0294238
0.0294741
0.0295291
0.0295837
0.0296397
0.0296952
0.029751
0.0298014
0.0298553
0.0299034
0.0299585
0.0300112
0.0300721
0.0301322
0.0302049
0.0302838
0.0303823
0.0304921
0.0306323
0.0307943
0.0309997
0.0312364
0.0315283
0.0318655
0.0322718
0.0327318
0.0332704
0.0338768
0.0345686
0.0353479
0.0362034
0.0371647
0.038264
0.0395186
0.0409962
0.0427162
0.0447318
0.0470963
0.0497284
0.0526007
0.0561332
0.0610226
0.0658598
0.0729343
0.089226
0.0288958
0.0289046
0.0289167
0.0289467
0.0289846
0.0290346
0.0290842
0.0291305
0.0291734
0.0292076
0.0292432
0.0292704
0.0293005
0.0293263
0.0293552
0.0293856
0.0294205
0.0294575
0.0294978
0.0295395
0.0295834
0.0296272
0.0296735
0.029719
0.0297673
0.029814
0.0298632
0.0299116
0.0299633
0.0300128
0.0300679
0.030121
0.0301811
0.0302405
0.0303096
0.0303801
0.0304637
0.0305514
0.0306578
0.0307733
0.0309128
0.0310682
0.0312601
0.0314773
0.0317425
0.0320383
0.032395
0.0327893
0.0332598
0.0337757
0.0343855
0.0350517
0.0358287
0.0366721
0.0376455
0.038718
0.0399617
0.0413709
0.043047
0.0449788
0.0472751
0.049779
0.0526873
0.0557463
0.0597358
0.0652262
0.0697915
0.078471
0.102823
0.0294686
0.029397
0.0294183
0.0294456
0.0294684
0.0294946
0.0295253
0.0295596
0.0295974
0.0296344
0.0296727
0.0297083
0.0297439
0.0297774
0.0298104
0.0298425
0.0298753
0.0299083
0.0299431
0.0299786
0.0300166
0.0300551
0.0300966
0.0301385
0.030184
0.0302295
0.0302792
0.0303286
0.0303838
0.0304378
0.0305002
0.0305634
0.0306374
0.0307136
0.0308034
0.0308976
0.0310092
0.0311284
0.0312702
0.0314233
0.031605
0.031806
0.0320465
0.0323142
0.0326323
0.0329846
0.0333974
0.0338534
0.034385
0.0349739
0.035656
0.0364124
0.0372764
0.0382333
0.0393208
0.0405419
0.04195
0.0435859
0.0455123
0.0477794
0.0503475
0.05318
0.056367
0.0595197
0.0647608
0.0697872
0.075379
0.0870194
0.123454
0.0299456
0.0299773
0.0300088
0.0300373
0.0300592
0.0300772
0.0300938
0.0301109
0.0301303
0.0301518
0.030176
0.0302016
0.030229
0.0302571
0.030286
0.0303153
0.0303455
0.0303763
0.0304091
0.030443
0.0304803
0.0305192
0.0305626
0.0306077
0.0306583
0.0307102
0.0307684
0.0308274
0.0308944
0.0309614
0.0310394
0.03112
0.0312147
0.0313133
0.0314291
0.0315511
0.0316943
0.0318472
0.0320258
0.0322169
0.0324417
0.0326881
0.0329765
0.0332921
0.0336614
0.0340686
0.0345424
0.0350636
0.0356701
0.0363395
0.0371145
0.0379699
0.0389463
0.0400295
0.0412664
0.0426707
0.0443062
0.0462176
0.0484721
0.051075
0.0539158
0.057061
0.0602508
0.0641825
0.0697754
0.0748213
0.0816491
0.0968902
0.149378
0.0303928
0.0304578
0.0305206
0.0305781
0.0306277
0.030669
0.0307025
0.0307293
0.0307516
0.0307708
0.030789
0.0308069
0.0308256
0.0308455
0.0308672
0.0308905
0.0309161
0.0309435
0.0309742
0.0310071
0.0310446
0.0310849
0.0311312
0.0311805
0.0312371
0.0312966
0.0313646
0.0314351
0.0315159
0.0315983
0.0316948
0.0317956
0.0319137
0.0320373
0.0321813
0.0323329
0.032509
0.0326966
0.0329121
0.0331429
0.0334115
0.0337051
0.0340438
0.0344161
0.0348426
0.035314
0.0358593
0.036463
0.0371594
0.0379301
0.0388154
0.0397942
0.0409074
0.042155
0.0435842
0.0452319
0.0471444
0.0493966
0.0520041
0.0549346
0.0580548
0.0614257
0.0648951
0.069644
0.0757042
0.0810874
0.0898498
0.110458
0.18603
0.0309566
0.031011
0.0310721
0.0311361
0.0311998
0.0312611
0.0313175
0.0313676
0.0314112
0.0314489
0.0314812
0.0315097
0.0315352
0.0315592
0.0315826
0.0316064
0.0316317
0.0316586
0.0316887
0.0317212
0.0317589
0.0317997
0.031848
0.0318999
0.0319614
0.0320269
0.0321037
0.0321846
0.0322786
0.0323759
0.0324906
0.0326113
0.0327526
0.032901
0.0330732
0.033255
0.033465
0.0336891
0.0339439
0.0342195
0.0345371
0.0348856
0.0352835
0.0357236
0.0362221
0.0367736
0.0374043
0.0381066
0.0389103
0.0398022
0.0408218
0.0419493
0.0432376
0.0446903
0.0463663
0.0482971
0.0505363
0.0531472
0.056091
0.0593047
0.0626742
0.0662849
0.0701994
0.0760408
0.0823019
0.0884632
0.100101
0.128869
0.239663
0.0316627
0.0316975
0.0317399
0.0317885
0.0318424
0.0319008
0.0319613
0.0320218
0.0320803
0.032136
0.0321877
0.0322357
0.0322799
0.0323212
0.0323603
0.0323985
0.0324369
0.0324762
0.0325187
0.0325633
0.0326137
0.0326669
0.0327283
0.032793
0.0328681
0.032947
0.0330382
0.0331339
0.033244
0.0333583
0.0334924
0.0336336
0.0337978
0.0339706
0.0341699
0.0343815
0.0346243
0.0348855
0.0351802
0.0355048
0.0358748
0.0362851
0.0367489
0.0372661
0.037845
0.0384935
0.0392195
0.0400359
0.0409598
0.0419954
0.0431722
0.044483
0.0459853
0.0476859
0.0496457
0.0518867
0.0544663
0.0574148
0.0606491
0.0641064
0.0677841
0.071674
0.076622
0.083413
0.0901405
0.0978558
0.114323
0.154817
0.314188
0.0325986
0.0326243
0.0326538
0.0326863
0.0327228
0.0327643
0.0328103
0.0328604
0.0329131
0.0329682
0.033024
0.0330805
0.0331363
0.0331918
0.0332466
0.0333006
0.0333555
0.0334099
0.0334675
0.0335257
0.0335902
0.0336565
0.033732
0.0338105
0.0339008
0.033995
0.0341029
0.0342159
0.0343447
0.0344791
0.0346358
0.0348014
0.034993
0.0351964
0.0354295
0.0356797
0.0359646
0.0362737
0.0366198
0.0370063
0.0374397
0.0379254
0.0384661
0.0390746
0.0397456
0.0405086
0.0413492
0.0423033
0.0433681
0.0445741
0.0459327
0.0474631
0.049211
0.0511855
0.0534449
0.0559969
0.0589172
0.0621688
0.0656488
0.0694282
0.0734624
0.0780546
0.0843599
0.0921366
0.0998278
0.110607
0.1348
0.19485
0.398676
0.0336559
0.0336888
0.0337234
0.0337599
0.0337975
0.033839
0.0338832
0.0339315
0.0339825
0.0340371
0.0340942
0.0341538
0.0342157
0.0342794
0.0343456
0.0344131
0.0344841
0.0345562
0.0346332
0.0347116
0.0347967
0.034884
0.0349801
0.0350797
0.0351908
0.0353065
0.0354362
0.0355724
0.0357244
0.0358849
0.0360691
0.0362653
0.0364895
0.0367289
0.0370008
0.0372941
0.0376259
0.0379855
0.0383888
0.0388399
0.0393419
0.0399067
0.0405315
0.0412372
0.0420145
0.0429024
0.0438761
0.0449889
0.0462199
0.0476243
0.0491893
0.0509736
0.0529764
0.0552405
0.0578032
0.0606731
0.0639536
0.0674542
0.071253
0.075495
0.0801336
0.0859609
0.0938995
0.102983
0.112706
0.128926
0.166132
0.263076
0.493412
0.0349503
0.0349819
0.0350162
0.03505
0.0350855
0.0351226
0.0351633
0.0352064
0.0352541
0.0353053
0.0353616
0.0354218
0.0354865
0.035555
0.0356276
0.0357037
0.0357846
0.0358691
0.0359592
0.0360536
0.0361546
0.0362612
0.0363757
0.0364974
0.0366296
0.0367702
0.0369246
0.0370893
0.0372704
0.0374653
0.0376856
0.0379232
0.0381913
0.0384796
0.0388045
0.0391547
0.0395494
0.0399724
0.040453
0.0409802
0.0415728
0.0422301
0.042964
0.0437831
0.0446969
0.0457248
0.0468638
0.0481573
0.0495925
0.0512246
0.0530289
0.055093
0.0573502
0.0599456
0.0628296
0.0660735
0.0697312
0.0734947
0.077863
0.0828254
0.0885024
0.0961454
0.106133
0.117339
0.131051
0.156987
0.215208
0.371181
0.580269
0.0364429
0.0364902
0.0365376
0.0365843
0.0366292
0.0366756
0.0367219
0.0367709
0.0368209
0.0368756
0.0369331
0.0369972
0.0370655
0.0371407
0.0372214
0.0373089
0.0374024
0.0375032
0.0376096
0.037725
0.0378454
0.0379768
0.0381138
0.0382633
0.0384215
0.0385925
0.0387775
0.0389762
0.0391926
0.039428
0.0396905
0.0399754
0.0402921
0.0406341
0.0410154
0.041426
0.0418867
0.0423781
0.0429448
0.0435521
0.0442525
0.0450093
0.0458749
0.0468217
0.0478986
0.0490861
0.0504293
0.0519279
0.0536075
0.055492
0.057571
0.0599359
0.062483
0.065504
0.0687395
0.0724609
0.0765203
0.0807414
0.0861343
0.0921181
0.0994338
0.109671
0.122594
0.137703
0.159095
0.202095
0.305648
0.502946
0.65361
0.0382195
0.0382796
0.0383416
0.0384021
0.0384621
0.0385214
0.0385814
0.0386411
0.0387023
0.0387651
0.0388309
0.038901
0.0389755
0.0390565
0.0391427
0.0392378
0.0393377
0.039449
0.0395646
0.039694
0.0398283
0.0399783
0.0401361
0.0403103
0.0404968
0.0406991
0.0409196
0.0411554
0.041414
0.041695
0.0420074
0.0423468
0.0427219
0.0431292
0.0435802
0.0440691
0.0446118
0.0451979
0.045869
0.0465853
0.0474165
0.0482998
0.0493271
0.0504299
0.0517014
0.053085
0.0546668
0.0564018
0.0583619
0.0605262
0.0629293
0.0656425
0.0685825
0.0721385
0.0757418
0.0801046
0.084652
0.0898097
0.0967111
0.104052
0.114129
0.128385
0.146186
0.168077
0.204607
0.280403
0.46026
0.619303
0.715299
0.0402894
0.0403652
0.0404434
0.0405197
0.0405956
0.0406717
0.0407484
0.0408263
0.0409043
0.0409861
0.0410686
0.0411576
0.041248
0.0413473
0.0414489
0.041561
0.0416767
0.0418045
0.0419379
0.0420852
0.0422402
0.0424123
0.0425943
0.0427972
0.0430134
0.0432526
0.0435115
0.0437929
0.0441015
0.0444406
0.0448151
0.0452238
0.045672
0.0461601
0.0466948
0.0472763
0.0479126
0.0486114
0.0493928
0.0502426
0.0512106
0.0522529
0.0534592
0.0547543
0.0562535
0.0578747
0.0597357
0.0617466
0.0640586
0.066536
0.0693742
0.0725054
0.0759615
0.0801076
0.0840992
0.0893997
0.0946463
0.101407
0.110245
0.119941
0.135228
0.155966
0.181532
0.216626
0.286365
0.44454
0.617073
0.718706
0.774626
0.0429122
0.0430146
0.0431177
0.0432196
0.043318
0.0434166
0.0435126
0.0436089
0.0437027
0.0437978
0.0438924
0.04399
0.0440907
0.0441965
0.0443094
0.0444304
0.0445616
0.0447044
0.044859
0.0450296
0.0452125
0.0454166
0.0456333
0.0458764
0.0461332
0.0464206
0.0467259
0.0470623
0.047426
0.0478303
0.0482684
0.0487506
0.049272
0.0498437
0.0504646
0.0511422
0.0518841
0.0527069
0.0536201
0.0546299
0.0557668
0.0570138
0.0584369
0.0599811
0.0617567
0.0636618
0.0658731
0.068193
0.0709669
0.0737606
0.0772185
0.0807527
0.084857
0.0896547
0.0942068
0.101056
0.107254
0.116768
0.128659
0.143728
0.168349
0.198404
0.238201
0.307386
0.46034
0.637773
0.746164
0.788546
0.805959
0.0458909
0.0460156
0.0461474
0.0462785
0.0464113
0.0465438
0.0466782
0.0468111
0.0469455
0.0470783
0.0472135
0.047348
0.0474862
0.0476261
0.0477718
0.0479238
0.0480847
0.048257
0.0484415
0.0486418
0.0488575
0.0490935
0.0493477
0.0496276
0.0499277
0.0502604
0.0506146
0.0510069
0.0514308
0.0519027
0.0524122
0.0529744
0.053582
0.0542523
0.0549799
0.0557808
0.0566625
0.057649
0.0587397
0.0599588
0.0613183
0.0628209
0.0645172
0.0663594
0.0684688
0.0707066
0.0733482
0.0760144
0.0793865
0.0825095
0.0868383
0.0906669
0.0958612
0.101429
0.107205
0.116526
0.124252
0.139759
0.157161
0.183903
0.221504
0.268044
0.345803
0.505062
0.693508
0.796208
0.831488
0.832447
0.819677
0.0498017
0.0499406
0.0500851
0.0502305
0.0503769
0.0505249
0.050676
0.0508274
0.0509831
0.0511396
0.0513029
0.0514686
0.0516427
0.0518215
0.0520097
0.052206
0.052413
0.0526328
0.0528652
0.053115
0.0533797
0.0536658
0.0539692
0.0542989
0.0546481
0.0550324
0.0554366
0.0558894
0.0563747
0.0569212
0.0575084
0.0581667
0.0588765
0.0596743
0.0605326
0.0614998
0.0625548
0.0637521
0.0650582
0.0665376
0.0681554
0.06997
0.071977
0.0741772
0.0766802
0.0793112
0.0824909
0.0855454
0.0897301
0.0931461
0.0987334
0.102782
0.110101
0.116401
0.125396
0.13811
0.150732
0.178064
0.204419
0.252047
0.309951
0.402495
0.582084
0.772088
0.861885
0.882866
0.872799
0.846719
0.818718
0.0544729
0.0546479
0.0548312
0.0550119
0.0551959
0.0553769
0.0555632
0.0557449
0.0559316
0.0561149
0.0563045
0.0564941
0.0566914
0.0568936
0.0571055
0.0573282
0.0575637
0.0578161
0.0580859
0.0583786
0.058694
0.0590376
0.0594094
0.0598131
0.0602507
0.0607235
0.0612342
0.0617933
0.0624036
0.0630694
0.063797
0.064589
0.0654591
0.0664131
0.0674548
0.0686186
0.0698962
0.071339
0.0729111
0.074692
0.076629
0.0788048
0.0812025
0.0838223
0.0868388
0.0899258
0.0938333
0.0973349
0.1026
0.106431
0.113928
0.118757
0.129665
0.137348
0.154403
0.171203
0.199718
0.241105
0.286817
0.374178
0.479545
0.695889
0.86867
0.94192
0.941981
0.921727
0.881688
0.833224
0.79081
0.0605554
0.0607621
0.0609806
0.0611978
0.0614194
0.061641
0.0618666
0.0620923
0.0623187
0.0625475
0.0627759
0.0630108
0.063246
0.0634931
0.0637434
0.0640122
0.0642892
0.0645909
0.0649079
0.0652551
0.0656257
0.0660314
0.0664684
0.0669439
0.0674606
0.0680148
0.068626
0.069287
0.0700204
0.0708108
0.0716895
0.0726382
0.0736974
0.0748441
0.0761219
0.0775324
0.0791045
0.0808488
0.0827818
0.0849227
0.0873025
0.0898984
0.0928597
0.095953
0.0997342
0.103305
0.108296
0.11234
0.119333
0.124266
0.134857
0.142275
0.159035
0.172502
0.203926
0.230017
0.289066
0.344108
0.45454
0.596261
0.837802
0.977926
1.02605
1.01383
0.975097
0.911587
0.841961
0.779708
0.726411
0.0680505
0.0683125
0.0685839
0.0688572
0.0691309
0.0694096
0.0696881
0.0699727
0.070254
0.0705441
0.0708295
0.0711281
0.0714223
0.0717354
0.0720471
0.0723846
0.0727271
0.0731019
0.0734908
0.0739172
0.074369
0.0748631
0.0753946
0.0759747
0.0766029
0.0772854
0.0780404
0.0788604
0.0797696
0.0807506
0.0818377
0.0830138
0.0843205
0.0857338
0.0873178
0.0890515
0.0910026
0.0931179
0.0955266
0.0980759
0.101068
0.1041
0.107886
0.111421
0.116363
0.120411
0.127368
0.132378
0.142813
0.150609
0.167163
0.180959
0.210088
0.237379
0.290455
0.343334
0.443254
0.557138
0.771405
0.993015
1.10117
1.11537
1.08956
1.03481
0.936373
0.835698
0.753288
0.687861
0.65549
0.0778045
0.0781127
0.078427
0.0787472
0.079063
0.0793867
0.0797066
0.0800348
0.0803574
0.0806909
0.0810192
0.0813627
0.0817033
0.0820644
0.0824284
0.0828191
0.083223
0.0836601
0.0841242
0.0846274
0.0851726
0.0857612
0.0864067
0.0871005
0.0878609
0.0886881
0.0896011
0.0905958
0.0916926
0.0928925
0.0942154
0.0956753
0.0972739
0.0990504
0.101005
0.103184
0.105592
0.108206
0.111209
0.114269
0.118104
0.121639
0.126665
0.130844
0.137919
0.143274
0.154362
0.16243
0.180395
0.196142
0.223977
0.256798
0.302503
0.365536
0.444351
0.569826
0.725228
0.983965
1.15286
1.21984
1.21083
1.16672
1.07588
0.944859
0.816957
0.71328
0.640985
0.590895
0.58846
0.0905625
0.0909988
0.0914457
0.0918937
0.0923398
0.0927873
0.0932324
0.0936779
0.0941184
0.0945624
0.0950015
0.0954496
0.0958959
0.0963567
0.0968231
0.09731
0.0978151
0.0983484
0.0989154
0.0995215
0.100175
0.100884
0.101652
0.102489
0.103404
0.104422
0.105526
0.106767
0.108096
0.109603
0.111201
0.113042
0.11494
0.117197
0.119471
0.122241
0.125002
0.128327
0.131876
0.135775
0.140669
0.145406
0.152631
0.159232
0.170694
0.181287
0.201133
0.219034
0.253128
0.286309
0.337977
0.404349
0.482885
0.609132
0.748076
0.988134
1.20523
1.32088
1.33595
1.3086
1.24675
1.10477
0.942814
0.801239
0.693411
0.614962
0.55824
0.530193
0.539282
0.106792
0.107268
0.107756
0.108254
0.108749
0.109254
0.109757
0.110269
0.110777
0.111298
0.111818
0.112357
0.112903
0.113475
0.114066
0.114693
0.11535
0.116056
0.116806
0.117618
0.118486
0.119434
0.120441
0.121565
0.122755
0.124102
0.125505
0.127126
0.128776
0.130744
0.132664
0.135081
0.137267
0.14033
0.142838
0.146809
0.149842
0.154997
0.159262
0.166056
0.17315
0.182787
0.195186
0.210984
0.23249
0.260108
0.297677
0.340933
0.404029
0.470972
0.567631
0.691889
0.836397
1.05881
1.28591
1.42173
1.45975
1.44355
1.398
1.29538
1.11647
0.970804
0.846449
0.743727
0.654896
0.578466
0.518709
0.500898
0.510295
0.130028
0.130757
0.131494
0.132235
0.13297
0.133707
0.134438
0.135169
0.13589
0.136613
0.137328
0.138049
0.138768
0.139501
0.14024
0.141005
0.141786
0.14261
0.143464
0.144385
0.145346
0.146405
0.147522
0.148785
0.150105
0.151642
0.153202
0.155093
0.156928
0.159338
0.161489
0.164725
0.167245
0.171952
0.17498
0.182061
0.18641
0.197053
0.204455
0.221059
0.235841
0.261234
0.289483
0.330927
0.377278
0.444276
0.514231
0.605892
0.713793
0.840636
1.0157
1.22437
1.44078
1.57267
1.59916
1.5902
1.54631
1.48157
1.31258
1.14269
1.03326
0.924342
0.82298
0.733161
0.640897
0.564407
0.499953
0.479557
0.490907
0.160055
0.160839
0.161663
0.162482
0.163314
0.164139
0.164978
0.165806
0.166645
0.167473
0.168317
0.169159
0.170023
0.1709
0.17181
0.172755
0.17375
0.174805
0.175935
0.177152
0.178479
0.179933
0.181524
0.183281
0.185188
0.187362
0.189691
0.192517
0.195505
0.19947
0.203395
0.209482
0.214975
0.22515
0.233181
0.250551
0.263628
0.292123
0.316047
0.360149
0.404272
0.467839
0.542345
0.630035
0.731648
0.857962
0.973327
1.12913
1.29419
1.51432
1.72448
1.79383
1.79203
1.76179
1.69958
1.62647
1.50403
1.30581
1.15325
1.06512
1.01525
0.935927
0.855798
0.760965
0.656897
0.5581
0.493637
0.473181
0.48847
0.206523
0.207788
0.209088
0.210393
0.211727
0.213065
0.21443
0.215797
0.217192
0.218594
0.220036
0.221493
0.223015
0.224569
0.226224
0.227924
0.229776
0.231703
0.233759
0.23592
0.238257
0.240762
0.243559
0.246518
0.250207
0.254637
0.260354
0.267646
0.277122
0.289104
0.304051
0.323575
0.346899
0.378654
0.414475
0.465189
0.51895
0.594804
0.675512
0.780112
0.896702
1.02334
1.1779
1.31059
1.49155
1.64738
1.7743
1.98824
2.1171
2.12959
2.09508
1.9979
1.90026
1.77363
1.60239
1.42323
1.2562
1.12982
1.06439
1.1506
1.23327
1.19093
1.05393
0.896498
0.73566
0.600522
0.530884
0.501839
0.508021
0.331063
0.334676
0.338352
0.342059
0.345823
0.349636
0.353531
0.357488
0.361562
0.365722
0.370043
0.374489
0.379175
0.384015
0.389221
0.394635
0.400517
0.406823
0.413251
0.420203
0.428334
0.436484
0.447017
0.461322
0.480083
0.502913
0.532713
0.569784
0.616793
0.672056
0.739057
0.815151
0.904992
1.00672
1.12366
1.25379
1.3975
1.55749
1.72523
1.9056
2.08304
2.25446
2.41345
2.55244
2.68037
2.74245
2.7455
2.71066
2.5689
2.38568
2.19336
1.95765
1.7223
1.49888
1.34399
1.14995
0.957553
0.903914
1.20383
1.61112
1.75239
1.69501
1.48203
1.24064
1.00845
0.798576
0.686751
0.617507
0.596114
1.19599
1.21643
1.23686
1.25719
1.27756
1.29784
1.31827
1.3387
1.35923
1.38007
1.40089
1.42242
1.44392
1.46613
1.48938
1.51214
1.53781
1.5636
1.58847
1.62659
1.67771
1.74207
1.81775
1.90352
1.99935
2.10453
2.21838
2.34039
2.47034
2.6077
2.75274
2.90519
3.07269
3.2434
3.422
3.59457
3.76608
3.92392
4.05549
4.17886
4.22207
4.22043
4.18783
4.13085
3.9855
3.75183
3.45736
3.10915
2.74167
2.41353
2.08693
1.75651
1.5009
1.32898
1.2339
1.15803
1.08329
1.12944
1.60525
2.60526
2.97028
3.09566
2.85908
2.51413
2.10448
1.69071
1.35438
1.16688
1.0497
8.28236
8.28126
8.27938
8.27661
8.27302
8.26842
8.26302
8.25646
8.24918
8.24057
8.23126
8.22068
8.20898
8.19673
8.18222
8.16834
8.15139
8.13462
8.11687
8.09671
8.06957
8.03992
8.00844
7.97521
7.94137
7.90067
7.86245
7.8184
7.77424
7.72343
7.66819
7.60817
7.54319
7.47304
7.39772
7.31755
7.23338
7.14652
7.05977
6.97421
6.89122
6.8169
6.75574
6.7068
6.66479
6.62533
6.58719
6.54968
6.51256
6.47585
6.4396
6.40384
6.3686
6.33397
6.29988
6.2661
6.23274
6.20097
6.17159
6.14698
6.1417
6.15436
6.17538
6.19985
6.22763
6.25843
6.29599
6.34795
6.35369
0.0286399
0.0286474
0.0286656
0.0286688
0.0286831
0.0286884
0.0287158
0.0286887
0.0286812
0.0286613
0.0286481
0.028659
0.0287207
0.0287562
0.0287153
0.0286887
0.0286833
0.0287107
0.0287337
0.028676
0.0286606
0.0286765
0.0286436
0.0286448
0.0285962
0.0285635
0.0285706
0.0285658
0.0285605
0.0285685
0.0285254
0.0285167
0.0285036
0.0284796
0.0284681
0.0284282
0.0284303
0.028423
0.0284059
0.0283904
0.028364
0.028368
0.0283347
0.0282803
0.0282754
0.0282615
0.0282452
0.0282015
0.0282055
0.0282392
0.0282964
0.0283363
0.0283466
0.0283058
0.0282947
0.0282527
0.0282179
0.0282036
0.0282268
0.0290068
0.029007
0.0289899
0.0290182
0.0290205
0.0289982
0.0289718
0.0289663
0.0289564
0.0289668
0.0289638
0.0290297
0.0290565
0.0289902
0.0289737
0.0289652
0.0289971
0.0290062
0.0289763
0.0289191
0.0289145
0.0289245
0.0289055
0.0289044
0.028829
0.0288162
0.0288342
0.0288091
0.028798
0.0287968
0.0287574
0.0287477
0.0287278
0.028699
0.0286883
0.028653
0.0286439
0.0286404
0.0286299
0.0286125
0.0285844
0.0285909
0.0285775
0.0285452
0.0285143
0.0285015
0.0284817
0.0284627
0.0284319
0.0284443
0.0284795
0.0285435
0.0286226
0.0286311
0.028642
0.0285971
0.0285876
0.0285745
0.0285588
0.0294605
0.0294287
0.0294448
0.0294071
0.0294005
0.0294076
0.0294018
0.0293657
0.0293698
0.0293733
0.0293968
0.0294197
0.0293453
0.029318
0.0293299
0.0293367
0.0293396
0.0293419
0.0292784
0.0292575
0.0292691
0.0292676
0.0291982
0.0291852
0.0291364
0.0291306
0.0291064
0.0291094
0.0290866
0.0290746
0.0290431
0.0290325
0.0290101
0.0289782
0.0289677
0.0289391
0.0289205
0.0289181
0.0289136
0.0288987
0.0288801
0.0288693
0.028863
0.0288475
0.0288242
0.0288061
0.0287899
0.0287651
0.0287482
0.0287317
0.0287538
0.0287915
0.0288665
0.0289194
0.029009
0.0289937
0.0289783
0.0289638
0.0289666
0.0298684
0.029889
0.0298781
0.0298579
0.0298516
0.0298381
0.0298369
0.0298421
0.02987
0.0298888
0.0298356
0.0297818
0.0297724
0.029767
0.0297531
0.0297695
0.0297853
0.0297101
0.0296442
0.029627
0.0296364
0.0296074
0.0295862
0.0295474
0.0294861
0.0294787
0.0294919
0.0294659
0.0294325
0.0294148
0.0293851
0.0293686
0.029341
0.0293053
0.0292917
0.0292663
0.0292381
0.0292348
0.0292322
0.0292219
0.0292056
0.0291933
0.0291905
0.0291836
0.0291766
0.0291483
0.0291415
0.0291215
0.0290833
0.0290753
0.0290651
0.0290815
0.0291369
0.0291947
0.0292802
0.0293509
0.0294082
0.0294616
0.0294571
0.0304171
0.0304047
0.0304434
0.0304247
0.0304614
0.0304805
0.0304696
0.0304129
0.0303606
0.0303303
0.0302904
0.0302897
0.0302874
0.0302854
0.0302911
0.0302912
0.0301764
0.0301038
0.0300968
0.030119
0.0301378
0.0300678
0.0300152
0.0299636
0.0299327
0.0299426
0.0298888
0.0298811
0.0298466
0.0298214
0.0297943
0.0297759
0.0297485
0.029712
0.0296981
0.0296752
0.0296478
0.02964
0.0296368
0.0296309
0.0296156
0.0295996
0.0295924
0.0295881
0.0295791
0.0295658
0.0295532
0.0295419
0.0295378
0.0295091
0.0295222
0.0295228
0.0295464
0.0295791
0.0296303
0.0296928
0.0297594
0.0298301
0.0298868
0.0312307
0.0312201
0.0311698
0.0311509
0.0310859
0.031064
0.0310173
0.0309703
0.0309511
0.030949
0.030951
0.0309506
0.0309577
0.030907
0.0308845
0.0307827
0.0307322
0.0307318
0.0307342
0.0306813
0.0306158
0.0305645
0.0305465
0.0304918
0.0304465
0.0304159
0.0304202
0.0303869
0.0303349
0.0303064
0.0302768
0.0302515
0.0302183
0.0301778
0.0301578
0.0301328
0.0301044
0.0300859
0.0300925
0.0300843
0.0300766
0.0300705
0.0300536
0.0300477
0.0300438
0.0300236
0.0300283
0.030032
0.0300396
0.0300463
0.0300596
0.0300692
0.0300831
0.0301024
0.0301299
0.0301699
0.0302165
0.0302752
0.0303299
0.0319667
0.0319099
0.0318695
0.0318272
0.0318317
0.0318054
0.0317254
0.0317301
0.0317214
0.0316766
0.0316978
0.0316911
0.0315895
0.0315723
0.0315298
0.0314187
0.0313734
0.0313359
0.031304
0.0312913
0.031308
0.0312282
0.0311509
0.0310773
0.0310593
0.0310794
0.0310063
0.0309701
0.0309207
0.0308886
0.0308567
0.0308288
0.0307956
0.0307549
0.0307338
0.0307104
0.0306816
0.0306627
0.0306641
0.0306763
0.0306684
0.0306586
0.0306608
0.0306435
0.0306312
0.0306442
0.0306527
0.0306575
0.0306633
0.0306744
0.0306902
0.0307078
0.0307256
0.0307463
0.0307678
0.0307971
0.0308286
0.0308707
0.0309109
0.0328611
0.0328286
0.0327487
0.0327209
0.0327386
0.0327744
0.0327561
0.0326865
0.0326507
0.0326269
0.0325875
0.0325025
0.0324097
0.0323051
0.0321821
0.0321217
0.0321178
0.0321518
0.0321707
0.0321537
0.0320228
0.0319271
0.0318814
0.0318562
0.0318226
0.031743
0.0317224
0.031681
0.0316167
0.031575
0.0315395
0.0315039
0.0314634
0.0314166
0.0313863
0.0313582
0.0313245
0.0312985
0.0312917
0.0313091
0.0313259
0.0313272
0.0313291
0.0313325
0.0313368
0.0313519
0.0313675
0.03138
0.031389
0.0314007
0.0314156
0.0314353
0.0314563
0.0314815
0.0315058
0.0315357
0.0315641
0.0315999
0.0316318
0.0339317
0.0338781
0.0338386
0.0338156
0.0338033
0.0337786
0.0337381
0.0336586
0.0335713
0.0334801
0.0333633
0.0332876
0.0332489
0.0332217
0.033252
0.0332463
0.0332011
0.0331815
0.0330562
0.0329779
0.0329581
0.0328621
0.0327631
0.0326692
0.0326603
0.0326589
0.0325763
0.0325207
0.0324419
0.0324072
0.0323626
0.0323224
0.0322803
0.0322324
0.0322031
0.0321756
0.0321434
0.0321157
0.0321031
0.0321157
0.0321424
0.0321608
0.0321697
0.0321788
0.032193
0.0322156
0.0322425
0.0322692
0.0322906
0.0323105
0.0323291
0.0323516
0.0323748
0.0324038
0.0324321
0.0324667
0.032499
0.0325375
0.0325705
0.0349504
0.0349026
0.0348548
0.0348089
0.0347812
0.0347697
0.0348019
0.034857
0.0348304
0.0347713
0.0347164
0.0345058
0.0344408
0.0343566
0.0343022
0.0342513
0.0341953
0.034163
0.0341509
0.0341655
0.0339722
0.0338195
0.0337858
0.0338151
0.0337474
0.0336426
0.0335817
0.0335024
0.0334423
0.0333799
0.033333
0.0332841
0.033234
0.0331764
0.0331356
0.033099
0.0330589
0.0330232
0.0330026
0.0330023
0.0330284
0.0330579
0.0330793
0.033096
0.0331156
0.033143
0.0331777
0.0332174
0.0332548
0.0332907
0.0333219
0.0333544
0.0333846
0.0334199
0.0334539
0.0334947
0.033534
0.0335796
0.0336207
0.0364822
0.0364496
0.0364012
0.0363778
0.0363467
0.0362738
0.0362353
0.0361826
0.0360718
0.035983
0.0358815
0.0357413
0.0356796
0.0357062
0.0357129
0.0357152
0.0356493
0.0356866
0.0355518
0.0353455
0.0352038
0.035187
0.0351568
0.0349839
0.0349439
0.0348832
0.0347871
0.0347386
0.0346112
0.0345742
0.0345095
0.0344518
0.034396
0.0343364
0.034297
0.0342615
0.0342252
0.0341903
0.0341667
0.0341596
0.0341749
0.0342091
0.034242
0.0342697
0.0342962
0.0343275
0.0343652
0.0344111
0.0344588
0.0345085
0.0345547
0.0346013
0.0346436
0.0346885
0.0347301
0.0347765
0.0348203
0.0348691
0.0349132
0.0385672
0.038438
0.0383558
0.0382092
0.0380478
0.0378853
0.0377955
0.0377476
0.0377888
0.0377581
0.037636
0.0375877
0.0375729
0.0375643
0.03751
0.0373682
0.0373011
0.0371602
0.0369773
0.0368727
0.0367977
0.0366348
0.0365534
0.0365696
0.0364471
0.0363173
0.0362643
0.0360991
0.036058
0.0359669
0.0359006
0.0358327
0.0357691
0.0356961
0.0356412
0.0355914
0.0355425
0.0354962
0.0354617
0.0354503
0.0354481
0.0354692
0.035505
0.0355415
0.0355769
0.0356148
0.0356568
0.0357078
0.0357629
0.0358242
0.035885
0.0359494
0.0360105
0.0360752
0.0361361
0.0362015
0.0362636
0.0363296
0.0363904
0.0401974
0.0400954
0.0400983
0.0401617
0.0400422
0.0402041
0.0401715
0.0400062
0.0400355
0.0399792
0.0397539
0.0395315
0.0394838
0.0394042
0.0392972
0.0392194
0.0391564
0.0390475
0.0388506
0.0386721
0.0385153
0.0385111
0.038547
0.038311
0.0382002
0.0381136
0.0379427
0.0379292
0.0377449
0.0376957
0.0376047
0.0375218
0.0374436
0.0373661
0.0373101
0.0372629
0.0372195
0.0371768
0.0371412
0.0371299
0.0371221
0.0371351
0.0371629
0.0372016
0.0372423
0.0372858
0.0373302
0.0373819
0.0374376
0.037501
0.0375662
0.0376371
0.0377068
0.0377812
0.0378529
0.0379294
0.0380036
0.038081
0.0381545
0.0430202
0.0431088
0.043067
0.0428873
0.0429192
0.0428316
0.0425329
0.0424592
0.0423417
0.0422904
0.0423241
0.0422606
0.0420584
0.0418982
0.0417133
0.0416202
0.0414169
0.04121
0.0410065
0.0409766
0.0409478
0.0408173
0.0405651
0.040495
0.0403736
0.0401685
0.0401459
0.0398873
0.0398462
0.0397237
0.039625
0.0395277
0.0394447
0.0393519
0.0392747
0.0392063
0.0391444
0.0390877
0.0390371
0.0390086
0.0390024
0.0389967
0.0390148
0.0390482
0.0390919
0.0391433
0.0391978
0.0392589
0.0393234
0.0393966
0.0394725
0.0395575
0.0396419
0.0397348
0.0398247
0.0399218
0.0400157
0.0401142
0.040207
0.0461809
0.0460527
0.0458897
0.0456841
0.0456077
0.0455999
0.0456872
0.0456411
0.0454128
0.0453927
0.0452975
0.0451257
0.0449732
0.0447042
0.0445678
0.0442911
0.0440953
0.0439792
0.0438777
0.0437443
0.0434501
0.0433782
0.0433259
0.0430992
0.0428934
0.0428258
0.0425697
0.0425766
0.0423383
0.0422596
0.0421362
0.0420186
0.0419052
0.0417991
0.0417164
0.041649
0.0415929
0.0415431
0.0414984
0.0414723
0.0414596
0.0414649
0.0414713
0.0414974
0.0415341
0.0415839
0.0416392
0.0417041
0.0417722
0.0418506
0.0419315
0.0420243
0.0421189
0.0422253
0.0423318
0.0424486
0.042565
0.0426876
0.0428061
0.0502608
0.0502192
0.0501149
0.0500344
0.0498204
0.0496852
0.0495716
0.0493814
0.0492467
0.0490662
0.0488193
0.0485545
0.0482578
0.0480503
0.0478175
0.0476297
0.0475257
0.0473548
0.0471999
0.0470411
0.0468799
0.0468823
0.0463804
0.0462542
0.0461852
0.0459121
0.0459155
0.0455425
0.0454295
0.0452811
0.0451278
0.0449823
0.0448697
0.0447525
0.0446443
0.0445462
0.0444604
0.0443853
0.0443201
0.0442728
0.0442427
0.0442473
0.0442521
0.044271
0.0443078
0.0443603
0.0444232
0.0444986
0.044579
0.0446709
0.0447647
0.0448706
0.0449772
0.0450972
0.0452168
0.0453495
0.0454826
0.0456245
0.0457639
0.0547939
0.05448
0.0543428
0.0540603
0.0538373
0.0537017
0.0534901
0.0533426
0.0531862
0.0530345
0.0528335
0.0526203
0.0524586
0.0523
0.0520395
0.0519502
0.0517343
0.0515427
0.0512775
0.051181
0.0509189
0.0506116
0.0503453
0.0503905
0.0499773
0.0499054
0.0495009
0.0494356
0.0492027
0.0490699
0.0489043
0.0487429
0.0485786
0.0484239
0.0483011
0.0482001
0.0481193
0.0480548
0.0480058
0.0479836
0.0479706
0.0479663
0.0479635
0.0479777
0.0480038
0.0480512
0.04811
0.0481882
0.0482745
0.0483776
0.0484855
0.0486093
0.0487348
0.0488764
0.0490179
0.049174
0.0493307
0.0494964
0.0496592
0.0601338
0.0602731
0.0601397
0.0600431
0.0596426
0.0595237
0.0591632
0.0589904
0.0587195
0.0584027
0.0581746
0.0579396
0.057653
0.0574556
0.0573079
0.0571256
0.0568978
0.0565644
0.0563603
0.0562152
0.0558378
0.0556075
0.0555
0.0551568
0.054888
0.0545296
0.0545264
0.0541136
0.053898
0.0536996
0.0534645
0.0532364
0.05307
0.0529264
0.0527799