/*--------------------------------*- C++ -*----------------------------------*\
| =========                 |                                                 |
| \\      /  F ield         | OpenFOAM: The Open Source CFD Toolbox           |
|  \\    /   O peration     | Version:  2312                                  |
|   \\  /    A nd           | Website:  www.openfoam.com                      |
|    \\/     M anipulation  |                                                 |
\*---------------------------------------------------------------------------*/
FoamFile
{
    version     2.0;
    format      ascii;
    arch        "LSB;label=32;scalar=64";
    class       volScalarField;
    location    "1400";
    object      p;
}
// * * * * * * * * * * * * * * * * * * * * * * * * * * * * * * * * * * * * * //

dimensions      [0 2 -2 0 0 0 0];

internalField   nonuniform List<scalar> 
76025
(
0.000389672
0.000383817
0.000377874
0.000371971
0.00036591
0.000359814
0.000353365
0.00034708
0.000340624
0.000334192
0.000327604
0.000320938
0.000314212
0.000307468
0.000300696
0.00029386
0.000287101
0.000280182
0.000273352
0.000266629
0.00025988
0.000252921
0.000246082
0.000239373
0.000232682
0.000226116
0.000219545
0.00021292
0.000206561
0.00020002
0.000193912
0.000187816
0.000181954
0.000176362
0.000170908
0.000165582
0.00016039
0.000155228
0.000150544
0.000146206
0.000142189
0.000138339
0.000134704
0.000131678
0.000129082
0.000126646
0.000124603
0.000123184
0.000122455
0.00012208
0.000122299
0.000123214
0.000124938
0.000127728
0.000131629
0.000136365
0.000142159
0.000149012
0.000157037
0.000166539
0.000177951
0.000190587
0.000205356
0.000221988
0.000240404
0.000260279
0.000281943
0.00030757
0.000334319
0.00039338
0.000387169
0.000380943
0.000374711
0.000368367
0.000361843
0.00035526
0.000348616
0.000341852
0.000335016
0.000328094
0.000321144
0.000314165
0.000307131
0.000300052
0.000292977
0.000285824
0.000278714
0.00027155
0.000264466
0.000257297
0.000250189
0.000243161
0.000236197
0.000229263
0.000222393
0.000215574
0.000208912
0.000202313
0.000195785
0.000189454
0.000183163
0.000177084
0.000171284
0.000165551
0.000160006
0.00015458
0.000149449
0.000144712
0.000140215
0.000136037
0.000132103
0.000128573
0.000125547
0.000122842
0.000120468
0.000118505
0.000117162
0.000116383
0.000116124
0.000116481
0.00011759
0.000119576
0.00012257
0.000126625
0.000131684
0.000137845
0.000145265
0.000154017
0.000164328
0.000176503
0.000190375
0.000206202
0.000224077
0.000244003
0.000266015
0.000289808
0.000316612
0.00034431
0.000397271
0.000390735
0.000384163
0.00037757
0.000370861
0.000364026
0.000357084
0.000350045
0.000342928
0.00033574
0.000328499
0.000321215
0.000313883
0.000306505
0.000299096
0.000291648
0.000284187
0.000276724
0.000269264
0.000261805
0.000254375
0.000247006
0.000239687
0.00023242
0.000225212
0.000218077
0.000211046
0.000204113
0.000197269
0.000190547
0.000183959
0.000177516
0.000171258
0.000165189
0.000159293
0.000153605
0.000148146
0.000142962
0.000138061
0.000133438
0.000129129
0.000125162
0.000121588
0.000118422
0.000115646
0.000113285
0.000111386
0.000110026
0.000109232
0.000109048
0.000109543
0.000110818
0.000112981
0.00011613
0.00012034
0.000125667
0.000132209
0.000140091
0.000149444
0.000160463
0.000173372
0.000188267
0.00020524
0.000224413
0.000245849
0.000269648
0.000295433
0.000324138
0.000353764
0.000400949
0.000394046
0.00038709
0.000380116
0.000373036
0.000365814
0.000358472
0.000351044
0.000343553
0.000336004
0.000328399
0.00032074
0.00031303
0.000305279
0.0002975
0.000289702
0.000281901
0.000274103
0.000266319
0.000258558
0.000250835
0.000243158
0.000235536
0.000227978
0.000220498
0.000213105
0.000205809
0.000198621
0.000191552
0.000184618
0.000177836
0.000171217
0.000164769
0.00015852
0.000152486
0.000146678
0.000141103
0.000135779
0.000130729
0.000125982
0.000121564
0.000117501
0.000113822
0.000110556
0.000107724
0.000105338
0.000103427
0.000102043
0.000101245
0.000101092
0.000101652
0.000103014
0.000105278
0.000108541
0.000112898
0.000118439
0.00012527
0.000133525
0.000143361
0.000154974
0.000168584
0.000184359
0.000202396
0.000222789
0.000245624
0.00027105
0.000298636
0.000329445
0.000361923
0.000404478
0.000397179
0.000389824
0.000382455
0.000374979
0.000367355
0.000359612
0.000351788
0.000343903
0.000335962
0.000327964
0.000319915
0.000311823
0.0003037
0.000295557
0.000287405
0.000279254
0.000271113
0.000262993
0.000254906
0.000246861
0.00023887
0.000230943
0.000223094
0.000215332
0.000207667
0.000200112
0.000192679
0.000185382
0.00017823
0.000171236
0.000164411
0.000157773
0.000151347
0.000145148
0.000139177
0.000133443
0.000127966
0.000122775
0.000117897
0.000113358
0.000109179
0.000105386
0.000102007
9.90726e-05
9.66054e-05
9.46299e-05
9.31937e-05
9.23554e-05
9.21796e-05
9.27396e-05
9.41213e-05
9.64201e-05
9.97363e-05
0.000104173
0.000109841
0.000116862
0.000125384
0.000135582
0.000147665
0.00016186
0.000178374
0.000197356
0.00021888
0.00024301
0.000269917
0.000299256
0.000332536
0.000368122
0.000407944
0.000400224
0.000392453
0.000384671
0.000376781
0.00036874
0.000360579
0.000352335
0.000344032
0.000335675
0.000327266
0.000318811
0.000310319
0.000301803
0.000293273
0.000284741
0.000276215
0.000267707
0.000259229
0.00025079
0.000242404
0.000234082
0.000225835
0.000217675
0.000209614
0.000201664
0.000193835
0.00018614
0.000178591
0.000171198
0.000163975
0.000156934
0.000150095
0.00014348
0.000137098
0.000130951
0.000125051
0.000119419
0.00011408
0.000109062
0.000104387
0.000100077
9.61536e-05
9.26448e-05
8.95802e-05
8.69937e-05
8.49166e-05
8.33902e-05
8.247e-05
8.22219e-05
8.27208e-05
8.40519e-05
8.63101e-05
8.95995e-05
9.40314e-05
9.97287e-05
0.000106829
0.000115494
0.000125919
0.000138328
0.000152961
0.000170052
0.000189799
0.000212306
0.000237608
0.000265871
0.000296983
0.000332949
0.000371032
0.000411286
0.000403116
0.000394899
0.000386676
0.000378345
0.000369862
0.000361255
0.000352568
0.000343823
0.000335027
0.000326184
0.000317299
0.000308383
0.000299446
0.000290503
0.000281564
0.000272641
0.000263745
0.000254888
0.000246082
0.00023734
0.000228673
0.000220093
0.000211612
0.000203242
0.000194995
0.000186882
0.000178916
0.000171108
0.000163471
0.000156016
0.000148757
0.000141714
0.000134905
0.000128334
0.000122005
0.000115931
0.000110132
0.000104633
9.94593e-05
9.46317e-05
9.01705e-05
8.60969e-05
8.24361e-05
7.92168e-05
7.64754e-05
7.42525e-05
7.2589e-05
7.15364e-05
7.11586e-05
7.15295e-05
7.27336e-05
7.48671e-05
7.80374e-05
8.23624e-05
8.79738e-05
9.50244e-05
0.000103693
0.000114191
0.000126756
0.00014164
0.000159105
0.000179387
0.000202648
0.000228934
0.000258426
0.000291455
0.000330121
0.000370804
0.000414446
0.000405793
0.0003971
0.000388403
0.000379599
0.000370642
0.000361562
0.000352403
0.000343192
0.000333935
0.000324636
0.000315298
0.000305935
0.000296558
0.000287181
0.000277818
0.00026848
0.00025918
0.00024993
0.000240743
0.000231631
0.000222607
0.000213683
0.00020487
0.000196182
0.00018763
0.000179227
0.000170982
0.00016291
0.000155022
0.000147329
0.000139843
0.000132587
0.000125574
0.000118804
0.000112282
0.000106021
0.000100042
9.43701e-05
8.90267e-05
8.40314e-05
7.94021e-05
7.51582e-05
7.1323e-05
6.79252e-05
6.49986e-05
6.25872e-05
6.07373e-05
5.94978e-05
5.89272e-05
5.90973e-05
6.00916e-05
6.20067e-05
6.49526e-05
6.90539e-05
7.44504e-05
8.13074e-05
8.98178e-05
0.000100205
0.000112717
0.000127624
0.000145219
0.000165767
0.000189476
0.000216468
0.000247076
0.000282072
0.000323053
0.000367103
0.000417386
0.000408224
0.000399023
0.000389822
0.000380514
0.000371051
0.000361467
0.000351808
0.000342102
0.000332357
0.000322576
0.000312763
0.000302931
0.000293093
0.000283265
0.000273459
0.000263689
0.000253968
0.000244309
0.000234724
0.000225228
0.000215833
0.000206551
0.000197395
0.000188377
0.00017951
0.000170805
0.000162274
0.000153929
0.000145781
0.00013784
0.000130122
0.000122647
0.000115421
0.000108444
0.00010172
9.5265e-05
8.90991e-05
8.32445e-05
7.77208e-05
7.25446e-05
6.77314e-05
6.32985e-05
5.92677e-05
5.5666e-05
5.25259e-05
4.98884e-05
4.78021e-05
4.63168e-05
4.54856e-05
4.53763e-05
4.60706e-05
4.76649e-05
5.02705e-05
5.40164e-05
5.90514e-05
6.5547e-05
7.37057e-05
8.3759e-05
9.59668e-05
0.000110626
0.00012806
0.000148561
0.000172382
0.000199783
0.000231415
0.000268126
0.000310357
0.000354842
0.000420055
0.000410352
0.000400614
0.000390879
0.000381037
0.000371038
0.000360918
0.000350727
0.000340496
0.000330232
0.00031994
0.000309625
0.000299299
0.000288976
0.000278674
0.000268404
0.000258183
0.000248022
0.000237936
0.000227939
0.000218044
0.000208264
0.000198612
0.000189102
0.000179745
0.000170554
0.00016154
0.000152716
0.000144092
0.000135679
0.000127488
0.000119535
0.000111836
0.000104393
9.72022e-05
9.02718e-05
8.36168e-05
7.72567e-05
7.12112e-05
6.54966e-05
6.01263e-05
5.51133e-05
5.04727e-05
4.62245e-05
4.23938e-05
3.90112e-05
3.61127e-05
3.37426e-05
3.19512e-05
3.07898e-05
3.03201e-05
3.06201e-05
3.17842e-05
3.39228e-05
3.71664e-05
4.16679e-05
4.76039e-05
5.51804e-05
6.46349e-05
7.62451e-05
9.03372e-05
0.000107257
0.000127327
0.000150908
0.000178487
0.000210959
0.000248824
0.000291707
0.000336419
0.000422378
0.000412102
0.000401794
0.000391493
0.000381085
0.000370518
0.000359831
0.000349077
0.000338288
0.000327475
0.000316642
0.000305796
0.000294948
0.000284116
0.000273314
0.000262559
0.000251865
0.000241247
0.000230717
0.000220292
0.000209984
0.000199808
0.000189777
0.000179904
0.000170201
0.00016068
0.000151353
0.000142232
0.000133327
0.000124647
0.000116204
0.000108015
0.00010009
9.24242e-05
8.50168e-05
7.78761e-05
7.10171e-05
6.44578e-05
5.82144e-05
5.22997e-05
4.67237e-05
4.14964e-05
3.66307e-05
3.21441e-05
2.80589e-05
2.44023e-05
2.12064e-05
1.8508e-05
1.63514e-05
1.47877e-05
1.38736e-05
1.36804e-05
1.4297e-05
1.58306e-05
1.84094e-05
2.21844e-05
2.7332e-05
3.40575e-05
4.26058e-05
5.32741e-05
6.64106e-05
8.2382e-05
0.000101588
0.00012457
0.000151983
0.000184698
0.000222656
0.000265592
0.000309048
0.000424275
0.000413388
0.000402474
0.000391573
0.000380564
0.000369396
0.000358108
0.000346758
0.00033538
0.000323987
0.000312583
0.000301177
0.00028978
0.000278411
0.000267086
0.000255822
0.000244635
0.000233539
0.000222549
0.000211681
0.000200948
0.000190365
0.000179945
0.000169702
0.000159647
0.000149793
0.000140151
0.000130731
0.000121543
0.000112598
0.000103904
9.54797e-05
8.73271e-05
7.94381e-05
7.18133e-05
6.44617e-05
5.73978e-05
5.06369e-05
4.41914e-05
3.80699e-05
3.22789e-05
2.68252e-05
2.17189e-05
1.69744e-05
1.26102e-05
8.64895e-06
5.11685e-06
2.04449e-06
-5.32996e-07
-2.5709e-06
-4.01669e-06
-4.80676e-06
-4.8609e-06
-4.0794e-06
-2.34199e-06
4.92978e-07
4.59332e-06
1.0161e-05
1.74478e-05
2.67662e-05
3.84824e-05
5.30201e-05
7.09158e-05
9.27967e-05
0.000119202
0.000150795
0.00018712
0.000228746
0.000271663
0.000425651
0.000414114
0.000402556
0.000391015
0.000379369
0.000367563
0.000355639
0.000343658
0.000331657
0.000319652
0.000307648
0.000295651
0.000283678
0.000271745
0.000259871
0.000248075
0.000236373
0.000224781
0.000213313
0.000201987
0.000190816
0.000179816
0.000168999
0.00015838
0.000147969
0.000137779
0.00012782
0.000118103
0.000108636
9.94268e-05
9.04885e-05
8.18325e-05
7.34543e-05
6.53448e-05
5.75061e-05
4.99475e-05
4.26817e-05
3.57206e-05
2.90723e-05
2.27409e-05
1.67291e-05
1.10405e-05
5.68178e-06
6.63433e-07
-4.00077e-06
-8.29413e-06
-1.21973e-05
-1.56878e-05
-1.87394e-05
-2.13182e-05
-2.33803e-05
-2.48709e-05
-2.57211e-05
-2.58453e-05
-2.51397e-05
-2.34809e-05
-2.07162e-05
-1.66495e-05
-1.10229e-05
-3.51682e-06
6.27209e-06
1.88663e-05
3.48302e-05
5.4549e-05
7.8405e-05
0.000106973
0.000140088
0.000177718
0.000212793
0.000426397
0.000414166
0.000401922
0.000389702
0.000377378
0.000364895
0.000352297
0.000339647
0.000326989
0.000314337
0.000301699
0.000289082
0.000276502
0.000263978
0.000251531
0.00023918
0.000226942
0.000214834
0.000202872
0.000191074
0.000179454
0.000168027
0.000156807
0.000145807
0.000135039
0.000124514
0.000114241
0.00010423
9.44895e-05
8.50258e-05
7.58514e-05
6.69709e-05
5.8373e-05
5.00502e-05
4.20057e-05
3.42482e-05
2.67878e-05
1.96322e-05
1.27845e-05
6.24451e-06
1.09849e-08
-5.91609e-06
-1.15339e-05
-1.68365e-05
-2.18161e-05
-2.64628e-05
-3.07657e-05
-3.47116e-05
-3.82845e-05
-4.1463e-05
-4.42164e-05
-4.65037e-05
-4.82741e-05
-4.94637e-05
-4.99925e-05
-4.97616e-05
-4.86375e-05
-4.64343e-05
-4.28955e-05
-3.76883e-05
-3.03652e-05
-2.04446e-05
-7.70197e-06
7.98167e-06
2.74311e-05
5.14863e-05
8.06159e-05
0.000113661
0.000146258
0.000426382
0.000413412
0.000400435
0.000387492
0.000374449
0.000361246
0.000347932
0.000334574
0.000321219
0.000307884
0.000294577
0.000281307
0.000268091
0.000254948
0.000241901
0.00022897
0.000216175
0.000203534
0.000191063
0.000178779
0.0001667
0.00015484
0.000143212
0.00013183
0.000120706
0.000109849
9.9269e-05
8.89735e-05
7.89687e-05
6.92628e-05
5.98649e-05
5.07707e-05
4.19651e-05
3.34431e-05
2.52081e-05
1.72669e-05
9.62606e-06
2.28809e-06
-4.74875e-06
-1.14892e-05
-1.79386e-05
-2.41007e-05
-2.99768e-05
-3.55666e-05
-4.08687e-05
-4.58814e-05
-5.06031e-05
-5.50316e-05
-5.91624e-05
-6.29878e-05
-6.64962e-05
-6.96685e-05
-7.24797e-05
-7.48914e-05
-7.68526e-05
-7.82976e-05
-7.91224e-05
-7.91475e-05
-7.81313e-05
-7.57586e-05
-7.17032e-05
-6.59213e-05
-5.84945e-05
-4.86688e-05
-3.49836e-05
-1.64601e-05
6.88727e-06
3.39506e-05
6.48243e-05
0.000425454
0.000411693
0.000397937
0.000384224
0.000370415
0.000356448
0.000342374
0.000328266
0.000314173
0.000300117
0.000286105
0.000272148
0.000258264
0.000244473
0.000230801
0.000217268
0.000203897
0.000190705
0.000177712
0.000164934
0.000152389
0.000140092
0.000128058
0.000116298
0.000104824
9.36457e-05
8.27707e-05
7.22054e-05
6.19546e-05
5.2026e-05
4.24224e-05
3.31304e-05
2.41349e-05
1.54331e-05
7.02745e-06
-1.07791e-06
-8.8811e-06
-1.63848e-05
-2.35957e-05
-3.05232e-05
-3.71762e-05
-4.35626e-05
-4.96885e-05
-5.55594e-05
-6.11814e-05
-6.65617e-05
-7.17082e-05
-7.6631e-05
-8.13397e-05
-8.58451e-05
-9.01619e-05
-9.42954e-05
-9.82464e-05
-0.000102007
-0.000105576
-0.000108926
-0.000111984
-0.000114592
-0.000116606
-0.00011792
-0.000118729
-0.000119185
-0.000118573
-0.00011524
-0.000107877
-9.5721e-05
-7.90585e-05
-5.78093e-05
-3.29652e-05
0.000423421
0.000408816
0.000394227
0.000379693
0.000365068
0.000350288
0.000335405
0.0003205
0.000305625
0.000290805
0.000276049
0.000261368
0.000246781
0.000232312
0.000217986
0.000203829
0.00018986
0.000176102
0.000162573
0.000149292
0.000136276
0.000123542
0.000111104
9.89732e-05
8.71607e-05
7.56748e-05
6.45222e-05
5.37071e-05
4.32342e-05
3.31089e-05
2.33248e-05
1.3862e-05
4.70815e-06
-4.13973e-06
-1.26814e-05
-2.09172e-05
-2.88507e-05
-3.64902e-05
-4.38477e-05
-5.09364e-05
-5.77692e-05
-6.4358e-05
-7.07136e-05
-7.68478e-05
-8.27733e-05
-8.85062e-05
-9.40648e-05
-9.94728e-05
-0.000104762
-0.000109967
-0.000115122
-0.000120248
-0.000125379
-0.00013057
-0.000135879
-0.000141309
-0.000146864
-0.000152523
-0.00015844
-0.000165059
-0.000172519
-0.000180052
-0.000186117
-0.000189227
-0.000188139
-0.000181963
-0.000170268
-0.000152779
-0.000130364
0.000420078
0.000404571
0.000389094
0.000373687
0.000358195
0.000342551
0.000326812
0.000311062
0.000295361
0.000279735
0.000264196
0.000248755
0.000233434
0.000218258
0.000203255
0.000188451
0.00017387
0.000159533
0.000145462
0.000131677
0.000118195
0.000105032
9.22036e-05
7.97209e-05
6.75935e-05
5.58284e-05
4.44303e-05
3.34011e-05
2.27438e-05
1.24569e-05
2.52306e-06
-7.07881e-06
-1.63584e-05
-2.53197e-05
-3.39656e-05
-4.23013e-05
-5.03361e-05
-5.80837e-05
-6.55604e-05
-7.27832e-05
-7.97684e-05
-8.65317e-05
-9.30883e-05
-9.94557e-05
-0.000105653
-0.000111704
-0.000117647
-0.000123525
-0.000129384
-0.000135266
-0.00014121
-0.000147283
-0.000153593
-0.000160254
-0.000167371
-0.000175047
-0.00018344
-0.000192984
-0.000204232
-0.000217265
-0.000231265
-0.000245008
-0.000257032
-0.000265697
-0.000269365
-0.000267112
-0.000258475
-0.000243615
-0.000223684
0.000415113
0.000398636
0.000382206
0.000365861
0.00034944
0.000332872
0.000316217
0.000299566
0.000282984
0.0002665
0.00025013
0.000233886
0.00021779
0.000201871
0.000186159
0.000170683
0.000155467
0.000140537
0.000125913
0.000111617
9.76688e-05
8.40838e-05
7.08767e-05
5.80587e-05
4.56381e-05
3.36204e-05
2.20083e-05
1.08035e-05
6.84844e-09
-1.03934e-05
-2.04226e-05
-3.01e-05
-3.94362e-05
-4.84396e-05
-5.71189e-05
-6.54862e-05
-7.35577e-05
-8.1353e-05
-8.88926e-05
-9.61964e-05
-0.000103283
-0.00011017
-0.000116876
-0.000123423
-0.000129845
-0.000136184
-0.000142483
-0.000148784
-0.000155128
-0.000161576
-0.000168219
-0.000175194
-0.000182666
-0.00019078
-0.000199715
-0.000209863
-0.000221828
-0.000236119
-0.000252737
-0.000271043
-0.000290111
-0.000308598
-0.000324631
-0.000336424
-0.00034276
-0.000342858
-0.000336507
-0.000323985
-0.000306453
0.000408323
0.000390816
0.000373375
0.000356038
0.000338634
0.00032109
0.000303467
0.000285865
0.000268355
0.000250972
0.000233731
0.00021665
0.00019975
0.000183064
0.000166625
0.000150463
0.000134608
0.000119085
0.000103918
8.91293e-05
7.47391e-05
6.07648e-05
4.72206e-05
3.41169e-05
2.14606e-05
9.25457e-06
-2.5034e-06
-1.38158e-05
-2.46918e-05
-3.51554e-05
-4.52335e-05
-5.49429e-05
-6.42959e-05
-7.3305e-05
-8.19848e-05
-9.03537e-05
-9.84337e-05
-0.000106248
-0.00011382
-0.00012117
-0.000128317
-0.000135282
-0.000142097
-0.000148796
-0.000155418
-0.000161991
-0.000168549
-0.000175139
-0.000181839
-0.000188773
-0.000196082
-0.000203906
-0.000212415
-0.00022191
-0.000232889
-0.00024592
-0.000261387
-0.000279275
-0.000299386
-0.000321
-0.000342767
-0.000362937
-0.000380179
-0.000393397
-0.000401478
-0.00040356
-0.000399584
-0.000389745
-0.00037536
0.000399018
0.000380389
0.000361844
0.000343427
0.000324957
0.000306355
0.000287685
0.000269056
0.000250546
0.000232193
0.000214019
0.00019604
0.000178282
0.000160779
0.000143568
0.000126684
0.000110158
9.40183e-05
7.82909e-05
6.29999e-05
4.81666e-05
3.38091e-05
1.99414e-05
6.57331e-06
-6.28939e-06
-1.86443e-05
-3.04915e-05
-4.18365e-05
-5.27002e-05
-6.31162e-05
-7.31119e-05
-8.27088e-05
-9.19278e-05
-0.000100791
-0.000109325
-0.000117554
-0.000125509
-0.000133216
-0.000140697
-0.000147979
-0.000155089
-0.000162059
-0.000168918
-0.000175682
-0.000182364
-0.000188996
-0.000195643
-0.000202402
-0.000209387
-0.000216733
-0.000224565
-0.000233087
-0.000242649
-0.000253653
-0.000266444
-0.00028125
-0.000298314
-0.000317686
-0.000338886
-0.000360591
-0.000381503
-0.000401009
-0.000418494
-0.000432849
-0.000442782
-0.000447314
-0.000446213
-0.000439196
-0.000428127
0.000387426
0.000367613
0.000347918
0.000328375
0.00030879
0.00028908
0.000269317
0.000249616
0.000230063
0.000210706
0.000191568
0.000172669
0.000154039
0.000135714
0.000117735
0.000100142
8.29685e-05
6.62474e-05
5.00071e-05
3.42742e-05
1.90719e-05
4.4195e-06
-9.66876e-06
-2.3185e-05
-3.61289e-05
-4.8508e-05
-6.03317e-05
-7.16198e-05
-8.24054e-05
-9.27218e-05
-0.000102595
-0.000112052
-0.00012112
-0.00012983
-0.000138216
-0.000146307
-0.000154134
-0.00016173
-0.000169126
-0.000176351
-0.000183423
-0.000190349
-0.000197134
-0.000203798
-0.000210374
-0.000216922
-0.000223538
-0.000230328
-0.000237416
-0.000244985
-0.00025325
-0.000262413
-0.000272645
-0.000284088
-0.000296971
-0.000311612
-0.000328183
-0.000346293
-0.000364987
-0.000383777
-0.000402707
-0.000421683
-0.000439808
-0.000455774
-0.000468148
-0.000475669
-0.000477313
-0.000472597
-0.000463926
0.000371455
0.000350334
0.000329336
0.00030853
0.000287709
0.000266773
0.000245797
0.000224906
0.000204197
0.000183724
0.000163514
0.000143592
0.00012399
0.000104751
8.59202e-05
6.75412e-05
4.96538e-05
3.22937e-05
1.54929e-05
-7.19515e-07
-1.63182e-05
-3.12819e-05
-4.55943e-05
-5.92436e-05
-7.22227e-05
-8.4533e-05
-9.61905e-05
-0.000107231
-0.000117698
-0.000127632
-0.00013707
-0.000146053
-0.000154626
-0.000162842
-0.000170758
-0.000178426
-0.000185892
-0.000193191
-0.000200339
-0.000207341
-0.000214188
-0.000220878
-0.000227419
-0.000233834
-0.000240158
-0.000246454
-0.000252829
-0.000259429
-0.000266406
-0.000273887
-0.00028196
-0.000290653
-0.000299995
-0.00031014
-0.000321353
-0.000333709
-0.000346792
-0.000360413
-0.000374918
-0.000390972
-0.000408943
-0.000428399
-0.000448113
-0.00046645
-0.000481496
-0.000491363
-0.000494662
-0.00049121
-0.000483881
0.000353442
0.00033095
0.000308663
0.000286586
0.000264501
0.000242316
0.000220111
0.000198023
0.000176157
0.000154576
0.000133312
0.000112395
9.18605e-05
7.17568e-05
5.21355e-05
3.30471e-05
1.4538e-05
-3.35e-06
-2.05786e-05
-3.71137e-05
-5.29274e-05
-6.80002e-05
-8.23234e-05
-9.59002e-05
-0.00010874
-0.000120856
-0.000132278
-0.000143048
-0.00015321
-0.000162807
-0.000171881
-0.000180481
-0.000188675
-0.000196545
-0.000204162
-0.000211585
-0.000218861
-0.000226022
-0.000233091
-0.000240081
-0.000246991
-0.000253796
-0.000260447
-0.000266879
-0.000273075
-0.000279091
-0.000285076
-0.000291197
-0.000297542
-0.000304057
-0.000310634
-0.000317295
-0.000324157
-0.000331246
-0.000338356
-0.00034549
-0.000353006
-0.000361726
-0.000372934
-0.000387721
-0.000406213
-0.000427308
-0.000449165
-0.000469601
-0.000486247
-0.000496851
-0.000500034
-0.000496096
-0.000488484
0.000326719
0.000302665
0.000278758
0.000255145
0.000231574
0.000207912
0.000184242
0.000160716
0.000137458
0.000114539
9.20011e-05
6.98771e-05
4.82093e-05
2.70509e-05
6.46031e-06
-1.35059e-05
-3.27971e-05
-5.1367e-05
-6.91677e-05
-8.61484e-05
-0.000102261
-0.000117464
-0.000131728
-0.000145039
-0.000157411
-0.000168877
-0.000179485
-0.000189294
-0.000198384
-0.000206845
-0.000214762
-0.000222221
-0.000229317
-0.000236134
-0.000242751
-0.000249244
-0.000255699
-0.000262195
-0.000268805
-0.000275571
-0.000282495
-0.000289509
-0.000296463
-0.000303125
-0.000309268
-0.000314824
-0.000319971
-0.000325074
-0.000330268
-0.000335162
-0.0003392
-0.000342426
-0.00034516
-0.000347209
-0.000348478
-0.000349732
-0.000352249
-0.000357563
-0.000367374
-0.000382453
-0.000402034
-0.000424343
-0.000447165
-0.000468042
-0.000484389
-0.000493769
-0.000494939
-0.000488574
-0.000478626
0.000300814
0.000275218
0.000249985
0.000225029
0.000200087
0.000175059
0.00015004
0.000125195
0.000100658
7.65172e-05
5.28244e-05
2.96218e-05
6.96015e-06
-1.50971e-05
-3.64795e-05
-5.71162e-05
-7.69479e-05
-9.59384e-05
-0.000114063
-0.000131291
-0.000147585
-0.000162898
-0.000177187
-0.000190419
-0.000202591
-0.000213727
-0.000223872
-0.000233089
-0.000241457
-0.000249071
-0.000256047
-0.000262518
-0.000268612
-0.000274444
-0.00028012
-0.000285724
-0.000291329
-0.000296997
-0.000302802
-0.000308835
-0.000315201
-0.000321986
-0.000329127
-0.000336333
-0.000343048
-0.000348607
-0.000352627
-0.000355632
-0.000358601
-0.000361387
-0.000362718
-0.000362166
-0.000360514
-0.00035806
-0.000355126
-0.000352827
-0.000352824
-0.00035675
-0.000365827
-0.000380343
-0.000399449
-0.000421273
-0.000443409
-0.000463203
-0.000477728
-0.00048431
-0.000481699
-0.000470779
-0.000455653
0.000254939
0.000227305
0.000199802
0.000172785
0.00014594
0.00011906
9.22148e-05
6.55784e-05
3.93044e-05
1.3494e-05
-1.1789e-05
-3.64917e-05
-6.05517e-05
-8.38904e-05
-0.000106416
-0.000128028
-0.000148621
-0.000168072
-0.000186275
-0.000203207
-0.00021889
-0.000233344
-0.00024658
-0.000258616
-0.000269483
-0.000279213
-0.000287849
-0.000295449
-0.000302076
-0.000307825
-0.000312825
-0.000317234
-0.000321223
-0.000324969
-0.00032863
-0.000332339
-0.000336194
-0.000340259
-0.000344555
-0.000349066
-0.000353771
-0.000358635
-0.000363528
-0.000368245
-0.000372472
-0.000375612
-0.000376959
-0.000376712
-0.000376297
-0.000376183
-0.000375278
-0.00037291
-0.000369403
-0.000365391
-0.000361554
-0.000358737
-0.000358014
-0.000360447
-0.000367153
-0.000379236
-0.000396718
-0.000417766
-0.00043915
-0.000457209
-0.000468476
-0.000470395
-0.000461974
-0.000444728
-0.000423452
0.000224033
0.000195064
0.000166674
0.000138361
0.000109952
8.15092e-05
5.31822e-05
2.51345e-05
-2.49093e-06
-2.95928e-05
-5.61063e-05
-8.1978e-05
-0.000107148
-0.000131554
-0.000155148
-0.000177932
-0.000199934
-0.000221045
-0.000240952
-0.000259314
-0.000275936
-0.000290772
-0.000303852
-0.000315219
-0.000324916
-0.000332997
-0.000339542
-0.00034467
-0.000348549
-0.000351404
-0.000353525
-0.000355255
-0.000356969
-0.000359022
-0.000361691
-0.000365128
-0.000369297
-0.000373943
-0.00037863
-0.000382866
-0.000386257
-0.000388491
-0.000389138
-0.000388181
-0.000386427
-0.000384951
-0.000384093
-0.000383453
-0.000382614
-0.000381324
-0.000379509
-0.000377139
-0.000374219
-0.000370926
-0.000367602
-0.000364821
-0.000363404
-0.000364196
-0.000368152
-0.000376797
-0.00039162
-0.000411721
-0.000432825
-0.000449344
-0.000456596
-0.000451998
-0.000435502
-0.000410171
-0.000381357
0.0001452
0.000113625
8.2237e-05
5.13488e-05
2.05922e-05
-1.02472e-05
-4.10083e-05
-7.14025e-05
-0.000101217
-0.000130338
-0.000158695
-0.000186204
-0.000212747
-0.00023817
-0.000262287
-0.000284882
-0.000305749
-0.000324851
-0.000342328
-0.000358267
-0.000372568
-0.000385035
-0.000395506
-0.000403885
-0.000410154
-0.00041436
-0.000416601
-0.000417023
-0.000415814
-0.00041321
-0.00040951
-0.000405079
-0.000400336
-0.000395732
-0.000391717
-0.000388685
-0.0003869
-0.000386436
-0.000387161
-0.000388763
-0.000390803
-0.000392795
-0.000394156
-0.000394428
-0.000393539
-0.000391726
-0.000389344
-0.000386744
-0.000384174
-0.000381787
-0.000379523
-0.000377172
-0.000374616
-0.000371976
-0.000369532
-0.000367554
-0.000366314
-0.000366229
-0.000368029
-0.000373547
-0.000385786
-0.000405245
-0.000427101
-0.000443929
-0.000449308
-0.000439801
-0.000416175
-0.000384145
-0.000349959
0.000117865
0.000126065
0.000134772
0.00014393
0.000153655
0.000164062
0.000175244
0.000186959
0.000199147
0.000211982
0.000225556
0.000239845
0.000254456
0.000270218
0.000285602
0.000301827
0.000317776
0.000334475
0.000351059
0.000367353
0.00038453
0.000400504
0.000416106
0.000430838
0.000444907
0.000458233
0.000470079
0.000480768
0.000490678
0.000498802
0.000505224
0.000510282
0.000514189
0.000516948
0.000517833
0.000517532
0.000516259
0.000513642
0.000510018
0.000505832
0.000500579
0.000494969
0.00048924
0.000483358
0.000476512
0.000470035
0.000463128
0.00045642
0.000449618
0.000443007
0.000436633
0.000430436
0.000424658
0.000419037
0.000413716
0.000408347
0.00040345
0.00039879
0.00039451
0.000112994
0.000121488
0.000130558
0.000140202
0.000150457
0.000161347
0.000172919
0.000185141
0.000198014
0.000211541
0.000225707
0.00024054
0.000255932
0.000271918
0.00028835
0.000305098
0.000322247
0.00033952
0.000356994
0.000374132
0.00039144
0.00040838
0.000424617
0.000440073
0.000454662
0.000468409
0.000480926
0.000492003
0.000502059
0.000510517
0.000517113
0.00052238
0.000526261
0.000528753
0.000529651
0.00052918
0.000527599
0.000524885
0.000521046
0.000516376
0.000511026
0.000505172
0.000498871
0.000492084
0.000485096
0.000477993
0.00047085
0.00046376
0.00045667
0.000449725
0.000443004
0.000436498
0.000430186
0.00042421
0.000418445
0.000413032
0.000407957
0.000403153
0.000398624
0.000107724
0.0001166
0.000126049
0.000136125
0.00014685
0.000158249
0.000170326
0.000183087
0.00019655
0.000210716
0.000225559
0.000241042
0.000257136
0.000273796
0.000290951
0.000308592
0.000326563
0.000344729
0.000362936
0.000380998
0.000398934
0.000416554
0.000433554
0.000449735
0.000465029
0.000479308
0.000492318
0.000503939
0.000514285
0.000522958
0.000529918
0.000535332
0.000539164
0.000541497
0.000542261
0.000541638
0.000539773
0.000536799
0.000532734
0.000527826
0.000522161
0.000515828
0.000508983
0.000501748
0.00049431
0.000486771
0.000479167
0.000471594
0.000464115
0.000456798
0.000449699
0.000442817
0.000436179
0.000429816
0.000423786
0.000418084
0.000412687
0.00040759
0.000402806
0.000102111
0.000111379
0.00012125
0.000131771
0.00014297
0.000154872
0.00016749
0.000180832
0.000194906
0.000209713
0.000225237
0.000241445
0.000258307
0.000275759
0.000293726
0.000312166
0.00033093
0.000349932
0.00036898
0.000387961
0.000406741
0.000425109
0.000442867
0.000459804
0.000475815
0.000490705
0.000504255
0.000516386
0.000527084
0.000536037
0.00054329
0.000548847
0.000552705
0.000554988
0.000555635
0.000554839
0.000552719
0.000549417
0.00054501
0.00053971
0.000533601
0.000526797
0.000519493
0.000511836
0.000503911
0.000495866
0.000487762
0.000479695
0.00047175
0.00046398
0.000456432
0.000449136
0.000442126
0.00043542
0.000429038
0.000422979
0.000417243
0.000411835
0.00040678
9.59009e-05
0.000105592
0.00011592
0.000126931
0.000138651
0.000151105
0.000164309
0.000178276
0.00019301
0.000208506
0.000224751
0.000241722
0.000259379
0.000277662
0.000296491
0.00031578
0.000335416
0.000355293
0.000375247
0.000395137
0.000414796
0.000434
0.000452562
0.000470285
0.000487014
0.000502549
0.000516684
0.000529313
0.000540393
0.000549666
0.000557169
0.000562872
0.000566788
0.000569036
0.000569578
0.000568592
0.000566205
0.000562555
0.000557752
0.000551984
0.000545384
0.000538099
0.000530302
0.000522128
0.000513684
0.000505104
0.000496487
0.00048792
0.000479482
0.000471229
0.000463212
0.00045547
0.000448036
0.00044093
0.000434166
0.000427752
0.000421693
0.000415984
0.000410643
8.89852e-05
9.91231e-05
0.000109935
0.000121466
0.000133744
0.000146792
0.000160628
0.000175264
0.000190705
0.000206946
0.000223972
0.000241757
0.000260261
0.000279423
0.000299164
0.000319385
0.000339975
0.000360806
0.00038172
0.000402555
0.000423131
0.000443233
0.000462658
0.000481202
0.000498681
0.000514894
0.000529643
0.000542795
0.000554282
0.000563894
0.000571646
0.000577492
0.000581455
0.00058365
0.000584069
0.000582874
0.000580196
0.00057618
0.00057096
0.000564715
0.000557609
0.000549803
0.00054146
0.000532723
0.000523724
0.000514592
0.000505433
0.000496336
0.000487377
0.000478621
0.000470119
0.000461913
0.000454036
0.000446512
0.000439354
0.000432571
0.000426164
0.000420126
0.000414474
8.13396e-05
9.1948e-05
0.000103266
0.000115341
0.000128201
0.000141873
0.000156373
0.000171717
0.000187909
0.000204945
0.000222808
0.000241469
0.000260882
0.000280986
0.000301698
0.000322918
0.000344527
0.000366384
0.000388326
0.000410175
0.000431735
0.000452796
0.000473142
0.000492558
0.00051084
0.000527778
0.000543177