/*--------------------------------*- C++ -*----------------------------------*\
| =========                 |                                                 |
| \\      /  F ield         | OpenFOAM: The Open Source CFD Toolbox           |
|  \\    /   O peration     | Version:  2312                                  |
|   \\  /    A nd           | Website:  www.openfoam.com                      |
|    \\/     M anipulation  |                                                 |
\*---------------------------------------------------------------------------*/
FoamFile
{
    version     2.0;
    format      ascii;
    arch        "LSB;label=32;scalar=64";
    class       surfaceScalarField;
    location    "1400";
    object      phi;
}
// * * * * * * * * * * * * * * * * * * * * * * * * * * * * * * * * * * * * * //

dimensions      [0 3 -1 0 0 0 0];

oriented        oriented;

internalField   nonuniform List<scalar> 
116611
(
0.00101149
0.000424636
-0.000995508
-0.000440619
0.00102738
0.000420428
-0.000436316
0.00104314
0.000415888
-0.000431645
0.00105875
0.000410984
-0.000426603
0.00107416
0.000405733
-0.000421136
0.0010895
0.000400026
-0.00041537
0.00110448
0.000393954
-0.000408929
0.00111941
0.000387471
-0.000402406
0.00113398
0.000380512
-0.000395084
0.00114838
0.000373132
-0.000387531
0.00116249
0.000365269
-0.000379375
0.00117638
0.000356936
-0.000370825
0.00118998
0.000348112
-0.000361712
0.0012033
0.000338774
-0.000352101
0.00121634
0.000328915
-0.000341953
0.00122901
0.000318585
-0.000331254
0.00124147
0.000307625
-0.000320087
0.0012535
0.000296193
-0.000308226
0.00126518
0.000284065
-0.000295739
0.00127646
0.000271465
-0.00028275
0.00128746
0.000258133
-0.000269128
0.00129791
0.000244219
-0.000254675
0.00130795
0.000229665
-0.000239704
0.00131761
0.000214499
-0.000224153
0.00132674
0.000198642
-0.000207776
0.00133545
0.000182116
-0.000190826
0.00134358
0.000164805
-0.000172939
0.0013511
0.000146881
-0.000154398
0.00135828
0.00012818
-0.000135359
0.00136468
0.000108667
-0.000115064
0.00137039
8.84598e-05
-9.41726e-05
0.00137533
6.73696e-05
-7.23139e-05
0.00137956
4.54789e-05
-4.97e-05
0.00138318
2.29734e-05
-2.65937e-05
0.00138605
-4.911e-07
-2.38769e-06
0.0013882
-2.4723e-05
2.25751e-05
0.00138964
-4.99621e-05
4.85266e-05
0.00138983
-7.61705e-05
7.59752e-05
0.00138919
-0.000103099
0.000103743
0.00138763
-0.000130957
0.000132512
0.00138524
-0.000159645
0.000162038
0.00138179
-0.000189359
0.000192814
0.00137691
-0.000220043
0.000224923
0.00137116
-0.000251388
0.000257133
0.00136435
-0.000283675
0.000290492
0.00135634
-0.000316849
0.000324857
0.00134679
-0.000351049
0.000360598
0.0013361
-0.000385896
0.000396583
0.00132425
-0.000421536
0.000433386
0.00131101
-0.000458053
0.000471292
0.00129635
-0.000495425
0.000510087
0.00128006
-0.000533613
0.000549907
0.00126197
-0.000572518
0.000590602
0.00124214
-0.000611973
0.000631807
0.0012206
-0.000651865
0.000673403
0.00119729
-0.000692159
0.000715465
0.00117185
-0.000732956
0.000758396
0.00114444
-0.00077398
0.000801392
0.00111465
-0.000815385
0.000845176
0.00108192
-0.000857077
0.000889812
0.00104638
-0.000898399
0.000933938
0.00100787
-0.000939115
0.000977624
0.000966734
-0.000979207
0.00102034
0.000922017
-0.00101892
0.00106364
0.000873591
-0.00105781
0.00110624
0.000821435
-0.00109409
0.00114625
0.000761162
-0.00112564
0.00118591
0.000694028
-0.00115158
0.00121871
-0.00117706
0.000633401
0.00123769
0.000995242
0.0004087
-0.000979306
0.00101104
0.000404635
0.0010267
0.000400221
0.00104222
0.000395463
0.00105763
0.000390329
0.00107282
0.00038483
0.00108783
0.000378945
0.00110266
0.000372648
0.00111723
0.000365935
0.00113158
0.000358779
0.00114568
0.000351177
0.0011595
0.000343114
0.00117304
0.000334567
0.00118629
0.000325524
0.00119922
0.000315992
0.00121187
0.00030593
0.00122415
0.000295344
0.00123614
0.000284207
0.00124769
0.000272513
0.00125893
0.000260225
0.00126972
0.000247342
0.00128008
0.000233859
0.00128999
0.000219756
0.00129947
0.000205025
0.00130846
0.000189644
0.001317
0.000173582
0.00132496
0.000156848
0.00133241
0.000139429
0.0013393
0.000121283
0.00134555
0.000102421
0.0013512
8.28086e-05
0.00135615
6.24232e-05
0.00136035
4.12806e-05
0.00136392
1.94022e-05
0.00136671
-3.28854e-06
0.00136882
-2.6826e-05
0.00137008
-5.12261e-05
0.0013704
-7.64844e-05
0.00136987
-0.00010257
0.00136841
-0.000129499
0.00136604
-0.000157281
0.00136264
-0.000185959
0.00135811
-0.000215512
0.0013526
-0.000245873
0.001346
-0.000277074
0.00133827
-0.000309119
0.00132924
-0.000342021
0.00131902
-0.000375679
0.00130757
-0.000410085
0.00129478
-0.000445259
0.00128053
-0.000481183
0.00126472
-0.000517801
0.00124724
-0.000555031
0.00122803
-0.000592762
0.00120705
-0.000630892
0.00118425
-0.000669355
0.00115942
-0.000708125
0.00113251
-0.000747077
0.0011033
-0.000786172
0.00107146
-0.000825239
0.00103689
-0.000863828
0.000999529
-0.000901753
0.000959313
-0.000938991
0.000915837
-0.000975448
0.000868457
-0.00101043
0.000816316
-0.00104195
0.000758123
-0.00106744
0.000697019
-0.00109047
-0.00112016
0.000640118
0.000979283
0.000392777
-0.000963361
0.000995046
0.000388871
0.00101066
0.000384612
0.00102612
0.000380004
0.00104141
0.000375035
0.00105654
0.000369703
0.00107149
0.000363995
0.00108624
0.000357897
0.00110078
0.000351397
0.00111508
0.000344477
0.00112913
0.000337125
0.00114292
0.000329325
0.00115642
0.000321063
0.00116962
0.000312322
0.00118252
0.000303093
0.00119509
0.000293358
0.00120733
0.000283107
0.00121922
0.000272322
0.00123074
0.000260992
0.00124187
0.000249098
0.00125258
0.000236632
0.00126286
0.000223576
0.0012727
0.000209916
0.00128208
0.000195641
0.00129099
0.000180735
0.00129939
0.000165182
0.00130727
0.00014897
0.00131462
0.000132084
0.00132139
0.000114509
0.00132758
9.62325e-05
0.00133315
7.72391e-05
0.00133805
5.75195e-05
0.00134227
3.70617e-05
0.0013458
1.58748e-05
0.0013486
-6.09403e-06
0.00135066
-2.88814e-05
0.00135191
-5.24777e-05
0.00135232
-7.68933e-05
0.00135187
-0.000102122
0.00135054
-0.000128163
0.00134828
-0.000155024
0.00134504
-0.000182718
0.00134077
-0.000211247
0.00133549
-0.000240589
0.00132914
-0.000270729
0.00132168
-0.00030166
0.00131304
-0.000333372
0.00130318
-0.000365821
0.00129207
-0.000398974
0.00127962
-0.000432814
0.00126575
-0.000467311
0.00125036
-0.000502407
0.00123335
-0.000538027
0.00121467
-0.000574078
0.00119424
-0.000610464
0.00117199
-0.000647104
0.00114779
-0.000683925
0.00112153
-0.000720821
0.00109304
-0.000757677
0.00106205
-0.000794249
0.00102845
-0.000830229
0.000992162
-0.000865466
0.000953048
-0.000899877
0.000910724
-0.000933124
0.00086439
-0.0009641
0.000813003
-0.000990564
0.00075677
-0.00101121
0.000699693
-0.0010334
-0.00106607
0.000645601
0.000963621
0.000376846
-0.000947689
0.000979398
0.000373095
0.000995005
0.000369004
0.00101044
0.00036457
0.00102569
0.000359784
0.00104076
0.000354636
0.00105564
0.000349117
0.00107031
0.000343219
0.00108478
0.00033693
0.00109902
0.000330238
0.00111302
0.000323128
0.00112675
0.000315586
0.00114022
0.0003076
0.00115338
0.000299154
0.00116624
0.000290235
0.00117877
0.000280827
0.00119096
0.000270917
0.0012028
0.00026049
0.00121426
0.000249532
0.00122532
0.000238031
0.00123598
0.000225973
0.00124621
0.000213342
0.001256
0.000200127
0.00126533
0.000186314
0.00127418
0.000171889
0.00128252
0.000156837
0.00129035
0.000141146
0.00129763
0.000124801
0.00130435
0.000107792
0.00131047
9.0103e-05
0.00131599
7.17246e-05
0.00132086
5.2645e-05
0.00132507
3.28545e-05
0.00132859
1.23574e-05
0.0013314
-8.9074e-06
0.00133348
-3.09549e-05
0.00133478
-5.37783e-05
0.00133527
-7.73843e-05
0.00133492
-0.000101774
0.0013337
-0.000126948
0.00133159
-0.00015291
0.00132853
-0.000179662
0.00132449
-0.000207204
0.00131943
-0.000235525
0.00131332
-0.000264619
0.00130612
-0.00029446
0.00129777
-0.000325023
0.00128822
-0.000356275
0.00127743
-0.000388181
0.00126532
-0.000420707
0.00125182
-0.000453811
0.00123685
-0.000487434
0.00122032
-0.000521504
0.00120218
-0.000555934
0.00118235
-0.000590631
0.00116075
-0.000625502
0.00113727
-0.000660445
0.00111179
-0.000695344
0.00108414
-0.000730028
0.00105413
-0.000764234
0.00102165
-0.000797754
0.000986621
-0.000830438
0.000948825
-0.000862082
0.000907733
-0.000892032
0.000862421
-0.000918788
0.000812205
-0.000940349
0.000758735
-0.000957739
0.000706311
-0.000980974
-0.00101629
0.000656528
0.000948345
0.000360983
-0.000932483
0.000964088
0.000357352
0.000979684
0.000353408
0.000995113
0.000349141
0.00101036
0.000344539
0.00102541
0.000339587
0.00104025
0.000334275
0.00105488
0.00032859
0.00106929
0.000322522
0.00108346
0.000316061
0.0010974
0.000309195
0.00111107
0.000301911
0.00112448
0.000294197
0.00113759
0.00028604
0.0011504
0.000277425
0.00116289
0.00026834
0.00117503
0.000258769
0.00118683
0.000248699
0.00119824
0.000238116
0.00120927
0.000227006
0.00121988
0.000215355
0.00123008
0.00020315
0.00123983
0.000190378
0.00124911
0.000177026
0.00125792
0.00016308
0.00126623
0.000148528
0.00127402
0.000133355
0.00128127
0.000117551
0.00128796
0.000101102
0.00129407
8.3997e-05
0.00129957
6.62248e-05
0.00130444
4.77747e-05
0.00130865
2.86402e-05
0.00131219
8.82057e-06
0.00131503
-1.17521e-05
0.00131715
-3.30731e-05
0.00131851
-5.51393e-05
0.00131909
-7.79561e-05
0.00131884
-0.000101526
0.00131774
-0.000125852
0.00131577
-0.000150933
0.00131287
-0.000176769
0.00130902
-0.000203353
0.00130417
-0.000230676
0.00129828
-0.00025873
0.00129132
-0.000287499
0.00128324
-0.000316942
0.00127399
-0.000347023
0.00126351
-0.000377706
0.00125176
-0.000408951
0.00123865
-0.000440708
0.00122414
-0.000472918
0.00120814
-0.000505507
0.0011906
-0.000538391
0.00117144
-0.00057147
0.00115058
-0.000604642
0.00112792
-0.000637787
0.00110333
-0.000670757
0.00107665
-0.000703349
0.00104776
-0.000735342
0.00101657
-0.000766559
0.000982936
-0.000796806
0.000946531
-0.000825676
0.000906656
-0.000852157
0.00086244
-0.000874572
0.00081401
-0.000891919
0.000764297
-0.000908026
0.000716966
-0.000933643
-0.00097083
0.000671508
0.000933682
0.000345266
-0.000917965
0.000949305
0.000341729
0.000964813
0.0003379
0.000980184
0.000333771
0.000995392
0.000329331
0.00101042
0.000324562
0.00102524
0.00031945
0.00103985
0.000313982
0.00105423
0.000308143
0.00106837
0.000301922
0.00108226
0.000295307
0.00109588
0.000288287
0.00110923
0.000280849
0.00112229
0.000272981
0.00113504
0.000264671
0.00114747
0.000255906
0.00115957
0.000246671
0.00117132
0.000236954
0.00118269
0.000226742
0.00119368
0.000216019
0.00120426
0.000204774
0.00121442
0.000192992
0.00122413
0.000180662
0.00123339
0.000167768
0.00124217
0.0001543
0.00125046
0.000140243
0.00125822
0.000125587
0.00126546
0.000110318
0.00127214
9.44246e-05
0.00127824
7.78968e-05
0.00128374
6.07238e-05
0.00128862
4.28954e-05
0.00129285
2.44076e-05
0.00129642
5.25238e-06
0.0012993
-1.46365e-05
0.00130147
-3.5242e-05
0.0013029
-5.65648e-05
0.00130355
-7.86094e-05
0.0013034
-0.000101378
0.00130242
-0.000124873
0.00130058
-0.000149091
0.00129784
-0.000174029
0.00129417
-0.00019968
0.00128952
-0.00022603
0.00128386
-0.000253068
0.00127714
-0.000280778
0.00126932
-0.000309128
0.00126037
-0.000338074
0.00125024
-0.000367574
0.00123888
-0.000397586
0.00122623
-0.000428056
0.00121223
-0.000458921
0.00119683
-0.000490106
0.00117996
-0.000521523
0.00116155
-0.000553065
0.00114153
-0.000584619
0.00111979
-0.000616043
0.0010962
-0.000647169
0.00107065
-0.000677799
0.00104305
-0.000707741
0.00101329
-0.000736803
0.000981162
-0.000764676
0.000946154
-0.000790669
0.000907484
-0.000813487
0.000864674
-0.000831762
0.000819031
-0.000846276
0.00077426
-0.000863255
0.000732797
-0.00089218
-0.000929975
0.000691942
0.000919787
0.000329692
-0.000904214
0.00093526
0.000326257
0.000950623
0.000322536
0.000965864
0.00031853
0.000980966
0.000314229
0.000995909
0.000309619
0.00101067
0.000304688
0.00102523
0.00029942
0.00103958
0.0002938
0.00105368
0.000287816
0.00106754
0.000281453
0.00108112
0.000274698
0.00109443
0.00026754
0.00110745
0.000259966
0.00112016
0.000251963
0.00113254
0.00024352
0.00114459
0.000234622
0.00115629
0.000225257
0.00116762
0.000215413
0.00117856
0.000205076
0.0011891
0.000194233
0.00119922
0.000182872
0.0012089
0.000170979
0.00121813
0.000158541
0.00122688
0.000145546
0.00123515
0.000131982
0.0012429
0.000117836
0.00125012
0.000103098
0.00125678
8.77558e-05
0.00126288
7.17992e-05
0.00126839
5.52185e-05
0.00127328
3.80039e-05
0.00127753
2.0154e-05
0.00128114
1.64937e-06
0.00128406
-1.75637e-05
0.00128629
-3.74658e-05
0.00128778
-5.80589e-05
0.00128852
-7.93463e-05
0.00128847
-0.00010133
0.00128761
-0.00012401
0.0012859
-0.000147383
0.00128331
-0.000171444
0.00127982
-0.000196183
0.00127537
-0.000221587
0.00126995
-0.00024764
0.00126349
-0.000274322
0.00125597
-0.000301609
0.00124736
-0.000329462
0.00123762
-0.000357831
0.0012267
-0.000386671
0.00121456
-0.00041592
0.00120116
-0.000445514
0.00118643
-0.000475374
0.00117031
-0.000505405
0.00115274
-0.000535494
0.00113363
-0.000565516
0.0011129
-0.000595314
0.00109045
-0.000624718
0.0010662
-0.000653542
0.00104005
-0.000681594
0.00101186
-0.00070861
0.000981255
-0.000734075
0.000947594
-0.000757007
0.000910241
-0.000776134
0.000869543
-0.000791064
0.00082806
-0.000804792
0.000789418
-0.000824613
0.000754225
-0.000856988
-0.000892105
0.000716355
0.000906641
0.000314209
-0.000891158
0.000922
0.000310898
0.000937232
0.000307304
0.000952332
0.00030343
0.000967292
0.000299269
0.0009821
0.000294811
0.000996742
0.000290046
0.0010112
0.000284962
0.00102545
0.000279545
0.00103949
0.000273782
0.00105328
0.000267658
0.00106682
0.000261162
0.00108008
0.000254279
0.00109305
0.000246995
0.00110572
0.000239299
0.00111806
0.000231177
0.00113006
0.000222616
0.00114172
0.000213605
0.001153
0.000204129
0.0011639
0.000194176
0.0011744
0.000183734
0.00118448
0.000172791
0.00119413
0.000161332
0.00120332
0.000149346
0.00121205
0.000136822
0.00122028
0.000123746
0.00122801
0.000110107
0.00123522
9.58941e-05
0.00124188
8.10967e-05
0.00124797
6.57047e-05
0.00125348
4.97085e-05
0.00125839
3.30994e-05
0.00126266
1.58785e-05
0.0012663
-1.9885e-06
0.00126927
-2.05354e-05
0.00127155
-3.97461e-05
0.00127311
-5.96225e-05
0.00127394
-8.01678e-05
0.00127399
-0.000101383
0.00127324
-0.000123266
0.00127168
-0.000145814
0.00126925
-0.00016902
0.00126594
-0.000192874
0.00126172
-0.000217362
0.00125655
-0.000242466
0.00125039
-0.000268166
0.00124321
-0.000294435
0.00123499
-0.000321238
0.00122569
-0.00034853
0.00121528
-0.000376259
0.00120372
-0.00040436
0.00119096
-0.000432761
0.00117697
-0.000461378
0.00116167
-0.000490111
0.00114502
-0.000518838
0.00112693
-0.000547426
0.00110734
-0.00057572
0.00108617
-0.000603551
0.00106336
-0.000630732
0.00103879
-0.000657027
0.0010122
-0.000682018
0.000983059
-0.000704935
0.000950737
-0.000724685
0.000915174
-0.000740571
0.000877907
-0.000753797
0.000842322
-0.000769207
0.000810928
-0.000793219
0.000781114
-0.000827174
-0.000853123
0.000742132
0.000894145
0.000298773
-0.000878709
0.000909442
0.000295601
0.000924593
0.000292153
0.000939593
0.00028843
0.000954436
0.000284426
0.000969115
0.000280132
0.000983623
0.000275539
0.000997947
0.000270638
0.00101207
0.000265417
0.00102599
0.000259866
0.00103968
0.000253971
0.00105312
0.00024772
0.0010663
0.0002411
0.0010792
0.000234098
0.00109179
0.000226701
0.00110408
0.000218895
0.00111603
0.000210667
0.00112763
0.000202004
0.00113886
0.000192894
0.00114971
0.000183324
0.00116017
0.000173281
0.00117021
0.000162752
0.00117981
0.000151725
0.00118897
0.000140189
0.00119766
0.00012813
0.00120587
0.000115538
0.00121357
0.000102401
0.00122076
8.87083e-05
0.00122741
7.44495e-05
0.0012335
5.96151e-05
0.00123901
4.41957e-05
0.00124393
2.8184e-05
0.00124822
1.15813e-05
0.00125189
-5.65998e-06
0.00125491
-2.35519e-05
0.00125725
-4.20837e-05
0.00125888
-6.12583e-05
0.00125979
-8.10779e-05
0.00125995
-0.000101543
0.00125934
-0.000122651
0.00125792
-0.000144399
0.00125568
-0.000166778
0.00125259
-0.000189779
0.00124861
-0.000213387
0.00124373
-0.000237585
0.00123791
-0.00026235
0.00123114
-0.000287655
0.00122336
-0.000313464
0.00121457
-0.000339734
0.00120472
-0.000366412
0.00119379
-0.000393432
0.00118175
-0.000420717
0.00116854
-0.000448174
0.00115413
-0.000475698
0.00113846
-0.000503166
0.00112147
-0.000530442
0.00110313
-0.000557376
0.00108338
-0.000583796
0.00106213
-0.000609481
0.00103917
-0.000634075
0.0010141
-0.000656947
0.000986336
-0.000677169
0.000955638
-0.000693987
0.000922991
-0.000707924
0.000891087
-0.000721893
0.000863164
-0.000741284
0.000839348
-0.000769403
0.000812798
-0.000800624
-0.000811887
0.000771563
0.000882238
0.000283372
-0.000866837
0.000897498
0.000280341
0.000912605
0.000277046
0.00092755
0.000273486
0.000942323
0.000269652
0.000956917
0.000265538
0.000971324
0.000261132
0.000985536
0.000256426
0.000999543
0.00025141
0.00101333
0.000246075
0.0010269
0.000240409
0.00104022
0.0002344
0.00105328
0.000228039
0.00106607
0.00022131
0.00107856
0.000214204
0.00109075
0.000206705
0.00110262
0.000198802
0.00111414
0.000190482
0.0011253
0.000181731
0.00113609
0.000172537
0.00114648
0.000162887
0.00115646
0.000152769
0.00116602
0.000142169
0.00117513
0.000131077
0.00118378
0.00011948
0.00119195
0.000107366
0.00119963
9.47254e-05
0.00120679
8.15464e-05
0.00121342
6.78192e-05
0.0012195
5.35346e-05
0.00122502
3.86831e-05
0.00122994
2.32598e-05
0.00123426
7.26174e-06
0.00123796
-9.36571e-06
0.00124103
-2.66155e-05
0.00124343
-4.44838e-05
0.00124514
-6.29737e-05
0.00124615
-8.20873e-05
0.00124643
-0.000101825
0.00124597
-0.000122183
0.00124473
-0.000143159
0.00124269
-0.000164744
0.00123984
-0.000186928
0.00123615
-0.000209697
0.0012316
-0.000233033
0.00122616
-0.000256913
0.00121982
-0.000281308
0.00121254
-0.000306183
0.00120429
-0.000331493
0.00119506
-0.000357182
0.00118482
-0.000383185
0.00117352
-0.000409422
0.00116115
-0.0004358
0.00114766
-0.000462212
0.00113304
-0.000488539
0.00111724
-0.000514648
0.00110025
-0.000540386
0.001082
-0.000565546
0.00106233
-0.00058981
0.0010409
-0.000612642
0.00101721
-0.00063326
0.000990984
-0.000650943
0.000962891
-0.000665893
0.00093515
-0.000680183
0.000910913
-0.000697656
0.000891631
-0.000722003
0.000873462
-0.000751234
0.000845484
-0.000772645
-0.00076259
0.000796186
0.000870931
0.000268011
-0.00085557
0.000886153
0.000265119
0.000901224
0.000261975
0.000916131
0.000258579
0.000930862
0.000254921
0.000945406
0.000250993
0.000959754
0.000246785
0.000973894
0.000242286
0.000987817
0.000237487
0.00100151
0.000232379
0.00101497
0.00022695
0.00102818
0.000221191
0.00104113
0.000215091
0.0010538
0.000208639
0.00106618
0.000201821
0.00107826
0.000194628
0.00109002
0.000187045
0.00110144
0.000179062
0.0011125
0.000170664
0.0011232
0.00016184
0.00113351
0.000152577
0.00114342
0.000142862
0.0011529
0.000132684
0.00116195
0.000122029
0.00117054
0.000110886
0.00117867
9.92441e-05
0.0011863
8.70917e-05
0.00119343
7.44183e-05
0.00120003
6.1214e-05
0.0012061
4.74695e-05
0.00121161
3.31756e-05
0.00121654
1.83299e-05
0.00122088
2.91827e-06
0.00122462
-1.31069e-05
0.00122774
-2.97303e-05
0.0012302
-4.69531e-05
0.00123201
-6.47785e-05
0.00123313
-8.32085e-05
0.00123355
-0.000102243
0.00123325
-0.00012188
0.0012322
-0.000142114
0.00123039
-0.000162939
0.00122781
-0.000184343
0.00122442
-0.000206312
0.00122022
-0.000228829
0.00121518
-0.000251871
0.00120928
-0.000275407
0.00120249
-0.000299401
0.00119481
-0.000323809
0.0011862
-0.000348574
0.00117665
-0.00037363
0.00116612
-0.000398899
0.00115462
-0.000424293
0.00114212
-0.000449712
0.00112862
-0.00047504
0.00111411
-0.00050014
0.00109854
-0.000524823
0.0010818
-0.000548797
0.00106358
-0.000571594
0.00104349
-0.000592556
0.00102129
-0.000611054
0.000997497
-0.000627152
0.000974049
-0.000642445
0.000953901
-0.000660035
0.000939043
-0.000682798
0.000927179
-0.000710139
0.00090974
-0.000733795
0.000874112
-0.000737018
-0.000702537
0.000814059
0.000860265
0.000252697
-0.00084495
0.000875442
0.000249941
0.00089047
0.000246947
0.000905336
0.000243713
0.000920028
0.000240229
0.000934533
0.000236488
0.000948838
0.00023248
0.000962931
0.000228193
0.0009768
0.000223618
0.000990435
0.000218744
0.00100382
0.000213562
0.00101695
0.000208062
0.00102981
0.000202231
0.00104239
0.000196061
0.00105467
0.000189538
0.00106665
0.000182653
0.0010783
0.000175393
0.00108962
0.000167746
0.00110058
0.0001597
0.00111118
0.000151243
0.00112139
0.000142363
0.00113121
0.000133047
0.00114061
0.000123283
0.00114958
0.000113059
0.0011581
0.000102364
0.00116616
9.11852e-05
0.00117374
7.95128e-05
0.00118082
6.73357e-05
0.00118739
5.46442e-05
0.00119343
4.14286e-05
0.00119893
2.76805e-05
0.00120386
1.33989e-05
0.00120822
-1.4459e-06
0.001212
-1.68819e-05
0.00121517
-3.28967e-05
0.00121771
-4.94935e-05
0.0012196
-6.66758e-05
0.00122084
-8.44455e-05
0.0012214
-0.000102803
0.00122127
-0.000121745
0.00122042
-0.000141267
0.00121884
-0.000161363
0.00121652
-0.000182022
0.00121344
-0.000203229
0.00120958
-0.000224967
0.00120492
-0.000247213
0.00119945
-0.000269938
0.00119315
-0.000293104
0.00118601
-0.000316668
0.00117801
-0.000340576
0.00116915
-0.000364766
0.00115942
-0.000389166
0.00114882
-0.000413696
0.00113737
-0.00043826
0.00112506
-0.000462736
0.00111188
-0.000486953
0.0010977
-0.000510642
0.00108229
-0.000533386
0.00106533
-0.000554637
0.00104666
-0.000573887
0.00102681
-0.000591201
0.00100756
-0.000607902
0.000991721
-0.000626609
0.000981399
-0.000649712
0.000975149
-0.000676548
0.000966038
-0.000701027
0.000942433
-0.00071019
0.000894221
-0.000688806
-0.000627654
0.000819339
0.00085029
0.000237432
-0.000835026
0.000865418
0.000234814
0.000880397
0.000231969
0.000895214
0.000228895
0.000909859
0.000225585
0.000924318
0.00022203
0.000938578
0.000218219
0.000952626
0.000214144
0.00096645
0.000209794
0.000980037
0.000205158
0.000993373
0.000200226
0.00100645
0.000194988
0.00101924
0.000189433
0.00103175
0.000183551
0.00104396
0.000177329
0.00105586
0.000170757
0.00106743
0.000163824
0.00107866
0.000156517
0.00108953
0.000148825
0.00110004
0.000140737
0.00111016
0.000132239
0.00111989
0.00012332
0.0011292
0.000113968
0.00113809
0.000104171
0.00114654
9.39177e-05
0.00115452
8.31965e-05
0.00116204
7.19964e-05
0.00116907
6.03069e-05
0.0011756
4.81182e-05
0.0011816
3.54203e-05
0.00118708
2.22064e-05
0.001192
8.47339e-06
0.00119638
-5.8214e-06
0.00120018
-2.0683e-05
0.00120339
-3.61067e-05
0.00120599
-5.20968e-05
0.00120797
-6.86569e-05
0.00120932
-8.57888e-05
0.00121001
-0.000103493
0.00121003
-0.000121766
0.00120937
-0.000140605
0.00120801
-0.000160002
0.00120593
-0.000179948
0.00120313
-0.000200428
0.00119959
-0.000221426
0.00119529
-0.000242919
0.00119024
-0.000264879
0.0011844
-0.000287272
0.00117779
-0.000310056
0.0011704
-0.000333185
0.00116224
-0.000356605
0.00115333
-0.000380253
0.00114368
-0.00040405
0.00113331
-0.000427889
0.00112219
-0.000451613
0.00111022
-0.00047498
0.0010972
-0.000497624
0.0010829
-0.000519093
0.00106729
-0.000539023
0.00105096
-0.000557558
0.00103568
-0.000575916
0.00102413
-0.000596357
0.00101837
-0.000620843
0.00101715
-0.000648497
0.00101444
-0.000673842
0.000999965
-0.000686548
0.000963233
-0.000673458
0.000901119
-0.000626692
-0.000546428
0.000819893
0.000841062
0.000222219
-0.000825849
0.000856137
0.000219739
0.000871062
0.000217043
0.000885826
0.000214131
0.000900417
0.000210994
0.000914822
0.000207624
0.000929029
0.000204012
0.000943025
0.000200148
0.000956797
0.000196022
0.000970332
0.000191624
0.000983615
0.000186943
0.000996635
0.000181969
0.00100938
0.000176691
0.00102183
0.000171099
0.00103398
0.000165182
0.00104581
0.000158927
0.00105731
0.000152324
0.00106846
0.000145361
0.00107926
0.000138026
0.00108969
0.000130308
0.00109973
0.000122194
0.00110938
0.000113673
0.00111862
0.000104732
0.00112743
9.53606e-05
0.0011358
8.55463e-05
0.00114372
7.5278e-05
0.00115117
6.45448e-05
0.00115814
5.33361e-05
0.00116462
4.16419e-05
0.00117058
2.94523e-05
0.00117603
1.67625e-05
0.00118094
3.56038e-06
0.00118532
-1.01957e-05
0.00118913
-2.44972e-05
0.00119237
-3.93463e-05
0.00119502
-5.47476e-05
0.00119707
-7.07049e-05
0.0011985
-8.72202e-05
0.0011993
-0.000104294
0.00119946
-0.000121923
0.00119896
-0.000140105
0.00119779
-0.000158832
0.00119594
-0.000178097
0.00119339
-0.000197885
0.00119015
-0.000218182
0.0011862
-0.000238966
0.00118153
-0.000260213
0.00117615
-0.000281893
0.00117007
-0.000303974
0.0011633
-0.000326417
0.00115587
-0.000349174
0.0011478
-0.00037218
0.00113909
-0.000395342
0.00112972
-0.000418516
0.00111959
-0.000441487
0.00110856
-0.00046395
0.00109649
-0.00048555
0.00108347
-0.000506077
0.00107026
-0.000525813
0.00105865
-0.000545944
0.00105122
-0.000568489
0.0010498
-0.000594936
0.00105306
-0.00062411
0.00105528
-0.000650712
0.00104707
-0.000665629
0.00101829
-0.000657768
0.000964007
-0.000619179
0.000886972
-0.000549658
-0.000452851
0.000793395
0.000832638
0.000207059
-0.000817477
0.000847659
0.000204718
0.000862529
0.000202173
0.000877238
0.000199423
0.000891771
0.00019646
0.000906118
0.000193277
0.000920266
0.000189865
0.000934202
0.000186212
0.000947914
0.000182311
0.000961387
0.00017815
0.00097461
0.00017372
0.000987567
0.000169011
0.00100025
0.000164012
0.00101264
0.000158711
0.00102472
0.000153099
0.00103648
0.000147163
0.00104791
0.000140892
0.001059
0.000134275
0.00106973
0.000127299
0.00108008
0.000119953
0.00109005
0.000112225
0.00109962
0.000104102
0.00110878
9.55729e-05
0.00111752
8.66259e-05
0.00112581
7.72491e-05
0.00113366
6.74312e-05
0.00114104
5.71611e-05
0.00114795
4.64281e-05
0.00115437
3.52218e-05
0.00116029
2.35332e-05
0.0011657
1.13585e-05
0.00117059
-1.32972e-06
0.00117495
-1.45549e-05
0.00117876
-2.83098e-05
0.00118201
-4.25994e-05
0.00118469
-5.7429e-05
0.00118679
-7.28021e-05
0.00118829
-8.87209e-05
0.00118918
-0.000105186
0.00118945
-0.000122196
0.0011891
-0.000139747
0.0011881
-0.000157834
0.00118645
-0.000176449
0.00118415
-0.000195582
0.00118118
-0.000215218
0.00117756
-0.000235341
0.00117328
-0.000255933
0.00116836
-0.000276972
0.00116282
-0.000298433
0.00115668
-0.00032028
0.00114996
-0.000342455
0.00114266
-0.000364874
0.00113473
-0.000387411
0.0011261
-0.000409885
0.00111667
-0.000432058
0.00110641
-0.000453695
0.0010956
-0.000474734
0.00108515
-0.000495633
0.00107692
-0.000517583
0.00107334
-0.000542366
0.00107584
-0.000570986
0.00108275
-0.00060185
0.00108835
-0.000629711
0.00108373
-0.000646085
0.00105953
-0.000641426
0.00101083
-0.000609071
0.000940008
-0.000548358
0.000853673
-0.000463323
-0.000356048
0.000756871
0.000825077
0.000191949
-0.000809966
0.000840046
0.000189749
0.000854862
0.000187356
0.000869515
0.000184771
0.00088399
0.000181985
0.000898277
0.00017899
0.000912363
0.000175779
0.000926235
0.00017234
0.000939881
0.000168665
0.000953287
0.000164744
0.000966441
0.000160567
0.000979328
0.000156124
0.000991936
0.000151404
0.00100425
0.000146396
0.00101626
0.000141091
0.00102795
0.000135475
0.0010393
0.000129538
0.00105031
0.000123267
0.00106096
0.000116652
0.00107123
0.000109679
0.00108112
0.000102337
0.0010906
9.4614e-05
0.00109968
8.64969e-05
0.00110833
7.79742e-05
0.00111655
6.90338e-05
0.00112431
5.96641e-05
0.00113162
4.98539e-05
0.00113846
3.95923e-05
0.00114481
2.88684e-05
0.00115067
1.76747e-05
0.00115602
6.00346e-06
0.00116088
-6.18247e-06
0.00116521
-1.88854e-05
0.001169
-3.21062e-05
0.00117226
-4.58508e-05
0.00117495
-6.01247e-05
0.00117708
-7.49318e-05
0.00117863
-9.02744e-05
0.0011796
-0.000106154
0.00117997
-0.000122568
0.00117974
-0.000139516
0.0011789
-0.000156993
0.00117744
-0.000174992
0.00117537
-0.000193506
0.00117268
-0.000212527
0.00116938
-0.000232043
0.00116549
-0.000252043
0.00116103
-0.00027251
0.00115601
-0.000293414
0.00115043
-0.000314706
0.00114428
-0.000336298
0.0011375
-0.000358094
0.00113004
-0.000379954
0.00112187
-0.000401722
0.00111311
-0.000423293
0.00110421
-0.000444791
0.00109626
-0.000466793
0.00109118
-0.00049055
0.0010911
-0.000517497
0.00109688
-0.000548148
0.00110631
-0.000580417
0.00111345
-0.000608993
0.00110961
-0.000625866
0.00108614
-0.000622617
0.00103892
-0.000594203
0.000970439
-0.000540593
0.000887433
-0.000465352
0.000797514
-0.000373404
-0.000265802
0.000707268
0.000818437
0.000176883
-0.000803371
0.000833359
0.000174826
0.000848126
0.00017259
0.000862725
0.000170171
0.000877144
0.000167565
0.000891373
0.000164762
0.000905397
0.000161754
0.000919205
0.000158532
0.000932783
0.000155087
0.000946119
0.000151408
0.000959199
0.000147486
0.00097201
0.000143312
0.00098454
0.000138875
0.000996773
0.000134163
0.0010087
0.000129166
0.0010203
0.000123873
0.00103156
0.000118272
0.00104248
0.000112351
0.00105303
0.000106098
0.00106321
9.95007e-05
0.001073
9.25466e-05
0.00108239
8.52235e-05
0.00109137
7.75188e-05
0.00109993
6.94202e-05
0.00110805
6.09153e-05
0.00111572
5.19923e-05
0.00112293
4.26393e-05
0.00112968
3.28451e-05
0.00113595
2.2599e-05
0.00114173
1.18946e-05
0.00114702
7.11992e-07
0.00115181
-1.09771e-05
0.0011561
-2.31689e-05
0.00115986
-3.58692e-05
0.00116309
-4.90845e-05
0.00116579
-6.28202e-05
0.00116794
-7.70805e-05
0.00116953
-9.1868e-05
0.00117056
-0.000107184
0.00117102
-0.000123028
0.00117091
-0.0001394
0.00117021
-0.000156296
0.00116893
-0.000173714
0.00116708
-0.000191652
0.00116466
-0.000210104
0.00116168
-0.000229065
0.00115815
-0.000248521
0.00115409
-0.000268441
0.00114945
-0.000288775
0.00114421
-0.000309465
0.00113832
-0.000330406
0.00113176
-0.00035154
0.00112461
-0.000372806
0.00111713
-0.000394242
0.00110998
-0.000416142
0.00110442
-0.000439231
0.00110228
-0.000464651
0.00110524
-0.000493512
0.00111343
-0.000525685
0.00112391
-0.000558627
0.00113041
-0.000586915
0.00112435
-0.000602935
0.00109791
-0.000599431
0.00104813
-0.000572837
0.000978238
-0.000524309
0.000895172
-0.000457527
0.000806703
-0.000376883
0.000719035
-0.000285736
-0.000182158
0.000635391
0.000812776
0.000161855
-0.000797748
0.000827657
0.000159945
0.000842379
0.000157868
0.000856931
0.00015562
0.0008713
0.000153196
0.000885473
0.000150588
0.000899439
0.000147788
0.000913185
0.000144787
0.000926697
0.000141574
0.000939963
0.000138142
0.00095297
0.00013448
0.000965703
0.000130579
0.00097815
0.000126428
0.000990298
0.000122016
0.00100213
0.000117332
0.00101364
0.000112366
0.00102481
0.000107104
0.00103562
0.000101536