/*--------------------------------*- C++ -*----------------------------------*\
| =========                 |                                                 |
| \\      /  F ield         | OpenFOAM: The Open Source CFD Toolbox           |
|  \\    /   O peration     | Version:  2312                                  |
|   \\  /    A nd           | Website:  www.openfoam.com                      |
|    \\/     M anipulation  |                                                 |
\*---------------------------------------------------------------------------*/
FoamFile
{
    version     2.0;
    format      ascii;
    arch        "LSB;label=32;scalar=64";
    class       volVectorField;
    location    "1400";
    object      U;
}
// * * * * * * * * * * * * * * * * * * * * * * * * * * * * * * * * * * * * * //

dimensions      [0 1 -1 0 0 0 0];

internalField   nonuniform List<vector> 
76025
(
(0.0358022 -0.0049103 0)
(0.0359524 -0.00499604 1.10475e-21)
(0.0361075 -0.00507888 0)
(0.0362649 -0.00515856 0)
(0.0364229 -0.00523477 -2.0371e-21)
(0.0365851 -0.00530593 -3.89674e-21)
(0.0367464 -0.00537572 6.72153e-21)
(0.0369134 -0.00543851 -2.83846e-21)
(0.0370775 -0.00549996 -9.02473e-22)
(0.037245 -0.00555604 8.74932e-22)
(0.037412 -0.00560838 5.4103e-24)
(0.0375815 -0.00565509 2.42449e-21)
(0.0377528 -0.0057001 -3.23785e-21)
(0.0379249 -0.00573764 0)
(0.0380997 -0.00577046 7.39625e-22)
(0.0382728 -0.00580352 0)
(0.0384489 -0.00582586 0)
(0.0386255 -0.0058508 0)
(0.0388018 -0.00586669 6.54733e-22)
(0.0389769 -0.00588415 -6.17538e-22)
(0.0391536 -0.00589139 -5.91284e-22)
(0.0393327 -0.00589639 -1.71329e-21)
(0.03951 -0.00589356 1.12865e-21)
(0.039688 -0.00588683 1.55997e-21)
(0.0398648 -0.00587892 -4.38002e-23)
(0.0400414 -0.00586729 4.34277e-22)
(0.0402192 -0.00584403 -1.37969e-21)
(0.0403925 -0.00582031 1.37237e-21)
(0.0405677 -0.00579016 -4.38899e-22)
(0.040743 -0.00574904 4.18342e-22)
(0.0409092 -0.00572054 3.93463e-22)
(0.0410688 -0.00568997 -7.06859e-22)
(0.0412249 -0.00564414 1.04149e-21)
(0.0413789 -0.00559986 1.56124e-22)
(0.0415309 -0.00554473 -7.73494e-22)
(0.0416788 -0.00549535 7.14044e-24)
(0.0418258 -0.00544427 1.42102e-22)
(0.0419626 -0.00539008 -5.77985e-23)
(0.0420889 -0.00533697 7.31514e-24)
(0.0422083 -0.00527717 8.32434e-23)
(0.0423239 -0.00521836 -5.31007e-23)
(0.042436 -0.00516226 2.6604e-23)
(0.0425317 -0.00510182 -5.08586e-23)
(0.0426174 -0.00504058 9.93089e-23)
(0.0426964 -0.00497662 8.77195e-23)
(0.0427706 -0.00491951 -1.9655e-22)
(0.0428283 -0.00486341 -1.6918e-22)
(0.0428709 -0.00480442 4.9603e-22)
(0.0429062 -0.00474845 -3.79271e-22)
(0.0429329 -0.00469915 -3.89396e-23)
(0.0429469 -0.00465395 9.15491e-22)
(0.0429452 -0.00461616 4.15352e-22)
(0.0429229 -0.0045874 -3.71631e-22)
(0.0428781 -0.00456619 0)
(0.0428083 -0.00454654 5.05568e-22)
(0.042722 -0.00453498 4.82011e-22)
(0.0426084 -0.00453775 6.16043e-24)
(0.0424659 -0.00455245 5.92119e-22)
(0.0422972 -0.00459169 -7.25452e-22)
(0.0420877 -0.00466276 2.33362e-21)
(0.0418197 -0.00475561 1.69753e-21)
(0.0414968 -0.00486636 -1.40802e-22)
(0.041127 -0.00501333 0)
(0.0407108 -0.00521163 -6.70679e-21)
(0.0402204 -0.00546593 3.18072e-21)
(0.0396579 -0.00573802 -1.63427e-21)
(0.0389562 -0.00609307 3.99933e-21)
(0.0379342 -0.00655657 -4.36082e-21)
(0.03685 -0.00703051 -9.66062e-21)
(0.0356607 -0.00519574 1.18379e-21)
(0.0358198 -0.0052845 3.43796e-21)
(0.0359818 -0.00536987 -4.56655e-21)
(0.0361469 -0.00545087 0)
(0.0363138 -0.00552876 5.28556e-21)
(0.0364852 -0.00560192 -1.01204e-22)
(0.0366573 -0.00567123 -4.07263e-21)
(0.0368313 -0.00573627 0)
(0.037007 -0.00579687 1.90419e-24)
(0.0371836 -0.00585318 -9.15755e-22)
(0.0373617 -0.00590487 8.86656e-22)
(0.0375407 -0.00595187 5.853e-24)
(0.0377199 -0.00599477 0)
(0.0379001 -0.00603291 0)
(0.0380816 -0.00606514 1.49109e-21)
(0.0382628 -0.00609426 -3.76054e-21)
(0.0384461 -0.00611696 -7.08723e-22)
(0.0386289 -0.00613665 2.03279e-21)
(0.0388126 -0.00614991 -1.34911e-21)
(0.0389951 -0.00616044 6.42488e-22)
(0.0391785 -0.00616521 -5.76426e-22)
(0.0393609 -0.0061655 1.19304e-21)
(0.0395422 -0.00616056 -1.0939e-21)
(0.0397229 -0.00615059 1.59661e-21)
(0.0399032 -0.00613596 -1.04667e-21)
(0.0400827 -0.00611759 -1.45066e-21)
(0.0402612 -0.00609339 9.53682e-22)
(0.0404371 -0.00606521 0)
(0.0406117 -0.00603298 0)
(0.0407841 -0.00599624 3.85109e-22)
(0.0409524 -0.00595659 0)
(0.0411178 -0.00591288 3.42558e-22)
(0.0412783 -0.00586354 -3.29866e-22)
(0.0414347 -0.00580927 4.83284e-22)
(0.0415877 -0.00575118 1.60339e-23)
(0.041737 -0.00569193 1.46219e-22)
(0.0418821 -0.00563068 0)
(0.0420194 -0.00556902 2.2998e-22)
(0.0421487 -0.00550431 -1.58702e-22)
(0.0422719 -0.00543692 1.28683e-22)
(0.0423888 -0.00536848 -7.03513e-23)
(0.0424984 -0.00530022 4.05062e-24)
(0.0425979 -0.00523262 -2.16356e-23)
(0.0426877 -0.00516187 2.01089e-23)
(0.04277 -0.00509038 -1.42783e-22)
(0.0428441 -0.00501973 6.69766e-23)
(0.0429071 -0.00495174 5.46544e-23)
(0.0429572 -0.0048828 -1.60923e-22)
(0.0429967 -0.00481401 -4.43573e-22)
(0.0430249 -0.00474803 -1.81236e-23)
(0.043039 -0.00468617 -4.87438e-22)
(0.0430359 -0.00462989 1.73474e-22)
(0.0430125 -0.00457939 5.89664e-22)
(0.0429659 -0.00453324 -3.71926e-22)
(0.0428948 -0.0044918 0)
(0.0427987 -0.00445671 -1.42702e-21)
(0.0426748 -0.00443276 -5.65891e-23)
(0.0425189 -0.00442111 5.49348e-22)
(0.0423287 -0.00442771 6.08638e-22)
(0.0420974 -0.00445803 0)
(0.041813 -0.0045082 -8.57839e-22)
(0.0414728 -0.00458194 -2.94743e-21)
(0.0410765 -0.00468376 0)
(0.0406238 -0.00482747 2.66513e-21)
(0.0400993 -0.00501898 -1.41226e-21)
(0.039461 -0.0052423 3.43777e-21)
(0.0386167 -0.00549155 -1.85828e-21)
(0.0375944 -0.00582428 4.49016e-21)
(0.03673 -0.00624094 4.81156e-21)
(0.0355092 -0.00549294 -6.07216e-21)
(0.0356789 -0.00558433 3.66089e-21)
(0.0358507 -0.00567228 -1.17098e-21)
(0.0360246 -0.00575548 4.48427e-21)
(0.036201 -0.00583432 -5.55849e-21)
(0.0363801 -0.00590883 -4.21409e-21)
(0.0365619 -0.00597868 5.22391e-21)
(0.0367457 -0.00604388 0)
(0.0369314 -0.00610431 3.96159e-24)
(0.0371185 -0.00615996 0)
(0.0373068 -0.00621076 -8.99469e-22)
(0.037496 -0.00625665 8.75243e-22)
(0.0376858 -0.00629753 4.13974e-21)
(0.0378759 -0.00633353 -3.2931e-21)
(0.0380665 -0.00636431 7.84354e-22)
(0.0382575 -0.00638993 2.22438e-21)
(0.0384487 -0.0064105 -7.40086e-22)
(0.03864 -0.00642588 -6.97444e-22)
(0.0388312 -0.00643618 -1.94589e-21)
(0.0390221 -0.00644119 1.29268e-21)
(0.0392122 -0.00644128 5.93561e-22)
(0.0394011 -0.00643635 -1.12768e-21)
(0.0395889 -0.00642627 5.89467e-22)
(0.0397757 -0.00641089 5.11246e-22)
(0.0399613 -0.00639043 0)
(0.0401453 -0.00636506 -4.58975e-22)
(0.0403272 -0.00633503 -4.3877e-22)
(0.040507 -0.0063 4.64864e-22)
(0.0406847 -0.00626026 0)
(0.0408597 -0.00621627 -7.54839e-22)
(0.0410317 -0.00616745 3.38942e-22)
(0.0412001 -0.00611407 -3.3446e-23)
(0.0413641 -0.00605637 0)
(0.0415239 -0.00599323 -1.55726e-22)
(0.0416793 -0.00592704 4.07804e-22)
(0.0418299 -0.00585908 -2.57355e-22)
(0.0419749 -0.00578925 0)
(0.0421135 -0.00571772 -1.54688e-22)
(0.0422455 -0.00564315 1.38785e-22)
(0.042371 -0.00556603 2.34277e-23)
(0.0424896 -0.00548699 0)
(0.0426003 -0.00540766 3.53964e-23)
(0.0427021 -0.00532777 1.61669e-23)
(0.042795 -0.00524578 -2.01821e-23)
(0.0428793 -0.00516272 9.85283e-23)
(0.0429544 -0.00507961 4.74839e-23)
(0.0430187 -0.00499712 -1.29727e-22)
(0.0430709 -0.00491404 1.13e-22)
(0.0431106 -0.00483089 -9.63594e-23)
(0.043137 -0.00474916 1.15125e-22)
(0.0431477 -0.00466986 1.42304e-22)
(0.0431401 -0.0045936 -2.24806e-22)
(0.0431114 -0.00452059 0)
(0.0430591 -0.00445084 -2.77861e-22)
(0.0429811 -0.0043848 6.53888e-23)
(0.0428755 -0.00432407 4.18696e-22)
(0.0427396 -0.00427167 4.8298e-22)
(0.0425697 -0.00422977 -1.0301e-21)
(0.0423625 -0.00420227 -7.52923e-23)
(0.0421101 -0.00419177 -6.28376e-22)
(0.0418031 -0.00419708 1.48028e-21)
(0.041438 -0.00422281 7.52108e-22)
(0.0410145 -0.00427696 -1.40327e-22)
(0.0405282 -0.00436657 1.16499e-21)
(0.0399524 -0.00449073 1.44279e-21)
(0.0392289 -0.00463218 4.783e-21)
(0.0382876 -0.00479462 0)
(0.0372743 -0.00507823 2.25825e-21)
(0.036546 -0.00551994 -2.17697e-21)
(0.0353445 -0.00580492 0)
(0.0355275 -0.00589845 1.24502e-21)
(0.0357123 -0.00598845 5.98734e-21)
(0.0358983 -0.0060735 -4.74466e-21)
(0.0360858 -0.00615362 -3.34406e-21)
(0.0362753 -0.00622901 5.54667e-21)
(0.036467 -0.0062994 -1.06213e-21)
(0.0366607 -0.00636459 1.02318e-21)
(0.0368563 -0.00642456 9.92399e-22)
(0.0370534 -0.00647932 3.75929e-21)
(0.0372519 -0.00652883 -3.73306e-21)
(0.0374514 -0.00657303 -3.48348e-21)
(0.0376518 -0.00661183 9.37625e-22)
(0.0378527 -0.00664521 3.27442e-21)
(0.0380538 -0.00667315 -2.37913e-21)
(0.038255 -0.00669559 7.44447e-22)
(0.0384558 -0.00671261 -7.11622e-22)
(0.0386563 -0.00672412 -6.79296e-22)
(0.0388562 -0.00673021 1.9547e-21)
(0.0390553 -0.00673079 -6.68638e-22)
(0.0392534 -0.00672592 -6.08521e-22)
(0.0394503 -0.00671554 0)
(0.0396458 -0.00669966 -1.02449e-21)
(0.0398397 -0.00667833 5.26504e-22)
(0.0400317 -0.00665171 9.39102e-22)
(0.0402217 -0.00661985 8.56332e-22)
(0.0404093 -0.00658283 -1.74446e-21)
(0.0405943 -0.00654064 8.0626e-22)
(0.0407766 -0.00649346 0)
(0.0409556 -0.00644144 7.06893e-22)
(0.0411312 -0.00638465 -2.89453e-23)
(0.0413028 -0.00632324 -6.4485e-22)
(0.0414702 -0.00625721 2.74621e-22)
(0.0416332 -0.00618607 -6.51644e-22)
(0.0417913 -0.00611202 1.4118e-22)
(0.0419442 -0.00603573 0)
(0.0420915 -0.0059567 0)
(0.0422329 -0.00587494 -3.79211e-23)
(0.0423677 -0.00579038 -4.32262e-23)
(0.0424958 -0.00570331 -1.44926e-23)
(0.0426166 -0.00561407 3.94145e-25)
(0.0427297 -0.00552305 -1.59371e-23)
(0.0428344 -0.00543089 0)
(0.0429297 -0.00533761 -9.9776e-24)
(0.0430156 -0.00524306 0)
(0.0430914 -0.00514719 -5.83061e-23)
(0.0431563 -0.00505045 5.75159e-25)
(0.0432088 -0.00495266 8.86799e-23)
(0.0432478 -0.00485408 0)
(0.0432719 -0.00475543 8.2248e-23)
(0.0432792 -0.00465732 -8.17806e-23)
(0.0432674 -0.00456023 2.28969e-22)
(0.0432339 -0.00446447 0)
(0.0431764 -0.00437038 7.37057e-22)
(0.0430925 -0.00427859 6.14885e-23)
(0.0429798 -0.00419032 -2.89632e-22)
(0.0428352 -0.00410751 -3.46835e-22)
(0.042655 -0.00403236 0)
(0.0424343 -0.00396757 0)
(0.042165 -0.00391322 6.48957e-22)
(0.0418404 -0.00387166 -1.52562e-21)
(0.0414573 -0.00384775 -1.78787e-21)
(0.0410128 -0.00384784 0)
(0.040494 -0.00387389 2.1909e-21)
(0.0398608 -0.0039202 0)
(0.0390487 -0.00397136 -5.01329e-21)
(0.0380409 -0.00405174 1.71491e-21)
(0.0370899 -0.0043016 2.13713e-21)
(0.036525 -0.00471522 2.1789e-21)
(0.035169 -0.00613571 0)
(0.0353637 -0.00623104 0)
(0.0355615 -0.00632269 1.25367e-21)
(0.0357608 -0.00640916 -4.77828e-21)
(0.0359616 -0.00649041 5.9135e-21)
(0.036164 -0.00656657 -1.12994e-21)
(0.0363679 -0.00663741 0)
(0.0365731 -0.00670267 -1.05265e-21)
(0.0367796 -0.00676223 0)
(0.0369874 -0.0068161 -1.91545e-21)
(0.0371964 -0.00686425 7.53829e-23)
(0.0374064 -0.00690663 1.83207e-21)
(0.0376173 -0.00694323 0)
(0.0378286 -0.00697399 -1.6213e-21)
(0.0380402 -0.0069989 4.74732e-21)
(0.0382517 -0.00701795 -3.04314e-21)
(0.0384628 -0.00703114 3.61759e-21)
(0.0386733 -0.00703848 -7.10007e-22)
(0.0388829 -0.00703997 6.42071e-22)
(0.0390914 -0.00703562 -6.32386e-22)
(0.0392986 -0.00702544 -5.71059e-22)
(0.0395042 -0.00700943 1.68785e-21)
(0.039708 -0.00698763 1.05001e-21)
(0.0399098 -0.00696012 0)
(0.0401093 -0.00692698 -9.01466e-22)
(0.0403063 -0.00688828 -3.93169e-22)
(0.0405006 -0.00684412 1.26858e-21)
(0.0406918 -0.00679458 -3.96755e-22)
(0.0408798 -0.00673978 6.78831e-22)
(0.0410642 -0.00667982 -1.02521e-21)
(0.0412447 -0.00661479 2.80464e-22)
(0.041421 -0.00654479 -1.27583e-22)
(0.0415929 -0.00646985 0)
(0.04176 -0.00638969 1.25223e-22)
(0.0419218 -0.00630673 1.12402e-22)
(0.0420783 -0.0062209 0)
(0.042229 -0.00613183 -6.63979e-23)
(0.0423734 -0.00603968 1.02041e-22)
(0.0425112 -0.0059446 -6.18575e-23)
(0.042642 -0.00584679 2.42872e-23)
(0.0427653 -0.00574645 6.14606e-26)
(0.0428806 -0.00564384 9.82817e-24)
(0.0429872 -0.00553905 -3.93426e-24)
(0.0430845 -0.00543238 -1.7299e-23)
(0.0431717 -0.00532458 1.02675e-23)
(0.043248 -0.00521516 -5.34138e-23)
(0.0433128 -0.00510352 0)
(0.0433647 -0.00499 -5.26832e-23)
(0.0434024 -0.00487473 -2.59667e-23)
(0.0434244 -0.00475806 3.35664e-23)
(0.043429 -0.00464032 0)
(0.0434141 -0.00452183 5.52442e-23)
(0.0433773 -0.00440286 -5.50298e-23)
(0.0433165 -0.00428369 -1.97685e-22)
(0.0432289 -0.0041648 0)
(0.0431118 -0.00404705 5.31147e-22)
(0.0429617 -0.00393177 -5.6139e-22)
(0.0427743 -0.0038208 6.82727e-22)
(0.0425432 -0.00371489 -2.68002e-23)
(0.0422618 -0.0036146 0)
(0.0419249 -0.00352335 6.70588e-22)
(0.0415286 -0.0034454 -8.19607e-22)
(0.0410647 -0.00338447 -8.03309e-22)
(0.040509 -0.00333756 -2.25759e-21)
(0.0398086 -0.00329566 3.69786e-21)
(0.0389143 -0.00325223 -2.96303e-21)
(0.0378943 -0.00326433 1.58032e-21)
(0.037064 -0.00349299 -1.53471e-21)
(0.0366836 -0.00384379 -6.39815e-21)
(0.0349913 -0.00648811 -5.39582e-21)
(0.0351947 -0.00658505 1.37156e-22)
(0.0354026 -0.00667803 5.24345e-21)
(0.0356135 -0.00676552 0)
(0.0358269 -0.00684746 -1.20518e-21)
(0.0360425 -0.00692401 0)
(0.0362599 -0.00699493 2.2019e-21)
(0.0364783 -0.00705993 -7.0924e-23)
(0.0366977 -0.00711885 -3.13348e-21)
(0.0369179 -0.00717165 9.87511e-22)
(0.0371389 -0.00721829 9.57335e-22)
(0.0373606 -0.00725871 9.04766e-22)
(0.0375827 -0.00729287 0)
(0.037805 -0.00732076 0)
(0.0380275 -0.00734233 -8.03584e-22)
(0.0382496 -0.0073576 -7.6653e-22)
(0.0384714 -0.00736657 1.40475e-21)
(0.0386923 -0.00736925 -1.40091e-21)
(0.0389121 -0.00736567 -1.29212e-21)
(0.0391307 -0.00735585 1.18878e-21)
(0.0393475 -0.00733982 -2.33487e-21)
(0.0395625 -0.00731763 3.66251e-23)
(0.0397754 -0.00728935 1.01885e-21)
(0.0399858 -0.00725502 4.58219e-22)
(0.0401936 -0.00721473 8.55608e-22)
(0.0403984 -0.00716858 -8.56153e-22)
(0.0406001 -0.00711665 -7.32545e-22)
(0.0407984 -0.00705905 7.3368e-22)
(0.040993 -0.00699587 0)
(0.0411836 -0.00692724 0)
(0.0413699 -0.00685324 -6.62039e-22)
(0.0415517 -0.00677401 4.93609e-23)
(0.0417286 -0.00668953 2.27689e-22)
(0.0419005 -0.00659972 1.77302e-22)
(0.0420665 -0.00650724 -1.74193e-22)
(0.0422269 -0.0064114 0)
(0.0423812 -0.00631205 6.78478e-23)
(0.0425289 -0.00620934 5.74216e-23)
(0.0426698 -0.00610342 -4.01925e-23)
(0.0428033 -0.00599442 -6.05808e-24)
(0.042929 -0.00588251 1.30061e-24)
(0.0430464 -0.00576783 -7.89899e-24)
(0.0431549 -0.00565053 1.56021e-24)
(0.0432538 -0.00553055 2.14444e-25)
(0.0433423 -0.00540821 5.06073e-24)
(0.0434193 -0.00528418 1.00692e-23)
(0.043484 -0.00515762 0)
(0.0435356 -0.00502795 -4.24908e-23)
(0.0435726 -0.00489541 4.96755e-23)
(0.0435938 -0.00476021 -5.54448e-23)
(0.0435975 -0.00462244 -4.73526e-24)
(0.0435816 -0.00448222 -2.4322e-23)
(0.0435442 -0.0043396 5.19177e-23)
(0.0434828 -0.00419471 3.03495e-23)
(0.0433946 -0.00404769 -6.28578e-23)
(0.0432764 -0.00389902 5.76723e-23)
(0.0431242 -0.00374963 1.97592e-22)
(0.0429327 -0.0035999 -4.6192e-22)
(0.042696 -0.00344995 -9.73699e-23)
(0.0424085 -0.00330159 -4.36797e-22)
(0.0420655 -0.00315752 4.44273e-22)
(0.0416603 -0.00302077 -6.88093e-22)
(0.0411765 -0.00289102 1.6718e-21)
(0.040576 -0.0027608 1.01039e-21)
(0.0398039 -0.00262237 -2.22556e-21)
(0.0388568 -0.0024876 1.19988e-21)
(0.0378973 -0.00244603 4.40047e-21)
(0.0372438 -0.00264105 2.00578e-21)
(0.0370419 -0.00291143 0)
(0.0348162 -0.00686393 0)
(0.0350283 -0.00696234 -1.38207e-21)
(0.035245 -0.00705638 2.96551e-24)
(0.0354654 -0.00714453 0)
(0.0356891 -0.00722671 0)
(0.0359162 -0.00730313 -1.19038e-21)
(0.0361459 -0.00737356 3.39664e-21)
(0.0363773 -0.0074377 -4.40092e-21)
(0.03661 -0.0074954 2.15788e-21)
(0.0368436 -0.00754661 -1.01542e-21)
(0.0370779 -0.00759125 0)
(0.0373125 -0.00762927 -9.29684e-22)
(0.0375472 -0.00766059 8.70272e-22)
(0.0377818 -0.00768518 0)
(0.0380161 -0.007703 0)
(0.0382499 -0.00771406 -7.29498e-22)
(0.0384828 -0.00771836 7.53329e-23)
(0.0387147 -0.00771593 1.38767e-21)
(0.0389453 -0.00770681 1.26386e-21)
(0.0391742 -0.00769104 -1.23266e-21)
(0.0394012 -0.00766868 -5.75331e-22)
(0.039626 -0.00763978 -2.05624e-21)
(0.0398483 -0.00760443 3.7707e-23)
(0.0400678 -0.00756271 3.99994e-22)
(0.0402842 -0.00751471 -8.6937e-22)
(0.0404974 -0.00746053 3.71366e-22)
(0.040707 -0.00740029 -7.34423e-22)
(0.0409127 -0.00733408 0)
(0.0411143 -0.00726203 0)
(0.0413115 -0.00718426 0)
(0.041504 -0.00710088 1.24738e-22)
(0.0416915 -0.00701206 2.08637e-22)
(0.0418738 -0.00691765 -1.84712e-22)
(0.0420506 -0.00681802 -1.30127e-22)
(0.0422213 -0.00671558 1.27718e-22)
(0.0423859 -0.00660938 0)
(0.042544 -0.00649936 -2.67227e-23)
(0.0426953 -0.00638566 9.44811e-24)
(0.0428394 -0.00626841 0)
(0.0429758 -0.00614771 -6.29828e-25)
(0.0431042 -0.00602369 -4.01531e-25)
(0.0432239 -0.00589644 5.95193e-25)
(0.0433343 -0.00576603 -1.60026e-24)
(0.0434349 -0.00563247 0)
(0.0435248 -0.00549571 -2.99763e-23)
(0.0436031 -0.00535596 2.94021e-23)
(0.0436689 -0.00521349 0)
(0.0437212 -0.00506767 -2.65027e-23)
(0.0437592 -0.00491779 2.58774e-23)
(0.0437817 -0.00476387 4.13569e-23)
(0.0437868 -0.00460583 0)
(0.0437729 -0.00444361 -5.90588e-23)
(0.0437377 -0.004277 -1.96022e-23)
(0.0436789 -0.00410578 -1.2575e-22)
(0.0435932 -0.00392977 -5.21709e-23)
(0.0434772 -0.00374916 -5.91502e-23)
(0.0433262 -0.00356332 0)
(0.0431352 -0.00337225 0)
(0.0428988 -0.00317672 -8.60075e-23)
(0.0426121 -0.00297793 0)
(0.0422688 -0.00277768 0)
(0.0418568 -0.00257607 -1.57996e-22)
(0.0413474 -0.00236806 5.36349e-22)
(0.0406936 -0.00214477 1.48828e-21)
(0.039861 -0.00190688 -1.66971e-21)
(0.0389206 -0.0016919 -4.6772e-22)
(0.0381043 -0.00160987 -1.40785e-21)
(0.0376801 -0.00175229 -1.38932e-21)
(0.0375947 -0.00189222 0)
(0.0346413 -0.0072651 0)
(0.0348646 -0.00736492 1.42142e-21)
(0.0350919 -0.0074599 -4.07504e-21)
(0.0353223 -0.00754848 1.36279e-21)
(0.0355561 -0.0076306 0)
(0.0357934 -0.00770649 3.62344e-21)
(0.0360339 -0.00777592 -5.85981e-21)
(0.0362767 -0.00783863 8.35974e-23)
(0.0365215 -0.00789447 5.37235e-21)
(0.0367677 -0.00794341 -1.07458e-21)
(0.0370148 -0.00798538 9.69179e-22)
(0.0372625 -0.00802032 9.21138e-22)
(0.0375104 -0.00804816 -2.62147e-21)
(0.037758 -0.00806885 3.35587e-21)
(0.0380051 -0.00808235 -1.62929e-21)
(0.0382513 -0.00808865 6.96817e-22)
(0.0384964 -0.00808777 -2.82575e-21)
(0.03874 -0.00807973 7.20112e-22)
(0.0389819 -0.00806458 -5.66993e-22)
(0.0392218 -0.00804236 6.41583e-22)
(0.0394594 -0.00801315 7.81008e-23)
(0.0396944 -0.00797703 3.00105e-21)
(0.0399265 -0.00793408 4.0407e-22)
(0.0401555 -0.00788442 -7.48279e-23)
(0.040381 -0.00782815 -1.17374e-21)
(0.0406028 -0.00776539 3.70955e-22)
(0.0408205 -0.00769626 -5.94063e-22)
(0.041034 -0.0076209 8.49512e-22)
(0.0412429 -0.00753942 0)
(0.041447 -0.00745197 1.97149e-22)
(0.041646 -0.00735866 -1.9768e-22)
(0.0418395 -0.00725966 2.70593e-23)
(0.0420275 -0.00715474 4.56747e-23)
(0.0422094 -0.00704489 3.05566e-23)
(0.0423849 -0.00693184 -6.44109e-23)
(0.042554 -0.00681471 4.7668e-23)
(0.0427163 -0.00669348 6.03763e-24)
(0.0428713 -0.00656828 -1.27363e-23)
(0.0430188 -0.00643923 1.16383e-23)
(0.0431584 -0.00630642 -3.06973e-24)
(0.0432895 -0.00616991 0)
(0.0434118 -0.00602974 1.12802e-23)
(0.0435247 -0.00588594 -1.1078e-23)
(0.0436275 -0.00573847 -2.78536e-23)
(0.0437197 -0.00558727 8.69005e-23)
(0.0438005 -0.00543223 -7.23007e-23)
(0.0438689 -0.00527332 -6.14027e-23)
(0.0439241 -0.00511044 0)
(0.0439652 -0.00494315 -2.92435e-22)
(0.043991 -0.0047709 2.57734e-22)
(0.0440003 -0.00459292 -9.23507e-23)
(0.0439911 -0.00440875 9.67302e-23)
(0.0439613 -0.00421803 1.57739e-22)
(0.0439081 -0.00402012 1.79269e-22)
(0.0438284 -0.00381414 1.12285e-22)
(0.043718 -0.00359958 0)
(0.0435729 -0.00337577 -1.87696e-22)
(0.0433881 -0.00314264 0)
(0.0431588 -0.00290009 4.37994e-23)
(0.0428794 -0.00264869 1.85018e-22)
(0.0425397 -0.00238793 -1.29159e-22)
(0.0421174 -0.00211371 -3.77819e-22)
(0.0415731 -0.00181767 2.90229e-22)
(0.040867 -0.00149546 -3.38358e-23)
(0.0400163 -0.0011635 1.95222e-22)
(0.0391753 -0.000884303 -2.72282e-21)
(0.0385893 -0.000757883 -8.80645e-22)
(0.0384087 -0.000814607 -1.37829e-21)
(0.0382813 -0.000752664 1.38415e-21)
(0.0344614 -0.00769368 0)
(0.0346989 -0.0077949 0)
(0.0349398 -0.00789079 -2.78178e-21)
(0.035183 -0.00797972 4.11781e-21)
(0.0354289 -0.00806163 1.30034e-21)
(0.0356778 -0.00813675 0)
(0.0359295 -0.00820488 0)
(0.0361835 -0.00826573 -1.13532e-21)
(0.0364396 -0.00831921 2.13346e-21)
(0.0366974 -0.00836527 -1.06711e-22)
(0.0369565 -0.00840389 -4.94135e-21)
(0.0372164 -0.00843502 9.71626e-22)
(0.0374767 -0.00845862 -8.53865e-22)
(0.0377369 -0.00847463 1.71916e-21)
(0.0379966 -0.00848303 -7.74067e-22)
(0.0382554 -0.00848381 0)
(0.0385129 -0.008477 0)
(0.0387686 -0.00846261 4.10275e-23)
(0.0390224 -0.0084407 1.83381e-21)
(0.0392737 -0.00841133 -5.7663e-22)
(0.0395225 -0.00837458 4.94277e-22)
(0.0397682 -0.00833054 -4.92387e-22)
(0.0400106 -0.00827931 -4.13644e-22)
(0.0402494 -0.00822103 4.54711e-22)
(0.0404843 -0.0081558 3.72473e-22)
(0.040715 -0.00808378 0)
(0.0409413 -0.0080051 0)
(0.0411628 -0.00791991 -3.64604e-22)
(0.0413793 -0.00782835 0)
(0.0415906 -0.00773057 -1.46884e-22)
(0.0417962 -0.00762671 1.47257e-22)
(0.041996 -0.00751692 6.24138e-23)
(0.0421898 -0.00740091 -4.66908e-23)
(0.0423771 -0.00728037 -3.11041e-23)
(0.0425577 -0.0071562 1.61494e-23)
(0.0427314 -0.00702767 -1.92691e-23)
(0.042898 -0.00689482 3.46836e-23)
(0.0430571 -0.00675776 0)
(0.0432084 -0.00661659 0)
(0.0433514 -0.00647137 1.85054e-23)
(0.043486 -0.00632214 0)
(0.0436116 -0.00616889 0)
(0.0437278 -0.00601159 -6.59625e-23)
(0.0438342 -0.00585015 9.23416e-23)
(0.0439301 -0.00568447 -5.36302e-23)
(0.044015 -0.00551437 7.85199e-23)
(0.0440881 -0.0053396 0)
(0.0441485 -0.00515978 3.16067e-22)
(0.0441953 -0.00497447 -3.00442e-23)
(0.0442273 -0.00478313 0)
(0.0442433 -0.00458488 -4.00512e-22)
(0.0442416 -0.00437875 -4.02834e-23)
(0.0442198 -0.00416371 -3.4602e-22)
(0.0441752 -0.00393865 -2.21021e-22)
(0.0441046 -0.00370243 -3.25278e-22)
(0.0440042 -0.00345397 3.27206e-22)
(0.04387 -0.00319227 1.93676e-22)
(0.0436977 -0.00291648 0)
(0.0434821 -0.00262592 -1.4197e-22)
(0.0432144 -0.00231912 1.30921e-22)
(0.0428764 -0.00199192 0)
(0.0424349 -0.00163625 0)
(0.041851 -0.00124514 -2.96278e-22)
(0.041121 -0.000826442 0)
(0.0403379 -0.000414543 0)
(0.0397113 -8.27071e-05 4.86776e-22)
(0.0394275 0.000109578 9.79007e-22)
(0.0394166 0.000199078 7.72356e-22)
(0.0389836 0.000485971 0)
(0.0342737 -0.00815168 0)
(0.0345272 -0.00825426 0)
(0.0347839 -0.00835102 0)
(0.0350426 -0.00844024 1.39149e-21)
(0.0353034 -0.00852182 1.28245e-21)
(0.0355666 -0.00859603 -9.84404e-23)
(0.035832 -0.00866264 -2.48276e-21)
(0.0360991 -0.00872137 1.16558e-21)
(0.0363678 -0.00877211 -1.09356e-21)
(0.0366379 -0.00881485 -2.09221e-21)
(0.036909 -0.00884958 0)
(0.037181 -0.00887628 0)
(0.0374534 -0.00889491 -4.64149e-23)
(0.0377257 -0.00890546 -2.5269e-21)
(0.0379975 -0.00890792 3.06736e-21)
(0.0382684 -0.00890231 -9.53067e-23)
(0.0385379 -0.00888865 -1.40326e-21)
(0.0388056 -0.008867 -6.4628e-22)
(0.039071 -0.00883742 -4.03093e-23)
(0.0393339 -0.00879999 0)
(0.0395938 -0.0087548 -9.68361e-22)
(0.0398504 -0.00870197 0)
(0.0401032 -0.00864161 -7.86962e-22)
(0.0403521 -0.00857386 1.03425e-21)
(0.0405966 -0.00849888 -9.39312e-22)
(0.0408365 -0.00841681 -2.37447e-22)
(0.0410715 -0.00832781 3.02971e-22)
(0.0413013 -0.00823206 -2.6472e-22)
(0.0415255 -0.00812972 1.65961e-22)
(0.0417441 -0.00802093 0)
(0.0419566 -0.0079059 5.36489e-23)
(0.0421629 -0.00778469 -3.46991e-23)
(0.0423627 -0.00765709 -1.84675e-23)
(0.0425556 -0.00752544 -3.39158e-23)
(0.0427415 -0.00738965 3.91524e-23)
(0.0429202 -0.00724928 -3.84819e-23)
(0.0430915 -0.00710442 -2.13924e-23)
(0.0432551 -0.00695517 4.46597e-23)
(0.0434107 -0.00680162 1.88945e-23)
(0.0435581 -0.00664381 -6.21726e-23)
(0.0436969 -0.00648174 -7.45892e-24)
(0.0438269 -0.00631538 0)
(0.0439478 -0.00614464 2.48177e-23)
(0.0440591 -0.00596937 -5.26244e-23)
(0.0441604 -0.00578938 5.51518e-23)
(0.0442511 -0.00560439 0)
(0.0443308 -0.00541405 0)
(0.0443984 -0.00521782 1.58049e-22)
(0.0444533 -0.00501499 -2.7557e-22)
(0.044494 -0.00480473 -6.00884e-22)
(0.0445193 -0.00458607 1.12335e-21)
(0.0445274 -0.00435777 -3.15089e-22)
(0.0445162 -0.00411841 2.76344e-22)
(0.0444829 -0.00386642 2.28315e-22)
(0.0444248 -0.00360022 -5.08335e-22)
(0.0443386 -0.00331825 5.10488e-22)
(0.044221 -0.00301895 0)
(0.0440674 -0.00270059 -5.378e-22)
(0.04387 -0.00236058 1.42228e-22)
(0.043613 -0.00199422 3.59572e-22)
(0.0432683 -0.00159333 0)
(0.0428006 -0.00114905 0)
(0.0421971 -0.000663678 0)
(0.0415205 -0.0001616 6.15637e-23)
(0.0409337 0.000314322 -9.16071e-23)
(0.040631 0.000704041 -5.62707e-22)
(0.0406341 0.00099999 9.14505e-22)
(0.0405591 0.00129994 -3.68938e-22)
(0.0395253 0.0018863 -6.83994e-22)
(0.0340783 -0.00864142 0)
(0.0343486 -0.00874522 3.06745e-21)
(0.0346222 -0.00884267 -3.78573e-21)
(0.0348981 -0.00893201 2.08589e-21)
(0.0351758 -0.0090131 -4.13963e-21)
(0.0354557 -0.00908619 -1.29338e-21)
(0.0357373 -0.00915105 -1.22866e-21)
(0.0360201 -0.00920739 0)
(0.0363039 -0.00925509 2.22459e-21)
(0.0365884 -0.00929414 2.07579e-21)
(0.0368735 -0.00932455 -2.04033e-21)
(0.037159 -0.0093463 9.20043e-22)
(0.0374444 -0.00935939 -8.1107e-22)
(0.0377294 -0.00936382 9.40568e-22)
(0.0380136 -0.0093596 3.02456e-21)
(0.0382967 -0.00934679 -1.0276e-22)
(0.0385782 -0.00932543 -1.01819e-22)
(0.0388577 -0.00929562 -1.25669e-21)
(0.0391347 -0.00925743 -5.72143e-22)
(0.0394089 -0.00921098 -9.50791e-22)
(0.0396798 -0.00915638 9.98154e-22)
(0.039947 -0.00909378 0)
(0.0402103 -0.00902331 5.41601e-23)
(0.0404691 -0.00894516 0)
(0.0407232 -0.00885948 2.86975e-22)
(0.0409722 -0.00876646 2.43007e-22)
(0.0412159 -0.00866628 -1.00042e-22)
(0.0414539 -0.00855914 0)
(0.0416861 -0.00844521 -2.56195e-23)
(0.041912 -0.00832467 -2.56559e-23)
(0.0421315 -0.00819775 2.57159e-23)
(0.0423444 -0.00806441 -7.19831e-25)
(0.0425505 -0.00792484 -8.79565e-23)
(0.0427492 -0.00778148 1.81758e-22)
(0.0429407 -0.00763356 -5.96684e-23)
(0.0431249 -0.00748093 0)
(0.0433014 -0.00732371 -5.81006e-23)
(0.0434701 -0.007162 1.88251e-23)
(0.0436308 -0.00699588 8.89523e-23)
(0.0437832 -0.00682536 -7.94235e-23)
(0.0439273 -0.00665042 1.4435e-23)
(0.0440627 -0.00647099 -5.94401e-23)
(0.0441892 -0.00628692 3.78208e-23)
(0.0443066 -0.00609802 0)
(0.0444143 -0.00590397 0)
(0.0445121 -0.0057044 0)
(0.0445994 -0.00549877 1.97957e-22)
(0.0446754 -0.00528645 2.01429e-22)
(0.0447392 -0.00506656 0)
(0.0447899 -0.00483801 3.70748e-22)
(0.0448259 -0.0045995 4.53866e-22)
(0.0448456 -0.00434953 4.16472e-22)
(0.0448471 -0.00408644 0)
(0.0448284 -0.00380835 0)
(0.0447872 -0.00351326 -7.12482e-22)
(0.0447211 -0.00319907 7.14518e-22)
(0.0446261 -0.00286319 0)
(0.0444954 -0.00250204 5.49801e-22)
(0.044315 -0.00211004 -5.08591e-22)
(0.0440606 -0.00167858 -7.11899e-22)
(0.0437015 -0.00119787 4.93568e-22)
(0.0432235 -0.000665552 -4.98505e-22)
(0.0426728 -9.92038e-05 0)
(0.042186 0.000467419 -1.42733e-22)
(0.0419391 0.00100121 1.15541e-22)
(0.0419915 0.00147411 -4.38988e-22)
(0.0420967 0.00193716 -4.85294e-23)
(0.0415804 0.00252358 -5.49135e-22)
(0.0396337 0.00342417 6.88388e-22)
(0.0338761 -0.00916569 8.2992e-22)
(0.0341639 -0.00927048 0)
(0.0344554 -0.00936837 7.66833e-22)
(0.0347492 -0.00945754 -3.59716e-21)
(0.035045 -0.0095378 6.26867e-21)
(0.0353428 -0.00960943 -1.3737e-21)
(0.0356424 -0.00967219 1.2616e-21)
(0.0359429 -0.00972576 -2.31512e-21)
(0.036244 -0.00977003 1.16719e-21)
(0.0365453 -0.00980497 1.06749e-21)
(0.0368467 -0.00983059 9.7514e-22)
(0.0371478 -0.0098469 -2.74274e-21)
(0.0374483 -0.00985391 9.4205e-22)
(0.0377479 -0.00985161 -2.33873e-21)
(0.0380461 -0.00984006 -6.52317e-22)
(0.0383427 -0.00981933 1.1073e-22)
(0.0386371 -0.0097895 1.31143e-21)
(0.0389291 -0.00975069 0)
(0.0392182 -0.00970301 0)
(0.039504 -0.00964661 4.32237e-22)
(0.0397862 -0.00958165 4.33218e-22)
(0.0400642 -0.0095083 6.58128e-22)
(0.0403379 -0.00942674 -3.25489e-22)
(0.0406067 -0.00933718 -4.56376e-22)
(0.0408703 -0.00923982 4.55939e-22)
(0.0411285 -0.00913487 -5.99909e-23)
(0.0413808 -0.00902256 -3.5975e-23)
(0.0416271 -0.0089031 0)
(0.0418671 -0.00877671 2.62019e-23)
(0.0421004 -0.0086436 -4.68502e-23)
(0.042327 -0.008504 -4.1722e-23)
(0.0425465 -0.00835779 8.89301e-23)
(0.0427589 -0.00820589 -9.55932e-23)
(0.0429637 -0.00805007 0)
(0.0431611 -0.00788951 6.49236e-23)
(0.0433509 -0.0077242 -7.25847e-23)
(0.043533 -0.00755427 5.91935e-23)
(0.0437072 -0.00737982 -1.51782e-22)
(0.0438733 -0.00720091 0)
(0.0440313 -0.00701755 -2.43849e-23)
(0.044181 -0.00682966 2.30293e-23)
(0.0443222 -0.00663715 -4.12168e-23)
(0.0444549 -0.00643982 1.51223e-22)
(0.0445787 -0.00623739 -3.1284e-22)
(0.0446933 -0.0060295 2.09044e-22)
(0.0447984 -0.00581564 2.22382e-22)
(0.0448936 -0.00559517 -1.76695e-22)
(0.0449781 -0.00536727 5.03771e-22)
(0.0450514 -0.0051309 -4.5598e-22)
(0.0451123 -0.0048848 -1.14873e-21)
(0.0451599 -0.00462746 4.12454e-23)
(0.0451928 -0.00435716 -4.26738e-22)
(0.04521 -0.00407198 0)
(0.0452101 -0.00376977 0)
(0.0451912 -0.00344802 -9.37393e-22)
(0.0451503 -0.0031036 1.3407e-21)
(0.0450811 -0.00273206 -9.2895e-22)
(0.044971 -0.00232687 0)
(0.0447991 -0.00187893 1.01923e-21)
(0.0445397 -0.0013779 1.5597e-21)
(0.0441817 -0.000819052 -6.61784e-22)
(0.0437655 -0.000213628 5.17163e-23)
(0.043411 0.000410006 7.54842e-22)
(0.0432816 0.00102686 -2.32477e-22)
(0.0434437 0.00162795 -1.15053e-21)
(0.0437011 0.00223847 8.24119e-22)
(0.0435334 0.00295535 1.78439e-22)
(0.0421578 0.00387879 0)
(0.0391337 0.00513158 0)
(0.0336679 -0.00972785 -8.53331e-22)
(0.0339743 -0.00983332 -4.04829e-21)
(0.0342846 -0.0099313 3.19662e-21)
(0.0345972 -0.0100199 0)
(0.0349119 -0.0100989 7.10982e-22)
(0.0352288 -0.0101686 2.61813e-21)
(0.0355472 -0.0102287 -1.96934e-21)
(0.0358666 -0.010279 2.91593e-21)
(0.0361864 -0.0103193 -2.30819e-21)
(0.0365062 -0.0103495 0)
(0.0368257 -0.0103697 -5.17182e-22)
(0.0371444 -0.01038 0)
(0.037462 -0.0103802 -7.69154e-22)
(0.0377781 -0.0103705 2.43126e-21)
(0.0380923 -0.0103509 0)
(0.0384041 -0.0103215 0)
(0.0387132 -0.0102824 0)
(0.0390192 -0.0102337 7.55343e-22)
(0.0393217 -0.0101757 -1.00312e-21)
(0.0396203 -0.0101084 -4.42127e-22)
(0.0399146 -0.0100322 0)
(0.0402043 -0.0099471 0)
(0.0404889 -0.00985346 0)