/*--------------------------------*- C++ -*----------------------------------*\
| =========                 |                                                 |
| \\      /  F ield         | OpenFOAM: The Open Source CFD Toolbox           |
|  \\    /   O peration     | Version:  2312                                  |
|   \\  /    A nd           | Website:  www.openfoam.com                      |
|    \\/     M anipulation  |                                                 |
\*---------------------------------------------------------------------------*/
FoamFile
{
    version     2.0;
    format      ascii;
    arch        "LSB;label=32;scalar=64";
    class       volScalarField;
    location    "200";
    object      nut;
}
// * * * * * * * * * * * * * * * * * * * * * * * * * * * * * * * * * * * * * //

dimensions      [0 2 -1 0 0 0 0];

internalField   nonuniform List<scalar> 
76025
(
6.18805e-06
6.1864e-06
6.18522e-06
6.18476e-06
6.1858e-06
6.18692e-06
6.18803e-06
6.18852e-06
6.18857e-06
6.18898e-06
6.18987e-06
6.19127e-06
6.19238e-06
6.19359e-06
6.19479e-06
6.19539e-06
6.19561e-06
6.19574e-06
6.19533e-06
6.19429e-06
6.19267e-06
6.19049e-06
6.18786e-06
6.18484e-06
6.18127e-06
6.17744e-06
6.17306e-06
6.16747e-06
6.16549e-06
6.16326e-06
6.16126e-06
6.15728e-06
6.15148e-06
6.14428e-06
6.13507e-06
6.12348e-06
6.11097e-06
6.09494e-06
6.0745e-06
6.05291e-06
6.03125e-06
6.00998e-06
5.98869e-06
5.96727e-06
5.94543e-06
5.92258e-06
5.89831e-06
5.87211e-06
5.84419e-06
5.81412e-06
5.78072e-06
5.7427e-06
5.69862e-06
5.64635e-06
5.58656e-06
5.5139e-06
5.42712e-06
5.32496e-06
5.20023e-06
5.04037e-06
4.83083e-06
4.56507e-06
4.19599e-06
3.50991e-06
3.21007e-06
1.01291e-05
5.93803e-05
0.000147455
0.000230221
6.17316e-06
6.17195e-06
6.17038e-06
6.16871e-06
6.16722e-06
6.16611e-06
6.16547e-06
6.16512e-06
6.16475e-06
6.16419e-06
6.16353e-06
6.16291e-06
6.16239e-06
6.16184e-06
6.16121e-06
6.16059e-06
6.15976e-06
6.15865e-06
6.15726e-06
6.15554e-06
6.15341e-06
6.15079e-06
6.14766e-06
6.14399e-06
6.13977e-06
6.13498e-06
6.12962e-06
6.12361e-06
6.11705e-06
6.10992e-06
6.10218e-06
6.09372e-06
6.08446e-06
6.07433e-06
6.06328e-06
6.05124e-06
6.03819e-06
6.02414e-06
6.00911e-06
5.99361e-06
5.97784e-06
5.96161e-06
5.944e-06
5.92468e-06
5.90321e-06
5.8797e-06
5.85444e-06
5.82743e-06
5.7982e-06
5.76575e-06
5.72872e-06
5.68562e-06
5.63488e-06
5.57498e-06
5.50415e-06
5.42104e-06
5.32377e-06
5.20856e-06
5.06648e-06
4.88036e-06
4.63779e-06
4.34137e-06
3.87604e-06
3.13703e-06
3.89094e-06
1.95837e-05
8.5655e-05
0.00017034
0.000248319
6.15351e-06
6.15325e-06
6.15251e-06
6.15132e-06
6.14977e-06
6.148e-06
6.1462e-06
6.14451e-06
6.14296e-06
6.14144e-06
6.13988e-06
6.13822e-06
6.13649e-06
6.1347e-06
6.13281e-06
6.13083e-06
6.12873e-06
6.12645e-06
6.12395e-06
6.1212e-06
6.11814e-06
6.11473e-06
6.11091e-06
6.10666e-06
6.10192e-06
6.09667e-06
6.09087e-06
6.0845e-06
6.07752e-06
6.06991e-06
6.06163e-06
6.05266e-06
6.04296e-06
6.03249e-06
6.02121e-06
6.00909e-06
5.99607e-06
5.98209e-06
5.9671e-06
5.95102e-06
5.93374e-06
5.91511e-06
5.89492e-06
5.87297e-06
5.84907e-06
5.82355e-06
5.79743e-06
5.76942e-06
5.73799e-06
5.70168e-06
5.6592e-06
5.60942e-06
5.55124e-06
5.4834e-06
5.40448e-06
5.31283e-06
5.20563e-06
5.07606e-06
4.91038e-06
4.69233e-06
4.42571e-06
4.08154e-06
3.48618e-06
2.93238e-06
6.06726e-06
3.64134e-05
0.000111867
0.000191574
0.000263235
6.1311e-06
6.13099e-06
6.13065e-06
6.13002e-06
6.12903e-06
6.12768e-06
6.126e-06
6.12407e-06
6.12198e-06
6.1198e-06
6.11752e-06
6.11514e-06
6.11264e-06
6.11001e-06
6.10725e-06
6.10434e-06
6.10126e-06
6.098e-06
6.09454e-06
6.09083e-06
6.08685e-06
6.08257e-06
6.07795e-06
6.07294e-06
6.06752e-06
6.06164e-06
6.05527e-06
6.04838e-06
6.04092e-06
6.03286e-06
6.02417e-06
6.0148e-06
6.00472e-06
5.99387e-06
5.98221e-06
5.96967e-06
5.95619e-06
5.94168e-06
5.92605e-06
5.90918e-06
5.89091e-06
5.87107e-06
5.84945e-06
5.82577e-06
5.80004e-06
5.77306e-06
5.74386e-06
5.71117e-06
5.67383e-06
5.63083e-06
5.58129e-06
5.52427e-06
5.45865e-06
5.38303e-06
5.2958e-06
5.19462e-06
5.07431e-06
4.92376e-06
4.72789e-06
4.48136e-06
4.18786e-06
3.76235e-06
3.07465e-06
3.17167e-06
1.16277e-05
5.96821e-05
0.000136668
0.000210027
0.00027555
6.10703e-06
6.10666e-06
6.10617e-06
6.10553e-06
6.10468e-06
6.1036e-06
6.10223e-06
6.10056e-06
6.0986e-06
6.09637e-06
6.0939e-06
6.09123e-06
6.08834e-06
6.08526e-06
6.08197e-06
6.07848e-06
6.07476e-06
6.07083e-06
6.06664e-06
6.0622e-06
6.05748e-06
6.05244e-06
6.04707e-06
6.04134e-06
6.0352e-06
6.02863e-06
6.02159e-06
6.01404e-06
6.00594e-06
5.99726e-06
5.98793e-06
5.97793e-06
5.96718e-06
5.95563e-06
5.94321e-06
5.92984e-06
5.91543e-06
5.89986e-06
5.88301e-06
5.86473e-06
5.84482e-06
5.82307e-06
5.79922e-06
5.77299e-06
5.74421e-06
5.71303e-06
5.67875e-06
5.64034e-06
5.5969e-06
5.5476e-06
5.4916e-06
5.42779e-06
5.35481e-06
5.27113e-06
5.1747e-06
5.06143e-06
4.92238e-06
4.74381e-06
4.51696e-06
4.24764e-06
3.91136e-06
3.36692e-06
2.77152e-06
4.44371e-06
2.35729e-05
8.58176e-05
0.000159084
0.000225568
0.000285483
6.08017e-06
6.07981e-06
6.07922e-06
6.07844e-06
6.07747e-06
6.07631e-06
6.07493e-06
6.07332e-06
6.07145e-06
6.06931e-06
6.06688e-06
6.06418e-06
6.0612e-06
6.05795e-06
6.05443e-06
6.05063e-06
6.04655e-06
6.04219e-06
6.03753e-06
6.03257e-06
6.02728e-06
6.02164e-06
6.01564e-06
6.00924e-06
6.00242e-06
5.99514e-06
5.98738e-06
5.97908e-06
5.97021e-06
5.96071e-06
5.95053e-06
5.93963e-06
5.92791e-06
5.91532e-06
5.90177e-06
5.88714e-06
5.87134e-06
5.85422e-06
5.83562e-06
5.81537e-06
5.79326e-06
5.76903e-06
5.74241e-06
5.71308e-06
5.68067e-06
5.64478e-06
5.60493e-06
5.56056e-06
5.511e-06
5.4554e-06
5.39257e-06
5.32111e-06
5.2398e-06
5.14687e-06
5.03874e-06
4.90819e-06
4.74316e-06
4.53346e-06
4.28324e-06
3.98537e-06
3.5699e-06
2.93468e-06
2.83183e-06
8.25841e-06
4.35537e-05
0.000111585
0.000178552
0.000238194
0.000293189
6.04967e-06
6.0494e-06
6.04887e-06
6.04808e-06
6.04705e-06
6.04578e-06
6.04429e-06
6.04255e-06
6.04058e-06
6.03835e-06
6.03585e-06
6.03307e-06
6.02999e-06
6.02662e-06
6.02294e-06
6.01894e-06
6.01461e-06
6.00994e-06
6.00493e-06
5.99956e-06
5.9938e-06
5.98765e-06
5.98108e-06
5.97407e-06
5.96658e-06
5.95858e-06
5.95004e-06
5.9409e-06
5.93113e-06
5.92066e-06
5.90944e-06
5.8974e-06
5.88446e-06
5.87053e-06
5.8555e-06
5.83927e-06
5.82168e-06
5.8026e-06
5.78185e-06
5.75923e-06
5.7345e-06
5.7074e-06
5.67764e-06
5.64486e-06
5.60866e-06
5.56854e-06
5.52392e-06
5.47409e-06
5.41816e-06
5.35506e-06
5.28359e-06
5.20259e-06
5.11148e-06
5.00676e-06
4.88207e-06
4.72729e-06
4.53194e-06
4.29766e-06
4.02253e-06
3.67719e-06
3.15147e-06
2.60106e-06
3.7924e-06
1.76424e-05
6.89854e-05
0.000135143
0.000194773
0.000248015
0.000298805
6.01602e-06
6.01555e-06
6.01488e-06
6.01398e-06
6.01285e-06
6.01147e-06
6.00983e-06
6.00794e-06
6.00578e-06
6.00336e-06
6.00065e-06
5.99766e-06
5.99437e-06
5.99076e-06
5.98683e-06
5.98255e-06
5.97792e-06
5.97291e-06
5.96752e-06
5.96171e-06
5.95548e-06
5.9488e-06
5.94164e-06
5.93397e-06
5.92576e-06
5.91697e-06
5.90756e-06
5.89749e-06
5.88669e-06
5.8751e-06
5.86266e-06
5.84929e-06
5.83489e-06
5.81937e-06
5.80262e-06
5.78449e-06
5.76485e-06
5.74353e-06
5.72034e-06
5.69505e-06
5.66743e-06
5.63718e-06
5.60397e-06
5.56741e-06
5.52702e-06
5.48223e-06
5.43236e-06
5.37656e-06
5.3138e-06
5.24283e-06
5.16214e-06
5.06992e-06
4.96649e-06
4.84491e-06
4.69717e-06
4.51331e-06
4.29293e-06
4.03266e-06
3.72341e-06
3.29349e-06
2.70569e-06
2.64516e-06
7.10179e-06
3.56465e-05
9.54852e-05
0.00015555
0.000207676
0.000255182
0.000302348
5.97991e-06
5.97892e-06
5.97779e-06
5.9765e-06
5.97502e-06
5.97332e-06
5.97139e-06
5.96922e-06
5.96677e-06
5.96405e-06
5.96104e-06
5.95772e-06
5.95408e-06
5.95011e-06
5.9458e-06
5.94111e-06
5.93605e-06
5.93058e-06
5.92468e-06
5.91834e-06
5.91151e-06
5.90419e-06
5.89633e-06
5.88789e-06
5.87885e-06
5.86916e-06
5.85876e-06
5.8476e-06
5.83562e-06
5.82276e-06
5.80893e-06
5.79404e-06
5.77801e-06
5.76071e-06
5.74202e-06
5.7218e-06
5.69989e-06
5.6761e-06
5.65023e-06
5.62203e-06
5.59122e-06
5.55748e-06
5.52041e-06
5.47955e-06
5.43435e-06
5.38414e-06
5.3281e-06
5.26527e-06
5.19447e-06
5.1143e-06
5.02299e-06
4.91809e-06
4.79806e-06
4.65362e-06
4.47858e-06
4.26904e-06
4.02155e-06
3.73025e-06
3.36105e-06
2.83821e-06
2.40561e-06
3.68479e-06
1.60392e-05
6.08098e-05
0.000120019
0.000172344
0.000217373
0.00025985
0.000303654
5.94091e-06
5.93938e-06
5.9377e-06
5.93585e-06
5.93382e-06
5.9316e-06
5.92916e-06
5.92649e-06
5.92357e-06
5.92038e-06
5.91689e-06
5.91309e-06
5.90896e-06
5.90449e-06
5.89964e-06
5.89441e-06
5.88876e-06
5.88267e-06
5.87612e-06
5.86908e-06
5.86152e-06
5.8534e-06
5.84468e-06
5.83533e-06
5.8253e-06
5.81454e-06
5.80299e-06
5.79059e-06
5.77727e-06
5.76296e-06
5.74756e-06
5.73099e-06
5.71313e-06
5.69385e-06
5.67303e-06
5.65049e-06
5.62606e-06
5.59953e-06
5.57066e-06
5.53917e-06
5.50472e-06
5.46694e-06
5.42537e-06
5.37946e-06
5.32856e-06
5.27189e-06
5.20853e-06
5.13737e-06
5.05709e-06
4.96602e-06
4.86181e-06
4.74098e-06
4.59868e-06
4.42922e-06
4.22673e-06
3.98795e-06
3.71023e-06
3.37536e-06
2.91905e-06
2.4083e-06
2.61186e-06
7.49594e-06
3.43435e-05
8.79919e-05
0.000141096
0.000185403
0.000224092
0.000262198
0.000302764
5.89756e-06
5.89566e-06
5.89354e-06
5.89119e-06
5.88863e-06
5.88584e-06
5.88282e-06
5.87955e-06
5.87601e-06
5.87219e-06
5.86808e-06
5.86364e-06
5.85886e-06
5.85371e-06
5.84817e-06
5.84222e-06
5.83582e-06
5.82895e-06
5.82158e-06
5.81368e-06
5.8052e-06
5.79611e-06
5.78637e-06
5.77592e-06
5.76472e-06
5.75271e-06
5.73982e-06
5.72599e-06
5.71114e-06
5.69518e-06
5.67801e-06
5.65952e-06
5.63959e-06
5.61807e-06
5.59481e-06
5.56962e-06
5.54229e-06
5.51257e-06
5.48019e-06
5.44481e-06
5.40605e-06
5.36345e-06
5.31649e-06
5.26453e-06
5.20681e-06
5.14245e-06
5.07038e-06
4.98936e-06
4.89775e-06
4.79326e-06
4.67251e-06
4.53086e-06
4.36321e-06
4.16458e-06
3.93161e-06
3.66281e-06
3.3483e-06
2.93978e-06
2.44547e-06
2.26114e-06
4.23625e-06
1.81372e-05
6.04736e-05
0.0001131
0.000158076
0.000194861
0.000228105
0.000262423
0.00029985
5.84828e-06
5.84609e-06
5.84363e-06
5.8409e-06
5.8379e-06
5.83463e-06
5.83106e-06
5.82721e-06
5.82305e-06
5.81857e-06
5.81375e-06
5.80859e-06
5.80305e-06
5.79711e-06
5.79075e-06
5.78393e-06
5.77664e-06
5.76883e-06
5.76048e-06
5.75154e-06
5.74197e-06
5.73173e-06
5.72076e-06
5.70902e-06
5.69644e-06
5.68296e-06
5.66851e-06
5.65301e-06
5.63636e-06
5.61847e-06
5.59922e-06
5.57848e-06
5.55611e-06
5.53194e-06
5.50578e-06
5.47743e-06
5.44662e-06
5.41308e-06
5.37648e-06
5.33642e-06
5.29247e-06
5.24409e-06
5.19066e-06
5.13145e-06
5.06559e-06
4.99204e-06
4.90959e-06
4.81661e-06
4.7108e-06
4.58881e-06
4.44612e-06
4.27811e-06
4.08103e-06
3.8516e-06
3.58841e-06
3.2864e-06
2.90866e-06
2.45225e-06
2.13831e-06
2.9697e-06
1.00145e-05
3.9284e-05
8.82931e-05
0.000134183
0.000170826
0.000200997
0.000229661
0.000260767
0.000296356
5.79211e-06
5.78949e-06
5.78661e-06
5.78344e-06
5.77998e-06
5.77621e-06
5.77211e-06
5.76768e-06
5.7629e-06
5.75776e-06
5.75223e-06
5.7463e-06
5.73995e-06
5.73315e-06
5.72587e-06
5.71809e-06
5.70978e-06
5.7009e-06
5.69141e-06
5.68126e-06
5.67042e-06
5.65883e-06
5.64643e-06
5.63316e-06
5.61896e-06
5.60374e-06
5.58743e-06
5.56994e-06
5.55115e-06
5.53094e-06
5.50919e-06
5.48575e-06
5.46044e-06
5.43307e-06
5.40343e-06
5.37125e-06
5.33626e-06
5.29811e-06
5.25642e-06
5.21075e-06
5.16055e-06
5.10522e-06
5.04403e-06
4.97612e-06
4.90047e-06
4.81583e-06
4.72055e-06
4.61226e-06
4.48754e-06
4.34218e-06
4.17163e-06
3.97392e-06
3.74617e-06
3.48636e-06
3.19148e-06
2.83371e-06
2.4123e-06
2.07582e-06
2.4348e-06
6.29824e-06
2.51856e-05
6.73195e-05
0.000113135
0.000150534
0.000179546
0.000204144
0.000228902
0.000257254
0.000290434
5.72847e-06
5.72516e-06
5.7216e-06
5.71777e-06
5.71365e-06
5.70922e-06
5.70444e-06
5.69931e-06
5.6938e-06
5.68789e-06
5.68155e-06
5.67476e-06
5.6675e-06
5.65973e-06
5.65143e-06
5.64256e-06
5.6331e-06
5.62298e-06
5.61218e-06
5.60065e-06
5.58832e-06
5.57515e-06
5.56106e-06
5.54599e-06
5.52986e-06
5.51259e-06
5.49406e-06
5.47418e-06
5.45282e-06
5.42984e-06
5.40509e-06
5.37839e-06
5.34955e-06
5.31834e-06
5.2845e-06
5.24773e-06
5.2077e-06
5.16402e-06
5.11622e-06
5.06376e-06
5.00603e-06
4.9423e-06
4.87171e-06
4.79321e-06
4.70551e-06
4.60681e-06
4.49467e-06
4.36563e-06
4.21565e-06
4.04107e-06
3.83968e-06
3.61308e-06
3.35526e-06
3.06392e-06
2.7185e-06
2.32863e-06
2.0093e-06
2.1887e-06
4.60193e-06
1.69321e-05
5.09315e-05
9.4949e-05
0.000133038
0.000162141
0.000184621
0.000204646
0.000226022
0.000252849
0.000281935
5.65641e-06
5.65216e-06
5.64767e-06
5.64292e-06
5.63787e-06
5.6325e-06
5.62679e-06
5.62071e-06
5.61422e-06
5.60731e-06
5.59994e-06
5.59209e-06
5.5837e-06
5.57477e-06
5.56523e-06
5.55506e-06
5.54422e-06
5.53264e-06
5.52029e-06
5.5071e-06
5.49302e-06
5.47797e-06
5.46188e-06
5.44466e-06
5.42624e-06
5.40649e-06
5.38532e-06
5.36259e-06
5.33815e-06
5.31185e-06
5.2835e-06
5.25291e-06
5.21982e-06
5.18399e-06
5.1451e-06
5.10279e-06
5.05667e-06
5.00626e-06
4.95101e-06
4.89027e-06
4.82332e-06
4.74926e-06
4.66701e-06
4.57513e-06
4.4717e-06
4.35405e-06
4.21891e-06
4.06227e-06
3.88193e-06
3.67621e-06
3.44606e-06
3.19365e-06
2.90305e-06
2.56505e-06
2.20555e-06
1.92688e-06
2.05561e-06
3.81257e-06
1.24727e-05
3.92657e-05
7.98927e-05
0.000117937
0.000147544
0.000169382
0.000186482
0.000202816
0.00022252
0.00024507
0.00026937
5.57384e-06
5.56852e-06
5.56293e-06
5.55705e-06
5.55085e-06
5.54432e-06
5.53741e-06
5.53011e-06
5.52238e-06
5.51419e-06
5.5055e-06
5.49627e-06
5.48648e-06
5.47606e-06
5.46499e-06
5.4532e-06
5.44066e-06
5.42729e-06
5.41304e-06
5.39784e-06
5.38162e-06
5.36429e-06
5.34578e-06
5.32598e-06
5.30478e-06
5.28206e-06
5.2577e-06
5.23152e-06
5.20337e-06
5.17306e-06
5.14035e-06
5.10502e-06
5.06677e-06
5.02529e-06
4.98021e-06
4.93109e-06
4.87743e-06
4.81868e-06
4.75417e-06
4.68313e-06
4.60463e-06
4.51745e-06
4.42001e-06
4.31016e-06
4.18513e-06
4.04175e-06
3.87696e-06
3.68849e-06
3.47877e-06
3.24551e-06
2.99205e-06
2.70217e-06
2.37515e-06
2.04834e-06
1.8308e-06
1.9882e-06
3.48467e-06
1.02254e-05
3.16844e-05
6.81109e-05
0.000105127
0.000134988
0.000156952
0.000172807
0.00018554
0.0001984
0.000216121
0.000234312
0.000254017
5.47722e-06
5.47075e-06
5.46397e-06
5.45685e-06
5.44936e-06
5.44148e-06
5.43319e-06
5.42444e-06
5.41522e-06
5.40548e-06
5.39518e-06
5.38428e-06
5.37274e-06
5.36051e-06
5.34754e-06
5.33376e-06
5.31911e-06
5.30354e-06
5.28695e-06
5.26928e-06
5.25043e-06
5.23031e-06
5.20882e-06
5.18584e-06
5.16123e-06
5.13486e-06
5.10656e-06
5.07614e-06
5.0434e-06
5.00811e-06
4.97e-06
4.92878e-06
4.88408e-06
4.83553e-06
4.78265e-06
4.72494e-06
4.6618e-06
4.59253e-06
4.51631e-06
4.43212e-06
4.33855e-06
4.23376e-06
4.11544e-06
3.98091e-06
3.82723e-06
3.65296e-06
3.45639e-06
3.23982e-06
3.0091e-06
2.75307e-06
2.4644e-06
2.15493e-06
1.87192e-06
1.72958e-06
1.97699e-06
3.44559e-06
9.27888e-06
2.71882e-05
5.94067e-05
9.45053e-05
0.000124038
0.000146228
0.00016189
0.000173004
0.000182509
0.000194264
0.000207527
0.000221096
0.000236295
5.36144e-06
5.35373e-06
5.34565e-06
5.33717e-06
5.32825e-06
5.31887e-06
5.30901e-06
5.29862e-06
5.28767e-06
5.27612e-06
5.26393e-06
5.25105e-06
5.23742e-06
5.223e-06
5.20771e-06
5.1915e-06
5.17429e-06
5.15599e-06
5.13653e-06
5.11579e-06
5.09368e-06
5.0701e-06
5.04491e-06
5.01797e-06
4.98912e-06
4.95818e-06
4.92494e-06
4.88919e-06
4.85067e-06
4.80909e-06
4.76412e-06
4.71539e-06
4.66248e-06
4.6049e-06
4.54211e-06
4.47347e-06
4.39822e-06
4.31546e-06
4.22395e-06
4.1221e-06
4.00774e-06
3.87866e-06
3.73238e-06
3.56754e-06
3.38246e-06
3.18043e-06
2.95936e-06
2.7272e-06
2.47113e-06
2.19158e-06
1.91249e-06
1.69383e-06
1.64829e-06
2.03643e-06
3.64275e-06
9.1797e-06
2.48502e-05
5.32591e-05
8.57801e-05
0.000114326
0.000136481
0.000152353
0.000163021
0.00017036
0.000176869
0.000187345
0.000196659
0.000205814
0.000216674
5.21959e-06
5.21045e-06
5.20088e-06
5.19083e-06
5.18027e-06
5.16916e-06
5.15748e-06
5.14518e-06
5.13221e-06
5.11854e-06
5.10411e-06
5.08886e-06
5.07274e-06
5.05568e-06
5.0376e-06
5.01842e-06
4.99806e-06
4.97642e-06
4.95339e-06
4.92885e-06
4.9027e-06
4.87477e-06
4.84492e-06
4.81298e-06
4.77873e-06
4.74196e-06
4.70243e-06
4.65986e-06
4.61393e-06
4.56429e-06
4.51053e-06
4.45219e-06
4.38877e-06
4.31967e-06
4.2442e-06
4.1615e-06
4.07042e-06
3.96957e-06
3.85704e-06
3.7307e-06
3.58856e-06
3.42988e-06
3.25298e-06
3.06138e-06
2.85326e-06
2.63822e-06
2.4054e-06
2.15393e-06
1.89829e-06
1.66837e-06
1.53763e-06
1.62424e-06
2.21262e-06
4.10731e-06
9.73464e-06
2.39599e-05
4.89506e-05
7.84251e-05
0.000105376
0.000127103
0.000143215
0.000154149
0.000161026
0.000165916
0.000172209
0.00017889
0.000184069
0.000188951
0.000195616
5.04208e-06
5.03119e-06
5.0198e-06
5.00784e-06
4.99528e-06
4.98208e-06
4.96819e-06
4.95357e-06
4.93815e-06
4.9219e-06
4.90473e-06
4.88659e-06
4.8674e-06
4.84708e-06
4.82554e-06
4.80268e-06
4.77839e-06
4.75256e-06
4.72504e-06
4.6957e-06
4.66442e-06
4.63102e-06
4.59528e-06
4.55699e-06
4.5159e-06
4.47174e-06
4.42419e-06
4.37291e-06
4.31752e-06
4.25757e-06
4.19258e-06
4.122e-06
4.04515e-06
3.96123e-06
3.86918e-06
3.76761e-06
3.65487e-06
3.52919e-06
3.38887e-06
3.23288e-06
3.06283e-06
2.88018e-06
2.68295e-06
2.48279e-06
2.26916e-06
2.04249e-06
1.8146e-06
1.60342e-06
1.45797e-06
1.43788e-06
1.70487e-06
2.57358e-06
4.90267e-06
1.08266e-05
2.39205e-05
4.56516e-05
7.17032e-05
9.65387e-05
0.000117454
0.000133655
0.000145078
0.000152172
0.000156062
0.000158694
0.000164965
0.000168766
0.000170247
0.000171109
0.000173675
4.81492e-06
4.80185e-06
4.78818e-06
4.77385e-06
4.75881e-06
4.74299e-06
4.72636e-06
4.70884e-06
4.69038e-06
4.67091e-06
4.65034e-06
4.62859e-06
4.60557e-06
4.58119e-06
4.55531e-06
4.52784e-06
4.49862e-06
4.46751e-06
4.43434e-06
4.39899e-06
4.36123e-06
4.32085e-06
4.27759e-06
4.23118e-06
4.18133e-06
4.1277e-06
4.06992e-06
4.00756e-06
3.94017e-06
3.86719e-06
3.78797e-06
3.70175e-06
3.60748e-06
3.50385e-06
3.38942e-06
3.2626e-06
3.12268e-06
2.96844e-06
2.80294e-06
2.62647e-06
2.44684e-06
2.26101e-06
2.06563e-06
1.86322e-06
1.66376e-06
1.4844e-06
1.35676e-06
1.31439e-06
1.46269e-06
1.96581e-06
3.21405e-06
6.0878e-06
1.22907e-05
2.41242e-05
4.24571e-05
6.47211e-05
8.70066e-05
0.000106784
0.000122892
0.000134856
0.000142652
0.000146832
0.00014896
0.000152717
0.0001566
0.0001576
0.000155848
0.000153052
0.000151627
4.51668e-06
4.50089e-06
4.48439e-06
4.46709e-06
4.44892e-06
4.42983e-06
4.40975e-06
4.3886e-06
4.36631e-06
4.34278e-06
4.31793e-06
4.29164e-06
4.26379e-06
4.23428e-06
4.20294e-06
4.16963e-06
4.13418e-06
4.0964e-06
4.05619e-06
4.0133e-06
3.96747e-06
3.91844e-06
3.8659e-06
3.80951e-06
3.7489e-06
3.68365e-06
3.61331e-06
3.53733e-06
3.45509e-06
3.3658e-06
3.2685e-06
3.16207e-06
3.04511e-06
2.9168e-06
2.77621e-06
2.62582e-06
2.46716e-06
2.29875e-06
2.13502e-06
1.96709e-06
1.79413e-06
1.62225e-06
1.45689e-06
1.31643e-06
1.22146e-06
1.20138e-06
1.31743e-06
1.67232e-06
2.48677e-06
4.20914e-06
7.61151e-06
1.3766e-05
2.38274e-05
3.83818e-05
5.64778e-05
7.58395e-05
9.42081e-05
0.000110044
0.000122478
0.000131113
0.000135981
0.000137823
0.000138666
0.000144069
0.000146643
0.000145587
0.00014134
0.000135478
0.000130326
4.11463e-06
4.09556e-06
4.07564e-06
4.05476e-06
4.03284e-06
4.0098e-06
3.98557e-06
3.96006e-06
3.93316e-06
3.90477e-06
3.87477e-06
3.84305e-06
3.80945e-06
3.77382e-06
3.73599e-06
3.69579e-06
3.65299e-06
3.60747e-06
3.55897e-06
3.50719e-06
3.45184e-06
3.39259e-06
3.3291e-06
3.26095e-06
3.18771e-06
3.10882e-06
3.0237e-06
2.9316e-06
2.83173e-06
2.72308e-06
2.60498e-06
2.47655e-06
2.33977e-06
2.19654e-06
2.04654e-06
1.9032e-06
1.75962e-06
1.61491e-06
1.47277e-06
1.33624e-06
1.2167e-06
1.1268e-06
1.06995e-06
1.08972e-06
1.21736e-06
1.52081e-06
2.13942e-06
3.33653e-06
5.52472e-06
9.16484e-06
1.45889e-05
2.21262e-05
3.24208e-05
4.59632e-05
6.20228e-05
7.86972e-05
9.40615e-05
0.000106844
0.000116328
0.000122182
0.000124502
0.000124068
0.000127135
0.000133123
0.000134917
0.000132575
0.000126686
0.000118563
0.000110281
3.56061e-06
3.53792e-06
3.51423e-06
3.48941e-06
3.46337e-06
3.43602e-06
3.40727e-06
3.37702e-06
3.34515e-06
3.31155e-06
3.27607e-06
3.23858e-06
3.19892e-06
3.15691e-06
3.11237e-06
3.06508e-06
3.01494e-06
2.96171e-06
2.90505e-06
2.84464e-06
2.78011e-06
2.71108e-06
2.63708e-06
2.55764e-06
2.47225e-06
2.38033e-06
2.28135e-06
2.17495e-06
2.06074e-06
1.94014e-06
1.81531e-06
1.68606e-06
1.56636e-06
1.45143e-06
1.33815e-06
1.22784e-06
1.12737e-06
1.04281e-06
9.7878e-07
9.35508e-07
9.43174e-07
1.0121e-06
1.16852e-06
1.4621e-06
1.98446e-06
2.89405e-06
4.42161e-06
6.79032e-06
1.00128e-05
1.38239e-05
1.81605e-05
2.38773e-05
3.25246e-05
4.47183e-05
5.91367e-05
7.36346e-05
8.65108e-05
9.6733e-05
0.000103696
0.000107136
0.000107435
0.00010804
0.000113555
0.000119214
0.000120561
0.000117626
0.00011092
0.000101451
9.09592e-05
2.8001e-06
2.77469e-06
2.74821e-06
2.72054e-06
2.69158e-06
2.66125e-06
2.62944e-06
2.59607e-06
2.56101e-06
2.52416e-06
2.48538e-06
2.44455e-06
2.4015e-06
2.35608e-06
2.30812e-06
2.25741e-06
2.20362e-06
2.14642e-06
2.0855e-06
2.02056e-06
1.95133e-06
1.87756e-06
1.79908e-06
1.71587e-06
1.62795e-06
1.53562e-06
1.43974e-06
1.34183e-06
1.2425e-06
1.15236e-06
1.07013e-06
9.94902e-07
9.2833e-07
8.72587e-07
8.22438e-07
7.87402e-07
7.84074e-07
8.11473e-07
8.75048e-07
9.87063e-07
1.16904e-06
1.45693e-06
1.9079e-06
2.60915e-06
3.67298e-06
5.19128e-06
7.10761e-06
9.09682e-06
1.07024e-05
1.18787e-05
1.34937e-05
1.71602e-05
2.43996e-05
3.51108e-05
4.75215e-05
5.96638e-05
7.00839e-05
7.78791e-05
8.24402e-05
8.32712e-05
8.36605e-05
8.66093e-05
9.28143e-05
9.94457e-05
0.000101252
9.84966e-05
9.17387e-05
8.18026e-05
7.0113e-05
1.82177e-06
1.7978e-06
1.77296e-06
1.74713e-06
1.72025e-06
1.69225e-06
1.66306e-06
1.63261e-06
1.60084e-06
1.56767e-06
1.53303e-06
1.49682e-06
1.45899e-06
1.41932e-06
1.37734e-06
1.3329e-06
1.28596e-06
1.23654e-06
1.18477e-06
1.13084e-06
1.07508e-06
1.01794e-06
9.60041e-07
9.01925e-07
8.45228e-07
7.91877e-07
7.43369e-07
7.00887e-07
6.65391e-07
6.37826e-07
6.18186e-07
6.17432e-07
6.32937e-07
6.63854e-07
7.119e-07
7.80534e-07
8.75035e-07
1.0036e-06
1.17911e-06
1.42237e-06
1.76341e-06
2.23713e-06
2.8786e-06
3.70618e-06
4.64764e-06
5.48635e-06
5.88662e-06
5.66314e-06
5.12586e-06
4.79931e-06
5.1424e-06
6.78057e-06
1.10628e-05
1.81893e-05
2.67373e-05
3.50279e-05
4.15678e-05
4.58304e-05
4.96519e-05
5.21957e-05
5.46286e-05
5.81451e-05
6.30848e-05
6.89205e-05
7.25461e-05
7.09034e-05
6.48283e-05
5.52795e-05
4.36029e-05
8.0889e-07
7.9525e-07
7.8127e-07
7.66904e-07
7.52124e-07
7.36903e-07
7.21216e-07
7.05041e-07
6.88358e-07
6.71146e-07
6.53384e-07
6.35051e-07
6.16165e-07
5.96887e-07
5.77583e-07
5.58478e-07
5.39792e-07
5.21768e-07
5.04677e-07
4.88821e-07
4.74525e-07
4.6211e-07
4.52077e-07
4.43661e-07
4.45301e-07
4.56583e-07
4.74288e-07
4.97667e-07
5.26796e-07
5.61962e-07
6.0344e-07
6.51377e-07
7.05879e-07
7.67372e-07
8.37293e-07
9.18914e-07
1.01797e-06
1.1442e-06
1.30934e-06
1.52157e-06
1.76865e-06
2.02139e-06
2.2434e-06
2.37364e-06
2.3083e-06
1.97272e-06
1.46465e-06
9.65153e-07
7.76433e-07
7.48069e-07
9.17207e-07
1.40576e-06
2.44685e-06
4.25956e-06
6.87207e-06
1.00349e-05
1.32952e-05
1.62712e-05
1.89994e-05
2.13496e-05
2.3521e-05
2.57725e-05
2.80698e-05
3.0052e-05
3.04193e-05
2.81578e-05
2.34811e-05
1.73571e-05
1.13914e-05
2.41741e-07
2.46323e-07
2.50845e-07
2.55275e-07
2.59594e-07
2.63788e-07
2.67838e-07
2.71774e-07
2.76098e-07
2.80979e-07
2.86505e-07
2.92757e-07
2.9981e-07
3.07728e-07
3.16575e-07
3.26412e-07
3.37286e-07
3.49232e-07
3.62256e-07
3.76328e-07
3.91364e-07
4.07205e-07
4.23599e-07
4.40148e-07
4.56376e-07
4.71635e-07
4.85079e-07
4.95734e-07
5.02601e-07
5.0482e-07
5.01937e-07
4.94305e-07
4.8356e-07
4.72735e-07
4.65183e-07
4.6285e-07
4.67934e-07
4.86389e-07
5.18707e-07
5.39559e-07
5.07189e-07
4.2549e-07
3.2005e-07
2.10431e-07
1.62071e-07
1.22684e-07
8.63827e-08
6.10262e-08
5.02369e-08
5.07174e-08
6.43912e-08
9.93928e-08
1.72552e-07
3.07244e-07
5.31702e-07
8.66624e-07
1.30915e-06
1.82042e-06
2.35713e-06
2.88214e-06
3.36706e-06
3.78846e-06
4.09654e-06
4.20787e-06
3.98757e-06
3.37982e-06
2.51781e-06
1.62103e-06
9.08747e-07
1.44002e-07
1.48279e-07
1.52545e-07
1.56779e-07
1.6094e-07
1.64983e-07
1.68865e-07
1.72487e-07
1.75412e-07
1.77533e-07
1.78828e-07
1.79294e-07
1.78912e-07
1.77648e-07
1.75459e-07
1.72298e-07
1.68116e-07
1.62868e-07
1.56517e-07
1.49039e-07
1.40433e-07
1.30731e-07
1.20011e-07
1.08403e-07
9.61035e-08
8.33768e-08
7.05554e-08
5.80282e-08
4.62203e-08
3.55632e-08
2.64614e-08
1.92489e-08
1.40903e-08
1.08536e-08
8.76655e-09
6.74423e-09
4.61474e-09
2.93242e-09
2.36801e-09
2.7794e-09
3.50984e-09
3.83796e-09
3.41181e-09
2.70245e-09
2.08664e-09
1.51773e-09
1.1025e-09
8.52509e-10
7.30463e-10
6.91921e-10
7.17633e-10
7.7555e-10
8.46296e-10
1.05782e-09
1.70056e-09
2.83323e-09
4.72183e-09
7.37679e-09
1.02471e-08
1.2936e-08
1.52179e-08
1.70178e-08
1.827e-08
1.83259e-08
1.69329e-08
1.48965e-08
2.02986e-08
2.2057e-08
1.58197e-08
5.98535e-06
5.9841e-06
5.98288e-06
5.98253e-06
5.98369e-06
5.98798e-06
5.99461e-06
6.00065e-06
6.007e-06
6.01112e-06
6.01768e-06
6.02662e-06
6.03276e-06
6.03874e-06
6.03957e-06
6.03774e-06
6.0341e-06
6.03953e-06
6.05461e-06
6.08069e-06
6.09064e-06
6.07364e-06
6.07112e-06
6.07456e-06
6.05547e-06
6.04402e-06
6.0526e-06
6.0639e-06
6.07454e-06
6.09432e-06
6.11296e-06
6.10086e-06
6.09307e-06
6.08947e-06
6.09478e-06
6.10267e-06
6.11012e-06
6.10656e-06
6.11275e-06
6.1282e-06
6.14329e-06
6.1492e-06
6.15419e-06
6.157e-06
6.15857e-06
6.1683e-06
6.17663e-06
6.18215e-06
6.18424e-06
6.18583e-06
6.1856e-06
6.18599e-06
6.18702e-06
6.18979e-06
6.19175e-06
6.19249e-06
6.19224e-06
6.19097e-06
6.1893e-06
5.96906e-06
5.96988e-06
5.97173e-06
5.97486e-06
5.97938e-06
5.98478e-06
5.99019e-06
5.99544e-06
6.00081e-06
6.0066e-06
6.01348e-06
6.01983e-06
6.02419e-06
6.02632e-06
6.02518e-06
6.02353e-06
6.02547e-06
6.03628e-06
6.05482e-06
6.07328e-06
6.07376e-06
6.06103e-06
6.06098e-06
6.05975e-06
6.04184e-06
6.0338e-06
6.04256e-06
6.05345e-06
6.06406e-06
6.08253e-06
6.1007e-06
6.0918e-06
6.08335e-06
6.07892e-06
6.0822e-06
6.08896e-06
6.09657e-06
6.09609e-06
6.09812e-06
6.10837e-06
6.12269e-06
6.13242e-06
6.1383e-06
6.14189e-06
6.14342e-06
6.14742e-06
6.15396e-06
6.16062e-06
6.16534e-06
6.16818e-06
6.16956e-06
6.16992e-06
6.16994e-06
6.1704e-06
6.17136e-06
6.1725e-06
6.17342e-06
6.17392e-06
6.17385e-06
5.9583e-06
5.9612e-06
5.96492e-06
5.96929e-06
5.97406e-06
5.9789e-06
5.98378e-06
5.98893e-06
5.99431e-06
6.00003e-06
6.00552e-06
6.00943e-06
6.01133e-06
6.01119e-06
6.01034e-06
6.01194e-06
6.01934e-06
6.03359e-06
6.05073e-06
6.06099e-06
6.05674e-06
6.04845e-06
6.04872e-06
6.04377e-06
6.02789e-06
6.02282e-06
6.03153e-06
6.04205e-06
6.05258e-06
6.06988e-06
6.0871e-06
6.08141e-06
6.07281e-06
6.06765e-06
6.06906e-06
6.0745e-06
6.08157e-06
6.08356e-06
6.08419e-06
6.08988e-06
6.10113e-06
6.11221e-06
6.11992e-06
6.12472e-06
6.12715e-06
6.12904e-06
6.13249e-06
6.13741e-06
6.14248e-06
6.14656e-06
6.14941e-06
6.15102e-06
6.15169e-06
6.15184e-06
6.15193e-06
6.15216e-06
6.15255e-06
6.15299e-06
6.15336e-06
5.95022e-06
5.95387e-06
5.9579e-06
5.96215e-06
5.96655e-06
5.97108e-06
5.97576e-06
5.98062e-06
5.9855e-06
5.98998e-06
5.99333e-06
5.99505e-06
5.99543e-06
5.99542e-06
5.99714e-06
6.00297e-06
6.01412e-06
6.0288e-06
6.0416e-06
6.04538e-06
6.03988e-06
6.03494e-06
6.03424e-06
6.02682e-06
6.01334e-06
6.01075e-06
6.01933e-06
6.0295e-06
6.03991e-06
6.0561e-06
6.07229e-06
6.06941e-06
6.06121e-06
6.05542e-06
6.05519e-06
6.05917e-06
6.06533e-06
6.06883e-06
6.06965e-06
6.07237e-06
6.07983e-06
6.08979e-06
6.09859e-06
6.10484e-06
6.10859e-06
6.11057e-06
6.11233e-06
6.11495e-06
6.11846e-06
6.12218e-06
6.1255e-06
6.12806e-06
6.12976e-06
6.1307e-06
6.13109e-06
6.13117e-06
6.13115e-06
6.13111e-06
6.1311e-06
5.94133e-06
5.94493e-06
5.94875e-06
5.9527e-06
5.95678e-06
5.96096e-06
5.9652e-06
5.96928e-06
5.97287e-06
5.97558e-06
5.97717e-06
5.97792e-06
5.97868e-06
5.98082e-06
5.98602e-06
5.99521e-06
6.00764e-06
6.02016e-06
6.0279e-06
6.02768e-06
6.0228e-06
6.01984e-06
6.01759e-06
6.00887e-06
5.99792e-06
5.99738e-06
6.00579e-06
6.01564e-06
6.02587e-06
6.04102e-06
6.05618e-06
6.05565e-06
6.04829e-06
6.04204e-06
6.04038e-06
6.04288e-06
6.04789e-06
6.05199e-06
6.05358e-06
6.05491e-06
6.05912e-06
6.06652e-06
6.07483e-06
6.08193e-06
6.08698e-06
6.08999e-06
6.09168e-06
6.09307e-06
6.09484e-06
6.09713e-06
6.09965e-06
6.10207e-06
6.10411e-06
6.10564e-06
6.10665e-06
6.1072e-06
6.10742e-06
6.1074e-06
6.10726e-06
5.92997e-06
5.93332e-06
5.93683e-06
5.94041e-06
5.94403e-06
5.94757e-06
5.95087e-06
5.9537e-06
5.95589e-06
5.95742e-06
5.95858e-06
5.96004e-06
5.96278e-06
5.96785e-06
5.97592e-06
5.98659e-06
5.99801e-06
6.007e-06
6.01053e-06
6.00851e-06
6.00487e-06
6.00265e-06
5.99885e-06
5.98983e-06
5.98138e-06
5.98248e-06
5.9907e-06
6.00025e-06
6.01025e-06
6.02441e-06
6.03857e-06
6.03994e-06
6.03373e-06
6.02727e-06
6.02441e-06
6.02544e-06
6.02917e-06
6.03317e-06
6.03544e-06
6.03648e-06
6.03855e-06
6.04313e-06
6.04963e-06
6.05639e-06
6.06211e-06
6.06618e-06
6.06867e-06
6.07008e-06
6.07106e-06
6.07209e-06
6.07335e-06
6.07479e-06
6.07626e-06
6.0776e-06
6.07869e-06
6.07949e-06
6.08e-06
6.08025e-06
6.08028e-06
5.91527e-06
5.91825e-06
5.92129e-06
5.92429e-06
5.92715e-06
5.92977e-06
5.93206e-06
5.93397e-06
5.93561e-06
5.93726e-06
5.93945e-06
5.94283e-06
5.94806e-06
5.95551e-06
5.96492e-06
5.97513e-06
5.98408e-06
5.98949e-06
5.99029e-06
5.98796e-06
5.98538e-06
5.98307e-06
5.97804e-06
5.96948e-06
5.96341e-06
5.9658e-06
5.97383e-06
5.98308e-06
5.99282e-06
6.00604e-06
6.01924e-06
6.02211e-06
6.0172e-06
6.01082e-06
6.00699e-06
6.00663e-06
6.00901e-06
6.01241e-06
6.01499e-06
6.01621e-06
6.01724e-06
6.01957e-06
6.02374e-06
6.02905e-06
6.0344e-06
6.03892e-06
6.04219e-06
6.04424e-06
6.04537e-06
6.04599e-06
6.04644e-06
6.04691e-06
6.04744e-06
6.04802e-06
6.04858e-06
6.04905e-06
6.04941e-06
6.04962e-06
6.04969e-06
5.89622e-06
5.89868e-06
5.90113e-06
5.90347e-06
5.90565e-06
5.90769e-06
5.90961e-06
5.91158e-06
5.91385e-06
5.91678e-06
5.92081e-06
5.92629e-06
5.93341e-06
5.94191e-06
5.95103e-06
5.95941e-06
5.96549e-06
5.96814e-06
5.96763e-06
5.96567e-06
5.96369e-06
5.96084e-06
5.95509e-06
5.94755e-06
5.94365e-06
5.94705e-06
5.9549e-06
5.96385e-06
5.97328e-06
5.98561e-06
5.99789e-06
6.00189e-06
5.99836e-06