/*--------------------------------*- C++ -*----------------------------------*\
| =========                 |                                                 |
| \\      /  F ield         | OpenFOAM: The Open Source CFD Toolbox           |
|  \\    /   O peration     | Version:  2312                                  |
|   \\  /    A nd           | Website:  www.openfoam.com                      |
|    \\/     M anipulation  |                                                 |
\*---------------------------------------------------------------------------*/
FoamFile
{
    version     2.0;
    format      ascii;
    arch        "LSB;label=32;scalar=64";
    class       volScalarField;
    location    "200";
    object      nuTilda;
}
// * * * * * * * * * * * * * * * * * * * * * * * * * * * * * * * * * * * * * //

dimensions      [0 2 -1 0 0 0 0];

internalField   nonuniform List<scalar> 
76025
(
4.02226e-05
4.02195e-05
4.02174e-05
4.02165e-05
4.02184e-05
4.02205e-05
4.02225e-05
4.02234e-05
4.02235e-05
4.02243e-05
4.02259e-05
4.02285e-05
4.02305e-05
4.02327e-05
4.02349e-05
4.0236e-05
4.02364e-05
4.02367e-05
4.02359e-05
4.0234e-05
4.02311e-05
4.02271e-05
4.02222e-05
4.02167e-05
4.02101e-05
4.02031e-05
4.0195e-05
4.01847e-05
4.01811e-05
4.0177e-05
4.01733e-05
4.01659e-05
4.01553e-05
4.0142e-05
4.0125e-05
4.01036e-05
4.00804e-05
4.00507e-05
4.00128e-05
3.99726e-05
3.99322e-05
3.98925e-05
3.98526e-05
3.98124e-05
3.97713e-05
3.97282e-05
3.96823e-05
3.96327e-05
3.95796e-05
3.95222e-05
3.94583e-05
3.93853e-05
3.93002e-05
3.91988e-05
3.90821e-05
3.89391e-05
3.87669e-05
3.85618e-05
3.8308e-05
3.79769e-05
3.75326e-05
3.69507e-05
3.61049e-05
3.43918e-05
3.35725e-05
4.64059e-05
8.92624e-05
0.000160274
0.000236454
4.01952e-05
4.0193e-05
4.01901e-05
4.0187e-05
4.01843e-05
4.01822e-05
4.0181e-05
4.01804e-05
4.01797e-05
4.01787e-05
4.01775e-05
4.01763e-05
4.01754e-05
4.01744e-05
4.01732e-05
4.01721e-05
4.01705e-05
4.01685e-05
4.01659e-05
4.01628e-05
4.01588e-05
4.0154e-05
4.01482e-05
4.01414e-05
4.01337e-05
4.01248e-05
4.01149e-05
4.01038e-05
4.00917e-05
4.00785e-05
4.00641e-05
4.00485e-05
4.00313e-05
4.00125e-05
3.99919e-05
3.99695e-05
3.99452e-05
3.99189e-05
3.98908e-05
3.98618e-05
3.98322e-05
3.98017e-05
3.97686e-05
3.97322e-05
3.96916e-05
3.96471e-05
3.95991e-05
3.95477e-05
3.94918e-05
3.94296e-05
3.93584e-05
3.92751e-05
3.91765e-05
3.90594e-05
3.89199e-05
3.87547e-05
3.85594e-05
3.83251e-05
3.80314e-05
3.76387e-05
3.71121e-05
3.64437e-05
3.53311e-05
3.33652e-05
3.53681e-05
5.71448e-05
0.000109199
0.000180677
0.000253758
4.0159e-05
4.01585e-05
4.01572e-05
4.0155e-05
4.01521e-05
4.01488e-05
4.01455e-05
4.01424e-05
4.01395e-05
4.01367e-05
4.01339e-05
4.01308e-05
4.01276e-05
4.01243e-05
4.01208e-05
4.01171e-05
4.01133e-05
4.01091e-05
4.01044e-05
4.00993e-05
4.00937e-05
4.00874e-05
4.00803e-05
4.00724e-05
4.00637e-05
4.00539e-05
4.00432e-05
4.00313e-05
4.00184e-05
4.00042e-05
3.99888e-05
3.99721e-05
3.99541e-05
3.99345e-05
3.99135e-05
3.98908e-05
3.98664e-05
3.98402e-05
3.98121e-05
3.97818e-05
3.97493e-05
3.97141e-05
3.96759e-05
3.96343e-05
3.95889e-05
3.95402e-05
3.94903e-05
3.94366e-05
3.93762e-05
3.93061e-05
3.92238e-05
3.91268e-05
3.90127e-05
3.88788e-05
3.87216e-05
3.85373e-05
3.8319e-05
3.80514e-05
3.77027e-05
3.7232e-05
3.66368e-05
3.58327e-05
3.43287e-05
3.27663e-05
3.99993e-05
7.17285e-05
0.000130064
0.000200129
0.000268123
4.01176e-05
4.01174e-05
4.01168e-05
4.01156e-05
4.01138e-05
4.01113e-05
4.01082e-05
4.01047e-05
4.01008e-05
4.00967e-05
4.00925e-05
4.00881e-05
4.00835e-05
4.00786e-05
4.00735e-05
4.00681e-05
4.00624e-05
4.00564e-05
4.005e-05
4.00431e-05
4.00357e-05
4.00278e-05
4.00192e-05
4.00099e-05
3.99998e-05
3.99889e-05
3.9977e-05
3.99642e-05
3.99503e-05
3.99352e-05
3.9919e-05
3.99015e-05
3.98826e-05
3.98623e-05
3.98404e-05
3.98169e-05
3.97916e-05
3.97642e-05
3.97348e-05
3.97029e-05
3.96683e-05
3.96307e-05
3.95896e-05
3.95445e-05
3.94953e-05
3.94436e-05
3.93875e-05
3.93245e-05
3.92522e-05
3.91686e-05
3.90717e-05
3.89596e-05
3.88297e-05
3.86787e-05
3.85028e-05
3.82965e-05
3.80478e-05
3.77311e-05
3.73097e-05
3.67629e-05
3.60857e-05
3.5046e-05
3.31856e-05
3.34639e-05
4.83797e-05
8.94888e-05
0.000150902
0.000217348
0.000280041
4.00731e-05
4.00724e-05
4.00715e-05
4.00703e-05
4.00688e-05
4.00668e-05
4.00642e-05
4.00611e-05
4.00575e-05
4.00534e-05
4.00488e-05
4.00438e-05
4.00385e-05
4.00328e-05
4.00266e-05
4.00202e-05
4.00133e-05
4.00059e-05
3.99982e-05
3.99899e-05
3.99811e-05
3.99717e-05
3.99617e-05
3.9951e-05
3.99396e-05
3.99273e-05
3.99142e-05
3.99001e-05
3.98849e-05
3.98687e-05
3.98512e-05
3.98324e-05
3.98122e-05
3.97905e-05
3.97671e-05
3.97419e-05
3.97147e-05
3.96853e-05
3.96533e-05
3.96186e-05
3.95808e-05
3.95393e-05
3.94938e-05
3.94435e-05
3.93882e-05
3.93281e-05
3.92617e-05
3.91871e-05
3.91023e-05
3.90056e-05
3.88951e-05
3.87682e-05
3.8622e-05
3.84527e-05
3.82556e-05
3.80209e-05
3.77282e-05
3.73444e-05
3.68431e-05
3.62261e-05
3.54186e-05
3.40072e-05
3.22754e-05
3.66777e-05
6.09095e-05
0.000109325
0.00017056
0.00023203
0.000289686
4.00233e-05
4.00226e-05
4.00215e-05
4.00201e-05
4.00183e-05
4.00161e-05
4.00136e-05
4.00106e-05
4.00071e-05
4.00031e-05
3.99986e-05
3.99936e-05
3.9988e-05
3.9982e-05
3.99754e-05
3.99684e-05
3.99608e-05
3.99526e-05
3.99439e-05
3.99347e-05
3.99248e-05
3.99143e-05
3.99031e-05
3.98911e-05
3.98783e-05
3.98647e-05
3.98501e-05
3.98346e-05
3.98179e-05
3.98001e-05
3.97809e-05
3.97604e-05
3.97383e-05
3.97145e-05
3.96889e-05
3.96612e-05
3.96312e-05
3.95987e-05
3.95633e-05
3.95246e-05
3.94823e-05
3.94359e-05
3.93847e-05
3.93282e-05
3.92655e-05
3.91958e-05
3.9118e-05
3.90311e-05
3.89334e-05
3.88232e-05
3.86978e-05
3.8554e-05
3.83889e-05
3.81982e-05
3.79735e-05
3.76981e-05
3.7343e-05
3.68801e-05
3.63091e-05
3.56001e-05
3.45501e-05
3.27732e-05
3.24617e-05
4.36932e-05
7.73012e-05
0.000129833
0.000188147
0.000244058
0.000297187
3.99666e-05
3.99661e-05
3.99651e-05
3.99636e-05
3.99617e-05
3.99593e-05
3.99565e-05
3.99533e-05
3.99496e-05
3.99455e-05
3.99408e-05
3.99356e-05
3.99299e-05
3.99236e-05
3.99167e-05
3.99092e-05
3.99011e-05
3.98924e-05
3.9883e-05
3.9873e-05
3.98622e-05
3.98507e-05
3.98383e-05
3.98252e-05
3.98111e-05
3.97961e-05
3.978e-05
3.97628e-05
3.97443e-05
3.97246e-05
3.97034e-05
3.96806e-05
3.96561e-05
3.96297e-05
3.96011e-05
3.95702e-05
3.95367e-05
3.95002e-05
3.94605e-05
3.94171e-05
3.93695e-05
3.93172e-05
3.92596e-05
3.91959e-05
3.91253e-05
3.90467e-05
3.89589e-05
3.88603e-05
3.8749e-05
3.86225e-05
3.8478e-05
3.83128e-05
3.8125e-05
3.79065e-05
3.76424e-05
3.73084e-05
3.68767e-05
3.63426e-05
3.56904e-05
3.48287e-05
3.34065e-05
3.17334e-05
3.51219e-05
5.51948e-05
9.64791e-05
0.000149592
0.000203094
0.000253466
0.000302663
3.99038e-05
3.99029e-05
3.99016e-05
3.99e-05
3.98978e-05
3.98953e-05
3.98922e-05
3.98887e-05
3.98846e-05
3.98801e-05
3.9875e-05
3.98694e-05
3.98632e-05
3.98565e-05
3.98491e-05
3.98411e-05
3.98324e-05
3.9823e-05
3.98128e-05
3.98019e-05
3.97902e-05
3.97776e-05
3.97642e-05
3.97497e-05
3.97342e-05
3.97176e-05
3.96998e-05
3.96808e-05
3.96603e-05
3.96383e-05
3.96147e-05
3.95893e-05
3.95619e-05
3.95323e-05
3.95003e-05
3.94656e-05
3.94279e-05
3.93869e-05
3.93422e-05
3.92933e-05
3.92398e-05
3.9181e-05
3.91162e-05
3.90445e-05
3.8965e-05
3.88765e-05
3.87773e-05
3.86657e-05
3.85392e-05
3.83951e-05
3.82297e-05
3.80386e-05
3.78216e-05
3.75628e-05
3.72426e-05
3.68349e-05
3.63316e-05
3.5715e-05
3.49471e-05
3.38055e-05
3.20689e-05
3.18759e-05
4.18299e-05
7.11171e-05
0.000116886
0.000167415
0.000215141
0.000260357
0.000306121
3.98361e-05
3.98343e-05
3.98322e-05
3.98297e-05
3.98269e-05
3.98238e-05
3.98201e-05
3.9816e-05
3.98115e-05
3.98063e-05
3.98007e-05
3.97944e-05
3.97876e-05
3.97801e-05
3.9772e-05
3.97632e-05
3.97536e-05
3.97433e-05
3.97322e-05
3.97202e-05
3.97073e-05
3.96934e-05
3.96786e-05
3.96626e-05
3.96455e-05
3.96271e-05
3.96073e-05
3.95861e-05
3.95633e-05
3.95387e-05
3.95123e-05
3.94838e-05
3.94531e-05
3.94199e-05
3.9384e-05
3.9345e-05
3.93027e-05
3.92566e-05
3.92064e-05
3.91514e-05
3.90912e-05
3.9025e-05
3.8952e-05
3.88712e-05
3.87813e-05
3.86809e-05
3.85681e-05
3.84408e-05
3.82962e-05
3.81309e-05
3.79405e-05
3.77191e-05
3.7462e-05
3.7147e-05
3.67567e-05
3.6276e-05
3.5688e-05
3.49645e-05
3.39912e-05
3.24812e-05
3.10811e-05
3.48482e-05
5.35089e-05
9.03346e-05
0.000136798
0.000182493
0.00022427
0.000264856
0.000307395
3.97628e-05
3.97599e-05
3.97567e-05
3.97532e-05
3.97494e-05
3.97452e-05
3.97406e-05
3.97356e-05
3.97301e-05
3.9724e-05
3.97175e-05
3.97103e-05
3.97025e-05
3.9694e-05
3.96848e-05
3.96749e-05
3.96642e-05
3.96527e-05
3.96403e-05
3.96269e-05
3.96125e-05
3.95971e-05
3.95805e-05
3.95627e-05
3.95436e-05
3.9523e-05
3.9501e-05
3.94772e-05
3.94517e-05
3.94242e-05
3.93946e-05
3.93627e-05
3.93283e-05
3.9291e-05
3.92506e-05
3.92069e-05
3.91593e-05
3.91075e-05
3.90509e-05
3.8989e-05
3.8921e-05
3.88461e-05
3.87634e-05
3.86715e-05
3.85691e-05
3.84543e-05
3.8325e-05
3.81786e-05
3.80119e-05
3.78207e-05
3.75991e-05
3.73382e-05
3.70255e-05
3.66448e-05
3.61772e-05
3.56064e-05
3.49134e-05
3.40303e-05
3.27264e-05
3.10903e-05
3.17685e-05
4.24841e-05
7.0071e-05
0.000111012
0.000154729
0.000194432
0.00023063
0.000267121
0.000306527
3.96809e-05
3.96773e-05
3.96733e-05
3.96689e-05
3.9664e-05
3.96587e-05
3.9653e-05
3.96468e-05
3.96401e-05
3.96328e-05
3.9625e-05
3.96166e-05
3.96075e-05
3.95977e-05
3.95872e-05
3.95758e-05
3.95636e-05
3.95505e-05
3.95365e-05
3.95214e-05
3.95052e-05
3.94878e-05
3.94692e-05
3.94491e-05
3.94276e-05
3.94045e-05
3.93797e-05
3.93531e-05
3.93244e-05
3.92936e-05
3.92603e-05
3.92244e-05
3.91856e-05
3.91437e-05
3.90982e-05
3.90489e-05
3.89951e-05
3.89365e-05
3.88724e-05
3.88021e-05
3.87248e-05
3.86394e-05
3.85447e-05
3.84393e-05
3.83215e-05
3.81891e-05
3.80396e-05
3.78699e-05
3.76758e-05
3.74516e-05
3.71886e-05
3.68743e-05
3.64939e-05
3.60307e-05
3.54685e-05
3.47917e-05
3.39564e-05
3.27885e-05
3.1217e-05
3.05751e-05
3.61995e-05
5.57006e-05
9.00824e-05
0.000131076
0.000169661
0.000203176
0.000234441
0.000267339
0.000303682
3.95874e-05
3.95832e-05
3.95785e-05
3.95733e-05
3.95676e-05
3.95614e-05
3.95546e-05
3.95472e-05
3.95393e-05
3.95307e-05
3.95215e-05
3.95117e-05
3.95011e-05
3.94897e-05
3.94775e-05
3.94645e-05
3.94505e-05
3.94355e-05
3.94195e-05
3.94023e-05
3.93839e-05
3.93641e-05
3.9343e-05
3.93203e-05
3.9296e-05
3.92699e-05
3.92419e-05
3.92118e-05
3.91794e-05
3.91445e-05
3.91069e-05
3.90662e-05
3.90223e-05
3.89747e-05
3.89231e-05
3.88669e-05
3.88057e-05
3.87388e-05
3.86655e-05
3.85849e-05
3.84961e-05
3.83977e-05
3.82884e-05
3.81664e-05
3.80296e-05
3.78755e-05
3.7701e-05
3.7502e-05
3.72724e-05
3.70036e-05
3.66832e-05
3.62972e-05
3.58315e-05
3.52703e-05
3.45985e-05
3.37858e-05
3.26951e-05
3.124e-05
3.01269e-05
3.28776e-05
4.62484e-05
7.39922e-05
0.000111246
0.000148769
0.000181117
0.00020889
0.000235921
0.00026574
0.000300274
3.94801e-05
3.94751e-05
3.94696e-05
3.94635e-05
3.94569e-05
3.94497e-05
3.94418e-05
3.94333e-05
3.94241e-05
3.94142e-05
3.94036e-05
3.93922e-05
3.938e-05
3.93669e-05
3.93529e-05
3.93378e-05
3.93218e-05
3.93046e-05
3.92863e-05
3.92666e-05
3.92456e-05
3.92231e-05
3.9199e-05
3.91731e-05
3.91454e-05
3.91157e-05
3.90838e-05
3.90495e-05
3.90126e-05
3.89728e-05
3.89299e-05
3.88835e-05
3.88332e-05
3.87787e-05
3.87195e-05
3.8655e-05
3.85846e-05
3.85075e-05
3.84228e-05
3.83295e-05
3.82264e-05
3.8112e-05
3.79846e-05
3.7842e-05
3.76816e-05
3.75003e-05
3.72937e-05
3.70556e-05
3.67769e-05
3.64455e-05
3.60474e-05
3.55722e-05
3.5005e-05
3.43292e-05
3.35201e-05
3.24674e-05
3.1104e-05
2.9892e-05
3.11808e-05
4.04239e-05
6.2359e-05
9.52241e-05
0.000131104
0.000162979
0.000189056
0.000211831
0.000235199
0.000262353
0.000294504
3.93579e-05
3.93515e-05
3.93446e-05
3.93372e-05
3.93293e-05
3.93207e-05
3.93115e-05
3.93016e-05
3.92909e-05
3.92794e-05
3.92672e-05
3.9254e-05
3.92399e-05
3.92248e-05
3.92087e-05
3.91914e-05
3.9173e-05
3.91533e-05
3.91322e-05
3.91096e-05
3.90855e-05
3.90597e-05
3.9032e-05
3.90024e-05
3.89707e-05
3.89365e-05
3.88999e-05
3.88605e-05
3.88181e-05
3.87723e-05
3.87229e-05
3.86694e-05
3.86114e-05
3.85484e-05
3.84799e-05
3.84051e-05
3.83233e-05
3.82336e-05
3.81348e-05
3.80258e-05
3.79049e-05
3.77705e-05
3.76202e-05
3.74515e-05
3.72609e-05
3.70436e-05
3.6793e-05
3.64995e-05
3.61511e-05
3.57353e-05
3.52406e-05
3.46629e-05
3.39754e-05
3.31544e-05
3.21093e-05
3.08142e-05
2.96365e-05
3.03129e-05
3.70327e-05
5.44572e-05
8.29128e-05
0.000116462
0.000147789
0.000173293
0.000193711
0.0002123
0.000232462
0.000258112
0.000286238
3.92184e-05
3.92101e-05
3.92014e-05
3.91921e-05
3.91823e-05
3.91718e-05
3.91607e-05
3.91488e-05
3.91362e-05
3.91227e-05
3.91083e-05
3.90929e-05
3.90765e-05
3.9059e-05
3.90402e-05
3.90203e-05
3.89989e-05
3.89761e-05
3.89518e-05
3.89257e-05
3.88978e-05
3.8868e-05
3.88361e-05
3.88018e-05
3.87651e-05
3.87257e-05
3.86833e-05
3.86376e-05
3.85884e-05
3.85353e-05
3.84779e-05
3.84156e-05
3.83481e-05
3.82746e-05
3.81946e-05
3.8107e-05
3.8011e-05
3.79054e-05
3.77889e-05
3.76599e-05
3.75164e-05
3.73563e-05
3.71765e-05
3.69732e-05
3.67411e-05
3.64728e-05
3.61588e-05
3.57864e-05
3.53457e-05
3.48262e-05
3.42214e-05
3.35262e-05
3.26782e-05
3.16158e-05
3.03744e-05
2.93116e-05
2.9815e-05
3.51726e-05
4.94317e-05
7.39779e-05
0.000104762
0.000135068
0.000160351
0.00017981
0.000195425
0.000210589
0.000229139
0.000250641
0.000274054
3.90571e-05
3.90467e-05
3.90357e-05
3.90242e-05
3.9012e-05
3.89991e-05
3.89855e-05
3.89711e-05
3.89559e-05
3.89397e-05
3.89225e-05
3.89043e-05
3.88849e-05
3.88642e-05
3.88423e-05
3.88188e-05
3.87939e-05
3.87672e-05
3.87388e-05
3.87084e-05
3.86758e-05
3.8641e-05
3.86038e-05
3.85638e-05
3.8521e-05
3.84749e-05
3.84254e-05
3.8372e-05
3.83144e-05
3.82522e-05
3.81848e-05
3.81116e-05
3.80321e-05
3.79454e-05
3.78506e-05
3.77467e-05
3.76325e-05
3.75065e-05
3.73669e-05
3.72119e-05
3.70387e-05
3.68442e-05
3.66238e-05
3.63716e-05
3.60793e-05
3.57369e-05
3.53334e-05
3.48577e-05
3.4309e-05
3.3672e-05
3.29438e-05
3.20577e-05
3.09762e-05
2.97872e-05
2.89204e-05
2.95542e-05
3.43247e-05
4.65374e-05
6.79037e-05
9.582e-05
0.000124585
0.000149459
0.000168661
0.000182914
0.000194557
0.000206468
0.000223088
0.000240352
0.000259236
3.88665e-05
3.88537e-05
3.88402e-05
3.88261e-05
3.88112e-05
3.87955e-05
3.8779e-05
3.87615e-05
3.87431e-05
3.87236e-05
3.8703e-05
3.86812e-05
3.8658e-05
3.86334e-05
3.86073e-05
3.85796e-05
3.855e-05
3.85185e-05
3.84849e-05
3.8449e-05
3.84106e-05
3.83695e-05
3.83256e-05
3.82784e-05
3.82278e-05
3.81734e-05
3.81148e-05
3.80516e-05
3.79833e-05
3.79093e-05
3.78291e-05
3.77418e-05
3.76467e-05
3.75427e-05
3.74287e-05
3.73033e-05
3.7165e-05
3.70119e-05
3.68416e-05
3.66514e-05
3.64372e-05
3.61936e-05
3.59138e-05
3.55892e-05
3.52094e-05
3.47663e-05
3.42492e-05
3.36561e-05
3.29941e-05
3.22178e-05
3.1281e-05
3.01886e-05
2.90896e-05
2.84923e-05
2.95103e-05
3.42202e-05
4.52124e-05
6.41129e-05
8.92823e-05
0.000116112
0.000140161
0.000159199
0.000173067
0.000183092
0.000191771
0.000202622
0.000215001
0.000227791
0.000242244
3.86353e-05
3.86198e-05
3.86035e-05
3.85864e-05
3.85684e-05
3.85495e-05
3.85295e-05
3.85085e-05
3.84863e-05
3.84629e-05
3.84381e-05
3.84119e-05
3.83841e-05
3.83546e-05
3.83233e-05
3.82901e-05
3.82547e-05
3.8217e-05
3.81769e-05
3.81339e-05
3.80881e-05
3.8039e-05
3.79864e-05
3.793e-05
3.78694e-05
3.78041e-05
3.77337e-05
3.76576e-05
3.75752e-05
3.74858e-05
3.73885e-05
3.72825e-05
3.71665e-05
3.70393e-05
3.68995e-05
3.67451e-05
3.65741e-05
3.63838e-05
3.61706e-05
3.59297e-05
3.56546e-05
3.53376e-05
3.49699e-05
3.45439e-05
3.40496e-05
3.34888e-05
3.28469e-05
3.21367e-05
3.13037e-05
3.03234e-05
2.92539e-05
2.83369e-05
2.81357e-05
2.97414e-05
3.47399e-05
4.50691e-05
6.20604e-05
8.46665e-05
0.000109296
0.000132084
0.000150742
0.000164584
0.000174082
0.000180695
0.000186611
0.000196221
0.000204848
0.000213395
0.00022361
3.83476e-05
3.83289e-05
3.83093e-05
3.82887e-05
3.8267e-05
3.82442e-05
3.82201e-05
3.81947e-05
3.81679e-05
3.81396e-05
3.81097e-05
3.80781e-05
3.80445e-05
3.80089e-05
3.79711e-05
3.79309e-05
3.78882e-05
3.78426e-05
3.7794e-05
3.7742e-05
3.76864e-05
3.76268e-05
3.75629e-05
3.74942e-05
3.74202e-05
3.73404e-05
3.72541e-05
3.71607e-05
3.70593e-05
3.6949e-05
3.68286e-05
3.66969e-05
3.65525e-05
3.63936e-05
3.62181e-05
3.60234e-05
3.5806e-05
3.55615e-05
3.52839e-05
3.49656e-05
3.45989e-05
3.41779e-05
3.36929e-05
3.3147e-05
3.25272e-05
3.18536e-05
3.10804e-05
3.01849e-05
2.91967e-05
2.82249e-05
2.76295e-05
2.80277e-05
3.04001e-05
3.58944e-05
4.58595e-05
6.12606e-05
8.14155e-05
0.00010364
0.000124786
0.000142744
0.00015657
0.000166173
0.000172294
0.000176683
0.000182371
0.000188456
0.000193204
0.000197702
0.000203877
3.79805e-05
3.79577e-05
3.79338e-05
3.79087e-05
3.78823e-05
3.78545e-05
3.78252e-05
3.77943e-05
3.77617e-05
3.77272e-05
3.76907e-05
3.7652e-05
3.7611e-05
3.75675e-05
3.75212e-05
3.7472e-05
3.74195e-05
3.73634e-05
3.73035e-05
3.72394e-05
3.71708e-05
3.70971e-05
3.7018e-05
3.69327e-05
3.68407e-05
3.67412e-05
3.66333e-05
3.65162e-05
3.63886e-05
3.62493e-05
3.60968e-05
3.59295e-05
3.57451e-05
3.55411e-05
3.53141e-05
3.50593e-05
3.47712e-05
3.44429e-05
3.4067e-05
3.36366e-05
3.31512e-05
3.26091e-05
3.19967e-05
3.13429e-05
3.06037e-05
2.97647e-05
2.8853e-05
2.79334e-05
2.7249e-05
2.71508e-05
2.83852e-05
3.16438e-05
3.76863e-05
4.73433e-05
6.1225e-05
7.89078e-05
9.85314e-05
0.000117719
0.000134667
0.000148317
0.000158194
0.000164424
0.00016787
0.000170212
0.000175827
0.000179253
0.000180592
0.000181373
0.000183702
3.74984e-05
3.74702e-05
3.74406e-05
3.74096e-05
3.7377e-05
3.73426e-05
3.73064e-05
3.72682e-05
3.72278e-05
3.7185e-05
3.71398e-05
3.70918e-05
3.70408e-05
3.69866e-05
3.6929e-05
3.68675e-05
3.68018e-05
3.67316e-05
3.66564e-05
3.65759e-05
3.64894e-05
3.63963e-05
3.6296e-05
3.61876e-05
3.60703e-05
3.59431e-05
3.58048e-05
3.56541e-05
3.54895e-05
3.53091e-05
3.51108e-05
3.48917e-05
3.46483e-05
3.43758e-05
3.40685e-05
3.37197e-05
3.33241e-05
3.28739e-05
3.23728e-05
3.18157e-05
3.12217e-05
3.05746e-05
2.98533e-05
2.9054e-05
2.82044e-05
2.73769e-05
2.67438e-05
2.65242e-05
2.7272e-05
2.94663e-05
3.35838e-05
4.00375e-05
4.92084e-05
6.1409e-05
7.64569e-05
9.32702e-05
0.000110246
0.000125924
0.0001392
0.000149346
0.00015608
0.000159728
0.000161595
0.000164906
0.000168348
0.000169237
0.000167679
0.000165202
0.000163943
3.68424e-05
3.68069e-05
3.67698e-05
3.67307e-05
3.66895e-05
3.66462e-05
3.66004e-05
3.65521e-05
3.6501e-05
3.64469e-05
3.63895e-05
3.63286e-05
3.62638e-05
3.61948e-05
3.61212e-05
3.60426e-05
3.59585e-05
3.58683e-05
3.57718e-05
3.5668e-05
3.55564e-05
3.5436e-05
3.53059e-05
3.5165e-05
3.50119e-05
3.48453e-05
3.46635e-05
3.44644e-05
3.42457e-05
3.40042e-05
3.37361e-05
3.34366e-05
3.30996e-05
3.27196e-05
3.229e-05
3.18136e-05
3.12903e-05
3.07089e-05
3.01147e-05
2.94713e-05
2.87673e-05
2.80187e-05
2.72438e-05
2.65349e-05
2.60245e-05
2.5913e-05
2.65402e-05
2.82424e-05
3.13562e-05
3.61358e-05
4.2672e-05
5.09713e-05
6.11406e-05
7.32847e-05
8.7085e-05
0.000101669
0.000115878
0.000128574
0.000138852
0.000146146
0.000150312
0.000151897
0.000152625
0.000157314
0.000159563
0.000158639
0.000154941
0.00014988
0.000145477
3.59119e-05
3.58663e-05
3.58186e-05
3.57683e-05
3.57154e-05
3.56596e-05
3.56006e-05
3.55383e-05
3.54723e-05
3.54023e-05
3.5328e-05
3.5249e-05
3.51648e-05
3.5075e-05
3.49791e-05
3.48764e-05
3.47663e-05
3.46483e-05
3.45214e-05
3.43846e-05
3.42369e-05
3.40771e-05
3.39037e-05
3.37151e-05
3.35094e-05
3.32843e-05
3.3037e-05
3.2764e-05
3.24614e-05
3.21237e-05
3.17461e-05
3.13219e-05
3.08532e-05
3.03415e-05
2.97803e-05
2.92165e-05
2.86212e-05
2.79856e-05
2.73209e-05
2.6638e-05
2.59982e-05
2.54868e-05
2.51481e-05
2.52673e-05
2.60019e-05
2.75504e-05
3.01311e-05
3.39241e-05
3.89605e-05
4.50476e-05
5.19124e-05
5.95765e-05
6.85087e-05
7.91455e-05
9.12445e-05
0.000103848
0.000115763
0.000125973
0.000133735
0.000138605
0.000140551
0.000140186
0.000142771
0.000147861
0.000149398
0.000147394
0.000142391
0.000135587
0.000128768
3.45257e-05
3.44659e-05
3.44033e-05
3.43374e-05
3.42678e-05
3.41944e-05
3.41169e-05
3.40348e-05
3.39477e-05
3.38554e-05
3.37572e-05
3.36526e-05
3.35411e-05
3.3422e-05
3.32945e-05
3.31578e-05
3.30113e-05
3.28539e-05
3.26842e-05
3.25009e-05
3.23021e-05
3.20859e-05
3.18499e-05
3.15915e-05
3.13075e-05
3.09941e-05
3.06472e-05
3.02624e-05
2.98346e-05
2.93645e-05
2.8856e-05
2.83029e-05
2.77633e-05
2.72172e-05
2.66479e-05
2.60597e-05
2.54901e-05
2.49818e-05
2.45769e-05
2.42923e-05
2.43434e-05
2.47899e-05
2.57276e-05
2.72691e-05
2.95396e-05
3.26511e-05
3.66275e-05
4.12972e-05
4.62461e-05
5.10384e-05
5.57243e-05
6.11858e-05
6.85937e-05
7.81943e-05
8.90797e-05
9.9994e-05
0.000109862
0.000117873
0.000123432
0.00012621
0.000126452
0.000126943
0.000131449
0.000136129
0.000137251
0.00013481
0.000129289
0.00012163
0.000113327
3.2364e-05
3.22852e-05
3.22026e-05
3.21157e-05
3.20241e-05
3.19275e-05
3.18253e-05
3.17172e-05
3.16026e-05
3.14809e-05
3.13516e-05
3.12139e-05
3.1067e-05
3.09101e-05
3.0742e-05
3.05617e-05
3.03674e-05
3.0157e-05
2.99287e-05
2.96802e-05
2.9409e-05
2.91126e-05
2.87881e-05
2.8433e-05
2.80444e-05
2.76201e-05
2.71599e-05
2.66669e-05
2.614e-05
2.56351e-05
2.51492e-05
2.46806e-05
2.42442e-05
2.38611e-05
2.3501e-05
2.324e-05
2.32147e-05
2.34202e-05
2.38784e-05
2.46304e-05
2.57306e-05
2.7244e-05
2.92355e-05
3.17597e-05
3.48179e-05
3.82896e-05
4.18397e-05
4.49487e-05
4.71788e-05
4.86964e-05
5.06536e-05
5.46956e-05
6.16569e-05
7.06882e-05
8.03315e-05
8.94751e-05
9.73078e-05
0.000103223
0.000106718
0.000107358
0.000107658
0.000109938
0.000114781
0.000120029
0.000121471
0.000119273
0.000113937
0.000106227
9.73298e-05
2.88829e-05
2.87827e-05
2.86779e-05
2.85678e-05
2.8452e-05
2.833e-05
2.82014e-05
2.80654e-05
2.79217e-05
2.77694e-05
2.76079e-05
2.74364e-05
2.7254e-05
2.70591e-05
2.68486e-05
2.66208e-05
2.63741e-05
2.61074e-05
2.58197e-05
2.55104e-05
2.51792e-05
2.48267e-05
2.44548e-05
2.40649e-05
2.36666e-05
2.32738e-05
2.28996e-05
2.25571e-05
2.22591e-05
2.20197e-05
2.18444e-05
2.18376e-05
2.19764e-05
2.2246e-05
2.26473e-05
2.31878e-05
2.38783e-05
2.47361e-05
2.57878e-05
2.70743e-05
2.86373e-05
3.04888e-05
3.26043e-05
3.49031e-05
3.71338e-05
3.88846e-05
3.96602e-05
3.92315e-05
3.81548e-05
3.74647e-05
3.8189e-05
4.12802e-05
4.76531e-05
5.57535e-05
6.37221e-05
7.06217e-05
7.57696e-05
7.90442e-05
8.19462e-05
8.3866e-05
8.56963e-05
8.8336e-05
9.20415e-05
9.64301e-05
9.91692e-05
9.79267e-05
9.33507e-05
8.61853e-05
7.7339e-05
2.34011e-05
2.32992e-05
2.31934e-05
2.30833e-05
2.29684e-05
2.28484e-05
2.27228e-05
2.25912e-05
2.24532e-05
2.23082e-05
2.21557e-05
2.19951e-05
2.18262e-05
2.16497e-05
2.14688e-05
2.12854e-05
2.11015e-05
2.09197e-05
2.0743e-05
2.05751e-05
2.04203e-05
2.0283e-05
2.01701e-05
2.0074e-05
2.00928e-05
2.0221e-05
2.04177e-05
2.06692e-05
2.09709e-05
2.13192e-05
2.17102e-05
2.21383e-05
2.25981e-05
2.30869e-05
2.36093e-05
2.41807e-05
2.48269e-05
2.5588e-05
2.64978e-05
2.7554e-05
2.86596e-05
2.96834e-05
3.05114e-05
3.0971e-05
3.07426e-05
2.94935e-05
2.72815e-05
2.44883e-05
2.31565e-05
2.29366e-05
2.41691e-05
2.69916e-05
3.12217e-05
3.6254e-05
4.14384e-05
4.62765e-05
5.04199e-05
5.37576e-05
5.65674e-05
5.88467e-05
6.08622e-05
6.28779e-05
6.4871e-05
6.6548e-05
6.68548e-05
6.49463e-05
6.08258e-05
5.49002e-05
4.80781e-05
1.72114e-05
1.72933e-05
1.7373e-05
1.745e-05
1.75242e-05
1.75953e-05
1.76633e-05
1.77285e-05
1.77995e-05
1.78785e-05
1.79669e-05
1.80653e-05
1.81744e-05
1.82948e-05
1.84266e-05
1.85699e-05
1.87248e-05
1.88907e-05
1.90669e-05
1.92521e-05
1.94445e-05
1.96414e-05
1.98393e-05
2.00334e-05
2.02187e-05
2.03886e-05
2.05349e-05
2.06488e-05
2.07212e-05
2.07445e-05
2.07143e-05
2.06336e-05
2.05185e-05
2.04006e-05
2.03172e-05
2.02913e-05
2.03477e-05
2.0549e-05
2.08884e-05
2.10992e-05
2.07692e-05
1.98617e-05
1.84776e-05
1.6619e-05
1.55599e-05
1.45065e-05
1.32819e-05
1.21722e-05
1.15923e-05
1.162e-05
1.23373e-05
1.37585e-05
1.58076e-05
1.82875e-05
2.10205e-05
2.38191e-05
2.64967e-05
2.88773e-05
3.09137e-05
3.2615e-05
3.40076e-05
3.5112e-05
3.58687e-05
3.61328e-05
3.56055e-05
3.40424e-05
3.14598e-05
2.80132e-05
2.41116e-05
1.51034e-05
1.52152e-05
1.53243e-05
1.54303e-05
1.55325e-05
1.56299e-05
1.57218e-05
1.58061e-05
1.58732e-05
1.59214e-05
1.59506e-05
1.59611e-05
1.59525e-05
1.5924e-05
1.58743e-05
1.58017e-05
1.57042e-05
1.55792e-05
1.54238e-05
1.52348e-05
1.50083e-05
1.47403e-05
1.44263e-05
1.40619e-05
1.36426e-05
1.31642e-05
1.26236e-05
1.20193e-05
1.13526e-05
1.06306e-05
9.87162e-06
9.11538e-06
8.43055e-06
7.89745e-06
7.48649e-06
7.01102e-06
6.37616e-06
5.69254e-06
5.39619e-06
5.61675e-06
5.95429e-06
6.08888e-06
5.91225e-06
5.57745e-06
5.22816e-06
4.8281e-06
4.45723e-06
4.17966e-06
4.02127e-06
3.96713e-06
4.00349e-06
4.08194e-06
4.17202e-06
4.41136e-06
4.9674e-06
5.64376e-06
6.41285e-06
7.17005e-06
7.78462e-06
8.2521e-06
8.59459e-06
8.83851e-06
8.99703e-06
9.00392e-06
8.82745e-06
8.54877e-06
9.23738e-06
9.43158e-06
8.67843e-06
3.98463e-05
3.9844e-05
3.98417e-05
3.9841e-05
3.98432e-05
3.98513e-05
3.98637e-05
3.9875e-05
3.98869e-05
3.98946e-05
3.99069e-05
3.99236e-05
3.9935e-05
3.99462e-05
3.99477e-05
3.99443e-05
3.99375e-05
3.99477e-05
3.99758e-05
4.00243e-05
4.00427e-05
4.00112e-05
4.00065e-05
4.00129e-05
3.99774e-05
3.9956e-05
3.9972e-05
3.99931e-05
4.00129e-05
4.00496e-05
4.00841e-05
4.00617e-05
4.00473e-05
4.00406e-05
4.00504e-05
4.00651e-05
4.00788e-05
4.00722e-05
4.00837e-05
4.01123e-05
4.01401e-05
4.01511e-05
4.01603e-05
4.01654e-05
4.01683e-05
4.01863e-05
4.02016e-05
4.02117e-05
4.02156e-05
4.02185e-05
4.02181e-05
4.02188e-05
4.02207e-05
4.02258e-05
4.02294e-05
4.02307e-05
4.02303e-05
4.02279e-05
4.02249e-05
3.98158e-05
3.98173e-05
3.98208e-05
3.98266e-05
3.98351e-05
3.98453e-05
3.98554e-05
3.98652e-05
3.98753e-05
3.98861e-05
3.9899e-05
3.99109e-05
3.9919e-05
3.9923e-05
3.99209e-05
3.99178e-05
3.99214e-05
3.99416e-05
3.99762e-05
4.00105e-05
4.00114e-05
3.99877e-05
3.99876e-05
3.99853e-05
3.9952e-05
3.9937e-05
3.99533e-05
3.99736e-05
3.99934e-05
4.00277e-05
4.00614e-05
4.00449e-05
4.00292e-05
4.0021e-05
4.00271e-05
4.00396e-05
4.00537e-05
4.00528e-05
4.00566e-05
4.00756e-05
4.01021e-05
4.01201e-05
4.01309e-05
4.01376e-05
4.01404e-05
4.01478e-05
4.01598e-05
4.01721e-05
4.01808e-05
4.0186e-05
4.01886e-05
4.01892e-05
4.01893e-05
4.01901e-05
4.01919e-05
4.0194e-05
4.01957e-05
4.01966e-05
4.01965e-05
3.97955e-05
3.9801e-05
3.9808e-05
3.98162e-05
3.98251e-05
3.98342e-05
3.98434e-05
3.9853e-05
3.98631e-05
3.98738e-05
3.98841e-05
3.98914e-05
3.9895e-05
3.98947e-05
3.98932e-05
3.98961e-05
3.991e-05
3.99366e-05
3.99685e-05
3.99876e-05
3.99797e-05
3.99643e-05
3.99648e-05
3.99556e-05
3.99259e-05
3.99165e-05
3.99327e-05
3.99524e-05
3.9972e-05
4.00042e-05
4.00362e-05
4.00256e-05
4.00096e-05
4e-05
4.00027e-05
4.00128e-05
4.00259e-05
4.00296e-05
4.00308e-05
4.00413e-05
4.00622e-05
4.00827e-05
4.0097e-05
4.01058e-05
4.01104e-05
4.01138e-05
4.01202e-05
4.01293e-05
4.01387e-05
4.01462e-05
4.01514e-05
4.01544e-05
4.01557e-05
4.01559e-05
4.01561e-05
4.01565e-05
4.01572e-05
4.0158e-05
4.01587e-05
3.97803e-05
3.97872e-05
3.97948e-05
3.98028e-05
3.9811e-05
3.98195e-05
3.98283e-05
3.98375e-05
3.98466e-05
3.9855e-05
3.98613e-05
3.98645e-05
3.98652e-05
3.98652e-05
3.98684e-05
3.98794e-05
3.99002e-05
3.99277e-05
3.99515e-05
3.99586e-05
3.99483e-05
3.99391e-05
3.99378e-05
3.99239e-05
3.98987e-05
3.98939e-05
3.991e-05
3.9929e-05
3.99484e-05
3.99786e-05
4.00087e-05
4.00033e-05
3.99881e-05
3.99773e-05
3.99768e-05
3.99843e-05
3.99957e-05
4.00022e-05
4.00038e-05
4.00088e-05
4.00227e-05
4.00412e-05
4.00575e-05
4.00691e-05
4.0076e-05
4.00797e-05
4.00829e-05
4.00878e-05
4.00943e-05
4.01012e-05
4.01073e-05
4.0112e-05
4.01152e-05
4.01169e-05
4.01176e-05
4.01178e-05
4.01177e-05
4.01177e-05
4.01176e-05
3.97636e-05
3.97704e-05
3.97775e-05
3.9785e-05
3.97927e-05
3.98005e-05
3.98085e-05
3.98162e-05
3.98229e-05
3.9828e-05
3.9831e-05
3.98324e-05
3.98338e-05
3.98378e-05
3.98476e-05
3.98648e-05
3.98881e-05
3.99115e-05
3.9926e-05
3.99255e-05
3.99164e-05
3.99109e-05
3.99067e-05
3.98904e-05
3.98699e-05
3.98689e-05
3.98846e-05
3.99031e-05
3.99222e-05
3.99504e-05
3.99787e-05
3.99777e-05
3.9964e-05
3.99523e-05
3.99493e-05
3.99539e-05
3.99633e-05
3.99709e-05
3.99738e-05
3.99763e-05
3.99842e-05
3.99979e-05
4.00134e-05
4.00266e-05
4.00359e-05
4.00415e-05
4.00447e-05
4.00472e-05
4.00505e-05
4.00548e-05
4.00595e-05
4.00639e-05
4.00677e-05
4.00705e-05
4.00724e-05
4.00734e-05
4.00738e-05
4.00738e-05
4.00735e-05
3.97422e-05
3.97485e-05
3.97551e-05
3.97619e-05
3.97687e-05
3.97753e-05
3.97815e-05
3.97869e-05
3.9791e-05
3.97939e-05
3.97961e-05
3.97988e-05
3.98039e-05
3.98135e-05
3.98286e-05
3.98487e-05
3.98701e-05
3.98869e-05
3.98935e-05
3.98897e-05
3.98829e-05
3.98788e-05
3.98716e-05
3.98547e-05
3.98389e-05
3.98409e-05
3.98564e-05
3.98743e-05
3.9893e-05
3.99195e-05
3.99459e-05
3.99484e-05
3.99368e-05
3.99248e-05
3.99194e-05
3.99214e-05
3.99283e-05
3.99358e-05
3.994e-05
3.9942e-05
3.99458e-05
3.99544e-05
3.99665e-05
3.99791e-05
3.99897e-05
3.99973e-05
4.00019e-05
4.00046e-05
4.00064e-05
4.00083e-05
4.00106e-05
4.00133e-05
4.0016e-05
4.00185e-05
4.00206e-05
4.0022e-05
4.0023e-05
4.00234e-05
4.00235e-05
3.97144e-05
3.972e-05
3.97258e-05
3.97314e-05
3.97368e-05
3.97418e-05
3.97461e-05
3.97497e-05
3.97528e-05
3.97559e-05
3.976e-05
3.97664e-05
3.97763e-05
3.97903e-05
3.9808e-05
3.98272e-05
3.98439e-05
3.98541e-05
3.98556e-05
3.98512e-05
3.98464e-05
3.98421e-05
3.98326e-05
3.98165e-05
3.98051e-05
3.98096e-05
3.98247e-05
3.98421e-05
3.98603e-05
3.98851e-05
3.99098e-05
3.99151e-05
3.9906e-05
3.9894e-05
3.98869e-05
3.98862e-05
3.98907e-05
3.9897e-05
3.99018e-05
3.99041e-05
3.9906e-05
3.99104e-05
3.99182e-05
3.99281e-05
3.99381e-05
3.99465e-05
3.99526e-05
3.99564e-05
3.99586e-05
3.99597e-05
3.99606e-05
3.99614e-05
3.99624e-05
3.99635e-05
3.99645e-05
3.99654e-05
3.99661e-05
3.99665e-05
3.99666e-05
3.96784e-05
3.9683e-05
3.96877e-05
3.96921e-05
3.96962e-05
3.97001e-05
3.97037e-05
3.97074e-05
3.97117e-05
3.97173e-05
3.97249e-05
3.97352e-05
3.97486e-05
3.97647e-05
3.97818e-05
3.97976e-05
3.9809e-05
3.9814e-05
3.98131e-05
3.98094e-05
3.98057e-05
3.98003e-05
3.97895e-05
3.97753e-05
3.9768e-05
3.97744e-05
3.97891e-05
3.9806e-05
3.98237e-05
3.98468e-05
3.98698e-05
3.98773e-05
3.98707e-05