/*--------------------------------*- C++ -*----------------------------------*\
| =========                 |                                                 |
| \\      /  F ield         | OpenFOAM: The Open Source CFD Toolbox           |
|  \\    /   O peration     | Version:  2312                                  |
|   \\  /    A nd           | Website:  www.openfoam.com                      |
|    \\/     M anipulation  |                                                 |
\*---------------------------------------------------------------------------*/
FoamFile
{
    version     2.0;
    format      ascii;
    arch        "LSB;label=32;scalar=64";
    class       volScalarField;
    location    "200";
    object      p;
}
// * * * * * * * * * * * * * * * * * * * * * * * * * * * * * * * * * * * * * //

dimensions      [0 2 -2 0 0 0 0];

internalField   nonuniform List<scalar> 
76025
(
0.000111702
0.000104202
9.64688e-05
8.87185e-05
8.09235e-05
7.30497e-05
6.47815e-05
5.68211e-05
4.86085e-05
4.03816e-05
3.2061e-05
2.35825e-05
1.4975e-05
6.36296e-06
-2.39854e-06
-1.11347e-05
-1.98323e-05
-2.87639e-05
-3.77088e-05
-4.65656e-05
-5.54372e-05
-6.4618e-05
-7.38079e-05
-8.29352e-05
-9.21148e-05
-0.000101225
-0.000110513
-0.000120028
-0.000129178
-0.000138815
-0.000148072
-0.000157401
-0.000166844
-0.000176343
-0.000185748
-0.000195171
-0.000204612
-0.000214346
-0.000224068
-0.000233688
-0.000243278
-0.000252892
-0.000262739
-0.000272703
-0.00028231
-0.000292379
-0.000302387
-0.00031259
-0.000322654
-0.000332962
-0.000343291
-0.000353823
-0.000364648
-0.000375629
-0.000386765
-0.000398709
-0.000410495
-0.000423313
-0.000436538
-0.000450342
-0.000465251
-0.000481172
-0.00049874
-0.000517764
-0.000539297
-0.000567438
-0.000597428
-0.000627209
-0.000649227
0.000114642
0.00010679
9.88624e-05
9.08865e-05
8.28201e-05
7.46144e-05
6.63779e-05
5.80744e-05
4.96473e-05
4.11157e-05
3.24948e-05
2.38094e-05
1.50706e-05
6.2717e-06
-2.56264e-06
-1.14093e-05
-2.03977e-05
-2.93789e-05
-3.84653e-05
-4.75154e-05
-5.66973e-05
-6.58939e-05
-7.51001e-05
-8.43076e-05
-9.35728e-05
-0.000102929
-0.000112334
-0.000121656
-0.000130998
-0.000140332
-0.000149589
-0.000159013
-0.000168436
-0.000177846
-0.00018734
-0.000196782
-0.000206306
-0.000215784
-0.000225201
-0.000234675
-0.000244148
-0.000253705
-0.000263217
-0.000272718
-0.000282282
-0.000291903
-0.000301529
-0.00031117
-0.000320894
-0.000330686
-0.000340536
-0.000350468
-0.00036052
-0.000370719
-0.000381116
-0.00039187
-0.000402837
-0.000414264
-0.000426179
-0.000438594
-0.000451755
-0.000466212
-0.00048195
-0.000498959
-0.000518118
-0.000542489
-0.000570507
-0.000598765
-0.000627713
0.000117608
0.00010951
0.000101331
9.30866e-05
8.475e-05
7.63423e-05
6.78531e-05
5.92649e-05
5.05896e-05
4.18315e-05
3.30083e-05
2.41359e-05
1.52097e-05
6.23296e-06
-2.78232e-06
-1.1868e-05
-2.10039e-05
-3.01784e-05
-3.93903e-05
-4.86394e-05
-5.79184e-05
-6.72085e-05
-7.65227e-05
-8.58658e-05
-9.52404e-05
-0.000104641
-0.000114034
-0.000123419
-0.000132809
-0.000142187
-0.00015157
-0.000160973
-0.00017036
-0.000179737
-0.00018912
-0.000198476
-0.000207817
-0.000217134
-0.00022645
-0.000235776
-0.000245083
-0.000254373
-0.000263639
-0.000272906
-0.000282179
-0.00029143
-0.000300677
-0.000309921
-0.000319173
-0.000328417
-0.000337666
-0.000346941
-0.000356269
-0.000365677
-0.00037519
-0.000384872
-0.000394743
-0.000404888
-0.000415401
-0.00042637
-0.000437989
-0.000450505
-0.000464078
-0.000478704
-0.000495689
-0.000517994
-0.000543497
-0.000569493
-0.000598319
0.000120411
0.000112042
0.00010358
9.50578e-05
8.64605e-05
7.7782e-05
6.90175e-05
6.01721e-05
5.12571e-05
4.22781e-05
3.32398e-05
2.41462e-05
1.49997e-05
5.80395e-06
-3.43534e-06
-1.27158e-05
-2.2029e-05
-3.1372e-05
-4.07406e-05
-5.01309e-05
-5.95367e-05
-6.89585e-05
-7.83963e-05
-8.78456e-05
-9.73007e-05
-0.000106759
-0.000116219
-0.000125672
-0.0001351
-0.000144497
-0.000153869
-0.000163221
-0.000172555
-0.000181869
-0.000191163
-0.000200428
-0.000209663
-0.00021887
-0.000228045
-0.000237184
-0.000246283
-0.000255343
-0.000264365
-0.000273346
-0.000282283
-0.000291174
-0.000300019
-0.000308815
-0.00031756
-0.000326253
-0.000334898
-0.0003435
-0.000352071
-0.000360627
-0.00036919
-0.000377795
-0.000386483
-0.000395304
-0.000404347
-0.000413714
-0.000423555
-0.000434069
-0.000445333
-0.000457477
-0.00047278
-0.000493063
-0.00051573
-0.00054012
-0.000568451
0.000122911
0.000114244
0.000105487
9.66773e-05
8.78e-05
7.88438e-05
6.98103e-05
6.07061e-05
5.15387e-05
4.23133e-05
3.30343e-05
2.37066e-05
1.43359e-05
4.92758e-06
-4.51259e-06
-1.39788e-05
-2.3468e-05
-3.29761e-05
-4.24988e-05
-5.20315e-05
-6.15708e-05
-7.11136e-05
-8.06557e-05
-9.01933e-05
-9.97238e-05
-0.000109245
-0.000118755
-0.000128237
-0.000137674
-0.000147068
-0.000156427
-0.000165753
-0.000175047
-0.000184302
-0.000193514
-0.000202679
-0.000211794
-0.000220855
-0.000229861
-0.000238809
-0.000247698
-0.000256523
-0.00026528
-0.000273963
-0.00028257
-0.000291095
-0.000299531
-0.000307871
-0.000316108
-0.000324238
-0.000332253
-0.000340152
-0.000347935
-0.000355609
-0.000363184
-0.000370678
-0.000378121
-0.000385556
-0.000393057
-0.000400722
-0.000408669
-0.000417016
-0.000425742
-0.000435591
-0.000449487
-0.000467396
-0.000487576
-0.000510736
-0.000538471
0.000125113
0.000116133
0.00010707
9.79605e-05
8.879e-05
7.95477e-05
7.0235e-05
6.08585e-05
5.14258e-05
4.19439e-05
3.24186e-05
2.28555e-05
1.32603e-05
3.63889e-06
-6.00352e-06
-1.56619e-05
-2.5332e-05
-3.50089e-05
-4.46879e-05
-5.43643e-05
-6.4034e-05
-7.36929e-05
-8.33372e-05
-9.29639e-05
-0.00010257
-0.000112153
-0.000121707
-0.000131214
-0.000140662
-0.000150056
-0.000159398
-0.00016869
-0.000177927
-0.000187106
-0.000196223
-0.000205274
-0.000214256
-0.000223166
-0.000232
-0.000240755
-0.000249425
-0.000258005
-0.000266488
-0.000274868
-0.000283136
-0.000291283
-0.000299299
-0.000307173
-0.000314892
-0.000322443
-0.000329814
-0.000336993
-0.000343969
-0.000350735
-0.000357288
-0.000363633
-0.000369784
-0.000375774
-0.000381662
-0.000387518
-0.000393417
-0.000399387
-0.000405479
-0.000413471
-0.000425796
-0.000441138
-0.00045949
-0.000481926
-0.000509399
0.000126973
0.000117666
0.000108282
9.88582e-05
8.93804e-05
7.9838e-05
7.02326e-05
6.05716e-05
5.0864e-05
4.11176e-05
3.13386e-05
2.15327e-05
1.17057e-05
1.86345e-06
-7.98814e-06
-1.78435e-05
-2.76972e-05
-3.75441e-05
-4.73791e-05
-5.71974e-05
-6.69946e-05
-7.67667e-05
-8.65098e-05
-9.62205e-05
-0.000105895
-0.000115531
-0.000125119
-0.00013464
-0.000144088
-0.000153467
-0.000162778
-0.000172021
-0.000181192
-0.000190287
-0.000199302
-0.000208234
-0.000217077
-0.000225829
-0.000234483
-0.000243036
-0.00025148
-0.000259808
-0.000268011
-0.000276081
-0.000284005
-0.000291772
-0.000299366
-0.000306771
-0.000313968
-0.000320938
-0.000327658
-0.000334107
-0.000340262
-0.000346103
-0.000351612
-0.000356777
-0.000361598
-0.000366092
-0.000370291
-0.000374223
-0.000377907
-0.000381287
-0.000384908
-0.000391426
-0.000401721
-0.000414847
-0.000432075
-0.000454103
-0.00048116
0.000128422
0.000118771
0.00010905
9.9297e-05
8.94976e-05
7.96415e-05
6.97312e-05
5.9775e-05
4.97824e-05
3.97621e-05
2.97206e-05
1.96641e-05
9.59892e-06
-4.68558e-07
-1.05319e-05
-2.05848e-05
-3.06217e-05
-4.06369e-05
-5.06254e-05
-6.05821e-05
-7.05024e-05
-8.03821e-05
-9.02173e-05
-0.000100004
-0.000109739
-0.000119419
-0.00012903
-0.000138555
-0.000147994
-0.000157349
-0.000166621
-0.000175808
-0.000184904
-0.000193907
-0.000202812
-0.000211615
-0.000220311
-0.000228895
-0.000237362
-0.000245705
-0.000253917
-0.000261989
-0.000269909
-0.000277666
-0.000285246
-0.000292631
-0.000299803
-0.00030674
-0.000313417
-0.000319806
-0.000325877
-0.000331597
-0.000336929
-0.000341839
-0.000346292
-0.00035026
-0.000353724
-0.000356676
-0.000359104
-0.000360982
-0.000362257
-0.000362952
-0.00036457
-0.000369613
-0.000377671
-0.000389341
-0.000405959
-0.000427693
-0.000454144
0.000129391
0.00011938
0.000109305
9.9208e-05
8.90728e-05
7.889e-05
6.86627e-05
5.84002e-05
4.81128e-05
3.78096e-05
2.74982e-05
1.71851e-05
6.87728e-06
-3.41835e-06
-1.36949e-05
-2.39459e-05
-3.41652e-05
-4.4347e-05
-5.4486e-05
-6.4577e-05
-7.46154e-05
-8.45967e-05
-9.45169e-05
-0.000104372
-0.000114159
-0.000123873
-0.000133495
-0.000143014
-0.000152433
-0.000161754
-0.000170976
-0.000180094
-0.000189105
-0.000198005
-0.000206789
-0.000215454
-0.000223993
-0.000232403
-0.000240676
-0.000248805
-0.000256781
-0.000264593
-0.000272228
-0.000279673
-0.000286909
-0.000293917
-0.000300674
-0.000307151
-0.000313318
-0.000319138
-0.000324572
-0.000329573
-0.000334094
-0.000338081
-0.000341484
-0.000344255
-0.000346347
-0.00034771
-0.000348274
-0.000347955
-0.000346659
-0.000344884
-0.000345009
-0.000348262
-0.000354518
-0.00036546
-0.000381695
-0.000403161
-0.000429269
0.000129806
0.000119415
0.00010897
9.85124e-05
8.80266e-05
7.75034e-05
6.6947e-05
5.63671e-05
4.57752e-05
3.51811e-05
2.45929e-05
1.4018e-05
3.4637e-06
-7.06254e-06
-1.75534e-05
-2.80021e-05
-3.84021e-05
-4.87474e-05
-5.90325e-05
-6.92522e-05
-7.94016e-05
-8.94764e-05
-9.94726e-05
-0.000109386
-0.000119215
-0.000128948
-0.000138568
-0.00014807
-0.000157458
-0.000166732
-0.000175891
-0.000184929
-0.000193843
-0.000202629
-0.000211283
-0.000219799
-0.000228175
-0.000236402
-0.000244475
-0.000252385
-0.000260121
-0.000267672
-0.000275024
-0.000282159
-0.000289059
-0.000295699
-0.000302052
-0.000308084
-0.000313759
-0.000319032
-0.000323852
-0.000328161
-0.000331897
-0.00033499
-0.00033737
-0.000338959
-0.00033967
-0.000339396
-0.000338006
-0.000335367
-0.000331522
-0.000327866
-0.000326648
-0.000328081
-0.000333372
-0.000343962
-0.000359789
-0.000380765
-0.000405789
0.000129576
0.000118786
0.000107952
9.71179e-05
8.6266e-05
7.53884e-05
6.44902e-05
5.35822e-05
4.26765e-05
3.17837e-05
2.09128e-05
1.00716e-05
-7.31872e-07
-1.14898e-05
-2.21944e-05
-3.28385e-05
-4.34153e-05
-5.39189e-05
-6.43433e-05
-7.46835e-05
-8.49347e-05
-9.50927e-05
-0.000105154
-0.000115114
-0.000124969
-0.000134707
-0.000144311
-0.000153784
-0.000163127
-0.00017234
-0.000181421
-0.000190366
-0.00019917
-0.00020783
-0.000216341
-0.000224701
-0.000232902
-0.00024094
-0.000248806
-0.000256492
-0.000263987
-0.000271278
-0.000278349
-0.000285182
-0.000291755
-0.000298041
-0.000304009
-0.000309621
-0.000314833
-0.000319591
-0.000323836
-0.000327497
-0.000330497
-0.000332748
-0.00033415
-0.000334587
-0.000333917
-0.000331969
-0.00032857
-0.000323603
-0.000317628
-0.000312723
-0.00031006
-0.000310295
-0.000315257
-0.000325497
-0.000340766
-0.000361082
-0.000385812
0.000128601
0.000117391
0.000106149
9.492e-05
8.3686e-05
7.24397e-05
6.11872e-05
4.99402e-05
3.87118e-05
2.75134e-05
1.63548e-05
5.24429e-06
-5.80955e-06
-1.67983e-05
-2.7714e-05
-3.8549e-05
-4.92966e-05
-5.99504e-05
-7.05048e-05
-8.09548e-05
-9.12957e-05
-0.000101524
-0.000111635
-0.000121627
-0.000131492
-0.000141216
-0.00015079
-0.000160217
-0.000169499
-0.000178636
-0.000187624
-0.000196459
-0.000205139
-0.000213659
-0.000222016
-0.000230206
-0.000238225
-0.000246064
-0.000253718
-0.000261177
-0.00026843
-0.000275463
-0.000282259
-0.0002888
-0.000295061
-0.000301013
-0.000306622
-0.000311845
-0.000316632
-0.000320924
-0.00032465
-0.000327729
-0.000330066
-0.000331547
-0.000332036
-0.000331366
-0.000329338
-0.00032574
-0.000320389
-0.000313393
-0.000306082
-0.000300195
-0.000296353
-0.000296185
-0.00030092
-0.000310586
-0.000325157
-0.000344723
-0.000368566
0.000126763
0.00011511
0.000103441
9.17986e-05
8.01662e-05
6.85365e-05
5.69171e-05
4.53208e-05
3.37614e-05
2.22513e-05
1.0801e-05
-5.80434e-07
-1.18841e-05
-2.3101e-05
-3.42229e-05
-4.5242e-05
-5.61515e-05
-6.6945e-05
-7.76171e-05
-8.8163e-05
-9.85786e-05
-0.00010886
-0.000119005
-0.000129009
-0.000138864
-0.000148554
-0.000158078
-0.000167441
-0.000176644
-0.000185685
-0.000194561
-0.000203269
-0.000211807
-0.000220172
-0.000228361
-0.00023637
-0.000244194
-0.000251827
-0.000259262
-0.000266491
-0.000273501
-0.000280279
-0.000286808
-0.000293069
-0.000299036
-0.00030468
-0.000309962
-0.000314837
-0.000319252
-0.000323141
-0.000326424
-0.000329008
-0.000330775
-0.000331579
-0.000331241
-0.00032955
-0.000326269
-0.00032118
-0.000314185
-0.000305913
-0.000297968
-0.000291255
-0.000286951
-0.000286637
-0.00029081
-0.000299606
-0.000313355
-0.000332356
-0.000356863
0.000123925
0.000111807
9.96888e-05
8.76151e-05
7.55676e-05
6.35403e-05
5.15419e-05
3.95866e-05
2.76891e-05
1.58628e-05
4.11877e-06
-7.53308e-06
-1.90833e-05
-3.05228e-05
-4.18428e-05
-5.30355e-05
-6.4094e-05
-7.50124e-05
-8.57854e-05
-9.64088e-05
-0.000106879
-0.000117193
-0.000127348
-0.000137341
-0.000147158
-0.000156792
-0.000166245
-0.000175523
-0.000184624
-0.000193548
-0.000202292
-0.000210854
-0.000219232
-0.000227425
-0.00023543
-0.000243243
-0.000250861
-0.000258278
-0.000265488
-0.000272481
-0.000279248
-0.000285776
-0.000292047
-0.000298043
-0.000303738
-0.000309101
-0.000314096
-0.000318675
-0.000322783
-0.000326347
-0.000329282
-0.000331473
-0.00033278
-0.000333027
-0.000332005
-0.00032948
-0.00032522
-0.000319037
-0.0003111
-0.000302494
-0.000294271
-0.000287245
-0.000282871
-0.00028205
-0.00028521
-0.000292873
-0.000305595
-0.000323539
-0.000345298
0.000119926
0.000107318
9.47299e-05
8.22055e-05
6.97259e-05
5.72864e-05
4.48974e-05
3.2574e-05
2.03323e-05
8.18639e-06
-3.85159e-06
-1.57712e-05
-2.75626e-05
-3.92162e-05
-5.07231e-05
-6.20756e-05
-7.3267e-05
-8.42918e-05
-9.51453e-05
-0.000105824
-0.000116325
-0.000126646
-0.000136787
-0.000146738
-0.000156489
-0.00016604
-0.000175395
-0.000184559
-0.000193531
-0.00020231
-0.000210895
-0.000219286
-0.000227482
-0.000235482
-0.000243283
-0.000250884
-0.000258282
-0.000265471
-0.000272445
-0.000279198
-0.000285721
-0.000292
-0.000298022
-0.000303768
-0.000309214
-0.000314331
-0.000319084
-0.000323426
-0.0003273
-0.000330629
-0.000333316
-0.000335232
-0.000336222
-0.000336101
-0.000334663
-0.000331689
-0.000326959
-0.000320381
-0.000312489
-0.000304192
-0.000296069
-0.000289114
-0.000284333
-0.000282483
-0.000284365
-0.000290826
-0.00030233
-0.000318458
-0.000337125
0.00011458
0.000101458
8.83786e-05
7.53845e-05
6.24568e-05
4.9592e-05
3.68022e-05
2.41042e-05
1.1515e-05
-9.50046e-07
-1.32782e-05
-2.54581e-05
-3.74796e-05
-4.93328e-05
-6.10088e-05
-7.25e-05
-8.38002e-05
-9.49043e-05
-0.000105809
-0.000116511
-0.000127009
-0.000137303
-0.000147391
-0.000157263
-0.000166914
-0.000176351
-0.000185579
-0.0001946
-0.000203414
-0.000212022
-0.000220423
-0.00022862
-0.000236611
-0.000244396
-0.000251975
-0.000259346
-0.000266506
-0.000273453
-0.000280182
-0.000286687
-0.000292961
-0.000298994
-0.000304773
-0.000310284
-0.000315505
-0.000320411
-0.000324969
-0.000329134
-0.000332847
-0.000336029
-0.000338579
-0.000340374
-0.000341275
-0.000341122
-0.000339741
-0.000336915
-0.000332417
-0.000326358
-0.000319342
-0.000311739
-0.00030395
-0.000296705
-0.000290933
-0.000287778
-0.000288391
-0.000293677
-0.000303743
-0.00031804
-0.000336648
0.00010766
9.39975e-05
8.04017e-05
6.69171e-05
5.35235e-05
4.0219e-05
2.70176e-05
1.39378e-05
9.97912e-07
-1.17857e-05
-2.43993e-05
-3.6831e-05
-4.90701e-05
-6.11065e-05
-7.29316e-05
-8.45381e-05
-9.59205e-05
-0.000107075
-0.000117999
-0.000128692
-0.000139153
-0.000149383
-0.000159376
-0.000169127
-0.000178638
-0.000187918
-0.000196973
-0.000205806
-0.000214419
-0.000222814
-0.000230993
-0.000238958
-0.000246711
-0.00025425
-0.000261578
-0.000268693
-0.000275595
-0.00028228
-0.000288747
-0.000294992
-0.00030101
-0.000306793
-0.000312334
-0.00031762
-0.000322636
-0.00032736
-0.000331762
-0.0003358
-0.000339419
-0.000342552
-0.000345123
-0.00034705
-0.000348239
-0.000348576
-0.000347876
-0.000345845
-0.000342329
-0.000337643
-0.000331955
-0.000325069
-0.000317139
-0.000308989
-0.000302015
-0.000297697
-0.000297277
-0.000301401
-0.000309729
-0.000321915
-0.000338171
9.89282e-05
8.46985e-05
7.05657e-05
5.65736e-05
4.27012e-05
2.89481e-05
1.53309e-05
1.86991e-06
-1.14152e-05
-2.45068e-05
-3.739e-05
-5.00524e-05
-6.24826e-05
-7.46707e-05
-8.66082e-05
-9.82885e-05
-0.000109707
-0.000120861
-0.00013175
-0.000142375
-0.00015274
-0.000162845
-0.000172687
-0.000182268
-0.000191596
-0.00020068
-0.000209527
-0.00021814
-0.000226522
-0.000234677
-0.000242608
-0.000250317
-0.000257807
-0.000265078
-0.000272132
-0.000278969
-0.00028559
-0.000291994
-0.000298182
-0.000304152
-0.000309902
-0.00031543
-0.000320729
-0.000325793
-0.000330611
-0.000335165
-0.000339432
-0.000343386
-0.000346997
-0.000350241
-0.000353096
-0.00035554
-0.000357519
-0.000358892
-0.000359341
-0.000358591
-0.000356798
-0.000353973
-0.0003494
-0.000342524
-0.000333808
-0.000324685
-0.000316904
-0.000311938
-0.000310857
-0.000313828
-0.000320233
-0.000330018
-0.00034346
8.80166e-05
7.31858e-05
5.84847e-05
4.39584e-05
2.95849e-05
1.53655e-05
1.3195e-06
-1.25305e-05
-2.61633e-05
-3.95598e-05
-5.2704e-05
-6.55829e-05
-7.81849e-05
-9.05001e-05
-0.000102521
-0.000114241
-0.000125658
-0.000136772
-0.000147585
-0.000158098
-0.000168316
-0.000178236
-0.00018786
-0.000197199
-0.000206268
-0.000215077
-0.000223635
-0.000231949
-0.000240027
-0.000247872
-0.00025549
-0.000262884
-0.000270057
-0.000277009
-0.000283744
-0.000290261
-0.000296564
-0.000302653
-0.000308532
-0.000314202
-0.000319665
-0.000324919
-0.000329962
-0.000334791
-0.000339398
-0.000343782
-0.000347944
-0.000351897
-0.000355662
-0.00035927
-0.000362749
-0.000366097
-0.000369198
-0.000371747
-0.000373484
-0.000374573
-0.000374955
-0.000373513
-0.000369021
-0.000361447
-0.000352037
-0.000342593
-0.000334757
-0.000329871
-0.00032859
-0.000330471
-0.000334955
-0.000342263
-0.000352825
7.47072e-05
5.92545e-05
4.39734e-05
2.89067e-05
1.40313e-05
-6.49362e-07
-1.51124e-05
-2.93327e-05
-4.32868e-05
-5.6954e-05
-7.03171e-05
-8.33618e-05
-9.60764e-05
-0.000108451
-0.000120478
-0.000132153
-0.000143476
-0.000154449
-0.000165078
-0.000175374
-0.000185344
-0.000194994
-0.000204335
-0.000213382
-0.00022215
-0.000230653
-0.000238899
-0.000246897
-0.000254657
-0.000262182
-0.000269478
-0.000276547
-0.00028339
-0.00029001
-0.000296406
-0.000302582
-0.00030854
-0.000314285
-0.000319823
-0.000325158
-0.000330297
-0.000335244
-0.000340004
-0.00034458
-0.000348983
-0.000353236
-0.000357382
-0.00036148
-0.000365598
-0.000369792
-0.000374064
-0.000378296
-0.000382231
-0.000385752
-0.000389177
-0.000392458
-0.000394232
-0.000392786
-0.000387597
-0.000379562
-0.000370319
-0.000361502
-0.000354535
-0.000350491
-0.000349402
-0.000350465
-0.000353273
-0.000358188
-0.00036581
5.81849e-05
4.20562e-05
2.6138e-05
1.0482e-05
-4.93678e-06
-2.01133e-05
-3.50212e-05
-4.96319e-05
-6.39198e-05
-7.78623e-05
-9.14408e-05
-0.00010464
-0.000117449
-0.000129857
-0.00014186
-0.000153454
-0.000164642
-0.000175427
-0.000185816
-0.000195814
-0.000205429
-0.000214679
-0.00022359
-0.000232186
-0.00024049
-0.000248521
-0.000256296
-0.00026383
-0.000271133
-0.000278213
-0.000285073
-0.000291716
-0.00029814
-0.000304347
-0.000310335
-0.000316107
-0.000321665
-0.000327014
-0.000332157
-0.000337102
-0.000341861
-0.000346454
-0.000350905
-0.000355244
-0.000359501
-0.000363713
-0.000367939
-0.000372257
-0.000376733
-0.000381354
-0.000385985
-0.000390449
-0.000394837
-0.000399662
-0.000404951
-0.000409312
-0.000410817
-0.000408563
-0.000403028
-0.0003955
-0.000387402
-0.000380089
-0.000374824
-0.000372206
-0.000371738
-0.000372514
-0.000374109
-0.000376872
-0.000381695
3.87979e-05
2.19927e-05
5.46471e-06
-1.07499e-05
-2.66771e-05
-4.23073e-05
-5.76083e-05
-7.25474e-05
-8.70955e-05
-0.000101227
-0.000114921
-0.000128161
-0.000140934
-0.000153231
-0.000165047
-0.000176385
-0.000187252
-0.000197667
-0.000207651
-0.000217218
-0.000226386
-0.00023518
-0.000243629
-0.000251763
-0.000259608
-0.000267188
-0.000274525
-0.000281635
-0.000288528
-0.000295208
-0.000301676
-0.000307926
-0.000313955
-0.000319757
-0.000325335
-0.000330693
-0.000335841
-0.000340791
-0.000345552
-0.000350133
-0.000354546
-0.00035881
-0.000362963
-0.000367061
-0.000371162
-0.000375317
-0.000379551
-0.000383854
-0.000388182
-0.000392462
-0.000396671
-0.000401058
-0.000406183
-0.000412187
-0.000417953
-0.000421655
-0.000422164
-0.000419542
-0.000414601
-0.000408419
-0.000402125
-0.000396917
-0.000393774
-0.000392894
-0.000393519
-0.000394666
-0.000395701
-0.000396803
-0.000398956
1.391e-05
-3.67046e-06
-2.09436e-05
-3.78301e-05
-5.43588e-05
-7.05236e-05
-8.62883e-05
-0.000101615
-0.000116471
-0.000130828
-0.000144663
-0.000157957
-0.000170695
-0.000182868
-0.000194469
-0.000205499
-0.00021596
-0.000225861
-0.000235226
-0.000244088
-0.000252491
-0.000260483
-0.000268111
-0.00027542
-0.000282451
-0.000289244
-0.00029583
-0.000302233
-0.000308466
-0.000314528
-0.000320412
-0.000326102
-0.000331581
-0.000336836
-0.000341863
-0.000346674
-0.000351295
-0.000355765
-0.000360118
-0.000364375
-0.00036853
-0.000372559
-0.00037644
-0.000380191
-0.000383882
-0.000387623
-0.000391418
-0.000395088
-0.000398494
-0.000401802
-0.000405402
-0.000409776
-0.000415158
-0.000420924
-0.000425647
-0.00042817
-0.000428186
-0.000426009
-0.000422292
-0.00041784
-0.000413636
-0.000410647
-0.000409549
-0.000410348
-0.000412316
-0.000414357
-0.000415519
-0.000415748
-0.000415965
-1.30324e-05
-3.13609e-05
-4.92494e-05
-6.66939e-05
-8.3723e-05
-0.000100314
-0.00011642
-0.000131994
-0.000147
-0.000161404
-0.000175181
-0.000188311
-0.000200784
-0.000212595
-0.000223746
-0.000234254
-0.000244138
-0.000253416
-0.00026211
-0.000270258
-0.000277915
-0.000285142
-0.000292004
-0.000298565
-0.000304887
-0.000311024
-0.00031702
-0.000322902
-0.000328684
-0.000334358
-0.000339901
-0.000345279
-0.000350449
-0.000355373
-0.000360019
-0.000364373
-0.000368442
-0.000372264
-0.000375921
-0.000379533
-0.000383231
-0.000387066
-0.00039088
-0.000394311
-0.000397084
-0.000399441
-0.000401904
-0.000404375
-0.000406413
-0.000408474
-0.000411392
-0.000415409
-0.000420155
-0.000424688
-0.000428139
-0.000430017
-0.000430171
-0.000428783
-0.000426326
-0.000423585
-0.000421357
-0.000420278
-0.000420798
-0.000422908
-0.000426027
-0.000429042
-0.000430759
-0.000430784
-0.000429869
-5.15476e-05
-7.0753e-05
-8.95557e-05
-0.000107786
-0.000125483
-0.000142649
-0.000159233
-0.000175178
-0.000190433
-0.000204952
-0.000218695
-0.000231625
-0.00024372
-0.000254965
-0.00026536
-0.000274921
-0.000283688
-0.000291712
-0.00029905
-0.000305767
-0.000311939
-0.000317652
-0.000323003
-0.000328094
-0.000333024
-0.000337881
-0.000342735
-0.000347632
-0.000352586
-0.000357581
-0.000362564
-0.000367463
-0.000372191
-0.000376673
-0.000380854
-0.000384703
-0.000388197
-0.000391309
-0.000394019
-0.000396393
-0.000398713
-0.000401447
-0.000404717
-0.000407677
-0.000408975
-0.000408641
-0.000408562
-0.000409384
-0.000410174
-0.000411532
-0.00041432
-0.000417825
-0.000421432
-0.000424817
-0.00042753
-0.000429099
-0.000429358
-0.000428496
-0.000427004
-0.000425551
-0.000424749
-0.000425065
-0.000426765
-0.000429782
-0.000433601
-0.000437223
-0.000439434
-0.000439573
-0.000438301
-8.67178e-05
-0.000106872
-0.0001263
-0.000145107
-0.000163331
-0.000180925
-0.00019782
-0.000213959
-0.000229302
-0.000243816
-0.000257475
-0.000270247
-0.000282087
-0.000292934
-0.000302756
-0.000311552
-0.000319359
-0.000326249
-0.000332312
-0.000337651
-0.000342384
-0.00034665
-0.000350603
-0.000354402
-0.0003582
-0.000362122
-0.000366253
-0.000370624
-0.000375201
-0.00037989
-0.000384551
-0.000389025
-0.000393179
-0.000396959
-0.000400436
-0.000403788
-0.00040718
-0.000410555
-0.00041341
-0.000414893
-0.000414573
-0.000413523
-0.000413616
-0.000414981
-0.000415308
-0.000413282
-0.000411305
-0.000411354
-0.000412544
-0.000413958
-0.000415681
-0.000418051
-0.000420846
-0.000423485
-0.000425436
-0.000426378
-0.000426286
-0.000425392
-0.000424162
-0.000423195
-0.000423114
-0.000424351
-0.000426969
-0.000430701
-0.000434968
-0.000438878
-0.000441357
-0.000441717
-0.000440332
-0.000148632
-0.000169645
-0.000190207
-0.000209945
-0.000228887
-0.000247032
-0.000264297
-0.000280565
-0.000295696
-0.000309593
-0.000322269
-0.000333825
-0.000344293
-0.000353612
-0.000361744
-0.00036869
-0.000374488
-0.000379209
-0.000382951
-0.000385833
-0.000388
-0.000389619
-0.000390885
-0.000392014
-0.000393233
-0.00039477
-0.000396826
-0.000399545
-0.000402972
-0.000407008
-0.000411379
-0.000415641
-0.000419236
-0.000421634
-0.000422592
-0.000422413
-0.000421954
-0.000422145
-0.000423191
-0.000423951
-0.000422796
-0.000419745
-0.000417009
-0.000416387
-0.000417009
-0.000417128
-0.000416396
-0.000415302
-0.000414727
-0.000415109
-0.000416236
-0.00041789
-0.000419751
-0.000421364
-0.000422297
-0.000422327
-0.000421444
-0.000419876
-0.000418129
-0.000416921
-0.000416975
-0.000418694
-0.000421979
-0.000426392
-0.000431217
-0.000435511
-0.000438307
-0.000439124
-0.000438285
-0.00019288
-0.000215102
-0.000236134
-0.000256523
-0.000276259
-0.0002952
-0.000313316
-0.000330677
-0.000347122
-0.000362237
-0.000375715
-0.000387389
-0.00039726
-0.000405445
-0.000412013
-0.000416979
-0.000420346
-0.000422155
-0.000422516
-0.000421624
-0.000419753
-0.000417252
-0.00041454
-0.000412091
-0.000410401
-0.00040994
-0.000411087
-0.000414037
-0.000418721
-0.000424737
-0.000431325
-0.000437424
-0.000441838
-0.000443519
-0.000441827
-0.000436897
-0.000430286
-0.000424425
-0.000421411
-0.000421584
-0.000423131
-0.000424062
-0.000423442
-0.000421564
-0.000419669
-0.000418547
-0.00041793
-0.000417508
-0.000417279
-0.000417288
-0.000417518
-0.000417955
-0.000418514
-0.000418956
-0.00041891
-0.000418066
-0.000416362
-0.000414027
-0.000411625
-0.000410007
-0.000409943
-0.000411677
-0.000415076
-0.000419721
-0.000424832
-0.00042943
-0.000432695
-0.000434414
-0.000435048
-0.000291208
-0.0003144
-0.000336918
-0.000358092
-0.000377884
-0.000396295
-0.000413149
-0.000428194
-0.000441497
-0.000453365
-0.000463854
-0.000472766
-0.000479856
-0.000484956
-0.000488005
-0.000489015
-0.000488036
-0.000485146
-0.000480477
-0.000474243
-0.000466757
-0.000458432
-0.000449771
-0.000441342
-0.000433751
-0.000427585
-0.000423352
-0.000421401
-0.000421843
-0.000424484
-0.000428799
-0.000433954
-0.00043891
-0.000442601
-0.000444322
-0.00044363
-0.000440628
-0.000436053
-0.000431005
-0.00042687
-0.000424486
-0.000423173
-0.000421979
-0.000420819
-0.000419859
-0.000419241
-0.000418858
-0.000418637
-0.000418541
-0.000418521
-0.000418517
-0.000418472
-0.000418328
-0.00041801
-0.000417382
-0.000416213
-0.00041427
-0.000411626
-0.00040888
-0.00040692
-0.000406379
-0.000407569
-0.00041066
-0.000415207
-0.000420301
-0.000425007
-0.000428768
-0.000431455
-0.000433307
0.000154039
0.000159937
0.000166131
0.000172612
0.000179434
0.000186687
0.000194423
0.000202466
0.000210663
0.000219211
0.000228219
0.000237505
0.00024693
0.000257121
0.000266591
0.000276328
0.000285498
0.000295287
0.000304525
0.000313357
0.000322425
0.000330138
0.000337266
0.000343438
0.00034876
0.000353148
0.000355982
0.000357677
0.000358484
0.000357853
0.000355392
0.000351923
0.00034753
0.00034221
0.000335196
0.000327369
0.000318942
0.000309574
0.00029951
0.000289288
0.000278412
0.000267276
0.00025658
0.000246131
0.000234897
0.000224431
0.000213717
0.000203658
0.00019371
0.000184168
0.00017511
0.000166432
0.000158349
0.000150702
0.000143538
0.000136414
0.000129913
0.000123746
0.000118026
0.000156683
0.000162785
0.000169264
0.000176076
0.000183258
0.000190828
0.000198804
0.00020715
0.000215835
0.000224873
0.00023424
0.000243872
0.000253755
0.000263955
0.000274173
0.000284306
0.000294396
0.00030445
0.000314278
0.000323507
0.000332588
0.00034087
0.000348369
0.000354938
0.000360462
0.00036493
0.000368183
0.000369884
0.000370661
0.00036998
0.000367508
0.000363998
0.000359462
0.000353637
0.000346541
0.000338421
0.000329557
0.000319921
0.000309534
0.000298718
0.000287586
0.00027624
0.000264966
0.000253512
0.00024218
0.000231061
0.000220169
0.000209704
0.000199492
0.000189648
0.000180279
0.000171372
0.000162856
0.000154834
0.000147167
0.000140011
0.000133344
0.000127119
0.000121307
0.000159174
0.00016554
0.000172278
0.000179411
0.00018694
0.000194874
0.000203201
0.000211909
0.000221006
0.000230487
0.000240296
0.000250374
0.000260707
0.000271263
0.000281958
0.000292737
0.000303487
0.000314047
0.00032428
0.000334067
0.000343418
0.000352173
0.000360073
0.000366987
0.000372831
0.000377503
0.000380933
0.000382852
0.000383567
0.000382829
0.000380443
0.000376857
0.000371966
0.000365783
0.000358397
0.000349982
0.000340674
0.000330639
0.000319914
0.000308724
0.000297201
0.000285372
0.00027344
0.000261532
0.000249756
0.000238219
0.000226939
0.000215992
0.000205411
0.000195235
0.000185527
0.00017627
0.000167456
0.000159092
0.000151235
0.00014388
0.00013699
0.000130544
0.000124521
0.000161482
0.000168127
0.000175162
0.000182611
0.000190478
0.000198771
0.000207482
0.000216603
0.00022613
0.000236051
0.00024633
0.000256925
0.000267796
0.000278875
0.000290084
0.000301383
0.000312639
0.000323727
0.000334492
0.000344862
0.000354709
0.000363887
0.000372193
0.000379489
0.000385677
0.000390613
0.000394227
0.000396322
0.000397048
0.00039628
0.000393874
0.000390146
0.000384981
0.000378519
0.000370806
0.000362029
0.0003523
0.000341792
0.000330606
0.000318926
0.00030688
0.000294549
0.000282118
0.000269765
0.000257517
0.000245494
0.000233749
0.000222345
0.000211344
0.000200781
0.000190688
0.000181078
0.000171965
0.000163348
0.000155238
0.000147617
0.000140471
0.000133781
0.000127548
0.00016364
0.000170583
0.000177935
0.000185721
0.000193944
0.000202613
0.000211727
0.00022128
0.000231262
0.000241654
0.000252427
0.000263544
0.000274957
0.000286592
0.000298366
0.000310206
0.000322004
0.000333649
0.000344996
0.000355934
0.000366313
0.000375956
0.000384702
0.000392405
0.00039894
0.000404158
0.000407987
0.000410229
0.000410999
0.000410206
0.000407719
0.000403827
0.000398434
0.000391686
0.000383634
0.000374453
0.000364281
0.000353274
0.000341566
0.000329331
0.000316722
0.00030387
0.000290929
0.000278041
0.000265274
0.000252732
0.000240495
0.000228631
0.000217191
0.000206213
0.000195727
0.000185752
0.000176299
0.000167369
0.000158957
0.000151055
0.000143655
0.000136736
0.000130295
0.000165607
0.000172864
0.000180553
0.000188697
0.000197302
0.000206376