/*--------------------------------*- C++ -*----------------------------------*\
| =========                 |                                                 |
| \\      /  F ield         | OpenFOAM: The Open Source CFD Toolbox           |
|  \\    /   O peration     | Version:  2312                                  |
|   \\  /    A nd           | Website:  www.openfoam.com                      |
|    \\/     M anipulation  |                                                 |
\*---------------------------------------------------------------------------*/
FoamFile
{
    version     2.0;
    format      ascii;
    arch        "LSB;label=32;scalar=64";
    class       surfaceScalarField;
    location    "200";
    object      phi;
}
// * * * * * * * * * * * * * * * * * * * * * * * * * * * * * * * * * * * * * //

dimensions      [0 3 -1 0 0 0 0];

oriented        oriented;

internalField   nonuniform List<scalar> 
116611
(
0.00117072
0.000358672
-0.00115531
-0.000374082
0.00118599
0.000352531
-0.000367804
0.00120109
0.000345996
-0.000361102
0.00121604
0.00033904
-0.000353983
0.00123072
0.000331636
-0.000346317
0.00124542
0.000323709
-0.00033841
0.00125948
0.00031534
-0.000329402
0.00127364
0.000306462
-0.000320618
0.00128745
0.00029707
-0.000310881
0.00130105
0.000287151
-0.000300751
0.00131437
0.000276664
-0.000289987
0.00132743
0.000265601
-0.000278658
0.00134013
0.00025395
-0.000266647
0.0013526
0.000241661
-0.000254135
0.00136468
0.000228769
-0.000240847
0.00137633
0.000215314
-0.000226971
0.00138776
0.000201056
-0.000212485
0.00139871
0.000186261
-0.000197207
0.00140918
0.000170596
-0.00018107
0.0014192
0.000154388
-0.000164407
0.00142894
0.000137278
-0.000147013
0.00143812
0.000119476
-0.000128653
0.00144678
0.000100855
-0.000109516
0.00145496
8.14708e-05
-8.96507e-05
0.00146248
6.12773e-05
-6.88021e-05
0.00146954
4.01958e-05
-4.72523e-05
0.00147607
1.81618e-05
-2.46958e-05
0.00148164
-4.62828e-06
-9.42014e-07
0.00148704
-2.84172e-05
2.3022e-05
0.00149125
-5.31608e-05
4.89506e-05
0.00149497
-7.86478e-05
7.49216e-05
0.00149787
-0.000105317
0.000102416
0.00150004
-0.000132911
0.000130746
0.00150136
-0.000161488
0.000160163
0.00150188
-0.000191269
0.000190755
0.00150152
-0.000221969
0.000222331
0.0015004
-0.000253912
0.000255025
0.00149834
-0.000286922
0.000288984
0.00149532
-0.000321006
0.000324032
0.00149132
-0.000356322
0.000360322
0.00148625
-0.00039276
0.000397822
0.00148021
-0.000430528
0.00043657
0.00147312
-0.000469453
0.000476548
0.00146466
-0.000509612
0.000518073
0.0014553
-0.000551074
0.00056043
0.00144444
-0.00059386
0.000604719
0.00143239
-0.000637986
0.000650033
0.00141884
-0.000683424
0.000696974
0.00140395
-0.000730291
0.000745189
0.00138743
-0.000778569
0.000795081
0.00136942
-0.000828289
0.000846302
0.00134978
-0.000879483
0.000899126
0.00132836
-0.000932176
0.000953597
0.00130513
-0.000986396
0.00100962
0.00128026
-0.00104214
0.00106702
0.00125292
-0.00109965
0.00112698
0.00122384
-0.00115869
0.00118777
0.00119227
-0.00121954
0.00125111
0.00115834
-0.00128232
0.00131625
0.00112206
-0.00134696
0.00138324
0.00108267
-0.00141301
0.0014524
0.0010396
-0.00147976
0.00152283
0.000993993
-0.00154804
0.00159365
0.000951675
-0.00162809
0.00167041
0.000911004
-0.00172603
0.0017667
0.00084302
-0.00179658
0.00186456
0.000728344
-0.00175978
0.00187445
0.000579449
-0.0016211
0.00177
-0.00146248
0.000440878
0.00160105
0.00115174
0.000343412
-0.00113648
0.00116683
0.00033744
0.00118176
0.000331069
0.00119651
0.000324281
0.00121112
0.00031703
0.00122549
0.000309344
0.00123963
0.000301196
0.00125354
0.000292549
0.00126721
0.000283405
0.00128063
0.000273728
0.00129378
0.00026351
0.00130664
0.000252742
0.0013192
0.000241396
0.00133141
0.000229449
0.00134326
0.000216923
0.00135482
0.00020375
0.00136594
0.000189939
0.00137674
0.000175463
0.00138703
0.000160303
0.00139698
0.000144435
0.00140643
0.000127835
0.0014154
0.000110505
0.00142384
9.24069e-05
0.00143179
7.353e-05
0.00143921
5.38499e-05
0.00144608
3.33236e-05
0.00145229
1.19546e-05
0.00145792
-1.02603e-05
0.00146288
-3.33738e-05
0.0014671
-5.73771e-05
0.00147075
-8.23023e-05
0.00147363
-0.000108199
0.00147579
-0.000135063
0.00147722
-0.00016292
0.00147777
-0.000191825
0.00147756
-0.000221753
0.0014764
-0.000252756
0.00147431
-0.000284829
0.0014713
-0.000317999
0.00146729
-0.000352313
0.0014623
-0.000387771
0.00145618
-0.000424407
0.00144894
-0.000462215
0.00144056
-0.00050123
0.00143098
-0.000541492
0.00142012
-0.000582997
0.00140793
-0.000625798
0.0013944
-0.000669891
0.00137943
-0.000715325
0.00136296
-0.000762103
0.00134493
-0.000810253
0.00132524
-0.000859789
0.0013038
-0.000910741
0.00128054
-0.000963134
0.00125539
-0.00101699
0.00122811
-0.00107238
0.00119875
-0.00112932
0.00116713
-0.00118792
0.0011331
-0.00124829
0.0010964
-0.00131026
0.00105647
-0.00137308
0.00101286
-0.00143615
0.000968914
-0.0015041
0.000929952
-0.00158913
0.000885017
-0.0016811
0.000801411
-0.00171297
0.000670168
-0.00162854
0.000520205
-0.00147114
-0.00132998
0.000387702
0.0011333
0.000328331
-0.00111822
0.00114823
0.000322513
0.00116299
0.000316304
0.00117759
0.000309684
0.00119199
0.000302635
0.00120618
0.000295146
0.00122018
0.000287201
0.00123394
0.000278784
0.00124747
0.00026988
0.00126073
0.000260468
0.00127371
0.000250532
0.00128639
0.000240055
0.00129877
0.000229021
0.00131081
0.000217411
0.00132252
0.000205212
0.00133387
0.0001924
0.00134484
0.000178964
0.00135543
0.000164879
0.0013656
0.00015013
0.00137534
0.000134694
0.00138462
0.000118558
0.00139342
0.0001017
0.00140173
8.40976e-05
0.00140953
6.57328e-05
0.00141679
4.65865e-05
0.00142348
2.66378e-05
0.00142957
5.86501e-06
0.00143505
-1.57458e-05
0.00143989
-3.82163e-05
0.00144409
-6.15689e-05
0.00144761
-8.58234e-05
0.00145041
-0.000110998
0.00145246
-0.000137121
0.00145376
-0.000164212
0.00145423
-0.000192294
0.00145386
-0.000221386
0.00145261
-0.000251506
0.00145046
-0.000282677
0.00144737
-0.000314915
0.0014433
-0.000348241
0.0014382
-0.000382673
0.00143203
-0.000418233
0.00142475
-0.000454939
0.00141633
-0.000492809
0.00140671
-0.000531866
0.00139584
-0.000572128
0.00138366
-0.00061362
0.00137012
-0.000656355
0.00135515
-0.000700351
0.00133867
-0.000745625
0.00132061
-0.000792191
0.00130088
-0.000840064
0.00127941
-0.000889262
0.00125608
-0.000939806
0.00123081
-0.00099172
0.00120348
-0.00104505
0.00117401
-0.00109986
0.00114231
-0.00115622
0.00110814
-0.00121412
0.00107097
-0.0012731
0.00103018
-0.00133228
0.000986899
-0.00139287
0.000946459
-0.00146366
0.000909763
-0.00155243
0.000854693
-0.00162603
0.000751374
-0.00160966
0.000607594
-0.00148476
0.000459479
-0.00132303
-0.00120513
0.000334626
0.00111548
0.000313444
-0.0011006
0.00113023
0.00030777
0.00114481
0.000301718
0.00115923
0.00029527
0.00117345
0.00028841
0.00118748
0.000281121
0.00120129
0.000273388
0.00121488
0.000265198
0.00122822
0.000256534
0.00124131
0.000247381
0.00125412
0.00023772
0.00126664
0.000227534
0.00127886
0.000216808
0.00129074
0.000205524
0.00130229
0.000193664
0.00131348
0.000181213
0.00132429
0.000168151
0.00133471
0.000154461
0.00134471
0.000140124
0.00135428
0.000125123
0.00136341
0.000109437
0.00137206
9.30489e-05
0.00138021
7.59391e-05
0.00138786
5.80888e-05
0.00139497
3.94792e-05
0.00140151
2.00904e-05
0.00140748
-9.93703e-08
0.00141283
-2.11018e-05
0.00141756
-4.29401e-05
0.00142162
-6.56354e-05
0.00142501
-8.92062e-05
0.00142768
-0.000113673
0.00142962
-0.000139059
0.00143079
-0.000165384
0.00143117
-0.000192666
0.00143071
-0.000220927
0.00142938
-0.000250182
0.00142716
-0.000280451
0.00142399
-0.000311751
0.00141985
-0.000344101
0.0014147
-0.000377521
0.00140849
-0.000412027
0.00140119
-0.000447636
0.00139275
-0.000484366
0.00138311
-0.000522233
0.00137224
-0.000561253
0.00136006
-0.000601441
0.00134652
-0.00064281
0.00133153
-0.00068537
0.00131504
-0.000729133
0.00129696
-0.000774108
0.0012772
-0.000820308
0.00125569
-0.000867745
0.00123231
-0.000916434
0.00120699
-0.000966399
0.00117963
-0.00101769
0.00115014
-0.00107036
0.00111835
-0.00112443
0.00108385
-0.00117962
0.00104598
-0.00123523
0.00100482
-0.00129112
0.000963673
-0.00135173
0.000927808
-0.0014278
0.000889178
-0.0015138
0.000817015
-0.00155386
0.000693422
-0.00148606
0.000542265
-0.0013336
0.000400314
-0.00118107
-0.0010908
0.000285989
0.00109838
0.000298761
-0.0010837
0.00111292
0.000293229
0.00112731
0.000287333
0.00114152
0.000281054
0.00115556
0.000274376
0.00116939
0.000267284
0.00118302
0.000259764
0.00119642
0.0002518
0.00120957
0.000243377
0.00122247
0.000234479
0.0012351
0.000225089
0.00124745
0.000215192
0.00125948
0.000204771
0.0012712
0.000193808
0.00128257
0.000182288
0.00129359
0.000170194
0.00130424
0.000157506
0.00131449
0.000144209
0.00132433
0.000130283
0.00133374
0.000115712
0.00134271
0.000100475
0.0013512
8.45569e-05
0.0013592
6.79376e-05
0.00136669
5.05991e-05
0.00137365
3.25226e-05
0.00138005
1.36891e-05
0.00138587
-5.91891e-06
0.00139108
-2.63175e-05
0.00139567
-4.75291e-05
0.00139961
-6.95731e-05
0.00140287
-9.24681e-05
0.00140543
-0.000116233
0.00140726
-0.000140889
0.00140833
-0.000166452
0.0014086
-0.000192942
0.00140805
-0.000220377
0.00140665
-0.000248775
0.00140435
-0.000278152
0.00140112
-0.000308526
0.00139694
-0.000339914
0.00139175
-0.000372332
0.00138552
-0.000405795
0.0013782
-0.000440317
0.00136974
-0.000475913
0.00136011
-0.000512594
0.00134922
-0.000550372
0.00133704
-0.000589256
0.00132348
-0.000629256
0.00130849
-0.000670377
0.00129199
-0.000712627
0.00127389
-0.000756014
0.00125413
-0.000800542
0.0012326
-0.00084622
0.00120923
-0.000893059
0.00118391
-0.000941086
0.00115658
-0.000990349
0.00112708
-0.00104086
0.00109509
-0.00109245
0.00106004
-0.00114457
0.00102158
-0.00119676
0.000981329
-0.00125088
0.000944404
-0.00131481
0.000911941
-0.00139533
0.000864116
-0.00146598
0.000769401
-0.00145915
0.000628434
-0.0013451
0.000475806
-0.00118097
0.000343232
-0.0010485
-0.000987121
0.000239553
0.00108195
0.000284252
-0.00106744
0.00109631
0.000278872
0.0011105
0.000273139
0.00112452
0.000267033
0.00113836
0.00026054
0.001152
0.000253646
0.00116542
0.000246338
0.00117862
0.000238599
0.00119159
0.000230416
0.00120429
0.000221772
0.00121673
0.000212653
0.00122888
0.000203042
0.00124073
0.000192924
0.00125225
0.000182281
0.00126344
0.000171097
0.00127428
0.000159356
0.00128475
0.00014704
0.00129483
0.000134132
0.00130449
0.000120614
0.00131374
0.00010647
0.00132253
9.16801e-05
0.00133086
7.62282e-05
0.0013387
6.00959e-05
0.00134604
4.32651e-05
0.00135284
2.5718e-05
0.00135909
7.43577e-06
0.00136477
-1.15957e-05
0.00136985
-3.13968e-05
0.00137431
-5.19879e-05
0.00137812
-7.33867e-05
0.00138127
-9.56112e-05
0.00138371
-0.000118679
0.00138543
-0.00014261
0.0013864
-0.000167419
0.00138658
-0.000193126
0.00138595
-0.000219747
0.00138448
-0.000247298
0.00138212
-0.000275795
0.00137885
-0.000305254
0.00137462
-0.000335689
0.0013694
-0.000367113
0.00136315
-0.00039954
0.00135581
-0.00043298
0.00134734
-0.000467445
0.00133769
-0.000502941
0.00132679
-0.000539478
0.0013146
-0.000577061
0.00130104
-0.000615696
0.00128605
-0.000655385
0.00126955
-0.000696132
0.00125148
-0.000737938
0.00123174
-0.000780804
0.00121025
-0.000824731
0.00118693
-0.000869734
0.00116168
-0.000915844
0.00113441
-0.00096307
0.00110482
-0.00101128
0.00107244
-0.00106006
0.00103678
-0.00110891
0.000998531
-0.00115852
0.000961348
-0.00121369
0.000929776
-0.00128323
0.000895872
-0.00136143
0.000829991
-0.0014001
0.000710882
-0.00134004
0.000558282
-0.0011925
0.000409988
-0.00103268
0.000288982
-0.000927495
-0.000893816
0.000195677
0.00106609
0.000269883
-0.00105172
0.0010803
0.000264667
0.00109433
0.000259107
0.00110818
0.000253183
0.00112183
0.000246883
0.00113529
0.000240194
0.00114852
0.000233101
0.00116153
0.000225591
0.0011743
0.00021765
0.00118681
0.000209263
0.00119905
0.000200414
0.001211
0.00019109
0.00122265
0.000181273
0.00123398
0.000170948
0.00124498
0.000160099
0.00125563
0.000148709
0.00126591
0.000136761
0.0012758
0.00012424
0.00128529
0.000111127
0.00129435
9.74061e-05
0.00130297
8.30595e-05
0.00131113
6.80701e-05
0.0013188
5.24204e-05
0.00132598
3.60929e-05
0.00133262
1.90704e-05
0.00133872
1.33469e-06
0.00134426
-1.71272e-05
0.0013492
-3.63375e-05
0.00135352
-5.63143e-05
0.00135721
-7.70747e-05
0.00136024
-9.86357e-05
0.00136257
-0.000121015
0.00136419
-0.000144228
0.00136506
-0.000168294
0.00136516
-0.000193226
0.00136446
-0.000219042
0.00136292
-0.000245755
0.0013605
-0.00027338
0.00135718
-0.000301931
0.00135291
-0.000331419
0.00134765
-0.000361856
0.00134136
-0.000393252
0.001334
-0.000425615
0.00132551
-0.000458953
0.00131584
-0.000493272
0.00130494
-0.000528577
0.00129274
-0.000564869
0.0012792
-0.000602151
0.00126424
-0.000640423
0.00124779
-0.000679681
0.00122977
-0.00071992
0.0012101
-0.000761136
0.0011887
-0.000803334
0.0011655
-0.000846528
0.00114037
-0.000890721
0.0011131
-0.000935801
0.00108325
-0.000981432
0.00105033
-0.00102714
0.00101457
-0.00107315
0.000978381
-0.00112233
0.000946502
-0.00118181
0.000918464
-0.0012552
0.000874336
-0.0013173
0.000782936
-0.0013087
0.000642223
-0.00119933
0.000485353
-0.00103563
0.000346225
-0.000893548
0.000237692
-0.000818962
-0.000809924
0.0001538
0.00105073
0.000255648
-0.0010365
0.0010648
0.000250599
0.00107869
0.000245216
0.00109239
0.000239482
0.00110589
0.000233382
0.00111918
0.000226903
0.00113225
0.000220033
0.00114508
0.000212758
0.00115767
0.000205065
0.00116999
0.000196938
0.00118204
0.000188364
0.00119381
0.000179328
0.00120527
0.000169814
0.00121641
0.000159807
0.00122721
0.000149293
0.00123767
0.000138253
0.00124776
0.000126673
0.00125746
0.000114537
0.00126676
0.000101826
0.00127564
8.8526e-05
0.00128408
7.46188e-05
0.00129206
6.00878e-05
0.00129957
4.49163e-05
0.00130657
2.90873e-05
0.00131306
1.25838e-05
0.001319
-4.61016e-06
0.00132439
-2.25101e-05
0.00132919
-4.11364e-05
0.00133338
-6.05061e-05
0.00133694
-8.06353e-05
0.00133984
-0.00010154
0.00134206
-0.000123238
0.00134358
-0.000145742
0.00134436
-0.00016907
0.00134437
-0.000193236
0.00134358
-0.000218254
0.00134196
-0.000244136
0.00133947
-0.000270896
0.00133609
-0.000298545
0.00133176
-0.000327094
0.00132646
-0.000356551
0.00132013
-0.000386924
0.00131274
-0.00041822
0.00130423
-0.000450444
0.00129455
-0.000483599
0.00128366
-0.000517686
0.0012715
-0.000552706
0.001258
-0.000588655
0.00124311
-0.000625527
0.00122674
-0.000663313
0.00120882
-0.000702003
0.00118928
-0.000741596
0.00116805
-0.000782097
0.00114501
-0.000823492
0.00111997
-0.000865679
0.00109254
-0.00090837
0.00106225
-0.00095114
0.00102912
-0.00099401
0.000994784
-0.00103881
0.000963207
-0.00109075
0.000937097
-0.0011557
0.000906087
-0.00122419
0.000840916
-0.00125213
0.000721211
-0.00118899
0.000565732
-0.00104385
0.000412104
-0.000881998
0.000285478
-0.000766922
0.000189262
-0.000722745
-0.000733959
0.000113296
0.00103591
0.000241561
-0.00102182
0.00104983
0.000236676
0.00106357
0.000231472
0.00107713
0.000225927
0.00109048
0.000220029
0.00110362
0.000213766
0.00111653
0.000207123
0.0011292
0.000200087
0.00114162
0.000192645
0.00115377
0.000184784
0.00116565
0.000176488
0.00117723
0.000167744
0.00118851
0.000158536
0.00119947
0.000148851
0.00121009
0.000138672
0.00122036
0.000127984
0.00123026
0.000116772
0.00123978
0.000105019
0.00124889
9.27105e-05
0.00125759
7.98289e-05
0.00126585
6.63586e-05
0.00127365
5.22831e-05
0.00128098
3.7586e-05
0.00128782
2.22513e-05
0.00129414
6.26177e-06
0.00129993
-1.03954e-05
0.00130516
-2.77392e-05
0.00130981
-4.57875e-05
0.00131386
-6.45561e-05
0.00131728
-8.40605e-05
0.00132006
-0.000104316
0.00132216
-0.000125338
0.00132356
-0.000147141
0.00132422
-0.000169738
0.00132413
-0.000193144
0.00132325
-0.000217371
0.00132154
-0.000242431
0.00131898
-0.000268334
0.00131553
-0.000295091
0.00131114
-0.00032271
0.00130579
-0.000351199
0.00129943
-0.000380564
0.00129202
-0.000410809
0.00128351
-0.000441936
0.00127386
-0.000473947
0.00126301
-0.000506838
0.00125091
-0.000540606
0.0012375
-0.000575242
0.00122271
-0.000610734
0.00120647
-0.000647071
0.00118871
-0.000684245
0.00116936
-0.000722253
0.00114834
-0.000761071
0.00112544
-0.000800592
0.00110032
-0.000840556
0.00107254
-0.000880591
0.00104204
-0.000920641
0.00101002
-0.00096199
0.000979664
-0.00100846
0.000954485
-0.00106557
0.000930341
-0.00113156
0.00088519
-0.00117904
0.000790232
-0.00115717
0.000645746
-0.00104451
0.000484697
-0.000882797
0.000340661
-0.000737963
0.000228186
-0.000654447
0.000143413
-0.000637972
-0.000665452
7.49061e-05
0.00102169
0.000227638
-0.00100777
0.00103545
0.000222917
0.00104903
0.000217889
0.00106243
0.000212534
0.00107562
0.000206838
0.0010886
0.000200789
0.00110135
0.000194374
0.00111385
0.000187579
0.00112611
0.000180391
0.00113809
0.000172797
0.0011498
0.000164782
0.00116121
0.000156332
0.00117231
0.000147434
0.00118309
0.000138072
0.00119353
0.000128231
0.00120362
0.000117896
0.00121334
0.000107053
0.00122268
9.56847e-05
0.00123161
8.37768e-05
0.00124013
7.13133e-05
0.00124821
5.82784e-05
0.00125583
4.46564e-05
0.00126299
3.04313e-05
0.00126965
1.55876e-05
0.0012758
1.09321e-07
0.00128142
-1.60162e-05
0.00128649
-3.28087e-05
0.00129099
-5.02839e-05
0.00129489
-6.84568e-05
0.00129817
-8.7342e-05
0.00130081
-0.000106954
0.00130278
-0.000127307
0.00130405
-0.000148415
0.00130461
-0.00017029
0.00130441
-0.000192944
0.00130343
-0.00021639
0.00130163
-0.000240637
0.00129899
-0.000265696
0.00129548
-0.000291574
0.00129105
-0.000318279
0.00128566
-0.000345817
0.00127929
-0.000374191
0.00127189
-0.000403405
0.00126341
-0.000433456
0.00125381
-0.000464344
0.00124303
-0.000496061
0.00123102
-0.000528598
0.00121772
-0.000561944
0.00120307
-0.000596085
0.00118701
-0.000631012
0.00116948
-0.000666713
0.00115038
-0.000703152
0.00112953
-0.000740217
0.0011066
-0.000777663
0.0010812
-0.000815164
0.00105327
-0.00085266
0.00102378
-0.000891145
0.000995363
-0.000933576
0.000971425
-0.000984523
0.000950966
-0.00104511
0.000919072
-0.00109967
0.000847098
-0.00110706
0.000720176
-0.00103025
0.000559879
-0.000884208
0.000402643
-0.000725561
0.000272585
-0.000607905
0.000174437
-0.0005563
9.96246e-05
-0.000563159
-0.00060218
3.63528e-05
0.00100817
0.000213887
-0.000994423
0.00102176
0.000209332
0.00103517
0.000204481
0.00104838
0.000199316
0.0010614
0.000193822
0.0010742
0.000187988
0.00108677
0.000181801
0.0010991
0.000175247
0.00111118
0.000168314
0.00112299
0.000160987
0.00113452
0.000153254
0.00114575
0.000145101
0.00115667
0.000136512
0.00116727
0.000127474
0.00117753
0.000117972
0.00118743
0.000107991
0.00119697
9.75172e-05
0.00120612
8.65342e-05
0.00121487
7.50273e-05
0.0012232
6.29813e-05
0.0012311
5.03808e-05
0.00123854
3.72106e-05
0.00124552
2.34554e-05
0.00125201
9.0999e-06
0.00125799
-5.86947e-06
0.00126344
-2.14683e-05
0.00126834
-3.77139e-05
0.00127268
-5.4621e-05
0.00127643
-7.22038e-05
0.00127956
-9.04763e-05
0.00128206
-0.000109452
0.0012839
-0.000129144
0.00128505
-0.000149565
0.00128548
-0.000170727
0.00128518
-0.000192641
0.00128411
-0.000215318
0.00128224
-0.000238766
0.00127954
-0.000262994
0.00127597
-0.00028801
0.00127151
-0.000313818
0.00126612
-0.000340423
0.00125975
-0.000367827
0.00125238
-0.000396029
0.00124395
-0.000425026
0.00123441
-0.000454812
0.00122373
-0.000485377
0.00121184
-0.000516711
0.0011987
-0.0005488
0.00118425
-0.000581635
0.00116844
-0.000615197
0.00115116
-0.000649438
0.00113224
-0.000684235
0.00111138
-0.000719357
0.00108824
-0.000754522
0.00106279
-0.000789709
0.00103591
-0.000825778
0.0010099
-0.000865142
0.000987841
-0.000911514
0.000969986
-0.000966669
0.000946386
-0.00102151
0.000892514
-0.00104579
0.000785418
-0.000999965
0.000632805
-0.000877635
0.000468411
-0.000719814
0.000322701
-0.000579851
0.000208842
-0.000494046
0.000124196
-0.000471654
5.80335e-05
-0.000496996
-0.000544642
4.95121e-07
0.000995396
0.000200311
-0.00098182
0.0010088
0.000195924
0.00102203
0.000191254
0.00103507
0.000186281
0.0010479
0.000180992
0.00106051
0.000175374
0.0010729
0.000169416
0.00108504
0.000163105
0.00109692
0.000156427
0.00110854
0.000149369
0.00111988
0.000141919
0.00113092
0.000134061
0.00114165
0.000125783
0.00115205
0.00011707
0.00116212
0.000107907
0.00117183
9.82804e-05
0.00118117
8.81752e-05
0.00119013
7.75767e-05
0.00119868
6.64699e-05
0.00120683
5.48401e-05
0.00121453
4.26724e-05
0.00122179
2.99519e-05
0.00122858
1.66639e-05
0.00123489
2.79354e-06
0.00124069
-1.16713e-05
0.00124597
-2.67481e-05
0.00125071
-4.24521e-05
0.00125489
-5.87971e-05
0.00125848
-7.57966e-05
0.00126147
-9.34639e-05
0.00126383
-0.000111812
0.00126553
-0.000130852
0.00126657
-0.000150597
0.0012669
-0.000171058
0.0012665
-0.000192244
0.00126534
-0.000214164
0.00126341
-0.000236828
0.00126065
-0.000260242
0.00125706
-0.000284411
0.00125258
-0.00030934
0.00124719
-0.000335031
0.00124084
-0.000361484
0.00123351
-0.000388695
0.00122514
-0.000416659
0.0012157
-0.000445368
0.00120513
-0.000474813
0.0011934
-0.000504983
0.00118047
-0.000535865
0.00116627
-0.000567436
0.00115071
-0.000599636
0.0011336
-0.000632331
0.00111467
-0.000665302
0.00109364
-0.000698323
0.00107056
-0.000731441
0.00104632
-0.000765478
0.00102305
-0.000802505
0.00100345
-0.000845544
0.000988117
-0.000896178
0.00096991
-0.000948462
0.000928857
-0.000980457
0.000839966
-0.000956904
0.000699257
-0.000859256
0.000533627
-0.000712005
0.000376379
-0.000562566
0.000247176
-0.000450649
0.000149831
-0.0003967
7.72746e-05
-0.000399098
1.84954e-05
-0.000438217
-0.000490586
-3.55608e-05
0.000983387
0.000186903
-0.000969979
0.00099662
0.00018269
0.00100967
0.000178205
0.00102252
0.000173428
0.00103517
0.000168348
0.00104759
0.00016295
0.00105978
0.000157225
0.00107173
0.000151158
0.00108342
0.000144738
0.00109483
0.000137952
0.00110597
0.000130785
0.0011168
0.000123226
0.00112733
0.000115259
0.00113753
0.000106871
0.00114739
9.80474e-05
0.00115689
8.87747e-05
0.00116603
7.90381e-05
0.00117478
6.8823e-05
0.00118314
5.81151e-05
0.00119108
4.68997e-05
0.00119859
3.51624e-05
0.00120565
2.28886e-05
0.00121225
1.00642e-05
0.00121837
-3.32425e-06
0.00122399
-1.72906e-05
0.00122909
-3.18512e-05
0.00123366
-4.702e-05
0.00123767
-6.28101e-05
0.00124111
-7.92343e-05
0.00124395
-9.63052e-05
0.00124617
-0.000114035
0.00124776
-0.000132434
0.00124867
-0.000151514
0.0012489
-0.000171285
0.00124841
-0.000191756
0.00124718
-0.000212934
0.00124518
-0.000234828
0.00124238
-0.000257443
0.00123876
-0.000280783
0.00123427
-0.00030485
0.00122888
-0.000329646
0.00122256
-0.000355167
0.00121528
-0.000381411
0.00120699
-0.00040837
0.00119766
-0.000436038
0.00118726
-0.000464407
0.00117573
-0.000493461
0.00116304
-0.000523171
0.00114906
-0.000553461
0.00113362
-0.000584193
0.00111646
-0.000615168
0.00109738
-0.000646228
0.00107658
-0.000677518
0.00105502
-0.000709885
0.00103472
-0.000745175
0.00101805
-0.000785836
0.00100546
-0.00083295
0.000991126
-0.000881846
0.00095857
-0.000915906
0.00088403
-0.000905917
0.000756285
-0.000829159
0.000593873
-0.000696844
0.000429827
-0.000547959
0.000288062
-0.000420801
0.000177472
-0.000340059
9.55766e-05
-0.000314804
3.34182e-05
-0.00033694
-1.88586e-05
-0.00038594
-0.000442047
-6.73976e-05
0.000972157
0.000173661
-0.000958915
0.000985221
0.000169627
0.000998094
0.000165331
0.00101077
0.000160756
0.00102323
0.000155888
0.00103546
0.000150716
0.00104746
0.000145227
0.00105921
0.00013941
0.0010707
0.000133251
0.00108191
0.000126739
0.00109283
0.000119859
0.00110346
0.0001126
0.00111377
0.000104946
0.00112376
9.68849e-05
0.0011334
8.84021e-05
0.00114269
7.94838e-05
0.00115162
7.01156e-05
0.00116016
6.02834e-05
0.0011683
4.99729e-05
0.00117603
3.917e-05
0.00118333
2.78603e-05
0.00119019
1.603e-05
0.00119659
3.66495e-06
0.00120251
-9.24655e-06
0.00120794
-2.27207e-05
0.00121286
-3.67716e-05
0.00121725
-5.14124e-05
0.0012211
-6.66554e-05
0.00122438
-8.25129e-05
0.00122707
-9.89966e-05
0.00122915
-0.000116118
0.0012306
-0.000133887
0.0012314
-0.000152313
0.00123153
-0.000171407
0.00123094
-0.000191175
0.00122964
-0.000211626
0.00122757
-0.000232765
0.00122473
-0.000254597
0.00122107
-0.000277124
0.00121657
-0.000300349
0.00121119
-0.00032427
0.00120491
-0.000348886
0.00119769
-0.000374193
0.00118951
-0.000400187
0.00118033
-0.000426859
0.00117012
-0.000454193
0.0011588
-0.000482146
0.00114626
-0.000510634
0.00113232
-0.000539519
0.00111676
-0.000568635
0.00109951
-0.000597917
0.00108092
-0.000627633
0.00106209
-0.000658692
0.00104497
-0.000692768
0.00103158
-0.000731783
0.00102192
-0.000776177
0.00101056
-0.000821592
0.000983253
-0.000854534
0.000918552
-0.000851205
0.000802149
-0.000789513
0.000645313
-0.000672323
0.000478618
-0.00053015
0.000328285
-0.000397626
0.000206481
-0.000298998
0.000114306
-0.000247883
4.59651e-05
-0.000246464
-7.66169e-06
-0.000283313
-5.49965e-05
-0.000338606
-0.000395239
-0.000101804
0.000961732
0.000160583
-0.000948654
0.000974627
0.000156732
0.000987327
0.000152631
0.000999821
0.000148262
0.0010121
0.000143612
0.00102414
0.00013867
0.00103595
0.000133423
0.0010475
0.000127859
0.00105878
0.000121967
0.00106979
0.000115733
0.0010805
0.000109144
0.00109092
0.000102188
0.00110101
9.48506e-05
0.00111078
8.71186e-05
0.0011202
7.89782e-05
0.00112927
7.04153e-05
0.00113797
6.14162e-05
0.00114629
5.19666e-05
0.00115421
4.20526e-05
0.00116172
3.16603e-05
0.0011688
2.07758e-05
0.00117544
9.38547e-06
0.00118163
-2.52328e-06
0.00118735
-1.49638e-05
0.00119258
-2.79515e-05
0.00119731
-4.14994e-05
0.00120152
-5.56195e-05
0.00120518
-7.03238e-05
0.0012083
-8.56237e-05
0.00121083
-0.00010153
0.00121276
-0.000118053
0.00121408
-0.000135203
0.00121476
-0.000152988
0.00121477
-0.000171417
0.00121409
-0.000190497
0.0012127
-0.000210235
0.00121057
-0.000230634
0.00120767
-0.0002517
0.00120398
-0.000273435
0.00119947
-0.00029584
0.00119412
-0.000318915
0.00118789
-0.000342659
0.00118077
-0.000367069
0.00117271
-0.000392136
0.00116369
-0.000417836
0.00115362
-0.000444117
0.00114236
-0.000470886
0.00112974
-0.000498018
0.00111563
-0.000525409
0.0011001
-0.000553109
0.00108372
-0.000581534
0.00106775
-0.000611658
0.00105403
-0.000644978
0.00104414
-0.000682875
0.0010374
-0.000725047
0.00102818
-0.000766954
0.00100348
-0.000796887
0.000944224
-0.000795283
0.000835847
-0.000742828
0.000684845
-0.000638512
0.000518459
-0.000505937
0.000363618
-0.000375309
0.000234252
-0.00026826
0.000133454
-0.0001982
5.8117e-05
-0.000172546
1.36789e-06
-0.000189714
-4.52703e-05
-0.000236675
-8.8768e-05
-0.000295108
-0.000351006
-0.000133002
0.000952158
0.000147672
-0.000939247
0.000964882
0.000144008
0.000977406
0.000140107
0.000989719
0.00013595
0.00100181
0.000131523
0.00101366
0.000126815
0.00102527
0.000121815
0.00103662
0.00011651
0.0010477
0.000110889
0.00105849
0.000104938
0.00106899
9.86448e-05
0.00107918
9.19962e-05
0.00108905
8.49789e-05
0.00109859
7.75793e-05
0.00110779
6.97837e-05
0.00111662
6.15784e-05
0.00112509
5.29493e-05
0.00113317
4.38828e-05
0.00114086
3.43649e-05
0.00114814
2.4382e-05
0.001155
1.39204e-05
0.00116141
2.96677e-06
0.00116738
-8.49032e-06
0.00117288
-2.04661e-05
0.00117791
-3.29737e-05
0.00118243
-4.60253e-05
0.00118645
-5.96325e-05
0.00118993
-7.38064e-05
0.00119286
-8.85578e-05
0.00119523
-0.000103897
0.00119701
-0.000119833
0.00119818
-0.000136375
0.00119872
-0.000153532
0.00119862
-0.00017131
0.00119783
-0.000189716
0.00119636
-0.000208756
0.00119416
-0.000228435
0.00119121
-0.000248757
0.0011875
-0.000269723
0.001183
-0.000291337
0.00117768
-0.000313599
0.00117153
-0.000336505
0.0011645
-0.000360041
0.00115654
-0.000384174
0.00114754
-0.000408842
0.00113738
-0.000433957
0.00112593
-0.000459431
0.00111316
-0.000485248
0.00109935
-0.000511604
0.00108531
-0.000539062
0.0010724
-0.000568632
0.00106231
-0.000601566
0.00105596
-0.000638628
0.00105178
-0.000678691
0.00104353
-0.000716794
0.00101887
-0.000742299
0.000960915
-0.000738929
0.000856481
-0.000690849
0.000709953
-0.000596301
0.000545572
-0.00047413
0.000389777
-0.000350142
0.000257018
-0.00024255
0.000150962
-0.000162204
6.99023e-05
-0.00011714
9.21384e-06
-0.000111858
-3.80886e-05
-0.000142412
-7.93889e-05
-0.000195374
-0.000119432
-0.000255065
-0.000311105
-0.000159333
0.000943514
0.000134931
-0.000930773
0.000956062
0.00013146
0.000968405
0.000127764
0.000980531
0.000123824
0.000992429
0.000119626
0.00100409
0.000115159
0.00101549
0.000110411
0.00102663
0.000105371
0.00103749
0.000100026
0.00104807
9.43632e-05
0.00105834
8.83704e-05
0.0010683
8.20342e-05
0.00107794
7.53411e-05
0.00108724
6.82777e-05
0.0010962
6.08302e-05
0.00110479
5.29848e-05
0.00111301
4.47276e-05
0.00112085
3.60449e-05
0.00112829
2.6923e-05
0.00113533
1.73483e-05
0.00114194
7.30767e-06
0.00114812
-3.2108e-06
0.00115385
-1.42209e-05
0.00115912
-2.57368e-05
0.00116391
-3.77706e-05
0.00116822
-5.03337e-05
0.00117203
-6.3437e-05
0.00117531
-7.70908e-05
0.00117806
-9.13049e-05
0.00118025
-0.000106089
0.00118187
-0.00012145
0.00118289
-0.000137399
0.0011833
-0.000153941
0.00118307
-0.000171083
0.00118219
-0.000188832
0.00118063
-0.000207194
0.00117837
-0.000226173
0.00117538
-0.000245775
0.00117166
-0.000266001
0.00116717
-0.000286851
0.00116189
-0.000308317
0.00115576
-0.000330377
0.00114871
-0.000352989
0.00114063
-0.000376092
0.00113141
-0.000399621
0.00112101
-0.000423554
0.00110958
-0.000448003
0.00109765
-0.000473319
0.00108623
-0.000500184
0.00107672
-0.000529552
0.0010704
-0.000562307
0.00106731
-0.000598485
0.00106476
-0.000636073
0.00105569
-0.000669625
0.0010282
-0.000689301
0.000967464
-0.000681563
0.000862731
-0.000634197
0.000718436
-0.000546554
0.000556807
-0.000434672
0.000403024
-0.000320347
0.00027099
-0.000218107
0.000163856
-0.000135416
8.00811e-05
-7.84292e-05
1.64116e-05
-5.34704e-05
-3.21568e-05
-6.32896e-05
-7.22933e-05
-0.000102275
-0.000109734
-0.000157934
-0.000147301
-0.000217497
-0.000272258
-0.000186148
0.000935882
0.000122364
-0.000923315
0.00094825
0.000119092
0.000960406
0.000115608
0.000972339
0.000111891
0.000984037
0.000107928
0.000995488
0.000103708
0.00100668
9.92193e-05
0.0010176
9.44501e-05
0.00102824
8.93878e-05
0.00103858
8.402e-05
0.00104862
7.83335e-05
0.00105834
7.23152e-05
0.00106773
6.59516e-05
0.00107678
5.92289e-05
0.00108547
5.21334e-05
0.00109381
4.46512e-05
0.00110177
3.67682e-05
0.00110934
2.84707e-05