/*--------------------------------*- C++ -*----------------------------------*\
| =========                 |                                                 |
| \\      /  F ield         | OpenFOAM: The Open Source CFD Toolbox           |
|  \\    /   O peration     | Version:  2312                                  |
|   \\  /    A nd           | Website:  www.openfoam.com                      |
|    \\/     M anipulation  |                                                 |
\*---------------------------------------------------------------------------*/
FoamFile
{
    version     2.0;
    format      ascii;
    arch        "LSB;label=32;scalar=64";
    class       volVectorField;
    location    "200";
    object      U;
}
// * * * * * * * * * * * * * * * * * * * * * * * * * * * * * * * * * * * * * //

dimensions      [0 1 -1 0 0 0 0];

internalField   nonuniform List<vector> 
76025
(
(0.0367475 -0.0105029 0)
(0.0369291 -0.0106058 5.41817e-22)
(0.037115 -0.0107066 0)
(0.0373048 -0.0108056 0)
(0.0374914 -0.0109026 -8.95348e-22)
(0.0376875 -0.0109929 -1.62338e-21)
(0.0378793 -0.0110853 2.74312e-21)
(0.0380737 -0.0111712 -1.14551e-21)
(0.0382709 -0.0112578 -3.37314e-22)
(0.0384707 -0.0113428 3.08314e-22)
(0.0386715 -0.0114247 -6.34142e-24)
(0.0388754 -0.0115025 6.83954e-22)
(0.0390809 -0.0115805 -9.33664e-22)
(0.0392878 -0.0116531 0)
(0.0395008 -0.0117213 1.61621e-22)
(0.039708 -0.0117948 0)
(0.039921 -0.0118573 0)
(0.0401332 -0.0119258 0)
(0.0403483 -0.0119855 4.26698e-23)
(0.0405589 -0.0120515 -1.16099e-23)
(0.0407733 -0.0121092 1.92853e-23)
(0.0409922 -0.0121661 1.8292e-22)
(0.0412114 -0.0122199 -1.33208e-22)
(0.0414307 -0.0122719 -3.77555e-22)
(0.0416492 -0.012324 -6.41233e-23)
(0.0418643 -0.0123837 -2.4819e-22)
(0.0420877 -0.0124267 6.52381e-22)
(0.0423068 -0.0124772 -7.23787e-22)
(0.042527 -0.0125239 2.78789e-22)
(0.0427511 -0.0125581 -3.0412e-22)
(0.0429691 -0.0126006 -3.32743e-22)
(0.0431854 -0.0126482 7.48327e-22)
(0.0434041 -0.0126847 -1.13191e-21)
(0.0436198 -0.0127394 -2.33469e-22)
(0.0438364 -0.0127831 1.0705e-21)
(0.0440516 -0.0128368 1.55022e-23)
(0.044268 -0.0128913 -2.34984e-22)
(0.0444888 -0.0129343 1.22563e-22)
(0.044709 -0.0129883 1.9688e-26)
(0.0449288 -0.0130411 -2.00983e-22)
(0.0451478 -0.0131057 1.32912e-22)
(0.0453674 -0.0131758 -7.03192e-23)
(0.0455914 -0.0132337 1.4416e-22)
(0.045814 -0.0133134 -2.97943e-22)
(0.0460369 -0.0133887 -3.09805e-22)
(0.0462618 -0.0134802 6.19715e-22)
(0.0464855 -0.0135666 6.46626e-22)
(0.0467102 -0.0136711 -1.94275e-21)
(0.0469343 -0.0137845 1.32937e-21)
(0.047159 -0.0139113 3.04513e-23)
(0.0473845 -0.0140513 -3.41279e-21)
(0.0476115 -0.0142033 -1.40186e-21)
(0.0478395 -0.0143696 1.39843e-21)
(0.0480684 -0.014557 0)
(0.0483031 -0.0147617 -1.46817e-21)
(0.0485399 -0.0149961 -1.4539e-21)
(0.0487753 -0.0152508 -9.83449e-26)
(0.049019 -0.0155392 -1.49325e-21)
(0.0492668 -0.0158687 1.55305e-21)
(0.0495209 -0.0162272 -4.6974e-21)
(0.049776 -0.0166128 -3.0795e-21)
(0.0500237 -0.0170627 1.56669e-22)
(0.0502207 -0.0175338 0)
(0.0505807 -0.0181678 8.30886e-21)
(0.0515436 -0.0190335 -3.5841e-21)
(0.0522086 -0.0196725 1.67215e-21)
(0.0502489 -0.0192179 -3.54579e-21)
(0.045107 -0.0179248 3.30866e-21)
(0.0390733 -0.0166363 6.77511e-21)
(0.0365801 -0.010832 5.98662e-22)
(0.0367701 -0.010937 1.63522e-21)
(0.0369622 -0.0110389 -2.17922e-21)
(0.0371568 -0.0111373 0)
(0.0373522 -0.0112346 2.28656e-21)
(0.0375525 -0.0113271 -1.1487e-22)
(0.0377535 -0.0114182 -1.69391e-21)
(0.0379556 -0.0115058 0)
(0.0381597 -0.0115907 -6.86493e-24)
(0.0383656 -0.0116733 -3.15637e-22)
(0.0385737 -0.0117536 2.85856e-22)
(0.0387836 -0.0118309 -4.30719e-24)
(0.0389942 -0.0119062 0)
(0.039206 -0.011979 0)
(0.0394195 -0.0120471 2.73177e-22)
(0.0396332 -0.0121154 -7.44854e-22)
(0.0398497 -0.0121788 -1.06117e-22)
(0.0400662 -0.0122421 1.92789e-22)
(0.0402843 -0.0123015 -1.18338e-22)
(0.0405022 -0.0123598 1.18731e-23)
(0.040722 -0.012415 5.3068e-23)
(0.0409419 -0.0124685 -7.31899e-23)
(0.0411617 -0.0125203 2.04124e-22)
(0.0413816 -0.0125701 -3.58517e-22)
(0.0416022 -0.0126183 2.73569e-22)
(0.0418241 -0.0126651 5.98603e-22)
(0.0420462 -0.0127094 -4.1544e-22)
(0.0422668 -0.012754 0)
(0.0424879 -0.0127963 0)
(0.0427072 -0.0128397 -3.17167e-22)
(0.0429266 -0.0128825 0)
(0.0431477 -0.0129249 -3.68827e-22)
(0.0433689 -0.0129669 4.06569e-22)
(0.0435906 -0.0130095 -6.07729e-22)
(0.0438124 -0.0130525 1.41215e-24)
(0.0440341 -0.013096 -2.28923e-22)
(0.0442558 -0.0131401 0)
(0.044476 -0.0131871 -5.06612e-22)
(0.0446953 -0.0132377 3.88885e-22)
(0.0449147 -0.0132914 -3.31909e-22)
(0.0451346 -0.013348 2.06067e-22)
(0.0453541 -0.0134073 -2.96619e-24)
(0.0455721 -0.0134717 7.93309e-23)
(0.0457895 -0.0135425 -7.36687e-23)
(0.0460069 -0.0136175 6.212e-22)
(0.0462241 -0.0137001 -3.13767e-22)
(0.0464403 -0.013791 -3.24834e-22)
(0.0466562 -0.0138915 6.58522e-22)
(0.0468723 -0.0140013 2.01223e-21)
(0.0470882 -0.0141226 1.47897e-23)
(0.0473038 -0.0142561 2.07198e-21)
(0.0475189 -0.0144044 -7.08626e-22)
(0.0477339 -0.0145699 -2.16684e-21)
(0.0479486 -0.0147537 1.41647e-21)
(0.048163 -0.0149568 0)
(0.0483782 -0.0151865 4.4238e-21)
(0.0485923 -0.0154412 3.38637e-23)
(0.0488093 -0.0157286 -1.48361e-21)
(0.0490308 -0.0160521 -1.48741e-21)
(0.0492558 -0.016415 0)
(0.0494731 -0.0168136 1.6021e-21)
(0.0496418 -0.0172306 4.76588e-21)
(0.0498084 -0.0177312 0)
(0.0503502 -0.0184712 -3.30192e-21)
(0.0514007 -0.0193338 1.41746e-21)
(0.0513136 -0.0196065 -3.26127e-21)
(0.047915 -0.018664 1.61431e-21)
(0.0419276 -0.0171093 -3.50496e-21)
(0.0359558 -0.0159315 -3.4899e-21)
(0.0364077 -0.0111794 -3.02827e-21)
(0.0366047 -0.0112851 1.81513e-21)
(0.036804 -0.0113877 -5.60922e-22)
(0.0370054 -0.0114869 2.03054e-21)
(0.0372089 -0.0115832 -2.5169e-21)
(0.0374143 -0.0116767 -1.77328e-21)
(0.037622 -0.0117673 2.19735e-21)
(0.037832 -0.0118548 0)
(0.0380439 -0.0119393 -6.29991e-24)
(0.0382573 -0.0120209 0)
(0.0384719 -0.0120997 -3.01529e-22)
(0.0386877 -0.0121758 2.65554e-22)
(0.0389046 -0.012249 1.11894e-21)
(0.0391224 -0.0123195 -8.81485e-22)
(0.039341 -0.0123871 1.71541e-22)
(0.039561 -0.0124519 3.89604e-22)
(0.039782 -0.0125141 -1.41723e-22)
(0.0400037 -0.0125737 -7.63211e-23)
(0.040226 -0.012631 -9.81944e-23)
(0.0404491 -0.0126856 5.53679e-23)
(0.0406725 -0.0127381 -2.35037e-23)
(0.040896 -0.0127885 1.44557e-22)
(0.0411196 -0.012837 -5.38532e-23)
(0.0413435 -0.0128835 -1.26439e-22)
(0.0415678 -0.0129281 0)
(0.041792 -0.0129713 1.9821e-22)
(0.0420154 -0.0130136 2.64705e-22)
(0.0422385 -0.0130545 -2.28179e-22)
(0.0424617 -0.0130941 0)
(0.0426847 -0.0131329 6.4656e-22)
(0.0429079 -0.0131701 -3.52365e-22)
(0.0431311 -0.0132071 -4.60639e-24)
(0.0433536 -0.0132444 0)
(0.0435757 -0.0132821 2.10995e-22)
(0.0437971 -0.0133211 -6.83809e-22)
(0.0440176 -0.0133613 4.5356e-22)
(0.0442371 -0.0134035 0)
(0.0444558 -0.0134478 3.88172e-22)
(0.044674 -0.0134938 -3.89161e-22)
(0.0448916 -0.0135423 -6.81435e-23)
(0.0451083 -0.013594 0)
(0.0453236 -0.01365 -1.44884e-22)
(0.0455378 -0.0137104 -7.58711e-23)
(0.0457512 -0.0137756 7.77685e-23)
(0.0459637 -0.0138467 -4.6551e-22)
(0.0461752 -0.013925 -3.17803e-22)
(0.0463857 -0.0140113 6.51895e-22)
(0.0465951 -0.0141062 -6.71792e-22)
(0.0468032 -0.0142113 6.68768e-22)
(0.0470099 -0.014328 -6.72959e-22)
(0.0472147 -0.0144576 -6.97388e-22)
(0.0474174 -0.0146017 1.39211e-21)
(0.047618 -0.0147618 0)
(0.0478159 -0.0149401 1.42015e-21)
(0.0480114 -0.0151394 -3.23046e-23)
(0.0482046 -0.0153632 -1.47742e-21)
(0.0483959 -0.0156146 -1.48782e-21)
(0.0485881 -0.0158985 2.96931e-21)
(0.0487825 -0.0162193 4.19682e-23)
(0.0489701 -0.0165751 1.47253e-21)
(0.049121 -0.0169553 -2.9589e-21)
(0.0492211 -0.0173742 -1.43268e-21)
(0.0494572 -0.017949 2.42689e-23)
(0.050258 -0.0187857 -1.52188e-21)
(0.051131 -0.0195057 -1.61438e-21)
(0.0497948 -0.0192473 -4.49642e-21)
(0.0449849 -0.0178466 0)
(0.0385225 -0.0162487 -1.67116e-21)
(0.0329971 -0.0154267 1.60309e-21)
(0.0362334 -0.0115436 0)
(0.0364373 -0.0116497 6.06935e-22)
(0.0366441 -0.0117525 2.82598e-21)
(0.0368528 -0.0118517 -2.24191e-21)
(0.0370637 -0.0119477 -1.47398e-21)
(0.0372766 -0.0120407 2.45254e-21)
(0.0374916 -0.0121305 -4.39475e-22)
(0.0377085 -0.0122172 4.12591e-22)
(0.0379271 -0.0123007 3.7346e-22)
(0.0381473 -0.0123811 1.30717e-21)
(0.0383688 -0.0124584 -1.30825e-21)
(0.0385915 -0.0125326 -1.04089e-21)
(0.0388153 -0.0126037 3.43928e-22)
(0.03904 -0.0126718 8.41308e-22)
(0.0392655 -0.0127368 -5.64322e-22)
(0.0394918 -0.0127989 1.43062e-22)
(0.0397186 -0.0128582 -1.09301e-22)
(0.0399458 -0.0129146 -7.54018e-23)
(0.0401734 -0.0129685 9.59512e-23)
(0.0404012 -0.0130199 -4.52619e-23)
(0.0406291 -0.0130688 2.39645e-23)
(0.0408571 -0.0131154 0)
(0.0410852 -0.0131599 2.29931e-22)
(0.0413131 -0.0132022 -9.79493e-23)
(0.0415407 -0.0132428 -3.69916e-22)
(0.041768 -0.0132818 -4.80896e-22)
(0.0419946 -0.0133193 9.33999e-22)
(0.0422211 -0.0133552 -5.49112e-22)
(0.042447 -0.0133899 0)
(0.0426721 -0.0134237 -6.64932e-22)
(0.0428964 -0.0134571 -1.89646e-23)
(0.04312 -0.0134903 7.51835e-22)
(0.0433428 -0.0135239 -4.25725e-22)
(0.0435647 -0.0135578 1.08618e-21)
(0.0437858 -0.0135926 -2.11904e-22)
(0.0440058 -0.0136284 0)
(0.0442248 -0.0136656 0)
(0.0444426 -0.0137044 1.30281e-22)
(0.0446592 -0.0137453 1.34152e-22)
(0.0448744 -0.0137891 6.96624e-23)
(0.0450882 -0.0138362 -2.24214e-24)
(0.0453005 -0.0138873 7.3587e-23)
(0.0455115 -0.0139427 0)
(0.045721 -0.0140033 1.26976e-25)
(0.045929 -0.0140699 0)
(0.0461353 -0.0141433 3.29128e-22)
(0.0463397 -0.0142244 1.04812e-23)
(0.046542 -0.0143142 -9.95068e-22)
(0.0467417 -0.0144139 0)
(0.0469384 -0.0145246 -6.97001e-22)
(0.0471317 -0.0146478 6.87788e-22)
(0.0473212 -0.0147849 -1.41996e-21)
(0.0475064 -0.0149382 0)
(0.0476871 -0.0151099 -4.32111e-21)
(0.0478633 -0.0153026 -3.08348e-23)
(0.0480352 -0.0155196 1.44407e-21)
(0.0482041 -0.0157652 1.45126e-21)
(0.0483718 -0.0160436 0)
(0.0485333 -0.0163559 0)
(0.048667 -0.0166963 -1.51142e-21)
(0.0487445 -0.0170607 3.04157e-21)
(0.0488288 -0.0175051 3.0585e-21)
(0.0492619 -0.0181843 0)
(0.0502637 -0.0190479 -2.80701e-21)
(0.0504789 -0.0194328 0)
(0.0475708 -0.018575 4.55369e-21)
(0.0415777 -0.0168448 -1.48018e-21)
(0.0350388 -0.0153631 -1.62009e-21)
(0.0301466 -0.01491 -1.50962e-21)
(0.0360622 -0.0119249 0)
(0.036273 -0.0120311 0)
(0.0364868 -0.0121337 6.07551e-22)
(0.0367027 -0.0122325 -2.19869e-21)
(0.0369208 -0.0123278 2.72281e-21)
(0.0371411 -0.0124198 -4.90948e-22)
(0.0373634 -0.0125085 0)
(0.0375875 -0.0125938 -4.21177e-22)
(0.0378132 -0.0126757 0)
(0.0380403 -0.0127543 -6.73456e-22)
(0.0382688 -0.0128294 6.66742e-23)
(0.0384984 -0.0129013 6.02717e-22)
(0.0387289 -0.0129699 0)
(0.0389603 -0.0130352 -3.94723e-22)
(0.0391923 -0.0130973 1.07921e-21)
(0.0394248 -0.0131563 -5.83404e-22)
(0.0396576 -0.0132122 5.53558e-22)
(0.0398906 -0.0132653 -1.09506e-22)
(0.0401237 -0.0133155 3.79361e-23)
(0.0403567 -0.013363 -7.13165e-24)
(0.0405896 -0.013408 6.26597e-23)
(0.0408222 -0.0134505 -1.66331e-22)
(0.0410545 -0.0134907 -2.06155e-22)
(0.0412863 -0.0135288 0)
(0.0415174 -0.013565 3.89757e-22)
(0.0417479 -0.0135994 2.84705e-22)
(0.0419775 -0.0136322 -7.17883e-22)
(0.0422065 -0.0136636 2.80691e-22)
(0.0424344 -0.0136939 -6.62632e-22)
(0.0426613 -0.0137233 9.90639e-22)
(0.0428871 -0.0137521 -3.74315e-22)
(0.0431119 -0.0137806 2.00225e-22)
(0.0433356 -0.013809 0)
(0.0435581 -0.0138378 -2.21291e-22)
(0.0437792 -0.0138672 -2.32814e-22)
(0.043999 -0.0138977 0)
(0.0442172 -0.0139295 2.56955e-22)
(0.0444338 -0.0139632 -4.04296e-22)
(0.0446488 -0.0139992 2.67881e-22)
(0.0448622 -0.0140379 -1.41856e-22)
(0.0450738 -0.0140798 -2.299e-24)
(0.0452837 -0.0141255 -1.13387e-22)
(0.0454916 -0.0141756 3.76718e-23)
(0.0456974 -0.0142307 1.57211e-22)
(0.045901 -0.0142915 -5.37236e-24)
(0.0461019 -0.0143588 9.76192e-22)
(0.0462999 -0.0144335 0)
(0.0464945 -0.0145165 6.78127e-22)
(0.0466851 -0.0146089 1.11292e-23)
(0.0468713 -0.014712 -6.85317e-22)
(0.0470526 -0.0148273 0)
(0.0472284 -0.0149564 -7.15581e-22)
(0.0473984 -0.0151012 7.07031e-22)
(0.0475621 -0.0152642 1.45178e-21)
(0.0477193 -0.0154481 0)
(0.0478708 -0.0156566 -2.92774e-21)
(0.0480179 -0.0158938 2.90392e-21)
(0.0481574 -0.016162 -2.90544e-21)
(0.0482738 -0.0164579 2.27632e-23)
(0.0483388 -0.0167751 0)
(0.0483625 -0.0171339 -1.44961e-21)
(0.0485402 -0.0176477 1.4797e-21)
(0.0492674 -0.0184342 1.3088e-21)
(0.0501852 -0.0191803 2.86867e-21)
(0.0491765 -0.0190278 -4.03313e-21)
(0.0445961 -0.0175895 2.7934e-21)
(0.0378179 -0.0157077 -1.42356e-21)
(0.031583 -0.0144984 1.34224e-21)
(0.0274533 -0.0144644 4.67955e-21)
(0.0358919 -0.0123244 -2.7354e-21)
(0.0361109 -0.0124308 1.40497e-22)
(0.0363325 -0.0125332 2.58184e-21)
(0.0365561 -0.0126314 0)
(0.0367817 -0.0127258 -5.45475e-22)
(0.0370095 -0.0128166 0)
(0.0372392 -0.0129037 9.12988e-22)
(0.0374706 -0.0129872 -7.13797e-23)
(0.0377036 -0.013067 -1.2369e-21)
(0.0379379 -0.0131432 3.63549e-22)
(0.0381733 -0.0132158 3.26039e-22)
(0.0384098 -0.0132848 2.89437e-22)
(0.0386471 -0.0133503 0)
(0.0388849 -0.0134124 0)
(0.0391233 -0.013471 -1.82427e-22)
(0.039362 -0.0135263 -1.46606e-22)
(0.0396008 -0.0135785 1.8149e-22)
(0.0398396 -0.0136275 -1.81869e-22)
(0.0400782 -0.0136735 -7.12632e-23)
(0.0403165 -0.0137167 -3.73633e-23)
(0.0405544 -0.0137571 1.41338e-22)
(0.0407917 -0.0137949 6.5979e-23)
(0.0410284 -0.0138304 -1.94817e-22)
(0.0412642 -0.0138636 -1.54748e-22)
(0.0414991 -0.0138948 -4.13713e-22)
(0.041733 -0.0139241 4.17247e-22)
(0.0419658 -0.0139517 5.64847e-22)
(0.0421975 -0.0139777 -5.55117e-22)
(0.0424278 -0.0140026 0)
(0.0426568 -0.0140266 0)
(0.0428844 -0.0140499 9.72149e-22)
(0.0431105 -0.0140729 3.70919e-23)
(0.0433351 -0.0140959 -4.18507e-22)
(0.0435581 -0.0141193 -4.73948e-22)
(0.0437794 -0.0141433 4.66325e-22)
(0.043999 -0.0141684 0)
(0.0442168 -0.0141948 -2.60516e-22)
(0.0444326 -0.014223 -4.15388e-22)
(0.0446465 -0.0142534 2.74338e-22)
(0.0448584 -0.0142864 -6.09378e-25)
(0.0450681 -0.0143225 -2.40396e-23)
(0.0452753 -0.0143622 1.13798e-22)
(0.04548 -0.0144061 7.85147e-23)
(0.0456819 -0.0144548 1.62771e-22)
(0.0458805 -0.0145088 -8.18501e-22)
(0.0460756 -0.014569 -5.43181e-24)
(0.0462665 -0.0146362 0)
(0.0464529 -0.0147113 -6.83983e-22)
(0.0466343 -0.0147954 2.09e-21)
(0.04681 -0.0148897 -1.39218e-21)
(0.0469795 -0.0149957 -7.14942e-22)
(0.0471421 -0.015115 -2.92139e-24)
(0.0472973 -0.0152496 -7.33686e-22)
(0.0474444 -0.0154019 -2.02778e-23)
(0.0475838 -0.0155751 1.43578e-21)
(0.047716 -0.0157729 -1.42861e-21)
(0.047839 -0.0159978 -1.44767e-21)
(0.0479405 -0.0162481 2.87659e-21)
(0.0479958 -0.0165181 3.07693e-23)
(0.0479955 -0.0168138 1.42183e-21)
(0.0480404 -0.0172012 -1.41201e-21)
(0.0484555 -0.0178257 1.42591e-21)
(0.0494203 -0.0186495 -2.77494e-21)
(0.0497152 -0.0190579 -1.31038e-21)
(0.0470044 -0.0182247 2.71333e-21)
(0.0409447 -0.0163335 -1.21527e-21)
(0.033871 -0.0145075 -4.098e-21)
(0.0282476 -0.0136943 -1.64737e-21)
(0.0249176 -0.0140896 0)
(0.0357184 -0.0127426 0)
(0.0359473 -0.0128492 -6.9319e-22)
(0.0361785 -0.0129514 8.22317e-24)
(0.0364111 -0.013049 0)
(0.0366456 -0.0131423 0)
(0.0368818 -0.0132317 -5.29087e-22)
(0.0371197 -0.0133171 1.42746e-21)
(0.0373591 -0.0133984 -1.79524e-21)
(0.0375998 -0.0134758 8.56821e-22)
(0.0378417 -0.0135493 -3.70927e-22)
(0.0380845 -0.0136188 0)
(0.0383281 -0.0136845 -2.95258e-22)
(0.0385724 -0.0137464 2.54137e-22)
(0.038817 -0.0138046 0)
(0.0390619 -0.0138591 0)
(0.0393068 -0.0139102 -1.08916e-22)
(0.0395517 -0.0139578 7.57994e-23)
(0.0397963 -0.0140022 1.73092e-22)
(0.0400405 -0.0140434 2.9912e-23)
(0.0402841 -0.0140815 -2.16749e-23)
(0.040527 -0.0141168 4.22403e-23)
(0.040769 -0.0141494 3.78076e-22)
(0.04101 -0.0141795 3.96211e-23)
(0.04125 -0.0142072 -2.05358e-22)
(0.0414887 -0.0142328 3.65756e-22)
(0.0417259 -0.0142565 -2.73954e-22)
(0.0419619 -0.0142783 5.16904e-22)
(0.0421964 -0.0142986 0)
(0.0424292 -0.0143178 0)
(0.0426602 -0.014336 0)
(0.0428896 -0.0143537 -1.96207e-22)
(0.0431171 -0.0143709 -4.34926e-22)
(0.0433428 -0.0143882 4.33175e-22)
(0.0435666 -0.0144057 4.88808e-22)
(0.0437884 -0.0144239 -4.81107e-22)
(0.0440081 -0.014443 0)
(0.0442255 -0.0144634 2.76351e-22)
(0.0444407 -0.0144854 -1.33451e-22)
(0.0446535 -0.0145095 0)
(0.0448637 -0.0145361 1.4859e-22)
(0.0450711 -0.0145656 -2.8947e-23)
(0.0452754 -0.0145985 1.91697e-23)
(0.0454764 -0.0146353 -7.9768e-23)
(0.0456738 -0.0146765 0)
(0.0458671 -0.0147228 -3.37624e-22)
(0.0460559 -0.0147748 3.33116e-22)
(0.0462398 -0.0148333 0)
(0.0464183 -0.0148993 -7.3331e-24)
(0.0465907 -0.0149738 -9.95381e-24)
(0.0467564 -0.015058 7.12452e-22)
(0.0469147 -0.0151533 0)
(0.0470648 -0.0152612 7.21329e-24)
(0.0472059 -0.0153837 -7.27718e-22)
(0.0473378 -0.0155236 -2.17422e-21)
(0.0474607 -0.015684 5.83876e-24)
(0.0475726 -0.0158674 1.46158e-21)
(0.0476635 -0.0160729 0)
(0.0477117 -0.0162953 0)
(0.047701 -0.0165356 1.38875e-21)
(0.0476845 -0.0168314 0)
(0.0478855 -0.0172983 0)
(0.0486255 -0.0180312 2.92996e-23)
(0.0494933 -0.0187229 -1.2784e-21)
(0.0484821 -0.0185438 -2.42679e-21)
(0.0438738 -0.0170183 2.42698e-21)
(0.0367809 -0.014884 2.42257e-22)
(0.0298984 -0.0133166 1.44978e-21)
(0.0250916 -0.0129826 1.39429e-21)
(0.0225444 -0.0137899 0)
(0.0355393 -0.0131801 0)
(0.0357793 -0.0132868 7.07817e-22)
(0.0360214 -0.0133886 -1.96331e-21)
(0.0362646 -0.0134854 6.63309e-22)
(0.0365093 -0.0135775 0)
(0.0367555 -0.0136653 1.58383e-21)
(0.0370029 -0.0137487 -2.49916e-21)
(0.0372515 -0.0138278 7.9104e-23)
(0.0375011 -0.0139024 2.08929e-21)
(0.0377514 -0.0139728 -4.18797e-22)
(0.0380024 -0.0140389 3.34277e-22)
(0.0382539 -0.0141008 2.93654e-22)
(0.0385057 -0.0141587 -7.33588e-22)
(0.0387576 -0.0142125 8.69316e-22)
(0.0390094 -0.0142625 -3.95173e-22)
(0.039261 -0.0143088 9.55724e-23)
(0.0395123 -0.0143514 -3.96997e-22)
(0.0397629 -0.0143905 1.05259e-22)
(0.0400128 -0.0144263 2.31098e-23)
(0.0402618 -0.0144589 5.35091e-23)
(0.0405098 -0.0144885 7.85279e-23)
(0.0407566 -0.0145152 -5.87061e-22)
(0.041002 -0.0145393 -2.10263e-22)
(0.0412461 -0.014561 -7.84979e-23)
(0.0414886 -0.0145805 6.23872e-22)
(0.0417293 -0.0145979 -2.52557e-22)
(0.0419684 -0.0146135 6.24023e-22)
(0.0422057 -0.0146276 -9.46873e-22)
(0.042441 -0.0146404 0)
(0.0426742 -0.0146524 -4.03253e-22)
(0.0429054 -0.0146636 3.96768e-22)
(0.0431344 -0.0146745 6.35707e-24)
(0.0433612 -0.0146854 -2.36409e-22)
(0.0435857 -0.0146964 -2.48341e-22)
(0.0438077 -0.014708 7.87651e-22)
(0.0440273 -0.0147205 -5.19969e-22)
(0.0442442 -0.0147342 4.24794e-22)
(0.0444583 -0.0147494 -5.74384e-22)
(0.0446695 -0.0147665 2.89709e-22)
(0.0448775 -0.0147859 -7.57926e-23)
(0.0450821 -0.014808 0)
(0.0452831 -0.0148332 8.15336e-23)
(0.0454801 -0.0148621 -8.04127e-23)
(0.0456728 -0.014895 -1.69456e-22)
(0.0458608 -0.0149326 5.11693e-22)
(0.0460437 -0.0149756 -3.36327e-22)
(0.046221 -0.0150247 -3.45069e-22)
(0.0463921 -0.0150807 0)
(0.0465564 -0.0151446 -1.4365e-21)
(0.046713 -0.0152174 1.44029e-21)
(0.046861 -0.0153004 -7.25552e-22)
(0.0469995 -0.0153953 7.21386e-22)
(0.0471281 -0.0155041 7.1853e-22)
(0.0472465 -0.0156297 1.46034e-21)
(0.0473526 -0.0157741 1.46725e-21)
(0.0474374 -0.0159365 0)
(0.0474817 -0.0161123 -1.41919e-21)
(0.0474678 -0.0163002 0)
(0.0474245 -0.0165237 -3.6836e-23)
(0.0475058 -0.0168656 -1.39318e-21)
(0.0480073 -0.0174501 1.33398e-21)
(0.0489524 -0.0181954 1.29735e-21)
(0.0490776 -0.0184919 -1.15953e-21)
(0.0461732 -0.0175405 5.79892e-23)
(0.0398597 -0.0154637 -5.03029e-23)
(0.0323209 -0.0133408 3.81549e-21)
(0.0260369 -0.0122001 1.27972e-21)
(0.0221439 -0.0123807 1.45485e-21)
(0.0203103 -0.013557 -1.31813e-21)
(0.0353558 -0.0136389 0)
(0.0356072 -0.0137451 0)
(0.0358607 -0.0138461 -1.33523e-21)
(0.0361153 -0.0139417 1.9689e-21)
(0.0363711 -0.0140323 5.98378e-22)
(0.0366282 -0.0141182 0)
(0.0368863 -0.0141992 0)
(0.0371452 -0.0142755 -4.64473e-22)
(0.0374047 -0.0143471 8.05464e-22)
(0.0376647 -0.014414 -8.83755e-23)
(0.0379249 -0.0144763 -1.69497e-21)
(0.0381852 -0.0145341 3.34981e-22)
(0.0384454 -0.0145875 -2.1868e-22)
(0.0387054 -0.0146366 4.68025e-22)
(0.0389649 -0.0146815 -1.66041e-22)
(0.0392237 -0.0147224 0)
(0.0394818 -0.0147595 0)
(0.039739 -0.0147928 3.89353e-23)
(0.039995 -0.0148226 5.97361e-23)
(0.0402497 -0.014849 2.55416e-23)
(0.0405031 -0.0148723 -8.09595e-23)
(0.0407548 -0.0148926 1.06666e-22)
(0.0410049 -0.0149102 1.85963e-22)
(0.0412532 -0.0149252 -1.46531e-22)
(0.0414995 -0.0149379 -2.30423e-22)
(0.0417438 -0.0149485 0)
(0.0419861 -0.0149572 0)
(0.0422261 -0.0149644 5.1312e-22)
(0.0424637 -0.0149704 0)
(0.042699 -0.0149754 4.22237e-22)
(0.0429318 -0.0149797 -4.15595e-22)
(0.043162 -0.0149836 -2.26438e-22)
(0.0433896 -0.0149873 2.39256e-22)
(0.0436144 -0.0149912 5.09814e-22)
(0.0438364 -0.0149956 -2.62956e-22)
(0.0440554 -0.0150008 -2.83955e-22)
(0.0442714 -0.0150071 2.82805e-22)
(0.044484 -0.0150147 0)
(0.0446932 -0.0150242 0)
(0.0448988 -0.0150357 7.91599e-23)
(0.0451005 -0.0150497 0)
(0.0452981 -0.0150665 0)
(0.0454913 -0.0150867 -2.55032e-22)
(0.0456797 -0.0151107 3.40249e-22)
(0.045863 -0.0151391 -1.74604e-22)
(0.0460407 -0.0151724 3.51737e-22)
(0.0462122 -0.0152112 0)
(0.0463769 -0.0152563 1.0908e-21)
(0.0465339 -0.0153084 7.30799e-24)
(0.0466822 -0.0153685 0)
(0.046821 -0.0154379 -1.47421e-21)
(0.0469497 -0.0155184 4.59369e-24)
(0.0470678 -0.015612 -1.47649e-21)
(0.0471727 -0.0157203 -7.3397e-22)
(0.0472559 -0.0158424 -1.46535e-21)
(0.0473001 -0.0159737 1.45502e-21)
(0.0472877 -0.0161117 1.45492e-21)
(0.0472362 -0.016273 0)
(0.0472584 -0.0165186 -1.36922e-21)
(0.0475941 -0.0169603 -1.31182e-23)
(0.0484176 -0.0176315 0)
(0.0490985 -0.0181682 0)
(0.0476781 -0.0177762 1.19897e-21)
(0.0426614 -0.016039 0)
(0.0351783 -0.0136682 0)
(0.0277879 -0.0118083 -1.22752e-21)
(0.0223822 -0.0112067 -1.39614e-21)
(0.0194075 -0.0118939 -1.32916e-21)
(0.0181956 -0.0133818 0)
(0.0351704 -0.0141215 0)
(0.0354334 -0.0142267 0)
(0.0356985 -0.0143263 0)
(0.0359647 -0.0144201 6.57511e-22)
(0.036232 -0.0145085 5.66939e-22)
(0.0365005 -0.0145918 -8.79709e-23)
(0.0367698 -0.0146699 -1.07929e-21)
(0.0370396 -0.0147429 4.73817e-22)
(0.0373098 -0.0148108 -4.22075e-22)
(0.0375801 -0.0148737 -7.61444e-22)
(0.0378504 -0.0149316 0)
(0.0381203 -0.0149846 0)
(0.0383897 -0.015033 -4.11493e-23)
(0.0386584 -0.0150767 -6.54672e-22)
(0.0389263 -0.015116 6.08669e-22)
(0.0391931 -0.015151 -8.53293e-23)
(0.0394587 -0.0151819 -1.98958e-22)
(0.0397228 -0.0152088 -4.29952e-23)
(0.0399854 -0.015232 -1.69825e-23)
(0.0402463 -0.0152517 0)
(0.0405054 -0.015268 1.83156e-22)
(0.0407624 -0.0152813 0)
(0.0410173 -0.0152916 3.52298e-22)
(0.04127 -0.0152993 -6.85548e-22)
(0.0415201 -0.0153047 7.5163e-22)
(0.0417681 -0.0153077 3.08973e-22)
(0.0420134 -0.015309 -5.23518e-22)
(0.042256 -0.0153086 5.521e-22)
(0.0424959 -0.015307 -3.78078e-22)
(0.0427329 -0.0153044 0)
(0.0429671 -0.0153011 -4.71536e-22)
(0.0431983 -0.0152973 -2.78754e-22)
(0.0434264 -0.0152933 4.90264e-22)
(0.0436513 -0.0152895 -5.31303e-22)
(0.043873 -0.015286 2.84067e-22)
(0.0440913 -0.0152832 -2.7995e-22)
(0.044306 -0.0152815 -1.47071e-22)
(0.0445172 -0.015281 1.55271e-22)
(0.0447245 -0.0152822 8.12323e-23)
(0.0449278 -0.0152853 -2.39152e-22)
(0.0451269 -0.0152907 -2.09218e-23)
(0.0453215 -0.0152988 0)
(0.0455115 -0.0153099 8.58137e-23)
(0.0456963 -0.0153245 -1.74721e-22)
(0.0458757 -0.0153431 1.77526e-22)
(0.046049 -0.015366 0)
(0.0462156 -0.0153937 0)
(0.0463746 -0.0154269 3.76831e-22)
(0.0465252 -0.0154661 -7.36933e-22)
(0.0466666 -0.0155125 -1.50278e-21)
(0.0467983 -0.0155673 3.00243e-21)
(0.0469193 -0.0156321 -7.49177e-22)
(0.0470268 -0.0157078 7.47395e-22)
(0.0471122 -0.0157928 7.49891e-22)
(0.0471596 -0.0158826 -1.48092e-21)
(0.047153 -0.0159741 1.47243e-21)
(0.0471048 -0.01608 0)
(0.0471046 -0.0162489 -1.40524e-21)
(0.0473476 -0.0165739 5.44261e-24)
(0.0480311 -0.0171272 1.32614e-21)
(0.0488903 -0.0177253 0)
(0.0484947 -0.017731 0)
(0.0449026 -0.0164587 0)
(0.0380637 -0.0141258 2.22627e-21)
(0.0301247 -0.0117708 1.14956e-21)
(0.0233738 -0.0103773 1.34194e-21)
(0.0189864 -0.0103645 -2.68285e-21)
(0.0168606 -0.0115181 8.50677e-23)
(0.0161493 -0.0132764 1.27744e-21)
(0.0349856 -0.0146305 0)
(0.0352607 -0.0147342 1.49876e-21)
(0.0355379 -0.0148317 -1.8494e-21)
(0.0358159 -0.014923 9.57389e-22)
(0.0360951 -0.0150085 -1.90457e-21)
(0.0363751 -0.0150885 -5.66928e-22)
(0.0366559 -0.015163 -5.17284e-22)
(0.036937 -0.0152319 0)
(0.0372182 -0.0152953 8.50297e-22)
(0.0374992 -0.0153533 7.24402e-22)
(0.0377798 -0.0154061 -7.10692e-22)
(0.0380598 -0.0154536 2.78121e-22)
(0.0383388 -0.0154962 -1.89192e-22)
(0.0386168 -0.0155338 2.92477e-22)
(0.0388935 -0.0155666 5.86068e-22)
(0.0391686 -0.015595 -8.86852e-23)
(0.0394421 -0.0156189 -8.81517e-23)
(0.0397137 -0.0156387 -8.07128e-23)
(0.0399832 -0.0156546 1.61127e-23)
(0.0402505 -0.0156667 1.80839e-22)
(0.0405155 -0.0156754 -1.59563e-22)
(0.0407779 -0.0156808 0)
(0.0410378 -0.0156833 2.29161e-23)
(0.0412949 -0.015683 0)
(0.0415491 -0.0156802 -2.7528e-22)
(0.0418006 -0.0156752 -3.11799e-22)
(0.042049 -0.0156682 1.73279e-22)
(0.0422942 -0.0156597 0)
(0.0425362 -0.0156499 2.1653e-22)
(0.042775 -0.015639 4.68516e-22)
(0.0430104 -0.0156274 -4.61493e-22)
(0.0432425 -0.0156153 2.48189e-22)
(0.0434711 -0.0156031 -5.46858e-22)
(0.0436961 -0.0155909 1.09703e-21)
(0.0439175 -0.0155791 -2.80988e-22)
(0.0441351 -0.0155679 0)
(0.044349 -0.0155577 -1.56837e-22)
(0.0445588 -0.0155487 3.97935e-24)
(0.0447646 -0.0155412 2.47664e-22)
(0.0449661 -0.0155356 -2.07177e-22)
(0.0451631 -0.0155321 4.16844e-23)
(0.0453555 -0.015531 -1.32934e-22)
(0.0455428 -0.0155326 8.76718e-23)
(0.0457247 -0.0155373 0)
(0.0459008 -0.0155454 0)
(0.0460703 -0.0155572 0)
(0.0462326 -0.0155731 3.77732e-22)
(0.0463869 -0.0155935 3.80721e-22)
(0.0465327 -0.0156192 0)
(0.0466694 -0.0156512 7.62618e-22)
(0.0467959 -0.0156905 7.66753e-22)
(0.0469087 -0.0157371 7.69576e-22)
(0.0469992 -0.0157888 0)
(0.0470525 -0.0158408 0)
(0.0470549 -0.0158898 -1.505e-21)
(0.0470186 -0.0159469 1.49749e-21)
(0.0470208 -0.0160534 0)
(0.047226 -0.016288 1.43253e-21)
(0.0478154 -0.0167267 -1.37312e-21)
(0.0486874 -0.0172873 -1.26318e-21)
(0.0488745 -0.0175073 1.17277e-21)
(0.0465122 -0.0166661 -1.19084e-21)
(0.0406516 -0.0145586 0)
(0.0326996 -0.0119597 -1.19683e-21)
(0.0250022 -0.00991307 -2.21702e-23)
(0.0192168 -0.00911347 -2.60352e-21)
(0.0158683 -0.00968042 -2.75437e-21)
(0.0144886 -0.0112311 2.76299e-21)
(0.0141796 -0.0132056 -1.33886e-21)
(0.0348028 -0.0151686 4.19557e-22)
(0.0350909 -0.0152701 0)
(0.0353809 -0.0153651 3.67183e-22)
(0.0356715 -0.0154532 -1.65015e-21)
(0.035963 -0.0155351 2.82503e-21)
(0.0362552 -0.015611 -6.1956e-22)
(0.0365479 -0.015681 5.27522e-22)
(0.0368406 -0.0157449 -8.95608e-22)
(0.0371331 -0.015803 4.64294e-22)
(0.0374251 -0.0158554 3.79286e-22)
(0.0377164 -0.015902 3.13677e-22)
(0.0380066 -0.0159431 -7.87064e-22)
(0.0382956 -0.0159789 2.86238e-22)
(0.038583 -0.0160094 -4.83588e-22)
(0.0388687 -0.0160349 -5.0773e-23)
(0.0391524 -0.0160556 9.20908e-23)
(0.0394339 -0.0160717 1.29812e-22)
(0.0397131 -0.0160835 0)
(0.0399897 -0.0160911 0)
(0.0402635 -0.0160949 -1.07832e-22)
(0.0405345 -0.016095 -1.26763e-22)
(0.0408025 -0.0160918 -4.10312e-22)
(0.0410674 -0.0160856 1.96551e-22)
(0.041329 -0.0160765 5.89098e-22)
(0.0415874 -0.0160648 -5.84986e-22)
(0.0418424 -0.0160509 1.82476e-22)
(0.0420938 -0.0160351 1.99658e-22)
(0.0423416 -0.0160177 0)
(0.0425858 -0.0159991 -2.18731e-22)
(0.0428263 -0.0159794 -4.96434e-22)
(0.0430631 -0.015959 -3.46767e-23)
(0.0432961 -0.0159381 5.16293e-22)
(0.0435253 -0.0159171 -2.8524e-22)
(0.0437506 -0.0158961 0)
(0.0439719 -0.0158755 1.53867e-22)
(0.0441892 -0.0158556 -1.5898e-22)
(0.0444023 -0.0158365 1.58922e-22)
(0.0446113 -0.0158187 -3.31836e-22)
(0.0448159 -0.0158022 0)
(0.045016 -0.0157874 -4.40611e-23)
(0.0452114 -0.0157746 4.44518e-23)
(0.0454018 -0.0157639 -6.98872e-23)
(0.0455869 -0.0157556 2.77283e-22)
(0.0457662 -0.0157498 -5.62712e-22)
(0.0459394 -0.0157469 3.73987e-22)
(0.0461057 -0.015747 3.8689e-22)
(0.0462648 -0.0157504 -3.77337e-22)
(0.0464161 -0.0157578 7.90324e-22)
(0.0465592 -0.0157698 -7.77502e-22)
(0.0466928 -0.0157868 -1.96987e-21)
(0.0468126 -0.015808 -1.45023e-24)
(0.0469098 -0.0158302 -7.851e-22)
(0.0469705 -0.0158483 0)
(0.0469848 -0.0158598 0)
(0.0469675 -0.0158751 -1.53816e-21)
(0.0469908 -0.0159321 2.27497e-21)
(0.047199 -0.0160992 -1.49446e-21)
(0.0477488 -0.0164448 0)
(0.0485946 -0.0169309 1.34567e-21)
(0.0490636 -0.0172279 2.52425e-21)
(0.0475864 -0.0166931 -1.22171e-21)
(0.0427606 -0.01488 6.40443e-23)
(0.0351812 -0.012232 1.23833e-21)
(0.026983 -0.00973345 -1.34715e-23)
(0.0200638 -0.00821087 -2.69757e-21)
(0.0153963 -0.00805172 2.8301e-21)
(0.0130212 -0.00914838 1.4574e-21)
(0.0122647 -0.0110259 0)
(0.012266 -0.0131757 0)
(0.0346225 -0.0157382 -4.27985e-22)
(0.0349247 -0.0158371 -1.94158e-21)
(0.0352286 -0.0159288 1.53466e-21)
(0.0355329 -0.0160132 0)
(0.0358377 -0.0160907 3.16689e-22)
(0.0361429 -0.0161618 1.09476e-21)
(0.0364482 -0.0162264 -8.34958e-22)
(0.0367532 -0.0162846 1.10769e-21)
(0.0370576 -0.0163365 -8.76845e-22)
(0.0373612 -0.0163821 0)
(0.0376635 -0.0164217 -1.70997e-22)
(0.0379644 -0.0164553 0)
(0.0382635 -0.0164833 -1.49973e-22)
(0.0385607 -0.0165057 5.42267e-22)
(0.0388556 -0.0165228 0)
(0.039148 -0.0165349 0)
(0.0394377 -0.0165422 0)
(0.0397245 -0.0165449 -8.4139e-23)
(0.0400082 -0.0165433 1.0764e-22)
(0.0402887 -0.0165377 1.09779e-22)
(0.0405657 -0.0165284 0)
(0.0408393 -0.0165156 0)
(0.0411091 -0.0164998 0)
(0.0413752 -0.0164811 -8.19599e-22)
(0.0416376 -0.0164598 1.01577e-21)
(0.0418961 -0.0164362 -5.45601e-22)
(0.0421505 -0.0164109 -4.18178e-22)
(0.0424009 -0.016384 4.68776e-22)
(0.0426473 -0.0163558 -4.61964e-22)
(0.0428896 -0.0163267 2.62739e-22)
(0.0431278 -0.0162969 -5.55135e-22)
(0.0433618 -0.0162667 2.58009e-22)
(0.0435917 -0.0162364 5.90008e-22)
(0.0438173 -0.0162061 3.1288e-22)
(0.0440387 -0.0161763 -1.55769e-22)
(0.0442557 -0.0161471 1.61008e-22)
(0.0444684 -0.0161188 0)
(0.0446766 -0.0160916 -5.34514e-24)
(0.0448801 -0.0160658 9.01113e-23)
(0.0450789 -0.0160414 1.62487e-24)
(0.0452727 -0.0160188 -4.61954e-23)
(0.0454613 -0.015998 1.18464e-22)
(0.0456443 -0.0159792 -1.90686e-22)
(0.0458215 -0.0159626 -9.78542e-23)
(0.0459924 -0.0159483 1.97983e-22)
(0.0461567 -0.0159365 0)