/*--------------------------------*- C++ -*----------------------------------*\
| =========                 |                                                 |
| \\      /  F ield         | OpenFOAM: The Open Source CFD Toolbox           |
|  \\    /   O peration     | Version:  2312                                  |
|   \\  /    A nd           | Website:  www.openfoam.com                      |
|    \\/     M anipulation  |                                                 |
\*---------------------------------------------------------------------------*/
FoamFile
{
    version     2.0;
    format      ascii;
    arch        "LSB;label=32;scalar=64";
    class       volScalarField;
    location    "2000";
    object      k;
}
// * * * * * * * * * * * * * * * * * * * * * * * * * * * * * * * * * * * * * //

dimensions      [0 2 -2 0 0 0 0];

internalField   nonuniform List<scalar> 
76025
(
4.68781e-06
4.68361e-06
4.68e-06
4.67768e-06
4.67738e-06
4.67881e-06
4.67938e-06
4.67903e-06
4.6781e-06
4.67681e-06
4.67554e-06
4.67397e-06
4.67195e-06
4.66931e-06
4.66774e-06
4.66551e-06
4.66559e-06
4.66631e-06
4.66805e-06
4.67033e-06
4.67393e-06
4.67816e-06
4.68407e-06
4.68953e-06
4.69889e-06
4.7044e-06
4.71664e-06
4.72424e-06
4.73699e-06
4.74603e-06
4.76254e-06
4.77344e-06
4.79243e-06
4.80758e-06
4.82531e-06
4.84382e-06
4.86184e-06
4.88697e-06
4.91121e-06
4.93555e-06
4.963e-06
4.98918e-06
5.02268e-06
5.05169e-06
5.08246e-06
5.10971e-06
5.14041e-06
5.16753e-06
5.19339e-06
5.21637e-06
5.23888e-06
5.26052e-06
5.28317e-06
5.30266e-06
5.32795e-06
5.34705e-06
5.37538e-06
5.40195e-06
5.44842e-06
5.48723e-06
5.56189e-06
5.60887e-06
5.7096e-06
5.7775e-06
5.89503e-06
6.00336e-06
6.15129e-06
6.30598e-06
6.43769e-06
4.72614e-06
4.72391e-06
4.72095e-06
4.71781e-06
4.71519e-06
4.71471e-06
4.71513e-06
4.71597e-06
4.71635e-06
4.71625e-06
4.71605e-06
4.71579e-06
4.71534e-06
4.71502e-06
4.71564e-06
4.71572e-06
4.71691e-06
4.71851e-06
4.72138e-06
4.72467e-06
4.72961e-06
4.73485e-06
4.74228e-06
4.74936e-06
4.75941e-06
4.76834e-06
4.7803e-06
4.7914e-06
4.80512e-06
4.81818e-06
4.83374e-06
4.8489e-06
4.8659e-06
4.88341e-06
4.90161e-06
4.92084e-06
4.94044e-06
4.96096e-06
4.98213e-06
5.00359e-06
5.02579e-06
5.04829e-06
5.07073e-06
5.09299e-06
5.11484e-06
5.13667e-06
5.15761e-06
5.17779e-06
5.19772e-06
5.21753e-06
5.23781e-06
5.25831e-06
5.28151e-06
5.30466e-06
5.33472e-06
5.36395e-06
5.40701e-06
5.44454e-06
5.50468e-06
5.55084e-06
5.63068e-06
5.68462e-06
5.79459e-06
5.86291e-06
6.00678e-06
6.10204e-06
6.29176e-06
6.41384e-06
6.65047e-06
4.75715e-06
4.75955e-06
4.7598e-06
4.75916e-06
4.75743e-06
4.75667e-06
4.75625e-06
4.75704e-06
4.75862e-06
4.76041e-06
4.76228e-06
4.7642e-06
4.76598e-06
4.76746e-06
4.76942e-06
4.77131e-06
4.7736e-06
4.77608e-06
4.77936e-06
4.78308e-06
4.78807e-06
4.79358e-06
4.80068e-06
4.80828e-06
4.81753e-06
4.82722e-06
4.8383e-06
4.84985e-06
4.86273e-06
4.87617e-06
4.89067e-06
4.90582e-06
4.9217e-06
4.93829e-06
4.95546e-06
4.97325e-06
4.99157e-06
5.01029e-06
5.02936e-06
5.04865e-06
5.06817e-06
5.08796e-06
5.10772e-06
5.12759e-06
5.14752e-06
5.16768e-06
5.18803e-06
5.20863e-06
5.23004e-06
5.25226e-06
5.27611e-06
5.30131e-06
5.32978e-06
5.35972e-06
5.39588e-06
5.43221e-06
5.48024e-06
5.52264e-06
5.58814e-06
5.63555e-06
5.72558e-06
5.77948e-06
5.89876e-06
5.96963e-06
6.12172e-06
6.21321e-06
6.41227e-06
6.53063e-06
6.82088e-06
4.78824e-06
4.79138e-06
4.79391e-06
4.79579e-06
4.79676e-06
4.79735e-06
4.79803e-06
4.79928e-06
4.80133e-06
4.80405e-06
4.80734e-06
4.81097e-06
4.81482e-06
4.81858e-06
4.82248e-06
4.82639e-06
4.83047e-06
4.8346e-06
4.83908e-06
4.84381e-06
4.84922e-06
4.85514e-06
4.862e-06
4.86954e-06
4.87809e-06
4.88739e-06
4.89761e-06
4.90857e-06
4.9204e-06
4.93298e-06
4.94631e-06
4.96032e-06
4.97498e-06
4.99026e-06
5.0061e-06
5.02248e-06
5.03937e-06
5.05671e-06
5.07443e-06
5.09245e-06
5.1108e-06
5.12954e-06
5.14861e-06
5.16806e-06
5.18799e-06
5.20849e-06
5.22985e-06
5.25189e-06
5.27545e-06
5.29992e-06
5.32714e-06
5.35516e-06
5.38804e-06
5.42083e-06
5.462e-06
5.50073e-06
5.55366e-06
5.59923e-06
5.66851e-06
5.72142e-06
5.8145e-06
5.87423e-06
6.00016e-06
6.07437e-06
6.23382e-06
6.33009e-06
6.53971e-06
6.66232e-06
6.96096e-06
4.82602e-06
4.8284e-06
4.83135e-06
4.83452e-06
4.83747e-06
4.84008e-06
4.84248e-06
4.84488e-06
4.84759e-06
4.85075e-06
4.85451e-06
4.85882e-06
4.86364e-06
4.86877e-06
4.8742e-06
4.8798e-06
4.88561e-06
4.89152e-06
4.89762e-06
4.90387e-06
4.91043e-06
4.91731e-06
4.92467e-06
4.93254e-06
4.94102e-06
4.95011e-06
4.95987e-06
4.97027e-06
4.98135e-06
4.99308e-06
5.00546e-06
5.01846e-06
5.03206e-06
5.04625e-06
5.061e-06
5.07632e-06
5.09219e-06
5.10858e-06
5.12547e-06
5.14282e-06
5.16068e-06
5.17914e-06
5.1982e-06
5.21792e-06
5.23849e-06
5.25989e-06
5.28262e-06
5.30627e-06
5.332e-06
5.35867e-06
5.38885e-06
5.41944e-06
5.45605e-06
5.49145e-06
5.5372e-06
5.57821e-06
5.63693e-06
5.68427e-06
5.76091e-06
5.81592e-06
5.9169e-06
5.98079e-06
6.1142e-06
6.1923e-06
6.35988e-06
6.46008e-06
6.67579e-06
6.8009e-06
7.11219e-06
4.87291e-06
4.87394e-06
4.8761e-06
4.87918e-06
4.88282e-06
4.88672e-06
4.89071e-06
4.89471e-06
4.89877e-06
4.90297e-06
4.90745e-06
4.91229e-06
4.91756e-06
4.92326e-06
4.92936e-06
4.93582e-06
4.94259e-06
4.94962e-06
4.95688e-06
4.96434e-06
4.97202e-06
4.97992e-06
4.9881e-06
4.99661e-06
5.00549e-06
5.01479e-06
5.02456e-06
5.03481e-06
5.04558e-06
5.05687e-06
5.06871e-06
5.0811e-06
5.09405e-06
5.10756e-06
5.12164e-06
5.1363e-06
5.15159e-06
5.16747e-06
5.18397e-06
5.20107e-06
5.21886e-06
5.23743e-06
5.25688e-06
5.27718e-06
5.29869e-06
5.32117e-06
5.34546e-06
5.37069e-06
5.39866e-06
5.42727e-06
5.46043e-06
5.49315e-06
5.53354e-06
5.57115e-06
5.62144e-06
5.66494e-06
5.72874e-06
5.7795e-06
5.86155e-06
5.92135e-06
6.02772e-06
6.09718e-06
6.23655e-06
6.31785e-06
6.49309e-06
6.59705e-06
6.81925e-06
6.94717e-06
7.26972e-06
4.92453e-06
4.92602e-06
4.92807e-06
4.93091e-06
4.93452e-06
4.93877e-06
4.94354e-06
4.94869e-06
4.95411e-06
4.95972e-06
4.96551e-06
4.97148e-06
4.97769e-06
4.98415e-06
4.99091e-06
4.99797e-06
5.00533e-06
5.01296e-06
5.02085e-06
5.02896e-06
5.0373e-06
5.04585e-06
5.05462e-06
5.06363e-06
5.07292e-06
5.08251e-06
5.09245e-06
5.10276e-06
5.11347e-06
5.12463e-06
5.13626e-06
5.14839e-06
5.16104e-06
5.17426e-06
5.18806e-06
5.20247e-06
5.21758e-06
5.23337e-06
5.24989e-06
5.26712e-06
5.28521e-06
5.30424e-06
5.32438e-06
5.34552e-06
5.3682e-06
5.39191e-06
5.41793e-06
5.44472e-06
5.47505e-06
5.50547e-06
5.54172e-06
5.57634e-06
5.62069e-06
5.66025e-06
5.71543e-06
5.76133e-06
5.83051e-06
5.88514e-06
5.97197e-06
6.03794e-06
6.14741e-06
6.22456e-06
6.36728e-06
6.45186e-06
6.63683e-06
6.74354e-06
6.97225e-06
7.10381e-06
7.44091e-06
4.98046e-06
4.98311e-06
4.98587e-06
4.98906e-06
4.99275e-06
4.99703e-06
5.00191e-06
5.00739e-06
5.0134e-06
5.01986e-06
5.02668e-06
5.03379e-06
5.04113e-06
5.04868e-06
5.05643e-06
5.06436e-06
5.07248e-06
5.0808e-06
5.08929e-06
5.09796e-06
5.10681e-06
5.11583e-06
5.12504e-06
5.13445e-06
5.14408e-06
5.15396e-06
5.16412e-06
5.17459e-06
5.18543e-06
5.19666e-06
5.20833e-06
5.22048e-06
5.23315e-06
5.24639e-06
5.26026e-06
5.27479e-06
5.29009e-06
5.30615e-06
5.32303e-06
5.34074e-06
5.35946e-06
5.37924e-06
5.40035e-06
5.42256e-06
5.44663e-06
5.4717e-06
5.49962e-06
5.52799e-06
5.56086e-06
5.59298e-06
5.63255e-06
5.66891e-06
5.71755e-06
5.7589e-06
5.81944e-06
5.86767e-06
5.94252e-06
6.00126e-06
6.09206e-06
6.16542e-06
6.27514e-06
6.36304e-06
6.50436e-06
6.59757e-06
6.78879e-06
6.89884e-06
7.13453e-06
7.27145e-06
7.62314e-06
5.04127e-06
5.04515e-06
5.04904e-06
5.05312e-06
5.05743e-06
5.06204e-06
5.06707e-06
5.07259e-06
5.07865e-06
5.08526e-06
5.0924e-06
5.09999e-06
5.10798e-06
5.11628e-06
5.12485e-06
5.13363e-06
5.14257e-06
5.15167e-06
5.16089e-06
5.17023e-06
5.17969e-06
5.18927e-06
5.19898e-06
5.20885e-06
5.2189e-06
5.22916e-06
5.23967e-06
5.25046e-06
5.26159e-06
5.27309e-06
5.28503e-06
5.29745e-06
5.31042e-06
5.32397e-06
5.33821e-06
5.35315e-06
5.36895e-06
5.38558e-06
5.40313e-06
5.42161e-06
5.44122e-06
5.46203e-06
5.48433e-06
5.50785e-06
5.53348e-06
5.56012e-06
5.5901e-06
5.62017e-06
5.65577e-06
5.68964e-06
5.73281e-06
5.77087e-06
5.82431e-06
5.86717e-06
5.93406e-06
5.98344e-06
6.06608e-06
6.12575e-06
6.2244e-06
6.29974e-06
6.41469e-06
6.509e-06
6.65081e-06
6.75474e-06
6.95077e-06
7.06441e-06
7.31028e-06
7.45475e-06
7.8096e-06
5.10823e-06
5.113e-06
5.11783e-06
5.12285e-06
5.12801e-06
5.1333e-06
5.13879e-06
5.14454e-06
5.15066e-06
5.1572e-06
5.1642e-06
5.1717e-06
5.17966e-06
5.18806e-06
5.19684e-06
5.20595e-06
5.21533e-06
5.22493e-06
5.23471e-06
5.24464e-06
5.25469e-06
5.26487e-06
5.27517e-06
5.28562e-06
5.29623e-06
5.30704e-06
5.31808e-06
5.3294e-06
5.34104e-06
5.35306e-06
5.36553e-06
5.37849e-06
5.39203e-06
5.4062e-06
5.4211e-06
5.43677e-06
5.45337e-06
5.47089e-06
5.48942e-06
5.50899e-06
5.52982e-06
5.55199e-06
5.57577e-06
5.60094e-06
5.62838e-06
5.65691e-06
5.68912e-06
5.72125e-06
5.75967e-06
5.79571e-06
5.84249e-06
5.88283e-06
5.94083e-06
5.98608e-06
6.05874e-06
6.10987e-06
6.20025e-06
6.25916e-06
6.3691e-06
6.43928e-06
6.57035e-06
6.65782e-06
6.8149e-06
6.92132e-06
7.12522e-06
7.24385e-06
7.50455e-06
7.65379e-06
8.03691e-06
5.18362e-06
5.18891e-06
5.19432e-06
5.19997e-06
5.20579e-06
5.21174e-06
5.2178e-06
5.22401e-06
5.2304e-06
5.23703e-06
5.24397e-06
5.25126e-06
5.25894e-06
5.26702e-06
5.27552e-06
5.2844e-06
5.29365e-06
5.30323e-06
5.3131e-06
5.32322e-06
5.33356e-06
5.34412e-06
5.35488e-06
5.36584e-06
5.37701e-06
5.38843e-06
5.40011e-06
5.41211e-06
5.42447e-06
5.43724e-06
5.4505e-06
5.46429e-06
5.47872e-06
5.49383e-06
5.50975e-06
5.52649e-06
5.54427e-06
5.56303e-06
5.58293e-06
5.60395e-06
5.62637e-06
5.65023e-06
5.67582e-06
5.70292e-06
5.73241e-06
5.76312e-06
5.7977e-06
5.83223e-06
5.8735e-06
5.91222e-06
5.96239e-06
6.006e-06
6.06755e-06
6.11726e-06
6.19266e-06
6.24981e-06
6.34177e-06
6.40719e-06
6.52012e-06
6.59362e-06
6.73575e-06
6.81897e-06
6.99688e-06
7.09899e-06
7.3174e-06
7.44278e-06
7.71468e-06
7.86917e-06
8.29196e-06
5.26742e-06
5.27328e-06
5.27919e-06
5.28534e-06
5.29167e-06
5.29814e-06
5.30473e-06
5.31144e-06
5.31827e-06
5.32525e-06
5.3324e-06
5.33976e-06
5.34736e-06
5.35525e-06
5.36346e-06
5.37202e-06
5.38092e-06
5.39019e-06
5.3998e-06
5.40976e-06
5.42005e-06
5.43066e-06
5.44159e-06
5.45284e-06
5.46441e-06
5.47633e-06
5.48862e-06
5.50132e-06
5.51446e-06
5.52811e-06
5.54233e-06
5.55717e-06
5.57272e-06
5.58903e-06
5.60625e-06
5.62435e-06
5.6436e-06
5.66386e-06
5.68542e-06
5.70808e-06
5.73239e-06
5.75805e-06
5.78576e-06
5.81485e-06
5.84669e-06
5.87965e-06
5.9169e-06
5.95402e-06
5.99842e-06
6.04017e-06
6.09387e-06
6.14126e-06
6.20591e-06
6.26122e-06
6.33708e-06
6.40407e-06
6.49101e-06
6.57362e-06
6.67484e-06
6.77424e-06
6.90128e-06
7.01292e-06
7.18298e-06
7.3034e-06
7.52595e-06
7.65913e-06
7.94461e-06
8.11117e-06
8.63319e-06
5.36074e-06
5.36727e-06
5.37376e-06
5.38044e-06
5.38725e-06
5.39418e-06
5.40121e-06
5.40836e-06
5.41563e-06
5.42303e-06
5.43054e-06
5.43821e-06
5.44603e-06
5.45405e-06
5.4623e-06
5.4708e-06
5.47959e-06
5.4887e-06
5.49814e-06
5.50795e-06
5.51814e-06
5.52871e-06
5.53969e-06
5.55109e-06
5.56292e-06
5.57522e-06
5.58801e-06
5.60133e-06
5.61522e-06
5.62972e-06
5.6449e-06
5.66081e-06
5.67754e-06
5.69512e-06
5.7137e-06
5.73324e-06
5.75406e-06
5.77589e-06
5.79924e-06
5.82359e-06
5.84999e-06
5.87748e-06
5.9076e-06
5.93868e-06
5.97334e-06
6.00856e-06
6.04904e-06
6.08879e-06
6.13684e-06
6.18159e-06
6.23923e-06
6.28992e-06
6.35832e-06
6.41782e-06
6.49603e-06
6.57045e-06
6.65616e-06
6.75349e-06
6.84741e-06
6.97303e-06
7.08361e-06
7.23449e-06
7.379e-06
7.54286e-06
7.74188e-06
7.90917e-06
8.19217e-06
8.40197e-06
8.95608e-06
5.46277e-06
5.47002e-06
5.47721e-06
5.48454e-06
5.49196e-06
5.49946e-06
5.50703e-06
5.51468e-06
5.52244e-06
5.53031e-06
5.5383e-06
5.54641e-06
5.55467e-06
5.56309e-06
5.57169e-06
5.5805e-06
5.58955e-06
5.59888e-06
5.60851e-06
5.61849e-06
5.62884e-06
5.63961e-06
5.65081e-06
5.66249e-06
5.67468e-06
5.68742e-06
5.70073e-06
5.71468e-06
5.72929e-06
5.74466e-06
5.76077e-06
5.77778e-06
5.79564e-06
5.81454e-06
5.83448e-06
5.85555e-06
5.87794e-06
5.90147e-06
5.92668e-06
5.95289e-06
5.98153e-06
6.01102e-06
6.04384e-06
6.07704e-06
6.11489e-06
6.15237e-06
6.19644e-06
6.2387e-06
6.29051e-06
6.33812e-06
6.39947e-06
6.45338e-06
6.52577e-06
6.58867e-06
6.67233e-06
6.75033e-06
6.84421e-06
6.94607e-06
7.05021e-06
7.18453e-06
7.29936e-06
7.47409e-06
7.59747e-06
7.81895e-06
7.95434e-06
8.23632e-06
8.43204e-06
8.86221e-06
9.22074e-06
5.5774e-06
5.5851e-06
5.59277e-06
5.6006e-06
5.60855e-06
5.61657e-06
5.62465e-06
5.6328e-06
5.64105e-06
5.6494e-06
5.65787e-06
5.66648e-06
5.67523e-06
5.68414e-06
5.69325e-06
5.70256e-06
5.71212e-06
5.72194e-06
5.73206e-06
5.74253e-06
5.75337e-06
5.76463e-06
5.77636e-06
5.7886e-06
5.80138e-06
5.81478e-06
5.82881e-06
5.84359e-06
5.85906e-06
5.87544e-06
5.89258e-06
5.91083e-06
5.92988e-06
5.95027e-06
5.97156e-06
5.99437e-06
6.01829e-06
6.04378e-06
6.07076e-06
6.09914e-06
6.12991e-06
6.16168e-06
6.19706e-06
6.23256e-06
6.27346e-06
6.31321e-06
6.36074e-06
6.40541e-06
6.46083e-06
6.51148e-06
6.57624e-06
6.63462e-06
6.71047e-06
6.77934e-06
6.86873e-06
6.9517e-06
7.05879e-06
7.15809e-06
7.29105e-06
7.40499e-06
7.57097e-06
7.7003e-06
7.89717e-06
8.05397e-06
8.28327e-06
8.50951e-06
8.8924e-06
9.21603e-06
9.46263e-06
5.70453e-06
5.71259e-06
5.72065e-06
5.72893e-06
5.73737e-06
5.74592e-06
5.75456e-06
5.7633e-06
5.77215e-06
5.78112e-06
5.79024e-06
5.79951e-06
5.80896e-06
5.81859e-06
5.82844e-06
5.83853e-06
5.84888e-06
5.85952e-06
5.87048e-06
5.8818e-06
5.89351e-06
5.90566e-06
5.91829e-06
5.93147e-06
5.9452e-06
5.95961e-06
5.97465e-06
5.99053e-06
6.00709e-06
6.02473e-06
6.04303e-06
6.06273e-06
6.08303e-06
6.10511e-06
6.12772e-06
6.15251e-06
6.17785e-06
6.20558e-06
6.23411e-06
6.26502e-06
6.29757e-06
6.33205e-06
6.3695e-06
6.40776e-06
6.45125e-06
6.49367e-06
6.54453e-06
6.59181e-06
6.65151e-06
6.7052e-06
6.77509e-06
6.83807e-06
6.9195e-06
6.99598e-06
7.09073e-06
7.18537e-06
7.29688e-06
7.41216e-06
7.54692e-06
7.67989e-06
7.84358e-06
7.99098e-06
8.19754e-06
8.34923e-06
8.66842e-06
8.94032e-06
9.2217e-06
9.33059e-06
9.59692e-06
5.85073e-06
5.85893e-06
5.86715e-06
5.87565e-06
5.88435e-06
5.89322e-06
5.90224e-06
5.91142e-06
5.92078e-06
5.93031e-06
5.94004e-06
5.94998e-06
5.96015e-06
5.97057e-06
5.98126e-06
5.99223e-06
6.00353e-06
6.01516e-06
6.02717e-06
6.03957e-06
6.05242e-06
6.06574e-06
6.07957e-06
6.09399e-06
6.10898e-06
6.12471e-06
6.14106e-06
6.15836e-06
6.17627e-06
6.19545e-06
6.21515e-06
6.23655e-06
6.25829e-06
6.28227e-06
6.30637e-06
6.33329e-06
6.36014e-06
6.39028e-06
6.42036e-06
6.45405e-06
6.48822e-06
6.52581e-06
6.56508e-06
6.60675e-06
6.65257e-06
6.69858e-06
6.75282e-06
6.80372e-06
6.86862e-06
6.92577e-06
7.00364e-06
7.06958e-06
7.16296e-06
7.24085e-06
7.35312e-06
7.44594e-06
7.58095e-06
7.69108e-06
7.8494e-06
7.98109e-06
8.15346e-06
8.33269e-06
8.50855e-06
8.80665e-06
9.03834e-06
9.18345e-06
9.27441e-06
9.24984e-06
9.06786e-06
6.01472e-06
6.02335e-06
6.03198e-06
6.04091e-06
6.05007e-06
6.05943e-06
6.06899e-06
6.07877e-06
6.08878e-06
6.09903e-06
6.10955e-06
6.12035e-06
6.13145e-06
6.14287e-06
6.15464e-06
6.16677e-06
6.17928e-06
6.19221e-06
6.20557e-06
6.21939e-06
6.2337e-06
6.24855e-06
6.26394e-06
6.27998e-06
6.2966e-06
6.31402e-06
6.33205e-06
6.35112e-06
6.37075e-06
6.39176e-06
6.41324e-06
6.43652e-06
6.46015e-06
6.48605e-06
6.51218e-06
6.54109e-06
6.57014e-06
6.60239e-06
6.63484e-06
6.67094e-06
6.70765e-06
6.74811e-06
6.79009e-06
6.83529e-06
6.88425e-06
6.93455e-06
6.99283e-06
7.04876e-06
7.11914e-06
7.18228e-06
7.26707e-06
7.34072e-06
7.44163e-06
7.53006e-06
7.64917e-06
7.75604e-06
7.89477e-06
8.0227e-06
8.17746e-06
8.33661e-06
8.50302e-06
8.73303e-06
8.94833e-06
9.09336e-06
9.19381e-06
9.1953e-06
9.12906e-06
8.93713e-06
8.60492e-06
6.20834e-06
6.21722e-06
6.22609e-06
6.23529e-06
6.24477e-06
6.25449e-06
6.26447e-06
6.27473e-06
6.28528e-06
6.29615e-06
6.30736e-06
6.31893e-06
6.33088e-06
6.34323e-06
6.35602e-06
6.36927e-06
6.38299e-06
6.39721e-06
6.41196e-06
6.42726e-06
6.44313e-06
6.45962e-06
6.47672e-06
6.49456e-06
6.51302e-06
6.53236e-06
6.55235e-06
6.57342e-06
6.59515e-06
6.6182e-06
6.64196e-06
6.66725e-06
6.69343e-06
6.72123e-06
6.75029e-06
6.78094e-06
6.81335e-06
6.84725e-06
6.88355e-06
6.9215e-06
6.96243e-06
7.00524e-06
7.05181e-06
7.1002e-06
7.15435e-06
7.20857e-06
7.27334e-06
7.3335e-06
7.41266e-06
7.47957e-06
7.57658e-06
7.65298e-06
7.76964e-06
7.86079e-06
7.99521e-06
8.11041e-06
8.25333e-06
8.40278e-06
8.5562e-06
8.74716e-06
8.96862e-06
9.08858e-06
9.17611e-06
9.18312e-06
9.12375e-06
8.94655e-06
8.70175e-06
8.46009e-06
7.95664e-06
6.42964e-06
6.43928e-06
6.44905e-06
6.45912e-06
6.46954e-06
6.48024e-06
6.49122e-06
6.50252e-06
6.51417e-06
6.52622e-06
6.53867e-06
6.55156e-06
6.5649e-06
6.57873e-06
6.59306e-06
6.60791e-06
6.62331e-06
6.63929e-06
6.65586e-06
6.67305e-06
6.69086e-06
6.70937e-06
6.72854e-06
6.74849e-06
6.76913e-06
6.79066e-06
6.81294e-06
6.83622e-06
6.8604e-06
6.88561e-06
6.91203e-06
6.93936e-06
6.96852e-06
6.9982e-06
7.03067e-06
7.06305e-06
7.09935e-06
7.13507e-06
7.17567e-06
7.21602e-06
7.26128e-06
7.3077e-06
7.3583e-06
7.41212e-06
7.46985e-06
7.53184e-06
7.59946e-06
7.67091e-06
7.75101e-06
7.83449e-06
7.92979e-06
8.02773e-06
8.14134e-06
8.25546e-06
8.38618e-06
8.52763e-06
8.66114e-06
8.85461e-06
9.04531e-06
9.17632e-06
9.24726e-06
9.24624e-06
9.17674e-06
8.98328e-06
8.65761e-06
8.42598e-06
7.94687e-06
7.74322e-06
7.21419e-06
6.70014e-06
6.70993e-06
6.72e-06
6.73045e-06
6.7415e-06
6.75282e-06
6.76459e-06
6.77677e-06
6.78934e-06
6.80235e-06
6.81584e-06
6.82985e-06
6.84439e-06
6.85951e-06
6.87523e-06
6.89157e-06
6.90855e-06
6.9262e-06
6.94453e-06
6.96358e-06
6.98335e-06
7.00387e-06
7.02518e-06
7.04728e-06
7.07025e-06
7.09404e-06
7.11888e-06
7.1445e-06
7.17147e-06
7.1991e-06
7.2286e-06
7.25847e-06
7.291e-06
7.32342e-06
7.35955e-06
7.39499e-06
7.43522e-06
7.47457e-06
7.51935e-06
7.56424e-06
7.61367e-06
7.66606e-06
7.72068e-06
7.78219e-06
7.84398e-06
7.91528e-06
7.98742e-06
8.07038e-06
8.15491e-06
8.25211e-06
8.35399e-06
8.46223e-06
8.58663e-06
8.71138e-06
8.8473e-06
9.02018e-06
9.18445e-06
9.31741e-06
9.37201e-06
9.37646e-06
9.28431e-06
9.07585e-06
8.76735e-06
8.2898e-06
8.00232e-06
7.42176e-06
7.02945e-06
6.74299e-06
6.3849e-06
7.02097e-06
7.0324e-06
7.04387e-06
7.05588e-06
7.06842e-06
7.08135e-06
7.09476e-06
7.10863e-06
7.12304e-06
7.13799e-06
7.15353e-06
7.16968e-06
7.18647e-06
7.2039e-06
7.22201e-06
7.24078e-06
7.26028e-06
7.28044e-06
7.3014e-06
7.323e-06
7.34551e-06
7.3686e-06
7.39277e-06
7.41743e-06
7.44339e-06
7.46973e-06
7.49769e-06
7.52588e-06
7.55607e-06
7.58641e-06
7.61915e-06
7.65207e-06
7.68771e-06
7.72379e-06
7.76278e-06
7.80265e-06
7.84566e-06
7.89021e-06
7.93814e-06
7.98856e-06
8.04209e-06
8.10014e-06
8.16035e-06
8.22798e-06
8.29711e-06
8.37546e-06
8.45603e-06
8.54933e-06
8.63937e-06
8.7487e-06
8.86211e-06
8.97056e-06
9.11531e-06
9.28008e-06
9.40313e-06
9.49266e-06
9.52429e-06
9.5168e-06
9.41549e-06
9.21973e-06
8.79901e-06
8.39525e-06
7.81208e-06
7.38533e-06
6.88465e-06
6.35726e-06
6.0666e-06
5.58566e-06
5.54068e-06
7.42568e-06
7.43718e-06
7.44877e-06
7.46124e-06
7.4742e-06
7.488e-06
7.50219e-06
7.51728e-06
7.5329e-06
7.54948e-06
7.56661e-06
7.58451e-06
7.60318e-06
7.62246e-06
7.64257e-06
7.66328e-06
7.685e-06
7.70724e-06
7.7307e-06
7.75451e-06
7.77985e-06
7.80528e-06
7.83263e-06
7.85978e-06
7.88932e-06
7.91831e-06
7.95024e-06
7.98134e-06
8.01584e-06
8.0495e-06
8.08675e-06
8.12366e-06
8.16383e-06
8.20482e-06
8.24829e-06
8.29426e-06
8.34179e-06
8.3938e-06
8.44661e-06
8.50586e-06
8.56523e-06
8.63323e-06
8.70026e-06
8.77875e-06
8.85516e-06
8.94243e-06
9.03001e-06
9.13635e-06
9.21798e-06
9.35256e-06
9.48569e-06
9.60298e-06
9.69143e-06
9.74541e-06
9.71063e-06
9.67474e-06
9.50787e-06
9.30322e-06
8.93039e-06
8.36574e-06
7.89226e-06
7.12573e-06
6.64662e-06
6.06864e-06
5.58823e-06
5.07911e-06
4.84126e-06
4.45919e-06
4.83227e-06
7.93133e-06
7.94523e-06
7.95971e-06
7.97488e-06
7.99112e-06
8.00791e-06
8.02549e-06
8.0438e-06
8.06279e-06
8.08247e-06
8.10296e-06
8.12414e-06
8.1463e-06
8.16903e-06
8.19294e-06
8.21723e-06
8.24298e-06
8.26879e-06
8.29647e-06
8.32379e-06
8.35347e-06
8.38235e-06
8.41412e-06
8.44469e-06
8.47867e-06
8.51119e-06
8.54755e-06
8.5824e-06
8.62138e-06
8.65911e-06
8.70097e-06
8.74235e-06
8.78739e-06
8.83337e-06
8.88223e-06
8.9336e-06
8.98736e-06
9.04499e-06
9.10429e-06
9.16903e-06
9.23472e-06
9.30684e-06
9.37928e-06
9.46061e-06
9.537e-06
9.61321e-06
9.71861e-06
9.83125e-06
9.90773e-06
1.00165e-05
1.0004e-05
9.9919e-06
9.92402e-06
9.8293e-06
9.58416e-06
9.31008e-06
8.87608e-06
8.42358e-06
7.76953e-06
7.14417e-06
6.47566e-06
5.89124e-06
5.38822e-06
5.0733e-06
4.66412e-06
4.49275e-06
4.20575e-06
4.19832e-06
4.40078e-06
8.60827e-06
8.62218e-06
8.6366e-06
8.65181e-06
8.66829e-06
8.68543e-06
8.70389e-06
8.72289e-06
8.7433e-06
8.76439e-06
8.78704e-06
8.81021e-06
8.83483e-06
8.86001e-06
8.8867e-06
8.91363e-06
8.94254e-06
8.97137e-06
9.00272e-06
9.03363e-06
9.06752e-06
9.10077e-06
9.13722e-06
9.17316e-06
9.21219e-06
9.25121e-06
9.29304e-06
9.33546e-06
9.38055e-06
9.42653e-06
9.4755e-06
9.52517e-06
9.57845e-06
9.6319e-06
9.68952e-06
9.7465e-06
9.80775e-06
9.86831e-06
9.93191e-06
9.99501e-06
1.00597e-05
1.01222e-05
1.01894e-05
1.02549e-05
1.03035e-05
1.03346e-05
1.04068e-05
1.04095e-05
1.03635e-05
1.02782e-05
1.00876e-05
9.86503e-06
9.5295e-06
9.13096e-06
8.68841e-06
8.15154e-06
7.61725e-06
7.03332e-06
6.43717e-06
5.92678e-06
5.39158e-06
5.06136e-06
4.74377e-06
4.52211e-06
4.3366e-06
4.25312e-06
4.21151e-06
4.26005e-06
4.42188e-06
9.52148e-06
9.5413e-06
9.56251e-06
9.58551e-06
9.60955e-06
9.63527e-06
9.66191e-06
9.68981e-06
9.71893e-06
9.74897e-06
9.77993e-06
9.81171e-06
9.84453e-06
9.87808e-06
9.91294e-06
9.94821e-06
9.98507e-06
1.0022e-05
1.00606e-05
1.00989e-05
1.01389e-05
1.01784e-05
1.02194e-05
1.02599e-05
1.03015e-05
1.03429e-05
1.03845e-05
1.0426e-05
1.04672e-05
1.05075e-05
1.05474e-05
1.05846e-05
1.06219e-05
1.06551e-05
1.06887e-05
1.07173e-05
1.07453e-05
1.07691e-05
1.0788e-05
1.08055e-05
1.0821e-05
1.08305e-05
1.08976e-05
1.09086e-05
1.08894e-05
1.07914e-05
1.06692e-05
1.04709e-05
1.02725e-05
9.99299e-06
9.71126e-06
9.35466e-06
8.9831e-06
8.57047e-06
8.13652e-06
7.63279e-06
7.09749e-06
6.45579e-06
5.87253e-06
5.336e-06
4.95417e-06
4.58399e-06
4.3115e-06
3.98491e-06
3.77274e-06
3.63521e-06
3.5902e-06
3.67071e-06
4.04529e-06
1.11828e-05
1.12099e-05
1.12091e-05
1.1201e-05
1.12303e-05
1.12389e-05
1.12479e-05
1.12227e-05
1.11959e-05
1.1183e-05
1.11802e-05
1.11813e-05
1.11874e-05
1.11921e-05
1.12002e-05
1.1205e-05
1.12136e-05
1.12172e-05
1.12252e-05
1.12334e-05
1.12429e-05
1.12478e-05
1.1288e-05
1.13042e-05
1.132e-05
1.13019e-05
1.13283e-05
1.13387e-05
1.13147e-05
1.13266e-05
1.13306e-05
1.12969e-05
1.13125e-05
1.13009e-05
1.12883e-05
1.13406e-05
1.13582e-05
1.13743e-05
1.13343e-05
1.12674e-05
1.13187e-05
1.12811e-05
1.13034e-05
1.12979e-05
1.13858e-05
1.14215e-05
1.14289e-05
1.1312e-05
1.11253e-05
1.0854e-05
1.06163e-05
1.01777e-05
9.89716e-06
9.60019e-06
9.10495e-06
8.38532e-06
7.5503e-06
6.6493e-06
5.7816e-06
4.96496e-06
4.1067e-06
3.23928e-06
2.42547e-06
1.84676e-06
1.49563e-06
1.24972e-06
1.07963e-06
1.02303e-06
1.15934e-06
1.10713e-05
1.10823e-05
1.10869e-05
1.10235e-05
1.10601e-05
1.10254e-05
1.10145e-05
1.10313e-05
1.10324e-05
1.10631e-05
1.10951e-05
1.10965e-05
1.11496e-05
1.11624e-05
1.11706e-05
1.10801e-05
1.11333e-05
1.10456e-05
1.11052e-05
1.10163e-05
1.1083e-05
1.10216e-05
1.10091e-05
1.1089e-05
1.11158e-05
1.10484e-05
1.10353e-05
1.11136e-05
1.10824e-05
1.10926e-05
1.11979e-05
1.14121e-05
1.17247e-05
1.21629e-05
1.27098e-05
1.33922e-05
1.41157e-05
1.48691e-05
1.56499e-05
1.63966e-05
1.72088e-05
1.78991e-05
1.8666e-05
1.92255e-05
1.97642e-05
2.00156e-05
2.12295e-05
2.16502e-05
2.11962e-05
2.03163e-05
1.92076e-05
1.79479e-05
1.62602e-05
1.43653e-05
1.22999e-05
1.02269e-05
7.90395e-06
5.808e-06
4.01094e-06
2.53628e-06
1.6772e-06
1.20954e-06
9.44846e-07
7.43807e-07
5.5382e-07
4.41673e-07
4.20091e-07
4.54822e-07
6.38032e-07
3.2108e-05
3.29947e-05
3.39102e-05
3.48488e-05
3.58147e-05
3.68006e-05
3.78082e-05
3.88323e-05
3.98741e-05
4.09266e-05
4.19939e-05
4.30665e-05
4.41486e-05
4.52346e-05
4.6321e-05
4.74128e-05
4.84933e-05
4.95857e-05
5.06492e-05
5.17306e-05
5.27744e-05
5.38231e-05
5.48571e-05
5.58364e-05
5.68803e-05
5.77594e-05
5.88071e-05
5.95835e-05
6.06179e-05
6.13345e-05
6.21581e-05
6.2453e-05
6.33534e-05
6.40019e-05
6.45827e-05
6.58437e-05
6.54773e-05
6.438e-05
6.30116e-05
6.14647e-05
5.9721e-05
5.77471e-05
5.55186e-05
5.30059e-05
5.01888e-05
4.70411e-05
4.35729e-05
3.97718e-05
3.56463e-05
3.12054e-05
2.65183e-05
2.15958e-05
1.66139e-05
1.14503e-05
6.51783e-06
2.7226e-06
8.0246e-07
4.45814e-07
5.26736e-07
6.85002e-07
7.66614e-07
7.77783e-07
7.26791e-07
6.15881e-07
5.04866e-07
4.18905e-07
3.81195e-07
3.39042e-07
2.22322e-07
4.82816e-06
4.82718e-06
4.82572e-06
4.82311e-06
4.82038e-06
4.81642e-06
4.81279e-06
4.81032e-06
4.80969e-06
4.80926e-06
4.80721e-06
4.80652e-06
4.80677e-06
4.80607e-06
4.80047e-06
4.79646e-06
4.79572e-06
4.79391e-06
4.78974e-06
4.78366e-06
4.78592e-06
4.78813e-06
4.78294e-06
4.77795e-06
4.77275e-06
4.76584e-06
4.7659e-06
4.76633e-06
4.76834e-06
4.76345e-06
4.76124e-06
4.75982e-06
4.75943e-06
4.75464e-06
4.7517e-06
4.74804e-06
4.74673e-06
4.74316e-06
4.7381e-06
4.73516e-06
4.72978e-06
4.72955e-06
4.72744e-06
4.72359e-06
4.72193e-06
4.71661e-06
4.71241e-06
4.71092e-06
4.70788e-06
4.70212e-06
4.69606e-06
4.69415e-06
4.69415e-06
4.69563e-06
4.69893e-06
4.70019e-06
4.69899e-06
4.69593e-06
4.6916e-06
4.85181e-06
4.85007e-06
4.84783e-06
4.84558e-06
4.84338e-06
4.84133e-06
4.84013e-06
4.83977e-06
4.83965e-06
4.83873e-06
4.83722e-06
4.83602e-06
4.83328e-06
4.82871e-06
4.8233e-06
4.82146e-06
4.82133e-06
4.81813e-06
4.81166e-06
4.80953e-06
4.81185e-06
4.81222e-06
4.80569e-06
4.80094e-06
4.79431e-06
4.78878e-06
4.78905e-06
4.78995e-06
4.79098e-06
4.786e-06
4.78417e-06
4.78273e-06
4.78196e-06
4.77813e-06
4.77511e-06
4.7714e-06
4.76965e-06
4.7671e-06
4.76271e-06
4.75903e-06
4.75356e-06
4.75278e-06
4.75174e-06
4.7493e-06
4.74702e-06
4.74377e-06
4.73948e-06
4.73768e-06
4.73598e-06
4.73302e-06
4.72775e-06
4.7229e-06
4.71979e-06
4.71932e-06
4.71995e-06
4.72185e-06
4.72439e-06
4.72666e-06
4.72683e-06
4.87897e-06
4.87751e-06
4.876e-06
4.87497e-06
4.87399e-06
4.87344e-06
4.87318e-06
4.8725e-06
4.8713e-06
4.86933e-06
4.86678e-06
4.86338e-06
4.85867e-06
4.85419e-06
4.85159e-06
4.85146e-06
4.84925e-06
4.84251e-06
4.8389e-06
4.83946e-06
4.84055e-06
4.83927e-06
4.83102e-06
4.82639e-06
4.8188e-06
4.8148e-06
4.81518e-06
4.81636e-06
4.81655e-06
4.81157e-06
4.80991e-06
4.80835e-06
4.80725e-06
4.8043e-06
4.80117e-06
4.79749e-06
4.79548e-06
4.79337e-06
4.79003e-06
4.78635e-06
4.78066e-06
4.7786e-06
4.77806e-06
4.77698e-06
4.77509e-06
4.7726e-06
4.76893e-06
4.76663e-06
4.76582e-06
4.76449e-06
4.76194e-06
4.75794e-06
4.75411e-06
4.75012e-06
4.74953e-06
4.74949e-06
4.75025e-06
4.75236e-06
4.75486e-06
4.91271e-06
4.91168e-06
4.91063e-06
4.90988e-06
4.90907e-06
4.90826e-06
4.90691e-06
4.90507e-06
4.90253e-06
4.89946e-06
4.89585e-06
4.8917e-06
4.88795e-06
4.88551e-06
4.88418e-06
4.88259e-06
4.87731e-06
4.87199e-06
4.87071e-06
4.87108e-06
4.87131e-06
4.8675e-06
4.85854e-06
4.85393e-06
4.84611e-06
4.84345e-06
4.84388e-06
4.84511e-06
4.84461e-06
4.83967e-06
4.83808e-06
4.83642e-06
4.83519e-06
4.83287e-06
4.82991e-06
4.82628e-06
4.82406e-06
4.82212e-06
4.81957e-06
4.81641e-06
4.81108e-06
4.80762e-06
4.8072e-06
4.80678e-06
4.80583e-06
4.8043e-06
4.80152e-06
4.79885e-06
4.79852e-06
4.79842e-06
4.79779e-06
4.79579e-06
4.79276e-06
4.7893e-06
4.78606e-06
4.7849e-06
4.78422e-06
4.78466e-06
4.78558e-06
4.95059e-06
4.94962e-06
4.94844e-06
4.94736e-06
4.94573e-06
4.94384e-06
4.9413e-06
4.9385e-06
4.93527e-06
4.93178e-06
4.92833e-06
4.92514e-06
4.92295e-06
4.92113e-06
4.91884e-06
4.9149e-06
4.90895e-06
4.90614e-06
4.90627e-06
4.90634e-06
4.90521e-06
4.89814e-06
4.88938e-06
4.88454e-06
4.87728e-06
4.87568e-06
4.87621e-06
4.87734e-06
4.87617e-06
4.87129e-06
4.86964e-06
4.86785e-06
4.86647e-06
4.86455e-06
4.86189e-06
4.85842e-06
4.85604e-06
4.85426e-06
4.85229e-06
4.84984e-06
4.84578e-06
4.84093e-06
4.83983e-06
4.84e-06
4.84e-06
4.83919e-06
4.83763e-06
4.83497e-06
4.8333e-06
4.83319e-06
4.83326e-06
4.83425e-06
4.83402e-06
4.83232e-06
4.82954e-06
4.82666e-06
4.82512e-06
4.82505e-06
4.82506e-06
4.9921e-06
4.99045e-06
4.98842e-06
4.98628e-06
4.98352e-06
4.98072e-06
4.97756e-06
4.97458e-06
4.97154e-06
4.96854e-06
4.96595e-06
4.96359e-06
4.96148e-06
4.9585e-06
4.95465e-06
4.94974e-06
4.94591e-06
4.94522e-06
4.94506e-06
4.94422e-06
4.93942e-06
4.93077e-06
4.92278e-06
4.91776e-06
4.91161e-06
4.9109e-06
4.91131e-06
4.91219e-06
4.91045e-06
4.90569e-06
4.904e-06
4.90218e-06
4.9008e-06
4.89919e-06
4.89693e-06
4.89378e-06
4.89123e-06
4.88952e-06
4.88808e-06
4.88635e-06
4.88351e-06
4.87904e-06
4.87584e-06
4.87533e-06
4.87544e-06
4.87736e-06
4.87747e-06
4.87679e-06
4.87531e-06
4.87412e-06
4.87541e-06
4.87516e-06
4.87497e-06
4.87661e-06
4.87563e-06
4.87427e-06
4.87257e-06
4.8729e-06
4.87305e-06
5.0351e-06
5.03305e-06
5.0307e-06
5.02824e-06
5.02541e-06
5.02272e-06
5.01993e-06
5.01737e-06
5.01471e-06
5.01202e-06
5.00941e-06
5.00649e-06
5.00313e-06
4.99899e-06
4.99474e-06
4.99108e-06
4.9895e-06
4.98954e-06
4.98814e-06
4.98426e-06
4.97697e-06
4.96814e-06
4.96096e-06
4.95581e-06
4.95086e-06
4.95083e-06
4.9511e-06
4.95174e-06
4.94936e-06
4.94473e-06
4.94291e-06
4.941e-06
4.93949e-06
4.93804e-06
4.93615e-06
4.93341e-06
4.93076e-06
4.92928e-06
4.92826e-06
4.92715e-06
4.92544e-06
4.92236e-06
4.91818e-06
4.91644e-06
4.91575e-06
4.91674e-06
4.91773e-06
4.91811e-06
4.9205e-06
4.91949e-06
4.91895e-06
4.9188e-06
4.91913e-06
4.92029e-06
4.92112e-06
4.92162e-06
4.92203e-06
4.92235e-06
4.92318e-06
5.08295e-06
5.08048e-06
5.07781e-06
5.07529e-06
5.07254e-06
5.06995e-06
5.06718e-06
5.06439e-06
5.06138e-06
5.05819e-06
5.05475e-06
5.05104e-06
5.04719e-06
5.04334e-06
5.04038e-06
5.03848e-06
5.03775e-06
5.03633e-06
5.03224e-06
5.02571e-06
5.01712e-06
5.0088e-06
5.0023e-06
4.99743e-06
4.99365e-06
4.99397e-06
4.99417e-06
4.99438e-06
4.99148e-06
4.98701e-06
4.98516e-06
4.98332e-06
4.98191e-06