/*--------------------------------*- C++ -*----------------------------------*\
| =========                 |                                                 |
| \\      /  F ield         | OpenFOAM: The Open Source CFD Toolbox           |
|  \\    /   O peration     | Version:  2312                                  |
|   \\  /    A nd           | Website:  www.openfoam.com                      |
|    \\/     M anipulation  |                                                 |
\*---------------------------------------------------------------------------*/
FoamFile
{
    version     2.0;
    format      ascii;
    arch        "LSB;label=32;scalar=64";
    class       volScalarField;
    location    "2000";
    object      nut;
}
// * * * * * * * * * * * * * * * * * * * * * * * * * * * * * * * * * * * * * //

dimensions      [0 2 -1 0 0 0 0];

internalField   nonuniform List<scalar> 
76025
(
6.67429e-05
6.76066e-05
6.85269e-05
6.80822e-05
6.76927e-05
6.4994e-05
6.66536e-05
6.60509e-05
6.78604e-05
6.7423e-05
6.66777e-05
6.61406e-05
6.687e-05
6.67532e-05
6.50177e-05
6.64395e-05
6.38572e-05
6.41744e-05
6.32534e-05
6.35668e-05
6.16143e-05
6.09245e-05
5.99047e-05
5.81855e-05
5.77169e-05
5.65472e-05
5.34771e-05
5.48586e-05
5.2321e-05
5.122e-05
5.14096e-05
5.04929e-05
4.81027e-05
4.926e-05
4.79511e-05
4.83076e-05
4.59616e-05
4.41039e-05
4.47559e-05
4.40594e-05
4.33894e-05
4.13485e-05
3.97419e-05
4.02302e-05
3.95371e-05
3.88377e-05
3.77685e-05
3.81266e-05
3.8187e-05
3.83718e-05
3.83918e-05
3.84837e-05
3.90061e-05
3.93126e-05
3.9597e-05
4.04238e-05
4.04426e-05
4.00534e-05
3.94587e-05
3.97751e-05
3.94985e-05
3.80355e-05
3.87744e-05
3.86402e-05
3.831e-05
3.85298e-05
3.88408e-05
3.88015e-05
3.97458e-05
6.21275e-05
6.32871e-05
6.38154e-05
6.39976e-05
6.36987e-05
6.27057e-05
6.24377e-05
6.18054e-05
6.2037e-05
6.23617e-05
6.23603e-05
6.20955e-05
6.19593e-05
6.17388e-05
6.1497e-05
6.15187e-05
6.0856e-05
6.06025e-05
6.00614e-05
5.96925e-05
5.90176e-05
5.85645e-05
5.78577e-05
5.69333e-05
5.615e-05
5.54172e-05
5.45051e-05
5.37365e-05
5.27845e-05
5.18901e-05
5.12158e-05
5.05399e-05
4.98512e-05
4.92993e-05
4.85996e-05
4.79119e-05
4.73696e-05
4.70824e-05
4.67816e-05
4.63303e-05
4.58014e-05
4.55939e-05
4.5655e-05
4.55366e-05
4.52493e-05
4.51051e-05
4.52661e-05
4.51932e-05
4.49101e-05
4.48606e-05
4.48612e-05
4.48213e-05
4.49063e-05
4.49978e-05
4.45818e-05
4.41404e-05
4.39113e-05
4.33391e-05
4.30541e-05
4.27788e-05
4.24621e-05
4.17905e-05
4.16606e-05
4.11684e-05
4.08953e-05
4.01941e-05
4.11132e-05
4.11436e-05
4.28357e-05
5.75504e-05
5.84124e-05
5.86919e-05
5.8898e-05
5.90119e-05
5.89368e-05
5.86754e-05
5.82766e-05
5.79492e-05
5.78084e-05
5.77757e-05
5.77429e-05
5.76885e-05
5.75567e-05
5.74258e-05
5.73071e-05
5.71674e-05
5.70247e-05
5.68359e-05
5.65805e-05
5.63019e-05
5.60026e-05
5.56057e-05
5.51083e-05
5.46268e-05
5.41746e-05
5.37368e-05
5.31259e-05
5.24963e-05
5.18882e-05
5.13448e-05
5.08694e-05
5.0412e-05
4.98958e-05
4.93925e-05
4.88754e-05
4.84509e-05
4.81433e-05
4.78574e-05
4.75632e-05
4.72609e-05
4.70709e-05
4.69277e-05
4.6707e-05
4.6459e-05
4.6252e-05
4.60845e-05
4.582e-05
4.55069e-05
4.52645e-05
4.50312e-05
4.47551e-05
4.44786e-05
4.41321e-05
4.36535e-05
4.31391e-05
4.27086e-05
4.21129e-05
4.16453e-05
4.10848e-05
4.08274e-05
4.01237e-05
3.985e-05
3.92411e-05
3.9191e-05
3.86776e-05
3.92871e-05
3.89588e-05
4.11908e-05
5.41468e-05
5.44652e-05
5.43291e-05
5.42328e-05
5.42829e-05
5.43755e-05
5.43935e-05
5.43233e-05
5.41597e-05
5.39681e-05
5.38075e-05
5.37007e-05
5.36366e-05
5.35735e-05
5.35056e-05
5.34353e-05
5.33901e-05
5.33455e-05
5.33089e-05
5.32437e-05
5.31513e-05
5.30178e-05
5.28481e-05
5.26391e-05
5.24159e-05
5.21711e-05
5.19005e-05
5.15794e-05
5.12267e-05
5.08775e-05
5.05561e-05
5.02378e-05
4.98974e-05
4.95368e-05
4.91756e-05
4.88131e-05
4.84635e-05
4.81517e-05
4.78748e-05
4.75984e-05
4.73105e-05
4.70496e-05
4.68077e-05
4.65444e-05
4.62571e-05
4.59574e-05
4.56566e-05
4.53276e-05
4.4969e-05
4.46031e-05
4.42417e-05
4.38497e-05
4.34585e-05
4.30117e-05
4.25451e-05
4.19961e-05
4.15217e-05
4.09361e-05
4.04904e-05
3.99174e-05
3.96e-05
3.89586e-05
3.8754e-05
3.81846e-05
3.82238e-05
3.77654e-05
3.83691e-05
3.79981e-05
4.02467e-05
5.08148e-05
5.11488e-05
5.08952e-05
5.0587e-05
5.04236e-05
5.03704e-05
5.03682e-05
5.03788e-05
5.03624e-05
5.03014e-05
5.02081e-05
5.0109e-05
5.00263e-05
4.99636e-05
4.99149e-05
4.98757e-05
4.98518e-05
4.98413e-05
4.98448e-05
4.98518e-05
4.9853e-05
4.98399e-05
4.98091e-05
4.97547e-05
4.96784e-05
4.95827e-05
4.94655e-05
4.93251e-05
4.91625e-05
4.89855e-05
4.88021e-05
4.86072e-05
4.83927e-05
4.81601e-05
4.79135e-05
4.76577e-05
4.74e-05
4.71491e-05
4.69032e-05
4.66464e-05
4.63774e-05
4.61246e-05
4.58757e-05
4.55982e-05
4.52944e-05
4.49705e-05
4.46357e-05
4.42766e-05
4.38945e-05
4.3491e-05
4.30915e-05
4.26615e-05
4.22379e-05
4.17564e-05
4.1295e-05
4.07447e-05
4.02883e-05
3.97104e-05
3.93063e-05
3.87263e-05
3.84352e-05
3.78447e-05
3.76938e-05
3.71561e-05
3.72473e-05
3.68476e-05
3.74649e-05
3.717e-05
3.9427e-05
4.70939e-05
4.76696e-05
4.76036e-05
4.73687e-05
4.71752e-05
4.70326e-05
4.69341e-05
4.68769e-05
4.68488e-05
4.68296e-05
4.6803e-05
4.67633e-05
4.67156e-05
4.6668e-05
4.6626e-05
4.65929e-05
4.65713e-05
4.65632e-05
4.65687e-05
4.65859e-05
4.66107e-05
4.66376e-05
4.66612e-05
4.66762e-05
4.66797e-05
4.66716e-05
4.66501e-05
4.66126e-05
4.65583e-05
4.64884e-05
4.64049e-05
4.63076e-05
4.61939e-05
4.60622e-05
4.59134e-05
4.57503e-05
4.55761e-05
4.53922e-05
4.51983e-05
4.49887e-05
4.47644e-05
4.4546e-05
4.43169e-05
4.40528e-05
4.37639e-05
4.34511e-05
4.31222e-05
4.27671e-05
4.23974e-05
4.19998e-05
4.16067e-05
4.11758e-05
4.07636e-05
4.02887e-05
3.98609e-05
3.93414e-05
3.8928e-05
3.83905e-05
3.80332e-05
3.74999e-05
3.72459e-05
3.67182e-05
3.66193e-05
3.61314e-05
3.62812e-05
3.59423e-05
3.6613e-05
3.64721e-05
3.87742e-05
4.33819e-05
4.40564e-05
4.41721e-05
4.41143e-05
4.40456e-05
4.3964e-05
4.38714e-05
4.37855e-05
4.372e-05
4.36776e-05
4.36525e-05
4.36353e-05
4.36189e-05
4.36007e-05
4.35816e-05
4.35637e-05
4.35501e-05
4.35429e-05
4.35441e-05
4.35541e-05
4.35726e-05
4.35978e-05
4.36272e-05
4.36582e-05
4.36881e-05
4.37146e-05
4.37351e-05
4.37473e-05
4.37492e-05
4.37402e-05
4.37196e-05
4.36868e-05
4.36398e-05
4.35772e-05
4.34984e-05
4.34036e-05
4.32942e-05
4.31694e-05
4.30295e-05
4.28714e-05
4.26957e-05
4.25193e-05
4.23274e-05
4.20999e-05
4.18495e-05
4.15736e-05
4.12824e-05
4.09634e-05
4.06362e-05
4.02757e-05
3.99246e-05
3.95278e-05
3.91635e-05
3.8728e-05
3.83607e-05
3.78931e-05
3.75451e-05
3.70696e-05
3.67701e-05
3.63092e-05
3.60939e-05
3.56481e-05
3.55894e-05
3.51556e-05
3.53726e-05
3.50761e-05
3.57994e-05
3.56633e-05
3.79443e-05
4.0097e-05
4.0706e-05
4.08553e-05
4.08885e-05
4.09306e-05
4.09544e-05
4.0943e-05
4.09061e-05
4.08594e-05
4.08164e-05
4.07843e-05
4.07643e-05
4.07539e-05
4.07498e-05
4.0749e-05
4.07501e-05
4.07529e-05
4.07577e-05
4.07653e-05
4.07766e-05
4.07921e-05
4.0812e-05
4.08362e-05
4.08639e-05
4.08938e-05
4.09247e-05
4.09549e-05
4.09824e-05
4.10056e-05
4.10228e-05
4.10327e-05
4.1034e-05
4.10251e-05
4.10045e-05
4.09707e-05
4.09232e-05
4.08624e-05
4.07865e-05
4.06953e-05
4.05863e-05
4.04602e-05
4.03309e-05
4.01855e-05
4.00067e-05
3.98076e-05
3.95832e-05
3.93467e-05
3.90804e-05
3.88124e-05
3.85055e-05
3.82163e-05
3.78716e-05
3.75741e-05
3.71932e-05
3.69005e-05
3.64939e-05
3.62202e-05
3.58144e-05
3.55721e-05
3.51936e-05
3.50058e-05
3.4656e-05
3.46112e-05
3.42583e-05
3.45209e-05
3.42685e-05
3.50298e-05
3.48775e-05
3.70607e-05
3.72709e-05
3.77862e-05
3.78921e-05
3.792e-05
3.79883e-05
3.80642e-05
3.8119e-05
3.81478e-05
3.81556e-05
3.81505e-05
3.81405e-05
3.81316e-05
3.81269e-05
3.81277e-05
3.8134e-05
3.81448e-05
3.81593e-05
3.81764e-05
3.81957e-05
3.82167e-05
3.82394e-05
3.82639e-05
3.82902e-05
3.83183e-05
3.83479e-05
3.83787e-05
3.84101e-05
3.84411e-05
3.84706e-05
3.84976e-05
3.85208e-05
3.8539e-05
3.8551e-05
3.85551e-05
3.85502e-05
3.85351e-05
3.85098e-05
3.84721e-05
3.84214e-05
3.83554e-05
3.82749e-05
3.81912e-05
3.80922e-05
3.79638e-05
3.78186e-05
3.76495e-05
3.7472e-05
3.72635e-05
3.70596e-05
3.68118e-05
3.65912e-05
3.63047e-05
3.60808e-05
3.5757e-05
3.5545e-05
3.51928e-05
3.50032e-05
3.46457e-05
3.44797e-05
3.41481e-05
3.40137e-05
3.37281e-05
3.37053e-05
3.34406e-05
3.37357e-05
3.35587e-05
3.43788e-05
3.43784e-05
3.59718e-05
3.47467e-05
3.5208e-05
3.52802e-05
3.52814e-05
3.53309e-05
3.54046e-05
3.54763e-05
3.55375e-05
3.55863e-05
3.56233e-05
3.56506e-05
3.56708e-05
3.56871e-05
3.57021e-05
3.57182e-05
3.57367e-05
3.57584e-05
3.57833e-05
3.5811e-05
3.58412e-05
3.58733e-05
3.59069e-05
3.59418e-05
3.59776e-05
3.60142e-05
3.60514e-05
3.60889e-05
3.61264e-05
3.61634e-05
3.61991e-05
3.6233e-05
3.62641e-05
3.62916e-05
3.63143e-05
3.63312e-05
3.63413e-05
3.63443e-05
3.63381e-05
3.63221e-05
3.62937e-05
3.62547e-05
3.62133e-05
3.6158e-05
3.60781e-05
3.59841e-05
3.58689e-05
3.57479e-05
3.55967e-05
3.54537e-05
3.52646e-05
3.51086e-05
3.4881e-05
3.47243e-05
3.44587e-05
3.43163e-05
3.40163e-05
3.39009e-05
3.35766e-05
3.34962e-05
3.31675e-05
3.31349e-05
3.28383e-05
3.29062e-05
3.26826e-05
3.30222e-05
3.29567e-05
3.3839e-05
3.40386e-05
3.60878e-05
3.24105e-05
3.28488e-05
3.29164e-05
3.29099e-05
3.29446e-05
3.30036e-05
3.30672e-05
3.31304e-05
3.31917e-05
3.32499e-05
3.33037e-05
3.33523e-05
3.33953e-05
3.34337e-05
3.34687e-05
3.35022e-05
3.35357e-05
3.35702e-05
3.36064e-05
3.36447e-05
3.36851e-05
3.37274e-05
3.37714e-05
3.3817e-05
3.38638e-05
3.39117e-05
3.39602e-05
3.40093e-05
3.40584e-05
3.41073e-05
3.41554e-05
3.42023e-05
3.42473e-05
3.42895e-05
3.43285e-05
3.4363e-05
3.43933e-05
3.44168e-05
3.44335e-05
3.44403e-05
3.44402e-05
3.44384e-05
3.44236e-05
3.43883e-05
3.43414e-05
3.42757e-05
3.42058e-05
3.41073e-05
3.40184e-05
3.38841e-05
3.37837e-05
3.36133e-05
3.35095e-05
3.33058e-05
3.32067e-05
3.29736e-05
3.28889e-05
3.26288e-05
3.25793e-05
3.22922e-05
3.23231e-05
3.20258e-05
3.2202e-05
3.19699e-05
3.2421e-05
3.23643e-05
3.34213e-05
3.38622e-05
3.61828e-05
3.02215e-05
3.06442e-05
3.07198e-05
3.07216e-05
3.07569e-05
3.08114e-05
3.08689e-05
3.09274e-05
3.09878e-05
3.10503e-05
3.11143e-05
3.11781e-05
3.12402e-05
3.12996e-05
3.13558e-05
3.14093e-05
3.14609e-05
3.15113e-05
3.15615e-05
3.16122e-05
3.16638e-05
3.17168e-05
3.17715e-05
3.1828e-05
3.18862e-05
3.19461e-05
3.20076e-05
3.20705e-05
3.21345e-05
3.21994e-05
3.22648e-05
3.23304e-05
3.23956e-05
3.24597e-05
3.25226e-05
3.25828e-05
3.26409e-05
3.2694e-05
3.27429e-05
3.27833e-05
3.28205e-05
3.28553e-05
3.28788e-05
3.28839e-05
3.28806e-05
3.28592e-05
3.28357e-05
3.27843e-05
3.27439e-05
3.26589e-05
3.26067e-05
3.24879e-05
3.24263e-05
3.22808e-05
3.22053e-05
3.2048e-05
3.1954e-05
3.18003e-05
3.17038e-05
3.15569e-05
3.15217e-05
3.13693e-05
3.15145e-05
3.13787e-05
3.18656e-05
3.18535e-05
3.30572e-05
3.3354e-05
3.76767e-05
2.81857e-05
2.85895e-05
2.86712e-05
2.86835e-05
2.87251e-05
2.87828e-05
2.88415e-05
2.88996e-05
2.89591e-05
2.90216e-05
2.90876e-05
2.91565e-05
2.92273e-05
2.92986e-05
2.93697e-05
2.94401e-05
2.95096e-05
2.95782e-05
2.96463e-05
2.97141e-05
2.97822e-05
2.98508e-05
2.99206e-05
2.99918e-05
3.00646e-05
3.01394e-05
3.02162e-05
3.0295e-05
3.03758e-05
3.04584e-05
3.05427e-05
3.06284e-05
3.07151e-05
3.08021e-05
3.08894e-05
3.09757e-05
3.10616e-05
3.11436e-05
3.1224e-05
3.12963e-05
3.13694e-05
3.14381e-05
3.14982e-05
3.154e-05
3.15784e-05
3.15965e-05
3.16172e-05
3.16074e-05
3.16119e-05
3.15692e-05
3.15603e-05
3.1483e-05
3.14597e-05
3.13565e-05
3.13081e-05
3.12037e-05
3.11157e-05
3.10428e-05
3.09208e-05
3.0899e-05
3.07983e-05
3.08217e-05
3.08693e-05
3.09208e-05
3.13447e-05
3.14964e-05
3.27698e-05
3.36775e-05
3.62613e-05
2.6295e-05
2.66781e-05
2.6762e-05
2.67815e-05
2.68283e-05
2.689e-05
2.69523e-05
2.70133e-05
2.70748e-05
2.71386e-05
2.72057e-05
2.72765e-05
2.73504e-05
2.74269e-05
2.75055e-05
2.75857e-05
2.76674e-05
2.77501e-05
2.78337e-05
2.79181e-05
2.80035e-05
2.80899e-05
2.81775e-05
2.82667e-05
2.83576e-05
2.84506e-05
2.85458e-05
2.86435e-05
2.87435e-05
2.88462e-05
2.89512e-05
2.90588e-05
2.91681e-05
2.92793e-05
2.93918e-05
2.95049e-05
2.96186e-05
2.97302e-05
2.98419e-05
2.99459e-05
3.00544e-05
3.01566e-05
3.02529e-05
3.03298e-05
3.04088e-05
3.04631e-05
3.05252e-05
3.05517e-05
3.05961e-05
3.05895e-05
3.06166e-05
3.05742e-05
3.0584e-05
3.05128e-05
3.05005e-05
3.04239e-05
3.0381e-05
3.0334e-05
3.02637e-05
3.02804e-05
3.02077e-05
3.03255e-05
3.03094e-05
3.0578e-05
3.08491e-05
3.14375e-05
3.29074e-05
3.46944e-05
3.95309e-05
2.45529e-05
2.49158e-05
2.50002e-05
2.50239e-05
2.50731e-05
2.51366e-05
2.5201e-05
2.52644e-05
2.53283e-05
2.5394e-05
2.54628e-05
2.55349e-05
2.56103e-05
2.5689e-05
2.57707e-05
2.58554e-05
2.59431e-05
2.60336e-05
2.61269e-05
2.62227e-05
2.63211e-05
2.64219e-05
2.65253e-05
2.66312e-05
2.67398e-05
2.68514e-05
2.69658e-05
2.70836e-05
2.72043e-05
2.73288e-05
2.74559e-05
2.7587e-05
2.77201e-05
2.78572e-05
2.79954e-05
2.81369e-05
2.82785e-05
2.84208e-05
2.8563e-05
2.87005e-05
2.88428e-05
2.89781e-05
2.91084e-05
2.92197e-05
2.93359e-05
2.94243e-05
2.95243e-05
2.9584e-05
2.96643e-05
2.96914e-05
2.97496e-05
2.97443e-05
2.9781e-05
2.97497e-05
2.97702e-05
2.97245e-05
2.97429e-05
2.96907e-05
2.97424e-05
2.96808e-05
2.98107e-05
2.97533e-05
3.00343e-05
3.00786e-05
3.08535e-05
3.14387e-05
3.45278e-05
3.67815e-05
4.13526e-05
2.29383e-05
2.3283e-05
2.3368e-05
2.33959e-05
2.34469e-05
2.35115e-05
2.35772e-05
2.36423e-05
2.3708e-05
2.37758e-05
2.38465e-05
2.39205e-05
2.39979e-05
2.40785e-05
2.41625e-05
2.42499e-05
2.4341e-05
2.44359e-05
2.45347e-05
2.46373e-05
2.47439e-05
2.48544e-05
2.49688e-05
2.50873e-05
2.52098e-05
2.53366e-05
2.54674e-05
2.5603e-05
2.57424e-05
2.58872e-05
2.60353e-05
2.61894e-05
2.63456e-05
2.65086e-05
2.66721e-05
2.68425e-05
2.70115e-05
2.7186e-05
2.73575e-05
2.75311e-05
2.77057e-05
2.78762e-05
2.80397e-05
2.81882e-05
2.83396e-05
2.84638e-05
2.86e-05
2.86932e-05
2.88104e-05
2.88696e-05
2.89645e-05
2.89942e-05
2.90651e-05
2.90775e-05
2.91268e-05
2.9137e-05
2.91763e-05
2.91929e-05
2.92497e-05
2.92655e-05
2.93704e-05
2.94131e-05
2.97223e-05
2.99155e-05
3.14002e-05
3.27589e-05
3.71741e-05
4.19223e-05
3.50672e-05
2.14627e-05
2.17898e-05
2.1875e-05
2.19063e-05
2.19588e-05
2.20239e-05
2.20904e-05
2.21565e-05
2.22235e-05
2.22926e-05
2.23648e-05
2.24404e-05
2.25195e-05
2.26021e-05
2.26882e-05
2.2778e-05
2.28719e-05
2.29699e-05
2.30725e-05
2.31796e-05
2.32915e-05
2.34084e-05
2.35303e-05
2.36575e-05
2.37899e-05
2.39281e-05
2.40715e-05
2.42213e-05
2.4376e-05
2.4538e-05
2.47039e-05
2.48782e-05
2.50551e-05
2.52417e-05
2.54286e-05
2.56261e-05
2.58212e-05
2.60265e-05
2.62264e-05
2.64356e-05
2.66403e-05
2.68456e-05
2.70404e-05
2.7228e-05
2.74136e-05
2.75781e-05
2.77517e-05
2.78838e-05
2.80426e-05
2.81368e-05
2.82799e-05
2.83382e-05
2.84681e-05
2.84974e-05
2.86218e-05
2.86309e-05
2.87609e-05
2.87591e-05
2.88948e-05
2.89029e-05
2.90559e-05
2.92459e-05
2.9678e-05
3.06762e-05
3.30623e-05
3.5306e-05
3.67632e-05
3.24866e-05
2.24039e-05
2.01015e-05
2.04118e-05
2.04969e-05
2.05315e-05
2.05857e-05
2.06518e-05
2.07194e-05
2.0787e-05
2.08555e-05
2.09263e-05
2.10002e-05
2.10777e-05
2.11589e-05
2.12437e-05
2.13323e-05
2.14249e-05
2.15218e-05
2.16232e-05
2.17295e-05
2.18408e-05
2.19574e-05
2.20796e-05
2.22076e-05
2.23417e-05
2.24818e-05
2.26289e-05
2.27823e-05
2.29434e-05
2.31108e-05
2.32871e-05
2.34689e-05
2.36608e-05
2.38573e-05
2.40651e-05
2.42758e-05
2.44982e-05
2.47213e-05
2.49558e-05
2.51876e-05
2.54317e-05
2.56733e-05
2.59159e-05
2.61496e-05
2.63797e-05
2.66056e-05
2.68145e-05
2.70288e-05
2.72051e-05
2.74055e-05
2.75434e-05
2.77276e-05
2.78304e-05
2.79962e-05
2.80734e-05
2.82234e-05
2.82862e-05
2.84218e-05
2.84815e-05
2.85984e-05
2.87486e-05
2.89497e-05
2.95748e-05
3.06008e-05
3.24254e-05
3.63842e-05
3.4165e-05
2.68656e-05
2.17078e-05
1.63554e-05
1.88857e-05
1.91792e-05
1.92629e-05
1.92993e-05
1.93539e-05
1.94202e-05
1.94883e-05
1.95568e-05
1.96265e-05
1.96987e-05
1.97741e-05
1.98532e-05
1.99362e-05
2.0023e-05
2.01139e-05
2.02091e-05
2.03088e-05
2.04135e-05
2.05234e-05
2.06387e-05
2.07599e-05
2.08872e-05
2.10208e-05
2.11614e-05
2.13088e-05
2.1464e-05
2.16264e-05
2.17976e-05
2.19762e-05
2.21647e-05
2.23608e-05
2.25674e-05
2.27823e-05
2.30076e-05
2.32418e-05
2.34852e-05
2.37376e-05
2.39972e-05
2.42653e-05
2.45389e-05
2.48188e-05
2.50941e-05
2.53718e-05
2.56427e-05
2.59175e-05
2.61714e-05
2.64385e-05
2.66593e-05
2.69162e-05
2.70914e-05
2.73353e-05
2.7462e-05
2.76892e-05
2.77808e-05
2.7981e-05
2.80721e-05
2.82232e-05
2.83827e-05
2.85637e-05
2.89713e-05
2.9641e-05
3.05985e-05
3.27704e-05
3.54578e-05
2.93039e-05
2.33173e-05
1.83344e-05
1.46415e-05
1.18182e-05
1.77685e-05
1.80471e-05
1.81297e-05
1.81679e-05
1.82231e-05
1.82895e-05
1.83581e-05
1.84275e-05
1.84986e-05
1.85723e-05
1.86496e-05
1.87308e-05
1.8816e-05
1.89054e-05
1.89991e-05
1.90973e-05
1.92004e-05
1.93087e-05
1.94225e-05
1.95422e-05
1.9668e-05
1.98004e-05
1.99397e-05
2.00866e-05
2.02411e-05
2.04043e-05
2.0576e-05
2.07574e-05
2.09485e-05
2.11498e-05
2.13622e-05
2.15848e-05
2.18207e-05
2.20656e-05
2.23264e-05
2.25934e-05
2.28792e-05
2.31676e-05
2.34779e-05
2.37916e-05
2.41192e-05
2.44433e-05
2.47725e-05
2.51e-05
2.54235e-05
2.57394e-05
2.6047e-05
2.63348e-05
2.66149e-05
2.68651e-05
2.71112e-05
2.73205e-05
2.75371e-05
2.77124e-05
2.79098e-05
2.81197e-05
2.83052e-05
2.87303e-05
2.92157e-05
2.98275e-05
3.08567e-05
3.32999e-05
2.99379e-05
2.45246e-05
1.91366e-05
1.53044e-05
1.20677e-05
1.03928e-05
8.93232e-06
1.68221e-05
1.70864e-05
1.71675e-05
1.72068e-05
1.72624e-05
1.73285e-05
1.73973e-05
1.74672e-05
1.7539e-05
1.76137e-05
1.76919e-05
1.77743e-05
1.78609e-05
1.79519e-05
1.80475e-05
1.81479e-05
1.82535e-05
1.83646e-05
1.84817e-05
1.86049e-05
1.87348e-05
1.88716e-05
1.90159e-05
1.91679e-05
1.93282e-05
1.94973e-05
1.96761e-05
1.98645e-05
2.00647e-05
2.02752e-05
2.05001e-05
2.07355e-05
2.09885e-05
2.12513e-05
2.1535e-05
2.18268e-05
2.21422e-05
2.24636e-05
2.28078e-05
2.31566e-05
2.3519e-05
2.38898e-05
2.4265e-05
2.46553e-05
2.50339e-05
2.54237e-05
2.5789e-05
2.61547e-05
2.64852e-05
2.68124e-05
2.71079e-05
2.73811e-05
2.76699e-05
2.79311e-05
2.82201e-05
2.86305e-05
2.90463e-05
2.9436e-05
2.99133e-05
3.12517e-05
2.95753e-05
2.42219e-05
1.94814e-05
1.5172e-05
1.22219e-05
9.77075e-06
8.36068e-06
7.58164e-06
6.94274e-06
1.59365e-05
1.61893e-05
1.62686e-05
1.63085e-05
1.63632e-05
1.64284e-05
1.64965e-05
1.65663e-05
1.66384e-05
1.67137e-05
1.67931e-05
1.68769e-05
1.69653e-05
1.70584e-05
1.71564e-05
1.72595e-05
1.7368e-05
1.74823e-05
1.76031e-05
1.77303e-05
1.7865e-05
1.80071e-05
1.81581e-05
1.83171e-05
1.84867e-05
1.86651e-05
1.88559e-05
1.9056e-05
1.92708e-05
1.94961e-05
1.97384e-05
1.9993e-05
2.02672e-05
2.05557e-05
2.08658e-05
2.11927e-05
2.15422e-05
2.1914e-05
2.23133e-05
2.27303e-05
2.31609e-05
2.36067e-05
2.40565e-05
2.45205e-05
2.49746e-05
2.54352e-05
2.58745e-05
2.63189e-05
2.67155e-05
2.71314e-05
2.75173e-05
2.78497e-05
2.82633e-05
2.87013e-05
2.89608e-05
2.90601e-05
2.90832e-05
2.95722e-05
2.77386e-05
2.29537e-05
1.84069e-05
1.47092e-05
1.14957e-05
9.33391e-06
7.74058e-06
6.63806e-06
6.10902e-06
5.53891e-06
5.44037e-06
1.53356e-05
1.55782e-05
1.56577e-05
1.56999e-05
1.57549e-05
1.58199e-05
1.58873e-05
1.59569e-05
1.60286e-05
1.6104e-05
1.6183e-05
1.62667e-05
1.63551e-05
1.64481e-05
1.65461e-05
1.66491e-05
1.6758e-05
1.68721e-05
1.69933e-05
1.712e-05
1.72551e-05
1.7396e-05
1.75474e-05
1.77051e-05
1.7876e-05
1.8054e-05
1.82481e-05
1.84505e-05
1.86718e-05
1.8903e-05
1.91556e-05
1.94213e-05
1.97094e-05
2.00153e-05
2.03439e-05
2.06959e-05
2.10679e-05
2.14653e-05
2.18793e-05
2.23255e-05
2.27898e-05
2.32943e-05
2.38107e-05
2.43686e-05
2.49237e-05
2.55032e-05
2.60685e-05
2.66633e-05
2.71492e-05
2.77343e-05
2.82263e-05
2.85404e-05
2.86015e-05
2.8353e-05
2.78388e-05
2.75439e-05
2.43431e-05
2.04819e-05
1.6447e-05
1.31741e-05
1.05723e-05
8.26694e-06
6.86822e-06
5.77043e-06
5.07641e-06
4.50037e-06
4.25836e-06
3.86688e-06
4.17431e-06
1.46079e-05
1.48442e-05
1.49229e-05
1.4966e-05
1.50227e-05
1.50891e-05
1.51589e-05
1.52308e-05
1.53052e-05
1.53827e-05
1.54642e-05
1.55501e-05
1.56411e-05
1.57366e-05
1.58382e-05
1.59445e-05
1.60582e-05
1.6177e-05
1.63049e-05
1.64382e-05
1.65826e-05
1.67322e-05
1.68948e-05
1.70627e-05
1.72459e-05
1.74355e-05
1.76435e-05
1.78603e-05
1.80991e-05
1.83502e-05
1.8627e-05
1.89213e-05
1.92437e-05
1.95913e-05
1.99711e-05
2.03852e-05
2.08407e-05
2.13426e-05
2.18782e-05
2.24528e-05
2.30555e-05
2.36976e-05
2.43602e-05
2.50587e-05
2.57381e-05
2.63826e-05
2.70361e-05
2.75944e-05
2.78827e-05
2.80329e-05
2.75528e-05
2.68063e-05
2.58573e-05
2.41912e-05
2.01206e-05
1.66996e-05
1.35662e-05
1.10515e-05
8.87135e-06
7.1888e-06
5.86511e-06
4.93122e-06
4.29865e-06
3.92571e-06
3.5721e-06
3.35557e-06
3.12032e-06
3.06598e-06
3.19806e-06
1.46803e-05
1.48973e-05
1.49716e-05
1.50102e-05
1.50601e-05
1.51186e-05
1.51813e-05
1.5246e-05
1.53144e-05
1.53858e-05
1.54623e-05
1.55427e-05
1.56285e-05
1.57182e-05
1.58138e-05
1.59129e-05
1.6019e-05
1.61288e-05
1.62474e-05
1.63701e-05
1.6504e-05
1.66433e-05
1.67957e-05
1.6955e-05
1.71282e-05
1.73102e-05
1.75072e-05
1.77161e-05
1.79424e-05
1.81843e-05
1.84479e-05
1.87305e-05
1.90397e-05
1.9373e-05
1.97424e-05
2.01361e-05
2.05664e-05
2.10312e-05
2.15469e-05
2.21086e-05
2.27168e-05
2.33518e-05
2.40089e-05
2.46411e-05
2.51642e-05
2.55151e-05
2.57657e-05
2.55764e-05
2.50034e-05
2.41758e-05
2.12726e-05
1.79879e-05
1.48743e-05
1.22978e-05
1.0129e-05
8.31484e-06
6.90379e-06
5.74745e-06
4.81665e-06
4.15637e-06
3.60396e-06
3.2944e-06
3.01857e-06
2.8323e-06
2.60791e-06
2.51616e-06
2.50312e-06
2.3773e-06
2.47167e-06
1.39175e-05
1.4178e-05
1.42742e-05
1.43341e-05
1.4405e-05
1.44856e-05
1.45691e-05
1.46548e-05
1.47435e-05
1.4836e-05
1.49331e-05
1.50355e-05
1.5144e-05
1.52586e-05
1.53805e-05
1.55088e-05
1.5646e-05
1.57904e-05
1.59452e-05
1.61078e-05
1.62822e-05
1.64663e-05
1.66646e-05
1.68756e-05
1.7104e-05
1.7349e-05
1.76137e-05
1.78997e-05
1.82131e-05
1.85614e-05
1.89476e-05
1.93657e-05
1.98159e-05
2.02919e-05
2.0809e-05
2.13459e-05
2.18912e-05
2.24159e-05
2.28996e-05
2.33305e-05
2.36883e-05
2.39466e-05
2.42403e-05
2.43339e-05
2.42924e-05
2.1862e-05
1.90423e-05
1.63945e-05
1.39835e-05
1.18608e-05
1.00705e-05
8.5482e-06
7.29139e-06
6.25904e-06
5.41636e-06
4.68711e-06
4.08605e-06
3.5217e-06
3.07679e-06
2.70918e-06
2.46096e-06
2.22348e-06
1.99951e-06
1.80096e-06
1.7082e-06
1.65067e-06
1.59095e-06
1.66759e-06
1.93717e-06
1.66164e-05
1.68461e-05
1.6915e-05
1.69371e-05
1.7026e-05
1.7094e-05
1.71678e-05
1.71909e-05
1.7213e-05
1.72588e-05
1.73238e-05
1.7399e-05
1.74869e-05
1.75775e-05
1.76784e-05
1.77791e-05
1.78919e-05
1.80034e-05
1.81303e-05
1.82669e-05
1.84154e-05
1.85675e-05
1.87907e-05
1.89878e-05
1.91997e-05
1.93697e-05
1.96305e-05
1.98743e-05
2.00629e-05
2.02871e-05
2.04798e-05
2.05841e-05
2.07507e-05
2.08509e-05
2.09594e-05
2.12375e-05
2.08026e-05
1.9505e-05
1.80384e-05
1.64886e-05
1.51479e-05
1.37189e-05
1.24592e-05
1.12466e-05
1.02262e-05
9.23494e-06
8.3269e-06
7.44371e-06
6.64314e-06
5.92272e-06
5.33517e-06
4.76096e-06
4.33706e-06
3.99212e-06
3.60524e-06
3.19414e-06
2.79126e-06
2.39909e-06
2.03018e-06
1.67753e-06
1.39431e-06
1.11813e-06
8.54741e-07
6.77367e-07
5.74411e-07
5.06556e-07
4.64359e-07
4.66232e-07
6.29624e-07
9.79667e-06
9.70476e-06
9.60471e-06
9.44433e-06
9.3683e-06
9.23094e-06
9.11284e-06
9.01756e-06
8.90864e-06
8.8242e-06
8.74008e-06
8.633e-06
8.56572e-06
8.46814e-06
8.36736e-06
8.19407e-06
8.12851e-06
7.96098e-06
7.90132e-06
7.73595e-06
7.6817e-06
7.53801e-06
7.42914e-06
7.38266e-06
7.29676e-06
7.15399e-06
7.0396e-06
6.98261e-06
6.86494e-06
6.74241e-06
6.63851e-06
6.55998e-06
6.49601e-06
6.46457e-06
6.44974e-06
6.47658e-06
6.49802e-06
6.51735e-06
6.53113e-06
6.51782e-06
6.51809e-06
6.46349e-06
6.42829e-06
6.3129e-06
6.1794e-06
5.95868e-06
6.03126e-06
5.88827e-06
5.53872e-06
5.12364e-06
4.69481e-06
4.2774e-06
3.78864e-06
3.30375e-06
2.78583e-06
2.27571e-06
1.75598e-06
1.30784e-06
9.30386e-07
6.1427e-07
4.29979e-07
3.37515e-07
3.04431e-07
2.91777e-07
2.57425e-07
2.65633e-07
3.21311e-07
3.93134e-07
6.1506e-07
3.85889e-06
3.9669e-06
4.07869e-06
4.19365e-06
4.3123e-06
4.43383e-06
4.55847e-06
4.66059e-06
4.73848e-06
4.81755e-06
4.89846e-06
4.98024e-06
5.06356e-06
5.14793e-06
5.23311e-06
5.31985e-06
5.40646e-06
5.49572e-06
5.58335e-06
5.67475e-06
5.76406e-06
5.85617e-06
5.94918e-06
6.03903e-06
6.1389e-06
6.2243e-06
6.33139e-06
6.41278e-06
6.52622e-06
6.61104e-06
6.71358e-06
6.76586e-06
6.89097e-06
6.99693e-06
7.10602e-06
7.30194e-06
7.32866e-06
7.28406e-06
7.2198e-06
7.14689e-06
7.06362e-06
6.96633e-06
6.85208e-06
6.71662e-06
6.55614e-06
6.36536e-06
6.14162e-06
5.68562e-06
5.15809e-06
4.57317e-06
3.93762e-06
3.25042e-06
2.53486e-06
1.77151e-06
1.02237e-06
4.32251e-07
1.2856e-07
7.18643e-08
8.53308e-08
1.11479e-07
1.25321e-07
1.27718e-07
1.19868e-07
1.02015e-07
8.39724e-08
6.99465e-08
6.38801e-08
5.70073e-08
3.75027e-08
7.42544e-05
7.32105e-05
7.13805e-05
7.17185e-05
7.19583e-05
7.2762e-05
7.36538e-05
7.47672e-05
7.38656e-05
7.14209e-05
7.1008e-05
7.07469e-05
6.98082e-05
7.0536e-05
7.15785e-05
7.37762e-05
7.09816e-05
7.01555e-05
7.15098e-05
7.17578e-05
6.82667e-05
6.81516e-05
7.00864e-05
6.91772e-05
7.03286e-05
7.04645e-05
6.93309e-05
6.86361e-05
6.88932e-05
7.02309e-05
6.87744e-05
6.84138e-05
6.83821e-05
6.90725e-05
6.82357e-05
6.85896e-05
6.86203e-05
6.88622e-05
6.91691e-05
7.09385e-05
7.07893e-05
6.93327e-05
6.96342e-05
6.91024e-05
6.87464e-05
6.87285e-05
6.97765e-05
6.84634e-05
6.92777e-05
7.23293e-05
7.38382e-05
7.45021e-05
7.33626e-05
7.11218e-05
6.72166e-05
6.69414e-05
6.71478e-05
6.80188e-05
6.72962e-05
6.94143e-05
6.84446e-05
6.89895e-05
6.91972e-05
6.96498e-05
6.99807e-05
6.97055e-05
6.88126e-05
6.75167e-05
6.68752e-05
6.68547e-05
6.67984e-05
6.70476e-05
6.77348e-05
6.83749e-05
6.76015e-05
6.55818e-05
6.59857e-05
6.69222e-05
6.55537e-05
6.39013e-05
6.40192e-05
6.51158e-05
6.46213e-05
6.55138e-05
6.51456e-05
6.472e-05
6.37405e-05
6.44998e-05
6.48261e-05
6.3886e-05
6.37157e-05
6.39438e-05
6.40088e-05
6.37555e-05
6.37888e-05
6.39906e-05
6.38627e-05
6.39199e-05
6.47588e-05
6.52352e-05
6.49242e-05
6.46796e-05
6.43396e-05
6.45233e-05
6.39955e-05
6.45219e-05
6.38371e-05
6.35235e-05
6.46101e-05
6.59758e-05
6.73883e-05
6.80203e-05
6.76864e-05
6.55859e-05
6.4209e-05
6.28213e-05
6.25856e-05
6.20391e-05
6.58432e-05
6.5235e-05
6.5798e-05
6.56694e-05
6.54835e-05
6.49582e-05
6.41304e-05
6.32906e-05
6.27921e-05
6.27691e-05
6.28273e-05
6.29683e-05
6.32651e-05
6.33113e-05
6.29927e-05
6.17243e-05
6.13372e-05
6.18042e-05
6.17627e-05
6.01666e-05
5.92776e-05
5.99129e-05
6.02844e-05
6.02169e-05
6.07045e-05
6.01681e-05
5.99495e-05
5.92318e-05
5.97665e-05
5.98852e-05
5.92391e-05
5.92822e-05
5.93901e-05
5.92724e-05
5.92247e-05
5.92625e-05
5.93843e-05
5.93727e-05
5.94013e-05
5.97324e-05
6.03281e-05
6.05271e-05
6.02191e-05
5.99217e-05
6.0055e-05
5.97976e-05
5.99122e-05
5.96762e-05
5.92325e-05
5.92144e-05
5.96678e-05
6.04821e-05
6.13498e-05
6.19446e-05
6.18258e-05
6.11667e-05
6.01164e-05
5.94731e-05
5.81346e-05
6.26927e-05
6.18056e-05
6.19154e-05
6.14285e-05
6.08868e-05
6.02703e-05
5.97273e-05
5.94008e-05
5.93167e-05
5.93528e-05
5.9375e-05
5.93988e-05
5.92978e-05
5.88571e-05
5.81639e-05
5.75371e-05
5.7641e-05
5.76762e-05
5.69347e-05
5.57441e-05
5.54891e-05
5.60348e-05
5.61153e-05
5.62222e-05
5.64142e-05
5.58668e-05
5.56517e-05
5.51654e-05
5.55031e-05
5.55428e-05
5.51159e-05
5.51974e-05
5.51865e-05
5.50561e-05
5.5021e-05
5.50758e-05
5.51369e-05
5.51486e-05
5.5174e-05
5.53084e-05
5.57398e-05
5.61408e-05
5.6065e-05
5.57981e-05
5.5733e-05
5.56104e-05
5.55714e-05
5.55048e-05
5.52744e-05
5.5e-05
5.48949e-05
5.50618e-05
5.54805e-05
5.60077e-05
5.6428e-05
5.65745e-05
5.6367e-05
5.62652e-05
5.50449e-05
5.88767e-05
5.78179e-05
5.77745e-05
5.72847e-05
5.68679e-05
5.65253e-05
5.63055e-05
5.62056e-05
5.6161e-05
5.6096e-05
5.59725e-05
5.57425e-05
5.53307e-05
5.47635e-05
5.42548e-05
5.40268e-05
5.39682e-05
5.35278e-05
5.26614e-05
5.20165e-05
5.21157e-05
5.24017e-05
5.23786e-05
5.24976e-05
5.24767e-05
5.19753e-05
5.17588e-05
5.14031e-05
5.16242e-05
5.16003e-05
5.13038e-05
5.13551e-05
5.13068e-05
5.11887e-05
5.11415e-05
5.1179e-05
5.12129e-05
5.12084e-05
5.12068e-05
5.12376e-05
5.14802e-05
5.18653e-05
5.2026e-05
5.18998e-05
5.17562e-05
5.16319e-05
5.15419e-05
5.14883e-05
5.13957e-05
5.12175e-05
5.10067e-05
5.08837e-05
5.09032e-05
5.10702e-05
5.13355e-05
5.16085e-05
5.17778e-05
5.21365e-05
5.14096e-05
5.50157e-05
5.40389e-05
5.40731e-05
5.37395e-05
5.35058e-05
5.33269e-05
5.31911e-05
5.3067e-05
5.29106e-05
5.26912e-05
5.23903e-05
5.1988e-05
5.15148e-05
5.10714e-05
5.07709e-05
5.05649e-05
5.02224e-05
4.95866e-05
4.89279e-05
4.86824e-05
4.88355e-05
4.89263e-05
4.88743e-05
4.89321e-05
4.87671e-05
4.83267e-05
4.812e-05
4.78433e-05
4.79816e-05
4.79229e-05
4.76957e-05
4.77131e-05
4.76626e-05
4.7559e-05
4.75049e-05
4.75187e-05
4.75367e-05
4.75284e-05
4.75166e-05
4.75002e-05
4.76026e-05
4.78766e-05
4.81171e-05
4.81526e-05
4.80561e-05
4.79522e-05
4.78486e-05
4.77838e-05
4.7734e-05
4.76526e-05
4.75342e-05
4.73679e-05
4.72268e-05
4.71779e-05
4.71987e-05
4.73016e-05
4.74135e-05
4.78306e-05
4.73694e-05
5.16197e-05
5.07743e-05
5.08883e-05
5.06444e-05
5.04647e-05
5.02837e-05
5.00866e-05
4.9855e-05
4.95713e-05
4.92307e-05
4.88403e-05
4.84233e-05
4.80325e-05
4.77123e-05
4.74421e-05
4.71044e-05
4.66062e-05
4.60345e-05
4.56452e-05
4.55815e-05
4.56627e-05
4.56392e-05
4.55756e-05
4.55478e-05
4.52999e-05
4.49192e-05
4.47247e-05
4.45029e-05
4.45775e-05
4.4505e-05
4.43181e-05
4.43059e-05
4.42574e-05
4.41666e-05
4.41075e-05
4.41017e-05
4.41075e-05
4.41045e-05
4.40989e-05
4.40765e-05
4.41019e-05
4.42565e-05
4.44659e-05
4.45959e-05
4.45923e-05
4.45208e-05
4.44263e-05
4.43458e-05
4.4317e-05
4.42703e-05
4.42074e-05
4.41108e-05
4.39916e-05
4.38804e-05
4.37943e-05
4.37563e-05
4.37364e-05
4.40177e-05
4.35672e-05
4.86131e-05
4.78251e-05
4.79326e-05
4.76791e-05
4.74584e-05
4.72092e-05
4.69281e-05
4.66121e-05
4.62626e-05
4.58905e-05
4.55146e-05
4.51594e-05
4.48403e-05
4.45378e-05
4.41974e-05
4.37649e-05
4.32774e-05
4.2867e-05
4.26601e-05
4.26348e-05
4.26232e-05
4.25401e-05
4.24561e-05
4.23482e-05
4.20646e-05
4.17371e-05
4.15567e-05
4.13729e-05
4.1401e-05
4.13252e-05
4.11651e-05