/*--------------------------------*- C++ -*----------------------------------*\
| =========                 |                                                 |
| \\      /  F ield         | OpenFOAM: The Open Source CFD Toolbox           |
|  \\    /   O peration     | Version:  2312                                  |
|   \\  /    A nd           | Website:  www.openfoam.com                      |
|    \\/     M anipulation  |                                                 |
\*---------------------------------------------------------------------------*/
FoamFile
{
    version     2.0;
    format      ascii;
    arch        "LSB;label=32;scalar=64";
    class       volScalarField;
    location    "2000";
    object      omega;
}
// * * * * * * * * * * * * * * * * * * * * * * * * * * * * * * * * * * * * * //

dimensions      [0 0 -1 0 0 0 0];

internalField   nonuniform List<scalar> 
76025
(
0.0279225
0.0278837
0.0278396
0.0278319
0.0278335
0.0278525
0.0278775
0.0278784
0.0278654
0.0278466
0.0278351
0.0278229
0.0278025
0.0277721
0.0277583
0.0277417
0.027744
0.0277438
0.0277595
0.027776
0.0278052
0.0278384
0.0278845
0.0279258
0.0280065
0.0280489
0.0281679
0.0282239
0.0283454
0.0284303
0.0285868
0.0286694
0.0288698
0.0290046
0.0291796
0.02936
0.0295296
0.0298087
0.0300563
0.0302999
0.0305857
0.03085
0.0312419
0.0315457
0.0318749
0.0321493
0.0324972
0.0327634
0.033039
0.0332148
0.0334373
0.0335673
0.0337781
0.0339525
0.0342849
0.0344863
0.0348846
0.0353
0.0359486
0.0365597
0.0377921
0.038611
0.0404746
0.0415476
0.0441795
0.0456923
0.0491644
0.0519191
0.0553581
0.0283037
0.0282853
0.0282388
0.0281877
0.0281617
0.0281667
0.0281683
0.0281875
0.0282054
0.028217
0.0282184
0.028223
0.0282359
0.0282381
0.0282376
0.0282266
0.0282416
0.0282473
0.0282429
0.0282527
0.0282908
0.0283305
0.0283936
0.0284485
0.0285376
0.0286084
0.0287161
0.0288095
0.0289338
0.0290484
0.0291929
0.0293272
0.0294854
0.0296483
0.0298202
0.0300072
0.0301994
0.030403
0.0306118
0.0308229
0.0310415
0.0312653
0.03148
0.0316921
0.0318938
0.0320994
0.0322934
0.0324832
0.0326828
0.0328721
0.0331075
0.0332904
0.0335845
0.0338191
0.0342209
0.0345373
0.0353011
0.0357861
0.0369281
0.037619
0.0391688
0.0401517
0.0423277
0.0437092
0.0467326
0.0486041
0.0528284
0.0551693
0.0617805
0.028574
0.0286077
0.0286459
0.0286382
0.0286003
0.028576
0.0285769
0.0285732
0.028575
0.0285972
0.028624
0.0286493
0.0286709
0.0286827
0.0286976
0.0286955
0.0287498
0.0287699
0.0287587
0.0287553
0.0287686
0.028795
0.0288453
0.0289039
0.0289841
0.0290691
0.02917
0.0292752
0.0293957
0.0295211
0.0296582
0.0298008
0.0299506
0.0301082
0.0302728
0.0304455
0.0306254
0.0308104
0.0309999
0.0311905
0.0313846
0.0315805
0.0317754
0.03197
0.0321679
0.0323685
0.0325712
0.0327813
0.0330076
0.0332522
0.0335322
0.033831
0.034226
0.0346004
0.0351991
0.0356743
0.0365692
0.037151
0.0384342
0.0392097
0.0409366
0.0420038
0.0443486
0.0457866
0.0489847
0.0509308
0.0552535
0.0577807
0.0647224
0.0288517
0.0288898
0.0289344
0.0289764
0.0290106
0.0290554
0.0290663
0.0290566
0.0291
0.0291127
0.0290911
0.0290978
0.0291262
0.0291563
0.0291921
0.0292204
0.0292566
0.0292872
0.0293107
0.0293304
0.0293548
0.0293856
0.0294299
0.0294849
0.0295546
0.0296347
0.0297272
0.0298286
0.0299409
0.0300615
0.0301908
0.0303269
0.03047
0.0306197
0.0307761
0.030939
0.031108
0.0312834
0.0314641
0.0316478
0.0318366
0.03203
0.0322287
0.0324317
0.0326456
0.0328665
0.0331047
0.0333512
0.0336368
0.0339266
0.0342972
0.0346473
0.0351604
0.0355844
0.0363213
0.0368359
0.0378869
0.0385317
0.0399775
0.0408409
0.042769
0.043946
0.0465397
0.0481299
0.0516426
0.0537565
0.0585093
0.0612307
0.0687921
0.0292898
0.0293011
0.029335
0.0293801
0.0294222
0.0294553
0.0294749
0.0294867
0.0294999
0.0295107
0.0295238
0.0295468
0.029583
0.0296265
0.0296768
0.0297287
0.0297833
0.0298373
0.0298897
0.0299395
0.0299895
0.0300413
0.0300985
0.0301619
0.0302338
0.0303138
0.030403
0.0305001
0.0306061
0.0307198
0.0308417
0.0309703
0.0311065
0.0312493
0.0313994
0.0315564
0.0317205
0.0318921
0.0320717
0.0322565
0.0324503
0.0326516
0.032864
0.0330843
0.0333232
0.0335727
0.0338503
0.0341383
0.0344799
0.0348232
0.0352689
0.0356833
0.0362933
0.0367876
0.0376512
0.038232
0.0394487
0.0401664
0.041801
0.0427734
0.0449142
0.0462131
0.0490838
0.0508078
0.054616
0.0568904
0.0619991
0.0648781
0.0729609
0.0298159
0.0298218
0.0298185
0.0298493
0.0298991
0.0299505
0.029996
0.0300343
0.0300667
0.0300943
0.0301217
0.0301521
0.0301893
0.0302336
0.0302853
0.0303427
0.0304057
0.0304722
0.0305413
0.0306114
0.0306826
0.0307549
0.0308298
0.0309074
0.0309897
0.0310767
0.0311697
0.0312683
0.0313739
0.0314857
0.0316049
0.0317304
0.0318637
0.0320038
0.0321521
0.0323084
0.0324733
0.0326474
0.0328325
0.0330253
0.0332311
0.0334477
0.0336804
0.0339254
0.0341954
0.0344801
0.0348023
0.0351359
0.03554
0.0359364
0.0364681
0.0369387
0.0376644
0.0382153
0.0392277
0.0398681
0.0412605
0.0420799
0.0438894
0.0449767
0.0473683
0.0487918
0.0519512
0.0538297
0.0579714
0.0604389
0.0659813
0.0690702
0.0778052
0.0305576
0.0305421
0.0305609
0.030575
0.030563
0.0305909
0.0306373
0.0306893
0.0307415
0.030791
0.0308379
0.0308832
0.0309292
0.0309776
0.0310305
0.0310884
0.0311522
0.0312215
0.0312961
0.0313748
0.0314575
0.0315429
0.0316315
0.0317226
0.0318172
0.031915
0.0320171
0.0321232
0.0322348
0.0323514
0.0324747
0.0326039
0.0327411
0.0328855
0.0330391
0.0332019
0.0333753
0.0335598
0.0337584
0.0339671
0.0341932
0.034433
0.0346944
0.0349717
0.03528
0.0356077
0.0359791
0.0363674
0.0368349
0.0372951
0.0379104
0.0384491
0.0392876
0.0399064
0.0410696
0.0417798
0.0433611
0.0442796
0.0462995
0.0475087
0.0501695
0.0517395
0.0552001
0.0572587
0.061776
0.064461
0.070458
0.0738284
0.0830269
0.0314632
0.0314211
0.0314675
0.0314035
0.0314451
0.0314105
0.0314221
0.0314668
0.0315286
0.0315989
0.0316727
0.0317469
0.0318203
0.0318925
0.0319644
0.0320365
0.0321104
0.0321866
0.0322661
0.0323487
0.032435
0.0325245
0.0326177
0.0327139
0.032814
0.0329174
0.0330253
0.0331371
0.0332545
0.0333771
0.0335066
0.0336428
0.0337875
0.0339409
0.0341046
0.0342794
0.0344669
0.0346678
0.0348861
0.0351164
0.0353693
0.0356375
0.0359344
0.0362483
0.0366017
0.036976
0.0374023
0.0378491
0.0383832
0.0389125
0.0396134
0.040227
0.0411819
0.0418784
0.0431996
0.0439934
0.0457781
0.0468016
0.0490653
0.0504024
0.0533645
0.055091
0.0589008
0.061164
0.0661055
0.0690366
0.0755467
0.0794242
0.0876865
0.0322463
0.0322625
0.0322851
0.0322922
0.0323085
0.0323238
0.0323485
0.0323857
0.0324359
0.0324978
0.0325702
0.032651
0.0327383
0.0328299
0.0329247
0.0330214
0.0331198
0.0332191
0.0333199
0.0334216
0.0335251
0.0336298
0.0337367
0.0338453
0.0339569
0.034071
0.0341891
0.0343108
0.034438
0.0345705
0.0347103
0.0348577
0.0350143
0.0351813
0.0353599
0.0355523
0.035759
0.0359824
0.0362261
0.0364845
0.0367707
0.0370728
0.0374127
0.0377673
0.0381736
0.0385973
0.0390853
0.039595
0.0401987
0.0408087
0.0415914
0.0423043
0.0433646
0.0441759
0.0456427
0.0465578
0.0485545
0.0496973
0.0522296
0.0537278
0.0570093
0.0589212
0.0631186
0.0656837
0.0709782
0.0743308
0.0815967
0.0852995
0.0964002
0.0332153
0.0332573
0.0332967
0.0333355
0.0333751
0.0334153
0.0334578
0.0335044
0.0335564
0.0336147
0.0336805
0.033754
0.0338354
0.0339242
0.0340198
0.0341213
0.0342281
0.0343391
0.034454
0.0345717
0.0346923
0.034815
0.0349403
0.0350677
0.0351981
0.0353312
0.0354684
0.0356097
0.0357566
0.0359097
0.0360704
0.0362403
0.0364196
0.036612
0.0368157
0.0370371
0.0372721
0.037529
0.0378053
0.0381012
0.0384264
0.03877
0.0391579
0.0395573
0.0400232
0.040497
0.0410566
0.0416286
0.0423142
0.0430086
0.0438844
0.0447102
0.0458822
0.0468371
0.0484459
0.0495273
0.0517389
0.0530006
0.0558945
0.0575532
0.0611945
0.0633198
0.0679805
0.0709298
0.0765159
0.0806764
0.0881699
0.0922377
0.105219
0.0344841
0.0345364
0.0345872
0.0346413
0.0346973
0.0347541
0.0348125
0.0348733
0.0349372
0.0350047
0.0350766
0.035153
0.0352346
0.0353217
0.0354146
0.0355132
0.0356178
0.0357279
0.0358437
0.0359644
0.0360903
0.0362206
0.0363558
0.0364953
0.0366398
0.0367891
0.0369441
0.037105
0.0372729
0.037449
0.0376335
0.0378295
0.0380352
0.0382576
0.0384899
0.0387462
0.0390121
0.0393101
0.0396197
0.039963
0.0403268
0.0407236
0.0411593
0.0416164
0.0421448
0.0426811
0.0433207
0.0439674
0.0447483
0.0455425
0.0465263
0.047487
0.0487858
0.0499125
0.0516789
0.0529705
0.055398
0.0568536
0.0601296
0.0619667
0.0660432
0.0684179
0.0737211
0.0767163
0.083468
0.0873644
0.0962682
0.10114
0.116574
0.0359663
0.0360271
0.036086
0.0361494
0.0362151
0.0362815
0.0363485
0.0364172
0.0364885
0.0365634
0.0366425
0.0367265
0.0368157
0.0369102
0.0370104
0.0371161
0.0372277
0.037345
0.0374682
0.0375969
0.0377317
0.0378722
0.0380189
0.0381716
0.0383312
0.0384975
0.0386715
0.0388538
0.0390447
0.0392464
0.0394579
0.039684
0.0399201
0.0401778
0.040443
0.0407416
0.0410413
0.0413911
0.0417346
0.0421407
0.0425402
0.0430114
0.0434895
0.0440295
0.0446164
0.0452401
0.0459619
0.0467052
0.0475915
0.0485065
0.0496125
0.0507333
0.0521766
0.053501
0.0554573
0.0569817
0.0596592
0.0613849
0.0650314
0.0670868
0.0717054
0.0744067
0.0802808
0.083675
0.0912754
0.095782
0.106023
0.111888
0.131738
0.0378396
0.037914
0.0379842
0.0380581
0.0381337
0.0382092
0.0382845
0.0383599
0.0384366
0.0385155
0.038598
0.0386846
0.0387765
0.038874
0.0389777
0.0390875
0.039204
0.039327
0.0394569
0.0395933
0.0397371
0.0398875
0.0400458
0.0402113
0.0403853
0.0405677
0.0407597
0.0409617
0.0411747
0.0414003
0.0416385
0.0418935
0.042161
0.042454
0.0427544
0.0430976
0.0434334
0.0438424
0.044219
0.0447029
0.045132
0.0457027
0.0462104
0.0468683
0.047497
0.0482486
0.0490394
0.0499183
0.0509056
0.0519804
0.0532064
0.0545406
0.0561171
0.057713
0.0598552
0.0616799
0.0646437
0.0666956
0.0707577
0.0730755
0.0784134
0.0814187
0.0880532
0.0919401
0.100709
0.106101
0.118081
0.126999
0.145679
0.0399835
0.0400726
0.040157
0.0402455
0.0403356
0.0404256
0.0405153
0.0406049
0.040695
0.0407863
0.0408799
0.0409764
0.041077
0.0411823
0.0412932
0.0414101
0.0415338
0.0416644
0.0418029
0.0419491
0.0421041
0.0422674
0.0424404
0.0426227
0.0428158
0.0430191
0.0432349
0.0434619
0.0437044
0.0439586
0.0442325
0.0445194
0.0448292
0.0451582
0.0455062
0.0458929
0.0462787
0.0467452
0.047168
0.0477326
0.0482002
0.0488831
0.0494207
0.0502244
0.0508859
0.0518064
0.0526561
0.0537154
0.0548052
0.0560827
0.0574382
0.0590517
0.0607415
0.0627488
0.0649903
0.0673377
0.0704577
0.0730986
0.0774247
0.0803376
0.0863013
0.0897224
0.0974216
0.102006
0.112497
0.119108
0.13494
0.14672
0.171838
0.0426757
0.0427763
0.0428726
0.0429743
0.0430788
0.043184
0.0432896
0.0433958
0.0435029
0.0436114
0.0437217
0.0438346
0.0439505
0.0440703
0.0441947
0.0443243
0.0444601
0.0446027
0.0447529
0.0449112
0.0450786
0.0452554
0.0454427
0.0456405
0.045851
0.046072
0.0463099
0.0465566
0.0468279
0.0471032
0.0474157
0.0477241
0.0480862
0.0484365
0.0488533
0.0492627
0.0497336
0.0502296
0.0507474
0.0513598
0.0519247
0.0526872
0.0533145
0.0542424
0.0549853
0.0560739
0.0570174
0.0582713
0.0595031
0.0609896
0.0625462
0.0644296
0.0663181
0.0687666
0.0711244
0.0741433
0.0773203
0.080851
0.0851932
0.0893427
0.095387
0.0999786
0.109024
0.114624
0.127957
0.136891
0.159564
0.174195
0.228828
0.0458153
0.0459208
0.0460239
0.0461357
0.0462534
0.0463743
0.0464981
0.0466246
0.0467539
0.0468863
0.0470216
0.0471603
0.0473025
0.0474488
0.0475995
0.0477554
0.0479169
0.0480851
0.0482602
0.0484437
0.0486358
0.0488379
0.0490509
0.0492749
0.0495141
0.0497625
0.0500351
0.0503096
0.0506257
0.0509268
0.0512999
0.051628
0.0520727
0.0524316
0.0529601
0.0533623
0.0539791
0.0544507
0.0551494
0.0557266
0.0565036
0.0572351
0.0580908
0.0590216
0.0599874
0.0611452
0.0622974
0.0636993
0.0651538
0.0668426
0.06869
0.0708135
0.0730617
0.075864
0.0785589
0.0821697
0.0856541
0.0900005
0.0947694
0.10015
0.106363
0.113716
0.122824
0.131947
0.149998
0.163501
0.192859
0.222569
0.273672
0.0497895
0.0499039
0.0500142
0.0501333
0.050259
0.050389
0.0505231
0.0506617
0.0508051
0.0509534
0.0511067
0.0512654
0.0514293
0.0515992
0.0517748
0.0519573
0.0521462
0.0523435
0.052548
0.0527625
0.0529859
0.0532203
0.053467
0.0537237
0.0540004
0.0542811
0.0545981
0.0549023
0.0552746
0.0555997
0.0560471
0.0563897
0.0569344
0.0572938
0.0579563
0.0583396
0.0591348
0.0595614
0.060493
0.0609957
0.0620719
0.0627001
0.0639211
0.0647437
0.0661144
0.0672131
0.0687616
0.0702215
0.0720265
0.0739247
0.0760978
0.0785625
0.0811646
0.0844686
0.0874975
0.0919902
0.0956399
0.101416
0.106568
0.113299
0.121734
0.129967
0.143844
0.157017
0.182835
0.201086
0.252274
0.284728
0.404744
0.0546347
0.0547104
0.0548031
0.0549188
0.0550487
0.0551886
0.0553376
0.0554952
0.055661
0.0558346
0.0560156
0.0562044
0.0564003
0.0566042
0.0568154
0.0570355
0.0572633
0.057501
0.0577475
0.0580047
0.0582732
0.0585519
0.0588476
0.0591488
0.0594801
0.0598037
0.0601832
0.0605269
0.0609723
0.0613331
0.0618652
0.0622425
0.0628818
0.063282
0.0640449
0.0644847
0.0653833
0.0658858
0.0669321
0.0675263
0.0687516
0.069464
0.0709065
0.0717818
0.0734781
0.0745945
0.0765807
0.0780625
0.0803873
0.0823874
0.0851325
0.0878382
0.0911093
0.0947923
0.0987102
0.103774
0.108481
0.115624
0.12149
0.131831
0.141024
0.155633
0.173992
0.19719
0.229256
0.269144
0.339805
0.411702
0.526122
0.0604666
0.0605831
0.0607564
0.060918
0.0611008
0.0612823
0.0614581
0.0616334
0.0618136
0.0620016
0.0621985
0.0624053
0.0626218
0.0628488
0.0630858
0.063334
0.0635929
0.0638634
0.0641466
0.0644407
0.064752
0.0650703
0.0654165
0.0657588
0.0661502
0.0665149
0.0669658
0.0673518
0.0678784
0.0682892
0.0689044
0.0693559
0.0700621
0.0705886
0.0713756
0.0720275
0.0728816
0.073706
0.0746325
0.0756637
0.0767144
0.0779496
0.0792218
0.0806463
0.0822654
0.0838799
0.0859993
0.0878499
0.0906257
0.0928567
0.0963828
0.0993425
0.103568
0.107891
0.11271
0.119148
0.12501
0.134304
0.143061
0.156967
0.172197
0.194538
0.22349
0.258988
0.311349
0.383687
0.474613
0.577815
0.673252
0.0693162
0.0693797
0.0688772
0.0691827
0.0689272
0.0688711
0.069009
0.0692184
0.069449
0.0696901
0.0699394
0.0701989
0.0704686
0.0707502
0.0710437
0.0713495
0.071669
0.0719999
0.0723483
0.072704
0.0730862
0.0734654
0.0738896
0.0742904
0.0747687
0.0751896
0.0757365
0.0761807
0.0768074
0.0772911
0.0779959
0.0785586
0.0793188
0.0800277
0.0808026
0.0817382
0.0824959
0.0837143
0.084481
0.0859894
0.0868702
0.0886198
0.0897779
0.0917323
0.0933339
0.0955151
0.0977556
0.100209
0.103366
0.106145
0.110556
0.113851
0.119747
0.124269
0.131606
0.139126
0.148272
0.161732
0.175556
0.198133
0.223589
0.259484
0.306525
0.366296
0.45241
0.550558
0.658521
0.745056
0.80765
0.0796607
0.0804399
0.0805484
0.0807362
0.079875
0.0803343
0.0797269
0.0794096
0.0794123
0.0795553
0.0797682
0.0800197
0.080298
0.0805972
0.0809173
0.0812536
0.0816122
0.0819827
0.0823822
0.0827854
0.0832319
0.0836661
0.0841699
0.084633
0.0852073
0.0856992
0.0863571
0.0868853
0.0876328
0.0882207
0.0890481
0.0897434
0.0906214
0.0914948
0.0923885
0.093508
0.0944188
0.0957998
0.0968393
0.0984053
0.0997987
0.101423
0.103419
0.105067
0.107809
0.109641
0.113209
0.11547
0.120049
0.122983
0.128921
0.132933
0.140824
0.146975
0.158044
0.169008
0.185822
0.206377
0.233138
0.269762
0.313921
0.374696
0.450037
0.546387
0.654754
0.75959
0.840775
0.889384
0.919651
0.0916927
0.0908871
0.0915585
0.0911262
0.0908489
0.0909519
0.0910934
0.0913794
0.091688
0.0921024
0.0924986
0.0929327
0.0933746
0.0938138
0.0942572
0.0947082
0.0951754
0.0956552
0.0961595
0.0966736
0.0972232
0.097772
0.0983761
0.0989591
0.0996294
0.100248
0.100997
0.101659
0.102497
0.10322
0.104155
0.104968
0.106005
0.106948
0.108096
0.109211
0.110508
0.111815
0.113386
0.11483
0.116887
0.118408
0.121157
0.122836
0.126378
0.128488
0.13297
0.135767
0.141695
0.145475
0.153726
0.159615
0.171767
0.18281
0.201591
0.223479
0.252685
0.291772
0.339437
0.401666
0.478029
0.570747
0.679567
0.791236
0.889423
0.957699
0.993056
1.00844
1.01844
0.109917
0.110493
0.110708
0.110837
0.110674
0.110417
0.111334
0.111577
0.111881
0.110696
0.111485
0.110662
0.110285
0.110395
0.110709
0.111156
0.111636
0.112199
0.112745
0.113385
0.113979
0.114691
0.115337
0.116123
0.116829
0.117694
0.118472
0.119426
0.120295
0.121345
0.122338
0.123487
0.124654
0.125906
0.127295
0.128692
0.13033
0.131979
0.133891
0.135891
0.13819
0.140581
0.143481
0.146336
0.150182
0.15368
0.15919
0.163665
0.172227
0.178874
0.192649
0.205139
0.228199
0.251595
0.290009
0.329703
0.390578
0.454217
0.542981
0.635015
0.746505
0.861955
0.967735
1.05168
1.10082
1.1286
1.13688
1.15318
1.15762
0.132527
0.133768
0.13401
0.134287
0.132596
0.13338
0.132247
0.131554
0.131598
0.131835
0.132317
0.132837
0.133397
0.134055
0.134677
0.135414
0.136061
0.136881
0.137549
0.138461
0.139149
0.140155
0.140871
0.141969
0.142727
0.14392
0.14473
0.146038
0.146911
0.148353
0.149321
0.150896
0.152042
0.15372
0.155152
0.156967
0.158725
0.160857
0.162879
0.165612
0.16798
0.171585
0.174677
0.179642
0.184221
0.191581
0.199336
0.210971
0.225281
0.245034
0.271856
0.306115
0.351508
0.406317
0.476336
0.557503
0.65428
0.76221
0.8758
0.993793
1.1041
1.19468
1.25347
1.29233
1.30571
1.33889
1.34786
1.36932
1.37608
0.163386
0.16342
0.164741
0.164992
0.165408
0.165125
0.164657
0.165962
0.166276
0.166641
0.164762
0.165863
0.164624
0.164151
0.16428
0.164927
0.165543
0.166517
0.167263
0.168399
0.169222
0.170466
0.171389
0.172707
0.173767
0.175156
0.176365
0.177882
0.179207
0.180962
0.182377
0.184457
0.186043
0.188449
0.190405
0.193139
0.195672
0.198989
0.202312
0.206839
0.211557
0.218225
0.225809
0.236436
0.249388
0.267153
0.289762
0.319593
0.359472
0.409164
0.474208
0.548425
0.64067
0.74249
0.857772
0.98036
1.10334
1.22373
1.33644
1.42595
1.49602
1.53635
1.57153
1.59662
1.66286
1.69032
1.68251
1.79197
1.78903
0.209495
0.20895
0.206982
0.208933
0.207689
0.207048
0.206892
0.207223
0.207585
0.208221
0.208839
0.209671
0.210535
0.211601
0.212669
0.213981
0.215207
0.216716
0.218077
0.219746
0.221272
0.223057
0.224819
0.226679
0.22875
0.230691
0.233106
0.235239
0.237972
0.240492
0.243482
0.246598
0.249914
0.253812
0.257768
0.262964
0.268801
0.276658
0.28649
0.299498
0.315981
0.337098
0.364339
0.397955
0.44138
0.493612
0.560287
0.638685
0.734616
0.842524
0.964323
1.09434
1.23202
1.36929
1.50221
1.62846
1.73701
1.83315
1.90866
1.9696
2.0131
2.06163
2.15628
2.21266
2.20861
2.20226
2.25664
2.20121
2.08825
0.313689
0.314929
0.316121
0.317515
0.319151
0.320906
0.322964
0.32518
0.32768
0.330294
0.333121
0.336092
0.339224
0.342502
0.345942
0.34958
0.353366
0.357386
0.361539
0.365997
0.370582
0.375528
0.38065
0.386147
0.391921
0.398057
0.404676
0.411728
0.419404
0.427526
0.436871
0.447284
0.458806
0.473752
0.492733
0.516805
0.545998
0.583149
0.628342
0.683343
0.747213
0.822302
0.907236
1.00456
1.1134
1.23677
1.37252
1.51967
1.67471
1.8326
1.98987
2.13773
2.28199
2.40479
2.52547
2.62522
2.70498
2.7716
2.84783
2.95969
2.94534
2.89705
2.83767
2.72638
2.60377
2.46709
2.325
2.19426
1.84132
1.13011
1.14194
1.15432
1.16721
1.18059
1.1944
1.20868
1.22331
1.23839
1.25372
1.26945
1.28536
1.30166
1.31816
1.33502
1.3522
1.36966
1.38746
1.40548
1.42403
1.44278
1.46214
1.48188
1.50204
1.52339
1.54437
1.5676
1.59161
1.61435
1.6452
1.68682
1.73966
1.80491
1.88147
1.9706
2.06778
2.1723
2.28147
2.3962
2.51565
2.64016
2.76926
2.90373
3.04543
3.19841
3.35908
3.51991
3.67684
3.82691
3.96521
4.09125
4.19598
4.29183
4.34818
4.41518
4.49394
4.50115
4.44091
4.31105
4.12893
3.90065
3.58365
3.10365
2.52361
1.9541
1.52777
1.30743
1.15691
1.03735
8.32053
8.31752
8.31399
8.30989
8.30524
8.29996
8.29406
8.28748
8.28022
8.27221
8.2635
8.25397
8.24369
8.23257
8.22063
8.2079
8.19422
8.17982
8.16428
8.14819
8.13077
8.11285
8.09372
8.07362
8.05314
8.03045
8.00883
7.98352
7.96093
7.93348
7.90613
7.87364
7.85216
7.81767
7.79757
7.76341
7.71508
7.66201
7.60774
7.55154
7.49295
7.43161
7.3673
7.29975
7.22877
7.15429
7.07644
6.99515
6.91076
6.82358
6.73459
6.644
6.55416
6.46355
6.37523
6.29866
6.24189
6.20355
6.17287
6.14468
6.11719
6.08987
6.06328
6.03719
6.01228
5.98893
5.96735
5.94734
5.92817
0.0290837
0.0290841
0.0290617
0.0290257
0.0289859
0.028923
0.0288693
0.0288416
0.028856
0.0288512
0.0288487
0.0288308
0.0288207
0.0288081
0.0287273
0.0286903
0.0286965
0.0286869
0.0286538
0.0285847
0.028648
0.0286849
0.0286293
0.028592
0.0285448
0.0284756
0.028496
0.0285108
0.0285415
0.0284899
0.028483
0.0284747
0.028496
0.0284389
0.0284165
0.0283877
0.0283877
0.0283584
0.0283104
0.0282967
0.0282656
0.0282767
0.0282585
0.0282181
0.0282173
0.0281764
0.0281357
0.0281175
0.0280936
0.0280304
0.02795
0.0279367
0.0279415
0.0279633
0.0280143
0.0280608
0.0280516
0.0280215
0.0279702
0.0293542
0.0293332
0.029301
0.0292709
0.0292361
0.0292007
0.0291809
0.029168
0.0291568
0.0291564
0.0291561
0.029125
0.029085
0.0290187
0.0289606
0.0289527
0.0289673
0.0289622
0.0288857
0.0288661
0.0289267
0.0289338
0.0288567
0.0288267
0.028756
0.0287061
0.0287295
0.0287511
0.0287679
0.0287105
0.0287095
0.0287024
0.028715
0.0286675
0.0286431
0.0286135
0.0286059
0.0285883
0.0285512
0.0285138
0.0284889
0.028496
0.0284894
0.0284667
0.0284414
0.028422
0.0283851
0.0283703
0.0283572
0.0283251
0.0282544
0.028184
0.0281566
0.0281565
0.0281675
0.028199
0.0282443
0.0282688
0.0283012
0.0296446
0.0296187
0.0295879
0.0295625
0.0295324
0.0295171
0.0295224
0.0295276
0.029528
0.0295363
0.0294976
0.0294449
0.0293775
0.0293122
0.0292865
0.0292851
0.0292863
0.0292244
0.0291775
0.0292155
0.0292442
0.0292336
0.0291421
0.0291103
0.0290224
0.0289925
0.0290125
0.0290358
0.029039
0.0289822
0.0289856
0.0289785
0.0289864
0.0289498
0.0289236
0.0288939
0.0288794
0.0288637
0.028836
0.0287982
0.0287503
0.0287493
0.02876
0.028752
0.0287315
0.0287117
0.0286751
0.0286631
0.0286772
0.0286636
0.0286274
0.0285612
0.0285067
0.0284489
0.0284396
0.028445
0.0284596
0.0284828
0.0285293
0.0300359
0.0300138
0.0299984
0.0300083
0.0300011
0.0300218
0.0300095
0.0299973
0.0299569
0.0299088
0.0298404
0.0297747
0.0297091
0.0296708
0.0296574
0.0296655
0.0296304
0.0295833
0.0295973
0.0296211
0.0296332
0.0295878
0.0294778
0.0294367
0.0293463
0.029333
0.0293571
0.0293838
0.0293728
0.0293137
0.029318
0.0293078
0.0293085
0.0292791
0.0292503
0.0292209
0.0292017
0.0291899
0.0291704
0.0291413
0.0290836
0.0290662
0.0290656
0.0290889
0.0290752
0.0290597
0.0290299
0.0289988
0.0289978
0.0290172
0.0290187
0.0289858
0.0289299
0.0288755
0.0288176
0.0288116
0.0288143
0.0288183
0.0288175
0.0305363
0.0305471
0.0305248
0.0305299
0.0305343
0.0305039
0.0304672
0.0304222
0.0303682
0.0303143
0.0302615
0.0302224
0.0301976
0.0301945
0.0301842
0.0301478
0.0300752
0.0300507
0.0300577
0.0300677
0.0300551
0.0299697
0.0298696
0.0298253
0.029747
0.0297467
0.0297614
0.0297819
0.0297628
0.0297031
0.0297086
0.0296982
0.0296986
0.0296772
0.0296511
0.0296226
0.029598
0.029582
0.0295672
0.0295463
0.0295028
0.0294488
0.0294406
0.02945
0.02949
0.0294819
0.0294522
0.0294386
0.0294426
0.0294474
0.0294339
0.0294622
0.0294451
0.0293976
0.029344
0.0292867
0.0292915
0.0292921
0.0292945
0.0311839
0.0311898
0.0311977
0.0311598
0.0311244
0.0310798
0.0310278
0.0309752
0.0309223
0.0308756
0.0308361
0.0308077
0.0307847
0.0307546
0.0306992
0.0306272
0.030577
0.0305797
0.0305924
0.030605
0.0305734
0.0304515
0.0303554
0.030292
0.0302216
0.030232
0.0302482
0.0302732
0.0302374
0.0301791
0.0301817
0.0301666
0.0301603
0.0301406
0.0301165
0.0300892
0.0300662
0.0300512
0.0300398
0.0300266
0.0299981
0.029944
0.0299026
0.0298985
0.0299141
0.0299725
0.0299778
0.0299429
0.0299415
0.0299553
0.0299534
0.0299445
0.0299539
0.0299828
0.0299636
0.0299057
0.0298421
0.0298387
0.0298419
0.0319186
0.0318823
0.0318339
0.0317873
0.0317324
0.031682
0.0316273
0.0315809
0.0315388
0.0315082
0.0314851
0.0314627
0.0314317
0.0313869
0.0313302
0.0312762
0.0312619
0.0312538
0.0312617
0.0312199
0.0311113
0.0309827
0.0308992
0.0308375
0.030797
0.0308092
0.0308224
0.03083
0.0307895
0.0307297
0.0307327
0.0307192
0.0307156
0.0307024
0.0306828
0.0306592
0.0306369
0.03062
0.0306082
0.0305984
0.0305826
0.0305455
0.0304862
0.0304603
0.0304546
0.030478
0.0305119
0.0305774
0.0305833
0.0305531
0.0305761
0.030579
0.0305892
0.0305977
0.0305844
0.0305935
0.0305595
0.030555
0.0305384
0.0327492
0.0327021
0.0326479
0.0326067
0.0325575
0.0325213
0.0324816
0.0324537
0.0324249
0.0323989
0.0323593
0.0323017
0.0322349
0.0321615
0.0320915
0.0320531
0.0320357
0.0320191
0.0319938
0.0319074
0.0317849
0.0316739
0.0315959
0.0315337
0.0314857
0.0315015
0.0315095
0.031527
0.0314656
0.0314105
0.0314086
0.0313891
0.0313772
0.0313621
0.0313445
0.0313251
0.0313071
0.0312935
0.0312857
0.031284
0.0312713
0.0312519
0.0312152
0.0311576
0.0311698
0.0311513
0.0311523
0.0311842
0.0312486
0.0313153
0.0313272
0.031295
0.0313144
0.0313336
0.031336
0.0314093
0.0314268
0.031431
0.0314513
0.0338071
0.0337582
0.0337029
0.0336589
0.0336035
0.0335554
0.0334971
0.03344
0.0333714
0.0332955
0.0332088
0.0331275
0.0330594
0.0330029
0.0329745
0.0329604
0.0329634
0.0329694
0.0328588
0.032723
0.0325723
0.0324563
0.0323808
0.0323142
0.0323049
0.0323144
0.0323295
0.0323165
0.032251
0.0321935
0.0321913
0.0321765
0.0321706
0.0321624
0.0321502
0.0321347
0.0321197
0.0321074
0.0320967
0.0320821
0.0321085
0.032097
0.0320639
0.032004
0.0319827
0.0320139
0.0320196
0.0320087
0.0320335
0.0320719
0.0320932
0.0321005
0.0321117
0.0321301
0.0321406
0.0321624
0.0321746
0.0321966
0.0322087
0.0349964
0.0349359
0.0348645
0.0348021
0.0347276
0.0346601
0.0345845
0.0345147
0.0344406
0.034374
0.0343161
0.0342682
0.0342299
0.0341957
0.0341584
0.0341002
0.0340298
0.0339161
0.033767
0.0336327
0.0335138
0.0334383
0.0333684
0.0333255
0.033305
0.033313
0.0333057
0.0332983
0.0332167
0.033167
0.0331594
0.0331371
0.0331211
0.0331085
0.0330979
0.0330874
0.0330773
0.0330724
0.0330805
0.0330727
0.0330452
0.03307
0.033114
0.0330942
0.0330639
0.033034
0.0330338
0.0329994
0.0329946
0.0330062
0.0330324
0.0330572
0.0330787
0.0330902
0.0331062
0.0331129
0.0331339
0.0331393
0.0331607
0.0364295
0.0363564
0.036276
0.0362101
0.0361307
0.0360615
0.0359811
0.0359076
0.0358259
0.0357528
0.0356738
0.0356021
0.0355322
0.0354627
0.0353918
0.0353146
0.0352292
0.0351113
0.0349852
0.0348544
0.0347256
0.0346148
0.0345352
0.0344773
0.0344825
0.0344822
0.0344801
0.0344321
0.0343465
0.0342913
0.0342837
0.0342699
0.0342638
0.0342596
0.0342548
0.0342489
0.0342484
0.0342436
0.0342127
0.0342417
0.0342781
0.0342531
0.0342172
0.0342395
0.034286
0.0343543
0.0343562
0.0343482
0.0342802
0.034306
0.034307
0.0342764
0.0342926
0.0343137
0.0343447
0.0343583
0.0343882
0.0343966
0.0344216
0.0381287
0.0380444
0.0379463
0.0378587
0.0377537
0.0376576
0.0375511
0.0374547
0.0373596
0.03728
0.0372079
0.0371494
0.037091
0.0370269
0.0369473
0.0368373
0.0366957
0.0365214
0.0363442
0.0361802
0.0360562
0.0359875
0.0359309
0.0359201
0.0359053
0.0359112
0.0358674
0.0358251
0.0357347
0.0356915
0.0356794
0.0356563
0.0356391
0.0356288
0.0356264
0.0356286
0.0356141
0.035629
0.0356564
0.0356149
0.0356178
0.0356928
0.0357561
0.035696
0.0356549
0.0356607
0.0357471
0.0357687
0.0359016
0.0359177
0.0359407
0.0358488
0.0358021
0.0357819
0.0358016
0.0358136
0.0358496
0.035862
0.0358936
0.0401
0.0399967
0.0398856
0.0397941
0.0396918
0.0396092
0.0395215
0.0394521
0.0393802
0.0393149
0.0392342
0.0391426
0.0390251
0.0388897
0.0387302
0.0385584
0.0383757
0.0381992
0.038059
0.0379463
0.0378574
0.0377668
0.0377066
0.0376556
0.0376441
0.0376105
0.0375551
0.0374804
0.0373843
0.0373304
0.0373182
0.0373093
0.0373062
0.037308
0.0373094
0.0373086
0.0373381
0.0373004
0.0372998
0.0373796
0.0373769
0.0373251
0.0373489
0.0374498
0.0375595
0.037572
0.0374799
0.0374242
0.0374771
0.0375016
0.0375329
0.0375361
0.0375529
0.0375677
0.0376086
0.0376339
0.0376851
0.0377076
0.0377507
0.0425719
0.0424736
0.0423721
0.0422862
0.0421837
0.0420864
0.041974
0.041857
0.0417278
0.0415835
0.0414345
0.0412733
0.0411143
0.040949
0.0407867
0.0406163
0.0404444
0.0402838
0.0401307
0.0399792
0.039848
0.0397756
0.0397173
0.0397008
0.0396722
0.0396376
0.0395597
0.0394941
0.0394045
0.0393679
0.0393528
0.0393336
0.039321
0.0393114
0.0393261
0.0393166
0.0393129
0.0394091
0.0393955
0.0393732
0.0394365
0.0395479
0.0395595
0.0394948
0.0394945
0.0395586
0.0397773
0.0397396
0.0396787
0.0396378
0.0396317
0.0396319
0.0396569
0.0396751
0.039721
0.0397467
0.0398045
0.0398291
0.0398796
0.045642
0.0455172
0.0453794
0.0452597
0.0451129
0.0449822
0.0448295
0.0446915
0.0445359
0.0443891
0.0442267
0.0440611
0.0438834
0.0436919
0.0434924
0.0432789
0.043071
0.0428682
0.042712
0.0425826
0.0425078
0.0424319
0.0423664
0.042306
0.0422494
0.0421595
0.0420499
0.0419506
0.0418514
0.041798
0.0417846
0.0417864
0.0417879
0.0418139
0.0417988
0.0418218
0.0418639
0.0418056
0.0419548
0.0419523
0.041969
0.0419184
0.0419911
0.0422016
0.0422379
0.0422312
0.0421644
0.0421489
0.0421875
0.0422189
0.042248
0.0422648
0.042304
0.0423294
0.0423852
0.0424135
0.0424788
0.0425035
0.0425591
0.0492418
0.0490847
0.0489204
0.0487724
0.0486071
0.0484496
0.0482735
0.0480959
0.0478986
0.0476884
0.0474603
0.0472244
0.0469815
0.0467348
0.0465006
0.0462798
0.0460763
0.0459286
0.0457948
0.045656
0.045533
0.0454206
0.0453338
0.0452744
0.0451878
0.045094
0.0449935
0.0449255
0.04485
0.0448182
0.0448038
0.0447982
0.0447902
0.0447719
0.0448373
0.0448113
0.044851
0.0449919
0.0449425
0.0450688
0.0450641
0.0451779
0.0451124
0.0451241
0.045258
0.0454081
0.0456067
0.0456275
0.0454521
0.0453582
0.0453882
0.0454235
0.0454777
0.0455014
0.0455545
0.0455686
0.0456291
0.0456402
0.0456923
0.0538329
0.0536649
0.0534654
0.0532847
0.0530636
0.0528504
0.0526089
0.0523682
0.0521068
0.0518485
0.0515885
0.0513342
0.051087
0.0508435
0.0506341
0.0504052
0.050223
0.0500239
0.0498206
0.0496487
0.0495201
0.0494037
0.0493135
0.0491912
0.0490618
0.0489239
0.04877
0.0486515
0.0485498
0.048497
0.048489
0.0485082
0.0485387
0.0485801
0.0485457
0.0486339
0.0486141
0.0485737
0.0487944
0.0487487
0.048958
0.0488853
0.0491089
0.0491522
0.0490561
0.0490736
0.0492521
0.0494707
0.0497595
0.0495844
0.0494162
0.0493762
0.0493997
0.0494175
0.0494944
0.0495338
0.0495968
0.0495985
0.0496553
0.0592156
0.0589763
0.0587098
0.0584679
0.0581854
0.0579185
0.057628
0.0573485
0.0570598
0.0567858
0.0564974
0.056222
0.0559281
0.0556647
0.0553798
0.0551195
0.0548718
0.0546181
0.0544323
0.0542538
0.0541034
0.0539505
0.0537871
0.05363