/*--------------------------------*- C++ -*----------------------------------*\
| =========                 |                                                 |
| \\      /  F ield         | OpenFOAM: The Open Source CFD Toolbox           |
|  \\    /   O peration     | Version:  2312                                  |
|   \\  /    A nd           | Website:  www.openfoam.com                      |
|    \\/     M anipulation  |                                                 |
\*---------------------------------------------------------------------------*/
FoamFile
{
    version     2.0;
    format      ascii;
    arch        "LSB;label=32;scalar=64";
    class       volScalarField;
    location    "2000";
    object      p;
}
// * * * * * * * * * * * * * * * * * * * * * * * * * * * * * * * * * * * * * //

dimensions      [0 2 -2 0 0 0 0];

internalField   nonuniform List<scalar> 
76025
(
0.000195203
0.000184654
0.000174032
0.000163344
0.000152802
0.000142107
0.000131051
0.000120227
0.000109078
9.81338e-05
8.72487e-05
7.62935e-05
6.52361e-05
5.42505e-05
4.31852e-05
3.21995e-05
2.14288e-05
1.04815e-05
-3.61584e-07
-1.10348e-05
-2.15504e-05
-3.22125e-05
-4.25244e-05
-5.25239e-05
-6.24423e-05
-7.21178e-05
-8.18338e-05
-9.12879e-05
-0.000100184
-0.000109304
-0.000117861
-0.000125826
-0.00013366
-0.000141171
-0.000148313
-0.000155018
-0.000161094
-0.000167342
-0.00017279
-0.000177691
-0.000181924
-0.000185726
-0.00018957
-0.000192395
-0.000194714
-0.000196382
-0.000197811
-0.000198405
-0.000198103
-0.00019746
-0.000196372
-0.000194493
-0.000191991
-0.000188869
-0.000185025
-0.000179877
-0.00017498
-0.000168781
-0.000162135
-0.000155115
-0.000147577
-0.000138648
-0.000129018
-0.00011951
-0.000109244
-9.7296e-05
-8.62058e-05
-7.51533e-05
-6.0922e-05
0.000192338
0.000181362
0.000170363
0.000159203
0.000147945
0.000136582
0.000125177
0.000113723
0.000102194
9.0671e-05
7.91487e-05
6.76073e-05
5.60389e-05
4.44681e-05
3.29661e-05
2.1533e-05
1.01003e-05
-1.2524e-06
-1.26018e-05
-2.37894e-05
-3.49166e-05
-4.5871e-05
-5.66226e-05
-6.71396e-05
-7.75214e-05
-8.77612e-05
-9.77993e-05
-0.000107489
-0.000116894
-0.000126043
-0.000134862
-0.000143463
-0.000151725
-0.000159548
-0.000167047
-0.000174092
-0.000180728
-0.000186953
-0.000192644
-0.000197893
-0.000202566
-0.000206777
-0.00021052
-0.000213587
-0.000216145
-0.000218135
-0.000219608
-0.000220369
-0.000220492
-0.00022014
-0.000219248
-0.000217657
-0.000215407
-0.000212505
-0.000208869
-0.000204439
-0.00019957
-0.000193918
-0.00018763
-0.00018078
-0.000173422
-0.000165137
-0.000156046
-0.000146615
-0.000136581
-0.000125705
-0.000114693
-0.000103592
-9.06966e-05
0.000188616
0.000177164
0.000165652
0.000153928
0.000142055
0.000130127
0.000118155
0.000106127
9.4055e-05
8.19466e-05
6.98243e-05
5.76974e-05
4.55645e-05
3.3449e-05
2.13866e-05
9.35923e-06
-2.61311e-06
-1.452e-05
-2.63447e-05
-3.80665e-05
-4.96501e-05
-6.10662e-05
-7.23112e-05
-8.3369e-05
-9.42421e-05
-0.000104916
-0.000115325
-0.000125451
-0.000135297
-0.00014484
-0.00015411
-0.000163078
-0.00017166
-0.000179838
-0.000187616
-0.000194967
-0.000201875
-0.000208329
-0.000214323
-0.000219824
-0.00022478
-0.000229203
-0.000233111
-0.000236481
-0.000239302
-0.000241556
-0.000243242
-0.000244327
-0.000244804
-0.000244706
-0.000244025
-0.000242704
-0.000240732
-0.000238105
-0.000234796
-0.000230785
-0.000226166
-0.000220893
-0.000214975
-0.00020846
-0.000201338
-0.000193488
-0.00018495
-0.000175892
-0.00016628
-0.000156067
-0.000145398
-0.000134641
-0.000122476
0.000184619
0.000172615
0.000160528
0.000148215
0.000135749
0.000123209
0.000110625
9.80013e-05
8.5341e-05
7.26473e-05
5.99327e-05
4.72113e-05
3.4496e-05
2.18029e-05
9.15007e-06
-3.45235e-06
-1.59888e-05
-2.84462e-05
-4.08053e-05
-5.30457e-05
-6.51432e-05
-7.70825e-05
-8.88473e-05
-0.000100415
-0.000111765
-0.000122883
-0.000133747
-0.000144335
-0.000154628
-0.000164611
-0.000174274
-0.000183589
-0.000192524
-0.000201055
-0.000209167
-0.000216848
-0.000224082
-0.000230855
-0.000237146
-0.000242923
-0.000248166
-0.000252875
-0.000257062
-0.000260714
-0.00026381
-0.000266344
-0.000268308
-0.000269685
-0.000270459
-0.000270637
-0.000270222
-0.000269188
-0.000267514
-0.00026519
-0.000262206
-0.000258559
-0.000254281
-0.000249374
-0.000243836
-0.000237683
-0.000230917
-0.000223506
-0.000215462
-0.000206859
-0.000197713
-0.000188055
-0.000177907
-0.0001677
-0.000156287
0.00018037
0.000167764
0.000155076
0.000142153
0.000129069
0.000115902
0.000102689
8.94389e-05
7.61508e-05
6.28296e-05
4.94885e-05
3.61445e-05
2.28142e-05
9.51193e-06
-3.74769e-06
-1.69496e-05
-3.00797e-05
-4.31211e-05
-5.60557e-05
-6.88631e-05
-8.15237e-05
-9.40174e-05
-0.000106323
-0.00011842
-0.000130288
-0.00014191
-0.000153268
-0.000164338
-0.0001751
-0.000185537
-0.000195629
-0.000205357
-0.000214697
-0.000223626
-0.000232127
-0.000240186
-0.000247785
-0.000254902
-0.000261518
-0.000267612
-0.000273171
-0.000278191
-0.000282674
-0.000286614
-0.000289998
-0.000292818
-0.000295066
-0.000296728
-0.000297794
-0.000298263
-0.000298132
-0.00029739
-0.000296019
-0.000294011
-0.000291363
-0.000288076
-0.000284162
-0.000279629
-0.00027448
-0.000268723
-0.000262364
-0.0002554
-0.000247844
-0.000239743
-0.000231119
-0.000222025
-0.000212463
-0.000202885
-0.000192299
0.000175693
0.000162443
0.00014911
0.000135532
0.000121786
0.000107957
9.40808e-05
8.0167e-05
6.62137e-05
5.22266e-05
3.82209e-05
2.42156e-05
1.02285e-05
-3.72521e-06
-1.76308e-05
-3.14726e-05
-4.52344e-05
-5.8898e-05
-7.24447e-05
-8.58548e-05
-9.91078e-05
-0.000112183
-0.000125059
-0.000137716
-0.000150133
-0.000162291
-0.000174169
-0.000185746
-0.000197001
-0.000207914
-0.000218466
-0.000228636
-0.000238404
-0.000247747
-0.000256649
-0.000265092
-0.000273057
-0.000280524
-0.000287476
-0.000293898
-0.000299778
-0.000305108
-0.000309893
-0.000314128
-0.000317806
-0.000320918
-0.000323457
-0.000325414
-0.000326781
-0.000327552
-0.000327724
-0.000327289
-0.000326239
-0.000324567
-0.000322272
-0.000319356
-0.000315825
-0.000311688
-0.000306952
-0.000301623
-0.000295712
-0.000289225
-0.000282179
-0.000274611
-0.000266543
-0.000258042
-0.000249084
-0.000240113
-0.000230265
0.000170469
0.000156538
0.000142517
0.000128237
0.000113782
9.92423e-05
8.46586e-05
7.00393e-05
5.53826e-05
4.06932e-05
2.59865e-05
1.12822e-05
-3.40035e-06
-1.8044e-05
-3.26328e-05
-4.71498e-05
-6.15772e-05
-7.58961e-05
-9.0087e-05
-0.00010413
-0.000118004
-0.000131688
-0.000145161
-0.000158403
-0.000171392
-0.000184107
-0.000196526
-0.000208629
-0.000220394
-0.000231801
-0.000242829
-0.000253458
-0.000263668
-0.000273438
-0.000282751
-0.00029159
-0.000299935
-0.000307768
-0.000315074
-0.000321839
-0.000328052
-0.000333707
-0.000338808
-0.000343354
-0.00034734
-0.000350758
-0.000353603
-0.000355867
-0.000357546
-0.000358633
-0.000359124
-0.000359015
-0.000358303
-0.000356984
-0.000355058
-0.000352529
-0.000349403
-0.000345687
-0.000341391
-0.000336523
-0.000331094
-0.000325119
-0.000318615
-0.000311613
-0.000304138
-0.000296265
-0.000287918
-0.000279552
-0.000270168
0.000164633
0.000149986
0.000135239
0.000120217
0.00010501
8.97163e-05
7.43801e-05
5.90114e-05
4.36081e-05
2.81747e-05
1.27263e-05
-2.71612e-06
-1.81321e-05
-3.35032e-05
-4.88118e-05
-6.40403e-05
-7.91696e-05
-9.41801e-05
-0.000109051
-0.000123762
-0.000138291
-0.000152617
-0.000166718
-0.000180573
-0.00019416
-0.000207457
-0.000220441
-0.000233093
-0.00024539
-0.00025731
-0.000268835
-0.000279942
-0.000290613
-0.000300828
-0.00031057
-0.00031982
-0.000328561
-0.000336775
-0.000344448
-0.000351568
-0.000358126
-0.000364117
-0.000369546
-0.000374415
-0.000378718
-0.000382453
-0.000385613
-0.000388194
-0.000390194
-0.000391609
-0.000392434
-0.000392669
-0.000392311
-0.000391363
-0.000389826
-0.000387705
-0.000385007
-0.00038174
-0.000377914
-0.000373541
-0.000368634
-0.000363209
-0.000357285
-0.000350893
-0.00034406
-0.000336862
-0.00032919
-0.000321511
-0.000312623
0.000158108
0.000142703
0.00012719
0.000111385
9.53855e-05
7.92947e-05
6.31617e-05
4.69977e-05
3.08014e-05
1.45775e-05
-1.65794e-06
-1.7883e-05
-3.40757e-05
-5.02164e-05
-6.62868e-05
-8.2268e-05
-9.81404e-05
-0.000113883
-0.000129474
-0.000144891
-0.000160112
-0.000175116
-0.000189879
-0.000204379
-0.000218593
-0.0002325
-0.000246078
-0.000259303
-0.000272154
-0.000284611
-0.000296652
-0.000308257
-0.000319406
-0.000330081
-0.000340264
-0.000349939
-0.000359087
-0.000367693
-0.000375743
-0.000383229
-0.00039014
-0.000396476
-0.000402242
-0.000407441
-0.000412071
-0.000416129
-0.000419614
-0.000422523
-0.000424855
-0.000426609
-0.000427783
-0.000428377
-0.000428393
-0.000427835
-0.000426707
-0.000425017
-0.000422773
-0.000419984
-0.000416661
-0.000412819
-0.000408472
-0.000403637
-0.000398337
-0.000392604
-0.000386469
-0.000379994
-0.000373103
-0.000366274
-0.000358623
0.000150793
0.00013458
0.000118254
0.00010162
8.47815e-05
6.7848e-05
5.08718e-05
3.38656e-05
1.68285e-05
-2.34073e-07
-1.7305e-05
-3.43606e-05
-5.13775e-05
-6.83346e-05
-8.52123e-05
-0.000101991
-0.00011865
-0.000135166
-0.000151518
-0.000167681
-0.000183633
-0.000199351
-0.00021481
-0.000229989
-0.000244863
-0.00025941
-0.000273607
-0.000287432
-0.000300862
-0.000313876
-0.000326453
-0.000338573
-0.000350217
-0.000361366
-0.000372005
-0.000382116
-0.000391681
-0.000400687
-0.000409124
-0.000416982
-0.000424255
-0.000430941
-0.00043705
-0.000442585
-0.000447547
-0.000451937
-0.000455754
-0.000458999
-0.000461673
-0.000463776
-0.00046531
-0.000466279
-0.000466686
-0.000466538
-0.000465841
-0.000464606
-0.000462841
-0.00046056
-0.000457774
-0.0004545
-0.000450754
-0.000446555
-0.000441928
-0.000436907
-0.000431512
-0.000425796
-0.000419701
-0.000413826
-0.000407277
0.000142572
0.000125499
0.000108307
9.07916e-05
7.30626e-05
5.52352e-05
3.73656e-05
1.94674e-05
1.5399e-06
-1.64111e-05
-3.43675e-05
-5.23038e-05
-7.01946e-05
-8.80172e-05
-0.000105751
-0.000123374
-0.000140865
-0.0001582
-0.000175355
-0.000192307
-0.000209029
-0.0002255
-0.000241693
-0.000257585
-0.000273152
-0.00028837
-0.000303216
-0.000317667
-0.0003317
-0.000345294
-0.000358428
-0.000371082
-0.000383236
-0.000394875
-0.00040598
-0.000416537
-0.000426528
-0.000435942
-0.00044477
-0.000453006
-0.000460643
-0.000467684
-0.000474138
-0.000480013
-0.000485312
-0.000490037
-0.000494192
-0.000497779
-0.000500801
-0.000503262
-0.000505168
-0.000506525
-0.000507339
-0.000507618
-0.000507374
-0.000506617
-0.00050536
-0.000503618
-0.000501404
-0.000498737
-0.000495636
-0.000492124
-0.000488228
-0.000483977
-0.000479371
-0.00047445
-0.000469154
-0.000464088
-0.000458034
0.000133316
0.000115326
9.72122e-05
7.87589e-05
6.00823e-05
4.13049e-05
2.24865e-05
3.64199e-06
-1.52294e-05
-3.41219e-05
-5.30163e-05
-7.18856e-05
-9.07025e-05
-0.000109442
-0.000128082
-0.0001466
-0.000164972
-0.000183174
-0.00020118
-0.000218964
-0.000236501
-0.000253765
-0.000270731
-0.000287373
-0.000303668
-0.00031959
-0.000335115
-0.000350219
-0.000364881
-0.000379078
-0.000392788
-0.000405993
-0.000418673
-0.000430813
-0.000442396
-0.000453405
-0.000463829
-0.000473656
-0.000482879
-0.000491494
-0.000499496
-0.000506892
-0.000513693
-0.000519908
-0.000525543
-0.000530604
-0.000535098
-0.000539029
-0.000542404
-0.000545231
-0.000547517
-0.000549272
-0.000550506
-0.000551232
-0.000551461
-0.000551207
-0.000550486
-0.000549314
-0.000547709
-0.00054569
-0.000543282
-0.000540512
-0.000537406
-0.000533984
-0.000530247
-0.000526241
-0.000521925
-0.000517646
-0.000511047
0.000122868
0.000103902
8.48076e-05
6.53558e-05
4.56705e-05
2.58821e-05
6.05467e-06
-1.37955e-05
-3.36692e-05
-5.35606e-05
-7.34498e-05
-9.33082e-05
-0.000113106
-0.000132818
-0.000152418
-0.000171884
-0.000191189
-0.000210308
-0.000229213
-0.000247877
-0.000266273
-0.000284375
-0.000302155
-0.000319587
-0.000336645
-0.000353304
-0.000369539
-0.000385326
-0.000400641
-0.000415463
-0.00042977
-0.000443541
-0.000456762
-0.000469414
-0.000481482
-0.000492951
-0.00050381
-0.000514051
-0.000523669
-0.000532661
-0.000541025
-0.000548771
-0.000555914
-0.000562464
-0.000568431
-0.000573825
-0.000578654
-0.000582928
-0.000586657
-0.000589851
-0.000592524
-0.000594686
-0.000596354
-0.000597541
-0.000598263
-0.000598537
-0.00059838
-0.000597812
-0.000596854
-0.000595529
-0.000593866
-0.000591891
-0.000589623
-0.000587093
-0.000584329
-0.00058142
-0.000578328
-0.000575271
-0.000571452
0.000111045
9.10408e-05
7.09016e-05
5.03868e-05
2.96275e-05
8.76275e-06
-1.21385e-05
-3.30584e-05
-5.39976e-05
-7.49503e-05
-9.58957e-05
-0.000116804
-0.000137642
-0.000158384
-0.000179002
-0.00019947
-0.000219763
-0.000239851
-0.000259707
-0.000279301
-0.000298604
-0.000317588
-0.000336225
-0.000354487
-0.000372347
-0.000389778
-0.000406754
-0.000423251
-0.000439245
-0.000454713
-0.000469634
-0.000483989
-0.000497761
-0.000510933
-0.000523491
-0.000535422
-0.000546716
-0.000557368
-0.000567375
-0.000576737
-0.000585455
-0.000593543
-0.000601017
-0.000607892
-0.000614181
-0.000619898
-0.000625054
-0.000629665
-0.000633743
-0.000637305
-0.000640366
-0.000642942
-0.000645053
-0.000646716
-0.00064795
-0.000648775
-0.000649212
-0.000649283
-0.000649013
-0.00064843
-0.00064756
-0.000646423
-0.00064505
-0.000643509
-0.000641837
-0.000640124
-0.000638184
-0.000636618
-0.000634095
9.76327e-05
7.65215e-05
5.52695e-05
3.36222e-05
1.17187e-05
-1.02927e-05
-3.23376e-05
-5.43964e-05
-7.64695e-05
-9.8551e-05
-0.000120619
-0.000142642
-0.000164586
-0.00018642
-0.000208116
-0.000229648
-0.000250986
-0.0002721
-0.000292961
-0.000313537
-0.000333797
-0.000353711
-0.000373249
-0.000392383
-0.000411082
-0.000429321
-0.000447071
-0.000464307
-0.000481004
-0.00049714
-0.000512692
-0.000527643
-0.000541975
-0.000555673
-0.000568722
-0.000581111
-0.000592835
-0.000603889
-0.000614274
-0.000623991
-0.000633046
-0.000641458
-0.000649246
-0.000656428
-0.000663021
-0.000669043
-0.000674511
-0.000679444
-0.000683862
-0.000687784
-0.00069123
-0.000694223
-0.000696784
-0.000698934
-0.000700698
-0.000702098
-0.000703158
-0.000703903
-0.000704361
-0.000704558
-0.000704518
-0.000704276
-0.000703907
-0.00070346
-0.000702948
-0.000702448
-0.000701895
-0.000702098
-0.000701825
8.2382e-05
6.00902e-05
3.76519e-05
1.47975e-05
-8.32574e-06
-3.15592e-05
-5.48229e-05
-7.80947e-05
-0.000101375
-0.000124658
-0.00014792
-0.000171129
-0.000194247
-0.000217241
-0.000240083
-0.000262741
-0.000285186
-0.000307387
-0.000329309
-0.000350922
-0.00037219
-0.000393084
-0.00041357
-0.000433617
-0.000453196
-0.000472277
-0.000490832
-0.000508833
-0.000526257
-0.000543078
-0.000559275
-0.000574831
-0.000589728
-0.000603951
-0.000617486
-0.000630326
-0.000642467
-0.000653908
-0.00066465
-0.0006747
-0.000684069
-0.000692781
-0.000700856
-0.000708318
-0.000715188
-0.000721489
-0.000727246
-0.000732482
-0.000737222
-0.000741491
-0.000745315
-0.000748722
-0.000751736
-0.000754384
-0.000756693
-0.00075869
-0.0007604
-0.000761849
-0.000763064
-0.00076407
-0.00076492
-0.00076568
-0.000766391
-0.000767051
-0.000767729
-0.000768592
-0.000769792
-0.000771825
-0.000773551
6.4994e-05
4.14417e-05
1.7737e-05
-6.40578e-06
-3.0831e-05
-5.5369e-05
-7.99334e-05
-0.000104499
-0.000129067
-0.000153631
-0.000178166
-0.000202637
-0.000227005
-0.000251235
-0.000275293
-0.000299149
-0.00032277
-0.000346122
-0.00036917
-0.000391879
-0.000414214
-0.000436139
-0.000457623
-0.00047863
-0.00049913
-0.000519091
-0.000538483
-0.000557278
-0.00057545
-0.000592974
-0.000609828
-0.000625995
-0.000641457
-0.000656198
-0.000670209
-0.000683483
-0.000696018
-0.000707818
-0.000718887
-0.000729235
-0.00073888
-0.00074785
-0.00075617
-0.000763868
-0.000770973
-0.000777514
-0.000783521
-0.000789025
-0.000794058
-0.000798652
-0.000802839
-0.000806649
-0.000810114
-0.000813267
-0.000816136
-0.000818748
-0.00082113
-0.000823304
-0.0008253
-0.000827188
-0.000829021
-0.00083081
-0.000832568
-0.000834386
-0.000836419
-0.0008389
-0.000841913
-0.000845887
-0.000849842
4.51327e-05
2.02348e-05
-4.82121e-06
-3.03387e-05
-5.61533e-05
-8.20837e-05
-0.000108036
-0.000133983
-0.000159923
-0.000185852
-0.000211743
-0.00023756
-0.000263259
-0.000288803
-0.000314156
-0.000339284
-0.000364153
-0.000388726
-0.000412966
-0.000436834
-0.000460293
-0.000483306
-0.000505837
-0.000527851
-0.000549312
-0.000570188
-0.000590446
-0.000610059
-0.000628997
-0.000647235
-0.000664753
-0.00068153
-0.000697549
-0.000712796
-0.000727262
-0.000740945
-0.000753844
-0.000765966
-0.000777319
-0.000787919
-0.000797792
-0.000806969
-0.000815481
-0.000823363
-0.00083065
-0.000837379
-0.000843589
-0.00084932
-0.00085461
-0.000859499
-0.000864026
-0.000868228
-0.000872144
-0.000875809
-0.000879251
-0.000882496
-0.000885564
-0.000888499
-0.000891365
-0.000894199
-0.00089699
-0.000899779
-0.000902677
-0.00090583
-0.000909378
-0.000913491
-0.000918117
-0.000923819
-0.000929797
2.23603e-05
-3.97795e-06
-3.04807e-05
-5.74697e-05
-8.47714e-05
-0.000112192
-0.00013963
-0.000167054
-0.000194464
-0.000221852
-0.000249194
-0.000276449
-0.000303571
-0.00033052
-0.000357255
-0.000383741
-0.000409941
-0.000435816
-0.000461324
-0.000486425
-0.000511079
-0.000535245
-0.000558884
-0.000581958
-0.000604431
-0.000626265
-0.000647428
-0.000667887
-0.000687613
-0.000706579
-0.000724763
-0.000742145
-0.000758706
-0.000774434
-0.000789323
-0.000803372
-0.000816585
-0.00082897
-0.000840541
-0.000851321
-0.000861343
-0.000870643
-0.000879261
-0.000887238
-0.000894621
-0.000901456
-0.000907793
-0.00091368
-0.000919166
-0.0009243
-0.000929131
-0.000933706
-0.000938066
-0.000942245
-0.000946264
-0.000950163
-0.000953984
-0.000957766
-0.000961526
-0.000965263
-0.000969044
-0.000972985
-0.000977178
-0.000981735
-0.000986731
-0.000992216
-0.000998145
-0.00100516
-0.0010126
-3.74287e-06
-3.1619e-05
-5.96644e-05
-8.82225e-05
-0.000117111
-0.000146122
-0.000175146
-0.000204146
-0.000233123
-0.000262068
-0.000290956
-0.000319743
-0.000348382
-0.000376825
-0.000405031
-0.000432962
-0.000460575
-0.00048783
-0.000514682
-0.000541087
-0.000567001
-0.00059238
-0.000617181
-0.000641364
-0.000664888
-0.000687714
-0.000709807
-0.000731132
-0.000751658
-0.000771357
-0.000790204
-0.000808178
-0.000825262
-0.000841444
-0.000856718
-0.000871087
-0.000884557
-0.00089714
-0.000908856
-0.000919738
-0.000929823
-0.000939155
-0.000947782
-0.000955759
-0.00096314
-0.000969987
-0.000976359
-0.000982318
-0.000987928
-0.000993251
-0.000998342
-0.00100325
-0.00100803
-0.00101272
-0.00101736
-0.00102199
-0.00102662
-0.00103124
-0.0010359
-0.00104067
-0.00104563
-0.00105083
-0.00105636
-0.00106229
-0.0010686
-0.00107535
-0.00108259
-0.00109092
-0.00109954
-3.39047e-05
-6.34354e-05
-9.31438e-05
-0.000123391
-0.000153988
-0.000184712
-0.000215443
-0.000246141
-0.000276804
-0.000307427
-0.00033798
-0.000368419
-0.000398691
-0.000428745
-0.000458536
-0.000488022
-0.000517157
-0.000545898
-0.000574195
-0.000602001
-0.000629267
-0.000655947
-0.000681992
-0.000707359
-0.000732002
-0.000755878
-0.000778946
-0.000801169
-0.000822513
-0.000842947
-0.000862445
-0.000880983
-0.000898544
-0.000915119
-0.000930703
-0.000945301
-0.000958923
-0.000971586
-0.000983317
-0.000994158
-0.00100415
-0.00101335
-0.00102182
-0.00102961
-0.00103681
-0.00104349
-0.00104972
-0.00105561
-0.00106121
-0.0010666
-0.00107184
-0.00107701
-0.00108217
-0.00108738
-0.00109266
-0.00109801
-0.00110345
-0.00110902
-0.00111479
-0.00112076
-0.00112698
-0.00113356
-0.00114054
-0.00114795
-0.00115582
-0.00116434
-0.0011735
-0.00118391
-0.00119447
-6.84693e-05
-9.97579e-05
-0.000131224
-0.000163261
-0.000195669
-0.00022821
-0.000260753
-0.000293253
-0.000325706
-0.000358107
-0.000390426
-0.000422615
-0.000454618
-0.000486379
-0.000517848
-0.000548979
-0.000579724
-0.000610032
-0.000639851
-0.000669129
-0.000697812
-0.000725849
-0.000753189
-0.000779782
-0.000805581
-0.000830539
-0.000854612
-0.000877758
-0.000899938
-0.000921119
-0.000941268
-0.000960361
-0.000978378
-0.000995308
-0.00101115
-0.00102591
-0.00103959
-0.00105223
-0.00106387
-0.00107455
-0.00108433
-0.00109327
-0.00110143
-0.00110891
-0.00111578
-0.00112215
-0.0011281
-0.00113375
-0.00113919
-0.00114451
-0.00114982
-0.00115519
-0.00116069
-0.00116635
-0.00117223
-0.00117835
-0.00118476
-0.00119148
-0.00119847
-0.0012058
-0.00121357
-0.00122186
-0.00123071
-0.00124026
-0.00125061
-0.00126199
-0.00127401
-0.00128755
-0.00129995
-0.000109047
-0.000142258
-0.000175666
-0.000209668
-0.00024406
-0.000278594
-0.000313125
-0.000347602
-0.000382019
-0.000416371
-0.000450629
-0.00048474
-0.000518644
-0.00055228
-0.000585594
-0.000618535
-0.00065105
-0.000683084
-0.00071458
-0.00074548
-0.000775724
-0.000805253
-0.000834009
-0.000861933
-0.000888971
-0.000915071
-0.000940185
-0.000964266
-0.000987273
-0.00100917
-0.00102991
-0.00104949
-0.00106787
-0.00108504
-0.001101
-0.00111575
-0.00112931
-0.00114171
-0.00115299
-0.00116321
-0.00117244
-0.00118077
-0.0011883
-0.00119511
-0.00120134
-0.00120707
-0.00121244
-0.00121756
-0.00122257
-0.0012276
-0.00123277
-0.00123818
-0.0012439
-0.00125002
-0.0012566
-0.00126367
-0.00127118
-0.00127917
-0.00128768
-0.00129681
-0.00130664
-0.00131727
-0.00132888
-0.00134164
-0.00135559
-0.00137073
-0.00138632
-0.00140309
-0.00141652
-0.000154761
-0.000189959
-0.000225334
-0.00026135
-0.000297791
-0.000334385
-0.000370973
-0.000407498
-0.000443952
-0.000480329
-0.0005166
-0.000552708
-0.000588586
-0.000624169
-0.000659396
-0.00069421
-0.000728554
-0.000762369
-0.000795593
-0.000828164
-0.000860019
-0.000891094
-0.000921326
-0.000950649
-0.000978999
-0.00100631
-0.00103253
-0.0010576
-0.00108148
-0.0011041
-0.00112544
-0.00114547
-0.00116416
-0.0011815
-0.00119749
-0.00121214
-0.00122546
-0.0012375
-0.0012483
-0.00125793
-0.00126647
-0.00127401
-0.0012807
-0.00128665
-0.00129204
-0.00129702
-0.00130173
-0.00130628
-0.00131079
-0.00131542
-0.00132039
-0.00132589
-0.00133204
-0.00133889
-0.00134642
-0.00135466
-0.00136363
-0.00137336
-0.0013839
-0.00139531
-0.00140771
-0.00142128
-0.00143617
-0.00145238
-0.0014697
-0.0014878
-0.00150571
-0.00152357
-0.00153769
-0.000211299
-0.000248773
-0.000286488
-0.00032485
-0.000363649
-0.000402612
-0.000441568
-0.000480448
-0.000519242
-0.000557948
-0.000596536
-0.000634945
-0.000673104
-0.00071094
-0.000748383
-0.000785371
-0.000821837
-0.000857714
-0.000892928
-0.000927406
-0.000961076
-0.000993868
-0.00102572
-0.00105655
-0.00108631
-0.00111492
-0.0011423
-0.00116841
-0.00119316
-0.0012165
-0.00123838
-0.00125876
-0.0012776
-0.00129488
-0.00131059
-0.00132473
-0.00133733
-0.00134843
-0.00135809
-0.00136638
-0.00137339
-0.00137924
-0.0013841
-0.00138815
-0.00139164
-0.00139486
-0.00139806
-0.00140145
-0.00140512
-0.00140915
-0.00141375
-0.00141928
-0.00142596
-0.00143376
-0.00144261
-0.00145253
-0.00146349
-0.0014754
-0.00148817
-0.00150179
-0.00151633
-0.0015318
-0.00154814
-0.00156509
-0.00158214
-0.00159868
-0.0016137
-0.00162707
-0.00163677
-0.00026932
-0.000309044
-0.000348874
-0.000389444
-0.000430527
-0.0004718
-0.000513063
-0.000554235
-0.000595307
-0.000636277
-0.000677114
-0.000717758
-0.000758133
-0.000798158
-0.000837761
-0.000876875
-0.000915431
-0.000953361
-0.000990589
-0.00102703
-0.00106259
-0.00109718
-0.00113071
-0.00116312
-0.00119432
-0.00122425
-0.00125284
-0.00128001
-0.00130569
-0.00132982
-0.00135234
-0.00137319
-0.00139235
-0.00140977
-0.00142545
-0.00143938
-0.00145158
-0.00146209
-0.00147097
-0.0014783
-0.00148419
-0.00148876
-0.00149217
-0.00149464
-0.00149641
-0.00149783
-0.00149932
-0.00150132
-0.00150411
-0.00150774
-0.00151225
-0.00151803
-0.00152553
-0.00153476
-0.00154553
-0.00155758
-0.00157056
-0.00158398
-0.00159742
-0.00161062
-0.00162342
-0.0016357
-0.00164736
-0.00165824
-0.00166794
-0.001676
-0.00168191
-0.0016859
-0.00168636
-0.000355655
-0.000397904
-0.000440624
-0.00048407
-0.000528026
-0.000572209
-0.000616414
-0.000660541
-0.000704566
-0.00074848
-0.000792248
-0.000835801
-0.000879055
-0.000921917
-0.000964302
-0.00100613
-0.00104731
-0.00108777
-0.00112743
-0.00116621
-0.00120403
-0.00124078
-0.00127635
-0.00131063
-0.00134351
-0.00137491
-0.00140473
-0.00143288
-0.00145926
-0.00148376
-0.0015063
-0.00152685
-0.00154534
-0.00156173
-0.001576
-0.00158814
-0.0015982
-0.00160624
-0.00161236
-0.00161667
-0.00161934
-0.00162054
-0.00162049
-0.00161945
-0.0016177
-0.00161559
-0.00161356
-0.00161219
-0.0016121
-0.00161361
-0.00161685
-0.00162209
-0.0016296
-0.00163923
-0.00165041
-0.00166227
-0.00167369
-0.00168352
-0.00169106
-0.00169626
-0.00169937
-0.00170081
-0.00170123
-0.00170127
-0.00170125
-0.00170113
-0.00170085
-0.00170018
-0.00169757
-0.000417364
-0.000462293
-0.000507022
-0.000552727
-0.000599091
-0.000645648
-0.000692173
-0.000738611
-0.00078496
-0.000831215
-0.000877334
-0.000923241
-0.000968848
-0.00101406
-0.0010588
-0.00110297
-0.00114651
-0.00118929
-0.0012312
-0.00127215
-0.00131205
-0.00135084
-0.00138841
-0.00142464
-0.00145943
-0.00149267
-0.0015243
-0.00155428
-0.00158254
-0.00160893
-0.00163323
-0.0016553
-0.00167505
-0.00169244
-0.00170742
-0.00171997
-0.00173003
-0.00173762
-0.00174279
-0.00174564
-0.00174634
-0.0017451
-0.00174216
-0.00173785
-0.00173261
-0.00172692
-0.0017212
-0.00171591
-0.00171154
-0.00170855
-0.00170733
-0.00170806
-0.00171071
-0.00171497
-0.00172024
-0.00172561
-0.00172986
-0.00173164
-0.00173034
-0.00172649
-0.00172099
-0.00171481
-0.0017091
-0.00170499
-0.00170302
-0.00170267
-0.00170296
-0.00170263
-0.00170084
-0.000557222
-0.00060506
-0.0006542
-0.000704236
-0.000754707
-0.000805316
-0.00085587
-0.000906287
-0.000956561
-0.0010067
-0.00105665
-0.00110633
-0.00115564
-0.00120447
-0.00125271
-0.00130027
-0.00134707
-0.001393
-0.00143795
-0.00148179
-0.00152435
-0.0015655
-0.00160511
-0.00164304
-0.00167913
-0.00171317
-0.00174496
-0.0017743
-0.00180104
-0.00182525
-0.00184696
-0.00186611
-0.00188259
-0.00189626
-0.00190695
-0.00191454
-0.0019189
-0.00192
-0.00191783
-0.00191244
-0.00190395
-0.00189259
-0.00187865
-0.00186253
-0.00184476
-0.00182596
-0.00180683
-0.00178813
-0.00177069
-0.0017553
-0.00174262
-0.00173314
-0.0017271
-0.00172443
-0.00172475
-0.00172733
-0.00173098
-0.00173404
-0.00173503
-0.00173316
-0.0017287
-0.00172254
-0.00171584
-0.0017099
-0.0017059
-0.00170402
-0.00170299
-0.00170167
-0.00170019
0.000374123
0.000377809
0.000381971
0.000386594
0.00039156
0.000396894
0.00040274
0.000408965
0.000415617
0.000422515
0.000429784
0.000437521
0.000445378
0.000453973
0.000461871
0.000470285
0.000478084
0.0004863
0.000494092
0.000501686
0.000509335
0.000515458
0.000521323
0.000525917
0.000529707
0.000532761
0.000534211
0.000534304
0.000533415
0.000531335
0.000527151
0.000521663
0.000514971
0.000507354
0.000497827
0.000487285
0.000475987
0.000463706
0.000450521
0.000437017
0.000423001
0.000408625
0.000394393
0.000380337
0.000365687
0.000351855
0.000337809
0.000324449
0.000311229
0.000298343
0.000286045
0.000274207
0.000263018
0.000252447
0.000242416
0.000232383
0.000222909
0.000213754
0.000204967
0.000376743
0.000380694
0.000385131
0.000389951
0.000395182
0.000400833
0.00040693
0.000413442
0.000420385
0.000427707
0.000435385
0.000443433
0.000451745
0.000460311
0.000469067
0.000477748
0.000486497
0.00049505
0.000503465
0.000511407
0.00051898
0.000525943
0.000532068
0.000537168
0.000541268
0.000544374
0.000546184
0.000546456
0.000545629
0.000543376
0.000539233
0.000533784
0.000526932
0.000518648
0.000508892
0.000497927
0.000486032
0.000473283
0.000459655
0.000445426
0.000430871
0.000415999
0.000401025
0.00038591
0.000370897
0.000356147
0.000341615
0.000327516
0.000313764
0.000300395
0.000287535
0.000275192
0.000263325
0.000252018
0.000241147
0.000230775
0.000220858
0.000211402
0.000202361
0.000379983
0.000384166
0.000388799
0.000393856
0.000399352
0.000405298
0.000411691
0.000418526
0.0004258
0.000433488
0.000441556
0.000449958
0.000458666
0.000467638
0.000476801
0.00048611
0.00049541
0.000504544
0.000513409
0.000521849
0.000529752
0.000537133
0.000543697
0.000549231
0.000553702
0.000556991
0.000558962
0.000559483
0.000558692
0.000556358
0.000552285
0.000546722
0.000539535
0.000530833
0.000520671
0.00050928
0.0004968
0.000483435
0.000469244
0.000454428
0.00043914
0.000423478
0.000407655
0.000391826
0.000376099
0.000360616
0.000345401
0.00033056
0.000316126
0.000302113
0.000288595
0.000275576
0.000263071
0.000251085
0.000239658
0.000228773
0.000218386
0.0002085
0.000199059
0.000383087
0.000387489
0.000392374
0.000397704
0.000403499
0.000409765
0.000416501
0.000423702
0.000431354
0.000439442
0.000447941
0.00045681
0.000466014
0.000475491
0.000485155
0.000494961
0.00050474
0.000514404
0.000523792
0.000532791
0.000541238
0.000549031
0.000556002
0.000561941
0.000566767
0.000570324
0.000572495
0.000573191
0.000572452
0.000570078
0.000565969
0.000560213
0.000552717
0.000543654
0.00053306
0.000521172
0.000508108
0.000494058
0.000479159
0.000463602
0.000447514
0.000431061
0.000414459
0.000397878
0.000381375
0.000365096
0.000349108
0.000333491
0.00031831
0.000303594
0.000289387
0.000275717
0.000262604
0.000250052
0.000238068
0.000226641
0.000215755
0.000205406
0.00019554
0.000385845
0.000390485
0.000395635
0.000401256
0.000407369
0.000413977
0.000421083
0.000428681
0.00043676
0.000445302
0.000454281
0.000463661
0.000473396
0.000483418
0.000493645
0.00050399
0.000514327
0.000524556
0.000534525
0.000544095
0.000553103
0.000561393
0.000568809
0.000575168
0.000580354
0.000584218
0.000586632
0.000587484
0.000586803
0.000584404
0.000580201
0.000574233
0.000566437
0.00055699
0.00054594
0.000533506
0.000519824
0.000505072
0.000489417
0.000473057
0.000456159
0.000438911
0.000421499
0.000404079
0.000386749
0.000369635
0.000352836
0.000336427
0.000320477
0.000305032
0.000290129
0.000275801
0.000262061
0.000248916
0.000236361
0.000224391
0.000212993
0.000202159
0.000191829
0.000388366
0.000393255
0.000398679
0.000404598
0.000411036
0.000418
0.000425491
0.000433506
0.000442036
0.000451061
0.000460553
0.000470472
0.000480766
0.000491368
0.000502198
0.000513155
0.000524122
0.000534975
0.000545566
0.000555735
0.000565323
0.000574163
0.000582082
0.000588903
0.000594486
0.000598684
0.000601362
0.000602389
0.000601778
0.000599363
0.000595057
0.00058887
0.000580757
0.000570891
0.000559349
0.000546332