/*--------------------------------*- C++ -*----------------------------------*\
| =========                 |                                                 |
| \\      /  F ield         | OpenFOAM: The Open Source CFD Toolbox           |
|  \\    /   O peration     | Version:  2312                                  |
|   \\  /    A nd           | Website:  www.openfoam.com                      |
|    \\/     M anipulation  |                                                 |
\*---------------------------------------------------------------------------*/
FoamFile
{
    version     2.0;
    format      ascii;
    arch        "LSB;label=32;scalar=64";
    class       surfaceScalarField;
    location    "2000";
    object      phi;
}
// * * * * * * * * * * * * * * * * * * * * * * * * * * * * * * * * * * * * * //

dimensions      [0 3 -1 0 0 0 0];

oriented        oriented;

internalField   nonuniform List<scalar> 
116611
(
0.00116052
0.000442573
-0.00114511
-0.000457976
0.0011759
0.000439562
-0.000454948
0.00119103
0.000436203
-0.000451332
0.001206
0.000432494
-0.00044746
0.00122099
0.00042858
-0.000443576
0.00123608
0.000424423
-0.000439508
0.00125087
0.000420008
-0.000434798
0.00126568
0.00041535
-0.000430164
0.00127985
0.000410246
-0.000424416
0.00129385
0.000404742
-0.000418738
0.0013077
0.000398893
-0.00041274
0.00132137
0.000392732
-0.000406404
0.00133458
0.00038619
-0.000399403
0.00134728
0.000379196
-0.000391896
0.00135956
0.000371779
-0.000384053
0.00137136
0.000363916
-0.000375725
0.00138302
0.000355624
-0.000367277
0.00139424
0.000346967
-0.000358194
0.00140504
0.00033774
-0.00034854
0.00141536
0.000328161
-0.000338473
0.00142528
0.000318043
-0.000327965
0.00143449
0.000307443
-0.000316654
0.00144311
0.000296275
-0.000304896
0.0014513
0.000284719
-0.000292914
0.00145896
0.00027266
-0.000280318
0.00146621
0.000260093
-0.00026734
0.00147281
0.000246913
-0.000253515
0.00147879
0.00023327
-0.000239251
0.00148456
0.00021921
-0.000224979
0.00148938
0.00020464
-0.000209462
0.0014939
0.000189597
-0.000194118
0.00149802
0.000173885
-0.000178003
0.00150142
0.000157653
-0.000161054
0.00150422
0.000140942
-0.000143736
0.00150641
0.000123651
-0.000125849
0.00150791
0.000105952
-0.000107447
0.00150935
8.78274e-05
-8.92685e-05
0.0015098
6.9098e-05
-6.95427e-05
0.0015098
4.98441e-05
-4.98467e-05
0.00150895
2.99279e-05
-2.90848e-05
0.00150753
9.69393e-06
-8.26795e-06
0.00150598
-1.1006e-05
1.25593e-05
0.00150338
-3.23741e-05
3.49727e-05
0.00150019
-5.41429e-05
5.73275e-05
0.00149615
-7.63999e-05
8.04404e-05
0.00149184
-9.89217e-05
0.000103229
0.00148673
-0.000121989
0.000127105
0.00148051
-0.000145458
0.000151679
0.00147379
-0.000169056
0.000175769
0.00146641
-0.000192917
0.000200303
0.00145808
-0.000217111
0.000225442
0.00144911
-0.000241395
0.000250359
0.00143938
-0.000265851
0.000275581
0.00142857
-0.000290502
0.000301311
0.00141619
-0.000315193
0.000327579
0.00140382
-0.000339319
0.000351688
0.00138968
-0.000363626
0.000377767
0.00137507
-0.000387404
0.000402013
0.00135966
-0.000410704
0.000426113
0.00134366
-0.000433333
0.000449338
0.00132628
-0.00045581
0.000473183
0.00130836
-0.000477458
0.000495385
0.00128978
-0.000497853
0.000516428
0.00127021
-0.000517456
0.000537027
0.00124944
-0.000535961
0.000556732
0.00122923
-0.000552532
0.000572743
0.00120878
-0.000567732
0.000588185
0.00118758
-0.000581975
0.000603171
-0.000593673
0.00116277
0.000618485
0.00114747
0.000426951
-0.00113184
0.00116286
0.000424166
0.00117802
0.000421044
0.00119293
0.000417584
0.00120772
0.000413793
0.0012224
0.000409741
0.001237
0.000405409
0.00125154
0.000400807
0.00126587
0.000395921
0.00127993
0.000390682
0.00129373
0.000385085
0.00130732
0.000379143
0.00132067
0.000372841
0.0013337
0.000366172
0.00134634
0.000359135
0.00135859
0.000351663
0.00137045
0.000343773
0.00138196
0.000335449
0.00139302
0.000326684
0.00140372
0.000317461
0.00141397
0.000307788
0.00142376
0.000297655
0.001433
0.000287038
0.00144176
0.000275958
0.00145003
0.000264394
0.00145781
0.000252311
0.00146498
0.000239737
0.00147159
0.000226659
0.00147772
0.000213089
0.00148329
0.000199068
0.00148839
0.0001845
0.0014929
0.000169373
0.0014968
0.00015375
0.00150013
0.000137616
0.00150281
0.00012097
0.00150493
0.000103826
0.00150656
8.6201e-05
0.00150757
6.80849e-05
0.00150799
4.94272e-05
0.00150767
3.02439e-05
0.00150677
1.05994e-05
0.00150526
-9.49953e-06
0.00150299
-3.01028e-05
0.00150003
-5.11853e-05
0.00149632
-7.26905e-05
0.00149197
-9.45652e-05
0.0014868
-0.000116822
0.00148079
-0.000139448
0.00147406
-0.000162326
0.00146657
-0.000185427
0.00145822
-0.000208766
0.00144909
-0.000232263
0.00143912
-0.000255877
0.00142819
-0.000279578
0.00141628
-0.000303277
0.0014037
-0.00032674
0.00139011
-0.000350038
0.00137574
-0.000373031
0.0013606
-0.000395562
0.00134484
-0.00041758
0.00132817
-0.00043914
0.00131071
-0.000459994
0.00129271
-0.000479855
0.00127402
-0.000498767
0.00125467
-0.000516603
0.0012351
-0.000532966
0.00121516
-0.000547793
0.00119465
-0.000561463
-0.000572338
0.00117331
0.00113472
0.000411378
-0.00111915
0.00115017
0.000408723
0.00116544
0.000405774
0.00118049
0.000402533
0.0011953
0.00039898
0.00120992
0.000395121
0.00122437
0.000390956
0.00123869
0.00038649
0.00125288
0.000381735
0.00126688
0.000376678
0.00128066
0.000371303
0.00129421
0.000365593
0.00130752
0.000359536
0.00132057
0.000353125
0.00133334
0.000346357
0.0013458
0.000339212
0.0013579
0.000331672
0.00136963
0.00032372
0.00138097
0.000315345
0.00139189
0.000306532
0.0014024
0.000297278
0.00141248
0.000287576
0.00142211
0.000277416
0.00143127
0.000266797
0.00143995
0.000255712
0.00144811
0.000244146
0.00145575
0.000232095
0.00146286
0.000219555
0.00146942
0.000206527
0.00147548
0.000193011
0.00148099
0.00017899
0.0014859
0.000164456
0.00149024
0.000149417
0.00149398
0.000133875
0.00149711
0.000117834
0.00149964
0.000101297
0.00150157
8.42723e-05
0.0015029
6.67555e-05
0.00150359
4.87366e-05
0.00150361
3.02268e-05
0.00150296
1.12499e-05
0.00150164
-8.18016e-06
0.00149962
-2.80867e-05
0.00149688
-4.84452e-05
0.0014934
-6.9211e-05
0.00148919
-9.03522e-05
0.00148422
-0.00011185
0.00147845
-0.000133683
0.00147191
-0.000155787
0.0014646
-0.000178117
0.00145649
-0.000200656
0.00144759
-0.000223355
0.00143787
-0.00024616
0.00142731
-0.000269018
0.00141589
-0.000291855
0.00140369
-0.000314546
0.00139069
-0.000337037
0.00137691
-0.000359252
0.00136242
-0.000381072
0.00134725
-0.000402414
0.00133135
-0.000423234
0.00131474
-0.00044339
0.00129758
-0.000462689
0.00127984
-0.000481033
0.00126155
-0.000498312
0.00124289
-0.000514304
0.0012239
-0.000528805
0.00120447
-0.000542026
-0.000552523
0.00118465
0.00112283
0.000395992
-0.00110745
0.00113817
0.000393392
0.0011534
0.000390536
0.0011685
0.000387433
0.00118342
0.000384067
0.00119812
0.000380416
0.00121261
0.000376467
0.00122689
0.00037221
0.00124098
0.000367647
0.00125488
0.000362778
0.00126858
0.0003576
0.00128207
0.000352106
0.00129532
0.000346283
0.00130833
0.00034012
0.00132108
0.000333608
0.00133355
0.00032674
0.00134572
0.000319502
0.00135756
0.000311881
0.00136904
0.000303861
0.00138014
0.000295431
0.00139084
0.000286577
0.00140113
0.000277292
0.00141097
0.000267567
0.00142038
0.000257396
0.00142931
0.000246773
0.00143777
0.00023569
0.00144573
0.000224138
0.00145317
0.000212113
0.00146009
0.000199611
0.00146647
0.000186627
0.00147231
0.000173157
0.00147757
0.000159194
0.00148225
0.000144737
0.00148633
0.000129788
0.00148982
0.00011435
0.00149269
9.8425e-05
0.00149495
8.20163e-05
0.00149658
6.51257e-05
0.00149756
4.77555e-05
0.00149787
2.99116e-05
0.00149751
1.16096e-05
0.00149647
-7.1409e-06
0.00149473
-2.63491e-05
0.00149228
-4.59855e-05
0.00148908
-6.60203e-05
0.00148516
-8.64254e-05
0.00148048
-0.000107175
0.00147504
-0.00012824
0.00146883
-0.000149579
0.00146186
-0.000171148
0.00145412
-0.000192916
0.00144561
-0.000214838
0.00143631
-0.000236862
0.00142622
-0.000258929
0.00141534
-0.000280973
0.0014037
-0.000302906
0.00139131
-0.000324654
0.0013782
-0.000346141
0.0013644
-0.000367273
0.00134995
-0.00038796
0.00133484
-0.000408126
0.0013191
-0.000427652
0.00130281
-0.000446395
0.001286
-0.000464227
0.00126872
-0.00048103
0.00125106
-0.000496638
0.00123309
-0.000510834
0.00121476
-0.000523703
-0.000533976
0.00119622
0.00111187
0.000380689
-0.00109656
0.00112708
0.00037818
0.0011422
0.00037541
0.00115723
0.000372406
0.00117213
0.000369165
0.00118688
0.000365672
0.00120143
0.000361913
0.00121577
0.000357869
0.00122989
0.000353528
0.00124379
0.000348883
0.00125746
0.000343929
0.0012709
0.000338661
0.00128411
0.000333074
0.00129707
0.000327159
0.00130977
0.000320906
0.00132221
0.000314309
0.00133435
0.000307356
0.00134619
0.000300039
0.00135771
0.000292345
0.00136888
0.000284263
0.00137967
0.000275782
0.00139007
0.00026689
0.00140006
0.000257578
0.00140962
0.000247839
0.00141873
0.000237663
0.00142738
0.000227043
0.00143555
0.000215972
0.00144322
0.000204443
0.00145037
0.000192453
0.001457
0.000179995
0.0014631
0.000167066
0.00146863
0.000153661
0.00147359
0.000139776
0.00147796
0.000125413
0.00148174
0.000110572
0.00148491
9.52553e-05
0.00148746
7.94653e-05
0.00148938
6.32054e-05
0.00149066
4.64801e-05
0.00149128
2.92951e-05
0.00149122
1.16629e-05
0.00149049
-6.40703e-06
0.00148906
-2.49207e-05
0.00148692
-4.38481e-05
0.00148407
-6.31643e-05
0.00148048
-8.28433e-05
0.00147617
-0.000102858
0.00147111
-0.00012318
0.0014653
-0.000143774
0.00145876
-0.0001646
0.00145146
-0.000185621
0.00144342
-0.000206793
0.00143462
-0.000228068
0.00142508
-0.000249387
0.00141479
-0.000270688
0.00140379
-0.000291898
0.00139208
-0.000312943
0.00137968
-0.000333746
0.00136663
-0.000354224
0.00135296
-0.000374287
0.00133868
-0.000393848
0.00132383
-0.000412798
0.00130845
-0.000431016
0.00129259
-0.000448372
0.0012763
-0.000464744
0.00125965
-0.000479987
0.00124272
-0.000493904
0.00122557
-0.000506549
-0.000517011
0.0012086
0.00110149
0.000365277
-0.00108608
0.00111673
0.000362933
0.00113184
0.000360308
0.00114681
0.000357434
0.00116165
0.000354321
0.00117636
0.000350967
0.00119091
0.000347363
0.00120528
0.000343499
0.00121944
0.000339362
0.00123339
0.000334938
0.0012471
0.000330219
0.00126056
0.000325194
0.00127378
0.000319857
0.00128674
0.000314201
0.00129943
0.000308216
0.00131184
0.000301897
0.00132396
0.000295233
0.00133579
0.000288218
0.00134729
0.00028084
0.00135846
0.000273092
0.00136928
0.000264963
0.00137973
0.000256443
0.00138978
0.000247523
0.00139943
0.000238194
0.00140864
0.000228447
0.00141741
0.000218273
0.00142572
0.000207666
0.00143354
0.000196619
0.00144087
0.000185125
0.00144769
0.00017318
0.00145397
0.000160778
0.00145972
0.000147917
0.0014649
0.000134591
0.00146951
0.000120802
0.00147354
0.000106547
0.00147697
9.18297e-05
0.00147978
7.66509e-05
0.00148197
6.10139e-05
0.00148353
4.4924e-05
0.00148444
2.83869e-05
0.00148468
1.14137e-05
0.00148426
-5.9867e-06
0.00148316
-2.38191e-05
0.00148137
-4.20544e-05
0.00147887
-6.06696e-05
0.00147567
-7.96407e-05
0.00147176
-9.8942e-05
0.00146712
-0.000118545
0.00146176
-0.000138418
0.00145569
-0.000158524
0.00144889
-0.000178824
0.00144138
-0.000199277
0.00143314
-0.000219835
0.0014242
-0.000240443
0.00141455
-0.000261042
0.00140422
-0.000281566
0.00139322
-0.000301943
0.00138158
-0.0003221
0.00136931
-0.000341957
0.00135645
-0.000361426
0.00134302
-0.00038042
0.00132906
-0.000398833
0.0013146
-0.000416557
0.00129969
-0.000433465
0.00128438
-0.000449436
0.00126873
-0.000464337
0.00125282
-0.000477988
0.00123671
-0.000490441
-0.000500997
0.00122069
0.0010914
0.000349687
-0.00107581
0.0011068
0.00034753
0.00112202
0.000345091
0.00113706
0.000342398
0.00115192
0.000339456
0.00116662
0.000336266
0.00118116
0.000332828
0.00119552
0.000329137
0.00120969
0.000325186
0.00122367
0.000320967
0.00123742
0.000316469
0.00125093
0.000311682
0.00126419
0.000306596
0.00127719
0.000301203
0.00128991
0.000295493
0.00130235
0.00028946
0.00131449
0.000283093
0.00132632
0.000276386
0.00133783
0.000269329
0.00134901
0.000261914
0.00135984
0.000254132
0.00137031
0.000245976
0.0013804
0.000237436
0.00139009
0.000228503
0.00139936
0.000219169
0.00140821
0.000209427
0.00141661
0.000199269
0.00142454
0.000188686
0.00143199
0.000177674
0.00143894
0.000166227
0.00144538
0.000154339
0.00145129
0.000142006
0.00145666
0.000129225
0.00146147
0.000115994
0.0014657
0.000102312
0.00146935
8.81793e-05
0.00147241
7.3598e-05
0.00147485
5.85707e-05
0.00147667
4.31018e-05
0.00147786
2.71974e-05
0.00147841
1.08669e-05
0.0014783
-5.881e-06
0.00147753
-2.30505e-05
0.00147609
-4.06136e-05
0.00147397
-5.85491e-05
0.00147117
-7.68346e-05
0.00146767
-9.5446e-05
0.00146348
-0.000114356
0.0014586
-0.000133534
0.00145302
-0.000152946
0.00144675
-0.000172554
0.00143979
-0.000192318
0.00143215
-0.000212191
0.00142382
-0.000232122
0.00141484
-0.000252054
0.00140519
-0.000271925
0.00139492
-0.000291668
0.00138403
-0.000311211
0.00137255
-0.000330477
0.00136051
-0.000349383
0.00134793
-0.000367839
0.00133484
-0.000385748
0.00132129
-0.000403006
0.00130732
-0.000419493
0.00129297
-0.000435089
0.00127831
-0.000449671
0.00126339
-0.000463069
0.00124825
-0.000475304
-0.00048567
0.00123292
0.00108161
0.000333974
-0.00106589
0.00109716
0.000331978
0.00111253
0.000329718
0.00112771
0.000327216
0.0011427
0.00032447
0.00115749
0.000321477
0.00117208
0.000318235
0.00118648
0.000314739
0.00120068
0.000310986
0.00121467
0.000306973
0.00122845
0.000302691
0.001242
0.000298134
0.0012553
0.000293292
0.00126835
0.000288157
0.00128112
0.00028272
0.00129361
0.000276971
0.0013058
0.000270903
0.00131768
0.000264507
0.00132923
0.000257774
0.00134045
0.000250695
0.00135132
0.000243264
0.00136183
0.00023547
0.00137195
0.000227307
0.00138169
0.000218765
0.00139102
0.000209839
0.00139993
0.000200518
0.0014084
0.000190797
0.00141642
0.000180668
0.00142397
0.000170125
0.00143103
0.000159162
0.0014376
0.000147774
0.00144365
0.000135955
0.00144917
0.000123703
0.00145415
0.000111015
0.00145857
9.789e-05
0.00146242
8.43269e-05
0.0014657
7.03273e-05
0.00146837
5.5893e-05
0.00147045
4.10284e-05
0.00147191
2.57385e-05
0.00147274
1.00322e-05
0.00147294
-6.08345e-06
0.0014725
-2.26107e-05
0.00147141
-3.95239e-05
0.00146967
-5.68029e-05
0.00146726
-7.4427e-05
0.00146419
-9.23734e-05
0.00146045
-0.000110616
0.00145604
-0.000129127
0.00145097
-0.000147872
0.00144523
-0.000166816
0.00143883
-0.00018592
0.00143178
-0.000205139
0.00142408
-0.000224424
0.00141575
-0.000243721
0.00140679
-0.000262971
0.00139724
-0.00028211
0.00138709
-0.000301069
0.00137639
-0.000319773
0.00136515
-0.000338142
0.0013534
-0.000356091
0.00134118
-0.000373525
0.00132852
-0.000390346
0.00131546
-0.000406439
0.00130207
-0.000421694
0.00128839
-0.000435989
0.00127449
-0.000449174
0.00126036
-0.000461174
-0.000471647
0.00124634
0.00107231
0.000318229
-0.00105657
0.00108794
0.000316358
0.00110341
0.000314243
0.00111872
0.000311908
0.00113384
0.000309347
0.00114877
0.000306553
0.00116348
0.000303518
0.00117799
0.000300236
0.00119227
0.000296702
0.00120633
0.00029291
0.00122017
0.000288856
0.00123377
0.000284535
0.00124712
0.000279938
0.00126022
0.00027506
0.00127304
0.000269892
0.00128559
0.000264426
0.00129784
0.000258653
0.00130978
0.000252566
0.0013214
0.000246155
0.00133268
0.000239413
0.00134362
0.00023233
0.00135419
0.0002249
0.00136438
0.000217112
0.00137418
0.000208961
0.00138359
0.000200437
0.00139257
0.000191534
0.00140112
0.000182245
0.00140923
0.000172562
0.00141688
0.000162479
0.00142405
0.00015199
0.00143073
0.00014109
0.00143691
0.000129774
0.00144258
0.000118038
0.00144771
0.000105879
0.00145231
9.32956e-05
0.00145635
8.02865e-05
0.00145982
6.68522e-05
0.00146272
5.29941e-05
0.00146504
3.8716e-05
0.00146675
2.40221e-05
0.00146786
8.9203e-06
0.00146836
-6.58376e-06
0.00146824
-2.24905e-05
0.0014675
-3.87762e-05
0.00146612
-5.54224e-05
0.0014641
-7.24096e-05
0.00146144
-8.97163e-05
0.00145814
-0.000107318
0.0014542
-0.000125188
0.00144963
-0.000143294
0.00144441
-0.000161602
0.00143857
-0.000180074
0.0014321
-0.000198669
0.00142501
-0.000217337
0.00141732
-0.000236029
0.00140903
-0.000254687
0.00140017
-0.000273251
0.00139076
-0.000291654
0.00138081
-0.000309825
0.00137036
-0.000327687
0.00135942
-0.000345157
0.00134804
-0.000362145
0.00133625
-0.000378557
0.0013241
-0.000394289
0.00131165
-0.000409238
0.00129895
-0.000423288
0.0012861
-0.000436328
0.00127305
-0.000448128
-0.000458847
0.00126025
0.00106374
0.000302495
-0.001048
0.00107936
0.000300732
0.00109487
0.000298739
0.00111023
0.000296543
0.00112544
0.00029414
0.00114047
0.000291523
0.0011553
0.000288683
0.00116993
0.000285609
0.00118433
0.000282295
0.00119851
0.000278734
0.00121245
0.000274919
0.00122614
0.000270844
0.00123958
0.000266502
0.00125275
0.000261886
0.00126565
0.000256991
0.00127827
0.000251809
0.00129059
0.000246333
0.0013026
0.000240553
0.00131429
0.000234463
0.00132565
0.000228055
0.00133666
0.000221319
0.00134731
0.000214248
0.00135759
0.000206835
0.00136748
0.000199071
0.00137697
0.000190948
0.00138605
0.000182459
0.00139469
0.000173596
0.0014029
0.000164354
0.00141066
0.000154725
0.00141794
0.000144703
0.00142475
0.000134283
0.00143107
0.000123459
0.00143688
0.000112228
0.00144217
0.000100587
0.00144693
8.85324e-05
0.00145115
7.60633e-05
0.00145483
6.31795e-05
0.00145794
4.98819e-05
0.00146048
3.61735e-05
0.00146245
2.20575e-05
0.00146382
7.54161e-06
0.00146461
-7.371e-06
0.0014648
-2.26781e-05
0.00146438
-3.83584e-05
0.00146335
-5.43948e-05
0.00146171
-7.07689e-05
0.00145946
-8.74606e-05
0.00145659
-0.000104447
0.0014531
-0.000121701
0.001449
-0.000139195
0.00144429
-0.000156895
0.00143898
-0.000174763
0.00143308
-0.000192761
0.00142658
-0.000210842
0.00141951
-0.000228958
0.00141187
-0.000247054
0.00140369
-0.000265072
0.00139499
-0.000282948
0.00138578
-0.000300615
0.00137609
-0.000317998
0.00136595
-0.000335019
0.0013554
-0.000351591
0.00134447
-0.000367627
0.00133321
-0.000383029
0.00132167
-0.0003977
0.00130992
-0.000411534
0.00129803
-0.000424439
0.00128608
-0.000436176
-0.00044729
0.00127452
0.00105597
0.000286772
-0.00104025
0.00107158
0.000285116
0.00108708
0.000283239
0.00110246
0.000281169
0.00111769
0.000278908
0.00113277
0.000276447
0.00114767
0.00027378
0.00116238
0.000270896
0.00117689
0.000267789
0.00119117
0.000264449
0.00120522
0.000260868
0.00121903
0.000257039
0.00123258
0.000252954
0.00124586
0.000248607
0.00125886
0.00024399
0.00127157
0.000239097
0.00128398
0.000233919
0.00129609
0.00022845
0.00130787
0.000222681
0.00131932
0.000216606
0.00133042
0.000210217
0.00134116
0.000203505
0.00135153
0.000196464
0.00136152
0.000189084
0.00137111
0.000181358
0.00138029
0.000173279
0.00138905
0.00016484
0.00139737
0.000156033
0.00140524
0.000146853
0.00141265
0.000137291
0.00141959
0.000127344
0.00142604
0.000117005
0.001432
0.000106271
0.00143745
9.51367e-05
0.00144238
8.36e-05
0.00144679
7.16589e-05
0.00145065
5.93126e-05
0.00145397
4.65612e-05
0.00145674
3.34071e-05
0.00145894
1.98527e-05
0.00146058
5.90531e-06
0.00146164
-8.43455e-06
0.00146213
-2.31619e-05
0.00146203
-3.82576e-05
0.00146134
-5.37059e-05
0.00146006
-6.94898e-05
0.00145819
-8.55903e-05
0.00145573
-0.000101986
0.00145268
-0.000118651
0.00144904
-0.000135558
0.00144482
-0.000152675
0.00144003
-0.000169968
0.00143466
-0.000187397
0.00142874
-0.000204919
0.00142227
-0.000222488
0.00141527
-0.000240051
0.00140775
-0.000257553
0.00139973
-0.000274933
0.00139125
-0.000292127
0.00138231
-0.000309063
0.00137296
-0.000325667
0.00136322
-0.000341856
0.00135315
-0.000357549
0.00134277
-0.000372649
0.00133213
-0.000387063
0.00132128
-0.000400682
0.00131024
-0.000413403
0.00129914
-0.000425071
-0.000436484
0.00128833
0.00104903
0.000271045
-0.00103331
0.00106465
0.000269499
0.00108015
0.000267739
0.00109552
0.000265796
0.00111076
0.000263671
0.00112585
0.000261359
0.00114078
0.000258852
0.00115553
0.000256144
0.00117009
0.000253227
0.00118445
0.000250092
0.00119858
0.000246733
0.00121248
0.000243139
0.00122613
0.000239305
0.00123952
0.000235221
0.00125263
0.00023088
0.00126545
0.000226274
0.00127797
0.000221396
0.00129019
0.000216238
0.00130207
0.000210793
0.00131363
0.000205053
0.00132484
0.00019901
0.00133568
0.000192657
0.00134616
0.000185986
0.00135626
0.000178989
0.00136596
0.000171658
0.00137525
0.000163987
0.00138412
0.000155968
0.00139256
0.000147593
0.00140056
0.000138856
0.0014081
0.00012975
0.00141517
0.00012027
0.00142177
0.000110409
0.00142788
0.000100163
0.00143349
8.95272e-05
0.00143859
7.84988e-05
0.00144317
6.70751e-05
0.00144723
5.52545e-05
0.00145076
4.30366e-05
0.00145374
3.04232e-05
0.00145618
1.74154e-05
0.00145806
4.02042e-06
0.00145939
-9.76404e-06
0.00146016
-2.39301e-05
0.00146036
-3.84609e-05
0.00146
-5.3342e-05
0.00145907
-6.85576e-05
0.00145757
-8.40899e-05
0.0014555
-9.99182e-05
0.00145287
-0.000116019
0.00144968
-0.000132365
0.00144593
-0.000148927
0.00144163
-0.000165671
0.00143679
-0.00018256
0.00143143
-0.000199553
0.00142554
-0.000216604
0.00141916
-0.000233665
0.00141229
-0.000250683
0.00140495
-0.000267599
0.00139718
-0.000284352
0.00138899
-0.000300874
0.00138042
-0.000317096
0.0013715
-0.000332937
0.00136227
-0.000348319
0.00135276
-0.000363146
0.00134302
-0.00037732
0.00133308
-0.000390736
0.00132293
-0.00040326
0.00131264
-0.000414775
-0.000425547
0.0013017
0.00104293
0.000255299
-0.00102719
0.00105857
0.000253865
0.00107408
0.000252225
0.00108947
0.00025041
0.00110472
0.000248423
0.00111982
0.000246259
0.00113476
0.000243911
0.00114953
0.000241373
0.00116412
0.000238638
0.00117851
0.000235699
0.00119269
0.000232549
0.00120665
0.00022918
0.00122037
0.000225584
0.00123384
0.000221753
0.00124704
0.000217679
0.00125996
0.000213354
0.00127259
0.00020877
0.00128491
0.00020392
0.0012969
0.000198795
0.00130857
0.000193387
0.00131989
0.00018769
0.00133085
0.000181694
0.00134145
0.000175393
0.00135166
0.000168777
0.00136147
0.000161841
0.00137089
0.000154575
0.00137988
0.000146973
0.00138845
0.000139027
0.00139657
0.00013073
0.00140425
0.000122075
0.00141146
0.000113056
0.0014182
0.000103668
0.00142446
9.39036e-05
0.00143023
8.37593e-05
0.0014355
7.32309e-05
0.00144026
6.23153e-05
0.0014445
5.10101e-05
0.00144822
3.93144e-05
0.00145142
2.7229e-05
0.00145408
1.4754e-05
0.0014562
1.89669e-06
0.00145779
-1.13486e-05
0.00145883
-2.49709e-05
0.00145932
-3.89556e-05
0.00145927
-5.32896e-05
0.00145867
-6.79582e-05
0.00145753
-8.29449e-05
0.00145584
-9.823e-05
0.00145361
-0.000113791
0.00145085
-0.000129603
0.00144756
-0.000145637
0.00144375
-0.00016186
0.00143943
-0.000178238
0.0014346
-0.000194731
0.0014293
-0.000211296
0.00142352
-0.000227887
0.00141729
-0.000244452
0.00141063
-0.000260938
0.00140356
-0.000277284
0.00139611
-0.000293429
0.00138832
-0.000309302
0.00138021
-0.000324829
0.00137182
-0.000339931
0.00136319
-0.000354512
0.00135435
-0.000368483
0.00134537
-0.000381752
0.00133631
-0.000394201
0.00132727
-0.000405735
-0.000416733
0.00131846
0.00103768
0.000239528
-0.00102191
0.00105334
0.000238205
0.00106888
0.000236684
0.00108429
0.000234998
0.00109957
0.00023315
0.00111469
0.000231134
0.00112966
0.000228946
0.00114445
0.000226578
0.00115907
0.000224024
0.00117349
0.000221278
0.0011877
0.000218333
0.0012017
0.000215182
0.00121547
0.000211816
0.00122899
0.00020823
0.00124226
0.000204414
0.00125525
0.000200362
0.00126795
0.000196064
0.00128036
0.000191514
0.00129245
0.000186703
0.00130422
0.000181623
0.00131564
0.000176266
0.00132671
0.000170624
0.00133741
0.000164688
0.00134774
0.000158451
0.00135768
0.000151906
0.00136721
0.000145043
0.00137633
0.000137855
0.00138502
0.000130334
0.00139327
0.000122474
0.00140108
0.000114267
0.00140843
0.000105706
0.00141532
9.67839e-05
0.00142173
8.74961e-05
0.00142765
7.78367e-05
0.00143308
6.7801e-05
0.00143801
5.73853e-05
0.00144243
4.65864e-05
0.00144634
3.54025e-05
0.00144974
2.38335e-05
0.00145261
1.18786e-05
0.00145497
-4.55363e-07
0.00145679
-1.31767e-05
0.0014581
-2.62719e-05
0.00145887
-3.97286e-05
0.00145911
-5.3535e-05
0.00145883
-6.76779e-05
0.00145803
-8.21415e-05
0.00145671
-9.69075e-05
0.00145487
-0.000111955
0.00145253
-0.000127259
0.00144968
-0.000142792
0.00144635
-0.000158525
0.00144253
-0.000174422
0.00143825
-0.000190447
0.00143351
-0.000206558
0.00142833
-0.000222711
0.00142274
-0.000238858
0.00141675
-0.000254948
0.00141038
-0.000270923
0.00140368
-0.000286723
0.00139666
-0.000302283
0.00138936
-0.000317528
0.00138181
-0.000332383
0.00137406
-0.000346762
0.00136618
-0.000360597
0.00135823
-0.000373805
0.00135025
-0.000386228
0.00134243
-0.000397908
-0.000408423
0.00133412
0.0010333
0.000223723
-0.0010175
0.001049
0.00022251
0.00106457
0.000221107
0.00108002
0.000219549
0.00109533
0.000217839
0.00111049
0.000215973
0.00112549
0.000213944
0.00114033
0.000211746
0.00115498
0.000209374
0.00116943
0.000206821
0.00118369
0.00020408
0.00119772
0.000201144
0.00121153
0.000198007
0.0012251
0.000194661
0.00123842
0.0001911
0.00125146
0.000187314
0.00126423
0.000183297
0.0012767
0.000179041
0.00128887
0.000174537
0.00130071
0.000169779
0.00131222
0.000164756
0.00132339
0.000159462
0.00133419
0.000153887
0.00134461
0.000148024
0.00135465
0.000141865
0.0013643
0.0001354
0.00137353
0.000128623
0.00138234
0.000121524
0.00139072
0.000114097
0.00139865
0.000106333
0.00140613
9.82246e-05
0.00141315
8.97655e-05
0.0014197
8.09487e-05
0.00142576
7.17683e-05
0.00143135
6.22187e-05
0.00143644
5.22953e-05
0.00144103
4.19941e-05
0.00144512
3.13125e-05
0.0014487
2.02491e-05
0.00145178
8.80274e-06
0.00145435
-3.02258e-06
0.0014564
-1.52344e-05
0.00145795
-2.78188e-05
0.00145899
-4.07656e-05
0.00145952
-5.40645e-05
0.00145954
-6.77031e-05
0.00145907
-8.16671e-05
0.0014581
-9.59388e-05
0.00145664
-0.000110498
0.00145471
-0.000125322
0.0014523
-0.000140385
0.00144943
-0.000155657
0.00144611
-0.000171105
0.00144236
-0.000186693
0.00143819
-0.000202384
0.00143361
-0.000218134
0.00142865
-0.000233897
0.00142333
-0.000249625
0.00141767
-0.000265263
0.00141169
-0.000280753
0.00140544
-0.000296032
0.00139895
-0.000311034
0.00139226
-0.000325698
0.00138545
-0.000339949
0.00137859
-0.00035373
0.00137171
-0.000366933
0.00136485
-0.000379365
0.00135794
-0.000390999
-0.000402175
0.00135169
0.00102982
0.000207874
-0.00101397
0.00104555
0.000206771
0.00106117
0.000205486
0.00107667
0.000204056
0.00109202
0.000202484
0.00110723
0.000200765
0.00112228
0.000198895
0.00113716
0.000196867
0.00115186
0.000194676
0.00116637
0.000192314
0.00118067
0.000189777
0.00119475
0.000187057
0.00120861
0.000184148
0.00122223
0.000181042
0.0012356
0.000177732
0.0012487
0.000174212
0.00126153
0.000170472
0.00127406
0.000166507
0.00128629
0.000162307
0.00129821
0.000157865
0.00130979
0.000153173
0.00132103
0.000148223
0.00133191
0.000143005
0.00134242
0.000137511
0.00135255
0.000131734
0.00136229
0.000125664
0.00137162
0.000119292
0.00138053
0.000112612
0.00138902
0.000105613
0.00139706
9.82876e-05
0.00140466
9.06282e-05
0.0014118
8.26267e-05
0.00141847
7.42759e-05
0.00142467
6.55687e-05
0.00143039
5.64989e-05
0.00143563
4.70607e-05
0.00144037
3.72492e-05
0.00144462
2.70608e-05
0.00144838
1.64925e-05
0.00145164
5.5434e-06
0.0014544
-5.78776e-06
0.00145667
-1.75044e-05
0.00145845
-2.95945e-05
0.00145973
-4.20498e-05
0.00146053
-5.48614e-05
0.00146084
-6.80181e-05
0.00146068
-8.15063e-05
0.00146006
-9.53097e-05
0.00145897
-0.000109409
0.00145743
-0.000123782
0.00145545
-0.000138404
0.00145304
-0.000153247
0.00145021
-0.000168278
0.00144698
-0.000183464
0.00144336
-0.000198768
0.00143938
-0.000214148
0.00143504
-0.000229561
0.00143038
-0.000244961
0.00142541
-0.000260295
0.00142017
-0.000275512
0.00141469
-0.000290557
0.00140904
-0.000305379
0.00140327
-0.000319925
0.00139743
-0.000334114
0.00139156
-0.000347858
0.00138565
-0.000361019
0.00137968
-0.000373403
0.0013736
-0.000384915
-0.000395829
0.00136725
0.00102725
0.000191973
-0.00101135
0.00104305
0.00019098
0.00105872
0.000189812
0.00107427
0.000188508
0.00108968
0.000187073
0.00110494
0.000185502
0.00112005
0.000183789
0.00113498
0.00018193
0.00114974
0.000179918
0.00116431
0.000177749
0.00117867
0.000175415
0.00119282
0.00017291
0.00120674
0.000170227
0.00122042
0.00016736
0.00123385
0.000164302
0.00124702
0.000161046
0.00125991
0.000157583
0.00127251
0.000153907
0.0012848
0.00015001
0.00129678
0.000145884
0.00130844
0.00014152
0.00131975
0.000136911
0.00133071
0.000132047
0.0013413
0.00012692
0.00135151
0.000121522
0.00136133
0.000115844
0.00137075
0.000109876
0.00137975
0.00010361
0.00138832
9.70367e-05
0.00139646
9.01473e-05
0.00140416
8.2933e-05
0.0014114
7.53855e-05
0.00141818
6.74963e-05
0.00142449
5.92576e-05
0.00143033
5.0662e-05
0.00143569
4.17027e-05
0.00144056
3.23735e-05
0.00144495
2.26698e-05
0.00144886
1.25867e-05
0.00145228
2.12372e-06
0.00145522
-8.72676e-06
0.00145768
-1.99629e-05
0.00145966
-3.15758e-05
0.00146117
-4.35589e-05
0.00146221
-5.59046e-05
0.00146279
-6.86026e-05
0.00146293
-8.16405e-05
0.00146262
-9.50027e-05
0.00146188
-0.000108671
0.00146072
-0.000122624
0.00145916
-0.000136837
0.00145719
-0.000151282
0.00145484
-0.00016593
0.00145213
-0.000180747
0.00144906
-0.000195697
0.00144565
-0.000210742
0.00144193
-0.00022584
0.00143792
-0.000240947
0.00143364
-0.00025602
0.00142914
-0.000271016
0.00142448
-0.000285889
0.00141969
-0.00030059
0.00141481
-0.000315048
0.00140983
-0.000329136
0.00140471
-0.000342739
0.00139943
-0.000355737
0.00139403
-0.000368001
0.00138849
-0.000379376
-0.000390024
0.00138268
0.00102567
0.000176016
-0.00100971
0.00104151
0.00017513
0.00105725
0.000174078
0.00107286
0.0001729
0.00108833
0.0001716
0.00110366
0.000170174
0.00111883
0.000168618
0.00113383
0.000166927
0.00114866
0.000165094
0.00116329
0.000163114
0.00117772
0.000160982
0.00119194
0.000158691
0.00120593
0.000156234
0.00121969
0.000153606
0.00123319
0.000150799
0.00124643
0.000147806
0.0012594
0.000144619
0.00127207
0.000141233
0.00128444
0.000137638
0.0012965
0.000133826
0.00130823
0.000129791
0.00131962
0.000125522
0.00133065
0.000121012
0.00134132
0.000116252
0.00135161
0.000111233
0.00136151
0.000105945
0.001371
0.00010038
0.00138009
9.45277e-05
0.00138874
8.83787e-05
0.00139697
8.19235e-05
0.00140475
7.51527e-05
0.00141208
6.80568e-05
0.00141895
6.06266e-05
0.00142535
5.28532e-05
0.00143129