/*--------------------------------*- C++ -*----------------------------------*\
| =========                 |                                                 |
| \\      /  F ield         | OpenFOAM: The Open Source CFD Toolbox           |
|  \\    /   O peration     | Version:  2312                                  |
|   \\  /    A nd           | Website:  www.openfoam.com                      |
|    \\/     M anipulation  |                                                 |
\*---------------------------------------------------------------------------*/
FoamFile
{
    version     2.0;
    format      ascii;
    arch        "LSB;label=32;scalar=64";
    class       volVectorField;
    location    "2000";
    object      U;
}
// * * * * * * * * * * * * * * * * * * * * * * * * * * * * * * * * * * * * * //

dimensions      [0 1 -1 0 0 0 0];

internalField   nonuniform List<vector> 
76025
(
(0.0394857 -0.0073106 0)
(0.039701 -0.00729283 2.59592e-22)
(0.0399138 -0.00727148 0)
(0.0401245 -0.00724394 0)
(0.0403487 -0.00721171 -3.16991e-22)
(0.0405786 -0.00715679 -4.22684e-22)
(0.0408188 -0.0071094 6.01381e-22)
(0.0410617 -0.00704354 -2.10847e-22)
(0.0412943 -0.00697835 2.39351e-24)
(0.0415213 -0.0069036 -3.89131e-23)
(0.0417533 -0.00681799 3.12869e-23)
(0.0419911 -0.00671952 -3.27154e-22)
(0.0422278 -0.00661531 4.3681e-22)
(0.0424566 -0.00649946 0)
(0.0426743 -0.00636787 -2.18345e-22)
(0.042892 -0.0062379 0)
(0.0431046 -0.00608521 0)
(0.0433205 -0.00593142 0)
(0.0435294 -0.00576179 -3.15565e-22)
(0.0437347 -0.00558975 3.97529e-22)
(0.0439326 -0.00540015 4.32316e-22)
(0.0441227 -0.00520572 1.33557e-21)
(0.0443024 -0.00499982 -9.20758e-22)
(0.0444743 -0.00477938 -1.5951e-21)
(0.0446401 -0.00455384 -6.36288e-23)
(0.0448025 -0.00432041 -6.75624e-22)
(0.044953 -0.00406821 1.8724e-21)
(0.0451011 -0.00381227 -1.90163e-21)
(0.0452427 -0.00353798 6.57581e-22)
(0.0453749 -0.00324845 -6.90732e-22)
(0.0454959 -0.00297123 -7.29154e-22)
(0.0456173 -0.00267236 1.60807e-21)
(0.0457265 -0.00235985 -2.45799e-21)
(0.0458298 -0.0020452 -4.43251e-22)
(0.0459205 -0.00171604 2.25783e-21)
(0.0460032 -0.00138137 1.61809e-23)
(0.0460806 -0.00102625 -4.65542e-22)
(0.0461511 -0.000664055 2.60455e-22)
(0.0462112 -0.000302875 1.8711e-23)
(0.046258 7.40697e-05 -4.00041e-22)
(0.0462917 0.000455135 2.74699e-22)
(0.0463209 0.000854126 -1.36453e-22)
(0.046344 0.00126667 2.74551e-22)
(0.0463509 0.00168417 -5.53048e-22)
(0.0463402 0.00211334 -5.76372e-22)
(0.0463189 0.0025526 1.08488e-21)
(0.0462909 0.00300507 1.15374e-21)
(0.0462413 0.00346452 -3.49094e-21)
(0.0461686 0.00393656 2.20845e-21)
(0.0460837 0.00441979 -7.68925e-23)
(0.045981 0.00491335 -5.69326e-21)
(0.0458558 0.00542048 -2.18002e-21)
(0.0457109 0.00593769 2.33065e-21)
(0.0455399 0.00646989 0)
(0.0453291 0.00700417 -2.13763e-21)
(0.0450855 0.00755561 -2.2892e-21)
(0.0448186 0.00811056 7.6054e-23)
(0.0445072 0.00868504 -2.17462e-21)
(0.0441604 0.00927945 2.15583e-21)
(0.0437775 0.00989917 -6.25324e-21)
(0.0433877 0.0104693 -4.46028e-21)
(0.0429188 0.0110972 -3.89711e-22)
(0.0424094 0.0117351 0)
(0.0418597 0.0123776 1.05914e-20)
(0.0412548 0.0130215 -3.81669e-21)
(0.040593 0.0136772 2.11812e-21)
(0.0399042 0.0143667 -4.02189e-21)
(0.0391543 0.0150406 4.48694e-21)
(0.0384499 0.0157353 8.56051e-21)
(0.0395014 -0.00768884 2.85885e-22)
(0.039732 -0.00767206 6.90001e-22)
(0.0399597 -0.00764828 -9.53819e-22)
(0.0401862 -0.00761831 0)
(0.0404131 -0.00757987 6.30554e-22)
(0.0406477 -0.00753175 -1.57695e-22)
(0.0408852 -0.00747503 -3.17882e-22)
(0.0411309 -0.00740914 0)
(0.0413797 -0.00733536 3.54499e-23)
(0.0416264 -0.00725359 4.04234e-23)
(0.0418715 -0.00716249 -7.7967e-23)
(0.0421178 -0.00706117 4.11073e-23)
(0.0423652 -0.0069504 0)
(0.0426128 -0.00682892 0)
(0.0428579 -0.00669682 -5.71346e-22)
(0.0430956 -0.00655567 1.38145e-21)
(0.0433312 -0.00640258 3.49895e-22)
(0.043562 -0.0062405 -1.14765e-21)
(0.0437901 -0.00606709 7.60025e-22)
(0.0440123 -0.00588392 -4.09915e-22)
(0.0442318 -0.00568895 5.35336e-22)
(0.0444453 -0.00548443 -9.83228e-22)
(0.0446509 -0.00526887 1.12739e-21)
(0.0448494 -0.00504141 -1.77773e-21)
(0.0450408 -0.00480348 1.20496e-21)
(0.0452255 -0.0045554 1.97238e-21)
(0.045404 -0.00429686 -1.35382e-21)
(0.0455704 -0.00402758 0)
(0.0457303 -0.00374583 0)
(0.0458839 -0.00345262 -8.39557e-22)
(0.0460288 -0.0031509 0)
(0.0461659 -0.00283829 -9.13832e-22)
(0.0462952 -0.00251486 9.26696e-22)
(0.0464127 -0.00218169 -1.42828e-21)
(0.0465211 -0.00183686 3.89234e-23)
(0.0466186 -0.00148096 -4.91296e-22)
(0.0467087 -0.00111101 0)
(0.0467906 -0.000733416 -1.09937e-21)
(0.0468611 -0.000347202 8.56079e-22)
(0.0469194 4.92154e-05 -7.19165e-22)
(0.0469649 0.000457967 4.48835e-22)
(0.0469995 0.00088023 -2.61061e-24)
(0.0470214 0.00130791 1.64079e-22)
(0.0470275 0.00174373 -1.52952e-22)
(0.0470179 0.00219041 1.26082e-21)
(0.0469931 0.00265038 -6.3941e-22)
(0.0469526 0.00311945 -6.66969e-22)
(0.0468925 0.00359572 1.19173e-21)
(0.0468114 0.00408679 3.70439e-21)
(0.0467114 0.00459146 -3.99311e-23)
(0.0465907 0.00510601 3.63609e-21)
(0.0464462 0.0056324 -1.22298e-21)
(0.0462772 0.00616924 -3.56316e-21)
(0.0460818 0.006714 2.4178e-21)
(0.045856 0.0072658 0)
(0.0455969 0.00783741 7.20521e-21)
(0.0453099 0.00841586 -2.36042e-26)
(0.0449871 0.00900805 -2.38089e-21)
(0.0446294 0.00961237 -2.47086e-21)
(0.0442392 0.010228 0)
(0.0438138 0.0108528 2.16027e-21)
(0.043343 0.0114896 6.85056e-21)
(0.0428291 0.0121364 0)
(0.0422749 0.0127925 -4.48665e-21)
(0.0416754 0.0134574 2.78697e-21)
(0.0410179 0.0141414 -4.71772e-21)
(0.0403213 0.0148449 2.36452e-21)
(0.0395619 0.0155245 -4.54776e-21)
(0.0387929 0.0163003 -4.5337e-21)
(0.0395084 -0.00808966 -1.33822e-21)
(0.0397549 -0.00807025 8.19086e-22)
(0.0400003 -0.008044 -1.83503e-22)
(0.0402467 -0.00801147 5.33522e-22)
(0.0404918 -0.00797059 -6.26019e-22)
(0.0407372 -0.00792113 -1.91117e-22)
(0.0409836 -0.00786208 1.9876e-22)
(0.0412333 -0.00779386 0)
(0.0414875 -0.00771599 3.86708e-23)
(0.0417448 -0.00762852 0)
(0.042003 -0.00753132 1.62316e-22)
(0.0422613 -0.00742441 -1.60194e-22)
(0.0425197 -0.00730759 -1.21781e-21)
(0.042778 -0.00718048 9.69477e-22)
(0.0430364 -0.00704271 -2.79169e-22)
(0.0432929 -0.00689396 -1.04404e-21)
(0.0435468 -0.00673464 3.67952e-22)
(0.0437967 -0.00656446 3.95534e-22)
(0.0440425 -0.00638381 1.45105e-21)
(0.0442835 -0.00619199 -9.6122e-22)
(0.0445196 -0.00598915 -5.69284e-22)
(0.0447504 -0.00577512 1.19214e-21)
(0.0449753 -0.0055498 -5.46205e-22)
(0.0451942 -0.00531266 -6.87106e-22)
(0.0454066 -0.00506388 0)
(0.0456114 -0.00480393 7.6498e-22)
(0.0458084 -0.00453323 7.66949e-22)
(0.0459965 -0.00425102 -7.35331e-22)
(0.046176 -0.00395698 0)
(0.0463474 -0.00365153 1.76496e-21)
(0.0465107 -0.00333454 -9.57856e-22)
(0.0466644 -0.00300699 -7.72037e-23)
(0.0468077 -0.00266882 0)
(0.0469404 -0.00231941 4.96147e-22)
(0.0470626 -0.00195882 -1.59627e-21)
(0.0471737 -0.00158684 1.09167e-21)
(0.0472738 -0.00120343 0)
(0.0473628 -0.000809647 8.79572e-22)
(0.0474401 -0.000405296 -9.17144e-22)
(0.0475044 9.32815e-06 -1.51097e-22)
(0.047555 0.000435188 0)
(0.0475916 0.000871713 -3.28821e-22)
(0.0476135 0.00131708 -1.65913e-22)
(0.0476198 0.00177283 1.54057e-22)
(0.0476094 0.00223959 -9.7009e-22)
(0.0475816 0.00271766 -6.88363e-22)
(0.0475358 0.00320606 1.28351e-21)
(0.0474704 0.00370511 -1.33354e-21)
(0.0473841 0.00421646 1.37264e-21)
(0.0472767 0.00473942 -1.32166e-21)
(0.0471473 0.00527283 -1.27756e-21)
(0.0469943 0.0058172 2.73994e-21)
(0.0468164 0.00637221 0)
(0.0466119 0.00693738 2.72687e-21)
(0.0463785 0.00751329 9.86962e-23)
(0.0461144 0.00810241 -2.62132e-21)
(0.04582 0.00870224 -2.60644e-21)
(0.045493 0.00931413 5.19741e-21)
(0.0451319 0.00993863 -9.89173e-23)
(0.0447359 0.0105762 2.69525e-21)
(0.0443044 0.0112231 -5.38683e-21)
(0.0438325 0.0118804 -2.80557e-21)
(0.0433178 0.0125511 2.003e-24)
(0.0427603 0.0132341 -2.5886e-21)
(0.0421575 0.013929 -2.37218e-21)
(0.0415024 0.0146358 -8.06827e-21)
(0.0408045 0.0153624 0)
(0.0400355 0.0160729 -2.65003e-21)
(0.0392697 0.01689 2.63395e-21)
(0.0395253 -0.00851835 0)
(0.03978 -0.00849746 2.33201e-22)
(0.0400374 -0.00846905 7.93716e-22)
(0.0402993 -0.0084339 -6.02123e-22)
(0.0405628 -0.00839047 -1.38122e-22)
(0.0408262 -0.00833798 2.51925e-22)
(0.0410892 -0.00827603 -8.59168e-24)
(0.0413523 -0.00820456 -7.49137e-23)
(0.0416165 -0.0081232 -7.92408e-23)
(0.0418825 -0.00803166 -6.62871e-22)
(0.0421504 -0.0079297 7.0566e-22)
(0.0424195 -0.00781724 1.01332e-21)
(0.042689 -0.00769424 -1.65648e-22)
(0.0429584 -0.00756059 -1.27045e-21)
(0.0432276 -0.00741599 1.06501e-21)
(0.0434961 -0.00726017 -4.31036e-22)
(0.0437632 -0.00709319 4.7396e-22)
(0.0440279 -0.00691491 5.16537e-22)
(0.0442892 -0.0067254 -1.59632e-21)
(0.0445464 -0.00652449 4.95441e-22)
(0.0447987 -0.00631214 5.7956e-22)
(0.0450457 -0.0060881 0)
(0.045287 -0.0058523 1.48574e-21)
(0.045522 -0.00560458 -7.23632e-22)
(0.0457505 -0.00534493 -1.57764e-21)
(0.0459717 -0.00507353 -1.69696e-21)
(0.0461851 -0.00479033 3.36198e-21)
(0.0463902 -0.00449514 -1.77965e-21)
(0.0465865 -0.004188 0)
(0.0467738 -0.00386896 -1.93568e-21)
(0.0469516 -0.00353834 -5.45485e-23)
(0.0471193 -0.00319645 2.03165e-21)
(0.0472761 -0.00284314 -1.09733e-21)
(0.0474219 -0.00247825 2.82266e-21)
(0.0475561 -0.00210181 -5.41825e-22)
(0.0476785 -0.00171386 0)
(0.0477887 -0.00131443 0)
(0.0478863 -0.000903699 3.30423e-22)
(0.0479707 -0.000481981 3.1662e-22)
(0.0480411 -4.94485e-05 1.7503e-22)
(0.0480969 0.000394228 -5.62418e-24)
(0.0481376 0.000848947 1.70919e-22)
(0.0481623 0.00131385 0)
(0.0481705 0.00178938 -2.49662e-23)
(0.048161 0.00227581 0)
(0.0481332 0.00277335 6.69469e-22)
(0.0480863 0.00328194 6.52694e-24)
(0.0480193 0.00380145 -2.20033e-21)
(0.0479311 0.00433228 0)
(0.0478209 0.00487452 -1.43766e-21)
(0.0476881 0.0054279 1.42763e-21)
(0.0475314 0.00599241 -2.76216e-21)
(0.0473493 0.00656797 0)
(0.0471406 0.00715446 -8.56342e-21)
(0.0469036 0.00775205 9.51271e-23)
(0.0466368 0.00836169 2.84466e-21)
(0.0463393 0.00898331 2.83302e-21)
(0.0460099 0.00961705 0)
(0.0456468 0.0102633 0)
(0.045249 0.0109219 -2.72156e-21)
(0.0448149 0.0115921 5.43939e-21)
(0.0443417 0.0122741 5.44188e-21)
(0.0438268 0.0129689 0)
(0.0432689 0.0136765 -5.93028e-21)
(0.0426663 0.0143969 0)
(0.0420131 0.0151289 8.38486e-21)
(0.0413153 0.0158817 -2.88311e-21)
(0.0405454 0.0166223 -2.9228e-21)
(0.0397779 0.0174695 -3.18018e-21)
(0.0395545 -0.00897322 0)
(0.0398181 -0.00895234 0)
(0.0400845 -0.00892303 1.29318e-22)
(0.0403568 -0.00888621 -2.92002e-22)
(0.0406335 -0.00884047 3.18912e-22)
(0.0409125 -0.00878501 -1.7735e-23)
(0.0411927 -0.00871965 0)
(0.0414732 -0.0086443 7.6649e-23)
(0.0417536 -0.00855874 0)
(0.042034 -0.00846268 4.3165e-22)
(0.0423147 -0.00835582 1.44612e-22)
(0.0425958 -0.0082379 -5.23437e-22)
(0.0428772 -0.00810875 0)
(0.0431583 -0.00796829 8.0135e-22)
(0.0434389 -0.00781637 -2.53972e-21)
(0.0437185 -0.00765284 1.81173e-21)
(0.0439968 -0.0074776 -2.53269e-21)
(0.0442732 -0.00729054 5.41155e-22)
(0.044547 -0.00709158 -6.3442e-22)
(0.0448174 -0.00688068 6.1222e-22)
(0.0450835 -0.00665773 6.93562e-22)
(0.0453448 -0.00642266 -2.18208e-21)
(0.0456004 -0.00617539 -1.54695e-21)
(0.0458498 -0.00591586 0)
(0.0460925 -0.005644 1.75036e-21)
(0.0463279 -0.00535983 9.38847e-22)
(0.0465555 -0.00506333 -2.73658e-21)
(0.0467746 -0.0047545 9.40186e-22)
(0.0469848 -0.00443336 -2.07486e-21)
(0.0471855 -0.00409996 3.10254e-21)
(0.0473762 -0.00375446 -1.14497e-21)
(0.0475563 -0.00339698 5.92967e-22)
(0.0477253 -0.00302752 0)
(0.0478827 -0.0026461 -5.88109e-22)
(0.0480278 -0.00225276 -6.07534e-22)
(0.0481604 -0.00184756 0)
(0.0482798 -0.00143059 6.94743e-22)
(0.0483857 -0.00100201 -1.02868e-21)
(0.0484774 -0.000562025 7.02574e-22)
(0.0485542 -0.000110751 -3.65088e-22)
(0.0486156 0.000351939 -6.47634e-24)
(0.0486611 0.000825893 -2.93988e-22)
(0.0486897 0.00131021 9.52185e-23)
(0.0487007 0.00180531 3.71938e-22)
(0.0486936 0.0023114 2.34733e-23)
(0.0486674 0.00282862 2.31663e-21)
(0.0486215 0.00335697 0)
(0.0485549 0.00389638 1.49784e-21)
(0.0484669 0.00444705 -4.96476e-23)
(0.0483565 0.00500913 -1.54389e-21)
(0.0482229 0.00558252 0)
(0.0480651 0.00616717 -1.55118e-21)
(0.0478819 0.00676311 1.54204e-21)
(0.047672 0.00737043 2.98373e-21)
(0.0474341 0.00798932 0)
(0.0471669 0.0086203 -6.06345e-21)
(0.0468692 0.00926355 6.15977e-21)
(0.0465397 0.00991922 -6.1572e-21)
(0.046177 0.0105875 -1.2132e-22)
(0.0457795 0.0112686 0)
(0.0453457 0.0119623 -3.08651e-21)
(0.0448732 0.0126686 2.96657e-21)
(0.0443597 0.0133881 3.34903e-21)
(0.0438032 0.014121 5.97866e-21)
(0.0432019 0.0148679 -9.63321e-21)
(0.0425504 0.0156269 6.28835e-21)
(0.0418544 0.016407 -3.15627e-21)
(0.041086 0.0171777 3.45991e-21)
(0.0403284 0.0180561 9.29982e-21)
(0.0395801 -0.0094545 -7.72267e-22)
(0.0398608 -0.00943398 2.06316e-22)
(0.0401413 -0.00940437 5.26441e-22)
(0.0404262 -0.00936658 0)
(0.040715 -0.00931909 -2.90987e-23)
(0.041007 -0.00926109 0)
(0.0413015 -0.00919244 -2.40076e-22)
(0.0415978 -0.00911309 -1.03325e-22)
(0.041895 -0.00902292 5.6319e-22)
(0.0421925 -0.00892175 -2.74113e-22)
(0.0424897 -0.00880932 -2.70597e-22)
(0.0427864 -0.00868538 -3.7579e-22)
(0.0430824 -0.00854969 0)
(0.0433775 -0.00840209 0)
(0.0436715 -0.00824242 4.62054e-22)
(0.0439639 -0.00807057 5.08842e-22)
(0.0442546 -0.0078864 -1.22191e-21)
(0.0445429 -0.00768984 1.21941e-21)
(0.0448285 -0.00748079 1.36391e-21)
(0.0451107 -0.00725919 -1.49828e-21)
(0.045389 -0.00702496 3.01056e-21)
(0.0456625 -0.00677806 1.36664e-23)
(0.0459307 -0.00651843 -1.75578e-21)
(0.0461928 -0.00624605 -9.47291e-22)
(0.0464482 -0.00596088 -1.94017e-21)
(0.0466962 -0.00566292 1.94253e-21)
(0.0469363 -0.0053522 2.11122e-21)
(0.0471678 -0.00502874 -2.11596e-21)
(0.04739 -0.00469256 0)
(0.0476025 -0.00434374 0)
(0.0478047 -0.00398236 3.00966e-21)
(0.0479959 -0.00360852 8.28721e-23)
(0.0481755 -0.00322232 -1.2703e-21)
(0.0483431 -0.00282383 -1.34553e-21)
(0.0484979 -0.00241313 1.3541e-21)
(0.0486395 -0.00199034 0)
(0.0487674 -0.00155556 -7.01597e-22)
(0.0488809 -0.00110896 -1.14109e-21)
(0.0489796 -0.000650657 7.60716e-22)
(0.0490627 -0.000180785 -1.36846e-23)
(0.0491299 0.000300656 -6.34593e-23)
(0.0491805 0.000793491 3.01769e-22)
(0.0492134 0.00129689 2.1431e-22)
(0.0492284 0.00181134 4.17587e-22)
(0.0492247 0.00233697 -2.0563e-21)
(0.0492015 0.00287387 2.27933e-23)
(0.049158 0.00342206 0)
(0.0490937 0.00398154 -1.73033e-21)
(0.0490075 0.00455242 5.02837e-21)
(0.0488987 0.00513479 -3.39841e-21)
(0.0487665 0.00572865 -1.67754e-21)
(0.0486099 0.00633406 -6.35927e-23)
(0.0484278 0.00695108 -1.62023e-21)
(0.048219 0.00757987 -1.53943e-23)
(0.0479824 0.00822063 3.33113e-21)
(0.0477167 0.0088737 -3.45715e-21)
(0.0474207 0.00953932 -3.34242e-21)
(0.047093 0.0102178 6.67396e-21)
(0.0467322 0.0109092 -1.0994e-22)
(0.0463366 0.0116138 3.34838e-21)
(0.0459046 0.0123317 -3.34155e-21)
(0.0454341 0.0130631 3.23597e-21)
(0.0449228 0.0138082 -6.48949e-21)
(0.0443684 0.0145674 -3.39184e-21)
(0.0437691 0.0153413 6.52942e-21)
(0.0431194 0.0161278 -3.70809e-21)
(0.0424254 0.0169359 -1.064e-20)
(0.0416583 0.0177351 -3.2305e-21)
(0.0409084 0.0186363 0)
(0.039589 -0.0099646 0)
(0.0398927 -0.00994424 -1.14142e-22)
(0.0401944 -0.00991433 -4.10995e-23)
(0.0404982 -0.00987573 0)
(0.040804 -0.00982679 0)
(0.0411115 -0.0097666 1.15616e-22)
(0.0414209 -0.00969497 -5.17454e-22)
(0.0417322 -0.00961184 7.9808e-22)
(0.0420452 -0.00951712 -3.96501e-22)
(0.042359 -0.00941068 2.79875e-22)
(0.0426731 -0.00929232 0)
(0.0429869 -0.00916186 3.83448e-22)
(0.0432997 -0.00901909 -4.99129e-22)
(0.0436112 -0.00886383 0)
(0.0439209 -0.00869593 0)
(0.0442286 -0.00851523 6.32859e-22)
(0.0445338 -0.00832162 1.02988e-22)
(0.044836 -0.00811499 -1.38521e-21)
(0.0451349 -0.00789527 -1.507e-21)
(0.04543 -0.00766239 1.58186e-21)
(0.0457207 -0.00741628 8.25217e-22)
(0.0460064 -0.00715691 3.69711e-21)
(0.0462866 -0.00688425 5.1638e-23)
(0.0465607 -0.00659829 -1.09199e-21)
(0.0468279 -0.00629904 2.05625e-21)
(0.0470876 -0.00598651 -1.09255e-21)
(0.0473391 -0.00566075 2.23968e-21)
(0.0475819 -0.00532181 0)
(0.0478152 -0.00496975 0)
(0.0480385 -0.00460464 0)
(0.048251 -0.00422659 -6.35416e-22)
(0.0484523 -0.00383572 -1.32947e-21)
(0.0486416 -0.00343213 1.38666e-21)
(0.0488184 -0.00301594 1.46519e-21)
(0.048982 -0.00258728 -1.47375e-21)
(0.049132 -0.00214626 0)
(0.0492677 -0.00169302 7.95707e-22)
(0.0493885 -0.00122772 -4.10673e-22)
(0.049494 -0.000750465 0)
(0.0495834 -0.000261416 4.26814e-22)
(0.0496563 0.000239379 -8.14326e-23)
(0.0497122 0.000751752 5.52598e-23)
(0.0497501 0.00127493 -2.16151e-22)
(0.0497695 0.00180937 0)
(0.0497698 0.00235517 -9.02593e-22)
(0.0497503 0.00291239 8.95078e-22)
(0.0497103 0.00348104 0)
(0.0496491 0.00406115 -6.45733e-23)
(0.0495659 0.00465278 5.04512e-23)
(0.0494599 0.00525602 1.74666e-21)
(0.0493303 0.00587093 0)
(0.0491762 0.00649762 -1.19947e-22)
(0.0489965 0.00713621 -1.74512e-21)
(0.0487902 0.00778689 -5.47941e-21)
(0.0485561 0.00844988 -1.34193e-22)
(0.0482931 0.0091255 3.4863e-21)
(0.0479997 0.009814 0)
(0.0476748 0.0105157 0)
(0.0473167 0.0112308 3.73992e-21)
(0.0469239 0.0119597 0)
(0.0464945 0.0127023 0)
(0.0460265 0.0134592 -1.25033e-22)
(0.0455177 0.0142305 -3.63994e-21)
(0.0449657 0.0150165 -7.48438e-21)
(0.0443686 0.0158179 7.50579e-21)
(0.043721 0.0166326 -5.53606e-22)
(0.043029 0.0174696 3.45385e-21)
(0.0422621 0.0182969 3.76639e-21)
(0.0415128 0.0192296 0)
(0.0395817 -0.0105068 0)
(0.0399086 -0.0104862 1.16914e-22)
(0.0402338 -0.0104557 -7.04776e-23)
(0.0405608 -0.0104161 6.206e-23)
(0.0408887 -0.0103656 0)
(0.0412169 -0.0103032 -4.64765e-22)
(0.0415455 -0.0102287 9.83799e-22)
(0.0418749 -0.010142 1.18422e-22)
(0.042205 -0.0100429 -1.55943e-21)
(0.0425359 -0.00993122 2.82341e-22)
(0.0428671 -0.00980689 -4.66155e-22)
(0.0431981 -0.0096697 -5.23308e-22)
(0.0435283 -0.0095195 1.65071e-21)
(0.0438572 -0.00935613 -2.38814e-21)
(0.0441841 -0.00917946 1.24627e-21)
(0.0445087 -0.00898936 -7.96963e-22)
(0.0448303 -0.00878572 3.03109e-21)
(0.0451485 -0.00856842 -7.12616e-22)
(0.0454628 -0.0083374 9.55219e-22)
(0.0457726 -0.00809258 -8.54063e-22)
(0.0460775 -0.00783392 1.03285e-22)
(0.0463769 -0.00756139 -6.08963e-21)
(0.0466702 -0.00727499 -1.11938e-21)
(0.0469569 -0.00697472 -9.75734e-23)
(0.0472364 -0.0066606 3.48621e-21)
(0.0475079 -0.0063327 -1.16224e-21)
(0.047771 -0.00599106 2.55792e-21)
(0.0480248 -0.00563576 -3.9188e-21)
(0.0482689 -0.00526691 0)
(0.0485026 -0.0048846 -1.4164e-21)
(0.0487252 -0.00448896 1.42071e-21)
(0.048936 -0.00408013 5.4851e-23)
(0.0491346 -0.00365824 -7.94942e-22)
(0.0493202 -0.00322345 -8.17742e-22)
(0.0494922 -0.0027759 2.47838e-21)
(0.0496501 -0.00231575 -1.64776e-21)
(0.0497933 -0.00184315 1.30537e-21)
(0.0499212 -0.00135828 -1.75314e-21)
(0.0500332 -0.000861269 8.9137e-22)
(0.0501288 -0.000352291 -2.22828e-22)
(0.0502075 0.000168579 0)
(0.0502687 0.000701151 2.41532e-22)
(0.0503115 0.00124471 -2.39299e-22)
(0.0503356 0.00179968 -4.854e-22)
(0.0503403 0.00236615 1.45357e-21)
(0.0503249 0.00294415 -9.92773e-22)
(0.0502887 0.0035337 -9.65666e-22)
(0.0502312 0.00413484 0)
(0.0501515 0.00474764 -3.95727e-21)
(0.0500488 0.00537219 3.88481e-21)
(0.0499225 0.0060086 -1.87657e-21)
(0.0497715 0.00665703 1.8695e-21)
(0.0495949 0.00731762 1.99669e-21)
(0.0493917 0.00799063 3.81642e-21)
(0.0491607 0.00867627 3.75918e-21)
(0.0489008 0.00937489 0)
(0.0486106 0.0100868 -4.01909e-21)
(0.0482887 0.0108122 0)
(0.0479336 0.0115516 1.36946e-22)
(0.0475437 0.0123051 -3.76452e-21)
(0.0471172 0.0130731 3.90129e-21)
(0.0466519 0.0138559 3.79265e-21)
(0.0461458 0.0146537 -4.08279e-21)
(0.0455964 0.015467 -1.48749e-22)
(0.0450019 0.0162963 1.24757e-22)
(0.0443571 0.0171401 1.19168e-20)
(0.0436677 0.0180066 4.19724e-21)
(0.0429036 0.0188668 4.10529e-21)
(0.0421591 0.0198348 -4.0674e-21)
(0.039567 -0.0110843 0)
(0.0399144 -0.0110632 0)
(0.0402614 -0.0110317 8.8269e-23)
(0.0406115 -0.0109907 -1.38406e-22)
(0.040963 -0.0109382 -1.70555e-22)
(0.0413148 -0.0108734 0)
(0.0416664 -0.0107957 0)
(0.0420178 -0.0107052 3.62433e-22)
(0.042369 -0.0106015 -8.41184e-22)
(0.04272 -0.0104846 -1.95717e-22)
(0.0430705 -0.0103542 2.51367e-21)
(0.0434204 -0.0102102 -5.42831e-22)
(0.0437691 -0.0100523 6.47268e-22)
(0.0441162 -0.00988054 -1.31072e-21)
(0.0444613 -0.00969468 7.86898e-22)
(0.0448038 -0.00949466 0)
(0.0451431 -0.00928038 0)
(0.0454786 -0.00905176 5.22561e-23)
(0.0458098 -0.00880872 -2.8894e-21)
(0.0461361 -0.00855123 9.7515e-22)
(0.0464569 -0.00827925 -1.12438e-21)
(0.0467716 -0.00799277 1.0792e-21)
(0.0470797 -0.00769181 1.1772e-21)
(0.0473805 -0.00737638 -1.12327e-21)
(0.0476735 -0.00704655 -1.23059e-21)
(0.047958 -0.00670237 0)
(0.0482334 -0.00634395 0)
(0.0484992 -0.00597138 2.12052e-21)
(0.0487546 -0.0055848 0)
(0.048999 -0.00518433 1.54764e-21)
(0.0492319 -0.00477014 -1.55179e-21)
(0.0494525 -0.00434238 -7.82074e-22)
(0.0496604 -0.00390124 8.04987e-22)
(0.0498547 -0.0034469 1.71657e-21)
(0.0500351 -0.00297954 -8.50349e-22)
(0.0502009 -0.00249934 -9.11496e-22)
(0.0503514 -0.0020065 9.49046e-22)
(0.0504862 -0.00150121 0)
(0.0506047 -0.000983634 0)
(0.0507064 -0.000453956 2.57321e-22)
(0.0507907 8.77268e-05 0)
(0.0508572 0.000641179 0)
(0.050905 0.00120578 -7.89396e-22)
(0.0509337 0.0017819 1.05388e-21)
(0.0509427 0.00236963 -5.38022e-22)
(0.0509314 0.00296898 1.00976e-21)
(0.0508992 0.00357999 0)
(0.0508454 0.0042027 3.17368e-21)
(0.0507693 0.00483718 -5.64793e-23)
(0.0506702 0.00548356 0)
(0.0505472 0.00614197 -4.17982e-21)
(0.0503994 0.00681261 -6.31394e-23)
(0.0502261 0.00749566 -4.10254e-21)
(0.0500261 0.0081914 -2.15611e-21)
(0.0497982 0.00890009 -4.1841e-21)
(0.0495414 0.00962209 4.16379e-21)
(0.0492544 0.0103577 4.04518e-21)
(0.0489356 0.0111073 0)
(0.0485836 0.0118712 -4.19882e-21)
(0.0481967 0.0126499 1.23964e-22)
(0.047773 0.0134435 0)
(0.0473107 0.0142526 0)
(0.0468075 0.0150774 4.10288e-21)
(0.046261 0.0159182 0)
(0.0456696 0.0167759 0)
(0.0450286 0.0176491 -4.31538e-21)
(0.0443433 0.0185445 -4.03551e-21)
(0.0435856 0.0194424 -4.56297e-21)
(0.0428402 0.0204157 0)
(0.0395522 -0.0117007 0)
(0.0399187 -0.0116788 0)
(0.0402856 -0.0116459 0)
(0.0406569 -0.011603 -1.67882e-22)
(0.0410307 -0.0115481 -3.03241e-22)
(0.0414057 -0.0114802 -1.37867e-22)
(0.0417811 -0.0113989 6.07771e-22)
(0.0421564 -0.011304 -3.69887e-22)
(0.0425312 -0.0111954 5.08702e-22)
(0.0429053 -0.0110728 1.07102e-21)
(0.0432782 -0.010936 0)
(0.0436497 -0.0107848 0)
(0.0440195 -0.0106189 -5.99786e-23)
(0.044387 -0.0104383 2.33222e-21)
(0.0447519 -0.0102429 -3.44467e-21)
(0.0451138 -0.0100325 -1.2581e-22)
(0.0454721 -0.00980703 1.8639e-21)
(0.0458262 -0.00956647 9.74863e-22)
(0.0461755 -0.00931075 -1.01334e-22)
(0.0465195 -0.00903985 0)
(0.0468575 -0.00875376 2.39051e-21)
(0.047189 -0.0084525 0)
(0.0475132 -0.00813611 2.61093e-21)
(0.0478295 -0.00780463 -4.07012e-21)
(0.0481374 -0.00745815 4.23577e-21)
(0.0484361 -0.00709676 1.52374e-21)
(0.0487252 -0.00672059 -2.32748e-21)
(0.0490039 -0.00632977 2.3761e-21)
(0.0492716 -0.00592446 -1.59179e-21)
(0.0495277 -0.00550483 0)
(0.0497715 -0.00507108 -1.73743e-21)
(0.0500026 -0.0046234 -9.59016e-22)
(0.0502202 -0.00416201 1.79162e-21)
(0.0504237 -0.00368713 -1.86404e-21)
(0.0506127 -0.00319898 9.63679e-22)
(0.0507865 -0.00269778 -9.686e-22)
(0.0509446 -0.00218376 -4.84432e-22)
(0.0510863 -0.00165714 5.30771e-22)
(0.0512113 -0.00111811 2.56843e-22)
(0.051319 -0.000566879 -7.91815e-22)
(0.0514089 -3.56695e-06 -7.08621e-23)
(0.0514806 0.000571522 0)
(0.0515333 0.00115788 2.69886e-22)
(0.0515665 0.00175584 -5.40855e-22)
(0.0515798 0.00236547 5.41669e-22)
(0.0515725 0.00298678 0)
(0.051544 0.0036198 0)
(0.0514938 0.0042646 1.16257e-21)
(0.0514212 0.00492126 -2.23129e-21)
(0.0513253 0.00558993 -4.55986e-21)
(0.0512055 0.00627076 8.96028e-21)
(0.051061 0.00696399 -2.30619e-21)
(0.0508907 0.00766985 2.23102e-21)
(0.0506937 0.00838865 2.1692e-21)
(0.050469 0.00912068 -4.48749e-21)
(0.0502152 0.00986635 4.46496e-21)
(0.0499312 0.010626 0)
(0.0496155 0.0114 -4.63439e-21)
(0.0492665 0.0121888 1.3675e-22)
(0.0488827 0.0129929 4.49092e-21)
(0.0484622 0.0138125 0)
(0.048003 0.0146481 0)
(0.0475031 0.0155002 0)
(0.04696 0.016369 9.33341e-21)
(0.0463724 0.0172554 4.80135e-21)
(0.0457352 0.0181577 4.52945e-21)
(0.0450553 0.019083 -9.17837e-21)
(0.044301 0.0200114 -3.1927e-22)
(0.0435752 0.0210221 4.88347e-21)
(0.0395395 -0.0123595 0)
(0.0399259 -0.0123365 -1.87258e-22)
(0.0403128 -0.012302 2.67796e-22)
(0.0407046 -0.0122568 -4.29673e-22)
(0.0410996 -0.012199 7.91844e-22)
(0.0414966 -0.0121275 3.87668e-22)
(0.0418947 -0.012042 4.60137e-22)
(0.0422934 -0.0119421 0)
(0.0426922 -0.0118279 -1.12104e-21)
(0.0430903 -0.0116989 -1.23757e-21)
(0.0434873 -0.011555 1.31622e-21)
(0.0438826 -0.011396 -8.09279e-22)
(0.0442756 -0.0112216 9.40301e-22)
(0.0446659 -0.0110317 -7.07482e-22)
(0.045053 -0.010826 -3.92121e-21)
(0.0454364 -0.0106047 -1.33962e-22)
(0.0458155 -0.0103674 -1.32014e-22)
(0.04619 -0.0101143 2.21982e-21)
(0.0465591 -0.00984516 1.15085e-21)
(0.0469222 -0.00956011 2.58871e-21)
(0.0472788 -0.00925911 -2.46635e-21)
(0.0476282 -0.00894222 0)
(0.0479698 -0.0086095 1.20789e-22)
(0.0483029 -0.00826103 0)
(0.0486269 -0.00789692 -1.49071e-21)
(0.048941 -0.00751731 -1.54456e-21)
(0.0492448 -0.00712235 7.98826e-22)
(0.0495375 -0.00671222 0)
(0.0498185 -0.00628711 9.1753e-22)
(0.0500871 -0.00584725 1.84068e-21)
(0.0503428 -0.00539285 -1.84429e-21)
(0.050585 -0.00492417 9.26357e-22)
(0.050813 -0.00444145 -1.99012e-21)
(0.0510263 -0.00394497 3.9919e-21)
(0.0512243 -0.00343498 -1.02359e-21)
(0.0514065 -0.00291175 0)
(0.0515723 -0.00237554 -5.60575e-22)
(0.0517213 -0.00182662 3.73966e-23)
(0.0518529 -0.00126519 8.43042e-22)
(0.0519666 -0.00069153 -7.1875e-22)
(0.0520622 -0.000105739 1.41595e-22)
(0.0521389 0.000491771 -4.54274e-22)
(0.0521963 0.00110064 2.97276e-22)
(0.0522339 0.00172113 0)
(0.0522512 0.0023533 0)
(0.0522477 0.00299716 0)
(0.0522228 0.00365274 1.23898e-21)
(0.052176 0.00432012 1.23877e-21)
(0.0521065 0.0049994 0)
(0.0520137 0.00569076 2.39552e-21)
(0.051897 0.00639439 2.53838e-21)
(0.0517553 0.00711055 2.47315e-21)
(0.051588 0.0078395 0)
(0.051394 0.00858162 0)
(0.0511721 0.00933723 -4.80278e-21)
(0.0509214 0.0101068 4.77786e-21)
(0.0506404 0.0108907 0)
(0.0503279 0.0116894 4.65489e-21)
(0.0499822 0.0125032 -4.66199e-21)
(0.0496018 0.0133329 -4.97886e-21)
(0.0491848 0.0141788 4.8511e-21)
(0.0487293 0.0150413 -4.83838e-21)
(0.0482333 0.0159211 0)
(0.0476944 0.0168183 -4.74884e-21)
(0.047111 0.0177338 1.76104e-22)
(0.0464775 0.0186657 -1.00797e-20)
(0.0458008 0.0196218 -1.01945e-20)
(0.0450442 0.0205769 9.90703e-21)
(0.0443398 0.0216163 -4.86779e-21)
(0.0395282 -0.0130642 -3.96269e-23)
(0.0399365 -0.0130401 0)
(0.0403449 -0.0130036 -8.3844e-23)
(0.0407583 -0.012956 7.62627e-22)
(0.0411751 -0.012895 -1.55114e-21)
(0.041594 -0.0128195 3.9377e-22)
(0.0420145 -0.0127291 -4.69288e-22)
(0.042436 -0.0126237 1.24601e-21)
(0.0428581 -0.0125031 -6.23564e-22)
(0.04328 -0.012367 -6.84833e-22)
(0.043701 -0.0122153 -8.54127e-22)
(0.0441205 -0.0120476 2.64303e-21)
(0.0445378 -0.0118638 -8.11289e-22)
(0.0449521 -0.0116637 3.16143e-21)
(0.0453629 -0.011447 1.17044e-21)
(0.0457696 -0.0112138 1.42657e-22)
(0.0461715 -0.010964 -2.35055e-21)
(0.0465681 -0.0106974 0)
(0.0469587 -0.010414 0)
(0.0473427 -0.010114 -1.46818e-21)
(0.0477195 -0.00979714 -1.40401e-21)
(0.0480884 -0.00946367 -3.1134e-21)
(0.0484488 -0.00911364 1.58462e-21)
(0.0488 -0.00874716 3.34848e-21)
(0.0491412 -0.00836437 -3.34462e-21)
(0.049472 -0.00796545 9.16376e-22)
(0.0497916 -0.00755059 9.45064e-22)
(0.0500993 -0.00712001 0)
(0.0503945 -0.00667396 -9.28489e-22)
(0.0506765 -0.00621268 -2.00444e-21)
(0.0509449 -0.00573647 -4.88988e-23)
(0.0511988 -0.00524561 2.06078e-21)
(0.0514379 -0.0047404 -1.10824e-21)
(0.0516614 -0.00422117 0)
(0.0518689 -0.00368821 5.79904e-22)
(0.0520598 -0.00314185 -5.92607e-22)
(0.0522337 -0.00258239 5.65395e-22)
(0.05239 -0.00201014 -1.19529e-21)
(0.0525283 -0.00142535 0)
(0.0526481 -0.000828318 -1.60693e-22)
(0.0527492 -0.000219166 1.58635e-22)
(0.052831 0.000401578 -2.49259e-22)
(0.052893 0.00103371 9.6242e-22)
(0.0529348 0.00167742 -1.92656e-21)
(0.0529559 0.00233276 1.27734e-21)
(0.052956 0.00299973 1.28868e-21)
(0.0529344 0.00367837 -1.19779e-21)
(0.0528906 0.00436877 2.65499e-21)
(0.0528241 0.00507107 -2.55544e-21)
(0.0527342 0.00578546 -6.38065e-21)
(0.0526203 0.00651217 6.78117e-23)
(0.0524815 0.0072515 -2.48402e-21)
(0.0523169 0.00800378 0)
(0.0521258 0.0087694 0)
(0.051907 0.00954877 -5.13017e-21)
(0.0516594 0.0103424 7.59495e-21)
(0.0513817 0.0111506 -5.10608e-21)
(0.0510726 0.0119741 0)
(0.0507306 0.0128133 5.30042e-21)
(0.0503542 0.0136688 1.01597e-20)
(0.0499414 0.0145411 -4.99889e-21)
(0.0494905 0.0154309 -3.66278e-23)
(0.0489994 0.0163386 5.18765e-21)
(0.0484657 0.0172647 -1.49512e-22)
(0.0478869 0.0182099 -1.05292e-20)
(0.0472577 0.0191729 1.04149e-20)
(0.0465829 0.0201611 5.16834e-21)
(0.0458261 0.0211468 0)
(0.0451291 0.0222395 0)
(0.0395172 -0.0138186 4.04656e-23)
(0.0399493 -0.0137932 6.07496e-22)
(0.0403813 -0.0137547 -4.81974e-22)
(0.0408182 -0.0137043 0)
(0.0412585 -0.0136398 -2.04073e-22)
(0.0417008 -0.0135599 -1.14775e-21)
(0.0421447 -0.0134643 8.07319e-22)
(0.0425897 -0.0133528 -1.83657e-21)
(0.0430353 -0.0132252 1.45412e-21)
(0.043481 -0.0130814 0)
(0.043926 -0.012921 3.7958e-22)
(0.0443696 -0.0127438 0)
(0.0448112 -0.0125497 1.20347e-21)
(0.0452498 -0.0123383 -3.2916e-21)
(0.0456849 -0.0121097 0)
(0.0461156 -0.0118636 0)
(0.0465413 -0.0116001 0)
(0.0469613 -0.011319 -2.17016e-21)
(0.0473747 -0.0110203 2.90447e-21)
(0.047781 -0.0107041 1.48977e-21)
(0.0481794 -0.0103704 0)
(0.0485692 -0.0100192 0)
(0.0489497 -0.00965068 0)
(0.0493203 -0.00926501 -4.62095e-21)
(0.0496801 -0.00886235 5.5715e-21)
(0.0500286 -0.0084429 -2.82451e-21)
(0.0503651 -0.00800691 -1.99006e-21)
(0.0506888 -0.00755464 2.07129e-21)
(0.0509991 -0.00708637 -2.07178e-21)
(0.0512954 -0.00660242 1.11976e-21)
(0.0515771 -0.00610312 -2.23481e-21)
(0.0518435 -0.00558883 1.06372e-21)
(0.0520942 -0.00505988 2.32071e-21)
(0.0523284 -0.00451666 1.22824e-21)
(0.0525457 -0.00395954 -5.85026e-22)
(0.0527457 -0.00338888 5.97574e-22)
(0.0529278 -0.00280504 0)