/*--------------------------------*- C++ -*----------------------------------*\
| =========                 |                                                 |
| \\      /  F ield         | OpenFOAM: The Open Source CFD Toolbox           |
|  \\    /   O peration     | Version:  2312                                  |
|   \\  /    A nd           | Website:  www.openfoam.com                      |
|    \\/     M anipulation  |                                                 |
\*---------------------------------------------------------------------------*/
FoamFile
{
    version     2.0;
    format      ascii;
    arch        "LSB;label=32;scalar=64";
    class       volScalarField;
    location    "1900";
    object      k;
}
// * * * * * * * * * * * * * * * * * * * * * * * * * * * * * * * * * * * * * //

dimensions      [0 2 -2 0 0 0 0];

internalField   nonuniform List<scalar> 
76025
(
4.7951e-06
4.79931e-06
4.80332e-06
4.80734e-06
4.80718e-06
4.80738e-06
4.80675e-06
4.8089e-06
4.81126e-06
4.81447e-06
4.81696e-06
4.81963e-06
4.82337e-06
4.82688e-06
4.83173e-06
4.83624e-06
4.84077e-06
4.84526e-06
4.84906e-06
4.85339e-06
4.85739e-06
4.86187e-06
4.86537e-06
4.86922e-06
4.87267e-06
4.87597e-06
4.87984e-06
4.88261e-06
4.88683e-06
4.89002e-06
4.89339e-06
4.89794e-06
4.90187e-06
4.90756e-06
4.91285e-06
4.91887e-06
4.92581e-06
4.93198e-06
4.93942e-06
4.9469e-06
4.95569e-06
4.96602e-06
4.97692e-06
4.98943e-06
5.00332e-06
5.01961e-06
5.0379e-06
5.05913e-06
5.08437e-06
5.11183e-06
5.1433e-06
5.17595e-06
5.21167e-06
5.24856e-06
5.29518e-06
5.34254e-06
5.40154e-06
5.46852e-06
5.54768e-06
5.63562e-06
5.72795e-06
5.83156e-06
5.95356e-06
6.0763e-06
6.22459e-06
6.37521e-06
6.58472e-06
6.73408e-06
7.18737e-06
4.82624e-06
4.82891e-06
4.83203e-06
4.83585e-06
4.83884e-06
4.84183e-06
4.84362e-06
4.84554e-06
4.84734e-06
4.84951e-06
4.85174e-06
4.854e-06
4.85651e-06
4.8592e-06
4.86235e-06
4.86588e-06
4.86961e-06
4.87357e-06
4.8774e-06
4.88121e-06
4.8849e-06
4.88868e-06
4.89234e-06
4.89595e-06
4.89965e-06
4.90307e-06
4.90686e-06
4.91051e-06
4.91447e-06
4.9186e-06
4.92291e-06
4.9274e-06
4.93225e-06
4.93766e-06
4.94381e-06
4.95059e-06
4.95805e-06
4.9661e-06
4.97531e-06
4.98546e-06
4.99707e-06
5.00954e-06
5.02327e-06
5.03822e-06
5.05519e-06
5.07443e-06
5.09636e-06
5.12128e-06
5.14914e-06
5.17879e-06
5.20968e-06
5.24188e-06
5.27637e-06
5.31584e-06
5.36132e-06
5.41533e-06
5.47811e-06
5.54954e-06
5.6298e-06
5.71787e-06
5.81607e-06
5.92741e-06
6.04286e-06
6.17595e-06
6.33012e-06
6.49622e-06
6.70213e-06
6.91798e-06
7.64773e-06
4.86662e-06
4.86726e-06
4.8682e-06
4.86976e-06
4.87156e-06
4.87383e-06
4.87608e-06
4.87838e-06
4.8806e-06
4.88278e-06
4.88495e-06
4.88715e-06
4.88948e-06
4.8919e-06
4.89458e-06
4.89747e-06
4.90061e-06
4.9039e-06
4.90735e-06
4.91087e-06
4.91444e-06
4.91807e-06
4.9218e-06
4.92554e-06
4.92949e-06
4.93344e-06
4.93761e-06
4.94196e-06
4.94658e-06
4.95148e-06
4.95679e-06
4.96244e-06
4.96866e-06
4.97545e-06
4.98305e-06
4.99141e-06
5.00066e-06
5.01076e-06
5.02194e-06
5.03407e-06
5.04736e-06
5.06157e-06
5.0772e-06
5.09424e-06
5.1137e-06
5.13573e-06
5.16072e-06
5.18779e-06
5.21671e-06
5.246e-06
5.27675e-06
5.30917e-06
5.3465e-06
5.38933e-06
5.44044e-06
5.49893e-06
5.56565e-06
5.63934e-06
5.72004e-06
5.8089e-06
5.9057e-06
6.01571e-06
6.13564e-06
6.27705e-06
6.42613e-06
6.6074e-06
6.79968e-06
7.0662e-06
7.91495e-06
4.90537e-06
4.90706e-06
4.90823e-06
4.90919e-06
4.91009e-06
4.91119e-06
4.91254e-06
4.91417e-06
4.91598e-06
4.91789e-06
4.91985e-06
4.92186e-06
4.92399e-06
4.92621e-06
4.9286e-06
4.93116e-06
4.93391e-06
4.93687e-06
4.94004e-06
4.94343e-06
4.94707e-06
4.95092e-06
4.95502e-06
4.95933e-06
4.96389e-06
4.96866e-06
4.97368e-06
4.979e-06
4.98472e-06
4.99082e-06
4.99747e-06
5.00464e-06
5.01247e-06
5.02093e-06
5.03016e-06
5.04008e-06
5.05083e-06
5.06236e-06
5.07479e-06
5.08809e-06
5.10251e-06
5.11813e-06
5.13535e-06
5.1545e-06
5.17631e-06
5.20084e-06
5.22759e-06
5.25543e-06
5.28412e-06
5.31358e-06
5.34552e-06
5.38126e-06
5.42319e-06
5.47167e-06
5.52784e-06
5.59039e-06
5.65971e-06
5.73474e-06
5.81617e-06
5.9056e-06
6.00275e-06
6.11635e-06
6.2401e-06
6.39082e-06
6.54995e-06
6.74306e-06
6.9394e-06
7.33997e-06
9.04667e-06
4.94037e-06
4.94386e-06
4.9467e-06
4.94888e-06
4.95053e-06
4.95188e-06
4.95313e-06
4.95444e-06
4.95591e-06
4.95754e-06
4.95928e-06
4.96114e-06
4.96315e-06
4.96533e-06
4.96768e-06
4.97021e-06
4.9729e-06
4.97578e-06
4.9789e-06
4.98227e-06
4.98594e-06
4.98993e-06
4.99425e-06
4.99893e-06
5.00395e-06
5.00935e-06
5.01511e-06
5.02133e-06
5.02809e-06
5.0354e-06
5.04342e-06
5.05206e-06
5.06145e-06
5.07142e-06
5.08207e-06
5.09328e-06
5.10513e-06
5.11768e-06
5.13103e-06
5.14533e-06
5.16087e-06
5.1779e-06
5.19678e-06
5.21791e-06
5.24154e-06
5.26732e-06
5.29446e-06
5.32247e-06
5.35202e-06
5.384e-06
5.42037e-06
5.46192e-06
5.51017e-06
5.5643e-06
5.62498e-06
5.69059e-06
5.76199e-06
5.83828e-06
5.9209e-06
6.01133e-06
6.1108e-06
6.22667e-06
6.35667e-06
6.51521e-06
6.67994e-06
6.85114e-06
7.13906e-06
7.80488e-06
1.16154e-05
4.976e-06
4.97994e-06
4.98375e-06
4.98717e-06
4.99016e-06
4.99277e-06
4.99503e-06
4.99708e-06
4.999e-06
5.0009e-06
5.00281e-06
5.00476e-06
5.00685e-06
5.00911e-06
5.01161e-06
5.01432e-06
5.01723e-06
5.02034e-06
5.02365e-06
5.02721e-06
5.03107e-06
5.0353e-06
5.03993e-06
5.04502e-06
5.05056e-06
5.05661e-06
5.06318e-06
5.07032e-06
5.07809e-06
5.08641e-06
5.09538e-06
5.10488e-06
5.11499e-06
5.12561e-06
5.13679e-06
5.1486e-06
5.16106e-06
5.17444e-06
5.18878e-06
5.20437e-06
5.22137e-06
5.24016e-06
5.26086e-06
5.28374e-06
5.30851e-06
5.33511e-06
5.36318e-06
5.39336e-06
5.42662e-06
5.46411e-06
5.50673e-06
5.55477e-06
5.60853e-06
5.66717e-06
5.73103e-06
5.79908e-06
5.87227e-06
5.9505e-06
6.03534e-06
6.12895e-06
6.23293e-06
6.35498e-06
6.49477e-06
6.65833e-06
6.82922e-06
6.99015e-06
7.469e-06
8.90494e-06
1.77346e-05
5.01775e-06
5.02096e-06
5.02443e-06
5.02798e-06
5.0315e-06
5.03496e-06
5.0383e-06
5.04147e-06
5.04452e-06
5.04741e-06
5.05022e-06
5.05292e-06
5.0556e-06
5.05828e-06
5.06105e-06
5.06393e-06
5.06697e-06
5.07021e-06
5.07367e-06
5.07741e-06
5.0815e-06
5.086e-06
5.09096e-06
5.0964e-06
5.10239e-06
5.10891e-06
5.11606e-06
5.12384e-06
5.13225e-06
5.14125e-06
5.1508e-06
5.1609e-06
5.17153e-06
5.1828e-06
5.19472e-06
5.2075e-06
5.22116e-06
5.23599e-06
5.25192e-06
5.2693e-06
5.28813e-06
5.30884e-06
5.33124e-06
5.35569e-06
5.382e-06
5.41079e-06
5.4422e-06
5.47705e-06
5.51581e-06
5.55926e-06
5.60741e-06
5.66035e-06
5.71797e-06
5.7798e-06
5.8462e-06
5.91671e-06
5.99257e-06
6.0742e-06
6.16332e-06
6.26241e-06
6.37355e-06
6.50346e-06
6.65382e-06
6.81797e-06
6.98806e-06
7.17431e-06
8.04278e-06
1.12738e-05
2.82542e-05
5.06591e-06
5.06834e-06
5.07107e-06
5.07402e-06
5.07719e-06
5.08061e-06
5.0842e-06
5.0879e-06
5.09169e-06
5.09549e-06
5.09931e-06
5.10308e-06
5.10681e-06
5.11049e-06
5.11415e-06
5.11786e-06
5.12165e-06
5.12562e-06
5.12979e-06
5.13423e-06
5.13899e-06
5.14408e-06
5.14958e-06
5.15546e-06
5.16181e-06
5.1686e-06
5.17597e-06
5.18396e-06
5.19261e-06
5.20198e-06
5.21204e-06
5.22289e-06
5.23449e-06
5.24696e-06
5.26025e-06
5.27458e-06
5.28985e-06
5.30639e-06
5.324e-06
5.34316e-06
5.36375e-06
5.38629e-06
5.4106e-06
5.43739e-06
5.4666e-06
5.49918e-06
5.53512e-06
5.57509e-06
5.61882e-06
5.66701e-06
5.71922e-06
5.7758e-06
5.8365e-06
5.90131e-06
5.97067e-06
6.04473e-06
6.1249e-06
6.21192e-06
6.30759e-06
6.41445e-06
6.53493e-06
6.67518e-06
6.83517e-06
6.99306e-06
7.19246e-06
7.47962e-06
9.0923e-06
1.56314e-05
4.4965e-05
5.12183e-06
5.12405e-06
5.12644e-06
5.12896e-06
5.13167e-06
5.13466e-06
5.13792e-06
5.14145e-06
5.14523e-06
5.14924e-06
5.15346e-06
5.15783e-06
5.16229e-06
5.16682e-06
5.17135e-06
5.1759e-06
5.18048e-06
5.18516e-06
5.19001e-06
5.19506e-06
5.20041e-06
5.20606e-06
5.21207e-06
5.21846e-06
5.22531e-06
5.23266e-06
5.24063e-06
5.24932e-06
5.25873e-06
5.26899e-06
5.28005e-06
5.29205e-06
5.30491e-06
5.31885e-06
5.33376e-06
5.34991e-06
5.36715e-06
5.38582e-06
5.40567e-06
5.42726e-06
5.45038e-06
5.47567e-06
5.50293e-06
5.53302e-06
5.56579e-06
5.60221e-06
5.64205e-06
5.68609e-06
5.73351e-06
5.78519e-06
5.84057e-06
5.90039e-06
5.96437e-06
6.0329e-06
6.10661e-06
6.18602e-06
6.27264e-06
6.3672e-06
6.47143e-06
6.58819e-06
6.71939e-06
6.87343e-06
7.03638e-06
7.20348e-06
7.50772e-06
8.03849e-06
1.10039e-05
2.32533e-05
6.90848e-05
5.18351e-06
5.1859e-06
5.18841e-06
5.19097e-06
5.19368e-06
5.1966e-06
5.19973e-06
5.20305e-06
5.20662e-06
5.21042e-06
5.21449e-06
5.21884e-06
5.22349e-06
5.22842e-06
5.23363e-06
5.23909e-06
5.2448e-06
5.25071e-06
5.25685e-06
5.26319e-06
5.26977e-06
5.2766e-06
5.28372e-06
5.29119e-06
5.29906e-06
5.30744e-06
5.31646e-06
5.32625e-06
5.33683e-06
5.34832e-06
5.3607e-06
5.37415e-06
5.38864e-06
5.40439e-06
5.42132e-06
5.43965e-06
5.45919e-06
5.4802e-06
5.50242e-06
5.52639e-06
5.55186e-06
5.5795e-06
5.60916e-06
5.64175e-06
5.67718e-06
5.71644e-06
5.75916e-06
5.80642e-06
5.85719e-06
5.91239e-06
5.97151e-06
6.03552e-06
6.10413e-06
6.17796e-06
6.25784e-06
6.34441e-06
6.43916e-06
6.54249e-06
6.65673e-06
6.78426e-06
6.9298e-06
7.09883e-06
7.27211e-06
7.49768e-06
8.01467e-06
9.04014e-06
1.46644e-05
3.54854e-05
0.000100576
5.25274e-06
5.25548e-06
5.25832e-06
5.26119e-06
5.2642e-06
5.26742e-06
5.27084e-06
5.27441e-06
5.27812e-06
5.28197e-06
5.28599e-06
5.29024e-06
5.29474e-06
5.29955e-06
5.30473e-06
5.31028e-06
5.3163e-06
5.32273e-06
5.32966e-06
5.337e-06
5.34479e-06
5.35296e-06
5.36153e-06
5.3705e-06
5.3799e-06
5.38981e-06
5.40035e-06
5.41165e-06
5.42376e-06
5.43681e-06
5.45083e-06
5.46604e-06
5.4825e-06
5.50041e-06
5.51967e-06
5.5404e-06
5.5623e-06
5.58551e-06
5.60984e-06
5.63576e-06
5.6631e-06
5.69262e-06
5.72436e-06
5.75926e-06
5.79738e-06
5.83963e-06
5.88578e-06
5.93661e-06
5.99172e-06
6.05162e-06
6.11579e-06
6.18529e-06
6.25984e-06
6.34021e-06
6.42756e-06
6.52229e-06
6.62581e-06
6.73872e-06
6.86395e-06
7.0051e-06
7.17307e-06
7.36e-06
7.588e-06
7.91895e-06
8.84431e-06
1.09249e-05
2.13802e-05
5.46616e-05
0.000128253
5.32815e-06
5.33142e-06
5.33482e-06
5.33825e-06
5.3418e-06
5.34561e-06
5.34965e-06
5.35391e-06
5.35831e-06
5.36283e-06
5.36744e-06
5.37223e-06
5.37718e-06
5.38238e-06
5.38789e-06
5.39371e-06
5.4e-06
5.40669e-06
5.41396e-06
5.42171e-06
5.4301e-06
5.43903e-06
5.44856e-06
5.4587e-06
5.46944e-06
5.48085e-06
5.49307e-06
5.50613e-06
5.52012e-06
5.53512e-06
5.55112e-06
5.5683e-06
5.58666e-06
5.60637e-06
5.62727e-06
5.64951e-06
5.67275e-06
5.69726e-06
5.72297e-06
5.75042e-06
5.77965e-06
5.8115e-06
5.84616e-06
5.8845e-06
5.92661e-06
5.9732e-06
6.02408e-06
6.07996e-06
6.14047e-06
6.20627e-06
6.27648e-06
6.35228e-06
6.43362e-06
6.52138e-06
6.61707e-06
6.7203e-06
6.83301e-06
6.95695e-06
7.09592e-06
7.26105e-06
7.46275e-06
7.68373e-06
8.04543e-06
8.51843e-06
1.02926e-05
1.46883e-05
3.29872e-05
8.56053e-05
0.000148703
5.41498e-06
5.41883e-06
5.42281e-06
5.4268e-06
5.4309e-06
5.43521e-06
5.43977e-06
5.44456e-06
5.44957e-06
5.45475e-06
5.46009e-06
5.46563e-06
5.47138e-06
5.47741e-06
5.48379e-06
5.49047e-06
5.49758e-06
5.50506e-06
5.51302e-06
5.52143e-06
5.53041e-06
5.53997e-06
5.55016e-06
5.56104e-06
5.5726e-06
5.58496e-06
5.59816e-06
5.61227e-06
5.62728e-06
5.64327e-06
5.66021e-06
5.6782e-06
5.69721e-06
5.71743e-06
5.73876e-06
5.7615e-06
5.78549e-06
5.81127e-06
5.83891e-06
5.86906e-06
5.90181e-06
5.93794e-06
5.97753e-06
6.02118e-06
6.06894e-06
6.12122e-06
6.17791e-06
6.23968e-06
6.30589e-06
6.37797e-06
6.45463e-06
6.53743e-06
6.62645e-06
6.7225e-06
6.82714e-06
6.93912e-06
7.06301e-06
7.2024e-06
7.36508e-06
7.57396e-06
7.81514e-06
8.10868e-06
8.70551e-06
9.46255e-06
1.31436e-05
2.21625e-05
5.25897e-05
0.000114221
0.000167431
5.51188e-06
5.51664e-06
5.52151e-06
5.52635e-06
5.53123e-06
5.53625e-06
5.54144e-06
5.54681e-06
5.55236e-06
5.5581e-06
5.56403e-06
5.57018e-06
5.57658e-06
5.58328e-06
5.59034e-06
5.59776e-06
5.60558e-06
5.61378e-06
5.62242e-06
5.63146e-06
5.64101e-06
5.65108e-06
5.66175e-06
5.67306e-06
5.68508e-06
5.69791e-06
5.7116e-06
5.72621e-06
5.74178e-06
5.75836e-06
5.77598e-06
5.79477e-06
5.81476e-06
5.83617e-06
5.85905e-06
5.88373e-06
5.91022e-06
5.93914e-06
5.97059e-06
6.00509e-06
6.04274e-06
6.08408e-06
6.12909e-06
6.17822e-06
6.23149e-06
6.28925e-06
6.35149e-06
6.41886e-06
6.49098e-06
6.56915e-06
6.65304e-06
6.74383e-06
6.84124e-06
6.94588e-06
7.05978e-06
7.18272e-06
7.32459e-06
7.49019e-06
7.69991e-06
7.96137e-06
8.26217e-06
8.69943e-06
9.76729e-06
1.14302e-05
1.90346e-05
3.63192e-05
8.41351e-05
0.000135677
0.000182071
5.62172e-06
5.62748e-06
5.63336e-06
5.63922e-06
5.6451e-06
5.65106e-06
5.65713e-06
5.66329e-06
5.66956e-06
5.67595e-06
5.68248e-06
5.68916e-06
5.69605e-06
5.70317e-06
5.7106e-06
5.71834e-06
5.72649e-06
5.735e-06
5.74397e-06
5.75337e-06
5.7633e-06
5.77376e-06
5.78486e-06
5.79662e-06
5.80914e-06
5.82256e-06
5.83689e-06
5.85228e-06
5.86875e-06
5.88644e-06
5.90542e-06
5.92585e-06
5.94782e-06
5.97157e-06
5.99722e-06
6.02503e-06
6.05517e-06
6.08812e-06
6.124e-06
6.16317e-06
6.20576e-06
6.25207e-06
6.30222e-06
6.35647e-06
6.41503e-06
6.47819e-06
6.54615e-06
6.61963e-06
6.69824e-06
6.78394e-06
6.87511e-06
6.97405e-06
7.07923e-06
7.19281e-06
7.32006e-06
7.46327e-06
7.63784e-06
7.85249e-06
8.13445e-06
8.43991e-06
8.91479e-06
9.60146e-06
1.18324e-05
1.61886e-05
3.07228e-05
6.24055e-05
0.000108975
0.000150831
0.000189912
5.74459e-06
5.75105e-06
5.75771e-06
5.76439e-06
5.77113e-06
5.77799e-06
5.78495e-06
5.79198e-06
5.79908e-06
5.80625e-06
5.8135e-06
5.82083e-06
5.82831e-06
5.83593e-06
5.84379e-06
5.85191e-06
5.86038e-06
5.86923e-06
5.87853e-06
5.88834e-06
5.89872e-06
5.90975e-06
5.9215e-06
5.93404e-06
5.9475e-06
5.96199e-06
5.9776e-06
5.99445e-06
6.01264e-06
6.03228e-06
6.0535e-06
6.07645e-06
6.10129e-06
6.12818e-06
6.15733e-06
6.18883e-06
6.22311e-06
6.26035e-06
6.3008e-06
6.34462e-06
6.39207e-06
6.44323e-06
6.49853e-06
6.5579e-06
6.62205e-06
6.69095e-06
6.76533e-06
6.84553e-06
6.93134e-06
7.02483e-06
7.12225e-06
7.22978e-06
7.34449e-06
7.47518e-06
7.63021e-06
7.81088e-06
8.0449e-06
8.34159e-06
8.67554e-06
9.08711e-06
9.96442e-06
1.14824e-05
1.66193e-05
2.72914e-05
5.36858e-05
9.07305e-05
0.000122092
0.000158862
0.000192141
5.88954e-06
5.89661e-06
5.90389e-06
5.91115e-06
5.91851e-06
5.92596e-06
5.93357e-06
5.94125e-06
5.94906e-06
5.95692e-06
5.9649e-06
5.97293e-06
5.9811e-06
5.98939e-06
5.99787e-06
6.0066e-06
6.01564e-06
6.02509e-06
6.03501e-06
6.04553e-06
6.05668e-06
6.06861e-06
6.08136e-06
6.09507e-06
6.10986e-06
6.12586e-06
6.14317e-06
6.16192e-06
6.18224e-06
6.20423e-06
6.2281e-06
6.25389e-06
6.28189e-06
6.31211e-06
6.34486e-06
6.38016e-06
6.41855e-06
6.45998e-06
6.50486e-06
6.55316e-06
6.60536e-06
6.66138e-06
6.72192e-06
6.7868e-06
6.85711e-06
6.93247e-06
7.01396e-06
7.10138e-06
7.19415e-06
7.29518e-06
7.40011e-06
7.52458e-06
7.65967e-06
7.82911e-06
8.02948e-06
8.27404e-06
8.60397e-06
8.9393e-06
9.39623e-06
1.00743e-05
1.22235e-05
1.67093e-05
2.79974e-05
5.15578e-05
7.77944e-05
0.000100411
0.000128207
0.00016204
0.000191844
6.05543e-06
6.06329e-06
6.07131e-06
6.07927e-06
6.08725e-06
6.09531e-06
6.10346e-06
6.11171e-06
6.12005e-06
6.1285e-06
6.13708e-06
6.14581e-06
6.1547e-06
6.16382e-06
6.17318e-06
6.18285e-06
6.1929e-06
6.20342e-06
6.2145e-06
6.22623e-06
6.23873e-06
6.2521e-06
6.26643e-06
6.28189e-06
6.2986e-06
6.31669e-06
6.33626e-06
6.35747e-06
6.38041e-06
6.40521e-06
6.43204e-06
6.46097e-06
6.49227e-06
6.52596e-06
6.56232e-06
6.60151e-06
6.64396e-06
6.68962e-06
6.73898e-06
6.79199e-06
6.8493e-06
6.9108e-06
6.97744e-06
7.04886e-06
7.1264e-06
7.20888e-06
7.29755e-06
7.3917e-06
7.49166e-06
7.60622e-06
7.73024e-06
7.89012e-06
8.06323e-06
8.29683e-06
8.55897e-06
8.90001e-06
9.26101e-06
9.70024e-06
1.06427e-05
1.26184e-05
1.84441e-05
3.05144e-05
5.36472e-05
7.06156e-05
8.54509e-05
0.000103253
0.000130986
0.00016356
0.000189993
6.25273e-06
6.26153e-06
6.27043e-06
6.27921e-06
6.28793e-06
6.29666e-06
6.30542e-06
6.31422e-06
6.32309e-06
6.33204e-06
6.34115e-06
6.35042e-06
6.35995e-06
6.36974e-06
6.37991e-06
6.39046e-06
6.40157e-06
6.41321e-06
6.42561e-06
6.43872e-06
6.45282e-06
6.46784e-06
6.48406e-06
6.50149e-06
6.5204e-06
6.54076e-06
6.56283e-06
6.58659e-06
6.61231e-06
6.64e-06
6.66991e-06
6.70207e-06
6.73679e-06
6.77402e-06
6.81422e-06
6.85748e-06
6.90425e-06
6.95457e-06
7.00896e-06
7.06755e-06
7.13097e-06
7.19924e-06
7.27318e-06
7.35202e-06
7.43687e-06
7.52611e-06
7.62203e-06
7.72819e-06
7.84774e-06
7.99271e-06
8.15763e-06
8.36983e-06
8.60591e-06
8.91625e-06
9.23928e-06
9.63244e-06
1.00834e-05
1.13734e-05
1.40426e-05
2.07602e-05
3.52368e-05
5.35986e-05
6.47785e-05
7.45012e-05
8.64825e-05
0.000105574
0.000133804
0.000163665
0.000185025
6.48183e-06
6.49184e-06
6.50198e-06
6.51197e-06
6.5219e-06
6.5318e-06
6.54172e-06
6.55164e-06
6.56164e-06
6.57171e-06
6.58197e-06
6.59243e-06
6.60324e-06
6.61438e-06
6.62603e-06
6.63815e-06
6.65096e-06
6.66438e-06
6.67866e-06
6.6937e-06
6.70981e-06
6.72685e-06
6.7452e-06
6.7648e-06
6.78596e-06
6.80863e-06
6.83315e-06
6.8594e-06
6.88776e-06
6.91815e-06
6.95098e-06
6.98617e-06
7.02422e-06
7.06498e-06
7.10925e-06
7.15688e-06
7.20864e-06
7.26447e-06
7.32509e-06
7.39068e-06
7.46145e-06
7.5376e-06
7.61883e-06
7.70511e-06
7.79712e-06
7.89927e-06
8.01469e-06
8.15069e-06
8.31114e-06
8.5086e-06
8.72885e-06
9.0093e-06
9.30804e-06
9.65823e-06
1.00058e-05
1.07545e-05
1.2314e-05
1.65384e-05
2.50562e-05
4.20782e-05
5.2707e-05
6.05058e-05
6.6495e-05
7.35085e-05
8.57035e-05
0.000107241
0.000135315
0.000161403
0.000177892
6.75865e-06
6.76933e-06
6.78012e-06
6.7908e-06
6.80137e-06
6.81198e-06
6.82261e-06
6.83331e-06
6.8441e-06
6.85503e-06
6.86619e-06
6.8776e-06
6.88941e-06
6.90161e-06
6.91439e-06
6.92771e-06
6.94183e-06
6.95666e-06
6.9725e-06
6.98925e-06
7.0072e-06
7.02631e-06
7.0469e-06
7.06891e-06
7.09266e-06
7.11807e-06
7.14553e-06
7.17497e-06
7.20684e-06
7.24098e-06
7.27799e-06
7.31761e-06
7.36061e-06
7.40667e-06
7.45699e-06
7.51102e-06
7.57005e-06
7.63357e-06
7.70247e-06
7.77628e-06
7.85491e-06
7.93901e-06
8.02822e-06
8.12899e-06
8.24136e-06
8.3753e-06
8.53052e-06
8.71889e-06
8.93275e-06
9.18679e-06
9.46103e-06
9.76843e-06
1.01036e-05
1.05686e-05
1.16274e-05
1.41623e-05
2.00611e-05
3.14977e-05
4.41351e-05
5.0823e-05
5.54038e-05
6.03575e-05
6.19966e-05
6.88603e-05
8.55599e-05
0.000109143
0.000135086
0.000157277
0.000169906
7.09324e-06
7.10595e-06
7.11871e-06
7.13126e-06
7.14368e-06
7.15604e-06
7.16843e-06
7.18081e-06
7.19333e-06
7.20595e-06
7.21886e-06
7.23205e-06
7.24571e-06
7.25983e-06
7.27463e-06
7.29006e-06
7.30639e-06
7.32354e-06
7.34181e-06
7.36111e-06
7.38174e-06
7.40371e-06
7.42726e-06
7.45238e-06
7.47935e-06
7.50814e-06
7.53902e-06
7.57194e-06
7.60741e-06
7.64529e-06
7.68641e-06
7.73044e-06
7.77853e-06
7.83025e-06
7.88703e-06
7.94798e-06
8.01463e-06
8.08538e-06
8.16198e-06
8.24251e-06
8.33073e-06
8.42999e-06
8.54232e-06
8.67643e-06
8.82966e-06
9.01558e-06
9.21978e-06
9.45046e-06
9.71632e-06
9.97025e-06
1.02912e-05
1.065e-05
1.15904e-05
1.32209e-05
1.74177e-05
2.49387e-05
3.81161e-05
4.38487e-05
4.90154e-05
5.04756e-05
4.96031e-05
4.98476e-05
5.52734e-05
6.78418e-05
8.67004e-05
0.000109767
0.000133182
0.00015227
0.000162028
7.50143e-06
7.51499e-06
7.52875e-06
7.54237e-06
7.55593e-06
7.56952e-06
7.5832e-06
7.59698e-06
7.61094e-06
7.62513e-06
7.63966e-06
7.65462e-06
7.67011e-06
7.68625e-06
7.70312e-06
7.72086e-06
7.73954e-06
7.75933e-06
7.78025e-06
7.80252e-06
7.82621e-06
7.8515e-06
7.87846e-06
7.90727e-06
7.93806e-06
7.97108e-06
8.00661e-06
8.04481e-06
8.08608e-06
8.13042e-06
8.17861e-06
8.23021e-06
8.28666e-06
8.34683e-06
8.4119e-06
8.48113e-06
8.55628e-06
8.63392e-06
8.72374e-06
8.82071e-06
8.93751e-06
9.06991e-06
9.22696e-06
9.40568e-06
9.60076e-06
9.81598e-06
1.00518e-05
1.02652e-05
1.06081e-05
1.09512e-05
1.18801e-05
1.31783e-05
1.65617e-05
2.13829e-05
3.24619e-05
3.84497e-05
4.44293e-05
4.44882e-05
4.28898e-05
3.86617e-05
3.91582e-05
4.4284e-05
5.44754e-05
6.92598e-05
8.82046e-05
0.000109663
0.000130636
0.000147126
0.000154933
8.03256e-06
8.04962e-06
8.06678e-06
8.08377e-06
8.10067e-06
8.11765e-06
8.1347e-06
8.15194e-06
8.16933e-06
8.18707e-06
8.20515e-06
8.22379e-06
8.24295e-06
8.2629e-06
8.28357e-06
8.30524e-06
8.32784e-06
8.35164e-06
8.3766e-06
8.40304e-06
8.43083e-06
8.46032e-06
8.4914e-06
8.52452e-06
8.55947e-06
8.59668e-06
8.63616e-06
8.6785e-06
8.72375e-06
8.77249e-06
8.82508e-06
8.8815e-06
8.94292e-06
9.00705e-06
9.07594e-06
9.15028e-06
9.23609e-06
9.33069e-06
9.44835e-06
9.57041e-06
9.731e-06
9.88714e-06
1.00816e-05
1.0258e-05
1.04804e-05
1.06927e-05
1.1097e-05
1.14794e-05
1.26007e-05
1.38393e-05
1.67204e-05
1.99715e-05
2.69997e-05
3.25261e-05
3.86734e-05
4.01923e-05
3.85276e-05
3.27987e-05
2.70685e-05
2.90452e-05
3.52971e-05
4.48479e-05
5.72408e-05
7.22402e-05
8.983e-05
0.000109122
0.000127811
0.000142458
0.000149566
8.71685e-06
8.73487e-06
8.75329e-06
8.77168e-06
8.79006e-06
8.80864e-06
8.82746e-06
8.84659e-06
8.86612e-06
8.88613e-06
8.90676e-06
8.92808e-06
8.95025e-06
8.97333e-06
8.99746e-06
9.02274e-06
9.04929e-06
9.07732e-06
9.10681e-06
9.13811e-06
9.17113e-06
9.20621e-06
9.24326e-06
9.28261e-06
9.32446e-06
9.36871e-06
9.41587e-06
9.46555e-06
9.5169e-06
9.5722e-06
9.6287e-06
9.69196e-06
9.75331e-06
9.8257e-06
9.90238e-06
9.99363e-06
1.00913e-05
1.02126e-05
1.03449e-05
1.04726e-05
1.06734e-05
1.08331e-05
1.10867e-05
1.13772e-05
1.19516e-05
1.26578e-05
1.37378e-05
1.49286e-05
1.67508e-05
1.86276e-05
2.20732e-05
2.54682e-05
3.09354e-05
3.4321e-05
3.37612e-05
2.85086e-05
1.85571e-05
1.60229e-05
1.95197e-05
2.76869e-05
3.79393e-05
4.90639e-05
6.12105e-05
7.51441e-05
9.10664e-05
0.000108319
0.000125003
0.000138325
0.000145782
9.66501e-06
9.69046e-06
9.71628e-06
9.74239e-06
9.76873e-06
9.79555e-06
9.82265e-06
9.85016e-06
9.87797e-06
9.90619e-06
9.93472e-06
9.96373e-06
9.99311e-06
1.0023e-05
1.00534e-05
1.00842e-05
1.01154e-05
1.01463e-05
1.01773e-05
1.02084e-05
1.02397e-05
1.02709e-05
1.03027e-05
1.03339e-05
1.03673e-05
1.04e-05
1.04377e-05
1.04738e-05
1.05087e-05
1.05519e-05
1.05872e-05
1.06511e-05
1.06938e-05
1.0784e-05
1.0856e-05
1.09683e-05
1.10828e-05
1.1314e-05
1.14727e-05
1.18413e-05
1.23913e-05
1.27757e-05
1.34044e-05
1.38805e-05
1.43594e-05
1.49785e-05
1.55222e-05
1.62802e-05
1.7812e-05
1.97562e-05
2.27475e-05
2.57216e-05
2.60068e-05
2.33526e-05
1.37168e-05
8.05467e-06
7.79724e-06
1.16346e-05
1.96855e-05
2.98341e-05
4.08606e-05
5.20834e-05
6.38963e-05
7.69382e-05
9.15754e-05
0.000107268
0.000122601
0.000135532
0.000144475
1.12825e-05
1.12959e-05
1.13085e-05
1.1319e-05
1.13273e-05
1.13353e-05
1.13384e-05
1.13481e-05
1.13311e-05
1.13436e-05
1.13229e-05
1.13122e-05
1.13042e-05
1.13103e-05
1.13147e-05
1.12813e-05
1.12646e-05
1.12438e-05
1.12525e-05
1.12634e-05
1.12749e-05
1.12829e-05
1.12937e-05
1.13045e-05
1.13243e-05
1.13487e-05
1.1388e-05
1.14419e-05
1.1512e-05
1.1632e-05
1.17335e-05
1.19694e-05
1.21017e-05
1.24704e-05
1.26655e-05
1.3119e-05
1.38662e-05
1.43552e-05
1.51699e-05
1.48161e-05
1.50015e-05
1.44057e-05
1.41914e-05
1.39623e-05
1.37803e-05
1.38148e-05
1.3012e-05
1.3665e-05
1.38884e-05
1.36222e-05
1.26925e-05
1.04098e-05
7.97824e-06
4.56552e-06
2.45309e-06
2.53903e-06
5.65139e-06
1.09098e-05
1.85995e-05
2.891e-05
4.02422e-05
5.1645e-05
6.33189e-05
7.58508e-05
8.96284e-05
0.000104305
0.000118852
0.0001317
0.000142467
1.10362e-05
1.10863e-05
1.11377e-05
1.11867e-05
1.12367e-05
1.1284e-05
1.1332e-05
1.13784e-05
1.14241e-05
1.1467e-05
1.15112e-05
1.15499e-05
1.15917e-05
1.163e-05
1.16653e-05
1.17111e-05
1.17298e-05
1.17971e-05
1.19589e-05
1.21612e-05
1.24624e-05
1.27975e-05
1.32393e-05
1.37222e-05
1.43004e-05
1.49085e-05
1.55953e-05
1.62907e-05
1.70951e-05
1.78769e-05
1.86844e-05
1.93652e-05
2.00991e-05
2.02892e-05
2.04591e-05
2.00379e-05
1.9328e-05
1.82821e-05
1.68982e-05
1.52885e-05
1.35623e-05
1.18922e-05
9.95492e-06
8.19725e-06
5.61268e-06
3.69487e-06
2.57806e-06
2.21628e-06
2.32401e-06
2.51403e-06
2.45235e-06
2.01127e-06
1.2041e-06
6.39098e-07
4.31498e-07
9.16158e-07
2.25335e-06
5.06274e-06
1.01667e-05
1.7909e-05
2.83046e-05
4.00971e-05
5.20415e-05
6.41543e-05
7.68352e-05
9.02742e-05
0.000103956
0.000116986
0.000130614
3.23128e-05
3.34276e-05
3.45371e-05
3.56367e-05
3.67279e-05
3.78051e-05
3.88741e-05
3.99242e-05
4.09687e-05
4.1985e-05
4.3004e-05
4.39739e-05
4.4973e-05
4.58705e-05
4.68751e-05
4.76368e-05
4.87443e-05
4.92773e-05
4.96978e-05
4.94181e-05
4.92529e-05
4.90069e-05
4.87717e-05
4.86379e-05
4.84303e-05
4.69431e-05
4.65326e-05
4.44078e-05
4.39371e-05
4.23275e-05
4.01636e-05
3.74415e-05
3.41878e-05
3.04298e-05
2.61961e-05
2.15509e-05
1.66727e-05
1.18001e-05
7.27485e-06
3.68733e-06
1.52522e-06
7.05881e-07
6.18131e-07
6.1927e-07
5.27205e-07
4.37423e-07
3.84002e-07
3.54217e-07
3.42842e-07
3.37622e-07
2.99794e-07
2.18816e-07
1.24399e-07
6.54897e-08
6.5597e-08
2.59291e-07
9.0553e-07
2.22975e-06
4.23972e-06
6.75509e-06
9.6181e-06
1.27635e-05
1.62955e-05
2.07024e-05
2.54626e-05
3.04647e-05
3.57497e-05
4.16763e-05
4.93134e-05
4.7106e-06
4.71047e-06
4.70935e-06
4.71171e-06
4.71583e-06
4.71998e-06
4.72553e-06
4.72993e-06
4.7326e-06
4.73292e-06
4.73284e-06
4.73279e-06
4.73995e-06
4.74581e-06
4.74898e-06
4.74817e-06
4.74908e-06
4.75312e-06
4.75535e-06
4.7532e-06
4.75039e-06
4.75327e-06
4.75344e-06
4.75538e-06
4.75461e-06
4.75312e-06
4.75458e-06
4.75374e-06
4.75462e-06
4.75802e-06
4.75748e-06
4.75878e-06
4.75889e-06
4.75938e-06
4.75931e-06
4.75759e-06
4.75951e-06
4.76202e-06
4.76324e-06
4.76448e-06
4.76409e-06
4.76671e-06
4.76553e-06
4.76595e-06
4.76801e-06
4.76812e-06
4.76744e-06
4.76627e-06
4.76826e-06
4.7748e-06
4.78231e-06
4.7894e-06
4.79008e-06
4.7901e-06
4.78548e-06
4.78593e-06
4.78443e-06
4.78686e-06
4.79086e-06
4.74015e-06
4.74057e-06
4.74202e-06
4.74668e-06
4.75162e-06
4.75589e-06
4.75832e-06
4.75864e-06
4.75785e-06
4.7589e-06
4.75922e-06
4.76516e-06
4.7712e-06
4.7737e-06
4.77416e-06
4.77381e-06
4.77525e-06
4.77901e-06
4.77934e-06
4.77543e-06
4.77522e-06
4.77679e-06
4.77668e-06
4.77848e-06
4.77767e-06
4.77667e-06
4.77758e-06
4.77697e-06
4.77759e-06
4.78018e-06
4.78027e-06
4.78181e-06
4.78193e-06
4.78239e-06
4.78285e-06
4.78173e-06
4.78298e-06
4.78625e-06
4.78876e-06
4.78949e-06
4.78969e-06
4.79344e-06
4.79267e-06
4.79206e-06
4.79327e-06
4.79344e-06
4.79338e-06
4.79302e-06
4.79416e-06
4.79817e-06
4.80398e-06
4.81312e-06
4.81981e-06
4.82588e-06
4.82509e-06
4.82603e-06
4.82214e-06
4.82324e-06
4.82442e-06
4.77774e-06
4.78048e-06
4.78524e-06
4.7893e-06
4.79202e-06
4.79235e-06
4.79084e-06
4.79173e-06
4.78997e-06
4.79164e-06
4.79412e-06
4.80035e-06
4.80292e-06
4.80305e-06
4.80208e-06
4.80218e-06
4.80554e-06
4.80646e-06
4.80411e-06
4.80222e-06
4.8028e-06
4.80352e-06
4.80385e-06
4.80479e-06
4.80351e-06
4.80316e-06
4.80372e-06
4.80338e-06
4.80379e-06
4.8057e-06
4.80633e-06
4.80793e-06
4.80819e-06
4.80866e-06
4.80949e-06
4.80911e-06
4.80985e-06
4.81331e-06
4.81671e-06
4.81922e-06
4.81892e-06
4.82267e-06
4.82378e-06
4.82406e-06
4.82522e-06
4.82657e-06
4.82564e-06
4.82461e-06
4.82525e-06
4.82796e-06
4.83165e-06
4.83781e-06
4.84475e-06
4.85223e-06
4.85795e-06
4.86246e-06
4.86425e-06
4.86569e-06
4.86628e-06
4.82109e-06
4.82292e-06
4.82275e-06
4.82474e-06
4.82365e-06
4.82157e-06
4.82367e-06
4.82302e-06
4.82241e-06
4.82703e-06
4.83323e-06
4.83589e-06
4.83403e-06
4.8336e-06
4.83237e-06
4.83428e-06
4.83682e-06
4.83696e-06
4.83208e-06
4.83173e-06
4.83275e-06
4.83329e-06
4.83347e-06
4.83366e-06
4.83297e-06
4.83208e-06
4.83253e-06
4.83238e-06
4.8325e-06
4.83391e-06
4.83485e-06
4.83652e-06
4.83702e-06
4.83761e-06
4.83912e-06
4.83917e-06
4.83958e-06
4.84289e-06
4.84669e-06
4.85089e-06
4.85149e-06
4.85471e-06
4.85749e-06
4.85893e-06
4.85998e-06
4.86116e-06
4.86252e-06
4.86348e-06
4.86428e-06
4.86559e-06
4.86731e-06
4.87035e-06
4.87469e-06
4.88028e-06
4.88616e-06
4.89196e-06
4.89665e-06
4.90059e-06
4.90329e-06
4.865e-06
4.86599e-06
4.86574e-06
4.86387e-06
4.86522e-06
4.86485e-06
4.86403e-06
4.86627e-06
4.86904e-06
4.87356e-06
4.87362e-06
4.86888e-06
4.86845e-06
4.86948e-06
4.86816e-06
4.87139e-06
4.87301e-06
4.8677e-06
4.86443e-06
4.86482e-06
4.86585e-06
4.86696e-06
4.86712e-06
4.86712e-06
4.86494e-06
4.86527e-06
4.86516e-06
4.86505e-06
4.86501e-06
4.86606e-06
4.86712e-06
4.86878e-06
4.86956e-06
4.87025e-06
4.87234e-06
4.87296e-06
4.87321e-06
4.87617e-06
4.87984e-06
4.88521e-06
4.88724e-06
4.89019e-06
4.89372e-06
4.89647e-06
4.89824e-06
4.89943e-06
4.90085e-06
4.90267e-06
4.9045e-06
4.9063e-06
4.90796e-06
4.90987e-06
4.91234e-06
4.91569e-06
4.9197e-06
4.92425e-06
4.92872e-06
4.93315e-06
4.93682e-06
4.90921e-06
4.90946e-06
4.90958e-06
4.90938e-06
4.90943e-06
4.90975e-06
4.9096e-06
4.91014e-06
4.90768e-06
4.90658e-06
4.90656e-06
4.90769e-06
4.90781e-06
4.90784e-06
4.91171e-06
4.9119e-06
4.90588e-06
4.90211e-06
4.90121e-06
4.9022e-06
4.90355e-06
4.90406e-06
4.90321e-06
4.90175e-06
4.90194e-06
4.9007e-06
4.90081e-06
4.90055e-06
4.90031e-06
4.90111e-06
4.90217e-06
4.90384e-06
4.90492e-06
4.90572e-06
4.9083e-06
4.90959e-06
4.90987e-06
4.91253e-06
4.91578e-06
4.92162e-06
4.92521e-06
4.92848e-06
4.93226e-06
4.93596e-06
4.93885e-06
4.94082e-06
4.94233e-06
4.94407e-06
4.94611e-06
4.94833e-06
4.9505e-06
4.95261e-06
4.95471e-06
4.95706e-06
4.95969e-06
4.96275e-06
4.96593e-06
4.96943e-06
4.97261e-06
4.96413e-06
4.96468e-06
4.96435e-06
4.9639e-06
4.96397e-06
4.96041e-06
4.96002e-06
4.95818e-06
4.95664e-06
4.95718e-06
4.95714e-06
4.95611e-06
4.95671e-06
4.95627e-06
4.9526e-06
4.9498e-06
4.94485e-06
4.94381e-06
4.9448e-06
4.94406e-06
4.94562e-06
4.94551e-06
4.94391e-06
4.94378e-06
4.94136e-06
4.94175e-06
4.94114e-06
4.94069e-06
4.94048e-06
4.94106e-06
4.94205e-06
4.94365e-06
4.94496e-06
4.94582e-06
4.94869e-06
4.9507e-06
4.95119e-06
4.95358e-06
4.95628e-06
4.9619e-06
4.96664e-06
4.97063e-06
4.97461e-06
4.97875e-06
4.98258e-06
4.98565e-06
4.98795e-06
4.98992e-06
4.99191e-06
4.99409e-06
4.99639e-06
4.99874e-06
5.00102e-06
5.0033e-06
5.00554e-06
5.00793e-06
5.01026e-06
5.01287e-06
5.01525e-06
5.01593e-06
5.0146e-06
5.01512e-06
5.01374e-06
5.00887e-06
5.00813e-06
5.00537e-06
5.00476e-06
5.00511e-06
5.0072e-06
5.00437e-06
5.00647e-06
5.00214e-06
5.0003e-06
4.99513e-06
4.99098e-06
4.98995e-06
4.99086e-06
4.99054e-06
4.99114e-06
4.99226e-06
4.99081e-06
4.9881e-06
4.98682e-06
4.98671e-06
4.98548e-06
4.98466e-06
4.98467e-06
4.98398e-06
4.98442e-06
4.98526e-06
4.98681e-06
4.98836e-06
4.9893e-06
4.99236e-06