/*--------------------------------*- C++ -*----------------------------------*\
| =========                 |                                                 |
| \\      /  F ield         | OpenFOAM: The Open Source CFD Toolbox           |
|  \\    /   O peration     | Version:  2312                                  |
|   \\  /    A nd           | Website:  www.openfoam.com                      |
|    \\/     M anipulation  |                                                 |
\*---------------------------------------------------------------------------*/
FoamFile
{
    version     2.0;
    format      ascii;
    arch        "LSB;label=32;scalar=64";
    class       volScalarField;
    location    "1900";
    object      nut;
}
// * * * * * * * * * * * * * * * * * * * * * * * * * * * * * * * * * * * * * //

dimensions      [0 2 -1 0 0 0 0];

internalField   nonuniform List<scalar> 
76025
(
8.21523e-05
8.2247e-05
8.17361e-05
8.31171e-05
8.31155e-05
8.4846e-05
8.62593e-05
8.59314e-05
8.71648e-05
8.73776e-05
8.89766e-05
8.93768e-05
8.97772e-05
8.92358e-05
9.11042e-05
9.03769e-05
9.23834e-05
9.21943e-05
9.58831e-05
9.33947e-05
9.43527e-05
9.53521e-05
9.64778e-05
9.71341e-05
9.93539e-05
9.83595e-05
0.0001028
0.000103855
0.000104183
0.000112898
0.00011351
0.000114601
0.000120111
0.000118088
0.00012464
0.000122794
0.000126217
0.000134353
0.000135594
0.000142466
0.000141511
0.000147012
0.000159149
0.000159949
0.000162191
0.000161548
0.000160485
0.00015956
0.000158133
0.000157004
0.000155306
0.000153963
0.000152067
0.000150702
0.000148545
0.000147011
0.000144778
0.000142926
0.000140497
0.00013577
0.000118096
0.000103016
9.03191e-05
7.80203e-05
6.82668e-05
6.04474e-05
5.25756e-05
4.81248e-05
5.24597e-05
7.69608e-05
7.72346e-05
7.75075e-05
7.78905e-05
7.83684e-05
7.8832e-05
7.97711e-05
8.05748e-05
8.13192e-05
8.18963e-05
8.26584e-05
8.35883e-05
8.46483e-05
8.52548e-05
8.57559e-05
8.64787e-05
8.69316e-05
8.79636e-05
8.88588e-05
9.02566e-05
9.11114e-05
9.21657e-05
9.30162e-05
9.39305e-05
9.51537e-05
9.67949e-05
9.78358e-05
9.94355e-05
0.000101106
0.000102422
0.000104742
0.000108038
0.000110077
0.000113183
0.000115149
0.000118798
0.000123514
0.000127317
0.000131359
0.000134693
0.000139191
0.000145591
0.000150945
0.00015628
0.000159666
0.000158749
0.00015759
0.000156475
0.000155136
0.00015384
0.000152288
0.000150743
0.000148944
0.000147103
0.000145054
0.000143032
0.000140769
0.000138572
0.000136093
0.000133585
0.000130883
0.000124034
0.0001028
8.58632e-05
7.34887e-05
6.2709e-05
5.69931e-05
5.78154e-05
6.21272e-05
7.09312e-05
7.16477e-05
7.25043e-05
7.32208e-05
7.3854e-05
7.43184e-05
7.4858e-05
7.55336e-05
7.62679e-05
7.70409e-05
7.78009e-05
7.86137e-05
7.95443e-05
8.05421e-05
8.13802e-05
8.23172e-05
8.31127e-05
8.40521e-05
8.48635e-05
8.59395e-05
8.70708e-05
8.8248e-05
8.94102e-05
9.06005e-05
9.18728e-05
9.34081e-05
9.48871e-05
9.65083e-05
9.83446e-05
0.000100299
0.000102398
0.000104807
0.000107183
0.000109593
0.000112206
0.000115227
0.00011866
0.000122245
0.000125829
0.000129634
0.000134052
0.000139253
0.000144924
0.000150822
0.000156924
0.00015599
0.000154787
0.0001537
0.000152257
0.0001509
0.000149071
0.000147365
0.000145185
0.000143272
0.000140992
0.000139055
0.000136773
0.000134761
0.000132272
0.000129959
0.000126981
0.000120896
9.93161e-05
8.26924e-05
7.04747e-05
6.171e-05
5.74436e-05
5.999e-05
6.16093e-05
6.55518e-05
6.6197e-05
6.7181e-05
6.82332e-05
6.91063e-05
6.98446e-05
7.0519e-05
7.11892e-05
7.18877e-05
7.26274e-05
7.33947e-05
7.4178e-05
7.49937e-05
7.58803e-05
7.6809e-05
7.77745e-05
7.87622e-05
7.97544e-05
8.07564e-05
8.17686e-05
8.28399e-05
8.39612e-05
8.51376e-05
8.63735e-05
8.76829e-05
8.90714e-05
9.05472e-05
9.20954e-05
9.37597e-05
9.55695e-05
9.7447e-05
9.94586e-05
0.000101581
0.000103806
0.000106287
0.000108993
0.000111995
0.000115259
0.000118694
0.000122486
0.000126753
0.000131661
0.000137251
0.000143487
0.000150936
0.000153166
0.000151869
0.000150581
0.000148913
0.000147229
0.000145162
0.000143201
0.000140988
0.000139047
0.000136916
0.000135042
0.00013285
0.000130732
0.000128165
0.000125548
0.000122484
0.000119457
9.91548e-05
8.16024e-05
7.00743e-05
6.32914e-05
6.15618e-05
7.01422e-05
6.64135e-05
6.17679e-05
6.19206e-05
6.25219e-05
6.33823e-05
6.42136e-05
6.50257e-05
6.58469e-05
6.66588e-05
6.7449e-05
6.82273e-05
6.90102e-05
6.98049e-05
7.06154e-05
7.14529e-05
7.233e-05
7.32498e-05
7.42148e-05
7.52146e-05
7.62511e-05
7.73155e-05
7.84127e-05
7.95462e-05
8.07247e-05
8.19568e-05
8.32519e-05
8.46171e-05
8.60577e-05
8.75756e-05
8.91846e-05
9.08905e-05
9.26967e-05
9.46377e-05
9.66902e-05
9.89206e-05
0.000101352
0.000103988
0.000106866
0.000110001
0.000113413
0.0001172
0.000121474
0.000126357
0.000131965
0.00013845
0.000146257
0.000149883
0.000148354
0.000146827
0.000144907
0.000143056
0.000140896
0.000138976
0.000136855
0.000135048
0.00013299
0.000131118
0.00012883
0.000126584
0.000123853
0.000121143
0.000117976
0.000114792
9.63002e-05
7.9752e-05
7.04916e-05
6.69771e-05
7.02483e-05
8.06181e-05
6.42893e-05
5.89526e-05
5.88369e-05
5.9076e-05
5.95715e-05
6.01047e-05
6.0708e-05
6.14182e-05
6.22056e-05
6.30269e-05
6.38582e-05
6.46941e-05
6.55372e-05
6.63926e-05
6.72643e-05
6.81583e-05
6.90813e-05
7.00394e-05
7.10359e-05
7.20729e-05
7.3152e-05
7.42734e-05
7.54389e-05
7.66511e-05
7.79164e-05
7.9241e-05
8.0633e-05
8.20975e-05
8.36398e-05
8.5269e-05
8.69892e-05
8.88155e-05
9.07742e-05
9.28453e-05
9.50976e-05
9.75245e-05
0.000100136
0.000102964
0.000106054
0.000109453
0.000113235
0.00011749
0.000122329
0.000127878
0.000134301
0.000141951
0.000146096
0.000144392
0.000142737
0.000140735
0.000138889
0.000136798
0.000134967
0.000132939
0.000131133
0.000129037
0.000126985
0.000124549
0.000122052
0.000119213
0.000116279
0.000113029
0.000109677
9.21186e-05
7.87862e-05
7.42147e-05
7.6581e-05
8.81342e-05
7.72053e-05
8.00511e-05
5.60422e-05
5.60393e-05
5.62515e-05
5.6609e-05
5.69414e-05
5.73214e-05
5.78188e-05
5.84313e-05
5.91307e-05
5.98915e-05
6.06977e-05
6.15392e-05
6.24116e-05
6.33113e-05
6.42374e-05
6.519e-05
6.61719e-05
6.71867e-05
6.8238e-05
6.93299e-05
7.04662e-05
7.16501e-05
7.28856e-05
7.41762e-05
7.55273e-05
7.69434e-05
7.8431e-05
7.99955e-05
8.16445e-05
8.33815e-05
8.52232e-05
8.71898e-05
8.92684e-05
9.15193e-05
9.39336e-05
9.65239e-05
9.93245e-05
0.000102382
0.00010574
0.000109455
0.000113593
0.000118236
0.000123473
0.000129419
0.000136319
0.000141903
0.000140096
0.000138438
0.000136443
0.000134676
0.000132626
0.000130831
0.000128763
0.000126846
0.000124562
0.000122265
0.000119619
0.000116932
0.000114026
0.00011097
0.000107775
0.000104202
8.8179e-05
8.04592e-05
8.33203e-05
8.79356e-05
8.28853e-05
7.21339e-05
7.88583e-05
5.26501e-05
5.28624e-05
5.3239e-05
5.36914e-05
5.40492e-05
5.43868e-05
5.47879e-05
5.5272e-05
5.58336e-05
5.64659e-05
5.7164e-05
5.79229e-05
5.87378e-05
5.96031e-05
6.05134e-05
6.14649e-05
6.24554e-05
6.34848e-05
6.45543e-05
6.56658e-05
6.68223e-05
6.80265e-05
6.92823e-05
7.05926e-05
7.19622e-05
7.33949e-05
7.48972e-05
7.64749e-05
7.81345e-05
7.98812e-05
8.17336e-05
8.36978e-05
8.57903e-05
8.80407e-05
9.04408e-05
9.30023e-05
9.57505e-05
9.87223e-05
0.000101944
0.000105458
0.000109297
0.000113515
0.000118159
0.000123305
0.000129084
0.000135738
0.000135634
0.000134015
0.000132015
0.000130253
0.000128131
0.000126235
0.000123999
0.000121851
0.00011931
0.000116774
0.000114
0.000111261
0.000108381
0.000105317
0.000102127
9.74638e-05
8.64172e-05
8.65986e-05
8.65375e-05
8.18349e-05
7.48498e-05
6.84643e-05
8.2496e-05
4.91115e-05
4.94297e-05
4.99236e-05
5.0497e-05
5.09693e-05
5.13919e-05
5.18349e-05
5.23169e-05
5.28391e-05
5.34052e-05
5.40217e-05
5.46945e-05
5.54265e-05
5.6218e-05
5.70665e-05
5.79692e-05
5.89236e-05
5.99281e-05
6.09824e-05
6.20864e-05
6.32412e-05
6.44479e-05
6.57086e-05
6.70255e-05
6.84024e-05
6.98428e-05
7.13517e-05
7.29347e-05
7.45957e-05
7.63401e-05
7.81859e-05
8.01268e-05
8.22024e-05
8.44081e-05
8.67363e-05
8.91968e-05
9.18058e-05
9.45878e-05
9.75554e-05
0.000100735
0.000104139
0.000107801
0.000111744
0.00011602
0.000120677
0.000125903
0.000130935
0.000129248
0.000127099
0.000125166
0.000122839
0.000120739
0.000118295
0.000115906
0.000113186
0.000110556
0.000107824
0.000105182
0.000102375
9.93332e-05
9.61082e-05
9.10502e-05
8.81014e-05
8.42333e-05
8.04406e-05
7.58574e-05
6.75513e-05
6.76769e-05
9.83346e-05
4.57614e-05
4.60835e-05
4.65901e-05
4.71983e-05
4.77345e-05
4.82332e-05
4.87477e-05
4.92855e-05
4.98417e-05
5.04173e-05
5.102e-05
5.16589e-05
5.2343e-05
5.30783e-05
5.38681e-05
5.47138e-05
5.5616e-05
5.65745e-05
5.75894e-05
5.86604e-05
5.97878e-05
6.09717e-05
6.22131e-05
6.35133e-05
6.48741e-05
6.62983e-05
6.77892e-05
6.93509e-05
7.09847e-05
7.2695e-05
7.45004e-05
7.63871e-05
7.83916e-05
8.0498e-05
8.26978e-05
8.4999e-05
8.74105e-05
8.99469e-05
9.26119e-05
9.54215e-05
9.83781e-05
0.000101504
0.00010481
0.000108336
0.000112106
0.000116195
0.000120776
0.000123778
0.000121401
0.000119263
0.000116792
0.000114559
0.00011201
0.00010946
0.000106709
0.000104118
0.000101526
9.89828e-05
9.61595e-05
9.31094e-05
8.97246e-05
8.58133e-05
8.18296e-05
7.83837e-05
7.40381e-05
6.90491e-05
6.28334e-05
6.74456e-05
0.00012838
4.27149e-05
4.30136e-05
4.34862e-05
4.40676e-05
4.46005e-05
4.51153e-05
4.56578e-05
4.62299e-05
4.68209e-05
4.7426e-05
4.80476e-05
4.86919e-05
4.93666e-05
5.00785e-05
5.08333e-05
5.16349e-05
5.24878e-05
5.3394e-05
5.43567e-05
5.53767e-05
5.64556e-05
5.75933e-05
5.87908e-05
6.00486e-05
6.13673e-05
6.27482e-05
6.41933e-05
6.57049e-05
6.72824e-05
6.89293e-05
7.06606e-05
7.24689e-05
7.43687e-05
7.63524e-05
7.84099e-05
8.05469e-05
8.27667e-05
8.50765e-05
8.7476e-05
8.99737e-05
9.25684e-05
9.52758e-05
9.81025e-05
0.000101073
0.000104198
0.000107494
0.000111017
0.000114836
0.00011529
0.000113138
0.000110683
0.00010839
0.000105752
0.000103047
0.000100336
9.77934e-05
9.53031e-05
9.26922e-05
8.97359e-05
8.66009e-05
8.30175e-05
7.89491e-05
7.54086e-05
7.21534e-05
6.75727e-05
5.82943e-05
6.13361e-05
7.78251e-05
0.000153743
3.99143e-05
4.01975e-05
4.06374e-05
4.11816e-05
4.16874e-05
4.21845e-05
4.27167e-05
4.32868e-05
4.38835e-05
4.45e-05
4.51348e-05
4.5791e-05
4.64725e-05
4.7184e-05
4.79296e-05
4.87127e-05
4.95381e-05
5.04086e-05
5.1329e-05
5.23013e-05
5.33292e-05
5.44137e-05
5.55567e-05
5.67594e-05
5.80223e-05
5.93466e-05
6.07337e-05
6.21841e-05
6.36965e-05
6.52758e-05
6.69256e-05
6.86574e-05
7.04604e-05
7.23328e-05
7.42651e-05
7.62622e-05
7.83236e-05
8.04539e-05
8.26508e-05
8.49189e-05
8.72551e-05
8.96682e-05
9.21565e-05
9.47257e-05
9.73637e-05
0.000100056
0.000102762
0.00010549
0.000108167
0.00010744
0.000104873
0.000102382
9.95457e-05
9.67483e-05
9.41596e-05
9.1649e-05
8.91301e-05
8.62518e-05
8.31168e-05
7.9909e-05
7.41981e-05
6.66712e-05
6.13417e-05
6.29695e-05
6.11873e-05
5.75682e-05
6.04603e-05
0.000105773
0.000169867
3.7342e-05
3.76165e-05
3.80325e-05
3.85466e-05
3.90272e-05
3.95013e-05
4.00109e-05
4.05604e-05
4.11412e-05
4.17471e-05
4.23766e-05
4.30313e-05
4.37138e-05
4.44266e-05
4.51725e-05
4.59529e-05
4.67711e-05
4.76291e-05
4.85307e-05
4.94783e-05
5.04755e-05
5.15244e-05
5.26275e-05
5.37866e-05
5.50028e-05
5.6278e-05
5.76129e-05
5.90075e-05
6.04596e-05
6.19796e-05
6.3561e-05
6.52197e-05
6.69387e-05
6.87144e-05
7.05411e-05
7.24243e-05
7.43625e-05
7.63599e-05
7.84119e-05
8.05191e-05
8.26725e-05
8.48696e-05
8.7094e-05
8.93302e-05
9.15452e-05
9.36969e-05
9.57125e-05
9.75114e-05
9.90223e-05
0.000100098
9.84258e-05
9.58673e-05
9.30973e-05
9.05867e-05
8.82285e-05
8.56546e-05
8.28925e-05
7.96151e-05
7.52444e-05
6.61874e-05
5.6493e-05
4.99286e-05
5.2663e-05
5.85373e-05
5.57397e-05
5.47506e-05
7.01126e-05
0.000129895
0.000186787
3.49471e-05
3.52157e-05
3.56132e-05
3.61038e-05
3.65653e-05
3.70216e-05
3.75113e-05
3.80395e-05
3.85994e-05
3.91864e-05
3.97996e-05
4.04409e-05
4.11127e-05
4.18174e-05
4.25569e-05
4.33322e-05
4.41452e-05
4.49973e-05
4.5891e-05
4.68282e-05
4.78117e-05
4.88432e-05
4.99255e-05
5.106e-05
5.22485e-05
5.34927e-05
5.47932e-05
5.615e-05
5.75602e-05
5.90394e-05
6.0583e-05
6.21892e-05
6.38536e-05
6.55684e-05
6.73306e-05
6.91434e-05
7.10035e-05
7.29111e-05
7.48571e-05
7.68342e-05
7.88255e-05
8.0816e-05
8.2777e-05
8.46778e-05
8.64694e-05
8.80899e-05
8.94519e-05
9.04631e-05
9.1039e-05
9.11986e-05
9.09734e-05
8.96591e-05
8.72088e-05
8.50205e-05
8.24975e-05
7.95421e-05
7.6346e-05
6.94621e-05
5.87078e-05
4.85599e-05
4.28591e-05
4.4828e-05
5.58972e-05
5.17213e-05
5.20672e-05
5.4787e-05
9.86269e-05
0.000150011
0.000201447
3.27173e-05
3.29797e-05
3.33603e-05
3.38298e-05
3.42748e-05
3.47163e-05
3.51897e-05
3.57e-05
3.62411e-05
3.68094e-05
3.74047e-05
3.80288e-05
3.86846e-05
3.93744e-05
4.01004e-05
4.08636e-05
4.1666e-05
4.25087e-05
4.33943e-05
4.43239e-05
4.53e-05
4.63242e-05
4.73985e-05
4.85242e-05
4.97029e-05
5.0936e-05
5.22238e-05
5.35656e-05
5.49623e-05
5.64224e-05
5.79467e-05
5.95236e-05
6.11532e-05
6.28272e-05
6.45433e-05
6.63003e-05
6.80927e-05
6.99145e-05
7.17521e-05
7.35906e-05
7.5409e-05
7.71828e-05
7.88773e-05
8.0449e-05
8.1837e-05
8.29705e-05
8.37768e-05
8.42305e-05
8.43503e-05
8.42925e-05
8.41832e-05
8.39519e-05
8.13911e-05
7.89902e-05
7.58691e-05
7.27039e-05
6.33328e-05
5.19859e-05
4.23866e-05
3.79434e-05
4.12859e-05
5.16501e-05
4.93614e-05
4.65278e-05
4.96021e-05
7.41144e-05
0.000118815
0.000163512
0.00020913
3.06208e-05
3.08744e-05
3.12367e-05
3.16834e-05
3.21102e-05
3.25353e-05
3.2991e-05
3.34823e-05
3.40039e-05
3.45525e-05
3.51283e-05
3.57329e-05
3.63693e-05
3.70401e-05
3.77475e-05
3.8493e-05
3.92787e-05
4.01063e-05
4.09779e-05
4.18954e-05
4.2861e-05
4.38762e-05
4.49427e-05
4.60618e-05
4.72348e-05
4.84624e-05
4.97448e-05
5.1078e-05
5.24733e-05
5.39314e-05
5.54482e-05
5.70171e-05
5.86301e-05
6.02791e-05
6.19608e-05
6.36687e-05
6.53963e-05
6.71319e-05
6.88611e-05
7.05653e-05
7.22216e-05
7.37979e-05
7.52546e-05
7.65373e-05
7.75935e-05
7.83876e-05
7.89324e-05
7.93246e-05
7.96637e-05
8.00501e-05
7.96063e-05
7.74854e-05
7.45399e-05
7.19563e-05
6.7845e-05
5.70482e-05
4.59606e-05
3.77739e-05
3.47751e-05
4.00207e-05
4.82614e-05
4.43835e-05
4.38757e-05
4.34594e-05
6.35724e-05
9.89437e-05
0.000131379
0.000172162
0.000210684
2.86885e-05
2.89328e-05
2.92776e-05
2.97021e-05
3.01104e-05
3.0518e-05
3.09554e-05
3.14269e-05
3.19284e-05
3.2457e-05
3.3013e-05
3.3598e-05
3.42151e-05
3.48668e-05
3.55555e-05
3.62832e-05
3.70519e-05
3.78641e-05
3.87218e-05
3.96277e-05
4.05837e-05
4.15921e-05
4.26541e-05
4.37715e-05
4.49451e-05
4.61755e-05
4.74617e-05
4.88012e-05
5.02014e-05
5.1657e-05
5.31589e-05
5.47066e-05
5.62905e-05
5.79036e-05
5.9542e-05
6.11967e-05
6.28608e-05
6.45187e-05
6.61564e-05
6.775e-05
6.92737e-05
7.06892e-05
7.19623e-05
7.30643e-05
7.40067e-05
7.48609e-05
7.57082e-05
7.66336e-05
7.75296e-05
7.53918e-05
7.29417e-05
7.06853e-05
6.78603e-05
6.19717e-05
5.07957e-05
4.0698e-05
3.45129e-05
3.35484e-05
4.20268e-05
4.29141e-05
4.06442e-05
3.90231e-05
3.99349e-05
5.84802e-05
8.25528e-05
0.000106809
0.000137541
0.000174571
0.000203656
2.68716e-05
2.71049e-05
2.74309e-05
2.78319e-05
2.82194e-05
2.86073e-05
2.90231e-05
2.94715e-05
2.9949e-05
3.04533e-05
3.0985e-05
3.1546e-05
3.21391e-05
3.27672e-05
3.34328e-05
3.4138e-05
3.48851e-05
3.56766e-05
3.6515e-05
3.74028e-05
3.83426e-05
3.93364e-05
4.0386e-05
4.14928e-05
4.26577e-05
4.38811e-05
4.51583e-05
4.64986e-05
4.7909e-05
4.93777e-05
5.08981e-05
5.24601e-05
5.40524e-05
5.56661e-05
5.72942e-05
5.89268e-05
6.05547e-05
6.21611e-05
6.37308e-05
6.52388e-05
6.66669e-05
6.80008e-05
6.92612e-05
7.05074e-05
7.18116e-05
7.32546e-05
7.48346e-05
7.27595e-05
7.08278e-05
6.85479e-05
6.63199e-05
6.40469e-05
5.53421e-05
4.47921e-05
3.67353e-05
3.27318e-05
3.48377e-05
4.24118e-05
3.92073e-05
3.44372e-05
3.50201e-05
3.73961e-05
5.64212e-05
7.22696e-05
8.82108e-05
0.000109739
0.000143315
0.000169821
0.000203091
2.52408e-05
2.54636e-05
2.57744e-05
2.61561e-05
2.65267e-05
2.68984e-05
2.72963e-05
2.77251e-05
2.81821e-05
2.86655e-05
2.91762e-05
2.97162e-05
3.02887e-05
3.08968e-05
3.15434e-05
3.22309e-05
3.29624e-05
3.37402e-05
3.45679e-05
3.54479e-05
3.63839e-05
3.73775e-05
3.84321e-05
3.95487e-05
4.07291e-05
4.19726e-05
4.32758e-05
4.46391e-05
4.6054e-05
4.75144e-05
4.90226e-05
5.05668e-05
5.21406e-05
5.37351e-05
5.53431e-05
5.69514e-05
5.85482e-05
6.01157e-05
6.16448e-05
6.31346e-05
6.46154e-05
6.61455e-05
6.77915e-05
6.96372e-05
7.15441e-05
6.97119e-05
6.80516e-05
6.59583e-05
6.4131e-05
6.1782e-05
5.84674e-05
4.83787e-05
3.96771e-05
3.42362e-05
3.34179e-05
4.04767e-05
3.65956e-05
3.3726e-05
3.08899e-05
3.04363e-05
3.74503e-05
5.18487e-05
6.28993e-05
7.43164e-05
9.13384e-05
0.000117145
0.000142558
0.00017413
0.000212274
2.36729e-05
2.38845e-05
2.41769e-05
2.45357e-05
2.48862e-05
2.52388e-05
2.56165e-05
2.60235e-05
2.64578e-05
2.6918e-05
2.74051e-05
2.79211e-05
2.84697e-05
2.90535e-05
2.96762e-05
3.034e-05
3.10486e-05
3.18043e-05
3.26111e-05
3.34715e-05
3.43894e-05
3.53667e-05
3.64072e-05
3.75118e-05
3.86833e-05
3.99163e-05
4.12288e-05
4.2631e-05
4.41058e-05
4.56444e-05
4.7234e-05
4.88566e-05
5.05005e-05
5.21488e-05
5.37924e-05
5.54153e-05
5.70172e-05
5.86046e-05
6.022e-05
6.19199e-05
6.37697e-05
6.58531e-05
6.76428e-05
6.61422e-05
6.46543e-05
6.29019e-05
6.12241e-05
5.91114e-05
5.71545e-05
5.03056e-05
4.20531e-05
3.63483e-05
3.43004e-05
3.84071e-05
3.5031e-05
3.19e-05
2.76889e-05
2.75129e-05
2.82346e-05
3.90082e-05
4.71576e-05
5.52085e-05
6.39557e-05
7.78503e-05
9.83942e-05
0.000123752
0.000150799
0.000186768
0.000224474
2.23922e-05
2.25863e-05
2.2862e-05
2.32026e-05
2.35366e-05
2.38735e-05
2.42344e-05
2.46242e-05
2.5041e-05
2.54841e-05
2.59548e-05
2.64553e-05
2.69892e-05
2.75599e-05
2.8171e-05
2.88255e-05
2.95276e-05
3.02805e-05
3.10889e-05
3.19565e-05
3.28883e-05
3.3888e-05
3.49601e-05
3.61069e-05
3.73303e-05
3.86249e-05
3.99837e-05
4.13951e-05
4.28665e-05
4.43991e-05
4.59834e-05
4.76052e-05
4.92533e-05
5.09105e-05
5.25799e-05
5.42614e-05
5.59966e-05
5.78193e-05
5.97888e-05
6.19633e-05
6.34458e-05
6.22408e-05
6.08435e-05
5.94068e-05
5.77476e-05
5.59463e-05
5.38635e-05
4.96923e-05
4.28479e-05
3.79498e-05
3.62327e-05
3.76826e-05
3.29989e-05
2.92109e-05
2.52035e-05
2.38855e-05
2.3884e-05
2.83006e-05
3.62118e-05
4.21765e-05
4.76792e-05
5.73846e-05
6.74933e-05
8.39842e-05
0.000110029
0.000136505
0.000168034
0.000200058
0.000222842
2.10344e-05
2.12262e-05
2.14884e-05
2.18079e-05
2.21229e-05
2.24416e-05
2.27827e-05
2.31504e-05
2.35436e-05
2.39619e-05
2.44067e-05
2.48803e-05
2.53866e-05
2.59289e-05
2.65112e-05
2.71369e-05
2.78104e-05
2.85355e-05
2.93172e-05
3.01596e-05
3.10683e-05
3.20479e-05
3.31039e-05
3.42401e-05
3.54604e-05
3.67965e-05
3.82594e-05
3.9825e-05
4.1482e-05
4.32092e-05
4.499e-05
4.68039e-05
4.86389e-05
5.04943e-05
5.23874e-05
5.43228e-05
5.63366e-05
5.8427e-05
5.91347e-05
5.795e-05
5.66733e-05
5.52864e-05
5.36601e-05
5.19685e-05
4.97577e-05
4.6426e-05
4.15151e-05
3.84175e-05
3.75967e-05
3.39995e-05
2.95627e-05
2.61796e-05
2.26947e-05
2.06411e-05
2.0138e-05
2.15705e-05
2.88325e-05
3.27367e-05
3.75549e-05
4.15407e-05
4.76874e-05
5.72604e-05
7.36107e-05
9.71544e-05
0.000124382
0.000153169
0.00017968
0.000202798
0.000220153
2.01991e-05
2.0355e-05
2.05938e-05
2.08962e-05
2.11963e-05
2.15009e-05
2.18286e-05
2.21838e-05
2.25657e-05
2.2974e-05
2.34102e-05
2.38769e-05
2.43777e-05
2.49165e-05
2.54977e-05
2.61256e-05
2.68051e-05
2.75421e-05
2.83426e-05
2.92135e-05
3.01612e-05
3.11919e-05
3.2311e-05
3.3523e-05
3.48154e-05
3.61713e-05
3.76014e-05
3.91268e-05
4.07554e-05
4.2489e-05
4.43326e-05
4.62809e-05
4.83236e-05
5.04144e-05
5.25262e-05
5.45437e-05
5.44127e-05
5.31964e-05
5.20866e-05
5.04988e-05
4.90645e-05
4.70178e-05
4.49276e-05
4.17509e-05
3.91041e-05
3.62503e-05
3.23444e-05
2.91543e-05
2.54094e-05
2.23147e-05
1.9492e-05
1.7816e-05
1.7063e-05
1.70736e-05
2.25082e-05
2.58918e-05
3.04732e-05
3.23267e-05
3.54953e-05
3.93358e-05
4.9316e-05
6.60834e-05
8.92206e-05
0.000114501
0.000140746
0.00016437
0.000185059
0.000203098
0.000216835
1.90249e-05
1.9202e-05
1.94394e-05
1.97217e-05
2.00009e-05
2.02847e-05
2.05884e-05
2.09168e-05
2.12693e-05
2.16469e-05
2.20511e-05
2.2485e-05
2.29519e-05
2.3456e-05
2.4001e-05
2.45912e-05
2.52303e-05
2.59251e-05
2.6683e-05
2.75139e-05
2.84279e-05
2.94381e-05
3.05494e-05
3.17966e-05
3.32259e-05
3.48352e-05
3.66129e-05
3.85627e-05
4.06726e-05
4.29273e-05
4.52751e-05
4.76415e-05
4.98883e-05
4.98817e-05
4.89347e-05
4.77224e-05
4.64815e-05
4.47056e-05
4.31368e-05
4.05787e-05
3.85982e-05
3.52602e-05
3.27269e-05
2.9122e-05
2.61897e-05
2.30485e-05
2.04026e-05
1.79751e-05
1.63068e-05
1.45825e-05
1.42912e-05
1.37261e-05
1.67105e-05
1.97829e-05
2.38486e-05
2.61317e-05
2.78593e-05
2.87608e-05
2.92219e-05
3.79236e-05
5.47572e-05
7.90364e-05
0.00010713
0.000133505
0.00015602
0.000174677
0.000189962
0.000203163
0.000206173
1.88571e-05
1.8966e-05
1.91706e-05
1.9445e-05
1.97194e-05
1.99968e-05
2.02942e-05
2.06162e-05
2.09622e-05
2.13328e-05
2.17298e-05
2.21565e-05
2.26168e-05
2.31155e-05
2.3658e-05
2.42493e-05
2.4896e-05
2.56045e-05
2.63801e-05
2.72311e-05
2.81696e-05
2.92159e-05
3.0369e-05
3.16198e-05
3.2995e-05
3.45346e-05
3.62531e-05
3.81259e-05
4.00905e-05
4.20578e-05
4.38499e-05
4.40203e-05
4.27578e-05
4.12692e-05
3.95081e-05
3.74203e-05
3.51273e-05
3.23872e-05
2.98854e-05
2.66524e-05
2.43507e-05
2.11368e-05
1.91903e-05
1.6606e-05
1.53691e-05
1.37532e-05
1.29145e-05
1.16214e-05
1.09043e-05
1.06039e-05
1.19265e-05
1.38267e-05
1.73304e-05
2.00041e-05
2.21546e-05
2.22927e-05
1.69507e-05
1.6728e-05
2.38868e-05
3.96528e-05
6.33545e-05
9.22511e-05
0.000121061
0.000146024
0.000166331
0.000182798
0.000195166
0.000191563
0.000179358
1.79285e-05
1.81032e-05
1.83258e-05
1.85804e-05
1.88371e-05
1.91063e-05
1.93997e-05
1.97202e-05
2.00679e-05
2.04445e-05
2.08522e-05
2.12953e-05
2.17788e-05
2.23101e-05
2.28981e-05
2.35522e-05
2.42916e-05
2.51438e-05
2.61272e-05
2.72474e-05
2.84937e-05
2.98738e-05
3.14044e-05
3.30422e-05
3.47188e-05
3.63823e-05
3.79935e-05
3.70546e-05
3.56952e-05
3.4152e-05
3.23402e-05
3.04122e-05
2.82293e-05
2.60154e-05
2.36801e-05
2.13838e-05
1.91338e-05
1.71461e-05
1.52865e-05
1.36886e-05
1.26617e-05
1.12992e-05
1.05888e-05
9.54166e-06
8.96643e-06
8.15643e-06
7.37488e-06
7.46508e-06
8.26865e-06
9.41512e-06
1.13089e-05
1.37902e-05
1.59509e-05
1.72216e-05
1.13427e-05
7.43283e-06
7.6778e-06
1.21197e-05
2.26236e-05
3.95012e-05
6.42132e-05
9.27653e-05
0.000120299
0.000144408
0.000163938
0.000179421
0.000191679
0.000172628
0.000152021
2.0439e-05
2.05579e-05
2.08286e-05
2.11872e-05
2.15369e-05
2.18888e-05
2.22604e-05
2.26839e-05
2.30945e-05
2.36092e-05
2.41032e-05
2.46715e-05
2.5308e-05
2.6043e-05
2.6851e-05
2.76448e-05
2.74448e-05
2.70239e-05
2.65964e-05
2.62013e-05
2.57067e-05
2.50523e-05
2.42505e-05
2.33173e-05
2.22075e-05
2.09408e-05
1.959e-05
1.82005e-05
1.6811e-05
1.55046e-05
1.42023e-05
1.31061e-05
1.19358e-05
1.10537e-05
1.00719e-05
9.3693e-06
8.90222e-06
8.31223e-06
7.94347e-06
7.05295e-06
6.57975e-06
5.83482e-06
5.42367e-06
5.03915e-06
4.83386e-06
4.95211e-06
4.94262e-06
5.61661e-06
6.25845e-06
6.98105e-06
7.6332e-06
7.58955e-06
7.09632e-06
4.48291e-06
2.19238e-06
1.89992e-06
3.94282e-06
7.66737e-06
1.45961e-05
2.67936e-05
4.57625e-05
6.97608e-05
9.4751e-05
0.000117021
0.0001373
0.000154662
0.00016891
0.000151554
0.000128446
8.67137e-06
8.57839e-06
8.48965e-06
8.40252e-06
8.31873e-06
8.2356e-06
8.15456e-06
8.07448e-06
7.99419e-06
7.91387e-06
7.83292e-06
7.74987e-06
7.66661e-06
7.57932e-06
7.49252e-06
7.39704e-06
7.30574e-06
7.19606e-06
7.09709e-06
6.9814e-06
6.88371e-06
6.78199e-06
6.70375e-06
6.62593e-06
6.56979e-06
6.50707e-06
6.46126e-06
6.39732e-06
6.35993e-06
6.30019e-06
6.23479e-06
6.11111e-06
6.00039e-06
5.73969e-06
5.49546e-06
5.13418e-06
4.73979e-06
4.33445e-06
3.88563e-06
3.48208e-06
3.10444e-06
2.77103e-06
2.38133e-06
2.09517e-06
1.58995e-06
1.23723e-06
1.03957e-06
1.0889e-06
1.38833e-06
1.75347e-06
1.88693e-06
1.6307e-06
9.8183e-07
4.61536e-07
2.29019e-07
3.86636e-07
8.64401e-07
1.88117e-06
3.99533e-06
7.88082e-06
1.4793e-05
2.58743e-05
3.95413e-05
5.26945e-05
6.42842e-05
7.62728e-05
8.76266e-05
9.80181e-05
0.000103977
3.87366e-06
4.00746e-06
4.14108e-06
4.27407e-06
4.40663e-06
4.53817e-06
4.6694e-06
4.79915e-06
4.92899e-06
5.05637e-06
5.18487e-06
5.30861e-06
5.43662e-06
5.55388e-06
5.68451e-06
5.78808e-06
5.93246e-06
6.01511e-06
6.08609e-06
6.07286e-06
6.07501e-06
6.0689e-06
6.05944e-06
6.075e-06
6.07802e-06
5.91715e-06
5.9065e-06
5.66379e-06
5.6394e-06
5.47278e-06
5.23524e-06
4.92491e-06
4.54219e-06
4.08747e-06
3.56117e-06
2.96779e-06
2.3275e-06
1.67028e-06
1.04356e-06
5.35126e-07
2.23356e-07
1.04063e-07
9.16438e-08
9.2335e-08
7.9073e-08
6.59945e-08
5.82731e-08
5.40642e-08
5.2628e-08
5.21226e-08
4.65495e-08
3.41728e-08
1.95384e-08
1.0343e-08
1.04145e-08
4.13577e-08
1.44951e-07
3.57708e-07
6.80781e-07
1.08458e-06
1.54289e-06
2.04411e-06
2.6021e-06
3.29065e-06
4.02727e-06
4.79181e-06
5.58856e-06
6.46539e-06
7.5819e-06
6.19924e-05
6.19996e-05
6.19104e-05
6.28735e-05
6.25708e-05
6.1715e-05
6.08703e-05
6.12009e-05
6.23877e-05
6.282e-05
6.36495e-05
6.31893e-05
6.22404e-05
6.13641e-05
6.23137e-05
6.48303e-05
6.39238e-05
6.34607e-05
6.35013e-05
6.4267e-05
6.45179e-05
6.47772e-05
6.49357e-05
6.44318e-05
6.52142e-05
6.55908e-05
6.55804e-05
6.53299e-05
6.67871e-05
6.7543e-05
6.7522e-05
6.76811e-05
6.84898e-05
6.94481e-05
6.88752e-05
6.92497e-05
7.04042e-05
6.98356e-05
7.01419e-05
7.28902e-05
7.20233e-05
7.10648e-05
7.30633e-05
7.4966e-05
7.50295e-05
7.47493e-05
7.57922e-05
7.71282e-05
7.71364e-05
7.61949e-05
7.49148e-05
7.29176e-05
7.43651e-05
7.46915e-05
7.78946e-05
8.0537e-05
8.09357e-05
8.08071e-05
8.17059e-05
5.75457e-05
5.75384e-05
5.75204e-05
5.75081e-05
5.72727e-05
5.70527e-05
5.72037e-05
5.79096e-05
5.86964e-05
5.89712e-05
5.87085e-05
5.81573e-05
5.80368e-05
5.80235e-05
5.94447e-05
5.96758e-05
5.90772e-05
5.88384e-05
5.95018e-05
6.02801e-05
6.01436e-05
6.00674e-05
6.01429e-05
6.02328e-05
6.06944e-05
6.09206e-05
6.12829e-05
6.10824e-05
6.18666e-05
6.2891e-05
6.26062e-05
6.30265e-05
6.35691e-05
6.45752e-05
6.44987e-05
6.47551e-05
6.58483e-05
6.5906e-05
6.57524e-05
6.67442e-05
6.71896e-05
6.69365e-05
6.74021e-05
6.90708e-05
7.01985e-05
7.03255e-05
7.07353e-05
7.1743e-05
7.27691e-05
7.29683e-05
7.21765e-05
7.09277e-05
6.9988e-05
6.9901e-05
7.05703e-05
7.25187e-05
7.4266e-05
7.53462e-05
7.62413e-05
5.31725e-05
5.32848e-05
5.32356e-05
5.32698e-05
5.3398e-05
5.36712e-05
5.40912e-05
5.45378e-05
5.46905e-05
5.45175e-05
5.41852e-05
5.40838e-05
5.43482e-05
5.4769e-05
5.53242e-05
5.50164e-05
5.48514e-05
5.50763e-05
5.58054e-05
5.62529e-05
5.58552e-05
5.56556e-05
5.58171e-05
5.6117e-05
5.6458e-05
5.66128e-05
5.69908e-05
5.68853e-05
5.74476e-05
5.82573e-05
5.81506e-05
5.86141e-05
5.89924e-05
5.9768e-05
5.99373e-05
6.01846e-05
6.1026e-05
6.14125e-05
6.14236e-05
6.184e-05
6.25028e-05
6.28085e-05
6.28835e-05
6.35087e-05
6.47965e-05
6.53944e-05
6.57805e-05
6.64118e-05
6.74595e-05
6.83822e-05
6.86576e-05
6.83975e-05
6.75754e-05
6.7002e-05
6.66585e-05
6.69571e-05
6.77718e-05
6.86537e-05
6.97899e-05
4.94181e-05
4.96369e-05
4.96894e-05
4.99113e-05
5.01552e-05
5.03996e-05
5.06128e-05
5.06459e-05
5.05165e-05
5.03785e-05
5.03683e-05
5.05613e-05
5.08825e-05
5.11755e-05
5.12207e-05
5.10518e-05
5.11829e-05
5.16224e-05
5.20908e-05
5.22162e-05
5.18292e-05
5.17149e-05
5.19504e-05
5.22762e-05
5.25582e-05
5.26953e-05
5.30136e-05
5.30397e-05
5.34922e-05
5.40767e-05
5.4189e-05
5.46143e-05
5.48836e-05
5.54821e-05
5.57449e-05
5.60104e-05
5.66602e-05
5.71844e-05
5.73788e-05
5.7658e-05
5.82569e-05
5.87948e-05
5.89467e-05
5.91827e-05
6.00322e-05
6.08609e-05
6.14577e-05
6.1966e-05
6.26902e-05
6.35876e-05
6.43654e-05
6.48756e-05
6.49592e-05
6.47575e-05
6.4414e-05
6.41246e-05
6.40877e-05
6.42041e-05
6.47794e-05
4.62531e-05
4.65441e-05
4.66453e-05
4.68085e-05
4.69579e-05
4.70197e-05
4.69907e-05
4.69351e-05
4.68928e-05
4.69497e-05
4.7091e-05
4.72827e-05
4.7492e-05
4.75809e-05
4.75199e-05
4.75692e-05
4.78568e-05
4.82008e-05
4.84319e-05
4.83668e-05
4.81043e-05
4.81283e-05
4.83909e-05
4.8694e-05
4.89036e-05
4.90667e-05
4.93409e-05
4.9449e-05
4.98255e-05
5.02851e-05
5.05062e-05
5.08899e-05
5.112e-05
5.16325e-05
5.19484e-05
5.2235e-05
5.27636e-05
5.33111e-05
5.36156e-05
5.38482e-05
5.43113e-05
5.48989e-05
5.52444e-05
5.54593e-05
5.59524e-05
5.6665e-05
5.73566e-05
5.79238e-05
5.84822e-05
5.91491e-05
5.98919e-05
6.06203e-05
6.12168e-05
6.1595e-05
6.17442e-05
6.17122e-05
6.16196e-05
6.14358e-05
6.15474e-05
4.33284e-05
4.35715e-05
4.36036e-05
4.36697e-05
4.3686e-05
4.36707e-05
4.36415e-05
4.3646e-05
4.36827e-05
4.37999e-05
4.39679e-05
4.41253e-05
4.41941e-05
4.41934e-05
4.42536e-05
4.44193e-05
4.46562e-05
4.4877e-05
4.4939e-05
4.48136e-05
4.46923e-05
4.4806e-05
4.50562e-05
4.5304e-05
4.54939e-05
4.56515e-05
4.58983e-05
4.60434e-05
4.63659e-05
4.67496e-05
4.7011e-05
4.7361e-05
4.75888e-05
4.80443e-05
4.83917e-05
4.86962e-05
4.91436e-05
4.96651e-05
5.00393e-05
5.02855e-05
5.06369e-05
5.11649e-05
5.1626e-05
5.19278e-05
5.22716e-05
5.27842e-05
5.34027e-05
5.40054e-05
5.45528e-05
5.5098e-05
5.56899e-05
5.6332e-05
5.69882e-05
5.75967e-05
5.80973e-05
5.84576e-05
5.86942e-05
5.87136e-05
5.88608e-05
4.05054e-05
4.06791e-05
4.06509e-05
4.0668e-05
4.06732e-05
4.06578e-05
4.06932e-05
4.07522e-05
4.08461e-05
4.09693e-05
4.10682e-05
4.11142e-05
4.11388e-05
4.11722e-05
4.12583e-05
4.14416e-05
4.16156e-05
4.17168e-05
4.16886e-05
4.1573e-05
4.15706e-05
4.17294e-05
4.19499e-05
4.21627e-05
4.23018e-05
4.2475e-05
4.26881e-05
4.28489e-05
4.31333e-05
4.34625e-05
4.37362e-05
4.40569e-05
4.42867e-05
4.46901e-05
4.50461e-05
4.53627e-05
4.57546e-05
4.62334e-05
4.66456e-05
4.69405e-05
4.72418e-05
4.76769e-05
4.81508e-05
4.85354e-05
4.887e-05
4.92618e-05
4.97527e-05
5.0301e-05
5.08445e-05
5.13636e-05
5.18774e-05
5.24103e-05
5.29709e-05
5.35477e-05
5.41108e-05
5.46296e-05
5.50938e-05
5.53731e-05
5.57551e-05
3.7723e-05
3.78548e-05
3.78357e-05
3.78618e-05
3.78625e-05
3.79109e-05
3.79607e-05
3.80385e-05
3.81228e-05
3.82048e-05
3.82262e-05
3.82716e-05
3.82834e-05
3.83635e-05
3.84737e-05
3.8608e-05
3.87118e-05
3.87298e-05
3.86655e-05
3.86274e-05
3.87032e-05
3.88659e-05
3.90438e-05
3.92064e-05
3.93485e-05
3.95038e-05
3.96922e-05
3.98634e-05
4.01134e-05
4.04028e-05
4.06748e-05
4.09693e-05
4.1198e-05
4.15563e-05
4.19056e-05