/*--------------------------------*- C++ -*----------------------------------*\
| =========                 |                                                 |
| \\      /  F ield         | OpenFOAM: The Open Source CFD Toolbox           |
|  \\    /   O peration     | Version:  2312                                  |
|   \\  /    A nd           | Website:  www.openfoam.com                      |
|    \\/     M anipulation  |                                                 |
\*---------------------------------------------------------------------------*/
FoamFile
{
    version     2.0;
    format      ascii;
    arch        "LSB;label=32;scalar=64";
    class       volScalarField;
    location    "1900";
    object      omega;
}
// * * * * * * * * * * * * * * * * * * * * * * * * * * * * * * * * * * * * * //

dimensions      [0 0 -1 0 0 0 0];

internalField   nonuniform List<scalar> 
76025
(
0.0286494
0.0287117
0.0287848
0.0287988
0.0287957
0.0287989
0.0287802
0.0288063
0.0288326
0.0288743
0.0289009
0.0289252
0.0289633
0.0289943
0.0290582
0.02909
0.0291422
0.0291824
0.0292263
0.0292646
0.0293038
0.0293687
0.0294213
0.0294759
0.0295353
0.0295852
0.0296412
0.0296732
0.0297198
0.0297443
0.0297742
0.0298123
0.0298421
0.0298794
0.02992
0.0299531
0.0300117
0.0300468
0.030117
0.0301701
0.030266
0.0303569
0.030497
0.0306355
0.0308482
0.0310718
0.0313917
0.0317068
0.0321525
0.0325586
0.0331171
0.0336181
0.0342722
0.0348274
0.0356469
0.0363411
0.037309
0.0382612
0.039486
0.0407429
0.0423268
0.0437866
0.0459003
0.0477767
0.05052
0.0539298
0.0577761
0.0611135
0.0702899
0.0289185
0.0289688
0.0290308
0.0290897
0.0291273
0.0291667
0.029183
0.0292023
0.0292179
0.0292427
0.0292673
0.0292922
0.0293189
0.0293432
0.0293767
0.0294082
0.0294446
0.0294807
0.0295178
0.0295541
0.0295887
0.0296281
0.0296689
0.0297098
0.0297556
0.0297969
0.0298433
0.0298847
0.0299286
0.0299699
0.0300148
0.0300527
0.0301029
0.0301487
0.0302125
0.030272
0.0303538
0.03043
0.030538
0.0306444
0.0307953
0.0309487
0.0311559
0.0313744
0.0316611
0.0319652
0.0323395
0.032729
0.0331911
0.0336634
0.0342094
0.0347737
0.0354253
0.0361369
0.0369607
0.0378609
0.0389157
0.0400482
0.0413674
0.0428032
0.044437
0.0463166
0.0485158
0.0509633
0.0542587
0.0570756
0.0619167
0.0666897
0.0805541
0.0293745
0.0293306
0.0293499
0.0293908
0.0294279
0.0294681
0.0295007
0.029531
0.0295559
0.0295811
0.0296062
0.0296314
0.0296584
0.0296827
0.0297095
0.0297349
0.0297624
0.0297901
0.02982
0.0298515
0.0298843
0.0299186
0.0299565
0.0299946
0.0300382
0.0300804
0.0301289
0.0301754
0.0302297
0.030281
0.0303449
0.0304046
0.0304814
0.0305546
0.0306512
0.0307442
0.0308673
0.0309856
0.0311437
0.0313012
0.0315091
0.031716
0.0319826
0.0322491
0.032587
0.0329234
0.0333408
0.0337528
0.0342625
0.0347648
0.0353976
0.0360273
0.0368253
0.037616
0.038587
0.0395451
0.0406926
0.0418469
0.0432446
0.044698
0.0465084
0.0484443
0.0507908
0.0534658
0.0564407
0.0606418
0.0650361
0.0709371
0.0855062
0.0298986
0.0299027
0.0299036
0.0299104
0.02992
0.0299351
0.029952
0.0299712
0.0299905
0.0300106
0.0300319
0.0300539
0.0300786
0.0301038
0.030131
0.0301591
0.0301882
0.0302182
0.0302492
0.030281
0.0303149
0.0303491
0.0303876
0.0304261
0.0304715
0.0305166
0.0305712
0.0306251
0.0306916
0.0307571
0.0308402
0.0309219
0.0310256
0.0311275
0.0312568
0.0313837
0.0315443
0.0317009
0.0319002
0.0320982
0.0323447
0.0325899
0.0328919
0.0331972
0.0335722
0.0339555
0.0344216
0.0349011
0.0354845
0.0360906
0.0368245
0.0375783
0.0384656
0.0393512
0.040374
0.0413976
0.0426022
0.0438663
0.0453804
0.0470387
0.0490086
0.0512013
0.0538552
0.0568484
0.0606189
0.0651086
0.069413
0.0789839
0.104967
0.0303163
0.0303614
0.0303932
0.030414
0.0304272
0.0304368
0.0304447
0.030453
0.0304625
0.0304738
0.0304877
0.030504
0.0305233
0.030546
0.0305712
0.0306007
0.0306329
0.0306693
0.0307089
0.0307511
0.0307972
0.0308442
0.0308964
0.0309485
0.0310083
0.0310673
0.0311371
0.0312054
0.0312883
0.0313701
0.0314728
0.0315741
0.0317016
0.0318273
0.0319844
0.0321389
0.0323301
0.0325169
0.0327504
0.0329806
0.0332654
0.0335492
0.0339004
0.0342569
0.0346951
0.0351428
0.0356881
0.03625
0.0369342
0.0376355
0.0384708
0.0393012
0.0402629
0.0412025
0.0422961
0.0434005
0.0447257
0.0461217
0.0478058
0.0496219
0.051797
0.0542433
0.0571752
0.0606065
0.0646682
0.0694411
0.0747905
0.0908571
0.13835
0.0307952
0.0308565
0.0309149
0.0309658
0.0310073
0.0310409
0.0310664
0.0310863
0.0311017
0.0311153
0.0311279
0.0311417
0.0311563
0.0311742
0.0311941
0.0312185
0.0312468
0.0312803
0.0313195
0.0313638
0.0314147
0.0314692
0.031531
0.0315943
0.0316672
0.0317402
0.0318263
0.031912
0.0320148
0.0321177
0.0322442
0.0323691
0.0325232
0.0326742
0.0328602
0.0330419
0.0332641
0.0334819
0.0337527
0.0340199
0.0343511
0.0346815
0.03509
0.0355014
0.0360055
0.0365177
0.0371432
0.0377854
0.0385592
0.0393414
0.0402545
0.0411565
0.0421888
0.0432168
0.0444139
0.0456674
0.0471484
0.048754
0.0506266
0.0527089
0.0551446
0.0579429
0.0613304
0.065129
0.0700953
0.0747289
0.0834841
0.113822
0.221542
0.0313943
0.0314373
0.0314867
0.0315377
0.0315897
0.0316404
0.031689
0.0317332
0.0317735
0.0318098
0.0318434
0.0318753
0.0319061
0.0319377
0.0319698
0.0320044
0.0320411
0.0320817
0.0321256
0.0321749
0.0322293
0.0322897
0.0323572
0.0324291
0.032511
0.032595
0.0326929
0.0327917
0.0329096
0.0330298
0.0331766
0.0333236
0.033504
0.0336816
0.0338993
0.0341111
0.0343699
0.0346237
0.03494
0.0352507
0.0356382
0.0360208
0.0364957
0.0369663
0.0375482
0.0381303
0.0388462
0.0395631
0.0404258
0.0412786
0.0422798
0.0432645
0.044407
0.0455655
0.0469341
0.0483926
0.0500973
0.0519465
0.054052
0.0564332
0.0591378
0.0624121
0.0661642
0.0707044
0.0759725
0.081586
0.0970351
0.156289
0.358291
0.0321805
0.0322156
0.0322558
0.0322976
0.0323417
0.0323883
0.0324359
0.0324842
0.0325315
0.0325781
0.0326232
0.0326679
0.0327123
0.0327571
0.0328038
0.0328522
0.0329045
0.0329608
0.033022
0.0330895
0.0331627
0.0332435
0.0333319
0.0334267
0.033532
0.0336404
0.0337627
0.0338844
0.0340254
0.034167
0.0343353
0.0345027
0.0347054
0.0349048
0.0351499
0.0353891
0.0356852
0.0359773
0.0363437
0.0367028
0.037152
0.0375911
0.0381384
0.0386754
0.0393443
0.0400012
0.0408091
0.0416004
0.0425618
0.0435076
0.0446358
0.0457544
0.0470689
0.0484305
0.0500433
0.0517645
0.0537273
0.0558321
0.0581983
0.0609061
0.0639882
0.0678224
0.0721443
0.0774358
0.0831138
0.0913989
0.121474
0.228314
0.545057
0.0331224
0.0331511
0.0331861
0.0332253
0.0332686
0.0333172
0.0333698
0.033426
0.0334844
0.0335447
0.0336056
0.0336668
0.0337284
0.0337903
0.0338527
0.0339168
0.0339811
0.0340496
0.0341185
0.0341937
0.0342719
0.0343574
0.0344507
0.0345501
0.0346628
0.0347792
0.0349144
0.0350506
0.0352125
0.0353773
0.0355742
0.0357728
0.0360115
0.0362497
0.0365393
0.0368246
0.037175
0.037523
0.0379526
0.0383747
0.0388963
0.0394069
0.0400384
0.0406597
0.0414258
0.0421726
0.0430903
0.0439938
0.0451105
0.0462199
0.0475466
0.048869
0.0504194
0.0520497
0.0539521
0.0559536
0.0581746
0.0605351
0.0632127
0.0663242
0.0699148
0.074478
0.0795406
0.0855182
0.0933326
0.105968
0.162897
0.343592
0.702549
0.0342852
0.0343087
0.0343335
0.0343585
0.0343875
0.0344217
0.0344623
0.0345089
0.0345616
0.0346203
0.0346843
0.0347538
0.0348278
0.0349076
0.0349911
0.0350808
0.0351737
0.0352719
0.0353742
0.0354801
0.0355929
0.0357083
0.0358352
0.0359638
0.0361084
0.0362534
0.0364183
0.036582
0.0367725
0.0369648
0.0371893
0.037418
0.0376867
0.0379615
0.0382877
0.0386167
0.0390136
0.039415
0.0398983
0.0403842
0.0409721
0.0415631
0.0422784
0.0430029
0.0438743
0.0447494
0.0458229
0.0469099
0.0482468
0.0495745
0.0511295
0.052685
0.0544961
0.0564401
0.0586441
0.0609349
0.0634239
0.0660972
0.0692259
0.0728633
0.0772341
0.0827241
0.0888689
0.0956537
0.108251
0.130923
0.233385
0.526134
0.783418
0.035676
0.0357364
0.0357892
0.0358324
0.0358698
0.0359062
0.0359443
0.0359865
0.0360348
0.0360887
0.0361503
0.0362161
0.0362887
0.0363643
0.0364466
0.0365326
0.0366264
0.036725
0.036832
0.0369451
0.0370674
0.0371964
0.0373368
0.0374853
0.0376478
0.0378198
0.0380089
0.0382077
0.0384317
0.0386685
0.0389349
0.0392182
0.0395352
0.0398739
0.0402535
0.0406534
0.0411134
0.0415951
0.042151
0.0427344
0.0434107
0.04412
0.0449402
0.0458113
0.046811
0.0478716
0.0491318
0.0504294
0.051971
0.053489
0.0552551
0.057065
0.0591935
0.0615271
0.0640603
0.0666946
0.0695235
0.0726999
0.0764906
0.0808895
0.0864043
0.0932247
0.100625
0.109752
0.130886
0.174542
0.348574
0.702364
0.834202
0.0369736
0.0370555
0.0371431
0.0372252
0.0373036
0.0373749
0.0374447
0.0375084
0.0375762
0.0376421
0.0377173
0.0377952
0.0378837
0.0379787
0.0380826
0.0381956
0.0383155
0.0384468
0.038583
0.0387328
0.0388864
0.0390559
0.0392284
0.0394202
0.0396145
0.0398308
0.0400517
0.0402942
0.0405535
0.0408333
0.0411373
0.0414649
0.0418218
0.0422103
0.0426324
0.0430941
0.0436067
0.044166
0.0447888
0.0454708
0.0462297
0.0470599
0.0479806
0.0490105
0.0501393
0.0514038
0.0528254
0.0543085
0.0560296
0.0577648
0.0598482
0.0620449
0.0646298
0.0674056
0.0702751
0.0733265
0.0766632
0.0806586
0.085373
0.0908665
0.0981445
0.106624
0.11622
0.129794
0.168215
0.255146
0.545601
0.809333
0.875404
0.0390526
0.0391067
0.0391701
0.0392412
0.0393162
0.0393979
0.0394812
0.0395675
0.0396526
0.039742
0.0398283
0.0399234
0.0400145
0.0401196
0.0402219
0.0403403
0.0404584
0.0405919
0.0407286
0.0408795
0.0410365
0.0412089
0.04139
0.0415901
0.0418024
0.0420375
0.0422889
0.0425665
0.04287
0.0431998
0.0435607
0.0439478
0.0443742
0.0448283
0.0453288
0.0458713
0.0464694
0.0471324
0.0478529
0.0486607
0.0495446
0.0505249
0.0516027
0.052821
0.0541253
0.0556016
0.0572031
0.0589094
0.0609272
0.0630233
0.0655786
0.0681925
0.0711776
0.0742107
0.0773803
0.0810128
0.0852068
0.0904652
0.0963323
0.103574
0.113518
0.123976
0.138911
0.16165
0.235803
0.40479
0.750075
0.879331
0.896377
0.041287
0.0413673
0.0414501
0.0415271
0.0416095
0.0416903
0.0417807
0.0418698
0.0419668
0.0420645
0.0421682
0.0422756
0.0423879
0.0425068
0.0426329
0.0427701
0.0429173
0.0430808
0.0432543
0.0434484
0.0436506
0.0438752
0.0441081
0.0443625
0.044629
0.0449157
0.0452184
0.0455483
0.0458978
0.0462818
0.0466851
0.0471302
0.0476047
0.0481219
0.0486889
0.0493112
0.0500005
0.0507739
0.0516121
0.0525667
0.053608
0.0547566
0.0560517
0.0574535
0.0590015
0.0606946
0.0625904
0.0646006
0.0670364
0.0694771
0.0724161
0.0752164
0.0784467
0.0816965
0.0855757
0.0903009
0.0959394
0.102816
0.110176
0.120702
0.134051
0.148152
0.174737
0.220997
0.365577
0.662916
0.853064
0.904451
0.903815
0.0441445
0.0442541
0.0443656
0.0444683
0.04457
0.0446681
0.0447678
0.0448672
0.0449688
0.0450746
0.045184
0.0453036
0.0454268
0.0455665
0.0457081
0.0458729
0.0460374
0.04623
0.046421
0.0466411
0.0468624
0.0471098
0.0473665
0.0476431
0.0479401
0.0482503
0.0485914
0.0489523
0.0493479
0.0497741
0.0502357
0.0507437
0.0512965
0.0519052
0.0525817
0.0533309
0.0541678
0.0550986
0.0561186
0.0572641
0.0585059
0.0598757
0.0614016
0.0630243
0.0648538
0.0667891
0.0689924
0.0712864
0.074052
0.0767112
0.0800052
0.083072
0.0869779
0.0910595
0.0964828
0.102653
0.110068
0.11875
0.129024
0.144738
0.162067
0.185894
0.23971
0.347934
0.619384
0.842016
0.917178
0.922445
0.908109
0.0473884
0.0475305
0.0476746
0.0478075
0.0479383
0.0480648
0.048193
0.0483227
0.0484544
0.0485959
0.0487386
0.0488999
0.0490607
0.0492442
0.0494268
0.0496315
0.0498387
0.0500654
0.0503008
0.0505522
0.0508181
0.051098
0.0513965
0.0517096
0.0520463
0.0523996
0.052788
0.0532032
0.0536614
0.0541594
0.0547041
0.0553126
0.0559672
0.0567115
0.0575107
0.0584288
0.0594108
0.0605266
0.0617209
0.0630643
0.0645022
0.0661165
0.067842
0.069774
0.071836
0.0741258
0.0766087
0.0793602
0.0824214
0.0855705
0.0894684
0.0933051
0.0985311
0.103885
0.111031
0.118481
0.128297
0.140265
0.156303
0.178165
0.206467
0.258708
0.37878
0.627975
0.844483
0.916992
0.929312
0.922751
0.897054
0.0515664
0.0517382
0.0519062
0.0520768
0.0522315
0.0523922
0.0525358
0.0526886
0.0528252
0.0529779
0.0531219
0.0532889
0.0534584
0.0536514
0.0538562
0.0540771
0.0543149
0.0545593
0.0548251
0.0550937
0.0553893
0.0556929
0.0560283
0.0563811
0.056771
0.0571866
0.0576539
0.0581566
0.0587161
0.0593283
0.0599921
0.0607428
0.0615274
0.0624438
0.0633887
0.0645077
0.0656544
0.0670006
0.0683931
0.0700022
0.07169
0.0736176
0.0756408
0.0779571
0.0803569
0.0831247
0.0860037
0.0892781
0.0927923
0.0967635
0.101452
0.106452
0.112874
0.119339
0.128702
0.138727
0.153608
0.173292
0.196759
0.234754
0.300744
0.42819
0.701078
0.881629
0.942359
0.940102
0.932136
0.91247
0.879423
0.0565532
0.0567613
0.0569704
0.0571793
0.0573839
0.0575914
0.0577977
0.0580048
0.0582132
0.0584209
0.058636
0.0588512
0.0590819
0.059316
0.0595724
0.059836
0.0601241
0.0604216
0.0607403
0.0610716
0.0614205
0.0617891
0.0621779
0.0625945
0.0630422
0.0635272
0.064065
0.0646454
0.0652937
0.0659952
0.0667755
0.0676304
0.0685669
0.0696147
0.0707554
0.0720461
0.0734272
0.0750081
0.0766699
0.0785927
0.0805827
0.0828964
0.085267
0.0880258
0.0908366
0.0941531
0.097507
0.101591
0.105773
0.110962
0.11656
0.123193
0.131446
0.140787
0.155721
0.171292
0.196976
0.228716
0.271446
0.366417
0.526672
0.815978
0.950835
0.977114
0.968713
0.9409
0.913974
0.888353
0.854765
0.0630489
0.0632728
0.0635046
0.0637275
0.0639522
0.0641762
0.0644059
0.0646379
0.0648765
0.0651233
0.0653782
0.0656513
0.0659336
0.0662444
0.0665616
0.0669136
0.0672653
0.0676565
0.0680402
0.0684682
0.0688843
0.0693488
0.0698049
0.0703136
0.0708292
0.0714133
0.0720269
0.0727187
0.0734674
0.0743026
0.0752254
0.0762404
0.0773739
0.0786233
0.0800221
0.0815585
0.0832632
0.0851392
0.0871786
0.0894474
0.0918404
0.0945667
0.0973597
0.10064
0.103948
0.10796
0.112004
0.117168
0.12237
0.12937
0.136797
0.146838
0.159896
0.175814
0.201851
0.227271
0.275537
0.337228
0.4546
0.682088
0.940894
1.03375
1.02988
1.00249
0.946835
0.901228
0.876609
0.854759
0.824173
0.0710961
0.071382
0.0716655
0.0719447
0.072213
0.0724848
0.0727518
0.0730241
0.0732939
0.0735737
0.0738516
0.0741465
0.0744383
0.0747576
0.0750729
0.0754299
0.0757838
0.0761976
0.0766101
0.0771003
0.0775893
0.0781668
0.0787436
0.0794121
0.0800931
0.080873
0.0816795
0.0825884
0.0835491
0.0846192
0.0857792
0.087055
0.0884741
0.0900313
0.0917754
0.0936654
0.0957742
0.0980264
0.100522
0.103172
0.106086
0.109234
0.112633
0.116493
0.120597
0.125581
0.130907
0.137887
0.145415
0.156007
0.168574
0.186025
0.210143
0.238539
0.285626
0.337132
0.444725
0.601114
0.887431
1.0787
1.11768
1.09595
1.0397
0.944229
0.871022
0.839196
0.828566
0.81686
0.792482
0.0814978
0.0818311
0.0821797
0.0825061
0.082838
0.083155
0.0834829
0.0838039
0.084135
0.0844742
0.084823
0.0851957
0.0855789
0.0859986
0.0864288
0.0869062
0.0873895
0.0879328
0.0884775
0.0890929
0.0897126
0.0904111
0.0911203
0.0919227
0.0927569
0.0936913
0.0946767
0.0957769
0.0969498
0.0982581
0.0996596
0.101224
0.102928
0.104818
0.106885
0.109133
0.111607
0.114242
0.117185
0.120275
0.123805
0.127553
0.131949
0.136836
0.142714
0.149702
0.158373
0.1694
0.183517
0.202175
0.227922
0.259229
0.306181
0.361805
0.461339
0.592926
0.839941
1.11297
1.21881
1.20501
1.16201
1.05181
0.918561
0.81992
0.777613
0.775228
0.781433
0.781595
0.762452
0.0950044
0.0954651
0.0959398
0.0963954
0.0968495
0.0972996
0.0977468
0.0982011
0.0986477
0.0991128
0.09957
0.100055
0.100534
0.101049
0.10156
0.102114
0.102667
0.103267
0.103875
0.104535
0.105217
0.10596
0.106746
0.107616
0.108548
0.10959
0.110708
0.111968
0.113321
0.114859
0.116494
0.118379
0.12038
0.122688
0.125131
0.127939
0.130929
0.134333
0.138024
0.142235
0.146996
0.152478
0.159193
0.166956
0.177453
0.189612
0.207478
0.227946
0.258435
0.293247
0.348114
0.406805
0.510711
0.640512
0.864917
1.15615
1.32198
1.33943
1.30517
1.21509
1.04017
0.870543
0.750888
0.698289
0.69705
0.71664
0.741221
0.750845
0.735976
0.112052
0.112535
0.11304
0.113524
0.114008
0.114489
0.114975
0.115465
0.115966
0.116474
0.117004
0.117543
0.118115
0.118696
0.119321
0.119956
0.120645
0.121346
0.122116
0.122907
0.123779
0.124698
0.125721
0.126822
0.128044
0.129386
0.13086
0.132498
0.13427
0.136251
0.138373
0.140792
0.143365
0.146359
0.149506
0.153301
0.157248
0.162303
0.167485
0.174672
0.182158
0.192904
0.205374
0.221964
0.244554
0.270784
0.310775
0.352099
0.417487
0.490761
0.609487
0.739689
0.970619
1.25239
1.44222
1.48501
1.45798
1.3762
1.20832
0.982864
0.794026
0.670124
0.610569
0.604883
0.626695
0.667168
0.705915
0.724411
0.714521
0.136846
0.137584
0.138322
0.139028
0.139723
0.140392
0.14107
0.141713
0.14238
0.143009
0.143673
0.144305
0.144982
0.145633
0.146342
0.147037
0.147811
0.148586
0.149466
0.150366
0.151407
0.152494
0.15375
0.155078
0.156595
0.15821
0.160037
0.162009
0.164234
0.166683
0.169473
0.17265
0.176266
0.180568
0.185471
0.19174
0.198705
0.208714
0.219032
0.235848
0.25211
0.280405
0.308053
0.352241
0.400173
0.463922
0.543899
0.638629
0.77273
0.949038
1.16998
1.45501
1.61573
1.64416
1.62162
1.53807
1.38294
1.1404
0.926309
0.765888
0.64461
0.567434
0.534313
0.541105
0.575759
0.624705
0.672824
0.701198
0.699365
0.167808
0.168581
0.169379
0.17014
0.170897
0.17163
0.172367
0.173093
0.173821
0.17456
0.175303
0.176083
0.176873
0.177727
0.178607
0.179568
0.180586
0.181683
0.182884
0.184161
0.18559
0.187099
0.188804
0.190623
0.192722
0.195003
0.197713
0.200735
0.204382
0.208599
0.213855
0.22017
0.228106
0.238088
0.250642
0.267064
0.287279
0.315328
0.346153
0.392934
0.438318
0.512524
0.577726
0.685126
0.777639
0.920355
1.06374
1.28457
1.53617
1.75667
1.85077
1.84196
1.78504
1.71569
1.52389
1.27883
1.09477
0.957851
0.817176
0.698233
0.598841
0.531852
0.505616
0.514602
0.5475
0.592562
0.640494
0.674633
0.687477
0.216426
0.217631
0.218852
0.220037
0.221235
0.22241
0.223609
0.224797
0.226014
0.227246
0.228514
0.229838
0.231208
0.232681
0.234214
0.235895
0.237661
0.239563
0.241587
0.243754
0.246147
0.248669
0.251719
0.255371
0.260017
0.265866
0.273371
0.282658
0.294401
0.308968
0.327369
0.350225
0.37882
0.414524
0.458444
0.512925
0.579227
0.659858
0.750508
0.865047
0.978647
1.13067
1.2659
1.45472
1.60147
1.83641
2.10474
2.18085
2.15417
2.09834
2.01147
1.86521
1.63043
1.35601
1.20931
1.08366
1.01556
0.959976
0.870131
0.755271
0.636328
0.561453
0.531144
0.532782
0.558597
0.597857
0.639617
0.675544
0.695899
0.346836
0.350128
0.353463
0.356783
0.360139
0.363515
0.366973
0.370478
0.374114
0.37783
0.381747
0.385784
0.39011
0.394622
0.399527
0.40468
0.410448
0.416069
0.423081
0.429879
0.438597
0.450374
0.46571
0.484811
0.50993
0.541943
0.581317
0.628656
0.684786
0.75023
0.826166
0.913273
1.0139
1.12817
1.2575
1.40021
1.55761
1.72699
1.90973
2.10069
2.27996
2.46892
2.61656
2.77077
2.85079
2.78967
2.63261
2.43296
2.21914
1.95131
1.66281
1.37159
1.12428
1.01843
1.11892
1.33638
1.43334
1.42289
1.27428
1.07899
0.87937
0.740317
0.668266
0.648183
0.652795
0.674403
0.703642
0.731484
0.755672
1.27272
1.29236
1.31191
1.33136
1.35077
1.37015
1.38965
1.40918
1.42905
1.44898
1.46959
1.49034
1.51197
1.53443
1.55693
1.58321
1.60557
1.63939
1.68504
1.74195
1.81041
1.88699
1.97491
2.07098
2.17669
2.29113
2.41366
2.54649
2.68794
2.83751
2.9968
3.16885
3.34963
3.53489
3.72292
3.90285
4.0778
4.21785
4.3489
4.39062
4.36866
4.29162
4.18041
3.91246
3.53009
2.98641
2.47993
2.03533
1.67396
1.43375
1.29965
1.23338
1.22638
1.38472
1.88411
2.36957
2.60683
2.69128
2.54464
2.27247
1.91338
1.54969
1.31613
1.21748
1.19524
1.18357
1.18635
1.19351
1.17926
8.34165
8.34134
8.34011
8.33789
8.3347
8.33048
8.32528
8.31901
8.31178
8.30339
8.29412
8.28351
8.27224
8.25918
8.24612
8.23016
8.21655
8.19225
8.1658
8.13754
8.10747
8.07508
8.04888
8.00623
7.9681
7.93339
7.87821
7.84064
7.79109
7.73419
7.67177
7.60247
7.52671
7.44466
7.35604
7.26159
7.16336
7.06475
6.97116
6.89058
6.82866
6.7832
6.74493
6.70678
6.66732
6.62819
6.58969
6.55177
6.51443
6.47745
6.44034
6.40323
6.36692
6.33177
6.29861
6.26947
6.24715
6.23343
6.22774
6.22828
6.2338
6.24404
6.26242
6.2913
6.32256
6.35767
6.39694
6.44606
6.5041
0.0282362
0.0282219
0.0282591
0.0282658
0.0282663
0.0283423
0.02838
0.0283815
0.0283993
0.028377
0.0283774
0.028397
0.0284602
0.0285046
0.0284916
0.0284711
0.0284709
0.0285023
0.0285449
0.0285222
0.0284863
0.0285015
0.0284967
0.0285101
0.0284882
0.0284682
0.02849
0.0284838
0.028473
0.0285043
0.0284743
0.0284855
0.0284772
0.0284746
0.0284759
0.0284391
0.0284561
0.0284745
0.0284712
0.0284932
0.0284706
0.0284956
0.0284721
0.028425
0.0284264
0.0284247
0.0284097
0.0283744
0.0283946
0.0284731
0.0285556
0.0286931
0.0286868
0.0286565
0.0286366
0.0285792
0.0285223
0.0285273
0.0285779
0.028523
0.02854
0.0285398
0.0286223
0.0286785
0.0286993
0.0286749
0.028657
0.0286559
0.0286608
0.0286636
0.0287258
0.0287852
0.0287909
0.0287371
0.0287147
0.0287373
0.0287856
0.0287982
0.0287406
0.0287342
0.0287454
0.0287438
0.0287513
0.0287207
0.02872
0.0287312
0.0287254
0.0287113
0.0287301
0.0287089
0.0287173
0.0287075
0.0287003
0.028706
0.0286771
0.0286802
0.0287133
0.0287222
0.0287262
0.0287126
0.0287316
0.0287303
0.0287109
0.0286917
0.0286773
0.0286834
0.0286622
0.0286534
0.0286823
0.0287398
0.0288636
0.0289587
0.0290289
0.029013
0.0289953
0.0289974
0.0289299
0.0289018
0.0289318
0.0289581
0.0290121
0.0290392
0.0290114
0.0289941
0.0289676
0.0289716
0.0289944
0.0289831
0.0290345
0.0290981
0.0291115
0.0290432
0.0290393
0.0290389
0.0290839
0.0291116
0.0290766
0.029044
0.0290476
0.0290459
0.0290406
0.0290431
0.0290146
0.0290045
0.0290159
0.0290106
0.028992
0.0289995
0.0289868
0.0289974
0.0289868
0.0289754
0.028986
0.0289655
0.028954
0.0289823
0.0290127
0.0290246
0.0290194
0.0290315
0.0290248
0.029019
0.0289946
0.0289832
0.0289878
0.028957
0.0289605
0.0289731
0.0289982
0.0290693
0.0291627
0.0292674
0.0293612
0.029394
0.0293962
0.0293887
0.0293893
0.0295029
0.0294732
0.0294915
0.0294786
0.0294174
0.0294126
0.0294158
0.0294192
0.0294012
0.0294682
0.0295369
0.0295287
0.0294618
0.0294598
0.0294623
0.0294619
0.029473
0.0294755
0.0293952
0.0293776
0.0293896
0.0294044
0.0294111
0.0293948
0.0293593
0.0293714
0.0293696
0.0293614
0.0293373
0.0293385
0.0293285
0.0293337
0.0293239
0.0293096
0.0293205
0.0293075
0.0292932
0.0293129
0.0293483
0.0293805
0.029383
0.029391
0.029401
0.0293965
0.0293772
0.0293683
0.029355
0.0293692
0.0293802
0.0293888
0.0293903
0.0294221
0.0294731
0.0295482
0.0296322
0.0297188
0.0297836
0.0298416
0.0298756
0.0299542
0.029917
0.0299254
0.0299155
0.0299318
0.0299382
0.0299357
0.0299133
0.0299567
0.0299896
0.0299377
0.0299153
0.0298959
0.0298972
0.029891
0.0299079
0.0299517
0.0298651
0.0298056
0.0298033
0.0298196
0.0298452
0.0298163
0.0298005
0.0297983
0.0297689
0.0297743
0.0297687
0.0297356
0.0297341
0.029726
0.0297334
0.0297265
0.0297102
0.029724
0.0297147
0.0296987
0.0297102
0.0297454
0.0297937
0.0298142
0.0298304
0.0298387
0.0298463
0.0298409
0.0298454
0.0298431
0.0298487
0.0298596
0.029871
0.0298773
0.0298933
0.0299173
0.0299585
0.0300107
0.0300771
0.0301418
0.0302112
0.0302667
0.0305925
0.0305841
0.0305773
0.0305449
0.0306008
0.0306112
0.0305939
0.0305764
0.0305483
0.0305405
0.0304662
0.0304649
0.0304657
0.0304483
0.0304843
0.0305075
0.0304102
0.030342
0.030324
0.0303355
0.0303377
0.0303455
0.0303562
0.0303034
0.0302742
0.0302877
0.030281
0.0302579
0.0302236
0.0302169
0.0302066
0.0302072
0.0302005
0.0301813
0.0301946
0.0301902
0.0301781
0.0301802
0.0302041
0.0302617
0.0302992
0.0303222
0.0303456
0.0303691
0.0303817
0.0303965
0.0304069
0.0304169
0.0304316
0.0304497
0.030464
0.0304803
0.0304961
0.0305198
0.0305481
0.0305899
0.030634
0.0306918
0.030744
0.0313155
0.0313814
0.0313689
0.0313579
0.0312762
0.0312453
0.0312284
0.0312609
0.0312463
0.0312311
0.0312035
0.031231
0.0312174
0.0312151
0.0311548
0.0310386
0.0309616
0.0309202
0.0309291
0.0309437
0.0309906
0.0310053
0.0309088
0.0308854
0.0309008
0.030854
0.0308381
0.030835
0.03079
0.0307823
0.0307729
0.0307747
0.0307724
0.0307511
0.0307681
0.0307642
0.0307574
0.0307583
0.0307705
0.0308245
0.0308798
0.0309218
0.0309541
0.0309892
0.031019
0.0310432
0.0310589
0.0310689
0.0310813
0.0311016
0.0311238
0.0311498
0.031174
0.031201
0.0312259
0.0312578
0.0312873
0.0313277
0.0313635
0.0321944
0.0321647
0.0321284
0.0320732
0.0320747
0.0321131
0.0321109
0.0320629
0.0321135
0.0321125
0.0320151
0.0319649
0.0319271
0.0318672
0.0317635
0.0317193
0.0317027
0.0316763
0.0317307
0.0317386
0.031732
0.0316544
0.031661
0.0316215
0.0315647
0.031569
0.0315703
0.0315204
0.0314802
0.0314659
0.0314513
0.0314438
0.0314383
0.0314125
0.0314264
0.0314285
0.0314229
0.0314223
0.0314233
0.0314644
0.0315208
0.031576
0.0316216
0.0316666
0.0317159
0.031764
0.0318034
0.0318314
0.031852
0.0318739
0.0318958
0.0319225
0.0319484
0.0319796
0.0320076
0.0320436
0.0320748
0.0321178
0.032154
0.0331822
0.0331806
0.0331494
0.0330557
0.0331219
0.0331551
0.0331408
0.0331069
0.0330896
0.0328956
0.0328315
0.0327496
0.0326973
0.0327027
0.0327227
0.032651
0.0326812
0.0326792
0.0325923
0.0325837
0.0325774
0.0325894
0.0324727
0.0324229
0.0324454
0.032411
0.0323501
0.0323455
0.0322883
0.0322747
0.0322593
0.0322522
0.0322527
0.0322261
0.0322373
0.0322521
0.0322527
0.0322493
0.03225
0.0322788
0.0323295
0.0323918
0.0324491
0.0325024
0.0325558
0.0326121
0.0326658
0.0327131
0.0327509
0.0327881
0.0328214
0.0328583
0.0328912
0.0329281
0.03296
0.0329974
0.0330278
0.0330685
0.0331023
0.0343961
0.0344585
0.0344466
0.0344435
0.0343593
0.034331
0.034249
0.0341516
0.0340243
0.0339723
0.0339939
0.0339134
0.0339692
0.0338451
0.0337784
0.0337358
0.0336693
0.0336254
0.0336587
0.0337262
0.0336379
0.0335052
0.0334665
0.0335042
0.0334193
0.0333644
0.0333937
0.0333125
0.0332679
0.0332462
0.0332224
0.0332026
0.0331949
0.0331622
0.0331625
0.0331787
0.0331783
0.0331829
0.0331799
0.0331967
0.0332366
0.0332921
0.0333556
0.0334188
0.0334859
0.033556
0.0336264
0.0336953
0.0337547
0.0338092
0.0338591
0.0339093
0.0339589
0.0340119
0.0340601
0.0341173
0.0341642
0.0342198
0.0342634
0.0359935
0.0359674
0.0359011
0.0358243
0.0355327
0.0354672
0.0353434
0.0353018
0.0352808
0.0353132
0.0351961
0.0351248
0.0350747
0.0349992
0.0350024
0.0350076
0.0351068
0.0350815
0.0350811
0.0348807
0.0347587
0.0347601
0.0347882
0.0346333
0.0345956
0.0346201
0.0345062
0.0345008
0.0344302
0.0344066
0.03438
0.0343609
0.0343607
0.0343307
0.0343259
0.0343511
0.0343611
0.0343732
0.0343756
0.034386
0.034417
0.034469
0.0345296
0.0345939
0.0346578
0.0347279
0.0348008
0.0348784
0.0349538
0.0350291
0.0350934
0.0351635
0.0352168
0.0352863
0.0353385
0.0353995
0.0354614
0.0355395
0.0356166
0.0374817
0.0373467
0.0372428
0.0371418
0.0371376
0.0372106
0.0371817
0.0370658
0.0371263
0.0370957
0.0368903
0.0367227
0.0366702
0.0366981
0.036753
0.0367274
0.0364895
0.036438
0.0363911
0.0363551
0.036381
0.0362225
0.0361107
0.0360933
0.0360804
0.0359785
0.0360026
0.0358853
0.0358329
0.0358007
0.0357634
0.0357271
0.0357124
0.0356709
0.0356504
0.035661
0.0356684
0.0356855
0.0356934
0.0357086
0.0357308
0.0357715
0.0358336
0.0359062
0.0359838
0.0360638
0.0361459
0.0362327
0.0363183
0.0364075
0.0364961
0.0365794
0.0366753
0.0367419
0.0368528
0.0369175
0.0369692
0.0369355
0.0369288
0.039504
0.0392632
0.0392782
0.0392796
0.0392516
0.0392106
0.03918
0.0389664
0.0388664
0.0387926
0.0387244
0.0387938
0.0387699
0.0386221
0.0385438
0.0384043
0.0384234
0.0384485
0.0383092
0.0381658
0.0380244
0.0379509
0.037998
0.0378814
0.0377709
0.0378003
0.0376232
0.0376095
0.0375258
0.0374849
0.0374396
0.0374036
0.0373963
0.0373628
0.0373431
0.0373586
0.0373715
0.0373962
0.0374125
0.0374287
0.0374616
0.0374978
0.0375468
0.0376117
0.0376869
0.0377714
0.0378594
0.0379559
0.0380526
0.038153
0.0382528
0.0383512
0.0384549
0.0385524
0.0386537
0.0387638
0.0388516
0.0389449
0.0390153
0.0417665
0.0417961
0.0418327
0.0417693
0.0418463
0.0417681
0.0416519
0.0412749
0.0412596
0.0412312
0.0412622
0.0410341
0.04102
0.0409673
0.0407317
0.0407579
0.0408045
0.0404991
0.0403784
0.0402127
0.0402049
0.0402328
0.0400355
0.0399141
0.03995
0.0397623
0.0397882
0.039633
0.039564
0.0395134
0.0394583
0.0393997
0.0393707
0.039316
0.0392738
0.0392657
0.0392675
0.0392866
0.039316
0.0393379
0.0393657
0.0394145
0.039472
0.0395418
0.039621
0.0397117
0.0398063
0.0399122
0.04002
0.0401372
0.040253
0.0403737
0.0404913
0.0406149
0.0407301
0.0408594
0.0409738
0.0411024
0.0412137
0.0449424
0.0447581
0.0448813
0.0446227
0.0445403
0.0442804
0.0441644
0.0440025
0.0439857
0.0440637
0.043927
0.0441193
0.0440885
0.0439719
0.0435486
0.0434645
0.0432155
0.0431353
0.0430748
0.0429682
0.0428609
0.0427474
0.0425771
0.0426238
0.0424154
0.042453
0.0422087
0.042164
0.0420689
0.0419989
0.0419246
0.0418622
0.0418385
0.0417983
0.0417683
0.0417649
0.0417729
0.0417953
0.0418226
0.041866
0.0419058
0.0419459
0.042005
0.0420777
0.0421629
0.0422612
0.0423655
0.042482
0.0426021
0.0427344
0.0428673
0.0430119
0.0431516
0.0433045
0.0434458
0.0436036
0.0437444
0.0439048
0.0440453
0.0483986
0.0484146
0.048472
0.0483744
0.0480695
0.0481315
0.0481997
0.0481482
0.0480531
0.0477206
0.0477292
0.0475841
0.0469714
0.0469175
0.0468256
0.0468907
0.0468163
0.0465782
0.0462487
0.0461535
0.0459694
0.0458434
0.0459065
0.0456485
0.0456797
0.0453646
0.0453778
0.0451963
0.0450932
0.0450083
0.0449248
0.044838
0.044785
0.0447105
0.0446431
0.04461
0.0445966
0.0446112
0.044641
0.0446725
0.0447358
0.0448015
0.0448675
0.0449505
0.0450429
0.0451535
0.0452725
0.0454054
0.0455426
0.0456941
0.045846
0.0460126
0.046175
0.0463541
0.046524
0.0467136
0.046888
0.0470851
0.047261
0.0531457
0.0530403
0.0526474
0.0524865
0.0523219
0.0521724
0.051883
0.0516284
0.0515318
0.0514757
0.0514997
0.05144
0.0516038
0.0513277
0.0512641
0.0509235
0.0506797
0.0503444
0.0500949
0.0500229
0.0499274
0.0499816
0.049632
0.0496516
0.049319
0.0493701
0.0491096
0.048978
0.0488662
0.048759
0.0486402
0.0485357
0.0484796
0.0484243
0.0483811
0.0483689
0.0483585
0.0483784
0.0484202
0.0484693
0.0485165
0.0485982
0.0486854
0.0487815
0.0488902
0.0490093
0.0491414
0.0492911
0.0494465
0.0496205
0.0497956
0.0499892
0.0501781
0.0503849
0.0505807
0.050796
0.0509951
0.0512183
0.0514235
0.0583543
0.0580432
0.0577786
0.057599
0.0574663
0.0574479
0.0577395
0.0576386
0.0576318
0.0572171
0.0573385
0.0571321
0.0565688
0.0563524
0.0559012
0.055672
0.0553032
0.055225
0.0552565
0.0549901
0.0550352
0.0546402
0.0546808
0.0543218
0.0543852
0.0539142
0.0538416
0.0536408
0.0534927
0.0533389
0.0532047
0.0530783
0.0529934
0.0528853
0.0527816