/*--------------------------------*- C++ -*----------------------------------*\
| =========                 |                                                 |
| \\      /  F ield         | OpenFOAM: The Open Source CFD Toolbox           |
|  \\    /   O peration     | Version:  2312                                  |
|   \\  /    A nd           | Website:  www.openfoam.com                      |
|    \\/     M anipulation  |                                                 |
\*---------------------------------------------------------------------------*/
FoamFile
{
    version     2.0;
    format      ascii;
    arch        "LSB;label=32;scalar=64";
    class       volScalarField;
    location    "1900";
    object      p;
}
// * * * * * * * * * * * * * * * * * * * * * * * * * * * * * * * * * * * * * //

dimensions      [0 2 -2 0 0 0 0];

internalField   nonuniform List<scalar> 
76025
(
0.000405065
0.000399633
0.000394081
0.000388633
0.000383029
0.000377427
0.000371434
0.000365644
0.000359694
0.000353782
0.000347675
0.000341472
0.000335198
0.000328903
0.000322603
0.00031621
0.000309908
0.000303433
0.000297021
0.000290745
0.000284421
0.000277862
0.000271357
0.000264939
0.000258502
0.000252158
0.000245804
0.000239322
0.000233105
0.000226676
0.000220774
0.000214606
0.000208504
0.0002026
0.000196877
0.000191328
0.000185872
0.000180387
0.000175096
0.000169999
0.000165217
0.000160576
0.000156019
0.000151739
0.000147972
0.000144303
0.000140916
0.000137682
0.000135078
0.000132699
0.000130692
0.00012917
0.000128045
0.000127445
0.000127533
0.000128003
0.00012909
0.000130545
0.000132617
0.000135583
0.000139556
0.00014323
0.00014738
0.000152451
0.000157665
0.000161526
0.000165833
0.00017169
0.000170971
0.000408922
0.000403153
0.000397353
0.000391601
0.000385769
0.000379775
0.000373725
0.000367623
0.000361395
0.000355084
0.000348668
0.000342225
0.000335759
0.000329246
0.000322687
0.000316128
0.000309481
0.000302874
0.000296203
0.000289612
0.000282905
0.000276233
0.000269601
0.000262994
0.000256385
0.000249808
0.000243263
0.000236842
0.000230448
0.000224077
0.000217847
0.000211538
0.000205382
0.000199456
0.000193565
0.000187817
0.000182113
0.000176639
0.000171428
0.000166341
0.000161491
0.000156788
0.000152393
0.000148363
0.000144588
0.000141051
0.000137795
0.000134936
0.000132479
0.000130378
0.000128676
0.000127459
0.000126771
0.000126689
0.00012727
0.000128411
0.000130212
0.000132742
0.000136068
0.000140309
0.000145511
0.000151141
0.000157422
0.000164483
0.000171922
0.000179236
0.000186399
0.000194263
0.000197452
0.000413281
0.000407219
0.000401106
0.000395027
0.00038888
0.000382632
0.000376279
0.000369823
0.000363282
0.000356663
0.00034999
0.000343282
0.000336531
0.000329739
0.000322913
0.000316038
0.000309143
0.000302238
0.000295327
0.000288403
0.000281485
0.000274604
0.000267745
0.000260908
0.000254103
0.00024734
0.000240653
0.000234027
0.00022744
0.000220922
0.000214478
0.000208115
0.000201876
0.000195764
0.000189773
0.000183941
0.000178282
0.000172834
0.000167575
0.000162494
0.000157633
0.000153018
0.000148695
0.000144662
0.000140919
0.000137505
0.000134449
0.000131778
0.000129505
0.000127666
0.000126296
0.00012545
0.000125189
0.000125569
0.000126646
0.000128456
0.000131083
0.000134591
0.000139062
0.000144589
0.00015121
0.000158791
0.000167266
0.00017662
0.000186645
0.000197092
0.000207425
0.000218523
0.000225503
0.000417484
0.000411096
0.00040464
0.000398226
0.000391757
0.000385171
0.000378464
0.000371662
0.000364792
0.000357866
0.00035089
0.000343865
0.000336793
0.000329678
0.000322532
0.00031536
0.000308178
0.000300992
0.000293811
0.000286638
0.000279486
0.00027236
0.000265263
0.000258206
0.000251198
0.000244245
0.000237356
0.000230532
0.000223782
0.000217118
0.000210549
0.000204081
0.00019772
0.000191501
0.000185455
0.000179595
0.00017392
0.000168431
0.000163133
0.000158043
0.000153189
0.000148601
0.000144301
0.00014031
0.000136654
0.000133359
0.000130447
0.000127941
0.000125869
0.000124272
0.000123188
0.000122674
0.000122796
0.000123624
0.000125233
0.000127698
0.000131104
0.000135544
0.000141125
0.000147949
0.000156088
0.000165535
0.000176216
0.000188039
0.000200834
0.000214479
0.000228312
0.000243421
0.000254947
0.000421441
0.000414697
0.000407884
0.000401119
0.000394303
0.000387364
0.000380305
0.000373156
0.000365944
0.000358679
0.000351365
0.000344005
0.000336604
0.000329173
0.00032172
0.000314255
0.000306787
0.000299324
0.000291873
0.000284442
0.000277039
0.000269671
0.000262347
0.000255074
0.00024786
0.000240713
0.00023364
0.00022665
0.000219751
0.000212949
0.00020625
0.000199659
0.000193193
0.000186893
0.000180783
0.000174866
0.000169135
0.000163594
0.000158258
0.000153148
0.000148291
0.000143712
0.000139437
0.000135489
0.000131895
0.000128682
0.000125879
0.000123511
0.000121612
0.00012022
0.000119386
0.00011917
0.000119645
0.000120892
0.000123002
0.000126073
0.000130216
0.000135548
0.000142199
0.000150295
0.000159944
0.000171222
0.000184138
0.00019857
0.000214327
0.000231352
0.000249077
0.000268886
0.00028494
0.000425293
0.000418166
0.000410977
0.000403844
0.000396664
0.000389363
0.000381941
0.00037443
0.000366857
0.000359236
0.000351571
0.000343867
0.000336131
0.000328373
0.000320602
0.000312828
0.000305058
0.000297301
0.000289566
0.000281861
0.000274193
0.000266573
0.000259008
0.000251507
0.000244077
0.000236726
0.000229462
0.000222294
0.000215227
0.000208268
0.000201424
0.000194702
0.000188126
0.000181734
0.000175543
0.000169552
0.000163757
0.000158165
0.000152791
0.000147658
0.000142791
0.000138216
0.000133957
0.000130038
0.000126487
0.000123336
0.000120617
0.000118361
0.000116601
0.000115381
0.000114756
0.000114793
0.000115572
0.000117188
0.000119748
0.00012337
0.00012819
0.000134352
0.000142011
0.000151328
0.000162452
0.000175518
0.000190624
0.000207727
0.000226625
0.000247295
0.00026944
0.000294319
0.000314294
0.00042901
0.000421471
0.000413877
0.000406352
0.000398784
0.000391096
0.000383289
0.000375395
0.000367442
0.000359446
0.000351414
0.000343349
0.000335259
0.000327154
0.000319043
0.000310938
0.000302846
0.000294779
0.000286744
0.00027875
0.000270807
0.000262924
0.000255108
0.00024737
0.000239716
0.000232154
0.000224694
0.000217341
0.000210104
0.000202988
0.000196003
0.000189155
0.000182474
0.000175992
0.000169722
0.000163661
0.000157805
0.000152161
0.000146747
0.000141586
0.000136702
0.00013212
0.000127863
0.000123956
0.000120428
0.000117311
0.000114642
0.000112457
0.000110792
0.000109695
0.000109226
0.000109457
0.000110478
0.000112396
0.000115332
0.000119428
0.000124839
0.000131741
0.00014032
0.000150773
0.000163297
0.00017808
0.000195292
0.00021504
0.000237214
0.000261883
0.000289033
0.000318921
0.000342688
0.000432517
0.000424537
0.000416509
0.000408559
0.000400574
0.000392471
0.000384251
0.000375948
0.000367593
0.000359203
0.000350783
0.000342338
0.000333876
0.000325406
0.000316941
0.000308491
0.000300067
0.000291678
0.000283333
0.000275044
0.000266818
0.000258666
0.000250596
0.000242617
0.000234737
0.000226965
0.000219307
0.000211772
0.000204367
0.000197099
0.000189974
0.000183004
0.000176219
0.000169649
0.000163298
0.000157162
0.000151239
0.000145538
0.000140077
0.000134879
0.000129968
0.000125367
0.000121098
0.000117185
0.000113655
0.000110542
0.000107886
0.000105727
0.000104108
0.000103079
0.000102701
0.000103056
0.000104239
0.00010637
0.000109587
0.000114049
0.000119937
0.000127456
0.000136828
0.000148292
0.000162096
0.000178492
0.00019773
0.000220064
0.000245589
0.000274653
0.000307086
0.000341545
0.000369592
0.000435761
0.000427314
0.000418825
0.000410424
0.000401992
0.000393446
0.000384785
0.000376047
0.000367264
0.000358455
0.000349626
0.000340782
0.00033193
0.000323081
0.000314248
0.000305441
0.000296673
0.000287953
0.000279291
0.000270698
0.000262183
0.000253757
0.000245428
0.000237205
0.000229097
0.000221112
0.000213257
0.00020554
0.000197967
0.000190546
0.000183281
0.00017619
0.000169304
0.000162644
0.000156211
0.000149998
0.000144006
0.000138245
0.000132733
0.000127493
0.000122547
0.000117917
0.000113622
0.000109683
0.000106127
0.000102987
0.000100304
9.81232e-05
9.64923e-05
9.54637e-05
9.51029e-05
9.54939e-05
9.67414e-05
9.89748e-05
0.000102347
0.000107038
0.000113252
0.000121224
0.000131213
0.000143507
0.000158417
0.00017628
0.000197461
0.000222367
0.000251323
0.000285007
0.00032246
0.00036068
0.000390593
0.000438684
0.000429744
0.000420766
0.000411888
0.000402984
0.000393967
0.000384839
0.000375639
0.000366402
0.000357148
0.000347886
0.00033862
0.000329358
0.000320111
0.000310893
0.000301716
0.00029259
0.000283528
0.000274539
0.000265634
0.000256824
0.000248118
0.000239527
0.000231058
0.00022272
0.000214522
0.00020647
0.000198572
0.000190834
0.000183262
0.000175862
0.000168655
0.000161672
0.000154925
0.00014841
0.000142121
0.00013606
0.000130237
0.000124672
0.000119385
0.000114397
0.000109725
0.000105386
0.0001014
9.77922e-05
9.4593e-05
9.18426e-05
8.95879e-05
8.78813e-05
8.67788e-05
8.63473e-05
8.66735e-05
8.78682e-05
9.007e-05
9.34458e-05
9.81913e-05
0.000104536
0.000112742
0.000123111
0.000135987
0.000151759
0.000170876
0.000193857
0.000221283
0.000253708
0.000291802
0.00033356
0.000374838
0.000406407
0.000441209
0.000431745
0.00042225
0.000412866
0.000403462
0.000393948
0.000384326
0.000374638
0.00036492
0.000355197
0.000345477
0.000335765
0.000326072
0.000316407
0.000306786
0.000297222
0.000287726
0.000278309
0.000268983
0.00025976
0.000250648
0.00024166
0.000232803
0.000224088
0.000215522
0.000207113
0.000198869
0.000190794
0.000182897
0.00017518
0.000167653
0.000160339
0.000153264
0.000146434
0.00013984
0.000133476
0.000127346
0.000121462
0.000115842
0.000110503
0.000105464
0.000100738
9.6339e-05
9.22846e-05
8.85968e-05
8.53046e-05
8.24453e-05
8.00641e-05
7.82143e-05
7.69559e-05
7.63565e-05
7.65034e-05
7.75106e-05
7.95234e-05
8.27188e-05
8.73058e-05
9.35333e-05
0.000101693
0.000112131
0.000125255
0.000141551
0.000161609
0.000186119
0.000215816
0.000251368
0.000293056
0.000337808
0.000380817
0.000411933
0.000443248
0.000433226
0.000423181
0.00041326
0.000403326
0.000393287
0.000383143
0.000372938
0.000362714
0.000352495
0.000342293
0.000332114
0.000321967
0.000311865
0.000301824
0.000291856
0.000281976
0.000272194
0.000262523
0.000252973
0.000243556
0.000234283
0.000225161
0.000216201
0.000207411
0.000198796
0.000190365
0.000182122
0.000174072
0.00016622
0.000158577
0.000151167
0.000144009
0.0001371
0.000130432
0.000123998
0.000117804
0.00011186
0.000106185
0.000100792
9.56947e-05
9.09035e-05
8.6429e-05
8.2285e-05
7.84906e-05
7.50713e-05
7.20606e-05
6.95e-05
6.74391e-05
6.59379e-05
6.50651e-05
6.49063e-05
6.55753e-05
6.72189e-05
7.00182e-05
7.41901e-05
7.99992e-05
8.77649e-05
9.78792e-05
0.000110821
0.000127188
0.000147728
0.000173262
0.000204592
0.000242294
0.000286084
0.000331644
0.000374541
0.000405401
0.000444703
0.000434085
0.000423454
0.000412962
0.000402466
0.000391868
0.000381172
0.000370421
0.000359663
0.000348923
0.000338214
0.000327544
0.000316923
0.000306365
0.000295885
0.0002855
0.000275222
0.000265064
0.000255039
0.000245159
0.000235433
0.000225873
0.000216489
0.000207288
0.000198278
0.000189466
0.000180857
0.000172455
0.000164266
0.000156291
0.000148547
0.000141055
0.000133824
0.000126847
0.000120113
0.000113618
0.000107366
0.00010137
9.56431e-05
9.01959e-05
8.50371e-05
8.01726e-05
7.56093e-05
7.13572e-05
6.74313e-05
6.38526e-05
6.06493e-05
5.78568e-05
5.55185e-05
5.36876e-05
5.2431e-05
5.18313e-05
5.19964e-05
5.30681e-05
5.52239e-05
5.86825e-05
6.37204e-05
7.06813e-05
8.00024e-05
9.22282e-05
0.000108069
0.000128398
0.000154053
0.000185771
0.000223994
0.000267692
0.000311822
0.000352123
0.00037723
0.000445456
0.000434202
0.000422947
0.000411846
0.000400752
0.000389563
0.00037828
0.000366953
0.00035563
0.000344341
0.0003331
0.000321916
0.0003108
0.000299766
0.000288832
0.000278015
0.000267328
0.000256786
0.000246402
0.000236186
0.000226151
0.000216308
0.000206664
0.000197229
0.00018801
0.000179011
0.000170237
0.000161693
0.000153379
0.0001453
0.000137474
0.000129917
0.000122629
0.000115597
0.000108811
0.000102267
9.59709e-05
8.99325e-05
8.41612e-05
7.86638e-05
7.34433e-05
6.85013e-05
6.38402e-05
5.94654e-05
5.53871e-05
5.16202e-05
4.81861e-05
4.51119e-05
4.2432e-05
4.01888e-05
3.84397e-05
3.72589e-05
3.67421e-05
3.70188e-05
3.82582e-05
4.06747e-05
4.45505e-05
5.02356e-05
5.81959e-05
6.90408e-05
8.35512e-05
0.000102567
0.00012679
0.000156969
0.000193669
0.000234983
0.000276624
0.000313692
0.000337847
0.00044537
0.000433436
0.000421514
0.000409764
0.000398034
0.000386216
0.000374312
0.000362375
0.000350456
0.000338588
0.000326788
0.000315065
0.000303431
0.000291903
0.000280499
0.000269236
0.000258131
0.000247198
0.00023645
0.000225899
0.000215558
0.000205436
0.000195542
0.000185885
0.000176469
0.0001673
0.000158381
0.000149712
0.000141296
0.000133138
0.000125255
0.000117654
0.000110328
0.000103262
9.64435e-05
8.98713e-05
8.35497e-05
7.74853e-05
7.16834e-05
6.61452e-05
6.08687e-05
5.58506e-05
5.10884e-05
4.65824e-05
4.23367e-05
3.83591e-05
3.46619e-05
3.12618e-05
2.81812e-05
2.54492e-05
2.31048e-05
2.12035e-05
1.98228e-05
1.90755e-05
1.91176e-05
2.01466e-05
2.24134e-05
2.6261e-05
3.21807e-05
4.07934e-05
5.27718e-05
6.86926e-05
8.93361e-05
0.00011596
0.000149049
0.000186512
0.000224412
0.000257545
0.000282642
0.000444281
0.000431621
0.000418986
0.000406546
0.000394139
0.000381653
0.00036909
0.000356506
0.000343957
0.00033148
0.000319093
0.000306806
0.000294634
0.000282593
0.000270704
0.000258986
0.000247455
0.000236127
0.000225016
0.000214135
0.000203495
0.000193106
0.000182978
0.000173117
0.000163527
0.000154212
0.000145173
0.00013641
0.000127921
0.000119716
0.000111806
0.00010419
9.68524e-05
8.97761e-05
8.2951e-05
7.63749e-05
7.00504e-05
6.39805e-05
5.81651e-05
5.26e-05
4.72779e-05
4.21904e-05
3.73301e-05
3.26914e-05
2.82713e-05
2.4069e-05
2.00864e-05
1.63267e-05
1.27976e-05
9.50801e-06
6.47213e-06
3.72275e-06
1.31482e-06
-6.62434e-07
-2.1006e-06
-2.84731e-06
-2.69658e-06
-1.313e-06
1.74325e-06
6.87923e-06
1.44393e-05
2.5167e-05
4.05882e-05
6.23868e-05
9.06576e-05
0.00012356
0.000156876
0.000186617
0.000209095
0.00044199
0.00042855
0.000415154
0.000401975
0.000388846
0.000375648
0.000362385
0.000349115
0.0003359
0.000322779
0.000309774
0.000296897
0.000284162
0.000271589
0.0002592
0.000247014
0.000235051
0.000223327
0.000211855
0.00020065
0.000189723
0.000179084
0.000168741
0.0001587
0.000148963
0.000139533
0.000130407
0.000121584
0.000113063
0.000104853
9.69578e-05
8.9365e-05
8.20545e-05
7.50084e-05
6.82162e-05
6.16746e-05
5.53832e-05
4.93398e-05
4.35389e-05
3.79709e-05
3.26235e-05
2.74835e-05
2.25384e-05
1.77765e-05
1.31878e-05
8.76124e-06
4.4875e-06
3.53874e-07
-3.65558e-06
-7.55595e-06
-1.13535e-05
-1.50378e-05
-1.85974e-05
-2.20093e-05
-2.52312e-05
-2.81496e-05
-3.06323e-05
-3.24407e-05
-3.34483e-05
-3.35513e-05
-3.20456e-05
-2.73378e-05
-1.73878e-05
-9.24154e-07
2.21515e-05
5.03645e-05
8.03554e-05
0.000108436
0.000130914
0.000438277
0.000424004
0.000409793
0.000395828
0.000381931
0.000367978
0.000353973
0.000339978
0.000326061
0.000312264
0.000298612
0.00028512
0.000271803
0.000258683
0.000245783
0.000233125
0.00022073
0.000208615
0.000196796
0.000185284
0.000174094
0.000163233
0.000152709
0.000142527
0.000132688
0.000123189
0.000114029
0.000105199
9.67011e-05
8.85376e-05
8.07019e-05
7.31737e-05
6.59294e-05
5.8951e-05
5.2228e-05
4.57553e-05
3.95283e-05
3.354e-05
2.77796e-05
2.22324e-05
1.68818e-05
1.17106e-05
6.70169e-06
1.8373e-06
-2.89949e-06
-7.53007e-06
-1.20824e-05
-1.65887e-05
-2.10806e-05
-2.55913e-05
-3.01555e-05
-3.48285e-05
-3.96761e-05
-4.47323e-05
-5.00105e-05
-5.54922e-05
-6.11862e-05
-6.72249e-05
-7.36262e-05
-7.96882e-05
-8.3856e-05
-8.43087e-05
-7.95165e-05
-6.82616e-05
-4.96743e-05
-2.4697e-05
3.22359e-06
2.97378e-05
5.07102e-05
0.000432815
0.000417642
0.000402553
0.00038774
0.000373017
0.000358253
0.000343453
0.000328683
0.000314016
0.0002995
0.000285164
0.000271023
0.000257096
0.000243406
0.000229978
0.000216838
0.000204008
0.000191504
0.000179345
0.000167543
0.000156111
0.000145057
0.000134387
0.000124103
0.000114205
0.000104688
9.55452e-05
8.67704e-05
7.83634e-05
7.03185e-05
6.26167e-05
5.52296e-05
4.81302e-05
4.12986e-05
3.47219e-05
2.83904e-05
2.22942e-05
1.64206e-05
1.07538e-05
5.27569e-06
-3.2741e-08
-5.19131e-06
-1.02193e-05
-1.51401e-05
-1.99845e-05
-2.47856e-05
-2.95776e-05
-3.44001e-05
-3.92984e-05
-4.4356e-05
-4.96904e-05
-5.54234e-05
-6.167e-05
-6.85219e-05
-7.60664e-05
-8.45415e-05
-9.4237e-05
-0.000105108
-0.000116451
-0.000126886
-0.000135
-0.000139514
-0.000138784
-0.00013092
-0.000114983
-9.2178e-05
-6.64806e-05
-4.28026e-05
-2.55922e-05
0.000425397
0.000409265
0.000393245
0.000377535
0.00036194
0.000346322
0.000330685
0.000315102
0.000299651
0.000284386
0.00026934
0.000254531
0.000239981
0.000225715
0.000211761
0.000198148
0.000184899
0.000172034
0.00015957
0.000147522
0.000135902
0.000124718
0.000113973
0.000103669
9.38008e-05
8.43594e-05
7.53299e-05
6.67028e-05
5.84696e-05
5.06129e-05
4.31028e-05
3.59061e-05
2.89945e-05
2.23472e-05
1.59488e-05
9.78553e-06
3.84309e-06
-1.89459e-06
-7.4461e-06
-1.28304e-05
-1.80656e-05
-2.31749e-05
-2.81882e-05
-3.31342e-05
-3.80409e-05
-4.29349e-05
-4.78503e-05
-5.28561e-05
-5.80654e-05
-6.36387e-05
-6.9742e-05
-7.65224e-05
-8.41397e-05
-9.28586e-05
-0.000103031
-0.000114893
-0.000128239
-0.000142348
-0.00015629
-0.000169038
-0.0001794
-0.000185798
-0.000186605
-0.000180322
-0.000166143
-0.000145538
-0.000123103
-0.000104402
-9.42059e-05
0.00041526
0.000398076
0.000381026
0.000364328
0.000347775
0.000331221
0.000314671
0.000298202
0.000281898
0.000265822
0.000250009
0.000234483
0.000219268
0.000204391
0.000189884
0.000175778
0.0001621
0.000148872
0.000136113
0.000123837
0.000112056
0.000100776
9.00018e-05
7.97288e-05
6.99499e-05
6.06542e-05
5.18298e-05
4.3464e-05
3.55368e-05
2.80146e-05
2.08547e-05
1.40158e-05
7.46292e-06
1.16764e-06
-4.89346e-06
-1.07407e-05
-1.63945e-05
-2.18725e-05
-2.71928e-05
-3.23787e-05
-3.74543e-05
-4.24417e-05
-4.73618e-05
-5.22255e-05
-5.70446e-05
-6.18553e-05
-6.67391e-05
-7.18179e-05
-7.72364e-05
-8.31649e-05
-8.97963e-05
-9.74215e-05
-0.000106429
-0.000117153
-0.000129645
-0.000143588
-0.00015838
-0.000173396
-0.000188017
-0.000201037
-0.000211166
-0.000217465
-0.000218818
-0.000213485
-0.000200827
-0.000182918
-0.000165132
-0.000152996
-0.000151611
0.000402775
0.000384485
0.000366372
0.000348653
0.000331107
0.000313584
0.000296089
0.000278705
0.000261526
0.000244621
0.000228033
0.000211789
0.000195917
0.00018045
0.000165422
0.00015087
0.000136823
0.000123307
0.000110342
9.79439e-05
8.61251e-05
7.48919e-05
6.42444e-05
5.41752e-05
4.46665e-05
3.56913e-05
2.72274e-05
1.92498e-05
1.17231e-05
4.59975e-06
-2.16984e-06
-8.63085e-06
-1.48219e-05
-2.07779e-05
-2.65282e-05
-3.20935e-05
-3.74965e-05
-4.27643e-05
-4.79174e-05
-5.29686e-05
-5.7923e-05
-6.27796e-05
-6.75474e-05
-7.22516e-05
-7.69223e-05
-8.16029e-05
-8.63711e-05
-9.13195e-05
-9.65947e-05
-0.000102489
-0.00010938
-0.000117627
-0.000127468
-0.000138915
-0.00015176
-0.000165608
-0.000180022
-0.000194318
-0.000207638
-0.000219313
-0.000228951
-0.000235555
-0.000237073
-0.000232102
-0.000221123
-0.000206815
-0.000193949
-0.000187974
-0.000194105
0.000385353
0.000365819
0.000346467
0.000327572
0.000308899
0.000290279
0.000271715
0.000253298
0.000235129
0.000217286
0.000199819
0.000182762
0.000166146
0.000150008
0.00013439
0.000119332
0.000104869
9.10299e-05
7.78378e-05
6.53105e-05
5.34599e-05
4.22917e-05
3.18047e-05
2.19933e-05
1.28466e-05
4.34256e-06
-3.55011e-06
-1.08755e-05
-1.76941e-05
-2.40739e-05
-3.00809e-05
-3.57752e-05
-4.12102e-05
-4.64439e-05
-5.15327e-05
-5.65183e-05
-6.14311e-05
-6.62882e-05
-7.10901e-05
-7.58284e-05
-8.04991e-05
-8.51148e-05
-8.96954e-05
-9.42552e-05
-9.8778e-05
-0.000103233
-0.00010765
-0.000112158
-0.000116979
-0.000122394
-0.000128694
-0.000136113
-0.000144829
-0.000154914
-0.000166304
-0.000178536
-0.000190873
-0.000202995
-0.000214964
-0.000226644
-0.000236777
-0.000243349
-0.000244684
-0.000240468
-0.000231516
-0.000220174
-0.000210898
-0.000209361
-0.000220759
0.000366403
0.000345561
0.000325004
0.000304939
0.000285126
0.0002654
0.000245768
0.000226327
0.000207189
0.000188442
0.000170144
0.000152335
0.000135053
0.000118342
0.000102248
8.68193e-05
7.20975e-05
5.81175e-05
4.49082e-05
3.24914e-05
2.08809e-05
1.00801e-05
7.6473e-08
-9.16015e-06
-1.7664e-05
-2.54693e-05
-3.26236e-05
-3.91947e-05
-4.52652e-05
-5.09196e-05
-5.62356e-05
-6.12874e-05
-6.61576e-05
-7.09224e-05
-7.56329e-05
-8.03202e-05
-8.49969e-05
-8.9661e-05
-9.43158e-05
-9.89762e-05
-0.000103669
-0.000108414
-0.000113199
-0.000117957
-0.000122594
-0.000127005
-0.000131144
-0.000135073
-0.000138934
-0.000142856
-0.000147001
-0.000151784
-0.000157771
-0.000165092
-0.000173324
-0.000182329
-0.000192224
-0.000203432
-0.00021575
-0.000227813
-0.0002378
-0.000244082
-0.000245649
-0.00024223
-0.000234318
-0.000224113
-0.000216366
-0.000217157
-0.000231705
0.000336917
0.000314596
0.000292474
0.000270953
0.000249763
0.000228694
0.000207746
0.000187029
0.000166671
0.000146774
0.000127408
0.000108621
9.04585e-05
7.29727e-05
5.62197e-05
4.02544e-05
2.51246e-05
1.08705e-05
-2.47342e-06
-1.48765e-05
-2.63124e-05
-3.67575e-05
-4.61993e-05
-5.46483e-05
-6.21411e-05
-6.87337e-05
-7.44999e-05
-7.95461e-05
-8.40076e-05
-8.80214e-05
-9.17184e-05
-9.52234e-05
-9.86513e-05
-0.000102084
-0.000105569
-0.000109135
-0.00011279
-0.000116526
-0.000120342
-0.000124258
-0.000128331
-0.000132639
-0.000137238
-0.000142048
-0.000146804
-0.000151075
-0.000154496
-0.000157143
-0.000159346
-0.00016116
-0.000162408
-0.000163704
-0.000166096
-0.000169672
-0.000174315
-0.000180951
-0.000190212
-0.000201565
-0.000213841
-0.000225476
-0.000234908
-0.000240754
-0.000242017
-0.000238169
-0.000229564
-0.000218547
-0.000210343
-0.000211212
-0.000226284
0.000310373
0.000286495
0.00026311
0.000240337
0.0002179
0.000195622
0.000173514
0.000151688
0.00013028
0.000109408
8.91571e-05
6.95873e-05
5.07558e-05
3.27269e-05
1.55724e-05
-6.3336e-07
-1.58251e-05
-2.99579e-05
-4.30072e-05
-5.49642e-05
-6.58266e-05
-7.55892e-05
-8.42516e-05
-9.18233e-05
-9.83431e-05
-0.000103881
-0.000108541
-0.000112449
-0.000115745
-0.000118589
-0.000121154
-0.000123618
-0.000126129
-0.000128804
-0.000131705
-0.000134824
-0.000138076
-0.000141323
-0.000144427
-0.000147334
-0.000150171
-0.000153266
-0.000157013
-0.000161578
-0.000166519
-0.000170622
-0.000172551
-0.00017248
-0.00017216
-0.000172281
-0.000171624
-0.000170095
-0.000169505
-0.000170655
-0.000174025
-0.000180164
-0.00018905
-0.000199862
-0.000211293
-0.000221863
-0.000230035
-0.000234396
-0.000233919
-0.000228047
-0.000217181
-0.000204021
-0.000193894
-0.000192497
-0.000204522
0.000259758
0.000233892
0.000208175
0.000183306
0.000158977
0.0001349
0.000111053
8.75568e-05
6.45626e-05
4.22044e-05
2.05797e-05
-2.39408e-07
-2.01857e-05
-3.91844e-05
-5.71492e-05
-7.39823e-05
-8.95613e-05
-0.000103733
-0.000116379
-0.000127482
-0.000137047
-0.000145082
-0.000151655
-0.00015687
-0.000160846
-0.000163713
-0.000165622
-0.000166728
-0.000167201
-0.000167239
-0.000167082
-0.000166987
-0.000167212
-0.000167989
-0.000169485
-0.00017174
-0.000174622
-0.000177798
-0.000180759
-0.000182954
-0.000184036
-0.000184141
-0.000183912
-0.000184239
-0.000185495
-0.000186813
-0.000186362
-0.000183634
-0.00018083
-0.000179158
-0.000177421
-0.000175295
-0.000173795
-0.000173838
-0.000176218
-0.000181412
-0.000189271
-0.000199008
-0.000209177
-0.000218022
-0.000223813
-0.0002251
-0.00022098
-0.000211166
-0.000196578
-0.000180479
-0.000167694
-0.000162951
-0.000170989
0.000227853
0.000200754
0.000174427
0.000148507
0.000122802
9.73211e-05
7.21402e-05
4.73847e-05
2.3214e-05
-2.2432e-07
-2.28214e-05
-4.44973e-05
-6.51827e-05
-8.48191e-05
-0.000103378
-0.000120919
-0.000137515
-0.000152964
-0.000166849
-0.00017883
-0.000188728
-0.000196508
-0.000202173
-0.00020576
-0.000207351
-0.000207088
-0.000205178
-0.000201908
-0.00019764
-0.000192829
-0.000188022
-0.000183834
-0.000180885
-0.000179725
-0.00018072
-0.000183932
-0.000189
-0.000195082
-0.000200921
-0.000205114
-0.000206617
-0.000205124
-0.000200989
-0.0001958
-0.000191657
-0.00018978
-0.000189495
-0.00018917
-0.000187781
-0.000185265
-0.000182409
-0.000180157
-0.000178929
-0.000178859
-0.000180196
-0.000183479
-0.000189209
-0.000197191
-0.00020602
-0.000213334
-0.000216586
-0.000213794
-0.000204059
-0.000187678
-0.000166621
-0.000144927
-0.000127526
-0.000118993
-0.00012374
0.000142068
0.000112063
8.25244e-05
5.40525e-05
2.61846e-05
-1.47347e-06
-2.88892e-05
-5.58065e-05
-8.19677e-05
-0.000107187
-0.000131331
-0.000154273
-0.000175862
-0.000195906
-0.000214168
-0.000230351
-0.000244227
-0.000255947
-0.000265842
-0.000274014
-0.000280351
-0.000284635
-0.000286638
-0.000286201
-0.000283279
-0.000277958
-0.000270469
-0.000261175
-0.000250558
-0.00023921
-0.000227792
-0.00021701
-0.000207567
-0.000200093
-0.000195068
-0.000192744
-0.000193053
-0.000195535
-0.00019934
-0.000203369
-0.000206532
-0.000208211
-0.000207959
-0.000205469
-0.000201252
-0.000196478
-0.00019256
-0.000189904
-0.00018774
-0.000185721
-0.00018398
-0.000182774
-0.00018219
-0.000182163
-0.000182777
-0.00018455
-0.000188256
-0.000194143
-0.000201227
-0.000207246
-0.000209121
-0.000203798
-0.000189461
-0.000166638
-0.000138695
-0.000110769
-8.80967e-05
-7.45762e-05
-7.2729e-05
0.000132646
0.000141479
0.000150733
0.000160374
0.000170567
0.000181456
0.000193092
0.000205189
0.000217671
0.000230808
0.000244676
0.000259187
0.000273981
0.000289895
0.000305438
0.000321698
0.000337616
0.000354288
0.000370762
0.000386901
0.0004039
0.000419649
0.000434889
0.000449343
0.00046306
0.000475897
0.000487208
0.000497391
0.000506736
0.000514156
0.00051995
0.000524422
0.000527734
0.00052986
0.000530212
0.00052945
0.000527715
0.000524703
0.000520809
0.00051639
0.000510856
0.000505057
0.000499321
0.000493452
0.000486586
0.00048016
0.000473319
0.000466763
0.000460188
0.000453857
0.000447773
0.000441912
0.000436511
0.000431259
0.000426341
0.000421409
0.000417023
0.000412922
0.000409268
0.000127985
0.000137102
0.000146749
0.000156941
0.000167713
0.000179092
0.00019112
0.000203752
0.000216987
0.000230846
0.000245313
0.000260392
0.000275979
0.000292137
0.000308682
0.000325504
0.000342643
0.000359896
0.000377258
0.000394225
0.000411351
0.000428007
0.000443922
0.000459049
0.000473227
0.000486454
0.000498415
0.00050892
0.000518374
0.000526127
0.000532037
0.000536628
0.000539857
0.000541717
0.000542066
0.00054111
0.000539062
0.000535927
0.000531779
0.00052684
0.000521202
0.000515182
0.00050884
0.000502029
0.000495063
0.000488024
0.00048101
0.000474103
0.000467237
0.000460562
0.000454147
0.000447987
0.000442049
0.000436481
0.000431155
0.000426235
0.000421709
0.000417487
0.000413573
0.000122699
0.000132225
0.000142289
0.000152958
0.000164245
0.000176174
0.000188744
0.000201956
0.000215828
0.000230369
0.000245545
0.000261311
0.000277636
0.000294479
0.000311767
0.000329487
0.000347487
0.000365628
0.000383731
0.000401627
0.000419364
0.00043672
0.000453383
0.00046918
0.00048401
0.000497754
0.000510193
0.000521203
0.0005309
0.000538853
0.000545059
0.000549731
0.000552845
0.000554516
0.000554697
0.000553552
0.000551202
0.000547803
0.000543389
0.000538193
0.000532291
0.000525805
0.000518896
0.000511661
0.000504265
0.000496825
0.000489374
0.000481995
0.000474756
0.00046773
0.000460971
0.000454471
0.000448254
0.000442347
0.000436818
0.000431659
0.000426842
0.000422351
0.000418202
0.000117103
0.000127051
0.000137564
0.000148705
0.000160494
0.000172956
0.000186098
0.000199928
0.000214452
0.00022967
0.00024556
0.000262085
0.000279208
0.000296868
0.000314987
0.000333524
0.000352334
0.000371319
0.000390275
0.000409101
0.000427676
0.000445775
0.000463184
0.000479707
0.000495227
0.000509569
0.000522526
0.000534015
0.000544026
0.000552231
0.000558671
0.00056343
0.000566515
0.000568096
0.000568117
0.000566756
0.000564125
0.000560387
0.00055562
0.000550031
0.000543711
0.000536775
0.000529414
0.000521769
0.000513904
0.000505973
0.000498039
0.00049019
0.000482515
0.000475069
0.000467897
0.000461021
0.000454475
0.000448272
0.000442433
0.000436952
0.000431826
0.00042705
0.000422663
0.00011101
0.000121416
0.000132418
0.000144077
0.000156415
0.000169454
0.000183211
0.000197695
0.000212906
0.000228838
0.000245472
0.00026278
0.000280722
0.000299231
0.00031823
0.000337631
0.000357321
0.000377186
0.000397054
0.000416794
0.000436241
0.000455162
0.000473364
0.000490653
0.000506875
0.000521841
0.000535356
0.000547311
0.00055767
0.000566155
0.000572795
0.00057765
0.000580745
0.000582248
0.000582122
0.00058053
0.000577605
0.000573501
0.00056833
0.000562274
0.000555468
0.000548056
0.000540206
0.000532048
0.000523674
0.000515221
0.000506789
0.000498465
0.000490325
0.000482426
0.000474813
0.00046752
0.000460577
0.000454004
0.00044781
0.000442003
0.000436583
0.000431541
0.00042691
0.000104239
0.000115135
0.000126663
0.000138885
0.00015182
0.000165491
0.000179914
0.000195098
0.000211044
0.000227745
0.000245181
0.000263323
0.000282128
0.000301533
0.000321458
0.000341801
0.000362448
0.000383267
0.000404095
0.000424776
0.000445129
0.000464932
0.00048398
0.000502069
0.000519019
0.000534633
0.000548726
0.000561166
0.000571895
0.000580672
0.000587513
0.000592461
0.000595556
0.000596959
0.000596668
0.000594829
0.000591583
0.00058709
0.000581486
0.000574942
0.00056762
0.000559679
0.000551278
0.000542557
0.000533637
0.000524646
0.000515691
0.000506859
0.000498225
0.000489848
0.000481777
0.00047405
0.000466694
0.000459733
0.000453179
0.000447038
0.000441309
0.000435979
0.000431082
9.67498e-05
0.000108163
0.000120244
0.000133056
0.00014662
0.000160959
0.000176088
0.000192018
0.000208751
0.000226277
0.000244577
0.000263619
0.000283355
0.00030372
0.000324629
0.000345979
0.000367648
0.000389491
0.000411343
0.000433028
0.000454351
0.000475093
0.000495038
0.000513971
0.000531691
0.000547992
0.000562692
0.000575643
0.000586764
0.000595848
0.000602893
0.000607925
0.000611004
0.000612289
0.000611807
0.000609694
0.0006061
0.000601189
0.000595117
0.00058806
0.000580192
0.000571681
0.000562694
0.000553383
0.000543883
0.00053432