/*--------------------------------*- C++ -*----------------------------------*\
| =========                 |                                                 |
| \\      /  F ield         | OpenFOAM: The Open Source CFD Toolbox           |
|  \\    /   O peration     | Version:  2312                                  |
|   \\  /    A nd           | Website:  www.openfoam.com                      |
|    \\/     M anipulation  |                                                 |
\*---------------------------------------------------------------------------*/
FoamFile
{
    version     2.0;
    format      ascii;
    arch        "LSB;label=32;scalar=64";
    class       surfaceScalarField;
    location    "1900";
    object      phi;
}
// * * * * * * * * * * * * * * * * * * * * * * * * * * * * * * * * * * * * * //

dimensions      [0 3 -1 0 0 0 0];

oriented        oriented;

internalField   nonuniform List<scalar> 
116611
(
0.0010391
0.000418388
-0.00102304
-0.000434446
0.00105502
0.000413822
-0.000429742
0.00107087
0.000408932
-0.000424788
0.0010866
0.000403682
-0.000419415
0.00110204
0.000398024
-0.000413464
0.00111747
0.000391887
-0.000407309
0.00113239
0.000385346
-0.000400274
0.00114731
0.000378354
-0.000393265
0.00116192
0.000370883
-0.000385502
0.00117637
0.000362984
-0.000377434
0.00119047
0.000354548
-0.000368646
0.00120434
0.000345603
-0.000359466
0.00121793
0.000336135
-0.000349732
0.00123135
0.000326125
-0.000339538
0.00124455
0.000315583
-0.000328783
0.00125733
0.000304539
-0.000317325
0.00126994
0.000292815
-0.000305424
0.00128209
0.000280587
-0.000292739
0.00129388
0.000267618
-0.000279402
0.00130531
0.000254154
-0.000265589
0.00131652
0.000239891
-0.000251102
0.00132729
0.000225032
-0.000235798
0.00133766
0.00020949
-0.000219867
0.00134768
0.000193263
-0.000203277
0.00135717
0.00017629
-0.00018578
0.00136624
0.000158572
-0.00016764
0.00137481
0.000140019
-0.000148591
0.00138266
0.000120782
-0.000128633
0.00139017
0.00010066
-0.000108169
0.00139679
7.96465e-05
-8.62671e-05
0.00140287
5.79493e-05
-6.40328e-05
0.00140807
3.52354e-05
-4.0436e-05
0.00141258
1.16592e-05
-1.61613e-05
0.0014164
-1.26649e-05
8.84547e-06
0.00141942
-3.80712e-05
3.50473e-05
0.00142165
-6.43175e-05
6.20882e-05
0.00142305
-9.17243e-05
9.0325e-05
0.00142338
-0.000120107
0.000119779
0.00142282
-0.000149333
0.000149888
0.00142129
-0.000179643
0.000181171
0.00141884
-0.000210918
0.000213369
0.0014153
-0.000243391
0.00024693
0.00141054
-0.000276931
0.000281697
0.0014048
-0.00031137
0.000317106
0.00139808
-0.000346951
0.00035367
0.00139015
-0.000383677
0.000391609
0.00138095
-0.00042165
0.000430844
0.00137062
-0.000460639
0.000470975
0.00135913
-0.000500784
0.000512274
0.00134626
-0.000542144
0.000555014
0.00133201
-0.000584726
0.00059897
0.0013162
-0.00062854
0.000644355
0.00129868
-0.000673536
0.000691058
0.0012795
-0.000719658
0.000738835
0.00125876
-0.000766907
0.000787648
0.00123604
-0.000815465
0.000838187
0.0012114
-0.000865351
0.000889983
0.0011846
-0.000916611
0.000943413
0.00115535
-0.000969435
0.000998685
0.00112335
-0.00102388
0.00105589
0.00108897
-0.00107974
0.00111411
0.00105153
-0.00113741
0.00117485
0.00101113
-0.00119681
0.00123721
0.000967061
-0.00125812
0.00130219
0.000919549
-0.00132134
0.00136885
0.000867567
-0.00138702
0.001439
0.0008102
-0.00145715
0.00151452
0.000752529
-0.00153811
0.00159578
-0.00162788
0.000698304
0.00168211
0.00102232
0.000402396
-0.00100633
0.00103815
0.000397988
0.00105387
0.000393218
0.00106946
0.00038809
0.00108492
0.000382559
0.00110017
0.000376635
0.00111522
0.000370304
0.00113004
0.000363527
0.00114463
0.000356302
0.001159
0.000348607
0.00117311
0.000340439
0.00118693
0.000331779
0.00120047
0.0003226
0.00121371
0.000312886
0.00122664
0.00030265
0.00123933
0.000291851
0.00125165
0.000280495
0.00126368
0.000268553
0.00127528
0.000256017
0.00128659
0.000242847
0.00129745
0.000229034
0.0013079
0.000214579
0.00131793
0.000199456
0.00132755
0.000183648
0.0013367
0.000167136
0.00134539
0.00014988
0.00135352
0.000131892
0.00136115
0.000113153
0.0013682
9.36125e-05
0.00137456
7.32795e-05
0.00138038
5.21318e-05
0.00138548
3.01393e-05
0.00138983
7.30661e-06
0.00139355
-1.63873e-05
0.00139648
-4.10022e-05
0.00139871
-6.65406e-05
0.00140003
-9.30503e-05
0.00140043
-0.000120506
0.0014
-0.000148902
0.00139864
-0.000178285
0.0013964
-0.000208673
0.00139311
-0.000240104
0.00138874
-0.000272559
0.00138339
-0.000306023
0.001377
-0.000340555
0.00136951
-0.000376186
0.00136078
-0.000412927
0.00135088
-0.000450731
0.00133972
-0.000489626
0.00132721
-0.000529634
0.00131325
-0.000570765
0.00129772
-0.000613014
0.00128055
-0.000656359
0.00126167
-0.000700784
0.00124106
-0.000746298
0.00121857
-0.000792972
0.00119407
-0.000840852
0.00116744
-0.000889977
0.00113843
-0.000940432
0.00110682
-0.000992269
0.00107257
-0.00104549
0.00103532
-0.00110016
0.000994763
-0.00115625
0.000950504
-0.00121386
0.000902237
-0.00127307
0.000849879
-0.00133466
0.000794547
-0.00140182
0.000739593
-0.00148316
-0.0015693
0.000681005
0.00100576
0.000386361
-0.000989721
0.00102161
0.000382136
0.00103728
0.000377543
0.0010528
0.000372575
0.00106814
0.000367219
0.0010833
0.000361471
0.00109829
0.000355321
0.00111306
0.000348752
0.00112761
0.000341752
0.00114192
0.0003343
0.00115597
0.000326384
0.00116976
0.00031799
0.00118326
0.000309102
0.00119644
0.000299701
0.00120932
0.000289774
0.00122187
0.000279302
0.00123409
0.000268277
0.00124596
0.00025668
0.00125748
0.0002445
0.00126861
0.000231716
0.00127933
0.000218316
0.00128963
0.00020428
0.00129949
0.00018959
0.00130891
0.000174231
0.00131786
0.000158186
0.00132631
0.000141434
0.00133424
0.000123961
0.00134164
0.000105749
0.00134847
8.67799e-05
0.00135472
6.70359e-05
0.00136035
4.65026e-05
0.00136532
2.51683e-05
0.00136961
3.01014e-06
0.00137323
-2.00049e-05
0.00137612
-4.38945e-05
0.00137826
-6.86793e-05
0.00137959
-9.43762e-05
0.00138008
-0.000121
0.00137973
-0.000148555
0.00137851
-0.00017706
0.00137637
-0.000206537
0.00137327
-0.000236998
0.00136916
-0.000268456
0.00136405
-0.000300911
0.00135788
-0.000334386
0.0013506
-0.000368904
0.00134214
-0.000404462
0.00133245
-0.000441046
0.00132148
-0.000478653
0.00130914
-0.000517292
0.00129534
-0.000556965
0.00127999
-0.000597669
0.00126302
-0.000639391
0.00124436
-0.000682124
0.00122394
-0.000725874
0.00120163
-0.000770666
0.00117731
-0.00081653
0.00115082
-0.000863491
0.00112198
-0.000911586
0.00109056
-0.000960851
0.00105638
-0.0010113
0.00101915
-0.00106293
0.000978492
-0.0011156
0.000934006
-0.00116938
0.000885483
-0.00122454
0.000833272
-0.00128245
0.000779321
-0.00134786
0.000725582
-0.00142942
-0.00150618
0.000662463
0.000989295
0.000370284
-0.000973218
0.0010052
0.000366229
0.00102092
0.000361825
0.00103644
0.000357052
0.00105176
0.000351899
0.00106688
0.000346352
0.0010818
0.000340405
0.0010965
0.000334048
0.00111098
0.00032727
0.00112523
0.000320056
0.00113922
0.000312392
0.00115295
0.000304263
0.00116639
0.000295655
0.00117954
0.000286553
0.00119238
0.000276941
0.00120487
0.000266803
0.00121703
0.000256123
0.00122882
0.000244887
0.00124024
0.000233079
0.00125127
0.000220685
0.0012619
0.000207688
0.00127211
0.000194074
0.00128187
0.000179824
0.00129118
0.000164923
0.00130001
0.000149355
0.00130835
0.000133101
0.00131616
0.000116144
0.00132344
9.84706e-05
0.00133016
8.00634e-05
0.00133629
6.09056e-05
0.00134181
4.09826e-05
0.0013467
2.02802e-05
0.00135093
-1.22215e-06
0.00135448
-2.35585e-05
0.00135733
-4.67408e-05
0.00135944
-7.07872e-05
0.00136077
-9.57138e-05
0.00136131
-0.000121535
0.00136101
-0.000148261
0.00135986
-0.000175906
0.00135781
-0.000204485
0.00135482
-0.00023401
0.00135085
-0.00026449
0.00134588
-0.000295933
0.00133984
-0.000328351
0.00133269
-0.000361757
0.00132438
-0.000396143
0.00131483
-0.000431496
0.00130399
-0.000467812
0.00129178
-0.000505092
0.00127815
-0.00054333
0.001263
-0.000582522
0.00124627
-0.000622656
0.00122786
-0.000663722
0.00120771
-0.000705716
0.00118568
-0.000748638
0.00116164
-0.000792491
0.00113543
-0.000837279
0.00110685
-0.000883006
0.00107568
-0.000929684
0.00104168
-0.000977308
0.00100457
-0.00102581
0.000963949
-0.00107498
0.000919417
-0.00112485
0.000870978
-0.00117611
0.000819571
-0.00123104
0.000767599
-0.00129589
0.000714458
-0.00137628
-0.00143521
0.000643488
0.000973227
0.000354342
-0.000957286
0.000989064
0.000350393
0.00100476
0.00034613
0.00102028
0.000341529
0.00103561
0.000336568
0.00105073
0.000331231
0.00106563
0.000325505
0.00108031
0.000319376
0.00109474
0.000312833
0.00110893
0.000305864
0.00112287
0.000298456
0.00113654
0.000290596
0.00114992
0.00028227
0.00116301
0.000273465
0.00117578
0.000264165
0.00118823
0.000254356
0.00120033
0.000244022
0.00121207
0.000233147
0.00122343
0.000221717
0.0012344
0.000209716
0.00124496
0.000197128
0.0012551
0.000183938
0.00126479
0.00017013
0.00127403
0.000155689
0.00128278
0.000140599
0.00129104
0.000124842
0.00129878
0.000108404
0.00130599
9.12682e-05
0.00131263
7.342e-05
0.00131869
5.48433e-05
0.00132415
3.5523e-05
0.00132898
1.54463e-05
0.00133317
-5.40987e-06
0.00133669
-2.70754e-05
0.00133951
-4.95614e-05
0.00134161
-7.28829e-05
0.00134295
-9.70541e-05
0.0013435
-0.000122088
0.00134324
-0.000147997
0.00134212
-0.000174793
0.00134012
-0.000202487
0.0013372
-0.000231088
0.00133332
-0.000260605
0.00132843
-0.000291042
0.00132248
-0.000322406
0.00131543
-0.000354707
0.00130722
-0.000387932
0.0012978
-0.000422072
0.0012871
-0.000457119
0.00127508
-0.000493068
0.00126166
-0.000529909
0.00124677
-0.000567631
0.00123033
-0.000606217
0.00121226
-0.000645651
0.00119245
-0.000685909
0.00117079
-0.000726975
0.00114712
-0.000768825
0.00112129
-0.000811442
0.00109309
-0.000854806
0.00106229
-0.000898891
0.00102862
-0.000943638
0.000991731
-0.000988919
0.00095125
-0.0010345
0.000906915
-0.00108051
0.000859104
-0.00112829
0.000809324
-0.00118126
0.000759573
-0.00124614
0.000704315
-0.00132102
-0.00135083
0.000619941
0.000958
0.000338654
-0.000942311
0.000973619
0.000334774
0.000989143
0.000330606
0.00100454
0.000326127
0.0010198
0.000321318
0.00103487
0.00031616
0.00104973
0.000310636
0.00106438
0.000304729
0.00107879
0.000298423
0.00109295
0.000291705
0.00110685
0.00028456
0.00112047
0.000276975
0.0011338
0.000268937
0.00114683
0.000260432
0.00115955
0.000251447
0.00117194
0.000241967
0.00118399
0.000231977
0.00119567
0.000221463
0.00120698
0.000210409
0.00121789
0.000198801
0.0012284
0.000186622
0.00123848
0.000173859
0.00124811
0.000160494
0.00125729
0.000146513
0.00126599
0.000131901
0.00127419
0.000116641
0.00128187
0.000100719
0.00128902
8.41197e-05
0.00129561
6.68274e-05
0.00130163
4.88276e-05
0.00130705
3.01059e-05
0.00131184
1.0651e-05
0.001316
-9.56528e-06
0.00131949
-3.05658e-05
0.00132229
-5.23614e-05
0.00132437
-7.4965e-05
0.00132571
-9.83897e-05
0.00132627
-0.000122648
0.00132602
-0.00014775
0.00132493
-0.000173706
0.00132297
-0.000200526
0.0013201
-0.000228216
0.00131628
-0.000256782
0.00131146
-0.000286226
0.0013056
-0.00031655
0.00129866
-0.000347762
0.00129058
-0.000379854
0.00128132
-0.000412814
0.00127083
-0.000446629
0.00125905
-0.000481288
0.00124592
-0.000516775
0.00123136
-0.000553071
0.00121529
-0.000590151
0.00119763
-0.000627984
0.00117825
-0.000666534
0.00115704
-0.000705763
0.00113385
-0.000745631
0.0011085
-0.000786099
0.00108081
-0.000827115
0.00105052
-0.000868606
0.00101732
-0.000910434
0.000980808
-0.000952406
0.000940688
-0.000994377
0.000897025
-0.00103685
0.000850687
-0.00108196
0.000803461
-0.00113404
0.000755534
-0.00119821
0.000694609
-0.00126009
-0.00125143
0.00059521
0.000943774
0.000323182
-0.000928302
0.000959156
0.000319392
0.000974444
0.000315318
0.000989625
0.000310946
0.00100468
0.000306261
0.00101959
0.000301249
0.00103433
0.000295894
0.00104888
0.00029018
0.00106322
0.00028409
0.00107731
0.000277608
0.00109116
0.000270717
0.00110473
0.000263404
0.00111801
0.000255653
0.00113099
0.000247451
0.00114366
0.000238782
0.00115599
0.000229633
0.00116798
0.000219989
0.00117961
0.000209835
0.00119086
0.000199158
0.00120172
0.000187942
0.00121217
0.000176173
0.00122219
0.000163835
0.00123177
0.000150913
0.00124089
0.000137392
0.00124954
0.000123257
0.00125768
0.000108494
0.00126532
9.30861e-05
0.00127242
7.70203e-05
0.00127896
6.02817e-05
0.00128493
4.2856e-05
0.00129031
2.47299e-05
0.00129507
5.89201e-06
0.00129919
-1.36896e-05
0.00130266
-3.40305e-05
0.00130544
-5.51415e-05
0.00130751
-7.70344e-05
0.00130884
-9.97211e-05
0.0013094
-0.000123212
0.00130917
-0.000147518
0.00130811
-0.000172648
0.00130619
-0.000198607
0.00130338
-0.000225401
0.00129963
-0.000253035
0.00129491
-0.000281507
0.00128918
-0.000310819
0.00128239
-0.000340971
0.0012745
-0.000371966
0.00126547
-0.000403786
0.00125526
-0.00043641
0.00124379
-0.000469823
0.00123102
-0.000503999
0.00121686
-0.000538911
0.00120123
-0.000574522
0.00118403
-0.000610791
0.00116517
-0.000647666
0.0011445
-0.000685096
0.00112189
-0.000723022
0.00109717
-0.00076138
0.00107014
-0.000800079
0.0010405
-0.000838973
0.00100791
-0.000877843
0.000971993
-0.000916486
0.000932659
-0.000955043
0.000890458
-0.000994646
0.000846666
-0.00103816
0.000802618
-0.00108999
0.000755085
-0.00115068
0.000685047
-0.00119006
-0.00113581
0.000569419
0.000930395
0.000307827
-0.00091504
0.000945624
0.000304163
0.000960727
0.000300216
0.000975701
0.000295972
0.000990542
0.00029142
0.00100524
0.000286552
0.00101978
0.000281354
0.00103415
0.000275815
0.00104832
0.000269918
0.00106228
0.00026365
0.001076
0.000256995
0.00108947
0.000249936
0.00110266
0.000242459
0.00111556
0.000234549
0.00112815
0.00022619
0.00114042
0.000217368
0.00115234
0.000208067
0.0011639
0.000198273
0.00117509
0.000187972
0.00118588
0.000177148
0.00119627
0.000165786
0.00120623
0.000153872
0.00121575
0.000141392
0.00122481
0.00012833
0.0012334
0.000114671
0.00124149
0.000100402
0.00124907
8.55069e-05
0.00125612
6.99724e-05
0.00126262
5.37844e-05
0.00126854
3.69293e-05
0.00127388
1.93948e-05
0.0012786
1.16732e-06
0.0012827
-1.77852e-05
0.00128614
-3.74728e-05
0.0012889
-5.79064e-05
0.00129097
-7.90971e-05
0.0012923
-0.000101056
0.00129288
-0.000123792
0.00129268
-0.000147315
0.00129166
-0.000171633
0.00128981
-0.00019675
0.00128708
-0.000222671
0.00128344
-0.000249397
0.00127886
-0.000276929
0.0012733
-0.000305262
0.00126673
-0.000334394
0.00125909
-0.000364327
0.00125035
-0.000395046
0.00124046
-0.000426523
0.00122937
-0.00045873
0.001217
-0.000491637
0.0012033
-0.000525207
0.00118817
-0.000559392
0.00117152
-0.000594142
0.00115325
-0.000629392
0.00113323
-0.00066508
0.00111134
-0.000701127
0.00108739
-0.000737434
0.00106116
-0.000773848
0.00103232
-0.000810139
0.00100052
-0.000846043
0.000965543
-0.000881505
0.000927701
-0.000917201
0.000888036
-0.00095498
0.000847862
-0.000997991
0.000806976
-0.0010491
0.000756771
-0.00110048
0.000673107
-0.00110639
-0.00100109
0.000538394
0.000917646
0.000292522
-0.000902342
0.000932804
0.000289005
0.000947809
0.000285211
0.000962656
0.000281124
0.000977344
0.000276733
0.000991866
0.000272029
0.00100622
0.000267004
0.00102039
0.000261645
0.00103436
0.000255942
0.00104813
0.000249881
0.00106168
0.000243449
0.00107498
0.000236632
0.00108802
0.000229416
0.00110079
0.000221785
0.00111326
0.000213723
0.00112541
0.000205217
0.00113722
0.00019625
0.00114869
0.000186808
0.00115979
0.000176876
0.00117049
0.000166438
0.0011808
0.000155481
0.00119068
0.000143988
0.00120013
0.000131946
0.00120912
0.000119339
0.00121764
0.000106153
0.00122567
9.23744e-05
0.00123319
7.79883e-05
0.00124018
6.29809e-05
0.00124662
4.7339e-05
0.0012525
3.10492e-05
0.0012578
1.41007e-05
0.00126249
-3.52513e-06
0.00126656
-2.18552e-05
0.00126998
-4.08978e-05
0.00127274
-6.06638e-05
0.00127481
-8.11638e-05
0.00127616
-0.000102408
0.00127677
-0.000124405
0.00127662
-0.000147163
0.00127568
-0.000170689
0.00127392
-0.000194988
0.00127131
-0.000220061
0.00126782
-0.00024591
0.00126342
-0.000272533
0.00125809
-0.000299924
0.00125177
-0.000328077
0.00124443
-0.000356984
0.00123602
-0.000386639
0.0012265
-0.000417005
0.00121582
-0.000448049
0.00120391
-0.000479731
0.00119071
-0.000512006
0.00117614
-0.00054482
0.00116011
-0.000578112
0.00114253
-0.000611811
0.00112329
-0.000645838
0.00110225
-0.000680087
0.00107922
-0.000714403
0.00105392
-0.000748554
0.00102604
-0.000782252
0.000995309
-0.000815316
0.000961893
-0.00084809
0.000926641
-0.000881949
0.000890884
-0.000919222
0.000855249
-0.000962357
0.000816258
-0.00101011
0.000758266
-0.00104248
0.00065702
-0.00100515
-0.000856769
0.000512695
0.000905425
0.000277257
-0.000890159
0.000920542
0.000273889
0.000935497
0.000270256
0.000950282
0.000266339
0.000964888
0.000262127
0.000979307
0.00025761
0.000993533
0.000252777
0.00100756
0.000247619
0.00102138
0.000242125
0.00103497
0.000236283
0.00104834
0.000230081
0.00106147
0.000223507
0.00107433
0.000216549
0.00108693
0.000209191
0.00109923
0.00020142
0.00111123
0.000193221
0.0011229
0.000184579
0.00113423
0.00017548
0.00114519
0.000165909
0.00115578
0.00015585
0.00116598
0.000145288
0.00117576
0.000134209
0.0011851
0.000122598
0.001194
0.00011044
0.00120243
9.77215e-05
0.00121038
8.4427e-05
0.00121783
7.05432e-05
0.00122475
5.60564e-05
0.00123114
4.09532e-05
0.00123696
2.5221e-05
0.00124222
8.84979e-06
0.00124687
-8.18493e-06
0.00125092
-2.59025e-05
0.00125434
-4.4312e-05
0.0012571
-6.34238e-05
0.00125918
-8.32482e-05
0.00126057
-0.000103794
0.00126123
-0.000125071
0.00126116
-0.000147086
0.00126031
-0.000169843
0.00125867
-0.000193348
0.00125621
-0.000217601
0.0012529
-0.000242603
0.00124872
-0.000268348
0.00124363
-0.000294831
0.00123759
-0.000322041
0.00123057
-0.000349963
0.00122251
-0.000378585
0.00121339
-0.000407882
0.00120315
-0.000437809
0.00119174
-0.000468317
0.00117909
-0.000499359
0.00116514
-0.000530873
0.00114982
-0.000562792
0.00113305
-0.000595037
0.00111471
-0.0006275
0.00109465
-0.000660029
0.00107265
-0.000692398
0.00104841
-0.000724314
0.0010217
-0.000755542
0.000992601
-0.000786221
0.000961861
-0.00081735
0.000930788
-0.000850876
0.00090033
-0.000888765
0.000868898
-0.000930924
0.000827546
-0.000968762
0.000755021
-0.000969958
0.000632817
-0.00088294
-0.000703383
0.000479431
0.000893748
0.000262042
-0.000878534
0.000908818
0.00025882
0.000923728
0.000255345
0.000938467
0.0002516
0.000953022
0.000247572
0.000967382
0.00024325
0.000981537
0.000238622
0.000995477
0.000233679
0.00100919
0.00022841
0.00102267
0.000222802
0.00103591
0.000216844
0.00104889
0.000210526
0.00106161
0.000203833
0.00107404
0.000196755
0.00108619
0.000189277
0.00109802
0.000181386
0.00110953
0.000173067
0.0011207
0.000164308
0.00113152
0.000155092
0.00114197
0.000145405
0.00115202
0.000135233
0.00116167
0.000124561
0.00117089
0.000113374
0.00117968
0.000101657
0.001188
8.93971e-05
0.00119585
7.65789e-05
0.0012032
6.31887e-05
0.00121005
4.92133e-05
0.00121636
3.46392e-05
0.00122213
1.94546e-05
0.00122733
3.64825e-06
0.00123195
-1.28082e-05
0.00123598
-2.99269e-05
0.00123938
-4.77179e-05
0.00124215
-6.61915e-05
0.00124426
-8.53574e-05
0.00124569
-0.000105224
0.00124642
-0.000125801
0.00124643
-0.000147093
0.00124569
-0.000169105
0.00124418
-0.000191841
0.00124188
-0.0002153
0.00123876
-0.000239482
0.00123479
-0.00026438
0.00122994
-0.000289985
0.00122419
-0.000316286
0.00121749
-0.000343265
0.00120981
-0.0003709
0.0012011
-0.000399171
0.00119132
-0.000428035
0.00118044
-0.000457437
0.00116841
-0.000487324
0.00115517
-0.000517632
0.00114066
-0.000548284
0.0011248
-0.00057918
0.00110747
-0.00061017
0.00108848
-0.000641035
0.00106758
-0.000671498
0.00104457
-0.000701308
0.00101954
-0.000730513
0.00099318
-0.000759859
0.000966836
-0.000791006
0.000941657
-0.000825697
0.000916798
-0.000863906
0.000886455
-0.000900581
0.000835116
-0.000917424
0.000741244
-0.000876086
0.000600594
-0.000742291
-0.000548048
0.00044526
0.000882682
0.000246892
-0.000867532
0.000897689
0.000243812
0.00091254
0.000240494
0.000927223
0.000236918
0.000941723
0.000233072
0.000956029
0.000228944
0.000970127
0.000224524
0.000984006
0.000219801
0.000997652
0.000214763
0.00101106
0.000209398
0.00102421
0.000203695
0.00103709
0.000197642
0.00104969
0.000191228
0.00106201
0.000184439
0.00107402
0.000177262
0.00108572
0.000169686
0.0010971
0.000161696
0.00110813
0.000153278
0.0011188
0.000144419
0.0011291
0.000135104
0.00113901
0.000125319
0.00114852
0.00011505
0.00115762
0.000104282
0.00116627
9.30012e-05
0.00117448
8.11927e-05
0.00118221
6.88428e-05
0.00118946
5.59377e-05
0.00119621
4.24641e-05
0.00120244
2.84089e-05
0.00120814
1.37609e-05
0.00121328
-1.4954e-06
0.00121786
-1.73861e-05
0.00122185
-3.39201e-05
0.00122524
-5.11079e-05
0.00122801
-6.89595e-05
0.00123014
-8.74843e-05
0.0012316
-0.000106691
0.00123239
-0.000126587
0.00123247
-0.000147177
0.00123183
-0.000168467
0.00123045
-0.000190457
0.0012283
-0.000213149
0.00122536
-0.000236538
0.00122159
-0.000260618
0.00121699
-0.00028538
0.00121151
-0.00031081
0.00120514
-0.000336889
0.00119783
-0.000363593
0.00118955
-0.000390895
0.00118028
-0.000418763
0.00116999
-0.000447142
0.00115864
-0.000475974
0.00114619
-0.000505185
0.00113258
-0.000534678
0.00111772
-0.000564314
0.00110144
-0.000593887
0.00108354
-0.000623137
0.00106388
-0.000651839
0.00104257
-0.000680003
0.00102033
-0.000708268
0.000998548
-0.000738079
0.000978601
-0.000771059
0.000959984
-0.000807081
0.000938084
-0.000842005
0.000901439
-0.000863936
0.000830984
-0.000846969
0.000712143
-0.000757245
0.000560204
-0.000590352
-0.000391306
0.000403461
0.000872301
0.000231815
-0.000857225
0.000887235
0.000228878
0.000902014
0.000225715
0.000916625
0.000222307
0.000931056
0.000218641
0.000945294
0.000214706
0.000959326
0.000210492
0.000973138
0.000205989
0.000986718
0.000201183
0.00100005
0.000196064
0.00101313
0.000190619
0.00102593
0.000184838
0.00103845
0.000178707
0.00105068
0.000172214
0.00106259
0.000165347
0.00107419
0.000158092
0.00108545
0.000150436
0.00109636
0.000142366
0.00110691
0.000133868
0.00111708
0.000124929
0.00112687
0.000115533
0.00113625
0.000105667
0.00114522
9.53173e-05
0.00115375
8.44692e-05
0.00116183
7.31086e-05
0.00116946
6.12219e-05
0.0011766
4.87954e-05
0.00118325
3.5816e-05
0.00118938
2.22707e-05
0.001195
8.14912e-06
0.00120007
-6.57023e-06
0.00120459
-2.19064e-05
0.00120854
-3.78687e-05
0.0012119
-5.44676e-05
0.00121465
-7.17128e-05
0.00121678
-8.96133e-05
0.00121827
-0.000108177
0.00121909
-0.000127412
0.00121924
-0.000147322
0.00121868
-0.000167911
0.00121741
-0.000189181
0.00121539
-0.000211131
0.00121261
-0.000233757
0.00120904
-0.000257054
0.00120467
-0.00028101
0.00119948
-0.000305614
0.00119343
-0.000330844
0.00118652
-0.000356679
0.00117871
-0.00038309
0.00117
-0.000410045
0.00116035
-0.000437499
0.00114976
-0.00046538
0.00113817
-0.000493591
0.00112549
-0.000522
0.0011116
-0.000550425
0.00109635
-0.000578635
0.00107965
-0.000606438
0.0010617
-0.000633888
0.00104327
-0.000661572
0.00102583
-0.00069083
0.0010109
-0.000723145
0.000998167
-0.00075833
0.000983385
-0.000792299
0.000956878
-0.000815498
0.000902861
-0.000809919
0.000805568
-0.000749676
0.000666176
-0.000617853
0.000513171
-0.000437346
-0.000250578
0.000372443
0.000862682
0.000216819
-0.000847685
0.000877536
0.000214024
0.000892234
0.000211017
0.000906764
0.000207777
0.000921114
0.000204291
0.00093527
0.00020055
0.00094922
0.000196542
0.000962952
0.000192257
0.000976451
0.000187684
0.000989704
0.000182811
0.0010027
0.000177625
0.00101542
0.000172116
0.00102785
0.000166271
0.00103999
0.000160078
0.00105181
0.000153523
0.00106331
0.000146594
0.00107447
0.000139277
0.00108528
0.00013156
0.00109572
0.000123427
0.00110578
0.000114866
0.00111545
0.000105862
0.00112472
9.64018e-05
0.00113356
8.6471e-05
0.00114198
7.60555e-05
0.00114995
6.51415e-05
0.00115745
5.37153e-05
0.00116448
4.17634e-05
0.00117103
2.92727e-05
0.00117707
1.6231e-05
0.00118259
2.62649e-06
0.00118759
-1.15657e-05
0.00119204
-2.63578e-05
0.00119593
-4.17604e-05
0.00119924
-5.77837e-05
0.00120197
-7.44372e-05
0.00120409
-9.17297e-05
0.00120558
-0.000109669
0.00120643
-0.000128262
0.00120662
-0.000147513
0.00120613
-0.000167426
0.00120495
-0.000188001
0.00120306
-0.00020924
0.00120044
-0.000231137
0.00119707
-0.000253688
0.00119295
-0.000276883
0.00118804
-0.00030071
0.00118235
-0.000325153
0.00117586
-0.000350191
0.00116857
-0.000375798
0.00116046
-0.000401937
0.00115151
-0.000428551
0.00114169
-0.000455554
0.00113091
-0.000482817
0.00111909
-0.000510178
0.00110612
-0.000537456
0.001092
-0.000564516
0.00107704
-0.000591475
0.00106212
-0.000618964
0.0010488
-0.000648249
0.00103859
-0.000680627
0.00103115
-0.000715702
0.00102219
-0.000749375
0.00100279
-0.000772892
0.000959478
-0.000772188
0.000877753
-0.000728195
0.000752956
-0.000624879
0.000603418
-0.000468314
0.000454216
-0.000288145
-0.000114395
0.000318033
0.000853904
0.000201903
-0.000838989
0.000868675
0.000199254
0.000883288
0.000196405
0.000897731
0.000193334
0.000911991
0.000190031
0.000926057
0.000186484
0.000939916
0.000182684
0.000953554
0.000178619
0.000966959
0.000174279
0.000980117
0.000169653
0.000993014
0.000164728
0.00100564
0.000159493
0.00101797
0.000153935
0.00103001
0.000148042
0.00104173
0.000141802
0.00105312
0.000135201
0.00106418
0.000128226
0.00107487
0.000120863
0.0010852
0.000113098
0.00109515
0.000104918
0.0011047
9.63085e-05
0.00111385
8.72554e-05
0.00112258
7.77447e-05
0.00113087
6.77622e-05
0.00113872
5.7294e-05
0.00114611
4.63265e-05
0.00115302
3.48462e-05
0.00115946
2.28401e-05
0.00116539
1.02967e-05
0.00117082
-2.80012e-06
0.00117572
-1.64727e-05
0.0011801
-3.07307e-05
0.00118392
-4.55852e-05
0.00118718
-6.10461e-05
0.00118987
-7.7123e-05
0.00119196
-9.38243e-05
0.00119345
-0.000111158
0.00119432
-0.00012913
0.00119455
-0.000147745
0.00119413
-0.000167007
0.00119305
-0.000186918
0.00119129
-0.000207477
0.00118883
-0.000228683
0.00118568
-0.00025053
0.00118181
-0.000273013
0.00117722
-0.000296122
0.00117191
-0.000319844
0.00116588
-0.000344161
0.00115912
-0.00036904
0.00115161
-0.000394429
0.00114331
-0.000420248
0.00113415
-0.000446399
0.00112408
-0.000472743
0.00111305
-0.000499145
0.00110116
-0.000525564
0.00108885
-0.000552215
0.00107718
-0.000579803
0.00106773
-0.000609514
0.00106188
-0.000642399
0.00105895
-0.000677696
0.00105442
-0.000711176
0.00103955
-0.000734501
0.00100229
-0.000735629
0.000930037
-0.000699937
0.000817495
-0.000615653
0.000676386
-0.00048377
0.000530071
-0.000321999
0.000392965
-0.000151039
1.09599e-05
0.00026761
0.000846043
0.000187068
-0.000831208
0.000860731
0.000184566
0.000875258
0.000181877
0.000889613
0.00017898
0.000903782
0.000175861
0.000917754
0.000172512
0.000931516
0.000168922
0.000945054
0.000165081
0.000958356
0.000160977
0.000971409
0.0001566
0.000984198
0.000151938
0.000996712
0.000146979
0.00100894
0.000141711
0.00102086
0.000136122
0.00103246
0.000130199
0.00104373
0.000123928
0.00105466
0.000117296
0.00106523
0.00011029
0.00107544
0.000102896
0.00108525
9.50989e-05
0.00109468
8.68851e-05
0.00110369
7.82404e-05
0.00111229
6.91503e-05
0.00112045
5.96007e-05
0.00112817
4.95775e-05
0.00113543
3.90667e-05
0.00114222
2.80549e-05
0.00114853
1.6529e-05
0.00115435
4.47741e-06
0.00115967
-8.12099e-06
0.00116448
-2.12819e-05
0.00116876
-3.50163e-05
0.00117251
-4.93348e-05
0.00117571
-6.42475e-05
0.00117835
-7.97638e-05
0.00118042
-9.58922e-05
0.0011819
-0.00011264
0.00118279
-0.000130014
0.00118306
-0.000148019
0.00118271
-0.000166658
0.00118173
-0.000185935
0.0011801
-0.00020585
0.00117782
-0.000226402
0.00117488
-0.000247591
0.00117129
-0.000269415
0.00116703
-0.000291865
0.00116211
-0.000314928
0.00115652
-0.000338571
0.00115024
-0.000362752
0.00114321
-0.000387401
0.0011354
-0.000412436
0.00112677
-0.000437776
0.00111738
-0.000463346
0.00110743
-0.0004892
0.00109755
-0.000515684
0.00108893
-0.000543596
0.00108313
-0.000573998
0.00108115
-0.00060754
0.00108175
-0.000642993
0.00107995
-0.0006759
0.00106703
-0.000698254
0.00103168
-0.000699156
0.000963217
-0.000667162
0.000857953
-0.000594672
0.000725285
-0.000482985
0.000584725
-0.000343211
0.000451268
-0.000188542
0.000330632
-3.04023e-05
0.00011572
0.000225871
0.000839171
0.000172305
-0.000824409
0.000853782
0.000169955
0.000868228
0.000167431
0.000882497
0.00016471
0.000896578
0.000161781
0.000910456
0.000158633
0.00092412
0.000155258
0.000937557
0.000151644
0.000950753
0.000147781
0.000963696
0.000143658
0.000976371
0.000139262
0.000988766
0.000134584
0.00100087
0.00012961
0.00101266
0.000124328
0.00102414
0.000118725
0.00103527
0.000112789
0.00104607
0.000106504
0.0010565
9.98584e-05
0.00106656
9.28368e-05
0.00107623
8.54253e-05
0.00108551
7.76094e-05
0.00109437
6.93744e-05
0.00110282
6.07057e-05
0.00111083
5.15889e-05
0.0011184
4.20094e-05
0.00112551
3.19531e-05
0.00113216
2.14063e-05
0.00113833
1.03564e-05
0.00114402
-1.21167e-06
0.00114922
-1.33193e-05
0.00115392
-2.59788e-05
0.0011581
-3.92017e-05
0.00116177
-5.29986e-05
0.0011649
-6.73794e-05
0.00116749
-8.23535e-05
0.00116952
-9.79292e-05
0.001171
-0.000114114
0.0011719
-0.000130913
0.00117221
-0.000148334
0.00117193
-0.000166379
0.00117105
-0.000185052
0.00116956
-0.000204358
0.00116746
-0.0002243
0.00116474
-0.000244876
0.00116141
-0.000266086
0.00115746
-0.000287911
0.00115286
-0.000310328
0.00114758
-0.000333292
0.00114159
-0.000356759
0.00113487
-0.00038068
0.00112744
-0.000405015
0.00111946
-0.00042979
0.00111128
-0.00045517
0.00110372
-0.000481642
0.00109805
-0.000510008
0.00109564
-0.000541188
0.0010969
-0.000575258
0.00109977
-0.000610414
0.00109866
-0.000641882
0.00108471
-0.000661944
0.00104731
-0.000660857
0.000977617
-0.000629462
0.000874249
-0.000563795
0.000747288
-0.000467711
0.000613417
-0.000349114
0.000485527
-0.000215321
0.000368442
-7.14576e-05
0.000262653
7.53867e-05
0.000209078
0.000169295
0.000833348
0.000157607
-0.00081865
0.00084789
0.000155413
0.000862263
0.000153058
0.000876455
0.000150519
0.000890452
0.000147784
0.000904242
0.000144843
0.000917813
0.000141687
0.000931151
0.000138306
0.000944243
0.000134689
0.000957076
0.000130824
0.000969637
0.000126702
0.000981911
0.000122309
0.000993886
0.000117635
0.00100555
0.000112666
0.00101688
0.000107389
0.00102788
0.000101792
0.00103853
9.58598e-05
0.00104881
8.95789e-05
0.00105871
8.29347e-05
0.00106822