/*--------------------------------*- C++ -*----------------------------------*\
| =========                 |                                                 |
| \\      /  F ield         | OpenFOAM: The Open Source CFD Toolbox           |
|  \\    /   O peration     | Version:  2312                                  |
|   \\  /    A nd           | Website:  www.openfoam.com                      |
|    \\/     M anipulation  |                                                 |
\*---------------------------------------------------------------------------*/
FoamFile
{
    version     2.0;
    format      ascii;
    arch        "LSB;label=32;scalar=64";
    class       volVectorField;
    location    "1900";
    object      U;
}
// * * * * * * * * * * * * * * * * * * * * * * * * * * * * * * * * * * * * * //

dimensions      [0 1 -1 0 0 0 0];

internalField   nonuniform List<vector> 
76025
(
(0.0361456 -0.00569223 0)
(0.0362993 -0.00578462 1.28794e-21)
(0.0364601 -0.00587343 0)
(0.0366257 -0.00595987 0)
(0.0367852 -0.00604254 -2.4229e-21)
(0.0369534 -0.00612366 -4.68566e-21)
(0.0371155 -0.00620032 8.11527e-21)
(0.0372828 -0.00627271 -3.44517e-21)
(0.0374502 -0.00634278 -1.11445e-21)
(0.0376223 -0.00640917 1.09102e-21)
(0.0377922 -0.00647238 -3.35032e-24)
(0.0379632 -0.00653121 3.0892e-21)
(0.0381362 -0.00658878 -4.13143e-21)
(0.0383115 -0.00663982 0)
(0.0384955 -0.00668865 9.79187e-22)
(0.0386749 -0.00673636 0)
(0.0388601 -0.0067766 0)
(0.039044 -0.00681862 0)
(0.0392292 -0.00685389 9.01117e-22)
(0.0394124 -0.00689136 -8.81569e-22)
(0.0396003 -0.00691978 -8.60192e-22)
(0.0397945 -0.00694585 -2.51593e-21)
(0.0399889 -0.00696668 1.67194e-21)
(0.0401856 -0.00698526 2.39986e-21)
(0.0403825 -0.0070028 -3.81505e-23)
(0.040578 -0.00701997 7.32664e-22)
(0.0407797 -0.00702588 -2.25038e-21)
(0.0409756 -0.00703294 2.24177e-21)
(0.0411731 -0.00703597 -7.28123e-22)
(0.0413707 -0.00703068 7.09226e-22)
(0.0415625 -0.00703207 6.90294e-22)
(0.0417479 -0.00703669 -1.32871e-21)
(0.0419327 -0.00702505 1.97669e-21)
(0.0421146 -0.00702057 3.07838e-22)
(0.0422951 -0.00700596 -1.52494e-21)
(0.0424709 -0.0070003 7.4167e-24)
(0.0426446 -0.00699576 2.8499e-22)
(0.0428133 -0.00698153 -1.31533e-22)
(0.0429758 -0.00696977 3.60742e-24)
(0.0431338 -0.00695505 1.84762e-22)
(0.0432876 -0.00694516 -1.20252e-22)
(0.0434384 -0.00694106 5.81141e-23)
(0.0435804 -0.00693118 -1.1158e-22)
(0.0437175 -0.00692513 2.16879e-22)
(0.043853 -0.00691842 2.05443e-22)
(0.0439875 -0.00692436 -4.12865e-22)
(0.0441149 -0.00693325 -3.90942e-22)
(0.0442392 -0.00694494 1.15426e-21)
(0.0443627 -0.00696362 -7.78191e-22)
(0.0444842 -0.00699393 -1.41677e-23)
(0.0446025 -0.00703405 1.89624e-21)
(0.0447159 -0.00708568 7.68604e-22)
(0.0448202 -0.00714968 -7.52632e-22)
(0.0449158 -0.0072267 0)
(0.0450062 -0.00731408 8.08388e-22)
(0.0450928 -0.00742264 8.14157e-22)
(0.0451708 -0.00755418 -1.15692e-23)
(0.0452436 -0.00771556 8.70449e-22)
(0.0453113 -0.00791898 -9.71575e-22)
(0.045364 -0.00816588 2.98136e-21)
(0.0453973 -0.00844171 2.16307e-21)
(0.0454427 -0.00878694 2.63965e-23)
(0.0454817 -0.0091896 0)
(0.045519 -0.00966916 -7.01264e-21)
(0.0455418 -0.0102259 2.96006e-21)
(0.0455834 -0.0108632 -1.59169e-21)
(0.0456235 -0.0116987 3.52431e-21)
(0.0458292 -0.0127107 -4.03398e-21)
(0.0461801 -0.0138507 -8.59568e-21)
(0.0360007 -0.00598171 1.37162e-21)
(0.0361638 -0.00607735 4.02368e-21)
(0.03633 -0.0061695 -5.33934e-21)
(0.0364997 -0.00625695 0)
(0.0366707 -0.00634236 6.31723e-21)
(0.0368459 -0.00642323 -8.00588e-23)
(0.0370221 -0.00650111 -4.91585e-21)
(0.0371984 -0.0065753 0)
(0.0373761 -0.00664544 -6.77815e-24)
(0.0375554 -0.00671211 -1.13892e-21)
(0.0377369 -0.00677501 1.11415e-21)
(0.0379188 -0.00683403 -3.67289e-24)
(0.0381005 -0.00688978 0)
(0.0382827 -0.00694193 0)
(0.0384671 -0.00698869 2.00064e-21)
(0.0386526 -0.00703385 -5.03536e-21)
(0.0388406 -0.00707331 -9.7516e-22)
(0.0390291 -0.00711097 2.83992e-21)
(0.0392191 -0.00714292 -1.88496e-21)
(0.0394086 -0.00717355 9.12349e-22)
(0.0395996 -0.00719954 -8.66148e-22)
(0.0397909 -0.00722199 1.75957e-21)
(0.0399827 -0.00724083 -1.6783e-21)
(0.0401753 -0.00725618 2.48841e-21)
(0.040369 -0.00726807 -1.64331e-21)
(0.0405629 -0.00727794 -2.36237e-21)
(0.040757 -0.00728295 1.56959e-21)
(0.0409501 -0.00728594 0)
(0.0411427 -0.00728635 0)
(0.0413334 -0.00728364 7.16242e-22)
(0.041522 -0.00727832 0)
(0.04171 -0.00727058 6.83782e-22)
(0.0418946 -0.00725887 -6.67843e-22)
(0.0420767 -0.00724546 9.81061e-22)
(0.0422571 -0.00723029 7.5161e-24)
(0.0424356 -0.00721454 3.00254e-22)
(0.0426112 -0.00719824 0)
(0.0427811 -0.0071817 5.36504e-22)
(0.0429463 -0.0071646 -3.86504e-22)
(0.0431087 -0.00714732 3.12426e-22)
(0.0432683 -0.00713126 -1.79206e-22)
(0.0434244 -0.00711719 5.11052e-24)
(0.0435746 -0.00710518 -5.79681e-23)
(0.0437202 -0.00709467 5.34885e-23)
(0.0438638 -0.00708682 -4.07309e-22)
(0.0440052 -0.00708396 1.97542e-22)
(0.0441421 -0.00708613 1.88429e-22)
(0.0442741 -0.00709285 -3.93359e-22)
(0.0444024 -0.0071054 -1.15306e-21)
(0.0445263 -0.00712556 -6.00723e-24)
(0.0446443 -0.00715427 -1.15043e-21)
(0.0447543 -0.00719341 3.88045e-22)
(0.0448549 -0.00724398 1.18822e-21)
(0.0449454 -0.00730662 -7.81165e-22)
(0.0450264 -0.00738331 0)
(0.0450994 -0.00747976 -2.53432e-21)
(0.0451622 -0.00759846 -4.37024e-23)
(0.0452152 -0.00774535 8.90927e-22)
(0.0452578 -0.00792632 9.5783e-22)
(0.0452867 -0.00814875 0)
(0.0453029 -0.00841677 -1.04855e-21)
(0.0453091 -0.00873722 -3.50983e-21)
(0.0452995 -0.00911669 0)
(0.0452737 -0.00956914 2.86497e-21)
(0.0452281 -0.0101068 -1.74342e-21)
(0.0451827 -0.0107499 3.53298e-21)
(0.0451636 -0.0115622 -1.84979e-21)
(0.0454529 -0.0125782 4.15062e-21)
(0.0459487 -0.0137311 4.48801e-21)
(0.0358382 -0.00628581 -7.08105e-21)
(0.0360138 -0.00638483 4.26555e-21)
(0.0361909 -0.00648019 -1.3859e-21)
(0.0363691 -0.00657042 5.3556e-21)
(0.0365492 -0.00665679 -6.64901e-21)
(0.0367316 -0.00673928 -5.12316e-21)
(0.0369167 -0.00681788 6.36375e-21)
(0.0371036 -0.00689241 0)
(0.0372921 -0.00696289 -5.83961e-24)
(0.0374816 -0.00702933 0)
(0.0376723 -0.0070918 -1.15339e-21)
(0.037864 -0.00715017 1.12355e-21)
(0.0380564 -0.00720436 5.44817e-21)
(0.038249 -0.00725467 -4.33578e-21)
(0.0384419 -0.0073007 1.04714e-21)
(0.0386355 -0.0073427 3.04424e-21)
(0.0388297 -0.00738065 -1.01958e-21)
(0.0390245 -0.00741449 -9.75383e-22)
(0.0392201 -0.00744429 -2.82495e-21)
(0.0394162 -0.00746987 1.87684e-21)
(0.0396124 -0.00749177 9.00091e-22)
(0.0398081 -0.00750994 -1.74179e-21)
(0.0400037 -0.00752435 8.88016e-22)
(0.0401992 -0.00753502 8.33985e-22)
(0.0403947 -0.00754213 0)
(0.0405898 -0.00754584 -7.92412e-22)
(0.040784 -0.0075464 -7.65132e-22)
(0.0409774 -0.00754353 7.89227e-22)
(0.0411702 -0.00753751 0)
(0.0413615 -0.00752876 -1.44752e-21)
(0.0415515 -0.00751652 6.98843e-22)
(0.0417398 -0.00750147 -1.61982e-23)
(0.0419256 -0.0074839 0)
(0.0421094 -0.00746402 -3.26629e-22)
(0.0422912 -0.00744294 9.18853e-22)
(0.0424704 -0.00742081 -5.95111e-22)
(0.0426464 -0.0073986 0)
(0.0428185 -0.0073763 -3.99525e-22)
(0.0429874 -0.00735303 3.84183e-22)
(0.0431533 -0.00732982 6.21635e-23)
(0.043316 -0.00730723 0)
(0.0434749 -0.00728625 1.12248e-22)
(0.0436295 -0.00726706 5.36416e-23)
(0.0437802 -0.00724901 -5.41368e-23)
(0.0439275 -0.00723364 3.06881e-22)
(0.0440707 -0.00722234 1.91234e-22)
(0.0442086 -0.00721573 -3.91384e-22)
(0.0443412 -0.00721326 3.79933e-22)
(0.0444677 -0.00721577 -3.70399e-22)
(0.0445875 -0.00722476 3.74343e-22)
(0.0446992 -0.00724164 3.82575e-22)
(0.0448015 -0.00726778 -7.41633e-22)
(0.0448932 -0.00730434 0)
(0.0449737 -0.00735287 -7.69553e-22)
(0.0450429 -0.00741564 3.20759e-23)
(0.0451005 -0.00749643 8.50967e-22)
(0.0451455 -0.00759952 8.99461e-22)
(0.045177 -0.00772942 -1.84294e-21)
(0.0451937 -0.00789188 -3.63069e-23)
(0.045194 -0.00809341 -1.02945e-21)
(0.045176 -0.00833986 2.21685e-21)
(0.04514 -0.00863785 1.14951e-21)
(0.0450788 -0.00899536 -1.17778e-22)
(0.0449909 -0.00942507 1.43746e-21)
(0.0448732 -0.00994339 1.55685e-21)
(0.0447554 -0.0105712 5.50164e-21)
(0.044713 -0.011398 0)
(0.0450828 -0.0124622 2.35649e-21)
(0.0454766 -0.0135832 -2.32742e-21)
(0.0356537 -0.00660463 0)
(0.0358445 -0.00670604 1.46328e-21)
(0.0360368 -0.00680383 7.12924e-21)
(0.0362286 -0.00689639 -5.65613e-21)
(0.036421 -0.00698436 -4.06808e-21)
(0.0366146 -0.00706818 6.74119e-21)
(0.0368098 -0.00714764 -1.30269e-21)
(0.0370068 -0.00722259 1.27866e-21)
(0.0372053 -0.00729301 1.24267e-21)
(0.037405 -0.00735897 4.81284e-21)
(0.0376058 -0.00742052 -4.79436e-21)
(0.0378075 -0.00747763 -4.57867e-21)
(0.03801 -0.00753023 1.20182e-21)
(0.0382132 -0.00757835 4.40035e-21)
(0.0384167 -0.00762203 -3.24015e-21)
(0.0386202 -0.00766127 1.04306e-21)
(0.0388237 -0.00769618 -1.01584e-21)
(0.0390271 -0.0077267 -9.8919e-22)
(0.0392303 -0.00775295 2.87954e-21)
(0.0394334 -0.00777491 -9.70519e-22)
(0.0396362 -0.0077927 -9.21603e-22)
(0.0398386 -0.00780632 0)
(0.0400405 -0.00781586 -1.70653e-21)
(0.0402417 -0.00782147 8.66008e-22)
(0.0404421 -0.00782332 1.62833e-21)
(0.0406414 -0.00782151 1.56153e-21)
(0.0408396 -0.00781615 -3.15549e-21)
(0.0410366 -0.00780725 1.52541e-21)
(0.0412322 -0.00779505 0)
(0.0414262 -0.00777972 1.4484e-21)
(0.0416183 -0.00776135 -1.86682e-23)
(0.0418084 -0.00774013 -1.39765e-21)
(0.0419963 -0.0077162 6.6104e-22)
(0.0421822 -0.00769062 -1.59299e-21)
(0.0423655 -0.00766369 3.18658e-22)
(0.042546 -0.00763574 0)
(0.0427236 -0.00760706 0)
(0.0428981 -0.00757767 -1.29197e-22)
(0.0430694 -0.00754766 -1.2811e-22)
(0.0432374 -0.00751759 -5.88041e-23)
(0.0434019 -0.00748799 1.75657e-24)
(0.0435625 -0.00745932 -5.62414e-23)
(0.043719 -0.00743183 0)
(0.043871 -0.00740587 -4.77535e-24)
(0.0440187 -0.00738234 0)
(0.0441612 -0.00736223 -1.98967e-22)
(0.0442976 -0.00734569 7.28308e-25)
(0.0444274 -0.00733279 5.43657e-22)
(0.0445497 -0.00732427 0)
(0.0446638 -0.0073213 3.67639e-22)
(0.0447687 -0.00732508 -3.64815e-22)
(0.0448634 -0.00733696 7.56182e-22)
(0.0449467 -0.00735837 0)
(0.0450179 -0.00739111 2.32277e-21)
(0.0450762 -0.00743751 2.93994e-23)
(0.0451208 -0.00750078 -8.00207e-22)
(0.0451501 -0.0075846 -8.44448e-22)
(0.0451623 -0.00769337 0)
(0.0451553 -0.0078325 0)
(0.0451269 -0.00800828 1.05496e-21)
(0.0450742 -0.00822801 -2.27343e-21)
(0.0449953 -0.00849779 -2.47201e-21)
(0.0448813 -0.0088235 0)
(0.0447274 -0.00921907 3.0719e-21)
(0.0445377 -0.00970785 0)
(0.0443659 -0.0103223 -5.85461e-21)
(0.0443396 -0.0111704 2.02475e-21)
(0.0447917 -0.0122521 2.46453e-21)
(0.0449378 -0.0132235 2.80176e-21)
(0.03546 -0.00694199 0)
(0.0356613 -0.00704471 0)
(0.0358664 -0.00714386 1.50011e-21)
(0.0360722 -0.00723773 -5.77961e-21)
(0.0362787 -0.00732683 7.16523e-21)
(0.0364862 -0.00741156 -1.38247e-21)
(0.0366946 -0.00749173 0)
(0.0369039 -0.00756707 -1.31523e-21)
(0.0371139 -0.00763748 0)
(0.0373247 -0.00770297 -2.4784e-21)
(0.0375364 -0.00776356 5.08026e-23)
(0.0377487 -0.00781928 2.4039e-21)
(0.0379617 -0.00787014 0)
(0.0381751 -0.00791614 -2.22858e-21)
(0.0383887 -0.00795733 6.58518e-21)
(0.0386023 -0.00799375 -4.27788e-21)
(0.0388158 -0.00802546 5.20032e-21)
(0.0390288 -0.00805249 -1.03447e-21)
(0.0392412 -0.0080749 9.79306e-22)
(0.039453 -0.00809279 -9.6098e-22)
(0.039664 -0.00810619 -9.10523e-22)
(0.0398741 -0.0081152 2.73388e-21)
(0.0400832 -0.00811991 1.75846e-21)
(0.0402912 -0.00812045 0)
(0.0404978 -0.00811696 -1.63869e-21)
(0.0407031 -0.00810958 -7.66769e-22)
(0.0409067 -0.00809844 2.39039e-21)
(0.0411087 -0.00808367 -7.7248e-22)
(0.0413087 -0.00806547 1.46418e-21)
(0.0415067 -0.00804396 -2.20218e-21)
(0.0417025 -0.0080193 6.9342e-22)
(0.0418961 -0.00799157 -3.37216e-22)
(0.0420872 -0.00796122 0)
(0.0422758 -0.00792919 3.20046e-22)
(0.0424617 -0.00789553 3.04648e-22)
(0.0426445 -0.00786048 0)
(0.0428243 -0.0078243 -2.65182e-22)
(0.0430009 -0.00778723 3.85901e-22)
(0.043174 -0.00774957 -2.49395e-22)
(0.0433434 -0.00771168 1.17005e-22)
(0.043509 -0.00767395 1.61624e-24)
(0.0436703 -0.00763675 7.85288e-23)
(0.043827 -0.00760046 -2.5912e-23)
(0.0439787 -0.00756548 -1.01023e-22)
(0.0441252 -0.00753237 4.77675e-24)
(0.0442657 -0.00750195 -5.50133e-22)
(0.0443991 -0.00747427 0)
(0.0445251 -0.00744971 -3.65312e-22)
(0.044643 -0.00742891 -1.25992e-23)
(0.0447521 -0.00741284 3.51698e-22)
(0.0448514 -0.00740257 0)
(0.0449399 -0.00739933 3.62756e-22)
(0.0450167 -0.00740451 -3.60266e-22)
(0.0450805 -0.00741984 -7.67185e-22)
(0.0451299 -0.00744742 0)
(0.0451633 -0.00748999 1.65784e-21)
(0.0451784 -0.00755093 -1.70623e-21)
(0.0451728 -0.00763443 1.81121e-21)
(0.0451437 -0.00774559 1.17224e-23)
(0.045088 -0.00789047 0)
(0.0450016 -0.00807601 1.18581e-21)
(0.0448788 -0.00830906 -1.26812e-21)
(0.0447098 -0.00859524 -1.4125e-21)
(0.0444887 -0.0089496 -3.14454e-21)
(0.0442368 -0.00940361 5.35103e-21)
(0.0440397 -0.0100067 -3.94969e-21)
(0.0440744 -0.0108747 2.06574e-21)
(0.0445565 -0.0119214 -2.28952e-21)
(0.0441005 -0.0126419 -8.1058e-21)
(0.0352734 -0.00730206 -6.36766e-21)
(0.0354799 -0.00740569 1.0914e-22)
(0.0356922 -0.00750548 6.26183e-21)
(0.0359074 -0.00759976 0)
(0.0361251 -0.00768909 -1.46844e-21)
(0.036345 -0.00777391 0)
(0.0365666 -0.00785402 2.76991e-21)
(0.0367892 -0.00792912 -5.6576e-23)
(0.0370124 -0.00799905 -4.00798e-21)
(0.037236 -0.00806374 1.29131e-21)
(0.03746 -0.00812317 1.25475e-21)
(0.0376842 -0.00817735 1.22063e-21)
(0.0379086 -0.00822628 0)
(0.0381331 -0.00826997 0)
(0.0383574 -0.00830846 -1.12427e-21)
(0.0385815 -0.00834178 -1.09321e-21)
(0.0388052 -0.00837001 2.09112e-21)
(0.0390282 -0.00839319 -2.08652e-21)
(0.0392505 -0.00841142 -1.99767e-21)
(0.0394717 -0.00842477 1.91301e-21)
(0.0396918 -0.00843334 -3.78002e-21)
(0.0399105 -0.00843725 4.10528e-23)
(0.0401278 -0.0084366 1.78671e-21)
(0.0403435 -0.00843154 8.52214e-22)
(0.0405575 -0.0084222 1.64415e-21)
(0.0407695 -0.00840872 -1.64673e-21)
(0.0409796 -0.00839127 -1.54699e-21)
(0.0411874 -0.00836998 1.55102e-21)
(0.041393 -0.00834503 0)
(0.0415961 -0.00831657 0)
(0.0417966 -0.00828479 -1.73694e-21)
(0.0419944 -0.00824974 3.47082e-23)
(0.0421894 -0.00821213 6.61353e-22)
(0.0423814 -0.00817269 6.06607e-22)
(0.0425701 -0.00813145 -5.953e-22)
(0.0427555 -0.00808867 0)
(0.0429374 -0.00804462 2.69386e-22)
(0.0431157 -0.00799958 3.68276e-22)
(0.0432902 -0.00795382 -2.41665e-22)
(0.0434606 -0.00790764 -3.10532e-24)
(0.0436266 -0.00786135 1.66151e-23)
(0.043788 -0.00781526 -7.8943e-23)
(0.0439443 -0.0077697 -4.7547e-23)
(0.0440952 -0.00772499 -9.35155e-23)
(0.0442402 -0.00768157 4.58262e-22)
(0.0443786 -0.00764018 4.60246e-24)
(0.0445095 -0.00760104 0)
(0.0446328 -0.00756441 3.25675e-22)
(0.0447479 -0.00753084 -1.00933e-21)
(0.0448539 -0.00750111 6.58255e-22)
(0.0449499 -0.00747607 3.41249e-22)
(0.0450349 -0.00745677 -1.0328e-23)
(0.0451074 -0.0074444 3.74613e-22)
(0.0451659 -0.00744045 2.78015e-23)
(0.0452084 -0.00744673 -7.28783e-22)
(0.0452325 -0.00746564 7.51584e-22)
(0.0452355 -0.00750021 8.53066e-22)
(0.0452142 -0.00755429 -1.76327e-21)
(0.0451652 -0.00763261 -5.66121e-23)
(0.0450843 -0.00774073 -1.0734e-21)
(0.044965 -0.00788482 1.07278e-21)
(0.0447982 -0.00807166 -1.25477e-21)
(0.0445731 -0.00830879 2.80153e-21)
(0.0442916 -0.00861477 1.65442e-21)
(0.0440017 -0.00903078 -3.35762e-21)
(0.043824 -0.00962474 2.01766e-21)
(0.0439518 -0.0104866 6.6934e-21)
(0.0442993 -0.0114069 2.64883e-21)
(0.0428214 -0.0117768 0)
(0.035098 -0.00768659 0)
(0.0353103 -0.00779113 -1.65002e-21)
(0.0355283 -0.00789134 1.30573e-23)
(0.0357497 -0.00798557 0)
(0.0359747 -0.00807447 0)
(0.0362034 -0.00815858 -1.4873e-21)
(0.0364351 -0.00823771 4.30465e-21)
(0.0366688 -0.00831161 -5.61967e-21)
(0.036904 -0.0083801 2.76013e-21)
(0.03714 -0.00844312 -1.32687e-21)
(0.0373765 -0.00850062 0)
(0.0376133 -0.00855257 -1.25363e-21)
(0.03785 -0.00859894 1.21441e-21)
(0.0380866 -0.00863974 0)
(0.0383226 -0.00867496 0)
(0.038558 -0.00870466 -1.08577e-21)
(0.0387927 -0.00872889 6.05549e-23)
(0.0390263 -0.00874772 2.12041e-21)
(0.0392588 -0.00876125 2.00821e-21)
(0.0394899 -0.00876957 -1.99286e-21)
(0.0397195 -0.00877279 -9.57509e-22)
(0.0399474 -0.00877106 -3.65345e-21)
(0.0401734 -0.00876449 3.03814e-23)
(0.0403974 -0.00875324 8.26844e-22)
(0.0406191 -0.00873747 -1.69991e-21)
(0.0408385 -0.00871733 7.92717e-22)
(0.0410554 -0.008693 -1.5936e-21)
(0.0412696 -0.00866464 0)
(0.0414811 -0.00863243 0)
(0.0416896 -0.00859656 0)
(0.0418952 -0.00855723 3.49877e-22)
(0.0420974 -0.00851448 6.67578e-22)
(0.0422964 -0.00846931 -6.46028e-22)
(0.0424918 -0.00842213 -5.89538e-22)
(0.0426836 -0.00837304 5.78598e-22)
(0.0428717 -0.00832227 0)
(0.0430558 -0.00827007 -2.50032e-22)
(0.0432359 -0.0082167 1.21571e-22)
(0.0434118 -0.00816241 0)
(0.0435832 -0.00810744 -1.08114e-22)
(0.0437499 -0.00805208 1.93191e-23)
(0.0439116 -0.00799658 -1.24252e-23)
(0.0440678 -0.00794121 4.83486e-23)
(0.0442184 -0.00788627 0)
(0.0443629 -0.00783206 1.70185e-22)
(0.0445006 -0.00777921 -1.66458e-22)
(0.0446309 -0.00772827 0)
(0.0447535 -0.00767922 -1.31179e-23)
(0.044868 -0.00763241 1.31876e-23)
(0.0449733 -0.00758838 -3.29033e-22)
(0.0450685 -0.00754773 0)
(0.0451523 -0.00751126 -2.92383e-23)
(0.0452228 -0.00747985 3.4185e-22)
(0.0452781 -0.00745469 1.01407e-21)
(0.0453157 -0.00743724 -1.75683e-23)
(0.0453327 -0.00742954 -7.68131e-22)
(0.0453261 -0.00743424 0)
(0.0452921 -0.00745475 0)
(0.0452265 -0.00749516 -8.74607e-22)
(0.045123 -0.00756011 0)
(0.044972 -0.0076547 0)
(0.0447613 -0.00778578 -1.06654e-22)
(0.0444847 -0.00796512 1.28863e-21)
(0.044164 -0.00821816 3.11518e-21)
(0.0438784 -0.00859711 -3.30557e-21)
(0.0437719 -0.00917471 -1.35175e-22)
(0.0439703 -0.00998342 -2.07353e-21)
(0.0438987 -0.0106466 -2.41783e-21)
(0.0411119 -0.0105084 0)
(0.0349263 -0.00809635 0)
(0.0351487 -0.00820202 1.69509e-21)
(0.0353756 -0.00830279 -4.93632e-21)
(0.035605 -0.00839695 1.64148e-21)
(0.0358374 -0.00848523 0)
(0.0360736 -0.00856823 4.55195e-21)
(0.0363132 -0.00864582 -7.43405e-21)
(0.0365556 -0.00871778 6.64131e-23)
(0.0368002 -0.00878398 7.01973e-21)
(0.0370464 -0.00884438 -1.3971e-21)
(0.0372938 -0.00889895 1.32148e-21)
(0.0375419 -0.00894769 1.28086e-21)
(0.0377902 -0.00899057 -3.70139e-21)
(0.0380384 -0.00902757 4.82264e-21)
(0.0382861 -0.0090587 -2.3687e-21)
(0.0385331 -0.00908399 1.09379e-21)
(0.038779 -0.0091035 -4.37864e-21)
(0.0390236 -0.00911729 1.09875e-21)
(0.0392666 -0.00912547 -9.86035e-22)
(0.039508 -0.00912814 1.04544e-21)
(0.0397474 -0.00912542 6.28152e-23)
(0.0399847 -0.00911746 5.55102e-21)
(0.0402196 -0.0091044 8.41774e-22)
(0.0404521 -0.00908642 -6.04565e-23)
(0.0406819 -0.00906367 -2.51964e-21)
(0.0409089 -0.00903634 8.15881e-22)
(0.0411329 -0.00900461 -1.52595e-21)
(0.0413537 -0.00896869 2.26555e-21)
(0.0415713 -0.00892875 0)
(0.0417855 -0.00888501 6.85792e-22)
(0.0419961 -0.00883763 -6.88254e-22)
(0.0422031 -0.00878675 1.47804e-23)
(0.0424063 -0.00873354 2.99637e-22)
(0.0426055 -0.00867813 2.82221e-22)
(0.0428006 -0.00862065 -8.0274e-22)
(0.0429916 -0.00856136 5.2706e-22)
(0.0431783 -0.00850049 -3.56836e-22)
(0.0433606 -0.00843828 4.60313e-22)
(0.0435383 -0.00837497 -2.21475e-22)
(0.0437112 -0.0083108 5.31809e-23)
(0.0438792 -0.00824601 0)
(0.044042 -0.00818082 -4.54878e-23)
(0.0441993 -0.00811545 4.45802e-23)
(0.0443509 -0.00805012 8.28277e-23)
(0.0444964 -0.00798505 -2.3996e-22)
(0.0446355 -0.00792063 1.48297e-22)
(0.0447674 -0.00785762 1.50601e-22)
(0.0448916 -0.00779591 0)
(0.0450076 -0.00773544 5.66592e-22)
(0.0451146 -0.0076765 -5.82616e-22)
(0.045211 -0.00761939 3.11191e-22)
(0.0452955 -0.0075646 -3.04744e-22)
(0.045366 -0.00751269 -2.74228e-22)
(0.0454202 -0.00746447 -6.35705e-22)
(0.0454553 -0.00742105 -6.8585e-22)
(0.0454682 -0.00738407 0)
(0.0454555 -0.00735567 6.92664e-22)
(0.0454129 -0.00733859 0)
(0.0453344 -0.00733583 -5.16113e-24)
(0.0452108 -0.00735064 9.97609e-22)
(0.0450292 -0.0073872 -9.94439e-22)
(0.0447783 -0.00745401 -1.20387e-21)
(0.0444662 -0.00756995 1.25182e-21)
(0.0441452 -0.00776818 4.92953e-23)
(0.0439167 -0.00810625 1.36916e-22)
(0.043916 -0.00864359 -5.68351e-21)
(0.0440763 -0.00932635 -2.12684e-21)
(0.0432036 -0.00959403 -2.77432e-21)
(0.0388069 -0.00883966 2.88677e-21)
(0.0347491 -0.00853237 0)
(0.0349856 -0.00863938 0)
(0.0352257 -0.0087409 -3.39858e-21)
(0.0354671 -0.00883516 5.03622e-21)
(0.0357106 -0.00892292 1.62575e-21)
(0.0359568 -0.00900479 0)
(0.0362058 -0.0090807 0)
(0.0364572 -0.00915042 -1.48555e-21)
(0.0367107 -0.00921387 2.84531e-21)
(0.036966 -0.00927103 -7.37914e-23)
(0.0372227 -0.00932195 -6.76989e-21)
(0.0374804 -0.00936663 1.34471e-21)
(0.0377388 -0.00940508 -1.23803e-21)
(0.0379973 -0.00943733 2.49187e-21)
(0.0382555 -0.00946338 -1.18153e-21)
(0.0385131 -0.00948329 0)
(0.0387696 -0.00949712 0)
(0.0390246 -0.00950495 3.29308e-23)
(0.039278 -0.00950689 3.12624e-21)
(0.0395294 -0.00950304 -1.00583e-21)
(0.0397786 -0.00949354 9.50969e-22)
(0.0400252 -0.00947854 -9.37099e-22)
(0.0402692 -0.00945821 -8.73436e-22)
(0.0405102 -0.00943273 9.06234e-22)
(0.0407481 -0.00940228 8.40742e-22)
(0.0409828 -0.00936705 0)
(0.041214 -0.00932726 0)
(0.0414416 -0.0092831 -1.11474e-21)
(0.0416655 -0.00923479 0)
(0.0418855 -0.00918254 -6.70445e-22)
(0.0421015 -0.0091265 6.72667e-22)
(0.0423134 -0.00906703 3.22798e-22)
(0.0425211 -0.00900518 -3.04171e-22)
(0.0427244 -0.008941 -5.56315e-22)
(0.0429232 -0.00887467 2.69883e-22)
(0.0431175 -0.00880643 2.40922e-22)
(0.0433072 -0.00873653 -2.28017e-22)
(0.0434923 -0.00866519 0)
(0.0436727 -0.00859265 0)
(0.0438481 -0.00851911 -4.59239e-23)
(0.0440185 -0.00844478 0)
(0.0441837 -0.00836984 0)
(0.0443435 -0.00829444 1.18582e-22)
(0.0444977 -0.00821872 -1.51415e-22)
(0.044646 -0.00814279 6.91864e-23)
(0.0447882 -0.0080668 -1.49471e-22)
(0.0449235 -0.0079913 0)
(0.0450512 -0.00791657 -3.88613e-22)
(0.0451706 -0.00784193 -1.63897e-23)
(0.0452807 -0.00776742 0)
(0.0453801 -0.00769301 5.22189e-22)
(0.0454671 -0.00761886 -2.44624e-23)
(0.0455396 -0.00754517 5.58429e-22)
(0.0455952 -0.00747238 2.59201e-22)
(0.0456309 -0.00740117 6.06996e-22)
(0.0456437 -0.00733268 -6.05047e-22)
(0.0456296 -0.00726831 -7.09464e-22)
(0.0455829 -0.00720963 0)
(0.045495 -0.00715811 8.31624e-22)
(0.0453532 -0.0071155 8.80742e-23)
(0.0451441 -0.00708626 0)
(0.0448661 -0.00708311 0)
(0.0445543 -0.00713342 -1.28699e-21)
(0.044292 -0.00727628 0)
(0.0441838 -0.0075635 0)
(0.0442814 -0.00801392 1.66605e-21)
(0.0441538 -0.00842605 2.1623e-21)
(0.0420075 -0.00819382 2.48744e-21)
(0.0359213 -0.00677569 0)
(0.0345627 -0.00899623 0)
(0.034815 -0.00910454 0)
(0.035071 -0.00920683 0)
(0.0353277 -0.00930124 1.72881e-21)
(0.0355857 -0.00938853 1.63863e-21)
(0.0358457 -0.00946933 -7.75415e-23)
(0.0361075 -0.00954355 -3.18555e-21)
(0.0363709 -0.00961096 1.52374e-21)
(0.0366356 -0.00967149 -1.47463e-21)
(0.0369015 -0.00972515 -2.8567e-21)
(0.0371685 -0.009772 0)
(0.0374362 -0.00981209 0)
(0.0377043 -0.00984547 -3.69173e-23)
(0.0379726 -0.00987219 -3.77549e-21)
(0.0382406 -0.00989232 4.77895e-21)
(0.0385078 -0.00990592 -7.55347e-23)
(0.038774 -0.0099131 -2.2786e-21)
(0.0390388 -0.00991396 -1.08817e-21)
(0.0393017 -0.00990862 -2.0306e-23)
(0.0395625 -0.00989723 0)
(0.0398209 -0.00987994 -1.92385e-21)
(0.0400765 -0.00985692 0)
(0.040329 -0.00982836 -1.77759e-21)
(0.0405783 -0.00979444 2.5431e-21)
(0.0408242 -0.00975539 -2.48065e-21)
(0.0410664 -0.00971141 -7.71548e-22)
(0.0413047 -0.00966272 1.10921e-21)
(0.041539 -0.00960956 -1.07999e-21)
(0.0417692 -0.00955214 7.10599e-22)
(0.041995 -0.0094907 0)
(0.0422165 -0.00942535 6.23992e-22)
(0.0424335 -0.00935679 2.64438e-22)
(0.0426459 -0.00928576 -5.80283e-22)
(0.0428536 -0.00921235 5.29516e-22)
(0.0430566 -0.00913678 -2.42411e-22)
(0.0432548 -0.00905927 2.3809e-22)
(0.0434483 -0.00898007 1.13078e-22)
(0.043637 -0.00889939 -9.66272e-23)
(0.0438208 -0.00881744 -4.78589e-23)
(0.0439997 -0.0087344 1.38065e-22)
(0.0441736 -0.00865041 9.82461e-24)
(0.0443424 -0.00856561 0)
(0.0445059 -0.00848008 -3.92728e-23)
(0.044664 -0.00839387 7.44747e-23)
(0.0448164 -0.008307 -7.08694e-23)
(0.0449628 -0.00821941 0)
(0.0451026 -0.00813114 0)
(0.0452349 -0.00804271 -1.06052e-22)
(0.0453587 -0.00795351 2.30396e-22)
(0.0454733 -0.00786292 4.32698e-22)
(0.0455772 -0.00777063 -9.07419e-22)
(0.0456687 -0.00767645 2.10245e-22)
(0.0457458 -0.00758021 -2.31765e-22)
(0.0458059 -0.00748189 -2.65276e-22)
(0.0458465 -0.0073817 5.2723e-22)
(0.0458641 -0.00728 -5.25662e-22)
(0.0458536 -0.00717699 0)
(0.0458068 -0.00707261 5.75477e-22)
(0.0457118 -0.00696651 1.03099e-22)
(0.0455546 -0.00685994 -7.40991e-22)
(0.0453293 -0.00676015 0)
(0.0450585 -0.00668712 0)
(0.044813 -0.00667433 0)
(0.0446891 -0.00675814 -2.57058e-21)
(0.044739 -0.00696686 -1.58537e-21)
(0.0448 -0.00724966 -2.05713e-21)
(0.0439292 -0.00723071 4.09859e-21)
(0.0400375 -0.00639546 -2.35744e-22)
(0.0324601 -0.00452749 -2.80975e-21)
(0.0343674 -0.00949012 0)
(0.0346363 -0.00959951 3.74742e-21)
(0.034909 -0.00970235 -4.63659e-21)
(0.0351825 -0.00979671 2.63519e-21)
(0.0354571 -0.00988333 -5.21861e-21)
(0.0357333 -0.00996289 -1.67108e-21)
(0.0360109 -0.0100353 -1.61573e-21)
(0.0362895 -0.0101002 0)
(0.0365686 -0.0101577 3.02016e-21)
(0.0368481 -0.0102076 2.88394e-21)
(0.0371279 -0.0102501 -2.86088e-21)
(0.0374078 -0.0102853 1.35415e-21)
(0.0376876 -0.0103131 -1.26523e-21)
(0.0379669 -0.0103338 1.35361e-21)
(0.0382454 -0.0103474 4.85693e-21)
(0.038523 -0.010354 -8.10859e-23)
(0.0387991 -0.0103537 -8.03402e-23)
(0.0390735 -0.0103467 -2.2095e-21)
(0.0393458 -0.0103332 -1.05307e-21)
(0.0396157 -0.0103133 -1.96261e-21)
(0.0398828 -0.0102873 1.98571e-21)
(0.040147 -0.0102552 0)
(0.0404078 -0.0102174 3.01604e-23)
(0.040665 -0.0101741 0)
(0.0409184 -0.0101255 8.23568e-22)
(0.0411678 -0.0100718 7.89006e-22)
(0.041413 -0.0100134 -3.77769e-22)
(0.0416538 -0.00995037 0)
(0.0418901 -0.00988305 -3.26944e-22)
(0.0421218 -0.00981167 -6.27763e-22)
(0.0423487 -0.00973634 6.29649e-22)
(0.0425708 -0.00965811 -2.97198e-22)
(0.0427881 -0.00957736 5.22581e-22)
(0.0430004 -0.00949424 -1.01628e-21)
(0.0432078 -0.00940898 2.39047e-22)
(0.0434103 -0.00932183 0)
(0.043608 -0.00923299 9.50244e-23)
(0.0438008 -0.00914267 1.04454e-23)
(0.0439886 -0.00905104 -1.30397e-22)
(0.0441716 -0.00895825 1.02714e-22)
(0.0443496 -0.0088644 -2.06335e-23)
(0.0445225 -0.00876955 5.03006e-23)
(0.0446903 -0.0086737 -3.35852e-23)
(0.0448528 -0.00857682 0)
(0.0450098 -0.00847881 0)
(0.0451609 -0.00837948 0)
(0.0453056 -0.00827858 -9.14467e-23)
(0.0454431 -0.00817608 -8.67125e-23)
(0.0455726 -0.00807195 0)
(0.0456929 -0.00796517 -1.84847e-22)
(0.045803 -0.00785488 -1.3809e-22)
(0.0459015 -0.00774057 -1.60932e-22)
(0.0459863 -0.00762164 0)
(0.0460554 -0.0074976 0)
(0.0461059 -0.00736788 4.30613e-22)
(0.0461333 -0.00723162 -4.29396e-22)
(0.0461302 -0.00708731 0)
(0.0460854 -0.00693299 -5.89463e-22)
(0.0459856 -0.00676732 6.52564e-22)
(0.0458236 -0.00659352 5.80115e-22)
(0.0456154 -0.00642528 -8.00565e-22)
(0.045422 -0.00628982 8.03704e-22)
(0.0453373 -0.00621777 0)
(0.0454166 -0.00622633 1.21827e-21)
(0.0455536 -0.00630071 -1.76468e-23)
(0.0452319 -0.006266 2.91537e-21)
(0.0429959 -0.00571757 3.88454e-21)
(0.0371556 -0.00419394 -4.8141e-21)
(0.028518 -0.00209976 2.94646e-21)
(0.0341653 -0.010017 1.00425e-21)
(0.0344511 -0.0101271 0)
(0.0347411 -0.0102301 9.45952e-22)
(0.035032 -0.0103239 -4.54185e-21)
(0.035324 -0.0104095 7.9863e-21)
(0.0356177 -0.0104874 -1.76261e-21)
(0.0359126 -0.0105575 1.65791e-21)
(0.0362081 -0.0106196 -3.15429e-21)
(0.0365039 -0.0106735 1.58645e-21)
(0.0367995 -0.0107193 1.49214e-21)
(0.0370948 -0.0107571 1.42732e-21)
(0.0373895 -0.0107868 -4.1046e-21)
(0.0376833 -0.0108088 1.383e-21)
(0.037976 -0.0108229 -3.78028e-21)
(0.0382673 -0.0108294 -1.1497e-21)
(0.0385568 -0.0108283 8.70012e-23)
(0.0388443 -0.01082 2.3072e-21)
(0.0391296 -0.0108044 0)
(0.0394121 -0.010782 0)
(0.0396918 -0.0107528 9.79349e-22)
(0.0399683 -0.0107171 9.6672e-22)
(0.0402412 -0.0106751 1.78047e-21)
(0.0405104 -0.0106272 -8.9299e-22)
(0.0407756 -0.0105735 -1.62037e-21)
(0.0410366 -0.0105144 1.61979e-21)
(0.0412931 -0.0104501 -3.66202e-22)
(0.041545 -0.010381 -3.47728e-22)
(0.0417922 -0.0103073 0)
(0.0420345 -0.0102292 3.34026e-22)
(0.0422718 -0.0101471 5.9882e-22)
(0.0425041 -0.0100611 -3.26364e-23)
(0.0427313 -0.00997255 -5.56353e-22)
(0.0429533 -0.00988143 2.38463e-22)
(0.0431702 -0.00978802 0)
(0.043382 -0.00969255 -1.01102e-22)
(0.0435887 -0.00959525 9.28364e-23)
(0.0437905 -0.00949632 -9.66182e-23)
(0.0439873 -0.00939595 1.67328e-22)
(0.0441792 -0.00929428 0)
(0.0443661 -0.00919142 1.62643e-23)
(0.0445481 -0.00908741 -1.62909e-23)
(0.0447251 -0.00898226 1.95101e-23)
(0.0448971 -0.0088759 -8.25247e-23)
(0.045064 -0.00876819 1.52381e-22)
(0.0452255 -0.00865893 -9.78299e-23)
(0.0453815 -0.00854782 -8.57634e-23)
(0.0455314 -0.00843445 1.08675e-22)
(0.0456749 -0.00831833 -1.26861e-22)
(0.0458109 -0.00819931 1.49475e-22)
(0.0459388 -0.00807668 3.63642e-22)
(0.0460576 -0.00794893 2.43575e-23)
(0.0461663 -0.00781515 1.64452e-22)
(0.0462633 -0.00767427 0)
(0.0463463 -0.00752499 0)
(0.0464113 -0.00736556 3.15747e-22)
(0.0464517 -0.00719338 -5.29659e-22)
(0.0464572 -0.00700502 3.41688e-22)
(0.0464162 -0.00679744 0)
(0.0463216 -0.0065708 -3.62054e-22)
(0.046188 -0.00633446 -1.14632e-21)
(0.0460707 -0.00611008 7.01571e-22)
(0.0460635 -0.00592407 1.03898e-22)
(0.0462266 -0.00578623 -7.43947e-22)
(0.0464717 -0.00567662 -2.08955e-22)
(0.0464128 -0.00551252 2.27192e-21)
(0.0451094 -0.00500413 -2.78186e-21)
(0.0409609 -0.00382828 -1.90225e-21)
(0.0333437 -0.00178098 0)
(0.0242002 0.000427419 0)
(0.033958 -0.0105803 -1.03171e-21)
(0.0342616 -0.0106907 -5.00748e-21)
(0.0345696 -0.0107934 3.95869e-21)
(0.0348785 -0.0108862 0)
(0.0351886 -0.0109701 9.11385e-22)
(0.0355003 -0.0110457 3.46961e-21)
(0.0358132 -0.0111128 -2.59619e-21)
(0.0361267 -0.0111714 4.03387e-21)
(0.0364402 -0.0112211 -3.1962e-21)
(0.0367533 -0.0112621 0)
(0.0370656 -0.0112944 -7.38842e-22)
(0.0373769 -0.0113182 0)
(0.0376867 -0.0113334 -1.28554e-21)
(0.0379948 -0.0113403 3.92074e-21)
(0.0383008 -0.011339 0)
(0.0386044 -0.0113296 0)
(0.0389052 -0.0113123 0)
(0.039203 -0.0112875 1.58456e-21)
(0.0394974 -0.0112552 -2.10978e-21)
(0.0397882 -0.0112158 -1.00084e-21)
(0.0400751 -0.0111696 0)
(0.0403579 -0.0111169 0)
(0.0406363 -0.0110579 0)
(0.04091 -0.0109929 1.96843e-21)