/*--------------------------------*- C++ -*----------------------------------*\
| =========                 |                                                 |
| \\      /  F ield         | OpenFOAM: The Open Source CFD Toolbox           |
|  \\    /   O peration     | Version:  2312                                  |
|   \\  /    A nd           | Website:  www.openfoam.com                      |
|    \\/     M anipulation  |                                                 |
\*---------------------------------------------------------------------------*/
FoamFile
{
    version     2.0;
    format      ascii;
    arch        "LSB;label=32;scalar=64";
    class       volScalarField;
    location    "1700";
    object      k;
}
// * * * * * * * * * * * * * * * * * * * * * * * * * * * * * * * * * * * * * //

dimensions      [0 2 -2 0 0 0 0];

internalField   nonuniform List<scalar> 
76025
(
5.1288e-06
5.13278e-06
5.13659e-06
5.13996e-06
5.14183e-06
5.14778e-06
5.15039e-06
5.1561e-06
5.16011e-06
5.16536e-06
5.17049e-06
5.17897e-06
5.19098e-06
5.19088e-06
5.19226e-06
5.1944e-06
5.19856e-06
5.20678e-06
5.21252e-06
5.22072e-06
5.22874e-06
5.23703e-06
5.24386e-06
5.25287e-06
5.26173e-06
5.27095e-06
5.28362e-06
5.29596e-06
5.31222e-06
5.32667e-06
5.34295e-06
5.36211e-06
5.38558e-06
5.4106e-06
5.43891e-06
5.46833e-06
5.50336e-06
5.54425e-06
5.58876e-06
5.63755e-06
5.6897e-06
5.75231e-06
5.82268e-06
5.89824e-06
5.97985e-06
6.07032e-06
6.16886e-06
6.27589e-06
6.39253e-06
6.51631e-06
6.65271e-06
6.80076e-06
6.9644e-06
7.1319e-06
7.33817e-06
7.54509e-06
7.79059e-06
8.06638e-06
8.39462e-06
8.77612e-06
9.22012e-06
9.73902e-06
1.03669e-05
1.11242e-05
1.20567e-05
1.31381e-05
1.44128e-05
1.60293e-05
1.7658e-05
5.24251e-06
5.2462e-06
5.25028e-06
5.25508e-06
5.25898e-06
5.26437e-06
5.26941e-06
5.27551e-06
5.2818e-06
5.28973e-06
5.29753e-06
5.30648e-06
5.31663e-06
5.32553e-06
5.33694e-06
5.35286e-06
5.35919e-06
5.35709e-06
5.36059e-06
5.36727e-06
5.3766e-06
5.38745e-06
5.39905e-06
5.41172e-06
5.42578e-06
5.44029e-06
5.45682e-06
5.47465e-06
5.4945e-06
5.51663e-06
5.54077e-06
5.56631e-06
5.59532e-06
5.62636e-06
5.66088e-06
5.6989e-06
5.74068e-06
5.78754e-06
5.8381e-06
5.89356e-06
5.95484e-06
6.02205e-06
6.09601e-06
6.17588e-06
6.26349e-06
6.35918e-06
6.46338e-06
6.57623e-06
6.69948e-06
6.83494e-06
6.98274e-06
7.1472e-06
7.32793e-06
7.53164e-06
7.75854e-06
8.01855e-06
8.31411e-06
8.65279e-06
9.04498e-06
9.49797e-06
1.00313e-05
1.06504e-05
1.13877e-05
1.22465e-05
1.32876e-05
1.45057e-05
1.60019e-05
1.77301e-05
1.9774e-05
5.37415e-06
5.37982e-06
5.38561e-06
5.39221e-06
5.39863e-06
5.40503e-06
5.41181e-06
5.41879e-06
5.42649e-06
5.43588e-06
5.44551e-06
5.45749e-06
5.46696e-06
5.48437e-06
5.49953e-06
5.51163e-06
5.51959e-06
5.52504e-06
5.53149e-06
5.53969e-06
5.54997e-06
5.56241e-06
5.57701e-06
5.5936e-06
5.61237e-06
5.6327e-06
5.65492e-06
5.67879e-06
5.70461e-06
5.7324e-06
5.76262e-06
5.79475e-06
5.82956e-06
5.86719e-06
5.90808e-06
5.95265e-06
6.00128e-06
6.05454e-06
6.11254e-06
6.1757e-06
6.2447e-06
6.32021e-06
6.40269e-06
6.49254e-06
6.59036e-06
6.69702e-06
6.81345e-06
6.94052e-06
7.07997e-06
7.23342e-06
7.40318e-06
7.59179e-06
7.8029e-06
8.03937e-06
8.30643e-06
8.6093e-06
8.9544e-06
9.34919e-06
9.80547e-06
1.03336e-05
1.09531e-05
1.16746e-05
1.25303e-05
1.35332e-05
1.47316e-05
1.61292e-05
1.77924e-05
1.97085e-05
2.19444e-05
5.53486e-06
5.54152e-06
5.5486e-06
5.55638e-06
5.5646e-06
5.57282e-06
5.58145e-06
5.59023e-06
5.59949e-06
5.61012e-06
5.62115e-06
5.63471e-06
5.64742e-06
5.66438e-06
5.68256e-06
5.70034e-06
5.71687e-06
5.73078e-06
5.74355e-06
5.75752e-06
5.7734e-06
5.79079e-06
5.80929e-06
5.82871e-06
5.84936e-06
5.87152e-06
5.89567e-06
5.92204e-06
5.95104e-06
5.98274e-06
6.01739e-06
6.05496e-06
6.09566e-06
6.13969e-06
6.18735e-06
6.23902e-06
6.29514e-06
6.35621e-06
6.42261e-06
6.49487e-06
6.57352e-06
6.65939e-06
6.75297e-06
6.85506e-06
6.9662e-06
7.08749e-06
7.22009e-06
7.36551e-06
7.52551e-06
7.70258e-06
7.89924e-06
8.11902e-06
8.36546e-06
8.64306e-06
8.95684e-06
9.3133e-06
9.71999e-06
1.01863e-05
1.07249e-05
1.13492e-05
1.20781e-05
1.29275e-05
1.39245e-05
1.50838e-05
1.64477e-05
1.80159e-05
1.98597e-05
2.19347e-05
2.43489e-05
5.73014e-06
5.73776e-06
5.74591e-06
5.75474e-06
5.76423e-06
5.77414e-06
5.7846e-06
5.79554e-06
5.80701e-06
5.81957e-06
5.83277e-06
5.84775e-06
5.86341e-06
5.8811e-06
5.90063e-06
5.92112e-06
5.9422e-06
5.96255e-06
5.9821e-06
6.00209e-06
6.02333e-06
6.04582e-06
6.06936e-06
6.09398e-06
6.11997e-06
6.14776e-06
6.17755e-06
6.20963e-06
6.24418e-06
6.28132e-06
6.32124e-06
6.36417e-06
6.41048e-06
6.46056e-06
6.51491e-06
6.5741e-06
6.6386e-06
6.70894e-06
6.78559e-06
6.86908e-06
6.95993e-06
7.05895e-06
7.16667e-06
7.2843e-06
7.41238e-06
7.5523e-06
7.70561e-06
7.87435e-06
8.06087e-06
8.26821e-06
8.49962e-06
8.75919e-06
9.05109e-06
9.38061e-06
9.75337e-06
1.0177e-05
1.06602e-05
1.12143e-05
1.18527e-05
1.25912e-05
1.34474e-05
1.44399e-05
1.559e-05
1.69179e-05
1.84508e-05
2.01998e-05
2.22109e-05
2.44364e-05
2.69989e-05
5.9654e-06
5.97465e-06
5.98439e-06
5.99471e-06
6.00571e-06
6.01732e-06
6.02963e-06
6.04268e-06
6.05649e-06
6.07133e-06
6.08708e-06
6.10415e-06
6.1224e-06
6.14206e-06
6.16331e-06
6.18582e-06
6.20946e-06
6.23368e-06
6.25819e-06
6.28334e-06
6.30958e-06
6.33708e-06
6.36595e-06
6.39634e-06
6.42871e-06
6.46323e-06
6.50016e-06
6.53964e-06
6.58174e-06
6.62648e-06
6.67404e-06
6.72473e-06
6.77905e-06
6.8376e-06
6.90108e-06
6.97018e-06
7.04546e-06
7.12746e-06
7.21671e-06
7.31373e-06
7.41915e-06
7.53384e-06
7.65863e-06
7.79513e-06
7.94414e-06
8.10748e-06
8.28728e-06
8.48618e-06
8.70718e-06
8.954e-06
9.2305e-06
9.54135e-06
9.89123e-06
1.02862e-05
1.07326e-05
1.12394e-05
1.18165e-05
1.24769e-05
1.32345e-05
1.41059e-05
1.51076e-05
1.6258e-05
1.75746e-05
1.90788e-05
2.07841e-05
2.27124e-05
2.4871e-05
2.72334e-05
2.99129e-05
6.24814e-06
6.25974e-06
6.2718e-06
6.2844e-06
6.29762e-06
6.31148e-06
6.32607e-06
6.34147e-06
6.35776e-06
6.37507e-06
6.39346e-06
6.41309e-06
6.43401e-06
6.45628e-06
6.48003e-06
6.50516e-06
6.53164e-06
6.55936e-06
6.58821e-06
6.61827e-06
6.64975e-06
6.68282e-06
6.71762e-06
6.7544e-06
6.79339e-06
6.83484e-06
6.87903e-06
6.92615e-06
6.97633e-06
7.02967e-06
7.08637e-06
7.14678e-06
7.2114e-06
7.28089e-06
7.35599e-06
7.43743e-06
7.52589e-06
7.622e-06
7.72642e-06
7.83985e-06
7.96323e-06
8.09759e-06
8.24432e-06
8.40514e-06
8.58177e-06
8.77627e-06
8.99141e-06
9.23051e-06
9.49729e-06
9.79605e-06
1.01312e-05
1.05078e-05
1.09312e-05
1.14081e-05
1.19459e-05
1.25547e-05
1.32455e-05
1.40321e-05
1.49283e-05
1.59502e-05
1.71127e-05
1.84328e-05
1.9925e-05
2.16078e-05
2.34835e-05
2.55803e-05
2.78559e-05
3.03478e-05
3.30511e-05
6.58909e-06
6.60358e-06
6.61863e-06
6.63427e-06
6.65055e-06
6.66751e-06
6.68519e-06
6.70369e-06
6.72309e-06
6.7435e-06
6.76501e-06
6.78776e-06
6.81185e-06
6.83736e-06
6.86437e-06
6.89295e-06
6.92314e-06
6.95501e-06
6.98859e-06
7.02399e-06
7.06134e-06
7.10079e-06
7.14249e-06
7.18658e-06
7.23319e-06
7.28257e-06
7.335e-06
7.39073e-06
7.45002e-06
7.51311e-06
7.58032e-06
7.65207e-06
7.72889e-06
7.81146e-06
7.90054e-06
7.99692e-06
8.10137e-06
8.21474e-06
8.33794e-06
8.47203e-06
8.61829e-06
8.77816e-06
8.95359e-06
9.14653e-06
9.35982e-06
9.59576e-06
9.85785e-06
1.01501e-05
1.04769e-05
1.08429e-05
1.1253e-05
1.17125e-05
1.22275e-05
1.28053e-05
1.34544e-05
1.41857e-05
1.50105e-05
1.59428e-05
1.69951e-05
1.81828e-05
1.95186e-05
2.10169e-05
2.26892e-05
2.45458e-05
2.65827e-05
2.88205e-05
3.11794e-05
3.37739e-05
3.63733e-05
7.00347e-06
7.02135e-06
7.03992e-06
7.05925e-06
7.07936e-06
7.10025e-06
7.12196e-06
7.14457e-06
7.16812e-06
7.1927e-06
7.21842e-06
7.2454e-06
7.27375e-06
7.3036e-06
7.33506e-06
7.36827e-06
7.40336e-06
7.44047e-06
7.47976e-06
7.52139e-06
7.56553e-06
7.61235e-06
7.66197e-06
7.71445e-06
7.76998e-06
7.82877e-06
7.8911e-06
7.95724e-06
8.02754e-06
8.10235e-06
8.18212e-06
8.26739e-06
8.35878e-06
8.45707e-06
8.56312e-06
8.67783e-06
8.80221e-06
8.9374e-06
9.0847e-06
9.24562e-06
9.42189e-06
9.61552e-06
9.8289e-06
1.00647e-05
1.03266e-05
1.06174e-05
1.09414e-05
1.13029e-05
1.17067e-05
1.21579e-05
1.26614e-05
1.32231e-05
1.38496e-05
1.45491e-05
1.53304e-05
1.62049e-05
1.71833e-05
1.82789e-05
1.95026e-05
2.08683e-05
2.23856e-05
2.40648e-05
2.59122e-05
2.79263e-05
3.01008e-05
3.24328e-05
3.48374e-05
3.74671e-05
3.9866e-05
7.5123e-06
7.53421e-06
7.55697e-06
7.58069e-06
7.60538e-06
7.63104e-06
7.65774e-06
7.6855e-06
7.71438e-06
7.74443e-06
7.77575e-06
7.80845e-06
7.84266e-06
7.8785e-06
7.91614e-06
7.95573e-06
7.99747e-06
8.04155e-06
8.08822e-06
8.13766e-06
8.19018e-06
8.24584e-06
8.30481e-06
8.36728e-06
8.43346e-06
8.50362e-06
8.57804e-06
8.65706e-06
8.74109e-06
8.83061e-06
8.92617e-06
9.02846e-06
9.13826e-06
9.25651e-06
9.38434e-06
9.52287e-06
9.67345e-06
9.83762e-06
1.00171e-05
1.0214e-05
1.04306e-05
1.06695e-05
1.09336e-05
1.12266e-05
1.15523e-05
1.19152e-05
1.2319e-05
1.27685e-05
1.32687e-05
1.38246e-05
1.44417e-05
1.51263e-05
1.58854e-05
1.67275e-05
1.76614e-05
1.86979e-05
1.98466e-05
2.11195e-05
2.25249e-05
2.40745e-05
2.57719e-05
2.76226e-05
2.96238e-05
3.17616e-05
3.40305e-05
3.63918e-05
3.87982e-05
4.13534e-05
4.35221e-05
8.14435e-06
8.17135e-06
8.19936e-06
8.22851e-06
8.25885e-06
8.29039e-06
8.32322e-06
8.35737e-06
8.39291e-06
8.4299e-06
8.46843e-06
8.5086e-06
8.55055e-06
8.59443e-06
8.64039e-06
8.68864e-06
8.7394e-06
8.79292e-06
8.84944e-06
8.90931e-06
8.97259e-06
9.03956e-06
9.11049e-06
9.18568e-06
9.26542e-06
9.35006e-06
9.44e-06
9.53568e-06
9.63763e-06
9.74647e-06
9.86293e-06
9.98788e-06
1.01223e-05
1.02675e-05
1.04248e-05
1.05958e-05
1.07822e-05
1.09861e-05
1.12098e-05
1.1456e-05
1.17275e-05
1.20276e-05
1.236e-05
1.27287e-05
1.3138e-05
1.35929e-05
1.40974e-05
1.46558e-05
1.52731e-05
1.59547e-05
1.67061e-05
1.7534e-05
1.84453e-05
1.94482e-05
2.05508e-05
2.17627e-05
2.30917e-05
2.45475e-05
2.61343e-05
2.78595e-05
2.97184e-05
3.1711e-05
3.38224e-05
3.60303e-05
3.83291e-05
4.0643e-05
4.2997e-05
4.53374e-05
4.73897e-05
8.93931e-06
8.97312e-06
9.0081e-06
9.04442e-06
9.08214e-06
9.12133e-06
9.16209e-06
9.2045e-06
9.24864e-06
9.29459e-06
9.34248e-06
9.39242e-06
9.44458e-06
9.49911e-06
9.55623e-06
9.61617e-06
9.67914e-06
9.74557e-06
9.81549e-06
9.88924e-06
9.96713e-06
1.00495e-05
1.01368e-05
1.02294e-05
1.03277e-05
1.04323e-05
1.05436e-05
1.06623e-05
1.07892e-05
1.09251e-05
1.1071e-05
1.12279e-05
1.13974e-05
1.15808e-05
1.17801e-05
1.19973e-05
1.22345e-05
1.24945e-05
1.278e-05
1.30943e-05
1.34407e-05
1.3823e-05
1.42451e-05
1.47113e-05
1.5226e-05
1.57937e-05
1.642e-05
1.71078e-05
1.78619e-05
1.86876e-05
1.95906e-05
2.0577e-05
2.16535e-05
2.28274e-05
2.41055e-05
2.54953e-05
2.70015e-05
2.863e-05
3.03785e-05
3.2249e-05
3.42266e-05
3.63072e-05
3.84623e-05
4.0668e-05
4.29159e-05
4.51024e-05
4.73298e-05
4.93603e-05
5.13679e-05
9.95376e-06
9.99704e-06
1.00417e-05
1.0088e-05
1.0136e-05
1.01857e-05
1.02374e-05
1.02912e-05
1.03471e-05
1.04054e-05
1.04661e-05
1.05295e-05
1.05958e-05
1.06651e-05
1.07378e-05
1.08141e-05
1.08942e-05
1.09784e-05
1.10671e-05
1.11606e-05
1.12595e-05
1.13642e-05
1.14752e-05
1.15931e-05
1.17185e-05
1.18522e-05
1.19949e-05
1.21476e-05
1.23112e-05
1.24869e-05
1.2676e-05
1.28799e-05
1.31005e-05
1.33398e-05
1.35997e-05
1.38828e-05
1.41918e-05
1.45295e-05
1.48992e-05
1.53043e-05
1.57482e-05
1.62349e-05
1.67683e-05
1.73523e-05
1.79912e-05
1.86894e-05
1.94514e-05
2.02821e-05
2.11861e-05
2.21661e-05
2.32285e-05
2.43784e-05
2.56216e-05
2.69638e-05
2.84092e-05
2.99619e-05
3.16218e-05
3.33893e-05
3.52542e-05
3.72133e-05
3.92421e-05
4.1335e-05
4.34498e-05
4.55677e-05
4.76775e-05
4.96541e-05
5.16754e-05
5.33775e-05
5.50551e-05
1.12727e-05
1.13296e-05
1.13884e-05
1.14492e-05
1.15122e-05
1.15775e-05
1.16452e-05
1.17157e-05
1.1789e-05
1.18655e-05
1.19452e-05
1.20285e-05
1.21158e-05
1.2207e-05
1.23026e-05
1.24028e-05
1.25082e-05
1.2619e-05
1.2736e-05
1.28595e-05
1.29902e-05
1.31287e-05
1.32758e-05
1.34323e-05
1.35991e-05
1.3777e-05
1.39672e-05
1.41708e-05
1.43892e-05
1.46237e-05
1.48761e-05
1.5148e-05
1.54415e-05
1.57587e-05
1.61021e-05
1.64741e-05
1.68774e-05
1.73151e-05
1.77901e-05
1.83058e-05
1.88654e-05
1.94725e-05
2.01308e-05
2.08438e-05
2.16157e-05
2.24505e-05
2.33524e-05
2.43261e-05
2.53763e-05
2.65078e-05
2.77245e-05
2.90279e-05
3.0423e-05
3.19116e-05
3.34947e-05
3.51707e-05
3.69349e-05
3.87804e-05
4.06906e-05
4.26586e-05
4.46525e-05
4.66676e-05
4.86488e-05
5.05883e-05
5.24757e-05
5.41568e-05
5.59258e-05
5.71656e-05
5.74364e-05
1.30327e-05
1.31105e-05
1.3191e-05
1.32742e-05
1.33606e-05
1.34501e-05
1.35431e-05
1.364e-05
1.37409e-05
1.38461e-05
1.39558e-05
1.40703e-05
1.419e-05
1.43154e-05
1.44468e-05
1.45849e-05
1.47301e-05
1.4883e-05
1.50443e-05
1.52147e-05
1.5395e-05
1.5586e-05
1.57886e-05
1.60039e-05
1.62327e-05
1.64764e-05
1.67361e-05
1.70131e-05
1.73089e-05
1.7625e-05
1.79631e-05
1.8325e-05
1.87126e-05
1.91281e-05
1.95736e-05
2.00514e-05
2.0564e-05
2.1114e-05
2.17042e-05
2.23375e-05
2.3017e-05
2.37459e-05
2.45277e-05
2.53658e-05
2.62641e-05
2.72264e-05
2.82567e-05
2.93591e-05
3.05374e-05
3.17949e-05
3.31347e-05
3.45582e-05
3.60674e-05
3.76547e-05
3.93189e-05
4.10517e-05
4.2846e-05
4.46848e-05
4.65501e-05
4.84326e-05
5.02982e-05
5.21401e-05
5.38936e-05
5.55665e-05
5.71545e-05
5.84635e-05
5.92631e-05
5.89105e-05
5.80681e-05
1.54704e-05
1.55828e-05
1.56991e-05
1.58197e-05
1.59448e-05
1.60745e-05
1.62091e-05
1.6349e-05
1.64946e-05
1.66462e-05
1.68043e-05
1.69694e-05
1.71418e-05
1.73222e-05
1.75111e-05
1.7709e-05
1.79167e-05
1.81348e-05
1.8364e-05
1.8605e-05
1.88589e-05
1.91262e-05
1.94081e-05
1.97054e-05
2.00191e-05
2.03503e-05
2.07002e-05
2.10698e-05
2.14605e-05
2.18736e-05
2.23105e-05
2.27728e-05
2.32622e-05
2.37804e-05
2.43293e-05
2.4911e-05
2.55276e-05
2.61816e-05
2.68757e-05
2.76125e-05
2.83952e-05
2.92268e-05
3.01107e-05
3.10503e-05
3.20491e-05
3.31105e-05
3.42376e-05
3.54331e-05
3.66992e-05
3.80368e-05
3.94465e-05
4.09267e-05
4.24747e-05
4.40854e-05
4.57518e-05
4.74541e-05
4.91887e-05
5.09184e-05
5.26433e-05
5.43403e-05
5.59933e-05
5.75625e-05
5.90063e-05
6.03248e-05
6.11828e-05
6.10973e-05
6.03958e-05
5.91025e-05
5.69534e-05
1.90219e-05
1.91929e-05
1.93695e-05
1.95522e-05
1.97412e-05
1.99368e-05
2.01394e-05
2.03493e-05
2.0567e-05
2.07927e-05
2.10269e-05
2.127e-05
2.15224e-05
2.17848e-05
2.20574e-05
2.23409e-05
2.26357e-05
2.29424e-05
2.32615e-05
2.35936e-05
2.39393e-05
2.42991e-05
2.46737e-05
2.50638e-05
2.547e-05
2.58932e-05
2.63342e-05
2.67937e-05
2.72729e-05
2.77728e-05
2.82945e-05
2.88396e-05
2.94094e-05
3.00056e-05
3.06302e-05
3.12852e-05
3.19729e-05
3.26959e-05
3.34568e-05
3.42586e-05
3.51042e-05
3.59967e-05
3.69392e-05
3.79348e-05
3.8986e-05
4.00952e-05
4.12638e-05
4.24927e-05
4.37815e-05
4.51283e-05
4.65315e-05
4.79859e-05
4.94853e-05
5.10236e-05
5.25913e-05
5.4164e-05
5.5744e-05
5.72488e-05
5.87532e-05
6.01598e-05
6.15565e-05
6.2729e-05
6.35559e-05
6.34845e-05
6.28074e-05
6.17559e-05
5.96314e-05
5.71771e-05
5.32162e-05
2.44924e-05
2.47553e-05
2.5025e-05
2.53018e-05
2.55859e-05
2.58772e-05
2.61761e-05
2.64826e-05
2.67971e-05
2.71195e-05
2.74501e-05
2.77891e-05
2.81367e-05
2.84931e-05
2.88584e-05
2.92329e-05
2.96167e-05
3.001e-05
3.0413e-05
3.0826e-05
3.12492e-05
3.16828e-05
3.21274e-05
3.25832e-05
3.30508e-05
3.35309e-05
3.40241e-05
3.45313e-05
3.50534e-05
3.55916e-05
3.61473e-05
3.67221e-05
3.73176e-05
3.79358e-05
3.85791e-05
3.92496e-05
3.99499e-05
4.06828e-05
4.14512e-05
4.22577e-05
4.31053e-05
4.39967e-05
4.49343e-05
4.592e-05
4.69553e-05
4.80403e-05
4.91748e-05
5.03569e-05
5.15836e-05
5.285e-05
5.41555e-05
5.54877e-05
5.68397e-05
5.82124e-05
5.95728e-05
6.09245e-05
6.22577e-05
6.34083e-05
6.4665e-05
6.56504e-05
6.64391e-05
6.62071e-05
6.54697e-05
6.4277e-05
6.24931e-05
6.03422e-05
5.64811e-05
5.25602e-05
4.62e-05
3.30902e-05
3.3456e-05
3.38259e-05
3.42003e-05
3.45788e-05
3.49611e-05
3.53473e-05
3.57372e-05
3.61307e-05
3.65279e-05
3.69286e-05
3.73329e-05
3.77408e-05
3.81522e-05
3.85671e-05
3.89853e-05
3.94068e-05
3.98317e-05
4.02599e-05
4.06916e-05
4.1127e-05
4.15666e-05
4.20107e-05
4.24599e-05
4.29149e-05
4.33766e-05
4.38459e-05
4.43239e-05
4.4812e-05
4.53118e-05
4.5825e-05
4.63535e-05
4.68996e-05
4.74655e-05
4.80538e-05
4.86667e-05
4.93068e-05
4.99771e-05
5.06805e-05
5.14186e-05
5.21946e-05
5.30101e-05
5.38662e-05
5.47631e-05
5.57006e-05
5.66755e-05
5.76874e-05
5.87301e-05
5.97983e-05
6.08872e-05
6.20018e-05
6.31068e-05
6.42171e-05
6.53423e-05
6.63706e-05
6.74733e-05
6.84405e-05
6.91164e-05
6.93649e-05
6.89833e-05
6.81127e-05
6.68251e-05
6.53419e-05
6.28695e-05
5.97643e-05
5.55575e-05
5.06957e-05
4.40238e-05
4.10201e-05
4.56857e-05
4.60947e-05
4.65043e-05
4.69138e-05
4.73189e-05
4.77201e-05
4.81179e-05
4.85126e-05
4.89045e-05
4.92937e-05
4.96803e-05
5.00644e-05
5.04456e-05
5.08236e-05
5.11979e-05
5.15682e-05
5.19344e-05
5.22969e-05
5.2656e-05
5.30121e-05
5.33661e-05
5.37185e-05
5.40702e-05
5.44223e-05
5.47757e-05
5.51316e-05
5.54914e-05
5.58565e-05
5.62285e-05
5.66095e-05
5.70016e-05
5.74069e-05
5.78279e-05
5.82669e-05
5.87261e-05
5.92071e-05
5.97109e-05
6.02429e-05
6.08065e-05
6.13978e-05
6.20266e-05
6.26874e-05
6.33796e-05
6.41011e-05
6.4852e-05
6.56217e-05
6.64197e-05
6.72239e-05
6.80339e-05
6.88579e-05
6.96978e-05
7.04511e-05
7.12722e-05
7.20665e-05
7.26257e-05
7.29872e-05
7.27346e-05
7.20266e-05
7.08667e-05
6.95339e-05
6.77464e-05
6.54472e-05
6.22938e-05
5.81151e-05
5.36954e-05
4.81288e-05
4.15396e-05
4.09562e-05
3.94617e-05
6.19972e-05
6.23162e-05
6.26332e-05
6.2948e-05
6.32594e-05
6.35668e-05
6.38698e-05
6.41682e-05
6.44617e-05
6.47501e-05
6.50335e-05
6.53107e-05
6.55759e-05
6.58297e-05
6.60708e-05
6.62987e-05
6.65159e-05
6.67238e-05
6.69243e-05
6.71184e-05
6.73074e-05
6.74925e-05
6.76746e-05
6.78549e-05
6.80341e-05
6.82137e-05
6.83949e-05
6.85795e-05
6.87693e-05
6.89664e-05
6.91729e-05
6.9391e-05
6.96231e-05
6.98709e-05
7.01355e-05
7.04138e-05
7.06993e-05
7.10192e-05
7.13716e-05
7.17331e-05
7.21574e-05
7.25789e-05
7.30166e-05
7.34686e-05
7.39407e-05
7.43991e-05
7.49154e-05
7.53676e-05
7.58417e-05
7.63641e-05
7.68212e-05
7.70541e-05
7.71568e-05
7.68452e-05
7.61417e-05
7.49939e-05
7.37282e-05
7.22279e-05
7.02691e-05
6.7696e-05
6.43699e-05
6.05154e-05
5.54749e-05
5.05579e-05
4.53119e-05
3.89339e-05
3.52816e-05
3.95241e-05
4.37721e-05
8.08888e-05
8.1016e-05
8.11389e-05
8.12576e-05
8.13711e-05
8.14793e-05
8.15821e-05
8.16793e-05
8.17707e-05
8.18561e-05
8.19359e-05
8.20086e-05
8.20763e-05
8.21312e-05
8.21579e-05
8.21546e-05
8.21518e-05
8.21432e-05
8.21332e-05
8.21172e-05
8.20986e-05
8.20761e-05
8.20492e-05
8.20172e-05
8.19805e-05
8.19406e-05
8.18994e-05
8.18587e-05
8.18205e-05
8.17867e-05
8.17595e-05
8.17408e-05
8.17324e-05
8.17346e-05
8.17507e-05
8.17524e-05
8.16724e-05
8.17111e-05
8.17904e-05
8.18223e-05
8.21084e-05
8.21086e-05
8.2184e-05
8.22735e-05
8.23878e-05
8.24147e-05
8.27131e-05
8.25946e-05
8.25187e-05
8.221e-05
8.15644e-05
8.05682e-05
7.93669e-05
7.80593e-05
7.65778e-05
7.47378e-05
7.24704e-05
6.95116e-05
6.60768e-05
6.16645e-05
5.70827e-05
5.17826e-05
4.65185e-05
4.19272e-05
3.5824e-05
3.20361e-05
3.5622e-05
3.86346e-05
4.8194e-05
0.00010073
0.000100617
0.000100495
0.000100367
0.000100231
0.000100088
9.99389e-05
9.97853e-05
9.96257e-05
9.94575e-05
9.92937e-05
9.91e-05
9.89506e-05
9.87061e-05
9.85489e-05
9.8267e-05
9.80862e-05
9.77794e-05
9.75639e-05
9.72543e-05
9.69938e-05
9.67038e-05
9.63974e-05
9.60652e-05
9.57142e-05
9.5356e-05
9.49942e-05
9.46301e-05
9.42654e-05
9.39018e-05
9.35411e-05
9.31844e-05
9.28356e-05
9.24799e-05
9.22315e-05
9.19131e-05
9.15403e-05
9.13372e-05
9.11015e-05
9.07437e-05
9.05575e-05
9.02476e-05
9.0042e-05
8.96874e-05
8.91088e-05
8.83712e-05
8.7518e-05
8.64999e-05
8.52766e-05
8.39925e-05
8.25755e-05
8.09524e-05
7.9056e-05
7.67197e-05
7.39359e-05
7.051e-05
6.6558e-05
6.19818e-05
5.70847e-05
5.18168e-05
4.70049e-05
4.17593e-05
3.7776e-05
3.1877e-05
2.92021e-05
3.08329e-05
3.21978e-05
3.99558e-05
4.36243e-05
0.000120046
0.000119684
0.000119313
0.000118932
0.000118542
0.000118142
0.000117731
0.000117311
0.000116881
0.00011644
0.00011599
0.000115528
0.000115059
0.000114571
0.000114079
0.000113562
0.000113032
0.000112474
0.000111906
0.000111316
0.000110714
0.000110098
0.000109469
0.000108825
0.000108168
0.000107497
0.000106815
0.000106126
0.000105431
0.000104735
0.000104036
0.000103338
0.00010264
0.000101939
0.000101247
0.000100546
9.98129e-05
9.90642e-05
9.82732e-05
9.74032e-05
9.64694e-05
9.54362e-05
9.43061e-05
9.30372e-05
9.17085e-05
9.0292e-05
8.87451e-05
8.7051e-05
8.51497e-05
8.29621e-05
8.03742e-05
7.73767e-05
7.38616e-05
6.98427e-05
6.53565e-05
6.04145e-05
5.53542e-05
5.02384e-05
4.51799e-05
4.07891e-05
3.56981e-05
3.23964e-05
2.73633e-05
2.39293e-05
2.61577e-05
2.77493e-05
3.31819e-05
3.49152e-05
3.52868e-05
0.000135999
0.000135437
0.000134858
0.000134263
0.000133654
0.000133028
0.000132388
0.000131733
0.000131062
0.000130377
0.000129674
0.000128948
0.000128201
0.000127433
0.000126647
0.000125842
0.000125018
0.000124175
0.000123314
0.000122434
0.000121536
0.00012062
0.000119687
0.000118737
0.000117769
0.000116785
0.000115783
0.000114765
0.000113727
0.000112665
0.000111576
0.000110456
0.0001093
0.000108101
0.000106851
0.000105557
0.000104225
0.000102844
0.000101408
9.98985e-05
9.83038e-05
9.6604e-05
9.4782e-05
9.28258e-05
9.06567e-05
8.82604e-05
8.55405e-05
8.25309e-05
7.9066e-05
7.52422e-05
7.09476e-05
6.62921e-05
6.13279e-05
5.62827e-05
5.11406e-05
4.6168e-05
4.15012e-05
3.65551e-05
3.26993e-05
2.81626e-05
2.52575e-05
2.02553e-05
1.75045e-05
1.9111e-05
2.27366e-05
2.44126e-05
2.6618e-05
2.63391e-05
2.43696e-05
0.000145241
0.000144515
0.000143766
0.000142997
0.000142207
0.000141397
0.000140566
0.000139714
0.000138841
0.000137947
0.000137032
0.000136095
0.000135135
0.000134153
0.000133147
0.000132119
0.000131066
0.00012999
0.000128891
0.000127767
0.000126618
0.000125445
0.000124246
0.000123021
0.000121769
0.000120492
0.000119177
0.000117819
0.000116416
0.000114968
0.000113472
0.000111924
0.000110318
0.000108644
0.000106896
0.000105052
0.000103095
0.000101003
9.87625e-05
9.63346e-05
9.37201e-05
9.08673e-05
8.7808e-05
8.44638e-05
8.08487e-05
7.69167e-05
7.26522e-05
6.8146e-05
6.33374e-05
5.84443e-05
5.35526e-05
4.85305e-05
4.40067e-05
3.9176e-05
3.46292e-05
3.02402e-05
2.59892e-05
2.16237e-05
1.83799e-05
1.31363e-05
1.06605e-05
1.23209e-05
1.31933e-05
1.43569e-05
1.7215e-05
1.9108e-05
1.9917e-05
1.97601e-05
1.76453e-05
0.000139979
0.000139218
0.000138426
0.000137605
0.000136757
0.000135883
0.000134982
0.000134055
0.000133103
0.000132124
0.000131119
0.000130088
0.000129031
0.000127945
0.000126832
0.000125689
0.000124517
0.000123314
0.000122079
0.000120811
0.000119509
0.000118172
0.000116802
0.000115394
0.000113958
0.000112444
0.000110855
0.000109178
0.000107402
0.000105523
0.000103529
0.000101406
9.91347e-05
9.66984e-05
9.40791e-05
9.12565e-05
8.82256e-05
8.49586e-05
8.1492e-05
7.77739e-05
7.4037e-05
7.02124e-05
6.66107e-05
6.27555e-05
5.88366e-05
5.47208e-05
5.05464e-05
4.63482e-05
4.19749e-05
3.79145e-05
3.34879e-05
2.92733e-05
2.42295e-05
1.98042e-05
1.58286e-05
1.16853e-05
7.33409e-06
5.21158e-06
5.04612e-06
5.34041e-06
5.90452e-06
7.38361e-06
9.60159e-06
1.19987e-05
1.43555e-05
1.62781e-05
1.7547e-05
1.77234e-05
1.60441e-05
0.000109027
0.000108205
0.000107358
0.000106488
0.000105595
0.000104678
0.000103735
0.000102768
0.000101774
0.000100756
9.97093e-05
9.86383e-05
9.75373e-05
9.64113e-05
9.52549e-05
9.4071e-05
9.28566e-05
9.16129e-05
9.03362e-05
8.90309e-05
8.76846e-05
8.63157e-05
8.48988e-05
8.34478e-05
8.1927e-05
8.03894e-05
7.88261e-05
7.72468e-05
7.56459e-05
7.40255e-05
7.23742e-05
7.07059e-05
6.90036e-05
6.72841e-05
6.55299e-05
6.37537e-05
6.19411e-05
6.00966e-05
5.81852e-05
5.62326e-05
5.39902e-05
5.14848e-05
4.82892e-05
4.4898e-05
4.10081e-05
3.67751e-05
3.2036e-05
2.70168e-05
2.19412e-05
1.69584e-05
1.18159e-05
7.48629e-06
4.58844e-06
3.08079e-06
2.11834e-06
1.50563e-06
1.24132e-06
1.18058e-06
1.21531e-06
1.59196e-06
2.37304e-06
3.7202e-06
5.63396e-06
7.83891e-06
1.0204e-05
1.23748e-05
1.38966e-05
1.43997e-05
1.36274e-05
6.48509e-05
6.55565e-05
6.62396e-05
6.69477e-05
6.76254e-05
6.8334e-05
6.90023e-05
6.97108e-05
7.03587e-05
7.10653e-05
7.16766e-05
7.23779e-05
7.29415e-05
7.3619e-05
7.41438e-05
7.47704e-05
7.52404e-05
7.58338e-05
7.62352e-05
7.67631e-05
7.70666e-05
7.74701e-05
7.76846e-05
7.78382e-05
7.78198e-05
7.76913e-05
7.74158e-05
7.70145e-05
7.65068e-05
7.58964e-05
7.51488e-05
7.42197e-05
7.30629e-05
7.16379e-05
6.99032e-05
6.78177e-05
6.53324e-05
6.23958e-05
5.89418e-05
5.49019e-05
5.01932e-05
4.47475e-05
3.84623e-05
3.13708e-05
2.33706e-05
1.52804e-05
7.99932e-06
3.0012e-06
1.25588e-06
1.20514e-06
1.24853e-06
1.15277e-06
9.90799e-07
8.05426e-07
5.61991e-07
4.3736e-07
3.85058e-07
3.60952e-07
3.56807e-07
4.09753e-07
5.14949e-07
6.65193e-07
8.65054e-07
1.15988e-06
1.55086e-06
2.04523e-06
2.48224e-06
2.81252e-06
3.01988e-06
4.92435e-06
4.92585e-06
4.92663e-06
4.92809e-06
4.92916e-06
4.93018e-06
4.93101e-06
4.93057e-06
4.92919e-06
4.92808e-06
4.92757e-06
4.93347e-06
4.94285e-06
4.94915e-06
4.95206e-06
4.9478e-06
4.95576e-06
4.96032e-06
4.96391e-06
4.96369e-06
4.97017e-06
4.97859e-06
4.98025e-06
4.98312e-06
4.98514e-06
4.98457e-06
4.99299e-06
4.99921e-06
5.00842e-06
5.01147e-06
5.01187e-06
5.02226e-06
5.03263e-06
5.03667e-06
5.04272e-06
5.04369e-06
5.0528e-06
5.05761e-06
5.05983e-06
5.07469e-06
5.07166e-06
5.07555e-06
5.07357e-06
5.07566e-06
5.08622e-06
5.08768e-06
5.08801e-06
5.08943e-06
5.0926e-06
5.09391e-06
5.09564e-06
5.10148e-06
5.10523e-06
5.10844e-06
5.11371e-06
5.11729e-06
5.12072e-06
5.12277e-06
5.12529e-06
5.01304e-06
5.01302e-06
5.01329e-06
5.01376e-06
5.01432e-06
5.01369e-06
5.01241e-06
5.01123e-06
5.01136e-06
5.01346e-06
5.01743e-06
5.02304e-06
5.02701e-06
5.02921e-06
5.02894e-06
5.03154e-06
5.03863e-06
5.04179e-06
5.0434e-06
5.04652e-06
5.05443e-06
5.0597e-06
5.06179e-06
5.06601e-06
5.06687e-06
5.06768e-06
5.07706e-06
5.08522e-06
5.0918e-06
5.09575e-06
5.09977e-06
5.10899e-06
5.11935e-06
5.12418e-06
5.13317e-06
5.13566e-06
5.14334e-06
5.15081e-06
5.15366e-06
5.16772e-06
5.17089e-06
5.17485e-06
5.17807e-06
5.17799e-06
5.18386e-06
5.19055e-06
5.19334e-06
5.19572e-06
5.19947e-06
5.2028e-06
5.20532e-06
5.20901e-06
5.21297e-06
5.21503e-06
5.21916e-06
5.22302e-06
5.22711e-06
5.23302e-06
5.23784e-06
5.11845e-06
5.11743e-06
5.11614e-06
5.11497e-06
5.11363e-06
5.11239e-06
5.11162e-06
5.11201e-06
5.11392e-06
5.11683e-06
5.1197e-06
5.12228e-06
5.12394e-06
5.12487e-06
5.12669e-06
5.13178e-06
5.13603e-06
5.1377e-06
5.13996e-06
5.14722e-06
5.154e-06
5.15747e-06
5.16034e-06
5.16476e-06
5.1654e-06
5.16823e-06
5.17809e-06
5.18774e-06
5.1929e-06
5.19788e-06
5.20483e-06
5.21349e-06
5.22396e-06
5.23013e-06
5.24081e-06
5.24563e-06
5.25273e-06
5.26171e-06
5.26554e-06
5.27915e-06
5.28719e-06
5.29267e-06
5.29826e-06
5.30157e-06
5.30491e-06
5.31196e-06
5.31787e-06
5.32223e-06
5.32676e-06
5.33141e-06
5.33584e-06
5.33988e-06
5.34446e-06
5.3478e-06
5.35145e-06
5.35532e-06
5.35942e-06
5.36408e-06
5.3691e-06
5.23929e-06
5.23741e-06
5.23545e-06
5.23372e-06
5.23226e-06
5.23137e-06
5.23123e-06
5.23167e-06
5.2334e-06
5.23543e-06
5.23725e-06
5.23862e-06
5.23967e-06
5.2412e-06
5.24433e-06
5.24813e-06
5.25051e-06
5.25266e-06
5.25852e-06
5.26602e-06
5.27191e-06
5.2746e-06
5.27812e-06
5.28229e-06
5.28334e-06
5.28821e-06
5.29866e-06
5.30929e-06
5.31411e-06
5.32022e-06
5.32943e-06
5.33815e-06
5.34915e-06
5.35689e-06
5.36901e-06
5.37644e-06
5.384e-06
5.39412e-06
5.39923e-06
5.41222e-06
5.42383e-06
5.4319e-06
5.4395e-06
5.44646e-06
5.45118e-06
5.45787e-06
5.46538e-06
5.47198e-06
5.47809e-06
5.48408e-06
5.4901e-06
5.49564e-06
5.50121e-06
5.50627e-06
5.51106e-06
5.51573e-06
5.52038e-06
5.5248e-06
5.52975e-06
5.38257e-06
5.38047e-06
5.37847e-06
5.37678e-06
5.3755e-06
5.37475e-06
5.37448e-06
5.37466e-06
5.37489e-06
5.37563e-06
5.37627e-06
5.37689e-06
5.37797e-06
5.37992e-06
5.38281e-06
5.38571e-06
5.38807e-06
5.39279e-06
5.39963e-06
5.40636e-06
5.41164e-06
5.4144e-06
5.41838e-06
5.4223e-06
5.42415e-06
5.43127e-06
5.4423e-06
5.45371e-06
5.459e-06
5.46635e-06
5.47749e-06
5.48687e-06
5.49871e-06
5.50813e-06
5.52169e-06
5.53195e-06
5.54089e-06
5.55244e-06
5.55935e-06
5.57188e-06
5.586e-06
5.59723e-06
5.60698e-06
5.61677e-06
5.62461e-06
5.63259e-06
5.64139e-06
5.64997e-06
5.65809e-06
5.6659e-06
5.6736e-06
5.68095e-06
5.68806e-06
5.69483e-06
5.70128e-06
5.70735e-06
5.71323e-06
5.71858e-06
5.72435e-06
5.55453e-06
5.55224e-06
5.55007e-06
5.54814e-06
5.54651e-06
5.5452e-06
5.54413e-06
5.54324e-06
5.54247e-06
5.54193e-06
5.54173e-06
5.54209e-06
5.54328e-06
5.54537e-06
5.54806e-06
5.55093e-06
5.55472e-06
5.56057e-06
5.56722e-06
5.57367e-06
5.57844e-06
5.58165e-06
5.58597e-06
5.58993e-06
5.59319e-06
5.6022e-06
5.61406e-06
5.62628e-06
5.63267e-06
5.64144e-06
5.65443e-06
5.66505e-06
5.67798e-06
5.68924e-06
5.70434e-06
5.71758e-06
5.72871e-06
5.74215e-06
5.75159e-06
5.76426e-06
5.78004e-06
5.79458e-06
5.80719e-06
5.81953e-06
5.83062e-06
5.84115e-06
5.85193e-06
5.86264e-06
5.87304e-06
5.88307e-06
5.89285e-06
5.90228e-06
5.91136e-06
5.92006e-06
5.92842e-06
5.9363e-06
5.94389e-06
5.95083e-06
5.95818e-06
5.75974e-06
5.75689e-06
5.75415e-06
5.75149e-06
5.74903e-06
5.74676e-06
5.74467e-06
5.74281e-06
5.74126e-06
5.74023e-06
5.73999e-06
5.74052e-06
5.74186e-06
5.74406e-06
5.74689e-06
5.75038e-06
5.75505e-06
5.76126e-06
5.768e-06
5.77413e-06
5.77873e-06
5.78251e-06
5.7872e-06
5.79165e-06
5.79671e-06
5.80743e-06
5.82037e-06
5.83358e-06
5.84161e-06
5.85209e-06
5.867e-06
5.87938e-06
5.89378e-06
5.90713e-06
5.92398e-06
5.94034e-06
5.95438e-06
5.97023e-06
5.98295e-06
5.99681e-06
6.01386e-06
6.03142e-06
6.04758e-06
6.06295e-06
6.07735e-06
6.09105e-06
6.10457e-06
6.11793e-06
6.13099e-06
6.14366e-06
6.15597e-06
6.16785e-06
6.17931e-06
6.19029e-06
6.20086e-06
6.21087e-06
6.22055e-06
6.22949e-06
6.23892e-06
6.00421e-06
6.00055e-06
5.99706e-06
5.99356e-06
5.99025e-06
5.98718e-06
5.98442e-06
5.98207e-06
5.98028e-06
5.97926e-06
5.97923e-06
5.97991e-06
5.98136e-06
5.98378e-06
5.98702e-06
5.99121e-06
5.99661e-06
6.0031e-06
6.00974e-06
6.01561e-06
6.02034e-06
6.0248e-06
6.03005e-06
6.03552e-06
6.04255e-06
6.05506e-06
6.06936e-06
6.08386e-06
6.09404e-06
6.1066e-06
6.12362e-06
6.13833e-06