/*--------------------------------*- C++ -*----------------------------------*\
| =========                 |                                                 |
| \\      /  F ield         | OpenFOAM: The Open Source CFD Toolbox           |
|  \\    /   O peration     | Version:  2312                                  |
|   \\  /    A nd           | Website:  www.openfoam.com                      |
|    \\/     M anipulation  |                                                 |
\*---------------------------------------------------------------------------*/
FoamFile
{
    version     2.0;
    format      ascii;
    arch        "LSB;label=32;scalar=64";
    class       volScalarField;
    location    "1700";
    object      nut;
}
// * * * * * * * * * * * * * * * * * * * * * * * * * * * * * * * * * * * * * //

dimensions      [0 2 -1 0 0 0 0];

internalField   nonuniform List<scalar> 
76025
(
0.0001726
0.000172684
0.000172775
0.000172866
0.000172899
0.000173025
0.000173086
0.000173226
0.000173353
0.000173482
0.000173619
0.00017379
0.000174169
0.000174202
0.000174106
0.00017413
0.000174305
0.000174538
0.000174681
0.000174833
0.000175035
0.000175146
0.000175297
0.000175362
0.000175739
0.000175893
0.00017635
0.000176708
0.00017709
0.0001774
0.000177745
0.000178122
0.000178574
0.000179047
0.000179582
0.000180142
0.000180786
0.000181515
0.000182293
0.000183131
0.00018402
0.000185069
0.00018624
0.00018749
0.000188832
0.000190299
0.000191883
0.000193579
0.000195406
0.000197325
0.000199413
0.000201688
0.000204173
0.000206652
0.000209749
0.000212754
0.000216289
0.000220201
0.000224818
0.000230034
0.000236045
0.000242792
0.000250872
0.000260425
0.000271635
0.000284314
0.000298831
0.000316984
0.000334203
0.00017457
0.000174684
0.000174774
0.000174872
0.000174957
0.000175064
0.00017518
0.000175334
0.00017545
0.000175627
0.000175785
0.000175887
0.000176128
0.000176247
0.000176672
0.000177045
0.000177306
0.000177207
0.000177242
0.00017734
0.000177513
0.000177679
0.000177882
0.000177974
0.000178186
0.000178487
0.000178888
0.000179316
0.000179766
0.000180231
0.000180711
0.000181202
0.000181747
0.00018232
0.000182939
0.000183601
0.00018431
0.00018509
0.000185928
0.000186847
0.000187864
0.000188981
0.000190204
0.000191517
0.00019294
0.000194474
0.00019612
0.000197882
0.000199782
0.000201852
0.00020409
0.000206561
0.000209249
0.000212255
0.000215556
0.000219275
0.000223437
0.000228098
0.000233383
0.000239327
0.000246172
0.000253918
0.000262983
0.000273248
0.000285552
0.00029949
0.000316199
0.000334621
0.000355215
0.000176654
0.000176819
0.000176978
0.000177138
0.000177279
0.000177401
0.000177478
0.000177588
0.000177741
0.000177964
0.000178178
0.000178427
0.000178605
0.000179041
0.000179448
0.00017975
0.000179926
0.000180006
0.000180087
0.000180182
0.000180311
0.000180468
0.000180678
0.000180906
0.000181202
0.000181569
0.000182009
0.000182495
0.000183019
0.000183567
0.000184141
0.000184733
0.000185359
0.00018602
0.000186721
0.000187468
0.000188267
0.000189133
0.000190073
0.000191097
0.000192216
0.000193437
0.00019476
0.000196187
0.000197721
0.000199375
0.000201159
0.000203088
0.000205187
0.00020748
0.000209995
0.000212763
0.000215825
0.000219206
0.000222963
0.000227139
0.000231802
0.000237004
0.000242895
0.000249538
0.000257205
0.000265924
0.000276125
0.000287794
0.000301467
0.000316901
0.000334616
0.000353929
0.000374929
0.00017928
0.000179434
0.000179597
0.000179771
0.000179946
0.000180108
0.000180251
0.000180395
0.00018056
0.000180775
0.000180996
0.000181274
0.000181516
0.00018188
0.000182296
0.000182692
0.000183024
0.000183254
0.000183444
0.000183664
0.00018393
0.00018422
0.000184522
0.000184824
0.000185144
0.000185496
0.000185895
0.000186345
0.000186848
0.000187404
0.000188008
0.000188655
0.000189345
0.00019008
0.000190865
0.000191707
0.000192615
0.000193599
0.000194668
0.000195827
0.000197083
0.000198442
0.000199906
0.000201484
0.000203181
0.000205014
0.000206995
0.00020915
0.000211497
0.000214072
0.000216897
0.00022002
0.000223467
0.000227289
0.000231524
0.000236233
0.000241484
0.000247364
0.000254018
0.000261566
0.000270253
0.000280171
0.000291668
0.000304695
0.0003197
0.000336246
0.000354789
0.000374202
0.000394716
0.00018243
0.000182587
0.000182749
0.00018292
0.000183101
0.000183286
0.000183475
0.000183669
0.000183878
0.000184118
0.000184371
0.000184662
0.000184958
0.000185295
0.00018568
0.000186081
0.000186477
0.000186829
0.000187146
0.000187474
0.000187835
0.000188219
0.000188619
0.000189024
0.000189447
0.000189894
0.00019037
0.000190888
0.000191443
0.000192024
0.000192627
0.000193261
0.000193946
0.0001947
0.00019554
0.000196476
0.000197513
0.000198653
0.000199897
0.000201243
0.000202691
0.000204245
0.000205907
0.000207692
0.000209602
0.000211658
0.000213879
0.000216293
0.000218929
0.000221827
0.00022502
0.000228558
0.00023247
0.000236813
0.000241616
0.000246959
0.000252907
0.000259589
0.000267148
0.000275747
0.000285598
0.000296809
0.000309625
0.000323961
0.00034005
0.000357344
0.00037601
0.000394688
0.00041355
0.000186132
0.000186309
0.00018649
0.000186675
0.000186867
0.000187068
0.000187281
0.000187508
0.000187753
0.000188025
0.000188318
0.000188639
0.000188979
0.000189342
0.000189734
0.000190145
0.000190568
0.000190984
0.000191391
0.000191801
0.000192231
0.000192681
0.000193153
0.000193645
0.000194167
0.000194723
0.000195314
0.000195942
0.000196602
0.000197286
0.000197989
0.00019872
0.000199498
0.000200348
0.000201291
0.000202343
0.00020351
0.000204793
0.00020619
0.000207697
0.000209312
0.00021104
0.000212885
0.000214866
0.000216992
0.000219289
0.000221782
0.00022451
0.000227508
0.000230824
0.000234493
0.000238564
0.000243062
0.000248043
0.000253535
0.000259638
0.000266427
0.00027407
0.000282701
0.000292505
0.000303635
0.000316166
0.000330218
0.000345587
0.000362305
0.000379622
0.0003975
0.000414317
0.000430343
0.000190464
0.000190671
0.000190884
0.0001911
0.000191322
0.000191551
0.000191791
0.000192045
0.000192317
0.000192612
0.000192931
0.000193276
0.000193646
0.000194037
0.000194451
0.000194883
0.000195332
0.000195793
0.000196264
0.000196747
0.000197252
0.000197778
0.000198329
0.000198904
0.000199508
0.000200145
0.000200819
0.000201533
0.000202288
0.000203082
0.000203915
0.000204793
0.000205729
0.00020674
0.000207844
0.000209052
0.000210373
0.000211808
0.000213357
0.000215021
0.000216804
0.000218714
0.000220766
0.000222983
0.000225386
0.000228005
0.000230874
0.000234036
0.000237533
0.000241411
0.000245701
0.000250446
0.000255663
0.000261412
0.000267731
0.000274744
0.000282539
0.000291309
0.000301155
0.000312253
0.000324649
0.000338352
0.000353306
0.000369156
0.00038573
0.000402049
0.00041799
0.000431651
0.000443515
0.000195543
0.000195786
0.000196037
0.000196295
0.000196559
0.000196831
0.000197111
0.000197402
0.000197708
0.00019803
0.000198373
0.000198738
0.000199126
0.000199537
0.000199969
0.000200422
0.000200895
0.000201393
0.000201915
0.000202464
0.000203043
0.000203656
0.0002043
0.000204976
0.000205681
0.000206418
0.00020719
0.000208003
0.000208861
0.00020977
0.000210734
0.00021176
0.000212858
0.000214039
0.000215313
0.000216691
0.000218176
0.000219773
0.000221489
0.000223332
0.000225318
0.000227464
0.000229796
0.000232341
0.000235133
0.000238203
0.00024159
0.000245338
0.000249486
0.000254073
0.000259122
0.000264669
0.000270733
0.000277386
0.000284684
0.000292771
0.000301732
0.000311751
0.000322863
0.000335188
0.000348622
0.000363077
0.000378284
0.000393732
0.000409065
0.000423122
0.000435828
0.000444912
0.000451728
0.000201527
0.000201811
0.000202104
0.000202408
0.000202722
0.000203044
0.000203377
0.000203719
0.000204073
0.00020444
0.000204823
0.000205224
0.000205644
0.000206083
0.000206544
0.000207027
0.000207535
0.000208073
0.000208645
0.000209255
0.000209907
0.000210603
0.000211342
0.000212122
0.000212942
0.0002138
0.000214699
0.000215641
0.000216633
0.000217679
0.000218787
0.000219965
0.000221223
0.00022257
0.000224014
0.000225562
0.000227224
0.00022901
0.000230936
0.000233023
0.000235295
0.00023778
0.000240508
0.00024351
0.000246827
0.000250488
0.000254533
0.000259002
0.000263928
0.00026934
0.000275258
0.000281721
0.000288761
0.000296464
0.000304895
0.000314194
0.000324405
0.000335662
0.000347883
0.000361104
0.000375025
0.000389462
0.000403905
0.000417749
0.000430494
0.000440923
0.000449011
0.000452342
0.000453671
0.000208623
0.000208951
0.000209293
0.000209647
0.000210015
0.000210395
0.000210787
0.000211192
0.000211609
0.000212039
0.000212484
0.000212944
0.000213422
0.000213919
0.000214436
0.000214977
0.000215545
0.000216146
0.000216786
0.000217468
0.0002182
0.000218983
0.000219816
0.000220702
0.000221639
0.000222626
0.000223664
0.000224755
0.000225902
0.000227112
0.000228391
0.000229747
0.00023119
0.000232732
0.000234384
0.000236158
0.000238068
0.000240131
0.000242371
0.000244813
0.000247488
0.000250428
0.000253666
0.00025724
0.000261189
0.000265554
0.000270363
0.000275651
0.000281446
0.000287778
0.000294672
0.000302172
0.000310321
0.0003192
0.000328851
0.000339363
0.000350701
0.000362906
0.000375744
0.000389156
0.000402614
0.000415896
0.000428237
0.00043907
0.000447805
0.000453281
0.000455475
0.000452543
0.000447286
0.0002171
0.000217482
0.000217879
0.000218292
0.000218721
0.000219165
0.000219625
0.000220102
0.000220594
0.000221102
0.000221627
0.000222169
0.000222731
0.000223313
0.000223919
0.00022455
0.000225212
0.000225909
0.000226646
0.000227431
0.000228265
0.000229154
0.000230099
0.000231105
0.000232172
0.000233301
0.000234493
0.000235752
0.000237082
0.000238486
0.000239973
0.000241551
0.000243231
0.000245028
0.000246956
0.000249032
0.000251279
0.000253719
0.00025638
0.000259294
0.000262495
0.000266017
0.000269898
0.000274177
0.000278892
0.000284084
0.000289778
0.000296001
0.000302781
0.000310148
0.000318128
0.00032676
0.000336069
0.000346093
0.000356816
0.000368237
0.000380209
0.000392658
0.000405192
0.000417668
0.000429341
0.000440063
0.000448789
0.000455212
0.000458639
0.000458009
0.000453532
0.000444228
0.000430564
0.000227305
0.000227757
0.000228225
0.00022871
0.000229213
0.000229734
0.000230276
0.000230837
0.000231418
0.00023202
0.000232643
0.000233288
0.000233957
0.000234652
0.000235375
0.000236129
0.000236917
0.000237747
0.000238619
0.00023954
0.000240514
0.000241547
0.000242644
0.000243808
0.000245043
0.000246353
0.000247743
0.000249215
0.000250776
0.000252433
0.000254194
0.00025607
0.000258075
0.000260225
0.000262538
0.000265039
0.000267752
0.000270706
0.000273934
0.000277471
0.000281352
0.000285613
0.000290292
0.000295423
0.000301043
0.000307181
0.000313874
0.000321129
0.000328965
0.000337399
0.00034644
0.00035609
0.000366326
0.000377113
0.000388347
0.000399919
0.000411567
0.000423105
0.000434009
0.000444098
0.000452461
0.000459156
0.000462806
0.000463683
0.000460758
0.000453248
0.000442071
0.000425976
0.000403197
0.000239694
0.000240239
0.0002408
0.000241381
0.000241983
0.000242606
0.000243251
0.000243921
0.000244616
0.000245337
0.000246085
0.000246862
0.00024767
0.000248511
0.000249387
0.000250304
0.000251261
0.000252263
0.000253316
0.000254425
0.000255595
0.000256834
0.000258146
0.000259538
0.000261016
0.000262587
0.000264256
0.000266032
0.000267923
0.000269939
0.000272091
0.000274393
0.000276862
0.000279517
0.000282379
0.000285474
0.000288829
0.000292477
0.000296448
0.000300778
0.000305498
0.000310643
0.000316243
0.000322325
0.000328915
0.000336032
0.000343692
0.000351903
0.000360657
0.000369921
0.000379666
0.000389834
0.000400331
0.000411035
0.00042175
0.000432263
0.000442228
0.000451368
0.000459106
0.000465262
0.000468866
0.000470248
0.000467668
0.000462308
0.000452297
0.000437825
0.000420405
0.000396627
0.000368895
0.000254904
0.000255576
0.000256267
0.000256982
0.000257721
0.000258486
0.000259278
0.000260099
0.000260952
0.000261839
0.000262761
0.00026372
0.000264721
0.000265765
0.000266852
0.000267989
0.000269178
0.000270425
0.000271736
0.000273117
0.000274575
0.000276117
0.000277751
0.000279484
0.000281326
0.000283285
0.00028537
0.000287593
0.000289964
0.000292497
0.000295205
0.000298104
0.000301212
0.00030455
0.000308137
0.000311999
0.00031616
0.000320648
0.000325487
0.000330706
0.000336329
0.000342377
0.000348869
0.000355817
0.000363229
0.000371103
0.000379426
0.000388173
0.000397301
0.000406746
0.000416407
0.00042614
0.000435787
0.000445141
0.00045394
0.000461894
0.000468635
0.000473831
0.000476948
0.000477815
0.000475574
0.00047071
0.000461276
0.000449451
0.000432059
0.000411477
0.000387946
0.000357581
0.000321381
0.000273924
0.000274778
0.000275658
0.000276568
0.00027751
0.000278485
0.000279496
0.000280545
0.000281637
0.000282772
0.000283953
0.000285183
0.000286465
0.000287804
0.000289204
0.000290669
0.000292205
0.000293819
0.000295516
0.000297305
0.000299192
0.000301187
0.000303298
0.000305535
0.000307907
0.000310424
0.000313099
0.000315941
0.000318963
0.000322179
0.0003256
0.000329242
0.000333121
0.000337251
0.00034165
0.000346334
0.00035132
0.000356624
0.000362261
0.000368245
0.000374584
0.000381284
0.000388342
0.000395749
0.000403484
0.000411514
0.00041979
0.000428244
0.000436784
0.00044529
0.000453613
0.00046157
0.000468945
0.000475456
0.00048082
0.000484717
0.000486825
0.000486766
0.000484173
0.00047881
0.0004702
0.000458561
0.000442381
0.000424145
0.000399947
0.000374609
0.00034137
0.000302453
0.000264117
0.00029841
0.000299547
0.000300723
0.00030194
0.000303201
0.000304507
0.00030586
0.000307265
0.000308724
0.000310242
0.000311823
0.00031347
0.000315188
0.000316982
0.000318857
0.000320819
0.000322873
0.000325027
0.000327286
0.000329658
0.00033215
0.00033477
0.000337526
0.000340426
0.000343477
0.000346689
0.000350069
0.000353626
0.000357369
0.000361306
0.000365446
0.000369796
0.000374366
0.000379162
0.000384192
0.000389462
0.000394977
0.000400739
0.000406747
0.000412997
0.00041948
0.000426177
0.000433062
0.000440097
0.000447231
0.000454396
0.000461507
0.000468452
0.000475102
0.000481295
0.000486848
0.000491549
0.000495156
0.000497417
0.000498036
0.000496688
0.000493163
0.000486982
0.000478128
0.000466116
0.000451282
0.000432715
0.000410801
0.000386278
0.000355143
0.000321023
0.000279576
0.000242409
0.000197893
0.000331342
0.000332941
0.000334592
0.0003363
0.000338066
0.000339893
0.000341784
0.000343743
0.000345772
0.000347875
0.000350056
0.000352317
0.000354664
0.000357098
0.000359625
0.000362249
0.000364973
0.000367801
0.000370736
0.000373784
0.000376947
0.000380229
0.000383635
0.000387166
0.000390827
0.000394621
0.000398549
0.000402616
0.000406822
0.000411169
0.00041566
0.000420293
0.00042507
0.000429988
0.000435044
0.000440233
0.000445547
0.000450974
0.000456497
0.000462095
0.000467736
0.000473382
0.000478982
0.000484473
0.000489778
0.000494799
0.000499424
0.000503516
0.000506921
0.000509457
0.000510942
0.000511153
0.000509852
0.000506836
0.000501799
0.000494519
0.000484897
0.000472232
0.000457208
0.000438686
0.000418509
0.000393262
0.000366038
0.000330686
0.000293665
0.000255542
0.000214698
0.000177287
0.000138557
0.000378253
0.000380538
0.000382881
0.000385283
0.000387745
0.000390266
0.000392849
0.000395494
0.000398202
0.000400973
0.000403809
0.000406709
0.000409674
0.000412704
0.000415801
0.000418963
0.000422191
0.000425483
0.00042884
0.00043226
0.000435743
0.000439286
0.00044289
0.000446553
0.000450272
0.000454048
0.000457876
0.000461755
0.000465682
0.000469652
0.000473661
0.000477705
0.000481774
0.000485861
0.000489952
0.000494034
0.000498086
0.000502083
0.000505998
0.000509789
0.000513412
0.000516809
0.000519914
0.000522643
0.000524902
0.000526575
0.000527536
0.000527637
0.000526717
0.000524591
0.000521114
0.000516037
0.000509171
0.000500408
0.000489312
0.00047606
0.000460424
0.000441438
0.00042111
0.000396781
0.000370565
0.000335594
0.000301747
0.000261617
0.000226251
0.000187322
0.000151151
0.000117235
8.5304e-05
0.000446004
0.000448835
0.000451687
0.000454564
0.00045746
0.000460372
0.000463301
0.000466244
0.000469199
0.000472165
0.00047514
0.000478123
0.000481111
0.000484103
0.000487096
0.000490086
0.000493069
0.000496042
0.000499002
0.000501945
0.000504868
0.000507767
0.00051064
0.000513483
0.000516292
0.000519063
0.000521791
0.00052447
0.000527095
0.000529658
0.00053215
0.00053456
0.000536877
0.000539084
0.000541161
0.000543084
0.000544821
0.00054634
0.000547605
0.000548557
0.000549146
0.000549302
0.000548944
0.000547977
0.000546298
0.000543776
0.000540295
0.000535697
0.000529823
0.000522517
0.000513714
0.000503019
0.000490496
0.000476078
0.000458992
0.000440642
0.000419411
0.000394996
0.00036663
0.000334329
0.000299957
0.000263013
0.000229889
0.000190513
0.000159048
0.000122356
9.54638e-05
6.60718e-05
5.01359e-05
0.00053188
0.000534402
0.000536907
0.00053939
0.00054182
0.000544201
0.000546535
0.000548822
0.000551062
0.000553255
0.000555398
0.00055749
0.000559525
0.000561499
0.000563404
0.000565232
0.000566979
0.00056864
0.000570215
0.000571699
0.000573091
0.000574388
0.000575585
0.00057668
0.000577666
0.000578538
0.000579288
0.000579908
0.000580387
0.000580716
0.000580881
0.000580867
0.000580656
0.000580226
0.000579548
0.000578582
0.000577278
0.00057562
0.000573573
0.000571033
0.000568003
0.000564357
0.000560006
0.000554848
0.000548793
0.000541677
0.000533471
0.000523935
0.000512957
0.000500511
0.000486543
0.000470254
0.00045277
0.000433218
0.000410889
0.000386076
0.000356906
0.000325332
0.000291485
0.000257989
0.00022351
0.000189961
0.000157279
0.000124387
9.77827e-05
7.08186e-05
5.07783e-05
3.8427e-05
3.03056e-05
0.000617816
0.000618967
0.000620076
0.000621138
0.000622147
0.000623097
0.000623984
0.000624804
0.000625554
0.000626228
0.000626825
0.000627334
0.000627724
0.000627989
0.000628113
0.000628078
0.000627901
0.000627587
0.000627144
0.00062657
0.000625866
0.000625028
0.00062405
0.000622923
0.000621638
0.000620184
0.000618549
0.000616722
0.000614688
0.000612433
0.000609939
0.000607186
0.00060415
0.000600799
0.000597095
0.000592959
0.000588274
0.000583188
0.000577641
0.000571385
0.000564742
0.000557154
0.000548686
0.00053926
0.000528833
0.000517125
0.000504493
0.000490144
0.000474473
0.000457646
0.000438932
0.000417418
0.000394125
0.000367316
0.000338635
0.000307191
0.000275908
0.000244101
0.000212493
0.000180427
0.000149601
0.000121162
9.39434e-05
7.11195e-05
5.19422e-05
3.5477e-05
2.58014e-05
2.41193e-05
2.44317e-05
0.000680866
0.000680271
0.000679615
0.000678895
0.000678103
0.000677236
0.000676292
0.000675266
0.000674154
0.00067295
0.000671655
0.00067025
0.000668754
0.000667093
0.000665146
0.000662883
0.000660581
0.000658177
0.000655699
0.000653088
0.000650361
0.000647486
0.000644443
0.000641207
0.000637761
0.000634093
0.00063019
0.000626037
0.000621618
0.000616915
0.000611905
0.000606563
0.000600859
0.000594753
0.00058821
0.000580982
0.000572546
0.000564247
0.000555487
0.000545603
0.000536507
0.000524616
0.000512214
0.000498869
0.000484548
0.000468617
0.000452895
0.000433766
0.000413473
0.000391003
0.000365875
0.000338468
0.000310251
0.000280823
0.000252416
0.000222077
0.00019341
0.000163533
0.000137077
0.000109207
8.73237e-05
6.55999e-05
4.91728e-05
3.51253e-05
2.41827e-05
1.90201e-05
2.019e-05
2.10638e-05
2.64242e-05
0.000701803
0.000699668
0.00069745
0.000695146
0.000692754
0.000690274
0.000687711
0.000685068
0.000682332
0.00067948
0.000676598
0.000673444
0.000670519
0.000666868
0.00066372
0.000659636
0.000656135
0.000651711
0.00064782
0.000643207
0.000638809
0.000634085
0.000629103
0.000623785
0.000618156
0.000612267
0.000606118
0.000599687
0.000592957
0.000585904
0.000578504
0.000570726
0.000562552
0.000553847
0.000545238
0.00053562
0.000525053
0.000514767
0.000503538
0.000490819
0.00047817
0.000463939
0.000449238
0.000432812
0.000414211
0.000394055
0.000372192
0.000349151
0.000324156
0.000298912
0.000272678
0.000246123
0.000219422
0.000192068
0.000166485
0.000139981
0.000116518
9.37098e-05
7.46137e-05
5.62292e-05
4.32708e-05
3.08532e-05
2.2985e-05
1.74458e-05
1.57014e-05
1.67905e-05
1.83192e-05
2.62651e-05
3.4172e-05
0.000670822
0.000667639
0.00066437
0.00066101
0.000657553
0.000653995
0.000650332
0.000646562
0.00064268
0.00063868
0.000634562
0.000630307
0.000625938
0.000621392
0.000616723
0.00061184
0.000606801
0.000601529
0.000596089
0.000590424
0.000584566
0.00057849
0.000572186
0.000565631
0.000558806
0.000551698
0.000544293
0.000536582
0.000528554
0.000520185
0.000511447
0.000502305
0.000492725
0.000482643
0.00047207
0.000460867
0.000448888
0.000436156
0.000422512
0.00040774
0.00039191
0.000374846
0.000356551
0.000337013
0.000316301
0.000294985
0.00027216
0.000249407
0.000225295
0.000201741
0.000177604
0.000154312
0.000131718
0.00011056
9.12269e-05
7.33812e-05
5.7717e-05
4.51906e-05
3.36078e-05
2.53122e-05
1.89566e-05
1.62038e-05
1.37055e-05
1.24626e-05
1.51161e-05
2.17243e-05
3.1446e-05
3.39794e-05
3.86012e-05
0.000578768
0.000575287
0.000571707
0.000568027
0.000564245
0.000560359
0.000556366
0.000552263
0.000548046
0.000543711
0.00053925
0.000534647
0.000529904
0.000525015
0.000519977
0.000514782
0.000509423
0.000503891
0.00049818
0.00049228
0.000486184
0.000479883
0.000473367
0.000466622
0.000459633
0.000452383
0.000444843
0.000436987
0.000428765
0.000420131
0.000411036
0.000401428
0.00039125
0.00038044
0.000368926
0.000356697
0.000343738
0.000329967
0.00031537
0.000299823
0.000283388
0.000265974
0.000247675
0.000228689
0.000208753
0.000188865
0.000168102
0.000148529
0.000128579
0.000110225
9.30394e-05
7.69837e-05
6.33529e-05
5.08783e-05
4.05705e-05
3.12135e-05
2.38458e-05
1.83139e-05
1.51378e-05
1.28903e-05
1.14857e-05
1.02361e-05
1.04623e-05
1.9398e-05
2.92658e-05
3.14851e-05
3.30439e-05
3.29132e-05
3.29308e-05
0.000426975
0.000423957
0.000420857
0.000417677
0.000414413
0.000411065
0.00040763
0.000404105
0.000400488
0.000396777
0.000392967
0.000389054
0.000385033
0.0003809
0.000376651
0.000372279
0.000367781
0.000363148
0.000358375
0.000353455
0.00034838
0.000343141
0.00033773
0.000332127
0.000326316
0.000320272
0.000313873
0.000307075
0.000299843
0.000292143
0.000283934
0.000275176
0.000265826
0.000255837
0.000245185
0.000233793
0.00022168
0.00020876
0.000195188
0.000180823
0.000166049
0.00015071
0.000135395
0.000120075
0.000105184
9.10784e-05
7.76341e-05
6.56946e-05
5.46626e-05
4.51476e-05
3.71643e-05
2.9868e-05
2.44726e-05
1.88376e-05
1.4879e-05
1.2265e-05
1.05168e-05
8.92599e-06
7.82931e-06
6.3999e-06
7.18188e-06
1.4456e-05
2.02095e-05
2.4452e-05
2.9167e-05
2.98022e-05
3.01158e-05
2.9833e-05
2.78329e-05
0.000238319
0.000236491
0.00023461
0.000232676
0.00023069
0.000228651
0.000226559
0.000224411
0.000222206
0.000219943
0.00021762
0.000215234
0.000212784
0.000210265
0.000207677
0.000205012
0.000202273
0.000199446
0.000196535
0.000193531
0.00019042
0.000187218
0.000183898
0.000180391
0.000176714
0.000172618
0.000168114
0.000163167
0.000157754
0.00015187
0.000145504
0.000138654
0.000131332
0.000123553
0.000115373
0.000106817
9.80338e-05
8.90298e-05
8.00941e-05
7.11704e-05
6.27945e-05
5.48067e-05
4.77153e-05
4.10456e-05
3.50973e-05
2.97555e-05
2.50356e-05
2.10498e-05
1.74212e-05
1.46186e-05
1.19569e-05
9.82399e-06
7.8746e-06
6.62507e-06
5.54486e-06
4.3886e-06
3.07944e-06
2.98119e-06
4.25647e-06
6.24308e-06
8.66738e-06
1.26368e-05
1.73837e-05
2.16859e-05
2.46887e-05
2.67088e-05
2.80927e-05
2.81744e-05
2.64454e-05
7.25081e-05
7.18532e-05
7.11818e-05
7.0494e-05
6.97903e-05
6.90683e-05
6.83293e-05
6.75713e-05
6.6796e-05
6.60006e-05
6.5188e-05
6.43534e-05
6.35024e-05
6.26258e-05
6.17344e-05
6.08124e-05
5.98767e-05
5.89058e-05
5.79144e-05
5.69018e-05
5.58218e-05
5.47993e-05
5.35534e-05
5.20739e-05
5.03471e-05
4.84453e-05
4.63894e-05
4.42126e-05
4.194e-05
3.96024e-05
3.7224e-05
3.48417e-05
3.24732e-05
3.01511e-05
2.78868e-05
2.57063e-05
2.36171e-05
2.16385e-05
1.97618e-05
1.8013e-05
1.63113e-05
1.46934e-05
1.30384e-05
1.15144e-05
1.00266e-05
8.63169e-06
7.27286e-06
5.98666e-06
4.827e-06
3.76911e-06
2.75414e-06
1.85864e-06
1.39395e-06
1.24122e-06
1.16605e-06
1.03337e-06
9.37532e-07
9.32317e-07
9.5654e-07
1.20675e-06
1.81227e-06
3.08711e-06
5.38687e-06
8.00753e-06
1.08153e-05
1.34065e-05
1.5229e-05
1.59319e-05
1.57228e-05
7.44932e-06
7.53523e-06
7.61963e-06
7.7075e-06
7.79309e-06
7.88281e-06
7.96929e-06
8.06097e-06
8.14733e-06
8.24091e-06
8.32556e-06
8.42076e-06
8.50272e-06
8.59759e-06
8.67788e-06
8.7698e-06
8.84653e-06
8.93735e-06
9.00936e-06
9.09578e-06
9.16024e-06
9.23538e-06
9.29331e-06
9.34589e-06
9.38032e-06
9.40392e-06
9.41225e-06
9.4072e-06
9.39059e-06
9.36287e-06
9.32027e-06
9.25762e-06
9.16917e-06
9.04963e-06
8.89337e-06
8.69453e-06
8.446e-06
8.13997e-06
7.76625e-06
7.31345e-06
6.76764e-06
6.11497e-06
5.33538e-06
4.42462e-06
3.35788e-06
2.23879e-06
1.1945e-06
4.55274e-07
1.92428e-07
1.8576e-07
1.93506e-07
1.79691e-07
1.55347e-07
1.27015e-07
8.91459e-08
6.97654e-08
6.17506e-08
5.81839e-08
5.78038e-08
6.66988e-08
8.42005e-08
1.09231e-07
1.42616e-07
1.91917e-07
2.57438e-07
3.40449e-07
4.14278e-07
4.70635e-07
5.06636e-07
0.000169386
0.000169394
0.00016938
0.000169391
0.000169384
0.000169377
0.000169374
0.000169327
0.000169257
0.000169192
0.000169141
0.000169201
0.000169289
0.00016935
0.000169369
0.000169257
0.000169293
0.000169311
0.000169346
0.0001693
0.000169362
0.000169504
0.000169518
0.000169552
0.000169569
0.000169518
0.000169611
0.000169684
0.00016984
0.000169886
0.000169856
0.000169991
0.000170143
0.000170226
0.000170338
0.000170383
0.000170569
0.000170666
0.000170726
0.000171015
0.000170965
0.000171057
0.000171043
0.000171116
0.000171352
0.000171375
0.000171403
0.000171485
0.000171602
0.000171703
0.000171761
0.000171936
0.000172047
0.000172137
0.000172258
0.000172344
0.000172423
0.000172469
0.000172528
0.000170996
0.00017098
0.000170952
0.000170954
0.000170936
0.000170896
0.000170839
0.000170761
0.000170722
0.000170714
0.000170741
0.000170764
0.000170789
0.0001708
0.00017075
0.000170731
0.000170766
0.000170783
0.000170769
0.000170782
0.000170882
0.000170969
0.000170982
0.000171039
0.000171035
0.000171003
0.00017111
0.000171217
0.000171328
0.000171388
0.000171419
0.000171536
0.000171684
0.000171776
0.000171934
0.000171999
0.000172162
0.000172303
0.000172367
0.00017264
0.000172715
0.000172772
0.000172868
0.000172894
0.000173048
0.00017318
0.000173236
0.000173315
0.000173395
0.000173479
0.000173553
0.000173666
0.000173791
0.000173886
0.000174021
0.000174128
0.000174238
0.000174379
0.000174451
0.000172933
0.000172889
0.00017281
0.000172764
0.000172681
0.000172611
0.000172546
0.000172509
0.000172504
0.000172507
0.000172503
0.000172508
0.000172497
0.000172469
0.000172449
0.000172454
0.00017248
0.000172467
0.000172465
0.000172545
0.000172639
0.000172689
0.000172711
0.000172771
0.00017276
0.000172761
0.000172874
0.000173006
0.00017309
0.000173167
0.000173248
0.000173356
0.000173503
0.000173611
0.000173793
0.000173892
0.000174043
0.000174211
0.00017429
0.000174543
0.000174716
0.000174791
0.000174925
0.000174958
0.000175073
0.00017524
0.000175367
0.000175468
0.000175552
0.000175648
0.000175745
0.00017586
0.000175903
0.000176012
0.000176127
0.000176245
0.00017633
0.000176427
0.000176526
0.000174993
0.000174909
0.000174845
0.000174789
0.000174717
0.000174631
0.000174578
0.000174537
0.000174527
0.00017453
0.000174513
0.000174503
0.000174472
0.000174444
0.000174435
0.000174452
0.000174453
0.000174445
0.000174502
0.000174589
0.000174672
0.000174703
0.000174738
0.000174791
0.000174781
0.000174813
0.000174935
0.000175083
0.000175159
0.000175252
0.000175371
0.000175481
0.000175633
0.000175761
0.000175963
0.000176098
0.000176253
0.000176441
0.000176541
0.000176773
0.000177011
0.000177135
0.000177296
0.000177394
0.000177496
0.000177651
0.00017782
0.000177963
0.000178079
0.00017819
0.000178303
0.000178419
0.000178514
0.000178619
0.000178731
0.000178845
0.000178961
0.000179059
0.000179164
0.000177363
0.000177298
0.000177238
0.000177182
0.000177138
0.00017706
0.000177006
0.000176978
0.000176917
0.000176905
0.000176858
0.000176833
0.000176786
0.000176768
0.000176768
0.000176779
0.000176767
0.000176805
0.000176875
0.000176957
0.000177029
0.000177058
0.0001771
0.000177147
0.00017714
0.000177211
0.000177339
0.000177499
0.00017758
0.000177691
0.000177841
0.000177961
0.000178124
0.000178274
0.000178493
0.000178668
0.000178839
0.000179049
0.000179178
0.000179394
0.000179672
0.000179855
0.000180049
0.000180202
0.00018033
0.000180484
0.000180668
0.000180848
0.000181007
0.000181151
0.000181291
0.000181427
0.000181557
0.000181686
0.000181815
0.000181943
0.00018207
0.000182186
0.000182306
0.000180182
0.00018012
0.00018006
0.000180002
0.000179947
0.000179898
0.000179839
0.000179776
0.000179711
0.000179647
0.000179597
0.000179543
0.000179511
0.000179501
0.000179503
0.000179503
0.000179511
0.000179563
0.000179635
0.000179722
0.000179782
0.000179814
0.000179861
0.000179907
0.000179916
0.00018001
0.000180153
0.000180324
0.000180419
0.000180551
0.000180729
0.000180868
0.000181045
0.000181217
0.000181455
0.000181671
0.000181869
0.000182105
0.000182274
0.000182484
0.000182781
0.000183022
0.000183261
0.000183465
0.000183638
0.00018381
0.000184007
0.000184213
0.00018441
0.000184594
0.000184771
0.00018494
0.000185103
0.000185261
0.000185416
0.000185566
0.000185712
0.000185849
0.000185989
0.000183479
0.000183409
0.00018334
0.000183271
0.000183202
0.000183132
0.00018306
0.000182995
0.000182922
0.000182849
0.0001828
0.000182744
0.000182725
0.000182708
0.000182708
0.000182709
0.000182731
0.000182794
0.00018288
0.000182958
0.000183011
0.00018305
0.000183101
0.000183153
0.000183178
0.000183295
0.000183455
0.00018364
0.000183757
0.000183911
0.000184118
0.000184282
0.000184478
0.000184676
0.000184936
0.000185192
0.000185427
0.000185694
0.000185911
0.000186133
0.000186437
0.000186727
0.000187016
0.000187277
0.000187504
0.000187716
0.000187936
0.000188166
0.000188397
0.000188621
0.000188838
0.000189045
0.000189244
0.000189435
0.00018962
0.000189797
0.000189969
0.00019013
0.000190296
0.000187311
0.000187229
0.000187149
0.000187066
0.000186983
0.000186902
0.000186821
0.000186744
0.000186677
0.000186614
0.000186566
0.000186519
0.000186495
0.000186477
0.000186478
0.000186492
0.000186537
0.000186611
0.000186692
0.000186761
0.000186812
0.000186857
0.000186915
0.000186977
0.000187021
0.000187164
0.000187344
0.000187544
0.000187689
0.000187871
0.000188107
0.000188304
0.000188525
0.000188753