/*--------------------------------*- C++ -*----------------------------------*\
| =========                 |                                                 |
| \\      /  F ield         | OpenFOAM: The Open Source CFD Toolbox           |
|  \\    /   O peration     | Version:  2312                                  |
|   \\  /    A nd           | Website:  www.openfoam.com                      |
|    \\/     M anipulation  |                                                 |
\*---------------------------------------------------------------------------*/
FoamFile
{
    version     2.0;
    format      ascii;
    arch        "LSB;label=32;scalar=64";
    class       volScalarField;
    location    "1700";
    object      omega;
}
// * * * * * * * * * * * * * * * * * * * * * * * * * * * * * * * * * * * * * //

dimensions      [0 0 -1 0 0 0 0];

internalField   nonuniform List<scalar> 
76025
(
0.0297148
0.0297236
0.0297299
0.0297338
0.029739
0.0297516
0.0297562
0.0297652
0.0297665
0.0297746
0.0297807
0.0298001
0.0298044
0.0297981
0.0298224
0.0298307
0.0298245
0.0298318
0.0298401
0.0298612
0.0298725
0.0299009
0.0299141
0.0299545
0.0299405
0.0299668
0.029961
0.0299701
0.0299973
0.0300264
0.0300596
0.0301036
0.0301589
0.0302189
0.0302864
0.0303557
0.0304413
0.0305442
0.0306582
0.0307842
0.030919
0.0310819
0.0312643
0.031459
0.0316676
0.0318989
0.0321491
0.0324203
0.0327141
0.0330232
0.0333614
0.0337193
0.0341103
0.0345116
0.0349854
0.0354639
0.0360194
0.0366319
0.0373396
0.0381513
0.0390609
0.0401126
0.0413234
0.0427158
0.0443855
0.0462099
0.0482307
0.050568
0.052836
0.0300309
0.0300325
0.0300404
0.030051
0.0300587
0.0300712
0.03008
0.0300883
0.0301043
0.0301191
0.0301365
0.0301698
0.0301862
0.0302163
0.0302082
0.0302346
0.0302257
0.0302307
0.0302444
0.0302655
0.0302884
0.0303212
0.0303518
0.0304073
0.03045
0.03048
0.0305041
0.0305308
0.0305648
0.0306088
0.030661
0.0307187
0.0307864
0.0308599
0.0309441
0.0310396
0.0311469
0.0312687
0.0313998
0.0315422
0.0316976
0.031866
0.0320499
0.0322472
0.0324634
0.0326993
0.0329562
0.033233
0.033534
0.0338612
0.0342141
0.0346009
0.0350202
0.035484
0.0359931
0.0365685
0.0372101
0.0379345
0.0387559
0.0396862
0.040749
0.0419443
0.0433021
0.0448184
0.0465329
0.0484346
0.0506069
0.0529856
0.0556678
0.030422
0.0304255
0.0304309
0.0304407
0.0304527
0.0304679
0.0304928
0.0305134
0.0305303
0.0305449
0.0305623
0.0305867
0.0306092
0.0306319
0.0306468
0.0306628
0.0306771
0.0306937
0.0307157
0.0307449
0.0307799
0.0308221
0.0308671
0.0309198
0.0309731
0.0310225
0.0310695
0.0311174
0.0311696
0.0312279
0.0312946
0.0313682
0.0314502
0.0315407
0.0316412
0.0317529
0.0318764
0.032012
0.0321589
0.0323171
0.032488
0.0326733
0.0328748
0.0330936
0.0333315
0.0335901
0.033871
0.0341749
0.0345049
0.0348632
0.0352541
0.035682
0.0361539
0.036675
0.0372547
0.0379033
0.0386294
0.0394474
0.0403691
0.0414108
0.0425851
0.0439018
0.0453791
0.0470241
0.0488666
0.0508965
0.0531727
0.0556849
0.0585295
0.0308726
0.0308833
0.0308947
0.0309082
0.0309237
0.0309416
0.0309648
0.0309889
0.0310119
0.0310337
0.0310569
0.0310839
0.0311126
0.0311435
0.0311722
0.0312019
0.0312356
0.0312723
0.0313096
0.0313481
0.031389
0.0314341
0.031483
0.0315365
0.0315935
0.031653
0.031715
0.0317801
0.0318495
0.0319243
0.032006
0.0320954
0.0321934
0.0323006
0.0324174
0.0325446
0.0326826
0.0328318
0.0329927
0.0331663
0.0333541
0.0335584
0.0337808
0.0340228
0.0342856
0.0345708
0.0348805
0.0352164
0.0355821
0.0359813
0.0364192
0.0369013
0.0374349
0.0380267
0.0386865
0.0394242
0.0402511
0.0411794
0.0422209
0.0433895
0.0446919
0.0461416
0.0477408
0.0495047
0.0514475
0.0535795
0.0559761
0.0586172
0.0616871
0.03141
0.0314248
0.0314415
0.0314604
0.0314811
0.0315034
0.0315281
0.0315542
0.0315808
0.0316078
0.031636
0.0316673
0.0317014
0.0317391
0.0317785
0.0318201
0.0318656
0.0319146
0.0319648
0.0320156
0.0320671
0.0321211
0.0321778
0.0322392
0.0323044
0.0323747
0.0324502
0.0325303
0.0326164
0.0327111
0.0328159
0.0329304
0.0330529
0.0331821
0.0333175
0.03346
0.0336109
0.0337721
0.0339455
0.0341333
0.0343377
0.0345612
0.0348053
0.0350727
0.0353641
0.0356816
0.036028
0.0364059
0.0368196
0.0372732
0.0377728
0.0383237
0.0389344
0.0396119
0.0403672
0.0412094
0.0421505
0.0432001
0.0443675
0.045662
0.0470851
0.0486504
0.0503511
0.052222
0.0542593
0.0565277
0.05907
0.0619133
0.0652858
0.0320493
0.0320684
0.0320896
0.0321132
0.0321389
0.0321665
0.0321957
0.0322263
0.0322578
0.03229
0.0323233
0.0323589
0.0323973
0.032439
0.0324839
0.0325321
0.032584
0.0326397
0.0326985
0.0327596
0.0328228
0.0328889
0.032958
0.0330313
0.0331091
0.0331919
0.0332806
0.0333755
0.0334774
0.0335882
0.0337091
0.0338403
0.0339805
0.0341287
0.0342841
0.0344473
0.0346197
0.0348032
0.0350003
0.0352135
0.0354454
0.0356987
0.0359755
0.036279
0.0366103
0.0369717
0.0373668
0.0377986
0.038272
0.0387915
0.0393637
0.0399949
0.0406942
0.0414693
0.0423317
0.0432887
0.0443516
0.0455245
0.0468146
0.0482244
0.0497558
0.0514222
0.0532212
0.0552069
0.0573664
0.059829
0.0625686
0.0657308
0.0695094
0.0328049
0.03283
0.0328566
0.0328853
0.0329163
0.0329493
0.0329842
0.0330207
0.0330587
0.033098
0.0331387
0.033181
0.0332257
0.0332735
0.0333247
0.0333798
0.0334387
0.0335015
0.0335681
0.0336384
0.033712
0.0337895
0.0338711
0.0339581
0.0340507
0.0341495
0.0342549
0.0343674
0.0344871
0.034615
0.0347516
0.0348976
0.0350529
0.0352176
0.0353919
0.0355769
0.0357741
0.0359854
0.0362135
0.0364609
0.0367301
0.0370237
0.0373441
0.0376941
0.0380759
0.0384916
0.0389452
0.0394405
0.039983
0.0405782
0.0412338
0.0419564
0.0427563
0.0436403
0.044619
0.0456961
0.0468802
0.0481693
0.0495701
0.0510809
0.0527114
0.0544783
0.0563958
0.0585329
0.0608807
0.0636247
0.0666426
0.0703063
0.0745208
0.0336964
0.0337286
0.0337621
0.0337974
0.0338348
0.0338743
0.0339159
0.0339596
0.0340052
0.0340529
0.0341026
0.0341544
0.0342087
0.0342661
0.0343272
0.0343923
0.0344614
0.0345346
0.0346116
0.0346926
0.0347775
0.0348667
0.0349607
0.0350606
0.0351671
0.0352808
0.0354023
0.0355319
0.0356697
0.0358159
0.035971
0.0361356
0.0363101
0.0364955
0.0366932
0.0369048
0.0371323
0.0373783
0.037645
0.0379346
0.0382495
0.0385915
0.0389632
0.0393669
0.0398064
0.040284
0.0408041
0.041372
0.0419939
0.0426763
0.0434272
0.0442535
0.0451643
0.0461642
0.0472607
0.0484533
0.0497479
0.0511394
0.0526389
0.0542464
0.0559879
0.0578856
0.0599793
0.0623414
0.0649841
0.0681139
0.0715405
0.0759115
0.0805203
0.034752
0.0347918
0.0348331
0.0348763
0.0349216
0.0349689
0.0350186
0.0350707
0.0351252
0.0351824
0.0352422
0.0353049
0.0353707
0.03544
0.0355133
0.0355908
0.0356728
0.035759
0.0358493
0.0359437
0.0360423
0.0361456
0.0362539
0.0363679
0.0364887
0.0366172
0.0367542
0.0369004
0.037056
0.0372216
0.0373977
0.037585
0.0377844
0.0379974
0.0382258
0.038472
0.038738
0.0390263
0.0393386
0.0396768
0.0400428
0.0404387
0.0408673
0.0413318
0.0418375
0.0423871
0.042986
0.0436401
0.0443559
0.0451396
0.0459982
0.0469371
0.0479623
0.0490754
0.050281
0.0515762
0.0529686
0.0544562
0.0560609
0.0577902
0.0596909
0.06179
0.0641542
0.0668493
0.0699215
0.0735565
0.077587
0.0828292
0.0878743
0.036009
0.0360572
0.0361072
0.0361593
0.0362135
0.0362701
0.0363292
0.0363911
0.0364558
0.0365235
0.0365945
0.036669
0.0367472
0.0368294
0.0369161
0.0370073
0.0371034
0.0372042
0.0373098
0.03742
0.0375352
0.0376553
0.0377807
0.0379121
0.0380505
0.0381969
0.0383524
0.0385178
0.0386941
0.0388821
0.0390828
0.0392974
0.039527
0.0397732
0.0400382
0.0403241
0.0406332
0.0409677
0.0413299
0.0417218
0.0421459
0.0426049
0.0431023
0.0436423
0.0442295
0.0448692
0.0455648
0.0463214
0.0471446
0.048039
0.0490094
0.0500586
0.0511902
0.0524045
0.0537065
0.0550971
0.0565911
0.0581955
0.0599475
0.0618633
0.0640115
0.0664172
0.0691761
0.0723385
0.075994
0.0802853
0.0851817
0.0913801
0.0973027
0.0375144
0.0375725
0.0376326
0.0376949
0.0377598
0.0378272
0.0378973
0.0379705
0.0380469
0.0381268
0.0382103
0.0382978
0.0383896
0.038486
0.0385872
0.0386935
0.0388052
0.0389224
0.0390451
0.0391737
0.0393077
0.0394476
0.0395937
0.0397468
0.0399076
0.0400773
0.040257
0.0404479
0.0406511
0.0408681
0.0411002
0.041349
0.0416161
0.0419034
0.0422133
0.0425477
0.0429092
0.0433003
0.0437234
0.0441814
0.0446771
0.0452138
0.0457951
0.046425
0.0471078
0.0478484
0.0486491
0.0495127
0.0504428
0.0514421
0.0525139
0.0536602
0.0548855
0.0561935
0.057595
0.0590998
0.0607342
0.0625164
0.0644987
0.0667025
0.0692186
0.0720603
0.0753636
0.0791508
0.0835713
0.0887384
0.0948048
0.102059
0.110064
0.0393274
0.0393977
0.0394703
0.0395454
0.0396232
0.0397038
0.0397875
0.0398745
0.0399651
0.0400595
0.040158
0.040261
0.0403688
0.0404817
0.0406001
0.0407243
0.0408545
0.0409914
0.0411346
0.0412843
0.041441
0.0416049
0.0417767
0.0419569
0.0421466
0.0423468
0.0425587
0.0427837
0.0430233
0.0432792
0.0435532
0.043847
0.044163
0.0445033
0.0448702
0.0452661
0.0456936
0.0461552
0.0466537
0.0471916
0.047772
0.0483977
0.0490717
0.0497972
0.0505774
0.0514149
0.052314
0.0532739
0.0542974
0.0553873
0.0565483
0.0577859
0.0591099
0.0605319
0.062072
0.0637512
0.0656065
0.0676666
0.0699952
0.0726168
0.0756453
0.0790738
0.0831068
0.0877064
0.0931418
0.0995093
0.107064
0.115876
0.127402
0.041527
0.041613
0.0417015
0.0417928
0.0418872
0.0419848
0.0420859
0.0421907
0.0422996
0.0424128
0.0425306
0.0426535
0.0427818
0.0429161
0.0430565
0.043204
0.0433582
0.0435196
0.0436888
0.0438661
0.044052
0.0442471
0.0444522
0.044668
0.0448957
0.0451363
0.0453912
0.045662
0.0459504
0.0462581
0.0465872
0.0469397
0.047318
0.0477244
0.0481613
0.0486309
0.0491356
0.0496776
0.0502591
0.0508823
0.0515494
0.0522624
0.0530234
0.0538347
0.0546986
0.0556178
0.0565955
0.0576357
0.058743
0.0599213
0.0611813
0.0625353
0.0640011
0.0655997
0.0673604
0.0693141
0.0715057
0.0739735
0.0767889
0.0799836
0.0836957
0.0879004
0.0929075
0.0985656
0.105412
0.113411
0.122918
0.134578
0.149243
0.0442233
0.0443299
0.0444395
0.0445525
0.0446691
0.0447896
0.0449141
0.0450432
0.045177
0.045316
0.0454605
0.0456109
0.045768
0.0459317
0.0461026
0.0462812
0.046468
0.0466637
0.0468688
0.047084
0.04731
0.0475476
0.0477976
0.0480611
0.0483392
0.048633
0.0489441
0.0492738
0.0496239
0.0499962
0.0503923
0.0508144
0.0512644
0.0517444
0.0522562
0.0528017
0.0533825
0.0540003
0.0546568
0.0553536
0.0560922
0.0568746
0.057703
0.0585802
0.0595099
0.0604966
0.0615468
0.0626682
0.0638716
0.0651704
0.0665802
0.0681182
0.0698117
0.0716888
0.0737867
0.0761444
0.0788138
0.0818445
0.0853145
0.0892784
0.0938918
0.099143
0.105466
0.112556
0.121455
0.131616
0.144159
0.159867
0.178717
0.0475778
0.0477133
0.0478526
0.0479963
0.0481445
0.0482975
0.0484557
0.0486195
0.0487893
0.0489655
0.0491481
0.0493377
0.0495348
0.04974
0.0499539
0.050177
0.05041
0.0506536
0.0509085
0.0511754
0.0514552
0.0517486
0.0520565
0.0523799
0.0527197
0.053077
0.0534531
0.053849
0.0542661
0.0547057
0.0551692
0.055658
0.0561737
0.0567177
0.0572913
0.0578961
0.0585335
0.0592052
0.0599131
0.0606594
0.0614468
0.0622788
0.0631599
0.0640957
0.0650932
0.0661615
0.0673116
0.068557
0.0699142
0.0714027
0.0730461
0.074871
0.0769116
0.0791971
0.0817748
0.0846921
0.0880111
0.0917993
0.0961435
0.101152
0.106972
0.113704
0.121826
0.131008
0.142905
0.156065
0.173604
0.194776
0.219858
0.0518428
0.0520211
0.0522045
0.0523934
0.0525881
0.0527885
0.052995
0.0532081
0.0534282
0.0536556
0.0538907
0.0541341
0.0543862
0.0546474
0.0549183
0.0551995
0.0554914
0.0557946
0.0561097
0.0564374
0.056778
0.0571324
0.057501
0.0578846
0.0582837
0.0586992
0.0591317
0.0595821
0.0600513
0.0605403
0.0610501
0.0615821
0.0621377
0.0627183
0.0633258
0.0639624
0.0646306
0.0653334
0.0660747
0.0668588
0.0676914
0.068579
0.0695298
0.0705533
0.0716612
0.0728669
0.0741865
0.0756386
0.0772448
0.0790302
0.0810243
0.0832607
0.0857803
0.0886286
0.0918645
0.0955411
0.0997412
0.104559
0.110103
0.116581
0.124076
0.133027
0.143637
0.15617
0.172276
0.190321
0.216027
0.243813
0.287799
0.0574088
0.0576465
0.0578898
0.0581391
0.0583946
0.0586562
0.0589244
0.0591993
0.0594813
0.0597704
0.0600671
0.0603716
0.0606841
0.061005
0.0613344
0.0616728
0.0620203
0.0623774
0.0627442
0.063121
0.0635083
0.0639064
0.0643156
0.0647365
0.0651696
0.0656155
0.0660751
0.0665492
0.067039
0.0675458
0.0680714
0.0686177
0.0691871
0.0697825
0.0704072
0.0710651
0.0717611
0.0725007
0.0732903
0.0741375
0.0750512
0.0760415
0.0771203
0.078301
0.0795994
0.0810332
0.0826229
0.084392
0.0863676
0.0885812
0.0910701
0.0938779
0.097058
0.100671
0.104805
0.109529
0.11496
0.12123
0.128504
0.137136
0.147085
0.159509
0.173632
0.191979
0.213875
0.241666
0.277745
0.322512
0.384074
0.0647514
0.0650533
0.0653597
0.0656708
0.0659864
0.0663065
0.0666313
0.0669609
0.0672951
0.0676341
0.067978
0.0683269
0.0686808
0.0690399
0.0694044
0.0697744
0.07015
0.0705316
0.0709193
0.0713136
0.0717147
0.0721234
0.0725403
0.0729661
0.0734019
0.0738489
0.0743086
0.0747827
0.0752734
0.075783
0.0763147
0.0768719
0.0774587
0.0780797
0.0787404
0.0794471
0.0802069
0.0810279
0.0819196
0.0828925
0.0839585
0.0851313
0.0864264
0.0878611
0.0894554
0.0912317
0.093216
0.0954384
0.0979342
0.100745
0.103923
0.107527
0.111632
0.11633
0.121748
0.127977
0.135218
0.14364
0.153558
0.165458
0.179292
0.197283
0.216969
0.245691
0.276211
0.322131
0.373674
0.448333
0.541592
0.0741926
0.0745396
0.0748879
0.0752377
0.0755887
0.0759409
0.0762944
0.0766491
0.0770051
0.0773626
0.0777216
0.0780823
0.0784451
0.0788101
0.0791776
0.079548
0.0799216
0.080299
0.0806808
0.0810678
0.081461
0.0818615
0.0822706
0.08269
0.0831215
0.0835672
0.0840296
0.0845118
0.085017
0.0855492
0.0861129
0.0867133
0.0873563
0.0880485
0.0887975
0.0896117
0.0905009
0.0914761
0.0925494
0.0937344
0.0950469
0.0965044
0.0981269
0.0999368
0.10196
0.104226
0.10677
0.109633
0.112865
0.116527
0.120693
0.125456
0.130923
0.137251
0.144601
0.153125
0.163182
0.17498
0.189196
0.206333
0.227075
0.254075
0.284232
0.330002
0.375763
0.454064
0.531046
0.666302
0.818178
0.0858948
0.0862547
0.0866151
0.0869758
0.0873333
0.0876883
0.0880417
0.0883941
0.0887459
0.0890976
0.0894499
0.0898033
0.0901579
0.0905141
0.0908724
0.0912337
0.0915986
0.0919684
0.0923441
0.0927273
0.0931197
0.093523
0.0939396
0.0943717
0.0948224
0.0952947
0.0957924
0.0963196
0.0968811
0.0974823
0.0981295
0.0988296
0.0995905
0.100421
0.101331
0.102331
0.103435
0.104657
0.106014
0.107521
0.109201
0.111078
0.113177
0.115529
0.118172
0.121145
0.124505
0.128306
0.132631
0.137575
0.143251
0.149815
0.157414
0.166352
0.176753
0.189049
0.203792
0.221395
0.243123
0.269522
0.303102
0.34453
0.396071
0.467213
0.54913
0.679607
0.818057
1.06582
1.30213
0.100349
0.100678
0.101009
0.101343
0.101679
0.102017
0.102358
0.102701
0.103047
0.103397
0.103751
0.104108
0.104466
0.104826
0.105189
0.105558
0.105934
0.106318
0.106713
0.10712
0.107543
0.107983
0.108444
0.10893
0.109443
0.109989
0.110573
0.1112
0.111877
0.11261
0.113409
0.114283
0.115241
0.116297
0.117461
0.11875
0.120181
0.121777
0.123557
0.125543
0.127771
0.130267
0.133075
0.13624
0.139819
0.143871
0.148496
0.153766
0.159844
0.166863
0.175019
0.184597
0.195767
0.209207
0.224849
0.244128
0.26722
0.295894
0.330689
0.375198
0.430276
0.499457
0.590514
0.710886
0.872353
1.09744
1.36743
1.63869
1.79161
0.118803
0.119094
0.119389
0.119691
0.119998
0.120312
0.120631
0.120959
0.121294
0.121638
0.121991
0.122355
0.12273
0.123118
0.123519
0.123935
0.124363
0.124804
0.125261
0.125737
0.126236
0.126761
0.127318
0.127911
0.128544
0.129225
0.12996
0.130757
0.131625
0.132574
0.133615
0.134761
0.136026
0.137426
0.138982
0.140714
0.142648
0.144814
0.147241
0.149967
0.153043
0.156512
0.160449
0.16492
0.17003
0.175868
0.182632
0.190413
0.199575
0.210254
0.22293
0.238038
0.255815
0.277966
0.303379
0.33654
0.374698
0.42506
0.48204
0.564656
0.65369
0.789371
0.946021
1.19365
1.48139
1.68432
1.76433
1.83417
1.82386
0.143531
0.143806
0.144089
0.144382
0.144684
0.144997
0.145321
0.145657
0.146008
0.146373
0.146754
0.147154
0.147573
0.148014
0.14848
0.148972
0.149491
0.150035
0.150603
0.151202
0.151835
0.152509
0.15323
0.154004
0.154838
0.155742
0.156726
0.157799
0.158975
0.160268
0.161695
0.163274
0.165026
0.166977
0.169158
0.171601
0.174345
0.177434
0.180923
0.184882
0.189383
0.194525
0.200433
0.20722
0.215129
0.224261
0.235142
0.247743
0.263073
0.280994
0.302831
0.32891
0.360292
0.399439
0.4441
0.50371
0.571223
0.661423
0.76507
0.921528
1.0863
1.35348
1.64351
1.8272
1.85984
1.83633
1.7576
1.52125
1.27661
0.178954
0.179264
0.179588
0.179925
0.180278
0.180646
0.181032
0.181438
0.181864
0.182314
0.182788
0.183288
0.183818
0.184379
0.184976
0.185607
0.186275
0.186981
0.187733
0.188535
0.189395
0.190319
0.191316
0.192396
0.193569
0.194848
0.196246
0.197781
0.199471
0.201341
0.203416
0.205727
0.208311
0.211211
0.214475
0.218166
0.222356
0.22713
0.232593
0.238886
0.246152
0.254601
0.264496
0.276064
0.28994
0.30609
0.326077
0.349031
0.377948
0.41123
0.452548
0.501431
0.560754
0.63172
0.716416
0.823297
0.959063
1.1117
1.34433
1.61144
1.88314
1.99932
1.99652
1.92009
1.73046
1.27733
1.0552
1.02754
0.914136
0.23498
0.235425
0.235886
0.236368
0.236871
0.237398
0.237951
0.238532
0.239145
0.239791
0.240471
0.241183
0.241931
0.242723
0.243563
0.244457
0.245411
0.246433
0.247529
0.248708
0.249979
0.251353
0.252843
0.254461
0.256225
0.258154
0.260278
0.262629
0.265244
0.268167
0.271451
0.275158
0.27936
0.284148
0.289626
0.29593
0.303209
0.311681
0.321553
0.333191
0.346887
0.363208
0.382687
0.405905
0.434278
0.467319
0.508859
0.555655
0.614923
0.682623
0.762554
0.861118
0.968037
1.10622
1.26054
1.47911
1.7404
1.99603
2.16011
2.18479
2.19904
1.9788
1.6731
0.985204
0.776898
0.775368
0.805535
0.800259
0.740025
0.340164
0.340871
0.341602
0.342363
0.343154
0.343977
0.344837
0.345736
0.346679
0.347669
0.348712
0.34981
0.350971
0.3522
0.353503
0.354891
0.356371
0.357954
0.359652
0.361479
0.363449
0.365579
0.367886
0.370403
0.373164
0.376217
0.379697
0.38368
0.388257
0.393535
0.399643
0.406738
0.414999
0.424661
0.43598
0.449336
0.465061
0.483824
0.505987
0.532757
0.564414
0.602927
0.648534
0.703427
0.768638
0.844511
0.935829
1.03732
1.1587
1.29452
1.44097
1.62483
1.7982
2.07967
2.32739
2.46557
2.47121
2.42256
2.34758
2.05257
1.48436
0.852306
0.652827
0.587147
0.590221
0.641161
0.661348
0.662358
0.633972
0.587362
0.58868
0.590025
0.591402
0.592817
0.594279
0.595791
0.597365
0.599004
0.60072
0.602515
0.604405
0.606392
0.608496
0.610717
0.613083
0.615591
0.618282
0.621158
0.624246
0.627609
0.631201
0.635148
0.639689
0.644876
0.651403
0.659403
0.669116
0.680816
0.694827
0.711524
0.731359
0.754838
0.782648
0.815434
0.854323
0.89995
0.954271
1.01745
1.09279
1.17904
1.28109
1.396
1.52892
1.67638
1.83902
2.01898
2.20184
2.40941
2.59359
2.80072
2.97977
3.07692
2.98928
2.85465
2.66264
2.38163
1.74816
1.18552
0.855412
0.681235
0.584295
0.552332
0.553292
0.581459
0.609468
0.624609
0.629059
0.606687
1.50366
1.50592
1.50822
1.5106
1.51304
1.51558
1.51817
1.52089
1.52366
1.52659
1.52956
1.53276
1.53596
1.53948
1.54298
1.5469
1.5508
1.55524
1.55982
1.56464
1.5708
1.57512
1.58531
1.60249
1.62724
1.65939
1.69923
1.74717
1.80367
1.86922
1.94429
2.02935
2.12494
2.23156
2.34985
2.48008
2.62272
2.77729
2.94432
3.12178
3.30999
3.50395
3.7036
3.89929
4.08992
4.26048
4.40487
4.51284
4.54552
4.49932
4.29024
4.02784
3.29169
2.48207
1.81667
1.45701
1.32403
1.26629
1.27052
1.31921
1.30943
1.20508
1.04587
0.978943
0.943476
0.923043
0.912506
0.903826
0.866729
8.70561
8.7
8.69328
8.68605
8.67761
8.66873
8.65852
8.64793
8.6358
8.62347
8.60922
8.59518
8.57861
8.56275
8.54401
8.5259
8.50508
8.48504
8.46178
8.43942
8.41316
8.3884
8.3592
8.3286
8.29607
8.26158
8.22501
8.18676
8.14718
8.10611
8.06294
8.01715
7.96832
7.91611
7.86015
7.80004
7.7353
7.66537
7.58947
7.50697
7.41665
7.3177
7.20892
7.09004
6.95994
6.82532
6.6968
6.59207
6.5265
6.48762
6.45213
6.41529
6.37796
6.34118
6.30418
6.269
6.2357
6.20363
6.17272
6.14334
6.11575
6.0898
6.06562
6.04364
6.02421
6.00746
5.99173
5.97602
5.96066
0.0290719
0.0290793
0.0290862
0.029093
0.0291005
0.0291078
0.0291131
0.0291186
0.0291225
0.0291272
0.0291329
0.0291574
0.0291977
0.0292245
0.0292383
0.0292325
0.0292733
0.0292971
0.0293122
0.0293188
0.0293464
0.0293716
0.0293789
0.0293899
0.0293989
0.0294044
0.029438
0.0294619
0.029489
0.029499
0.0295067
0.0295443
0.0295789
0.0295881
0.0296041
0.029602
0.0296232
0.0296345
0.0296371
0.029674
0.0296648
0.0296716
0.0296625
0.0296622
0.0296828
0.0296874
0.0296844
0.0296785
0.0296767
0.029667
0.029667
0.0296707
0.0296735
0.0296767
0.0296863
0.0296922
0.0296986
0.0297026
0.029707
0.0293166
0.0293193
0.0293256
0.0293282
0.0293345
0.0293377
0.02934
0.0293464
0.0293539
0.0293676
0.0293862
0.0294151
0.029434
0.029445
0.0294522
0.0294706
0.029506
0.0295217
0.0295335
0.0295495
0.0295785
0.0295943
0.0296042
0.029619
0.0296248
0.029635
0.0296713
0.0297004
0.0297197
0.0297323
0.0297502
0.0297838
0.0298184
0.0298306
0.0298555
0.0298586
0.029875
0.0298939
0.0298992
0.0299335
0.0299388
0.0299519
0.0299539
0.029949
0.0299562
0.0299719
0.0299784
0.0299784
0.0299863
0.029991
0.0299927
0.0299944
0.0299955
0.0299911
0.0299915
0.0299952
0.0299998
0.0300095
0.0300247
0.029598
0.0295995
0.0296055
0.0296067
0.0296132
0.029618
0.0296247
0.0296332
0.0296452
0.0296616
0.0296789
0.0296929
0.0297045
0.0297147
0.0297286
0.0297574
0.0297776
0.0297894
0.029803
0.0298311
0.0298542
0.0298656
0.0298785
0.0298937
0.0298993
0.0299155
0.029953
0.0299859
0.0300011
0.0300166
0.0300427
0.0300739
0.0301088
0.0301255
0.0301554
0.0301661
0.0301807
0.030203
0.0302114
0.0302455
0.0302617
0.03028
0.0302887
0.030302
0.0303011
0.0303125
0.0303242
0.0303317
0.0303429
0.0303528
0.0303613
0.0303643
0.030383
0.0303831
0.0303841
0.0303857
0.0303943
0.030404
0.0304153
0.02994
0.0299435
0.0299434
0.0299432
0.0299471
0.0299567
0.029965
0.0299745
0.0299862
0.0299972
0.0300106
0.0300203
0.0300316
0.0300452
0.0300647
0.0300836
0.030097
0.0301107
0.0301344
0.0301624
0.0301817
0.0301918
0.0302059
0.0302205
0.0302283
0.0302507
0.0302894
0.0303244
0.0303387
0.0303575
0.0303894
0.0304202
0.0304564
0.0304782
0.0305122
0.0305309
0.0305471
0.0305719
0.0305834
0.0306167
0.0306412
0.0306653
0.0306804
0.0307025
0.0307116
0.0307224
0.0307355
0.0307478
0.0307621
0.0307766
0.0307908
0.0308019
0.0308167
0.0308269
0.0308345
0.0308408
0.0308469
0.0308547
0.0308642
0.0303479
0.030347
0.0303461
0.0303461
0.0303465
0.0303556
0.0303632
0.0303691
0.0303809
0.0303871
0.0303989
0.0304065
0.0304209
0.030435
0.0304513
0.0304658
0.0304811
0.0305013
0.030528
0.0305519
0.0305691
0.0305798
0.030595
0.030609
0.0306206
0.0306486
0.0306887
0.0307252
0.030741
0.0307632
0.0307998
0.0308318
0.03087
0.030897
0.030935
0.0309622
0.0309825
0.0310108
0.0310269
0.0310594
0.0310901
0.0311208
0.0311415
0.0311694
0.0311906
0.0312083
0.0312252
0.0312415
0.031259
0.0312773
0.0312955
0.0313126
0.0313293
0.0313444
0.0313575
0.031369
0.0313792
0.0313886
0.0313998
0.0308273
0.0308252
0.0308234
0.0308226
0.0308231
0.0308241
0.0308283
0.0308341
0.0308409
0.030849
0.0308564
0.0308678
0.0308799
0.0308933
0.0309079
0.0309239
0.0309435
0.0309673
0.0309919
0.0310127
0.0310289
0.0310412
0.0310571
0.0310712
0.0310879
0.0311216
0.0311628
0.0312009
0.0312199
0.0312458
0.0312868
0.0313215
0.0313623
0.0313946
0.0314366
0.0314723
0.031499
0.0315322
0.0315547
0.0315878
0.0316228
0.0316605
0.0316882
0.0317201
0.0317507
0.0317781
0.0318028
0.0318254
0.0318478
0.0318703
0.0318927
0.0319145
0.0319355
0.0319552
0.0319736
0.0319903
0.0320059
0.0320197
0.0320351
0.0313919
0.0313883
0.0313851
0.0313825
0.0313809
0.0313803
0.0313813
0.0313823
0.0313863
0.0313932
0.0314004
0.031413
0.0314235
0.0314384
0.0314539
0.0314729
0.0314946
0.0315178
0.0315397
0.0315598
0.0315758
0.0315899
0.0316066
0.031622
0.0316453
0.0316835
0.0317264
0.0317665
0.0317899
0.0318202
0.0318655
0.0319042
0.0319483
0.0319864
0.0320327
0.0320767
0.0321117
0.032151
0.0321818
0.0322179
0.0322567
0.0323007
0.0323372
0.0323742
0.0324118
0.0324483
0.0324822
0.0325134
0.0325429
0.0325715
0.0325993
0.0326264
0.0326525
0.0326776
0.0327015
0.0327238
0.0327451
0.0327644
0.0327854
0.0320547
0.0320492
0.0320444
0.0320399
0.0320363
0.0320339
0.0320329
0.0320336
0.0320355
0.0320408
0.0320488
0.0320606
0.0320725
0.0320887
0.0321058
0.0321258
0.0321471
0.0321691
0.0321907
0.0322102
0.0322268
0.0322428
0.0322609
0.0322794
0.0323094
0.0323516
0.0323969
0.0324396
0.0324688
0.0325042
0.032554
0.032598
0.0326464
0.0326908
0.0327421
0.0327945
0.0328389
0.0328859
0.0329266
0.0329688
0.0330124
0.033062
0.033108
0.0331524
0.0331972
0.0332418
0.0332849
0.0333256
0.033364
0.0334006
0.0334356
0.0334693
0.0335018
0.0335329
0.0335629
0.0335913
0.0336186
0.0336438
0.0336709
0.0328356
0.0328284
0.0328222
0.0328162
0.0328113
0.0328078
0.0328059
0.0328062
0.0328079
0.0328132
0.0328219
0.0328334
0.0328469
0.0328629
0.0328808
0.0329008
0.0329223
0.0329443
0.0329656
0.032985
0.0330028
0.033021
0.0330416
0.0330647
0.033101
0.0331473
0.0331958
0.0332421
0.033278
0.0333195
0.0333745
0.0334251
0.0334791
0.0335307
0.033588
0.0336489
0.0337039
0.0337603
0.033812
0.0338634
0.0339145
0.0339703
0.0340255
0.0340793
0.0341328
0.0341861
0.0342386
0.0342893
0.0343377
0.0343839
0.0344279
0.0344699
0.0345102
0.0345487
0.0345857
0.0346209
0.0346548
0.0346863
0.03472
0.0337627
0.0337542
0.0337472
0.0337403
0.0337347
0.0337305
0.0337283
0.0337285
0.0337304
0.033736
0.033745
0.0337568
0.0337708
0.0337872
0.0338056
0.0338259
0.0338474
0.0338693
0.0338904
0.0339104
0.0339301
0.0339512
0.0339755
0.0340044
0.0340468
0.0340976
0.0341501
0.0342012
0.034245
0.0342937
0.034355
0.0344134
0.0344744
0.0345344
0.0345992
0.0346691
0.0347357
0.0348032
0.0348675
0.0349307
0.0349925
0.0350567
0.0351217
0.0351863
0.0352502
0.0353138
0.0353767
0.0354382
0.0354977
0.0355548
0.0356095
0.0356618
0.0357117
0.0357593
0.0358049
0.0358481
0.0358898
0.0359287
0.03597
0.0348722
0.0348627
0.0348552
0.0348478
0.0348417
0.0348372
0.0348348
0.0348349
0.0348368
0.0348424
0.0348514
0.0348634
0.0348779
0.0348945
0.0349133
0.0349337
0.0349551
0.0349769
0.0349984
0.0350198
0.0350421
0.035067
0.0350962
0.0351322
0.0351799
0.0352358
0.0352937
0.0353509
0.0354039
0.0354613
0.0355302
0.0355979
0.0356678
0.0357377
0.0358117
0.0358918
0.0359711
0.0360516
0.03613
0.0362075
0.0362832
0.0363595
0.0364364
0.0365132
0.0365896
0.0366655
0.0367406
0.0368144
0.0368864
0.0369561
0.0370232
0.0370875
0.037149
0.0372077
0.0372638
0.0373171
0.0373683
0.0374163
0.0374669
0.0362093
0.0361988
0.0361909
0.0361828
0.0361763
0.0361713
0.0361684
0.036168
0.0361695
0.0361749
0.0361839
0.0361957
0.0362101
0.0362268
0.0362455
0.0362658
0.0362872
0.0363093
0.0363319
0.0363556
0.0363814
0.036411
0.0364463
0.0364896
0.0365436
0.0366055
0.03667
0.0367348
0.0367984
0.0368661
0.0369443
0.0370231
0.037104
0.0371859
0.0372715
0.0373634
0.037457
0.0375524
0.0376472
0.0377414
0.0378342
0.0379266
0.0380187
0.0381106
0.0382021
0.038293
0.0383829
0.0384714
0.038558
0.0386423
0.0387239
0.0388024
0.0388779
0.03895
0.0390191
0.0390848
0.0391478
0.0392071
0.0392692
0.0378323
0.0378204
0.0378116
0.0378026
0.0377949
0.0377889
0.037785
0.0377837
0.0377857
0.0377895
0.0377972
0.0378084
0.0378223
0.0378385
0.0378568
0.0378768
0.0378983
0.0379211
0.0379456
0.0379723
0.0380026
0.0380379
0.0380802
0.0381313
0.0381926
0.0382617
0.0383341
0.0384084
0.0384844
0.0385644
0.0386541
0.0387462
0.0388408
0.0389372
0.0390373
0.0391438
0.0392537
0.0393667
0.0394805
0.0395944
0.0397076
0.0398202
0.039932
0.0400432
0.0401536
0.0402631
0.0403713
0.040478
0.0405826
0.0406847
0.0407838
0.0408797
0.0409721
0.0410607
0.0411457
0.0412269
0.0413048
0.0413786
0.0414553
0.0398184
0.0398043
0.0397939
0.039783
0.0397734
0.0397655
0.0397597
0.0397565
0.0397565
0.0397587
0.0397646
0.0397742
0.0397868
0.0398019
0.0398193
0.0398388
0.0398604
0.0398844
0.0399113
0.0399419
0.0399774
0.0400194
0.0400695
0.0401291
0.0401988
0.0402765
0.0403586
0.0404444
0.0405351
0.0406298
0.0407339
0.040842
0.0409535
0.0410678
0.0411862
0.041311
0.0414407
0.0415746
0.0417108
0.0418483
0.0419861
0.0421236
0.0422603
0.0423962
0.0425309
0.0426643
0.0427961
0.042926
0.0430535
0.0431782
0.0432996
0.0434174
0.0435313
0.043641
0.0437466
0.0438477
0.0439451
0.0440378
0.0441335
0.042277
0.0422588
0.0422448
0.0422303
0.0422171
0.0422054
0.0421958
0.0421888
0.0421848
0.0421843
0.0421867
0.0421926
0.0422021
0.0422149
0.0422306
0.0422491
0.0422707
0.0422959
0.0423253
0.0423601
0.0424014
0.0424506
0.0425092
0.0425781
0.0426574
0.0427453
0.0428391
0.0429392
0.0430472
0.0431598
0.0432819
0.04341
0.0435425
0.0436792
0.0438208
0.0439691
0.0441236
0.0442835
0.0444474
0.044614
0.044782
0.0449507
0.0451192
0.0452869
0.0454535
0.0456186
0.0457817
0.0459426
0.0461007
0.0462556
0.0464069
0.0465542
0.0466971
0.0468353
0.0469688
0.0470974
0.0472215
0.0473407
0.0474627
0.0453756
0.0453489
0.0453273
0.0453049
0.0452837
0.0452641
0.0452465
0.0452316
0.0452197
0.0452114
0.045207
0.0452074
0.0452114
0.0452186
0.0452299
0.0452455
0.0452657
0.0452909
0.0453222
0.0453606
0.0454073
0.0454638
0.045531
0.0456098
0.0456999
0.0457998
0.0459079
0.0460256
0.0461545
0.0462893
0.0464342
0.0465874
0.0467469
0.0469124
0.0470842
0.0472637
0.0474507
0.0476447
0.0478445
0.0480487
0.0482562
0.0484656
0.0486761
0.0488867
0.0490967
0.0493054
0.0495122
0.0497167
0.0499183
0.0501164
0.0503106
0.0505003
0.0506851
0.0508647
0.0510389
0.0512077
0.0513711
0.0515296
0.0516902
0.0493991
0.0493538
0.0493142
0.0492737
0.049234
0.0491957
0.0491596
0.0491263
0.0490964
0.0490705
0.0490494
0.0490334
0.049023
0.0490187
0.0490209
0.0490276
0.0490409
0.0490617
0.0490912
0.0491303
0.0491804
0.0492425
0.0493176
0.0494061
0.0495078
0.0496218
0.0497472
0.0498868
0.0500418
0.0502049
0.0503798
0.0505661
0.0507619
0.0509661
0.0511793
0.0514023
0.0516351
0.0518772
0.0521278
0.0523855
0.0526489
0.0529169
0.053188
0.053461
0.0537348
0.0540084
0.0542808
0.0545511
0.0548185
0.0550821
0.0553411
0.055595
0.0558431
0.056085
0.0563204
0.0565489
0.0567708
0.0569869
0.0572032
0.0548564
0.0547715
0.0546939
0.0546169
0.0545394
0.0544621
0.0543863
0.0543127
0.0542425
0.0541769
0.0541165
0.0540625
0.0540158
0.0539772
0.0539477
0.0539276
0.0539191
0.0539225
0.0539362
0.0539634
0.0540062
0.0540656
0.054142
0.054236
0.0543476
0.0544762
0.0546221
0.0547895
0.0549786
0.0551806
0.0553988
0.0556335
0.0558838
0.0561475
0.0564249