/*--------------------------------*- C++ -*----------------------------------*\
| =========                 |                                                 |
| \\      /  F ield         | OpenFOAM: The Open Source CFD Toolbox           |
|  \\    /   O peration     | Version:  2312                                  |
|   \\  /    A nd           | Website:  www.openfoam.com                      |
|    \\/     M anipulation  |                                                 |
\*---------------------------------------------------------------------------*/
FoamFile
{
    version     2.0;
    format      ascii;
    arch        "LSB;label=32;scalar=64";
    class       volScalarField;
    location    "1700";
    object      p;
}
// * * * * * * * * * * * * * * * * * * * * * * * * * * * * * * * * * * * * * //

dimensions      [0 2 -2 0 0 0 0];

internalField   nonuniform List<scalar> 
76025
(
6.79346e-05
5.88036e-05
4.9543e-05
4.02424e-05
3.09469e-05
2.16562e-05
1.18791e-05
2.43633e-06
-7.21044e-06
-1.67046e-05
-2.62999e-05
-3.59595e-05
-4.5668e-05
-5.53482e-05
-6.50306e-05
-7.48653e-05
-8.43694e-05
-9.40893e-05
-0.000103672
-0.000113227
-0.000122592
-0.000132045
-0.000141357
-0.000150467
-0.000159566
-0.000168506
-0.00017737
-0.000186281
-0.00019473
-0.000203333
-0.000211193
-0.000219251
-0.00022719
-0.000235081
-0.000242566
-0.000249778
-0.000256483
-0.000263479
-0.000270251
-0.000276649
-0.000282465
-0.000288048
-0.000293914
-0.000299355
-0.000304247
-0.000308637
-0.000313009
-0.000317266
-0.00032065
-0.00032374
-0.00032662
-0.00032889
-0.000330909
-0.000332763
-0.000334115
-0.00033418
-0.000334718
-0.000334233
-0.000333405
-0.000331981
-0.000329203
-0.00032676
-0.000323676
-0.000319832
-0.000314882
-0.000308464
-0.000302128
-0.000296215
-0.000287869
6.52386e-05
5.56851e-05
4.60605e-05
3.63505e-05
2.65575e-05
1.66726e-05
6.75037e-06
-3.19287e-06
-1.31994e-05
-2.32451e-05
-3.33467e-05
-4.34649e-05
-5.35774e-05
-6.3703e-05
-7.37846e-05
-8.38386e-05
-9.38857e-05
-0.000103871
-0.000113853
-0.000123704
-0.000133533
-0.000143246
-0.00015286
-0.000162344
-0.000171747
-0.000181055
-0.000190221
-0.000199167
-0.000207926
-0.000216567
-0.000224999
-0.000233432
-0.000241613
-0.00024951
-0.000257203
-0.000264633
-0.000271879
-0.000278938
-0.000285741
-0.000292313
-0.000298502
-0.000304462
-0.00031019
-0.000315563
-0.000320619
-0.00032535
-0.000329825
-0.000333959
-0.000337682
-0.000341098
-0.00034419
-0.000346841
-0.000349147
-0.000351113
-0.00035259
-0.000353513
-0.000354179
-0.000354223
-0.000353702
-0.00035261
-0.000350946
-0.000349052
-0.000346415
-0.000343061
-0.000338943
-0.000334117
-0.000328735
-0.000322945
-0.000315657
6.23992e-05
5.24066e-05
4.23172e-05
3.21273e-05
2.18562e-05
1.15474e-05
1.18843e-06
-9.23187e-06
-1.97037e-05
-3.0223e-05
-4.07638e-05
-5.13045e-05
-6.18434e-05
-7.23696e-05
-8.28619e-05
-9.33398e-05
-0.000103779
-0.00011417
-0.0001245
-0.000134756
-0.000144925
-0.000154986
-0.000164943
-0.000174782
-0.000184502
-0.000194092
-0.000203506
-0.000212747
-0.000221827
-0.000230745
-0.000239507
-0.000248088
-0.000256429
-0.00026454
-0.000272441
-0.000280112
-0.00028755
-0.000294745
-0.000301707
-0.000308414
-0.000314816
-0.000320932
-0.000326779
-0.000332351
-0.000337624
-0.000342578
-0.000347221
-0.000351556
-0.000355552
-0.000359201
-0.000362506
-0.000365443
-0.000368022
-0.000370244
-0.000372062
-0.000373428
-0.000374394
-0.000374895
-0.000374903
-0.000374433
-0.000373477
-0.000372097
-0.000370169
-0.000367658
-0.000364535
-0.000360795
-0.000356482
-0.000351762
-0.000345585
5.92126e-05
4.87356e-05
3.81524e-05
2.74732e-05
1.67295e-05
5.93561e-06
-4.91491e-06
-1.58189e-05
-2.67621e-05
-3.77328e-05
-4.87186e-05
-5.9709e-05
-7.0695e-05
-8.16661e-05
-9.26106e-05
-0.00010352
-0.000114381
-0.00012518
-0.000135905
-0.000146546
-0.000157088
-0.00016752
-0.000177833
-0.000188015
-0.000198056
-0.000207947
-0.000217672
-0.000227226
-0.000236601
-0.00024579
-0.000254785
-0.000263572
-0.000272142
-0.000280488
-0.000288604
-0.000296481
-0.000304112
-0.000311494
-0.000318626
-0.000325492
-0.000332074
-0.000338371
-0.000344394
-0.000350138
-0.000355583
-0.000360723
-0.000365559
-0.000370092
-0.000374304
-0.000378187
-0.000381744
-0.000384965
-0.000387843
-0.000390375
-0.00039254
-0.000394311
-0.000395697
-0.000396679
-0.000397234
-0.000397363
-0.000397067
-0.000396355
-0.000395189
-0.000393537
-0.000391382
-0.000388735
-0.000385614
-0.00038217
-0.000377553
5.55012e-05
4.45163e-05
3.34233e-05
2.22333e-05
1.09807e-05
-3.2289e-07
-1.16787e-05
-2.30815e-05
-3.45185e-05
-4.59775e-05
-5.74476e-05
-6.89182e-05
-8.03777e-05
-9.18146e-05
-0.000103217
-0.000114572
-0.000125867
-0.000137091
-0.00014823
-0.000159271
-0.000170203
-0.000181013
-0.000191689
-0.00020222
-0.000212596
-0.000222807
-0.000232841
-0.000242689
-0.000252341
-0.000261791
-0.000271031
-0.000280055
-0.000288852
-0.000297414
-0.000305732
-0.000313803
-0.00032162
-0.00032918
-0.000336477
-0.000343505
-0.000350255
-0.000356724
-0.000362915
-0.000368825
-0.000374446
-0.000379775
-0.00038481
-0.00038955
-0.000393986
-0.000398115
-0.000401935
-0.000405442
-0.00040863
-0.000411496
-0.000414029
-0.000416216
-0.000418055
-0.000419538
-0.000420654
-0.0004214
-0.000421777
-0.000421786
-0.000421416
-0.000420651
-0.000419492
-0.000417964
-0.000416084
-0.000414018
-0.000410936
5.12237e-05
3.9702e-05
2.8071e-05
1.63414e-05
4.55096e-06
-7.28661e-06
-1.91727e-05
-3.11019e-05
-4.30613e-05
-5.50372e-05
-6.70175e-05
-7.89902e-05
-9.0943e-05
-0.000102863
-0.000114739
-0.000126556
-0.000138303
-0.000149965
-0.00016153
-0.000172985
-0.000184317
-0.000195513
-0.000206561
-0.000217449
-0.000228166
-0.000238702
-0.000249046
-0.000259188
-0.000269119
-0.000278832
-0.00028832
-0.000297576
-0.000306592
-0.00031536
-0.000323876
-0.000332134
-0.00034013
-0.000347861
-0.000355322
-0.00036251
-0.000369421
-0.000376054
-0.00038241
-0.000388487
-0.000394284
-0.000399799
-0.000405031
-0.00040998
-0.000414643
-0.00041902
-0.000423109
-0.00042691
-0.00043042
-0.000433638
-0.000436559
-0.000439178
-0.000441492
-0.000443497
-0.00044519
-0.000446567
-0.000447633
-0.000448389
-0.000448837
-0.000448978
-0.000448829
-0.000448435
-0.000447831
-0.000447229
-0.000445895
4.63174e-05
3.42271e-05
2.20269e-05
9.72751e-06
-2.63019e-06
-1.50309e-05
-2.74763e-05
-3.99603e-05
-5.2469e-05
-6.49873e-05
-7.75018e-05
-9e-05
-0.000102469
-0.000114895
-0.000127265
-0.000139565
-0.000151781
-0.000163899
-0.000175905
-0.000187786
-0.000199528
-0.000211118
-0.000222544
-0.000233794
-0.000244856
-0.00025572
-0.000266375
-0.000276811
-0.000287021
-0.000296995
-0.000306728
-0.000316212
-0.000325441
-0.000334411
-0.000343116
-0.000351553
-0.000359719
-0.000367611
-0.000375228
-0.000382569
-0.000389632
-0.000396419
-0.000402932
-0.000409171
-0.000415138
-0.000420834
-0.000426261
-0.000431419
-0.000436311
-0.000440937
-0.000445301
-0.000449404
-0.000453247
-0.000456832
-0.000460157
-0.000463222
-0.000466026
-0.000468568
-0.000470848
-0.000472866
-0.000474629
-0.000476141
-0.000477416
-0.000478469
-0.000479333
-0.000480073
-0.000480741
-0.00048158
-0.000481847
4.06888e-05
2.79964e-05
1.51941e-05
2.29179e-06
-1.06659e-05
-2.36621e-05
-3.66978e-05
-4.97666e-05
-6.28531e-05
-7.59413e-05
-8.90168e-05
-0.000102066
-0.000115076
-0.000128031
-0.000140917
-0.000153719
-0.000166423
-0.000179013
-0.000191476
-0.000203796
-0.00021596
-0.000227954
-0.000239766
-0.000251382
-0.000262792
-0.000273984
-0.000284948
-0.000295675
-0.000306156
-0.000316385
-0.000326355
-0.000336059
-0.000345493
-0.000354654
-0.000363538
-0.000372142
-0.000380465
-0.000388506
-0.000396266
-0.000403747
-0.00041095
-0.00041788
-0.000424538
-0.00043093
-0.00043706
-0.00044293
-0.000448545
-0.00045391
-0.000459029
-0.000463908
-0.00046855
-0.000472962
-0.000477147
-0.000481108
-0.000484848
-0.000488368
-0.000491669
-0.000494754
-0.000497624
-0.000500284
-0.000502741
-0.000505008
-0.000507106
-0.000509064
-0.000510936
-0.000512797
-0.000514724
-0.000516954
-0.000518787
3.42297e-05
2.08994e-05
7.45955e-06
-6.08111e-06
-1.96738e-05
-3.32996e-05
-4.69592e-05
-6.06453e-05
-7.43413e-05
-8.803e-05
-0.000101696
-0.000115324
-0.0001289
-0.000142408
-0.000155833
-0.000169158
-0.000182367
-0.000195446
-0.000208379
-0.000221151
-0.000233747
-0.000246153
-0.000258356
-0.000270342
-0.000282101
-0.00029362
-0.000304891
-0.000315903
-0.00032665
-0.000337123
-0.000347318
-0.00035723
-0.000366856
-0.000376193
-0.000385239
-0.000393994
-0.000402456
-0.000410629
-0.000418516
-0.000426121
-0.000433448
-0.000440503
-0.000447293
-0.000453824
-0.000460104
-0.000466138
-0.000471934
-0.0004775
-0.000482844
-0.000487974
-0.000492896
-0.000497619
-0.000502148
-0.000506489
-0.000510645
-0.000514621
-0.00051842
-0.000522043
-0.000525498
-0.000528788
-0.000531929
-0.000534936
-0.000537843
-0.000540689
-0.00054355
-0.000546517
-0.000549704
-0.000553355
-0.000556839
2.68165e-05
1.28097e-05
-1.30602e-06
-1.55228e-05
-2.97876e-05
-4.40794e-05
-5.83984e-05
-7.27365e-05
-8.70757e-05
-0.000101397
-0.000115684
-0.000129921
-0.000144091
-0.000158178
-0.000172164
-0.000186033
-0.000199768
-0.000213352
-0.00022677
-0.000240005
-0.000253042
-0.000265867
-0.000278465
-0.000290824
-0.000302931
-0.000314776
-0.000326347
-0.000337637
-0.000348639
-0.000359345
-0.000369751
-0.000379855
-0.000389654
-0.000399148
-0.000408336
-0.000417219
-0.000425798
-0.00043408
-0.00044207
-0.000449776
-0.000457204
-0.000464365
-0.000471266
-0.000477919
-0.000484332
-0.000490517
-0.000496483
-0.000502241
-0.000507802
-0.000513176
-0.000518372
-0.000523401
-0.000528269
-0.000532983
-0.000537549
-0.000541972
-0.000546255
-0.000550404
-0.000554426
-0.00055833
-0.000562134
-0.000565859
-0.000569549
-0.000573255
-0.000577071
-0.000581105
-0.000585524
-0.000590579
-0.000595836
1.83027e-05
3.57751e-06
-1.12552e-05
-2.61888e-05
-4.11658e-05
-5.61625e-05
-7.11788e-05
-8.62055e-05
-0.000101223
-0.000116212
-0.000131153
-0.000146028
-0.000160822
-0.000175514
-0.000190087
-0.000204522
-0.000218802
-0.00023291
-0.000246827
-0.000260537
-0.000274024
-0.000287274
-0.00030027
-0.000313001
-0.000325453
-0.000337615
-0.000349479
-0.000361034
-0.000372276
-0.000383198
-0.000393796
-0.000404071
-0.00041402
-0.000423647
-0.00043295
-0.000441932
-0.000450601
-0.000458964
-0.000467029
-0.000474808
-0.00048231
-0.00048955
-0.000496538
-0.000503289
-0.000509815
-0.00051613
-0.000522247
-0.000528181
-0.000533943
-0.000539546
-0.000545001
-0.000550319
-0.00055551
-0.000560579
-0.000565536
-0.000570385
-0.000575132
-0.000579785
-0.000584352
-0.000588845
-0.000593287
-0.000597704
-0.000602146
-0.000606671
-0.000611385
-0.000616412
-0.000621949
-0.00062827
-0.000635107
8.51376e-06
-6.97505e-06
-2.25693e-05
-3.8264e-05
-5.39964e-05
-6.97401e-05
-8.54944e-05
-0.000101249
-0.000116983
-0.000132674
-0.000148303
-0.00016385
-0.000179297
-0.000194623
-0.000209808
-0.000224833
-0.000239679
-0.000254327
-0.000268758
-0.000282955
-0.0002969
-0.000310578
-0.000323974
-0.000337074
-0.000349865
-0.000362336
-0.000374478
-0.000386283
-0.000397745
-0.00040886
-0.000419626
-0.000430043
-0.000440113
-0.000449839
-0.000459223
-0.000468271
-0.000476993
-0.000485401
-0.000493506
-0.000501322
-0.000508864
-0.000516148
-0.000523191
-0.000530009
-0.000536618
-0.000543034
-0.000549275
-0.000555356
-0.000561292
-0.000567096
-0.000572782
-0.000578361
-0.000583844
-0.00058924
-0.000594557
-0.000599802
-0.000604985
-0.000610114
-0.000615201
-0.00062026
-0.000625317
-0.000630398
-0.000635559
-0.000640856
-0.000646398
-0.000652315
-0.000658787
-0.000666121
-0.000674337
-2.75869e-06
-1.90603e-05
-3.54645e-05
-5.19683e-05
-6.85029e-05
-8.50392e-05
-0.000101575
-0.0001181
-0.000134591
-0.000151024
-0.000167377
-0.00018363
-0.000199762
-0.000215751
-0.000231575
-0.000247214
-0.000262646
-0.000277852
-0.000292811
-0.000307505
-0.000321916
-0.000336026
-0.00034982
-0.000363283
-0.000376404
-0.00038917
-0.000401574
-0.000413607
-0.000425265
-0.000436545
-0.000447447
-0.000457972
-0.000468125
-0.00047791
-0.000487332
-0.0004964
-0.00050513
-0.000513535
-0.000521633
-0.00052944
-0.000536976
-0.000544261
-0.000551313
-0.000558154
-0.000564802
-0.000571277
-0.000577598
-0.000583784
-0.00058985
-0.000595813
-0.000601686
-0.000607483
-0.000613217
-0.000618898
-0.000624537
-0.000630144
-0.000635731
-0.000641309
-0.000646894
-0.0006525
-0.000658154
-0.000663881
-0.000669733
-0.000675758
-0.000682058
-0.000688745
-0.000695969
-0.000704024
-0.000712792
-1.57692e-05
-3.29369e-05
-5.02035e-05
-6.75686e-05
-8.49567e-05
-0.000102335
-0.000119701
-0.000137043
-0.000154335
-0.000171551
-0.000188668
-0.000205663
-0.000222514
-0.000239197
-0.000255688
-0.000271966
-0.000288006
-0.000303787
-0.000319288
-0.000334488
-0.000349369
-0.000363911
-0.000378099
-0.000391918
-0.000405355
-0.000418399
-0.00043104
-0.000443273
-0.000455094
-0.000466502
-0.000477497
-0.000488085
-0.000498272
-0.000508062
-0.000517465
-0.000526497
-0.000535174
-0.000543517
-0.000551546
-0.000559282
-0.000566749
-0.000573971
-0.000580971
-0.000587772
-0.000594398
-0.000600871
-0.000607212
-0.000613441
-0.000619578
-0.000625639
-0.000631643
-0.000637604
-0.000643536
-0.000649455
-0.000655374
-0.000661308
-0.000667271
-0.000673278
-0.000679345
-0.000685491
-0.000691737
-0.000698105
-0.000704633
-0.000711353
-0.000718344
-0.000725686
-0.000733554
-0.000742331
-0.000752479
-3.08381e-05
-4.89299e-05
-6.71163e-05
-8.54001e-05
-0.000103698
-0.000121973
-0.000140222
-0.00015843
-0.000176571
-0.000194616
-0.00021254
-0.000230318
-0.000247925
-0.000265336
-0.000282524
-0.000299466
-0.000316135
-0.000332509
-0.000348565
-0.000364279
-0.000379632
-0.000394605
-0.000409178
-0.000423338
-0.000437071
-0.000450365
-0.000463211
-0.000475606
-0.000487544
-0.000499028
-0.000510061
-0.000520649
-0.0005308
-0.000540522
-0.00054983
-0.000558746
-0.00056729
-0.000575486
-0.000583361
-0.00059094
-0.000598253
-0.000605326
-0.000612188
-0.000618866
-0.000625387
-0.000631777
-0.000638058
-0.000644254
-0.000650387
-0.000656477
-0.000662544
-0.000668606
-0.000674682
-0.000680791
-0.00068695
-0.000693178
-0.000699495
-0.00070592
-0.00071247
-0.000719163
-0.000726016
-0.000733041
-0.000740252
-0.000747658
-0.000755302
-0.000763228
-0.000771625
-0.000780632
-0.00079072
-4.83873e-05
-6.74671e-05
-8.66361e-05
-0.000105902
-0.000125171
-0.000144403
-0.000163593
-0.000182723
-0.000201766
-0.00022069
-0.000239468
-0.000258072
-0.000276475
-0.000294649
-0.000312566
-0.000330197
-0.000347518
-0.0003645
-0.000381119
-0.000397351
-0.000413173
-0.000428564
-0.000443506
-0.000457981
-0.000471976
-0.000485479
-0.000498482
-0.000510979
-0.000522971
-0.000534457
-0.000545446
-0.000555944
-0.000565963
-0.000575515
-0.000584625
-0.000593316
-0.000601615
-0.000609552
-0.000617158
-0.000624466
-0.000631509
-0.000638321
-0.000644936
-0.000651384
-0.000657696
-0.000663903
-0.00067003
-0.000676105
-0.000682151
-0.000688192
-0.000694251
-0.000700352
-0.000706517
-0.000712769
-0.000719132
-0.000725631
-0.00073229
-0.000739132
-0.000746179
-0.000753446
-0.000760941
-0.000768672
-0.000776615
-0.00078478
-0.000793173
-0.000801785
-0.000810649
-0.000819593
-0.000828702
-6.90028e-05
-8.9142e-05
-0.000109363
-0.000129681
-0.00014999
-0.000170245
-0.000190437
-0.000210549
-0.000230549
-0.000250404
-0.000270083
-0.000289556
-0.000308793
-0.000327761
-0.000346432
-0.000364774
-0.000382757
-0.000400353
-0.000417534
-0.000434273
-0.000450545
-0.000466327
-0.0004816
-0.000496344
-0.000510545
-0.00052419
-0.000537273
-0.000549788
-0.000561735
-0.000573118
-0.000583947
-0.000594232
-0.000603987
-0.000613236
-0.000622007
-0.000630329
-0.000638236
-0.000645765
-0.000652954
-0.000659844
-0.000666474
-0.000672887
-0.000679119
-0.00068521
-0.000691195
-0.000697107
-0.000702978
-0.000708836
-0.000714709
-0.000720624
-0.000726608
-0.000732687
-0.000738889
-0.000745244
-0.000751782
-0.000758533
-0.000765529
-0.000772799
-0.000780367
-0.000788254
-0.000796459
-0.000805
-0.000813844
-0.000822996
-0.000832354
-0.000841807
-0.000851246
-0.000860429
-0.000869755
-9.35353e-05
-0.000114808
-0.00013615
-0.000157586
-0.000178999
-0.000200336
-0.000221586
-0.000242729
-0.000263732
-0.000284558
-0.000305172
-0.000325541
-0.000345631
-0.000365409
-0.000384841
-0.000403891
-0.000422529
-0.000440721
-0.000458437
-0.000475646
-0.000492323
-0.00050844
-0.000523977
-0.000538912
-0.00055323
-0.000566919
-0.00057997
-0.000592381
-0.000604151
-0.000615289
-0.000625805
-0.000635714
-0.000645039
-0.000653811
-0.000662064
-0.000669834
-0.000677165
-0.000684102
-0.000690694
-0.000696989
-0.000703038
-0.000708889
-0.000714589
-0.000720183
-0.000725712
-0.000731214
-0.000736723
-0.000742272
-0.00074789
-0.000753606
-0.00075945
-0.000765453
-0.000771647
-0.000778068
-0.000784751
-0.000791737
-0.000799067
-0.000806776
-0.000814902
-0.000823487
-0.00083256
-0.00084214
-0.000852165
-0.000862587
-0.000873181
-0.000883719
-0.000893965
-0.000903153
-0.000911648
-0.000123027
-0.000145478
-0.000167983
-0.000190577
-0.000213129
-0.000235577
-0.00025791
-0.000280106
-0.000302126
-0.00032393
-0.000345483
-0.000366745
-0.000387681
-0.000408252
-0.00042842
-0.00044815
-0.000467403
-0.000486144
-0.000504338
-0.000521953
-0.000538958
-0.000555325
-0.000571029
-0.000586048
-0.000600364
-0.000613965
-0.000626842
-0.000638993
-0.000650421
-0.000661136
-0.000671153
-0.000680492
-0.000689186
-0.000697272
-0.000704793
-0.000711796
-0.000718335
-0.000724468
-0.000730255
-0.000735758
-0.000741038
-0.000746153
-0.000751161
-0.000756114
-0.000761058
-0.000766036
-0.000771085
-0.000776237
-0.000781523
-0.000786974
-0.00079262
-0.000798494
-0.000804635
-0.000811082
-0.000817879
-0.000825075
-0.00083273
-0.000840908
-0.000849684
-0.000859126
-0.000869285
-0.000880169
-0.000891722
-0.000903845
-0.0009162
-0.000928234
-0.000939217
-0.000947345
-0.000953054
-0.000158132
-0.000181754
-0.000205419
-0.000229169
-0.000252858
-0.000276417
-0.000299829
-0.000323068
-0.000346094
-0.000368862
-0.000391332
-0.000413462
-0.000435212
-0.00045654
-0.000477404
-0.000497765
-0.000517579
-0.000536808
-0.000555412
-0.000573354
-0.0005906
-0.000607118
-0.000622881
-0.000637863
-0.000652046
-0.000665416
-0.000677964
-0.000689688
-0.000700594
-0.000710695
-0.000720009
-0.000728567
-0.000736408
-0.000743577
-0.00075013
-0.000756129
-0.00076164
-0.000766736
-0.000771494
-0.000775991
-0.0007803
-0.000784495
-0.000788644
-0.000792809
-0.000797042
-0.000801388
-0.000805884
-0.00081056
-0.000815447
-0.00082057
-0.00082596
-0.000831652
-0.00083769
-0.000844118
-0.000850996
-0.000858395
-0.000866402
-0.000875111
-0.000884635
-0.000895081
-0.000906558
-0.000919132
-0.00093277
-0.000947211
-0.000961739
-0.000975124
-0.000985669
-0.000990753
-0.00099096
-0.000198375
-0.000223163
-0.000247978
-0.000272875
-0.000297693
-0.000322355
-0.00034684
-0.000371118
-0.000395145
-0.000418872
-0.000442255
-0.000465248
-0.000487805
-0.000509881
-0.00053143
-0.000552405
-0.00057276
-0.000592447
-0.000611423
-0.000629647
-0.000647077
-0.00066368
-0.000679422
-0.000694277
-0.000708222
-0.00072124
-0.000733323
-0.000744468
-0.000754683
-0.000763983
-0.000772394
-0.000779952
-0.000786707
-0.000792717
-0.000798051
-0.000802788
-0.000807013
-0.000810816
-0.000814295
-0.000817548
-0.000820665
-0.000823739
-0.000826854
-0.000830079
-0.000833472
-0.000837081
-0.000840938
-0.000845068
-0.000849493
-0.000854231
-0.000859314
-0.000864782
-0.000870683
-0.000877073
-0.000884019
-0.000891614
-0.000899974
-0.000909249
-0.000919629
-0.000931309
-0.000944459
-0.000959117
-0.000975085
-0.000991707
-0.00100766
-0.00102093
-0.00102902
-0.0010294
-0.00102149
-0.00024206
-0.000268092
-0.000294126
-0.000320234
-0.000346247
-0.00037208
-0.000397706
-0.000423093
-0.000448191
-0.000472949
-0.000497316
-0.000521241
-0.000544673
-0.000567559
-0.000589847
-0.000611482
-0.000632413
-0.000652589
-0.000671959
-0.000690475
-0.000708092
-0.000724768
-0.000740464
-0.00075515
-0.000768799
-0.000781391
-0.000792912
-0.00080336
-0.000812742
-0.000821079
-0.0008284
-0.000834753
-0.000840196
-0.000844798
-0.000848644
-0.000851833
-0.000854475
-0.000856687
-0.000858594
-0.000860324
-0.000861995
-0.000863722
-0.000865602
-0.000867717
-0.000870134
-0.000872901
-0.000876046
-0.000879581
-0.000883512
-0.000887845
-0.000892606
-0.000897825
-0.000903559
-0.000909885
-0.000916894
-0.000924718
-0.000933521
-0.000943505
-0.000954896
-0.00096784
-0.000982387
-0.000998362
-0.00101532
-0.00103218
-0.00104721
-0.00105825
-0.00106288
-0.00105899
-0.00104499
-0.000287687
-0.000315119
-0.000342534
-0.000370014
-0.000397381
-0.000424542
-0.000451467
-0.000478119
-0.000504444
-0.000530387
-0.000555889
-0.000580894
-0.000605343
-0.000629177
-0.000652334
-0.000674754
-0.000696377
-0.000717147
-0.000737006
-0.000755899
-0.000773773
-0.000790579
-0.000806272
-0.00082081
-0.000834157
-0.000846286
-0.00085718
-0.000866833
-0.000875252
-0.000882457
-0.000888484
-0.000893388
-0.000897238
-0.000900123
-0.000902149
-0.000903439
-0.000904136
-0.000904392
-0.000904366
-0.000904225
-0.000904131
-0.00090423
-0.000904649
-0.000905491
-0.000906825
-0.000908687
-0.000911085
-0.000914002
-0.00091742
-0.000921331
-0.000925754
-0.000930744
-0.000936389
-0.000942805
-0.000950101
-0.000958391
-0.000967756
-0.000978215
-0.000989776
-0.00100247
-0.00101628
-0.00103086
-0.00104551
-0.00105923
-0.0010709
-0.00107918
-0.00108168
-0.00107669
-0.00106426
-0.000332838
-0.000361987
-0.000391068
-0.000420192
-0.000449182
-0.000477937
-0.000506422
-0.000534595
-0.0005624
-0.000589772
-0.00061665
-0.00064297
-0.000668667
-0.000693674
-0.000717923
-0.000741345
-0.000763872
-0.000785437
-0.000805974
-0.000825419
-0.00084371
-0.000860787
-0.000876594
-0.000891076
-0.000904187
-0.000915887
-0.000926152
-0.000934972
-0.00094235
-0.000948306
-0.000952878
-0.000956123
-0.000958123
-0.000958985
-0.000958844
-0.000957852
-0.00095619
-0.000954059
-0.000951667
-0.000949231
-0.000946968
-0.000945075
-0.000943725
-0.000943049
-0.000943129
-0.000943993
-0.00094563
-0.000947998
-0.000951053
-0.000954779
-0.000959192
-0.000964354
-0.000970307
-0.000977056
-0.000984528
-0.000992708
-0.00100156
-0.00101086
-0.00102016
-0.00102933
-0.00103883
-0.00104839
-0.0010575
-0.00106678
-0.00107608
-0.00108389
-0.00108706
-0.00108407
-0.00107726
-0.000379914
-0.00041093
-0.000441953
-0.000473
-0.000503896
-0.000534539
-0.000564887
-0.000594894
-0.000624493
-0.000653615
-0.000682188
-0.000710141
-0.000737401
-0.000763892
-0.000789537
-0.000814258
-0.000837976
-0.000860612
-0.000882089
-0.00090233
-0.000921259
-0.000938803
-0.00095489
-0.000969449
-0.000982412
-0.000993721
-0.00100333
-0.0010112
-0.00101734
-0.00102176
-0.0010245
-0.00102563
-0.00102525
-0.00102348
-0.00102049
-0.00101647
-0.00101165
-0.0010063
-0.00100071
-0.000995163
-0.000989982
-0.000985455
-0.000981845
-0.000979356
-0.000978117
-0.000978169
-0.000979454
-0.000981843
-0.000985158
-0.000989271
-0.000994097
-0.000999601
-0.00100568
-0.00101199
-0.00101803
-0.00102364
-0.00102928
-0.00103519
-0.00104004
-0.00104279
-0.0010453
-0.0010494
-0.00105557
-0.00106427
-0.00107328
-0.0010794
-0.00108171
-0.0010816
-0.00108162
-0.00041764
-0.000451386
-0.00048484
-0.000518249
-0.000551474
-0.000584406
-0.000616998
-0.0006492
-0.000680946
-0.000712158
-0.000742761
-0.000772674
-0.000801816
-0.000830103
-0.000857448
-0.000883762
-0.000908956
-0.000932941
-0.000955626
-0.000976924
-0.000996747
-0.00101501
-0.00103163
-0.00104651
-0.00105957
-0.00107075
-0.00107998
-0.00108722
-0.00109243
-0.00109561
-0.00109678
-0.00109598
-0.00109331
-0.0010889
-0.00108294
-0.00107566
-0.00106738
-0.00105844
-0.00104926
-0.00104029
-0.001032
-0.00102486
-0.00101926
-0.00101552
-0.00101375
-0.00101386
-0.00101551
-0.00101815
-0.00102122
-0.00102439
-0.00102772
-0.00103163
-0.00103637
-0.00104131
-0.00104471
-0.0010454
-0.00104471
-0.00104501
-0.00104564
-0.00104456
-0.00104456
-0.0010489
-0.0010555
-0.00106109
-0.0010652
-0.00106802
-0.00107018
-0.00107301
-0.00107877
-0.000479303
-0.000515291
-0.000551559
-0.000587777
-0.000623802
-0.000659539
-0.000694933
-0.000729925
-0.000764437
-0.000798376
-0.000831652
-0.000864173
-0.000895845
-0.00092657
-0.000956247
-0.000984773
-0.00101204
-0.00103794
-0.00106238
-0.00108524
-0.00110642
-0.00112579
-0.00114322
-0.00115847
-0.00117136
-0.0011818
-0.00118976
-0.00119522
-0.00119814
-0.00119853
-0.0011964
-0.0011918
-0.00118484
-0.00117568
-0.00116456
-0.00115178
-0.00113775
-0.00112293
-0.0011079
-0.00109327
-0.00107974
-0.00106799
-0.00105865
-0.0010522
-0.00104889
-0.00104851
-0.00105037
-0.00105323
-0.00105555
-0.00105611
-0.00105488
-0.00105304
-0.00105237
-0.00105364
-0.00105485
-0.0010533
-0.00104943
-0.00104672
-0.00104723
-0.00104905
-0.00105017
-0.00105108
-0.00105268
-0.0010546
-0.00105615
-0.00105709
-0.00105853
-0.00106296
-0.00107177
-0.000502757
-0.000541824
-0.000580089
-0.000618497
-0.000656844
-0.000694856
-0.000732457
-0.000769615
-0.000806252
-0.00084227
-0.00087757
-0.000912054
-0.000945623
-0.000978169
-0.00100958
-0.00103975
-0.00106854
-0.00109584
-0.00112155
-0.00114556
-0.00116782
-0.00118836
-0.00120724
-0.0012242
-0.00123872
-0.00125046
-0.0012593
-0.00126524
-0.00126824
-0.00126821
-0.00126509
-0.00125885
-0.00124949
-0.0012371
-0.00122186
-0.00120406
-0.00118414
-0.0011627
-0.00114058
-0.00111879
-0.00109853
-0.00108108
-0.0010677
-0.00105933
-0.00105641
-0.00105853
-0.00106423
-0.00107097
-0.00107561
-0.00107577
-0.00107097
-0.00106297
-0.00105567
-0.00105266
-0.00105382
-0.00105619
-0.00105687
-0.00105538
-0.0010532
-0.00105154
-0.00105068
-0.00105049
-0.00105045
-0.00104997
-0.00104883
-0.0010477
-0.00104845
-0.00105317
-0.00106223
-0.000638303
-0.000680513
-0.000723257
-0.000765632
-0.000807474
-0.000848878
-0.000889877
-0.0009304
-0.000970332
-0.00100955
-0.00104796
-0.00108542
-0.00112184
-0.00115707
-0.00119099
-0.00122345
-0.00125429
-0.00128332
-0.00131036
-0.00133516
-0.00135745
-0.00137687
-0.00139311
-0.00140624
-0.00141661
-0.00142434
-0.00142916
-0.0014307
-0.00142862
-0.0014227
-0.00141279
-0.00139881
-0.00138078
-0.00135881
-0.00133315
-0.0013042
-0.00127259
-0.00123914
-0.00120492
-0.0011712
-0.00113945
-0.00111119
-0.00108788
-0.00107073
-0.00106043
-0.00105689
-0.00105911
-0.00106503
-0.00107156
-0.00107586
-0.00107649
-0.00107355
-0.00106833
-0.00106284
-0.00105908
-0.0010572
-0.00105592
-0.00105479
-0.00105376
-0.00105276
-0.00105167
-0.00105053
-0.00104922
-0.00104743
-0.001045
-0.00104272
-0.00104255
-0.00104583
-0.00105334
0.000236678
0.000241893
0.000247261
0.000252961
0.000259012
0.000265408
0.000272193
0.000279183
0.000286403
0.000293977
0.000301838
0.000309944
0.000318024
0.000326813
0.000334798
0.000343276
0.000350865
0.000358842
0.000366234
0.000373312
0.000380563
0.000385926
0.000390895
0.000394733
0.000397638
0.000399506
0.000399723
0.000398765
0.000396664
0.000393044
0.000387682
0.000381089
0.000373385
0.000364681
0.000354332
0.000343153
0.000331203
0.000318395
0.000305061
0.00029144
0.000277367
0.000263061
0.00024917
0.000235599
0.000221245
0.000207967
0.000194409
0.00018166
0.000169336
0.000157479
0.000146259
0.000135592
0.00012555
0.000115949
0.000107081
9.8271e-05
9.02613e-05
8.27932e-05
7.58868e-05
0.000240275
0.000245633
0.000251343
0.000257366
0.000263717
0.000270408
0.000277442
0.00028477
0.000292402
0.000300342
0.00030855
0.000316988
0.000325562
0.000334319
0.000343082
0.000351757
0.00036028
0.00036856
0.000376546
0.000383945
0.000390969
0.000397128
0.00040237
0.000406554
0.000409637
0.000411495
0.000412001
0.000411024
0.000408819
0.000405047
0.00039955
0.000392796
0.000384804
0.000375476
0.000364865
0.000353207
0.000340692
0.000327409
0.000313522
0.000299177
0.000284496
0.000269736
0.000255039
0.000240298
0.000225761
0.000211566
0.00019774
0.000184406
0.000171523
0.000159137
0.000147342
0.000136152
0.000125476
0.000115414
0.000105886
9.69716e-05
8.86327e-05
8.08404e-05
7.35392e-05
0.000244
0.000249601
0.00025555
0.000261854
0.000268511
0.000275522
0.000282877
0.000290565
0.000298585
0.000306922
0.00031553
0.00032436
0.000333372
0.00034252
0.000351711
0.000360925
0.000369998
0.000378803
0.000387205
0.000395082
0.000402371
0.000408913
0.000414531
0.000419033
0.00042236
0.000424366
0.000424977
0.000424091
0.000421755
0.000417843
0.00041226
0.000405255
0.000396827
0.000387037
0.000375971
0.000363819
0.000350717
0.000336851
0.000322329
0.000307339
0.000292037
0.000276528
0.00026098
0.00024558
0.000230391
0.000215567
0.000201126
0.000187129
0.000173631
0.000160676
0.000148322
0.000136562
0.000125402
0.000114841
0.000104923
9.56205e-05
8.6894e-05
7.87253e-05
7.10784e-05
0.000247588
0.00025345
0.000259676
0.000266273
0.000273243
0.000280588
0.000288304
0.000296381
0.000304808
0.000313566
0.000322618
0.000331921
0.00034143
0.000351078
0.000360769
0.000370464
0.000380005
0.000389303
0.000398196
0.000406589
0.000414337
0.000421242
0.000427206
0.000432026
0.000435614
0.000437821
0.000438545
0.000437707
0.000435289
0.000431244
0.000425497
0.000418201
0.000409377
0.000399155
0.00038759
0.000374882
0.000361169
0.000346629
0.000331411
0.000315704
0.000299664
0.000283417
0.000267147
0.000251036
0.000235128
0.000219567
0.000204412
0.000189729
0.000175589
0.000162032
0.000149096
0.000136792
0.000125134
0.000114116
0.000103741
9.39906e-05
8.4847e-05
7.62918e-05
6.82977e-05
0.000251026
0.000257164
0.000263688
0.000270601
0.000277907
0.000285609
0.000293706
0.00030219
0.000311046
0.000320252
0.000329776
0.000339575
0.000349595
0.000359766
0.000370001
0.000380216
0.000390288
0.000400108
0.000409532
0.000418435
0.000426655
0.000433995
0.000440333
0.00044549
0.000449349
0.000451763
0.000452619
0.000451824
0.00044935
0.000445167
0.000439214
0.000431618
0.000422413
0.000411727
0.00039964
0.000386335
0.000371972
0.000356726
0.000340771
0.000324294
0.000307469
0.000290455
0.000273419
0.000256514
0.000239834
0.0002235
0.000207602
0.000192213
0.000177395
0.000163193
0.000149638
0.00013675
0.000124537
0.000112998
0.000102127
9.19133e-05
8.23405e-05
7.3386e-05
6.50214e-05
0.000254318
0.000260749
0.000267588
0.000274836
0.000282501
0.000290585
0.000299088
0.000308001
0.000317312
0.000326995
0.000337018
0.000347335
0.000357892
0.000368615