/*--------------------------------*- C++ -*----------------------------------*\
| =========                 |                                                 |
| \\      /  F ield         | OpenFOAM: The Open Source CFD Toolbox           |
|  \\    /   O peration     | Version:  2312                                  |
|   \\  /    A nd           | Website:  www.openfoam.com                      |
|    \\/     M anipulation  |                                                 |
\*---------------------------------------------------------------------------*/
FoamFile
{
    version     2.0;
    format      ascii;
    arch        "LSB;label=32;scalar=64";
    class       surfaceScalarField;
    location    "1700";
    object      phi;
}
// * * * * * * * * * * * * * * * * * * * * * * * * * * * * * * * * * * * * * //

dimensions      [0 3 -1 0 0 0 0];

oriented        oriented;

internalField   nonuniform List<scalar> 
116611
(
0.0012155
0.000416692
-0.00119956
-0.000432632
0.0012313
0.000412588
-0.000428385
0.00124693
0.000408163
-0.000423794
0.00126237
0.000403388
-0.000418829
0.00127757
0.000398237
-0.000413439
0.00129284
0.000392716
-0.000407986
0.0013076
0.000386799
-0.000401552
0.00132237
0.000380506
-0.000395278
0.00133675
0.000373783
-0.000388165
0.00135097
0.000366641
-0.000380861
0.0013649
0.000359029
-0.000372952
0.00137862
0.000350973
-0.000364697
0.00139207
0.000342474
-0.00035592
0.00140519
0.000333464
-0.000346588
0.00141811
0.000324008
-0.000336932
0.00143049
0.000314028
-0.000326404
0.00144275
0.000303515
-0.000315777
0.00145451
0.000292512
-0.000304273
0.00146595
0.000280877
-0.00029231
0.00147692
0.000268772
-0.00027975
0.0014876
0.000256001
-0.000266682
0.00149781
0.000242703
-0.000252913
0.00150752
0.000228768
-0.000238472
0.00151686
0.000214263
-0.000223605
0.00152571
0.000199128
-0.000207974
0.00153407
0.000183322
-0.000191684
0.00154197
0.000166838
-0.000174736
0.00154912
0.000149712
-0.000156862
0.001556
0.000131949
-0.00013883
0.00156195
0.000113455
-0.000119406
0.00156769
9.44014e-05
-0.000100139
0.00157261
7.44159e-05
-7.93345e-05
0.00157705
5.37803e-05
-5.82292e-05
0.00158074
3.24441e-05
-3.6131e-05
0.0015838
1.03065e-05
-1.33701e-05
0.00158605
-1.24969e-05
1.02533e-05
0.00158787
-3.60613e-05
3.42434e-05
0.00158896
-6.03413e-05
5.92511e-05
0.00158932
-8.53748e-05
8.50156e-05
0.00158875
-0.000111303
0.000111874
0.00158747
-0.000137851
0.000139124
0.00158566
-0.000165157
0.000166966
0.00158299
-0.000193213
0.000195889
0.00157941
-0.000222014
0.000225594
0.00157495
-0.000251559
0.000256011
0.00156982
-0.000281754
0.000286893
0.00156394
-0.000312657
0.000318534
0.00155694
-0.000344289
0.000351292
0.00154921
-0.000376515
0.000384246
0.00154063
-0.00040936
0.000417934
0.00153109
-0.000442832
0.000452369
0.00152084
-0.000476771
0.000487023
0.00150981
-0.000511228
0.000522258
0.00149783
-0.000546246
0.000558233
0.00148469
-0.000581707
0.000594839
0.00147121
-0.000617371
0.000630855
0.00145656
-0.000653532
0.000668177
0.00144129
-0.000689842
0.00070512
0.00142519
-0.000726283
0.000742379
0.00140822
-0.000762715
0.000779681
0.00139111
-0.000798893
0.000816007
0.00137307
-0.000835295
0.000853335
0.00135441
-0.000871331
0.000889992
0.00133508
-0.000906846
0.000926174
0.00131503
-0.000941487
0.000961539
0.00129463
-0.000974896
0.000995295
0.00127405
-0.00100657
0.00102715
0.00125221
-0.00103645
0.00105829
-0.00106413
0.00122912
0.00108722
0.00120081
0.000400841
-0.00118496
0.00121651
0.000396882
0.00123207
0.000392605
0.00124747
0.000387992
0.0012627
0.000383004
0.00127775
0.000377668
0.00129258
0.000371961
0.00130723
0.000365864
0.00132163
0.000359375
0.00133582
0.000352459
0.00134973
0.000345112
0.00136338
0.000337327
0.00137676
0.000329088
0.00138985
0.000320382
0.00140263
0.00031122
0.00141511
0.000301555
0.00142723
0.000291392
0.00143903
0.00028071
0.00145042
0.000269495
0.00146146
0.00025773
0.00147206
0.0002454
0.00148225
0.000232507
0.001492
0.000219024
0.00150131
0.000204951
0.00151017
0.000190269
0.00151855
0.000174943
0.00152639
0.000158991
0.00153371
0.000142396
0.00154051
0.000125146
0.00154673
0.000107236
0.0015525
8.8637e-05
0.0015576
6.93165e-05
0.00156207
4.93012e-05
0.00156594
2.85753e-05
0.00156914
7.11449e-06
0.0015717
-1.50599e-05
0.00157359
-3.79558e-05
0.00157481
-6.15616e-05
0.00157536
-8.59207e-05
0.00157511
-0.000111052
0.00157416
-0.0001369
0.00157246
-0.000163464
0.00157
-0.000190748
0.00156676
-0.000218774
0.00156272
-0.000247518
0.00155791
-0.000276944
0.00155229
-0.000307041
0.00154582
-0.000337823
0.00153856
-0.000369246
0.00153046
-0.000401269
0.00152152
-0.000433884
0.00151178
-0.000467034
0.00150125
-0.000500696
0.00148987
-0.000534865
0.00147765
-0.000569489
0.00146473
-0.000604454
0.00145097
-0.000639769
0.00143647
-0.000675346
0.00142126
-0.000711075
0.00140543
-0.000746878
0.00138915
-0.000782619
0.00137217
-0.000818315
0.00135458
-0.000853738
0.00133635
-0.000888616
0.00131747
-0.000922611
0.00129789
-0.00095531
0.00127756
-0.000986235
0.00125615
-0.00101504
-0.00104093
0.00123295
0.00118687
0.000385104
-0.00117113
0.00120248
0.000381271
0.00121795
0.000377129
0.00123328
0.000372662
0.00124843
0.000367854
0.00126341
0.000362695
0.00127819
0.000357174
0.00129278
0.00035128
0.00130715
0.000345001
0.00132129
0.000338322
0.00133517
0.000331229
0.00134879
0.000323709
0.00136213
0.000315752
0.00137517
0.000307344
0.00138791
0.000298475
0.00140034
0.000289128
0.00141244
0.000279293
0.00142419
0.000268956
0.00143558
0.000258104
0.00144659
0.000246721
0.0014572
0.000234795
0.00146739
0.000222313
0.00147715
0.000209261
0.00148647
0.000195629
0.00149534
0.000181403
0.00150372
0.000166566
0.0015116
0.00015111
0.00151897
0.000135023
0.00152582
0.000118295
0.00153215
0.000100913
0.00153792
8.28632e-05
0.00154311
6.41325e-05
0.0015477
4.47103e-05
0.00155168
2.45897e-05
0.00155504
3.76032e-06
0.00155775
-1.7772e-05
0.0015598
-4.001e-05
0.0015612
-6.29608e-05
0.00156192
-8.66391e-05
0.00156192
-0.00011105
0.0015612
-0.000136181
0.00155976
-0.000162022
0.00155758
-0.000188576
0.00155466
-0.000215848
0.00155096
-0.00024382
0.00154649
-0.000272476
0.00154125
-0.000301801
0.00153522
-0.00033179
0.00152839
-0.000362417
0.00152077
-0.00039365
0.00151236
-0.00042547
0.00150317
-0.000457844
0.00149322
-0.000490742
0.00148249
-0.000524139
0.001471
-0.000557996
0.00145879
-0.000592245
0.00144586
-0.000626845
0.00143226
-0.000661738
0.00141801
-0.00069683
0.00140317
-0.000732034
0.00138778
-0.000767232
0.00137178
-0.00080232
0.00135514
-0.000837097
0.0013378
-0.000871268
0.00131966
-0.000904477
0.00130065
-0.000936302
0.00128069
-0.000966267
0.00125956
-0.000993917
-0.00101839
0.00123702
0.00117365
0.000369438
-0.00115799
0.00118919
0.000365737
0.00120458
0.000361735
0.00121983
0.000357417
0.00123491
0.000352773
0.00124981
0.00034779
0.00126453
0.000342457
0.00127905
0.000336763
0.00129335
0.000330696
0.00130743
0.000324244
0.00132126
0.000317394
0.00133484
0.000310133
0.00134814
0.00030245
0.00136115
0.000294331
0.00137387
0.000285764
0.00138626
0.000276734
0.00139833
0.000267228
0.00141005
0.000257233
0.00142141
0.000246739
0.0014324
0.000235731
0.001443
0.000224197
0.00145319
0.000212122
0.00146296
0.000199493
0.00147229
0.000186299
0.00148117
0.000172526
0.00148957
0.000158161
0.00149749
0.000143191
0.00150491
0.000127605
0.00151181
0.000111392
0.00151819
9.45392e-05
0.00152401
7.70353e-05
0.00152928
5.88671e-05
0.00153396
4.00239e-05
0.00153806
2.04981e-05
0.00154154
2.80441e-07
0.00154439
-2.0624e-05
0.0015466
-4.22242e-05
0.00154817
-6.45269e-05
0.00154907
-8.75386e-05
0.00154928
-0.000111263
0.0015488
-0.000135697
0.00154761
-0.000160835
0.00154571
-0.000186676
0.00154308
-0.000213218
0.00153971
-0.00024045
0.0015356
-0.000268362
0.00153073
-0.000296939
0.00152511
-0.000326171
0.00151874
-0.000356038
0.0015116
-0.000386517
0.00150372
-0.000417586
0.0014951
-0.000449221
0.00148575
-0.000481392
0.00147568
-0.000514072
0.00146491
-0.000547224
0.00145346
-0.000580799
0.00144136
-0.000614745
0.00142863
-0.000649004
0.00141528
-0.000683488
0.00140135
-0.000718098
0.00138682
-0.000752701
0.00137163
-0.000787136
0.00135571
-0.000821177
0.00133896
-0.000854519
0.00132128
-0.000886797
0.00130258
-0.000917597
0.00128278
-0.000946468
0.00126183
-0.000972966
-0.000996258
0.0012397
0.00116112
0.000353832
-0.00114551
0.00117659
0.000350264
0.00119192
0.000346405
0.0012071
0.00034224
0.00122211
0.00033776
0.00123695
0.000332952
0.0012516
0.000327806
0.00126605
0.000322311
0.00128029
0.000316456
0.00129431
0.000310229
0.00130808
0.000303618
0.00132161
0.00029661
0.00133486
0.000289194
0.00134783
0.000281358
0.00136051
0.000273088
0.00137287
0.00026437
0.00138491
0.000255192
0.0013966
0.000245539
0.00140794
0.0002354
0.00141891
0.000224762
0.0014295
0.000213613
0.00143968
0.000201939
0.00144944
0.000189728
0.00145878
0.000176965
0.00146767
0.000163638
0.00147609
0.000149735
0.00148404
0.000135243
0.00149149
0.00012015
0.00149844
0.000104443
0.00150487
8.81119e-05
0.00151076
7.11434e-05
0.0015161
5.35262e-05
0.00152088
3.52499e-05
0.00152507
1.63055e-05
0.00152867
-3.31555e-06
0.00153165
-2.36096e-05
0.00153401
-4.45874e-05
0.00153574
-6.62554e-05
0.00153682
-8.86185e-05
0.00153724
-0.00011168
0.00153698
-0.000135439
0.00153604
-0.000159894
0.00153441
-0.000185042
0.00153207
-0.00021088
0.00152902
-0.000237402
0.00152526
-0.000264598
0.00152077
-0.000292456
0.00151557
-0.000320966
0.00150964
-0.000350112
0.001503
-0.000379876
0.00149565
-0.000410238
0.00148761
-0.000441176
0.00147888
-0.000472665
0.00146949
-0.000504677
0.00145944
-0.000537176
0.00144876
-0.000570116
0.00143746
-0.000603444
0.00142554
-0.000637089
0.00141301
-0.000670959
0.00139985
-0.000704933
0.001386
-0.000738855
0.00137139
-0.000772527
0.00135592
-0.0008057
0.00133946
-0.000838064
0.00132193
-0.000869268
0.00130326
-0.000898929
0.00128344
-0.000926647
0.00126251
-0.000952033
-0.000974288
0.00124054
0.00114925
0.000338278
-0.0011337
0.00116467
0.000334843
0.00117995
0.000331128
0.00119507
0.000327118
0.00121003
0.000322802
0.00122481
0.000318171
0.0012394
0.000313213
0.0012538
0.000307918
0.00126798
0.000302275
0.00128194
0.000296272
0.00129566
0.000289899
0.00130912
0.000283142
0.00132233
0.000275991
0.00133525
0.000268432
0.00134789
0.000260455
0.00136021
0.000252044
0.00137222
0.000243189
0.00138388
0.000233874
0.00139519
0.000224087
0.00140614
0.000213816
0.00141671
0.000203048
0.00142687
0.00019177
0.00143663
0.000179969
0.00144597
0.000167631
0.00145486
0.000154744
0.0014633
0.000141296
0.00147127
0.000127273
0.00147876
0.000112663
0.00148575
9.74547e-05
0.00149222
8.16349e-05
0.00149817
6.51921e-05
0.00150359
4.81149e-05
0.00150844
3.03927e-05
0.00151273
1.20159e-05
0.00151644
-7.02224e-06
0.00151955
-2.67214e-05
0.00152206
-4.70923e-05
0.00152394
-6.81416e-05
0.0015252
-8.98741e-05
0.00152581
-0.000112293
0.00152577
-0.000135399
0.00152507
-0.000159193
0.0015237
-0.000183672
0.00152165
-0.000208834
0.00151892
-0.000234674
0.00151551
-0.000261185
0.00151141
-0.000288358
0.00150663
-0.000316184
0.00150117
-0.000344649
0.00149503
-0.000373739
0.00148823
-0.000403437
0.00148078
-0.000433722
0.00147268
-0.000464571
0.00146396
-0.000495954
0.00145462
-0.000527833
0.00144466
-0.00056016
0.00143409
-0.000592871
0.00142288
-0.000625882
0.001411
-0.000659082
0.0013984
-0.000692328
0.00138498
-0.00072544
0.00137066
-0.000758201
0.00135531
-0.000790352
0.00133884
-0.000821597
0.00132119
-0.000851619
0.00130235
-0.000880087
0.00128237
-0.00090667
0.0012614
-0.000931057
-0.000952559
0.00123967
0.00113806
0.000322773
-0.00112256
0.00115344
0.00031947
0.00116867
0.000315898
0.00118374
0.000312042
0.00119865
0.000307892
0.00121339
0.000303438
0.00122793
0.000298669
0.00124228
0.000293574
0.00125641
0.000288143
0.00127031
0.000282365
0.00128398
0.000276229
0.0012974
0.000269723
0.00131056
0.000262835
0.00132344
0.000255553
0.00133603
0.000247866
0.00134831
0.00023976
0.00136028
0.000231223
0.00137191
0.000222241
0.0013832
0.000212803
0.00139412
0.000202894
0.00140466
0.000192503
0.00141482
0.000181615
0.00142457
0.000170219
0.0014339
0.000158301
0.00144279
0.000145848
0.00145124
0.000132847
0.00145923
0.000119286
0.00146674
0.000105152
0.00147376
9.04321e-05
0.00148028
7.51146e-05
0.00148629
5.91875e-05
0.00149176
4.26392e-05
0.0014967
2.5459e-05
0.00150107
7.63647e-06
0.00150488
-1.08323e-05
0.00150812
-2.99518e-05
0.00151075
-4.9732e-05
0.00151279
-7.01797e-05
0.00151422
-9.13003e-05
0.00151502
-0.000113097
0.0015152
-0.000135574
0.00151474
-0.00015873
0.00151363
-0.000182567
0.00151188
-0.000207081
0.00150948
-0.000232271
0.00150642
-0.000258132
0.00150272
-0.000284656
0.00149837
-0.000311835
0.00149338
-0.00033966
0.00148776
-0.000368117
0.00148151
-0.00039719
0.00147465
-0.000426858
0.00146717
-0.000457096
0.00145909
-0.000487871
0.00145039
-0.000519137
0.00144107
-0.000550835
0.00143109
-0.000582887
0.00142039
-0.00061519
0.00140893
-0.000647614
0.0013966
-0.000679997
0.0013833
-0.000712146
0.00136894
-0.00074384
0.00135342
-0.000774833
0.00133668
-0.00080486
0.00131872
-0.000833652
0.00129957
-0.000860939
0.00127936
-0.000886465
0.0012583
-0.000909991
-0.000930889
0.00123663
0.00112757
0.000307311
-0.00111211
0.0011429
0.00030414
0.00115809
0.00030071
0.00117312
0.000297009
0.00118799
0.000293024
0.00120268
0.000288747
0.00121718
0.000284166
0.00123148
0.000279272
0.00124557
0.000274054
0.00125944
0.000268501
0.00127307
0.000262602
0.00128644
0.000256346
0.00129956
0.000249721
0.0013124
0.000242715
0.00132494
0.000235317
0.00133719
0.000227513
0.00134912
0.000219293
0.00136072
0.000210642
0.00137197
0.000201548
0.00138287
0.000191998
0.00139339
0.000181979
0.00140353
0.000171478
0.00141327
0.000160482
0.00142259
0.000148978
0.00143149
0.000136953
0.00143994
0.000124393
0.00144794
0.000111286
0.00145547
9.76197e-05
0.00146253
8.33804e-05
0.00146908
6.85561e-05
0.00147514
5.31347e-05
0.00148067
3.71046e-05
0.00148568
2.04547e-05
0.00149014
3.17373e-06
0.00149405
-1.47396e-05
0.00149739
-3.32948e-05
0.00150016
-5.25011e-05
0.00150234
-7.23657e-05
0.00150394
-9.28947e-05
0.00150493
-0.000114093
0.00150532
-0.000135964
0.0015051
-0.00015851
0.00150427
-0.000181732
0.00150282
-0.000205631
0.00150075
-0.000230204
0.00149807
-0.000255449
0.00149477
-0.00028136
0.00149087
-0.00030793
0.00148636
-0.00033515
0.00148125
-0.000363007
0.00147554
-0.000391481
0.00146923
-0.000420551
0.00146232
-0.000450184
0.00145479
-0.000480338
0.00144661
-0.000510956
0.00143774
-0.000541964
0.00142812
-0.000573266
0.00141767
-0.000604742
0.0014063
-0.000636249
0.00139392
-0.000667617
0.00138043
-0.000698655
0.00136575
-0.000729157
0.00134982
-0.000758906
0.00133264
-0.00078768
0.00131425
-0.000815263
0.00129476
-0.000841448
0.00127434
-0.000866042
0.00125321
-0.000888866
-0.00090939
0.00123171
0.0011178
0.000291889
-0.00110237
0.00113309
0.000288849
0.00114823
0.000285562
0.00116323
0.000282014
0.00117806
0.000278194
0.00119271
0.000274093
0.00120718
0.000269701
0.00122144
0.000265007
0.00123549
0.000260001
0.00124932
0.000254673
0.00126291
0.000249011
0.00127625
0.000243005
0.00128933
0.000236643
0.00130213
0.000229913
0.00131465
0.000222803
0.00132686
0.000215301
0.00133876
0.000207395
0.00135033
0.000199072
0.00136156
0.00019032
0.00137243
0.000181126
0.00138293
0.000171476
0.00139305
0.000161358
0.00140277
0.000150758
0.00141209
0.000139663
0.00142098
0.00012806
0.00142944
0.000115936
0.00143745
0.000103277
0.001445
9.00703e-05
0.00145208
7.63034e-05
0.00145867
6.19635e-05
0.00146477
4.70381e-05
0.00147035
3.15153e-05
0.00147543
1.53836e-05
0.00147997
-1.3683e-06
0.00148397
-1.87416e-05
0.00148742
-3.67488e-05
0.00149032
-5.53993e-05
0.00149266
-7.47009e-05
0.00149442
-9.46603e-05
0.00149561
-0.000115284
0.00149623
-0.000136575
0.00149625
-0.000158539
0.0014957
-0.000181178
0.00149456
-0.000204492
0.00149284
-0.000228481
0.00149053
-0.000253143
0.00148765
-0.000278473
0.00148418
-0.000304463
0.00148013
-0.000331102
0.0014755
-0.000358373
0.00147027
-0.000386253
0.00146443
-0.000414712
0.00145795
-0.000443707
0.0014508
-0.000473184
0.00144291
-0.000503072
0.00143423
-0.000533282
0.00142467
-0.000563705
0.00141414
-0.000594214
0.00140255
-0.00062466
0.00138982
-0.000654881
0.00137587
-0.000684704
0.00136066
-0.000713949
0.00134419
-0.000742436
0.0013265
-0.000769989
0.00130768
-0.000796448
0.00128789
-0.000821658
0.00126734
-0.000845486
0.00124628
-0.000867806
-0.000888103
0.00122499
0.00110879
0.000276505
-0.0010934
0.00112404
0.000273596
0.00113915
0.00027045
0.00115411
0.000267055
0.00116891
0.0002634
0.00118352
0.000259475
0.00119795
0.00025527
0.00121219
0.000250776
0.0012262
0.000245983
0.00124
0.000240879
0.00125356
0.000235454
0.00126686
0.000229697
0.00127991
0.000223596
0.00129268
0.000217141
0.00130517
0.000210319
0.00131735
0.000203118
0.00132922
0.000195525
0.00134076
0.000187529
0.00135196
0.000179117
0.00136281
0.000170276
0.0013733
0.000160992
0.0013834
0.000151253
0.00139311
0.000141046
0.00140242
0.000130356
0.00141131
0.00011917
0.00141977
0.000107476
0.00142779
9.52584e-05
0.00143535
8.25052e-05
0.00144245
6.92029e-05
0.00144908
5.53384e-05
0.00145522
4.0899e-05
0.00146086
2.58722e-05
0.001466
1.02457e-05
0.00147062
-5.99013e-06
0.00147472
-2.28401e-05
0.00147829
-4.03173e-05
0.00148132
-5.84315e-05
0.00148381
-7.71914e-05
0.00148576
-9.66049e-05
0.00148715
-0.000116679
0.00148799
-0.000137418
0.00148828
-0.000158828
0.00148802
-0.000180912
0.0014872
-0.00020367
0.00148582
-0.000227103
0.00148388
-0.000251206
0.00148138
-0.000275972
0.00147831
-0.000301392
0.00147465
-0.000327448
0.0014704
-0.000354117
0.00146551
-0.000381368
0.00145996
-0.00040916
0.00145369
-0.00043744
0.00144665
-0.000466142
0.00143876
-0.000495183
0.00142994
-0.000524465
0.00142012
-0.000553876
0.00140919
-0.00058329
0.0013971
-0.000612569
0.00138379
-0.000641566
0.00136922
-0.000670134
0.00135339
-0.000698126
0.00133636
-0.000725399
0.00131819
-0.000751822
0.00129902
-0.00077728
0.00127903
-0.000801671
0.00125846
-0.000824915
0.00123763
-0.000846969
-0.000867367
0.00121689
0.0011006
0.000261155
-0.00108525
0.00111582
0.000258376
0.0011309
0.000255372
0.00114582
0.000252129
0.00116059
0.000248638
0.00117517
0.000244888
0.00118957
0.000240871
0.00120377
0.000236576
0.00121776
0.000231994
0.00123152
0.000227114
0.00124505
0.000221926
0.00125833
0.000216417
0.00127135
0.000210578
0.00128409
0.000204397
0.00129655
0.000197862
0.00130871
0.00019096
0.00132055
0.000183681
0.00133207
0.00017601
0.00134325
0.000167936
0.00135408
0.000159446
0.00136455
0.000150526
0.00137464
0.000141163
0.00138434
0.000131344
0.00139364
0.000121055
0.00140253
0.000110282
0.00141099
9.90116e-05
0.00141902
8.72296e-05
0.00142661
7.49225e-05
0.00143373
6.20764e-05
0.00144039
4.8678e-05
0.00144658
3.47138e-05
0.00145228
2.01707e-05
0.00145749
5.03567e-06
0.0014622
-1.06988e-05
0.0014664
-2.70429e-05
0.00147009
-4.40091e-05
0.00147327
-6.16077e-05
0.00147593
-7.98483e-05
0.00147806
-9.87391e-05
0.00147967
-0.000118287
0.00148075
-0.000138499
0.0014813
-0.000159378
0.00148132
-0.000180928
0.00148079
-0.000203147
0.00147972
-0.000226033
0.0014781
-0.000249578
0.0014759
-0.000273772
0.0014731
-0.000298597
0.00146968
-0.000324031
0.00146561
-0.000350041
0.00146083
-0.000376588
0.00145529
-0.00040362
0.00144893
-0.000431078
0.00144167
-0.000458885
0.00143344
-0.000486957
0.00142418
-0.000515197
0.00141379
-0.000543496
0.00140224
-0.000571739
0.00138948
-0.000599804
0.00137548
-0.000627569
0.00136026
-0.000654912
0.00134385
-0.000681716
0.00132632
-0.000707872
0.00130779
-0.000733286
0.00128839
-0.000757884
0.00126833
-0.000781607
0.00124784
-0.000804431
0.00122727
-0.000826398
-0.000847119
0.00120702
0.0010933
0.000245833
-0.00107798
0.00110849
0.000243184
0.00112354
0.000240321
0.00113844
0.000237231
0.00115317
0.000233903
0.00116773
0.000230329
0.0011821
0.000226498
0.00119628
0.000222403
0.00121024
0.000218032
0.00122398
0.000213375
0.00123748
0.000208422
0.00125074
0.000203162
0.00126373
0.000197584
0.00127645
0.000191676
0.00128889
0.000185427
0.00130102
0.000178824
0.00131285
0.000171856
0.00132435
0.000164509
0.00133551
0.000156772
0.00134633
0.00014863
0.00135678
0.000140072
0.00136686
0.000131082
0.00137656
0.000121648
0.00138586
0.000111755
0.00139475
0.00010139
0.00140323
9.05371e-05
0.00141127
7.91836e-05
0.00141888
6.73145e-05
0.00142604
5.49157e-05
0.00143275
4.19731e-05
0.00143899
2.84725e-05
0.00144476
1.44004e-05
0.00145005
-2.56841e-07
0.00145486
-1.55062e-05
0.00145918
-3.13615e-05
0.001463
-4.78346e-05
0.00146633
-6.49361e-05
0.00146916
-8.26755e-05
0.00147148
-0.000101061
0.00147329
-0.000120099
0.00147459
-0.000139795
0.00147536
-0.00016015
0.0014756
-0.000181165
0.00147529
-0.000202836
0.00147441
-0.000225155
0.00147294
-0.000248111
0.00147085
-0.000271686
0.00146811
-0.000295856
0.00146467
-0.000320592
0.00146049
-0.000345854
0.0014555
-0.000371596
0.00144964
-0.000397763
0.00144285
-0.00042429
0.00143507
-0.000451103
0.00142623
-0.000478119
0.00141628
-0.000505247
0.00140518
-0.000532393
0.00139289
-0.000559455
0.00137942
-0.00058633
0.00136477
-0.000612917
0.00134897
-0.000639117
0.0013321
-0.000664839
0.00131423
-0.000690002
0.00129548
-0.000714541
0.00127602
-0.000738416
0.00125601
-0.000761605
0.00123571
-0.000784132
0.00121543
-0.000806117
-0.000827575
0.00119589
0.00108697
0.000230532
-0.00107167
0.00110215
0.000228013
0.00111718
0.000225291
0.00113205
0.000222352
0.00114677
0.000219188
0.00116131
0.000215788
0.00117566
0.000212145
0.00118982
0.000208248
0.00120376
0.000204088
0.00121748
0.000199654
0.00123097
0.000194936
0.00124421
0.000189924
0.00125719
0.000184606
0.00126989
0.00017897
0.00128231
0.000173006
0.00129444
0.000166701
0.00130625
0.000160042
0.00131774
0.000153018
0.0013289
0.000145615
0.00133971
0.00013782
0.00135016
0.000129619
0.00136024
0.000120999
0.00136995
0.000111946
0.00137926
0.000102444
0.00138817
9.24807e-05
0.00139666
8.20401e-05
0.00140474
7.11078e-05
0.00141238
5.96689e-05
0.00141959
4.77085e-05
0.00142635
3.52119e-05
0.00143266
2.21646e-05
0.00143851
8.55224e-06
0.00144389
-5.63758e-06
0.0014488
-2.04144e-05
0.00145323
-3.57921e-05
0.00145718
-5.17821e-05
0.00146063
-6.83942e-05
0.0014636
-8.56371e-05
0.00146605
-0.000103517
0.00146799
-0.00012204
0.0014694
-0.000141206
0.00147027
-0.000161016
0.00147057
-0.000181466
0.00147028
-0.000202546
0.00146937
-0.000224246
0.00146781
-0.000246547
0.00146555
-0.000269428
0.00146255
-0.000292859
0.00145877
-0.000316806
0.00145414
-0.000341228
0.00144862
-0.000366075
0.00144215
-0.000391292
0.00143467
-0.000416817
0.00142615
-0.000442582
0.00141654
-0.00046851
0.00140582
-0.000494524
0.00139397
-0.000520539
0.00138098
-0.000546471
0.00136688
-0.000572232
0.00135171
-0.000597739
0.0013355
-0.000622913
0.00131835
-0.000647682
0.00130033
-0.000671986
0.00128157
-0.000695784
0.00126222
-0.000719065
0.00124245
-0.000741835
0.00122247
-0.000764151
0.0012025
-0.000786144
-0.000807817
0.00118274
0.00108175
0.000215238
-0.00106646
0.00109692
0.000212849
0.00111194
0.000210267
0.00112681
0.00020748
0.00114152
0.000204479
0.00115606
0.000201254
0.00117041
0.000197797
0.00118456
0.000194098
0.0011985
0.000190148
0.00121221
0.000185936
0.0012257
0.000181453
0.00123893
0.000176687
0.00125191
0.000171628
0.00126462
0.000166264
0.00127704
0.000160583
0.00128917
0.000154574
0.00130099
0.000148223
0.00131249
0.000141519
0.00132365
0.000134448
0.00133448
0.000126997
0.00134494
0.000119151
0.00135504
0.000110898
0.00136477
0.000102221
0.0013741
9.31079e-05
0.00138304
8.35421e-05
0.00139157
7.35089e-05
0.00139969
6.29933e-05
0.00140738
5.19799e-05
0.00141463
4.04535e-05
0.00142145
2.83991e-05
0.00142781
1.58016e-05
0.00143371
2.64667e-06
0.00143915
-1.10762e-05
0.00144412
-2.53794e-05
0.0014486
-4.02749e-05
0.00145259
-5.57727e-05
0.00145608
-7.18815e-05
0.00145905
-8.86079e-05
0.00146149
-0.000105956
0.00146338
-0.000123929
0.00146469
-0.000142524
0.00146542
-0.000161738
0.00146551
-0.000181563
0.00146496
-0.000201988
0.00146371
-0.000222996
0.00146172
-0.000244567
0.00145897
-0.000266675
0.0014554
-0.00028929
0.00145097
-0.000312377
0.00144564
-0.000335893
0.00143936
-0.000359793
0.00143209
-0.000384024
0.0014238
-0.000408531
0.00141447
-0.000433252
0.00140408
-0.000458122
0.00139263
-0.000483071
0.00138012
-0.000508029
0.00136657
-0.000532924
0.00135202
-0.000557681
0.00133652
-0.000582233
0.00132012
-0.000606514
0.00130291
-0.000630468
0.00128497
-0.000654052
0.00126643
-0.000677244
0.00124742
-0.000700052
0.00122809
-0.000722508
0.00120864
-0.000744702
0.00118932
-0.000766817
-0.00078919
0.00117069
0.00107785
0.000199931
-0.00106255
0.00109303
0.000197671
0.00110807
0.00019523
0.00112295
0.000192594
0.00113768
0.000189755
0.00115223
0.000186704
0.00116659
0.000183432
0.00118076
0.00017993
0.00119472
0.000176189
0.00120846
0.000172199
0.00122196
0.000167949
0.00123522
0.000163429
0.00124822
0.000158628
0.00126095
0.000153534
0.0012734
0.000148136
0.00128555
0.000142422
0.00129739
0.000136379
0.00130892
0.000129994
0.00132011
0.000123255
0.00133096
0.000116147
0.00134146
0.000108657
0.00135159
0.00010077
0.00136134
9.24718e-05
0.0013707
8.37475e-05
0.00137966
7.4582e-05
0.00138821
6.49598e-05
0.00139633
5.48656e-05
0.00140403
4.42839e-05
0.00141128
3.31995e-05
0.00141808
2.15972e-05
0.00142442
9.46222e-06
0.00143029
-3.2189e-06
0.00143567
-1.64561e-05
0.00144055
-3.02617e-05
0.00144492
-4.46461e-05
0.00144877
-5.96178e-05
0.00145207
-7.51839e-05
0.00145481
-9.1349e-05
0.00145697
-0.000108116
0.00145853
-0.000125483
0.00145945
-0.000143449
0.00145972
-0.000162005
0.0014593
-0.000181143
0.00145816
-0.000200848
0.00145626
-0.000221102
0.00145358
-0.000241885
0.00145008
-0.000263169
0.00144571
-0.000284926
0.00144046
-0.000307121
0.00143428
-0.000329715
0.00142715
-0.000352666
0.00141905
-0.000375928
0.00140997
-0.000399451
0.0013999
-0.000423181
0.00138884
-0.000447062
0.00137681
-0.000471035
0.00136382
-0.000495041
0.00134991
-0.000519016
0.00133513
-0.0005429
0.00131953
-0.000566635
0.00130319
-0.000590169
0.00128618
-0.000613458
0.0012686
-0.000636472
0.00125055
-0.0006592
0.00123216
-0.000681656
0.00121353
-0.00070388
0.00119474
-0.000725915
0.00117573
-0.000747808
-0.000769611
0.00115615
0.00107561
0.000184583
-0.00106026
0.00109083
0.000182451
0.00110591
0.000180149
0.00112084
0.000177664
0.00113561
0.000174987
0.0011502
0.000172109
0.00116461
0.000169023
0.00117883
0.000165719
0.00119283
0.000162187
0.00120661
0.000158418
0.00122015
0.000154403
0.00123345
0.000150129
0.00124649
0.000145588
0.00125926
0.000140767
0.00127174
0.000135654
0.00128393
0.000130238
0.0012958
0.000124507
0.00130734
0.000118448
0.00131855
0.000112046
0.00132941
0.00010529
0.0013399
9.81641e-05
0.00135002
9.06549e-05
0.00135974
8.27475e-05
0.00136906
7.44269e-05
0.00137797
6.5678e-05
0.00138644
5.64855e-05
0.00139447
4.68339e-05
0.00140205
3.67079e-05
0.00140915
2.60922e-05
0.00141578
1.49719e-05
0.00142191
3.33252e-06
0.00142753
-8.83733e-06
0.00143262
-2.15488e-05
0.00143717
-3.48129e-05
0.00144116
-4.86393e-05
0.00144458
-6.30357e-05
0.00144741
-7.80078e-05
0.00144962
-9.35594e-05
0.00145119
-0.000109692
0.00145211
-0.000126403
0.00145235
-0.000143688
0.00145189
-0.00016154
0.00145069
-0.000179948
0.00144874
-0.000198896
0.00144601
-0.000218368
0.00144246
-0.000238342
0.00143809
-0.000258793
0.00143285
-0.000279692
0.00142674
-0.000301009
0.00141973
-0.000322708
0.00141182
-0.000344751
0.00140299
-0.000367098
0.00139324
-0.000389705
0.00138259
-0.000412527
0.00137104
-0.000435515
0.00135863
-0.00045862
0.00134538
-0.000481793
0.00133135
-0.000504981
0.00131658
-0.000528135
0.00130116
-0.00055121
0.00128515
-0.000574166
0.00126866
-0.000596965
0.00125178
-0.000619589
0.0012346
-0.000642029
0.00121722
-0.000664268
0.00119961
-0.000686276
0.00118155
-0.000707848
0.00116223
-0.000728488
-0.00074707
0.00113969
0.00107548
0.000169169
-0.00106006
0.00109076
0.000167168
0.0011059
0.000165008
0.00112089
0.000162675
0.00113572
0.000160163
0.00115036
0.000157462
0.00116482
0.000154565
0.00117908
0.000151463
0.00119312
0.000148146
0.00120693
0.000144605
0.0012205
0.000140831
0.00123382
0.000136813
0.00124687
0.00013254
0.00125963
0.000128002
0.0012721
0.000123187
0.00128426
0.000118083
0.00129608
0.000112679
0.00130757
0.000106961
0.0013187
0.000100916
0.00132946
9.45319e-05
0.00133983
8.77936e-05
0.0013498
8.06871e-05
0.00135935
7.31977e-05
0.00136846
6.53105e-05
0.00137713
5.70104e-05
0.00138533
4.82818e-05
0.00139306
3.91094e-05
0.00140029
2.94777e-05
0.00140701
1.93716e-05
0.00141321
8.77589e-06
0.00141886
-2.32304e-06
0.00142396
-1.39361e-05
0.00142849
-2.60755e-05
0.00143243
-3.87521e-05
0.00143576
-5.19753e-05
0.00143848
-6.57527e-05
0.00144056
-8.00898e-05
0.00144199
-9.499e-05
0.00144275
-0.000110454
0.00144283
-0.00012648
0.00144221
-0.000143062
0.00144086
-0.000160193
0.00143877
-0.000177862
0.00143593
-0.000196053
0.00143231
-0.00021475
0.0014279
-0.000233932
0.00142269
-0.000253575
0.00141665
-0.000273653
0.00140977
-0.000294137
0.00140206
-0.000314996
0.00139351
-0.000336197
0.00138412
-0.000357705
0.00137389
-0.000379483
0.00136286
-0.000401493
0.00135104
-0.000423696
0.00133847
-0.000446053
0.00132521
-0.000468527
0.0013113
-0.000491078
0.00129684
-0.00051367
0.0012819
-0.000536272
0.00126659
-0.00055886
0.00125103
-0.000581399
0.00123531
-0.000603867
0.00121948
-0.000626199
0.00120343
-0.000648216
0.00118669
-0.000669545
0.0011681
-0.000689254
0.00114527
-0.000705656
-0.000715582
0.00111378
0.00107754
0.000153722
-0.00106209
0.00109285
0.00015186
0.001108
0.000149849
0.001123
0.000147678
0.00113782
0.00014534
0.00115246
0.000142827
0.00116689
0.00014013
0.00118112
0.000137242
0.00119511
0.000134153
0.00120886
0.000130855
0.00122235
0.000127338
0.00123557
0.000123592
0.0012485
0.000119607
0.00126113
0.000115372
0.00127345
0.000110876
0.00128542
0.000106107
0.00129704
0.000101055
0.0013083
9.57056e-05
0.00131917
9.00466e-05
0.00132964
8.40645e-05
0.00133968
7.77455e-05
0.0013493
7.10751e-05
0.00135846
6.40387e-05
0.00136714
5.66212e-05
0.00137535
4.88072e-05
0.00138305
4.0581e-05
0.00139023
3.19271e-05
0.00139688
2.28295e-05
0.00140298
1.32727e-05