/*--------------------------------*- C++ -*----------------------------------*\
| =========                 |                                                 |
| \\      /  F ield         | OpenFOAM: The Open Source CFD Toolbox           |
|  \\    /   O peration     | Version:  2312                                  |
|   \\  /    A nd           | Website:  www.openfoam.com                      |
|    \\/     M anipulation  |                                                 |
\*---------------------------------------------------------------------------*/
FoamFile
{
    version     2.0;
    format      ascii;
    arch        "LSB;label=32;scalar=64";
    class       volVectorField;
    location    "1700";
    object      U;
}
// * * * * * * * * * * * * * * * * * * * * * * * * * * * * * * * * * * * * * //

dimensions      [0 1 -1 0 0 0 0];

internalField   nonuniform List<vector> 
76025
(
(0.039707 -0.00932967 0)
(0.0399359 -0.00934783 1.89045e-22)
(0.0401663 -0.0093594 0)
(0.0403992 -0.00936588 0)
(0.0406271 -0.0093681 -2.5566e-22)
(0.0408679 -0.00935844 -3.86516e-22)
(0.0411036 -0.009347 6.00779e-22)
(0.0413443 -0.00932515 -2.30898e-22)
(0.0415833 -0.00929952 -3.70328e-23)
(0.041822 -0.00926842 1.53464e-23)
(0.0420613 -0.00922986 1.25524e-23)
(0.042303 -0.00918225 -9.65087e-23)
(0.0425474 -0.00913007 1.24907e-22)
(0.0427899 -0.00906891 0)
(0.0430378 -0.00899657 -9.35712e-23)
(0.0432785 -0.00892447 0)
(0.0435235 -0.00883604 0)
(0.043765 -0.00874888 0)
(0.0440067 -0.00864692 -1.60752e-22)
(0.0442448 -0.00854487 2.04402e-22)
(0.0444829 -0.00842867 2.25666e-22)
(0.0447218 -0.0083064 7.18729e-22)
(0.0449556 -0.00817691 -4.94751e-22)
(0.0451882 -0.00803695 -8.69896e-22)
(0.0454194 -0.00789184 -4.14153e-23)
(0.0456459 -0.00774286 -3.78109e-22)
(0.045874 -0.00757609 1.04105e-21)
(0.0460932 -0.00740635 -1.07025e-21)
(0.0463125 -0.00722448 3.747e-22)
(0.0465262 -0.00703257 -3.9515e-22)
(0.0467331 -0.00684841 -4.19181e-22)
(0.0469359 -0.00665281 9.28406e-22)
(0.0471382 -0.00643609 -1.41068e-21)
(0.0473345 -0.00622305 -2.63722e-22)
(0.0475243 -0.00599502 1.31615e-21)
(0.0477066 -0.00576882 1.12709e-23)
(0.0478841 -0.00552898 -2.69645e-22)
(0.0480603 -0.00527132 1.44412e-22)
(0.0482326 -0.00501775 7.62313e-24)
(0.0483934 -0.00475274 -2.20038e-22)
(0.0485451 -0.00448487 1.4699e-22)
(0.0486935 -0.00420231 -7.33844e-23)
(0.0488391 -0.00389851 1.47325e-22)
(0.0489755 -0.00359852 -3.02142e-22)
(0.0491 -0.00328678 -3.14811e-22)
(0.0492169 -0.00297178 6.01709e-22)
(0.0493289 -0.00263526 6.32878e-22)
(0.0494317 -0.00229574 -1.92533e-21)
(0.0495218 -0.00194751 1.24845e-21)
(0.0496042 -0.00159104 -2.16337e-23)
(0.0496768 -0.00122298 -3.22511e-21)
(0.0497383 -0.000839026 -1.25544e-21)
(0.0497923 -0.000441411 1.31562e-21)
(0.0498354 -3.03333e-05 0)
(0.0498611 0.000390583 -1.26012e-21)
(0.049877 0.000820414 -1.3203e-21)
(0.0498824 0.00127041 3.45647e-23)
(0.0498703 0.00174001 -1.27546e-21)
(0.0498402 0.0022317 1.27736e-21)
(0.0497926 0.00274424 -3.70034e-21)
(0.0497402 0.00326465 -2.54635e-21)
(0.0496661 0.00382039 -1.42402e-22)
(0.0495676 0.00440258 0)
(0.0494426 0.00501088 6.04903e-21)
(0.049285 0.00564764 -2.21854e-21)
(0.0490941 0.00631136 1.1698e-21)
(0.0488541 0.00703701 -2.18114e-21)
(0.0485578 0.00780781 2.27958e-21)
(0.0482219 0.00857148 4.20766e-21)
(0.0396784 -0.00973375 2.08051e-22)
(0.0399175 -0.00975198 5.27811e-22)
(0.0401586 -0.00976332 -7.20581e-22)
(0.040402 -0.00976814 0)
(0.0406459 -0.00976763 5.76438e-22)
(0.0408938 -0.00975893 -9.06511e-23)
(0.0411423 -0.00974435 -3.55993e-22)
(0.0413924 -0.00972212 0)
(0.0416439 -0.00969292 1.30519e-23)
(0.0418959 -0.00965698 -1.5796e-23)
(0.0421487 -0.00961408 -6.69065e-24)
(0.0424018 -0.00956332 1.61551e-23)
(0.0426552 -0.00950535 0)
(0.042909 -0.00943972 0)
(0.0431637 -0.009365 -2.57245e-22)
(0.043417 -0.00928443 6.08544e-22)
(0.0436707 -0.00919413 1.62417e-22)
(0.0439231 -0.00909749 -5.58238e-22)
(0.0441746 -0.00899179 3.72786e-22)
(0.0444238 -0.00887937 -2.09617e-22)
(0.0446718 -0.00875804 2.7775e-22)
(0.0449177 -0.0086286 -5.10819e-22)
(0.045161 -0.00849117 6.01359e-22)
(0.0454022 -0.00834491 -9.50337e-22)
(0.045641 -0.00819063 6.49092e-22)
(0.0458769 -0.00802915 1.08422e-21)
(0.0461099 -0.00785827 -7.41677e-22)
(0.0463381 -0.00768024 0)
(0.0465626 -0.00749311 0)
(0.0467833 -0.0072979 -4.66706e-22)
(0.0470008 -0.00709387 0)
(0.0472147 -0.00688275 -5.14454e-22)
(0.0474226 -0.00666269 5.31824e-22)
(0.0476247 -0.00643618 -8.16803e-22)
(0.0478211 -0.00620152 1.7027e-23)
(0.0480119 -0.00595861 -2.85488e-22)
(0.0481976 -0.00570508 0)
(0.0483778 -0.00544357 -6.16447e-22)
(0.0485524 -0.00517569 4.71149e-22)
(0.04872 -0.00490041 -3.91038e-22)
(0.0488799 -0.00461534 2.39634e-22)
(0.0490333 -0.00432001 -1.96057e-24)
(0.0491801 -0.00401765 8.82077e-23)
(0.0493195 -0.00370869 -8.21692e-23)
(0.0494508 -0.00339007 6.82628e-22)
(0.0495742 -0.0030603 -3.46275e-22)
(0.0496902 -0.00272048 -3.60946e-22)
(0.0497977 -0.0023735 6.68099e-22)
(0.0498956 -0.00201461 2.06965e-21)
(0.0499845 -0.00164346 -1.14345e-23)
(0.0500639 -0.00126132 2.06096e-21)
(0.0501327 -0.000866067 -6.97937e-22)
(0.0501922 -0.000457944 -2.06072e-21)
(0.0502417 -3.84431e-05 1.37957e-21)
(0.0502794 0.000393091 0)
(0.0503039 0.000844206 4.15705e-21)
(0.0503179 0.00130892 1.29678e-23)
(0.0503175 0.00179067 -1.36655e-21)
(0.0503031 0.00229056 -1.40182e-21)
(0.0502745 0.002811 0)
(0.0502303 0.00336071 1.26183e-21)
(0.0501724 0.00393208 3.90887e-21)
(0.0500933 0.00452653 0)
(0.0499876 0.00514951 -2.51818e-21)
(0.0498476 0.00580672 1.44491e-21)
(0.0496614 0.00650414 -2.51325e-21)
(0.0494216 0.00724321 1.2309e-21)
(0.0491142 0.00801366 -2.33435e-21)
(0.0487214 0.00883089 -2.2136e-21)
(0.0396513 -0.010165 -9.91256e-22)
(0.0399006 -0.0101826 6.10813e-22)
(0.0401527 -0.0101932 -1.58558e-22)
(0.0404073 -0.0101969 5.07768e-22)
(0.040664 -0.010194 -6.15811e-22)
(0.0409224 -0.010184 -3.15356e-22)
(0.0411825 -0.0101669 3.74951e-22)
(0.0414444 -0.0101425 0)
(0.0417078 -0.0101105 1.41497e-23)
(0.0419723 -0.0100711 0)
(0.0422374 -0.0100241 3.81385e-23)
(0.0425025 -0.00996931 -4.56536e-23)
(0.0427677 -0.0099066 -4.46263e-22)
(0.0430327 -0.00983593 3.58614e-22)
(0.0432975 -0.00975702 -1.16237e-22)
(0.0435619 -0.00967003 -4.6267e-22)
(0.0438257 -0.00957482 1.59812e-22)
(0.0440886 -0.00947127 1.86739e-22)
(0.0443503 -0.00935953 7.0006e-22)
(0.0446103 -0.00923932 -4.66892e-22)
(0.0448682 -0.00911084 -2.8238e-22)
(0.0451238 -0.00897389 6.09093e-22)
(0.0453769 -0.00882852 -2.7948e-22)
(0.0456274 -0.00867455 -3.55089e-22)
(0.0458751 -0.00851213 0)
(0.0461194 -0.00834147 4.03406e-22)
(0.0463598 -0.00816251 4.18218e-22)
(0.0465964 -0.00797508 -3.97245e-22)
(0.0468291 -0.00777892 0)
(0.0470578 -0.00757447 9.67704e-22)
(0.0472825 -0.00736132 -5.24293e-22)
(0.0475023 -0.00714071 -3.35279e-23)
(0.0477167 -0.00691228 0)
(0.0479257 -0.00667569 2.81562e-22)
(0.0481292 -0.00643107 -9.08005e-22)
(0.048327 -0.00617782 6.11261e-22)
(0.0485189 -0.005916 0)
(0.0487049 -0.00564588 4.84311e-22)
(0.0488849 -0.00536767 -4.9233e-22)
(0.0490583 -0.00508156 -8.11469e-23)
(0.0492245 -0.00478663 0)
(0.0493837 -0.00448287 -1.7111e-22)
(0.0495361 -0.00417046 -8.73397e-23)
(0.0496814 -0.00384913 8.35022e-23)
(0.049819 -0.00351848 -5.1787e-22)
(0.0499485 -0.00317814 -3.64009e-22)
(0.0500701 -0.00282809 6.97173e-22)
(0.0501836 -0.00246826 -7.24177e-22)
(0.0502883 -0.00209765 7.3843e-22)
(0.050384 -0.00171594 -7.18527e-22)
(0.0504706 -0.00132292 -7.08749e-22)
(0.0505479 -0.000917468 1.4911e-21)
(0.0506159 -0.000499111 0)
(0.0506743 -6.76569e-05 1.49194e-21)
(0.0507222 0.000377886 2.94583e-23)
(0.0507591 0.00083942 -1.45971e-21)
(0.0507854 0.00131681 -1.4518e-21)
(0.0508 0.00181211 2.87649e-21)
(0.0508019 0.00232741 -3.00691e-23)
(0.0507904 0.00286485 1.45995e-21)
(0.0507643 0.00342694 -2.89789e-21)
(0.0507222 0.00401335 -1.47197e-21)
(0.0506576 0.00462726 1.0069e-23)
(0.0505627 0.00527221 -1.35896e-21)
(0.0504283 0.00595156 -1.25826e-21)
(0.0502429 0.00666814 -4.05611e-21)
(0.0499946 0.00742565 0)
(0.0496645 0.00821918 -1.28495e-21)
(0.0492485 0.00906848 1.21606e-21)
(0.0396256 -0.0106217 0)
(0.039887 -0.0106387 1.842e-22)
(0.040151 -0.0106484 7.31299e-22)
(0.0404174 -0.0106508 -5.7015e-22)
(0.0406861 -0.0106461 -2.59464e-22)
(0.0409566 -0.0106339 4.41445e-22)
(0.041229 -0.0106142 -6.06165e-23)
(0.041503 -0.0105869 2.12718e-23)
(0.0417783 -0.0105518 1.11407e-23)
(0.0420547 -0.0105087 -1.35945e-22)
(0.0423317 -0.0104576 1.53432e-22)
(0.0426091 -0.0103984 3.37307e-22)
(0.0428867 -0.0103308 -3.03973e-23)
(0.043164 -0.0102548 -4.87418e-22)
(0.0434408 -0.0101702 4.27005e-22)
(0.0437169 -0.0100771 -1.83845e-22)
(0.043992 -0.00997557 2.09254e-22)
(0.0442658 -0.00986535 2.34632e-22)
(0.0445381 -0.00974646 -7.52064e-22)
(0.0448087 -0.00961883 2.32783e-22)
(0.0450771 -0.0094825 2.83183e-22)
(0.045343 -0.00933741 0)
(0.0456061 -0.0091836 7.43229e-22)
(0.0458663 -0.00902104 -3.60095e-22)
(0.0461231 -0.00884978 -8.12203e-22)
(0.0463764 -0.00866992 -8.8602e-22)
(0.0466257 -0.00848139 1.75227e-21)
(0.046871 -0.00828418 -9.3744e-22)
(0.047112 -0.00807834 0)
(0.0473484 -0.00786404 -1.03535e-21)
(0.0475802 -0.00764144 -2.75308e-23)
(0.0478068 -0.00741074 1.1042e-21)
(0.0480282 -0.00717182 -6.0133e-22)
(0.0482441 -0.00692464 1.54843e-21)
(0.0484543 -0.00666936 -2.99964e-22)
(0.0486585 -0.00640555 0)
(0.0488567 -0.00613331 0)
(0.0490487 -0.00585267 1.74935e-22)
(0.0492344 -0.0055638 1.682e-22)
(0.0494135 -0.00526677 9.0045e-23)
(0.0495856 -0.00496122 -2.84922e-24)
(0.0497508 -0.00464691 8.75262e-23)
(0.0499089 -0.00432378 0)
(0.0500599 -0.0039918 -9.30891e-24)
(0.0502033 -0.00365075 0)
(0.050339 -0.00330019 3.56727e-22)
(0.0504669 -0.00293978 6.51364e-24)
(0.0505869 -0.00256929 -1.14435e-21)
(0.0506986 -0.00218825 0)
(0.050802 -0.00179603 -7.63421e-22)
(0.0508968 -0.00139212 7.54078e-22)
(0.0509831 -0.000975833 -1.48526e-21)
(0.0510608 -0.000546518 0)
(0.0511297 -0.000103601 -4.57482e-21)
(0.0511895 0.000353795 2.73072e-23)
(0.0512398 0.00082709 1.50937e-21)
(0.0512804 0.0013174 1.50203e-21)
(0.0513106 0.00182622 0)
(0.0513294 0.00235547 0)
(0.0513351 0.00290719 -1.44672e-21)
(0.0513252 0.00348369 2.86835e-21)
(0.0512959 0.00408664 2.84018e-21)
(0.0512401 0.00471844 0)
(0.0511489 0.00538192 -2.9399e-21)
(0.0510115 0.00607999 0)
(0.0508155 0.0068152 4.08949e-21)
(0.0505488 0.00759048 -1.36324e-21)
(0.0501943 0.00840237 -1.35808e-21)
(0.0497492 0.00927444 -1.39145e-21)
(0.0396011 -0.0111042 0)
(0.0398758 -0.0111207 0)
(0.040153 -0.0111294 1.40478e-22)
(0.0404324 -0.0111304 -4.26445e-22)
(0.040714 -0.0111238 5.11471e-22)
(0.0409975 -0.0111093 -7.32138e-23)
(0.0412827 -0.0110869 0)
(0.0415694 -0.0110563 -2.13571e-23)
(0.0418574 -0.0110176 0)
(0.0421463 -0.0109704 1.04584e-22)
(0.042436 -0.0109148 7.2528e-23)
(0.042726 -0.0108506 -1.57017e-22)
(0.043016 -0.0107776 0)
(0.0433059 -0.0106958 3.14373e-22)
(0.0435952 -0.0106051 -1.02219e-21)
(0.0438835 -0.0105055 7.59526e-22)
(0.0441705 -0.0103969 -1.09783e-21)
(0.044456 -0.0102794 2.3459e-22)
(0.0447397 -0.0101529 -2.88242e-22)
(0.0450212 -0.0100172 2.8584e-22)
(0.0453004 -0.00987248 3.34417e-22)
(0.0455769 -0.00971868 -1.04193e-21)
(0.0458503 -0.00955586 -7.5318e-22)
(0.0461204 -0.00938404 0)
(0.0463869 -0.00920328 8.76785e-22)
(0.0466495 -0.00901364 4.83515e-22)
(0.0469079 -0.00881516 -1.39003e-21)
(0.0471619 -0.0086079 4.85141e-22)
(0.0474112 -0.00839195 -1.0766e-21)
(0.0476557 -0.00816742 1.61559e-21)
(0.047895 -0.00793442 -5.96507e-22)
(0.0481291 -0.00769306 3.11008e-22)
(0.0483576 -0.0074434 0)
(0.0485803 -0.00718549 -3.1701e-22)
(0.0487971 -0.00691948 -3.29291e-22)
(0.0490078 -0.00664489 0)
(0.0492123 -0.00636192 3.62314e-22)
(0.0494104 -0.00607064 -5.36572e-22)
(0.049602 -0.00577108 3.58429e-22)
(0.0497869 -0.00546325 -1.84176e-22)
(0.0499649 -0.00514696 -3.14214e-24)
(0.050136 -0.00482204 -1.44226e-22)
(0.0503 -0.00448836 4.70266e-23)
(0.0504569 -0.00414581 1.8708e-22)
(0.0506065 -0.00379413 6.44298e-24)
(0.0507486 -0.00343298 1.16414e-21)
(0.0508833 -0.00306202 0)
(0.0510104 -0.00268093 7.67545e-22)
(0.0511299 -0.00228926 -1.37866e-23)
(0.0512416 -0.00188644 -7.85313e-22)
(0.0513457 -0.00147191 0)
(0.0514421 -0.001045 -7.98893e-22)
(0.0515309 -0.00060497 7.88392e-22)
(0.051612 -0.000151024 1.54862e-21)
(0.0516851 0.000317836 0)
(0.05175 0.000802909 -3.12951e-21)
(0.051806 0.00130556 3.14665e-21)
(0.0518522 0.00182737 -3.13211e-21)
(0.0518867 0.00237024 -4.93357e-23)
(0.0519068 0.00293627 0)
(0.0519083 0.00352766 -1.54174e-21)
(0.0518854 0.00414649 1.47748e-21)
(0.0518301 0.00479495 1.59722e-21)
(0.0517322 0.00547543 2.89183e-21)
(0.0515807 0.00619021 -4.50458e-21)
(0.0513639 0.00694121 2.90511e-21)
(0.0510712 0.00773087 -1.4276e-21)
(0.0506883 0.00855662 1.50749e-21)
(0.0502155 0.00944438 3.99939e-21)
(0.0395771 -0.0116146 -6.95066e-22)
(0.0398661 -0.0116305 1.09247e-22)
(0.0401574 -0.0116382 5.84006e-22)
(0.040451 -0.0116377 0)
(0.0407467 -0.0116291 -8.64534e-23)
(0.0410442 -0.0116121 0)
(0.0413433 -0.0115867 2.08291e-23)
(0.0416438 -0.0115527 -5.53769e-23)
(0.0419454 -0.01151 7.6034e-23)
(0.0422479 -0.0114585 -6.97087e-23)
(0.0425508 -0.0113979 -7.60984e-23)
(0.0428541 -0.0113283 -1.25832e-22)
(0.0431572 -0.0112495 0)
(0.04346 -0.0111615 0)
(0.043762 -0.0110641 1.83142e-22)
(0.044063 -0.0109574 2.09654e-22)
(0.0443625 -0.0108414 -5.25343e-22)
(0.0446602 -0.0107159 5.25238e-22)
(0.0449558 -0.0105811 6.07164e-22)
(0.045249 -0.0104368 -6.84697e-22)
(0.0455394 -0.0102831 1.39064e-21)
(0.0458268 -0.01012 1.89287e-23)
(0.0461109 -0.00994757 -8.24075e-22)
(0.0463912 -0.0097659 -4.5224e-22)
(0.0466677 -0.00957502 -9.44915e-22)
(0.0469399 -0.00937503 9.47031e-22)
(0.0472076 -0.00916601 1.04729e-21)
(0.0474705 -0.00894807 -1.05036e-21)
(0.0477284 -0.0087213 0)
(0.0479811 -0.00848584 0)
(0.0482283 -0.00824181 1.5376e-21)
(0.0484699 -0.00798934 4.25476e-23)
(0.0487057 -0.00772855 -6.53807e-22)
(0.0489354 -0.00745951 -7.01348e-22)
(0.049159 -0.00718229 7.03248e-22)
(0.0493762 -0.0068965 0)
(0.0495871 -0.00660237 -3.59869e-22)
(0.0497914 -0.00629999 -5.73415e-22)
(0.049989 -0.00598936 3.76075e-22)
(0.0501799 -0.00567046 -5.13438e-24)
(0.0503639 -0.00534318 -3.08154e-23)
(0.050541 -0.00500739 1.44752e-22)
(0.0507111 -0.00466294 1.02006e-22)
(0.0508742 -0.00430968 2.02245e-22)
(0.0510303 -0.00394736 -1.00093e-21)
(0.0511793 -0.00357567 6.06692e-24)
(0.0513214 -0.00319429 0)
(0.0514564 -0.00280283 -8.40114e-22)
(0.0515846 -0.00240082 2.4741e-21)
(0.0517058 -0.0019877 -1.66247e-21)
(0.0518204 -0.00156287 -8.30977e-22)
(0.0519283 -0.00112559 -2.61482e-23)
(0.0520295 -0.000675052 -8.15552e-22)
(0.052124 -0.000210313 -2.09933e-23)
(0.0522115 0.000269731 1.63466e-21)
(0.0522912 0.000766411 -1.68113e-21)
(0.0523621 0.00128123 -1.6429e-21)
(0.0524222 0.00181587 3.25028e-21)
(0.0524687 0.00237227 -3.04031e-23)
(0.0524973 0.00295246 1.61268e-21)
(0.0525022 0.00355854 -1.58145e-21)
(0.0524761 0.0041925 1.53502e-21)
(0.0524101 0.0048562 -3.03777e-21)
(0.0522941 0.00555149 -1.55325e-21)
(0.0521181 0.00628002 2.95275e-21)
(0.0518721 0.00704321 -1.61202e-21)
(0.0515484 0.00784316 -4.60688e-21)
(0.0511364 0.00867803 -1.41586e-21)
(0.0506382 0.00957286 0)
(0.0395532 -0.0121552 0)
(0.0398574 -0.0121704 -1.44822e-22)
(0.040164 -0.0121769 -1.39341e-23)
(0.0404728 -0.0121747 0)
(0.0407836 -0.0121639 0)
(0.0410962 -0.0121443 -2.56379e-23)
(0.0414103 -0.0121157 -2.04462e-23)
(0.0417257 -0.012078 9.07201e-23)
(0.0420421 -0.012031 -5.25731e-23)
(0.042359 -0.0119747 6.97588e-23)
(0.0426764 -0.0119089 0)
(0.0429938 -0.0118335 1.25905e-22)
(0.0433109 -0.0117484 -1.80091e-22)
(0.0436273 -0.0116536 0)
(0.0439428 -0.0115491 0)
(0.044257 -0.0114347 2.62977e-22)
(0.0445696 -0.0113105 5.58776e-23)
(0.0448801 -0.0111765 -5.84601e-22)
(0.0451881 -0.0110327 -6.62376e-22)
(0.0454935 -0.0108791 6.95013e-22)
(0.0457957 -0.0107158 3.722e-22)
(0.0460946 -0.0105427 1.6902e-21)
(0.0463897 -0.01036 2.84405e-23)
(0.0466808 -0.0101678 -5.12219e-22)
(0.0469675 -0.00996611 9.65395e-22)
(0.0472496 -0.0097551 -5.26735e-22)
(0.0475269 -0.00953488 1.07138e-21)
(0.0477989 -0.00930557 0)
(0.0480656 -0.00906732 0)
(0.0483267 -0.00882027 0)
(0.048582 -0.0085646 -3.16067e-22)
(0.0488313 -0.00830044 -6.67921e-22)
(0.0490745 -0.00802792 6.92198e-22)
(0.0493113 -0.00774719 7.40157e-22)
(0.0495417 -0.00745819 -7.39486e-22)
(0.0497656 -0.00716072 0)
(0.0499829 -0.00685502 3.92767e-22)
(0.0501934 -0.00654115 -1.97009e-22)
(0.0503972 -0.00621913 0)
(0.0505942 -0.00588893 2.01832e-22)
(0.0507844 -0.00555049 -3.81494e-23)
(0.0509677 -0.0052037 2.54459e-23)
(0.0511443 -0.00484841 -1.01163e-22)
(0.0513142 -0.00448444 0)
(0.0514774 -0.00411157 -4.24166e-22)
(0.0516341 -0.00372949 4.19103e-22)
(0.0517844 -0.00333785 0)
(0.0519284 -0.00293623 -2.64853e-23)
(0.0520664 -0.00252414 1.3288e-23)
(0.0521984 -0.00210098 8.35839e-22)
(0.0523245 -0.00166608 0)
(0.0524449 -0.00121864 -4.075e-23)
(0.0525595 -0.000757754 -8.35408e-22)
(0.0526677 -0.000282359 -2.59256e-21)
(0.052769 0.00020877 -5.2855e-23)
(0.052862 0.00071705 1.65665e-21)
(0.0529446 0.00124408 0)
(0.0530136 0.0017916 0)
(0.0530648 0.00236148 1.7108e-21)
(0.0530926 0.00295562 0)
(0.0530898 0.00357582 0)
(0.0530486 0.00422372 -3.27775e-23)
(0.0529602 0.00490071 -1.6022e-21)
(0.0528156 0.00560807 -3.24906e-21)
(0.0526068 0.0063469 3.20239e-21)
(0.0523265 0.00711828 -1.73326e-22)
(0.0519699 0.00792402 1.46887e-21)
(0.0515302 0.00876275 1.55745e-21)
(0.0510102 0.00965769 0)
(0.0395296 -0.0127282 0)
(0.0398499 -0.0127426 1.44708e-22)
(0.0401728 -0.0127477 -2.99758e-22)
(0.0404978 -0.0127437 1.16684e-22)
(0.0408249 -0.0127305 0)
(0.0411537 -0.0127079 2.81067e-23)
(0.0414839 -0.0126758 5.95508e-23)
(0.0418153 -0.012634 6.05023e-23)
(0.0421474 -0.0125825 -3.59708e-22)
(0.0424801 -0.012521 6.04638e-23)
(0.0428129 -0.0124495 -1.48194e-22)
(0.0431455 -0.0123678 -1.78543e-22)
(0.0434775 -0.012276 5.9615e-22)
(0.0438087 -0.0121739 -8.9066e-22)
(0.0441386 -0.0120616 4.74362e-22)
(0.0444669 -0.011939 -3.25131e-22)
(0.0447932 -0.011806 1.23897e-21)
(0.0451172 -0.0116628 -2.91426e-22)
(0.0454384 -0.0115094 4.11669e-22)
(0.0457565 -0.0113458 -3.58166e-22)
(0.0460711 -0.011172 5.54243e-23)
(0.046382 -0.0109882 -2.70656e-21)
(0.0466887 -0.0107945 -5.13923e-22)
(0.046991 -0.010591 -5.31652e-23)
(0.0472885 -0.0103777 1.59305e-21)
(0.0475809 -0.010155 -5.40091e-22)
(0.047868 -0.0099228 1.19762e-21)
(0.0481495 -0.00968141 -1.83551e-21)
(0.0484253 -0.00943096 0)
(0.048695 -0.00917166 -6.77114e-22)
(0.0489586 -0.00890367 6.79342e-22)
(0.0492157 -0.00862717 2.24704e-23)
(0.0494664 -0.00834233 -3.83367e-22)
(0.0497105 -0.00804932 -3.96337e-22)
(0.0499479 -0.00774801 1.20323e-21)
(0.0501785 -0.00743839 -7.89343e-22)
(0.0504022 -0.00712067 6.19724e-22)
(0.0506192 -0.00679494 -8.22551e-22)
(0.0508293 -0.00646121 4.11605e-22)
(0.0510327 -0.0061195 -1.02532e-22)
(0.0512294 -0.00576975 0)
(0.0514195 -0.00541186 1.08178e-22)
(0.0516031 -0.0050457 -1.06934e-22)
(0.0517803 -0.00467108 -2.19224e-22)
(0.0519515 -0.00428777 6.5728e-22)
(0.0521168 -0.00389544 -4.42794e-22)
(0.0522763 -0.00349373 -4.36921e-22)
(0.0524304 -0.00308217 0)
(0.0525791 -0.00266021 -1.79745e-21)
(0.0527227 -0.0022272 1.77023e-21)
(0.0528612 -0.00178238 -8.63311e-22)
(0.0529943 -0.00132486 8.5188e-22)
(0.0531216 -0.000853615 8.92286e-22)
(0.0532421 -0.00036746 1.73458e-21)
(0.0533542 0.000134942 1.71418e-21)
(0.0534557 0.000655083 0)
(0.0535432 0.00119458 -1.78085e-21)
(0.0536123 0.00175513 0)
(0.0536576 0.00233839 5.13964e-23)
(0.0536724 0.00294594 -1.6597e-21)
(0.0536495 0.00357917 1.6779e-21)
(0.0535813 0.00423922 1.63346e-21)
(0.0534602 0.00492696 -1.70396e-21)
(0.0532794 0.00564317 -5.29848e-23)
(0.0530333 0.00638856 3.04536e-23)
(0.0527175 0.00716404 4.87103e-21)
(0.0523299 0.0079713 1.68335e-21)
(0.0518667 0.00880977 1.66546e-21)
(0.0513322 0.00970178 -1.59317e-21)
(0.0395066 -0.0133363 0)
(0.0398442 -0.0133498 0)
(0.0401844 -0.0133534 -1.48936e-22)
(0.0405268 -0.0133473 2.15928e-22)
(0.0408712 -0.0133314 1.53268e-23)
(0.0412172 -0.0133056 0)
(0.0415646 -0.0132696 0)
(0.0419131 -0.0132234 8.1383e-23)
(0.0422622 -0.0131668 -2.2959e-22)
(0.0426116 -0.0130997 -9.06914e-23)
(0.0429609 -0.013022 7.92536e-22)
(0.0433098 -0.0129336 -1.75138e-22)
(0.0436579 -0.0128344 2.36575e-22)
(0.0440048 -0.0127245 -4.75555e-22)
(0.0443502 -0.0126037 3.01563e-22)
(0.0446935 -0.0124722 0)
(0.0450346 -0.0123298 0)
(0.0453728 -0.0121767 2.70702e-23)
(0.045708 -0.0120129 -1.19654e-21)
(0.0460396 -0.0118385 4.12355e-22)
(0.0463674 -0.0116536 -4.80771e-22)
(0.0466909 -0.0114583 4.68516e-22)
(0.0470098 -0.0112527 5.21173e-22)
(0.0473237 -0.011037 -4.93792e-22)
(0.0476325 -0.0108114 -5.50747e-22)
(0.0479357 -0.010576 0)
(0.0482331 -0.0103311 0)
(0.0485245 -0.0100768 9.68782e-22)
(0.0488096 -0.0098134 0)
(0.0490882 -0.00954106 7.1701e-22)
(0.0493603 -0.00926002 -7.19067e-22)
(0.0496255 -0.00897048 -3.67172e-22)
(0.049884 -0.00867266 3.79903e-22)
(0.0501354 -0.00836678 8.09369e-22)
(0.05038 -0.00805259 -4.0023e-22)
(0.0506175 -0.00773034 -4.2315e-22)
(0.050848 -0.0074002 4.30633e-22)
(0.0510717 -0.00706226 0)
(0.0512886 -0.00671658 0)
(0.0514988 -0.00636317 1.12553e-22)
(0.0517026 -0.00600199 0)
(0.0519 -0.00563297 0)
(0.0520913 -0.00525595 -3.41043e-22)
(0.0522769 -0.00487076 4.54456e-22)
(0.0524568 -0.00447712 -2.32065e-22)
(0.0526315 -0.00407469 4.43436e-22)
(0.0528012 -0.00366304 0)
(0.052966 -0.00324166 1.38564e-21)
(0.0531261 -0.00280991 -1.42251e-23)
(0.0532813 -0.00236705 0)
(0.0534312 -0.0019122 -1.82328e-21)
(0.0535753 -0.00144437 -1.58332e-23)
(0.0537122 -0.000962395 -1.78703e-21)
(0.0538401 -0.000465012 -9.2552e-22)
(0.0539565 4.91826e-05 -1.81161e-21)
(0.0540579 0.000581669 1.77943e-21)
(0.0541398 0.00113396 1.73978e-21)
(0.054197 0.00170752 0)
(0.0542235 0.00230368 -1.76799e-21)
(0.0542127 0.00292358 2.96821e-23)
(0.0541582 0.00356809 0)
(0.0540535 0.00423786 0)
(0.0538932 0.00493331 1.66845e-21)
(0.0536728 0.00565488 0)
(0.053389 0.00640301 0)
(0.0530404 0.00717862 -1.69161e-21)
(0.052627 0.00798341 -1.61668e-21)
(0.0521471 0.00881736 -1.78361e-21)
(0.0516057 0.00970397 0)
(0.0394851 -0.0139829 0)
(0.0398411 -0.0139953 0)
(0.0401997 -0.0139972 0)
(0.0405605 -0.0139887 2.51735e-23)
(0.0409234 -0.0139698 -3.95062e-23)
(0.0412879 -0.0139403 -6.57525e-23)
(0.0416536 -0.0139001 8.97021e-23)
(0.0420203 -0.013849 -8.08863e-23)
(0.0423874 -0.0137868 1.4228e-22)
(0.0427547 -0.0137136 3.1962e-22)
(0.0431218 -0.0136291 0)
(0.0434881 -0.0135334 0)
(0.0438534 -0.0134262 -2.94495e-23)
(0.0442171 -0.0133078 8.44736e-22)
(0.0445789 -0.0131779 -1.30146e-21)
(0.0449384 -0.0130367 -6.22192e-23)
(0.0452951 -0.0128841 7.2583e-22)
(0.0456487 -0.0127204 3.89642e-22)
(0.0459986 -0.0125454 -4.16109e-23)
(0.0463446 -0.0123594 0)
(0.0466863 -0.0121624 9.97549e-22)
(0.0470231 -0.0119547 0)
(0.0473549 -0.0117364 1.11243e-21)
(0.0476813 -0.0115077 -1.75497e-21)
(0.0480018 -0.0112688 1.82991e-21)
(0.0483164 -0.0110199 6.63315e-22)
(0.0486245 -0.0107613 -1.02379e-21)
(0.0489262 -0.0104933 1.0497e-21)
(0.049221 -0.010216 -7.06265e-22)
(0.049509 -0.00992982 0)
(0.0497898 -0.00963494 -7.82831e-22)
(0.0500635 -0.00933164 -4.34874e-22)
(0.05033 -0.00902016 8.10657e-22)
(0.0505893 -0.00870074 -8.47148e-22)
(0.0508413 -0.00837317 4.34849e-22)
(0.0510862 -0.00803781 -4.30374e-22)
(0.051324 -0.00769484 -2.14593e-22)
(0.0515549 -0.00734438 2.29445e-22)
(0.0517791 -0.0069865 1.11702e-22)
(0.0519968 -0.00662123 -3.35667e-22)
(0.0522083 -0.00624854 -2.93931e-23)
(0.0524139 -0.00586834 0)
(0.0526138 -0.00548049 1.12992e-22)
(0.0528084 -0.00508475 -2.27025e-22)
(0.0529979 -0.00468082 2.27827e-22)
(0.0531826 -0.00426829 0)
(0.0533626 -0.00384665 0)
(0.0535377 -0.00341529 4.86037e-22)
(0.0537079 -0.00297347 -9.29779e-22)
(0.0538724 -0.00252032 -1.89957e-21)
(0.0540303 -0.00205486 3.73437e-21)
(0.05418 -0.00157599 -9.51531e-22)
(0.0543196 -0.00108249 9.21161e-22)
(0.0544462 -0.000573076 9.02644e-22)
(0.0545562 -4.63984e-05 -1.84973e-21)
(0.0546453 0.000498863 1.81572e-21)
(0.0547087 0.00106397 0)
(0.054741 0.00165001 -1.84765e-21)
(0.0547366 0.00225792 3.08796e-23)
(0.0546898 0.00288834 1.77023e-21)
(0.0545956 0.00354173 0)
(0.0544495 0.00421833 0)
(0.054248 0.00491823 0)
(0.0539888 0.00564165 3.57477e-21)
(0.0536711 0.00638888 1.8348e-21)
(0.0532952 0.00716078 1.76789e-21)
(0.0528636 0.00795918 -3.55186e-21)
(0.0523768 0.00878433 -8.69367e-23)
(0.0518472 0.00966647 1.86231e-21)
(0.039466 -0.0146718 0)
(0.0398416 -0.0146829 1.3021e-22)
(0.0402199 -0.0146827 -1.47227e-22)
(0.0406005 -0.0146715 -3.25033e-23)
(0.0409831 -0.0146493 4.27084e-23)
(0.0413672 -0.0146158 7.01814e-23)
(0.0417525 -0.0145708 1.04891e-22)
(0.0421386 -0.0145143 0)
(0.0425251 -0.0144462 -3.14721e-22)
(0.0429115 -0.0143662 -3.78327e-22)
(0.0432974 -0.0142743 4.11661e-22)
(0.0436823 -0.0141705 -2.75323e-22)
(0.0440659 -0.0140547 3.38757e-22)
(0.0444476 -0.0139269 -2.36658e-22)
(0.044827 -0.0137871 -1.45009e-21)
(0.0452037 -0.0136354 -6.39267e-23)
(0.0455772 -0.0134718 -6.31226e-23)
(0.045947 -0.0132965 8.61254e-22)
(0.0463128 -0.0131094 4.55713e-22)
(0.0466741 -0.0129109 1.04386e-21)
(0.0470305 -0.0127009 -9.96464e-22)
(0.0473816 -0.0124798 0)
(0.047727 -0.0122478 4.85694e-23)
(0.0480665 -0.0120051 0)
(0.0483996 -0.0117519 -6.27674e-22)
(0.048726 -0.0114886 -6.54918e-22)
(0.0490456 -0.0112154 3.40884e-22)
(0.0493581 -0.0109326 0)
(0.0496633 -0.0106406 3.93182e-22)
(0.049961 -0.0103397 7.96923e-22)
(0.0502513 -0.0100302 -7.98457e-22)
(0.0505339 -0.0097124 4.05271e-22)
(0.050809 -0.0093866 -8.71808e-22)
(0.0510766 -0.00905295 1.74281e-21)
(0.0513367 -0.00871149 -4.41188e-22)
(0.0515896 -0.00836257 0)
(0.0518353 -0.00800639 -2.3541e-22)
(0.0520742 -0.00764309 1.28125e-23)
(0.0523065 -0.00727276 3.48554e-22)
(0.0525325 -0.00689543 -2.91637e-22)
(0.0527525 -0.00651106 5.69519e-23)
(0.0529668 -0.00611954 -1.80575e-22)
(0.0531758 -0.00572067 1.18149e-22)
(0.0533795 -0.00531417 0)
(0.0535783 -0.00489965 0)
(0.0537719 -0.00447659 0)
(0.0539602 -0.00404438 4.91262e-22)
(0.0541427 -0.0036023 4.90717e-22)
(0.0543184 -0.00314949 0)
(0.0544862 -0.002685 9.49053e-22)
(0.0546443 -0.00220779 9.88777e-22)
(0.0547904 -0.00171673 9.70054e-22)
(0.0549215 -0.00121066 0)
(0.0550344 -0.000688406 0)
(0.0551249 -0.000148836 -1.88005e-21)
(0.0551887 0.000409088 1.84543e-21)
(0.0552211 0.000986275 0)
(0.0552176 0.00158343 1.79583e-21)
(0.0551734 0.0022011 -1.78675e-21)
(0.0550847 0.00283955 -1.86143e-21)
(0.0549478 0.00349895 1.82673e-21)
(0.0547601 0.00417927 -1.8011e-21)
(0.0545199 0.00488044 0)
(0.0542268 0.00560253 -1.78557e-21)
(0.0538814 0.00634564 5.50414e-23)
(0.0534856 0.00711045 -3.76718e-21)
(0.0530436 0.00789856 -3.8744e-21)
(0.0525588 0.00870968 3.85777e-21)
(0.0520439 0.00957496 -1.89982e-21)
(0.0394506 -0.0154074 3.93061e-23)
(0.0398474 -0.0154169 0)
(0.0402467 -0.0154144 1.72208e-23)
(0.0406484 -0.0154003 6.22221e-23)
(0.0410521 -0.0153743 -1.9695e-22)
(0.0414573 -0.0153363 6.30411e-23)
(0.0418636 -0.0152862 -1.03515e-22)
(0.0422705 -0.0152238 3.42391e-22)
(0.0426776 -0.0151489 -1.70017e-22)
(0.0430845 -0.0150616 -2.05109e-22)
(0.0434906 -0.0149616 -2.77775e-22)
(0.0438955 -0.014849 8.86506e-22)
(0.0442986 -0.0147238 -2.673e-22)
(0.0446996 -0.0145858 1.12734e-21)
(0.0450979 -0.0144353 4.35179e-22)
(0.0454929 -0.0142721 6.54052e-23)
(0.0458844 -0.0140965 -8.75148e-22)
(0.0462717 -0.0139086 0)
(0.0466544 -0.0137085 0)
(0.047032 -0.0134963 -5.73208e-22)
(0.0474042 -0.0132723 -5.52949e-22)
(0.0477706 -0.0130368 -1.24149e-21)
(0.0481306 -0.01279 6.30484e-22)
(0.0484841 -0.0125322 1.355e-21)
(0.0488306 -0.0122637 -1.35512e-21)
(0.0491699 -0.0119849 3.73733e-22)
(0.0495017 -0.0116961 3.87285e-22)
(0.0498258 -0.0113977 0)
(0.0501421 -0.01109 -3.85972e-22)
(0.0504505 -0.0107735 -8.35332e-22)
(0.0507509 -0.0104485 -2.34879e-23)
(0.0510433 -0.0101154 8.61265e-22)
(0.0513278 -0.00977451 -4.63198e-22)
(0.0516045 -0.00942597 0)
(0.0518735 -0.00907003 2.38211e-22)
(0.0521351 -0.00870702 -2.40697e-22)
(0.0523894 -0.00833714 2.29436e-22)
(0.0526369 -0.00796055 -4.76285e-22)
(0.0528778 -0.00757733 0)
(0.0531123 -0.00718748 -6.1928e-23)
(0.0533407 -0.00679091 6.06017e-23)
(0.0535633 -0.00638747 -9.44254e-23)
(0.05378 -0.00597686 3.66425e-22)
(0.0539908 -0.00555872 -7.33961e-22)
(0.0541956 -0.00513254 4.84811e-22)
(0.0543938 -0.00469772 4.91721e-22)
(0.0545847 -0.00425356 -4.60993e-22)
(0.0547671 -0.00379924 1.00307e-21)
(0.0549396 -0.00333387 -9.64357e-22)
(0.0551003 -0.0028565 -2.41548e-21)
(0.0552468 -0.00236615 1.5125e-23)
(0.0553764 -0.00186179 -9.38598e-22)
(0.0554858 -0.00134246 0)
(0.0555717 -0.00080721 0)
(0.0556304 -0.000255208 -1.90408e-21)
(0.0556579 0.000314262 2.80297e-21)
(0.0556505 0.000901782 -1.86271e-21)
(0.0556048 0.00150776 0)
(0.0555176 0.00213247 1.90509e-21)
(0.0553863 0.00277601 3.69556e-21)
(0.0552088 0.00343838 -1.82319e-21)
(0.0549839 0.00411947 -2.48031e-23)
(0.0547112 0.00481911 1.87275e-21)
(0.0543914 0.00553728 -2.7792e-23)
(0.0540262 0.00627376 -3.87317e-21)
(0.0536188 0.00702908 3.89881e-21)
(0.053174 0.00780408 1.98848e-21)
(0.0526989 0.00859831 0)
(0.0522 0.00942602 0)
(0.0394408 -0.0161951 -3.85632e-23)
(0.0398602 -0.0162029 -3.15087e-23)
(0.0402823 -0.0161979 2.40356e-23)
(0.0407068 -0.0161804 0)
(0.0411333 -0.0161503 -3.19215e-23)
(0.0415611 -0.0161074 -2.67304e-22)
(0.0419899 -0.0160516 1.80763e-22)
(0.0424193 -0.0159827 -5.14454e-22)
(0.0428487 -0.0159006 4.09291e-22)
(0.0432776 -0.0158052 0)
(0.0437055 -0.0156964 1.14722e-22)
(0.0441319 -0.0155742 0)
(0.0445561 -0.0154387 4.17056e-22)
(0.0449779 -0.0152897 -1.1284e-21)
(0.0453965 -0.0151274 0)
(0.0458114 -0.0149519 0)
(0.0462222 -0.0147633 0)
(0.0466284 -0.0145617 -8.05393e-22)
(0.0470294 -0.0143474 1.0803e-21)
(0.0474248 -0.0141206 5.61595e-22)
(0.0478141 -0.0138815 0)
(0.0481969 -0.0136304 0)
(0.0485728 -0.0133677 0)
(0.0489415 -0.0130937 -1.8008e-21)
(0.0493026 -0.0128087 2.17795e-21)
(0.0496559 -0.0125133 -1.10945e-21)
(0.050001 -0.0122078 -7.857e-22)
(0.0503379 -0.0118926 8.22063e-22)
(0.0506664 -0.0115682 -8.22319e-22)
(0.0509863 -0.0112351 4.45076e-22)
(0.0512978 -0.0108936 -8.94368e-22)
(0.0516008 -0.0105442 4.26373e-22)
(0.0518955 -0.0101873 9.29204e-22)