/*--------------------------------*- C++ -*----------------------------------*\
| =========                 |                                                 |
| \\      /  F ield         | OpenFOAM: The Open Source CFD Toolbox           |
|  \\    /   O peration     | Version:  2312                                  |
|   \\  /    A nd           | Website:  www.openfoam.com                      |
|    \\/     M anipulation  |                                                 |
\*---------------------------------------------------------------------------*/
FoamFile
{
    version     2.0;
    format      ascii;
    arch        "LSB;label=32;scalar=64";
    class       volScalarField;
    location    "1200";
    object      k;
}
// * * * * * * * * * * * * * * * * * * * * * * * * * * * * * * * * * * * * * //

dimensions      [0 2 -2 0 0 0 0];

internalField   nonuniform List<scalar> 
76025
(
5.01837e-06
5.01953e-06
5.0193e-06
5.02261e-06
5.02383e-06
5.02535e-06
5.02532e-06
5.02985e-06
5.03069e-06
5.03181e-06
5.02969e-06
5.02941e-06
5.02911e-06
5.0312e-06
5.03396e-06
5.03453e-06
5.04224e-06
5.04034e-06
5.03888e-06
5.03949e-06
5.04205e-06
5.04513e-06
5.04802e-06
5.05408e-06
5.06216e-06
5.06784e-06
5.07924e-06
5.08748e-06
5.10055e-06
5.11269e-06
5.12805e-06
5.14268e-06
5.16586e-06
5.18753e-06
5.214e-06
5.24024e-06
5.27101e-06
5.30882e-06
5.34692e-06
5.38867e-06
5.43229e-06
5.48372e-06
5.54069e-06
5.59955e-06
5.66096e-06
5.72695e-06
5.79607e-06
5.8697e-06
5.94767e-06
6.02941e-06
6.11842e-06
6.21538e-06
6.32087e-06
6.43544e-06
6.58302e-06
6.73599e-06
6.92221e-06
7.14495e-06
7.41836e-06
7.75961e-06
8.15993e-06
8.68094e-06
9.38012e-06
1.0254e-05
1.14888e-05
1.30091e-05
1.5002e-05
1.74462e-05
2.04539e-05
5.11549e-06
5.12052e-06
5.12467e-06
5.12936e-06
5.132e-06
5.13606e-06
5.13829e-06
5.14183e-06
5.14487e-06
5.14751e-06
5.14975e-06
5.15298e-06
5.15749e-06
5.16336e-06
5.17198e-06
5.1776e-06
5.19172e-06
5.18924e-06
5.18859e-06
5.18839e-06
5.19136e-06
5.19702e-06
5.20422e-06
5.21412e-06
5.22483e-06
5.23859e-06
5.25787e-06
5.27561e-06
5.29186e-06
5.30695e-06
5.32382e-06
5.34167e-06
5.36306e-06
5.38577e-06
5.41088e-06
5.43838e-06
5.46828e-06
5.50161e-06
5.5374e-06
5.57662e-06
5.62023e-06
5.66753e-06
5.71877e-06
5.77385e-06
5.83375e-06
5.89851e-06
5.96805e-06
6.04328e-06
6.1261e-06
6.21774e-06
6.31866e-06
6.43272e-06
6.56058e-06
6.70768e-06
6.87622e-06
7.07485e-06
7.30861e-06
7.58529e-06
7.92255e-06
8.32644e-06
8.8409e-06
9.48361e-06
1.0328e-05
1.13996e-05
1.283e-05
1.45801e-05
1.68688e-05
1.94402e-05
2.27942e-05
5.23563e-06
5.23798e-06
5.24048e-06
5.24518e-06
5.25013e-06
5.25632e-06
5.26216e-06
5.26831e-06
5.27461e-06
5.28062e-06
5.28664e-06
5.29216e-06
5.29899e-06
5.30529e-06
5.3137e-06
5.32113e-06
5.32938e-06
5.33481e-06
5.3395e-06
5.34438e-06
5.35037e-06
5.35828e-06
5.36797e-06
5.37959e-06
5.39268e-06
5.4075e-06
5.42499e-06
5.44333e-06
5.46169e-06
5.48019e-06
5.5002e-06
5.52159e-06
5.54493e-06
5.57002e-06
5.5971e-06
5.62643e-06
5.65836e-06
5.69326e-06
5.73135e-06
5.77301e-06
5.81883e-06
5.86923e-06
5.92416e-06
5.98449e-06
6.05023e-06
6.12205e-06
6.20065e-06
6.28712e-06
6.38302e-06
6.48976e-06
6.60912e-06
6.74377e-06
6.89634e-06
7.07106e-06
7.27214e-06
7.50788e-06
7.78394e-06
8.11532e-06
8.51658e-06
9.01117e-06
9.63577e-06
1.04199e-05
1.14419e-05
1.272e-05
1.43752e-05
1.63536e-05
1.88412e-05
2.16003e-05
2.50915e-05
5.38694e-06
5.38804e-06
5.39671e-06
5.39704e-06
5.3985e-06
5.40063e-06
5.40413e-06
5.40881e-06
5.41448e-06
5.42202e-06
5.43126e-06
5.44042e-06
5.44953e-06
5.45781e-06
5.4661e-06
5.47448e-06
5.48441e-06
5.49505e-06
5.50546e-06
5.51574e-06
5.52623e-06
5.5375e-06
5.54986e-06
5.5635e-06
5.57855e-06
5.5949e-06
5.61296e-06
5.63218e-06
5.6524e-06
5.6736e-06
5.69622e-06
5.72043e-06
5.74649e-06
5.77456e-06
5.80487e-06
5.83772e-06
5.87345e-06
5.91248e-06
5.95512e-06
6.00185e-06
6.05309e-06
6.10958e-06
6.17143e-06
6.23976e-06
6.31462e-06
6.39688e-06
6.48751e-06
6.58781e-06
6.69931e-06
6.82395e-06
6.96382e-06
7.12202e-06
7.30182e-06
7.50842e-06
7.74745e-06
8.02852e-06
8.36147e-06
8.76381e-06
9.25507e-06
9.86477e-06
1.06314e-05
1.15933e-05
1.28175e-05
1.43186e-05
1.61979e-05
1.83819e-05
2.10554e-05
2.39421e-05
2.75279e-05
5.56699e-06
5.57606e-06
5.5829e-06
5.586e-06
5.59053e-06
5.59589e-06
5.60157e-06
5.60959e-06
5.62695e-06
5.63297e-06
5.62895e-06
5.63077e-06
5.63806e-06
5.6506e-06
5.66958e-06
5.69826e-06
5.70861e-06
5.70344e-06
5.70506e-06
5.71203e-06
5.7222e-06
5.73476e-06
5.75005e-06
5.76759e-06
5.78651e-06
5.80661e-06
5.8278e-06
5.85002e-06
5.87337e-06
5.89799e-06
5.92412e-06
5.95199e-06
5.98185e-06
6.014e-06
6.04875e-06
6.08643e-06
6.12742e-06
6.17217e-06
6.22107e-06
6.27469e-06
6.33346e-06
6.39818e-06
6.46927e-06
6.54781e-06
6.63431e-06
6.72958e-06
6.83485e-06
6.95167e-06
7.08185e-06
7.22778e-06
7.39212e-06
7.57875e-06
7.79197e-06
8.03861e-06
8.326e-06
8.66671e-06
9.07345e-06
9.56875e-06
1.0175e-05
1.09283e-05
1.18652e-05
1.30264e-05
1.4463e-05
1.61853e-05
1.82705e-05
2.06364e-05
2.34577e-05
2.64282e-05
3.00634e-05
5.77078e-06
5.77915e-06
5.78725e-06
5.79442e-06
5.80103e-06
5.80822e-06
5.81483e-06
5.82219e-06
5.83078e-06
5.83825e-06
5.84437e-06
5.85312e-06
5.8641e-06
5.87741e-06
5.89459e-06
5.91526e-06
5.94636e-06
5.96477e-06
5.97438e-06
5.98464e-06
6.00368e-06
6.04571e-06
6.06315e-06
6.05577e-06
6.05964e-06
6.07236e-06
6.09051e-06
6.11241e-06
6.13721e-06
6.16447e-06
6.19404e-06
6.22596e-06
6.26039e-06
6.29763e-06
6.33799e-06
6.3818e-06
6.42945e-06
6.48144e-06
6.53821e-06
6.60037e-06
6.66849e-06
6.74336e-06
6.82576e-06
6.9167e-06
7.01729e-06
7.12828e-06
7.25123e-06
7.38807e-06
7.5411e-06
7.71331e-06
7.90831e-06
8.13106e-06
8.38755e-06
8.68648e-06
9.03792e-06
9.45745e-06
9.9615e-06
1.05767e-05
1.13275e-05
1.2253e-05
1.33833e-05
1.47579e-05
1.6407e-05
1.834e-05
2.0606e-05
2.31236e-05
2.60509e-05
2.90605e-05
3.27083e-05
6.02922e-06
6.03215e-06
6.03629e-06
6.04104e-06
6.04625e-06
6.05369e-06
6.06302e-06
6.07324e-06
6.08361e-06
6.09428e-06
6.105e-06
6.11735e-06
6.1325e-06
6.14882e-06
6.16685e-06
6.18626e-06
6.20952e-06
6.23537e-06
6.26303e-06
6.28443e-06
6.32333e-06
6.36064e-06
6.38019e-06
6.434e-06
6.4532e-06
6.4321e-06
6.42742e-06
6.43962e-06
6.46161e-06
6.48884e-06
6.5202e-06
6.55535e-06
6.59423e-06
6.63696e-06
6.68372e-06
6.73469e-06
6.79021e-06
6.85073e-06
6.91679e-06
6.98903e-06
7.06825e-06
7.15528e-06
7.2513e-06
7.35732e-06
7.47517e-06
7.60564e-06
7.7507e-06
7.91283e-06
8.09508e-06
8.30138e-06
8.53666e-06
8.80745e-06
9.12188e-06
9.49104e-06
9.9281e-06
1.04516e-05
1.10812e-05
1.18456e-05
1.27694e-05
1.38896e-05
1.52268e-05
1.68159e-05
1.86659e-05
2.07882e-05
2.32002e-05
2.58352e-05
2.88185e-05
3.18288e-05
3.5419e-05
6.33284e-06
6.33977e-06
6.34918e-06
6.36397e-06
6.3882e-06
6.39676e-06
6.39272e-06
6.39511e-06
6.40194e-06
6.41186e-06
6.42395e-06
6.43766e-06
6.45409e-06
6.47134e-06
6.49055e-06
6.50948e-06
6.53161e-06
6.55423e-06
6.58109e-06
6.6093e-06
6.64287e-06
6.67831e-06
6.71094e-06
6.75845e-06
6.79777e-06
6.84273e-06
6.86715e-06
6.94412e-06
6.97436e-06
6.95223e-06
6.95354e-06
6.97511e-06
7.00999e-06
7.05454e-06
7.10634e-06
7.16397e-06
7.22721e-06
7.29644e-06
7.37236e-06
7.45575e-06
7.54768e-06
7.64919e-06
7.76184e-06
7.88682e-06
8.02647e-06
8.1821e-06
8.35607e-06
8.55166e-06
8.77299e-06
9.02531e-06
9.31528e-06
9.65143e-06
1.00443e-05
1.05076e-05
1.10572e-05
1.17137e-05
1.24986e-05
1.34394e-05
1.45578e-05
1.58848e-05
1.74305e-05
1.9223e-05
2.12519e-05
2.35335e-05
2.60507e-05
2.87649e-05
3.17472e-05
3.47204e-05
3.81571e-05
6.69834e-06
6.70983e-06
6.72205e-06
6.73568e-06
6.74983e-06
6.76099e-06
6.76903e-06
6.77711e-06
6.78645e-06
6.79758e-06
6.8106e-06
6.82555e-06
6.84288e-06
6.86195e-06
6.88294e-06
6.90439e-06
6.92799e-06
6.95177e-06
6.97931e-06
7.00693e-06
7.04135e-06
7.07348e-06
7.11312e-06
7.15658e-06
7.20433e-06
7.25004e-06
7.28951e-06
7.3278e-06
7.36267e-06
7.39424e-06
7.42883e-06
7.47067e-06
7.52249e-06
7.58457e-06
7.64829e-06
7.71029e-06
7.77641e-06
7.84986e-06
7.93262e-06
8.02602e-06
8.13142e-06
8.25005e-06
8.3834e-06
8.53309e-06
8.70129e-06
8.89065e-06
9.10381e-06
9.34512e-06
9.62011e-06
9.93572e-06
1.03005e-05
1.07253e-05
1.12227e-05
1.18085e-05
1.25004e-05
1.3319e-05
1.42851e-05
1.54219e-05
1.67458e-05
1.82791e-05
2.0022e-05
2.19952e-05
2.41725e-05
2.65745e-05
2.91516e-05
3.19006e-05
3.48192e-05
3.77051e-05
4.09262e-05
7.14304e-06
7.15792e-06
7.17324e-06
7.18904e-06
7.20455e-06
7.21913e-06
7.23273e-06
7.24603e-06
7.25964e-06
7.27404e-06
7.2895e-06
7.3064e-06
7.32507e-06
7.34571e-06
7.36838e-06
7.39277e-06
7.41909e-06
7.44703e-06
7.4773e-06
7.50917e-06
7.54507e-06
7.58248e-06
7.62336e-06
7.66912e-06
7.72011e-06
7.77212e-06
7.82793e-06
7.8829e-06
7.94381e-06
8.00518e-06
8.06634e-06
8.1404e-06
8.24539e-06
8.41158e-06
8.48584e-06
8.47516e-06
8.50285e-06
8.55823e-06
8.6368e-06
8.73607e-06
8.85568e-06
8.99564e-06
9.15634e-06
9.33934e-06
9.54667e-06
9.78239e-06
1.00497e-05
1.03543e-05
1.07032e-05
1.11052e-05
1.15706e-05
1.21119e-05
1.27434e-05
1.34813e-05
1.43431e-05
1.53474e-05
1.65114e-05
1.78519e-05
1.93788e-05
2.11044e-05
2.30213e-05
2.51417e-05
2.74283e-05
2.99035e-05
3.24912e-05
3.52224e-05
3.80076e-05
4.0762e-05
4.36656e-05
7.69326e-06
7.7107e-06
7.72873e-06
7.74748e-06
7.76626e-06
7.78485e-06
7.80329e-06
7.82184e-06
7.84072e-06
7.86018e-06
7.88033e-06
7.90141e-06
7.9237e-06
7.94749e-06
7.97308e-06
8.00062e-06
8.03018e-06
8.06202e-06
8.09618e-06
8.13247e-06
8.17209e-06
8.21429e-06
8.25984e-06
8.30975e-06
8.36365e-06
8.42162e-06
8.48252e-06
8.5457e-06
8.61301e-06
8.68318e-06
8.75525e-06
8.8329e-06
8.91912e-06
9.0203e-06
9.11752e-06
9.20352e-06
9.2879e-06
9.38065e-06
9.48797e-06
9.61421e-06
9.76407e-06
9.93913e-06
1.01406e-05
1.03709e-05
1.06335e-05
1.09331e-05
1.12754e-05
1.16666e-05
1.21152e-05
1.26312e-05
1.32263e-05
1.39134e-05
1.4707e-05
1.56221e-05
1.66739e-05
1.78764e-05
1.92416e-05
2.07787e-05
2.24912e-05
2.43815e-05
2.64369e-05
2.86606e-05
3.10089e-05
3.35022e-05
3.60469e-05
3.86947e-05
4.1278e-05
4.3846e-05
4.62762e-05
8.3847e-06
8.40495e-06
8.42587e-06
8.44779e-06
8.47017e-06
8.49281e-06
8.51579e-06
8.53928e-06
8.56342e-06
8.58835e-06
8.61413e-06
8.64086e-06
8.66872e-06
8.69787e-06
8.72873e-06
8.76144e-06
8.7965e-06
8.83374e-06
8.87422e-06
8.91655e-06
8.96237e-06
9.01075e-06
9.06343e-06
9.12036e-06
9.18173e-06
9.24888e-06
9.31976e-06
9.39705e-06
9.48151e-06
9.5708e-06
9.66455e-06
9.77054e-06
9.89011e-06
1.00864e-05
1.02381e-05
1.03353e-05
1.04019e-05
1.04957e-05
1.06178e-05
1.07713e-05
1.09572e-05
1.1177e-05
1.14328e-05
1.17276e-05
1.20656e-05
1.24523e-05
1.28942e-05
1.33992e-05
1.39757e-05
1.46342e-05
1.53862e-05
1.62441e-05
1.72203e-05
1.83269e-05
1.95747e-05
2.09723e-05
2.25254e-05
2.42357e-05
2.61007e-05
2.81143e-05
3.02607e-05
3.25334e-05
3.48875e-05
3.7335e-05
3.97772e-05
4.2262e-05
4.45716e-05
4.6851e-05
4.81608e-05
9.26541e-06
9.28988e-06
9.31496e-06
9.34117e-06
9.36806e-06
9.39549e-06
9.42355e-06
9.45239e-06
9.48213e-06
9.51291e-06
9.54483e-06
9.57799e-06
9.61252e-06
9.64846e-06
9.68618e-06
9.7258e-06
9.76815e-06
9.8128e-06
9.86056e-06
9.91107e-06
9.96535e-06
1.00231e-05
1.00854e-05
1.01523e-05
1.02244e-05
1.03022e-05
1.03853e-05
1.04746e-05
1.05708e-05
1.06735e-05
1.07824e-05
1.08995e-05
1.10257e-05
1.11681e-05
1.13169e-05
1.14682e-05
1.16276e-05
1.18041e-05
1.20045e-05
1.2234e-05
1.24972e-05
1.2798e-05
1.3141e-05
1.35312e-05
1.39743e-05
1.44772e-05
1.50472e-05
1.56928e-05
1.64232e-05
1.72474e-05
1.81756e-05
1.92175e-05
2.03824e-05
2.16778e-05
2.31093e-05
2.46798e-05
2.63885e-05
2.82314e-05
3.02002e-05
3.22828e-05
3.4461e-05
3.67189e-05
3.90149e-05
4.13411e-05
4.36198e-05
4.58314e-05
4.77906e-05
4.90288e-05
4.89578e-05
1.04042e-05
1.04353e-05
1.0467e-05
1.04999e-05
1.05335e-05
1.05679e-05
1.06031e-05
1.06393e-05
1.06766e-05
1.07152e-05
1.07552e-05
1.07968e-05
1.08402e-05
1.08855e-05
1.09329e-05
1.09822e-05
1.10341e-05
1.10887e-05
1.11468e-05
1.12085e-05
1.12745e-05
1.13451e-05
1.14209e-05
1.15025e-05
1.15903e-05
1.16848e-05
1.17864e-05
1.18955e-05
1.20129e-05
1.21391e-05
1.22749e-05
1.24214e-05
1.25802e-05
1.27533e-05
1.29423e-05
1.31493e-05
1.33777e-05
1.36318e-05
1.39162e-05
1.42355e-05
1.45947e-05
1.49986e-05
1.54528e-05
1.59632e-05
1.65363e-05
1.71791e-05
1.78992e-05
1.87043e-05
1.96024e-05
2.06011e-05
2.17077e-05
2.29281e-05
2.42668e-05
2.57268e-05
2.73081e-05
2.90088e-05
3.0822e-05
3.27409e-05
3.47496e-05
3.68365e-05
3.8975e-05
4.11494e-05
4.33095e-05
4.54317e-05
4.74818e-05
4.92342e-05
5.00416e-05
4.98801e-05
4.89376e-05
1.1908e-05
1.19496e-05
1.19917e-05
1.20352e-05
1.20797e-05
1.21251e-05
1.21716e-05
1.22194e-05
1.22687e-05
1.23196e-05
1.23725e-05
1.24272e-05
1.24838e-05
1.25426e-05
1.26038e-05
1.26677e-05
1.27348e-05
1.28055e-05
1.28804e-05
1.296e-05
1.30449e-05
1.31357e-05
1.32332e-05
1.33381e-05
1.34511e-05
1.3573e-05
1.37045e-05
1.38466e-05
1.40001e-05
1.41664e-05
1.43466e-05
1.45425e-05
1.4756e-05
1.49894e-05
1.52455e-05
1.55276e-05
1.58393e-05
1.61846e-05
1.65678e-05
1.69935e-05
1.74665e-05
1.7992e-05
1.85756e-05
1.92232e-05
1.99409e-05
2.07351e-05
2.1612e-05
2.25779e-05
2.36383e-05
2.47979e-05
2.60606e-05
2.74283e-05
2.89014e-05
3.04784e-05
3.21537e-05
3.39233e-05
3.57727e-05
3.76982e-05
3.96698e-05
4.16905e-05
4.37038e-05
4.57286e-05
4.7642e-05
4.95151e-05
5.09273e-05
5.1306e-05
5.08641e-05
4.9848e-05
4.67505e-05
1.39536e-05
1.40124e-05
1.40718e-05
1.4133e-05
1.41954e-05
1.42592e-05
1.43244e-05
1.43911e-05
1.44594e-05
1.45297e-05
1.46022e-05
1.46772e-05
1.4755e-05
1.4836e-05
1.49204e-05
1.50087e-05
1.51014e-05
1.51991e-05
1.53023e-05
1.54117e-05
1.55282e-05
1.56524e-05
1.57853e-05
1.59278e-05
1.60809e-05
1.62458e-05
1.64234e-05
1.66152e-05
1.68224e-05
1.70467e-05
1.72897e-05
1.75536e-05
1.78405e-05
1.81531e-05
1.84945e-05
1.8868e-05
1.92773e-05
1.97264e-05
2.02194e-05
2.07608e-05
2.13553e-05
2.20075e-05
2.27225e-05
2.35054e-05
2.4361e-05
2.52942e-05
2.63093e-05
2.741e-05
2.85992e-05
2.98784e-05
3.12481e-05
3.27065e-05
3.42507e-05
3.58758e-05
3.75715e-05
3.93346e-05
4.11383e-05
4.29937e-05
4.48394e-05
4.67229e-05
4.85125e-05
5.03242e-05
5.18563e-05
5.28113e-05
5.26249e-05
5.2001e-05
5.00776e-05
4.75304e-05
3.86081e-05
1.68519e-05
1.69395e-05
1.70276e-05
1.71176e-05
1.72089e-05
1.73018e-05
1.73966e-05
1.74937e-05
1.75933e-05
1.76957e-05
1.78014e-05
1.79106e-05
1.80237e-05
1.81412e-05
1.82635e-05
1.83911e-05
1.85246e-05
1.86646e-05
1.88118e-05
1.8967e-05
1.91309e-05
1.93046e-05
1.94888e-05
1.96847e-05
1.98935e-05
2.01162e-05
2.03543e-05
2.06092e-05
2.08825e-05
2.1176e-05
2.14916e-05
2.18314e-05
2.2198e-05
2.2594e-05
2.30224e-05
2.34867e-05
2.39902e-05
2.45367e-05
2.51301e-05
2.57744e-05
2.64734e-05
2.72313e-05
2.80519e-05
2.8939e-05
2.98958e-05
3.09253e-05
3.20296e-05
3.321e-05
3.44667e-05
3.57982e-05
3.72029e-05
3.86748e-05
4.02094e-05
4.17995e-05
4.34282e-05
4.51014e-05
4.67659e-05
4.84763e-05
5.00959e-05
5.17805e-05
5.32401e-05
5.43859e-05
5.45426e-05
5.41136e-05
5.29723e-05
5.10363e-05
4.6206e-05
4.13979e-05
2.97169e-05
2.11778e-05
2.13127e-05
2.14483e-05
2.15858e-05
2.17248e-05
2.18654e-05
2.20082e-05
2.21534e-05
2.23015e-05
2.24528e-05
2.26077e-05
2.27664e-05
2.29295e-05
2.30974e-05
2.32705e-05
2.34493e-05
2.36344e-05
2.38263e-05
2.40257e-05
2.42334e-05
2.44501e-05
2.46767e-05
2.49141e-05
2.51634e-05
2.54256e-05
2.57021e-05
2.59942e-05
2.63034e-05
2.66315e-05
2.69802e-05
2.73518e-05
2.77484e-05
2.81725e-05
2.86269e-05
2.91147e-05
2.96388e-05
3.02027e-05
3.08094e-05
3.14624e-05
3.2165e-05
3.29202e-05
3.3731e-05
3.46002e-05
3.55301e-05
3.65224e-05
3.75781e-05
3.86974e-05
3.98796e-05
4.11221e-05
4.24209e-05
4.37739e-05
4.51691e-05
4.66039e-05
4.80687e-05
4.95348e-05
5.10336e-05
5.24542e-05
5.39667e-05
5.52486e-05
5.63923e-05
5.66151e-05
5.6212e-05
5.53749e-05
5.37205e-05
5.05562e-05
4.61193e-05
3.80991e-05
2.98742e-05
1.82178e-05
2.79899e-05
2.81873e-05
2.83833e-05
2.85791e-05
2.87742e-05
2.89687e-05
2.91631e-05
2.93578e-05
2.95533e-05
2.97498e-05
2.99477e-05
3.01475e-05
3.03494e-05
3.0554e-05
3.07615e-05
3.09724e-05
3.11874e-05
3.14068e-05
3.16315e-05
3.18622e-05
3.20996e-05
3.23447e-05
3.25985e-05
3.28621e-05
3.31367e-05
3.34237e-05
3.37247e-05
3.40412e-05
3.43753e-05
3.47288e-05
3.51041e-05
3.55036e-05
3.59295e-05
3.63848e-05
3.68724e-05
3.73948e-05
3.79549e-05
3.85553e-05
3.91985e-05
3.98871e-05
4.06236e-05
4.14098e-05
4.22477e-05
4.3138e-05
4.40811e-05
4.50764e-05
4.61227e-05
4.72161e-05
4.83515e-05
4.9524e-05
5.07336e-05
5.19533e-05
5.3198e-05
5.44449e-05
5.56443e-05
5.68971e-05
5.79709e-05
5.89684e-05
5.89887e-05
5.85786e-05
5.77038e-05
5.62982e-05
5.38702e-05
4.98011e-05
4.41722e-05
3.60256e-05
2.6661e-05
1.79605e-05
1.06439e-05
3.84538e-05
3.86824e-05
3.89051e-05
3.91207e-05
3.93297e-05
3.95327e-05
3.97311e-05
3.99255e-05
4.01166e-05
4.03051e-05
4.04913e-05
4.06752e-05
4.0857e-05
4.10372e-05
4.12161e-05
4.13945e-05
4.15729e-05
4.17522e-05
4.19332e-05
4.21169e-05
4.23042e-05
4.24964e-05
4.26945e-05
4.29e-05
4.31143e-05
4.33389e-05
4.35756e-05
4.38263e-05
4.4093e-05
4.43778e-05
4.46831e-05
4.5011e-05
4.5362e-05
4.57415e-05
4.61513e-05
4.6592e-05
4.70657e-05
4.7575e-05
4.8122e-05
4.8709e-05
4.93382e-05
5.00107e-05
5.07276e-05
5.14876e-05
5.22906e-05
5.3134e-05
5.40156e-05
5.49238e-05
5.58537e-05
5.68083e-05
5.77857e-05
5.8719e-05
5.97071e-05
6.06321e-05
6.14655e-05
6.19082e-05
6.17495e-05
6.11536e-05
6.01407e-05
5.87737e-05
5.65384e-05
5.30684e-05
4.79171e-05
4.1156e-05
3.25785e-05
2.34989e-05
1.54434e-05
9.83346e-06
7.16039e-06
5.27727e-05
5.2908e-05
5.30426e-05
5.31759e-05
5.33061e-05
5.34326e-05
5.35555e-05
5.36748e-05
5.37905e-05
5.39028e-05
5.40075e-05
5.41018e-05
5.41875e-05
5.42661e-05
5.43389e-05
5.44072e-05
5.44722e-05
5.45352e-05
5.45971e-05
5.46591e-05
5.47224e-05
5.47882e-05
5.48577e-05
5.49326e-05
5.50142e-05
5.51044e-05
5.52048e-05
5.53174e-05
5.54443e-05
5.55875e-05
5.57488e-05
5.59285e-05
5.61172e-05
5.63455e-05
5.65978e-05
5.68654e-05
5.71593e-05
5.74844e-05
5.78424e-05
5.82369e-05
5.867e-05
5.91414e-05
5.9651e-05
6.01919e-05
6.07689e-05
6.13738e-05
6.20003e-05
6.26123e-05
6.32413e-05
6.39165e-05
6.45679e-05
6.50858e-05
6.54484e-05
6.53125e-05
6.48247e-05
6.38654e-05
6.26991e-05
6.11659e-05
5.88418e-05
5.54739e-05
5.07924e-05
4.43517e-05
3.67212e-05
2.79629e-05
1.95728e-05
1.25949e-05
8.24854e-06
6.19563e-06
5.88765e-06
7.0086e-05
7.0041e-05
6.99955e-05
6.99492e-05
6.99006e-05
6.98494e-05
6.97954e-05
6.97384e-05
6.96782e-05
6.96147e-05
6.95473e-05
6.94754e-05
6.93989e-05
6.93179e-05
6.92326e-05
6.91437e-05
6.90513e-05
6.89555e-05
6.88563e-05
6.87542e-05
6.865e-05
6.85447e-05
6.84396e-05
6.83359e-05
6.82354e-05
6.81395e-05
6.80501e-05
6.79688e-05
6.78976e-05
6.78377e-05
6.77881e-05
6.77379e-05
6.76308e-05
6.7707e-05
6.77246e-05
6.7665e-05
6.76732e-05
6.77247e-05
6.78044e-05
6.79308e-05
6.8098e-05
6.82984e-05
6.85284e-05
6.87662e-05
6.90559e-05
6.93404e-05
6.95954e-05
6.9744e-05
7.00191e-05
6.99185e-05
6.9566e-05
6.88595e-05
6.78512e-05
6.66811e-05
6.53002e-05
6.3431e-05
6.07871e-05
5.72623e-05
5.23905e-05
4.6386e-05
3.88555e-05
3.0755e-05
2.24812e-05
1.50532e-05
9.66393e-06
6.54204e-06
5.02071e-06
4.96133e-06
5.46869e-06
8.93243e-05
8.90554e-05
8.87853e-05
8.85118e-05
8.82381e-05
8.79628e-05
8.76848e-05
8.7404e-05
8.71202e-05
8.68328e-05
8.65416e-05
8.62462e-05
8.59461e-05
8.56416e-05
8.53328e-05
8.502e-05
8.4702e-05
8.43693e-05
8.40212e-05
8.36604e-05
8.32891e-05
8.29096e-05
8.25239e-05
8.21342e-05
8.17424e-05
8.13504e-05
8.09603e-05
8.0574e-05
8.01934e-05
7.98205e-05
7.94579e-05
7.91028e-05
7.8759e-05
7.85332e-05
7.82752e-05
7.79389e-05
7.77747e-05
7.75454e-05
7.72569e-05
7.7127e-05
7.70096e-05
7.68997e-05
7.67823e-05
7.6639e-05
7.63481e-05
7.58339e-05
7.51542e-05
7.43262e-05
7.32993e-05
7.21696e-05
7.08955e-05
6.94197e-05
6.75771e-05
6.5154e-05
6.2019e-05
5.79517e-05
5.28359e-05
4.6598e-05
3.94489e-05
3.15403e-05
2.37893e-05
1.64707e-05
1.06635e-05
7.04859e-06
4.93648e-06
3.97986e-06
3.92488e-06
4.49972e-06
6.59421e-06
0.00010837
0.000107867
0.000107365
0.000106864
0.00010636
0.000105852
0.000105341
0.000104824
0.000104303
0.000103776
0.000103243
0.000102703
0.000102156
0.0001016
0.000101036
0.000100463
9.98688e-05
9.92547e-05
9.86228e-05
9.79749e-05
9.73126e-05
9.66379e-05
9.59526e-05
9.52584e-05
9.45571e-05
9.38503e-05
9.31398e-05
9.2427e-05
9.17138e-05
9.10041e-05
9.03005e-05
8.96038e-05
8.89148e-05
8.82472e-05
8.7594e-05
8.69413e-05
8.63069e-05
8.56578e-05
8.49794e-05
8.42695e-05
8.34959e-05
8.26422e-05
8.16916e-05
8.06107e-05
7.94166e-05
7.8153e-05
7.67814e-05
7.52247e-05
7.34969e-05
7.13916e-05
6.88076e-05
6.56312e-05
6.17102e-05
5.69341e-05
5.13345e-05
4.48882e-05
3.78459e-05
3.05106e-05
2.32297e-05
1.64583e-05
1.09276e-05
7.23237e-06
4.85348e-06
3.5442e-06
2.94603e-06
2.9207e-06
3.33059e-06
5.71548e-06
1.17821e-05
0.000124809
0.000124116
0.000123419
0.000122719
0.000122012
0.000121298
0.000120574
0.000119842
0.0001191
0.000118348
0.000117585
0.000116803
0.000115996
0.000115168
0.000114321
0.000113455
0.000112572
0.00011167
0.000110752
0.000109816
0.000108865
0.000107898
0.000106917
0.000105923
0.000104916
0.000103897
0.000102867
0.000101826
0.000100779
9.97227e-05
9.86535e-05
9.75671e-05
9.64584e-05
9.53228e-05
9.41525e-05
9.29396e-05
9.16612e-05
9.0347e-05
8.89906e-05
8.7581e-05
8.60989e-05
8.4527e-05
8.28339e-05
8.10107e-05
7.89912e-05
7.67204e-05
7.41091e-05
7.10328e-05
6.75143e-05
6.32928e-05
5.84868e-05
5.3008e-05
4.6926e-05
4.05101e-05
3.38743e-05
2.72543e-05
2.08693e-05
1.48518e-05
1.01609e-05
6.88468e-06
4.55225e-06
3.0952e-06
2.30106e-06
2.13468e-06
2.19014e-06
2.50858e-06
3.86414e-06
6.51618e-06
8.90252e-06
0.000135266
0.000134431
0.000133581
0.000132714
0.000131828
0.000130924
0.000130001
0.00012906
0.000128101
0.000127124
0.000126129
0.000125115
0.000124081
0.000123026
0.000121951
0.000120854
0.000119736
0.000118597
0.000117437
0.000116255
0.000115053
0.000113829
0.000112584
0.000111317
0.000110028
0.000108718
0.000107389
0.000106035
0.000104644
0.000103213
0.000101741
0.000100224
9.86575e-05
9.70334e-05
9.5343e-05
9.35712e-05
9.17076e-05
8.97227e-05
8.75836e-05
8.52722e-05
8.2741e-05
7.99611e-05
7.68966e-05
7.35262e-05
6.97664e-05
6.56368e-05
6.10556e-05
5.5989e-05
5.06618e-05
4.48147e-05
3.90553e-05
3.31213e-05
2.74585e-05
2.20741e-05
1.66909e-05
1.19175e-05
8.42408e-06
5.79939e-06
3.8998e-06
2.53575e-06
1.62331e-06
1.33673e-06
1.44652e-06
1.77098e-06
2.06971e-06
2.60641e-06
3.88362e-06
5.13014e-06
5.01596e-06
0.000131504
0.000130607
0.000129689
0.000128751
0.000127793
0.000126815
0.000125816
0.000124795
0.000123752
0.000122688
0.000121602
0.000120494
0.000119363
0.000118208
0.00011703
0.000115827
0.000114599
0.000113344
0.000112063
0.000110754
0.000109416
0.00010805
0.000106652
0.00010523
0.00010377
0.0001023
0.000100758
9.9137e-05
9.74261e-05
9.56163e-05
9.36951e-05
9.16444e-05
8.94464e-05
8.70763e-05
8.45149e-05
8.1735e-05
7.87169e-05
7.54526e-05
7.19e-05
6.81389e-05
6.40279e-05
5.97936e-05
5.55438e-05
5.12752e-05
4.71013e-05
4.26738e-05
3.81515e-05
3.35177e-05
2.89331e-05
2.43691e-05
2.00834e-05
1.60974e-05
1.18993e-05
8.48424e-06
5.93501e-06
4.13249e-06
2.75897e-06
1.72456e-06
1.05182e-06
6.26276e-07
5.56741e-07
8.43844e-07
1.25401e-06
1.63961e-06
2.05323e-06
2.67618e-06
3.50764e-06
3.78971e-06
3.03222e-06
0.000102831
0.000101925
0.000100994
0.000100041
9.90657e-05
9.80657e-05
9.70447e-05
9.59984e-05
9.49317e-05
9.38398e-05
9.27275e-05
9.15896e-05
9.04317e-05
8.92469e-05
8.80424e-05
8.68066e-05
8.55535e-05
8.4265e-05
8.29618e-05
8.16171e-05
8.02635e-05
7.88609e-05
7.74417e-05
7.59751e-05
7.44822e-05
7.29061e-05
7.12986e-05
6.96613e-05
6.7995e-05
6.62923e-05
6.45511e-05
6.27654e-05
6.09406e-05
5.90697e-05
5.71618e-05
5.52092e-05
5.3221e-05
5.11777e-05
4.91111e-05
4.69301e-05
4.47531e-05
4.23722e-05
3.96259e-05
3.64454e-05
3.27199e-05
2.87433e-05
2.46169e-05
2.03069e-05
1.58876e-05
1.19724e-05
8.23833e-06
5.27562e-06
3.32345e-06
2.13124e-06
1.34805e-06
7.89633e-07
3.87458e-07
2.26836e-07
1.83848e-07
2.03456e-07
3.20636e-07
5.46077e-07
8.90818e-07
1.27126e-06
1.72804e-06
2.16092e-06
2.34774e-06
2.23871e-06
1.59671e-06
5.87471e-05
5.95113e-05
6.04018e-05
6.10493e-05
6.20992e-05
6.25731e-05
6.37154e-05
6.40385e-05
6.5154e-05
6.53849e-05
6.64365e-05
6.66085e-05
6.7593e-05
6.78124e-05
6.82891e-05
6.85236e-05
6.88987e-05
6.92609e-05
6.947e-05
7.02001e-05
7.05834e-05
7.05429e-05
7.04141e-05
7.02378e-05
7.00261e-05
6.97679e-05
6.94464e-05
6.90445e-05
6.8544e-05
6.79269e-05
6.7173e-05
6.62591e-05
6.51618e-05
6.38499e-05
6.22962e-05
6.04608e-05
5.83095e-05
5.5798e-05
5.28831e-05
4.95187e-05
4.56669e-05
4.12903e-05
3.63602e-05
3.09089e-05
2.49653e-05
1.87788e-05
1.24862e-05
6.77303e-06
2.70024e-06
8.62339e-07
5.53633e-07
5.43797e-07
5.15733e-07
4.42653e-07
3.56534e-07
2.38468e-07
1.62268e-07
1.40896e-07
1.70887e-07
2.24368e-07
2.88465e-07
3.36767e-07
3.62497e-07
3.76042e-07
3.90108e-07
3.59362e-07
2.99576e-07
2.74479e-07
2.16472e-07
5.02901e-06
5.02785e-06
5.02522e-06
5.02179e-06
5.01878e-06
5.01323e-06
5.00786e-06
5.00169e-06
4.99831e-06
4.99471e-06
4.98793e-06
4.9867e-06
4.98852e-06
4.98995e-06
4.98784e-06
4.98066e-06
4.98415e-06
4.98428e-06
4.98289e-06
4.97755e-06
4.98573e-06
4.99428e-06
4.9883e-06
4.98809e-06
4.98448e-06
4.97796e-06
4.98474e-06
4.99027e-06
4.99842e-06
4.99671e-06
4.99756e-06
5.00417e-06
5.01099e-06
5.00799e-06
5.0089e-06
5.00661e-06
5.01088e-06
5.01163e-06
5.01074e-06
5.01775e-06
5.01166e-06
5.01388e-06
5.01254e-06
5.01201e-06
5.01847e-06
5.01418e-06
5.00971e-06
5.00977e-06
5.00856e-06
5.00463e-06
4.99989e-06
5.00022e-06
5.00025e-06
5.00157e-06
5.00675e-06
5.01111e-06
5.01391e-06
5.01508e-06
5.01681e-06
5.13439e-06
5.13099e-06
5.12516e-06
5.11993e-06
5.11394e-06
5.10748e-06
5.1019e-06
5.09683e-06
5.09334e-06
5.08909e-06
5.08467e-06
5.08416e-06
5.08243e-06
5.07921e-06
5.07196e-06
5.07008e-06
5.07171e-06
5.07174e-06
5.06672e-06
5.06644e-06
5.07425e-06
5.07783e-06
5.07153e-06
5.07213e-06
5.06609e-06
5.06188e-06
5.06912e-06
5.07627e-06
5.0811e-06
5.07959e-06
5.08332e-06
5.08935e-06
5.09551e-06
5.09364e-06
5.09622e-06
5.09486e-06
5.09744e-06
5.10025e-06
5.09972e-06
5.10613e-06
5.1034e-06
5.10501e-06
5.10688e-06
5.10534e-06
5.10797e-06
5.11314e-06
5.11211e-06
5.11025e-06
5.11203e-06
5.1114e-06
5.108e-06
5.10291e-06
5.10163e-06
5.09989e-06
5.10051e-06
5.10249e-06
5.10522e-06
5.10714e-06
5.11071e-06
5.25254e-06
5.24737e-06
5.24023e-06
5.23417e-06
5.22765e-06
5.22176e-06
5.21654e-06
5.21172e-06
5.2072e-06
5.20207e-06
5.19736e-06
5.19332e-06
5.18698e-06
5.18027e-06
5.17442e-06
5.17468e-06
5.1755e-06
5.17199e-06
5.16857e-06
5.17315e-06
5.17869e-06
5.1791e-06
5.17218e-06
5.17243e-06
5.16488e-06
5.1631e-06
5.17047e-06
5.1786e-06
5.18103e-06
5.18009e-06
5.18596e-06
5.19144e-06
5.19719e-06
5.19674e-06
5.20062e-06
5.20036e-06
5.20178e-06
5.20591e-06
5.2056e-06
5.21211e-06
5.21448e-06
5.21333e-06
5.21498e-06
5.21827e-06
5.21799e-06
5.22287e-06
5.22665e-06
5.22626e-06
5.23121e-06
5.22945e-06
5.23248e-06
5.23223e-06
5.23182e-06
5.22781e-06
5.22891e-06
5.22976e-06
5.22916e-06
5.23405e-06
5.23608e-06
5.39009e-06
5.38441e-06
5.37691e-06
5.37064e-06
5.36405e-06
5.35798e-06
5.35193e-06
5.34577e-06
5.33927e-06
5.3323e-06
5.32532e-06
5.31799e-06
5.31013e-06
5.30419e-06
5.30072e-06
5.30064e-06
5.29896e-06
5.2947e-06
5.29518e-06
5.2986e-06
5.30194e-06
5.29925e-06
5.29244e-06
5.29174e-06
5.2834e-06
5.28408e-06
5.29141e-06
5.29977e-06
5.30079e-06
5.3005e-06
5.30775e-06
5.31295e-06
5.31869e-06
5.31968e-06
5.32436e-06
5.3258e-06
5.32709e-06
5.33169e-06
5.33162e-06
5.33796e-06
5.34227e-06
5.34612e-06
5.3454e-06
5.3529e-06
5.35199e-06
5.35454e-06
5.35818e-06
5.36352e-06
5.36655e-06
5.37301e-06
5.37498e-06
5.3803e-06
5.37818e-06
5.38148e-06
5.38233e-06
5.3807e-06
5.3854e-06
5.38545e-06
5.38586e-06
5.55339e-06
5.54727e-06
5.53907e-06
5.53198e-06
5.52431e-06
5.51674e-06
5.50876e-06
5.50046e-06
5.49179e-06
5.48293e-06
5.47423e-06
5.46597e-06
5.45901e-06
5.4546e-06
5.45192e-06
5.44971e-06
5.44527e-06
5.44223e-06
5.44274e-06
5.44534e-06
5.44626e-06
5.44229e-06
5.43545e-06
5.4334e-06
5.42548e-06
5.428e-06
5.43521e-06
5.44355e-06
5.4439e-06
5.44431e-06
5.45249e-06
5.45777e-06
5.46374e-06
5.46614e-06
5.47167e-06
5.47505e-06
5.47669e-06
5.48316e-06
5.48316e-06
5.48886e-06
5.4944e-06
5.5003e-06
5.50127e-06
5.50707e-06
5.51148e-06
5.51534e-06
5.51797e-06
5.52426e-06
5.5289e-06
5.53575e-06
5.54062e-06
5.54489e-06
5.54736e-06
5.55009e-06
5.55248e-06
5.55441e-06
5.55706e-06
5.55861e-06
5.56206e-06
5.74641e-06
5.73923e-06
5.72957e-06
5.72086e-06
5.71136e-06
5.70178e-06
5.6918e-06
5.68168e-06
5.67155e-06
5.66178e-06
5.65275e-06
5.64496e-06
5.63891e-06
5.63451e-06
5.63049e-06
5.62589e-06
5.62083e-06
5.61913e-06
5.61893e-06
5.62023e-06
5.61988e-06
5.61281e-06
5.60605e-06
5.60275e-06
5.59607e-06
5.59992e-06
5.60714e-06
5.61522e-06
5.6154e-06
5.61661e-06
5.6255e-06
5.6312e-06
5.63754e-06
5.64134e-06
5.64782e-06
5.65326e-06
5.65608e-06
5.66272e-06
5.66487e-06
5.67033e-06
5.6772e-06
5.68411e-06
5.68856e-06
5.6933e-06
5.6992e-06
5.70565e-06
5.70994e-06
5.71637e-06
5.72294e-06
5.73029e-06
5.73699e-06
5.74258e-06
5.74726e-06
5.75161e-06
5.75401e-06
5.75609e-06
5.75807e-06
5.75946e-06
5.76419e-06
5.97417e-06
5.96553e-06
5.95406e-06
5.94357e-06
5.93229e-06
5.92106e-06
5.90968e-06
5.89853e-06
5.88778e-06
5.8778e-06
5.86888e-06
5.86123e-06
5.85481e-06
5.84909e-06
5.84336e-06
5.8378e-06
5.83371e-06
5.833e-06
5.83267e-06
5.83122e-06
5.82639e-06
5.8174e-06
5.81068e-06
5.80648e-06
5.80156e-06
5.80635e-06
5.81365e-06
5.82136e-06
5.82175e-06
5.82386e-06
5.83338e-06
5.83981e-06
5.84668e-06
5.85194e-06
5.85951e-06
5.867e-06
5.8718e-06
5.87905e-06
5.88349e-06
5.88927e-06
5.89736e-06
5.90562e-06
5.91264e-06
5.91942e-06
5.92624e-06
5.93408e-06
5.94053e-06
5.94754e-06
5.9555e-06
5.96419e-06
5.97262e-06
5.98036e-06
5.98669e-06
5.99577e-06
6.00439e-06
6.01047e-06
6.02437e-06
6.02863e-06
6.0278e-06
6.2458e-06
6.23577e-06
6.22261e-06
6.21061e-06
6.19796e-06
6.18555e-06
6.17325e-06
6.16143e-06
6.15022e-06
6.13987e-06
6.13048e-06
6.12205e-06
6.1144e-06
6.10727e-06
6.10067e-06
6.09531e-06
6.09203e-06
6.09065e-06
6.08793e-06
6.08272e-06
6.07431e-06
6.06428e-06
6.0575e-06
6.05291e-06
6.05001e-06
6.05542e-06
6.06286e-06
6.07018e-06
6.07108e-06
6.07421e-06
6.08438e-06
6.09185e-06
6.09948e-06
6.10628e-06