/*--------------------------------*- C++ -*----------------------------------*\
| =========                 |                                                 |
| \\      /  F ield         | OpenFOAM: The Open Source CFD Toolbox           |
|  \\    /   O peration     | Version:  2312                                  |
|   \\  /    A nd           | Website:  www.openfoam.com                      |
|    \\/     M anipulation  |                                                 |
\*---------------------------------------------------------------------------*/
FoamFile
{
    version     2.0;
    format      ascii;
    arch        "LSB;label=32;scalar=64";
    class       volScalarField;
    location    "1200";
    object      nut;
}
// * * * * * * * * * * * * * * * * * * * * * * * * * * * * * * * * * * * * * //

dimensions      [0 2 -1 0 0 0 0];

internalField   nonuniform List<scalar> 
76025
(
0.000170835
0.000170886
0.000170936
0.000171162
0.00017129
0.000171317
0.000171392
0.000171553
0.000171625
0.000171721
0.000171624
0.00017168
0.000171682
0.000171841
0.000171937
0.000171985
0.000172244
0.000172263
0.000172151
0.000172166
0.000172205
0.000172354
0.000172402
0.000172673
0.000172905
0.000173047
0.000173111
0.000173396
0.000173779
0.000174117
0.000174477
0.0001748
0.000175248
0.000175683
0.000176201
0.000176718
0.000177308
0.00017801
0.000178715
0.000179476
0.000180266
0.000181178
0.00018218
0.000183209
0.000184282
0.000185419
0.000186603
0.000187867
0.000189193
0.000190585
0.000192076
0.000193709
0.000195462
0.000197317
0.000199756
0.000202125
0.000205021
0.000208401
0.000212621
0.000217636
0.000223661
0.000231031
0.000241115
0.000253182
0.000270012
0.000289573
0.000313814
0.00034025
0.000369992
0.000172612
0.000172713
0.000172806
0.000172941
0.000172988
0.000173001
0.000173047
0.000173169
0.000173285
0.000173373
0.000173432
0.000173546
0.0001736
0.000173768
0.00017403
0.000174212
0.000174765
0.000174745
0.000174721
0.000174707
0.000174749
0.000174887
0.000175083
0.000175308
0.000175507
0.000175801
0.000176201
0.00017629
0.000176604
0.000177107
0.000177605
0.000177711
0.000178064
0.000178612
0.000179232
0.000179844
0.000180456
0.000181095
0.000181758
0.000182467
0.000183244
0.000184081
0.000184983
0.000185948
0.00018699
0.000188112
0.000189306
0.000190592
0.000191989
0.000193526
0.000195189
0.000197065
0.000199115
0.000201475
0.0002041
0.000207174
0.000210736
0.000214868
0.000219884
0.000225685
0.000233156
0.000242123
0.000253987
0.00026841
0.000287051
0.000308424
0.000334019
0.00035951
0.000388731
0.000174669
0.000174734
0.000174794
0.000174915
0.000175019
0.000175131
0.000175239
0.000175363
0.000175503
0.000175643
0.000175799
0.00017595
0.000176113
0.00017625
0.000176392
0.000176414
0.000176759
0.000176799
0.000177011
0.000177099
0.000177217
0.00017735
0.000177539
0.000177678
0.000177645
0.000177929
0.000178564
0.000179101
0.00017958
0.000180023
0.000180458
0.000180852
0.000181281
0.000181764
0.00018229
0.000182848
0.000183441
0.000184077
0.000184761
0.000185504
0.000186315
0.000187201
0.000188162
0.000189209
0.00019034
0.000191566
0.000192893
0.00019434
0.000195921
0.000197666
0.000199583
0.000201732
0.000204112
0.000206826
0.00020987
0.000213425
0.000217496
0.000222325
0.000228129
0.000235095
0.000243976
0.000254649
0.000268615
0.000285032
0.00030548
0.000327909
0.000353215
0.000377863
0.000404079
0.000177302
0.000177252
0.000177473
0.000177295
0.00017728
0.000177393
0.000177484
0.000177581
0.000177681
0.000177826
0.000178022
0.000178221
0.000178436
0.000178573
0.000178606
0.000178501
0.000178696
0.000179041
0.000179331
0.000179583
0.000179838
0.000180109
0.000180394
0.000180667
0.000180936
0.000181257
0.000181656
0.000182087
0.000182533
0.000182984
0.000183446
0.000183919
0.000184416
0.000184942
0.000185502
0.0001861
0.000186743
0.00018744
0.000188195
0.000189018
0.000189914
0.000190895
0.000191959
0.000193123
0.000194384
0.000195756
0.000197249
0.000198882
0.000200671
0.000202651
0.000204833
0.000207281
0.000210002
0.000213117
0.000216627
0.000220755
0.00022552
0.000231269
0.000238176
0.000246617
0.000257191
0.000269895
0.000285929
0.000304062
0.000325759
0.000348193
0.000372469
0.000394958
0.00041707
0.000180233
0.000180564
0.000180789
0.00018086
0.000180954
0.000181073
0.000181171
0.000181331
0.000181769
0.000181821
0.000181524
0.000181372
0.000181309
0.000181487
0.000181984
0.000182751
0.000183002
0.000182703
0.000182526
0.000182521
0.00018268
0.000182959
0.000183328
0.000183737
0.000184145
0.000184554
0.000184974
0.000185411
0.000185868
0.000186349
0.000186855
0.000187388
0.000187952
0.000188549
0.000189185
0.000189865
0.000190596
0.000191385
0.000192239
0.000193167
0.000194174
0.000195272
0.000196465
0.000197767
0.000199184
0.000200726
0.000202408
0.000204252
0.000206276
0.000208519
0.000211002
0.000213798
0.000216926
0.000220533
0.000224633
0.000229508
0.000235177
0.00024211
0.000250399
0.000260602
0.000273032
0.000287759
0.000305497
0.00032471
0.000346807
0.000368095
0.000390438
0.000409533
0.000426469
0.000183002
0.000183261
0.000183573
0.000183675
0.00018386
0.000184181
0.000184353
0.000184571
0.000184674
0.000184587
0.000184669
0.00018493
0.000185086
0.000185269
0.000185603
0.00018608
0.000186919
0.000187366
0.000187458
0.000187534
0.000187897
0.000189002
0.000189348
0.000188908
0.000188791
0.000188915
0.000189177
0.00018953
0.00018995
0.000190426
0.000190951
0.000191523
0.000192141
0.000192806
0.000193521
0.00019429
0.000195117
0.000196011
0.000196977
0.000198022
0.000199156
0.000200387
0.000201725
0.000203184
0.000204777
0.000206514
0.000208413
0.0002105
0.000212801
0.000215361
0.000218214
0.000221445
0.0002251
0.000229345
0.000234232
0.000240086
0.000246941
0.000255353
0.000265289
0.000277438
0.000291655
0.000308141
0.000326885
0.000346366
0.000367805
0.000386679
0.000406285
0.000420471
0.00043134
0.000187183
0.000187205
0.000187277
0.00018734
0.000187409
0.000187583
0.000187814
0.000188045
0.000188239
0.000188248
0.000188397
0.000188704
0.00018908
0.000189454
0.000189814
0.000190151
0.000190477
0.000190664
0.000191272
0.000192026
0.000193192
0.000194196
0.000194598
0.000195991
0.000196282
0.000195312
0.00019481
0.000194792
0.000195043
0.000195425
0.000195905
0.000196467
0.000197106
0.000197816
0.000198598
0.000199448
0.00020037
0.000201367
0.000202446
0.000203615
0.000204884
0.000206262
0.000207765
0.000209407
0.00021121
0.000213184
0.000215353
0.000217747
0.000220404
0.000223376
0.000226718
0.000230531
0.000234894
0.000239997
0.000245934
0.000253051
0.000261389
0.000271517
0.000283233
0.000297254
0.000312877
0.000330533
0.000349259
0.000368073
0.000387521
0.000402787
0.000418849
0.000426239
0.000430873
0.000191974
0.000192059
0.000192179
0.000192322
0.000192904
0.000193074
0.00019288
0.000192882
0.000192991
0.000193126
0.000193345
0.000193609
0.000193989
0.000194306
0.000194666
0.00019484
0.000195183
0.000195211
0.000195522
0.0001961
0.000196431
0.00019775
0.00019805
0.000199715
0.000200874
0.00020197
0.000202324
0.000204149
0.000204543
0.000203359
0.000202826
0.00020285
0.000203224
0.000203834
0.000204602
0.000205479
0.000206452
0.000207519
0.000208688
0.000209967
0.000211368
0.00021291
0.000214612
0.000216491
0.000218573
0.00022087
0.000223409
0.000226228
0.000229373
0.000232915
0.000236931
0.000241543
0.000246865
0.000253103
0.000260382
0.000269031
0.000279064
0.000290968
0.000304327
0.000319803
0.000336108
0.000354036
0.000371472
0.000388626
0.000404478
0.000415259
0.000426659
0.00042531
0.000424728
0.000197197
0.000197455
0.00019771
0.000197925
0.00019816
0.000198328
0.000198422
0.000198521
0.000198661
0.000198818
0.000199006
0.000199213
0.000199511
0.00019982
0.000200198
0.000200508
0.000200869
0.000201174
0.000201524
0.000201917
0.000202447
0.000202798
0.000203457
0.000204124
0.000205146
0.000205341
0.000206017
0.000207362
0.000208291
0.00020883
0.000209263
0.000209775
0.000210476
0.000211387
0.000212273
0.000213043
0.000213861
0.000214806
0.000215918
0.000217193
0.000218665
0.000220377
0.000222348
0.000224582
0.000227083
0.000229864
0.000232946
0.000236374
0.000240211
0.000244547
0.000249486
0.000255169
0.000261736
0.000269387
0.000278245
0.000288564
0.000300279
0.00031371
0.000328211
0.000344347
0.000360298
0.000377347
0.000392072
0.000406547
0.000416989
0.000422934
0.00042773
0.000416729
0.00041238
0.000203505
0.00020377
0.000204074
0.000204376
0.000204659
0.000204909
0.000205126
0.000205324
0.000205527
0.000205734
0.000205945
0.000206163
0.000206419
0.000206715
0.000207066
0.000207439
0.000207853
0.000208277
0.000208739
0.000209229
0.000209783
0.000210395
0.000211042
0.000211819
0.00021276
0.000213667
0.000214699
0.00021573
0.000216878
0.000217895
0.000218812
0.00021996
0.000221816
0.000225169
0.000225935
0.000224382
0.000223825
0.000223938
0.000224576
0.000225474
0.000226847
0.000228817
0.000231271
0.000234115
0.00023729
0.000240795
0.000244654
0.000248927
0.000253703
0.000259094
0.000265227
0.000272249
0.000280297
0.000289525
0.000300006
0.000311852
0.00032488
0.000339188
0.000353944
0.000369604
0.000383932
0.000398778
0.000409336
0.000420086
0.000423304
0.00042456
0.000419708
0.000400804
0.000391543
0.000211135
0.000211385
0.000211675
0.000211994
0.00021232
0.000212641
0.000212953
0.000213256
0.000213552
0.000213843
0.000214129
0.000214414
0.000214711
0.000215033
0.000215393
0.000215792
0.000216233
0.00021671
0.000217224
0.000217767
0.000218365
0.000219016
0.000219729
0.000220535
0.000221428
0.000222398
0.000223407
0.000224435
0.000225489
0.000226536
0.000227523
0.000228521
0.00022964
0.000230964
0.000232023
0.000232698
0.000233255
0.000233848
0.000234621
0.000234755
0.000236257
0.000239178
0.000242627
0.000246409
0.000250479
0.000254875
0.000259677
0.00026498
0.0002709
0.00027756
0.000285083
0.000293588
0.000303161
0.000313863
0.000325657
0.000338483
0.000352023
0.000366159
0.000379948
0.000393755
0.000405062
0.00041632
0.000421326
0.000427277
0.000421817
0.000418513
0.000400764
0.000378712
0.000356181
0.000220358
0.000220622
0.000220909
0.000221225
0.000221561
0.000221909
0.000222268
0.000222635
0.000223007
0.00022338
0.000223752
0.000224123
0.000224499
0.000224889
0.000225308
0.000225762
0.000226261
0.000226796
0.000227384
0.00022799
0.000228652
0.000229346
0.000230119
0.000230964
0.000231889
0.000232924
0.000234001
0.000235191
0.000236476
0.000237796
0.000239118
0.000240606
0.000242293
0.0002457
0.000247856
0.000248568
0.000248454
0.000248904
0.000249916
0.00025148
0.000253694
0.000256561
0.000260008
0.000263992
0.000268507
0.000273584
0.000279279
0.000285665
0.000292819
0.000300818
0.00030973
0.000319588
0.000330381
0.000342034
0.00035438
0.000367191
0.00038004
0.000392644
0.000404038
0.000414509
0.000421411
0.00042775
0.000425978
0.000426103
0.0004112
0.000402638
0.000371204
0.000348998
0.000302799
0.000231548
0.00023186
0.000232181
0.000232521
0.000232878
0.00023325
0.000233638
0.000234044
0.000234463
0.000234898
0.000235339
0.00023579
0.00023625
0.000236712
0.000237185
0.000237674
0.000238203
0.00023877
0.000239397
0.00024007
0.000240811
0.000241603
0.000242472
0.000243411
0.000244428
0.000245535
0.000246706
0.00024796
0.000249297
0.000250692
0.000252125
0.000253621
0.000255195
0.000256996
0.000258782
0.000260468
0.000262185
0.000264133
0.000266439
0.000269183
0.000272417
0.000276177
0.000280487
0.000285376
0.00029088
0.000297044
0.000303915
0.000311538
0.000319946
0.000329146
0.000339117
0.000349787
0.000361028
0.000372638
0.000384334
0.000395769
0.000406462
0.00041603
0.000423568
0.000429275
0.000430542
0.000430769
0.000421256
0.000414771
0.000390327
0.000375059
0.000333092
0.000303231
0.000244404
0.000245225
0.000245613
0.000246005
0.000246411
0.000246828
0.000247257
0.0002477
0.00024816
0.000248638
0.000249136
0.000249651
0.000250183
0.000250733
0.000251295
0.000251868
0.000252448
0.000253049
0.000253682
0.000254366
0.000255109
0.000255924
0.000256813
0.000257785
0.000258841
0.000259984
0.000261217
0.000262537
0.000263944
0.000265441
0.000267027
0.000268703
0.000270479
0.000272374
0.000274421
0.000276636
0.000279049
0.000281714
0.000284698
0.000288067
0.000291878
0.000296178
0.000301009
0.000306408
0.00031241
0.000319045
0.000326334
0.000334288
0.000342894
0.000352116
0.000361878
0.000372059
0.000382487
0.000392934
0.000403109
0.000412662
0.000421194
0.000428214
0.000433311
0.000435666
0.00043538
0.000430069
0.000423188
0.000405443
0.000391992
0.00035834
0.000335744
0.000282442
0.00024541
0.000185725
0.000262188
0.000262682
0.000263181
0.000263694
0.000264218
0.000264752
0.0002653
0.000265866
0.00026645
0.000267056
0.000267687
0.000268338
0.000269011
0.000269704
0.000270417
0.00027115
0.000271908
0.000272699
0.000273537
0.000274433
0.000275402
0.000276452
0.000277594
0.000278835
0.000280183
0.000281643
0.00028322
0.000284921
0.000286752
0.000288724
0.000290849
0.000293145
0.000295634
0.000298344
0.000301311
0.000304572
0.00030817
0.000312148
0.000316548
0.000321406
0.000326755
0.000332619
0.000339015
0.000345947
0.000353407
0.000361369
0.000369782
0.000378568
0.000387614
0.000396766
0.000405834
0.000414575
0.000422708
0.000429905
0.00043579
0.000439975
0.000441973
0.000441417
0.000437522
0.000430359
0.000417901
0.000403203
0.000377572
0.000357253
0.000313804
0.00028121
0.000223151
0.000187469
0.000131974
0.000283725
0.000284375
0.000285033
0.00028571
0.000286401
0.000287107
0.000287831
0.000288571
0.000289331
0.000290114
0.000290924
0.000291764
0.000292635
0.000293541
0.000294483
0.000295463
0.000296486
0.000297558
0.000298687
0.000299885
0.000301164
0.000302535
0.000304011
0.000305603
0.000307324
0.000309185
0.000311196
0.000313369
0.000315718
0.000318258
0.000321003
0.000323975
0.000327193
0.000330682
0.000334468
0.000338577
0.000343035
0.000347866
0.000353087
0.000358709
0.000364735
0.000371155
0.000377948
0.000385076
0.000392482
0.000400086
0.000407784
0.000415441
0.000422895
0.000429944
0.000436364
0.000441881
0.000446207
0.00044901
0.000449918
0.000448614
0.000444567
0.000437564
0.000426692
0.000412274
0.000392549
0.00036989
0.000338068
0.000306949
0.000254769
0.000219931
0.000163477
0.000131763
8.1261e-05
0.000312029
0.000312929
0.00031384
0.000314771
0.00031572
0.00031669
0.000317683
0.000318703
0.000319755
0.00032084
0.000321964
0.000323129
0.000324341
0.000325602
0.000326918
0.000328292
0.00032973
0.000331236
0.000332819
0.000334486
0.000336248
0.000338115
0.000340097
0.000342207
0.000344454
0.000346852
0.000349411
0.000352142
0.000355059
0.000358172
0.000361494
0.000365039
0.000368817
0.000372841
0.000377121
0.000381665
0.000386477
0.000391554
0.000396887
0.000402457
0.000408234
0.000414173
0.000420218
0.000426292
0.000432302
0.000438133
0.000443647
0.000448683
0.000453055
0.000456543
0.000458924
0.000459909
0.000459238
0.000456589
0.000451602
0.000444083
0.000433356
0.000419603
0.000401457
0.00038016
0.000353632
0.000321775
0.00028201
0.000241201
0.000193869
0.000158765
0.000108587
8.32766e-05
4.41547e-05
0.000351281
0.000352596
0.000353926
0.000355281
0.000356658
0.000358058
0.000359486
0.000360946
0.00036244
0.000363973
0.000365547
0.000367166
0.000368834
0.000370554
0.00037233
0.000374165
0.000376064
0.000378029
0.000380067
0.000382181
0.000384378
0.000386663
0.000389042
0.000391522
0.00039411
0.00039681
0.000399631
0.000402577
0.000405654
0.000408866
0.000412217
0.000415709
0.000419342
0.000423113
0.000427018
0.000431044
0.000435177
0.00043939
0.000443651
0.000447916
0.000452132
0.000456232
0.000460136
0.000463747
0.000466953
0.000469623
0.000471609
0.00047274
0.000472822
0.000471637
0.000468982
0.000464545
0.000458141
0.000449433
0.000438096
0.000424137
0.000406537
0.000386445
0.000361401
0.000332808
0.000296588
0.000256286
0.000216249
0.000174549
0.00013485
9.99344e-05
6.50566e-05
4.31392e-05
2.05786e-05
0.000408948
0.000410707
0.000412461
0.000414219
0.000415976
0.000417734
0.000419496
0.000421264
0.000423041
0.000424829
0.000426631
0.000428448
0.000430282
0.000432134
0.000434007
0.000435901
0.000437819
0.000439761
0.000441729
0.000443725
0.000445751
0.000447808
0.000449898
0.000452022
0.000454182
0.000456378
0.000458611
0.00046088
0.000463184
0.000465519
0.000467881
0.000470262
0.00047265
0.000475032
0.000477391
0.000479699
0.000481924
0.000484026
0.000485956
0.000487657
0.000489066
0.000490103
0.00049068
0.000490692
0.00049002
0.000488529
0.000486071
0.000482467
0.000477517
0.000471027
0.000462839
0.000452544
0.000440192
0.000425314
0.000407684
0.000387642
0.000363725
0.000336858
0.000302256
0.000265442
0.000226336
0.000187881
0.000150436
0.000113662
8.25802e-05
5.46922e-05
3.29764e-05
1.91087e-05
9.41026e-06
0.000487171
0.000488778
0.000490342
0.000491855
0.000493318
0.000494735
0.000496113
0.000497455
0.000498763
0.000500042
0.000501289
0.000502503
0.000503682
0.000504827
0.000505937
0.000507011
0.00050805
0.000509056
0.000510027
0.000510963
0.000511866
0.000512733
0.000513563
0.000514355
0.000515106
0.000515812
0.000516468
0.00051707
0.000517609
0.000518076
0.000518459
0.000518742
0.000518885
0.000518893
0.000518733
0.000518352
0.000517708
0.000516756
0.000515444
0.000513713
0.000511496
0.000508713
0.000505273
0.00050106
0.000495961
0.000489835
0.000482543
0.000473858
0.000463616
0.00045171
0.000437996
0.000421839
0.000404024
0.000383352
0.000360185
0.000332393
0.000300013
0.000265218
0.000228452
0.000192904
0.00015683
0.000123164
9.18286e-05
6.45533e-05
4.25006e-05
2.52482e-05
1.42291e-05
7.97532e-06
5.05128e-06
0.000570863
0.000571238
0.00057159
0.000571913
0.000572197
0.000572438
0.000572631
0.000572777
0.00057287
0.00057291
0.000572873
0.00057274
0.000572516
0.000572204
0.000571806
0.000571326
0.000570767
0.00057013
0.000569415
0.00056862
0.000567741
0.000566774
0.000565715
0.000564557
0.000563295
0.000561919
0.00056042
0.000558788
0.00055701
0.000555069
0.000552943
0.000550599
0.000547899
0.000545071
0.00054193
0.000538329
0.000534312
0.000529857
0.000524904
0.00051941
0.00051331
0.000506513
0.000498922
0.000490392
0.000480847
0.000470125
0.000458081
0.000444333
0.000429032
0.000412261
0.000393483
0.000372021
0.000348133
0.000319699
0.000289109
0.000255595
0.000221886
0.000188926
0.000155364
0.000124304
9.50233e-05
6.90687e-05
4.75369e-05
3.02102e-05
1.79214e-05
9.89266e-06
5.79918e-06
3.99973e-06
3.59384e-06
0.000635601
0.000634409
0.000633173
0.000631889
0.000630551
0.000629156
0.0006277
0.000626181
0.000624594
0.000622933
0.000621193
0.000619368
0.000617452
0.00061544
0.000613329
0.000611142
0.000608886
0.000606544
0.000604101
0.000601547
0.000598868
0.000596055
0.000593098
0.000589984
0.000586703
0.000583242
0.000579586
0.00057572
0.000571625
0.000567274
0.000562622
0.000557541
0.000551517
0.000546452
0.000540344
0.000533005
0.000525525
0.000517642
0.000509172
0.000500171
0.000490511
0.00048006
0.000468689
0.000456186
0.000442716
0.000427862
0.000411412
0.000392779
0.000373451
0.000350543
0.000325181
0.000297236
0.000267608
0.000236805
0.000206667
0.000175886
0.000145785
0.000117885
9.08954e-05
6.80543e-05
4.77978e-05
3.17756e-05
1.97256e-05
1.1273e-05
6.38166e-06
4.05957e-06
3.02734e-06
2.92081e-06
3.16569e-06
0.000663886
0.000661315
0.000658679
0.000655959
0.000653186
0.000650349
0.000647437
0.000644449
0.000641378
0.000638218
0.000634964
0.000631608
0.000628142
0.000624563
0.000620866
0.000617047
0.0006131
0.000608988
0.000604698
0.000600229
0.000595578
0.000590739
0.000585705
0.000580467
0.000575016
0.000569338
0.00056342
0.000557246
0.000550796
0.000544049
0.000536986
0.000529543
0.000521693
0.000514106
0.000505724
0.00049621
0.000487096
0.000476818
0.000465369
0.000453991
0.000441708
0.000428433
0.000413959
0.00039822
0.000380418
0.000360399
0.000338515
0.000314748
0.000289799
0.000263375
0.000236609
0.000209243
0.00018178
0.000154198
0.000128268
0.000103321
8.07085e-05
6.09149e-05
4.36207e-05
2.97647e-05
1.90768e-05
1.13065e-05
6.48355e-06
4.07826e-06
2.81842e-06
2.28737e-06
2.25881e-06
2.58286e-06
3.92824e-06
0.000639252
0.000635749
0.000632189
0.000628562
0.000624861
0.000621078
0.000617209
0.00061325
0.000609194
0.000605038
0.000600774
0.000596398
0.0005919
0.000587275
0.000582515
0.000577614
0.000572527
0.000567252
0.000561785
0.000556121
0.000550254
0.000544177
0.000537883
0.000531362
0.000524602
0.000517593
0.000510318
0.00050276
0.000494897
0.000486715
0.000478192
0.000469286
0.000459962
0.000450245
0.000440034
0.000429197
0.000417772
0.00040553
0.000392342
0.000378151
0.000362752
0.000346105
0.000328011
0.000308654
0.000287765
0.000266135
0.000243566
0.000219748
0.000196611
0.000171653
0.000148301
0.000124806
0.000102873
8.26056e-05
6.48294e-05
4.89373e-05
3.55804e-05
2.47912e-05
1.61885e-05
9.87849e-06
5.94478e-06
3.79025e-06
2.55893e-06
1.90505e-06
1.63413e-06
1.70116e-06
2.03885e-06
3.93502e-06
1.11918e-05
0.000554912
0.000551197
0.000547409
0.000543547
0.000539603
0.000535573
0.000531452
0.000527238
0.000522926
0.000518512
0.000513992
0.00050934
0.000504541
0.000499597
0.000494505
0.000489262
0.000483862
0.000478295
0.000472556
0.000466636
0.000460527
0.000454221
0.000447708
0.000440978
0.000434018
0.000426814
0.000419349
0.00041159
0.00040352
0.000395089
0.00038624
0.000376911
0.000367037
0.000356553
0.000345383
0.00033345
0.000320632
0.000307002
0.000292501
0.0002771
0.000260715
0.000243457
0.000225119
0.000206315
0.000186448
0.000166602
0.000146481
0.000126119
0.000107854
8.86584e-05
7.31878e-05
5.77363e-05
4.51924e-05
3.43416e-05
2.53939e-05
1.77476e-05
1.18979e-05
7.48119e-06
4.81634e-06
3.23725e-06
2.16717e-06
1.52201e-06
1.19393e-06
1.25741e-06
1.53294e-06
2.08441e-06
3.57375e-06
6.99078e-06
1.06735e-05
0.000411601
0.000408438
0.000405201
0.000401881
0.000398478
0.00039499
0.000391417
0.000387758
0.000384012
0.000380177
0.00037625
0.000372227
0.000368103
0.000363872
0.00035953
0.000355071
0.000350491
0.000345782
0.000340941
0.000335956
0.000330825
0.000325535
0.00032008
0.000314455
0.000308632
0.000302602
0.000296334
0.000289735
0.000282711
0.000275216
0.000267211
0.000258649
0.000249486
0.000239673
0.000229172
0.000217944
0.000205972
0.000193251
0.000179759
0.000165636
0.000150912
0.000135855
0.0001206
0.000105602
9.08974e-05
7.70835e-05
6.42929e-05
5.24749e-05
4.26434e-05
3.32782e-05
2.64129e-05
1.97738e-05
1.51409e-05
1.09398e-05
7.33739e-06
4.94343e-06
3.47152e-06
2.42105e-06
1.66681e-06
1.14651e-06
8.1656e-07
8.36619e-07
1.28255e-06
2.11992e-06
2.7958e-06
3.40912e-06
5.22433e-06
7.44995e-06
7.6118e-06
0.000229985
0.000228018
0.000225999
0.000223932
0.000221816
0.00021965
0.000217435
0.000215169
0.000212852
0.000210482
0.000208058
0.000205577
0.000203038
0.000200437
0.000197773
0.000195039
0.000192238
0.000189354
0.000186402
0.000183345
0.000180221
0.000176972
0.000173638
0.000170206
0.000166562
0.000162784
0.000158577
0.000153905
0.000148748
0.000143091
0.000136922
0.000130236
0.000123047
0.000115374
0.000107269
9.87985e-05
9.00461e-05
8.11754e-05
7.22429e-05
6.35621e-05
5.50906e-05
4.71867e-05
4.00685e-05
3.36286e-05
2.81619e-05
2.31573e-05
1.8938e-05
1.52347e-05
1.21213e-05
9.52769e-06
7.32858e-06
5.62966e-06
3.94721e-06
2.83772e-06
2.0498e-06
1.51342e-06
1.0796e-06
7.44445e-07
5.55888e-07
3.99797e-07
4.68662e-07
1.02581e-06
2.06909e-06
2.99567e-06
3.68056e-06
4.60444e-06
5.95674e-06
6.71151e-06
5.63248e-06
6.97567e-05
6.9053e-05
6.83299e-05
6.75848e-05
6.68264e-05
6.60458e-05
6.5254e-05
6.44407e-05
6.36166e-05
6.27712e-05
6.19147e-05
6.10365e-05
6.0147e-05
5.92347e-05
5.83089e-05
5.73571e-05
5.63992e-05
5.53961e-05
5.44081e-05
5.33397e-05
5.23233e-05
5.11692e-05
5.01179e-05
4.88617e-05
4.73492e-05
4.55553e-05
4.35668e-05
4.14219e-05
3.91595e-05
3.68134e-05
3.44205e-05
3.20135e-05
2.96274e-05
2.72891e-05
2.50257e-05
2.28572e-05
2.07999e-05
1.88606e-05
1.70564e-05
1.53638e-05
1.38229e-05
1.23685e-05
1.09642e-05
9.58898e-06
8.2345e-06
6.95172e-06
5.77548e-06
4.65744e-06
3.60508e-06
2.73454e-06
1.91764e-06
1.28126e-06
8.78499e-07
6.61559e-07
5.09398e-07
3.77914e-07
2.33491e-07
1.50454e-07
1.19228e-07
1.30703e-07
2.14682e-07
4.34089e-07
8.92383e-07
1.40153e-06
1.99203e-06
2.52679e-06
2.75805e-06
2.63801e-06
1.87005e-06
6.8033e-06
6.89328e-06
7.00361e-06
7.08048e-06
7.21231e-06
7.27052e-06
7.41596e-06
7.4588e-06
7.60386e-06
7.63822e-06
7.77856e-06
7.80845e-06
7.94381e-06
7.98186e-06
8.05876e-06
8.10658e-06
8.17158e-06
8.23749e-06
8.2853e-06
8.3997e-06
8.46746e-06
8.49444e-06
8.51254e-06
8.52577e-06
8.53575e-06
8.54132e-06
8.54056e-06
8.53147e-06
8.5118e-06
8.47935e-06
8.43153e-06
8.36537e-06
8.2778e-06
8.16464e-06
8.02206e-06
7.84452e-06
7.62687e-06
7.36241e-06
7.04414e-06
6.66414e-06
6.21486e-06
5.68808e-06
5.07574e-06
4.377e-06
3.59017e-06
2.74422e-06
1.85511e-06
1.02226e-06
4.12831e-07
1.33014e-07
8.5924e-08
8.48717e-08
8.09425e-08
6.9863e-08
5.65844e-08
3.80562e-08
2.60342e-08
2.27214e-08
2.76934e-08
3.6533e-08
4.71853e-08
5.53324e-08
5.98185e-08
6.23125e-08
6.49005e-08
6.00158e-08
5.02118e-08
4.61584e-08
3.6517e-08
0.000171249
0.000171196
0.000171093
0.000170948
0.000170876
0.000170684
0.000170584
0.00017044
0.000170332
0.000170233
0.000170057
0.000169939
0.000169934
0.000169935
0.000169865
0.00016972
0.000169737
0.000169698
0.000169639
0.000169522
0.000169629
0.000169774
0.000169653
0.00016963
0.000169537
0.000169387
0.000169458
0.000169529
0.00016967
0.000169633
0.000169615
0.000169705
0.000169809
0.000169775
0.000169801
0.000169782
0.000169889
0.000169936
0.000169946
0.000170112
0.000170029
0.000170096
0.00017011
0.00017014
0.000170323
0.000170267
0.000170251
0.000170335
0.000170361
0.000170341
0.000170341
0.00017041
0.000170391
0.000170438
0.000170571
0.000170678
0.000170752
0.000170795
0.000170825
0.000172995
0.000172903
0.000172764
0.000172638
0.000172505
0.000172356
0.00017224
0.00017212
0.000172029
0.000171927
0.000171816
0.000171774
0.000171711
0.000171593
0.000171375
0.000171339
0.000171312
0.000171303
0.000171136
0.000171114
0.000171217
0.000171271
0.000171141
0.00017113
0.000170994
0.000170887
0.000170964
0.000171065
0.00017115
0.000171116
0.000171147
0.000171227
0.000171319
0.0001713
0.000171356
0.000171346
0.000171426
0.000171511
0.000171517
0.000171687
0.000171657
0.000171705
0.000171793
0.000171772
0.000171839
0.000172015
0.000172054
0.000172092
0.000172235
0.000172294
0.000172285
0.000172206
0.000172225
0.000172228
0.000172253
0.00017231
0.000172384
0.000172431
0.000172516
0.000174986
0.000174873
0.000174727
0.0001746
0.000174465
0.000174339
0.000174227
0.000174117
0.000174012
0.000173891
0.000173769
0.000173649
0.000173472
0.000173295
0.00017315
0.000173155
0.000173157
0.000173038
0.000172921
0.000172969
0.000173052
0.00017306
0.0001729
0.000172889
0.000172716
0.000172657
0.000172735
0.000172854
0.000172898
0.000172874
0.000172941
0.00017301
0.000173096
0.000173096
0.000173176
0.000173177
0.000173228
0.000173349
0.000173361
0.000173495
0.000173587
0.000173575
0.000173633
0.00017371
0.000173731
0.000173879
0.000173954
0.000173953
0.00017415
0.000174186
0.000174416
0.00017454
0.000174586
0.000174482
0.000174562
0.000174621
0.000174526
0.000174659
0.000174681
0.000177292
0.000177175
0.000177029
0.000176902
0.000176768
0.000176641
0.000176512
0.000176378
0.000176234
0.000176075
0.000175908
0.00017573
0.000175543
0.00017541
0.000175333
0.00017534
0.000175255
0.000175119
0.000175098
0.000175129
0.000175172
0.000175113
0.000174961
0.000174935
0.000174743
0.000174725
0.000174805
0.000174929
0.000174948
0.000174934
0.000175024
0.000175088
0.000175171
0.000175194
0.000175285
0.000175309
0.000175355
0.000175478
0.000175486
0.000175652
0.000175745
0.000175829
0.000175844
0.000176083
0.000175967
0.000176071
0.000176184
0.000176333
0.000176394
0.000176532
0.000176605
0.000176845
0.000176922
0.000177142
0.000177179
0.000177124
0.000177315
0.000177333
0.000177323
0.000179977
0.000179855
0.000179699
0.000179559
0.000179408
0.000179255
0.000179093
0.000178921
0.000178739
0.00017855
0.000178361
0.000178182
0.000178032
0.00017794
0.000177876
0.000177812
0.00017768
0.000177577
0.000177569
0.000177586
0.00017759
0.000177509
0.00017736
0.000177304
0.000177126
0.000177133
0.000177215
0.000177339
0.000177346
0.000177344
0.000177448
0.000177512
0.000177597
0.000177639
0.000177742
0.000177805
0.000177841
0.000178009
0.000178019
0.000178136
0.000178287
0.00017842
0.000178368
0.000178566
0.00017868
0.000178723
0.000178711
0.000178934
0.000179078
0.000179232
0.000179358
0.000179423
0.00017944
0.000179579
0.000179685
0.000179814
0.000179884
0.000179983
0.000180047
0.000183079
0.000182941
0.000182764
0.000182598
0.000182418
0.000182235
0.000182042
0.000181844
0.000181644
0.000181448
0.000181266
0.000181107
0.000180983
0.000180889
0.000180793
0.000180677
0.000180543
0.000180486
0.000180477
0.000180485
0.000180468
0.0001803
0.000180157
0.000180076
0.000179919
0.000179953
0.000180037
0.000180154
0.000180157
0.000180167
0.000180282
0.000180352
0.000180441
0.000180502
0.000180617
0.000180717
0.000180766
0.000180897
0.000180968
0.000181087
0.000181173
0.000181399
0.000181462
0.000181561
0.000181707
0.000181833
0.000181874
0.000181919
0.000182144
0.000182347
0.000182518
0.000182615
0.000182684
0.000182763
0.000182763
0.000182697
0.000182719
0.000182725
0.000182839
0.000186656
0.000186497
0.000186294
0.000186104
0.0001859
0.000185695
0.000185485
0.000185278
0.000185076
0.000184886
0.000184714
0.000184564
0.000184435
0.000184314
0.000184185
0.000184056
0.000183955
0.000183929
0.000183916
0.000183872
0.000183765
0.000183576
0.000183435
0.000183336
0.000183212
0.000183262
0.000183349
0.000183457
0.000183462
0.000183485
0.000183609
0.000183688
0.000183783
0.000183864
0.000183991
0.000184125
0.000184207
0.000184335
0.000184449
0.000184567
0.000184696
0.00018483
0.000185002
0.000185158
0.000185307
0.000185458
0.000185587
0.000185562
0.000185733
0.000185961
0.00018618
0.000186352
0.000186475
0.00018667
0.000186835
0.000186931
0.000187277
0.000187346
0.000187228
0.000190821
0.000190645
0.000190422
0.000190214
0.000189995
0.000189778
0.000189561
0.00018935
0.000189148
0.000188959
0.000188784
0.000188624
0.000188474
0.00018833
0.000188192
0.000188075
0.000188001
0.000187968
0.00018791
0.000187799
0.000187631
0.000187432
0.000187293
0.000187186
0.000187095
0.000187158
0.000187246
0.000187346
0.000187358
0.000187394
0.000187526
0.000187619