/*--------------------------------*- C++ -*----------------------------------*\
| =========                 |                                                 |
| \\      /  F ield         | OpenFOAM: The Open Source CFD Toolbox           |
|  \\    /   O peration     | Version:  2312                                  |
|   \\  /    A nd           | Website:  www.openfoam.com                      |
|    \\/     M anipulation  |                                                 |
\*---------------------------------------------------------------------------*/
FoamFile
{
    version     2.0;
    format      ascii;
    arch        "LSB;label=32;scalar=64";
    class       volScalarField;
    location    "1200";
    object      omega;
}
// * * * * * * * * * * * * * * * * * * * * * * * * * * * * * * * * * * * * * //

dimensions      [0 0 -1 0 0 0 0];

internalField   nonuniform List<scalar> 
76025
(
0.0293756
0.0293736
0.0293636
0.0293442
0.0293294
0.0293337
0.0293207
0.0293195
0.0293121
0.0293022
0.0293064
0.0292953
0.0292932
0.0292782
0.029278
0.029273
0.0292737
0.0292596
0.0292701
0.0292712
0.0292794
0.0292719
0.0292805
0.0292698
0.0292772
0.0292859
0.0293409
0.0293402
0.0293507
0.0293635
0.0293909
0.0294205
0.0294774
0.0295278
0.0295912
0.0296531
0.0297279
0.0298231
0.0299188
0.0300246
0.0301349
0.030267
0.0304133
0.0305637
0.030719
0.0308865
0.0310609
0.0312439
0.031437
0.0316363
0.0318542
0.0320862
0.0323381
0.0326147
0.0329554
0.0333259
0.0337634
0.0342847
0.0348901
0.0356541
0.0364834
0.0375748
0.038903
0.0405007
0.0425492
0.0449252
0.0478055
0.0512747
0.0552818
0.0296357
0.0296475
0.0296556
0.0296596
0.0296668
0.0296881
0.029693
0.0296925
0.0296903
0.0296904
0.0296932
0.0296923
0.029709
0.0297142
0.0297189
0.0297202
0.0297069
0.0296961
0.0296964
0.0296976
0.0297075
0.0297164
0.0297242
0.0297427
0.02977
0.0297983
0.0298402
0.0299258
0.0299645
0.0299646
0.0299757
0.0300582
0.0301187
0.0301534
0.0301893
0.0302394
0.0303025
0.0303796
0.0304659
0.0305624
0.0306707
0.0307882
0.0309151
0.0310509
0.0311981
0.0313564
0.0315259
0.0317079
0.0319086
0.0321287
0.0323719
0.0326427
0.0329488
0.0332929
0.0336905
0.0341493
0.0346813
0.0353021
0.0360306
0.036894
0.0379184
0.0391685
0.0406635
0.0424709
0.044696
0.0472729
0.0505026
0.054074
0.0586373
0.0299746
0.0299769
0.0299808
0.029987
0.0299975
0.0300136
0.0300285
0.0300423
0.0300543
0.0300646
0.030072
0.0300777
0.0300886
0.0301009
0.0301244
0.0301628
0.0301505
0.0301745
0.0301647
0.0301774
0.0301911
0.030213
0.0302355
0.0302772
0.0303565
0.0303913
0.0303812
0.0303925
0.0304136
0.0304416
0.0304791
0.030531
0.0305874
0.0306442
0.0307044
0.0307711
0.0308456
0.0309287
0.0310203
0.0311207
0.0312312
0.0313525
0.0314844
0.031629
0.0317864
0.0319579
0.0321456
0.0323512
0.0325796
0.0328319
0.0331146
0.0334294
0.0337871
0.0341884
0.0346506
0.035178
0.0357889
0.0365021
0.0373322
0.0383299
0.0394947
0.0409186
0.0425961
0.0446266
0.0470578
0.0498722
0.053342
0.0571644
0.0620954
0.0303829
0.0303976
0.0304087
0.030441
0.0304519
0.0304445
0.0304485
0.0304582
0.030473
0.0304905
0.0305089
0.0305263
0.0305405
0.0305634
0.0306042
0.0306692
0.0306913
0.0306916
0.0307
0.0307142
0.030729
0.0307453
0.0307652
0.0307942
0.0308317
0.0308672
0.0308989
0.0309312
0.0309665
0.031006
0.0310513
0.0311029
0.0311605
0.0312237
0.0312928
0.0313687
0.031452
0.0315434
0.0316433
0.0317528
0.0318727
0.032005
0.0321497
0.0323099
0.0324853
0.0326778
0.03289
0.0331241
0.0333845
0.0336734
0.0339976
0.0343592
0.0347703
0.0352314
0.035764
0.0363685
0.0370765
0.0378945
0.0388581
0.0400003
0.0413366
0.0429548
0.0448274
0.0470912
0.0497237
0.0527922
0.0565293
0.0606194
0.0660031
0.0308877
0.0308813
0.0308808
0.0308857
0.0308947
0.030904
0.0309187
0.0309356
0.0309566
0.0309809
0.0310094
0.0310455
0.0310964
0.031135
0.0311543
0.0311804
0.0311943
0.0312169
0.0312562
0.0312951
0.0313236
0.0313445
0.0313647
0.0313905
0.0314236
0.0314629
0.031506
0.0315516
0.0315996
0.0316503
0.0317044
0.0317629
0.0318265
0.0318962
0.0319726
0.0320566
0.0321488
0.0322501
0.0323611
0.0324832
0.0326174
0.0327654
0.0329283
0.0331087
0.0333075
0.0335262
0.0337677
0.0340348
0.034332
0.0346624
0.0350334
0.0354482
0.0359199
0.0364509
0.0370649
0.0377621
0.0385813
0.0395223
0.0406354
0.041935
0.0434571
0.0452685
0.0473424
0.0498455
0.0526821
0.0560628
0.0600804
0.0645326
0.0704938
0.0315341
0.0315351
0.0315256
0.0315472
0.0315514
0.0315354
0.0315419
0.0315445
0.0315733
0.0316288
0.0316479
0.0316505
0.031683
0.0317237
0.0317592
0.0317888
0.0318124
0.0318348
0.0318705
0.0319122
0.031952
0.0319875
0.0320212
0.0320568
0.0320971
0.0321434
0.0321948
0.0322505
0.0323096
0.032372
0.0324378
0.0325076
0.0325823
0.032663
0.0327509
0.0328468
0.0329517
0.0330667
0.0331929
0.0333315
0.0334838
0.0336517
0.0338369
0.0340415
0.034268
0.0345172
0.0347927
0.0350977
0.0354373
0.0358156
0.036241
0.0367181
0.0372615
0.0378752
0.0385853
0.0393919
0.0403395
0.0414198
0.0426987
0.044165
0.0458876
0.0478933
0.0501921
0.0529498
0.0560242
0.0598004
0.0641198
0.0691142
0.0758294
0.0322103
0.0322221
0.0322319
0.0322464
0.0322623
0.032272
0.0322821
0.0322967
0.0323185
0.0323736
0.0324049
0.0324177
0.0324333
0.0324554
0.032489
0.0325334
0.0325999
0.0327034
0.0327441
0.032727
0.0327308
0.0327537
0.0327866
0.0328281
0.0328773
0.0329324
0.0329932
0.033059
0.0331292
0.0332037
0.0332825
0.0333661
0.0334553
0.0335511
0.0336546
0.0337667
0.0338884
0.0340211
0.034166
0.0343247
0.0344989
0.0346903
0.0349014
0.0351341
0.0353922
0.0356764
0.0359907
0.0363395
0.0367285
0.0371634
0.0376533
0.0382051
0.038834
0.0395464
0.040369
0.0413023
0.0423936
0.0436276
0.0450844
0.0467262
0.0486671
0.0508752
0.0534442
0.0564786
0.0598684
0.0641412
0.0688039
0.0746737
0.0822029
0.032988
0.0330095
0.0330379
0.0330902
0.0331159
0.0331311
0.0331435
0.0331556
0.0331721
0.0332004
0.0332254
0.0332508
0.0332704
0.0333049
0.033342
0.0334094
0.033464
0.0335752
0.0336591
0.0337037
0.0338179
0.0337716
0.0338851
0.0338405
0.033841
0.0338798
0.0339413
0.034015
0.0340973
0.034187
0.0342832
0.0343855
0.0344939
0.0346093
0.0347326
0.0348646
0.0350068
0.0351604
0.0353271
0.0355091
0.0357086
0.035927
0.0361668
0.0364302
0.0367222
0.0370448
0.0374025
0.0378011
0.0382477
0.0387495
0.0393165
0.0399574
0.0406875
0.041515
0.0424653
0.0435404
0.0447876
0.0461886
0.0478362
0.0496706
0.0518597
0.0542967
0.0572099
0.0605556
0.0644057
0.0692697
0.0744088
0.0816355
0.0898388
0.0339678
0.0339815
0.0339996
0.0340315
0.0340625
0.0340899
0.0341143
0.034138
0.0341609
0.0341899
0.034223
0.0342626
0.0342982
0.0343406
0.0343807
0.0344345
0.0344902
0.0345561
0.0346327
0.0347021
0.0347811
0.0348794
0.0349612
0.03506
0.0351181
0.0353074
0.0353831
0.0353382
0.035348
0.0354079
0.0354999
0.0356128
0.0357404
0.03588
0.0360305
0.0361913
0.036362
0.0365439
0.036739
0.0369534
0.0371867
0.037436
0.0377039
0.0379954
0.0383177
0.0386779
0.0390812
0.0395354
0.0400486
0.0406291
0.0412871
0.042032
0.042878
0.0438348
0.0449258
0.0461563
0.0475726
0.0491597
0.0510215
0.0530833
0.0555707
0.0582891
0.0616533
0.0653663
0.0699096
0.0754268
0.0814046
0.0904787
0.0992438
0.0351001
0.0351274
0.0351502
0.0351755
0.0352027
0.0352309
0.0352599
0.0352907
0.0353221
0.0353566
0.0353953
0.0354399
0.0354863
0.0355354
0.0355848
0.0356383
0.0356939
0.0357554
0.0358212
0.0358897
0.035966
0.0360392
0.0361225
0.036206
0.0362855
0.0363749
0.0364599
0.0365406
0.0366281
0.0367387
0.0368643
0.0370086
0.0371722
0.0373567
0.0375587
0.0377711
0.0379888
0.038217
0.0384583
0.0387453
0.0390381
0.0393137
0.0395913
0.0398922
0.0402321
0.0406253
0.0410773
0.0415958
0.0421881
0.0428617
0.0436254
0.0444884
0.0454638
0.0465633
0.0478095
0.0492138
0.0508231
0.0526312
0.0547509
0.0570999
0.0599619
0.0630469
0.0670069
0.0711843
0.0767563
0.0829621
0.0905572
0.101701
0.111522
0.0364377
0.0364771
0.0365123
0.0365457
0.036578
0.0366103
0.0366432
0.0366782
0.0367158
0.0367567
0.0368017
0.0368511
0.036904
0.0369594
0.0370164
0.0370755
0.0371367
0.0372019
0.0372712
0.0373448
0.037424
0.0375054
0.037591
0.03768
0.0377713
0.0378673
0.0379689
0.0380765
0.038197
0.0383303
0.0384808
0.0386525
0.0388395
0.039055
0.0392957
0.0395513
0.0398186
0.0401144
0.0404395
0.0409542
0.0413282
0.0415554
0.0417949
0.0420882
0.0424528
0.0428959
0.043421
0.0440283
0.0447221
0.0455082
0.0463945
0.0473911
0.0485122
0.0497737
0.0512007
0.0528132
0.0546602
0.0567479
0.0591954
0.0619205
0.0652663
0.0688426
0.0735983
0.0784085
0.0854561
0.0924576
0.102998
0.115777
0.129923
0.0380504
0.0380966
0.0381419
0.0381864
0.0382295
0.0382715
0.0383132
0.0383556
0.0383998
0.0384472
0.0384985
0.038554
0.0386136
0.0386763
0.0387413
0.0388083
0.0388776
0.0389501
0.0390275
0.0391094
0.0391965
0.0392888
0.0393859
0.0394883
0.0395953
0.0397078
0.0398278
0.039955
0.0400951
0.0402479
0.0404175
0.0406081
0.0408188
0.0410518
0.0413066
0.0415795
0.0418663
0.0421677
0.0424855
0.0428314
0.0431907
0.0435649
0.043971
0.0444241
0.044936
0.0455153
0.0461696
0.0469053
0.0477282
0.0486479
0.0496763
0.0508282
0.0521226
0.053582
0.0552365
0.0571154
0.0592711
0.0617244
0.0645995
0.0678254
0.0718081
0.076057
0.0818997
0.0876196
0.0967345
0.104963
0.120073
0.134244
0.159052
0.040015
0.0400668
0.0401195
0.0401734
0.0402273
0.0402808
0.040334
0.0403873
0.0404418
0.040498
0.0405577
0.0406208
0.040688
0.0407602
0.040838
0.0409207
0.0410077
0.0410972
0.0411892
0.041284
0.0413825
0.0414857
0.041594
0.0417087
0.0418298
0.0419584
0.0420959
0.0422429
0.0424024
0.042576
0.0427661
0.0429753
0.0432051
0.0434564
0.0437312
0.0440291
0.0443486
0.0446899
0.0450553
0.0454488
0.0458751
0.0463398
0.0468506
0.0474152
0.0480416
0.0487375
0.0495113
0.050372
0.0513311
0.0524006
0.0535968
0.0549405
0.0564564
0.0581739
0.0601283
0.0623591
0.0649226
0.0678591
0.0712994
0.075203
0.0800409
0.0852403
0.0926156
0.0996721
0.111752
0.122198
0.143475
0.161688
0.200315
0.0424271
0.0424869
0.0425479
0.0426112
0.0426755
0.0427405
0.0428062
0.0428726
0.0429402
0.0430093
0.0430809
0.0431557
0.0432342
0.0433177
0.0434073
0.043503
0.0436046
0.0437111
0.0438217
0.043936
0.0440539
0.0441764
0.0443041
0.0444386
0.0445809
0.0447323
0.0448943
0.0450684
0.0452564
0.0454603
0.0456821
0.0459238
0.046187
0.0464733
0.0467844
0.0471218
0.047487
0.0478817
0.0483088
0.0487722
0.0492767
0.0498278
0.0504321
0.0510969
0.0518306
0.0526426
0.0535442
0.0545482
0.0556702
0.0569285
0.0583448
0.0599448
0.0617581
0.0638209
0.0661754
0.0688727
0.0719781
0.0755597
0.079762
0.0846077
0.090625
0.0972366
0.10682
0.1159
0.132505
0.146642
0.177175
0.203252
0.263495
0.0454177
0.0454906
0.0455645
0.0456409
0.0457187
0.0457978
0.0458785
0.0459607
0.0460449
0.0461311
0.0462202
0.0463119
0.0464065
0.046505
0.0466086
0.0467184
0.046835
0.0469584
0.0470883
0.0472245
0.0473667
0.0475154
0.0476712
0.0478351
0.0480083
0.0481922
0.0483883
0.048598
0.0488232
0.0490654
0.0493266
0.0496086
0.0499131
0.0502419
0.0505972
0.0509817
0.051398
0.0518492
0.0523391
0.0528723
0.0534543
0.0540919
0.054793
0.0555669
0.0564247
0.0573792
0.0584453
0.0596402
0.0609841
0.0625
0.0642149
0.0661601
0.0683721
0.0708957
0.0737827
0.0771027
0.0809388
0.0854027
0.0906693
0.0968737
0.104579
0.113414
0.12618
0.1386
0.16229
0.182447
0.227935
0.2659
0.354241
0.0491801
0.0492743
0.0493691
0.0494662
0.0495648
0.049665
0.0497669
0.0498702
0.0499753
0.0500825
0.0501923
0.0503051
0.0504213
0.0505415
0.0506665
0.0507973
0.0509347
0.0510794
0.0512318
0.0513921
0.0515606
0.0517375
0.0519234
0.0521192
0.0523256
0.0525439
0.0527753
0.0530211
0.053283
0.0535625
0.0538614
0.0541818
0.0545258
0.054896
0.0552953
0.0557273
0.0561962
0.0567068
0.0572647
0.0578765
0.0585501
0.0592946
0.0601208
0.0610409
0.0620692
0.063222
0.0645179
0.0659782
0.0676273
0.0694936
0.0716102
0.0740166
0.0767598
0.0798997
0.0835073
0.0876803
0.0925356
0.098257
0.105086
0.11333
0.123583
0.136052
0.15339
0.172052
0.206559
0.236442
0.306328
0.360727
0.475112
0.0540075
0.054132
0.0542559
0.0543811
0.0545069
0.0546333
0.0547609
0.0548901
0.0550211
0.0551543
0.0552899
0.0554284
0.0555702
0.0557158
0.0558656
0.0560205
0.0561812
0.0563483
0.0565227
0.0567048
0.0568953
0.0570947
0.0573036
0.0575229
0.0577535
0.0579965
0.0582533
0.0585253
0.0588143
0.0591224
0.059452
0.0598058
0.060187
0.0605996
0.061048
0.0615374
0.0620741
0.062665
0.0633181
0.0640425
0.0648487
0.0657486
0.0667557
0.0678854
0.069155
0.0705843
0.0721962
0.0740166
0.0760763
0.0784114
0.0810655
0.0840924
0.0875567
0.0915473
0.0961648
0.101561
0.107916
0.115529
0.124785
0.136207
0.150552
0.169019
0.193407
0.224351
0.273237
0.321459
0.425522
0.497113
0.673018
0.0602874
0.060445
0.0606009
0.0607569
0.0609121
0.0610667
0.0612212
0.0613761
0.0615316
0.0616882
0.0618461
0.0620058
0.0621677
0.0623322
0.0624998
0.0626711
0.0628468
0.0630276
0.0632145
0.0634081
0.0636095
0.0638197
0.0640396
0.0642706
0.0645141
0.0647718
0.0650455
0.0653377
0.0656508
0.065988
0.0663529
0.0667496
0.0671827
0.0676579
0.0681814
0.0687605
0.0694032
0.0701187
0.0709171
0.0718102
0.0728109
0.0739339
0.0751957
0.0766153
0.0782142
0.0800174
0.0820541
0.0843584
0.0869717
0.089944
0.093338
0.0972331
0.101724
0.106954
0.113068
0.120323
0.129027
0.139649
0.152873
0.169444
0.190888
0.219333
0.25607
0.307768
0.374907
0.461496
0.585629
0.692507
0.885279
0.0684437
0.0686312
0.0688145
0.0689952
0.0691727
0.0693472
0.0695194
0.0696899
0.0698591
0.0700276
0.0701959
0.0703645
0.0705339
0.0707048
0.0708778
0.0710537
0.0712335
0.071418
0.0716084
0.0718061
0.0720124
0.072229
0.0724576
0.0727002
0.0729591
0.0732369
0.0735365
0.0738613
0.0742152
0.0746024
0.0750279
0.0754974
0.0760171
0.0765944
0.0772373
0.0779548
0.0787571
0.0796554
0.0806627
0.0817933
0.0830636
0.0844922
0.0861004
0.0879126
0.0899578
0.0922696
0.0948887
0.0978639
0.101256
0.10514
0.109614
0.114803
0.120852
0.128011
0.136489
0.146777
0.159381
0.175054
0.195162
0.220683
0.254948
0.299647
0.358095
0.438149
0.534901
0.658696
0.808486
0.939908
1.13109
0.0789329
0.079141
0.0793427
0.0795371
0.0797248
0.0799069
0.0800848
0.0802596
0.0804322
0.0806036
0.0807744
0.0809452
0.0811166
0.0812895
0.081465
0.0816442
0.0818283
0.082019
0.0822178
0.0824264
0.0826471
0.0828821
0.0831339
0.0834054
0.0836998
0.0840207
0.0843723
0.0847589
0.0851858
0.0856588
0.0861843
0.0867694
0.0874221
0.088152
0.0889692
0.0898848
0.0909117
0.0920646
0.0933602
0.0948175
0.0964585
0.0983082
0.100396
0.102757
0.105433
0.108473
0.11194
0.115908
0.120474
0.125763
0.131932
0.139198
0.147781
0.158163
0.17065
0.18625
0.205822
0.230578
0.263252
0.304679
0.360508
0.430876
0.521811
0.63755
0.766541
0.930715
1.08534
1.23299
1.41754
0.0924437
0.0926199
0.0927984
0.092979
0.0931604
0.0933423
0.0935253
0.0937098
0.0938965
0.0940859
0.0942748
0.0944614
0.094648
0.094837
0.0950303
0.0952297
0.0954369
0.0956539
0.0958828
0.096126
0.0963863
0.0966667
0.0969707
0.097302
0.0976651
0.0980647
0.0985061
0.0989954
0.0995393
0.100145
0.100822
0.101578
0.102423
0.103373
0.104438
0.105633
0.106977
0.108491
0.110196
0.112121
0.114298
0.116762
0.11956
0.122742
0.126379
0.130548
0.135348
0.140913
0.147405
0.155039
0.164093
0.174952
0.187999
0.204294
0.224222
0.249869
0.282573
0.323755
0.378736
0.446278
0.534526
0.642139
0.772478
0.925611
1.09215
1.27316
1.42236
1.54901
1.63826
0.110267
0.110404
0.110547
0.110699
0.110856
0.111021
0.111192
0.111371
0.111558
0.111753
0.111958
0.112172
0.112396
0.112631
0.11288
0.113138
0.113406
0.113686
0.113981
0.114296
0.114633
0.114997
0.115393
0.115827
0.116303
0.116829
0.117411
0.118059
0.11878
0.119585
0.120486
0.121494
0.122627
0.123903
0.125336
0.12695
0.128773
0.130833
0.133166
0.135815
0.138831
0.142271
0.146213
0.150742
0.155982
0.162063
0.169162
0.177565
0.187492
0.199458
0.21393
0.231666
0.253547
0.281586
0.315968
0.360638
0.416963
0.485747
0.576382
0.681602
0.812914
0.967881
1.1397
1.33534
1.51433
1.61151
1.65846
1.69861
1.72749
0.134548
0.134664
0.134793
0.134935
0.135089
0.135255
0.135434
0.135626
0.135833
0.136055
0.136294
0.13655
0.136826
0.137122
0.137442
0.137785
0.138154
0.13854
0.138947
0.139381
0.139846
0.140349
0.140897
0.141497
0.142157
0.142886
0.143694
0.144593
0.145596
0.146716
0.14797
0.149379
0.150968
0.152757
0.154778
0.157068
0.15967
0.162631
0.166012
0.169887
0.174345
0.17949
0.185483
0.192454
0.200695
0.210417
0.222011
0.236145
0.252931
0.274018
0.299632
0.331766
0.371753
0.422535
0.48351
0.560891
0.654651
0.764969
0.904361
1.05966
1.24703
1.45674
1.6447
1.72833
1.75151
1.73992
1.73759
1.74215
1.67867
0.169526
0.169669
0.169831
0.170013
0.170213
0.170433
0.170673
0.170933
0.171215
0.17152
0.17185
0.172206
0.17259
0.173003
0.173448
0.173928
0.174435
0.174975
0.175553
0.176175
0.17685
0.177585
0.178389
0.179272
0.180245
0.181321
0.182513
0.183839
0.185319
0.186976
0.188837
0.190936
0.193309
0.195998
0.199062
0.202567
0.206588
0.211224
0.216595
0.222846
0.230174
0.238778
0.249052
0.261169
0.275977
0.293659
0.315239
0.342323
0.37382
0.415906
0.463972
0.525866
0.599865
0.689229
0.79184
0.917261
1.06367
1.2307
1.43495
1.66607
1.83818
1.90815
1.89668
1.86042
1.80281
1.71688
1.63356
1.45247
1.05275
0.224916
0.225175
0.225461
0.225775
0.226115
0.226482
0.226877
0.227301
0.227756
0.228245
0.228769
0.229322
0.229904
0.230522
0.231182
0.231891
0.232653
0.233476
0.234367
0.235336
0.236391
0.237545
0.23881
0.2402
0.241731
0.243424
0.245303
0.247398
0.24975
0.252406
0.25542
0.25886
0.262803
0.267345
0.272603
0.278721
0.285877
0.294288
0.304241
0.316062
0.330242
0.347194
0.367955
0.392655
0.423664
0.460501
0.505928
0.563222
0.62598
0.713895
0.799134
0.918105
1.03836
1.17962
1.33395
1.53566
1.75403
1.98522
2.10967
2.12671
2.10055
2.03362
1.9273
1.69768
1.42872
1.2035
1.08126
0.932111
0.83408
0.328634
0.329133
0.329666
0.330232
0.33083
0.331462
0.33213
0.332837
0.333587
0.334381
0.335226
0.336125
0.337082
0.338102
0.339194
0.340365
0.341624
0.342983
0.34445
0.346044
0.347775
0.349667
0.351736
0.354
0.356502
0.359278
0.362393
0.365972
0.370144
0.375024
0.38075
0.38749
0.395444
0.404858
0.416033
0.429336
0.445243
0.46428
0.487228
0.514816
0.548275
0.588577
0.637616
0.696255
0.76753
0.851503
0.949648
1.06697
1.18803
1.34667
1.47865
1.67501
1.81354
2.01779
2.27478
2.41077
2.42662
2.3954
2.33967
2.21172
1.98798
1.59777
1.12785
0.835398
0.740294
0.764542
0.743371
0.688615
0.658971
0.571794
0.572792
0.573845
0.574956
0.576124
0.57735
0.578635
0.579984
0.581401
0.582893
0.584464
0.586126
0.587884
0.589752
0.59174
0.593866
0.59613
0.598586
0.601192
0.604074
0.607121
0.610547
0.61422
0.618249
0.623013
0.628438
0.635388
0.644144
0.654972
0.668223
0.684298
0.703681
0.72693
0.754732
0.787881
0.827289
0.874184
0.929501
0.995253
1.07201
1.16223
1.26717
1.38622
1.52475
1.67252
1.84278
2.01455
2.2001
2.38697
2.55771
2.74042
2.85938
3.0146
2.98981
2.89541
2.73057
2.55554
2.31657
1.89214
1.56649
1.18794
0.822616
0.606071
0.547326
0.557858
0.581217
0.588852
0.564658
0.538345
1.47413
1.47605
1.47804
1.48022
1.48243
1.48481
1.48718
1.48972
1.49225
1.49495
1.49766
1.50057
1.50351
1.50667
1.50993
1.51344
1.51693
1.52114
1.5248
1.53014
1.53399
1.54118
1.54519
1.5549
1.57304
1.60039
1.63653
1.68175
1.73636
1.80076
1.87537
1.96059
2.0569
2.16459
2.28412
2.4154
2.55871
2.71348
2.87934
3.05459
3.23761
3.42583
3.61412
3.80076
3.97351
4.1347
4.2623
4.36009
4.40701
4.37821
4.29608
4.11752
3.78311
3.22154
2.64635
2.08945
1.65942
1.50768
1.54199
1.55663
1.49354
1.25798
0.998246
0.907054
0.867476
0.855204
0.851231
0.848634
0.853832
8.63508
8.63324
8.62438
8.6222
8.61017
8.60641
8.59166
8.58563
8.56855
8.56023
8.54098
8.53031
8.50889
8.49582
8.4739
8.45284
8.4315
8.40801
8.38472
8.35745
8.33585
8.3046
8.27181
8.23829
8.20386
8.16829
8.13136
8.09293
8.05282
8.01087
7.96688
7.92063
7.87188
7.8203
7.76562
7.70739
7.64528
7.57877
7.50738
7.43063
7.34801
7.25909
7.16353
7.06166
6.95379
6.84304
6.7307
6.62557
6.54079
6.48308
6.44329
6.40729
6.3716
6.33601
6.30091
6.26621
6.23286
6.201
6.17066
6.14152
6.11346
6.08626
6.05995
6.03478
6.01085
5.98779
5.96625
5.94645
5.92796
0.0293667
0.029369
0.0293713
0.029376
0.0293708
0.0293713
0.0293572
0.0293458
0.0293445
0.0293405
0.0293309
0.029344
0.0293557
0.0293639
0.0293636
0.0293463
0.0293639
0.0293716
0.0293734
0.0293623
0.0293919
0.0294172
0.0294029
0.0294056
0.0294006
0.0293881
0.0294158
0.0294361
0.0294596
0.0294561
0.0294641
0.0294874
0.0295095
0.0294979
0.0294987
0.0294884
0.029495
0.0294913
0.0294843
0.0294968
0.0294753
0.0294767
0.0294664
0.0294581
0.0294644
0.0294489
0.0294254
0.0294112
0.0293997
0.02938
0.0293522
0.0293422
0.0293458
0.0293453
0.0293529
0.02936
0.0293637
0.0293632
0.029368
0.0296795
0.0296755
0.0296656
0.0296571
0.0296452
0.0296333
0.0296209
0.029612
0.0296075
0.0296003
0.0295937
0.029598
0.0295988
0.0296003
0.0295957
0.0295909
0.0296051
0.0296068
0.0296065
0.0296086
0.0296363
0.029648
0.0296337
0.029639
0.0296274
0.0296213
0.0296502
0.0296745
0.029688
0.029685
0.0297014
0.0297228
0.0297427
0.0297351
0.0297406
0.0297343
0.0297355
0.0297372
0.0297331
0.0297409
0.0297302
0.0297314
0.0297269
0.0297215
0.0297253
0.029725
0.0297123
0.0296949
0.0296805
0.0296668
0.0296485
0.0296325
0.0296219
0.0296113
0.0296105
0.0296123
0.0296154
0.0296185
0.0296246
0.030017
0.0300067
0.0299909
0.0299781
0.0299639
0.0299517
0.0299411
0.0299322
0.0299245
0.0299156
0.0299096
0.0299071
0.0299009
0.0298927
0.029884
0.0298847
0.029889
0.0298893
0.0298898
0.0299079
0.0299256
0.0299266
0.0299143
0.0299177
0.0299039
0.0299037
0.0299329
0.0299594
0.0299658
0.0299646
0.0299869
0.0300065
0.0300249
0.0300223
0.0300308
0.0300291
0.0300286
0.0300315
0.0300275
0.0300418
0.0300395
0.0300351
0.0300345
0.0300402
0.0300349
0.0300374
0.0300461
0.030044
0.0300385
0.0300222
0.03
0.0299772
0.029967
0.0299619
0.0299544
0.0299492
0.029962
0.0299673
0.0299751
0.0304024
0.0303903
0.030373
0.0303594
0.0303451
0.0303326
0.0303205
0.0303086
0.0302965
0.0302843
0.0302734
0.0302624
0.0302497
0.0302388
0.0302323
0.0302306
0.0302357
0.0302349
0.0302413
0.0302554
0.0302671
0.0302619
0.0302493
0.0302497
0.0302352
0.0302423
0.0302703
0.0302968
0.0302992
0.0302999
0.0303258
0.0303444
0.0303628
0.0303646
0.0303755
0.0303795
0.0303789
0.0303838
0.030382
0.0303893
0.0303978
0.0304053
0.0303985
0.0303999
0.0304146
0.0304113
0.0304124
0.030417
0.0304237
0.0304365
0.030435
0.0304238
0.0303986
0.0303795
0.0303779
0.0303782
0.0303719
0.0303691
0.0303731
0.0308561
0.030843
0.0308241
0.0308087
0.030792
0.030776
0.0307593
0.0307424
0.0307251
0.030708
0.0306918
0.0306764
0.030663
0.0306542
0.0306502
0.0306487
0.0306465
0.0306472
0.0306514
0.0306631
0.0306676
0.0306592
0.0306465
0.0306445
0.0306306
0.0306436
0.0306701
0.0306958
0.0306965
0.0306992
0.0307272
0.0307459
0.0307648
0.030771
0.0307843
0.0307925
0.0307954
0.0308027
0.030801
0.0308128
0.0308177
0.0308277
0.0308423
0.0308406
0.0308455
0.0308598
0.0308765
0.0308732
0.0308743
0.0308859
0.0308914
0.030904
0.0309148
0.0309061
0.0309012
0.0308898
0.0308925
0.0308841
0.0308923
0.0313876
0.031372
0.0313496
0.0313303
0.0313091
0.0312881
0.0312664
0.0312448
0.0312234
0.0312033
0.0311849
0.0311692
0.0311571
0.0311489
0.0311432
0.0311379
0.0311328
0.0311333
0.0311338
0.0311396
0.0311405
0.0311304
0.0311175
0.0311132
0.0311032
0.0311188
0.0311444
0.0311691
0.0311694
0.0311745
0.0312039
0.0312234
0.0312432
0.0312536
0.0312697
0.0312824
0.0312895
0.0313035
0.0313032
0.0313127
0.0313358
0.0313348
0.0313485
0.0313574
0.0313647
0.0313785
0.0313951
0.0314226
0.0314199
0.0314252
0.0314325
0.0314464
0.0314601
0.0314703
0.0314834
0.0315061
0.0315132
0.0315199
0.031526
0.0320064
0.0319873
0.0319605
0.0319368
0.0319112
0.031886
0.0318606
0.0318361
0.0318128
0.0317915
0.0317728
0.0317572
0.0317446
0.0317344
0.0317254
0.0317176
0.0317127
0.0317133
0.0317138
0.0317134
0.0317057
0.0316894
0.031677
0.0316712
0.0316659
0.0316833
0.0317082
0.0317315
0.0317326
0.0317402
0.0317707
0.031792
0.031813
0.0318276
0.0318467
0.0318641
0.0318761
0.0318933
0.0318978
0.0319086
0.0319301
0.0319516
0.0319598
0.0319696
0.0319807
0.0319969
0.0320093
0.0320515
0.0320648
0.0320722
0.0320798
0.0320917
0.0321045
0.0321196
0.0321374
0.0321535
0.0321682
0.032179
0.0321949
0.0327312
0.0327088
0.032678
0.0326507
0.0326218
0.0325937
0.0325661
0.0325399
0.0325154
0.0324932
0.0324735
0.0324564
0.0324416
0.0324285
0.0324173
0.0324089
0.0324042
0.0324026
0.0323982
0.0323895
0.0323738
0.0323545
0.0323424
0.0323363
0.0323366
0.0323547
0.032379
0.0324009
0.0324037
0.0324141
0.0324455
0.0324692
0.032492
0.0325108
0.0325334
0.0325559
0.0325738
0.0325942
0.0326082
0.0326205
0.0326401
0.0326681
0.0326902
0.0327051
0.0327181
0.0327373
0.0327494
0.0327846
0.0328131
0.0328332
0.0328484
0.0328628
0.0328773
0.0328923
0.0329099
0.0329237
0.0329376
0.0329476
0.0329658
0.0335895
0.0335645
0.0335305
0.0335002
0.0334687
0.0334383
0.0334087
0.0333806
0.0333543
0.0333302
0.0333083
0.0332886
0.033271
0.0332556
0.0332429
0.0332333
0.0332261
0.0332186
0.0332063
0.0331891
0.0331676
0.0331474
0.0331359
0.0331311
0.0331353
0.0331545
0.0331784
0.0331991
0.0332042
0.0332175
0.0332502
0.033277
0.0333022
0.0333253
0.0333521
0.0333799
0.0334047
0.0334292
0.0334523
0.0334718
0.0334924
0.0335195
0.0335518
0.0335784
0.033598
0.0336216
0.0336384
0.0336672
0.0336998
0.0337297
0.0337552
0.0337774
0.0337965
0.0338164
0.033835
0.0338627
0.0338915
0.0339101
0.0339462
0.0346149
0.0345877
0.0345506
0.0345175
0.0344832
0.0344501
0.0344178
0.034387
0.0343579
0.0343308
0.0343057
0.0342829
0.0342624
0.0342444
0.0342289
0.0342153
0.0342019
0.0341859
0.0341649
0.0341406
0.0341157
0.0340957
0.034085
0.0340826
0.0340898
0.0341097
0.0341332
0.0341533
0.0341613
0.0341778
0.0342122
0.0342427
0.0342712
0.034299
0.0343304
0.0343641
0.0343965
0.0344272
0.034458
0.0344869
0.0345147
0.0345428
0.0345786
0.0346153
0.0346457
0.034677
0.0347025
0.0347313
0.0347646
0.034799
0.0348321
0.0348622
0.0348898
0.0349153
0.0349402
0.0349676
0.0349989
0.0350257
0.0350645
0.0358473
0.0358177
0.0357772
0.0357407
0.0357029
0.0356662
0.0356303
0.0355957
0.0355627
0.0355315
0.0355024
0.0354754
0.0354506
0.0354279
0.0354067
0.0353858
0.0353635
0.035338
0.0353093
0.0352798
0.0352532
0.0352338
0.0352243
0.0352246
0.035234
0.0352544
0.0352776
0.0352976
0.0353089
0.0353291
0.0353657
0.0354007
0.0354336
0.0354666
0.0355035
0.0355436
0.0355841
0.0356231
0.0356621
0.0357002
0.0357386
0.0357739
0.0358133
0.0358566
0.0358975
0.0359383
0.0359751
0.0360107
0.0360478
0.036086
0.0361243
0.0361611
0.0361964
0.0362291
0.036261
0.0362919
0.0363252
0.0363537
0.0363959
0.037336
0.0373034
0.0372588
0.0372179
0.0371757
0.0371341
0.0370931
0.0370533
0.0370148
0.036978
0.0369429
0.0369096
0.036878
0.0368475
0.0368175
0.0367869
0.0367546
0.0367202
0.036685
0.036652
0.0366245
0.0366058
0.0365976
0.0366009
0.0366111
0.0366317
0.0366549
0.0366754
0.0366904
0.0367148
0.0367545
0.0367949
0.0368332
0.0368724
0.0369158
0.0369631
0.0370125
0.0370614
0.0371103
0.0371583
0.0372078
0.0372548
0.0373022
0.0373527
0.0374031
0.0374539
0.0375026
0.0375491
0.0375948
0.03764
0.0376848
0.0377284
0.0377709
0.0378114
0.0378505
0.0378877
0.0379259
0.0379578
0.0380052
0.0391446
0.039108
0.0390582
0.0390114
0.038963
0.0389148
0.0388667
0.0388194
0.0387731
0.038728
0.0386842
0.0386416
0.0386
0.0385589
0.0385178
0.0384762
0.0384338
0.0383913
0.0383508
0.038315
0.0382867
0.0382684
0.0382615
0.0382643
0.0382765
0.0382972
0.0383205
0.0383422
0.0383614
0.0383906
0.0384344
0.038481
0.0385263
0.038573
0.0386241
0.03868
0.0387394
0.0387995
0.0388603
0.0389204
0.0389819
0.0390427
0.0391026
0.0391636
0.0392252
0.0392871
0.0393482
0.0394076
0.0394653
0.0395215
0.0395763
0.0396295
0.0396812
0.0397309
0.0397789
0.0398247
0.0398706
0.0399091
0.039965
0.0413591
0.0413166
0.0412597
0.0412047
0.0411476
0.0410899
0.0410318
0.0409738
0.0409163
0.0408595
0.0408035
0.0407482
0.0406935
0.0406394
0.0405855
0.040532
0.0404795
0.0404293
0.0403834
0.0403443
0.0403144
0.0402953
0.040288
0.0402923
0.0403036
0.0403238
0.0403472
0.0403707
0.0403945
0.0404293
0.0404785
0.0405325
0.0405865
0.0406424
0.0407032
0.0407694
0.0408403
0.0409135
0.0409884
0.0410632
0.0411392
0.0412155
0.0412913
0.0413672
0.0414432
0.0415194
0.0415951
0.0416695
0.0417422
0.041813
0.0418818
0.0419486
0.0420132
0.0420756
0.0421359
0.0421936
0.0422508
0.0423004
0.0423689
0.0441068
0.0440547
0.0439873
0.0439201
0.0438501
0.0437784
0.0437055
0.0436321
0.0435585
0.0434852
0.0434123
0.04334
0.0432686
0.0431982
0.0431291
0.0430619
0.0429978
0.0429382
0.0428852
0.0428408
0.042807
0.042785
0.0427755
0.0427788
0.0427887
0.0428078
0.0428314
0.0428571
0.0428861
0.0429273
0.0429833
0.0430463
0.0431113
0.0431788
0.0432517
0.0433308
0.0434157
0.0435045
0.0435963
0.0436892
0.0437834
0.0438785
0.0439739
0.0440692
0.0441645
0.0442596
0.0443541
0.0444476
0.0445394
0.0446293
0.044717
0.0448023
0.0448851
0.0449654
0.0450433
0.0451185
0.0451926
0.0452594
0.0453464
0.0476015
0.0475318
0.0474466
0.0473591
0.0472675
0.0471729
0.047076
0.0469779
0.0468791
0.0467803
0.0466821
0.0465851
0.0464897
0.0463965
0.0463064
0.0462202
0.0461395
0.0460657
0.0460007
0.0459464
0.0459042
0.0458752
0.0458599
0.0458586
0.0458661
0.045883
0.0459063
0.0459343
0.0459688
0.0460174
0.046082
0.0461561
0.0462348
0.0463173
0.0464059
0.0465018
0.0466046
0.0467131
0.046826
0.0469417
0.0470595
0.047179
0.0472995
0.0474204
0.0475415
0.0476624
0.0477829
0.0479023
0.0480202
0.0481363
0.0482501
0.0483615
0.0484703
0.0485764
0.04868
0.0487812
0.0488808
0.0489742
0.0490885
0.0522318
0.0521274
0.0520091
0.051885
0.051754
0.0516174
0.0514767
0.0513335
0.0511889
0.0510443
0.0509008
0.0507596
0.0506217
0.0504885
0.0503611
0.0502409
0.0501295
0.0500285
0.0499397
0.0498646
0.0498043
0.0497598
0.0497315
0.0497191
0.0497224
0.0497348
0.0497557
0.0497852
0.0498252
0.0498824
0.0499579
0.050046
0.0501423
0.0502454
0.0503554
0.0504741
0.0506014
0.0507364
0.050878
0.0510245
0.0511749
0.0513283
0.0514839
0.0516411
0.0517991
0.0519575
0.0521157
0.0522732
0.0524295
0.052584
0.0527364
0.0528864
0.0530339
0.0531787
0.0533212
0.0534614
0.0536
0.0537337
0.0538867
0.0586865
0.0584997
0.0583108
0.0581255
0.0579285
0.0577201
0.057503
0.0572794
0.057052
0.0568234
0.0565965
0.0563734
0.0561549
0.0559434
0.055741
0.0555501
0.0553728
0.0552111
0.055067
0.0549421
0.0548377
0.0547548
0.0546941
0.054657
0.0546404
0.0546396
0.0546514
0.054677
0.0547197
0.0547854
0.0548743
0.0549813