/*--------------------------------*- C++ -*----------------------------------*\
| =========                 |                                                 |
| \\      /  F ield         | OpenFOAM: The Open Source CFD Toolbox           |
|  \\    /   O peration     | Version:  2312                                  |
|   \\  /    A nd           | Website:  www.openfoam.com                      |
|    \\/     M anipulation  |                                                 |
\*---------------------------------------------------------------------------*/
FoamFile
{
    version     2.0;
    format      ascii;
    arch        "LSB;label=32;scalar=64";
    class       volScalarField;
    location    "1200";
    object      p;
}
// * * * * * * * * * * * * * * * * * * * * * * * * * * * * * * * * * * * * * //

dimensions      [0 2 -2 0 0 0 0];

internalField   nonuniform List<scalar> 
76025
(
8.71195e-05
7.74841e-05
6.77438e-05
5.7923e-05
4.81508e-05
3.83226e-05
2.8036e-05
1.80332e-05
7.81038e-06
-2.26329e-06
-1.23892e-05
-2.25767e-05
-3.28301e-05
-4.3028e-05
-5.32837e-05
-6.36418e-05
-7.36998e-05
-8.39785e-05
-9.40894e-05
-0.000104207
-0.000114121
-0.000124133
-0.000133931
-0.000143526
-0.000153109
-0.000162487
-0.000171792
-0.000181073
-0.000189907
-0.000198865
-0.000207206
-0.000215497
-0.000223597
-0.000231572
-0.000239098
-0.000246372
-0.00025314
-0.000260159
-0.000266784
-0.000272901
-0.000278474
-0.000283802
-0.000289272
-0.000294073
-0.000298296
-0.000302027
-0.000305613
-0.000308738
-0.00031094
-0.000312768
-0.000314221
-0.000314969
-0.000315197
-0.000314852
-0.000313698
-0.000311154
-0.000308588
-0.000304703
-0.000300099
-0.000294598
-0.000287513
-0.000279543
-0.000270056
-0.00025936
-0.000246735
-0.000231455
-0.000215774
-0.000199091
-0.000177171
8.53692e-05
7.5318e-05
6.51999e-05
5.49535e-05
4.46146e-05
3.41756e-05
2.36942e-05
1.31735e-05
2.59555e-06
-8.01754e-06
-1.86734e-05
-2.93561e-05
-4.00418e-05
-5.07405e-05
-6.14015e-05
-7.20322e-05
-8.2661e-05
-9.32304e-05
-0.000103791
-0.00011423
-0.000124621
-0.000134894
-0.000145046
-0.000155045
-0.000164949
-0.000174739
-0.000184373
-0.000193761
-0.000202944
-0.000211971
-0.000220753
-0.000229442
-0.000237851
-0.000245941
-0.000253765
-0.000261271
-0.000268535
-0.000275576
-0.000282278
-0.000288655
-0.00029461
-0.000300267
-0.000305607
-0.000310461
-0.000314904
-0.000318923
-0.00032256
-0.000325664
-0.000328225
-0.000330346
-0.000331983
-0.000333001
-0.000333423
-0.000333206
-0.000332219
-0.000330388
-0.000327938
-0.00032451
-0.000320154
-0.000314814
-0.000308352
-0.000300791
-0.000291743
-0.000281273
-0.00026914
-0.000255212
-0.00023986
-0.000222754
-0.0002028
8.32204e-05
7.27214e-05
6.21288e-05
5.13844e-05
4.05365e-05
2.96437e-05
1.86965e-05
7.68436e-06
-3.38281e-06
-1.44978e-05
-2.56375e-05
-3.6783e-05
-4.7932e-05
-5.9071e-05
-7.01778e-05
-8.12709e-05
-9.23266e-05
-0.000103333
-0.000114277
-0.00012514
-0.000135907
-0.00014656
-0.000157092
-0.000167488
-0.000177751
-0.000187866
-0.000197786
-0.000207504
-0.000217031
-0.000226357
-0.000235486
-0.000244393
-0.000253017
-0.000261356
-0.000269418
-0.000277189
-0.000284678
-0.000291877
-0.000298774
-0.00030534
-0.000311532
-0.000317364
-0.000322838
-0.000327924
-0.000332597
-0.000336837
-0.000340641
-0.00034398
-0.000346826
-0.000349173
-0.000351003
-0.000352264
-0.00035293
-0.000352963
-0.000352297
-0.000350867
-0.000348692
-0.00034567
-0.00034174
-0.000336847
-0.000330885
-0.000323774
-0.000315328
-0.000305485
-0.000294117
-0.000281126
-0.00026655
-0.000250298
-0.000231548
8.07215e-05
6.97227e-05
5.86191e-05
4.7362e-05
3.6013e-05
2.46078e-05
1.31438e-05
1.62164e-06
-9.94717e-06
-2.15502e-05
-3.31735e-05
-4.48052e-05
-5.64356e-05
-6.80525e-05
-7.96428e-05
-9.11996e-05
-0.000102708
-0.000114156
-0.000125528
-0.000136811
-0.000147988
-0.000159046
-0.000169973
-0.000180753
-0.000191375
-0.000201827
-0.000212092
-0.000222158
-0.000232014
-0.00024165
-0.000251054
-0.000260207
-0.000269091
-0.000277694
-0.000286006
-0.000294023
-0.000301742
-0.000309159
-0.000316263
-0.000323029
-0.000329436
-0.00033548
-0.000341155
-0.000346445
-0.000351323
-0.000355775
-0.000359793
-0.000363357
-0.000366442
-0.000369032
-0.000371111
-0.000372645
-0.0003736
-0.000373939
-0.000373615
-0.000372578
-0.000370801
-0.000368225
-0.000364779
-0.000360397
-0.000354995
-0.000348477
-0.000340725
-0.000331659
-0.000321187
-0.000309251
-0.000295802
-0.000280844
-0.000263778
7.78189e-05
6.62903e-05
5.46543e-05
4.28587e-05
3.09701e-05
1.90235e-05
7.02249e-06
-5.03079e-06
-1.71265e-05
-2.92521e-05
-4.13945e-05
-5.35417e-05
-6.56818e-05
-7.78023e-05
-8.98899e-05
-0.000101932
-0.000113914
-0.000125824
-0.000137647
-0.000149369
-0.000160974
-0.000172448
-0.000183777
-0.000194949
-0.00020595
-0.000216767
-0.000227387
-0.000237793
-0.000247975
-0.00025792
-0.000267616
-0.00027705
-0.000286207
-0.000295073
-0.000303639
-0.000311899
-0.000319853
-0.000327494
-0.00033481
-0.000341786
-0.000348407
-0.000354664
-0.000360547
-0.000366043
-0.000371136
-0.000375812
-0.000380058
-0.000383861
-0.000387199
-0.000390056
-0.000392413
-0.000394244
-0.000395519
-0.000396204
-0.00039626
-0.000395646
-0.000394323
-0.000392239
-0.000389331
-0.000385533
-0.000380773
-0.000374965
-0.000368028
-0.00035989
-0.000350482
-0.000339777
-0.000327688
-0.000314278
-0.000298917
7.44526e-05
6.23605e-05
5.01596e-05
3.77927e-05
2.53313e-05
1.2814e-05
2.45269e-07
-1.23724e-05
-2.5029e-05
-3.771e-05
-5.04017e-05
-6.30914e-05
-7.5766e-05
-8.84127e-05
-0.000101018
-0.000113569
-0.000126049
-0.000138446
-0.000150742
-0.000162922
-0.000174972
-0.000186878
-0.000198625
-0.0002102
-0.00022159
-0.00023278
-0.000243758
-0.000254509
-0.000265021
-0.000275281
-0.000285277
-0.000294997
-0.000304427
-0.000313556
-0.000322373
-0.000330877
-0.000339066
-0.000346933
-0.000354468
-0.00036166
-0.000368496
-0.000374967
-0.000381064
-0.000386776
-0.000392091
-0.000396997
-0.000401483
-0.000405536
-0.000409141
-0.000412281
-0.00041494
-0.000417095
-0.00041872
-0.000419787
-0.000420262
-0.000420107
-0.000419284
-0.000417744
-0.000415435
-0.000412297
-0.000408271
-0.00040329
-0.000397301
-0.000390245
-0.000382078
-0.000372794
-0.000362287
-0.000350714
-0.000337394
7.05354e-05
5.78477e-05
4.50504e-05
3.20812e-05
1.90167e-05
5.8982e-06
-7.26907e-06
-2.04817e-05
-3.37285e-05
-4.69938e-05
-6.02634e-05
-7.35229e-05
-8.67586e-05
-9.9957e-05
-0.000113104
-0.000126185
-0.000139186
-0.00015209
-0.000164881
-0.000177543
-0.000190061
-0.000202419
-0.000214602
-0.000226596
-0.000238386
-0.000249958
-0.000261299
-0.000272398
-0.000283243
-0.00029382
-0.000304118
-0.000314125
-0.000323828
-0.000333217
-0.000342285
-0.000351032
-0.000359456
-0.000367551
-0.000375307
-0.000382716
-0.000389768
-0.000396455
-0.000402768
-0.0004087
-0.000414242
-0.000419385
-0.00042412
-0.000428435
-0.00043232
-0.00043576
-0.000438741
-0.000441245
-0.000443249
-0.00044473
-0.000445657
-0.000445998
-0.000445718
-0.000444776
-0.000443129
-0.000440729
-0.000437535
-0.000433499
-0.000428594
-0.000422775
-0.00041603
-0.000408353
-0.000399655
-0.000390164
-0.00037898
6.59791e-05
5.266e-05
3.92316e-05
2.56262e-05
1.19254e-05
-1.82618e-06
-1.56226e-05
-2.94602e-05
-4.33268e-05
-5.72057e-05
-7.10812e-05
-8.49387e-05
-9.87635e-05
-0.00011254
-0.000126253
-0.000139887
-0.000153427
-0.000166856
-0.000180159
-0.000193319
-0.00020632
-0.000219147
-0.000231782
-0.000244208
-0.000256413
-0.000268381
-0.000280101
-0.000291559
-0.000302742
-0.00031364
-0.00032424
-0.000334532
-0.000344506
-0.000354151
-0.000363466
-0.000372452
-0.000381108
-0.000389427
-0.000397403
-0.000405027
-0.000412293
-0.000419194
-0.000425725
-0.000431879
-0.00043765
-0.000443034
-0.000448023
-0.000452609
-0.000456785
-0.00046054
-0.000463862
-0.000466735
-0.000469143
-0.000471064
-0.000472474
-0.000473347
-0.000473653
-0.000473361
-0.00047244
-0.00047086
-0.000468597
-0.000465622
-0.000461935
-0.000457503
-0.000452357
-0.000446476
-0.000439844
-0.000432678
-0.000424027
6.07035e-05
4.67108e-05
3.26097e-05
1.83274e-05
3.9511e-06
-1.04712e-05
-2.49329e-05
-3.94302e-05
-5.39498e-05
-6.84746e-05
-8.29875e-05
-9.74728e-05
-0.000111915
-0.000126297
-0.000140602
-0.000154813
-0.000168915
-0.000182889
-0.000196721
-0.000210393
-0.000223889
-0.000237195
-0.000250291
-0.000263162
-0.000275794
-0.00028817
-0.000300278
-0.000312102
-0.000323629
-0.00033485
-0.000345753
-0.000356329
-0.000366568
-0.000376463
-0.000386017
-0.000395235
-0.000404116
-0.000412653
-0.000420841
-0.000428675
-0.00043615
-0.00044326
-0.000450002
-0.000456375
-0.000462375
-0.000468
-0.000473247
-0.000478111
-0.000482586
-0.000486667
-0.000490342
-0.000493602
-0.000496432
-0.000498817
-0.000500737
-0.000502174
-0.000503107
-0.000503518
-0.000503389
-0.000502707
-0.000501468
-0.000499661
-0.000497313
-0.000494408
-0.000491022
-0.000487128
-0.000482838
-0.000478318
-0.000472957
5.46044e-05
3.9896e-05
2.50802e-05
1.00784e-05
-5.01578e-06
-2.01508e-05
-3.53189e-05
-5.05153e-05
-6.57255e-05
-8.09315e-05
-9.61157e-05
-0.000111261
-0.000126351
-0.000141367
-0.000156292
-0.000171108
-0.000185797
-0.000200341
-0.000214722
-0.000228923
-0.000242928
-0.000256722
-0.000270287
-0.000283607
-0.000296667
-0.00030945
-0.000321943
-0.000334132
-0.000346004
-0.00035755
-0.000368757
-0.000379617
-0.000390122
-0.000400269
-0.000410059
-0.000419501
-0.000428593
-0.000437332
-0.000445718
-0.000453748
-0.000461418
-0.000468725
-0.000475669
-0.000482252
-0.000488476
-0.000494341
-0.000499846
-0.000504989
-0.000509769
-0.000514181
-0.000518218
-0.000521875
-0.000525141
-0.000528006
-0.000530459
-0.000532491
-0.000534091
-0.000535254
-0.000535977
-0.000536264
-0.000536128
-0.000535582
-0.000534676
-0.000533417
-0.000531922
-0.000530188
-0.000528447
-0.000526769
-0.000524901
4.75446e-05
3.20783e-05
1.65065e-05
7.43187e-07
-1.51113e-05
-3.10013e-05
-4.69174e-05
-6.28533e-05
-7.87941e-05
-9.47206e-05
-0.000110613
-0.000126454
-0.000142224
-0.000157905
-0.000173478
-0.000188924
-0.000204225
-0.000219361
-0.000234313
-0.000249065
-0.000263597
-0.000277892
-0.000291935
-0.000305708
-0.000319199
-0.00033239
-0.000345266
-0.000357816
-0.000370029
-0.000381894
-0.0003934
-0.000404539
-0.000415304
-0.00042569
-0.000435704
-0.000445356
-0.000454646
-0.000463574
-0.000472139
-0.00048034
-0.000488181
-0.000495666
-0.000502798
-0.000509583
-0.000516023
-0.00052212
-0.000527877
-0.000533296
-0.000538376
-0.000543117
-0.000547517
-0.000551573
-0.000555282
-0.000558641
-0.000561647
-0.0005643
-0.000566601
-0.000568558
-0.000570182
-0.000571494
-0.000572523
-0.000573309
-0.000573917
-0.000574397
-0.000574894
-0.000575474
-0.000576405
-0.000577814
-0.0005795
3.93601e-05
2.30889e-05
6.71615e-06
-9.85256e-06
-2.65099e-05
-4.31959e-05
-5.99002e-05
-7.66162e-05
-9.33277e-05
-0.000110013
-0.000126651
-0.000143223
-0.000159707
-0.000176086
-0.000192338
-0.000208442
-0.000224379
-0.00024013
-0.000255675
-0.000270995
-0.000286069
-0.00030088
-0.000315411
-0.000329646
-0.000343569
-0.000357166
-0.000370424
-0.000383329
-0.000395871
-0.000408041
-0.000419828
-0.000431227
-0.000442233
-0.000452848
-0.000463081
-0.000472935
-0.000482409
-0.000491503
-0.000500223
-0.000508573
-0.000516563
-0.000524203
-0.000531502
-0.000538465
-0.000545099
-0.000551409
-0.0005574
-0.000563076
-0.000568442
-0.0005735
-0.000578254
-0.000582707
-0.000586861
-0.000590721
-0.000594293
-0.000597587
-0.000600614
-0.000603394
-0.000605953
-0.000608326
-0.000610557
-0.000612715
-0.000614881
-0.000617159
-0.000619711
-0.000622713
-0.000626403
-0.000631067
-0.00063608
2.98679e-05
1.2739e-05
-4.48548e-06
-2.19091e-05
-3.94167e-05
-5.69443e-05
-7.4481e-05
-9.20194e-05
-0.000109542
-0.000127025
-0.000144446
-0.000161784
-0.000179017
-0.000196124
-0.000213083
-0.000229873
-0.000246473
-0.00026286
-0.000279015
-0.000294916
-0.000310545
-0.000325882
-0.000340908
-0.000355608
-0.000369966
-0.000383966
-0.000397597
-0.000410846
-0.000423703
-0.000436158
-0.000448206
-0.000459842
-0.000471067
-0.000481887
-0.000492309
-0.000502332
-0.000511957
-0.000521191
-0.000530043
-0.000538522
-0.000546641
-0.000554412
-0.000561848
-0.00056896
-0.000575757
-0.000582249
-0.000588445
-0.000594352
-0.000599981
-0.000605337
-0.000610431
-0.00061527
-0.000619864
-0.000624226
-0.00062837
-0.000632313
-0.000636078
-0.000639695
-0.000643201
-0.000646647
-0.000650093
-0.000653632
-0.000657359
-0.000661442
-0.000666044
-0.000671456
-0.000677877
-0.000685845
-0.000694894
1.88479e-05
8.04513e-07
-1.73267e-05
-3.56593e-05
-5.40702e-05
-7.24909e-05
-9.09094e-05
-0.000109317
-0.000127695
-0.000146018
-0.000164262
-0.000182404
-0.000200421
-0.000218289
-0.000235986
-0.000253489
-0.000270774
-0.000287819
-0.000304602
-0.000321101
-0.000337296
-0.000353166
-0.000368693
-0.000383858
-0.000398647
-0.000413045
-0.000427038
-0.000440616
-0.000453769
-0.000466489
-0.000478772
-0.000490614
-0.000502017
-0.000512992
-0.000523549
-0.000533692
-0.000543426
-0.000552759
-0.000561703
-0.000570271
-0.000578479
-0.000586342
-0.000593877
-0.000601097
-0.000608019
-0.000614655
-0.00062102
-0.000627126
-0.000632987
-0.000638617
-0.000644028
-0.000649237
-0.000654259
-0.000659114
-0.000663822
-0.000668411
-0.00067291
-0.000677359
-0.000681805
-0.000686314
-0.000690958
-0.000695854
-0.000701107
-0.000706933
-0.000713488
-0.000721115
-0.000729933
-0.000740923
-0.000753164
6.02357e-06
-1.29943e-05
-3.20898e-05
-5.13886e-05
-7.07587e-05
-9.01267e-05
-0.000109479
-0.000128806
-0.000148087
-0.000167295
-0.000186406
-0.000205393
-0.000224233
-0.000242899
-0.000261367
-0.000279611
-0.000297608
-0.000315333
-0.000332762
-0.000349872
-0.000366643
-0.000383051
-0.000399079
-0.000414707
-0.00042992
-0.000444702
-0.00045904
-0.000472924
-0.000486346
-0.000499298
-0.000511778
-0.000523783
-0.000535319
-0.0005464
-0.000557038
-0.00056724
-0.000577019
-0.000586385
-0.000595355
-0.000603947
-0.000612179
-0.000620071
-0.000627642
-0.000634914
-0.000641906
-0.000648635
-0.000655122
-0.000661384
-0.00066744
-0.000673308
-0.000679007
-0.000684559
-0.000689985
-0.000695311
-0.000700564
-0.000705778
-0.000710991
-0.00071625
-0.000721612
-0.000727151
-0.000732953
-0.000739146
-0.000745849
-0.000753301
-0.000761631
-0.00077116
-0.000782002
-0.000795149
-0.00080951
-8.96091e-06
-2.9017e-05
-4.91374e-05
-6.94619e-05
-8.9849e-05
-0.00011022
-0.000130561
-0.000150859
-0.000171094
-0.000191235
-0.000211257
-0.000231132
-0.000250833
-0.000270333
-0.000289605
-0.000308622
-0.000327356
-0.000345783
-0.000363875
-0.00038161
-0.000398962
-0.000415911
-0.000432435
-0.000448515
-0.000464133
-0.000479276
-0.000493929
-0.000508083
-0.000521729
-0.000534863
-0.000547482
-0.000559587
-0.000571188
-0.000582304
-0.000592947
-0.000603131
-0.000612872
-0.000622187
-0.000631098
-0.000639627
-0.000647799
-0.000655639
-0.000663171
-0.000670421
-0.000677414
-0.000684173
-0.000690723
-0.000697087
-0.000703287
-0.000709347
-0.000715292
-0.000721148
-0.000726943
-0.000732706
-0.000738473
-0.000744281
-0.000750175
-0.000756208
-0.000762444
-0.000768962
-0.000775856
-0.000783259
-0.000791296
-0.000800194
-0.000810071
-0.000821326
-0.000834221
-0.000849662
-0.000867094
-2.65788e-05
-4.77421e-05
-6.89511e-05
-9.03636e-05
-0.000111828
-0.000133262
-0.000154647
-0.000175972
-0.00019721
-0.000218334
-0.000239312
-0.000260116
-0.000280717
-0.000301086
-0.000321192
-0.000341006
-0.0003605
-0.000379644
-0.000398411
-0.000416774
-0.000434707
-0.000452186
-0.000469189
-0.000485695
-0.000501687
-0.000517148
-0.000532066
-0.000546431
-0.000560235
-0.000573475
-0.00058615
-0.000598265
-0.000609839
-0.000620891
-0.000631438
-0.000641499
-0.000651095
-0.000660251
-0.000668995
-0.000677356
-0.000685365
-0.000693052
-0.00070045
-0.000707589
-0.0007145
-0.000721212
-0.000727753
-0.000734152
-0.000740435
-0.000746632
-0.000752772
-0.000758883
-0.000765
-0.000771157
-0.000777394
-0.000783754
-0.000790287
-0.000797049
-0.000804106
-0.000811538
-0.000819441
-0.000827933
-0.000837133
-0.000847276
-0.000858598
-0.000871671
-0.000886925
-0.000905412
-0.000926519
-4.75229e-05
-6.9865e-05
-9.22255e-05
-0.000114786
-0.000137387
-0.000159938
-0.00018242
-0.000204818
-0.000227106
-0.000249252
-0.000271224
-0.00029299
-0.000314518
-0.000335777
-0.000356733
-0.000377356
-0.000397612
-0.000417471
-0.000436902
-0.000455876
-0.000474364
-0.000492341
-0.000509782
-0.000526665
-0.000542971
-0.000558683
-0.000573789
-0.000588279
-0.000602146
-0.000615389
-0.00062801
-0.000640022
-0.000651447
-0.000662309
-0.00067263
-0.000682435
-0.000691753
-0.000700616
-0.000709061
-0.000717124
-0.000724845
-0.000732261
-0.000739413
-0.000746336
-0.000753068
-0.000759643
-0.000766094
-0.000772453
-0.000778751
-0.000785021
-0.000791294
-0.000797605
-0.000803991
-0.000810492
-0.000817151
-0.000824015
-0.000831139
-0.000838578
-0.0008464
-0.000854672
-0.000863473
-0.000872907
-0.00088315
-0.000894504
-0.000907353
-0.000922306
-0.000939859
-0.000960966
-0.000984639
-7.27562e-05
-9.63213e-05
-0.000119869
-0.000143611
-0.000167379
-0.000191076
-0.000214681
-0.000238175
-0.000261531
-0.000284713
-0.000307688
-0.000330419
-0.000352874
-0.000375016
-0.000396811
-0.000418223
-0.000439218
-0.00045976
-0.000479817
-0.000499356
-0.000518346
-0.00053676
-0.000554569
-0.000571751
-0.000588285
-0.000604154
-0.000619344
-0.000633846
-0.000647656
-0.000660774
-0.000673206
-0.000684974
-0.000696105
-0.000706625
-0.000716563
-0.000725953
-0.000734833
-0.000743246
-0.000751238
-0.000758855
-0.000766145
-0.000773157
-0.000779937
-0.000786529
-0.000792976
-0.000799317
-0.000805589
-0.000811827
-0.000818065
-0.000824337
-0.000830678
-0.000837127
-0.000843725
-0.000850514
-0.000857542
-0.000864862
-0.00087253
-0.000880597
-0.000889116
-0.00089815
-0.000907789
-0.000918183
-0.00092956
-0.000942198
-0.000956427
-0.000972661
-0.000991267
-0.00101274
-0.00103635
-0.000103001
-0.000127776
-0.000152495
-0.000177404
-0.000202328
-0.000227163
-0.00025188
-0.00027646
-0.000300869
-0.000325072
-0.00034903
-0.000372706
-0.000396061
-0.000419058
-0.000441657
-0.000463821
-0.00048551
-0.000506687
-0.000527315
-0.000547359
-0.000566784
-0.000585559
-0.000603656
-0.000621048
-0.000637713
-0.000653632
-0.000668792
-0.000683184
-0.000696805
-0.000709657
-0.000721754
-0.000733125
-0.000743799
-0.000753809
-0.000763192
-0.000771992
-0.000780261
-0.00078805
-0.000795419
-0.000802425
-0.000809129
-0.000815588
-0.00082186
-0.000827997
-0.000834046
-0.000840052
-0.000846053
-0.000852088
-0.000858189
-0.000864392
-0.000870731
-0.000877248
-0.000883991
-0.000891008
-0.000898349
-0.000906069
-0.000914223
-0.000922873
-0.000932096
-0.00094199
-0.000952672
-0.000964262
-0.000976836
-0.000990433
-0.00100506
-0.00102072
-0.00103743
-0.00105521
-0.00107406
-0.000137789
-0.000163755
-0.000189619
-0.00021567
-0.000241728
-0.000267682
-0.000293497
-0.000319149
-0.000344602
-0.000369817
-0.000394752
-0.000419365
-0.000443615
-0.000467459
-0.000490853
-0.000513756
-0.000536124
-0.000557915
-0.000579089
-0.000599606
-0.000619428
-0.000638521
-0.000656852
-0.000674392
-0.000691116
-0.000707004
-0.000722041
-0.000736218
-0.000749533
-0.000761992
-0.000773616
-0.000784439
-0.000794495
-0.000803822
-0.000812469
-0.000820495
-0.000827962
-0.000834937
-0.000841492
-0.000847703
-0.000853643
-0.000859385
-0.000864996
-0.000870539
-0.00087607
-0.000881634
-0.000887275
-0.000893028
-0.000898922
-0.000904987
-0.000911254
-0.000917763
-0.000924564
-0.000931715
-0.000939287
-0.000947362
-0.000956038
-0.000965426
-0.00097564
-0.000986754
-0.000998756
-0.00101152
-0.00102479
-0.00103818
-0.00105121
-0.00106331
-0.0010741
-0.00108333
-0.0010922
-0.000175391
-0.0002026
-0.000229657
-0.000256895
-0.000284137
-0.000311262
-0.000338228
-0.000365007
-0.00039156
-0.000417845
-0.000443815
-0.000469424
-0.000494625
-0.000519371
-0.000543613
-0.000567303
-0.000590395
-0.00061284
-0.000634594
-0.000655613
-0.000675854
-0.000695278
-0.000713848
-0.000731528
-0.000748292
-0.000764116
-0.000778981
-0.000792879
-0.000805808
-0.000817778
-0.000828816
-0.000838957
-0.000848238
-0.000856706
-0.000864426
-0.00087147
-0.000877916
-0.000883851
-0.000889369
-0.000894565
-0.000899534
-0.000904366
-0.000909147
-0.000913949
-0.000918835
-0.000923856
-0.000929049
-0.00093444
-0.000940047
-0.000945889
-0.00095199
-0.000958392
-0.000965163
-0.000972406
-0.000980254
-0.000988856
-0.000998347
-0.00100883
-0.00102032
-0.00103273
-0.00104577
-0.001059
-0.00107173
-0.00108304
-0.00109189
-0.00109737
-0.00109916
-0.00109758
-0.00109545
-0.000214123
-0.000242707
-0.000271107
-0.000299681
-0.000328252
-0.000356692
-0.000384953
-0.000413004
-0.000440802
-0.000468299
-0.000495444
-0.000522187
-0.000548474
-0.000574253
-0.000599471
-0.000624074
-0.000648008
-0.000671221
-0.000693662
-0.00071528
-0.000736027
-0.000755855
-0.000774722
-0.000792586
-0.000809415
-0.000825177
-0.000839853
-0.000853429
-0.000865901
-0.000877284
-0.000887606
-0.000896901
-0.000905217
-0.000912619
-0.000919182
-0.000924993
-0.000930155
-0.000934781
-0.000938993
-0.000942915
-0.00094667
-0.000950376
-0.000954138
-0.000958042
-0.000962154
-0.000966513
-0.000971142
-0.000976047
-0.000981241
-0.000986756
-0.000992645
-0.000998991
-0.0010059
-0.00101348
-0.00102187
-0.00103121
-0.00104157
-0.00105296
-0.00106527
-0.0010782
-0.00109124
-0.00110356
-0.00111392
-0.00112095
-0.00112349
-0.00112106
-0.00111454
-0.00110633
-0.00110026
-0.000251709
-0.000281924
-0.000311918
-0.000342074
-0.000372217
-0.000402216
-0.000432015
-0.000461578
-0.000490859
-0.000519804
-0.000548358
-0.000576464
-0.000604063
-0.000631099
-0.000657511
-0.00068324
-0.000708225
-0.000732407
-0.000755727
-0.000778126
-0.000799546
-0.000819934
-0.000839236
-0.000857405
-0.000874395
-0.000890171
-0.000904702
-0.000917969
-0.000929967
-0.000940709
-0.000950222
-0.000958541
-0.000965725
-0.000971851
-0.00097701
-0.000981313
-0.000984891
-0.00098789
-0.000990463
-0.000992769
-0.000994968
-0.000997211
-0.000999635
-0.00100235
-0.00100545
-0.001009
-0.00101301
-0.0010175
-0.00102247
-0.00102791
-0.00103387
-0.0010404
-0.00104759
-0.0010555
-0.00106414
-0.00107358
-0.00108387
-0.00109499
-0.00110673
-0.0011185
-0.00112951
-0.0011387
-0.00114482
-0.00114676
-0.00114391
-0.00113642
-0.00112628
-0.00111766
-0.00111343
-0.000289616
-0.000321608
-0.000353455
-0.000385463
-0.000417453
-0.00044929
-0.000480915
-0.000512285
-0.000543346
-0.000574041
-0.000604306
-0.000634078
-0.000663293
-0.000691884
-0.000719784
-0.000746924
-0.000773236
-0.000798649
-0.000823095
-0.000846505
-0.000868811
-0.000889946
-0.000909848
-0.000928452
-0.000945699
-0.000961537
-0.00097592
-0.000988816
-0.00100021
-0.00101013
-0.00101858
-0.00102561
-0.00103129
-0.00103571
-0.00103897
-0.00104123
-0.00104263
-0.00104338
-0.00104367
-0.00104372
-0.00104378
-0.00104405
-0.00104477
-0.00104612
-0.00104823
-0.0010512
-0.00105502
-0.00105964
-0.00106492
-0.00107066
-0.00107671
-0.00108302
-0.00108965
-0.00109671
-0.00110416
-0.00111199
-0.00112025
-0.00112894
-0.00113758
-0.00114538
-0.00115196
-0.00115718
-0.00116014
-0.00115969
-0.00115559
-0.00114858
-0.00114009
-0.00113246
-0.00112923
-0.000319783
-0.000354222
-0.000388346
-0.000422594
-0.000456805
-0.000490838
-0.000524629
-0.000558131
-0.000591291
-0.000624046
-0.000656328
-0.000688067
-0.000719193
-0.000749631
-0.000779305
-0.00080814
-0.000836058
-0.000862981
-0.000888831
-0.000913532
-0.00093701
-0.000959192
-0.000980006
-0.00099937
-0.0010172
-0.00103343
-0.001048
-0.00106085
-0.00107197
-0.00108133
-0.00108894
-0.00109483
-0.00109907
-0.00110174
-0.00110299
-0.00110298
-0.00110194
-0.00110013
-0.00109785
-0.00109543
-0.00109321
-0.00109154
-0.00109071
-0.00109095
-0.00109239
-0.00109503
-0.00109873
-0.00110324
-0.00110825
-0.00111345
-0.00111858
-0.00112354
-0.00112833
-0.00113287
-0.00113691
-0.00114011
-0.00114277
-0.00114593
-0.00114982
-0.00115381
-0.00115783
-0.00116193
-0.00116475
-0.00116465
-0.00116159
-0.00115655
-0.00115082
-0.00114668
-0.00114582
-0.000367709
-0.000404323
-0.000441132
-0.000478086
-0.000515006
-0.000551754
-0.000588257
-0.000624463
-0.000660306
-0.000695714
-0.000730608
-0.000764905
-0.000798526
-0.000831383
-0.00086339
-0.000894454
-0.000924484
-0.000953381
-0.000981049
-0.00100739
-0.00103231
-0.0010557
-0.00107744
-0.00109738
-0.00111539
-0.00113142
-0.0011454
-0.00115727
-0.00116699
-0.00117455
-0.00117996
-0.00118327
-0.00118456
-0.00118394
-0.00118159
-0.00117773
-0.00117263
-0.00116663
-0.0011601
-0.00115348
-0.00114722
-0.00114181
-0.0011377
-0.00113528
-0.0011348
-0.0011363
-0.00113951
-0.00114378
-0.00114822
-0.00115182
-0.00115396
-0.00115475
-0.00115468
-0.00115413
-0.00115307
-0.00115116
-0.00114896
-0.00114861
-0.00115093
-0.00115472
-0.00115847
-0.00116131
-0.00116275
-0.00116264
-0.00116075
-0.00115749
-0.00115468
-0.00115359
-0.00115407
-0.000385973
-0.000425434
-0.00046427
-0.000503419
-0.000542631
-0.000581619
-0.000620296
-0.000658634
-0.000696578
-0.000734051
-0.000770968
-0.000807242
-0.000842788
-0.000877514
-0.000911328
-0.000944131
-0.000975826
-0.00100631
-0.0010355
-0.00106331
-0.00108969
-0.00111465
-0.00113819
-0.00116007
-0.0011799
-0.00119746
-0.00121265
-0.00122543
-0.00123573
-0.00124348
-0.0012486
-0.00125109
-0.00125093
-0.00124819
-0.00124302
-0.00123564
-0.00122639
-0.00121575
-0.0012043
-0.00119278
-0.00118199
-0.00117275
-0.00116582
-0.00116174
-0.00116071
-0.0011625
-0.00116635
-0.001171
-0.0011748
-0.00117602
-0.00117365
-0.00116859
-0.00116285
-0.00115814
-0.00115536
-0.00115431
-0.00115401
-0.00115378
-0.00115364
-0.0011543
-0.00115569
-0.00115671
-0.00115651
-0.00115519
-0.00115335
-0.00115184
-0.00115143
-0.00115214
-0.00115346
-0.000502534
-0.000544821
-0.000587769
-0.000630722
-0.000673398
-0.000715754
-0.000757771
-0.000799397
-0.000840557
-0.000881166
-0.000921127
-0.00096034
-0.000998703
-0.00103611
-0.00107243
-0.00110756
-0.00114134
-0.00117363
-0.00120426
-0.00123304
-0.00125974
-0.00128409
-0.00130583
-0.00132499
-0.00134178
-0.00135616
-0.00136797
-0.00137698
-0.00138301
-0.00138588
-0.00138546
-0.00138168
-0.00137452
-0.00136404
-0.00135043
-0.00133398
-0.00131512
-0.00129444
-0.0012727
-0.00125078
-0.00122969
-0.00121045
-0.00119407
-0.00118136
-0.00117283
-0.00116855
-0.00116807
-0.0011704
-0.00117409
-0.00117737
-0.00117883
-0.00117746
-0.00117319
-0.00116715
-0.00116132
-0.00115759
-0.00115614
-0.00115549
-0.00115506
-0.00115478
-0.00115438
-0.00115336
-0.00115143
-0.00114893
-0.00114671
-0.00114567
-0.00114613
-0.00114777
-0.00115004
0.000234571
0.000239155
0.000243975
0.000249222
0.000254872
0.00026089
0.000267363
0.000274121
0.000281244
0.000288733
0.000296523
0.000304685
0.000312908
0.000321938
0.000330218
0.000339119
0.000347199
0.000355712
0.000363758
0.000371572
0.0003796
0.000385811
0.000391837
0.000396734
0.000400758
0.000403865
0.000405373
0.000405722
0.000404938
0.000402752
0.000398752
0.000393459
0.000386992
0.000379554
0.000370391
0.00036032
0.000349436
0.000337616
0.000325124
0.000312294
0.00029898
0.000285193
0.000271744
0.00025856
0.000244555
0.000231545
0.000218168
0.000205515
0.000193179
0.000181219
0.000169839
0.000158904
0.000148567
0.000138654
0.000129388
0.000120115
0.000111547
0.000103442
9.57936e-05
0.000237503
0.00024225
0.000247413
0.000252947
0.000258866
0.000265183
0.000271908
0.000278995
0.000286467
0.000294313
0.000302489
0.000310988
0.000319709
0.00032869
0.000337794
0.00034688
0.000355925
0.000364787
0.000373459
0.000381634
0.000389484
0.000396602
0.000402905
0.000408217
0.0004125
0.000415653
0.000417509
0.000417942
0.000417173
0.000414865
0.000410817
0.000405468
0.000398807
0.00039078
0.000381414
0.000370926
0.00035951
0.000347265
0.00033429
0.000320772
0.000306876
0.000292703
0.000278518
0.000264222
0.000250025
0.000236096
0.000222423
0.000209172
0.000196293
0.000183825
0.000171868
0.000160439
0.000149472
0.000139052
0.0001291
0.000119681
0.000110762
0.000102331
9.43309e-05
0.000240694
0.000245663
0.000251038
0.000256829
0.000263031
0.000269649
0.00027668
0.000284116
0.000291957
0.000300189
0.000308767
0.000317654
0.000326812
0.000336196
0.000345724
0.000355375
0.000364976
0.000374409
0.000383542
0.000392237
0.000400413
0.000407951
0.000414684
0.000420381
0.000424983
0.000428347
0.000430371
0.000430971
0.000430173
0.000427804
0.000423748
0.000418227
0.000411222
0.000402813
0.000393058
0.00038214
0.000370189
0.000357389
0.000343841
0.000329722
0.000315197
0.000300341
0.000285357
0.000270411
0.000255576
0.000241009
0.000226737
0.000212832
0.000199337
0.00018629
0.000173759
0.000161745
0.000150262
0.000139312
0.000128932
0.000119098
0.000109773
0.000100944
9.25747e-05
0.000243738
0.000248933
0.000254556
0.000260612
0.000267105
0.00027404
0.000281415
0.000289226
0.000297462
0.000306107
0.000315129
0.00032449
0.00033415
0.000344046
0.000354086
0.000364235
0.000374329
0.000384286
0.000393944
0.000403198
0.000411895
0.000419855
0.000426986
0.000433063
0.000437996
0.000441631
0.000443845
0.000444568
0.000443774
0.000441356
0.00043722
0.000431484
0.000424164
0.000415399
0.000405217
0.000393809
0.000381307
0.000367884
0.000353686
0.000338892
0.000323657
0.000308103
0.000292421
0.000276791
0.000261259
0.000245977
0.000231003
0.00021641
0.000202264
0.000188605
0.000175478
0.000162902
0.000150894
0.000139456
0.000128589
0.000118279
0.000108508
9.92607e-05
9.05091e-05
0.000246553
0.000251987
0.000257874
0.000264218
0.000271024
0.000278297
0.000286037
0.00029424
0.000302896
0.000311985
0.00032148
0.000331342
0.000341524
0.000351958
0.000362562
0.000373253
0.000383908
0.000394422
0.00040465
0.000414461
0.000423691
0.00043215
0.000439716
0.000446197
0.000451473
0.000455394
0.000457825
0.000458672
0.000457905
0.000455435
0.000451181
0.000445227
0.000437606
0.000428453
0.000417822
0.000405887
0.000392801
0.000378733
0.000363851
0.000348335
0.00033236
0.00031608
0.000299665
0.000283271
0.000266994
0.000250958
0.000235253
0.000219955
0.00020513
0.000190824
0.000177073
0.000163902
0.000151325
0.000139344
0.000127957
0.000117155
0.000106923
9.72395e-05
8.80767e-05
0.000249157
0.000254843
0.000261007
0.000267655
0.000274793
0.000282424
0.000290551
0.00029917
0.000308271
0.000317833
0.000327828
0.000338216
0.000348946
0.00035995
0.000371148