/*--------------------------------*- C++ -*----------------------------------*\
| =========                 |                                                 |
| \\      /  F ield         | OpenFOAM: The Open Source CFD Toolbox           |
|  \\    /   O peration     | Version:  2312                                  |
|   \\  /    A nd           | Website:  www.openfoam.com                      |
|    \\/     M anipulation  |                                                 |
\*---------------------------------------------------------------------------*/
FoamFile
{
    version     2.0;
    format      ascii;
    arch        "LSB;label=32;scalar=64";
    class       surfaceScalarField;
    location    "1200";
    object      phi;
}
// * * * * * * * * * * * * * * * * * * * * * * * * * * * * * * * * * * * * * //

dimensions      [0 3 -1 0 0 0 0];

oriented        oriented;

internalField   nonuniform List<scalar> 
116611
(
0.00118267
0.000414025
-0.0011669
-0.000429795
0.00119835
0.000409996
-0.000425674
0.00121386
0.000405645
-0.00042115
0.00122919
0.000400957
-0.000416291
0.00124436
0.000395946
-0.000411116
0.00125955
0.000390577
-0.000405768
0.0012743
0.000384839
-0.000399594
0.00128905
0.000378729
-0.000393471
0.00130336
0.00037219
-0.000386502
0.00131752
0.000365234
-0.000379391
0.00133142
0.000357848
-0.000371749
0.00134512
0.000350034
-0.000363731
0.00135849
0.000341789
-0.000355161
0.0013715
0.000333051
-0.000346063
0.00138423
0.000323865
-0.0003366
0.00139646
0.000314175
-0.0003264
0.00140854
0.000303964
-0.00031604
0.00142012
0.000293279
-0.000304862
0.00143138
0.000281986
-0.000293246
0.00144214
0.000270227
-0.000280988
0.00145257
0.000257842
-0.000268269
0.00146242
0.000244913
-0.000254769
0.00147177
0.000231368
-0.000240711
0.00148072
0.000217292
-0.000226249
0.00148916
0.000202606
-0.000211045
0.00149712
0.000187281
-0.000195238
0.00150454
0.000171294
-0.00017872
0.0015113
0.000154716
-0.000161472
0.00151776
0.000137535
-0.00014399
0.00152329
0.000119668
-0.000125206
0.00152851
0.000101232
-0.000106445
0.00153299
8.19468e-05
-8.64327e-05
0.00153692
6.20338e-05
-6.59635e-05
0.00154012
4.14674e-05
-4.46655e-05
0.00154272
2.01703e-05
-2.27718e-05
0.00154452
-1.74129e-06
-5.78412e-08
0.00154594
-2.43452e-05
2.29238e-05
0.00154649
-4.76884e-05
4.71385e-05
0.00154631
-7.17342e-05
7.19209e-05
0.0015452
-9.6584e-05
9.7691e-05
0.00154341
-0.00012199
0.000123778
0.00154106
-0.000148088
0.000150442
0.00153765
-0.000174937
0.000178345
0.00153341
-0.000202405
0.000206646
0.00152825
-0.000230539
0.000235696
0.00152239
-0.000259231
0.000265087
0.00151558
-0.000288602
0.000295415
0.00150765
-0.000318541
0.000326476
0.00149893
-0.000348939
0.000357651
0.0014893
-0.000379845
0.000389476
0.0014786
-0.000411262
0.000421969
0.00146699
-0.000443029
0.000454634
0.00145439
-0.000475169
0.000487773
0.00144061
-0.000507664
0.000521442
0.00142546
-0.000540357
0.000555507
0.00140975
-0.000572946
0.000588657
0.00139253
-0.00060575
0.000622973
0.00137442
-0.000638304
0.00065641
0.0013552
-0.000670603
0.000689826
0.00133469
-0.00070251
0.00072302
0.00131325
-0.000733781
0.000755214
0.00129041
-0.000764495
0.000787337
0.00126646
-0.000793962
0.000817917
0.00124101
-0.000822034
0.000847479
0.00121392
-0.000848108
0.000875198
0.00118593
-0.000871386
0.000899375
0.00115643
-0.000891669
0.000921172
0.00112377
-0.00090861
0.000941271
-0.000920719
0.00108902
0.000955466
0.00116814
0.000398331
-0.00115244
0.00118369
0.000394449
0.00119909
0.000390245
0.00121433
0.000385716
0.00122944
0.000380836
0.00124438
0.000375632
0.00125915
0.000370075
0.00127373
0.000364149
0.00128807
0.000357844
0.00130218
0.000351126
0.00131604
0.000343993
0.00132963
0.000336443
0.00134296
0.000328457
0.00135598
0.000320026
0.00136869
0.000311156
0.00138107
0.000301797
0.00139308
0.000291953
0.00140476
0.000281602
0.00141601
0.000270735
0.0014269
0.000259339
0.00143734
0.000247399
0.00144734
0.000234911
0.00145686
0.000221852
0.00146592
0.00020823
0.00147451
0.00019402
0.00148259
0.000179194
0.00149012
0.000163768
0.0014971
0.000147731
0.00150357
0.000131073
0.00150944
0.000113796
0.00151481
9.58594e-05
0.00151952
7.72408e-05
0.00152358
5.79702e-05
0.00152701
3.80355e-05
0.00152976
1.74254e-05
0.00153186
-3.84652e-06
0.00153331
-2.5795e-05
0.00153404
-4.84205e-05
0.00153406
-7.17512e-05
0.00153326
-9.57843e-05
0.00153174
-0.000120465
0.00152944
-0.000145795
0.0015263
-0.000171791
0.00152233
-0.000198443
0.00151751
-0.000225719
0.00151187
-0.000253583
0.0015053
-0.000282034
0.0014978
-0.000311047
0.00148943
-0.000340562
0.00148013
-0.000370544
0.00146984
-0.000400978
0.00145861
-0.000431793
0.00144638
-0.000462941
0.00143309
-0.000494375
0.00141873
-0.000525998
0.00140344
-0.000557652
0.00138701
-0.000589325
0.00136957
-0.000620863
0.00135109
-0.000652127
0.00133158
-0.000682993
0.00131106
-0.000713258
0.0012893
-0.000742742
0.00126638
-0.000771037
0.0012421
-0.000797757
0.00121637
-0.00082238
0.00118922
-0.000844238
0.00116041
-0.000862857
0.00112952
-0.000877724
-0.000887774
0.00109658
0.00115417
0.000382729
-0.00113857
0.00116964
0.00037898
0.00118497
0.000374915
0.00120015
0.000370535
0.00121516
0.000365828
0.00123
0.000360789
0.00124467
0.000355406
0.00125915
0.000349667
0.00127343
0.000343562
0.00128748
0.000337076
0.00130128
0.000330194
0.00131482
0.000322905
0.00132808
0.000315197
0.00134105
0.000307057
0.00135373
0.000298477
0.00136609
0.00028944
0.00137811
0.000279932
0.00138977
0.000269938
0.00140106
0.000259447
0.00141195
0.000248444
0.00142243
0.000236919
0.00143249
0.000224858
0.00144209
0.000212249
0.00145123
0.000199084
0.00145991
0.00018535
0.00146807
0.000171034
0.00147571
0.000156127
0.00148282
0.000140619
0.00148939
0.000124505
0.00149541
0.000107772
0.00150086
9.04077e-05
0.0015057
7.24016e-05
0.00150992
5.37498e-05
0.00151351
3.44482e-05
0.00151644
1.44935e-05
0.00151871
-6.11795e-06
0.00152031
-2.73915e-05
0.00152122
-4.93292e-05
0.00152141
-7.19393e-05
0.00152084
-9.52159e-05
0.00151951
-0.000119142
0.00151743
-0.000143706
0.00151455
-0.000168911
0.00151085
-0.000194747
0.00150632
-0.000221188
0.00150095
-0.000248211
0.00149471
-0.000275797
0.00148759
-0.000303923
0.00147957
-0.000332546
0.00147065
-0.000361626
0.00146081
-0.000391132
0.00145003
-0.000421013
0.0014383
-0.000451211
0.00142559
-0.000481667
0.00141189
-0.000512298
0.00139723
-0.000542996
0.00138159
-0.000573684
0.00136498
-0.000604249
0.0013474
-0.000634546
0.00132882
-0.00066442
0.00130923
-0.000693666
0.00128851
-0.000722018
0.00126658
-0.000749106
0.0012433
-0.000774484
0.00121857
-0.000797645
0.00119233
-0.000818
0.0011645
-0.000835028
0.00113495
-0.000848176
-0.000856522
0.0011037
0.00114078
0.000367178
-0.00112523
0.0011562
0.000363563
0.00117147
0.000359642
0.00118659
0.000355416
0.00120154
0.000350877
0.00121632
0.000346012
0.00123091
0.000340813
0.00124531
0.000335268
0.0012595
0.000329369
0.00127347
0.000323105
0.00128721
0.000316462
0.00130068
0.000309429
0.00131389
0.000301991
0.00132681
0.000294136
0.00133943
0.000285851
0.00135175
0.000277125
0.00136374
0.000267946
0.00137537
0.0002583
0.00138665
0.000248175
0.00139753
0.000237558
0.00140802
0.000226433
0.00141809
0.000214789
0.00142772
0.000202615
0.0014369
0.000189901
0.00144562
0.000176637
0.00145384
0.00016281
0.00146156
0.000148409
0.00146875
0.000133423
0.00147541
0.000117845
0.00148152
0.000101663
0.00148706
8.48688e-05
0.00149201
6.74522e-05
0.00149635
4.94066e-05
0.00150007
3.07276e-05
0.00150316
1.14123e-05
0.00150558
-8.54594e-06
0.00150734
-2.91525e-05
0.00150842
-5.04061e-05
0.00150879
-7.23081e-05
0.00150843
-9.48549e-05
0.00150733
-0.000118038
0.00150547
-0.000141848
0.00150283
-0.000166279
0.00149941
-0.000191319
0.00149517
-0.000216949
0.00149011
-0.00024315
0.00148421
-0.000269899
0.00147746
-0.00029717
0.00146984
-0.000324927
0.00146135
-0.000353135
0.00145197
-0.000381754
0.00144169
-0.000410737
0.00143051
-0.000440028
0.00141841
-0.000469565
0.00140538
-0.000499273
0.00139145
-0.000529062
0.0013766
-0.000558835
0.00136083
-0.00058848
0.00134413
-0.000617848
0.00132647
-0.000646757
0.00130777
-0.000674972
0.00128794
-0.000702189
0.00126687
-0.000728031
0.00124443
-0.000752047
0.00122055
-0.000773758
0.00119518
-0.000792638
0.00116835
-0.000808195
0.00114011
-0.000819931
-0.000827088
0.00111067
0.0011279
0.000351652
-0.00111238
0.00114329
0.000348177
0.00115853
0.000344406
0.00117361
0.000340338
0.00118852
0.000335967
0.00120325
0.000331281
0.00121779
0.000326272
0.00123212
0.00032093
0.00124625
0.000315243
0.00126015
0.000309201
0.00127382
0.000302794
0.00128724
0.000296009
0.0013004
0.000288835
0.00131327
0.000281262
0.00132585
0.000273274
0.00133811
0.000264859
0.00135005
0.000256005
0.00136165
0.0002467
0.0013729
0.000236934
0.00138376
0.000226693
0.00139423
0.000215961
0.0014043
0.000204725
0.00141394
0.000192978
0.00142313
0.00018071
0.00143186
0.000167907
0.00144011
0.000154557
0.00144787
0.00014065
0.00145512
0.000126174
0.00146184
0.000111122
0.00146802
9.54839e-05
0.00147364
7.92498e-05
0.00147868
6.2411e-05
0.00148313
4.49601e-05
0.00148696
2.68916e-05
0.00149017
8.20217e-06
0.00149274
-1.1116e-05
0.00149466
-3.10663e-05
0.0014959
-5.16467e-05
0.00149645
-7.28569e-05
0.00149629
-9.46938e-05
0.0014954
-0.000117152
0.00149377
-0.000140222
0.00149139
-0.000163897
0.00148824
-0.000188165
0.0014843
-0.000213009
0.00147956
-0.000238412
0.00147401
-0.000264349
0.00146764
-0.000290796
0.00146043
-0.000317721
0.00145238
-0.000345089
0.00144349
-0.000372859
0.00143374
-0.000400987
0.00142313
-0.000429419
0.00141166
-0.000458093
0.00139932
-0.000486937
0.00138612
-0.000515863
0.00137206
-0.000544769
0.0013571
-0.000573527
0.00134123
-0.000601974
0.00132437
-0.000629902
0.00130645
-0.000657047
0.00128735
-0.000683086
0.00126696
-0.000707645
0.0012452
-0.000730292
0.00122205
-0.000750601
0.00119751
-0.000768099
0.00117167
-0.000782357
0.00114467
-0.000792927
-0.000799126
0.0011167
0.00111552
0.000336138
-0.00110001
0.00113089
0.000332808
0.00114611
0.00032919
0.00116116
0.000325284
0.00117604
0.000321085
0.00119074
0.000316583
0.00120524
0.000311768
0.00121954
0.00030663
0.00123363
0.000301157
0.00124749
0.000295343
0.00126111
0.000289174
0.00127448
0.000282641
0.00128758
0.00027573
0.00130041
0.000268434
0.00131294
0.000260739
0.00132517
0.000252634
0.00133707
0.000244105
0.00134863
0.000235139
0.00135984
0.000225725
0.00137068
0.000215854
0.00138113
0.000205511
0.00139117
0.00019468
0.0014008
0.000183353
0.00140998
0.000171522
0.00141872
0.000159172
0.00142699
0.000146291
0.00143477
0.000132867
0.00144205
0.000118891
0.00144882
0.000104355
0.00145505
8.92504e-05
0.00146073
7.35669e-05
0.00146585
5.72953e-05
0.00147038
4.04268e-05
0.00147432
2.2955e-05
0.00147764
4.87732e-06
0.00148034
-1.38151e-05
0.0014824
-3.3123e-05
0.0014838
-5.30448e-05
0.00148452
-7.35797e-05
0.00148455
-9.47248e-05
0.00148388
-0.000116475
0.00148248
-0.000138824
0.00148034
-0.000161763
0.00147746
-0.000185282
0.00147382
-0.000209365
0.0014694
-0.000233996
0.0014642
-0.000259151
0.00145822
-0.000284808
0.00145143
-0.000310935
0.00144384
-0.0003375
0.00143544
-0.000364463
0.00142624
-0.000391779
0.00141621
-0.000419398
0.00140538
-0.000447256
0.00139372
-0.00047528
0.00138124
-0.000503377
0.0013679
-0.000531432
0.00135367
-0.000559301
0.00133849
-0.000586796
0.00132228
-0.000613691
0.00130494
-0.000639707
0.00128638
-0.00066452
0.00126651
-0.00068778
0.00124532
-0.000709095
0.00122281
-0.000728098
0.00119908
-0.000744367
0.00117427
-0.000757541
0.00114855
-0.000767215
-0.000772782
0.00112221
0.00110364
0.000320642
-0.00108815
0.001119
0.000317453
0.0011342
0.000313987
0.00114924
0.000310244
0.00116411
0.000306219
0.00117879
0.000301902
0.00119327
0.000297284
0.00120755
0.000292353
0.00122161
0.000287099
0.00123543
0.000281514
0.00124902
0.000275587
0.00126235
0.000269309
0.00127542
0.000262667
0.0012882
0.00025565
0.00130069
0.000248248
0.00131288
0.000240449
0.00132474
0.00023224
0.00133627
0.000223611
0.00134744
0.00021455
0.00135825
0.000205047
0.00136867
0.000195088
0.0013787
0.000184657
0.00138831
0.000173743
0.00139749
0.000162341
0.00140623
0.000150434
0.00141451
0.000138012
0.00142231
0.000125065
0.00142962
0.000111582
0.00143642
9.75561e-05
0.00144269
8.29775e-05
0.00144842
6.78357e-05
0.0014536
5.21205e-05
0.0014582
3.58211e-05
0.00146223
1.89308e-05
0.00146566
1.44906e-06
0.00146847
-1.66324e-05
0.00147066
-3.53125e-05
0.00147221
-5.45908e-05
0.00147309
-7.44666e-05
0.00147331
-9.49368e-05
0.00147283
-0.000115998
0.00147165
-0.000137644
0.00146976
-0.00015987
0.00146714
-0.000182664
0.00146379
-0.000206014
0.00145969
-0.000229902
0.00145485
-0.000254308
0.00144925
-0.000279209
0.00144289
-0.000304575
0.00143577
-0.000330375
0.00142787
-0.00035657
0.00141921
-0.000383116
0.00140977
-0.000409959
0.00139955
-0.000437033
0.00138852
-0.000464256
0.00137667
-0.000491525
0.00136395
-0.000518708
0.00135029
-0.000545642
0.00133561
-0.000572124
0.00131984
-0.000597918
0.00130288
-0.000622748
0.00128468
-0.000646316
0.0012652
-0.000668305
0.00124449
-0.000688379
0.00122261
-0.000706225
0.00119971
-0.000721463
0.00117597
-0.000733804
0.0011516
-0.000742836
-0.000748008
0.00112682
0.00109233
0.000305173
-0.00107686
0.00110766
0.00030212
0.00112285
0.000298803
0.00113787
0.000295223
0.00115272
0.00029137
0.00116738
0.000287237
0.00118185
0.000282815
0.00119611
0.000278093
0.00121015
0.000273059
0.00122396
0.000267706
0.00123752
0.000262024
0.00125083
0.000256003
0.00126386
0.000249631
0.00127662
0.000242897
0.00128907
0.00023579
0.00130123
0.000228297
0.00131306
0.000220409
0.00132455
0.000212115
0.0013357
0.000203404
0.00134648
0.000194265
0.00135688
0.000184686
0.00136689
0.00017465
0.00137649
0.000164148
0.00138566
0.00015317
0.00139439
0.000141704
0.00140266
0.000129738
0.00141046
0.000117261
0.00141778
0.000104262
0.00142461
9.07323e-05
0.00143092
7.6666e-05
0.0014367
6.20543e-05
0.00144194
4.68854e-05
0.00144661
3.11432e-05
0.00145072
1.48211e-05
0.00145425
-2.07741e-06
0.00145718
-1.95587e-05
0.00145949
-3.76223e-05
0.00146117
-5.62705e-05
0.0014622
-7.55027e-05
0.00146258
-9.53152e-05
0.00146229
-0.000115705
0.00146132
-0.000136672
0.00145965
-0.000158209
0.0014573
-0.000180308
0.00145424
-0.000202954
0.00145047
-0.000226133
0.00144599
-0.000249823
0.00144078
-0.000274002
0.00143485
-0.000298642
0.00142818
-0.000323711
0.00142078
-0.00034917
0.00141264
-0.000374971
0.00140373
-0.000401055
0.00139405
-0.000427348
0.00138355
-0.000453754
0.00137218
-0.000480156
0.00135988
-0.000506408
0.00134657
-0.000532335
0.00133218
-0.000557731
0.00131663
-0.000582367
0.00129987
-0.000605991
0.0012819
-0.000628343
0.00126274
-0.000649147
0.00124248
-0.000668124
0.00122126
-0.000685005
0.00119925
-0.000699455
0.00117669
-0.000711238
0.00115375
-0.000719899
-0.000724934
0.00113068
0.00108164
0.000289737
-0.0010662
0.00109694
0.000286819
0.00111209
0.00028365
0.00112709
0.000280228
0.00114191
0.000276545
0.00115656
0.000272594
0.001171
0.000268366
0.00118525
0.000263851
0.00119927
0.000259038
0.00121306
0.000253918
0.0012266
0.00024848
0.00123989
0.000242715
0.0012529
0.000236614
0.00126564
0.000230163
0.00127808
0.000223352
0.00129021
0.000216168
0.00130201
0.000208602
0.00131348
0.000200643
0.00132461
0.000192281
0.00133537
0.000183505
0.00134575
0.000174302
0.00135574
0.000164659
0.00136533
0.000154564
0.00137449
0.000144008
0.00138321
0.000132979
0.00139149
0.000121463
0.0013993
0.000109449
0.00140664
9.69264e-05
0.00141348
8.38856e-05
0.00141983
7.03203e-05
0.00142566
5.62265e-05
0.00143095
4.15949e-05
0.00143569
2.64042e-05
0.00143986
1.06446e-05
0.00144346
-5.67798e-06
0.00144647
-2.25674e-05
0.00144888
-4.00277e-05
0.00145067
-5.80627e-05
0.00145184
-7.66714e-05
0.00145237
-9.58476e-05
0.00145226
-0.000115592
0.00145149
-0.000135906
0.00145007
-0.000156785
0.00144798
-0.000178218
0.00144522
-0.000200192
0.00144177
-0.00022269
0.00143764
-0.000245693
0.00143282
-0.000269179
0.0014273
-0.000293119
0.00142106
-0.000317478
0.00141411
-0.000342213
0.0014064
-0.000367269
0.00139793
-0.000392579
0.00138863
-0.000418054
0.00137847
-0.000443589
0.00136737
-0.000469054
0.00135526
-0.000494297
0.00134206
-0.000519144
0.00132773
-0.000543401
0.00131223
-0.000566866
0.00129556
-0.000589315
0.00127775
-0.000610537
0.0012589
-0.000630292
0.00123913
-0.00064836
0.00121863
-0.0006645
0.0011976
-0.000678428
0.00117631
-0.000689947
0.00115501
-0.0006986
-0.000704098
0.00113418
0.00107161
0.000274337
-0.00105621
0.00108688
0.000271553
0.001102
0.000268529
0.00111696
0.000265264
0.00113176
0.000261751
0.00114637
0.000257981
0.00116079
0.000253945
0.00117501
0.000249635
0.001189
0.000245041
0.00120277
0.000240151
0.00121629
0.000234957
0.00122956
0.000229449
0.00124256
0.000223616
0.00125527
0.000217447
0.00126769
0.000210931
0.0012798
0.000204058
0.00129159
0.000196815
0.00130304
0.000189192
0.00131415
0.000181178
0.00132489
0.000172763
0.00133526
0.000163935
0.00134524
0.00015468
0.00135481
0.000144989
0.00136397
0.000134851
0.00137269
0.000124254
0.00138097
0.000113184
0.00138879
0.000101631
0.00139613
8.95829e-05
0.00140299
7.70294e-05
0.00140935
6.39619e-05
0.00141519
5.03789e-05
0.00142051
3.62774e-05
0.00142528
2.16357e-05
0.0014295
6.42865e-06
0.00143316
-9.34152e-06
0.00143626
-2.56637e-05
0.00143877
-4.254e-05
0.00144068
-5.99787e-05
0.001442
-7.7983e-05
0.00144269
-9.65466e-05
0.00144277
-0.000115671
0.00144223
-0.000135359
0.00144105
-0.000155605
0.00143922
-0.000176395
0.00143675
-0.000197717
0.00143362
-0.000219556
0.00142981
-0.000241891
0.00142533
-0.000264698
0.00142016
-0.000287945
0.00141427
-0.000311591
0.00140764
-0.000335584
0.00140024
-0.000359861
0.001392
-0.000384343
0.00138288
-0.000408934
0.00137281
-0.00043352
0.00136173
-0.00045797
0.00134957
-0.000482138
0.00133629
-0.000505865
0.00132187
-0.000528981
0.00130632
-0.000551315
0.00128968
-0.000572679
0.00127205
-0.000592905
0.00125354
-0.000611787
0.00123434
-0.000629156
0.00121463
-0.000644789
0.00119467
-0.000658467
0.00117472
-0.000669996
0.00115509
-0.000678974
-0.000685315
0.00113631
0.00106228
0.000258972
-0.00104692
0.00107751
0.000256321
0.0010926
0.000253441
0.00110753
0.000250333
0.0011223
0.000246988
0.00113688
0.000243399
0.00115127
0.000239556
0.00116545
0.000235451
0.00117942
0.000231073
0.00119316
0.000226414
0.00120665
0.000221462
0.00121989
0.000216208
0.00123286
0.000210643
0.00124556
0.000204755
0.00125795
0.000198534
0.00127004
0.000191968
0.00128181
0.000185047
0.00129324
0.00017776
0.00130433
0.000170095
0.00131505
0.000162041
0.0013254
0.000153587
0.00133536
0.00014472
0.00134491
0.000135431
0.00135406
0.000125708
0.00136277
0.000115539
0.00137105
0.000104911
0.00137886
9.38137e-05
0.00138621
8.22349e-05
0.00139308
7.01636e-05
0.00139945
5.75898e-05
0.00140532
4.451e-05
0.00141067
3.09212e-05
0.0014155
1.68072e-05
0.00141979
2.14004e-06
0.00142353
-1.30835e-05
0.00142671
-2.88453e-05
0.00142932
-4.51496e-05
0.00143136
-6.20099e-05
0.00143281
-7.94324e-05
0.00143367
-9.741e-05
0.00143393
-0.000115936
0.00143359
-0.000135014
0.00143262
-0.00015464
0.00143103
-0.000174801
0.0014288
-0.000195486
0.00142592
-0.000216675
0.00142237
-0.000238344
0.00141814
-0.000260465
0.00141319
-0.000282997
0.00140749
-0.000305893
0.001401
-0.000329093
0.00139366
-0.000352525
0.00138542
-0.000376105
0.00137622
-0.000399734
0.00136601
-0.0004233
0.00135472
-0.000446684
0.00134234
-0.000469755
0.00132885
-0.000492376
0.00131427
-0.000514404
0.00129866
-0.000535703
0.0012821
-0.000556115
0.0012647
-0.000575512
0.00124663
-0.000593714
0.00122807
-0.000610599
0.00120925
-0.000625961
0.00119043
-0.000639648
0.00117189
-0.000651456
0.00115401
-0.000661094
-0.000668511
0.0011372
0.00105369
0.000243641
-0.00103836
0.00106889
0.000241123
0.00108394
0.000238386
0.00109884
0.000235434
0.00111357
0.000232258
0.00112812
0.000228849
0.00114248
0.000225199
0.00115663
0.000221298
0.00117057
0.000217137
0.00118427
0.000212707
0.00119774
0.000207998
0.00121095
0.000202999
0.00122389
0.000197701
0.00123655
0.000192093
0.00124892
0.000186165
0.00126098
0.000179906
0.00127272
0.000173306
0.00128413
0.000166353
0.00129519
0.000159035
0.00130589
0.000151342
0.00131622
0.000143261
0.00132616
0.000134781
0.00133569
0.000125892
0.00134482
0.000116581
0.00135352
0.000106836
0.00136179
9.66465e-05
0.0013696
8.59995e-05
0.00137695
7.48842e-05
0.00138383
6.32888e-05
0.00139022
5.1202e-05
0.00139611
3.8617e-05
0.0014015
2.5531e-05
0.00140637
1.19365e-05
0.0014107
-2.19102e-06
0.00141449
-1.68711e-05
0.00141774
-3.20927e-05
0.00142044
-4.78532e-05
0.00142259
-6.41597e-05
0.00142417
-8.10155e-05
0.00142518
-9.84163e-05
0.0014256
-0.000116357
0.00142542
-0.000134835
0.00142463
-0.000153848
0.00142321
-0.000173383
0.00142115
-0.000193422
0.00141842
-0.000213945
0.00141499
-0.00023492
0.00141084
-0.000256312
0.00140592
-0.000278076
0.00140018
-0.000300157
0.00139358
-0.000322491
0.00138606
-0.000345005
0.00137757
-0.000367615
0.00136807
-0.000390229
0.00135751
-0.000412748
0.0013459
-0.000435065
0.00133321
-0.000457072
0.00131949
-0.000478657
0.00130479
-0.000499702
0.00128919
-0.000520097
0.00127279
-0.000539715
0.00125573
-0.000558459
0.00123819
-0.000576172
0.00122037
-0.000592782
0.00120251
-0.000608099
0.00118491
-0.000622045
0.00116789
-0.000634433
0.00115192
-0.000645127
-0.00065423
0.00113764
0.00104588
0.000228339
-0.00103058
0.00106105
0.000225954
0.00107608
0.000223363
0.00109094
0.000220566
0.00110564
0.000217558
0.00112016
0.00021433
0.00113449
0.000210872
0.00114861
0.000207176
0.00116252
0.000203233
0.00117619
0.000199032
0.00118962
0.000194565
0.0012028
0.000189821
0.00121571
0.000184791
0.00122834
0.000179463
0.00124068
0.000173828
0.00125271
0.000167876
0.00126442
0.000161595
0.0012758
0.000154974
0.00128683
0.000148002
0.00129751
0.000140668
0.00130781
0.00013296
0.00131772
0.000124865
0.00132724
0.000116373
0.00133635
0.000107472
0.00134503
9.81506e-05
0.00135329
8.83956e-05
0.00136109
7.81956e-05
0.00136843
6.75392e-05
0.00137531
5.64149e-05
0.0013817
4.4811e-05
0.0013876
3.27188e-05
0.001393
2.0132e-05
0.00139789
7.04155e-06
0.00140227
-6.57162e-06
0.00140612
-2.07239e-05
0.00140944
-3.54123e-05
0.00141222
-5.06339e-05
0.00141446
-6.63905e-05
0.00141612
-8.26824e-05
0.00141721
-9.95069e-05
0.00141772
-0.000116859
0.00141761
-0.000134733
0.00141689
-0.000153119
0.00141551
-0.000172003
0.00141345
-0.000191363
0.00141067
-0.000211173
0.00140715
-0.000231398
0.00140284
-0.000251998
0.00139769
-0.000272926
0.00139166
-0.000294125
0.0013847
-0.000315533
0.00137677
-0.000337082
0.00136785
-0.000358695
0.00135792
-0.000380292
0.00134696
-0.000401788
0.00133499
-0.000423096
0.00132204
-0.000444124
0.00130816
-0.000464782
0.00129344
-0.000484974
0.00127795
-0.000504614
0.00126184
-0.000523598
0.00124524
-0.000541859
0.00122833
-0.000559266
0.00121134
-0.000575792
0.00119452
-0.000591283
0.00117822
-0.000605745
0.00116288
-0.000619084
0.00114913
-0.000631385
-0.000642893
0.0011378
0.00103893
0.000213058
-0.00102365
0.00105407
0.000210809
0.00106907
0.000208364
0.00108391
0.000205725
0.00109859
0.000202886
0.00111308
0.000199838
0.00112738
0.000196573
0.00114147
0.000193082
0.00115535
0.000189356
0.00116899
0.000185385
0.0011824
0.00018116
0.00119555
0.000176672
0.00120843
0.000171909
0.00122103
0.000166863
0.00123334
0.000161521
0.00124534
0.000155875
0.00125702
0.000149912
0.00126837
0.000143624
0.00127938
0.000136997
0.00129002
0.000130021
0.0013003
0.000122683
0.00131019
0.000114973
0.00131969
0.000106878
0.00132878
9.83852e-05
0.00133744
8.94838e-05
0.00134568
8.01612e-05
0.00135347
7.04051e-05
0.0013608
6.02038e-05
0.00136767
4.95455e-05
0.00137407
3.84186e-05
0.00137997
2.6813e-05
0.00138538
1.47197e-05
0.0013903
2.12877e-06
0.0013947
-1.09746e-05
0.00139857
-2.45988e-05
0.00140191
-3.87458e-05
0.00140469
-5.34159e-05
0.00140691
-6.86085e-05
0.00140855
-8.43214e-05
0.00140959
-0.00010055
0.00141002
-0.000117287
0.00140981
-0.000134522
0.00140893
-0.000152242
0.00140735
-0.000170428
0.00140505
-0.000189055
0.00140197
-0.000208095
0.00139808
-0.000227512
0.00139335
-0.000247265
0.00138773
-0.000267309
0.0013812
-0.000287592
0.00137372
-0.000308057
0.00136528
-0.000328644
0.00135588
-0.000349287
0.0013455
-0.000369919
0.00133418
-0.000390468
0.00132195
-0.000410862
0.00130885
-0.000431025
0.00129495
-0.000450885
0.00128034
-0.000470364
0.00126512
-0.000489395
0.00124943
-0.000507899
0.0012334
-0.000525833
0.00121724
-0.000543102
0.00120117
-0.000559727
0.00118551
-0.000575623
0.0011707
-0.000590933
0.00115739
-0.000605774
0.0011466
-0.000620592
-0.000636068
0.00113977
0.00103292
0.000197793
-0.00101765
0.00104805
0.00019568
0.00106303
0.000193383
0.00107785
0.000190903
0.0010925
0.000188233
0.00110697
0.000185367
0.00112125
0.000182295
0.00113532
0.00017901
0.00114918
0.000175501
0.0011628
0.00017176
0.00117619
0.000167778
0.00118931
0.000163545
0.00120217
0.000159051
0.00121475
0.000154285
0.00122703
0.000149238
0.00123901
0.000143898
0.00125067
0.000138255
0.00126199
0.000132299
0.00127297
0.000126018
0.00128359
0.0001194
0.00129384
0.000112434
0.00130371
0.000105108
0.00131317
9.74094e-05
0.00132223
8.93265e-05
0.00133087
8.08468e-05
0.00133907
7.19578e-05
0.00134683
6.26474e-05
0.00135413
5.29033e-05
0.00136096
4.27136e-05
0.00136731
3.2067e-05
0.00137317
2.09526e-05
0.00137853
9.36094e-06
0.00138338
-2.7179e-06
0.0013877
-1.52949e-05
0.00139148
-2.83746e-05
0.00139469
-4.19599e-05
0.00139733
-5.60514e-05
0.00139936
-7.06475e-05
0.00140079
-8.57444e-05
0.00140157
-0.000101335
0.0014017
-0.000117411
0.00140113
-0.000133958
0.00139985
-0.00015096
0.00139782
-0.000168398
0.00139501
-0.000186247
0.00139139
-0.000204477
0.00138694
-0.000223055
0.00138162
-0.000241943
0.00137541
-0.000261101
0.0013683
-0.000280482
0.00136028
-0.000300037
0.00135135
-0.000319715
0.00134152
-0.00033946
0.00133082
-0.000359215
0.00131927
-0.000378921
0.00130693
-0.000398516
0.00129384
-0.00041794
0.00128009
-0.000437132
0.00126576
-0.000456033
0.00125096
-0.000474593
0.00123582
-0.00049276
0.0012205
-0.000510517
0.00120522
-0.000527823
0.00119026
-0.000544771
0.00117605
-0.00056141
0.00116321
-0.00057809
0.0011527
-0.000595264
0.00114573
-0.000613622
-0.00063513
0.00114479
0.00102801
0.000182532
-0.00101274
0.00104313
0.000180558
0.0010581
0.00017841
0.00107291
0.000176091
0.00108755
0.000173593
0.00110201
0.000170909
0.00111627
0.000168032
0.00113033
0.000164953
0.00114417
0.000161663
0.00115777
0.000158153
0.00117114
0.000154415
0.00118424
0.000150438
0.00119708
0.000146213
0.00120964
0.00014173
0.0012219
0.000136979
0.00123385
0.000131948
0.00124547
0.000126629
0.00125676
0.000121009
0.0012677
0.000115077
0.00127828
0.000108822
0.00128848
0.000102233
0.00129829
9.52973e-05
0.0013077
8.80029e-05
0.00131669
8.03376e-05
0.00132525
7.22889e-05
0.00133336
6.38446e-05
0.00134101
5.49923e-05
0.0013482
4.572e-05
0.0013549
3.60157e-05
0.00136109
2.58684e-05
0.00136678
1.52673e-05
0.00137194
4.2032e-06
0.00137655
-7.33368e-06
0.00138061
-1.93504e-05
0.00138408
-3.18505e-05
0.00138696
-4.48369e-05
0.00138922
-5.83099e-05
0.00139084
-7.22676e-05
0.0013918
-8.67051e-05
0.00139208
-0.000101615
0.00139166
-0.000116988
0.00139051
-0.00013281
0.00138861
-0.000149064
0.00138595
-0.000165731
0.00138249
-0.000182788
0.00137822
-0.000200207
0.00137312
-0.000217959
0.00136719
-0.000236009
0.00136041
-0.000254322
0.00135279
-0.000272857
0.00134432
-0.000291574
0.00133503
-0.000310427
0.00132494
-0.000329369
0.00131408
-0.000348352
0.00130248
-0.000367326
0.00129021
-0.000386242
0.00127732
-0.000405048
0.00126388
-0.000423699
0.00125
-0.000442151
0.00123579
-0.000460376
0.00122138
-0.000478356
0.00120698
-0.000496116
0.00119288
-0.000513718
0.00117947
-0.00053137
0.00116742
-0.000549355
0.00115759
-0.000568265
0.00115116
-0.000588834
0.00114899
-0.000611443
-0.000637431
0.00115129
0.00102437
0.000167275
-0.00100912
0.00103949
0.000165443
0.00105445
0.000163448
0.00106925
0.000161291
0.00108388
0.000158967
0.00109832
0.000156469
0.00111256
0.000153789
0.00112659
0.00015092
0.0011404
0.000147852
0.00115398
0.000144576
0.00116731
0.000141086
0.00118038
0.00013737
0.00119317
0.00013342
0.00120568
0.000129225
0.00121788
0.000124777
0.00122976
0.000120064
0.00124132
0.000115076
0.00125252
0.000109803
0.00126336
0.000104233
0.00127383
9.83546e-05
0.00128391
9.21569e-05
0.00129358
8.56278e-05
0.00130283
7.87555e-05
0.00131164
7.15276e-05
0.00131999
6.3932e-05
0.00132788
5.59563e-05
0.00133528
4.75883e-05
0.00134219
3.8816e-05
0.00134858
2.96278e-05
0.00135443
2.00124e-05
0.00135974
9.95955e-06
0.00136448
-5.39962e-07
0.00136865
-1.14956e-05
0.00137221
-2.29124e-05
0.00137515
-3.4795e-05
0.00137746
-4.71464e-05
0.00137912
-5.99672e-05
0.00138011
-7.3256e-05
0.00138041
-8.70084e-05
0.00138001
-0.000101218
0.0013789
-0.000115874
0.00137706
-0.000130966
0.00137447
-0.000146476
0.00137112
-0.000162388
0.00136701
-0.000178679
0.00136213
-0.000195324
0.00135647
-0.000212298
0.00135003
-0.000229569
0.00134282
-0.000247107
0.00133483
-0.000264876
0.0013261
-0.00028284
0.00131664
-0.000300963
0.00130647
-0.000319203
0.00129564
-0.000337522
0.00128419
-0.000355876
0.00127218
-0.000374228
0.00125967
-0.000392538
0.00124674
-0.000410776
0.00123351
-0.00042892
0.00122011
-0.000446977
0.00120674
-0.000464987
0.00119369
-0.000483063
0.0011814
-0.000501428
0.00117049
-0.000520463
0.00116183
-0.000540695
0.00115634
-0.000562771
0.00115454
-0.000587033
0.00115555
-0.000612455
-0.000637726
0.00115584
0.00102197
0.000152058
-0.00100676
0.00103704
0.000150373
0.00105196
0.000148534
0.0010667
0.000146545
0.00108127
0.000144401
0.00109565
0.000142094
0.00110982
0.000139618
0.00112377
0.000136964
0.0011375
0.000134125
0.00115098
0.000131093
0.00116421
0.00012786
0.00117716
0.000124415
0.00118983
0.000120751
0.0012022
0.000116858
0.00121425
0.000112727
0.00122597
0.000108347
0.00123733
0.000103708
0.00124834
9.87993e-05
0.00125896
9.36106e-05
0.00126918
8.81306e-05
0.00127899
8.23477e-05
0.00128837
7.62503e-05
0.0012973
6.98265e-05
0.00130576
6.30641e-05
0.00131374
5.59509e-05
0.00132123
4.84746e-05
0.00132819
4.06227e-05
0.00133462
3.23832e-05
0.00134051
2.3744e-05