/*--------------------------------*- C++ -*----------------------------------*\
| =========                 |                                                 |
| \\      /  F ield         | OpenFOAM: The Open Source CFD Toolbox           |
|  \\    /   O peration     | Version:  2312                                  |
|   \\  /    A nd           | Website:  www.openfoam.com                      |
|    \\/     M anipulation  |                                                 |
\*---------------------------------------------------------------------------*/
FoamFile
{
    version     2.0;
    format      ascii;
    arch        "LSB;label=32;scalar=64";
    class       volVectorField;
    location    "1200";
    object      U;
}
// * * * * * * * * * * * * * * * * * * * * * * * * * * * * * * * * * * * * * //

dimensions      [0 1 -1 0 0 0 0];

internalField   nonuniform List<vector> 
76025
(
(0.0389404 -0.00876377 0)
(0.0391603 -0.00878611 1.06785e-22)
(0.0393816 -0.00880304 0)
(0.0396053 -0.00881458 0)
(0.03983 -0.00882264 -7.06716e-23)
(0.0400635 -0.00881603 4.68244e-24)
(0.0402963 -0.00881067 -1.02913e-22)
(0.0405327 -0.00879349 7.4181e-23)
(0.040766 -0.00877374 7.22891e-23)
(0.0409986 -0.00874718 -9.78253e-23)
(0.0412338 -0.00871296 1.66576e-23)
(0.0414719 -0.00866901 -4.57883e-22)
(0.0417116 -0.00862091 6.0707e-22)
(0.0419491 -0.00856295 0)
(0.0421872 -0.00849274 -2.24817e-22)
(0.0424211 -0.00842383 0)
(0.0426565 -0.00833692 0)
(0.0428899 -0.00825199 0)
(0.0431227 -0.00815127 -3.01893e-22)
(0.043352 -0.0080502 3.55824e-22)
(0.0435796 -0.00793474 3.80408e-22)
(0.0438046 -0.00781446 1.18525e-21)
(0.0440235 -0.00768511 -8.1008e-22)
(0.0442405 -0.00754474 -1.36279e-21)
(0.0444548 -0.00739968 -4.7e-23)
(0.0446654 -0.00724982 -5.56938e-22)
(0.0448737 -0.00708219 1.56069e-21)
(0.0450755 -0.00691106 -1.5943e-21)
(0.045277 -0.00672727 5.49754e-22)
(0.0454723 -0.00653201 -5.72763e-22)
(0.0456577 -0.0063473 -6.00037e-22)
(0.0458405 -0.00614861 1.30599e-21)
(0.0460195 -0.00593115 -1.97764e-21)
(0.0461927 -0.00571542 -3.58988e-22)
(0.0463592 -0.00548469 1.8059e-21)
(0.0465186 -0.00525301 1.12608e-23)
(0.0466739 -0.00500856 -3.66418e-22)
(0.0468244 -0.00475085 1.94356e-22)
(0.0469683 -0.00449608 1.00151e-23)
(0.0470993 -0.0042291 -2.91014e-22)
(0.0472208 -0.00395749 1.9424e-22)
(0.0473389 -0.00367243 -9.57772e-23)
(0.0474487 -0.00337063 1.91011e-22)
(0.0475465 -0.00306948 -3.88158e-22)
(0.0476308 -0.00275715 -4.0005e-22)
(0.0477066 -0.00244045 7.62001e-22)
(0.0477725 -0.00210675 7.91396e-22)
(0.0478233 -0.00176817 -2.39961e-21)
(0.0478589 -0.00142141 1.53934e-21)
(0.0478838 -0.0010671 -3.77635e-23)
(0.0478939 -0.000702686 -3.9167e-21)
(0.0478865 -0.000325469 -1.50503e-21)
(0.0478638 6.17454e-05 1.56971e-21)
(0.0478212 0.000459052 0)
(0.0477501 0.000864682 -1.46137e-21)
(0.0476604 0.00127896 -1.52208e-21)
(0.0475479 0.00170744 3.32025e-23)
(0.0474041 0.00215328 -1.43618e-21)
(0.0472298 0.00261662 1.38862e-21)
(0.0470242 0.00309246 -3.98822e-21)
(0.0467936 0.00356272 -2.70447e-21)
(0.0465112 0.00406382 -1.79735e-22)
(0.0461817 0.00458363 0)
(0.0457994 0.00511738 5.83354e-21)
(0.0453462 0.00566563 -2.01808e-21)
(0.0448163 0.00623901 1.0581e-21)
(0.0442032 0.00684618 -1.80037e-21)
(0.0434815 0.00745652 1.82014e-21)
(0.0426253 0.00803836 3.05996e-21)
(0.0389038 -0.00915624 1.25988e-22)
(0.0391325 -0.0091789 2.60726e-22)
(0.0393633 -0.00919519 -3.69776e-22)
(0.0395969 -0.00920541 0)
(0.0398325 -0.00920971 7.91664e-23)
(0.0400733 -0.00920588 -1.07985e-22)
(0.0403152 -0.00919609 6.01597e-23)
(0.04056 -0.00917869 0)
(0.0408061 -0.00915458 1.7263e-23)
(0.0410523 -0.00912346 1.00796e-22)
(0.0412994 -0.00908499 -1.2717e-22)
(0.0415475 -0.00903831 2.10427e-23)
(0.041796 -0.00898423 0)
(0.0420454 -0.00892189 0)
(0.0422949 -0.0088504 -5.41241e-22)
(0.0425423 -0.00877257 1.31539e-21)
(0.0427896 -0.00868485 3.12025e-22)
(0.0430349 -0.00859049 -1.01633e-21)
(0.043279 -0.0084868 6.77551e-22)
(0.0435204 -0.00837579 -3.65017e-22)
(0.0437601 -0.00825559 4.46533e-22)
(0.0439968 -0.00812733 -8.39404e-22)
(0.0442297 -0.00799043 9.44214e-22)
(0.0444592 -0.00784417 -1.47396e-21)
(0.0446855 -0.00768973 1.00024e-21)
(0.0449082 -0.00752756 1.62576e-21)
(0.0451268 -0.00735589 -1.1075e-21)
(0.0453396 -0.00717633 0)
(0.0455483 -0.00698723 0)
(0.0457526 -0.00678966 -6.65966e-22)
(0.0459522 -0.00658372 0)
(0.0461469 -0.00636994 -7.20665e-22)
(0.0463348 -0.00614699 7.36357e-22)
(0.0465157 -0.00591679 -1.12865e-21)
(0.0466899 -0.00567757 2.20661e-23)
(0.0468574 -0.0054298 -3.90515e-22)
(0.047019 -0.00517165 0)
(0.0471736 -0.00490666 -8.27589e-22)
(0.0473205 -0.00463495 6.28687e-22)
(0.0474582 -0.00435522 -5.19055e-22)
(0.0475865 -0.00406534 3.15784e-22)
(0.0477065 -0.00376562 -2.86821e-24)
(0.0478171 -0.00346005 1.14103e-22)
(0.0479168 -0.00314695 -1.06338e-22)
(0.0480054 -0.00282433 8.72483e-22)
(0.0480829 -0.00249101 -4.40142e-22)
(0.0481489 -0.00214938 -4.54925e-22)
(0.0482013 -0.00180033 8.35384e-22)
(0.0482395 -0.00143948 2.56654e-21)
(0.0482641 -0.00106742 -1.93313e-23)
(0.0482734 -0.00068602 2.51598e-21)
(0.0482655 -0.000293782 -8.39877e-22)
(0.0482401 0.000108788 -2.45233e-21)
(0.0481954 0.000520778 1.64659e-21)
(0.0481283 0.000942816 0)
(0.048037 0.00138242 4.80919e-21)
(0.047923 0.00183204 -9.90481e-24)
(0.0477808 0.0022959 -1.55401e-21)
(0.0476101 0.00277353 -1.56445e-21)
(0.0474088 0.00326543 0)
(0.0471717 0.00377718 1.35353e-21)
(0.0468949 0.0043036 4.08281e-21)
(0.0465693 0.00484779 0)
(0.0461866 0.00541179 -2.45485e-21)
(0.045732 0.00599895 1.38534e-21)
(0.0451885 0.00661764 -2.26821e-21)
(0.0445503 0.0072605 1.08148e-21)
(0.0437977 0.00791471 -1.87606e-21)
(0.0429047 0.00860427 -1.65458e-21)
(0.0388661 -0.00956926 -5.63232e-22)
(0.0391056 -0.00959142 3.51904e-22)
(0.0393474 -0.00960717 -6.25523e-23)
(0.0395924 -0.0096166 1.05174e-22)
(0.0398398 -0.00961905 -1.09405e-22)
(0.0400896 -0.00961423 1.21972e-22)
(0.0403418 -0.00960207 -1.75176e-22)
(0.0405963 -0.0095825 0)
(0.040853 -0.00955536 1.91323e-23)
(0.0411111 -0.00952051 0)
(0.04137 -0.00947779 1.69552e-22)
(0.0416293 -0.00942702 -1.75768e-22)
(0.0418888 -0.00936803 -1.14362e-21)
(0.0421484 -0.00930072 9.1556e-22)
(0.0424081 -0.00922482 -2.58893e-22)
(0.0426674 -0.00914049 -9.13625e-22)
(0.0429258 -0.00904771 3.13001e-22)
(0.0431829 -0.00894636 3.41649e-22)
(0.0434381 -0.00883654 1.19537e-21)
(0.0436912 -0.00871785 -7.96309e-22)
(0.0439418 -0.00859044 -4.57232e-22)
(0.0441895 -0.00845422 9.62557e-22)
(0.044434 -0.00830914 -4.50505e-22)
(0.0446752 -0.00815493 -5.4247e-22)
(0.0449127 -0.00799179 0)
(0.0451459 -0.00781995 5.98638e-22)
(0.0453743 -0.00763939 6.10631e-22)
(0.0455978 -0.00744982 -5.874e-22)
(0.0458163 -0.00725106 0)
(0.0460299 -0.00704352 1.37801e-21)
(0.0462384 -0.00682696 -7.37981e-22)
(0.0464407 -0.00660233 -4.39502e-23)
(0.0466363 -0.00636923 0)
(0.046825 -0.0061274 3.87877e-22)
(0.0470068 -0.00587683 -1.23657e-21)
(0.0471813 -0.0056174 8.37765e-22)
(0.0473485 -0.00534944 0)
(0.047508 -0.00507334 6.50424e-22)
(0.0476594 -0.00478905 -6.59924e-22)
(0.0478018 -0.00449651 -1.0778e-22)
(0.0479347 -0.00419491 0)
(0.0480581 -0.00388448 -2.24411e-22)
(0.0481718 -0.00356571 -1.13383e-22)
(0.0482749 -0.00323795 1.07397e-22)
(0.0483665 -0.00290095 -6.66317e-22)
(0.0484464 -0.00255452 -4.65631e-22)
(0.048514 -0.00219899 8.82985e-22)
(0.0485684 -0.00183392 -9.07915e-22)
(0.0486087 -0.00145842 9.24448e-22)
(0.0486345 -0.00107268 -8.95232e-22)
(0.0486448 -0.000676845 -8.69882e-22)
(0.0486385 -0.000270152 1.82412e-21)
(0.0486144 0.000147675 0)
(0.0485711 0.000576834 1.79233e-21)
(0.0485065 0.00101823 5.29171e-23)
(0.0484192 0.00147359 -1.69982e-21)
(0.0483084 0.00194217 -1.66694e-21)
(0.0481714 0.00242572 3.28198e-21)
(0.048006 0.00292535 -5.48357e-23)
(0.0478093 0.00344206 1.62216e-21)
(0.0475769 0.00397711 -3.15758e-21)
(0.0473026 0.0045311 -1.59671e-21)
(0.0469764 0.0051072 -2.7297e-23)
(0.046587 0.00570755 -1.37351e-21)
(0.0461208 0.00633424 -1.20898e-21)
(0.0455628 0.00698978 -3.79321e-21)
(0.0449015 0.00767373 0)
(0.0441182 0.0083803 -1.05382e-21)
(0.0432112 0.00913082 9.94955e-22)
(0.0388261 -0.0100046 0)
(0.0390779 -0.0100267 9.19161e-23)
(0.039332 -0.010042 2.31245e-22)
(0.0395892 -0.0100505 -1.67856e-22)
(0.0398489 -0.0100517 7.52416e-23)
(0.0401107 -0.0100452 -1.12167e-22)
(0.0403745 -0.0100308 5.38293e-23)
(0.0406404 -0.0100086 -1.0266e-22)
(0.040908 -0.00997829 -1.12238e-22)
(0.0411772 -0.00993976 -6.67497e-22)
(0.0414474 -0.00989287 6.89867e-22)
(0.0417182 -0.0098375 9.05257e-22)
(0.0419893 -0.00977355 -1.63508e-22)
(0.0422603 -0.00970095 -1.08271e-21)
(0.0425311 -0.00961953 8.8625e-22)
(0.0428015 -0.00952914 -3.45469e-22)
(0.0430709 -0.00942984 3.75452e-22)
(0.0433389 -0.00932158 4.05414e-22)
(0.0436051 -0.00920426 -1.26676e-21)
(0.0438692 -0.0090778 4.00139e-22)
(0.0441306 -0.00894228 4.59413e-22)
(0.044389 -0.00879764 0)
(0.0446442 -0.00864385 1.13313e-21)
(0.0448957 -0.00848082 -5.53503e-22)
(0.0451433 -0.00830854 -1.2098e-21)
(0.0453864 -0.00812708 -1.29534e-21)
(0.0456248 -0.00793641 2.56931e-21)
(0.0458581 -0.00773648 -1.35559e-21)
(0.046086 -0.00752738 0)
(0.0463083 -0.00730923 -1.46866e-21)
(0.0465246 -0.00708222 -3.37838e-23)
(0.0467344 -0.0068465 1.54508e-21)
(0.0469375 -0.00660192 -8.29131e-22)
(0.0471336 -0.00634844 2.12689e-21)
(0.0473223 -0.00608609 -4.12844e-22)
(0.0475034 -0.00581497 0)
(0.0476765 -0.00553528 0)
(0.0478414 -0.00524697 2.35796e-22)
(0.0479978 -0.00495013 2.2538e-22)
(0.0481449 -0.00464474 1.19967e-22)
(0.0482824 -0.00433048 -3.77438e-24)
(0.0484099 -0.00400727 1.15126e-22)
(0.0485272 -0.00367516 0)
(0.0486336 -0.00333412 -1.26402e-23)
(0.0487285 -0.00298393 0)
(0.0488114 -0.00262431 4.54778e-22)
(0.0488819 -0.00225509 4.55888e-24)
(0.0489391 -0.00187606 -1.45431e-21)
(0.0489823 -0.0014868 0)
(0.0490109 -0.00108695 -9.4952e-22)
(0.0490241 -0.000676276 9.3943e-22)
(0.0490208 -0.000254313 -1.82241e-21)
(0.0489999 0.000179393 0)
(0.0489602 0.000625311 -5.5207e-21)
(0.0489001 0.00108421 4.94662e-23)
(0.0488183 0.00155729 1.8009e-21)
(0.0487132 0.00204522 1.76978e-21)
(0.0485827 0.00254913 0)
(0.0484239 0.00307033 0)
(0.048233 0.00361028 -1.60905e-21)
(0.0480043 0.00417068 3.12562e-21)
(0.0477297 0.00475341 3.02247e-21)
(0.0473988 0.00536083 0)
(0.046999 0.00599538 -3.00169e-21)
(0.0465174 0.00665895 0)
(0.0459399 0.00735317 3.80793e-21)
(0.045256 0.00807891 -1.26085e-21)
(0.0444502 0.00883221 -1.15843e-21)
(0.0435261 0.00963765 -1.17905e-21)
(0.0387819 -0.0104629 0)
(0.0390476 -0.0104852 0)
(0.0393152 -0.0105002 3.56673e-23)
(0.0395859 -0.010508 1.41834e-23)
(0.0398589 -0.0105079 -4.26382e-23)
(0.040134 -0.0104996 4.17919e-23)
(0.0404109 -0.0104829 0)
(0.0406895 -0.0104579 1.03006e-22)
(0.0409694 -0.0104243 0)
(0.0412507 -0.0103819 3.82842e-22)
(0.041533 -0.0103308 8.86239e-23)
(0.0418159 -0.0102706 -4.44895e-22)
(0.0420992 -0.0102014 0)
(0.0423825 -0.010123 6.31532e-22)
(0.0426652 -0.0100355 -1.98691e-21)
(0.0429469 -0.00993876 1.41421e-21)
(0.0432276 -0.00983261 -1.94617e-21)
(0.0435068 -0.00971692 4.09003e-22)
(0.0437841 -0.00959165 -4.72903e-22)
(0.0440591 -0.00945687 4.67011e-22)
(0.0443313 -0.00931269 5.24033e-22)
(0.0446004 -0.009159 -1.62558e-21)
(0.0448659 -0.00899574 -1.15157e-21)
(0.0451276 -0.00882294 0)
(0.0453849 -0.00864059 1.29624e-21)
(0.0456376 -0.00844875 6.98326e-22)
(0.0458853 -0.00824745 -2.03088e-21)
(0.0461276 -0.00803675 7.00747e-22)
(0.0463642 -0.00781671 -1.52921e-21)
(0.0465949 -0.00758741 2.29362e-21)
(0.0468191 -0.00734895 -8.35274e-22)
(0.0470366 -0.00710142 4.32338e-22)
(0.047247 -0.00684486 0)
(0.0474499 -0.00657931 -4.35749e-22)
(0.0476452 -0.00630479 -4.49825e-22)
(0.0478325 -0.00602148 0)
(0.0480115 -0.00572948 4.92033e-22)
(0.0481819 -0.00542872 -7.23193e-22)
(0.0483433 -0.00511923 4.82985e-22)
(0.0484952 -0.00480096 -2.46076e-22)
(0.0486373 -0.00447378 -4.18328e-24)
(0.0487691 -0.0041376 -1.90535e-22)
(0.0488904 -0.00379238 6.20138e-23)
(0.0490006 -0.00343806 2.44257e-22)
(0.0490992 -0.00307442 1.09996e-23)
(0.0491857 -0.00270122 1.50623e-21)
(0.0492596 -0.00231823 0)
(0.0493204 -0.00192522 9.77829e-22)
(0.0493672 -0.00152178 -2.42494e-23)
(0.0493995 -0.00110752 -9.93453e-22)
(0.0494166 -0.000682061 0)
(0.0494176 -0.000244925 -9.87165e-22)
(0.0494013 0.000204468 9.76024e-22)
(0.0493669 0.000666772 1.88523e-21)
(0.0493128 0.00114284 0)
(0.0492377 0.00163374 -3.72853e-21)
(0.0491397 0.00214055 3.72436e-21)
(0.0490163 0.00266456 -3.65865e-21)
(0.0488635 0.00320737 -5.37686e-23)
(0.0486764 0.00377084 0)
(0.0484477 0.00435694 -1.69367e-21)
(0.0481682 0.00496802 1.58836e-21)
(0.0478268 0.00560621 1.69848e-21)
(0.0474114 0.00627392 2.9495e-21)
(0.0469103 0.00697275 -4.50452e-21)
(0.0463117 0.00770399 2.80876e-21)
(0.045607 0.00846917 -1.35956e-21)
(0.0447834 0.00926487 1.43651e-21)
(0.0438504 0.0101168 3.48862e-21)
(0.0387318 -0.0109461 -3.03928e-22)
(0.0390126 -0.0109684 1.30104e-22)
(0.0392953 -0.010983 1.62256e-22)
(0.0395808 -0.0109899 0)
(0.0398686 -0.0109885 2.86205e-23)
(0.0401581 -0.0109782 0)
(0.0404494 -0.0109592 -2.39678e-22)
(0.040742 -0.0109312 -6.62145e-23)
(0.041036 -0.0108941 4.87171e-22)
(0.0413309 -0.0108477 -2.15897e-22)
(0.0416266 -0.0107921 -2.213e-22)
(0.0419225 -0.010727 -2.82629e-22)
(0.0422186 -0.0106523 0)
(0.0425146 -0.010568 0)
(0.04281 -0.0104738 3.48201e-22)
(0.0431043 -0.0103698 3.7944e-22)
(0.0433971 -0.0102561 -8.8692e-22)
(0.0436879 -0.0101326 8.8687e-22)
(0.0439767 -0.00999911 9.84635e-22)
(0.044263 -0.00985558 -1.07669e-21)
(0.0445463 -0.00970222 2.17396e-21)
(0.044826 -0.00953899 1.84786e-23)
(0.0451019 -0.00936577 -1.24605e-21)
(0.0453737 -0.00918245 -6.71161e-22)
(0.0456409 -0.00898917 -1.3863e-21)
(0.0459031 -0.0087862 1.39009e-21)
(0.0461599 -0.00857363 1.50773e-21)
(0.0464111 -0.00835152 -1.51262e-21)
(0.0466563 -0.00811985 0)
(0.0468951 -0.00787868 0)
(0.0471271 -0.00762811 2.1516e-21)
(0.047352 -0.00736827 5.16333e-23)
(0.0475694 -0.00709927 -9.06646e-22)
(0.047779 -0.00682122 -9.601e-22)
(0.0479807 -0.00653411 9.65868e-22)
(0.0481741 -0.00623819 0)
(0.0483588 -0.00593346 -4.90038e-22)
(0.0485346 -0.00561985 -7.75158e-22)
(0.048701 -0.00529735 5.08323e-22)
(0.0488578 -0.00496592 -7.0283e-24)
(0.0490045 -0.00462551 -4.09202e-23)
(0.0491408 -0.00427603 1.92313e-22)
(0.0492662 -0.00391742 1.34974e-22)
(0.0493804 -0.00354959 2.6505e-22)
(0.0494828 -0.00317234 -1.30742e-21)
(0.0495732 -0.00278547 1.0505e-23)
(0.0496511 -0.0023887 0)
(0.0497158 -0.00198173 -1.08336e-21)
(0.0497669 -0.00156418 3.16031e-21)
(0.0498038 -0.00113559 -2.1202e-21)
(0.0498258 -0.000695504 -1.0448e-21)
(0.0498321 -0.000243345 -3.18712e-23)
(0.0498218 0.000221557 -1.00128e-21)
(0.0497938 0.000699982 -5.15842e-24)
(0.0497467 0.0011929 2.01104e-21)
(0.0496788 0.00170145 -2.04585e-21)
(0.0495876 0.002227 -1.95478e-21)
(0.0494696 0.0027711 3.84076e-21)
(0.0493198 0.00333562 -5.83323e-23)
(0.0491318 0.00392265 1.83067e-21)
(0.0488971 0.00453435 -1.7909e-21)
(0.0486061 0.0051731 1.67549e-21)
(0.0482483 0.00584078 -3.23633e-21)
(0.0478129 0.00653974 -1.60717e-21)
(0.0472904 0.00727124 3.0238e-21)
(0.0466713 0.00803687 -1.62194e-21)
(0.0459497 0.00883869 -4.48117e-21)
(0.0451143 0.00967366 -1.27494e-21)
(0.0441765 0.010569 0)
(0.0386756 -0.0114564 0)
(0.0389725 -0.0114787 -3.64519e-23)
(0.0392712 -0.0114928 -1.83526e-23)
(0.0395727 -0.0114988 0)
(0.0398765 -0.0114958 0)
(0.040182 -0.0114835 1.04876e-22)
(0.0404889 -0.0114618 -4.28813e-22)
(0.040797 -0.0114307 6.45515e-22)
(0.0411062 -0.0113899 -3.29128e-22)
(0.041416 -0.0113393 2.16484e-22)
(0.0417264 -0.0112788 0)
(0.0420368 -0.0112082 2.83233e-22)
(0.042347 -0.0111276 -3.49881e-22)
(0.0426565 -0.0110367 0)
(0.0429651 -0.0109356 0)
(0.0432725 -0.010824 4.46342e-22)
(0.0435782 -0.0107021 6.67738e-23)
(0.0438819 -0.0105698 -9.64715e-22)
(0.0441829 -0.0104272 -1.05423e-21)
(0.0444811 -0.0102742 1.09515e-21)
(0.0447758 -0.0101108 5.74751e-22)
(0.0450666 -0.00993725 2.54304e-21)
(0.0453533 -0.00975353 3.35596e-23)
(0.0456354 -0.00955951 -7.44817e-22)
(0.0459126 -0.00935541 1.41842e-21)
(0.0461847 -0.00914109 -7.59571e-22)
(0.0464511 -0.00891672 1.54719e-21)
(0.0467114 -0.0086824 0)
(0.0469651 -0.00843819 0)
(0.047212 -0.00818428 0)
(0.0474517 -0.00792082 -4.42843e-22)
(0.0476838 -0.00764796 -9.26886e-22)
(0.047908 -0.00736592 9.5968e-22)
(0.0481242 -0.00707482 1.01427e-21)
(0.0483322 -0.00677462 -1.01995e-21)
(0.0485315 -0.0064656 0)
(0.0487218 -0.00614764 5.34693e-22)
(0.0489029 -0.00582071 -2.69176e-22)
(0.0490745 -0.00548479 0)
(0.049236 -0.00513985 2.71862e-22)
(0.0493872 -0.00478585 -5.10478e-23)
(0.0495277 -0.00442275 3.40641e-23)
(0.0496572 -0.0040505 -1.34285e-22)
(0.0497754 -0.003669 0)
(0.049882 -0.00327808 -5.56798e-22)
(0.0499765 -0.0028775 5.50912e-22)
(0.0500586 -0.00246698 0)
(0.050128 -0.00204615 -3.28469e-23)
(0.050184 -0.00161461 2.36542e-23)
(0.0502262 -0.00117185 1.06976e-21)
(0.050254 -0.000717311 0)
(0.0502665 -0.000250352 -5.88533e-23)
(0.0502629 0.000229811 -1.04798e-21)
(0.0502417 0.000724095 -3.23141e-21)
(0.0502014 0.00123363 -6.43617e-23)
(0.0501394 0.00175974 2.02125e-21)
(0.0500523 0.00230402 0)
(0.0499354 0.00286824 0)
(0.0497826 0.00345445 2.02686e-21)
(0.0495866 0.00406477 0)
(0.0493385 0.00470132 0)
(0.0490295 0.00536628 -6.80186e-23)
(0.0486503 0.00606129 -1.76635e-21)
(0.0481926 0.00678869 -3.47303e-21)
(0.0476493 0.0075495 3.389e-21)
(0.047013 0.00834626 -2.55563e-22)
(0.0462803 0.00918112 1.4587e-21)
(0.0454401 0.010052 1.5603e-21)
(0.0445051 0.010987 0)
(0.038615 -0.0119962 0)
(0.0389284 -0.0120183 3.6457e-23)
(0.0392439 -0.0120317 5.15284e-23)
(0.0395622 -0.0120365 3.76888e-24)
(0.0398827 -0.0120318 0)
(0.0402049 -0.0120172 -3.74768e-22)
(0.0405286 -0.0119926 7.5153e-22)
(0.0408534 -0.0119579 7.27851e-23)
(0.041179 -0.0119131 -1.10964e-21)
(0.0415051 -0.0118579 2.07242e-22)
(0.0418313 -0.0117921 -3.14118e-22)
(0.0421573 -0.0117157 -3.50381e-22)
(0.0424828 -0.0116285 1.11958e-21)
(0.0428072 -0.0115306 -1.60842e-21)
(0.0431303 -0.0114219 8.389e-22)
(0.0434517 -0.0113023 -5.26174e-22)
(0.0437711 -0.011172 2.02667e-21)
(0.044088 -0.0110307 -4.83573e-22)
(0.0444022 -0.0108783 6.30323e-22)
(0.044713 -0.0107151 -5.66214e-22)
(0.0450201 -0.0105409 6.63093e-23)
(0.045323 -0.0103561 -4.05037e-21)
(0.0456211 -0.0101607 -7.48127e-22)
(0.0459142 -0.00995474 -6.32889e-23)
(0.046202 -0.00973836 2.30993e-21)
(0.0464837 -0.00951181 -7.77965e-22)
(0.0467593 -0.00927507 1.69985e-21)
(0.0470283 -0.00902821 -2.60299e-21)
(0.0472906 -0.00877119 0)
(0.0475458 -0.0085041 -9.47057e-22)
(0.0477935 -0.00822717 9.51345e-22)
(0.0480332 -0.00794067 2.9945e-23)
(0.0482646 -0.00764504 -5.29493e-22)
(0.0484875 -0.00734046 -5.44911e-22)
(0.0487018 -0.00702675 1.65788e-21)
(0.0489071 -0.0067041 -1.08828e-21)
(0.049103 -0.00637237 8.47293e-22)
(0.0492892 -0.0060316 -1.12191e-21)
(0.0494655 -0.00568179 5.60594e-22)
(0.0496316 -0.00532291 -1.38673e-22)
(0.049787 -0.00495494 0)
(0.0499316 -0.00457794 1.44899e-22)
(0.0500652 -0.00419189 -1.43407e-22)
(0.0501875 -0.00379667 -2.91242e-22)
(0.0502984 -0.0033921 8.71127e-22)
(0.0503975 -0.00297791 -5.89695e-22)
(0.0504845 -0.00255375 -5.76434e-22)
(0.050559 -0.00211922 0)
(0.0506206 -0.00167387 -2.34183e-21)
(0.0506687 -0.00121713 2.29515e-21)
(0.0507027 -0.000748354 -1.10912e-21)
(0.0507216 -0.000266797 1.09738e-21)
(0.0507242 0.000228461 1.14982e-21)
(0.0507087 0.000738503 2.19156e-21)
(0.0506725 0.00126464 2.13704e-21)
(0.0506123 0.00180839 0)
(0.0505236 0.0023715 -2.19202e-21)
(0.0504007 0.00295583 0)
(0.0502368 0.0035634 5.8413e-23)
(0.0500245 0.00419612 -1.93164e-21)
(0.0497559 0.00485594 1.94943e-21)
(0.0494238 0.0055447 1.83794e-21)
(0.0490208 0.00626396 -1.91538e-21)
(0.0485415 0.00701613 -5.61106e-23)
(0.0479805 0.00780224 6.77405e-23)
(0.0473331 0.00862629 5.15306e-21)
(0.046597 0.00949003 1.78406e-21)
(0.0457617 0.0103948 1.69994e-21)
(0.0448391 0.0113674 -1.65046e-21)
(0.0385513 -0.0125684 0)
(0.0388819 -0.01259 0)
(0.0392146 -0.0126024 9.7767e-23)
(0.0395505 -0.0126055 -1.53748e-22)
(0.0398886 -0.0125986 -1.19842e-22)
(0.0402283 -0.0125813 0)
(0.0405695 -0.0125535 0)
(0.0409118 -0.0125149 2.35636e-22)
(0.0412547 -0.0124655 -5.50263e-22)
(0.041598 -0.0124052 -1.10805e-22)
(0.0419412 -0.0123336 1.63633e-21)
(0.0422839 -0.0122508 -3.48086e-22)
(0.0426258 -0.0121567 4.20484e-22)
(0.0429664 -0.0120512 -8.45009e-22)
(0.0433053 -0.0119344 5.00222e-22)
(0.043642 -0.0118062 0)
(0.0439762 -0.0116666 0)
(0.0443074 -0.0115156 3.26773e-23)
(0.0446354 -0.0113531 -1.85158e-21)
(0.0449596 -0.0111792 6.31819e-22)
(0.0452797 -0.0109939 -7.17011e-22)
(0.045595 -0.0107976 6.99342e-22)
(0.0459052 -0.0105901 7.62706e-22)
(0.0462101 -0.0103716 -7.2978e-22)
(0.0465088 -0.0101421 -7.98239e-22)
(0.0468013 -0.00990202 0)
(0.047087 -0.00965155 0)
(0.0473655 -0.00939094 1.37057e-21)
(0.0476368 -0.00912031 0)
(0.0479005 -0.00883962 1.0012e-21)
(0.0481562 -0.00854891 -1.00508e-21)
(0.0484036 -0.0082485 -5.10225e-22)
(0.0486423 -0.00793883 5.2532e-22)
(0.0488718 -0.00761985 1.11352e-21)
(0.0490921 -0.0072915 -5.53739e-22)
(0.0493027 -0.00695415 -5.82031e-22)
(0.0495035 -0.00660779 5.93254e-22)
(0.0496943 -0.00625254 0)
(0.049875 -0.00588837 0)
(0.0500452 -0.00551516 1.53393e-22)
(0.0502048 -0.00513296 0)
(0.0503536 -0.00474196 0)
(0.0504916 -0.00434213 -4.59199e-22)
(0.0506185 -0.00393329 6.1169e-22)
(0.0507342 -0.00351517 -3.11183e-22)
(0.0508384 -0.00308747 5.90008e-22)
(0.0509307 -0.00264979 0)
(0.0510107 -0.00220169 1.83076e-21)
(0.051078 -0.00174266 -2.55286e-23)
(0.0511319 -0.00127205 0)
(0.0511713 -0.000789122 -2.37794e-21)
(0.0511951 -0.000292978 -2.94913e-23)
(0.0512012 0.000217459 -2.30053e-21)
(0.0511872 0.000743442 -1.1867e-21)
(0.0511495 0.00128643 -2.28145e-21)
(0.051084 0.00184802 2.23877e-21)
(0.0509852 0.00242998 2.14354e-21)
(0.0508473 0.00303399 0)
(0.0506636 0.0036619 -2.11915e-21)
(0.050428 0.00431524 6.02813e-23)
(0.0501339 0.00499576 0)
(0.0497765 0.00570498 0)
(0.0493505 0.00644461 1.88536e-21)
(0.0488531 0.00721715 0)
(0.0482802 0.00802403 0)
(0.0476298 0.00887079 -1.88271e-21)
(0.0468997 0.00975843 -1.72639e-21)
(0.0460817 0.0106942 -1.97104e-21)
(0.0451844 0.0117004 0)
(0.0384848 -0.0131758 0)
(0.0388337 -0.0131968 0)
(0.0391847 -0.0132078 0)
(0.0395389 -0.013209 -1.08359e-22)
(0.0398954 -0.0131997 -1.8645e-22)
(0.0402535 -0.0131792 -7.95861e-23)
(0.040613 -0.0131475 3.83546e-22)
(0.0409736 -0.0131045 -2.34567e-22)
(0.0413348 -0.01305 3.09451e-22)
(0.0416961 -0.0129839 6.60022e-22)
(0.0420571 -0.012906 0)
(0.0424175 -0.0128163 0)
(0.0427768 -0.0127146 -3.58708e-23)
(0.0431345 -0.0126009 1.43163e-21)
(0.0434901 -0.0124752 -2.11993e-21)
(0.0438432 -0.0123375 -7.55501e-23)
(0.0441932 -0.0121879 1.15087e-21)
(0.0445399 -0.0120263 6.06903e-22)
(0.0448826 -0.0118527 -5.25603e-23)
(0.0452212 -0.0116672 0)
(0.045555 -0.01147 1.4809e-21)
(0.0458836 -0.0112611 0)
(0.0462066 -0.0110409 1.6207e-21)
(0.0465236 -0.0108091 -2.53393e-21)
(0.0468341 -0.0105661 2.6279e-21)
(0.0471377 -0.0103122 9.41849e-22)
(0.0474339 -0.0100475 -1.44555e-21)
(0.0477223 -0.0097723 1.477e-21)
(0.0480027 -0.0094868 -9.92069e-22)
(0.0482747 -0.00919115 0)
(0.0485383 -0.00888516 -1.0848e-21)
(0.0487931 -0.00856884 -5.95298e-22)
(0.0490382 -0.0082434 1.11649e-21)
(0.0492732 -0.00790967 -1.16267e-21)
(0.0494988 -0.00756702 5.99557e-22)
(0.049715 -0.00721497 -5.95713e-22)
(0.0499213 -0.00685374 -2.96063e-22)
(0.0501173 -0.00648361 3.16311e-22)
(0.0503028 -0.00610468 1.52883e-22)
(0.0504778 -0.00571693 -4.61346e-22)
(0.0506422 -0.00532059 -4.03005e-23)
(0.050796 -0.00491574 0)
(0.050939 -0.00450219 1.53502e-22)
(0.0510711 -0.00407972 -3.07316e-22)
(0.0511918 -0.00364803 3.07295e-22)
(0.051301 -0.00320678 0)
(0.0513983 -0.00275556 0)
(0.0514832 -0.00229388 6.47647e-22)
(0.051555 -0.00182111 -1.24136e-21)
(0.0516125 -0.00133652 -2.51715e-21)
(0.0516544 -0.000839209 4.92228e-21)
(0.0516786 -0.000328136 -1.25015e-21)
(0.0516825 0.000197911 1.20246e-21)
(0.0516626 0.000740277 1.16004e-21)
(0.0516149 0.00130043 -2.35436e-21)
(0.0515345 0.00187988 2.30784e-21)
(0.0514162 0.00248016 0)
(0.0512546 0.00310268 -2.2988e-21)
(0.0510445 0.00374893 6.40342e-23)
(0.0507811 0.00442011 2.14933e-21)
(0.0504601 0.00511784 0)
(0.0500787 0.00584343 0)
(0.0496336 0.00659895 0)
(0.049124 0.00738695 4.1405e-21)
(0.0485468 0.00820975 2.10267e-21)
(0.0479025 0.00907376 1.96216e-21)
(0.0471879 0.00997973 -4.0353e-21)
(0.0463994 0.0109404 -1.66451e-22)
(0.045551 0.0119706 2.17348e-21)
(0.0384164 -0.0138214 0)
(0.0387844 -0.0138415 -1.20565e-22)
(0.0391549 -0.0138509 1.68296e-22)
(0.0395285 -0.01385 -2.46848e-22)
(0.0399045 -0.0138377 4.64966e-22)
(0.0402821 -0.0138136 2.22551e-22)
(0.0406609 -0.0137776 2.64352e-22)
(0.0410407 -0.0137296 0)
(0.041421 -0.0136694 -6.54672e-22)
(0.0418013 -0.0135969 -7.31321e-22)
(0.0421811 -0.0135119 7.71886e-22)
(0.0425599 -0.0134145 -4.70561e-22)
(0.0429374 -0.0133045 5.48019e-22)
(0.0433129 -0.0131818 -4.22474e-22)
(0.0436861 -0.0130465 -2.30654e-21)
(0.0440564 -0.0128985 -7.81088e-23)
(0.0444232 -0.012738 -7.71874e-23)
(0.0447861 -0.0125649 1.31907e-21)
(0.0451446 -0.0123792 6.89474e-22)
(0.0454982 -0.0121812 1.54287e-21)
(0.0458465 -0.011971 -1.48315e-21)
(0.0461891 -0.0117486 0)
(0.0465254 -0.0115143 6.18947e-23)
(0.046855 -0.0112682 0)
(0.0471774 -0.0110105 -9.00011e-22)
(0.0474924 -0.0107416 -9.33352e-22)
(0.0477993 -0.0104617 4.8314e-22)
(0.0480979 -0.0101711 0)
(0.0483877 -0.00986992 5.49495e-22)
(0.0486685 -0.00955854 1.1101e-21)
(0.0489401 -0.00923696 -1.11307e-21)
(0.0492023 -0.00890522 5.62769e-22)
(0.0494548 -0.00856391 -1.20284e-21)
(0.0496974 -0.00821401 2.41642e-21)
(0.0499297 -0.00785545 -6.13837e-22)
(0.0501517 -0.00748775 0)
(0.0503633 -0.00711116 -3.26792e-22)
(0.0505643 -0.00672612 1.811e-23)
(0.0507546 -0.00633282 4.82872e-22)
(0.0509346 -0.00593066 -4.04993e-22)
(0.0511042 -0.00551959 7.88687e-23)
(0.0512628 -0.00510027 -2.48774e-22)
(0.0514103 -0.00467262 1.62642e-22)
(0.0515466 -0.00423622 0)
(0.0516713 -0.00379072 0)
(0.0517842 -0.00333572 0)
(0.0518846 -0.00287074 6.67763e-22)
(0.0519716 -0.00239515 6.64701e-22)
(0.0520442 -0.00190822 0)
(0.0521006 -0.00140908 1.27495e-21)
(0.0521387 -0.000896718 1.32867e-21)
(0.0521557 -0.000370007 1.2882e-21)
(0.0521484 0.000172275 0)
(0.0521129 0.000731396 0)
(0.0520451 0.00130864 -2.41834e-21)
(0.0519406 0.00190524 2.37035e-21)
(0.0517948 0.00252241 0)
(0.0516039 0.00316119 2.2394e-21)
(0.051364 0.00382279 -2.20463e-21)
(0.0510725 0.00450817 -2.30311e-21)
(0.0507268 0.00521895 2.21273e-21)
(0.0503258 0.00595633 -2.18628e-21)
(0.0498678 0.00672296 0)
(0.0493535 0.00752123 -2.1081e-21)
(0.0487808 0.00835486 7.44603e-23)
(0.0481521 0.00923001 -4.51732e-21)
(0.0474635 0.0101493 -4.64766e-21)
(0.046716 0.0111272 4.62189e-21)
(0.0459209 0.0121765 -2.28376e-21)
(0.0383464 -0.0145084 -1.96025e-23)
(0.038735 -0.0145274 0)
(0.039126 -0.014535 -4.76288e-23)
(0.0395203 -0.0145315 4.17413e-22)
(0.039917 -0.0145159 -8.53188e-22)
(0.0403152 -0.0144878 2.12651e-22)
(0.0407146 -0.0144469 -2.61621e-22)
(0.0411148 -0.0143933 6.87672e-22)
(0.0415153 -0.0143268 -3.4215e-22)
(0.0419156 -0.0142472 -3.84636e-22)
(0.0423152 -0.0141545 -4.73128e-22)
(0.0427135 -0.0140486 1.48459e-21)
(0.0431101 -0.0139293 -4.60359e-22)
(0.0435044 -0.0137967 1.77938e-21)
(0.0438959 -0.0136508 6.65877e-22)
(0.0442842 -0.0134916 8.04802e-23)
(0.0446685 -0.0133192 -1.3382e-21)
(0.0450484 -0.0131336 0)
(0.0454234 -0.0129349 0)
(0.0457929 -0.0127233 -8.37136e-22)
(0.0461565 -0.0124989 -8.11335e-22)
(0.0465136 -0.012262 -1.79233e-21)
(0.0468638 -0.0120126 9.09327e-22)
(0.0472066 -0.0117511 1.93405e-21)
(0.0475416 -0.0114777 -1.93468e-21)
(0.0478684 -0.0111927 5.27777e-22)
(0.0481866 -0.0108965 5.44845e-22)
(0.0484957 -0.0105893 0)
(0.0487954 -0.0102715 -5.41881e-22)
(0.0490853 -0.00994341 -1.16455e-21)
(0.0493654 -0.00960513 -2.88001e-23)
(0.0496357 -0.00925655 1.1975e-21)
(0.0498959 -0.00889812 -6.3959e-22)
(0.0501449 -0.0085315 0)
(0.0503826 -0.00815725 3.30257e-22)
(0.0506097 -0.00777398 -3.3451e-22)
(0.0508266 -0.00738161 3.19368e-22)
(0.0510329 -0.00698082 -6.63554e-22)
(0.0512285 -0.00657198 0)
(0.0514133 -0.00615505 -8.63241e-23)
(0.051587 -0.00572968 8.42791e-23)
(0.0517495 -0.00529585 -1.3092e-22)
(0.0519005 -0.00485356 5.07089e-22)
(0.0520396 -0.00440262 -1.01325e-21)
(0.0521662 -0.00394267 6.69322e-22)
(0.0522798 -0.00347321 6.74133e-22)
(0.0523792 -0.00299362 -6.29497e-22)
(0.0524632 -0.00250319 1.36892e-21)
(0.0525298 -0.00200107 -1.3134e-21)
(0.0525769 -0.00148632 -3.26035e-21)
(0.0526019 -0.000957945 2.79222e-23)
(0.0526017 -0.000414887 -1.24947e-21)
(0.052573 0.000143908 0)
(0.0525122 0.000719466 0)
(0.0524158 0.00131276 -2.47638e-21)
(0.0522805 0.0019247 3.62102e-21)
(0.0521032 0.00255617 -2.3995e-21)
(0.0518813 0.00320797 0)
(0.0516129 0.00388114 2.42005e-21)
(0.0512966 0.00457653 4.60392e-21)
(0.0509314 0.0052959 -2.25126e-21)
(0.0505175 0.00604036 -8.69005e-24)
(0.0500543 0.0068132 2.32421e-21)
(0.0495438 0.00761651 -7.06249e-23)
(0.0489851 0.00845557 -4.7898e-21)
(0.0483814 0.00933539 4.80707e-21)
(0.0477313 0.0102627 2.4646e-21)
(0.0470385 0.0112491 0)
(0.0463188 0.0123103 0)
(0.0382755 -0.0152409 1.92822e-23)
(0.0386861 -0.0152586 2.98989e-22)
(0.039099 -0.015264 -2.39975e-22)
(0.0395154 -0.0152576 0)
(0.0399341 -0.0152382 -1.05964e-22)
(0.0403543 -0.0152055 -5.93335e-22)
(0.0407757 -0.0151593 4.20725e-22)
(0.0411976 -0.0150995 -9.60648e-22)
(0.0416197 -0.015026 7.65492e-22)
(0.0420413 -0.0149386 0)
(0.0424619 -0.0148373 2.06917e-22)
(0.0428809 -0.0147219 0)
(0.0432978 -0.0145926 6.43439e-22)
(0.043712 -0.0144492 -1.77961e-21)
(0.0441229 -0.0142917 0)
(0.04453 -0.0141202 0)
(0.0449328 -0.0139348 0)
(0.0453306 -0.0137356 -1.18996e-21)
(0.0457229 -0.0135227 1.59479e-21)
(0.0461092 -0.0132963 8.24308e-22)
(0.0464888 -0.0130566 0)
(0.0468612 -0.0128038 0)
(0.047226 -0.0125382 0)
(0.0475827 -0.0122601 -2.56276e-21)
(0.0479308 -0.0119698 3.09796e-21)
(0.0482699 -0.0116675 -1.57515e-21)
(0.0485996 -0.0113538 -1.10902e-21)
(0.0489195 -0.0110289 1.15566e-21)
(0.0492292 -0.0106932 -1.1568e-21)
(0.0495284 -0.0103471 6.2251e-22)
(0.0498169 -0.00999104 -1.24967e-21)
(0.0500946 -0.00962504 5.98202e-22)
(0.0503615 -0.0092494 1.29786e-21)