/*--------------------------------*- C++ -*----------------------------------*\
| =========                 |                                                 |
| \\      /  F ield         | OpenFOAM: The Open Source CFD Toolbox           |
|  \\    /   O peration     | Version:  2312                                  |
|   \\  /    A nd           | Website:  www.openfoam.com                      |
|    \\/     M anipulation  |                                                 |
\*---------------------------------------------------------------------------*/
FoamFile
{
    version     2.0;
    format      ascii;
    arch        "LSB;label=32;scalar=64";
    class       volScalarField;
    location    "500";
    object      epsilon;
}
// * * * * * * * * * * * * * * * * * * * * * * * * * * * * * * * * * * * * * //

dimensions      [0 2 -3 0 0 0 0];

internalField   nonuniform List<scalar> 
76025
(
0.000250097
0.000249479
0.000249083
0.00024844
0.000247789
0.000247399
0.000246836
0.000246225
0.000245148
0.00024436
0.000243794
0.00024259
0.000242074
0.000242128
0.000241298
0.000241813
0.000241071
0.000241252
0.000241095
0.000240618
0.00024019
0.000239611
0.000239186
0.000237485
0.000236852
0.000236295
0.000235174
0.000236198
0.000235275
0.00023498
0.000235795
0.00023603
0.000235833
0.00023533
0.000234749
0.000234006
0.00023336
0.000232598
0.000231893
0.00023113
0.000230419
0.000229627
0.00022888
0.000228504
0.000227257
0.000227184
0.000227752
0.00022884
0.000231358
0.000233603
0.000238027
0.000241425
0.000248139
0.000252502
0.000261782
0.000267336
0.000278915
0.000287525
0.000303834
0.000318264
0.000341553
0.000363979
0.00040692
0.000447055
0.000532596
0.000627469
0.000811307
0.00114307
0.00164978
0.000252324
0.000251709
0.000251202
0.00025063
0.000250045
0.000249465
0.000248792
0.000248305
0.000247581
0.000246652
0.000245733
0.000244292
0.000243826
0.000243978
0.00024358
0.000243707
0.000242735
0.000242846
0.000241868
0.000242399
0.000241577
0.000241882
0.000241888
0.00024161
0.000241088
0.000240684
0.000239852
0.000239586
0.000239221
0.000238885
0.000238602
0.000238201
0.000237696
0.000237139
0.000236599
0.000235999
0.000235458
0.000234762
0.000234282
0.00023357
0.000232949
0.000231991
0.000231958
0.000231709
0.000232549
0.000233621
0.000235689
0.000237594
0.000240665
0.000243565
0.00024781
0.000251951
0.000257643
0.000263495
0.000271273
0.000279761
0.0002914
0.000304902
0.000322525
0.000344706
0.00037072
0.000408589
0.000452357
0.000514358
0.000617672
0.000747596
0.00101802
0.00150516
0.0021557
0.000254183
0.000253839
0.000253411
0.000252985
0.000251679
0.000251256
0.000251235
0.000250754
0.000249986
0.000249195
0.000248374
0.000247632
0.000247148
0.000246734
0.000246217
0.000245775
0.000244694
0.000244426
0.000244269
0.000243375
0.000243194
0.000242978
0.000243959
0.00024325
0.000243722
0.000243745
0.000243398
0.000242918
0.000242493
0.00024199
0.000241558
0.000241075
0.000240587
0.000240059
0.00023957
0.000238934
0.000238385
0.000237677
0.000236887
0.000236195
0.00023633
0.000236681
0.000237584
0.000238519
0.000240103
0.000241641
0.000244028
0.00024634
0.000249849
0.000253207
0.000258253
0.000263067
0.000270299
0.000277286
0.000287685
0.000298184
0.000313197
0.000328979
0.00035081
0.000375151
0.000407719
0.000450029
0.000504855
0.00059016
0.000725033
0.00091187
0.00130056
0.00188547
0.00265557
0.000256621
0.000256361
0.000255942
0.000255585
0.000254882
0.000254071
0.000253165
0.000252952
0.000253092
0.000252768
0.000252113
0.000251473
0.000250893
0.000249986
0.00024938
0.000248863
0.000247938
0.000247138
0.000246821
0.00024565
0.000245312
0.000244944
0.000244797
0.000244509
0.000244456
0.000244277
0.0002454
0.000244629
0.000245112
0.000245423
0.000245365
0.00024502
0.000244593
0.000243871
0.000243466
0.000242149
0.000242
0.000241925
0.000242197
0.000242526
0.000243248
0.000244032
0.000245287
0.000246621
0.000248562
0.000250629
0.000253502
0.000256586
0.000260734
0.000265225
0.0002711
0.00027755
0.000285785
0.000295032
0.000306625
0.00032004
0.000336645
0.000356631
0.000381567
0.000412732
0.000452946
0.000508982
0.00058369
0.00070563
0.000889073
0.0011588
0.0016907
0.00236549
0.00334352
0.000258617
0.000258271
0.000258014
0.000257726
0.000257469
0.00025744
0.000256731
0.000255725
0.000255495
0.000255409
0.000255487
0.000255182
0.00025474
0.000254258
0.0002535
0.000252692
0.00025198
0.000251318
0.000251281
0.000250029
0.000249915
0.000248617
0.000249015
0.000247833
0.000248023
0.000248219
0.00024739
0.000247137
0.000246889
0.000247929
0.000247182
0.000247991
0.000247024
0.000246671
0.000247287
0.000247735
0.000248184
0.000248611
0.000249275
0.000250003
0.000251092
0.000252323
0.00025401
0.000255917
0.00025841
0.000261233
0.000264815
0.00026888
0.000273929
0.000279675
0.00028671
0.000294762
0.000304576
0.000315942
0.000329883
0.000346347
0.000366707
0.000391432
0.000422608
0.000462003
0.000515237
0.000589949
0.000695116
0.00087024
0.00111762
0.00150481
0.00218014
0.0029451
0.00413481
0.00026322
0.000262665
0.000262167
0.000261347
0.000261243
0.00026058
0.00026038
0.000260693
0.00026003
0.000260111
0.000260034
0.000259557
0.000259101
0.000258236
0.000257579
0.000257052
0.000256657
0.000255516
0.000255094
0.000254841
0.00025515
0.000254412
0.00025422
0.000253905
0.000253287
0.000252379
0.00025185
0.000251434
0.000251094
0.000250894
0.000251688
0.000252648
0.000253367
0.000253908
0.000254521
0.000255139
0.000255903
0.000256762
0.000257846
0.000259076
0.000260649
0.000262477
0.000264752
0.000267381
0.0002706
0.000274306
0.000278795
0.000283961
0.00029017
0.000297346
0.000305905
0.00031592
0.000327815
0.000342026
0.000358959
0.00037964
0.000404609
0.000436062
0.000475794
0.000528329
0.000602218
0.000706347
0.000863151
0.0011087
0.00144596
0.00197646
0.00278351
0.00363869
0.00510021
0.000269578
0.000268937
0.000268272
0.000267678
0.000267224
0.000266319
0.000266054
0.000265247
0.000265056
0.000264939
0.000265285
0.000265078
0.000264574
0.000263983
0.000263215
0.000262701
0.000262401
0.000261366
0.000261705
0.000260806
0.000260955
0.00025976
0.000259854
0.000259903
0.000260056
0.000260031
0.000260259
0.000260403
0.00026077
0.000260918
0.00026131
0.000261804
0.000262414
0.000263092
0.000263933
0.000264881
0.000266016
0.000267315
0.000268864
0.000270622
0.000272753
0.000275227
0.00027819
0.000281621
0.000285702
0.000290429
0.00029603
0.000302532
0.000310218
0.000319171
0.000329756
0.000342181
0.000356968
0.000374591
0.000395845
0.000421787
0.000453931
0.00049518
0.00054907
0.000623357
0.000729512
0.000881663
0.00111152
0.00144572
0.00189591
0.00258016
0.00349659
0.00446962
0.00616718
0.000276018
0.00027593
0.000275547
0.000274903
0.000274214
0.0002734
0.000272937
0.000272715
0.000271849
0.000271661
0.000271986
0.000271877
0.000271616
0.000271067
0.000270281
0.00026917
0.0002687
0.000268068
0.00026819
0.000268352
0.000268701
0.000268845
0.000268976
0.000269129
0.000269362
0.000269642
0.000270027
0.000270472
0.00027101
0.000271588
0.000272264
0.000273
0.000273881
0.000274883
0.000276072
0.00027742
0.000278976
0.000280756
0.000282823
0.000285164
0.000287935
0.000291147
0.000294934
0.000299318
0.000304478
0.000310457
0.00031749
0.000325657
0.000335258
0.000346463
0.000359672
0.000375266
0.000393863
0.000416243
0.000443567
0.000477532
0.000520959
0.00057813
0.000655639
0.000764931
0.000921427
0.00114442
0.00146895
0.00190722
0.00249038
0.00332191
0.00434192
0.00542934
0.00740193
0.000283595
0.000283442
0.000283059
0.000282827
0.000282317
0.00028182
0.000281156
0.000280289
0.000279986
0.000279609
0.000279429
0.000279549
0.000278769
0.000278428
0.000277827
0.00027786
0.000278284
0.000278523
0.000278874
0.000279232
0.000279663
0.000280122
0.000280595
0.000281076
0.000281588
0.000282131
0.000282734
0.000283398
0.000284142
0.00028497
0.0002859
0.000286929
0.000288128
0.000289496
0.000291084
0.000292889
0.000294949
0.000297304
0.000300017
0.000303086
0.000306678
0.000310835
0.000315695
0.000321316
0.000327885
0.000335492
0.000344388
0.000354724
0.000366845
0.000381041
0.000397833
0.000417825
0.000441916
0.00047138
0.000508179
0.000555187
0.000617291
0.000701029
0.000817144
0.000980977
0.0012102
0.00152779
0.00196175
0.00251728
0.00324188
0.00420961
0.00532575
0.00653004
0.00882088
0.000293862
0.000293619
0.00029315
0.000292896
0.000292173
0.000291386
0.000290925
0.000290656
0.000289905
0.000289904
0.000290153
0.000290617
0.000290982
0.000291454
0.000291711
0.000291975
0.000292382
0.000292815
0.000293286
0.000293778
0.000294313
0.000294894
0.000295529
0.000296208
0.000296941
0.000297724
0.000298581
0.000299512
0.000300541
0.000301684
0.000302948
0.000304368
0.000306
0.00030786
0.000309993
0.000312412
0.000315155
0.000318281
0.000321857
0.000325897
0.000330571
0.000335968
0.000342228
0.000349461
0.000357863
0.000367598
0.000378956
0.000392198
0.000407772
0.000426162
0.000448121
0.000474677
0.000507256
0.00054818
0.000600681
0.000669817
0.000763131
0.000890263
0.00106628
0.00130765
0.00163229
0.00206156
0.00261355
0.00329497
0.00416093
0.00525388
0.00645823
0.00782949
0.0104851
0.00030719
0.000307245
0.000307247
0.000307513
0.000306625
0.000306807
0.00030613
0.000305582
0.000306112
0.000306569
0.00030691
0.000307294
0.000307714
0.000308211
0.000308723
0.00030925
0.000309826
0.000310446
0.00031111
0.000311817
0.000312572
0.000313383
0.000314256
0.000315195
0.000316212
0.000317307
0.000318504
0.000319803
0.000321239
0.000322819
0.000324559
0.000326526
0.000328755
0.000331284
0.000334151
0.000337386
0.000341032
0.000345164
0.000349864
0.000355161
0.000361237
0.00036824
0.000376332
0.000385689
0.000396551
0.00040919
0.000423987
0.000441382
0.000462034
0.000486775
0.000516849
0.000554061
0.000600912
0.000661466
0.000740912
0.000847364
0.000990926
0.0011843
0.00144407
0.00178424
0.00222085
0.00277047
0.00344446
0.0042558
0.00525841
0.00646907
0.00776483
0.00937018
0.012808
0.000322499
0.000322794
0.000323098
0.000323443
0.000323689
0.000324052
0.00032448
0.000324829
0.000325358
0.000325967
0.000326611
0.000327299
0.000328031
0.000328813
0.000329636
0.000330495
0.000331394
0.000332335
0.000333323
0.000334363
0.00033546
0.000336623
0.000337861
0.000339186
0.000340607
0.000342138
0.0003438
0.0003456
0.000347582
0.000349736
0.000352123
0.000354806
0.00035782
0.00036122
0.000365046
0.000369341
0.000374169
0.00037962
0.000385807
0.000392787
0.000400763
0.000409968
0.000420624
0.000433001
0.000447448
0.000464393
0.000484426
0.000508301
0.000537128
0.000572404
0.000616339
0.000672085
0.000743931
0.000838285
0.000962679
0.00112805
0.00134566
0.00162912
0.00199247
0.00244548
0.00300238
0.00367452
0.00447247
0.00541446
0.00655089
0.00788077
0.00929422
0.0113026
0.0153558
0.000342989
0.000343514
0.00034427
0.000345144
0.000346054
0.000346992
0.000347957
0.000348923
0.000349925
0.000350966
0.000352039
0.000353144
0.000354283
0.000355456
0.000356665
0.00035791
0.000359197
0.000360529
0.000361916
0.000363365
0.000364889
0.000366496
0.000368204
0.000370026
0.000371979
0.000374085
0.000376358
0.000378829
0.000381527
0.000384456
0.000387721
0.000391366
0.000395438
0.000400016
0.000405145
0.000410895
0.000417367
0.000424675
0.000432987
0.000442418
0.000453197
0.000465694
0.000480246
0.00049728
0.000517359
0.000541217
0.000569885
0.000604745
0.000647782
0.000701703
0.000770243
0.00085853
0.000972909
0.00112209
0.00131494
0.00156352
0.00187741
0.00226874
0.00274682
0.00331874
0.00399809
0.00479216
0.00571664
0.00679077
0.00806965
0.00953883
0.0111837
0.013715
0.0188357
0.000378072
0.000378188
0.000378562
0.00037916
0.000379935
0.000380847
0.000381859
0.000382945
0.000384099
0.000385319
0.000386602
0.000387948
0.000389355
0.000390823
0.000392354
0.000393951
0.000395619
0.000397365
0.000399199
0.000401131
0.000403175
0.000405345
0.000407663
0.00041014
0.000412808
0.000415683
0.000418796
0.000422187
0.000425863
0.000429913
0.000434421
0.000439446
0.000445055
0.000451356
0.000458418
0.000466345
0.0004753
0.000485441
0.000497012
0.000510244
0.000525435
0.000543163
0.000564031
0.000588792
0.000618476
0.000654436
0.000698568
0.000753341
0.000822147
0.000909332
0.0010204
0.00116235
0.00134269
0.00157115
0.00185542
0.00220692
0.00263102
0.00313867
0.00373458
0.00442634
0.00522785
0.00614442
0.00720363
0.00842035
0.00987859
0.0115599
0.0136416
0.0171067
0.0241623
0.000420814
0.000421598
0.000422462
0.000423407
0.00042445
0.000425598
0.000426839
0.000428159
0.000429558
0.000431036
0.000432596
0.000434241
0.000435974
0.000437801
0.000439726
0.000441759
0.000443908
0.000446184
0.000448602
0.000451176
0.000453924
0.000456867
0.000460025
0.000463427
0.000467102
0.000471074
0.000475406
0.0004801
0.000485254
0.000490972
0.000497341
0.000504449
0.000512402
0.000521353
0.000531421
0.000542777
0.000555684
0.000570419
0.000587357
0.00060698
0.000629823
0.000656777
0.000689052
0.000728042
0.000775636
0.000834203
0.00090692
0.000997615
0.0011112
0.00125335
0.00143059
0.00165047
0.00191975
0.00224758
0.00263821
0.00310283
0.00364099
0.00426657
0.00497857
0.00579048
0.00671587
0.0077635
0.00898141
0.0103776
0.0121136
0.01418
0.0170823
0.022124
0.0315444
0.000474774
0.000476297
0.000477898
0.000479546
0.000481253
0.000483036
0.000484893
0.000486822
0.000488828
0.000490919
0.000493102
0.000495388
0.000497786
0.000500307
0.000502964
0.000505772
0.000508748
0.00051191
0.000515279
0.000518879
0.000522738
0.00052688
0.000531348
0.000536171
0.000541394
0.000547083
0.00055326
0.000560042
0.00056757
0.000575948
0.00058531
0.000595799
0.000607611
0.000620982
0.000636148
0.000653446
0.000673339
0.000696381
0.000723267
0.000754914
0.000792474
0.000837321
0.00089157
0.000957667
0.00103861
0.00113785
0.00125974
0.00140898
0.0015912
0.00181207
0.00207778
0.00239469
0.00276762
0.00320468
0.00370592
0.00428526
0.00493423
0.00567782
0.0065028
0.0074419
0.00850152
0.00971184
0.0111478
0.0128207
0.0150623
0.0178474
0.0223962
0.0296173
0.0472344
0.000548028
0.00055036
0.000552832
0.000555389
0.000558032
0.000560775
0.000563614
0.000566546
0.00056958
0.000572724
0.000575992
0.000579396
0.000582952
0.000586677
0.000590593
0.000594723
0.000599095
0.000603739
0.000608692
0.000613988
0.000619674
0.000625799
0.000632411
0.00063959
0.000647404
0.000655911
0.000665316
0.000675774
0.000687449
0.000700538
0.00071529
0.000731985
0.000751006
0.000772797
0.000797856
0.000826878
0.000860729
0.000900457
0.000947353
0.00100297
0.00106924
0.00114843
0.00124314
0.00135667
0.00149304
0.00165612
0.00185057
0.00208073
0.00235186
0.00266824
0.00303511
0.00345687
0.0039369
0.00448282
0.00509129
0.00578276
0.00653712
0.00740415
0.00834252
0.00943709
0.010662
0.0121229
0.0139005
0.016093
0.0192907
0.0235487
0.0309777
0.0433343
0.0693398
0.000650495
0.000653854
0.000657448
0.000661209
0.000665141
0.000669258
0.000673554
0.000678028
0.00068269
0.000687555
0.00069264
0.000697965
0.000703552
0.000709428
0.000715625
0.000722179
0.000729131
0.000736529
0.000744431
0.000752902
0.000762013
0.000771866
0.000782568
0.000794195
0.000807021
0.000821272
0.000837182
0.000855034
0.000875167
0.000897989
0.000923993
0.000953755
0.000988012
0.00102757
0.00107338
0.00112664
0.00118875
0.00126133
0.00134625
0.00144564
0.00156193
0.00169776
0.00185616
0.00204023
0.00225329
0.00249927
0.00278261
0.00310638
0.00347515
0.00389134
0.00436003
0.00488344
0.00546588
0.00611435
0.00682524
0.00762745
0.00848788
0.00949823
0.0105663
0.0118929
0.0133603
0.0152762
0.0176434
0.020942
0.0260023
0.0332461
0.0466697
0.0658678
0.0898965
0.000803322
0.000808481
0.000814012
0.000819836
0.000825961
0.00083241
0.000839182
0.000846279
0.000853719
0.00086153
0.000869741
0.000878387
0.00088751
0.000897164
0.000907412
0.000918328
0.000930004
0.000942549
0.000956082
0.000970773
0.000986741
0.00100424
0.00102365
0.00104525
0.00106938
0.00109645
0.0011269
0.00116128
0.00120022
0.00124443
0.00129474
0.00135208
0.00141757
0.00149235
0.00157776
0.00167536
0.00178686
0.00191412
0.00205916
0.00222418
0.00241151
0.00262357
0.00286296
0.00313219
0.00343411
0.00377111
0.00414613
0.00456223
0.00502438
0.00553321
0.00609583
0.00671137
0.00738996
0.00813473
0.00895112
0.00987031
0.0108608
0.0120606
0.0133275
0.0150496
0.0169472
0.0197322
0.0232911
0.0290963
0.037731
0.0520344
0.0720154
0.0932049
0.105909
0.00103697
0.00104514
0.001054
0.00106346
0.00107355
0.00108433
0.00109581
0.00110803
0.00112105
0.00113493
0.00114975
0.0011656
0.00118258
0.00120082
0.00122046
0.00124167
0.00126464
0.00128953
0.0013168
0.00134679
0.0013798
0.0014162
0.00145641
0.00150093
0.00155032
0.0016052
0.00166629
0.00173435
0.00181025
0.00189494
0.00198946
0.00209493
0.00221259
0.00234366
0.00248951
0.00265168
0.00283174
0.00303133
0.00325215
0.00349599
0.00376466
0.00406004
0.00438405
0.00473863
0.00512591
0.00554781
0.00600719
0.006505
0.00704765
0.00763614
0.00828318
0.00898195
0.00975836
0.0106013
0.0115498
0.0126107
0.0138174
0.0152959
0.0169815
0.0193778
0.0222027
0.0266985
0.0333406
0.0442123
0.0610409
0.0834123
0.103363
0.1146
0.118303
0.00144688
0.00146236
0.0014792
0.0014973
0.00151674
0.00153763
0.00156003
0.00158403
0.00160972
0.00163725
0.00166681
0.00169853
0.0017327
0.00176964
0.00180961
0.00185278
0.00189966
0.00195069
0.00200629
0.00206689
0.00213299
0.00220511
0.00228384
0.00236977
0.00246358
0.00256598
0.00267771
0.00279959
0.00293246
0.00307723
0.00323481
0.00340624
0.00359248
0.00379447
0.0040133
0.0042501
0.00450597
0.0047821
0.00507968
0.00540002
0.00574446
0.00611449
0.00651169
0.00693791
0.0073952
0.00788593
0.00841292
0.00897908
0.0095898
0.010249
0.0109797
0.011764
0.0126634
0.0136293
0.01479
0.0160677
0.0177129
0.0196509
0.0223163
0.0258464
0.031072
0.0395705
0.0537646
0.074229
0.101018
0.119893
0.127436
0.126097
0.123967
0.00227237
0.00230141
0.00233295
0.00236689
0.00240341
0.00244266
0.00248479
0.00252996
0.00257838
0.0026302
0.0026861
0.00274668
0.00281218
0.00288291
0.00295919
0.0030414
0.00312977
0.0032246
0.00332637
0.00343558
0.00355274
0.00367839
0.0038131
0.00395741
0.00411189
0.00427712
0.00445365
0.00464206
0.00484292
0.0050568
0.00528427
0.00552595
0.00578224
0.00605364
0.00634084
0.00664452
0.00696544
0.00730444
0.00766251
0.00804088
0.00844086
0.00886422
0.00931285
0.00978953
0.0102971
0.0108396
0.0114195
0.0120463
0.012722
0.0134633
0.0142996
0.0152044
0.0163075
0.0174883
0.0190575
0.020776
0.023308
0.0262114
0.0310094
0.0372383
0.0490864
0.0671985
0.094655
0.124183
0.138267
0.14528
0.140839
0.134392
0.124968
0.00395242
0.00400153
0.00405524
0.00411341
0.00417621
0.00424387
0.00431655
0.00439448
0.00447797
0.0045674
0.00466277
0.00476419
0.00487218
0.00498722
0.00510975
0.0052402
0.00537896
0.0055264
0.0056829
0.00584881
0.00602443
0.00621004
0.00640591
0.00661224
0.00682926
0.00705712
0.00729604
0.00754607
0.00780751
0.00808044
0.00836499
0.00866135
0.00896939
0.00928965
0.00962224
0.0099678
0.010327
0.0107009
0.0110912
0.0114996
0.0119284
0.0123803
0.012859
0.0133692
0.0139161
0.0145059
0.0151398
0.0158456
0.0166082
0.0175006
0.0185161
0.0196814
0.0211986
0.0228749
0.0252481
0.0280426
0.0322612
0.0379885
0.0474066
0.0629983
0.0883641
0.123128
0.152273
0.165158
0.165854
0.159699
0.148051
0.130774
0.11459
0.00723532
0.00730743
0.00738394
0.00746483
0.00755078
0.00764238
0.00774009
0.00784447
0.00795602
0.00807521
0.00820247
0.00833807
0.00848237
0.00863563
0.008798
0.00896965
0.00915084
0.00934182
0.00954254
0.00975308
0.00997314
0.0102026
0.0104414
0.0106892
0.0109459
0.0112112
0.0114852
0.0117676
0.0120587
0.012358
0.0126652
0.0129803
0.0133024
0.0136342
0.0139739
0.0143241
0.0146866
0.015064
0.0154601
0.015877
0.0163197
0.0167911
0.0173012
0.0178539
0.0184627
0.0191356
0.0198724
0.0207429
0.0216899
0.0229568
0.0243392
0.0262098
0.0285761
0.0314626
0.0354003
0.0411688
0.0493944
0.063713
0.0851473
0.122024
0.159588
0.183644
0.188689
0.18546
0.17548
0.1578
0.135818
0.113185
0.0955209
0.0128031
0.0128713
0.0129457
0.013025
0.0131106
0.0132031
0.0133028
0.0134112
0.0135277
0.0136531
0.0137883
0.013933
0.0140877
0.0142526
0.0144263
0.0146095
0.0148034
0.0150083
0.0152216
0.0154444
0.0156735
0.0159101
0.0161538
0.0164048
0.0166615
0.0169252
0.0171942
0.017472
0.0177562
0.0180457
0.0183415
0.0186448
0.0189545
0.0192755
0.0196062
0.0199511
0.0203098
0.0206908
0.0210996
0.0215412
0.0220229
0.0225549
0.0231519
0.023809
0.0245834
0.0254393
0.0264427
0.0277205
0.0291952
0.0314156
0.0336464
0.0373598
0.0414295
0.0473612
0.0555529
0.0701576
0.0897424
0.124347
0.167854
0.197979
0.208727
0.208571
0.203148
0.187397
0.161171
0.133451
0.10892
0.0881644
0.0732737
0.0213977
0.0214351
0.0214811
0.0215345
0.0215967
0.0216681
0.0217485
0.0218394
0.0219387
0.0220479
0.0221672
0.0222958
0.0224331
0.0225806
0.0227346
0.0228979
0.0230693
0.0232507
0.0234348
0.0236269
0.0238209
0.0240206
0.0242238
0.0244328
0.0246435
0.0248615
0.0250818
0.0253126
0.025547
0.0257835
0.0260292
0.0262848
0.0265562
0.0268446
0.0271616
0.027516
0.0279033
0.0283489
0.0288501
0.0294367
0.0300842
0.0308518
0.0317164
0.0326824
0.0339657
0.0351941
0.0370473
0.0394378
0.0427274
0.0470969
0.0519699
0.0601387
0.0688912
0.083321
0.10556
0.139673
0.181561
0.210782
0.227926
0.231207
0.228105
0.215723
0.185446
0.150966
0.120104
0.0951578
0.0764932
0.0642195
0.0567688
0.0334364
0.0334793
0.0335245
0.0335736
0.0336312
0.0336972
0.033772
0.0338545
0.033944
0.034046
0.0341468
0.0342516
0.034361
0.0344785
0.0346007
0.0347314
0.0348612
0.0350024
0.0351365
0.0352746
0.0354173
0.0355666
0.0357213
0.0358909
0.0360682
0.0362683
0.0364764
0.0367084
0.036949
0.0372119
0.0375117
0.0378661
0.0382826
0.0387576
0.0393054
0.0399316
0.0406406
0.0414522
0.0423596
0.0434353
0.0445884
0.0459935
0.0474783
0.049294
0.051766
0.0536576
0.0590136
0.0661744
0.0751357
0.0845497
0.097974
0.114592
0.13608
0.168287
0.198644
0.219105
0.236568
0.246213
0.244394
0.231124
0.197409
0.157477
0.119169
0.0891061
0.0710944
0.0624221
0.0579842
0.0539336
0.0520859
0.0593367
0.059482
0.059581
0.0596964
0.0598575
0.0600273
0.0602079
0.0603659
0.0605337
0.0608208
0.0605496
0.060682
0.060836
0.0609769
0.0611017
0.0612224
0.06127
0.0615042
0.060992
0.060785
0.0608613
0.0609106
0.0609529
0.0610566
0.0612149
0.0614034
0.0615704
0.0617788
0.0618629
0.0621176
0.0625926
0.0633803
0.0642835
0.0654853
0.0668495
0.0683686
0.0701635
0.0719153
0.0741138
0.0763569
0.0795775
0.0826927
0.0869881
0.091567
0.0966938
0.104251
0.110052
0.115898
0.124583
0.136428
0.151918
0.171822
0.194346
0.218778
0.236269
0.237698
0.230154
0.202875
0.163363
0.120285
0.0832542
0.0578849
0.0449124
0.0430446
0.0460097
0.0497665
0.054031
0.0586809
0.063706
0.186058
0.186396
0.186672
0.186946
0.187248
0.188385
0.189973
0.190109
0.191571
0.19164
0.191669
0.191728
0.192703
0.192915
0.192994
0.193088
0.193085
0.194086
0.193823
0.193563
0.194207
0.19335
0.192831
0.193362
0.19477
0.193423
0.193844
0.19225
0.191253
0.191081
0.190255
0.189945
0.187276
0.188495
0.185609
0.185976
0.184736
0.180949
0.177592
0.172155
0.17075
0.166581
0.160837
0.153619
0.144957
0.134791
0.12321
0.110365
0.0966472
0.0828132
0.0699042
0.059834
0.0533444
0.0529054
0.0554228
0.0573595
0.0560175
0.048163
0.0365233
0.0263834
0.0227061
0.023833
0.0308508
0.0406765
0.0526517
0.0668712
0.084092
0.105666
0.134451
0.000255536
0.000256004
0.000256747
0.000256988
0.000257634
0.000258467
0.000259758
0.000260848
0.000261787
0.000262521
0.000263185
0.000263641
0.000265355
0.000266321
0.000266834
0.000266864
0.000267763
0.000268097
0.000267931
0.000267388
0.000267188
0.00026795
0.000268074
0.000268561
0.000268711
0.000268577
0.000268659
0.000268264
0.000268005
0.000268706
0.000269362
0.000269779
0.000269558
0.000268175
0.000267447
0.00026652
0.000266272
0.00026584
0.000265028
0.000264545
0.000264168
0.000263689
0.000262863
0.00026119
0.000260098
0.000259175
0.000258074
0.000256513
0.000255636
0.000255217
0.000254902
0.000254634
0.000254017
0.000253378
0.000252558
0.000251795
0.000251184
0.000250508
0.000250411
0.000257277
0.000257911
0.000258561
0.00025924
0.000260297
0.000261074
0.000261788
0.000262384
0.000263073
0.000263863
0.000264674
0.000266068
0.000267172
0.000267613
0.000267776
0.000268295
0.000269069
0.000269136
0.000268366
0.000268067
0.000268284
0.000268865
0.000268957
0.00026933
0.000269333
0.000269299
0.00026941
0.000268946
0.000268515
0.000269139
0.000269773
0.000270146
0.000269902
0.000268589
0.000267931
0.000266969
0.000266606
0.000266185
0.000265497
0.000264885
0.00026448
0.000264157
0.000263585
0.00026233
0.000261068
0.000260059
0.000259322
0.000258023
0.000256628
0.000255948
0.000255476
0.000255303
0.000255027
0.000254711
0.000254383
0.000253969
0.000253546
0.00025316
0.000252703
0.00026075
0.000261281
0.00026182
0.000262363
0.000262933
0.000263354
0.000263975
0.000264622
0.000265538
0.000266582
0.0002679
0.000268821
0.000269217
0.000269274
0.000269728
0.000270501
0.000270742
0.000270271
0.000269781
0.000269749
0.000270027
0.000270444
0.000270445
0.00027073
0.000270678
0.000270671
0.000270522
0.000270016
0.00026971
0.000270208
0.000270858
0.00027124
0.000270951
0.000269633
0.000268901
0.000267959
0.000267412
0.000267094
0.000266496
0.000265758
0.000265283
0.000265059
0.000264687
0.000263935
0.00026278
0.000261629
0.000260817
0.00025997
0.000258692
0.000257566
0.000256776
0.000256409
0.000256229
0.000256076
0.000255868
0.000255646
0.000255315
0.000255018
0.000254602
0.000264396
0.000264785
0.000265286
0.00026577
0.000266229
0.00026693
0.000267737
0.000268692
0.00026978
0.000270991
0.000271775
0.000272143
0.000272222
0.000272201
0.000273048
0.000273331
0.000273251
0.000272353
0.000272191
0.000272119
0.000272411
0.000272588
0.000272703
0.000272956
0.00027274
0.000272691
0.000272527
0.000271984
0.000271659
0.00027201
0.000272609
0.00027284
0.000272555
0.000271414
0.000270694
0.000269769
0.000269048
0.000268664
0.000268206
0.000267486
0.000266891
0.000266597
0.000266316
0.000265877
0.000265097
0.000264046
0.000263091
0.000262365
0.000261448
0.000260339
0.000259435
0.000258668
0.000258159
0.000257837
0.000257589
0.00025746
0.000257318
0.000257147
0.000256916
0.00026962
0.000269806
0.000270273
0.000270276
0.000271334
0.000271973
0.000272977
0.000273977
0.000275178
0.000275851
0.000276145
0.000276085
0.000275972
0.00027635
0.000276908
0.000277025
0.000275859
0.000275425
0.000275279
0.00027547
0.000275614
0.00027567
0.00027587
0.000275876
0.000275707
0.000275652
0.000275298
0.000274695
0.000274384
0.000274592
0.000275116
0.000275316
0.000274998
0.000273941
0.00027322
0.000272333
0.000271516
0.000271045
0.00027062
0.000270005
0.000269331
0.000268911
0.000268629
0.000268314
0.00026783
0.000267098
0.000266245
0.000265459
0.000264801
0.0002639
0.000263146
0.000262338
0.000261581
0.000261076
0.000260484
0.000259953
0.000259649
0.000259219
0.000259103
0.000276271
0.000276436
0.000276741
0.000277297
0.000278316
0.000279146
0.000280229
0.000281081
0.000281372
0.000281118
0.000281021
0.000281056
0.000281149
0.000281952
0.000282196
0.000280738
0.000280029
0.000279962
0.000280154
0.000280196
0.000280235
0.000279921
0.000279992
0.000280172
0.00027976
0.000279578
0.000279109
0.000278482
0.000278126
0.00027822
0.000278641
0.000278785
0.000278435
0.000277452
0.000276709
0.000275862
0.00027497
0.000274384
0.000273947
0.000273421
0.000272758
0.000272222
0.000271876
0.000271591
0.000271255
0.000270778
0.000270197
0.000269562
0.000269034
0.000268386
0.000267825
0.000267198
0.000266618
0.000266141
0.000265712
0.000264992
0.000264328
0.000263918
0.000263555
0.000285652
0.000285748
0.000285766
0.000285907
0.000285978
0.000287504
0.000288114
0.000288511
0.000288376
0.000288356
0.000288102
0.000288568
0.000288708
0.0002881
0.000286982
0.000286376
0.000286505
0.000286538
0.000285899
0.000285871
0.00028559
0.00028545
0.000285626
0.000285189
0.000284942
0.000284682
0.00028411
0.000283392
0.000282963
0.000282972
0.000283278
0.000283343
0.000282961
0.000282042
0.000281272
0.000280471
0.000279551
0.000278861
0.00027837
0.000277895
0.000277325
0.000276735
0.000276299
0.000275981
0.000275672
0.000275332
0.000274898
0.000274376
0.000273906
0.000273316
0.000272586
0.000272502
0.00027197
0.000271512
0.000270729
0.000270413
0.00027048
0.00027035
0.000270052
0.000296142
0.000296296
0.000296426
0.000296733
0.000298213
0.000298652
0.000298072
0.000298017
0.000297778
0.000297025
0.000296623
0.000296517
0.000296021
0.000295565
0.000294951
0.000294526
0.000293816
0.000293238
0.000293054
0.000293017
0.000292767
0.000292871
0.000292331
0.000292422
0.000291821
0.000291394
0.00029063
0.000289891
0.000289344
0.000289254
0.000289426
0.000289395
0.000288971
0.000288104
0.000287275
0.000286491
0.000285578
0.000284783
0.000284193
0.000283702
0.000283206
0.00028268
0.000282185
0.000281788
0.000281429
0.000281026
0.000280644
0.000280163
0.000279877
0.00027942
0.000278966
0.00027849
0.000278313
0.000277905
0.000277428
0.000276665
0.00027663
0.000276088
0.000275965
0.000309698
0.000309518
0.000309321
0.000308945
0.000308867
0.000308669
0.000308813
0.000309303
0.000309107
0.000308658
0.000308333
0.000306857
0.000305963
0.000305142
0.000304337
0.000303782
0.000303575
0.000303705
0.000302972
0.000302491
0.000302291
0.000301915
0.000301904
0.000301112
0.000300334
0.000299814
0.000298974
0.000298093
0.000297434
0.000297227
0.000297267
0.000297116
0.000296648
0.000295811
0.000294945
0.000294135
0.000293279
0.000292442
0.000291757
0.000291202
0.000290704
0.00029022
0.000289737
0.00028928
0.000288836
0.00028851
0.000288158
0.00028779
0.0002875
0.000286948
0.000286733
0.000286049
0.000286004
0.000285421
0.000285437
0.000285164
0.000284877
0.000284293
0.000284174
0.000325795
0.000325688
0.000324818
0.00032476
0.0003245
0.000324114
0.0003235
0.000323118
0.000322695
0.000321866
0.000320968
0.000319483
0.000318481
0.000317485
0.000317115
0.000316809
0.000316831
0.000315595
0.000315331
0.000314379
0.000314307
0.000313547
0.000312827
0.000312161
0.00031156
0.000310802
0.000309695
0.000308747
0.000307926
0.000307574
0.000307446
0.000307153
0.000306618
0.00030576
0.000304844
0.00030397
0.000303106
0.000302262
0.000301491
0.000300839
0.000300235
0.000299755
0.000299144
0.00029879
0.000298206
0.000297931
0.00029745
0.000297098
0.000296929
0.000296378
0.000296226
0.000296121
0.000295806
0.000295636
0.000295076
0.000294891
0.000294866