/*--------------------------------*- C++ -*----------------------------------*\
| =========                 |                                                 |
| \\      /  F ield         | OpenFOAM: The Open Source CFD Toolbox           |
|  \\    /   O peration     | Version:  2312                                  |
|   \\  /    A nd           | Website:  www.openfoam.com                      |
|    \\/     M anipulation  |                                                 |
\*---------------------------------------------------------------------------*/
FoamFile
{
    version     2.0;
    format      ascii;
    arch        "LSB;label=32;scalar=64";
    class       volScalarField;
    location    "500";
    object      k;
}
// * * * * * * * * * * * * * * * * * * * * * * * * * * * * * * * * * * * * * //

dimensions      [0 2 -2 0 0 0 0];

internalField   nonuniform List<scalar> 
76025
(
0.00190996
0.00190907
0.00190809
0.00190674
0.0019046
0.00190333
0.00189826
0.00189633
0.00189648
0.00189521
0.00189356
0.00189082
0.00188918
0.00188552
0.00188363
0.00188141
0.00187902
0.0018738
0.00187266
0.00187302
0.00187194
0.00186907
0.00186658
0.00186354
0.00185951
0.00185866
0.0018581
0.00186109
0.00185891
0.00186043
0.00185621
0.00185863
0.00185444
0.00185222
0.00185037
0.00184784
0.00184605
0.00184414
0.00184815
0.00184398
0.00184263
0.0018451
0.00184937
0.0018561
0.00186191
0.00187118
0.00187975
0.00189166
0.00190544
0.00192435
0.00194564
0.00197363
0.00200376
0.00204143
0.00208013
0.00212568
0.00217251
0.00223342
0.00230176
0.00240588
0.00250893
0.00266513
0.00285541
0.00312503
0.0034746
0.00402356
0.00479136
0.00627297
0.00826554
0.00192643
0.0019232
0.00192023
0.00191796
0.001915
0.00191212
0.00191043
0.00190885
0.00190814
0.00190459
0.0019054
0.00190464
0.00190369
0.00190101
0.00189845
0.00189534
0.00189055
0.0018843
0.00188222
0.0018817
0.00188135
0.00187696
0.0018754
0.00187669
0.00187576
0.00187346
0.00187097
0.00186607
0.00186615
0.00186204
0.00185997
0.00185855
0.00185722
0.0018579
0.00185896
0.00185482
0.00185633
0.00185987
0.00186445
0.00186951
0.00187523
0.00188146
0.00188816
0.00189547
0.00190374
0.00191356
0.00192523
0.00193983
0.0019571
0.001978
0.0020019
0.00203002
0.00206159
0.0020988
0.00214103
0.0021923
0.00225357
0.00232963
0.00242372
0.00253814
0.00268132
0.00286848
0.00310535
0.00341468
0.00386455
0.00456549
0.00564247
0.007562
0.00984556
0.00194484
0.00194199
0.00193853
0.00193649
0.00193383
0.00193112
0.00192803
0.00192571
0.00192365
0.00192065
0.00191857
0.00191689
0.00191314
0.00191159
0.00191124
0.00190889
0.00190811
0.0019053
0.00190252
0.00189947
0.00189768
0.00189567
0.00189378
0.0018924
0.00189079
0.00188899
0.00188544
0.00188134
0.00187963
0.00188011
0.00188142
0.00188296
0.00188502
0.00188748
0.00189043
0.00189386
0.00189754
0.00190148
0.00190569
0.00191025
0.00191525
0.00192108
0.00192781
0.00193604
0.00194588
0.00195795
0.00197226
0.00198955
0.00200964
0.00203344
0.00206072
0.00209303
0.00213018
0.0021748
0.0022264
0.00228924
0.00236195
0.00245188
0.00255742
0.0026928
0.00285965
0.00307871
0.00336336
0.00375786
0.00436741
0.00528803
0.00669083
0.00885448
0.0111609
0.00196006
0.00195943
0.00195713
0.00195446
0.00194973
0.00194831
0.00194849
0.00194773
0.00194579
0.00194337
0.00194053
0.00193806
0.00193392
0.00192982
0.00192758
0.0019263
0.00192211
0.00192116
0.00192362
0.0019194
0.00191683
0.00191495
0.00191416
0.00191342
0.00190954
0.00190599
0.00190561
0.00190566
0.00190728
0.00190965
0.00191236
0.00191516
0.00191818
0.00192151
0.00192507
0.00192899
0.00193312
0.0019376
0.00194254
0.00194809
0.0019544
0.00196197
0.00197087
0.0019816
0.00199419
0.00200922
0.00202669
0.00204734
0.00207122
0.00209922
0.00213171
0.00216978
0.00221438
0.00226667
0.00232822
0.00240066
0.00248704
0.00259173
0.00272077
0.00288467
0.00309078
0.00336631
0.00373484
0.00426424
0.0050896
0.00625624
0.00799349
0.0103106
0.0127378
0.00197714
0.00197719
0.00197754
0.00197534
0.00197336
0.00196911
0.00196786
0.00196875
0.00196792
0.00196554
0.00196372
0.0019611
0.00195929
0.00195539
0.00195327
0.00194826
0.00194724
0.00194247
0.00194182
0.00194386
0.00193933
0.00193781
0.00193584
0.00193743
0.00193975
0.00194055
0.0019416
0.00194289
0.00194463
0.00194682
0.00194935
0.00195215
0.00195533
0.00195895
0.00196298
0.0019675
0.00197253
0.00197817
0.00198462
0.0019919
0.00200026
0.00201008
0.00202155
0.00203499
0.00205063
0.00206889
0.00209007
0.00211475
0.00214334
0.00217672
0.00221551
0.00226096
0.002314
0.00237614
0.00244909
0.0025355
0.0026397
0.00276706
0.00292642
0.00312833
0.00339009
0.00374618
0.00423284
0.00496359
0.00602716
0.00747188
0.00946898
0.0118487
0.0142456
0.0019987
0.00199699
0.00199694
0.00199651
0.00199628
0.00199574
0.00199658
0.00199656
0.00199609
0.00199457
0.00199295
0.00199116
0.0019899
0.00198804
0.00198603
0.0019826
0.0019798
0.0019753
0.00197283
0.00196806
0.00196858
0.00196986
0.0019711
0.00197281
0.00197513
0.00197762
0.00198014
0.00198283
0.00198561
0.0019887
0.00199191
0.00199541
0.00199931
0.00200374
0.00200874
0.00201438
0.00202072
0.00202787
0.00203606
0.00204532
0.00205585
0.00206812
0.00208233
0.00209885
0.00211796
0.00214014
0.00216579
0.00219555
0.00223007
0.00227025
0.00231701
0.00237152
0.00243507
0.00250941
0.00259714
0.00270208
0.00282982
0.00298814
0.00318886
0.00344828
0.00379516
0.00427158
0.00494418
0.00591663
0.00723776
0.00892355
0.0110957
0.0134327
0.0158364
0.00202715
0.00202643
0.0020263
0.00202436
0.00202328
0.0020226
0.00202307
0.00202151
0.0020209
0.0020211
0.0020191
0.00201844
0.00201638
0.00201642
0.00201622
0.00201705
0.00201298
0.00201298
0.00201449
0.002015
0.00201561
0.00201666
0.00201809
0.00201995
0.00202226
0.00202493
0.00202787
0.00203104
0.00203444
0.00203815
0.00204209
0.00204649
0.00205143
0.00205702
0.00206335
0.00207048
0.00207851
0.00208754
0.00209785
0.0021095
0.00212268
0.00213792
0.0021555
0.00217581
0.00219921
0.00222627
0.0022575
0.00229367
0.00233556
0.00238419
0.00244063
0.00250626
0.00258283
0.0026729
0.00278033
0.0029106
0.00307166
0.00327527
0.00353873
0.00388735
0.00436069
0.0050148
0.00591866
0.00714773
0.00868789
0.0105611
0.0127987
0.0150518
0.0173762
0.00206385
0.00206176
0.00206219
0.00205848
0.00205765
0.00205869
0.00205564
0.00205489
0.00205615
0.00205241
0.00205285
0.00205385
0.00205468
0.00205604
0.00205771
0.00205965
0.00206117
0.00206289
0.00206493
0.00206706
0.00206919
0.00207145
0.00207389
0.00207659
0.00207956
0.00208282
0.00208636
0.00209017
0.0020943
0.00209879
0.00210364
0.00210914
0.00211531
0.00212231
0.00213023
0.00213916
0.00214921
0.00216053
0.0021734
0.00218796
0.00220434
0.00222319
0.00224486
0.0022698
0.00229848
0.00233155
0.00236968
0.00241375
0.00246468
0.00252368
0.00259213
0.00267196
0.00276584
0.00287769
0.00301324
0.00318073
0.00339218
0.00366557
0.00402557
0.00450731
0.00516046
0.00603735
0.00719203
0.00864164
0.0103512
0.0123333
0.0145512
0.0166789
0.0188677
0.00211249
0.00211174
0.00211198
0.00211195
0.00211262
0.0021135
0.00211515
0.00211123
0.00210936
0.00211173
0.00211385
0.00211526
0.00211646
0.00211778
0.0021195
0.00212146
0.00212354
0.00212579
0.00212824
0.00213088
0.00213369
0.00213667
0.00213984
0.00214327
0.00214697
0.00215099
0.00215536
0.00216011
0.00216531
0.00217097
0.0021772
0.00218425
0.00219216
0.0022011
0.00221118
0.00222248
0.00223517
0.00224943
0.00226553
0.00228373
0.00230414
0.00232747
0.00235422
0.00238494
0.00242022
0.00246082
0.00250757
0.00256153
0.0026239
0.0026963
0.00278079
0.00288032
0.00299911
0.00314318
0.00332142
0.00354643
0.00383648
0.00421672
0.00471885
0.00538508
0.00625915
0.00737459
0.00874918
0.0103606
0.0121741
0.0141843
0.0163146
0.0182723
0.020366
0.00217017
0.00217032
0.00217084
0.0021715
0.00217242
0.00217358
0.0021751
0.00217644
0.00217759
0.00217944
0.00218155
0.00218369
0.00218589
0.00218823
0.0021908
0.00219361
0.00219661
0.00219979
0.00220315
0.0022067
0.00221044
0.00221439
0.00221859
0.00222307
0.00222787
0.00223307
0.00223868
0.00224482
0.00225152
0.0022588
0.00226692
0.00227605
0.00228624
0.00229768
0.00231051
0.0023248
0.00234079
0.0023587
0.00237884
0.00240156
0.00242704
0.00245601
0.0024892
0.00252725
0.00257095
0.00262121
0.00267914
0.00274615
0.002824
0.00291513
0.00302284
0.0031518
0.0033087
0.00350301
0.00374842
0.00406337
0.00447291
0.00500685
0.00569942
0.00658588
0.00768842
0.00901223
0.010546
0.012251
0.0141017
0.0160655
0.0180586
0.0198086
0.0218748
0.00223043
0.0022305
0.00223127
0.00223274
0.00223491
0.00223765
0.00224084
0.0022444
0.00224805
0.00225195
0.00225603
0.00226022
0.0022645
0.00226887
0.00227335
0.00227797
0.0022827
0.00228755
0.00229254
0.00229768
0.00230299
0.00230852
0.00231432
0.00232042
0.0023269
0.00233383
0.00234125
0.00234932
0.00235799
0.00236748
0.00237801
0.00238975
0.00240279
0.00241735
0.00243361
0.00245165
0.00247181
0.00249438
0.0025197
0.00254827
0.00258034
0.00261665
0.00265824
0.00270594
0.00276079
0.00282408
0.00289742
0.00298295
0.00308349
0.00320293
0.00334657
0.00352195
0.00373952
0.00401362
0.00436346
0.00481256
0.00538872
0.0061194
0.00702968
0.00813399
0.00942898
0.0109002
0.0125217
0.0142549
0.0160776
0.0179327
0.0197478
0.0212777
0.0235485
0.00232464
0.00232744
0.00232999
0.00233237
0.0023349
0.00233781
0.00234116
0.00234493
0.00234906
0.00235352
0.00235827
0.00236327
0.00236849
0.00237392
0.00237956
0.0023854
0.00239144
0.00239769
0.00240415
0.00241084
0.00241779
0.00242504
0.00243265
0.00244067
0.00244918
0.00245823
0.00246794
0.00247839
0.0024896
0.00250196
0.00251559
0.00253069
0.0025474
0.00256599
0.00258668
0.00260963
0.00263525
0.00266394
0.00269611
0.00273242
0.00277335
0.0028196
0.00287269
0.00293386
0.00300465
0.00308703
0.00318359
0.00329774
0.00343406
0.00359879
0.00380044
0.00405047
0.00436394
0.00475968
0.00525992
0.0058878
0.00666531
0.00760754
0.00872116
0.00999896
0.0114228
0.0129704
0.0146121
0.0163135
0.018049
0.019747
0.021349
0.0227467
0.025429
0.00246381
0.00246548
0.00246756
0.00246977
0.00247219
0.00247494
0.00247811
0.00248171
0.00248573
0.00249016
0.00249496
0.00250012
0.00250562
0.00251146
0.00251764
0.00252417
0.00253106
0.00253832
0.00254597
0.00255403
0.00256254
0.00257154
0.00258107
0.00259122
0.00260204
0.00261361
0.00262608
0.00263942
0.00265396
0.00266996
0.00268758
0.00270704
0.00272857
0.00275249
0.0027791
0.00280865
0.00284167
0.00287876
0.00292048
0.00296766
0.00302125
0.00308213
0.00315227
0.00323384
0.00332927
0.00344178
0.00357553
0.00373609
0.00393073
0.00416906
0.00446334
0.0048287
0.00528291
0.0058449
0.00653316
0.00736186
0.00833956
0.00946487
0.0107287
0.0121128
0.013595
0.0151518
0.0167537
0.0183698
0.0199677
0.021475
0.0228597
0.0242891
0.0273095
0.00262178
0.00262528
0.00262903
0.00263286
0.00263679
0.00264093
0.00264533
0.00265
0.00265499
0.00266032
0.00266599
0.00267201
0.0026784
0.00268517
0.00269236
0.00269999
0.00270811
0.00271674
0.00272594
0.00273574
0.00274621
0.00275738
0.00276933
0.00278214
0.00279587
0.00281068
0.00282655
0.00284378
0.00286269
0.00288349
0.00290643
0.00293178
0.00295989
0.00299121
0.00302612
0.0030651
0.00310888
0.00315832
0.00321435
0.00327814
0.00335127
0.0034354
0.00353293
0.0036477
0.00378373
0.00394621
0.0041417
0.00437859
0.00466714
0.00501977
0.00545055
0.00597454
0.00660645
0.00735827
0.00823824
0.00924746
0.0103818
0.0116289
0.0129729
0.0143932
0.0158683
0.0173751
0.0188851
0.0203703
0.0217936
0.0230958
0.0243237
0.0259199
0.028918
0.00281372
0.00281905
0.00282472
0.00283054
0.00283654
0.00284276
0.00284921
0.00285591
0.00286288
0.00287015
0.00287777
0.00288574
0.00289411
0.00290291
0.0029122
0.00292202
0.00293243
0.00294351
0.00295532
0.00296793
0.00298143
0.0029959
0.00301142
0.0030281
0.00304609
0.00306541
0.00308638
0.00310939
0.00313467
0.00316253
0.00319335
0.00322753
0.00326559
0.00330821
0.00335598
0.00340971
0.00347055
0.00353982
0.00361911
0.00371037
0.00381611
0.00393946
0.00408403
0.00425507
0.00445932
0.00470425
0.00499857
0.00535245
0.00577697
0.00628378
0.00688385
0.00758659
0.00839844
0.00932139
0.0103536
0.0114867
0.0127106
0.0140082
0.0153639
0.0167569
0.0181673
0.0195731
0.0209482
0.0222686
0.0234987
0.0246099
0.025811
0.027705
0.0315299
0.00306007
0.00306747
0.00307537
0.00308357
0.00309206
0.00310089
0.00311004
0.0031195
0.0031293
0.00313948
0.00315005
0.00316107
0.00317258
0.00318464
0.0031973
0.00321064
0.00322475
0.00323973
0.00325565
0.00327265
0.00329084
0.00331032
0.00333127
0.00335384
0.00337812
0.00340461
0.00343367
0.00346564
0.00350091
0.00353997
0.0035834
0.00363186
0.00368623
0.00374757
0.0038169
0.00389568
0.00398581
0.00408947
0.00420934
0.00434863
0.00451122
0.00470181
0.00492592
0.00518971
0.00550044
0.00586737
0.00629884
0.00680343
0.00738902
0.00806227
0.00882748
0.00968655
0.010638
0.0116768
0.0127957
0.0139824
0.0152258
0.0165071
0.0178133
0.0191227
0.0204189
0.0216824
0.0228917
0.0240295
0.0250688
0.0260572
0.0274588
0.0299795
0.0359504
0.00338305
0.0033929
0.00340349
0.00341461
0.00342624
0.00343844
0.00345118
0.00346444
0.00347824
0.00349262
0.00350761
0.00352328
0.00353967
0.00355685
0.0035749
0.00359392
0.00361402
0.00363533
0.00365798
0.00368212
0.00370794
0.00373567
0.0037654
0.00379767
0.00383297
0.00387175
0.00391447
0.00396175
0.00401427
0.00407288
0.0041386
0.0042126
0.0042964
0.00439169
0.0045003
0.00462466
0.00476767
0.00493258
0.00512317
0.0053437
0.00559899
0.0058943
0.00623532
0.00662797
0.00707818
0.00759156
0.00817288
0.00882752
0.00955913
0.0103681
0.0112531
0.0122111
0.0132362
0.0143207
0.0154554
0.0166271
0.0178254
0.0190302
0.0202329
0.0214096
0.0225521
0.0236451
0.0246717
0.025625
0.0265142
0.0275861
0.0296434
0.0337088
0.0416261
0.00382215
0.00383563
0.00385017
0.00386552
0.00388169
0.00389875
0.00391667
0.00393543
0.00395507
0.00397564
0.00399721
0.00401984
0.00404362
0.00406865
0.00409507
0.00412302
0.00415267
0.00418422
0.00421794
0.00425406
0.0042928
0.004335
0.00438116
0.00443183
0.00448768
0.00454946
0.00461807
0.00469456
0.00478013
0.00487621
0.00498444
0.00510666
0.00524511
0.00540209
0.00558012
0.0057823
0.00601196
0.00627265
0.00656816
0.00690247
0.00727962
0.00770364
0.0081784
0.00870745
0.00929376
0.00993958
0.0106461
0.0114133
0.0122397
0.0131222
0.0140585
0.0150439
0.0160706
0.017131
0.0182149
0.0193093
0.0204041
0.0214787
0.0225311
0.0235349
0.024499
0.0254058
0.0262426
0.0270478
0.0279884
0.0297195
0.0334939
0.0396377
0.04753
0.00443176
0.0044503
0.00447045
0.00449196
0.00451489
0.00453933
0.00456528
0.00459276
0.00462185
0.00465266
0.0046853
0.00471991
0.00475665
0.0047957
0.00483729
0.00488173
0.00492923
0.00498029
0.0050358
0.00509631
0.00516242
0.00523487
0.00531448
0.00540217
0.005499
0.00560613
0.00572487
0.00585667
0.00600311
0.00616598
0.00634717
0.00654877
0.0067731
0.00702231
0.00729879
0.00760524
0.00794432
0.00831868
0.00873093
0.00918353
0.00967876
0.0102186
0.0108045
0.0114375
0.0121178
0.0128452
0.0136182
0.0144344
0.0152903
0.0161813
0.0171012
0.0180429
0.0190029
0.0199755
0.0209484
0.0219088
0.0228464
0.0237434
0.0246077
0.0254114
0.0261868
0.0268959
0.0275867
0.028509
0.0302275
0.0339641
0.0400809
0.0471517
0.0529177
0.00532989
0.00535798
0.00538862
0.00542161
0.0054571
0.00549527
0.0055362
0.00558001
0.0056269
0.00567709
0.00573084
0.00578838
0.00585002
0.00591664
0.0059887
0.0060667
0.00615119
0.00624275
0.00634208
0.00644995
0.00656719
0.00669472
0.00683353
0.00698468
0.00714929
0.00732857
0.00752382
0.0077364
0.00796774
0.00821936
0.00849281
0.00878976
0.00911186
0.00946049
0.00983725
0.0102438
0.0106816
0.011152
0.0116561
0.0121948
0.0127685
0.0133775
0.0140215
0.0146997
0.015411
0.0161532
0.0169237
0.0177189
0.0185346
0.0193647
0.0202043
0.0210433
0.0218761
0.0227057
0.023511
0.0242822
0.0250118
0.0256945
0.0263457
0.0269376
0.0275268
0.0281062
0.0290769
0.0310973
0.0353128
0.0418154
0.0488786
0.0533304
0.0552051
0.00674784
0.00679469
0.00684605
0.00690169
0.00696183
0.00702711
0.00709775
0.00717398
0.00725611
0.00734449
0.00743941
0.00754119
0.00765016
0.00776675
0.00789145
0.00802481
0.00816739
0.00831979
0.00848268
0.00865679
0.00884286
0.0090417
0.00925416
0.00948112
0.00972351
0.00998226
0.0102584
0.0105527
0.0108664
0.0112002
0.0115552
0.0119322
0.012332
0.012755
0.0132017
0.0136727
0.0141682
0.0146881
0.0152325
0.0158009
0.0163927
0.0170071
0.0176429
0.0182982
0.0189718
0.0196605
0.0203605
0.0210679
0.0217782
0.0224839
0.023182
0.0238555
0.0245043
0.02514
0.0257099
0.0262331
0.0267143
0.027172
0.0276012
0.0280265
0.0285814
0.0297449
0.0324243
0.0375514
0.0450694
0.0514997
0.0548802
0.055287
0.0556244
0.00930042
0.00937642
0.00945821
0.00954548
0.00963852
0.00973769
0.00984323
0.00995546
0.0100748
0.0102017
0.0103365
0.0104796
0.0106316
0.0107928
0.0109638
0.0111451
0.0113373
0.011541
0.0117567
0.011985
0.0122267
0.0124821
0.0127519
0.0130365
0.0133365
0.0136523
0.0139842
0.0143326
0.0146976
0.0150794
0.0154781
0.0158938
0.0163258
0.0167738
0.0172373
0.0177158
0.0182087
0.0187152
0.0192344
0.0197655
0.0203074
0.0208589
0.0214184
0.0219837
0.0225558
0.023127
0.0236931
0.0242504
0.0247928
0.0253145
0.025801
0.0262376
0.0266157
0.0268798
0.0271274
0.0274278
0.0277147
0.028024
0.0283434
0.0290395
0.0306176
0.0344168
0.0412589
0.0496533
0.0552399
0.0572401
0.0581772
0.0568328
0.0562026
0.0135754
0.0136579
0.0137458
0.0138385
0.0139366
0.0140407
0.0141511
0.0142683
0.014393
0.0145259
0.0146677
0.014819
0.0149805
0.0151529
0.0153366
0.0155322
0.01574
0.0159605
0.0161941
0.0164411
0.0167017
0.016976
0.0172639
0.0175654
0.0178803
0.0182082
0.0185489
0.0189017
0.0192664
0.0196423
0.0200286
0.0204242
0.0208276
0.0212379
0.0216529
0.0220717
0.0224934
0.0229171
0.0233421
0.0237674
0.0241924
0.0246154
0.0250359
0.0254507
0.0258706
0.0262617
0.0266305
0.0269732
0.0272781
0.0275561
0.0277084
0.0278165
0.0277401
0.0276705
0.0277609
0.0279841
0.0281638
0.0286152
0.0296717
0.0323057
0.0376452
0.0467994
0.054641
0.0590103
0.060169
0.059868
0.0592989
0.0570693
0.0542754
0.0195114
0.0195666
0.0196263
0.0196903
0.0197592
0.0198334
0.0199136
0.0200003
0.0200942
0.0201962
0.0203068
0.020427
0.0205574
0.0206987
0.0208513
0.0210154
0.0211917
0.0213807
0.0215824
0.0217968
0.0220234
0.0222615
0.0225106
0.0227701
0.023039
0.0233166
0.0236019
0.0238939
0.024193
0.0244968
0.0248032
0.0251094
0.0254152
0.0257116
0.0259962
0.0262776
0.0265563
0.0268325
0.0270972
0.0273514
0.0276011
0.0278387
0.0280707
0.0282904
0.0285322
0.0286678
0.0287629
0.0288409
0.0287581
0.0286898
0.0287139
0.0284184
0.0282287
0.0280758
0.0280544
0.028384
0.0292302
0.0313343
0.0353883
0.0433745
0.053001
0.0591911
0.0623194
0.0625299
0.0621912
0.0607466
0.0573627
0.0529995
0.0495261
0.0263675
0.0263744
0.0263827
0.026393
0.0264043
0.0264185
0.0264369
0.0264592
0.0264876
0.0265203
0.0265597
0.0266066
0.0266647
0.0267305
0.026806
0.0268878
0.0269849
0.0270924
0.0272099
0.0273393
0.0274786
0.0276209
0.0277694
0.0279253
0.0280844
0.0282487
0.0284142
0.0285849
0.0287642
0.0289407
0.0291117
0.029269
0.0294485
0.0294271
0.0294528
0.0295859
0.0297336
0.0298767
0.0298387
0.0298372
0.0298438
0.0298545
0.0298826
0.0299093
0.0299109
0.0298844
0.0298047
0.0297795
0.0295232
0.029318
0.0290136
0.0289233
0.0284906
0.0285878
0.029247
0.0311559
0.0346414
0.0411941
0.0507251
0.0581338
0.0625679
0.0642731
0.0644075
0.063495
0.0598225
0.0551029
0.0505898
0.0464382
0.044016
0.0331643
0.0331041
0.0330125
0.0329656
0.0328731
0.032797
0.0327506
0.0326574
0.0326245
0.0325251
0.0324425
0.0323788
0.0323682
0.0322821
0.0322768
0.0321862
0.032214
0.0321278
0.0320934
0.0320796
0.0321366
0.0320404
0.0320021
0.0319748
0.0319458
0.0319235
0.0318939
0.0318914
0.0319675
0.0319894
0.0319809
0.0319383
0.031931
0.0317575
0.0318597
0.0317236
0.0317915
0.0316131
0.0315398
0.0316103
0.0313917
0.0313026
0.0313487
0.0312627
0.0310789
0.0308356
0.0305119
0.0301012
0.0295547
0.0291505
0.0286443
0.028844
0.0296534
0.0315069
0.0352348
0.0413449
0.0492359
0.0561836
0.0607585
0.0644877
0.0655165
0.0647879
0.0608017
0.0549711
0.0493647
0.0448912
0.0419221
0.0403425
0.0405311
0.0372963
0.0371877
0.0370738
0.036958
0.0368379
0.0367168
0.0365976
0.0364792
0.0363506
0.0362207
0.0360932
0.0359558
0.0358316
0.0356307
0.0355292
0.0353465
0.0352885
0.0350569
0.0350182
0.0347792
0.0347487
0.0346768
0.0345866
0.0344574
0.0343093
0.0341538
0.033982
0.0338394
0.0336194
0.0334527
0.033323
0.0329893
0.0328629
0.032755
0.0328951
0.0326314
0.0326339
0.0326061
0.0321772
0.0319975
0.032079
0.0319472
0.0316524
0.0312352
0.0307095
0.0301644
0.0298988
0.0290496
0.0289165
0.0293401
0.030716
0.0331632
0.0368095
0.0423442
0.0480172
0.0521036
0.057306
0.061958
0.0634161
0.0625352
0.0581696
0.0513733
0.0440401
0.0385359
0.0352512
0.0341476
0.034626
0.0363069
0.0391039
0.0370698
0.0369541
0.0368381
0.0367249
0.0366143
0.0365096
0.0364113
0.0363161
0.0362179
0.0361155
0.0360032
0.0358773
0.0357444
0.0355942
0.0354471
0.0352864
0.0351072
0.0349255
0.0347295
0.0345568
0.0343554
0.0340846
0.0338546
0.0335996
0.033331
0.0330864
0.0327485
0.032506
0.0320526
0.0317993
0.0311856
0.0309308
0.0306622
0.0310405
0.0304344
0.0307084
0.0307177
0.0304957
0.0301806
0.0297612
0.0294481
0.0290947
0.0288086
0.0287412
0.0282512
0.0282126
0.028629
0.0297181
0.0313252
0.0335565
0.0363802
0.0399731
0.0440583
0.0484559
0.0524599
0.0543775
0.0538666
0.0509388
0.0450499
0.0376125
0.0293837
0.0225362
0.0189704
0.0186594
0.0208603
0.0240204
0.0277981
0.0322147
0.0373709
0.0277371
0.0278407
0.0278937
0.0279447
0.0279773
0.0280625
0.0282729
0.0283102
0.0284546
0.0284904
0.0285195
0.0285537
0.0286675
0.0287916
0.0288278
0.0288778
0.0288905
0.0290044
0.0290016
0.0290068
0.0290223
0.0291057
0.0290684
0.0291439
0.0291207
0.029104
0.0290944
0.029212
0.0290805
0.0290273
0.0289636
0.0289001
0.0288051
0.028735
0.0286207
0.0285181
0.028561
0.0285106
0.0283313
0.0278888
0.0274634
0.0272146
0.0267038
0.0260241
0.0251573
0.0240934
0.0228261
0.0213592
0.0197056
0.0179304
0.0161293
0.014546
0.0133885
0.0129746
0.0132425
0.0136038
0.0136984
0.0129725
0.0111574
0.00915484
0.00782731
0.00701636
0.008133
0.00981872
0.0119198
0.0142098
0.0167337
0.0195516
0.0228307
0.00195691
0.00195824
0.00196015
0.00196031
0.00196108
0.00196155
0.00196443
0.00196425
0.00196588
0.00196697
0.00196811
0.00197026
0.00197492
0.00197844
0.00197892
0.00197831
0.0019791
0.00197978
0.00197886
0.00197856
0.00197886
0.00198088
0.00198133
0.0019849
0.00198562
0.00198676
0.00198839
0.00198826
0.00198714
0.00198958
0.00199044
0.0019922
0.0019917
0.00198734
0.00198475
0.00198093
0.0019804
0.00197882
0.00197526
0.00197336
0.00197004
0.00196837
0.00196475
0.00195607
0.00195329
0.00194878
0.00194459
0.00193882
0.00193239
0.00193252
0.00193371
0.00193308
0.00193228
0.00193003
0.00192609
0.00192196
0.00191708
0.00191392
0.00191191
0.00197082
0.0019702
0.0019722
0.00197291
0.00197321
0.00197441
0.00197598
0.00197578
0.00197819
0.00197866
0.00197989
0.00198423
0.0019874
0.00198846
0.00198788
0.0019876
0.00198904
0.00198896
0.00198652
0.00198655
0.00198692
0.00198918
0.00199024
0.0019928
0.00199281
0.00199404
0.00199538
0.0019955
0.001994
0.00199551
0.00199642
0.00199821
0.00199747
0.00199337
0.00199093
0.00198711
0.00198582
0.00198444
0.00198185
0.00197916
0.00197602
0.00197455
0.00197193
0.00196541
0.00196068
0.00195693
0.00195332
0.0019496
0.00194236
0.00193758
0.0019377
0.00193862
0.00193979
0.00193784
0.00193713
0.00193557
0.0019333
0.00193152
0.00192925
0.00198665
0.00198671
0.00198684
0.00198711
0.00198939
0.00199186
0.00199303
0.00199224
0.00199392
0.00199416
0.00199646
0.00200125
0.0020029
0.00200259
0.00200148
0.00200171
0.0020021
0.00200036
0.00199879
0.00199861
0.0019996
0.00200067
0.00200169
0.00200355
0.00200341
0.0020047
0.00200573
0.00200541
0.00200394
0.00200459
0.00200557
0.00200712
0.00200617
0.00200232
0.00199985
0.00199611
0.00199419
0.00199275
0.00199073
0.00198845
0.00198497
0.00198335
0.00198135
0.00197749
0.00197165
0.00196738
0.00196402
0.00196133
0.0019575
0.00195054
0.00194595
0.0019459
0.00194781
0.00194942
0.00194825
0.00194711
0.00194618
0.00194616
0.00194605
0.00200571
0.00200856
0.0020101
0.00200991
0.00201271
0.00201412
0.00201317
0.00201456
0.00201498
0.00201686
0.00202161
0.00202269
0.00201997
0.00201929
0.00201941
0.00201971
0.00201981
0.00201587
0.00201476
0.00201547
0.00201632
0.00201627
0.00201747
0.00201853
0.00201834
0.00201936
0.00201966
0.00201955
0.00201754
0.0020175
0.0020185
0.00201969
0.00201864
0.00201509
0.00201259
0.00200905
0.00200656
0.00200491
0.00200317
0.0020012
0.00199801
0.00199585
0.00199416
0.00199154
0.00198715
0.00198252
0.00197878
0.00197582
0.0019731
0.00196949
0.00196328
0.00195949
0.00195764
0.001958
0.00196046
0.00196063
0.00196153
0.00196179
0.001962
0.00204174
0.00204285
0.00204276
0.002043
0.00204286
0.00204151
0.00204229
0.00204194
0.00204369
0.00204504
0.00204515
0.0020426
0.00204327
0.00204368
0.00204364
0.00204365
0.00203764
0.00203607
0.00203621
0.00203705
0.00203614
0.0020367
0.00203731
0.00203729
0.00203712
0.00203807
0.00203853
0.00203743
0.00203497
0.00203451
0.00203527
0.00203604
0.00203491
0.00203158
0.002029
0.00202573
0.00202272
0.00202068
0.002019
0.00201727
0.00201487
0.00201238
0.00201076
0.00200885
0.00200616
0.00200201
0.0019983
0.00199545
0.00199294
0.00199055
0.00198676
0.00198345
0.00197872
0.00197714
0.00197448
0.00197519
0.00197689
0.00197696
0.00197717
0.00207643
0.00207638
0.00207782
0.00207784
0.00207755
0.00207752
0.00207895
0.00207758
0.00207934
0.0020788
0.00207818
0.00207529
0.00207507
0.00207274
0.00207082
0.00206631
0.00206444
0.00206495
0.00206558
0.0020631
0.00206245
0.0020625
0.00206199
0.00206287
0.00206232
0.00206285
0.00206164
0.00206083
0.00205769
0.00205685
0.00205724
0.00205759
0.0020564
0.00205325
0.00205057
0.00204756
0.00204441
0.00204175
0.0020399
0.00203823
0.00203634
0.00203417
0.00203227
0.00203057
0.00202859
0.00202581
0.00202291
0.00202031
0.00201814
0.00201635
0.00201384
0.00201099
0.00200847
0.00200618
0.0020034
0.00200205
0.00200097
0.00199945
0.00199867
0.00212664
0.00212682
0.00212616
0.00212566
0.00212233
0.00212131
0.00211818
0.00211713
0.00211626
0.00211528
0.00211435
0.0021122
0.00210988
0.00210642
0.0021038
0.00210104
0.00210079
0.00210009
0.00209606
0.00209397
0.00209396
0.0020954
0.00209536
0.00209286
0.00209173
0.00209246
0.00209183
0.00208984
0.00208621
0.00208492
0.00208488
0.00208473
0.00208337
0.00208031
0.00207739
0.00207445
0.00207141
0.00206838
0.00206608
0.00206425
0.00206257
0.00206065
0.00205884
0.00205697
0.00205538
0.00205322
0.00205109
0.0020485
0.00204723
0.00204504
0.00204308
0.00204057
0.00203761
0.00203654
0.00203351
0.00203376
0.00203313
0.00203156
0.00202974
0.00217896
0.00217624
0.00217466
0.00217256
0.00216966
0.00216783
0.00216555
0.00216353
0.00216131
0.00215909
0.00215714
0.00215382
0.00215126
0.00214893
0.00214677
0.00214518
0.00214246
0.00213837
0.00213773
0.00213863
0.00213912
0.00213617
0.00213261
0.00213144
0.00213238
0.00213239
0.00212916
0.0021269
0.00212263
0.00212087
0.00212031
0.00211964
0.00211809
0.00211502
0.00211194
0.00210896
0.00210599
0.00210299
0.00210029
0.00209805
0.00209627
0.0020941
0.00209258
0.00209026
0.00208912
0.00208701
0.00208604
0.00208401
0.00208132
0.00208033
0.00207763
0.00207653
0.00207314
0.00207256
0.00207068
0.00206916
0.00206884
0.00206644
0.00206534
0.00224187
0.00223688
0.00223358
0.00223005
0.0022274
0.00222527
0.00222364
0.00222208
0.00222052
0.002218
0.0022151
0.00221102
0.00220716
0.00220217
0.00219748
0.00219406
0.00219336
0.00219426
0.00219472
0.0021913
0.00218646
0.00218298
0.00218339
0.00218247
0.00217998
0.00217821
0.00217594
0.00217258
0.0021677
0.00216538
0.00216416
0.00216287
0.00216098
0.00215771
0.00215439
0.0021512
0.00214813
0.0021451
0.00214223
0.00213963
0.00213775
0.00213549
0.00213419
0.00213193
0.00213082
0.0021284
0.0021274
0.00212717
0.00212475
0.0021241
0.00212122
0.00212019
0.0021198
0.00211699
0.00211805
0.00211599
0.00211644
0.00211383
0.00211327
0.0023102
0.00230656
0.00230485
0.00230222
0.00230003
0.00229736
0.00229391
0.00228934
0.00228487
0.00228048
0.00227662
0.00227236
0.00227028
0.00227178
0.00227122
0.00227074
0.00226745
0.00226556
0.00225853
0.00225406
0.00225012
0.00225029
0.00224647
0.00224226
0.00223998
0.00223909
0.00223464
0.00223044
0.00222487
0.00222192
0.00221996
0.00221797
0.0022157
0.00221219
0.00220865
0.00220527
0.00220204
0.00219886
0.00219575
0.00219283
0.00219046
0.0021879
0.0021864
0.00218388
0.00218257
0.00218081
0.00217977
0.00217807
0.0021773
0.00217647
0.00217567
0.00217543
0.00217399
0.00217339
0.00217347
0.00217205
0.0021713
0.00217054
0.00216993
0.00239889
0.00239489
0.00239172
0.00238802
0.00238436
0.00238172
0.00238126
0.0023845
0.00238266
0.0023746
0.0023692
0.00236695
0.00236598
0.00236308
0.00236067
0.00235293
0.00234902
0.00234049
0.00233592
0.00233405
0.00232959
0.00232609
0.00231869
0.00231887
0.00231564
0.00231228
0.00230684
0.00230181
0.00229541
0.00229167
0.00228878
0.00228592
0.00228303
0.00227906
0.00227513
0.00227139
0.00226786
0.00226444
0.00226107
0.0022579
0.00225518
0.00225274
0.00225078
0.00224859
0.00224693
0.00224549
0.00224382
0.00224274
0.00223974
0.00223945
0.00223666
0.00223568
0.00223464
0.00223393
0.00223195
0.00223132
0.00223167
0.00223152
0.00223024
0.00251267
0.00250853
0.00250668
0.00250741
0.002512
0.00251151
0.00250904
0.00250052
0.00249676
0.00248804
0.00248436
0.00248157
0.00247773
0.00246871
0.00246067
0.00245417
0.00244959
0.0024463
0.0024416
0.00243583
0.00242788
0.00242081
0.00242149
0.00241775
0.00240995
0.00240556
0.00239921
0.00239267
0.00238531
0.0023806
0.00237668
0.00237285
0.00236927
0.00236486
0.00236055
0.00235647
0.00235257
0.00234874
0.002345
0.00234137
0.00233816
0.0023359
0.00233399
0.00233245
0.00233037
0.00232956
0.00233002
0.00233041
0.00233023
0.00233028
0.00233022
0.00233059
0.002331
0.00233212
0.00232839
0.0023296
0.00232462
0.00232356
0.00232225
0.00268426
0.00268307
0.00268003
0.00267778
0.002671
0.00266199
0.00265707
0.00264754
0.00264212
0.00263204
0.00262475
0.00261737
0.00260675
0.00259864
0.00259305
0.00258925
0.00258505
0.00257619
0.00256689
0.00255327
0.00254871
0.00255075
0.00254145
0.00253107
0.00252769
0.00252085
0.00251317
0.00250528
0.00249688
0.00249095
0.00248568
0.00248057
0.00247596
0.00247084
0.00246587
0.00246118