/*--------------------------------*- C++ -*----------------------------------*\
| =========                 |                                                 |
| \\      /  F ield         | OpenFOAM: The Open Source CFD Toolbox           |
|  \\    /   O peration     | Version:  2312                                  |
|   \\  /    A nd           | Website:  www.openfoam.com                      |
|    \\/     M anipulation  |                                                 |
\*---------------------------------------------------------------------------*/
FoamFile
{
    version     2.0;
    format      ascii;
    arch        "LSB;label=32;scalar=64";
    class       volScalarField;
    location    "500";
    object      nut;
}
// * * * * * * * * * * * * * * * * * * * * * * * * * * * * * * * * * * * * * //

dimensions      [0 2 -1 0 0 0 0];

internalField   nonuniform List<scalar> 
76025
(
0.00131275
0.00131478
0.00131552
0.00131706
0.00131756
0.00131787
0.00131385
0.00131443
0.00132042
0.0013229
0.00132366
0.00132639
0.00132691
0.00132147
0.00132336
0.00131744
0.00131813
0.00130984
0.00130909
0.0013122
0.00131302
0.00131216
0.00131099
0.00131609
0.0013139
0.00131579
0.00132127
0.00131977
0.00132186
0.00132568
0.00131511
0.00131723
0.00131239
0.00131206
0.00131267
0.00131324
0.00131433
0.00131591
0.00132565
0.00132403
0.00132617
0.00133431
0.00134488
0.00135691
0.0013729
0.00138707
0.00139631
0.00140733
0.00141237
0.0014267
0.00143133
0.00145209
0.00145626
0.00148541
0.0014876
0.00152118
0.00152298
0.00156137
0.00156937
0.00163682
0.00165867
0.00175631
0.00180331
0.00196603
0.00204011
0.00232204
0.00254669
0.00309823
0.00372698
0.00132371
0.00132249
0.00132107
0.00132096
0.00131996
0.00131905
0.00132029
0.00132068
0.00132356
0.0013236
0.00132969
0.00133646
0.00133768
0.00133309
0.00133168
0.00132662
0.00132522
0.00131586
0.00131827
0.00131466
0.00131864
0.00131084
0.00130863
0.00131193
0.00131347
0.00131246
0.00131351
0.00130808
0.00131019
0.00130627
0.00130492
0.00130511
0.00130601
0.00131004
0.00131453
0.001312
0.00131716
0.00132612
0.00133537
0.00134674
0.0013586
0.00137328
0.00138329
0.00139551
0.00140263
0.00141064
0.00141537
0.00142539
0.00143238
0.00144571
0.00145548
0.00147206
0.00148466
0.00150457
0.00152083
0.00154616
0.00156854
0.00160197
0.00163925
0.001682
0.0017454
0.00181243
0.00191859
0.00204022
0.00217612
0.00250929
0.00281465
0.00341925
0.00404701
0.00133925
0.00133715
0.00133463
0.00133408
0.00133731
0.00133581
0.00133166
0.00133099
0.00133223
0.0013323
0.0013338
0.00133546
0.00133285
0.00133292
0.00133523
0.00133434
0.00133914
0.00133665
0.00133363
0.00133423
0.00133272
0.00133108
0.00132308
0.001325
0.00132019
0.00131755
0.00131447
0.00131135
0.00131125
0.00131465
0.00131884
0.00132365
0.00132923
0.00133563
0.00134255
0.00135102
0.00135939
0.00136911
0.00137976
0.00139045
0.00139694
0.00140337
0.00140784
0.00141433
0.00141931
0.00142783
0.00143461
0.00144617
0.0014548
0.0014697
0.00147991
0.00149874
0.00151089
0.00153516
0.00155071
0.00158176
0.00160313
0.00164465
0.00167793
0.00173958
0.00180512
0.00189556
0.00201661
0.00215354
0.00236773
0.00275993
0.00309793
0.00374239
0.00422162
0.00134737
0.00134787
0.00134691
0.00134512
0.00134231
0.00134463
0.0013497
0.00134977
0.00134635
0.00134472
0.00134428
0.00134427
0.00134163
0.00134079
0.00134092
0.00134192
0.00134108
0.0013441
0.00134926
0.00134976
0.00134801
0.00134738
0.00134708
0.00134762
0.00134245
0.00133845
0.00133179
0.00133606
0.00133569
0.00133731
0.00134143
0.00134725
0.00135387
0.0013626
0.00136992
0.001383
0.00138977
0.00139666
0.00140222
0.00140832
0.00141325
0.00141965
0.00142523
0.001433
0.00143993
0.00144966
0.00145826
0.00147025
0.00148079
0.00149535
0.00150857
0.00152662
0.00154421
0.0015673
0.00159105
0.00162069
0.00165362
0.00169514
0.00174604
0.00181454
0.00189816
0.00200377
0.00215082
0.00231926
0.00262224
0.00303992
0.00340132
0.00404475
0.00436742
0.00136038
0.00136228
0.00136411
0.0013626
0.00136124
0.00135552
0.00135754
0.00136411
0.00136419
0.00136135
0.00135842
0.00135641
0.00135626
0.00135343
0.00135453
0.0013519
0.0013543
0.00135123
0.00135053
0.00136013
0.00135442
0.00135936
0.00135443
0.00136312
0.00136534
0.00136539
0.00137145
0.00137467
0.00137852
0.00137583
0.00138358
0.00138303
0.00139298
0.00140015
0.00140241
0.00140633
0.00141096
0.00141661
0.00142206
0.00142835
0.00143411
0.00144116
0.00144797
0.00145636
0.00146456
0.00147465
0.00148464
0.00149694
0.00150933
0.00152474
0.0015408
0.00156084
0.00158225
0.00160835
0.00163641
0.00167055
0.00171015
0.00176045
0.0018238
0.00190644
0.00200751
0.00214095
0.00231979
0.00254797
0.00292532
0.00333904
0.00370139
0.00429022
0.00441724
0.0013659
0.00136645
0.00136897
0.00137268
0.0013729
0.00137566
0.00137787
0.00137619
0.00137905
0.00137651
0.00137469
0.00137474
0.00137542
0.00137745
0.00137817
0.00137624
0.00137447
0.00137434
0.00137316
0.00136789
0.00136695
0.00137271
0.00137546
0.00137957
0.00138618
0.00139468
0.00140118
0.00140731
0.00141316
0.0014187
0.00141879
0.00141837
0.00141989
0.00142314
0.00142681
0.00143136
0.00143608
0.00144143
0.00144698
0.00145324
0.00145938
0.00146657
0.00147402
0.00148278
0.00149194
0.00150277
0.00151422
0.00152782
0.00154251
0.00156002
0.00157947
0.00160221
0.00162794
0.00165702
0.00169117
0.00173088
0.00178125
0.00184287
0.00192351
0.00202555
0.00215253
0.00232488
0.00254885
0.00284168
0.00326058
0.00362603
0.0039807
0.00446295
0.00442553
0.00137193
0.00137422
0.00137745
0.00137786
0.00137873
0.00138249
0.00138451
0.00138657
0.00138674
0.00138763
0.00138308
0.00138324
0.00138305
0.0013862
0.00138998
0.00139384
0.00138981
0.00139531
0.0013956
0.00140112
0.00140116
0.00140908
0.00141057
0.0014129
0.0014153
0.00141918
0.00142205
0.00142572
0.00142849
0.00143289
0.00143626
0.00143975
0.00144334
0.00144748
0.00145176
0.00145658
0.00146163
0.0014672
0.00147319
0.00147993
0.00148676
0.00149463
0.00150313
0.00151293
0.00152358
0.00153589
0.00154939
0.00156507
0.00158255
0.00160288
0.00162574
0.00165211
0.00168192
0.00171653
0.00175756
0.00180765
0.00187068
0.00194973
0.00205262
0.00218179
0.00234595
0.00256712
0.00283644
0.00318049
0.00358305
0.0038906
0.00421628
0.00456194
0.00440622
0.00138887
0.0013865
0.00138901
0.00138726
0.00138963
0.00139517
0.0013934
0.00139352
0.00139967
0.00139554
0.00139447
0.00139639
0.00139886
0.00140356
0.00140992
0.00141841
0.00142299
0.00142872
0.00143091
0.00143299
0.00143409
0.00143644
0.00143913
0.00144206
0.00144494
0.00144796
0.00145082
0.00145372
0.00145658
0.00145972
0.00146284
0.00146653
0.00147038
0.00147473
0.00147936
0.00148453
0.00149016
0.00149635
0.00150316
0.00151086
0.00151882
0.00152786
0.00153779
0.00154912
0.0015616
0.00157591
0.00159181
0.00161014
0.00163074
0.00165445
0.00168132
0.00171224
0.00174804
0.00179054
0.00184226
0.00190676
0.00198791
0.00209171
0.0022245
0.00239032
0.00260111
0.00286648
0.00316913
0.00352399
0.00387219
0.00412111
0.00438892
0.00461139
0.00432848
0.00141622
0.00141599
0.00141822
0.00141935
0.00142281
0.00142651
0.00143211
0.00143123
0.00143024
0.00143539
0.00143919
0.0014405
0.00144617
0.00144975
0.00145525
0.00145777
0.0014584
0.00146023
0.00146175
0.00146351
0.00146511
0.0014668
0.00146867
0.00147086
0.00147326
0.00147594
0.00147879
0.00148182
0.00148508
0.0014885
0.00149219
0.00149649
0.00150107
0.00150619
0.00151172
0.0015178
0.00152446
0.00153174
0.00153971
0.0015487
0.00155804
0.00156849
0.00158005
0.00159317
0.00160779
0.0016245
0.00164324
0.00166476
0.0016891
0.00171714
0.00174935
0.00178702
0.00183184
0.0018863
0.00195377
0.00203885
0.00214594
0.00228273
0.00245254
0.00266052
0.00291349
0.00320373
0.00351184
0.00383778
0.00411453
0.00430146
0.00449796
0.00460163
0.00423196
0.0014424
0.00144379
0.0014468
0.00144894
0.00145374
0.00145923
0.00146359
0.00146675
0.0014721
0.00147462
0.00147621
0.00147674
0.00147786
0.00147863
0.0014808
0.00148326
0.00148524
0.00148734
0.00148949
0.00149179
0.00149414
0.00149653
0.00149898
0.00150159
0.00150436
0.00150742
0.00151066
0.00151423
0.00151806
0.00152211
0.00152668
0.00153181
0.00153732
0.00154336
0.00154991
0.00155699
0.00156475
0.00157318
0.00158237
0.00159276
0.00160373
0.00161586
0.00162947
0.00164491
0.00166232
0.00168218
0.00170469
0.00173055
0.00176017
0.00179467
0.00183517
0.00188348
0.00194236
0.00201466
0.00210521
0.0022185
0.00235952
0.00253427
0.00274178
0.00298523
0.00325926
0.00354577
0.00382988
0.00409955
0.00430123
0.0044213
0.0045446
0.0045104
0.00410733
0.00145751
0.00145734
0.00145834
0.001459
0.00146607
0.0014688
0.00147624
0.0014836
0.00148585
0.00148878
0.00149252
0.00149619
0.00149982
0.00150318
0.00150663
0.00151018
0.00151364
0.00151704
0.00152042
0.00152377
0.00152714
0.00153051
0.00153393
0.00153743
0.00154106
0.00154491
0.0015489
0.00155326
0.00155775
0.00156263
0.00156811
0.00157409
0.00158053
0.00158752
0.00159514
0.00160337
0.00161242
0.00162234
0.0016332
0.00164553
0.00165884
0.00167341
0.00168989
0.0017086
0.00172986
0.00175416
0.00178202
0.00181435
0.00185206
0.00189674
0.0019502
0.0020149
0.00209442
0.00219184
0.0023128
0.00245994
0.00263738
0.00284576
0.00307982
0.00333731
0.00360291
0.00385973
0.00409685
0.00429724
0.00442418
0.00447398
0.00452008
0.00434855
0.00389662
0.00150808
0.00151033
0.00151222
0.0015137
0.00151584
0.00151791
0.00152025
0.00152352
0.0015264
0.00152934
0.00153249
0.00153576
0.00153911
0.0015425
0.00154597
0.00154953
0.00155317
0.00155687
0.00156063
0.00156445
0.00156834
0.00157231
0.00157639
0.0015806
0.001585
0.00158959
0.00159443
0.00159959
0.00160489
0.00161088
0.00161744
0.00162454
0.0016322
0.00164051
0.00164961
0.00165949
0.00167039
0.00168245
0.0016957
0.00171072
0.00172729
0.0017453
0.00176574
0.00178909
0.00181588
0.00184689
0.001883
0.00192555
0.00197597
0.00203636
0.00210907
0.002197
0.00230391
0.00243224
0.00258654
0.00276579
0.00297131
0.00319726
0.00343558
0.00367949
0.00391128
0.00412047
0.00429654
0.00442366
0.00447555
0.00445324
0.00441352
0.00412002
0.00378989
0.00159286
0.00159258
0.00159176
0.00159058
0.0015895
0.00158874
0.0015884
0.00158861
0.00158919
0.00159013
0.0015914
0.00159299
0.00159486
0.00159702
0.00159945
0.00160216
0.00160515
0.0016084
0.00161191
0.00161567
0.00161966
0.0016239
0.00162837
0.00163312
0.00163814
0.00164344
0.00164913
0.00165506
0.00166153
0.0016688
0.00167666
0.00168519
0.00169446
0.00170457
0.00171569
0.00172785
0.0017413
0.00175629
0.00177286
0.00179159
0.00181272
0.00183588
0.0018622
0.00189268
0.00192818
0.00196987
0.002019
0.00207732
0.00214665
0.00222929
0.00232774
0.00244426
0.00258176
0.00274011
0.00292135
0.00311971
0.00333403
0.00355375
0.00377145
0.00397884
0.0041605
0.00431161
0.00441899
0.00447232
0.00444677
0.00435124
0.00420532
0.00387141
0.00356361
0.00163629
0.00164016
0.00164322
0.00164541
0.00164697
0.00164819
0.00164929
0.00165044
0.00165168
0.00165306
0.0016546
0.00165632
0.00165824
0.00166037
0.00166276
0.00166543
0.00166839
0.00167167
0.00167527
0.00167922
0.00168351
0.00168815
0.00169314
0.00169851
0.00170423
0.00171042
0.00171693
0.00172397
0.0017319
0.0017406
0.00175005
0.00176036
0.00177166
0.00178409
0.00179786
0.00181312
0.00183014
0.00184935
0.00187094
0.00189548
0.00192373
0.00195555
0.00199164
0.00203385
0.00208334
0.00214158
0.00221
0.00229044
0.00238448
0.00249395
0.00262029
0.00276384
0.00292552
0.00310154
0.00329207
0.00348739
0.00368696
0.00387767
0.00405581
0.00421224
0.00433489
0.00442195
0.00445583
0.00443513
0.0043272
0.00415292
0.00390333
0.00353461
0.00311487
0.00169322
0.00169648
0.00169983
0.00170304
0.00170606
0.00170892
0.0017117
0.00171445
0.00171722
0.00172004
0.00172294
0.00172594
0.00172906
0.00173234
0.00173581
0.00173949
0.00174343
0.00174767
0.00175223
0.00175714
0.00176242
0.0017681
0.00177421
0.00178074
0.00178779
0.00179527
0.00180334
0.00181243
0.00182245
0.00183339
0.00184536
0.00185851
0.00187307
0.00188928
0.0019074
0.00192777
0.00195079
0.00197702
0.00200699
0.00204128
0.00208097
0.00212666
0.00217856
0.00223821
0.0023074
0.00238754
0.0024795
0.00258455
0.00270302
0.00283539
0.00298118
0.00313855
0.0033067
0.00347927
0.0036569
0.00382712
0.00399349
0.00413931
0.00426721
0.0043643
0.00442302
0.00444124
0.00439733
0.00430063
0.0041026
0.00384403
0.00351
0.00312245
0.0028364
0.00177508
0.00177798
0.00178116
0.00178451
0.00178799
0.00179158
0.00179527
0.00179905
0.00180294
0.00180695
0.00181109
0.00181537
0.00181981
0.00182442
0.00182924
0.00183431
0.00183964
0.00184529
0.0018513
0.0018577
0.00186454
0.00187185
0.00187968
0.0018881
0.00189705
0.00190689
0.00191792
0.00193014
0.0019435
0.0019582
0.00197445
0.00199251
0.00201272
0.00203546
0.00206113
0.00209026
0.00212345
0.00216138
0.00220481
0.0022545
0.00231124
0.00237619
0.00244941
0.00253113
0.00262171
0.00272298
0.00283453
0.00295661
0.0030881
0.00322837
0.00337534
0.0035264
0.00368006
0.00382921
0.00397628
0.00410611
0.00422848
0.00431918
0.00439169
0.0044224
0.00441377
0.00435669
0.00423068
0.00405341
0.00375506
0.0034239
0.00302992
0.00273116
0.00246258
0.00187956
0.00188251
0.00188581
0.00188941
0.0018933
0.00189748
0.00190194
0.00190666
0.00191164
0.0019169
0.00192243
0.00192824
0.00193435
0.00194077
0.00194752
0.00195463
0.00196213
0.00197006
0.00197846
0.00198737
0.00199685
0.00200699
0.00201774
0.00202943
0.00204239
0.00205689
0.00207282
0.00209033
0.00210967
0.00213115
0.0021551
0.00218194
0.00221212
0.00224616
0.00228455
0.00232788
0.00237678
0.0024318
0.00249349
0.00256236
0.00263867
0.00272272
0.00281476
0.00291427
0.00302005
0.00313193
0.00324854
0.00337058
0.00349678
0.00362592
0.00375503
0.00388211
0.0040051
0.00411738
0.00422255
0.00430271
0.00437456
0.00440203
0.00441633
0.0043714
0.00429318
0.00415067
0.00394104
0.00367226
0.00327983
0.00290842
0.00255299
0.00235992
0.00224901
0.00202122
0.00202505
0.00202928
0.00203385
0.00203879
0.00204409
0.00204976
0.00205579
0.00206218
0.00206895
0.0020761
0.00208366
0.00209164
0.00210008
0.00210901
0.0021185
0.00212859
0.00213935
0.0021509
0.00216327
0.00217652
0.00219119
0.00220749
0.00222578
0.00224596
0.00226817
0.00229268
0.00231979
0.0023498
0.00238307
0.00241995
0.00246082
0.00250605
0.00255596
0.00261082
0.00267091
0.00273642
0.00280746
0.00288406
0.00296613
0.0030535
0.00314599
0.00324313
0.00334462
0.00344991
0.00355767
0.00366581
0.00377408
0.00387978
0.00398253
0.00407971
0.00417096
0.00425254
0.00431973
0.00437498
0.00439943
0.00441448
0.00437136
0.00432399
0.00419158
0.00404316
0.0038027
0.00351297
0.00314404
0.00271136
0.00239103
0.0021634
0.00214678
0.0022617
0.00220042
0.00220471
0.00220961
0.00221507
0.00222115
0.00222786
0.00223522
0.00224324
0.00225195
0.00226139
0.00227158
0.00228257
0.00229441
0.00230715
0.00232082
0.00233556
0.00235135
0.00236836
0.00238718
0.00240789
0.00243079
0.00245595
0.00248321
0.0025128
0.00254493
0.00257977
0.00261751
0.0026583
0.00270231
0.00274964
0.00280041
0.00285469
0.00291255
0.00297393
0.00303881
0.00310713
0.00317882
0.00325374
0.00333175
0.00341265
0.00349618
0.00358203
0.00366974
0.00375883
0.00384838
0.00393781
0.00402565
0.00411018
0.00418786
0.00425885
0.00431778
0.00436562
0.00439786
0.00441463
0.00441232
0.00437673
0.00432527
0.00420686
0.00408919
0.00386165
0.00364175
0.00329943
0.00294072
0.00251403
0.00217945
0.00199523
0.00200767
0.00214683
0.00237963
0.00246556
0.00247212
0.00247947
0.00248759
0.00249657
0.00250645
0.00251726
0.00252906
0.00254189
0.00255579
0.00257085
0.00258707
0.0026045
0.00262369
0.00264474
0.00266772
0.00269274
0.00271997
0.00274907
0.00278007
0.0028131
0.00284829
0.00288569
0.00292533
0.0029672
0.00301128
0.00305752
0.00310587
0.00315627
0.00320865
0.00326296
0.00331915
0.00337718
0.00343697
0.00349845
0.0035616
0.00362632
0.00369249
0.00375993
0.00382841
0.00389757
0.00396697
0.00403602
0.004104
0.00416995
0.00423292
0.00429104
0.00434378
0.00438699
0.00441968
0.0044354
0.00443711
0.00441374
0.00437676
0.00430737
0.00420804
0.00407479
0.0038846
0.00367862
0.00337019
0.00307148
0.00266293
0.00228226
0.00196854
0.00183859
0.00188662
0.00208026
0.00223361
0.00231849
0.0028323
0.00284136
0.00285166
0.00286316
0.00287593
0.0028903
0.00290636
0.00292415
0.00294375
0.00296517
0.00298836
0.00301334
0.0030399
0.00306786
0.00309721
0.00312815
0.00316034
0.00319359
0.00322787
0.00326316
0.00329943
0.00333665
0.00337482
0.00341394
0.00345399
0.00349501
0.00353699
0.00357996
0.00362393
0.00366891
0.00371491
0.00376192
0.00380991
0.00385877
0.00390841
0.00395869
0.00400941
0.00406029
0.004111
0.00416112
0.00421013
0.00425738
0.00430216
0.00434341
0.00438034
0.00441141
0.00443478
0.00444889
0.00445122
0.00443921
0.00440509
0.00435378
0.00426754
0.00417349
0.00402229
0.00385468
0.0036261
0.00338145
0.00307238
0.00273514
0.00236614
0.00201232
0.00175989
0.00170971
0.0018097
0.00199095
0.00212706
0.00218165
0.0022463
0.00342585
0.00343813
0.00345109
0.00346465
0.00347885
0.00349374
0.00350935
0.00352575
0.00354298
0.0035612
0.00357986
0.00359853
0.00361736
0.00363645
0.00365589
0.00367569
0.00369616
0.0037175
0.00373974
0.0037629
0.00378699
0.00381204
0.00383806
0.00386505
0.00389302
0.00392197
0.00395187
0.00398272
0.00401445
0.00404702
0.00408033
0.00411424
0.00414855
0.004183
0.0042173
0.00425111
0.00428404
0.00431563
0.0043454
0.00437277
0.0043971
0.00441757
0.00443337
0.00444307
0.0044468
0.00444086
0.00442424
0.00439364
0.00434848
0.00428382
0.00418979
0.00407494
0.00390956
0.00371831
0.00347529
0.00325883
0.0029659
0.00269658
0.00233159
0.00203812
0.0017188
0.00158644
0.00161858
0.00178681
0.00198623
0.00202972
0.00216284
0.00216305
0.00227488
0.00419646
0.00419552
0.00419336
0.00419003
0.00418576
0.00418077
0.00417527
0.00416946
0.00416357
0.00415777
0.0041526
0.00414849
0.00414546
0.00414357
0.00414287
0.00414342
0.00414527
0.00414853
0.00415324
0.00415948
0.00416726
0.00417657
0.00418738
0.00419964
0.00421326
0.00422814
0.00424414
0.00426111
0.00427888
0.00429727
0.00431595
0.00433457
0.0043527
0.00436983
0.00438527
0.0043986
0.00440939
0.00441715
0.00442127
0.00442103
0.00441589
0.00440479
0.00438694
0.00436051
0.0043285
0.004279
0.00421582
0.00413239
0.00403226
0.00390504
0.00373176
0.00353828
0.00326703
0.00301243
0.00274714
0.00251332
0.00221282
0.00193991
0.00167143
0.00149098
0.0014434
0.0016009
0.00176464
0.00189757
0.00196455
0.00201989
0.0021376
0.00224143
0.00231368
0.00473547
0.00471528
0.00469496
0.00467442
0.00465359
0.00463244
0.004611
0.00458934
0.00456761
0.00454596
0.00452462
0.00450386
0.00448396
0.00446514
0.00444759
0.00443141
0.00441687
0.00440409
0.00439316
0.00438414
0.00437702
0.0043716
0.00436777
0.00436544
0.00436435
0.00436434
0.00436514
0.00436647
0.00436839
0.00437032
0.00437166
0.00437149
0.00437018
0.00436387
0.00435255
0.00433858
0.00432172
0.00430154
0.00427442
0.00424066
0.0042013
0.00415396
0.00409895
0.00403447
0.00396843
0.00386535
0.00374677
0.00360904
0.00343167
0.00322689
0.00304874
0.00277318
0.0025097
0.00225483
0.00200096
0.00176125
0.00155679
0.00138693
0.00132371
0.0013876
0.0015842
0.00171704
0.00185243
0.00189744
0.00198368
0.00210465
0.00218043
0.00223355
0.00231106
0.00488725
0.00486392
0.004839
0.00481326
0.00478597
0.00475753
0.00472847
0.00469816
0.00466772
0.00463626
0.00460444
0.00457276
0.00454229
0.0045119
0.00448284
0.00445368
0.00442712
0.00440154
0.00437758
0.00435558
0.00433579
0.00431564
0.00429636
0.00427826
0.00426049
0.00424334
0.00422601
0.00420897
0.0041937
0.00417721
0.00415856
0.00413525
0.00411773
0.00404326
0.003982
0.00394861
0.00391771
0.00388268
0.00379778
0.00371954
0.00363978
0.00355649
0.00347131
0.00338154
0.00327536
0.00315957
0.00302349
0.00287922
0.00268693
0.00246244
0.00225168
0.00201527
0.00176334
0.00155304
0.00138579
0.00124522
0.00120347
0.00122823
0.00137961
0.00153632
0.00168798
0.00178257
0.00183782
0.00193624
0.00199841
0.00204772
0.00211477
0.0022014
0.00237967
0.00462613
0.00460129
0.00456606
0.00454181
0.00450338
0.00446775
0.00443865
0.00439504
0.00436637
0.0043183
0.00427325
0.00423196
0.0042033
0.00415366
0.00412416
0.00407181
0.00404854
0.00399549
0.00395559
0.00392007
0.00390197
0.0038464
0.00380501
0.00376605
0.00372707
0.00368924
0.00365005
0.00361619
0.00360014
0.00357202
0.0035364
0.00349269
0.00345543
0.00338127
0.00336333
0.00329171
0.00325994
0.00317279
0.00310322
0.003055
0.00294803
0.0028584
0.00278867
0.00269142
0.00255936
0.00243151
0.00226165
0.00206775
0.00183988
0.00162383
0.00142091
0.00124508
0.00114875
0.00107226
0.00105849
0.00110147
0.00120166
0.00134781
0.00145769
0.00161881
0.00169359
0.00175119
0.00179414
0.00180148
0.00182608
0.00190599
0.00206778
0.00228087
0.00260441
0.00374416
0.00371763
0.0036899
0.00366152
0.00363154
0.00360062
0.00356937
0.00353766
0.0035035
0.00346809
0.00343354
0.00339702
0.00336286
0.00331393
0.00328343
0.00323753
0.0032149
0.00316003
0.00314103
0.00308616
0.00306835
0.00304284
0.00301391
0.0029773
0.00293726
0.00289463
0.00284923
0.00280753
0.00275309
0.00270659
0.00266418
0.00258666
0.00253895
0.00249139
0.00247773
0.00239992
0.00235842
0.00230831
0.00219982
0.00212145
0.00207713
0.00199715
0.00189916
0.00178129
0.00163962
0.00152616
0.00136332
0.00114771
0.00100159
0.000916332
0.000866683
0.000863775
0.000896119
0.000958913
0.00104462
0.00111513
0.00124935
0.00140322
0.00148098
0.00152282
0.00154265
0.00150835
0.00146479
0.00149991
0.00157309
0.00168122
0.00186096
0.00219969
0.00264217
0.0020843
0.00206624
0.00204988
0.00203337
0.0020157
0.00199851
0.0019818
0.0019663
0.00195025
0.00193009
0.00192669
0.00190907
0.00189016
0.00186997
0.00185076
0.0018304
0.00181046
0.00178494
0.00177978
0.00176813
0.00174539
0.00171659
0.00169232
0.00166409
0.00163336
0.00160453
0.00156766
0.00153933
0.00149464
0.00146509
0.00139839
0.00135854
0.00131629
0.0013242
0.00124702
0.00124137
0.00121035
0.00116385
0.00110612
0.00104399
0.000980766
0.000921305
0.000858669
0.00081192
0.000742879
0.000687148
0.000670279
0.000685815
0.000708877
0.000742836
0.000784081
0.000836947
0.000898923
0.000965902
0.00104831
0.00111958
0.00113465
0.0011511
0.00111809
0.00105851
0.000933363
0.000789657
0.000721158
0.000727978
0.000851201
0.00104344
0.00128715
0.00159167
0.00197301
0.000372149
0.000374253
0.000375124
0.000375947
0.000376215
0.000376226
0.000378699
0.000379425
0.000380381
0.000381199
0.000381922
0.000382719
0.000383826
0.000386732
0.000387545
0.000388701
0.000389049
0.0003901
0.000390555
0.000391218
0.00039034
0.000394325
0.000394373
0.000395335
0.000391855
0.000394131
0.000393015
0.000399483
0.000397959
0.000396862
0.000396836
0.000395744
0.000398748
0.000394243
0.000397194
0.000393573
0.000397409
0.000404294
0.000406775
0.000406615
0.000397548
0.000400147
0.000399026
0.000396781
0.000392945
0.000387595
0.000380593
0.000372034
0.000361602
0.0003494
0.000334941
0.000318261
0.000302424
0.000286372
0.000284769
0.000290373
0.000301481
0.000314469
0.00030676
0.000285899
0.000242843
0.000185903
0.000192965
0.000213309
0.000242868
0.000271758
0.00029969
0.00032559
0.000348914
0.00134875
0.00134812
0.00134683
0.0013458
0.00134348
0.0013398
0.00133705
0.00133122
0.00132864
0.00132639
0.00132459
0.00132519
0.00132286
0.00132277
0.00132087
0.0013199
0.00131652
0.00131578
0.00131537
0.00131765
0.00131904
0.00131797
0.00131797
0.00132031
0.00132053
0.00132271
0.00132448
0.00132625
0.00132604
0.00132584
0.00132375
0.00132404
0.00132446
0.00132546
0.00132561
0.00132511
0.00132564
0.00132566
0.00132495
0.00132481
0.00132225
0.00132241
0.00132169
0.00131842
0.00132019
0.00131879
0.00131873
0.00131889
0.00131464
0.00131699
0.00132024
0.00132077
0.00132288
0.00132313
0.00132201
0.00132034
0.00131683
0.00131604
0.00131379
0.00135873
0.00135455
0.00135389
0.0013513
0.00134624
0.00134386
0.00134233
0.00133901
0.00133876
0.00133539
0.00133295
0.00133178
0.00133052
0.00132975
0.00132815
0.00132522
0.00132333
0.00132289
0.00132343
0.00132495
0.00132437
0.00132452
0.00132547
0.00132705
0.00132704
0.00132885
0.00133009
0.00133254
0.00133267
0.00133161
0.00132968
0.00133022
0.00133045
0.00133147
0.00133147
0.00133115
0.00133122
0.00133148
0.00133145
0.0013309
0.00132871
0.00132836
0.00132772
0.00132526
0.00132527
0.00132531
0.00132419
0.00132579
0.00132311
0.00132011
0.00132272
0.00132487
0.0013279
0.00132687
0.00132761
0.00132764
0.00132673
0.00132631
0.00132559
0.00136226
0.00135957
0.00135695
0.00135451
0.00135469
0.00135588
0.00135427
0.00134989
0.00134751
0.00134255
0.00133903
0.00134085
0.00134109
0.00134039
0.00133666
0.00133314
0.00133247
0.00133247
0.0013328
0.00133272
0.00133266
0.00133204
0.00133339
0.00133446
0.00133453
0.00133629
0.0013384
0.00134048
0.00134003
0.00133843
0.00133652
0.0013367
0.00133686
0.00133824
0.00133859
0.00133827
0.00133842
0.00133809
0.00133837
0.00133902
0.00133672
0.00133567
0.00133485
0.00133344
0.00133141
0.00133147
0.00133106
0.00133174
0.00133311
0.00132943
0.00132725
0.00132907
0.00133263
0.00133563
0.00133511
0.0013347
0.00133515
0.00133669
0.00133871
0.00136937
0.00137126
0.00137077
0.00136801
0.00136946
0.00136777
0.00136238
0.0013594
0.00135448
0.00135095
0.00135341
0.00135302
0.00134899
0.00134819
0.00134416
0.00134317
0.0013437
0.00134287
0.00134219
0.0013435
0.00134319
0.00134225
0.00134328
0.00134345
0.00134426
0.00134586
0.00134706
0.00134961
0.00134853
0.00134675
0.00134512
0.00134555
0.00134557
0.00134648
0.00134672
0.00134658
0.00134684
0.00134655
0.00134651
0.00134748
0.00134618
0.00134475
0.0013439
0.00134257
0.00134059
0.00133967
0.00133946
0.00133915
0.00134016
0.00134094
0.00133714
0.00133594
0.00133605
0.0013382
0.00134286
0.00134376
0.00134574
0.00134699
0.0013485
0.00139153
0.00139208
0.00138955
0.00138986
0.00138426
0.00137918
0.00137515
0.00136966
0.00136603
0.0013645
0.00136319
0.00136008
0.00136154
0.00136022
0.00135742
0.00135686
0.0013546
0.00135464
0.00135554
0.00135573
0.0013538
0.00135428
0.0013541
0.00135405
0.00135466
0.00135619
0.00135855
0.00136005
0.00135832
0.00135667
0.00135509
0.00135514
0.0013552
0.00135598
0.00135611
0.00135613
0.00135619
0.0013558
0.00135568
0.00135644
0.0013566
0.00135535
0.00135459
0.00135361
0.00135242
0.00135053
0.00134984
0.00134998
0.00134993
0.0013513
0.00135002
0.00134967
0.00134711
0.00134757
0.001347
0.00135072
0.00135462
0.00135698
0.00135786
0.00140457
0.00140365
0.00140405
0.00140126
0.00139574
0.00139156
0.00138809
0.00138205
0.00138297
0.00138351
0.00138315
0.00137913
0.00137839
0.00137137
0.00136766
0.00136877
0.00136976
0.00137076
0.00137066
0.00136716
0.00136611
0.00136772
0.00136669
0.00136697
0.00136826
0.00136986
0.00137055
0.00137255
0.00137013
0.00136854
0.001367
0.00136676
0.00136689
0.00136754
0.00136764
0.00136781
0.00136802
0.00136738
0.00136708
0.00136746
0.00136825
0.00136802
0.00136722
0.00136634
0.00136538
0.00136404
0.00136306
0.00136276
0.0013625
0.00136337
0.00136283
0.00136216
0.00136171
0.00136104
0.00135946
0.00136132
0.00136327
0.0013633
0.00136413
0.00142492
0.00142469
0.00142372
0.00142234
0.00141755
0.00140867
0.00140153
0.00139821
0.00139772
0.00139653
0.00139652
0.00139144
0.00138771
0.00138608
0.00138803
0.00138732
0.00138635
0.00138527
0.00138305
0.00138043
0.00138178
0.00138434
0.00138345
0.00138227
0.00138197
0.00138419
0.00138614
0.00138701
0.00138429
0.00138254
0.00138099
0.00138048
0.00138055
0.00138096
0.00138086
0.00138089
0.00138138
0.00138075
0.00138011
0.00138002
0.00138062
0.00138098
0.00138073
0.00137981
0.00137923
0.00137802
0.00137734
0.00137648
0.00137712
0.00137715
0.00137819
0.00137523
0.00137393
0.0013748
0.00137467
0.00137661
0.00137543
0.00137396
0.00137302
0.00144292
0.00143857
0.00143586
0.0014316
0.00142069
0.0014162
0.00141598
0.0014136
0.00141184
0.00141251
0.00141187
0.00140803
0.00140704
0.00140616
0.00140626
0.00140619
0.00140602
0.00140342
0.00140347
0.00140482
0.00140667
0.00140229
0.0014002
0.00139822
0.00140235
0.00140441
0.00140385
0.00140443
0.00140145
0.00139956
0.00139799
0.00139726
0.00139727
0.0013974
0.00139736
0.00139724
0.00139775
0.00139766
0.00139698
0.0013964
0.00139648
0.00139619
0.00139661
0.00139548
0.00139573
0.00139491
0.00139551
0.00139519
0.00139301
0.00139395
0.00139261
0.0013935
0.00138985
0.00139111
0.00139098
0.00139276
0.00139251
0.00139201
0.00139115
0.00146058
0.00145492
0.00145156
0.00144874
0.00144566
0.00144383
0.00144104
0.00143674
0.00143564
0.00143446
0.00143222
0.00143381
0.00143299
0.00143035
0.00142803
0.00142618
0.00142625
0.00142682
0.00143087
0.00142868
0.00142331
0.00142056
0.00142114
0.00142367
0.0014241
0.00142426
0.00142529
0.00142509
0.00142183
0.00141979
0.001418
0.00141702
0.00141678
0.0014165
0.00141628
0.00141598
0.00141607
0.00141611
0.00141565
0.0014149
0.00141483
0.0014142
0.00141483
0.00141406
0.00141477
0.00141315
0.00141355
0.00141505
0.00141325
0.0014151
0.00141233
0.00141433
0.00141403
0.00141316
0.0014145
0.0014131
0.00141514
0.00141455
0.00141439
0.00147434
0.00147018
0.00147194
0.00146883
0.00146721
0.00146556
0.00146393
0.00145983
0.00145604
0.00145418
0.00145332
0.00145462
0.00145652
0.00146302
0.00146401
0.0014648
0.00146046
0.00146374
0.00145588
0.00145452
0.00144977
0.0014535
0.0014519
0.00144955
0.0014494
0.00145179
0.00145118
0.00145018
0.00144679
0.00144461
0.00144266
0.00144145
0.00144101
0.00144047
0.00144018
0.00143991
0.00143979
0.00143964
0.00143925
0.00143852
0.00143831
0.00143725
0.0014382
0.00143659
0.00143768
0.00143669
0.00143764
0.00143709
0.0014369
0.00143847
0.00143816
0.00143834
0.00143797
0.00143801
0.00144084
0.00143986
0.00143899
0.00143849
0.00144024
0.00149176
0.00149149
0.00149369
0.00149236
0.00149289
0.00149534
0.00150067
0.00151148
0.00151447
0.00150866
0.001505
0.00150448
0.00150774
0.00150684
0.00150492
0.00149672
0.00149412
0.0014868
0.0014865
0.00148668
0.00148566
0.00148595
0.00147586
0.00148147
0.00148236
0.00148287
0.00148127
0.00148012
0.00147651
0.00147409
0.00147182
0.0014702
0.00146932
0.00146839
0.00146778
0.00146728
0.00146688
0.00146645
0.00146593
0.00146513
0.001465
0.001464
0.00146447
0.00146314
0.00146408
0.00146338
0.00146287
0.00146385
0.00146064
0.00146288
0.00146005
0.00145859
0.00145895
0.00145866
0.0014562
0.00145569
0.00145837
0.00145877
0.00145786
0.00155407
0.00155242
0.00155272
0.00155624
0.00156548
0.00156867
0.00156743
0.00155809
0.0015511
0.00154328
0.00154883
0.00155288