/*--------------------------------*- C++ -*----------------------------------*\
| =========                 |                                                 |
| \\      /  F ield         | OpenFOAM: The Open Source CFD Toolbox           |
|  \\    /   O peration     | Version:  2312                                  |
|   \\  /    A nd           | Website:  www.openfoam.com                      |
|    \\/     M anipulation  |                                                 |
\*---------------------------------------------------------------------------*/
FoamFile
{
    version     2.0;
    format      ascii;
    arch        "LSB;label=32;scalar=64";
    class       volScalarField;
    location    "500";
    object      p;
}
// * * * * * * * * * * * * * * * * * * * * * * * * * * * * * * * * * * * * * //

dimensions      [0 2 -2 0 0 0 0];

internalField   nonuniform List<scalar> 
76025
(
0.122233
0.118378
0.114452
0.110551
0.106582
0.102586
0.0984025
0.0943421
0.0901935
0.0860682
0.0818703
0.0776398
0.073397
0.0691775
0.0649413
0.0607017
0.0565354
0.0523182
0.0481612
0.0441202
0.0401115
0.0360156
0.0320258
0.028153
0.0243423
0.0206535
0.0169788
0.0133473
0.00995572
0.00649495
0.00329115
0.000220317
-0.00273094
-0.00544783
-0.00801883
-0.0104259
-0.012685
-0.0149232
-0.0168309
-0.0185203
-0.019954
-0.0212157
-0.022358
-0.0230791
-0.023537
-0.0238146
-0.0238678
-0.0235441
-0.0228395
-0.0219211
-0.0207007
-0.0191256
-0.0171656
-0.0147359
-0.0118501
-0.00860871
-0.00494232
-0.00086411
0.00367589
0.0087699
0.0145976
0.0207449
0.0276922
0.0353147
0.0434765
0.0518093
0.0608467
0.0718359
0.08227
0.123841
0.11973
0.115609
0.111482
0.107297
0.10302
0.0987256
0.0944107
0.0900397
0.0856415
0.0812123
0.0767891
0.0723693
0.0679412
0.0635154
0.0591199
0.0547101
0.0503617
0.0460126
0.0417501
0.0374682
0.0332656
0.0291533
0.025129
0.0211685
0.0172889
0.013491
0.00985069
0.00631447
0.00287469
-0.000405973
-0.00360662
-0.00661873
-0.00939801
-0.0120767
-0.0145874
-0.016967
-0.0191136
-0.0209799
-0.0226629
-0.0241112
-0.0253711
-0.0263595
-0.0270138
-0.0274388
-0.02762
-0.0275314
-0.0270759
-0.0262935
-0.025214
-0.0238089
-0.0220276
-0.0198284
-0.0171747
-0.0140606
-0.0105193
-0.00652175
-0.0020143
0.00301041
0.00862286
0.0149348
0.021829
0.0294256
0.0377545
0.0467586
0.0563866
0.066622
0.0781824
0.0890691
0.125525
0.121184
0.116825
0.11245
0.108011
0.103515
0.0989715
0.0943869
0.0897708
0.0851292
0.0804767
0.0758225
0.0711639
0.0665055
0.0618594
0.0572193
0.0526044
0.0480216
0.0434771
0.0389711
0.034523
0.0301561
0.0258679
0.0216594
0.0175369
0.0135104
0.00960293
0.00581529
0.00213967
-0.00140426
-0.00481282
-0.00807116
-0.0111478
-0.0140497
-0.0167938
-0.0193487
-0.0216933
-0.0238071
-0.0256973
-0.0273749
-0.0288171
-0.0300101
-0.0309323
-0.0315747
-0.0319458
-0.0320279
-0.031804
-0.0312471
-0.0303551
-0.0291172
-0.0275162
-0.0255212
-0.0230979
-0.020219
-0.0168657
-0.0130262
-0.0086737
-0.00377024
0.00171898
0.00784943
0.0146837
0.0222329
0.0305393
0.0396509
0.0495575
0.0602615
0.0716624
0.0842235
0.096048
0.127083
0.122482
0.117855
0.113215
0.108517
0.103752
0.0989331
0.0940803
0.0892062
0.0843152
0.079411
0.0744974
0.0695796
0.0646657
0.0597657
0.0548865
0.0500393
0.0452307
0.0404699
0.0357645
0.0311273
0.0265658
0.022087
0.0177
0.0134144
0.00923824
0.0051804
0.00124811
-0.00254835
-0.00619796
-0.0096911
-0.0130172
-0.0161696
-0.01914
-0.0219169
-0.0244836
-0.0268305
-0.028957
-0.0308584
-0.0325242
-0.0339397
-0.0350905
-0.0359658
-0.0365535
-0.0368446
-0.0368301
-0.0364991
-0.0358336
-0.0348159
-0.0334298
-0.0316576
-0.0294733
-0.0268456
-0.0237452
-0.0201449
-0.0160194
-0.0113384
-0.00606229
-0.000144829
0.00646737
0.0138311
0.0219873
0.030979
0.0408597
0.0516433
0.063367
0.0758826
0.0896022
0.102873
0.128503
0.12362
0.11871
0.113788
0.10881
0.103761
0.0986615
0.0935315
0.0883822
0.083217
0.078039
0.072854
0.0676704
0.0624978
0.0573453
0.0522221
0.0471361
0.0420961
0.0371109
0.03219
0.0273425
0.022578
0.0179067
0.0133385
0.00888175
0.00454553
0.000339497
-0.00372561
-0.00763993
-0.0113951
-0.0149826
-0.018394
-0.0216195
-0.0246482
-0.0274684
-0.0300681
-0.0324414
-0.0345843
-0.0364887
-0.038143
-0.0395341
-0.0406488
-0.0414755
-0.042004
-0.0422253
-0.04213
-0.0417046
-0.0409316
-0.0397923
-0.0382684
-0.036339
-0.0339787
-0.0311578
-0.0278457
-0.0240107
-0.0196197
-0.0146347
-0.00901115
-0.00269766
0.0043618
0.0122275
0.0209572
0.0306072
0.0412328
0.0528643
0.0655542
0.0791634
0.0941488
0.10902
0.129831
0.124649
0.119441
0.114222
0.108946
0.1036
0.0982019
0.0927752
0.0873306
0.0818728
0.0764055
0.0709358
0.0654731
0.0600269
0.0546068
0.0492216
0.04388
0.0385913
0.0333649
0.0282109
0.0231396
0.0181618
0.0132877
0.00852689
0.00388882
-0.000616278
-0.004978
-0.00918637
-0.0132321
-0.0171064
-0.0207997
-0.0243025
-0.0276044
-0.0306967
-0.0335677
-0.0362049
-0.0386029
-0.0407571
-0.0426602
-0.044301
-0.0456665
-0.0467439
-0.0475225
-0.047993
-0.0481462
-0.047971
-0.0474534
-0.0465765
-0.0453218
-0.0436692
-0.0415961
-0.0390765
-0.0360807
-0.0325761
-0.0285268
-0.0238941
-0.018634
-0.0126971
-0.00602646
0.00143995
0.00977032
0.0190332
0.0292945
0.0406152
0.0530398
0.0666323
0.0812908
0.0975286
0.114015
0.131032
0.125532
0.120008
0.114473
0.10888
0.103214
0.097498
0.0917542
0.0859952
0.0802259
0.0744505
0.0686771
0.062915
0.0571744
0.0514655
0.0457983
0.0401823
0.0346277
0.0291449
0.0237445
0.0184375
0.0132347
0.00814645
0.00318317
-0.00164454
-0.00632616
-0.0108514
-0.0152101
-0.0193922
-0.0233882
-0.027188
-0.0307819
-0.0341607
-0.0373156
-0.0402345
-0.0429056
-0.045325
-0.0474893
-0.0493909
-0.0510186
-0.0523595
-0.0534015
-0.0541345
-0.0545495
-0.0546375
-0.054387
-0.0537843
-0.0528125
-0.0514529
-0.0496844
-0.0474836
-0.0448237
-0.0416741
-0.0380001
-0.033763
-0.0289194
-0.0234206
-0.0172111
-0.0102282
-0.00240271
0.00634125
0.0160805
0.026888
0.0388344
0.0519773
0.0663906
0.0820232
0.0994209
0.11744
0.132058
0.126218
0.120354
0.114481
0.108548
0.102542
0.0964855
0.0904039
0.0843099
0.0782092
0.0721072
0.0660111
0.0599308
0.0538774
0.0478624
0.0418968
0.0359911
0.030156
0.0244028
0.0187427
0.0131874
0.00774791
0.0024352
-0.00273941
-0.00776481
-0.0126301
-0.0173247
-0.0218379
-0.0261596
-0.0302796
-0.034188
-0.0378755
-0.0413329
-0.0445515
-0.0475188
-0.0502249
-0.0526675
-0.0548433
-0.0567442
-0.0583589
-0.059675
-0.0606813
-0.0613688
-0.0617293
-0.0617542
-0.0614327
-0.0607511
-0.0596927
-0.0582389
-0.0563683
-0.0540571
-0.051278
-0.0479993
-0.0441847
-0.0397927
-0.0347763
-0.029082
-0.0226488
-0.0154083
-0.00728414
0.00180564
0.0119441
0.0232113
0.0356919
0.0494562
0.0645975
0.0811048
0.0995541
0.11911
0.13288
0.126676
0.120448
0.114212
0.107916
0.101546
0.0951262
0.0886837
0.0822327
0.0757798
0.0693298
0.0628903
0.0564725
0.0500885
0.0437506
0.0374702
0.0312584
0.0251271
0.0190884
0.0131545
0.0073373
0.00164878
-0.00389947
-0.00929575
-0.0145284
-0.019586
-0.0244572
-0.0291314
-0.0335978
-0.0378462
-0.0418669
-0.0456505
-0.049188
-0.0524703
-0.0554854
-0.0582256
-0.0606899
-0.0628747
-0.0647718
-0.0663703
-0.0676587
-0.0686275
-0.0692689
-0.0695759
-0.0695408
-0.0691532
-0.0684
-0.0672649
-0.0657297
-0.0637735
-0.0613724
-0.0584985
-0.0551198
-0.0511984
-0.0466907
-0.0415465
-0.0357084
-0.0291108
-0.0216804
-0.0133353
-0.00398949
0.00644591
0.0180615
0.0309601
0.0452281
0.0609946
0.078279
0.0977607
0.11838
0.133468
0.126874
0.120258
0.113634
0.10695
0.100192
0.0933845
0.0865568
0.0797243
0.0728936
0.0660704
0.059264
0.0524863
0.0457504
0.0390689
0.032454
0.0259179
0.0194731
0.0131324
0.00690865
0.00081476
-0.00513657
-0.0109329
-0.0165619
-0.0220114
-0.0272694
-0.0323243
-0.037165
-0.0417804
-0.0461604
-0.0502949
-0.0541748
-0.0577913
-0.0611354
-0.0641954
-0.0669665
-0.0694489
-0.0716389
-0.0735284
-0.0751071
-0.0763653
-0.0772947
-0.0778894
-0.0781437
-0.0780511
-0.0776021
-0.0767843
-0.0755826
-0.0739797
-0.0719555
-0.0694867
-0.0665456
-0.0630995
-0.0591101
-0.0545324
-0.0493139
-0.0433947
-0.0367061
-0.0291716
-0.0207063
-0.0112206
-0.00061734
0.0112099
0.0243836
0.0390129
0.055274
0.073238
0.0937865
0.115555
0.133756
0.126747
0.119718
0.112682
0.105586
0.0984139
0.091194
0.0839561
0.0767166
0.0694832
0.0622627
0.0550652
0.0479036
0.040792
0.0337441
0.0267731
0.0198921
0.0131144
0.00645367
-7.63669e-05
-0.00646207
-0.01269
-0.0187467
-0.0246193
-0.030295
-0.0357612
-0.041006
-0.0460178
-0.0507855
-0.0552987
-0.0595475
-0.0635227
-0.0672163
-0.0706189
-0.0737203
-0.0765182
-0.079014
-0.0812037
-0.0830799
-0.0846333
-0.085856
-0.086742
-0.0872873
-0.087488
-0.0873388
-0.0868317
-0.0859558
-0.0846977
-0.0830413
-0.0809681
-0.0784559
-0.0754781
-0.0720022
-0.06799
-0.0633963
-0.0581684
-0.0522453
-0.0455578
-0.0380277
-0.0295683
-0.0200843
-0.00946515
0.0024135
0.0156918
0.0305092
0.0470827
0.0655874
0.0870009
0.109474
0.13367
0.126218
0.118746
0.11127
0.103733
0.0961209
0.0884616
0.0807872
0.0731155
0.065455
0.0578132
0.0502008
0.0426318
0.0351214
0.0276846
0.0203358
0.0130892
0.00595909
-0.00103988
-0.00789314
-0.0145862
-0.0211046
-0.0274343
-0.0335614
-0.0394725
-0.0451546
-0.050595
-0.0557821
-0.0607045
-0.0653515
-0.0697137
-0.0737819
-0.0775486
-0.0810047
-0.0841417
-0.08696
-0.0894616
-0.091643
-0.0934973
-0.0950172
-0.0961969
-0.097033
-0.0975238
-0.0976677
-0.097461
-0.0968978
-0.0959695
-0.0946646
-0.0929693
-0.0908671
-0.088338
-0.0853572
-0.0818943
-0.0779124
-0.0733679
-0.0682095
-0.0623776
-0.0558039
-0.0484095
-0.0401041
-0.0307822
-0.0203183
-0.0085719
0.00461552
0.0194161
0.0360754
0.0548753
0.0766687
0.10043
0.133161
0.12523
0.117282
0.109332
0.101322
0.0932369
0.0851068
0.0769653
0.0688317
0.0607153
0.0526245
0.0445706
0.0365686
0.0286348
0.0207854
0.0130361
0.00540221
-0.00210068
-0.00945703
-0.0166512
-0.0236676
-0.030491
-0.0371063
-0.0434988
-0.0496545
-0.0555596
-0.061201
-0.0665666
-0.0716448
-0.076425
-0.0808979
-0.0850548
-0.0888884
-0.0923901
-0.0955539
-0.0983828
-0.10088
-0.103041
-0.104861
-0.106336
-0.107462
-0.108238
-0.108666
-0.108747
-0.108479
-0.107859
-0.106882
-0.105539
-0.103819
-0.101709
-0.099192
-0.0962468
-0.0928464
-0.0889575
-0.0845398
-0.0795454
-0.0739174
-0.0675886
-0.060478
-0.0524886
-0.0435042
-0.0333867
-0.0219818
-0.00910623
0.00544569
0.0219764
0.0408306
0.0625004
0.0851813
0.132159
0.123716
0.115258
0.1068
0.0982817
0.0896881
0.0810518
0.0724084
0.0637787
0.0551731
0.0466007
0.0380739
0.0296087
0.0212227
0.0129334
0.00475759
-0.00328789
-0.0111865
-0.0189213
-0.0264758
-0.0338332
-0.0409769
-0.0478911
-0.0545601
-0.0609691
-0.0671038
-0.0729506
-0.0784965
-0.0837301
-0.0886408
-0.0932194
-0.0974578
-0.101349
-0.104885
-0.108064
-0.11089
-0.113367
-0.115492
-0.117262
-0.118675
-0.119731
-0.120433
-0.120786
-0.120793
-0.120457
-0.119777
-0.118753
-0.117378
-0.115648
-0.113553
-0.111081
-0.108216
-0.104936
-0.101213
-0.0970119
-0.0922887
-0.0869891
-0.0810453
-0.0743733
-0.0668708
-0.0584139
-0.0488568
-0.0380306
-0.0257269
-0.0117044
0.0044291
0.0230833
0.0447243
0.067973
0.130548
0.121559
0.112556
0.103556
0.0944937
0.085356
0.0761777
0.0669967
0.0578354
0.0487053
0.0396166
0.0305831
0.0216221
0.0127525
0.00399316
-0.00463756
-0.0131216
-0.0214411
-0.0295778
-0.0375137
-0.0452309
-0.0527116
-0.059939
-0.0668965
-0.0735681
-0.0799387
-0.0859941
-0.0917212
-0.0971082
-0.102145
-0.106821
-0.111131
-0.115066
-0.118622
-0.121798
-0.124603
-0.127039
-0.129107
-0.130804
-0.132132
-0.133096
-0.133704
-0.133963
-0.133881
-0.133464
-0.132717
-0.131644
-0.130245
-0.12852
-0.126466
-0.124077
-0.121342
-0.118247
-0.11477
-0.11088
-0.106537
-0.101689
-0.0962682
-0.0901913
-0.0833547
-0.0756315
-0.0668694
-0.0568851
-0.0454573
-0.0323137
-0.0170447
0.000622327
0.0209812
0.0435392
0.128202
0.118627
0.10904
0.0994585
0.089815
0.0800956
0.0703376
0.0605813
0.0508509
0.0411594
0.0315182
0.0219424
0.0124509
0.00306409
-0.00619749
-0.0153139
-0.0242657
-0.0330332
-0.0415969
-0.049937
-0.0580344
-0.0658701
-0.0734258
-0.0806838
-0.0876269
-0.0942391
-0.100506
-0.106413
-0.11195
-0.117104
-0.121868
-0.126234
-0.130198
-0.133753
-0.136905
-0.139664
-0.142032
-0.144013
-0.145607
-0.146822
-0.147666
-0.148152
-0.148292
-0.148099
-0.147585
-0.146761
-0.145636
-0.144217
-0.142512
-0.140525
-0.138257
-0.135704
-0.132857
-0.129699
-0.126204
-0.122339
-0.118056
-0.113293
-0.10797
-0.101987
-0.0952148
-0.087497
-0.0786456
-0.0684382
-0.0565808
-0.0427315
-0.0267639
-0.00860716
0.0103689
0.124967
0.114761
0.104548
0.0943419
0.0840748
0.0737321
0.063353
0.0529805
0.0426407
0.032348
0.0221153
0.0119592
0.0019001
-0.00803962
-0.0178378
-0.0274727
-0.0369231
-0.0461677
-0.0551851
-0.0639541
-0.0724537
-0.0806634
-0.0885633
-0.096134
-0.103358
-0.110217
-0.116697
-0.122783
-0.128462
-0.133724
-0.138561
-0.142966
-0.146933
-0.150463
-0.153562
-0.156241
-0.158506
-0.160362
-0.161815
-0.162877
-0.163564
-0.163893
-0.163883
-0.163554
-0.162922
-0.162005
-0.160821
-0.159385
-0.15771
-0.15581
-0.15369
-0.151353
-0.148798
-0.146013
-0.142982
-0.13968
-0.136066
-0.132091
-0.127678
-0.122737
-0.11714
-0.110739
-0.103371
-0.0948207
-0.0847896
-0.0730129
-0.0593629
-0.0437383
-0.0270004
0.120677
0.109793
0.0989041
0.0880269
0.077089
0.0660758
0.055029
0.043994
0.032999
0.02206
0.0111915
0.000411865
-0.0102565
-0.0207894
-0.0311627
-0.0413529
-0.0513366
-0.0610907
-0.0705917
-0.0798163
-0.0887417
-0.0973454
-0.105606
-0.113503
-0.121016
-0.128128
-0.134821
-0.14108
-0.146893
-0.152249
-0.157138
-0.161557
-0.1655
-0.16897
-0.171978
-0.174537
-0.176654
-0.178338
-0.179602
-0.180466
-0.18095
-0.181079
-0.180879
-0.180377
-0.179596
-0.178563
-0.1773
-0.175831
-0.174178
-0.172359
-0.17039
-0.168282
-0.16604
-0.163665
-0.16115
-0.15848
-0.15563
-0.152558
-0.149201
-0.145485
-0.141306
-0.136565
-0.131153
-0.124854
-0.117363
-0.108392
-0.0977069
-0.0851407
-0.0713938
0.115078
0.103464
0.0918484
0.080249
0.0685898
0.056856
0.0450917
0.0333448
0.0216456
0.0100119
-0.00153999
-0.0129898
-0.0243131
-0.0354836
-0.046475
-0.0572615
-0.0678174
-0.0781171
-0.0881348
-0.0978452
-0.107223
-0.116244
-0.124884
-0.133121
-0.140933
-0.1483
-0.155204
-0.161629
-0.167562
-0.172991
-0.177908
-0.182309
-0.186191
-0.18956
-0.192431
-0.194818
-0.196731
-0.198186
-0.199203
-0.199807
-0.200027
-0.199896
-0.199447
-0.198712
-0.197726
-0.196522
-0.195132
-0.193588
-0.191919
-0.190152
-0.188313
-0.186422
-0.184496
-0.182547
-0.18058
-0.178593
-0.176574
-0.174499
-0.172332
-0.170045
-0.167606
-0.164996
-0.16213
-0.158718
-0.154417
-0.148863
-0.141672
-0.132484
-0.121655
0.107899
0.0954973
0.0830982
0.0707198
0.0582821
0.0457701
0.0332303
0.0207135
0.00825235
-0.00413312
-0.0164242
-0.0285982
-0.0406282
-0.0524856
-0.0641416
-0.0755679
-0.0867362
-0.0976184
-0.108187
-0.118412
-0.128269
-0.137728
-0.146765
-0.155355
-0.163473
-0.171098
-0.17821
-0.184791
-0.190828
-0.196309
-0.201226
-0.205573
-0.209352
-0.212572
-0.21525
-0.217401
-0.21904
-0.220188
-0.220874
-0.221131
-0.220997
-0.220512
-0.219718
-0.218658
-0.217377
-0.215916
-0.214319
-0.212626
-0.210876
-0.209105
-0.207348
-0.205637
-0.204
-0.202461
-0.20104
-0.199746
-0.198593
-0.197594
-0.196786
-0.196224
-0.195965
-0.19599
-0.1961
-0.195951
-0.195193
-0.193407
-0.189954
-0.184106
-0.175844
0.098645
0.0853897
0.0721413
0.0589208
0.0456432
0.0322926
0.0189182
0.00557346
-0.00770664
-0.0208994
-0.0339837
-0.0469341
-0.0597215
-0.0723147
-0.0846827
-0.0967944
-0.108619
-0.120125
-0.131282
-0.142059
-0.152424
-0.16235
-0.171805
-0.180764
-0.189198
-0.197085
-0.204402
-0.21113
-0.217251
-0.222753
-0.227629
-0.231871
-0.235483
-0.238477
-0.240872
-0.242684
-0.243936
-0.244657
-0.244885
-0.244663
-0.244039
-0.243064
-0.241791
-0.240276
-0.238572
-0.236734
-0.234815
-0.232866
-0.230934
-0.229064
-0.227299
-0.225681
-0.22425
-0.223039
-0.222087
-0.221436
-0.221159
-0.221362
-0.222176
-0.2237
-0.225925
-0.228718
-0.231802
-0.234938
-0.237705
-0.239396
-0.239054
-0.235924
-0.229772
0.0868796
0.0727174
0.0585661
0.0444523
0.0302854
0.0160481
0.00179117
-0.0124297
-0.0265774
-0.0406267
-0.0545537
-0.0683303
-0.0819243
-0.095302
-0.108429
-0.121272
-0.133795
-0.145966
-0.157748
-0.169109
-0.180014
-0.190429
-0.200323
-0.209664
-0.218422
-0.226569
-0.234079
-0.240931
-0.247105
-0.252588
-0.257369
-0.261443
-0.264816
-0.267502
-0.269517
-0.270883
-0.271628
-0.271791
-0.271418
-0.270564
-0.269288
-0.267657
-0.265737
-0.263598
-0.261308
-0.258937
-0.256548
-0.254203
-0.251953
-0.249846
-0.247926
-0.24624
-0.244835
-0.24377
-0.243129
-0.243041
-0.243672
-0.24522
-0.247777
-0.251346
-0.255813
-0.261063
-0.266882
-0.272815
-0.278112
-0.281972
-0.283563
-0.282317
-0.27762
0.0716981
0.0565687
0.0414349
0.0263584
0.0112395
-0.00394621
-0.0191481
-0.0343081
-0.0493863
-0.0643546
-0.0791859
-0.0938492
-0.10831
-0.122531
-0.136475
-0.150104
-0.16338
-0.176266
-0.188722
-0.200711
-0.212195
-0.223136
-0.233498
-0.243244
-0.252341
-0.260754
-0.268454
-0.275413
-0.281608
-0.28702
-0.291635
-0.295446
-0.298459
-0.300685
-0.302143
-0.30286
-0.302878
-0.302245
-0.301022
-0.299275
-0.297084
-0.294532
-0.291708
-0.2887
-0.285597
-0.282484
-0.27944
-0.27653
-0.273807
-0.271312
-0.26908
-0.267163
-0.265625
-0.26457
-0.264128
-0.264499
-0.265859
-0.268375
-0.272091
-0.277059
-0.283279
-0.290433
-0.297887
-0.304947
-0.311148
-0.31596
-0.31875
-0.318907
-0.315566
0.0544824
0.0382609
0.0220666
0.00595055
-0.010198
-0.0264079
-0.0426285
-0.0587997
-0.0748784
-0.0908336
-0.106635
-0.12225
-0.13764
-0.152766
-0.167585
-0.182055
-0.196133
-0.209779
-0.222948
-0.2356
-0.247691
-0.259181
-0.270027
-0.280187
-0.289621
-0.298289
-0.306155
-0.313185
-0.319347
-0.324625
-0.329009
-0.332495
-0.335087
-0.336785
-0.337606
-0.337584
-0.336769
-0.33522
-0.333003
-0.330203
-0.326915
-0.323246
-0.319306
-0.31521
-0.311069
-0.306989
-0.303067
-0.299397
-0.296062
-0.293129
-0.290644
-0.288638
-0.287132
-0.286147
-0.285712
-0.285972
-0.287141
-0.289578
-0.293663
-0.299409
-0.306285
-0.313444
-0.320479
-0.327264
-0.333539
-0.338817
-0.342453
-0.343672
-0.34167
0.0321255
0.0147172
-0.0027177
-0.0200429
-0.037386
-0.0547922
-0.0722094
-0.0895717
-0.106832
-0.123955
-0.140909
-0.157655
-0.174155
-0.190365
-0.206239
-0.221727
-0.23678
-0.251351
-0.265393
-0.278859
-0.291705
-0.303885
-0.315348
-0.326045
-0.335931
-0.344961
-0.353088
-0.360264
-0.366444
-0.37159
-0.375666
-0.378648
-0.380538
-0.381344
-0.381083
-0.379795
-0.377546
-0.374419
-0.37051
-0.365936
-0.360823
-0.355309
-0.349541
-0.343671
-0.337851
-0.332225
-0.326936
-0.322125
-0.317919
-0.314423
-0.311687
-0.30966
-0.3082
-0.307075
-0.306122
-0.305586
-0.306057
-0.308102
-0.311864
-0.316703
-0.321963
-0.327473
-0.333302
-0.339364
-0.34539
-0.350923
-0.355207
-0.357227
-0.356161
0.0124901
-0.00624356
-0.0248542
-0.0433647
-0.0619018
-0.0804943
-0.0990873
-0.117615
-0.136029
-0.154291
-0.172364
-0.190207
-0.207777
-0.225021
-0.241889
-0.258328
-0.27429
-0.289726
-0.304585
-0.318811
-0.332349
-0.345145
-0.357137
-0.368268
-0.37849
-0.387754
-0.396017
-0.403243
-0.409404
-0.414458
-0.418357
-0.421063
-0.422551
-0.42281
-0.421846
-0.419678
-0.416359
-0.411977
-0.40665
-0.40052
-0.393751
-0.386534
-0.379067
-0.371552
-0.364176
-0.357094
-0.350419
-0.344221
-0.338554
-0.333515
-0.329294
-0.32611
-0.324062
-0.322871
-0.322139
-0.321846
-0.322218
-0.323235
-0.324883
-0.32714
-0.330004
-0.333631
-0.338213
-0.343751
-0.349842
-0.3557
-0.360278
-0.362407
-0.361402
-0.0221238
-0.0423732
-0.0628158
-0.083087
-0.103336
-0.123649
-0.143981
-0.164259
-0.184425
-0.204427
-0.224225
-0.243771
-0.263017
-0.28191
-0.300391
-0.318408
-0.33591
-0.352839
-0.369131
-0.384724
-0.399553
-0.413544
-0.426628
-0.438737
-0.449799
-0.459732
-0.468441
-0.475813
-0.481754
-0.486213
-0.489173
-0.490627
-0.490561
-0.488969
-0.485858
-0.481266
-0.475261
-0.467958
-0.459506
-0.450082
-0.439903
-0.429221
-0.418295
-0.407393
-0.396755
-0.38657
-0.37699
-0.368116
-0.359992
-0.352681
-0.346395
-0.341607
-0.33884
-0.337827
-0.337541
-0.336997
-0.33586
-0.334395
-0.333147
-0.332592
-0.333158
-0.335422
-0.339679
-0.345542
-0.352045
-0.357962
-0.362009
-0.363146
-0.361094
-0.0326881
-0.0540063
-0.0750612
-0.0962553
-0.117604
-0.139018
-0.16043
-0.181773
-0.202979
-0.224004
-0.244807
-0.265344
-0.285563
-0.305405
-0.324808
-0.343713
-0.362058
-0.379777
-0.396806
-0.413078
-0.428523
-0.443069
-0.456652
-0.469227
-0.480762
-0.491265
-0.500763
-0.509158
-0.516212
-0.521691
-0.525439
-0.527391
-0.527517
-0.525794
-0.522208
-0.516761
-0.509479
-0.500419
-0.489696
-0.477503
-0.464148
-0.450067
-0.435796
-0.421968
-0.409234
-0.39822
-0.389402
-0.382819
-0.378006
-0.374145
-0.370369
-0.366241
-0.362088
-0.358363
-0.35485
-0.351007
-0.346606
-0.342118
-0.338385
-0.336261
-0.336384
-0.339019
-0.343858
-0.350026
-0.356195
-0.360844
-0.362707
-0.361148
-0.356267
-0.0972189
-0.121339
-0.14561
-0.169675
-0.193735
-0.217962
-0.242297
-0.266585
-0.290713
-0.314626
-0.338291
-0.361667
-0.384698
-0.407315
-0.429447
-0.451023
-0.471968
-0.492206
-0.511657
-0.530237
-0.547853
-0.564406
-0.579787
-0.593867
-0.606487
-0.617454
-0.626571
-0.633792
-0.639194
-0.642814
-0.64456
-0.644236
-0.641666
-0.636737
-0.629387
-0.619602
-0.607408
-0.592887
-0.576214
-0.557679
-0.537685
-0.516752
-0.495558
-0.474869
-0.455489
-0.438111
-0.423132
-0.410675
-0.400603
-0.392536
-0.385937
-0.380282
-0.375158
-0.370259
-0.365376
-0.360309
-0.354959
-0.349643
-0.345152
-0.34249
-0.342501
-0.345368
-0.350401
-0.356215
-0.361124
-0.363636
-0.362978
-0.359425
-0.353133
-0.0343955
-0.0292331
-0.0237141
-0.0179165
-0.0117529
-0.00514944
0.00193781
0.00938307
0.0171221
0.025277
0.0339095
0.0429682
0.0522488
0.0622608
0.0720374
0.0822857
0.0923887
0.102964
0.113404
0.123652
0.134437
0.144432
0.154163
0.163294
0.171968
0.180128
0.187314
0.193732
0.199598
0.204295
0.207856
0.210537
0.212475
0.213637
0.213587
0.212774
0.211351
0.209072
0.206156
0.202911
0.198987
0.194829
0.190653
0.186383
0.181555
0.176963
0.172139
0.167501
0.162815
0.158269
0.153905
0.149686
0.145746
0.14194
0.138361
0.134778
0.131496
0.128367
0.125475
-0.0376453
-0.0322725
-0.026524
-0.0204109
-0.0139
-0.00697873
0.000381861
0.00816399
0.0163566
0.0249698
0.0339848
0.0434147
0.0532172
0.0633938
0.0738569
0.0844606
0.0953358
0.106272
0.117308
0.128113
0.138998
0.149611
0.15975
0.169352
0.178356
0.18678
0.194391
0.201036
0.206988
0.21188
0.21553
0.218325
0.220228
0.221197
0.221134
0.220187
0.218536
0.216158
0.213059
0.209449
0.205424
0.201089
0.196512
0.191636
0.186673
0.181664
0.176654
0.171725
0.166815
0.162021
0.157406
0.152963
0.148674
0.144621
0.140722
0.137061
0.133629
0.13039
0.127343
-0.0412395
-0.0356006
-0.0295892
-0.023172
-0.0163365
-0.0090664
-0.00135991
0.0067857
0.0153806
0.0244258
0.0338973
0.0437722
0.0540404
0.0646678
0.0755984
0.086809
0.0982288
0.109749
0.121277
0.132681
0.143973
0.155029
0.165656
0.175725
0.185178
0.193937
0.201852
0.208829
0.214947
0.219958
0.223828
0.226699
0.228529
0.229366
0.229196
0.228124
0.226249
0.223668
0.220391
0.216585
0.212321
0.207645
0.202666
0.197466
0.192175
0.186852
0.181517
0.176236
0.171045
0.165986
0.1611
0.156385
0.151852
0.147519
0.143419
0.139552
0.135901
0.132463
0.129236
-0.045097
-0.0391869
-0.0328827
-0.0261563
-0.0189916
-0.0113728
-0.00329407
0.00524879
0.0142612
0.0237429
0.0336803
0.0440525
0.0548389
0.0659947
0.0774628
0.0892175
0.101168
0.113247
0.125327
0.137333
0.14918
0.160724
0.171841
0.182395
0.192306
0.201453
0.209702
0.216994
0.223321
0.22849
0.23253
0.235466
0.237275
0.238049
0.23777
0.236552
0.234473
0.231641
0.22811
0.224015
0.219422
0.214403
0.209088
0.203579
0.197935
0.192248
0.186556
0.180922
0.175399
0.170023
0.164821
0.159812
0.155013
0.150434
0.146087
0.141971
0.138085
0.134427
0.131007
-0.0493149
-0.0431133
-0.0364956
-0.0294355
-0.0219168
-0.0139237
-0.0054461
0.00352207
0.0129828
0.0229327
0.0333612
0.0442506
0.0555738
0.0672861
0.0793334
0.0916606
0.104193
0.116853
0.129531
0.142138
0.154564
0.166657
0.178297
0.189355
0.199727
0.209285
0.2179
0.225501
0.232058
0.237411
0.241588
0.244587
0.246402
0.247123
0.246738
0.24536
0.24307
0.239972
0.236143
0.231707
0.226755
0.221385
0.215714
0.209834
0.203813
0.19774
0.191679
0.185686
0.179811
0.17409
0.168554
0.163228
0.158129
0.153268
0.148651
0.144282
0.140163
0.136289
0.132666
-0.0539847
-0.0474728
-0.0405221
-0.0331051
-0.0252059
-0.0168085
-0.00790184
0.0015211
0.0114622
0.021917
0.0328736
0.0443121
0.0562036
0.0685062
0.0811662
0.0941182
0.107285
0.120578
0.133892
0.147124
0.160152
0.172833
0.185035
0.196623
0.207477
0.217467
0.226468
0.234392
0.241195
0.246744
0.251057
0.254117
0.255933
0.256587
0.256085
0.254532
0.252013
0.248635
0.244493
0.239705
0.234382
0.228632
0.222566
0.216279
0.209856
0.203383
0.196929
0.190552
0.184302
0.178218
0.172333
0.166673
0.161257
0.156096
0.151199
0.146567
0.1422
0.138093
0.13425
-0.0591554
-0.0523149
-0.0450111
-0.0372158
-0.0289121
-0.0200841
-0.01072
-0.000812379
0.00964128
0.0206363
0.0321592
0.0441884
0.0566926
0.069628
0.0829393
0.096558
0.110402
0.124376
0.138371
0.152271
0.165946
0.179254
0.192055
0.204207
0.215576
0.226028
0.235437
0.243705
0.250774
0.256531
0.260983
0.264103
0.265912
0.266489
0.265852
0.264107
0.261342
0.257667
0.253192
0.248039
0.242326
0.236168
0.229678
0.222961
0.21611
0.209209
0.202333
0.195543
0.18889
0.182419
0.176163
0.170148
0.164395
0.158915
0.153716
0.148799
0.144164
0.139804
0.135726
-0.0648758
-0.0576829
-0.0500017
-0.0418034
-0.0330698
-0.023784
-0.0139331
-0.00350927
0.00748951
0.0190586
0.0311846
0.0438443
0.057003
0.0706145
0.0846206
0.0989497
0.113516
0.128218
0.142939
0.157554
0.171925
0.185906
0.199348
0.212101
0.224023
0.234972
0.244817
0.253452
0.260809
0.266788
0.271385
0.274567
0.276365
0.276858
0.276074
0.274119
0.271088
0.267097
0.262265
0.256721
0.250591
0.243997
0.237057
0.229881
0.222569
0.215208
0.207877
0.200642
0.193558
0.186671
0.180015
0.17362
0.167503
0.161679
0.156153
0.150929
0.146005
0.141375
0.137045
-0.0712127
-0.0636429
-0.0555586
-0.04693
-0.0377375
-0.0279632
-0.0175933
-0.00661925
0.00496096
0.017142
0.0299101
0.0432408
0.0570974
0.0714313
0.0861806
0.101269
0.116606
0.132082
0.147577
0.162957
0.178075
0.192777
0.206904
0.220302
0.232816
0.244297
0.254609
0.263638
0.271305
0.277521
0.28227
0.285518
0.287306
0.287709
0.286767
0.284584
0.281268
0.276938
0.271723
0.265758
0.25918
0.252116
0.244691
0.237022
0.229212
0.221358
0.213539
0.205827
0.19828
0.190946
0.183863
0.177057
0.170551
0.164357
0.158482
0.15293
0.147698
0.142779
0.13818
-0.0782562
-0.0702851
-0.061771
-0.0526829
-0.0429995
-0.0327019
-0.0217761
-0.0102132
0.00198871
0.014824
0.0282785
0.042326
0.0569287
0.072035
0.087579
0.103481
0.119642
0.135948
0.152272
0.168469
0.184385
0.199858
0.214722
0.228809
0.241956
0.254007
0.264818
0.274268
0.282269
0.288739
0.293649
0.296969
0.298746
0.299052
0.297938
0.295512
0.291888
0.287194
0.281567
0.275151
0.268089
0.260518
0.252571
0.24437
0.236026
0.22764
0.219299
0.211075
0.203032
0.19522
0.187677
0.180434
0.173511
0.166924
0.160678
0.154776
0.149215
0.143989
0.139103
-0.0861181
-0.0777186
-0.0687449
-0.0591649
-0.0489563
-0.0380986
-0.0265777
-0.0143844
-0.00151615
0.0120216
0.026213
0.0410306
0.0564342
0.0723696
0.0887679
0.105543
0.12259
0.139787
0.156996
0.174067
0.190839
0.20714
0.222792
0.237616
0.251442
0.264102
0.275446
0.285347
0.293708
0.300449
0.305532
0.308929
0.310692
0.310894
0.309595
0.306907
0.302952
0.297866
0.291796
0.284894
0.277312
0.269196
0.260687
0.251914
0.242997
0.23404
0.225136
0.216364
0.207787
0.19946
0.191424
0.183711
0.176341
0.169331
0.162686
0.156409
0.150497
0.144941
0.139748
-0.0949197
-0.0860609
-0.0765946
-0.0664871
-0.0557145
-0.044256
-0.0320964
-0.0192255
-0.00564018
0.00865263
0.0236371
0.0392843
0.0555507
0.0723797
0.0896966
0.107407
0.125401
0.143549
0.161706
0.179719
0.197412
0.2146
0.231094
0.246711
0.261265
0.274579
0.286495
0.296878
0.305626
0.312657
0.317924
0.321405
0.323152
0.323241
0.321742
0.318772
0.314462
0.308955
0.302408
0.294983
0.286841
0.278139
0.269026
0.259639
0.250105
0.240536
0.231028
0.221665
0.212515
0.203636
0.195069
0.186849
0.178998
0.17153
0.164454
0.157771
0.151479
0.145568
0.140045
-0.104779
-0.0954246
-0.0854278
-0.0747531
-0.0633749
-0.0512709
-0.0384241
-0.0248248
-0.0104695
0.004635
0.0204715
0.0370093
0.0542025
0.071989
0.0902867
0.108996
0.128003
0.147173
0.166359
0.185386
0.204063
0.222201
0.239606
0.256074
0.271408
0.285425
0.297955
0.308857
0.318021
0.325362
0.330828
0.334397
0.336126
0.336094
0.33438
0.331107
0.326413
0.320453
0.313394
0.305407
0.296664
0.287332
0.277569
0.267523
0.257326
0.247097
0.23694
0.226942
0.217177
0.207704
0.198569
0.189805
0.181437
0.173479
0.165941
0.158823
0.152122
0.145829
0.139949
-0.115847
-0.10596
-0.0953929
-0.0841072
-0.0720759
-0.059276
-0.0456896
-0.0313055
-0.0161213
-0.000144876
0.0166062
0.0340986
0.0522833
0.0710923
0.0904406
0.110226
0.130328
0.150607
0.170896
0.191004
0.21074
0.229909
0.248291
0.265672
0.281847
0.29662
0.309811
0.32127
0.330881
0.338556
0.344237
0.347902
0.349611
0.349449
0.347503
0.343903
0.338797
0.332351
0.32474
0.316149
0.306759
0.29675
0.286288
0.275531
0.26462
0.253682
0.242826
0.232146
0.221719
0.211607
0.20186
0.192513
0.183591
0.175109
0.167077
0.159493
0.152355
0.145653
0.13939
-0.128293
-0.117833
-0.10665
-0.0947074
-0.0819744
-0.0684262
-0.0540443
-0.0388179
-0.0227441
-0.00583101
0.0119005
0.0304163
0.0496647
0.0695745
0.0900595
0.111011
0.132297
0.153764
0.175231
0.196504
0.217392
0.237664
0.257093
0.275461
0.292544
0.308131
0.322034
0.334094
0.344188
0.352224
0.358136
0.361904
0.363592
0.36329
0.361096
0.357145
0.351596
0.344625
0.336421
0.32718
0.317094
0.306355
0.29514
0.283618
0.271938
0.260235
0.248627
0.237211
0.22607
0.215271
0.204864
0.194888
0.185369
0.176323
0.167758
0.159674
0.152066
0.144925
0.138253
-0.14234
-0.131263
-0.11942
-0.106769
-0.0932795
-0.0789263
-0.0636898
-0.0475576
-0.0305272
-0.0126063
0.0061826
0.0258041
0.0462031
0.067307
0.0890221
0.111229
0.133786
0.156526
0.179264
0.201807
0.223929
0.245385
0.265953
0.285387
0.303447
0.319912
0.334584
0.347292
0.357909
0.366333
0.372497
0.376378
0.378044
0.377593
0.375131
0.370803
0.364777
0.357242
0.3484
0.338457
0.327622
0.316096
0.30407
0.291722
0.279213
0.266686
0.254265