/*--------------------------------*- C++ -*----------------------------------*\
| =========                 |                                                 |
| \\      /  F ield         | OpenFOAM: The Open Source CFD Toolbox           |
|  \\    /   O peration     | Version:  2312                                  |
|   \\  /    A nd           | Website:  www.openfoam.com                      |
|    \\/     M anipulation  |                                                 |
\*---------------------------------------------------------------------------*/
FoamFile
{
    version     2.0;
    format      ascii;
    arch        "LSB;label=32;scalar=64";
    class       surfaceScalarField;
    location    "500";
    object      phi;
}
// * * * * * * * * * * * * * * * * * * * * * * * * * * * * * * * * * * * * * //

dimensions      [0 3 -1 0 0 0 0];

oriented        oriented;

internalField   nonuniform List<scalar> 
116611
(
0.0262402
0.0111453
-0.0258368
-0.0115488
0.026641
0.0110459
-0.0114468
0.0270378
0.0109383
-0.0113351
0.0274304
0.0108218
-0.0112143
0.0278171
0.0106964
-0.0110832
0.0282026
0.0105602
-0.0109457
0.0285781
0.0104149
-0.0107904
0.0289523
0.0102596
-0.0106338
0.0293172
0.0100928
-0.0104576
0.0296769
0.00991551
-0.0102753
0.0300288
0.00972611
-0.010078
0.0303748
0.00952541
-0.00987139
0.0307127
0.00931268
-0.00965062
0.0310439
0.00908741
-0.00941862
0.0313669
0.00884964
-0.00917257
0.03168
0.00860021
-0.00891337
0.0319868
0.00833522
-0.008642
0.0322834
0.00805919
-0.0083558
0.0325692
0.00776567
-0.00805149
0.0328448
0.00746111
-0.00773669
0.0331123
0.00713813
-0.00740561
0.0333659
0.00680129
-0.00705494
0.033608
0.0064485
-0.00669054
0.0338393
0.00608093
-0.00631227
0.0340565
0.00569664
-0.00591378
0.0342629
0.00529581
-0.00550223
0.0344541
0.00487571
-0.0050669
0.0346275
0.00444051
-0.00461393
0.0347925
0.00398673
-0.00415179
0.0349378
0.00351357
-0.00365881
0.0350638
0.00302339
-0.00314944
0.035173
0.00251112
-0.00262027
0.035262
0.00197954
-0.00206857
0.0353355
0.00143261
-0.00150608
0.0353888
0.000862405
-0.000915729
0.0354214
0.000275155
-0.000307729
0.0354384
-0.000336883
0.000319869
0.0354246
-0.000972337
0.000986143
0.0353915
-0.00162559
0.00165864
0.0353338
-0.00230239
0.00236008
0.0352537
-0.00299866
0.00307881
0.0351502
-0.00371975
0.00382323
0.0350103
-0.00446501
0.00460495
0.0348503
-0.00522651
0.00538645
0.0346616
-0.00601236
0.00620112
0.0344463
-0.00681954
0.00703476
0.0341943
-0.0076528
0.00790487
0.0339154
-0.00850341
0.00878226
0.0336085
-0.00937546
0.00968239
0.0332695
-0.0102706
0.0106095
0.0328974
-0.0111888
0.0115609
0.0324887
-0.0121295
0.0125383
0.0320408
-0.0130911
0.013539
0.0315547
-0.0140716
0.0145577
0.0310291
-0.0150704
0.0155961
0.0304653
-0.0160862
0.0166499
0.0298534
-0.0171226
0.0177346
0.029197
-0.0181743
0.0188306
0.0284885
-0.0192445
0.019953
0.0277172
-0.0203343
0.0211055
0.0268883
-0.0214358
0.0222647
0.0259905
-0.022547
0.0234448
0.0250372
-0.0236643
0.0246176
0.024011
-0.0247991
0.0258253
0.0229201
-0.025957
0.0270478
0.0217814
-0.0271521
0.0282907
0.0205346
-0.0284251
0.0296719
0.0191664
-0.029759
0.0311273
-0.0310337
0.0177835
0.0324165
0.0258385
0.0107425
-0.0254357
0.0262374
0.010647
0.0266326
0.0105431
0.0270235
0.0104308
0.027411
0.010309
0.0277927
0.0101784
0.0281694
0.0100382
0.028541
0.00988803
0.0289061
0.00972765
0.0292652
0.00955644
0.029617
0.00937426
0.0299616
0.00918083
0.0302987
0.00897557
0.0306279
0.00875818
0.0309485
0.00852907
0.0312618
0.00828694
0.0315649
0.00803213
0.0318602
0.00776387
0.0321438
0.00748208
0.0324191
0.00718579
0.0326823
0.00687495
0.0329341
0.00654949
0.0331736
0.00620892
0.0334015
0.00585305
0.0336168
0.00548135
0.0338197
0.00509296
0.0340072
0.00468817
0.034181
0.0042667
0.0343402
0.00382758
0.0344825
0.00337124
0.0346095
0.00289642
0.0347181
0.00240253
0.0348073
0.00189032
0.0348801
0.00135981
0.0349326
0.000809865
0.0349669
0.000240854
0.0349799
-0.000349803
0.0349692
-0.000961652
0.0349374
-0.00159386
0.034882
-0.00224697
0.0348043
-0.00292095
0.0347011
-0.0036165
0.0345698
-0.00433372
0.0344144
-0.0050712
0.034232
-0.00582995
0.0340225
-0.00660998
0.0337817
-0.007412
0.0335124
-0.00823416
0.0332136
-0.00907666
0.0328832
-0.00994012
0.032519
-0.0108246
0.0321189
-0.0117295
0.0316812
-0.0126535
0.031205
-0.0135954
0.0306887
-0.0145541
0.0301312
-0.0155287
0.0295281
-0.0165196
0.0288787
-0.0175248
0.0281783
-0.0185441
0.0274209
-0.0195769
0.0266041
-0.0206189
0.0257255
-0.0216684
0.0247867
-0.0227255
0.0237845
-0.0237969
0.0227206
-0.0248931
0.0216005
-0.026032
0.0204008
-0.0272254
0.0191066
-0.0284648
-0.0296721
0.0177451
0.0254472
0.0103408
-0.0250455
0.025845
0.0102492
0.0262389
0.0101492
0.0266289
0.0100408
0.0270142
0.00992372
0.0273948
0.0097977
0.0277706
0.00966248
0.0281409
0.00951772
0.0285054
0.00936316
0.0288635
0.00919835
0.0292148
0.00902299
0.0295589
0.00883671
0.0298953
0.00863915
0.0302235
0.00842993
0.0305437
0.00820889
0.0308551
0.00797553
0.0311576
0.00772965
0.0314507
0.00747081
0.031734
0.00719873
0.0320069
0.00691292
0.0322686
0.00661324
0.0325189
0.0062992
0.0327573
0.00597051
0.0329835
0.00562682
0.0331971
0.0052678
0.033397
0.004893
0.0335831
0.00450213
0.033755
0.00409484
0.0339117
0.0036708
0.0340533
0.00322969
0.0341786
0.00277106
0.0342865
0.00229465
0.0343767
0.00180018
0.0344489
0.00128755
0.0345023
0.000756529
0.034536
0.000207099
0.0345492
-0.000362955
0.0345409
-0.000953399
0.0345109
-0.00156387
0.0344584
-0.0021944
0.0343826
-0.0028452
0.0342825
-0.00351643
0.0341571
-0.00420831
0.0340064
-0.00492046
0.0338292
-0.00565281
0.0336248
-0.00640553
0.0333914
-0.00717864
0.0331289
-0.00797163
0.0328363
-0.00878407
0.0325122
-0.00961597
0.0321546
-0.0104671
0.031762
-0.0113368
0.0313325
-0.012224
0.0308647
-0.0131276
0.0303571
-0.0140464
0.0298078
-0.0149794
0.029214
-0.0159258
0.0285735
-0.0168843
0.0278828
-0.0178534
0.0271379
-0.0188319
0.0263362
-0.0198173
0.0254762
-0.0208084
0.0245587
-0.021808
0.0235839
-0.0228222
0.0225539
-0.0238631
0.0214645
-0.0249425
0.0202967
-0.0260576
0.0190316
-0.0271997
-0.0282983
0.0176578
0.0250684
0.00993952
-0.0246671
0.0254658
0.00985179
0.025859
0.00975594
0.026248
0.00965191
0.0266322
0.00953945
0.0270117
0.00941826
0.0273861
0.0092881
0.027755
0.00914875
0.0281183
0.00899994
0.0284753
0.00884134
0.0288257
0.00867259
0.029169
0.00849333
0.0295049
0.00830327
0.0298328
0.00810202
0.0301525
0.00788926
0.0304633
0.0076647
0.030765
0.00742795
0.0310571
0.00717871
0.0313392
0.00691658
0.0316109
0.00664129
0.0318716
0.00635248
0.032121
0.00604981
0.0323586
0.00573296
0.0325838
0.00540161
0.0327962
0.00505538
0.0329953
0.00469391
0.0331806
0.00431687
0.0333514
0.00392396
0.0335074
0.00351487
0.0336478
0.00308925
0.0337721
0.00264679
0.0338796
0.00218717
0.0339696
0.00171013
0.0340417
0.00121548
0.0340951
0.000703101
0.0341292
0.000172982
0.0341435
-0.000377189
0.0341369
-0.000946857
0.0341089
-0.00153586
0.0340588
-0.00214425
0.0339858
-0.0027722
0.0338891
-0.0034198
0.0337679
-0.00408712
0.0336215
-0.004774
0.033449
-0.00548034
0.0332496
-0.0062061
0.0330221
-0.00695114
0.0327656
-0.0077151
0.032479
-0.00849754
0.0321612
-0.00929812
0.0318104
-0.0101163
0.0314252
-0.0109515
0.0310038
-0.0118026
0.0305447
-0.0126685
0.0300463
-0.013548
0.0295067
-0.0144398
0.0289236
-0.0153427
0.0282946
-0.0162553
0.0276169
-0.0171757
0.0268875
-0.0181026
0.0261047
-0.0190344
0.0252681
-0.0199718
0.0243787
-0.0209186
0.0234375
-0.021881
0.0224435
-0.0228691
0.021386
-0.0238849
0.0202452
-0.0249169
0.019002
-0.0259565
-0.0269348
0.0176384
0.0247031
0.00953927
-0.0243029
0.0250998
0.0094551
0.0254925
0.00936325
0.0258808
0.00926356
0.0262645
0.00915577
0.0266432
0.00903958
0.0270166
0.00891473
0.0273844
0.00878094
0.0277464
0.00863795
0.0281022
0.0084855
0.0284515
0.00832329
0.0287938
0.00815098
0.0291288
0.00796828
0.029456
0.00777484
0.0297749
0.00757034
0.0300852
0.00735445
0.0303863
0.00712684
0.0306778
0.00688719
0.0309593
0.00663512
0.0312303
0.0063703
0.0314903
0.00609239
0.0317391
0.00580109
0.031976
0.00549605
0.0322006
0.00517699
0.0324124
0.00484354
0.032611
0.00449535
0.0327957
0.00413214
0.0329661
0.00375359
0.0331216
0.0033594
0.0332616
0.00294921
0.0333856
0.00252276
0.0334931
0.00207975
0.0335832
0.00161996
0.0336556
0.00114313
0.0337095
0.000649142
0.0337445
0.000137986
0.0337599
-0.000392581
0.0337549
-0.000941843
0.0337288
-0.00150975
0.0336809
-0.00209639
0.0336106
-0.00270185
0.033517
-0.0033262
0.0333993
-0.00396943
0.0332568
-0.00463147
0.0330886
-0.00531215
0.0328938
-0.00601135
0.0326715
-0.00672879
0.0324205
-0.00746413
0.0321399
-0.0082169
0.0318283
-0.00898657
0.0314845
-0.00977251
0.0311069
-0.0105739
0.030694
-0.0113897
0.0302443
-0.0122188
0.0297562
-0.0130599
0.029228
-0.0139116
0.0286575
-0.0147722
0.0280425
-0.0156403
0.0273808
-0.0165141
0.0266708
-0.0173925
0.0259115
-0.0182752
0.0251038
-0.0191641
0.0242483
-0.0200631
0.0233443
-0.020977
0.0223863
-0.021911
0.0213582
-0.0228569
0.0202403
-0.023799
0.019014
-0.0247302
-0.0255784
0.0176576
0.0243537
0.00914088
-0.0239553
0.0247488
0.00905992
0.0251404
0.00897172
0.0255278
0.00887613
0.0259107
0.00877286
0.0262887
0.00866158
0.0266614
0.00854201
0.0270285
0.00841384
0.0273897
0.00827679
0.0277446
0.00813061
0.0280929
0.00797501
0.0284341
0.00780969
0.0287681
0.00763436
0.0290942
0.00744869
0.0294122
0.00725235
0.0297216
0.00704505
0.030022
0.00682646
0.0303129
0.00659627
0.0305939
0.00635416
0.0308644
0.00609975
0.0311241
0.00583274
0.0313724
0.00555278
0.0316089
0.00525957
0.0318331
0.00495279
0.0320445
0.00463212
0.0322426
0.00429722
0.032427
0.00394779
0.032597
0.00358351
0.0327523
0.00320411
0.0328923
0.00280928
0.0330163
0.00239872
0.0331238
0.00197219
0.0332144
0.00152945
0.0332873
0.00107022
0.033342
0.000594448
0.0333779
0.000102004
0.0333945
-0.000409159
0.033391
-0.000938318
0.0333667
-0.00148546
0.033321
-0.00205065
0.0332531
-0.00263397
0.0331623
-0.00323545
0.0330479
-0.00385503
0.0329091
-0.00449263
0.032745
-0.00514807
0.0325548
-0.00582113
0.0323375
-0.00651149
0.0320921
-0.00721875
0.0318176
-0.00794239
0.0315128
-0.00868179
0.0311765
-0.0094362
0.0308074
-0.0102047
0.030404
-0.0109864
0.0299649
-0.0117798
0.0294887
-0.0125837
0.0289737
-0.0133965
0.028418
-0.0142166
0.02782
-0.0150423
0.0271784
-0.0158724
0.0264923
-0.0167064
0.0257622
-0.017545
0.0249886
-0.0183905
0.0241709
-0.0192454
0.023305
-0.0201112
0.0223803
-0.0209863
0.0213785
-0.021855
0.0202818
-0.0227023
0.0190748
-0.0235232
-0.0242472
0.0177435
0.0240223
0.00874457
-0.023626
0.0244155
0.00866676
0.0248051
0.00858205
0.025191
0.0084903
0.0255725
0.00839128
0.0259494
0.00828468
0.0263213
0.00817019
0.0266876
0.00804752
0.027048
0.00791637
0.0274022
0.00777646
0.0277496
0.00762752
0.0280901
0.00746921
0.0284232
0.00730127
0.0287485
0.00712338
0.0290657
0.00693522
0.0293742
0.00673649
0.0296738
0.0065269
0.0299639
0.00630612
0.0302442
0.00607387
0.0305142
0.00582981
0.0307733
0.00557363
0.0310211
0.00530499
0.0312571
0.00502356
0.0314808
0.00472903
0.0316918
0.00442109
0.0318896
0.00409942
0.0320737
0.0037637
0.0322436
0.00341365
0.0323987
0.00304897
0.0325386
0.00266939
0.0326627
0.00227463
0.0327705
0.00186443
0.0328614
0.00143856
0.0329348
0.000996771
0.0329902
0.00053903
0.0330272
6.50587e-05
0.033045
-0.000426941
0.0330429
-0.000936286
0.0330204
-0.00146297
0.0329768
-0.00200705
0.0329114
-0.00256858
0.0328236
-0.00314756
0.0327124
-0.00374392
0.0325773
-0.00435753
0.0324175
-0.00498819
0.032232
-0.00563563
0.03202
-0.00629949
0.0317805
-0.00697932
0.0315127
-0.00767454
0.0312154
-0.00838448
0.0308875
-0.00910832
0.0305279
-0.00984512
0.0301352
-0.0105937
0.0297083
-0.0113529
0.0292458
-0.0121211
0.0287461
-0.0128969
0.0282082
-0.0136786
0.0276308
-0.014465
0.0270138
-0.0152554
0.0263571
-0.0160498
0.0256612
-0.0168492
0.0249255
-0.0176549
0.0241466
-0.0184664
0.0233166
-0.0192812
0.0224216
-0.0200913
0.0214437
-0.0208771
0.0203685
-0.0216271
0.0191844
-0.0223391
-0.0229496
0.0178869
0.0237099
0.00834982
-0.0233151
0.0241013
0.00827535
0.0244891
0.00819423
0.0248731
0.00810635
0.0252529
0.0080115
0.0256281
0.00790943
0.0259985
0.00779985
0.0263635
0.00768247
0.0267228
0.00755704
0.027076
0.00742324
0.0274228
0.00728081
0.0277625
0.00712946
0.0280949
0.00696888
0.0284195
0.00679879
0.0287359
0.00661883
0.0290437
0.0064287
0.0293424
0.00622814
0.0296317
0.00601682
0.0299112
0.00579444
0.0301803
0.00556069
0.0304386
0.00531527
0.0306858
0.00505786
0.0309212
0.00478814
0.0311444
0.0045058
0.031355
0.00421052
0.0315524
0.003902
0.0317362
0.00357992
0.0319058
0.00324401
0.0320608
0.00289398
0.0322007
0.00252955
0.0323248
0.00215045
0.0324328
0.00175645
0.0325241
0.00134731
0.0325981
0.000922772
0.0326542
0.000482867
0.0326922
2.7132e-05
0.0327112
-0.000445953
0.0327107
-0.000935765
0.03269
-0.00144229
0.0326485
-0.0019656
0.0325856
-0.0025057
0.0325007
-0.00306259
0.0323929
-0.00363616
0.0322617
-0.00422628
0.0321062
-0.00483271
0.0319257
-0.00545515
0.0317194
-0.00609321
0.0314865
-0.00674639
0.031226
-0.00741408
0.0309371
-0.00809556
0.0306188
-0.00878997
0.03027
-0.0094963
0.0298896
-0.0102134
0.0294766
-0.0109399
0.0290298
-0.0116744
0.0285484
-0.0124154
0.0280316
-0.0131619
0.0274794
-0.0139128
0.0268919
-0.0146679
0.0262693
-0.0154272
0.025611
-0.0161909
0.0249141
-0.0169579
0.0241719
-0.0177242
0.0233741
-0.0184834
0.0225056
-0.0192228
0.0215515
-0.019923
0.0205019
-0.0205775
0.0193499
-0.0211871
-0.0216834
0.0180837
0.023416
0.00795602
-0.0230222
0.0238063
0.00788508
0.0241928
0.00780774
0.0245752
0.00772389
0.0249534
0.00763334
0.0253269
0.00753586
0.0256956
0.0074312
0.026059
0.00731908
0.0264168
0.00719925
0.0267686
0.00707144
0.027114
0.00693542
0.0274525
0.00679089
0.0277839
0.00663756
0.0281075
0.00647515
0.028423
0.00630334
0.0287299
0.00612179
0.0290278
0.00593021
0.0293163
0.00572832
0.029595
0.00551579
0.0298633
0.00529234
0.0301209
0.00505766
0.0303674
0.00481144
0.0306021
0.00455337
0.0308248
0.00428315
0.0310348
0.00400047
0.0312318
0.00370503
0.0314152
0.00339652
0.0315845
0.00307467
0.0317393
0.00273918
0.0318791
0.00238979
0.0320033
0.00202624
0.0321115
0.00164829
0.0322031
0.00125571
0.0322776
0.000848251
0.0323345
0.00042598
0.0323733
-1.17487e-05
0.0323936
-0.000466176
0.0323945
-0.000936736
0.0323757
-0.00142343
0.0323364
-0.00192631
0.0322761
-0.00244539
0.0321941
-0.00298064
0.0320899
-0.00353196
0.0319628
-0.00409916
0.0318121
-0.00468201
0.0316371
-0.00528018
0.0314372
-0.00589325
0.0312115
-0.00652071
0.0309593
-0.00716191
0.0306799
-0.00781609
0.0303723
-0.00848237
0.0300357
-0.0091597
0.0296692
-0.00984694
0.0292722
-0.0105428
0.0288439
-0.0112461
0.0283841
-0.0119556
0.0278928
-0.0126705
0.0273702
-0.0133902
0.0268164
-0.0141141
0.0262307
-0.0148415
0.0256104
-0.0155706
0.0249501
-0.0162975
0.024241
-0.0170152
0.0234716
-0.017714
0.0226283
-0.0183794
0.0217002
-0.0189949
0.0206831
-0.0195604
0.0195761
-0.02008
-0.0204998
0.0183925
0.0231399
0.00756275
-0.0227466
0.0235295
0.00749546
0.0239152
0.00742203
0.0242967
0.00734238
0.0246737
0.0072563
0.025046
0.00716356
0.0254133
0.00706394
0.0257752
0.00695717
0.0261314
0.00684302
0.0264816
0.00672127
0.0268254
0.00659163
0.0271624
0.00645385
0.0274923
0.00630768
0.0278146
0.00615284
0.0281289
0.00598904
0.0284348
0.00581595
0.0287317
0.00563328
0.0290193
0.00544074
0.0292971
0.00523801
0.0295646
0.00502481
0.0298214
0.00480083
0.0300671
0.00456576
0.0303012
0.0043193
0.0305232
0.00406115
0.0307326
0.00379101
0.0309291
0.00350858
0.031112
0.00321357
0.031281
0.00290568
0.0314356
0.00258465
0.0315752
0.00225019
0.0316993
0.00190206
0.0318076
0.00154002
0.0318995
0.00116384
0.0319745
0.000773275
0.032032
0.000368427
0.0320718
-5.15495e-05
0.0320932
-0.000487595
0.0320957
-0.000939216
0.0320787
-0.00140643
0.0320417
-0.0018893
0.0319841
-0.00238782
0.0319054
-0.00290195
0.0318051
-0.00343159
0.0316824
-0.00397654
0.031537
-0.00453655
0.0313681
-0.00511128
0.0311751
-0.0057003
0.0309575
-0.00630308
0.0307145
-0.00691895
0.0304456
-0.00754717
0.0301501
-0.00818684
0.0298274
-0.00883698
0.029477
-0.00949654
0.0290986
-0.0101644
0.0286921
-0.0108397
0.0282578
-0.0115213
0.0277958
-0.0122086
0.0273062
-0.0129006
0.026788
-0.0135959
0.0262389
-0.0142923
0.0256542
-0.0149859
0.0250267
-0.01567
0.024347
-0.0163354
0.023604
-0.016971
0.022787
-0.0175624
0.02189
-0.018098
0.020914
-0.0185844
0.0198622
-0.0190283
-0.0193829
0.0187453
0.0228818
0.00716983
-0.0224889
0.0232711
0.00710619
0.0236564
0.00703672
0.0240374
0.00696132
0.0244139
0.0068798
0.0247856
0.00679194
0.025152
0.00669749
0.025513
0.00659623
0.0258681
0.00648791
0.026217
0.0063723
0.0265595
0.00624915
0.0268951
0.00611822
0.0272236
0.00597924
0.0275444
0.00583198
0.0278573
0.00567614
0.0281618
0.00551146
0.0284575
0.00533763
0.0287439
0.00515436
0.0290205
0.00496137
0.029287
0.00475834
0.0295428
0.00454499
0.0297876
0.00432101
0.0300208
0.0040861
0.030242
0.00383996
0.0304507
0.00358229
0.0306465
0.0033128
0.0308288
0.00303119
0.0309973
0.00273718
0.0311515
0.0024305
0.0312908
0.00211086
0.0314149
0.00177802
0.0315232
0.00143173
0.0316152
0.00107177
0.0316906
0.000697905
0.0317488
0.000310245
0.0317895
-9.22563e-05
0.0318121
-0.000510224
0.0318162
-0.00094325
0.0318011
-0.00139138
0.0317665
-0.00185468
0.0317118
-0.00233316
0.0316366
-0.00282675
0.0315404
-0.00333536
0.0314226
-0.00385878
0.0312829
-0.00439678
0.0311206
-0.004949
0.0309353
-0.00551502
0.0307265
-0.0060943
0.0304938
-0.00668623
0.0302367
-0.00729007
0.0299549
-0.00790502
0.0296481
-0.00853022
0.0293164
-0.00916478
0.0289597
-0.0098078
0.0285785
-0.0104584
0.0281728
-0.0111156
0.0277424
-0.0117782
0.0272865
-0.0124447
0.0268028
-0.0131122
0.0262874
-0.0137769
0.0257343
-0.0144328
0.0251357
-0.0150714
0.0244828
-0.0156825
0.0237665
-0.0162548
0.0229805
-0.0167764
0.0221244
-0.0172419
0.0212032
-0.0176632
0.0202225
-0.0180476
-0.0183506
0.0191902
0.022643
0.00677722
-0.0222504
0.023032
0.00671721
0.023417
0.00665169
0.0237978
0.00658056
0.024174
0.00650362
0.0245452
0.00642067
0.0249113
0.00633146
0.0252717
0.00623578
0.0256263
0.00613337
0.0259746
0.00602401
0.0263162
0.00590746
0.026651
0.00578348
0.0269784
0.00565182
0.0272982
0.00551223
0.0276099
0.00536444
0.0279131
0.0052082
0.0282075
0.00504323
0.0284926
0.00486923
0.0287681
0.00468594
0.0290333
0.00449306
0.029288
0.0042903
0.0295317
0.00407735
0.0297639
0.00385393
0.0299841
0.00361974
0.0301919
0.00337448
0.0303868
0.00311785
0.0305685
0.00284956
0.0307363
0.00256933
0.0308899
0.00227688
0.0310289
0.00197194
0.0311526
0.00165424
0.0312608
0.00132354
0.031353
0.000979613
0.0314287
0.000622232
0.0314874
0.000251495
0.031529
-0.000133829
0.0315528
-0.000534039
0.0315584
-0.000948848
0.0315453
-0.00137833
0.0315132
-0.00182255
0.0314616
-0.00228153
0.03139
-0.00275522
0.0312982
-0.00324351
0.0311857
-0.00374623
0.031052
-0.00426314
0.0308969
-0.00479391
0.0307201
-0.00533815
0.0305211
-0.00589537
0.0302999
-0.00646501
0.0300563
-0.00704644
0.0297902
-0.00763897
0.0295019
-0.00824188
0.0291914
-0.00885436
0.0288592
-0.00947553
0.0285052
-0.0101044
0.0281291
-0.0107395
0.0277299
-0.0113791
0.0273056
-0.0120204
0.0268528
-0.0126594
0.0263668
-0.0132908
0.0258411
-0.0139071
0.0252686
-0.0144989
0.0246421
-0.015056
0.0239561
-0.0155688
0.0232097
-0.0160301
0.0224095
-0.0164416
0.0215648
-0.0168184
0.0206799
-0.0171627
-0.0173814
0.0197107
0.0224244
0.00638503
-0.0220322
0.022813
0.00632864
0.0231976
0.00626704
0.023578
0.00620013
0.0239539
0.00612774
0.0243249
0.00604967
0.0246907
0.00596568
0.0250509
0.00587557
0.0254052
0.00577909
0.0257532
0.00567602
0.0260945
0.00556612
0.0264288
0.00544916
0.0267558
0.00532489
0.0270749
0.00519306
0.027386
0.00505343
0.0276884
0.00490572
0.027982
0.00474967
0.0282662
0.00458502
0.0285407
0.00441148
0.028805
0.00422877
0.0290586
0.00403661
0.0293013
0.0038347
0.0295325
0.00362276
0.0297517
0.00340049
0.0299586
0.00316759
0.0301527
0.00292378
0.0303335
0.00266875
0.0305006
0.00240222
0.0306536
0.00212391
0.030792
0.00183354
0.0309154
0.00153084
0.0310233
0.00121558
0.0311155
0.000887484
0.0311913
0.000546374
0.0312505
0.000192276
0.0312929
-0.000176177
0.0313178
-0.000558964
0.0313249
-0.000955955
0.0313138
-0.00136725
0.0312842
-0.00179293
0.0312357
-0.00223303
0.031168
-0.00268752
0.0310808
-0.00315631
0.0309738
-0.00363926
0.0308469
-0.00413617
0.0306997
-0.00464677
0.0305323
-0.00517071
0.0303445
-0.00570758
0.0301364
-0.00625692
0.0299082
-0.00681819
0.0296599
-0.00739076
0.029392
-0.00797392
0.0291045
-0.00856682
0.0287973
-0.00916836
0.0284701
-0.00977714
0.0281217
-0.0103912
0.0277505
-0.0110079
0.0273536
-0.0116235
0.0269272
-0.012233
0.0264662
-0.0128298
0.0259648
-0.0134057
0.0254174
-0.0139515
0.0248198
-0.0144584
0.0241716
-0.0149206
0.0234788
-0.0153372
0.0227536
-0.0157164
0.0220074
-0.0160722
0.02124
-0.0163953
-0.0165775
0.0204361
0.0222272
0.00599298
-0.0218352
0.0226156
0.00594025
0.023
0.00588261
0.0233802
0.00581996
0.0237558
0.00575212
0.0241266
0.00567892
0.0244921
0.00560014
0.0248521
0.00551558
0.0252062
0.00542501
0.025554
0.00532821
0.0258951
0.00522497
0.0262293
0.00511504
0.026556
0.00499819
0.0268749
0.00487416
0.0271856
0.00474272
0.0274877
0.00460361
0.0277808
0.00445656
0.0280645
0.00430131
0.0283384
0.00413758
0.0286021
0.00396511
0.0288551
0.0037836
0.029097
0.00359277
0.0293274
0.00339234
0.0295459
0.00318201
0.029752
0.00296148
0.0299453
0.00273047
0.0301254
0.00248867
0.0302918
0.00223579
0.0304442
0.00197156
0.0305821
0.00169567
0.030705
0.00140787
0.0308127
0.00110788
0.0309048
0.000795446
0.0309807
0.000470396
0.0310404
0.000132638
0.0310834
-0.000219227
0.0311094
-0.00058495
0.031118
-0.000964556
0.0311089
-0.00135818
0.0310819
-0.00176591
0.0310367
-0.00218783
0.0309731
-0.00262394
0.030891
-0.00307419
0.0307903
-0.00353851
0.0306708
-0.00401672
0.0305327
-0.00450864
0.030376
-0.00501397
0.0302007
-0.00553238
0.0300073
-0.00606343
0.0297957
-0.0066066
0.0295661
-0.00716123
0.0293187
-0.0077265
0.0290532
-0.00830133
0.0287692
-0.0088843
0.0284656
-0.00947355
0.0281409
-0.0100665
0.027793
-0.0106599
0.0274186
-0.0112491
0.0270138
-0.0118283
0.0265744
-0.0123903
0.0260958
-0.0129272
0.0255754
-0.0134311
0.0250139
-0.0138969
0.0244176
-0.0143244
0.0237991
-0.0147187
0.0231726
-0.01509
0.0225385
-0.0154381
0.0218619
-0.0157186
-0.0157656
0.02105
0.0220528
0.00560092
-0.0216608
0.0224413
0.00555181
0.0228258
0.00549812
0.023206
0.00543974
0.0235816
0.0053765
0.0239523
0.00530821
0.0243178
0.00523466
0.0246777
0.00515567
0.0250317
0.00507102
0.0253794
0.0049805
0.0257204
0.00488391
0.0260545
0.00478102
0.0263811
0.00467159
0.0266998
0.00455538
0.0270104
0.00443216
0.0273123
0.00430166
0.0276053
0.00416364
0.0278887
0.00401784
0.0281623
0.00386398
0.0284256
0.00370178
0.0286783
0.00353098
0.0289198
0.00335128
0.0291497
0.0031624
0.0293677
0.00296405
0.0295732
0.00275592
0.029766
0.00253772
0.0299455
0.00230915
0.0301114
0.00206991
0.0302632
0.00181971
0.0304006
0.00155825
0.0305233
0.00128524
0.0306307
0.0010004
0.0307227
0.000703459
0.0307989
0.000394255
0.030859
7.25047e-05
0.0309028
-0.000263042
0.03093
-0.000612105
0.0309402
-0.000974813
0.0309334
-0.00135134
0.0309093
-0.00174183
0.0308679
-0.00214639
0.030809
-0.00256508
0.0307328
-0.00299791
0.0306391
-0.00344483
0.0305281
-0.00390574
0.0303999
-0.00438047
0.0302547
-0.00486876
0.0300926
-0.00537029
0.0299138
-0.00588458
0.0297182
-0.00641106
0.0295059
-0.00694894
0.0292766
-0.0074972
0.0290298
-0.00805453
0.0287647
-0.00861915
0.0284799
-0.0091888
0.0281737
-0.00976036
0.0278438
-0.0103299
0.027487
-0.0108923
0.0271002
-0.0114414
0.0266803
-0.0119705
0.0262261
-0.0124729
0.0257397
-0.0129446
0.0252285
-0.0133857
0.0247063
-0.0138022
0.0241895
-0.0142019
0.023686
-0.0145864
0.0231732
-0.0149254
0.022579
-0.0151244
-0.014987
0.0218005
0.0219033
0.00520873
-0.0215111
0.0222919
0.00516321
0.0226765
0.00511344
0.023057
0.00505931
0.0234328
0.00500065
0.0238038
0.00493727
0.0241695
0.00486897
0.0245296
0.00479557
0.0248837
0.00471687
0.0252315
0.00463266
0.0255727
0.00454274
0.0259068
0.0044469
0.0262335
0.00434491
0.0265523
0.00423655
0.0268629
0.00412156
0.0271649
0.00399971
0.0274578
0.00387075
0.0277412
0.00373443
0.0280147
0.00359046
0.0282779
0.00343859
0.0285303
0.00327854
0.0287716
0.00311001
0.0290013
0.00293272
0.029219
0.00274638
0.0294242
0.00255068
0.0296166
0.00234531
0.0297958
0.00212998
0.0299613
0.00190436
0.0301129
0.00166816
0.0302501
0.00142105
0.0303726
0.00116274
0.03048
0.000892927
0.0305722
0.000611293
0.0306488
0.000317696
0.0307097
1.15947e-05
0.0307546
-0.000307965
0.0307833
-0.000640825
0.0307957
-0.000987189
0.0307916
-0.00134728
0.0307711
-0.00172128
0.030734
-0.00210934
0.0306805
-0.00251156
0.0306106
-0.00292797
0.0305243
-0.00335858
0.0304219
-0.00380328
0.0303033
-0.00426192
0.0301688
-0.00473422
0.0300183
-0.00521981
0.0298519
-0.00571816
0.0296694
-0.00622857
0.0294706
-0.00675013
0.029255
-0.00728161
0.0290219
-0.00782147
0.0287704
-0.00836759
0.0284989
-0.00891735
0.0282057
-0.00946717
0.0278886
-0.0100129
0.0275454
-0.010549
0.0271743
-0.0110704
0.0267755
-0.0115717
0.0263528
-0.0120502
0.0259154
-0.0125072
0.0254783
-0.0129487
0.0250597
-0.0133836
0.0246696
-0.0138118
0.0242902
-0.0142071
0.0238538
-0.0144889
0.0232409
-0.0145115
-0.0140906
0.0223445
0.021781
0.00481615
-0.0213884
0.02217
0.00477422
0.022555
0.00472836
0.0229359
0.00467846
0.0233122
0.00462436
0.0236836
0.00456587
0.0240497
0.00450282
0.0244103
0.00443501
0.0247649
0.00436226
0.0251132
0.00428437
0.0254548
0.00420115
0.0257893
0.00411239
0.0261163
0.00401787
0.0264355
0.00391737
0.0267464
0.00381065
0.0270487
0.00369748
0.0273418
0.00357762
0.0276254
0.0034508
0.0278991
0.00331677
0.0281624
0.00317526
0.028415
0.00302598
0.0286563
0.00286866
0.0288861
0.00270299
0.0291038
0.00252868
0.029309
0.00234542
0.0295015
0.00215289
0.0296807
0.00195077
0.0298463
0.00173875
0.029998
0.00151648
0.0301354
0.00128365
0.0302582
0.00103992
0.0303662
0.000784964
0.030459
0.000518448
0.0305365
0.000240198
0.0305987
-5.05702e-05
0.0306452
-0.000354484
0.0306759
-0.000671551
0.0306908
-0.00100204
0.0306897
-0.00134621
0.0306727
-0.00170428
0.0306398
-0.00207644
0.030591
-0.0024628
0.0305265
-0.00286344
0.0304463
-0.00327834
0.0303504
-0.00370743
0.030239
-0.00415051
0.0301121
-0.00460728
0.0299696
-0.00507731
0.0298114
-0.00555997
0.0296373
-0.00605447
0.0294469
-0.00655972
0.0292396
-0.00707434
0.0290147
-0.00759651
0.0287709
-0.00812385
0.028507
-0.00865347
0.0282215
-0.00918162
0.027913
-0.00970434
0.0275811
-0.0102171
0.0272276
-0.0107169
0.0268582
-0.0112023
0.0264841
-0.0116761
0.0261221
-0.0121452
0.0257914
-0.012618
0.0255025
-0.0130946
0.0252376
-0.0135469
0.0249285
-0.0138981
0.0244541
-0.0140146
0.0236819
-0.0137393
-0.0129514
0.0225427
0.0216886
0.00442285
-0.0212953
0.0220783
0.0043845
0.0224641
0.00434254
0.0228457
0.00429686
0.0232228
0.0042473
0.0235949
0.00419369
0.0239619
0.00413587
0.0243233
0.00407364
0.0246787
0.00400683
0.0250278
0.00393526
0.0253702
0.00385874
0.0257056
0.00377706
0.0260334
0.00369001
0.0263534
0.00359739
0.0266651
0.00349896
0.0269681
0.00339448
0.027262
0.00328373
0.0275463
0.00316644
0.0278207
0.00304236
0.0280848
0.00291121
0.0283381
0.00277272
0.0285801
0.00262659
0.0288106
0.00247254
0.029029
0.00231026
0.029235
0.00213943
0.0294281
0.00195973
0.0296081
0.00177082
0.0297745
0.00157237
0.0299269
0.00136402
0.0300652
0.00114542
0.0301889
0.000916228
0.0302978
0.000676068
0.0303916
0.000424609
0.0304702
0.000161594
0.0305335
-0.000113924
0.0305814
-0.000402287
0.0306135
-0.000703682
0.0306299
-0.00101843
0.0306305
-0.00134683
0.0306154
-0.00168914
0.0305845
-0.00204557
0.030538
-0.00241627
0.0304758
-0.00280132
0.0303982
-0.00320072
0.0303051
-0.00361436
0.0301967
-0.00404203
0.0300728
-0.00448338
0.0299333
-0.00493788
0.0297782
-0.00540484
0.029607
-0.00588332
0.0294194
-0.00637208
0.0292146
-0.00686956
0.0289918
-0.00737372
0.02875
-0.00788207
0.0284883
-0.00839175
0.0282063
-0.00889956
0.0279048
-0.0094029
0.0275875
-0.0098998
0.0272622
-0.0103917
0.0269422
-0.0108823
0.0266465
-0.0113804
0.0263945
-0.0118932
0.0261947
-0.0124182
0.0260249
-0.0129248
0.0258115
-0.0133335
0.0254293
-0.0135159
0.0247424
-0.0133277
0.0236721
-0.012669
-0.0115201
0.0222409
0.0216302
0.00402829
-0.0212356
0.0220212
0.0039935
0.0224083
0.00395542
0.0227912
0.00391393
0.0231696
0.00386888
0.0235432
0.00382013
0.0239116
0.00376751
0.0242744
0.00371083
0.0246313
0.00364994
0.0249818
0.00358466
0.0253258
0.00351481
0.0256627
0.00344019
0.0259921
0.00336059
0.0263136
0.00327582
0.0266269
0.00318565
0.0269316
0.00308986
0.0272271
0.0029882
0.0275131
0.00288043
0.0277892
0.00276629
0.0280549
0.00264551
0.0283098
0.00251783
0.0285534
0.00238295
0.0287854
0.00224057
0.0290052
0.00209039
0.0292126
0.00193208
0.029407
0.0017653
0.0295881
0.00158972
0.0297555
0.00140498
0.0299088
0.00121071
0.0300477
0.00100654
0.0301718
0.000792086
0.030281
0.000566951
0.0303748
0.00033079
0.0304532
8.32044e-05
0.030516
-0.000176769
0.0305631
-0.000449336
0.0305942
-0.000734835
0.0306094
-0.00103364
0.0306087
-0.00134608
0.030592
-0.00167247
0.0305595
-0.00201303
0.0305111
-0.00236795
0.0304471
-0.00273732
0.0303676
-0.00312112
0.0302724
-0.00351924
0.0301618
-0.00393141
0.0300356
-0.00435722
0.0298938
-0.00479606
0.0297361
-0.00524711
0.0295621
-0.00570931
0.0293713
-0.00618126
0.029163
-0.00666127
0.0289365
-0.00714729
0.0286916
-0.00763717
0.0284288
-0.0081289
0.0281504
-0.00862116
0.0278619
-0.00911447
0.0275737
-0.00961156
0.0273013
-0.0101193
0.0270649
-0.0106458
0.0268825
-0.011198
0.0267577
-0.0117684
0.0266584
-0.0123189
0.0264998
-0.0127662
0.0261506
-0.0129844
0.0254781
-0.0128434
0.0244125
-0.012262
0.0229759
-0.0112325
-0.00980336
0.0212591
0.0216123
0.00363177
-0.0212158
0.0220053
0.00360047
0.0223946
0.00356619
0.0227797
0.00352882
0.0231603
0.00348823
0.0235362
0.00344427
0.0239069
0.00339677
0.0242722
0.0033456
0.0246315
0.00329057
0.0249847
0.00323153
0.0253312
0.0031683
0.0256706
0.0031007
0.0260027
0.00302854
0.0263269
0.00295162
0.0266428
0.00286972
0.0269501
0.00278264
0.0272481
0.00269014
0.0275366
0.00259198
0.027815
0.0024879
0.0280828
0.00237765