/*--------------------------------*- C++ -*----------------------------------*\
| =========                 |                                                 |
| \\      /  F ield         | OpenFOAM: The Open Source CFD Toolbox           |
|  \\    /   O peration     | Version:  2312                                  |
|   \\  /    A nd           | Website:  www.openfoam.com                      |
|    \\/     M anipulation  |                                                 |
\*---------------------------------------------------------------------------*/
FoamFile
{
    version     2.0;
    format      ascii;
    arch        "LSB;label=32;scalar=64";
    class       volVectorField;
    location    "500";
    object      U;
}
// * * * * * * * * * * * * * * * * * * * * * * * * * * * * * * * * * * * * * //

dimensions      [0 1 -1 0 0 0 0];

internalField   nonuniform List<vector> 
76025
(
(0.933191 -0.123149 0)
(0.937077 -0.124783 1.51851e-20)
(0.941062 -0.126334 0)
(0.945093 -0.127791 0)
(0.949106 -0.129136 -2.61122e-20)
(0.953236 -0.130296 -4.80692e-20)
(0.957351 -0.131451 8.17291e-20)
(0.961554 -0.13238 -3.41302e-20)
(0.965694 -0.133275 -1.02481e-20)
(0.969881 -0.134016 9.56052e-21)
(0.974038 -0.134642 2.02887e-22)
(0.978238 -0.135099 2.37671e-20)
(0.982463 -0.135491 -3.19187e-20)
(0.986684 -0.135682 0)
(0.990962 -0.135701 6.19505e-21)
(0.995163 -0.135736 0)
(0.999397 -0.135463 0)
(1.00363 -0.135225 0)
(1.00782 -0.134757 4.13032e-21)
(1.01193 -0.13431 -3.01198e-21)
(1.01602 -0.133605 -2.38813e-21)
(1.02015 -0.132815 -5.82912e-21)
(1.0242 -0.131833 3.51117e-21)
(1.0282 -0.130714 1.77127e-21)
(1.03213 -0.129551 -1.1195e-21)
(1.036 -0.128308 -1.68119e-21)
(1.03985 -0.126746 2.74765e-21)
(1.04355 -0.125181 -3.09588e-21)
(1.0472 -0.123452 1.45033e-21)
(1.05083 -0.121413 -1.90448e-21)
(1.05419 -0.119716 -2.5073e-21)
(1.05733 -0.11794 7.22604e-21)
(1.06038 -0.115768 -1.13258e-20)
(1.06328 -0.113683 -2.31846e-21)
(1.06608 -0.111363 1.205e-20)
(1.06868 -0.109139 1.91903e-22)
(1.07117 -0.10689 -2.46832e-21)
(1.07345 -0.104521 1.52813e-21)
(1.07546 -0.102213 2.3838e-22)
(1.07726 -0.0997812 -2.16299e-21)
(1.07885 -0.0974339 1.46829e-21)
(1.08031 -0.0951734 -6.84546e-22)
(1.08141 -0.0927931 1.35517e-21)
(1.0822 -0.090474 -2.68416e-21)
(1.08279 -0.0881622 -2.83359e-21)
(1.0832 -0.0860441 4.86869e-21)
(1.08327 -0.0840032 5.21502e-21)
(1.08299 -0.0819771 -1.55823e-20)
(1.08251 -0.080102 8.5212e-21)
(1.08186 -0.0784603 -1.21889e-21)
(1.08095 -0.077008 -1.99226e-20)
(1.07974 -0.0758105 -6.09466e-21)
(1.07816 -0.0749169 6.73834e-21)
(1.07621 -0.0743164 0)
(1.07382 -0.0739189 -2.58642e-21)
(1.0712 -0.0738597 -2.73727e-21)
(1.06815 -0.0742593 -3.89231e-23)
(1.06465 -0.0751349 4.50795e-22)
(1.06078 -0.0767191 -4.20733e-21)
(1.05627 -0.079147 1.59486e-20)
(1.05096 -0.0823175 1.3443e-20)
(1.04496 -0.0862906 -2.53205e-21)
(1.03827 -0.0912425 0)
(1.03117 -0.0975426 -7.82559e-20)
(1.02337 -0.105353 3.90616e-20)
(1.01606 -0.114397 -1.97576e-20)
(1.00985 -0.127126 4.99388e-20)
(1.00329 -0.143096 -5.44081e-20)
(0.993675 -0.159854 -1.23191e-19)
(0.930467 -0.130405 1.63893e-20)
(0.934609 -0.132097 4.57439e-20)
(0.93881 -0.13368 -6.09826e-20)
(0.94307 -0.135135 0)
(0.947348 -0.136492 6.57092e-20)
(0.951726 -0.137702 -2.73336e-21)
(0.956104 -0.138797 -4.908e-20)
(0.960516 -0.139759 0)
(0.964954 -0.140588 1.35708e-22)
(0.969399 -0.141294 -9.8039e-21)
(0.973857 -0.141863 9.09957e-21)
(0.978311 -0.142289 2.48417e-22)
(0.982749 -0.142588 0)
(0.987187 -0.142746 0)
(0.991639 -0.142727 1.10919e-20)
(0.99605 -0.142614 -2.87388e-20)
(1.00049 -0.142315 -4.59952e-21)
(1.00487 -0.141918 1.15708e-20)
(1.00926 -0.141343 -7.6675e-21)
(1.01356 -0.140677 3.08167e-21)
(1.01786 -0.139848 -1.27133e-21)
(1.02209 -0.138888 3.72542e-21)
(1.02625 -0.137784 -1.1896e-21)
(1.03034 -0.136539 5.64948e-22)
(1.03438 -0.135161 3.99481e-23)
(1.03834 -0.133677 3.04239e-21)
(1.04224 -0.132042 -2.46441e-21)
(1.04601 -0.130298 0)
(1.04968 -0.128437 0)
(1.05325 -0.126459 -3.70915e-21)
(1.05667 -0.124426 0)
(1.05996 -0.122283 -4.81739e-21)
(1.06308 -0.120012 5.03842e-21)
(1.06603 -0.117642 -8.02347e-21)
(1.06883 -0.115183 5.14398e-22)
(1.07148 -0.112648 -2.88359e-21)
(1.07397 -0.110073 0)
(1.07621 -0.107533 -6.82063e-21)
(1.07822 -0.104947 5.26801e-21)
(1.08002 -0.102334 -4.25689e-21)
(1.08162 -0.0997091 2.62178e-21)
(1.08301 -0.0970883 2.13334e-23)
(1.08412 -0.0945515 9.28934e-22)
(1.08495 -0.0919922 -8.62088e-22)
(1.08556 -0.0894851 7.00782e-21)
(1.08595 -0.0870358 -3.50391e-21)
(1.08605 -0.0847218 -3.66563e-21)
(1.08585 -0.0824718 5.61842e-21)
(1.08539 -0.0803242 1.70762e-20)
(1.08468 -0.0783354 -5.87878e-22)
(1.08367 -0.0765455 1.43545e-20)
(1.08231 -0.0749925 -4.15469e-21)
(1.08058 -0.0736895 -9.92919e-21)
(1.07844 -0.0726352 7.04122e-21)
(1.07588 -0.0718731 0)
(1.0729 -0.0714285 1.00367e-20)
(1.06947 -0.0714257 -1.70681e-21)
(1.06552 -0.0718879 -1.00749e-21)
(1.06104 -0.0729185 9.82775e-22)
(1.05594 -0.07467 0)
(1.05008 -0.0771864 -6.23321e-21)
(1.04349 -0.0806014 -2.6298e-20)
(1.03614 -0.0848888 0)
(1.02827 -0.0904007 3.01976e-20)
(1.02007 -0.0974662 -1.71112e-20)
(1.01229 -0.106363 4.19987e-20)
(1.00496 -0.117846 -2.23171e-20)
(0.998224 -0.131664 5.5664e-20)
(0.989961 -0.146913 6.19562e-20)
(0.927572 -0.138066 -8.22042e-20)
(0.931978 -0.139793 4.95515e-20)
(0.936436 -0.14141 -1.52713e-20)
(0.940945 -0.142888 5.63114e-20)
(0.945499 -0.144238 -6.96208e-20)
(0.950105 -0.145456 -4.98818e-20)
(0.954753 -0.146535 6.16257e-20)
(0.959436 -0.147475 0)
(0.964148 -0.14827 1.88692e-22)
(0.968875 -0.148921 0)
(0.973609 -0.149426 -8.76439e-21)
(0.97834 -0.149785 8.28955e-21)
(0.98306 -0.149994 3.53035e-20)
(0.987763 -0.150057 -2.8044e-20)
(0.992451 -0.149963 6.09369e-21)
(0.997118 -0.149717 1.49686e-20)
(1.00176 -0.149322 -4.92281e-21)
(1.00638 -0.148773 -3.96096e-21)
(1.01095 -0.148075 -7.9473e-21)
(1.01549 -0.147223 5.28058e-21)
(1.01996 -0.146226 1.23036e-21)
(1.02437 -0.145084 -1.12094e-21)
(1.02869 -0.143795 1.29644e-21)
(1.03295 -0.142357 -8.58364e-22)
(1.03712 -0.140777 0)
(1.04121 -0.139062 2.19974e-21)
(1.04518 -0.137223 2.52203e-21)
(1.04905 -0.135251 -1.91348e-21)
(1.0528 -0.133151 0)
(1.05643 -0.130938 8.49057e-21)
(1.05994 -0.128606 -5.33453e-21)
(1.06329 -0.126166 -1.04559e-21)
(1.06647 -0.123628 0)
(1.06949 -0.120976 2.95528e-21)
(1.07234 -0.118232 -1.03568e-20)
(1.07501 -0.115393 7.24333e-21)
(1.07747 -0.112553 0)
(1.07972 -0.109711 5.86024e-21)
(1.08174 -0.106829 -6.12704e-21)
(1.08354 -0.103921 -9.49691e-22)
(1.08512 -0.101003 0)
(1.08646 -0.0981033 -2.05831e-21)
(1.08754 -0.0952374 -1.02108e-21)
(1.08837 -0.0923785 8.55057e-22)
(1.08894 -0.0895612 -5.67611e-21)
(1.08925 -0.0868122 -4.15032e-21)
(1.08928 -0.0841629 6.95851e-21)
(1.08901 -0.081598 -7.04436e-21)
(1.08845 -0.0791394 7.30604e-21)
(1.08758 -0.0768298 -6.57949e-21)
(1.08638 -0.074702 -5.46796e-21)
(1.08481 -0.0727816 1.19672e-20)
(1.08284 -0.0710843 0)
(1.08044 -0.0696318 9.49571e-21)
(1.07758 -0.0684519 1.78688e-21)
(1.07424 -0.0675908 -4.82354e-21)
(1.07039 -0.0671226 -2.83171e-21)
(1.06597 -0.0671048 3.6769e-21)
(1.06094 -0.0676251 -1.86395e-21)
(1.05524 -0.0687915 -1.38294e-21)
(1.04878 -0.0706654 7.60554e-21)
(1.04153 -0.0733351 4.02388e-21)
(1.0336 -0.0769618 -3.07438e-21)
(1.02521 -0.0817919 1.16464e-20)
(1.01668 -0.0881514 1.59596e-20)
(1.00856 -0.0963118 5.5422e-20)
(1.00057 -0.106837 0)
(0.992771 -0.119524 2.86165e-20)
(0.982713 -0.134156 -2.73218e-20)
(0.924505 -0.146191 0)
(0.929223 -0.147946 1.63744e-20)
(0.933991 -0.149585 7.6182e-20)
(0.938796 -0.151077 -6.03035e-20)
(0.943641 -0.152425 -3.98632e-20)
(0.948525 -0.153633 6.63038e-20)
(0.95345 -0.154692 -1.21635e-20)
(0.95841 -0.155597 1.11489e-20)
(0.963397 -0.156347 1.05209e-20)
(0.968402 -0.156941 3.67325e-20)
(0.973417 -0.157377 -3.62838e-20)
(0.978434 -0.157655 -3.01441e-20)
(0.983446 -0.157771 9.31065e-21)
(0.988441 -0.157725 2.52507e-20)
(0.993413 -0.157517 -1.7065e-20)
(0.998356 -0.157144 4.43636e-21)
(1.00326 -0.15661 -3.63135e-21)
(1.00812 -0.155913 -2.83544e-21)
(1.01293 -0.155057 6.74804e-21)
(1.01767 -0.15404 -2.76838e-21)
(1.02236 -0.152864 -1.24604e-21)
(1.02697 -0.15153 0)
(1.03149 -0.150038 2.64689e-21)
(1.03593 -0.148391 -9.67266e-22)
(1.04027 -0.146596 -4.63133e-21)
(1.04451 -0.144657 -6.72713e-21)
(1.04863 -0.142578 1.2768e-20)
(1.05262 -0.140359 -8.07285e-21)
(1.05649 -0.138009 0)
(1.06022 -0.135533 -1.06451e-20)
(1.0638 -0.13294 -7.99082e-22)
(1.06721 -0.130237 1.22156e-20)
(1.07046 -0.127427 -7.34261e-21)
(1.07352 -0.124513 1.94534e-20)
(1.0764 -0.121505 -3.5474e-21)
(1.07909 -0.118403 0)
(1.08156 -0.115294 0)
(1.08382 -0.112156 2.46383e-21)
(1.08585 -0.108982 2.18396e-21)
(1.08766 -0.105784 1.26234e-21)
(1.08922 -0.102576 -3.96261e-23)
(1.09054 -0.0993737 1.11146e-21)
(1.0916 -0.0961881 0)
(1.09239 -0.0930256 -3.07098e-22)
(1.09291 -0.089904 0)
(1.09315 -0.0868416 3.84086e-21)
(1.09309 -0.083855 -8.70828e-23)
(1.09273 -0.080954 -1.32633e-20)
(1.09204 -0.0781563 0)
(1.09101 -0.0754899 -7.40983e-21)
(1.08963 -0.0729797 7.32284e-21)
(1.08785 -0.0706503 -1.21196e-20)
(1.08564 -0.0685224 0)
(1.08298 -0.0666227 -3.14449e-20)
(1.07982 -0.0649805 1.70732e-21)
(1.07614 -0.0636401 8.57699e-21)
(1.07191 -0.0626543 6.67605e-21)
(1.06706 -0.0620846 0)
(1.06156 -0.061999 0)
(1.05533 -0.0624868 1.40166e-21)
(1.04834 -0.0636296 -7.70499e-21)
(1.04061 -0.0655485 -1.30228e-20)
(1.0323 -0.0684075 0)
(1.02362 -0.0724354 2.08634e-20)
(1.01492 -0.0779647 0)
(1.00643 -0.0852174 -5.7638e-20)
(0.997522 -0.0945731 1.9395e-20)
(0.988155 -0.105971 2.69481e-20)
(0.976181 -0.119128 2.81759e-20)
(0.92129 -0.154849 0)
(0.926325 -0.156627 0)
(0.931419 -0.158281 1.58427e-20)
(0.936551 -0.159781 -5.7942e-20)
(0.94172 -0.161126 7.15487e-20)
(0.946927 -0.162317 -1.31074e-20)
(0.952163 -0.16335 0)
(0.957422 -0.164217 -1.132e-20)
(0.962701 -0.164917 0)
(0.967999 -0.165447 -1.79995e-20)
(0.973306 -0.165808 2.07604e-21)
(0.978615 -0.165997 1.61723e-20)
(0.983917 -0.166014 0)
(0.989202 -0.165857 -1.10003e-20)
(0.994463 -0.165525 3.03735e-20)
(0.999689 -0.165018 -1.74848e-20)
(1.00487 -0.164336 1.72286e-20)
(1.01 -0.163479 -3.0633e-21)
(1.01507 -0.162451 1.35378e-21)
(1.02007 -0.161251 -1.29191e-21)
(1.02499 -0.159882 2.19689e-22)
(1.02982 -0.158344 -1.61614e-21)
(1.03456 -0.156641 -2.89964e-21)
(1.0392 -0.154775 0)
(1.04373 -0.152751 6.58523e-21)
(1.04814 -0.150575 4.61235e-21)
(1.05243 -0.148249 -1.19623e-20)
(1.05657 -0.145777 4.57967e-21)
(1.06057 -0.143166 -1.22053e-20)
(1.06442 -0.140423 1.81977e-20)
(1.0681 -0.137554 -7.75733e-21)
(1.0716 -0.134566 4.20896e-21)
(1.07493 -0.131465 0)
(1.07806 -0.128257 -4.18288e-21)
(1.08099 -0.124949 -4.4652e-21)
(1.08372 -0.121539 0)
(1.08622 -0.118116 5.55817e-21)
(1.0885 -0.114656 -7.8516e-21)
(1.09054 -0.111161 5.29345e-21)
(1.09233 -0.107641 -2.71766e-21)
(1.09388 -0.104109 -5.06675e-23)
(1.09516 -0.100576 -2.13111e-21)
(1.09618 -0.0970544 6.73277e-22)
(1.09691 -0.0935564 2.51646e-21)
(1.09736 -0.0900939 3.71549e-22)
(1.09752 -0.0866816 1.55406e-20)
(1.09736 -0.0833349 0)
(1.09687 -0.0800688 9.11407e-21)
(1.09604 -0.0768989 -8.44031e-22)
(1.09484 -0.0738457 -9.08165e-21)
(1.09326 -0.0709299 0)
(1.09127 -0.0681736 -7.6078e-21)
(1.08883 -0.065598 7.5239e-21)
(1.08591 -0.0632281 1.19867e-20)
(1.08247 -0.0610918 0)
(1.07849 -0.0592273 -1.80163e-20)
(1.07391 -0.0576794 1.6332e-20)
(1.06869 -0.0565021 -1.24045e-20)
(1.06278 -0.0557575 -2.52634e-22)
(1.05613 -0.0555253 0)
(1.04876 -0.0558993 2.07807e-21)
(1.04074 -0.0570109 -4.83584e-21)
(1.03225 -0.0590343 -5.20387e-21)
(1.02348 -0.0621874 -2.09145e-20)
(1.01465 -0.0667658 3.68315e-20)
(1.00558 -0.0729054 -3.175e-20)
(0.995477 -0.0809168 1.72758e-20)
(0.984201 -0.0909164 -1.77916e-20)
(0.969984 -0.102179 -7.96113e-20)
(0.917998 -0.164109 -7.02229e-20)
(0.923332 -0.165907 3.59476e-21)
(0.928743 -0.167571 6.62706e-20)
(0.934205 -0.169071 0)
(0.93971 -0.170405 -1.41537e-20)
(0.945256 -0.171575 0)
(0.950833 -0.172573 2.33404e-20)
(0.956429 -0.173396 -1.83956e-21)
(0.962038 -0.174039 -3.13081e-20)
(0.967656 -0.174499 9.02938e-21)
(0.973278 -0.174776 8.46547e-21)
(0.978896 -0.174868 7.07832e-21)
(0.984503 -0.174774 0)
(0.990089 -0.174493 0)
(0.995644 -0.174026 -4.83814e-21)
(1.00116 -0.173371 -3.9565e-21)
(1.00663 -0.172528 4.62462e-21)
(1.01204 -0.171499 -4.62279e-21)
(1.01739 -0.170283 -1.93888e-21)
(1.02266 -0.168885 -5.84645e-22)
(1.02784 -0.167305 1.96143e-21)
(1.03292 -0.165547 7.1805e-22)
(1.0379 -0.163613 -4.92392e-21)
(1.04276 -0.161506 -3.73644e-21)
(1.0475 -0.15923 -8.74162e-21)
(1.05211 -0.156792 8.77007e-21)
(1.05657 -0.154194 1.17947e-20)
(1.06088 -0.151444 -1.18518e-20)
(1.06503 -0.148546 0)
(1.06901 -0.145509 0)
(1.07281 -0.142338 2.11383e-20)
(1.07642 -0.13904 1.2748e-21)
(1.07984 -0.135623 -9.5016e-21)
(1.08304 -0.132096 -1.06902e-20)
(1.08604 -0.128462 1.0805e-20)
(1.08881 -0.124725 0)
(1.09135 -0.120973 -5.5927e-21)
(1.09364 -0.117181 -9.35803e-21)
(1.09568 -0.113351 6.04923e-21)
(1.09747 -0.109495 -1.87234e-22)
(1.09899 -0.105623 -4.82447e-22)
(1.10023 -0.101746 2.23002e-21)
(1.1012 -0.0978772 1.63749e-21)
(1.10187 -0.0940271 3.04956e-21)
(1.10224 -0.0902075 -1.46826e-20)
(1.1023 -0.0864317 3.62369e-22)
(1.10203 -0.0827132 0)
(1.10141 -0.0790657 -1.19508e-20)
(1.10044 -0.075503 3.23403e-20)
(1.09908 -0.0720415 -2.16271e-20)
(1.09733 -0.0686985 -9.62544e-21)
(1.09514 -0.0654929 -5.04447e-22)
(1.09248 -0.062444 -7.32142e-21)
(1.08934 -0.059574 1.29046e-21)
(1.08566 -0.0569085 1.5082e-20)
(1.08142 -0.0544793 -1.41763e-20)
(1.07656 -0.0523239 -9.9505e-21)
(1.07104 -0.0504888 1.77047e-20)
(1.06483 -0.0490327 -2.3128e-21)
(1.05792 -0.0480338 3.14277e-21)
(1.05037 -0.0475936 -3.10021e-21)
(1.04228 -0.0478495 -2.13023e-21)
(1.03381 -0.0489643 1.00389e-20)
(1.02503 -0.0511336 8.47851e-21)
(1.01593 -0.0545918 -1.88594e-20)
(1.00599 -0.0594025 1.18752e-20)
(0.994399 -0.065852 4.86912e-20)
(0.980981 -0.0742303 2.49068e-20)
(0.964409 -0.0832716 0)
(0.914701 -0.174023 0)
(0.920335 -0.175837 -1.7478e-20)
(0.926055 -0.177505 -2.43395e-23)
(0.931838 -0.178997 0)
(0.937676 -0.180311 0)
(0.943565 -0.181448 -1.30417e-20)
(0.94949 -0.182404 3.51461e-20)
(0.95544 -0.18317 -4.41741e-20)
(0.961403 -0.183744 2.13659e-20)
(0.967372 -0.184122 -9.16833e-21)
(0.97334 -0.184304 0)
(0.979296 -0.184287 -7.18384e-21)
(0.985234 -0.18407 5.62165e-21)
(0.991145 -0.183653 0)
(0.997019 -0.183035 0)
(1.00285 -0.182217 -2.4335e-21)
(1.00862 -0.181198 1.89719e-21)
(1.01433 -0.17998 3.11861e-21)
(1.01996 -0.178563 2.83364e-22)
(1.02551 -0.176949 6.11177e-22)
(1.03096 -0.17514 1.20742e-21)
(1.03631 -0.173141 1.11952e-20)
(1.04153 -0.170955 9.4052e-22)
(1.04663 -0.168584 -5.67329e-21)
(1.05159 -0.166035 9.47283e-21)
(1.0564 -0.163311 -6.13154e-21)
(1.06105 -0.160421 1.28166e-20)
(1.06554 -0.157369 0)
(1.06985 -0.154162 0)
(1.07398 -0.150807 0)
(1.07791 -0.147312 -4.61007e-21)
(1.08163 -0.143685 -1.01928e-20)
(1.08514 -0.139934 1.1026e-20)
(1.08843 -0.136069 1.22871e-20)
(1.09149 -0.132093 -1.24143e-20)
(1.09431 -0.128016 0)
(1.09688 -0.123918 6.87134e-21)
(1.09919 -0.119776 -3.53429e-21)
(1.10123 -0.115593 0)
(1.10301 -0.11138 3.51135e-21)
(1.10451 -0.107147 -6.49007e-22)
(1.10571 -0.102907 4.35897e-22)
(1.10663 -0.0986691 -1.65014e-21)
(1.10723 -0.0944461 0)
(1.10752 -0.0902486 -6.81498e-21)
(1.10749 -0.0860883 6.73217e-21)
(1.10711 -0.0819769 0)
(1.10638 -0.0779263 -6.13977e-22)
(1.10527 -0.0739485 8.63299e-22)
(1.10377 -0.070057 1.12078e-20)
(1.10185 -0.0662658 0)
(1.0995 -0.06259 -1.53173e-21)
(1.09667 -0.0590458 -9.48046e-21)
(1.09335 -0.055651 -2.86113e-20)
(1.08948 -0.0524266 -9.31904e-22)
(1.08504 -0.0493974 1.43036e-20)
(1.07998 -0.0465955 0)
(1.07427 -0.0440624 0)
(1.06792 -0.0418572 1.13125e-20)
(1.06095 -0.0400578 0)
(1.05343 -0.0387664 0)
(1.04548 -0.0381112 -3.10528e-21)
(1.03711 -0.0382273 -6.22717e-22)
(1.02826 -0.0392767 7.45864e-21)
(1.01864 -0.041422 -1.03664e-20)
(1.00752 -0.0446827 -6.60963e-21)
(0.994228 -0.049371 -1.46858e-20)
(0.978563 -0.0559367 -1.52843e-20)
(0.959878 -0.0626346 0)
(0.911406 -0.184648 0)
(0.917375 -0.186476 1.77524e-20)
(0.923428 -0.188145 -4.87639e-20)
(0.929544 -0.189624 1.65619e-20)
(0.935718 -0.190911 0)
(0.941948 -0.192008 3.84341e-20)
(0.948223 -0.192909 -6.00973e-20)
(0.954528 -0.193607 2.1296e-21)
(0.96085 -0.194098 4.89606e-20)
(0.967181 -0.194382 -9.97845e-21)
(0.973512 -0.194455 7.2579e-21)
(0.979831 -0.194316 6.14016e-21)
(0.986127 -0.193963 -1.54298e-20)
(0.99239 -0.193394 1.73115e-20)
(0.998607 -0.192611 -7.58829e-21)
(1.00477 -0.191611 8.32233e-22)
(1.01087 -0.190396 -4.87277e-21)
(1.01689 -0.188968 1.7139e-21)
(1.02282 -0.187327 2.23334e-21)
(1.02866 -0.185476 -3.77825e-22)
(1.03439 -0.183418 1.91405e-21)
(1.04001 -0.181155 -2.21685e-20)
(1.04549 -0.178693 -5.89961e-21)
(1.05083 -0.176037 -1.7981e-21)
(1.05602 -0.173192 1.91258e-20)
(1.06105 -0.170163 -6.69786e-21)
(1.06591 -0.166957 1.72071e-20)
(1.07058 -0.163581 -2.70898e-20)
(1.07506 -0.160043 0)
(1.07934 -0.156349 -1.10534e-20)
(1.0834 -0.152508 1.11263e-20)
(1.08724 -0.14853 8.07177e-22)
(1.09086 -0.144422 -6.94324e-21)
(1.09423 -0.140195 -7.31931e-21)
(1.09736 -0.135852 2.23924e-20)
(1.10023 -0.13141 -1.47916e-20)
(1.10283 -0.126942 1.18306e-20)
(1.10516 -0.122426 -1.55208e-20)
(1.10721 -0.117866 7.75495e-21)
(1.10898 -0.113274 -1.86838e-21)
(1.11045 -0.10866 0)
(1.11162 -0.104036 1.98417e-21)
(1.11248 -0.0994129 -1.95958e-21)
(1.11302 -0.0948003 -3.90297e-21)
(1.11324 -0.0902087 1.15545e-20)
(1.11311 -0.0856483 -8.08832e-21)
(1.11264 -0.081129 -7.47421e-21)
(1.1118 -0.0766606 0)
(1.11058 -0.072253 -2.89876e-20)
(1.10896 -0.0679164 2.72803e-20)
(1.10692 -0.0636612 -1.22089e-20)
(1.10444 -0.0594985 1.22259e-20)
(1.10149 -0.0554399 1.3325e-20)
(1.09804 -0.0514981 2.18434e-20)
(1.09405 -0.0476886 1.91811e-20)
(1.0895 -0.0440312 0)
(1.08436 -0.0405539 -1.89538e-20)
(1.07863 -0.0372972 0)
(1.07233 -0.0343187 5.10915e-22)
(1.06551 -0.0316912 -8.62864e-21)
(1.05823 -0.0295062 9.19e-21)
(1.05049 -0.0278659 3.71219e-21)
(1.04219 -0.0268668 -4.42724e-21)
(1.03306 -0.0266319 -1.24747e-22)
(1.02262 -0.0272576 3.21722e-21)
(1.0101 -0.0287604 -2.11466e-20)
(0.995004 -0.0315138 -7.74719e-21)
(0.977216 -0.03605 -1.56298e-20)
(0.95654 -0.040167 1.57705e-20)
(0.908063 -0.196052 0)
(0.914415 -0.197894 0)
(0.920847 -0.199562 -3.235e-20)
(0.927336 -0.201025 4.76892e-20)
(0.933878 -0.202278 1.41225e-20)
(0.940475 -0.203327 0)
(0.947115 -0.204164 0)
(0.953781 -0.204782 -1.03544e-20)
(0.960468 -0.20518 1.76628e-20)
(0.967166 -0.205354 -2.83721e-21)
(0.973864 -0.205302 -3.55291e-20)
(0.980551 -0.205022 6.70261e-21)
(0.987214 -0.204512 -4.02395e-21)
(0.993842 -0.203771 8.33348e-21)
(1.00042 -0.202798 -2.02208e-21)
(1.00693 -0.201596 0)
(1.01337 -0.200165 0)
(1.01973 -0.198504 9.92791e-22)
(1.02599 -0.196617 -5.05782e-21)
(1.03214 -0.194507 2.34877e-21)
(1.03817 -0.192176 -4.56262e-21)
(1.04406 -0.189628 4.33805e-21)
(1.04982 -0.186868 6.19434e-21)
(1.05542 -0.183902 -5.20967e-21)
(1.06085 -0.180736 -7.19634e-21)
(1.06611 -0.177375 0)
(1.07117 -0.173828 0)
(1.07604 -0.170101 1.5624e-20)
(1.0807 -0.166204 0)
(1.08513 -0.162145 1.27586e-20)
(1.08934 -0.157932 -1.28379e-20)
(1.09331 -0.153575 -6.60339e-21)
(1.09703 -0.149084 6.99042e-21)
(1.10049 -0.144471 1.56588e-20)
(1.10369 -0.139736 -7.7291e-21)
(1.10661 -0.134907 -8.60671e-21)
(1.10925 -0.130047 8.97788e-21)
(1.1116 -0.125135 0)
(1.11366 -0.120179 0)
(1.11541 -0.115189 2.33953e-21)
(1.11686 -0.110176 0)
(1.11799 -0.105152 0)
(1.1188 -0.100126 -6.75289e-21)
(1.11929 -0.0951076 8.99574e-21)
(1.11943 -0.0901065 -4.57778e-21)
(1.11923 -0.0851313 8.09435e-21)
(1.11868 -0.0801901 0)
(1.11776 -0.0752906 2.49851e-20)
(1.11645 -0.0704399 -9.93329e-22)
(1.11475 -0.0656451 0)
(1.11263 -0.0609124 -3.00411e-20)
(1.11008 -0.0562484 -1.21446e-21)
(1.10706 -0.0516596 -2.68042e-20)
(1.10355 -0.0471539 -1.39468e-20)
(1.09954 -0.0427421 -2.36409e-20)
(1.095 -0.0384407 2.33295e-20)
(1.08993 -0.0342753 1.8959e-20)
(1.08436 -0.030284 0)
(1.07832 -0.0265161 -1.53851e-20)
(1.07183 -0.0230297 2.79967e-21)
(1.06487 -0.0198922 0)
(1.05732 -0.0171674 0)
(1.04891 -0.0149129 4.37442e-21)
(1.03924 -0.0132149 0)
(1.02772 -0.0121248 0)
(1.01368 -0.0116919 5.71304e-22)
(0.996863 -0.0123691 8.67788e-21)
(0.977394 -0.0146071 6.52809e-21)
(0.955176 -0.016284 0)
(0.904635 -0.208282 0)
(0.911415 -0.210137 0)
(0.918272 -0.211801 0)
(0.925182 -0.213242 1.53796e-20)
(0.932139 -0.214459 1.28184e-20)
(0.939145 -0.215452 -2.46174e-21)
(0.946186 -0.216215 -2.43258e-20)
(0.953251 -0.216744 1.04828e-20)
(0.96033 -0.217035 -8.66025e-21)
(0.967412 -0.217084 -1.53628e-20)
(0.974491 -0.216891 0)
(0.981555 -0.216452 0)
(0.988593 -0.215767 -1.13605e-21)
(0.995593 -0.214834 -9.07027e-21)
(1.00254 -0.213654 5.12393e-21)
(1.00942 -0.212227 -2.33998e-21)
(1.01622 -0.210556 3.3688e-22)
(1.02292 -0.208641 1.35477e-21)
(1.02952 -0.206485 -1.22211e-21)
(1.036 -0.204091 0)
(1.04234 -0.201462 1.05557e-20)
(1.04854 -0.198602 0)
(1.05458 -0.195518 1.4831e-20)
(1.06045 -0.192215 -2.55223e-20)
(1.06614 -0.188699 2.81139e-20)
(1.07164 -0.184979 1.12856e-20)
(1.07692 -0.181062 -1.80085e-20)
(1.08199 -0.176956 1.89337e-20)
(1.08683 -0.172672 -1.28595e-20)
(1.09143 -0.168218 0)
(1.09579 -0.163605 -1.54842e-20)
(1.09988 -0.158842 -9.23533e-21)
(1.10371 -0.153941 1.64485e-20)
(1.10726 -0.148915 -1.76828e-20)
(1.11053 -0.143762 9.35482e-21)
(1.11351 -0.138521 -9.36202e-21)
(1.11619 -0.133245 -4.57543e-21)
(1.11856 -0.127915 5.15361e-21)
(1.12062 -0.122541 2.36472e-21)
(1.12237 -0.117132 -7.24769e-21)
(1.12379 -0.111701 -6.52993e-22)
(1.1249 -0.106258 0)
(1.12567 -0.100812 2.34064e-21)
(1.1261 -0.0953736 -4.64721e-21)
(1.12619 -0.0899496 4.5987e-21)
(1.12594 -0.0845476 0)
(1.12532 -0.0791738 0)
(1.12434 -0.0738336 9.57724e-21)
(1.12299 -0.068531 -1.80976e-20)
(1.12124 -0.0632692 -3.5868e-20)
(1.11909 -0.0580505 6.78495e-20)
(1.11652 -0.0528767 -1.72431e-20)
(1.11351 -0.0477502 1.58914e-20)
(1.11004 -0.0426747 1.39587e-20)
(1.10613 -0.037658 -2.748e-20)
(1.10176 -0.0327135 2.70586e-20)
(1.09696 -0.0278618 0)
(1.09174 -0.0231316 -2.44773e-20)
(1.08611 -0.018554 3.1197e-21)
(1.08001 -0.0141627 1.87251e-20)
(1.07332 -0.00999122 0)
(1.06579 -0.00606242 0)
(1.05704 -0.00240293 0)
(1.04659 0.000930643 1.6346e-20)
(1.03387 0.0039076 4.74717e-21)
(1.01834 0.00641697 -3.03024e-21)
(1.00005 0.00795302 2.59323e-21)
(0.979241 0.00804805 -5.69996e-21)
(0.956548 0.0089886 -4.5309e-21)
(0.901103 -0.221426 0)
(0.908348 -0.223288 3.53764e-20)
(0.915673 -0.224945 -4.35e-20)
(0.923049 -0.226363 2.16886e-20)
(0.93047 -0.227536 -4.32684e-20)
(0.937933 -0.228468 -1.239e-20)
(0.945428 -0.229153 -1.0946e-20)
(0.952939 -0.229582 0)
(0.960453 -0.229753 1.68804e-20)
(0.967966 -0.229663 1.36616e-20)
(0.975465 -0.229312 -1.28562e-20)
(0.98294 -0.228698 3.97387e-21)
(0.990379 -0.22782 -1.41638e-21)
(0.997771 -0.226676 4.87763e-21)
(1.0051 -0.225267 1.21536e-21)
(1.01236 -0.223593 -2.50063e-21)
(1.01953 -0.221658 -2.46971e-21)
(1.0266 -0.219461 5.06243e-21)
(1.03354 -0.217008 3.71315e-21)
(1.04036 -0.2143 1.22292e-20)
(1.04703 -0.211343 -1.07385e-20)
(1.05355 -0.208141 0)
(1.05989 -0.2047 1.60412e-21)
(1.06604 -0.201028 0)
(1.07199 -0.197132 -1.03361e-20)
(1.07773 -0.19302 -1.13672e-20)
(1.08325 -0.188701 6.188e-21)
(1.08853 -0.184184 0)
(1.09356 -0.179481 8.13279e-21)
(1.09833 -0.174601 1.6627e-20)
(1.10284 -0.169555 -1.67166e-20)
(1.10706 -0.164356 8.53336e-21)
(1.111 -0.159015 -1.92989e-20)
(1.11465 -0.153546 3.88966e-20)
(1.11799 -0.147947 -1.01522e-20)
(1.12103 -0.142268 0)
(1.12374 -0.136549 -5.67283e-21)
(1.12613 -0.130778 5.6636e-22)
(1.1282 -0.124961 8.11578e-21)
(1.12994 -0.119113 -6.83098e-21)
(1.13135 -0.113245 1.29605e-21)
(1.13243 -0.107366 -4.20495e-21)
(1.13317 -0.101486 2.72546e-21)
(1.13356 -0.0956135 0)
(1.13362 -0.0897553 0)
(1.13332 -0.0839171 0)
(1.13267 -0.078103 1.10396e-20)
(1.13167 -0.0723154 1.08433e-20)
(1.1303 -0.0665556 0)
(1.12855 -0.0608232 1.98598e-20)
(1.12643 -0.0551168 2.13319e-20)
(1.12392 -0.0494348 1.95064e-20)
(1.12102 -0.0437759 0)
(1.11774 -0.0381406 0)
(1.11408 -0.0325325 -3.14547e-20)
(1.11005 -0.0269579 3.08906e-20)
(1.10567 -0.0214257 0)
(1.10091 -0.015946 2.41186e-20)
(1.0957 -0.0105238 -2.19061e-20)
(1.08992 -0.00516293 -2.40537e-20)
(1.08335 0.00013948 1.84017e-20)
(1.07563 0.00539484 -1.80331e-20)
(1.06633 0.0105983 0)
(1.05498 0.015714 -9.99738e-21)
(1.04107 0.0207089 1.20792e-21)
(1.0243 0.0254006 -1.90829e-20)
(1.00504 0.0293031 -1.1404e-20)
(0.983451 0.0318013 2.50459e-21)
(0.961055 0.0360841 4.64372e-21)
(0.897466 -0.235593 9.78593e-21)
(0.90521 -0.23746 0)
(0.913037 -0.239103 8.45806e-21)
(0.920918 -0.240488 -3.68605e-20)
(0.928843 -0.24161 6.22551e-20)
(0.936809 -0.242471 -1.34386e-20)
(0.944802 -0.243064 1.10415e-20)
(0.952806 -0.243381 -1.71678e-20)
(0.960809 -0.243419 8.88659e-21)
(0.968801 -0.243177 6.77583e-21)
(0.976769 -0.242653 4.45586e-21)
(0.984704 -0.241846 -9.7218e-21)
(0.992591 -0.240754 4.11607e-21)
(1.00042 -0.239377 -3.50948e-22)
(1.00817 -0.237715 2.7111e-21)
(1.01584 -0.23577 2.66808e-21)
(1.02341 -0.233543 -5.15102e-21)
(1.03086 -0.231037 0)
(1.03818 -0.228256 0)
(1.04535 -0.225204 -7.91179e-21)
(1.05237 -0.221887 -7.53882e-21)
(1.05921 -0.218309 -2.02268e-20)
(1.06586 -0.214479 1.03496e-20)
(1.0723 -0.210403 2.48788e-20)
(1.07853 -0.20609 -2.49097e-20)
(1.08453 -0.20155 7.58652e-21)
(1.09028 -0.196793 8.14836e-21)
(1.09578 -0.191829 0)
(1.10101 -0.18667 -8.17095e-21)
(1.10596 -0.181328 -1.88029e-20)
(1.11062 -0.175816 -8.71662e-22)
(1.11498 -0.170145 1.98791e-20)
(1.11903 -0.164331 -1.12352e-20)
(1.12277 -0.158386 0)
(1.12619 -0.15231 6.0749e-21)
(1.12927 -0.146164 -6.21168e-21)
(1.13202 -0.139976 5.66954e-21)
(1.13444 -0.133735 -1.20641e-20)
(1.13652 -0.127454 0)
(1.13826 -0.121145 -1.59941e-21)
(1.13965 -0.114819 1.52497e-21)
(1.14071 -0.108488 -2.40101e-21)
(1.14142 -0.102159 9.07911e-21)
(1.14179 -0.095841 -1.80287e-20)
(1.14182 -0.0895392 1.18916e-20)
(1.1415 -0.0832577 1.17483e-20)
(1.14085 -0.0769988 -1.04321e-20)
(1.13985 -0.0707626 2.38422e-20)
(1.13851 -0.0645477 -2.23837e-20)
(1.13683 -0.0583509 -5.37321e-20)
(1.13482 -0.0521679 1.24789e-21)
(1.13248 -0.0459938 -1.93758e-20)
(1.12982 -0.0398236 0)
(1.12686 -0.0336519 0)
(1.12359 -0.0274738 -3.54743e-20)
(1.12001 -0.0212818 5.00015e-20)
(1.1161 -0.0150662 -3.28205e-20)
(1.11178 -0.00881219 0)
(1.10692 -0.00249661 3.05021e-20)
(1.10131 0.00390701 4.87226e-20)
(1.09465 0.0104344 -2.11584e-20)
(1.08655 0.0171222 1.77831e-21)
(1.07659 0.0239797 2.05412e-20)
(1.06432 0.0309792 -3.92139e-21)
(1.04946 0.0380659 -3.10423e-20)
(1.03198 0.0450001 2.50979e-20)
(1.01261 0.0513927 8.15587e-21)
(0.991143 0.0564052 0)
(0.970578 0.0660577 0)
(0.893769 -0.250845 -9.82952e-21)
(0.902039 -0.252709 -4.38829e-20)
(0.910396 -0.25433 3.46168e-20)
(0.91881 -0.255674 0)
(0.92727 -0.256735 6.7962e-21)
(0.935773 -0.257514 2.19832e-20)
(0.944302 -0.258004 -1.69614e-20)
(0.95284 -0.258198 1.9768e-20)
(0.961374 -0.258091 -1.56007e-20)
(0.969889 -0.257682 0)
(0.978375 -0.25697 -2.7737e-21)
(0.986818 -0.255952 0)
(0.995202 -0.254628 1.00971e-21)
(1.00351 -0.252997 7.26143e-22)
(1.01174 -0.251059 0)
(1.01986 -0.248817 0)
(1.02787 -0.246273 0)
(1.03574 -0.24343 -1.00701e-20)
(1.04347 -0.240293 1.35153e-20)
(1.05104 -0.236865 7.95758e-21)
(1.05842 -0.233154 0)
(1.06562 -0.229167 0)
(1.0726 -0.22491 0)
(1.07936 -0.220394 -3.63681e-20)
(1.08588 -0.215627 4.45697e-20)
(1.09215 -0.21062 -2.32799e-20)
(1.09815 -0.205386 -1.74602e-20)
(1.10388 -0.199935 1.90325e-20)
(1.10931 -0.194281 -1.90941e-20)
(1.11444 -0.188438 1.09685e-20)
(1.11926 -0.18242 -2.21564e-20)
(1.12375 -0.17624 1.02535e-20)
(1.12792 -0.169915 2.37628e-20)
(1.13175 -0.163458 1.30015e-20)
(1.13524 -0.156873 -6.07312e-21)
(1.13838 -0.150229 6.19317e-21)
(1.14117 -0.143539 0)
(1.14361 -0.136802 -6.61453e-22)
(1.1457 -0.13003 3.36144e-21)
(1.14743 -0.123237 3.34732e-23)
(1.14881 -0.116435 -1.67832e-21)
(1.14985 -0.109634 4.15136e-21)
(1.15054 -0.102843 -6.81055e-21)
(1.1509 -0.0960694 -3.47202e-21)
(1.15092 -0.0893179 6.87897e-21)
(1.15061 -0.0825914 0)
(1.14999 -0.0758905 -2.554e-20)
(1.14905 -0.0692137 -3.68663e-20)
(1.14781 -0.0625572 1.91362e-22)
(1.14629 -0.0559154 3.5404e-20)
(1.14449 -0.0492805 0)
(1.14243 -0.0426427 0)
(1.14011 -0.0359903 -2.30257e-20)
(1.13755 -0.0293073 4.28426e-20)
(1.13473 -0.022575 1.03656e-21)
(1.13161 -0.0157672 -1.96625e-20)
(1.12811 -0.00885293 7.23729e-20)
(1.12411 -0.0017917 -3.48594e-20)
(1.11942 0.00546648 -2.99562e-20)
(1.11378 0.0129761 -6.28623e-20)
(1.10687 0.0208002 -3.10519e-22)
(1.09828 0.028992 -1.51631e-21)
(1.08764 0.0375663 2.22424e-21)
(1.07468 0.0464892 4.32131e-20)
(1.05937 0.055675 -2.70474e-20)
(1.04205 0.0648673 -2.12577e-20)
(1.02366 0.0738077 2.27436e-20)
(1.00387 0.08201 2.15913e-20)
(0.984186 0.0951389 0)
(0.890018 -0.267289 3.74572e-20)
(0.898861 -0.269144 -1.96444e-20)
(0.907793 -0.270736 0)
(0.91678 -0.27203 7.11681e-21)
(0.925812 -0.27302 0)
(0.934887 -0.273706 -1.52857e-20)
(0.943987 -0.274081 1.11036e-20)
(0.953094 -0.274136 -1.44157e-20)
(0.962194 -0.273868 1.38621e-20)
(0.971271 -0.273274 1.94555e-21)
(0.980314 -0.272353 -5.91231e-21)
(0.989305 -0.271104 4.17018e-21)
(0.998229 -0.269525 0)
(1.00707 -0.267615 -5.19845e-21)
(1.01581 -0.265377 1.34166e-20)
(1.02444 -0.262812 -8.20957e-21)
(1.03293 -0.259921 0)
(1.04127 -0.256711 -2.05519e-20)
(1.04945 -0.253184 3.18136e-20)
(1.05744 -0.249347 -1.9869e-20)
(1.06524 -0.245207 0)
(1.07282 -0.240772 0)
(1.08017 -0.236052 0)
(1.08727 -0.231055 7.48334e-21)
(1.09411 -0.225793 1.78859e-20)
(1.10068 -0.220278 -1.7906e-20)
(1.10695 -0.214523 9.295e-21)
(1.11291 -0.208543 0)
(1.11856 -0.202352 2.25658e-20)
(1.12389 -0.195965 -3.36111e-20)
(1.12887 -0.189398 0)
(1.13351 -0.182667 2.53656e-20)
(1.1378 -0.175791 -1.24974e-20)
(1.14172 -0.168783 -1.29725e-20)
(1.14529 -0.161652 7.43197e-21)
(1.14848 -0.154475 0)
(1.1513 -0.147252 0)
(1.15376 -0.139988 6.94425e-21)
(1.15585 -0.132699 0)
(1.15758 -0.125399 -3.67512e-21)
(1.15896 -0.1181 8.74602e-22)
(1.15998 -0.110815 3.66809e-21)
(1.16067 -0.103552 -1.50545e-22)
(1.16103 -0.0963185 7.23255e-21)
(1.16108 -0.0891181 1.49703e-20)
(1.16082 -0.0819534 7.40303e-21)