/*--------------------------------*- C++ -*----------------------------------*\
| =========                 |                                                 |
| \\      /  F ield         | OpenFOAM: The Open Source CFD Toolbox           |
|  \\    /   O peration     | Version:  2312                                  |
|   \\  /    A nd           | Website:  www.openfoam.com                      |
|    \\/     M anipulation  |                                                 |
\*---------------------------------------------------------------------------*/
FoamFile
{
    version     2.0;
    format      ascii;
    arch        "LSB;label=32;scalar=64";
    class       volScalarField;
    location    "2000";
    object      epsilon;
}
// * * * * * * * * * * * * * * * * * * * * * * * * * * * * * * * * * * * * * //

dimensions      [0 2 -3 0 0 0 0];

internalField   nonuniform List<scalar> 
76025
(
0.000260382
0.000259974
0.000259565
0.000259196
0.000258538
0.000258042
0.000257299
0.000256787
0.000256185
0.000255765
0.000255267
0.000254777
0.000254247
0.000253835
0.000253378
0.000252995
0.000252427
0.000252048
0.000251373
0.000250905
0.000250238
0.000249693
0.000249035
0.000248447
0.00024788
0.000247316
0.000246836
0.000246239
0.000245626
0.000244998
0.000244154
0.000243681
0.000242832
0.000242207
0.00024141
0.000240612
0.000240094
0.000239342
0.000238947
0.000238421
0.000238502
0.000238773
0.000239752
0.000240701
0.000242559
0.0002444
0.000247317
0.0002498
0.000253917
0.000257288
0.000262472
0.000267099
0.000272902
0.000278071
0.000285045
0.000291998
0.000299656
0.00030931
0.000319759
0.000333655
0.000347622
0.000362333
0.000386421
0.000404826
0.000442819
0.000467245
0.00050826
0.000559252
0.000622738
0.000262172
0.000261718
0.000261263
0.000260887
0.000260382
0.000259958
0.0002594
0.000258888
0.000258308
0.000257805
0.000257286
0.000256828
0.000256309
0.000255841
0.000255374
0.000254918
0.000254421
0.000253938
0.000253415
0.000252906
0.000252365
0.000251835
0.000251279
0.000250754
0.000250128
0.000249554
0.000248871
0.000248326
0.00024769
0.000247195
0.00024656
0.000246102
0.000245574
0.000245095
0.000244502
0.000244435
0.000244554
0.000244793
0.000245327
0.000245984
0.000247034
0.000248197
0.000249831
0.000251622
0.000253903
0.000256423
0.000259312
0.00026269
0.000266133
0.000270512
0.00027453
0.000280194
0.000284873
0.000292438
0.000298538
0.00030821
0.00031666
0.000329565
0.000342153
0.000358721
0.000376224
0.000398014
0.00042425
0.000450387
0.000492736
0.000524537
0.000596393
0.000644807
0.000765064
0.000264831
0.000264393
0.000263893
0.000263466
0.000262983
0.000262548
0.000262051
0.000261567
0.000261019
0.000260497
0.000259962
0.000259464
0.000259002
0.000258554
0.000258156
0.000257752
0.000257357
0.000256933
0.000256475
0.000256013
0.00025553
0.000255097
0.000254656
0.000254323
0.000253921
0.000253586
0.000253162
0.000252672
0.000252268
0.000251374
0.00025146
0.000251516
0.000251622
0.000251763
0.000252052
0.000252408
0.000253002
0.000253672
0.000254665
0.000255723
0.000257174
0.000258635
0.000260633
0.000262576
0.000265243
0.000267746
0.000271186
0.000274399
0.000278732
0.000282982
0.000288382
0.000294169
0.000300852
0.000308875
0.000317054
0.000328008
0.000338496
0.000353479
0.000367486
0.000386616
0.000406307
0.000430265
0.000459962
0.000490722
0.000539474
0.000581115
0.000659903
0.000719296
0.000848421
0.00026809
0.000267752
0.000267318
0.000266883
0.00026644
0.000266042
0.000265645
0.00026526
0.000264836
0.000264373
0.000263886
0.000263356
0.000262836
0.000262317
0.000261849
0.000261429
0.000261067
0.000260746
0.000260484
0.000260255
0.000259979
0.000259574
0.000259249
0.000258491
0.000258378
0.00025836
0.0002584
0.000258459
0.00025852
0.000258582
0.000258764
0.000259021
0.000259412
0.000259872
0.00026051
0.000261225
0.000262173
0.000263197
0.000264524
0.000265917
0.000267696
0.000269503
0.000271841
0.000274175
0.000277206
0.00028023
0.000284121
0.00028808
0.000293072
0.000298314
0.000304634
0.000311584
0.000319482
0.000328726
0.000338584
0.000350958
0.000363694
0.000380422
0.000397254
0.000419808
0.000443302
0.000473113
0.000508892
0.000548114
0.000609116
0.000660238
0.000762797
0.000841507
0.00101958
0.000272089
0.000271949
0.000271653
0.000271264
0.000270824
0.000270384
0.000269959
0.000269594
0.000269247
0.000268967
0.000268697
0.000268461
0.000268175
0.000267927
0.000267653
0.000267303
0.000267036
0.000266552
0.000266078
0.000265595
0.000265473
0.000265637
0.000264914
0.000265148
0.000265344
0.000265519
0.000265739
0.000265996
0.000266319
0.000266693
0.000267166
0.000267718
0.000268404
0.000269165
0.000270092
0.000271093
0.000272332
0.000273649
0.000275332
0.00027708
0.00027936
0.000281621
0.000284629
0.000287499
0.00029138
0.000295028
0.000300001
0.0003047
0.000311052
0.000317092
0.000325082
0.000332826
0.000342793
0.000352836
0.000365312
0.000378717
0.000394954
0.00041343
0.00043536
0.000460858
0.000490324
0.000525044
0.000567993
0.000618571
0.000689855
0.000760118
0.000886359
0.000989771
0.0012219
0.000278038
0.000277813
0.000277574
0.000277276
0.000276964
0.000276699
0.000276417
0.000276221
0.000275936
0.000275607
0.00027523
0.000274688
0.000274358
0.000273419
0.00027309
0.000273131
0.000272354
0.000272589
0.000272861
0.000273044
0.000273217
0.000273446
0.000273632
0.000273894
0.00027421
0.000274583
0.000275022
0.000275536
0.000276136
0.000276817
0.000277586
0.000278442
0.000279415
0.000280477
0.000281716
0.000283063
0.000284681
0.000286424
0.000288578
0.000290848
0.000293694
0.000296561
0.000300238
0.000303832
0.000308552
0.000313112
0.000319171
0.000324985
0.000332651
0.000339927
0.000349429
0.000358391
0.000370126
0.000381351
0.000396367
0.000411466
0.000431931
0.000452989
0.000481022
0.000509066
0.000547184
0.000586627
0.00064485
0.00070643
0.000799686
0.000893388
0.00105616
0.0012007
0.00151311
0.000284924
0.000284818
0.000284923
0.000285007
0.000284842
0.00028448
0.000284163
0.00028328
0.000283323
0.000282799
0.000282454
0.000282736
0.00028302
0.000283059
0.000283079
0.000283199
0.000283244
0.000283392
0.000283603
0.000283839
0.000284107
0.000284421
0.000284781
0.000285203
0.000285696
0.000286259
0.000286908
0.000287641
0.000288494
0.000289439
0.000290536
0.00029174
0.000293116
0.000294591
0.000296289
0.000298104
0.000300215
0.000302483
0.000305182
0.00030807
0.000311542
0.000315153
0.000319597
0.000324108
0.000329778
0.000335481
0.000342724
0.000349924
0.000358986
0.000367801
0.0003788
0.000389392
0.00040294
0.000416395
0.000434497
0.000453117
0.000478234
0.00050347
0.000537366
0.00057069
0.000619519
0.000668929
0.000746723
0.000823807
0.000948629
0.00107502
0.00129097
0.00150585
0.00190263
0.000293643
0.00029355
0.000293699
0.000293378
0.000293627
0.0002938
0.000293937
0.000293898
0.000293942
0.000294029
0.000294088
0.000294231
0.000294438
0.00029466
0.000294891
0.000295168
0.000295497
0.000295893
0.000296354
0.000296859
0.000297405
0.000297992
0.000298631
0.000299329
0.000300101
0.000300951
0.000301888
0.000302908
0.000304046
0.000305261
0.000306663
0.000308182
0.000309938
0.000311822
0.000314006
0.000316353
0.000319068
0.000321993
0.000325414
0.000329079
0.000333371
0.000337923
0.000343342
0.000349021
0.000355884
0.000363095
0.000371828
0.00038089
0.000391621
0.000402457
0.000415192
0.000428187
0.00044415
0.000461241
0.000483079
0.000506428
0.000536166
0.000567113
0.000608241
0.000651361
0.000714822
0.000780239
0.000883843
0.00098502
0.00115967
0.00133184
0.00163583
0.00193786
0.00245474
0.000304754
0.000304352
0.000304791
0.000305289
0.000305748
0.000306178
0.000306569
0.000306929
0.000307265
0.000307636
0.000308006
0.000308406
0.000308836
0.000309295
0.000309778
0.000310288
0.000310827
0.000311431
0.000312111
0.000312867
0.000313688
0.00031458
0.000315522
0.000316537
0.000317609
0.000318762
0.000319991
0.000321303
0.000322743
0.000324299
0.000326093
0.000328059
0.000330349
0.000332859
0.000335768
0.000338945
0.000342535
0.000346398
0.000350758
0.000355395
0.000360678
0.000366322
0.00037282
0.00037976
0.000387945
0.00039684
0.000407305
0.000418456
0.000431125
0.000444375
0.000459528
0.000475955
0.00049555
0.000517557
0.000544046
0.00057362
0.000609631
0.000650233
0.000702449
0.0007626
0.000845506
0.000938445
0.00107652
0.0012235
0.00146693
0.00171139
0.00213726
0.00254043
0.00327704
0.000321683
0.000322142
0.000322458
0.000322746
0.000323064
0.000323418
0.000323797
0.000324182
0.000324568
0.000324967
0.000325399
0.000325859
0.000326371
0.000326929
0.000327556
0.000328226
0.000328975
0.00032976
0.000330635
0.000331566
0.0003326
0.000333692
0.00033494
0.00033631
0.000337866
0.000339595
0.000341506
0.000343594
0.000345844
0.000348232
0.000350857
0.000353582
0.000356615
0.000359805
0.000363376
0.000367212
0.000371476
0.000376099
0.000381274
0.000386886
0.000393276
0.000400198
0.000408066
0.000416682
0.000426698
0.000437756
0.000450401
0.000464007
0.000479262
0.000495778
0.000514755
0.000536014
0.000561019
0.000589442
0.000623087
0.000661862
0.000708966
0.000764723
0.00083559
0.000921532
0.00103509
0.00117177
0.00136167
0.00158321
0.00191498
0.00226993
0.00283783
0.00340133
0.00432228
0.000342327
0.000342743
0.00034319
0.000343633
0.000344115
0.000344661
0.000345264
0.000345923
0.000346613
0.000347319
0.000348072
0.000348856
0.000349704
0.000350617
0.000351628
0.000352719
0.000353915
0.000355166
0.000356508
0.000357899
0.000359387
0.000360913
0.000362545
0.000364257
0.000366089
0.000368085
0.000370254
0.000372677
0.000375331
0.000378267
0.000381483
0.000384937
0.000388669
0.000392659
0.00039697
0.000401633
0.00040674
0.000412324
0.000418569
0.00042546
0.00043321
0.000441748
0.000451461
0.000462267
0.000474638
0.000488337
0.000503896
0.000521056
0.000540602
0.000562413
0.000587575
0.000616026
0.00064923
0.000687338
0.000732812
0.000786291
0.000852077
0.000931769
0.0010334
0.0011587
0.00132152
0.00152265
0.00178943
0.00211409
0.00255776
0.00306374
0.0037972
0.00457308
0.00607891
0.000366889
0.000367535
0.000368222
0.000368922
0.000369645
0.000370441
0.000371301
0.000372247
0.000373265
0.000374321
0.000375414
0.000376541
0.000377685
0.000378887
0.00038016
0.000381534
0.00038304
0.000384665
0.000386412
0.000388282
0.000390296
0.000392433
0.00039474
0.000397205
0.000399861
0.000402698
0.000405734
0.000408954
0.000412423
0.000416152
0.000420153
0.000424448
0.000429058
0.000434078
0.000439539
0.000445533
0.000452114
0.000459346
0.000467377
0.000476285
0.000486292
0.000497484
0.000510199
0.000524458
0.000540647
0.00055872
0.000579158
0.000601934
0.000627772
0.000656857
0.0006904
0.000728936
0.000774425
0.000827963
0.000892739
0.000970542
0.0010671
0.00118545
0.00133525
0.00151973
0.00175516
0.00204533
0.00241662
0.0028723
0.00345407
0.00415856
0.00506662
0.0063729
0.00900884
0.000398286
0.000399207
0.000400177
0.000401155
0.000402173
0.000403259
0.000404427
0.000405704
0.000407092
0.000408606
0.000410203
0.000411894
0.000413645
0.000415474
0.000417379
0.000419382
0.000421519
0.000423803
0.000426257
0.000428866
0.000431667
0.000434597
0.00043772
0.000440991
0.000444487
0.000448178
0.000452096
0.000456234
0.000460632
0.0004653
0.000470281
0.000475615
0.000481364
0.000487674
0.00049459
0.000502257
0.000510752
0.000520225
0.000530869
0.000542881
0.000556488
0.000571864
0.000589276
0.0006088
0.000630766
0.000655269
0.000682821
0.000713778
0.000749143
0.000789839
0.000837551
0.00089373
0.000960866
0.00104111
0.00113831
0.00125597
0.00140074
0.00157748
0.00179675
0.00206415
0.00239735
0.00280251
0.00330516
0.00392017
0.00466562
0.00562836
0.00681657
0.00942314
0.0142324
0.000439088
0.000440393
0.000441754
0.000443124
0.000444543
0.000446048
0.000447644
0.000449364
0.00045121
0.000453217
0.000455375
0.000457672
0.000460095
0.000462622
0.000465259
0.000468007
0.000470892
0.00047396
0.000477235
0.000480759
0.00048454
0.000488566
0.000492838
0.000497308
0.000502027
0.000506946
0.000512156
0.000517663
0.000523532
0.000529801
0.000536497
0.000543697
0.000551452
0.000559938
0.000569226
0.000579541
0.000591027
0.000603895
0.000618418
0.000634867
0.00065356
0.000674771
0.00069878
0.000725848
0.00075644
0.000791031
0.000830449
0.000875652
0.000928164
0.000989654
0.00106233
0.0011485
0.00125125
0.00137395
0.00152135
0.00169861
0.00191293
0.00217091
0.00248375
0.00285864
0.00331479
0.00385849
0.00451805
0.00531866
0.0062427
0.0076611
0.00946576
0.0154106
0.0260998
0.000493172
0.000495024
0.000496941
0.000498867
0.000500845
0.000502927
0.000505114
0.000507446
0.000509912
0.000512568
0.000515397
0.00051844
0.000521675
0.000525114
0.000528729
0.000532552
0.00053655
0.000540784
0.000545234
0.000549935
0.00055487
0.000560028
0.000565441
0.000571103
0.000577124
0.000583511
0.000590422
0.000597913
0.000606034
0.000614866
0.00062443
0.000634849
0.000646187
0.000658653
0.000672337
0.00068748
0.000704266
0.00072297
0.00074394
0.000767548
0.000794281
0.000824554
0.000858928
0.000898117
0.000943062
0.000994802
0.00105471
0.0011244
0.00120603
0.00130194
0.00141495
0.00154817
0.00170542
0.00189105
0.00211058
0.00236993
0.00267679
0.00303871
0.00346772
0.00397115
0.00457233
0.00527075
0.0061124
0.00711394
0.008273
0.0109171
0.0141076
0.0285934
0.0548433
0.000566069
0.000568735
0.000571489
0.000574248
0.000577072
0.000580008
0.000583075
0.000586306
0.000589714
0.000593336
0.000597188
0.000601304
0.000605697
0.000610403
0.000615404
0.000620732
0.00062638
0.000632352
0.000638648
0.000645282
0.00065231
0.000659741
0.000667598
0.000675873
0.000684573
0.000693788
0.000703557
0.000714024
0.000725272
0.00073751
0.000750848
0.000765555
0.000781789
0.000799884
0.000820041
0.000842643
0.000867997
0.000896554
0.00092875
0.000965198
0.00100655
0.00105353
0.0011071
0.00116848
0.0012391
0.00132062
0.00141505
0.0015247
0.00165228
0.00180071
0.00197331
0.00217374
0.00240629
0.00267582
0.00298806
0.00334952
0.00376811
0.00425252
0.00481512
0.005463
0.00622507
0.00708485
0.00814479
0.00936779
0.0111737
0.016092
0.0233026
0.056681
0.121574
0.000668155
0.000672055
0.00067609
0.000680146
0.000684296
0.000688588
0.000693051
0.000697712
0.000702608
0.00070777
0.000713231
0.000719038
0.00072521
0.000731803
0.000738837
0.000746345
0.00075436
0.000762911
0.000772022
0.000781723
0.000792069
0.000803158
0.000815001
0.000827761
0.00084144
0.000856091
0.000871744
0.000888522
0.000906569
0.000926151
0.000947515
0.000971065
0.000997222
0.00102645
0.00105927
0.00109617
0.00113772
0.0011845
0.0012372
0.00129665
0.00136379
0.00143978
0.00152607
0.00162433
0.0017365
0.00186477
0.00201161
0.00217968
0.00237193
0.0025915
0.00284192
0.00312711
0.00345155
0.0038205
0.00423999
0.00471732
0.00526054
0.00587989
0.00658584
0.00738752
0.00832032
0.00934324
0.0107337
0.0123332
0.0161039
0.0250943
0.044096
0.115036
0.234043
0.000813966
0.000819922
0.000826125
0.000832418
0.000838894
0.000845604
0.000852581
0.000859861
0.000867482
0.000875498
0.000883951
0.000892906
0.000902411
0.000912532
0.000923331
0.000934879
0.000947246
0.000960519
0.00097478
0.000990135
0.00100667
0.00102462
0.00104411
0.00106536
0.00108851
0.00111378
0.00114129
0.00117125
0.00120388
0.00123944
0.00127824
0.00132081
0.00136779
0.00141982
0.00147757
0.00154165
0.00161273
0.00169152
0.00177902
0.00187627
0.00198499
0.00210638
0.00224233
0.00239481
0.00256598
0.00275809
0.00297364
0.00321522
0.00348576
0.00378849
0.00412724
0.00450633
0.00493086
0.00540693
0.00594117
0.0065418
0.00721617
0.00797699
0.00882896
0.00979565
0.0109184
0.0121309
0.0143599
0.0167934
0.0270231
0.0421544
0.0946493
0.225279
0.332449
0.00103783
0.00104725
0.00105713
0.00106727
0.00107781
0.00108882
0.00110036
0.00111248
0.00112527
0.0011388
0.00115317
0.0011685
0.00118488
0.00120245
0.00122134
0.00124172
0.00126372
0.00128756
0.00131348
0.00134167
0.00137234
0.00140573
0.00144207
0.0014817
0.00152485
0.0015719
0.00162308
0.00167873
0.00173916
0.00180464
0.00187551
0.00195233
0.00203572
0.00212627
0.00222454
0.00233114
0.00244677
0.00257235
0.00270905
0.00285824
0.00302168
0.00320096
0.00339867
0.00361575
0.00385452
0.00411727
0.0044066
0.00472538
0.00507708
0.00546555
0.00589548
0.00637199
0.0069012
0.00748989
0.00814483
0.0088745
0.00968495
0.0105948
0.0116025
0.0127806
0.0141695
0.015803
0.0203148
0.024994
0.0488647
0.0820244
0.202632
0.35486
0.359481
0.00139832
0.00141655
0.00143591
0.00145613
0.0014774
0.00149982
0.00152348
0.00154848
0.00157493
0.00160294
0.00163267
0.00166426
0.00169797
0.001734
0.00177253
0.00181378
0.00185797
0.00190539
0.00195623
0.0020109
0.00206988
0.00213344
0.00220183
0.00227531
0.00235411
0.00243849
0.00252869
0.00262493
0.00272746
0.00283648
0.00295232
0.00307535
0.00320597
0.00334472
0.00349219
0.00364911
0.00381634
0.00399488
0.00418596
0.00439098
0.00461157
0.00484953
0.00510711
0.00538642
0.00569103
0.00602204
0.00638289
0.00677745
0.00721015
0.00768594
0.00821055
0.00878958
0.0094299
0.0101378
0.0109203
0.0117862
0.0127462
0.0138343
0.0150653
0.0166165
0.0185969
0.0216976
0.0306221
0.042218
0.0904104
0.17734
0.351692
0.394886
0.357409
0.00210783
0.00214493
0.00218439
0.0022258
0.00226949
0.00231562
0.00236424
0.00241548
0.00246942
0.00252624
0.00258602
0.0026491
0.00271608
0.00278712
0.00286235
0.00294194
0.00302607
0.0031149
0.00320866
0.00330739
0.00341111
0.00352002
0.00363428
0.00375406
0.0038795
0.00401072
0.00414785
0.00429101
0.00444037
0.00459605
0.00475836
0.00492762
0.00510415
0.00528844
0.00548109
0.00568288
0.00589478
0.00611795
0.00635385
0.00660416
0.00687091
0.00715645
0.00746359
0.00779564
0.00815625
0.00855053
0.00898102
0.00945201
0.00996879
0.0105372
0.0111633
0.0118522
0.0126118
0.0134477
0.014374
0.0154028
0.0165822
0.0179735
0.0197184
0.0221398
0.0261617
0.0329612
0.0512749
0.0833281
0.174975
0.331748
0.405801
0.391439
0.319885
0.00353973
0.00361237
0.00368924
0.0037697
0.00385402
0.00394228
0.0040345
0.00413069
0.00423087
0.00433506
0.00444335
0.00455558
0.00467148
0.00479116
0.00491475
0.00504235
0.00517406
0.00530997
0.00545015
0.00559466
0.00574354
0.00589679
0.00605446
0.00621656
0.00638313
0.0065542
0.00672983
0.0069101
0.00709513
0.00728511
0.00748036
0.00768122
0.00788817
0.00810185
0.00832309
0.00855296
0.00879276
0.00904414
0.00930909
0.00959
0.00988971
0.0102116
0.0105596
0.0109382
0.0113527
0.0118081
0.0123115
0.0128645
0.0134729
0.0141427
0.0148797
0.0156909
0.0165891
0.0175883
0.0187381
0.0200572
0.0217505
0.0239003
0.0271913
0.0323111
0.0423194
0.0602973
0.0999543
0.183685
0.327028
0.399389
0.400194
0.343877
0.269493
0.0062966
0.00641793
0.00654299
0.00667096
0.00680227
0.00693705
0.00707532
0.00721705
0.0073622
0.00751072
0.00766257
0.00781764
0.00797581
0.00813691
0.00830084
0.00846747
0.0086367
0.00880844
0.00898262
0.00915917
0.00933804
0.00951919
0.00970261
0.00988831
0.0100763
0.0102667
0.0104597
0.0106553
0.0108538
0.0110557
0.0112616
0.0114718
0.0116872
0.0119088
0.0121379
0.012376
0.0126254
0.0128884
0.013168
0.0134677
0.0137916
0.0141445
0.0145317
0.0149592
0.0154327
0.0159583
0.0165441
0.0171901
0.0179027
0.018691
0.0195672
0.020556
0.0216905
0.0230378
0.0247357
0.0268388
0.0301324
0.0346541
0.0432767
0.0570546
0.0860321
0.131624
0.225185
0.324134
0.379303
0.378646
0.336601
0.272451
0.218535
0.0110266
0.0111839
0.011344
0.0115058
0.0116696
0.0118355
0.0120032
0.0121727
0.0123437
0.0125162
0.0126898
0.0128644
0.0130399
0.0132159
0.0133924
0.0135692
0.0137461
0.013923
0.0140999
0.0142768
0.0144535
0.0146302
0.014807
0.014984
0.0151614
0.0153395
0.0155185
0.015699
0.0158813
0.0160665
0.016255
0.016448
0.0166469
0.0168535
0.0170701
0.0172997
0.0175455
0.0178113
0.0181013
0.0184203
0.0187737
0.0191675
0.0196077
0.0201016
0.0206532
0.0212733
0.021966
0.0227365
0.0236066
0.0246072
0.0257854
0.0272319
0.0290282
0.0314715
0.0348262
0.0396984
0.0485459
0.0615897
0.0882657
0.127603
0.202768
0.288594
0.329355
0.347964
0.334769
0.296444
0.249821
0.20586
0.170761
0.0181215
0.0182876
0.0184546
0.0186202
0.0187853
0.0189497
0.0191132
0.0192759
0.0194374
0.0195978
0.0197562
0.0199132
0.0200679
0.0202205
0.0203712
0.0205199
0.0206667
0.0208118
0.0209551
0.021097
0.0212375
0.021378
0.0215174
0.0216575
0.0217972
0.0219387
0.0220812
0.022227
0.0223759
0.0225312
0.0226934
0.0228633
0.0230432
0.0232357
0.023445
0.0236752
0.0239311
0.0242181
0.0245416
0.0249078
0.0253226
0.0257937
0.0263261
0.0269353
0.0276175
0.0284167
0.0293141
0.0303776
0.0317042
0.0333928
0.0355935
0.0386026
0.0426741
0.0490546
0.0580845
0.0743159
0.101158
0.144836
0.217261
0.294121
0.326056
0.327788
0.3075
0.267987
0.234427
0.205071
0.176099
0.149449
0.127774
0.0283866
0.0285161
0.0286449
0.0287719
0.028898
0.0290212
0.0291421
0.0292607
0.0293758
0.0294879
0.0295945
0.0296979
0.0297976
0.0298937
0.0299859
0.0300742
0.0301587
0.0302398
0.0303179
0.0303935
0.0304672
0.0305411
0.0306138
0.0306882
0.0307631
0.0308419
0.0309233
0.0310114
0.0311051
0.0312092
0.0313257
0.0314588
0.0316145
0.0318006
0.0320239
0.0322919
0.0326118
0.0329899
0.0334334
0.0339488
0.0345448
0.0352363
0.0360281
0.0369786
0.0380536
0.0394326
0.0410029
0.043275
0.0465127
0.0509432
0.0570611
0.0658534
0.0785873
0.0981969
0.128464
0.184241
0.2517
0.319477
0.348393
0.334409
0.298628
0.233895
0.189909
0.165847
0.150787
0.136754
0.121245
0.105404
0.0918137
0.0421864
0.0423275
0.042463
0.0425883
0.0427058
0.0428126
0.0429126
0.0430054
0.0430917
0.0431688
0.0432363
0.0432987
0.0433599
0.0434172
0.0434709
0.0435209
0.0435684
0.0436136
0.0436579
0.043702
0.043747
0.0437935
0.0438432
0.0438977
0.0439569
0.0440286
0.04411
0.044219
0.044357
0.0445399
0.044771
0.0450564
0.0454077
0.0458332
0.0463397
0.0469385
0.0476357
0.0484363
0.049352
0.0503954
0.051598
0.0530056
0.0546555
0.0567444
0.0592161
0.0624973
0.0675991
0.0766929
0.0886364
0.103609
0.123111
0.149889
0.187215
0.23664
0.298285
0.339118
0.360736
0.344746
0.279782
0.198447
0.148358
0.123072
0.10987
0.103711
0.0998501
0.0946986
0.0869134
0.0772062
0.0677026
0.0738584
0.0740993
0.0743475
0.0745901
0.0748167
0.0750241
0.0752145
0.0753683
0.0755694
0.0754925
0.075481
0.0754756
0.0754725
0.0754701
0.075467
0.0754616
0.0754525
0.0754378
0.0754185
0.0753881
0.0753537
0.0753071
0.0752471
0.0751626
0.075081
0.0751013
0.0750866
0.0753238
0.0756361
0.0761604
0.0768381
0.0776344
0.0786685
0.0799006
0.081348
0.0831416
0.0852277
0.0876196
0.0903932
0.093618
0.09746
0.101994
0.107503
0.114164
0.122471
0.132541
0.145282
0.156852
0.172326
0.192991
0.219635
0.255689
0.294144
0.32969
0.327259
0.282291
0.200975
0.143648
0.112105
0.0934845
0.0828923
0.0783453
0.0779197
0.0791546
0.0807008
0.0802359
0.07661
0.0700596
0.0613051
0.236694
0.238421
0.240131
0.241792
0.2434
0.244902
0.246353
0.247713
0.249036
0.250282
0.251464
0.252592
0.253661
0.254665
0.255618
0.256482
0.25729
0.257935
0.25871
0.258883
0.259583
0.259588
0.259518
0.258182
0.258166
0.25654
0.256367
0.254949
0.254667
0.253471
0.252663
0.249094
0.24708
0.244753
0.242365
0.242836
0.241496
0.238693
0.234846
0.230074
0.224423
0.217765
0.209999
0.200933
0.190289
0.177781
0.1629
0.145259
0.12437
0.0998937
0.073804
0.0591633
0.0644034
0.0784096
0.084627
0.0825306
0.0774035
0.0742142
0.0740012
0.0823982
0.0913315
0.103281
0.114064
0.123188
0.127887
0.128877
0.124453
0.11482
0.0972507
0.000248202
0.000248642
0.000249063
0.000249497
0.000249945
0.000250632
0.00025162
0.000252502
0.000253205
0.000253801
0.000254468
0.000255062
0.000256499
0.000258328
0.000259747
0.000260313
0.000261326
0.000262554
0.000262959
0.000263726
0.000263643
0.000263676
0.000263788
0.000264568
0.00026554
0.000266476
0.000267258
0.00026736
0.000266765
0.000267087
0.000267667
0.00026875
0.000269848
0.000269736
0.000269759
0.000269187
0.000269086
0.000268917
0.000268352
0.000268363
0.000268247
0.000268147
0.00026804
0.000267345
0.000266619
0.000266052
0.00026535
0.00026413
0.000262484
0.000262471
0.00026276
0.000263021
0.000262983
0.000262788
0.000262245
0.000261489
0.000261071
0.000260849
0.000260697
0.000249534
0.000249957
0.00025042
0.000250977
0.000251748
0.000252545
0.000253101
0.000253562
0.000253992
0.000254581
0.000255318
0.000256358
0.000258338
0.000259588
0.000260344
0.000260806
0.000262131
0.000262987
0.000263474
0.000263915
0.00026391
0.000263925
0.000264139
0.000264985
0.000265918
0.000266852
0.000267564
0.000267697
0.000267152
0.000267434
0.000268072
0.000269065
0.000270179
0.000270183
0.000270328
0.000270038
0.000269817
0.000269657
0.00026922
0.000268997
0.000269056
0.000269114
0.000268901
0.000268694
0.000268137
0.000267534
0.000266971
0.000266167
0.000265051
0.000263974
0.00026357
0.000263738
0.000263947
0.000263842
0.000263846
0.000263581
0.00026334
0.000263035
0.000262614
0.000251762
0.000252216
0.000252731
0.000253237
0.000253739
0.000254107
0.000254391
0.000254746
0.000255288
0.00025609
0.000257192
0.000258848
0.000260147
0.00026083
0.000261322
0.000262109
0.000263357
0.000263936
0.000264364
0.000264632
0.000264535
0.000264732
0.000265082
0.000265969
0.000266887
0.000267848
0.00026854
0.000268691
0.000268063
0.000268342
0.00026901
0.000269888
0.000271001
0.000271168
0.000271385
0.000271338
0.000271197
0.000271085
0.000270828
0.000270635
0.000270623
0.000270601
0.000270594
0.000270374
0.000270133
0.000269819
0.000269302
0.000268632
0.000267704
0.000266882
0.000266024
0.000265643
0.000265666
0.00026564
0.000265422
0.000265399
0.000265493
0.000265241
0.000265212
0.000254359
0.000254686
0.000255063
0.000255349
0.000255648
0.000255925
0.000256329
0.000256944
0.000257826
0.000258962
0.00026024
0.00026142
0.000262075
0.000262535
0.000263164
0.000264241
0.000265098
0.000265477
0.000265745
0.000265849
0.00026594
0.000266186
0.000266764
0.00026767
0.000268535
0.000269497
0.000270091
0.000270306
0.00026981
0.000270033
0.00027079
0.000271539
0.00027266
0.00027301
0.000273348
0.000273347
0.000273274
0.000273137
0.000272995
0.000272862
0.000272844
0.000272787
0.00027287
0.000272897
0.000272696
0.000272498
0.000272356
0.000271785
0.000271385
0.000270579
0.000269769
0.000269133
0.000268788
0.000268586
0.000268566
0.000268246
0.000268437
0.000268261
0.000268297
0.000257429
0.000257649
0.000257958
0.000258213
0.000258599
0.000259074
0.000259749
0.000260605
0.000261614
0.000262654
0.000263558
0.00026418
0.000264571
0.000265143
0.000266004
0.000266973
0.000267437
0.000267641
0.000267843
0.000267968
0.000268193
0.000268578
0.000269237
0.000270108
0.000270943
0.000271927
0.000272496
0.000272739
0.000272301
0.00027253
0.000273316
0.000274006
0.000275148
0.000275632
0.000276082
0.000276118
0.00027606
0.00027604
0.000275899
0.000275921
0.000276056
0.000276122
0.000275989
0.000275982
0.000275916
0.000276001
0.000275811
0.000275797
0.000275301
0.000275103
0.000274633
0.000274121
0.000273637
0.000273207
0.000272865
0.000272694
0.00027236
0.000272452
0.000272078
0.000261552
0.000261836
0.000262204
0.000262582
0.000263136
0.00026376
0.000264522
0.000265326
0.000266116
0.000266787
0.000267283
0.000267681
0.000268169
0.000268949
0.000269873
0.0002704
0.000270616
0.000270748
0.000270955
0.000271157
0.000271501
0.000271983
0.00027271
0.000273523
0.000274352
0.000275346
0.0002759
0.00027617
0.0002758
0.000276042
0.000276863
0.000277502
0.000278667
0.000279273
0.000279805
0.000280059
0.000280122
0.00028012
0.000280103
0.000280015
0.000280157
0.000280366
0.000280469
0.000280442
0.000280453
0.000280425
0.000280293
0.000280181
0.00028006
0.00027997
0.000279967
0.000279286
0.000278832
0.000278559
0.00027872
0.000278705
0.00027855
0.000278499
0.000278251
0.000267331
0.000267649
0.000268103
0.000268527
0.000269098
0.000269648
0.000270245
0.000270778
0.000271255
0.000271643
0.000272031
0.000272486
0.000273123
0.000273944
0.000274527
0.00027485
0.000274992
0.000274959
0.000275235
0.000275529
0.000275969
0.000276538
0.000277262
0.000278022
0.000278861
0.000279847
0.000280391
0.000280686
0.000280388
0.000280653
0.000281514
0.00028212
0.000283318
0.000284057
0.000284664
0.000285093
0.000285339
0.000285452
0.0002855
0.000285591
0.000285786
0.000285805
0.000286016
0.000285963
0.000285968
0.000286268
0.000286491
0.000286408
0.000286368
0.00028632
0.000286225
0.000286316
0.000286038
0.000286009
0.000285689
0.000285686
0.000285599
0.000285669
0.000285138
0.000274931
0.000274944
0.000275452
0.000275777
0.000276228
0.000276547
0.000276937
0.000277265
0.000277629
0.00027801
0.000278412
0.000278946
0.000279668
0.000280327
0.000280723
0.000280869
0.000280611
0.000280683
0.000281068
0.000281458
0.000281969
0.00028256
0.00028329
0.000283997
0.000284864
0.000285835
0.000286381
0.000286705
0.000286484
0.000286784
0.000287689
0.000288269
0.000289486
0.000290356
0.000291047
0.000291604
0.000292032
0.000292337
0.000292504
0.000292698
0.000292981
0.000293272
0.00029354
0.000293858
0.000293664
0.000293635
0.000293615
0.000293559
0.000293486
0.000293575
0.000293944
0.000293781
0.00029365
0.000293759
0.000294033
0.000294126
0.000293776
0.00029395
0.000294143
0.000284141
0.000284443
0.00028463
0.000284629
0.000284534
0.000284959
0.000285293
0.000285605
0.00028597
0.000286109
0.000286608
0.000287335
0.000288056
0.000288471
0.000288414
0.000287918
0.000287989
0.000288302
0.000288746
0.000289138
0.000289669
0.000290304
0.000290965
0.000291633
0.000292539
0.000293481
0.000294028
0.000294385
0.000294236
0.000294584
0.000295543
0.000296125
0.000297376
0.000298399
0.000299211
0.000299897
0.000300475
0.000300991
0.000301367
0.000301697
0.000302077
0.000302522
0.000302968
0.000303442
0.000303783
0.000304116
0.000304414
0.000304681
0.000304927
0.000305126
0.000305589
0.000305101
0.000305477
0.000304735
0.000304774
0.000305353
0.000304682
0.000304754
0.000305456
0.000296554
0.000296495
0.000296431
0.00029605
0.000296175
0.000296283
0.000296585
0.000296708
0.000296762
0.000296946
0.000298038
0.000298636
0.000298628
0.000297928
0.000297987
0.000298093
0.000298039
0.000298366
0.00029867
0.000299138
0.000299727
0.000300324
0.00030091
0.000301569
0.000302538
0.000303439
0.000304002
0.000304392
0.000304334
0.000304742
0.000305758
0.000306349
0.000307605
0.000308766
0.000309719
0.000310553
0.000311279
0.000311982
0.0003126
0.000313149
0.000313695
0.000314296
0.000314916
0.000315577
0.00031616
0.000316734
0.000317309
0.000317868
0.000318412
0.000318922
0.000319497
0.000319942
0.000320443
0.000320752
0.000321089
0.000321682
0.000321685
0.000321321
0.000321115