/*--------------------------------*- C++ -*----------------------------------*\
| =========                 |                                                 |
| \\      /  F ield         | OpenFOAM: The Open Source CFD Toolbox           |
|  \\    /   O peration     | Version:  2312                                  |
|   \\  /    A nd           | Website:  www.openfoam.com                      |
|    \\/     M anipulation  |                                                 |
\*---------------------------------------------------------------------------*/
FoamFile
{
    version     2.0;
    format      ascii;
    arch        "LSB;label=32;scalar=64";
    class       volScalarField;
    location    "2000";
    object      k;
}
// * * * * * * * * * * * * * * * * * * * * * * * * * * * * * * * * * * * * * //

dimensions      [0 2 -2 0 0 0 0];

internalField   nonuniform List<scalar> 
76025
(
0.0019669
0.00196575
0.00196493
0.00196379
0.00196189
0.00196067
0.00195843
0.00195716
0.00195532
0.00195434
0.00195274
0.00195176
0.00195043
0.00194976
0.00194884
0.00194796
0.00194652
0.00194549
0.00194368
0.00194275
0.00194173
0.00194087
0.00193946
0.0019385
0.00193683
0.00193559
0.00193448
0.0019331
0.00193191
0.00192959
0.00192903
0.00192715
0.001926
0.00192586
0.0019251
0.0019231
0.00192372
0.00192421
0.0019256
0.00192749
0.00193018
0.00193494
0.00194074
0.00194938
0.00195939
0.00197338
0.00198842
0.00200703
0.00202837
0.00205158
0.00207803
0.00210581
0.00213651
0.00216613
0.00220478
0.00224241
0.00228641
0.00233858
0.0023937
0.00246903
0.00254131
0.00263683
0.00276242
0.0028915
0.00308414
0.0032353
0.00344336
0.00365472
0.00397326
0.00197971
0.00197769
0.00197601
0.00197476
0.00197327
0.00197222
0.00197066
0.00196931
0.00196768
0.00196638
0.00196503
0.00196399
0.00196276
0.00196185
0.00196114
0.00196049
0.00195958
0.00195856
0.0019572
0.00195582
0.00195426
0.00195272
0.00195197
0.00194956
0.00194841
0.00194736
0.00194632
0.00194697
0.00194726
0.00194736
0.00194754
0.00194807
0.00194919
0.00195065
0.00195261
0.00195502
0.00195767
0.00196124
0.00196554
0.00197115
0.00197795
0.00198652
0.00199653
0.00200912
0.00202289
0.00204011
0.00205753
0.00207915
0.00209918
0.00212402
0.00214639
0.00217557
0.00220256
0.00223942
0.0022763
0.00232352
0.00237624
0.00244002
0.00251413
0.00260185
0.00270702
0.00283625
0.00298138
0.00314944
0.00336049
0.00355414
0.00387606
0.00409367
0.00459648
0.00199748
0.00199611
0.00199427
0.00199241
0.00199036
0.00198874
0.00198721
0.00198586
0.00198432
0.00198285
0.00198129
0.00198012
0.00197897
0.00197716
0.00197563
0.00197551
0.00197607
0.00197424
0.00197498
0.00197538
0.00197559
0.00197559
0.00197581
0.00197617
0.00197672
0.00197779
0.00197828
0.0019792
0.00198053
0.00198208
0.0019838
0.00198589
0.00198822
0.00199116
0.00199446
0.00199861
0.00200328
0.00200907
0.00201565
0.00202372
0.0020328
0.00204378
0.00205597
0.00207051
0.00208614
0.00210429
0.00212297
0.00214415
0.00216554
0.00219019
0.00221619
0.00224738
0.00228147
0.00232329
0.00236913
0.00242638
0.00248946
0.00256799
0.0026527
0.00275982
0.00287791
0.003021
0.00318295
0.0033772
0.00361123
0.00385549
0.00418667
0.00445958
0.00498375
0.00201713
0.00201749
0.00201564
0.00201484
0.00201527
0.00201461
0.00201377
0.00201268
0.00201182
0.00201064
0.00200927
0.00200761
0.0020067
0.00200259
0.00200231
0.00200206
0.00200229
0.00200248
0.00200299
0.00200369
0.00200449
0.00200543
0.00200651
0.00200782
0.00200932
0.00201104
0.00201292
0.002015
0.00201733
0.00202
0.00202306
0.00202676
0.00203094
0.0020359
0.0020413
0.0020476
0.00205432
0.00206222
0.00207071
0.00208082
0.00209174
0.00210467
0.00211857
0.00213491
0.002152
0.0021719
0.0021919
0.00221545
0.00223903
0.00226792
0.00229799
0.0023356
0.00237597
0.00242627
0.00248166
0.00254998
0.00262585
0.00271677
0.00281706
0.00294235
0.0030799
0.00325317
0.00344536
0.00368324
0.00395801
0.00425183
0.00465307
0.00499593
0.00569709
0.00204121
0.00204106
0.00204096
0.00204063
0.00203853
0.00203883
0.00203748
0.00203732
0.00203488
0.00203508
0.00203514
0.00203626
0.00203375
0.00203468
0.00203535
0.0020359
0.0020366
0.00203751
0.00203868
0.00204012
0.00204178
0.00204366
0.00204589
0.00204835
0.00205106
0.00205404
0.00205723
0.00206068
0.0020643
0.00206815
0.00207231
0.00207698
0.00208214
0.00208817
0.00209488
0.0021027
0.00211121
0.002121
0.00213144
0.00214355
0.00215658
0.00217177
0.00218819
0.00220695
0.00222682
0.00224916
0.00227239
0.00229924
0.00232756
0.00236176
0.00239895
0.00244415
0.00249429
0.00255463
0.00262202
0.00270164
0.00278995
0.00289345
0.00301179
0.00315861
0.00332322
0.00352868
0.00375147
0.00403556
0.00434203
0.00471466
0.00516588
0.00563915
0.00646433
0.00207189
0.00207376
0.00207584
0.00207737
0.00207802
0.00207839
0.00207929
0.00207635
0.00207749
0.00207823
0.00207872
0.00207952
0.00207999
0.00208075
0.0020816
0.00208255
0.00208365
0.00208495
0.00208644
0.00208815
0.00209006
0.00209216
0.00209451
0.00209719
0.00210018
0.00210362
0.00210752
0.0021119
0.00211671
0.00212193
0.0021276
0.00213378
0.00214051
0.00214803
0.0021563
0.00216572
0.00217605
0.00218796
0.00220086
0.00221581
0.00223182
0.00225015
0.00226959
0.00229148
0.00231471
0.00234089
0.00236884
0.00240145
0.00243652
0.00247884
0.00252453
0.00257945
0.00263934
0.00270955
0.00278675
0.00287606
0.00297697
0.00309701
0.00324103
0.00341552
0.00361435
0.00385196
0.00411597
0.00444765
0.0048128
0.00527601
0.00581786
0.00647318
0.00743911
0.0021155
0.00211681
0.00211835
0.00211992
0.00212133
0.0021226
0.00212386
0.00212472
0.00212574
0.00212683
0.00212802
0.00212944
0.00213092
0.00213248
0.00213408
0.00213566
0.00213736
0.00213928
0.00214155
0.00214424
0.00214723
0.00215056
0.00215407
0.00215788
0.00216193
0.00216631
0.00217107
0.00217627
0.00218192
0.00218814
0.00219508
0.00220276
0.00221129
0.00222077
0.00223121
0.00224287
0.00225555
0.00226994
0.00228546
0.00230331
0.00232242
0.00234425
0.00236742
0.00239359
0.00242152
0.00245307
0.00248716
0.00252658
0.00256935
0.00261991
0.00267425
0.00273828
0.00280723
0.00288702
0.00297549
0.0030795
0.00320099
0.00334879
0.00352487
0.00373106
0.00396291
0.00423649
0.00454916
0.00494406
0.00539007
0.00597844
0.00665514
0.0075533
0.00866876
0.00216247
0.00216435
0.00216712
0.00216994
0.00217272
0.00217552
0.00217813
0.00218059
0.00218286
0.00218505
0.00218716
0.00218938
0.00219174
0.00219423
0.00219699
0.00219988
0.00220296
0.00220617
0.00220956
0.00221318
0.00221705
0.00222119
0.00222571
0.00223063
0.00223607
0.002242
0.00224851
0.00225551
0.00226309
0.00227116
0.00228009
0.0022897
0.00230033
0.00231186
0.00232469
0.00233891
0.00235454
0.00237204
0.00239084
0.00241205
0.00243455
0.00245992
0.00248682
0.00251733
0.00255018
0.00258771
0.00262872
0.00267599
0.00272762
0.00278717
0.00285137
0.00292522
0.00300546
0.00309857
0.00320507
0.00333191
0.00348214
0.00366173
0.00386885
0.00410592
0.00437667
0.00470173
0.00509065
0.00557924
0.00615943
0.00692102
0.00780644
0.00897928
0.010229
0.00222902
0.00223225
0.0022354
0.00223843
0.00224137
0.00224426
0.00224712
0.00224993
0.00225277
0.00225564
0.00225855
0.00226147
0.00226447
0.00226752
0.00227079
0.0022743
0.00227814
0.00228235
0.00228693
0.00229187
0.00229713
0.00230261
0.00230843
0.00231452
0.00232115
0.00232819
0.00233603
0.00234438
0.0023538
0.00236386
0.00237521
0.00238733
0.00240087
0.00241526
0.00243119
0.00244839
0.00246728
0.00248807
0.00251066
0.00253592
0.0025632
0.00259387
0.00262707
0.00266458
0.0027054
0.00275155
0.00280178
0.00285856
0.00292024
0.00298974
0.00306568
0.0031521
0.00324914
0.00336257
0.00349479
0.00365059
0.00383302
0.00404585
0.0042883
0.00457234
0.00490849
0.00532474
0.00583297
0.00647093
0.00724746
0.00823567
0.00937113
0.0107859
0.0122023
0.00231842
0.00232033
0.00232275
0.0023254
0.00232834
0.00233149
0.00233484
0.00233835
0.00234203
0.00234597
0.00235016
0.00235452
0.002359
0.00236356
0.00236819
0.00237294
0.00237772
0.00238275
0.00238796
0.00239362
0.00239972
0.00240639
0.00241362
0.0024213
0.00242967
0.00243846
0.00244821
0.00245846
0.00247004
0.00248243
0.00249639
0.0025114
0.00252811
0.00254604
0.00256574
0.00258687
0.00260984
0.00263478
0.00266189
0.00269201
0.00272508
0.00276223
0.00280306
0.00284871
0.00289862
0.0029541
0.0030147
0.00308246
0.00315685
0.00324055
0.00333394
0.00344035
0.00356193
0.00370257
0.00386533
0.00405484
0.00427594
0.00453449
0.00483803
0.00520646
0.00565552
0.00621495
0.00689874
0.00774638
0.00876446
0.0099942
0.0113541
0.0129747
0.0143286
0.00241705
0.0024199
0.00242304
0.00242634
0.00242992
0.0024339
0.00243817
0.00244268
0.00244733
0.00245212
0.00245707
0.00246228
0.00246782
0.00247377
0.00248014
0.00248702
0.00249429
0.00250202
0.00251004
0.00251842
0.0025271
0.00253612
0.00254561
0.00255552
0.00256625
0.00257768
0.0025902
0.0026038
0.00261889
0.00263532
0.00265341
0.00267291
0.00269405
0.00271664
0.00274084
0.0027665
0.00279394
0.00282345
0.00285552
0.00289097
0.0029302
0.00297399
0.00302227
0.00307613
0.0031358
0.00320274
0.00327769
0.00336204
0.00345646
0.0035626
0.00368162
0.00381629
0.00396911
0.0041444
0.00434726
0.00458637
0.00486922
0.00520877
0.00561985
0.00612515
0.00674206
0.00749738
0.00840328
0.00948751
0.0107358
0.0121651
0.0136959
0.0153977
0.0170053
0.00253979
0.00254343
0.00254736
0.00255138
0.00255574
0.0025605
0.00256577
0.00257144
0.0025775
0.00258387
0.00259043
0.00259727
0.00260434
0.0026118
0.00261971
0.00262813
0.00263713
0.00264678
0.00265698
0.00266772
0.002679
0.00269091
0.00270345
0.00271665
0.0027305
0.00274511
0.00276056
0.00277721
0.00279519
0.00281477
0.00283604
0.00285908
0.00288388
0.00291046
0.00293884
0.00296902
0.00300157
0.00303657
0.00307503
0.00311745
0.00316501
0.00321828
0.00327828
0.00334628
0.00342333
0.00351086
0.0036098
0.00372101
0.00384545
0.00398408
0.00413899
0.0043133
0.0045112
0.00474014
0.00500958
0.0053322
0.00572058
0.00619299
0.00676602
0.00745941
0.00828631
0.00926333
0.0103917
0.0116785
0.0130978
0.0146678
0.0162821
0.0181202
0.0202186
0.00269451
0.00269969
0.00270509
0.00271054
0.00271626
0.00272238
0.00272896
0.0027361
0.00274372
0.00275196
0.00276064
0.00276981
0.00277943
0.00278947
0.00280002
0.00281118
0.00282309
0.00283583
0.00284943
0.00286389
0.00287921
0.00289556
0.0029127
0.00293066
0.00294906
0.0029679
0.00298726
0.00300729
0.00302831
0.00305053
0.00307445
0.00310023
0.00312821
0.00315862
0.00319168
0.00322761
0.00326713
0.00331038
0.00335875
0.00341266
0.0034739
0.00354312
0.00362207
0.00371176
0.00381367
0.00392932
0.00406021
0.00420802
0.00437401
0.00456018
0.00476957
0.00500701
0.00528013
0.00560016
0.00598081
0.00643696
0.00698479
0.00763927
0.00841275
0.00931548
0.0103506
0.011522
0.0128195
0.0142409
0.0157626
0.0174026
0.0190612
0.0212353
0.0244771
0.00288838
0.00289557
0.00290307
0.0029107
0.00291861
0.00292698
0.00293581
0.00294521
0.00295515
0.00296574
0.00297697
0.00298884
0.00300135
0.00301452
0.00302832
0.00304282
0.00305801
0.00307394
0.00309061
0.00310818
0.00312674
0.0031466
0.00316766
0.00319001
0.00321327
0.00323756
0.00326273
0.00328886
0.00331618
0.00334491
0.00337554
0.00340836
0.00344366
0.00348207
0.00352374
0.00356948
0.00362002
0.00367636
0.00374019
0.00381245
0.00389537
0.00399025
0.00409842
0.00422091
0.00435994
0.00451846
0.00469951
0.00490565
0.00513883
0.00540199
0.00569962
0.00603938
0.00643216
0.00689137
0.00743101
0.00806463
0.00880281
0.00965311
0.0106186
0.0116999
0.0128919
0.0141914
0.0155821
0.0170621
0.0186033
0.0202634
0.0220427
0.0252719
0.0317536
0.00313832
0.00314778
0.00315768
0.00316775
0.00317823
0.00318921
0.00320077
0.00321288
0.00322561
0.00323896
0.00325296
0.00326762
0.00328298
0.00329904
0.00331589
0.00333364
0.00335259
0.00337283
0.00339448
0.00341737
0.00344148
0.00346668
0.00349309
0.00352056
0.00354953
0.00357978
0.00361166
0.00364522
0.00368082
0.00371874
0.00375947
0.00380334
0.00385078
0.00390284
0.00395981
0.0040235
0.00409463
0.00417552
0.00426781
0.00437306
0.00449383
0.00463173
0.00478765
0.00496387
0.0051642
0.00539303
0.00565394
0.00594955
0.00628278
0.00665798
0.00708206
0.00756448
0.00811614
0.00874781
0.00946857
0.0102845
0.0111983
0.0122095
0.013315
0.0145102
0.0157852
0.0171323
0.0185278
0.0199784
0.0214587
0.0232406
0.0255704
0.0320862
0.0450134
0.003465
0.00347791
0.0034913
0.00350483
0.00351879
0.00353328
0.00354839
0.00356414
0.0035805
0.00359762
0.00361537
0.0036339
0.0036532
0.00367334
0.00369444
0.00371671
0.00374051
0.00376606
0.00379378
0.00382362
0.00385576
0.0038897
0.00392563
0.00396319
0.00400242
0.00404334
0.00408618
0.00413142
0.00417961
0.00423127
0.00428742
0.00434865
0.00441612
0.00449131
0.00457528
0.0046705
0.00477812
0.00490098
0.00504053
0.00519886
0.00537857
0.00558133
0.00580917
0.00606562
0.00635536
0.00668275
0.00705166
0.0074659
0.00793001
0.00844951
0.00903081
0.00968036
0.0104038
0.0112049
0.0120857
0.0130454
0.0140816
0.0151899
0.0163643
0.0175953
0.0188667
0.0201668
0.0214723
0.0228276
0.0242575
0.0267891
0.0309181
0.0441419
0.0700367
0.00389967
0.00391778
0.00393652
0.00395546
0.00397487
0.00399493
0.00401567
0.00403721
0.00405949
0.00408271
0.0041068
0.00413195
0.00415819
0.00418565
0.00421449
0.00424493
0.00427734
0.004312
0.00434946
0.00438984
0.00443374
0.00448128
0.00453263
0.00458772
0.00464651
0.00470895
0.00477511
0.00484526
0.00492011
0.00500046
0.00508777
0.00518351
0.00528998
0.00540931
0.005544
0.00569626
0.00586812
0.00606121
0.00627705
0.00651734
0.00678391
0.00707979
0.00740746
0.00777055
0.00817337
0.00862012
0.0091155
0.00966386
0.0102691
0.0109342
0.0116613
0.0124516
0.0133049
0.0142203
0.0151954
0.0162264
0.0173086
0.0184338
0.0195917
0.0207652
0.0219345
0.0230958
0.024248
0.0255441
0.0272424
0.0319162
0.0402761
0.0656664
0.107127
0.00449638
0.00452239
0.00454943
0.00457695
0.00460524
0.00463451
0.00466479
0.00469623
0.00472885
0.00476285
0.00479834
0.00483551
0.00487454
0.00491568
0.00495917
0.0050054
0.00505467
0.00510764
0.00516498
0.00522716
0.00529477
0.00536839
0.00544844
0.00553548
0.0056297
0.00573161
0.00584145
0.00595983
0.00608783
0.00622659
0.00637754
0.00654284
0.00672523
0.00692725
0.007151
0.00739771
0.00766795
0.00796206
0.00828062
0.00862499
0.00899729
0.0094007
0.00983865
0.0103157
0.0108346
0.0113972
0.0120072
0.0126659
0.0133745
0.014133
0.0149413
0.0157979
0.016701
0.0176478
0.018634
0.0196526
0.020695
0.0217472
0.022794
0.0238138
0.0247961
0.0257736
0.0268017
0.0283751
0.0312768
0.0398998
0.0580959
0.100581
0.137387
0.00534202
0.00538124
0.00542242
0.00546491
0.00550909
0.00555521
0.00560341
0.00565385
0.00570673
0.00576231
0.00582087
0.00588281
0.0059484
0.00601844
0.00609342
0.00617391
0.00626054
0.00635402
0.00645516
0.00656477
0.00668365
0.00681269
0.00695254
0.00710412
0.00726779
0.00744442
0.00763422
0.00783793
0.00805637
0.00829002
0.00853967
0.0088069
0.00909352
0.00940091
0.00972967
0.0100797
0.0104505
0.0108419
0.0112545
0.0116898
0.0121499
0.0126376
0.0131558
0.0137073
0.0142947
0.0149197
0.0155852
0.0162876
0.0170281
0.0178058
0.01862
0.0194677
0.0203462
0.0212503
0.0221721
0.0230988
0.024017
0.0249081
0.0257582
0.0265537
0.0273224
0.0281815
0.0293538
0.0320845
0.0376678
0.0535198
0.0897485
0.135966
0.148417
0.00665655
0.0067235
0.00679454
0.00686895
0.00694735
0.00703005
0.00711751
0.00721021
0.00730846
0.0074126
0.00752301
0.00764015
0.00776443
0.00789638
0.00803656
0.0081856
0.00834415
0.0085129
0.00869256
0.0088838
0.00908723
0.00930343
0.00953284
0.00977591
0.0100328
0.0103038
0.0105887
0.0108877
0.0112006
0.0115273
0.0118678
0.0122222
0.0125909
0.0129741
0.0133724
0.0137859
0.0142149
0.0146595
0.0151204
0.0155986
0.0160955
0.0166129
0.0171525
0.0177162
0.018306
0.0189234
0.0195698
0.0202463
0.0209538
0.0216876
0.0224464
0.0232238
0.0240151
0.0248103
0.0255945
0.0263491
0.0270603
0.0277159
0.0283168
0.0288903
0.0295471
0.030605
0.0327674
0.0380059
0.050238
0.0788194
0.128497
0.150326
0.149518
0.00892864
0.00905653
0.00919201
0.00933398
0.00948295
0.00963917
0.00980272
0.00997375
0.0101524
0.0103389
0.0105333
0.0107359
0.0109468
0.0111662
0.0113942
0.0116311
0.0118771
0.0121324
0.0123973
0.0126721
0.012957
0.013252
0.0135574
0.013873
0.0141988
0.0145344
0.0148796
0.0152338
0.0155968
0.0159679
0.0163469
0.0167336
0.0171275
0.0175287
0.0179373
0.0183535
0.0187778
0.0192107
0.0196533
0.0201064
0.0205716
0.0210504
0.0215447
0.0220565
0.0225878
0.0231402
0.0237144
0.0243113
0.0249303
0.0255698
0.0262214
0.0268687
0.0275084
0.0281194
0.0286831
0.0291848
0.0296221
0.0300258
0.0304118
0.0309599
0.0318792
0.0341262
0.0387525
0.0496783
0.0737291
0.118454
0.145394
0.151565
0.143571
0.0129405
0.0131358
0.0133395
0.01355
0.0137678
0.013993
0.0142254
0.0144649
0.0147114
0.0149648
0.0152249
0.0154917
0.0157651
0.016045
0.0163312
0.0166237
0.0169221
0.0172265
0.0175365
0.0178519
0.0181726
0.0184984
0.0188288
0.0191637
0.0195027
0.0198453
0.0201912
0.0205399
0.0208908
0.0212435
0.0215977
0.0219531
0.0223094
0.0226665
0.0230247
0.0233843
0.023746
0.0241105
0.0244793
0.0248536
0.025235
0.0256258
0.0260283
0.0264447
0.0268769
0.0273256
0.027788
0.0282667
0.0287566
0.0292534
0.0297365
0.0301763
0.0305854
0.0309169
0.0311827
0.0313934
0.0315628
0.0319014
0.0322949
0.0335986
0.035675
0.0408439
0.0513791
0.0729758
0.110526
0.13562
0.146497
0.142322
0.131344
0.0187314
0.018954
0.019185
0.0194226
0.0196673
0.0199188
0.0201769
0.0204412
0.0207113
0.0209867
0.021267
0.0215517
0.0218404
0.0221326
0.0224276
0.0227249
0.0230242
0.0233248
0.0236263
0.0239281
0.0242299
0.0245311
0.0248313
0.02513
0.025427
0.0257217
0.0260138
0.0263027
0.0265882
0.0268701
0.0271483
0.0274226
0.0276926
0.0279584
0.0282205
0.0284795
0.0287364
0.0289927
0.0292499
0.0295097
0.0297739
0.030046
0.0303287
0.0306241
0.0309308
0.0312447
0.0315552
0.0318842
0.0322001
0.0324932
0.0327034
0.0328129
0.0328464
0.0328502
0.0328624
0.0329408
0.0330519
0.0340208
0.0351524
0.0384365
0.0444437
0.0558389
0.0774327
0.10439
0.123832
0.134902
0.133672
0.125865
0.115687
0.0258942
0.0260948
0.0263033
0.0265177
0.0267382
0.0269644
0.0271957
0.0274314
0.0276708
0.0279133
0.0281581
0.0284044
0.0286513
0.0288981
0.029144
0.0293884
0.0296307
0.0298701
0.0301062
0.0303383
0.030566
0.0307888
0.0310062
0.031218
0.0314238
0.031623
0.0318154
0.0320006
0.0321783
0.0323488
0.0325116
0.0326683
0.0328151
0.032954
0.0330872
0.0332161
0.0333426
0.0334681
0.0335945
0.0337221
0.0338531
0.0339967
0.0341517
0.0343151
0.0344726
0.0346043
0.0347187
0.0347121
0.0346406
0.0345164
0.0343004
0.0340583
0.0338697
0.033788
0.0338211
0.0343709
0.0353319
0.0379845
0.0425877
0.0510792
0.0665753
0.0859932
0.100647
0.112326
0.118637
0.118543
0.113904
0.106555
0.0978354
0.0333876
0.033536
0.0336888
0.0338437
0.0340013
0.0341614
0.0343233
0.0344864
0.0346504
0.0348147
0.0349777
0.0351361
0.0352902
0.0354402
0.0355862
0.0357279
0.0358649
0.0359966
0.0361226
0.0362426
0.0363575
0.0364656
0.0365662
0.0366613
0.0367517
0.0368304
0.0369038
0.0369643
0.0370199
0.0370665
0.0371074
0.0371532
0.0371412
0.0371407
0.0371404
0.03714
0.0371394
0.0371386
0.037137
0.0371302
0.0371045
0.0370577
0.0369849
0.0368951
0.0367297
0.0365136
0.0362115
0.0358476
0.0354869
0.0351028
0.0348298
0.0345701
0.0345774
0.0351143
0.0359653
0.03849
0.0431143
0.0509153
0.0641546
0.0800587
0.0899197
0.097093
0.100081
0.0997735
0.0991269
0.096972
0.0927663
0.0867682
0.0793744
0.0402313
0.0402927
0.040357
0.0404194
0.0404834
0.0405493
0.0406116
0.0406735
0.0407365
0.0407957
0.0408474
0.0408258
0.0408226
0.0408199
0.0408196
0.0408183
0.0408138
0.0408047
0.0407906
0.0407744
0.0407754
0.0407232
0.040686
0.0406574
0.0406776
0.0405704
0.0405688
0.0404297
0.0404125
0.040238
0.0401684
0.0401491
0.040076
0.0399743
0.039852
0.039712
0.039555
0.0393779
0.0391775
0.0389402
0.0386807
0.038389
0.0380623
0.0377022
0.0372873
0.0368714
0.0363176
0.0358642
0.0354977
0.0352731
0.0354075
0.0359576
0.0372812
0.0398945
0.0447051
0.0536141
0.0646851
0.0776228
0.0853678
0.0898228
0.0882393
0.0839276
0.0800879
0.0786167
0.0781176
0.076741
0.0736365
0.0687401
0.0625031
0.0436089
0.043569
0.0435882
0.0435188
0.0435012
0.0435268
0.0434378
0.0434113
0.0434506
0.0433537
0.0433678
0.0432211
0.0431536
0.0430958
0.0431408
0.0431378
0.0430997
0.0430366
0.0429551
0.0428592
0.0427529
0.0426369
0.0425124
0.0423816
0.0422472
0.0421023
0.0419548
0.0417992
0.0416444
0.041481
0.0413171
0.0411521
0.040978
0.0407912
0.040584
0.0403372
0.0400488
0.039713
0.0393302
0.0388864
0.0384046
0.0378569
0.0373182
0.0367481
0.0361942
0.0357113
0.0353717
0.0357774
0.0362336
0.0374804
0.0395844
0.0430773
0.0483969
0.0557877
0.0651799
0.0731477
0.0803689
0.0818932
0.0777708
0.0698055
0.0636335
0.0606105
0.0600163
0.0606688
0.0614471
0.0611676
0.0591416
0.0552692
0.0499979
0.042546
0.0424098
0.042459
0.0425187
0.0425573
0.0425693
0.0425516
0.0425147
0.0424645
0.0423959
0.0423183
0.0422241
0.0421248
0.0420174
0.0419055
0.0417827
0.041647
0.0414968
0.0413339
0.0411557
0.0409648
0.0407606
0.040542
0.0403067
0.0400597
0.0397928
0.0395143
0.0392106
0.0388891
0.0385469
0.0381825
0.0377949
0.0373835
0.0369544
0.0364977
0.0360485
0.0356191
0.0352049
0.0348355
0.0344773
0.0342456
0.0339956
0.0340317
0.0341503
0.034714
0.0354057
0.0364925
0.0381616
0.0404998
0.0436372
0.0477198
0.0531336
0.0591318
0.0649205
0.0679675
0.0642366
0.0556453
0.0474803
0.0424593
0.0411149
0.0415707
0.0429604
0.0449361
0.0472178
0.0490758
0.0496753
0.0486422
0.0458335
0.0415746
0.0326032
0.0327777
0.032957
0.0331359
0.0333118
0.0334804
0.033644
0.0337991
0.0339506
0.0340958
0.034237
0.0343732
0.034505
0.034631
0.0347549
0.03487
0.034988
0.0350793
0.0352074
0.0352434
0.0353336
0.0354419
0.0353816
0.0353459
0.0353139
0.035267
0.0352218
0.035164
0.035109
0.0352197
0.0350799
0.0350353
0.0348744
0.0348114
0.0343405
0.0341194
0.03414
0.0341157
0.0338843
0.0335101
0.0330171
0.032398
0.031644
0.0307287
0.0296175
0.0282628
0.0265887
0.024512
0.0219533
0.0187317
0.0153514
0.0138479
0.0152087
0.0170948
0.0175923
0.016835
0.0162643
0.0159061
0.0160603
0.0175065
0.0188249
0.0205605
0.0221247
0.0234948
0.0244936
0.0248504
0.0247265
0.0237965
0.0217773
0.00190273
0.00190394
0.00190542
0.00190682
0.00190842
0.00191168
0.00191584
0.00191899
0.00192067
0.00192176
0.00192289
0.00192468
0.00192926
0.00193615
0.0019402
0.00194018
0.00194453
0.0019481
0.00195062
0.0019546
0.00195579
0.00195839
0.00196004
0.00196344
0.00196797
0.00197252
0.00197794
0.0019818
0.00198148
0.00198295
0.00198421
0.00198853
0.00199257
0.00199367
0.00199483
0.00199424
0.00199339
0.00199325
0.00199275
0.0019939
0.0019923
0.00199244
0.00199139
0.00198789
0.00198678
0.00198448
0.00198133
0.00197455
0.00197161
0.00197286
0.00197494
0.00197706
0.00197682
0.00197605
0.00197437
0.00197127
0.00196946
0.00196868
0.0019679
0.0019114
0.001913
0.00191487
0.00191704
0.0019203
0.00192321
0.00192484
0.00192544
0.00192544
0.00192687
0.0019289
0.00193336
0.00194011
0.00194351
0.00194494
0.00194586
0.00195157
0.00195447
0.00195716
0.00196001
0.00196122
0.00196358
0.00196593
0.00196977
0.00197404
0.00197855
0.00198413
0.00198772
0.00198744
0.00198874
0.00199048
0.0019943
0.00199846
0.00199973
0.00200161
0.00200147
0.00200081
0.00200049
0.00200026
0.00200144
0.00200087
0.00200096
0.00200051
0.00199923
0.00199718
0.00199544
0.00199314
0.00198934
0.0019848
0.00198335
0.00198245
0.001984
0.00198606
0.00198599
0.00198564
0.00198536
0.00198433
0.0019832
0.00198186
0.00192446
0.0019261
0.0019282
0.00193007
0.00193174
0.00193249
0.00193195
0.00193273
0.0019342
0.00193732
0.00194153
0.00194676
0.00195023
0.00195186
0.00195287
0.00195614
0.00196116
0.00196338
0.00196571
0.00196798
0.00196945
0.00197211
0.00197494
0.00197882
0.00198288
0.00198751
0.00199311
0.0019966
0.0019964
0.00199764
0.00199983
0.0020032
0.00200743
0.0020089
0.00201137
0.00201156
0.00201113
0.00201133
0.00201136
0.00201214
0.0020126
0.00201231
0.00201234
0.00201183
0.00201134
0.00200963
0.00200872
0.00200623
0.00200331
0.00200003
0.00199861
0.00199618
0.00199719
0.00199884
0.00199897
0.001999
0.00199925
0.0019994
0.0019979
0.00193987
0.001941
0.00194214
0.00194226
0.00194307
0.00194349
0.00194456
0.00194675
0.00194995
0.00195394
0.0019579
0.00196092
0.00196253
0.00196367
0.00196595
0.00197065
0.00197396
0.00197554
0.00197759
0.00197967
0.00198157
0.00198458
0.00198768
0.00199145
0.00199533
0.00200015
0.00200575
0.00200912
0.00200905
0.00201037
0.0020129
0.0020159
0.00202029
0.00202208
0.00202496
0.00202621
0.00202635
0.00202595
0.00202618
0.00202775
0.0020281
0.00202863
0.0020281
0.00202805
0.00202769
0.00202703
0.00202645
0.002026
0.00202331
0.00202243
0.00202109
0.00201918
0.00201778
0.00201663
0.00201685
0.00201706
0.00201728
0.0020176
0.00201746
0.00195968
0.00195965
0.00196015
0.00196007
0.00196015
0.00196189
0.00196428
0.00196728
0.00197059
0.00197362
0.00197589
0.00197735
0.00197848
0.00198049
0.00198421
0.00198812
0.00199008
0.00199128
0.00199321
0.00199537
0.00199774
0.00200096
0.00200421
0.00200779
0.0020116
0.00201664
0.0020222
0.00202548
0.00202561
0.00202705
0.00202983
0.00203249
0.00203701
0.00203913
0.00204221
0.00204432
0.00204524
0.00204555
0.00204552
0.0020469
0.00204831
0.00204853
0.00204935
0.00204899
0.00204869
0.00204827
0.00204861
0.00204767
0.00204779
0.002046
0.00204576
0.00204468
0.00204204
0.00204144
0.00204098
0.00204099
0.00204089
0.002042
0.00204153
0.00198378
0.00198376
0.00198384
0.00198361
0.00198569
0.0019878
0.00199032
0.0019928
0.00199507
0.00199658
0.00199782
0.00199902
0.00200092
0.00200408
0.00200794
0.00201025
0.00201137
0.00201219
0.00201425
0.00201664
0.00201936
0.00202271
0.00202592
0.00202926
0.00203305
0.00203829
0.00204376
0.00204696
0.00204734
0.00204895
0.002052
0.00205443
0.00205912
0.0020617
0.00206502
0.00206777
0.00206955
0.00207065
0.00207097
0.00207231
0.00207397
0.0020757
0.0020753
0.00207564
0.00207654
0.0020764
0.00207757
0.00207659
0.00207624
0.00207555
0.00207477
0.00207449
0.00207353
0.00207316
0.00207266
0.00207272
0.00207258
0.00207271
0.00207263
0.00201502
0.00201445
0.00201403
0.00201567
0.00201747
0.00201907
0.00202109
0.00202272
0.00202327
0.00202458
0.00202565
0.00202751
0.00203022
0.00203389
0.00203629
0.00203728
0.00203751
0.00203881
0.00204104
0.00204371
0.00204672
0.00204998
0.00205311
0.00205623
0.00206009
0.00206554
0.0020709
0.00207408
0.00207475
0.00207654
0.00207982
0.00208202
0.00208672
0.0020897
0.00209322
0.00209647
0.00209904
0.00210103
0.0021019
0.00210339
0.00210552
0.00210785
0.00210936
0.00211101
0.00211049
0.0021107
0.00210975
0.00211012
0.00211072
0.002111
0.00211198
0.0021101
0.00210936
0.00210934
0.00210867
0.00211055
0.0021116
0.00211362
0.00211501
0.00205358
0.00205447
0.00205504
0.00205531
0.00205595
0.00205844
0.00206027
0.00206053
0.00206097
0.00206088
0.00206296
0.00206534
0.0020689
0.00207142
0.00207246
0.00207291
0.00207257
0.00207344
0.0020761
0.002079
0.00208205
0.00208512
0.00208797
0.0020909
0.00209488
0.00210048
0.0021057
0.0021089
0.00210987
0.00211189
0.00211545
0.00211766
0.00212246
0.002126
0.00212986
0.00213361
0.00213687
0.00213985
0.00214165
0.00214324
0.00214561
0.00214842
0.00215086
0.00215333
0.00215513
0.00215666
0.00215781
0.00215901
0.00216028
0.00216138
0.00216251
0.00216422
0.0021614
0.00216058
0.00216322
0.00216142
0.00216094
0.00216189
0.00216438
0.00210729
0.00210705
0.00210608
0.00210849
0.00210697
0.00210826
0.0021085
0.0021081
0.00210669
0.00210813
0.00210958
0.00211349
0.0021161
0.00211682
0.00211646
0.00211418
0.00211496
0.00211692
0.00211972
0.00212269
0.00212568
0.00212843
0.00213095
0.00213383
0.00213797
0.00214376
0.00214885
0.00215212
0.00215339
0.00215567
0.00215945
0.0021616
0.00216628
0.00217023
0.00217443
0.00217871
0.00218265
0.00218657
0.00218973
0.00219219
0.00219487
0.00219831
0.00220163
0.00220486
0.00220772
0.00221038
0.00221288
0.00221536
0.00221793
0.00222044
0.00222293
0.00222544
0.00222822
0.0022268
0.00222898
0.00222991
0.00222862
0.00222783
0.00222717
0.00216592
0.00216695
0.00216681
0.00216472
0.00216687
0.00216928
0.00216886
0.00216835
0.00216684
0.00217062
0.00217371
0.00217461
0.00217271
0.0021717
0.00217073
0.00217036
0.00217055
0.00217322
0.00217644
0.00217931
0.00218167
0.00218372
0.00218581
0.00218866
0.00219298
0.00219884
0.00220376
0.00220711
0.00220869
0.0022113
0.00221544
0.00221791
0.00222274
0.0022273
0.00223202
0.00223688
0.00224148
0.00224613
0.00225039
0.0022541
0.00225736
0.00226134
0.00226558
0.00226987
0.0022739
0.00227768
0.00228116
0.00228444
0.00228769
0.00229097
0.00229425
0.00229761
0.00230107
0.0023042
0.00230736
0.00231052
0.00231287
0.00231619
0.00231796
0.00224756
0.00224442
0.00224586
0.00224291
0.00224469
0.002244
0.00224657
0.00224599
0.00224596
0.00224375
0.00224355
0.00224322
0.00224363
0.00224116
0.00224114
0.00223893
0.00224121
0.00224407
0.00224636
0.00224846
0.00225018
0.00225168
0.00225338
0.00225626
0.00226091
0.00226672
0.00227154
0.00227505
0.00227698
0.00227994
0.00228431
0.00228692
0.00229159
0.00229651
0.00230181
0.00230745
0.00231297
0.0023187
0.00232422
0.00232951
0.00233413
0.00233898
0.00234419
0.00234963
0.0023551
0.00236052
0.0023657
0.00237053
0.00237509
0.00237946
0.00238369
0.00238787
0.00239194
0.00239611
0.00240004
0.0024043
0.00240781
0.0024123
0.00241552
0.00234491
0.00234277
0.00234326
0.00234344
0.00234604
0.0023463
0.00234552
0.00234401
0.00233822
0.00233688
0.00233369
0.0023308
0.00233049
0.00233181
0.00232899
0.00233135
0.00233304
0.00233439
0.00233588
0.00233689
0.00233789
0.00233896
0.00234027
0.00234314
0.00234796
0.00235352
0.00235819
0.00236184
0.00236412
0.00236755
0.00237238
0.00237574
0.00238084
0.0023864
0.00239237
0.00239877
0.00240508
0.00241166
0.00241825
0.00242481
0.00243096
0.00243704
0.00244337
0.00244991
0.00245656
0.00246334
0.00247015
0.0024768
0.0024832
0.00248937
0.00249532
0.00250114
0.00250673
0.00251238
0.00251764
0.0025232
0.00252784
0.00253346
0.00253757
0.0024718
0.00247042
0.00246842
0.00246634
0.00246091
0.00245645
0.00245467
0.00245297
0.00245014
0.00244625
0.00244582
0.00244769
0.00244802
0.00244449
0.00244609
0.00244573
0.00244387
0.00244618
0.0024458
0.00244669
0.00244676
0.00244677
0.00244801
0.00245092
0.00245572
0.00246094
0.0024657
0.00246955
0.00247227
0.00247621
0.00248131
0.00248498
0.00249011
0.00249609
0.0025029
0.00251054
0.00251837
0.00252651
0.00253492
0.00254327