/*--------------------------------*- C++ -*----------------------------------*\
| =========                 |                                                 |
| \\      /  F ield         | OpenFOAM: The Open Source CFD Toolbox           |
|  \\    /   O peration     | Version:  2312                                  |
|   \\  /    A nd           | Website:  www.openfoam.com                      |
|    \\/     M anipulation  |                                                 |
\*---------------------------------------------------------------------------*/
FoamFile
{
    version     2.0;
    format      ascii;
    arch        "LSB;label=32;scalar=64";
    class       volScalarField;
    location    "2000";
    object      nut;
}
// * * * * * * * * * * * * * * * * * * * * * * * * * * * * * * * * * * * * * //

dimensions      [0 2 -1 0 0 0 0];

internalField   nonuniform List<scalar> 
76025
(
0.0013372
0.00133773
0.00133872
0.00133907
0.00133989
0.00134079
0.00134159
0.00134253
0.00134315
0.00134401
0.00134442
0.00134566
0.00134663
0.00134789
0.00134905
0.00134987
0.00135091
0.00135151
0.00135261
0.00135384
0.00135602
0.00135778
0.00135938
0.00136126
0.00136202
0.00136339
0.00136446
0.00136583
0.00136755
0.00136776
0.0013717
0.00137168
0.00137482
0.00137817
0.00138164
0.00138334
0.00138722
0.00139228
0.00139661
0.00140243
0.00140587
0.00141122
0.00141389
0.00142087
0.00142451
0.00143404
0.00143881
0.00145131
0.0014583
0.0014723
0.00148069
0.0014942
0.00150538
0.00151865
0.00153483
0.00154987
0.00157011
0.00159131
0.00161272
0.00164436
0.00167205
0.00172702
0.0017773
0.00185875
0.00193324
0.00201617
0.00209953
0.00214953
0.00228155
0.00134543
0.00134501
0.00134506
0.0013453
0.00134588
0.00134663
0.0013474
0.00134821
0.001349
0.00134985
0.00135071
0.0013517
0.00135274
0.00135396
0.00135545
0.00135698
0.00135836
0.00135953
0.00136045
0.00136126
0.001362
0.00136272
0.00136468
0.00136417
0.00136597
0.00136764
0.00136993
0.00137385
0.00137779
0.00138069
0.0013845
0.00138783
0.00139241
0.00139723
0.00140344
0.00140728
0.00141042
0.00141418
0.0014173
0.00142159
0.00142533
0.00143097
0.00143598
0.0014438
0.0014505
0.0014608
0.00146931
0.00148105
0.00149019
0.00150097
0.00151033
0.0015203
0.00153267
0.0015434
0.00156207
0.00157648
0.00160484
0.00162587
0.00166263
0.00169844
0.00175299
0.00181899
0.00188562
0.00198209
0.00206269
0.00216738
0.00226721
0.00233904
0.00248539
0.00135593
0.00135631
0.00135638
0.00135605
0.00135574
0.00135578
0.00135626
0.00135693
0.00135768
0.00135838
0.00135903
0.00136004
0.00136088
0.00136073
0.00136073
0.0013627
0.00136557
0.00136529
0.00136874
0.00137177
0.00137466
0.00137698
0.00137968
0.00138199
0.00138495
0.00138827
0.0013913
0.0013953
0.0013994
0.00140658
0.00140854
0.00141119
0.00141392
0.0014173
0.00142037
0.00142428
0.00142758
0.00143206
0.00143584
0.00144137
0.00144613
0.00145353
0.00145965
0.00146941
0.00147668
0.00148844
0.00149576
0.00150788
0.00151422
0.00152562
0.0015328
0.00154524
0.00155711
0.00157278
0.00159326
0.00161539
0.00164777
0.00167906
0.00172337
0.00177307
0.00183461
0.00190902
0.00198235
0.00209181
0.00217562
0.00230218
0.00239056
0.00248842
0.00263477
0.00136593
0.00136815
0.00136785
0.001369
0.00137185
0.00137301
0.00137392
0.00137442
0.00137544
0.00137623
0.0013769
0.00137739
0.00137887
0.00137594
0.00137801
0.00137989
0.00138211
0.00138409
0.00138618
0.00138837
0.00139096
0.00139443
0.00139769
0.00140361
0.00140633
0.00140883
0.00141124
0.00141385
0.00141677
0.00142019
0.00142349
0.00142729
0.00143102
0.00143547
0.00143957
0.0014445
0.00144875
0.00145423
0.00145887
0.00146544
0.001471
0.00147927
0.00148598
0.00149615
0.00150358
0.00151499
0.00152188
0.0015334
0.00153953
0.00155176
0.00156013
0.00157567
0.00159029
0.0016117
0.00163704
0.00166749
0.00170626
0.00174615
0.0017979
0.00185601
0.00192582
0.00201322
0.00209936
0.00222757
0.00231471
0.0024643
0.00255454
0.00266943
0.002865
0.00137818
0.00137869
0.00138006
0.00138158
0.00138099
0.00138363
0.00138399
0.00138565
0.0013841
0.00138582
0.00138729
0.00139004
0.00138809
0.00139065
0.001393
0.00139557
0.00139792
0.00140171
0.00140583
0.00141037
0.00141332
0.00141505
0.00142201
0.00142418
0.00142689
0.00143009
0.00143334
0.00143678
0.00144008
0.00144343
0.00144668
0.0014502
0.0014537
0.00145799
0.00146234
0.00146784
0.00147301
0.00147955
0.00148502
0.00149247
0.00149834
0.00150732
0.00151402
0.00152472
0.00153163
0.00154319
0.00154912
0.00156149
0.00156751
0.00158317
0.00159328
0.0016154
0.00163345
0.00166466
0.00169375
0.00173453
0.00177373
0.00182251
0.00187518
0.00194836
0.00202711
0.00213438
0.00222999
0.00236952
0.00245963
0.00263186
0.0027097
0.00289157
0.00307791
0.00138954
0.00139318
0.00139718
0.00140074
0.0014032
0.00140505
0.0014077
0.00140472
0.0014077
0.0014104
0.00141299
0.00141686
0.00141922
0.00142513
0.00142801
0.0014291
0.00143469
0.00143524
0.00143586
0.00143725
0.00143897
0.00144065
0.00144292
0.00144522
0.00144768
0.00145046
0.00145352
0.00145684
0.0014603
0.00146391
0.00146766
0.00147166
0.0014758
0.00148057
0.00148542
0.00149129
0.001497
0.00150422
0.00151066
0.0015193
0.00152639
0.00153656
0.00154409
0.00155539
0.00156281
0.00157509
0.00158231
0.00159708
0.00160618
0.00162687
0.00164152
0.00167086
0.00169388
0.00173265
0.00176336
0.00180927
0.00184661
0.00190563
0.00196537
0.00206245
0.00214867
0.00227638
0.00236444
0.0025202
0.00260687
0.00280423
0.0028843
0.00314083
0.00329166
0.00141364
0.00141592
0.00141746
0.00141915
0.00142185
0.00142537
0.00142865
0.00143427
0.00143542
0.00143956
0.00144294
0.00144341
0.00144397
0.00144589
0.00144796
0.00144949
0.00145157
0.00145342
0.00145542
0.00145787
0.00146055
0.00146347
0.00146639
0.00146942
0.00147238
0.00147545
0.00147859
0.00148189
0.00148519
0.0014888
0.00149259
0.00149686
0.00150139
0.00150671
0.00151219
0.00151874
0.00152516
0.00153309
0.00154039
0.00154988
0.00155815
0.00156939
0.00157831
0.00159093
0.00160028
0.00161433
0.00162445
0.00164186
0.00165505
0.00167958
0.00169917
0.00173305
0.00176018
0.00180151
0.00183388
0.00188362
0.00192829
0.00200468
0.00208094
0.00219537
0.00228148
0.00241477
0.00249428
0.00267045
0.00275635
0.00299227
0.00308773
0.00340984
0.0035547
0.00143325
0.00143621
0.00143914
0.00144447
0.00144695
0.00144983
0.00145264
0.00145611
0.00145892
0.00146142
0.00146395
0.00146621
0.00146833
0.00147058
0.00147312
0.00147561
0.00147809
0.00148043
0.00148267
0.001485
0.00148745
0.00149008
0.00149294
0.00149606
0.00149949
0.00150321
0.00150726
0.00151155
0.00151603
0.00152078
0.00152576
0.00153106
0.00153656
0.00154263
0.00154893
0.00155632
0.00156376
0.00157268
0.00158091
0.00159117
0.00160012
0.00161163
0.00162109
0.00163407
0.00164466
0.00165978
0.00167259
0.00169205
0.0017098
0.0017372
0.00176239
0.00179856
0.00183035
0.00187343
0.00191382
0.00197293
0.00203533
0.00212788
0.00221478
0.00232939
0.00241175
0.00254995
0.00263884
0.00284412
0.00294434
0.00323692
0.00335283
0.00374457
0.00383621
0.00146731
0.00147351
0.00147554
0.00147713
0.00147879
0.00148052
0.00148241
0.00148438
0.00148649
0.00148849
0.00149053
0.00149245
0.00149433
0.00149614
0.00149812
0.00150029
0.00150274
0.00150538
0.00150814
0.001511
0.00151396
0.00151688
0.00152001
0.00152314
0.00152671
0.00153043
0.00153484
0.00153951
0.00154499
0.00155074
0.00155706
0.00156357
0.00157038
0.00157728
0.00158431
0.00159175
0.00159947
0.00160839
0.00161738
0.00162855
0.00163941
0.00165301
0.00166604
0.00168264
0.00169799
0.00171704
0.00173457
0.00175747
0.00178024
0.00181035
0.0018407
0.00187878
0.00191731
0.0019662
0.00202045
0.00209095
0.00216899
0.00226565
0.00235613
0.00246731
0.00256462
0.00271913
0.00284447
0.00308014
0.00322258
0.0035669
0.00369802
0.00412146
0.00408924
0.00150383
0.00150416
0.00150583
0.00150791
0.00151024
0.00151268
0.00151525
0.001518
0.00152097
0.00152423
0.00152764
0.00153114
0.00153457
0.00153788
0.00154096
0.00154398
0.00154668
0.00154954
0.0015522
0.00155519
0.00155826
0.00156182
0.00156536
0.00156892
0.00157251
0.00157584
0.00157958
0.00158316
0.0015877
0.00159268
0.00159859
0.0016054
0.001613
0.00162146
0.00163046
0.00164012
0.00165021
0.00166122
0.00167258
0.00168582
0.00169943
0.00171587
0.00173292
0.00175282
0.00177216
0.00179416
0.00181607
0.00184295
0.00187145
0.00190631
0.00194338
0.00198734
0.00203533
0.00209318
0.00215808
0.00223575
0.00232103
0.00241988
0.00252108
0.00264739
0.00278106
0.0029667
0.00314566
0.00341116
0.00361018
0.00396029
0.00408845
0.00445436
0.00427503
0.00153594
0.00153769
0.00153967
0.00154189
0.00154427
0.00154687
0.00154959
0.00155237
0.00155519
0.00155811
0.00156102
0.00156413
0.00156736
0.00157083
0.00157439
0.00157823
0.00158212
0.00158632
0.0015905
0.00159492
0.00159929
0.0016039
0.00160866
0.00161359
0.00161903
0.00162463
0.00163084
0.00163729
0.00164461
0.00165239
0.00166102
0.00167041
0.00168064
0.00169158
0.00170315
0.00171504
0.00172727
0.00174006
0.00175326
0.00176795
0.00178377
0.00180196
0.00182091
0.00184229
0.00186456
0.00189045
0.00191883
0.00195237
0.00198897
0.00203105
0.00207614
0.00212778
0.00218388
0.00224903
0.00232103
0.00240767
0.00250428
0.00262062
0.00275057
0.00291411
0.00309566
0.00332247
0.00355162
0.00383198
0.00405554
0.00434732
0.00444592
0.00466599
0.0042814
0.00158236
0.0015841
0.00158603
0.00158803
0.00159034
0.00159285
0.0015957
0.00159869
0.00160186
0.00160524
0.00160871
0.00161237
0.00161625
0.00162036
0.00162474
0.00162931
0.00163403
0.00163906
0.00164425
0.00164959
0.00165498
0.00166064
0.00166635
0.00167223
0.0016781
0.00168416
0.00169042
0.0016974
0.001705
0.00171347
0.00172289
0.00173329
0.00174454
0.0017563
0.00176846
0.00178069
0.00179346
0.00180663
0.00182085
0.00183643
0.00185394
0.00187375
0.0018958
0.00192157
0.00195086
0.00198553
0.00202494
0.00207021
0.00211999
0.00217484
0.00223322
0.00229706
0.00236508
0.00244239
0.00253001
0.00263658
0.00276006
0.00291179
0.00308565
0.00329523
0.00352085
0.00377583
0.00402165
0.00427354
0.00446999
0.00465618
0.00470919
0.00463692
0.00408391
0.00164062
0.00164313
0.00164571
0.00164833
0.00165109
0.00165408
0.00165729
0.00166072
0.00166429
0.00166809
0.00167211
0.00167632
0.00168084
0.00168555
0.00169058
0.00169594
0.00170167
0.00170781
0.0017143
0.00172121
0.00172839
0.00173629
0.00174436
0.00175284
0.00176096
0.00176885
0.00177647
0.00178404
0.0017918
0.00179995
0.00180893
0.00181876
0.00182963
0.00184123
0.00185369
0.00186671
0.0018809
0.00189587
0.00191254
0.00193075
0.00195173
0.00197571
0.00200373
0.0020367
0.0020752
0.00212059
0.00217287
0.00223272
0.00229847
0.00236956
0.00244449
0.0025246
0.00261138
0.00271112
0.00282815
0.00296909
0.00313467
0.00332953
0.00354511
0.00378365
0.00402197
0.00426335
0.00447495
0.00465602
0.00479278
0.0048427
0.00479708
0.00430689
0.00378865
0.00171001
0.00171344
0.00171702
0.00172073
0.00172457
0.00172863
0.00173286
0.00173731
0.00174189
0.00174664
0.00175154
0.00175668
0.0017621
0.00176788
0.00177399
0.0017805
0.00178731
0.00179428
0.00180135
0.00180853
0.00181592
0.00182391
0.00183238
0.00184162
0.00185101
0.00186087
0.0018707
0.00188056
0.00189049
0.00190064
0.00191145
0.00192298
0.00193543
0.00194884
0.0019632
0.00197864
0.00199552
0.00201427
0.00203586
0.00206048
0.00208956
0.00212366
0.00216339
0.00220907
0.00226167
0.0023229
0.00239351
0.00247345
0.00256063
0.00265379
0.00275217
0.00285822
0.00297585
0.00311088
0.00326669
0.00344601
0.00364575
0.00386309
0.00408576
0.00430969
0.00451253
0.0046976
0.00483665
0.0049261
0.00498943
0.00482366
0.00461973
0.00372993
0.00347689
0.00179737
0.00180146
0.00180581
0.00181033
0.00181513
0.00182013
0.00182541
0.0018308
0.00183641
0.00184206
0.00184782
0.00185356
0.00185942
0.00186537
0.00187158
0.0018781
0.00188536
0.00189325
0.00190199
0.00191124
0.00192106
0.00193135
0.00194212
0.00195323
0.00196478
0.00197655
0.00198835
0.0020001
0.00201203
0.0020242
0.00203709
0.0020507
0.00206529
0.00208137
0.00209896
0.00211929
0.00214257
0.00217042
0.0022035
0.00224238
0.00228824
0.00234159
0.00240177
0.00246916
0.00254512
0.0026313
0.0027278
0.00283327
0.00294568
0.00306435
0.00319022
0.00332647
0.00347625
0.00364197
0.00382305
0.0040167
0.00421628
0.00441518
0.00460131
0.00477171
0.00490459
0.0050119
0.00505452
0.00504956
0.00500942
0.00445278
0.00417123
0.0032405
0.00332509
0.00190888
0.00191412
0.00191959
0.0019252
0.00193107
0.00193716
0.00194348
0.00194997
0.00195654
0.00196323
0.00196987
0.00197649
0.00198305
0.00198952
0.00199609
0.00200289
0.00201032
0.00201863
0.00202826
0.00203911
0.0020512
0.00206396
0.00207753
0.00209154
0.00210605
0.00212078
0.00213589
0.00215143
0.00216777
0.00218483
0.00220334
0.00222318
0.00224509
0.00226967
0.00229743
0.00232984
0.00236722
0.00241119
0.00246205
0.00252024
0.00258666
0.00266117
0.00274336
0.00283383
0.0029337
0.00304351
0.00316267
0.0032902
0.00342535
0.0035683
0.00371964
0.00387987
0.00404833
0.00422283
0.00439942
0.0045727
0.00473612
0.00488324
0.00500532
0.00510039
0.00514625
0.00516639
0.0050947
0.00500642
0.00473958
0.00401374
0.00369203
0.0030939
0.00363122
0.00204842
0.0020555
0.00206283
0.0020703
0.002078
0.00208594
0.00209408
0.00210246
0.00211092
0.00211957
0.00212823
0.00213699
0.00214579
0.00215464
0.00216364
0.00217293
0.00218278
0.00219344
0.00220538
0.00221864
0.00223368
0.00225033
0.00226874
0.0022884
0.00230926
0.00233115
0.00235408
0.00237798
0.0024032
0.00242986
0.00245873
0.00249024
0.00252556
0.00256558
0.00261146
0.00266407
0.00272399
0.00279142
0.00286625
0.00294822
0.00303707
0.00313319
0.00323598
0.00334559
0.00346234
0.00358627
0.00371758
0.00385612
0.00400133
0.00415206
0.00430654
0.00446221
0.00461588
0.00476362
0.00490118
0.00502335
0.00512549
0.00520121
0.00524534
0.00525313
0.00520424
0.00513818
0.00492998
0.00476157
0.00414764
0.00365333
0.00331085
0.00337362
0.00441311
0.00223544
0.00224495
0.00225481
0.00226492
0.00227531
0.00228604
0.00229706
0.00230841
0.00232003
0.00233196
0.00234421
0.00235679
0.00236977
0.00238321
0.0023972
0.00241193
0.00242753
0.00244443
0.00246304
0.00248359
0.0025064
0.00253144
0.00255883
0.00258856
0.00262049
0.00265459
0.00269084
0.00272936
0.00277068
0.00281525
0.00286375
0.00291698
0.00297604
0.0030418
0.00311479
0.00319485
0.00328126
0.003373
0.00346888
0.00356832
0.00367034
0.00377595
0.0038852
0.00399918
0.00411733
0.0042387
0.00436354
0.00449061
0.00461847
0.00474508
0.00486808
0.00498447
0.00509104
0.00518411
0.00525999
0.00531358
0.00534154
0.00533593
0.00529632
0.00521037
0.00506813
0.00492831
0.00450212
0.00431496
0.00325802
0.00339891
0.00320934
0.0040416
0.0051099
0.00247473
0.00248862
0.00250324
0.00251845
0.00253431
0.00255087
0.00256811
0.00258605
0.00260472
0.00262415
0.00264438
0.00266554
0.00268763
0.00271108
0.00273607
0.00276273
0.00279135
0.00282209
0.00285517
0.00289091
0.0029296
0.00297152
0.00301677
0.00306552
0.0031176
0.00317307
0.00323171
0.00329355
0.00335877
0.0034274
0.0034995
0.00357549
0.00365584
0.00374079
0.00382999
0.00392253
0.00401716
0.00411266
0.00420803
0.00430285
0.00439681
0.00449045
0.00458316
0.00467677
0.00477112
0.00486578
0.00496092
0.00505263
0.00513996
0.00522073
0.00529276
0.00535301
0.00539864
0.00542624
0.00543217
0.00541099
0.00536022
0.00527022
0.00514662
0.00496525
0.00474159
0.00452306
0.00381733
0.00370679
0.00261329
0.00314289
0.00357758
0.00468862
0.00551488
0.0028519
0.00287211
0.00289358
0.00291624
0.00294025
0.00296565
0.00299268
0.00302157
0.00305235
0.00308507
0.0031198
0.00315664
0.00319544
0.0032363
0.00327937
0.00332475
0.00337262
0.00342306
0.00347631
0.00353224
0.00359054
0.0036513
0.00371452
0.00378022
0.00384823
0.00391844
0.00399057
0.00406439
0.00413968
0.00421616
0.00429358
0.00437169
0.00445035
0.00452939
0.00460855
0.00468736
0.0047652
0.00484145
0.00491556
0.00498715
0.00505597
0.00512191
0.00518466
0.00524428
0.00529953
0.00535176
0.00540008
0.00544337
0.00548056
0.00550765
0.00552287
0.00552255
0.00550435
0.00546464
0.00539882
0.00530153
0.00517043
0.00499737
0.00479021
0.0045207
0.00422505
0.00388521
0.00315567
0.00307926
0.0025124
0.00315283
0.00422539
0.00515041
0.00562942
0.0034039
0.00344154
0.00348124
0.00352282
0.00356616
0.00361123
0.00365799
0.00370643
0.00375652
0.00380816
0.00386139
0.00391585
0.0039708
0.00402623
0.00408215
0.00413857
0.0041955
0.00425298
0.00431099
0.00436974
0.00442948
0.00449017
0.00455173
0.00461407
0.00467702
0.0047404
0.00480397
0.00486745
0.00493053
0.00499291
0.00505426
0.00511425
0.00517258
0.00522894
0.00528309
0.00533471
0.00538348
0.00542906
0.0054711
0.00550928
0.00554326
0.00557271
0.00559727
0.00561649
0.00562987
0.00563616
0.00563561
0.00562774
0.00561118
0.00558437
0.00554325
0.00548199
0.00540002
0.00529182
0.00515131
0.00497686
0.00476249
0.0045144
0.00422137
0.00389644
0.00349615
0.00317992
0.00263596
0.00266554
0.00279606
0.00380655
0.00468838
0.00528176
0.0057994
0.00425767
0.00429898
0.00434095
0.00438345
0.0044265
0.00447011
0.00451423
0.00455883
0.00460387
0.00464932
0.00469508
0.00474131
0.00478833
0.00483596
0.00488405
0.00493246
0.00498105
0.0050297
0.00507829
0.00512671
0.00517487
0.00522268
0.00527004
0.00531682
0.00536288
0.00540804
0.0054521
0.00549482
0.00553593
0.00557517
0.00561223
0.00564681
0.00567859
0.00570727
0.00573253
0.00575407
0.0057716
0.00578481
0.00579338
0.00579697
0.00579518
0.00578769
0.00577412
0.00575406
0.00572666
0.00569118
0.00564479
0.00558984
0.00552404
0.00544581
0.00534843
0.00522306
0.00507512
0.00489115
0.0046703
0.0044223
0.00412215
0.0038323
0.00345209
0.00314436
0.00270664
0.00249
0.00237691
0.00260932
0.00336189
0.00414473
0.00482646
0.00530128
0.00576126
0.00501508
0.00503791
0.0050628
0.00508944
0.00511773
0.00514748
0.00517853
0.0052107
0.00524382
0.00527773
0.00531226
0.00534726
0.00538258
0.00541809
0.00545362
0.00548902
0.00552412
0.00555877
0.0055928
0.00562604
0.00565833
0.00568951
0.00571941
0.00574787
0.00577471
0.00579975
0.00582278
0.00584358
0.0058619
0.00587753
0.0058902
0.00589967
0.00590554
0.00590745
0.00590512
0.00589826
0.00588658
0.00586976
0.00584752
0.00581939
0.00578494
0.00574418
0.00569685
0.00564237
0.00557932
0.00550565
0.0054168
0.00532252
0.00521241
0.00508388
0.00491925
0.00471406
0.00447661
0.00421578
0.00392933
0.00363872
0.00326289
0.00300591
0.0025698
0.00233045
0.00206634
0.00213197
0.00239635
0.00302579
0.00363852
0.00432559
0.00477759
0.00523313
0.00551173
0.00547275
0.00547972
0.00548904
0.00550045
0.0055138
0.00552891
0.00554556
0.00556354
0.00558265
0.00560266
0.00562336
0.00564448
0.00566576
0.00568699
0.00570797
0.0057285
0.00574839
0.00576744
0.00578545
0.00580224
0.00581764
0.00583146
0.00584351
0.00585362
0.00586167
0.00586731
0.00587042
0.00587066
0.00586787
0.00586189
0.00585239
0.00583961
0.00582178
0.00579923
0.00577198
0.00573987
0.00570263
0.00565991
0.00561139
0.00555616
0.005494
0.00542687
0.00535354
0.00527209
0.00517851
0.00506603
0.00493877
0.00476957
0.00457487
0.00435745
0.00410645
0.00383364
0.00355668
0.00326474
0.00295606
0.00267825
0.00231433
0.00210837
0.00184935
0.00184022
0.00196729
0.00230613
0.00276811
0.00326337
0.0037839
0.00426632
0.004674
0.00496386
0.00504481
0.00553631
0.00553487
0.00553491
0.00553623
0.00553881
0.00554258
0.00554734
0.00555296
0.00555932
0.00556624
0.00557341
0.00557967
0.00558533
0.0055904
0.00559487
0.00559864
0.00560155
0.00560345
0.00560416
0.00560352
0.0056018
0.00559814
0.00559259
0.00558534
0.00557694
0.00556471
0.00555087
0.00553258
0.00551229
0.00548809
0.00546092
0.00543371
0.0053878
0.005343
0.00529524
0.00524363
0.00518738
0.00512571
0.00505768
0.00498152
0.00489312
0.00479164
0.00467631
0.00454839
0.00439635
0.00422259
0.00402586
0.00380723
0.00357488
0.00332103
0.00306742
0.00278631
0.00252152
0.00226219
0.00200424
0.00179414
0.00165381
0.00161087
0.00170497
0.00196125
0.00223182
0.00258836
0.00293155
0.00334317
0.0037724
0.00412698
0.00439811
0.00453389
0.00443772
0.00513165
0.00512394
0.0051172
0.00511038
0.00510422
0.00509912
0.00509358
0.0050884
0.00508417
0.00507959
0.00507412
0.0050511
0.00503343
0.00501658
0.00500107
0.00498608
0.004971
0.00495545
0.00493928
0.00492307
0.0049114
0.00488699
0.00486648
0.00484786
0.00484088
0.00480307
0.00479006
0.00474376
0.00472545
0.00466909
0.00463565
0.00461162
0.0045722
0.00452241
0.00446342
0.00439534
0.00431789
0.00423025
0.00413177
0.0040199
0.00389806
0.00376414
0.00361902
0.0034596
0.00328828
0.00310288
0.00289509
0.00267503
0.00243821
0.00219808
0.00197739
0.00176703
0.00159173
0.00145872
0.00140015
0.00140415
0.00149612
0.00169739
0.00188261
0.00217139
0.00234658
0.00271039
0.00303969
0.00335402
0.0036423
0.00387576
0.00402497
0.00403464
0.00382947
0.00405714
0.00403622
0.00402689
0.00400227
0.00398803
0.00398276
0.00395726
0.00394389
0.00394312
0.00391853
0.00391497
0.00388292
0.00386534
0.00384992
0.00385319
0.00384823
0.00383724
0.00382205
0.00380372
0.00378294
0.00376032
0.00373598
0.00370998
0.00368262
0.00365437
0.00362342
0.00359143
0.00355607
0.00351878
0.00347689
0.00343167
0.00338275
0.00332823
0.00326735
0.0031989
0.00311979
0.00303033
0.00293047
0.00282091
0.00270052
0.00257263
0.00243338
0.00229325
0.00214185
0.00199105
0.00183651
0.00166577
0.00150212
0.00133307
0.00122027
0.0011455
0.00111422
0.001126
0.00118367
0.00128185
0.00142001
0.00161149
0.00175081
0.00194561
0.00220992
0.00245643
0.00268645
0.00295054
0.00319412
0.00340328
0.00355584
0.00362194
0.00356088
0.00332308
0.00220577
0.00218455
0.0021823
0.00218133
0.00217867
0.00217387
0.00216657
0.0021584
0.00214758
0.00214283
0.00213531
0.00212597
0.00211606
0.00210535
0.00209424
0.00208214
0.00206889
0.00205439
0.00203882
0.00202208
0.00200429
0.00198558
0.00196591
0.00194534
0.00192365
0.0018976
0.0018715
0.00183704
0.00179957
0.00175587
0.00170763
0.00165598
0.00159882
0.00153824
0.00147376
0.00140669
0.00133976
0.00127306
0.00120823
0.00114274
0.00108299
0.0010198
0.000969591
0.000919394
0.000885565
0.000851217
0.000824972
0.000835613
0.000856636
0.000888013
0.000933121
0.00099373
0.00106985
0.00115054
0.00127044
0.00131556
0.00138662
0.00141244
0.00144731
0.00162742
0.0018763
0.00212015
0.00233231
0.002535
0.00268596
0.00276793
0.0027796
0.00269861
0.00253748
0.000404181
0.00040556
0.000407089
0.000408693
0.000410317
0.000411938
0.000413523
0.000415055
0.000416557
0.000418039
0.000419525
0.000420983
0.000422427
0.000423843
0.000425289
0.000426668
0.000428211
0.000429373
0.000431218
0.000431811
0.000432854
0.000435505
0.00043414
0.000435507
0.000434746
0.00043634
0.000435515
0.000436502
0.00043562
0.000440437
0.000438347
0.000443497
0.000443017
0.000445613
0.000437912
0.000431452
0.000434369
0.000438846
0.000440004
0.000439264
0.000437173
0.000433803
0.000429149
0.000422941
0.000414884
0.000404379
0.000390583
0.00037227
0.000348761
0.000316123
0.00028738
0.000291713
0.000323233
0.000335431
0.000329138
0.000309067
0.000307578
0.000306819
0.000313696
0.000334751
0.00034921
0.000368375
0.000386233
0.00040329
0.000422201
0.000431255
0.000442143
0.000443865
0.000438893
0.00131277
0.00131213
0.00131195
0.00131159
0.00131144
0.00131231
0.00131284
0.00131258
0.00131123
0.00130962
0.00130773
0.00130711
0.00130598
0.00130602
0.00130432
0.00130146
0.00130223
0.00130091
0.00130226
0.00130379
0.00130578
0.00130909
0.00131075
0.00131142
0.00131265
0.0013141
0.00131746
0.0013221
0.00132462
0.00132499
0.0013238
0.00132421
0.00132419
0.0013262
0.00132763
0.00132968
0.00132903
0.00132968
0.00133181
0.0013333
0.00133173
0.00133241
0.00133154
0.00133031
0.00133245
0.0013322
0.00133148
0.0013285
0.00133286
0.00133461
0.00133596
0.0013375
0.00133736
0.00133731
0.0013378
0.00133746
0.00133714
0.00133723
0.00133695
0.00131769
0.00131767
0.00131781
0.00131787
0.00131831
0.00131812
0.00131746
0.00131588
0.00131365
0.00131257
0.00131154
0.00131226
0.00131131
0.00130958
0.00130769
0.00130661
0.00130766
0.00130727
0.00130844
0.00131008
0.00131171
0.0013148
0.00131688
0.00131781
0.00131889
0.00132027
0.00132421
0.00132833
0.00133067
0.00133102
0.00133016
0.00133035
0.0013304
0.00133207
0.00133386
0.0013351
0.00133532
0.00133569
0.00133754
0.00134024
0.00133917
0.00133901
0.00133946
0.00133879
0.00133881
0.00133949
0.00133923
0.00133815
0.00133767
0.00134116
0.00134199
0.00134323
0.00134496
0.0013454
0.00134491
0.00134588
0.00134572
0.00134574
0.00134609
0.00132395
0.00132382
0.001324
0.00132392
0.00132359
0.0013227
0.00132048
0.0013197
0.0013189
0.00131902
0.00131909
0.00131771
0.00131582
0.00131457
0.00131345
0.00131389
0.00131439
0.00131447
0.00131546
0.00131717
0.00131962
0.0013222
0.00132425
0.00132503
0.00132589
0.00132731
0.00133136
0.00133527
0.00133813
0.00133841
0.00133802
0.00133816
0.00133829
0.00133943
0.00134165
0.00134214
0.00134226
0.00134309
0.0013444
0.00134641
0.00134708
0.00134679
0.00134687
0.00134728
0.00134784
0.0013471
0.00134847
0.00134848
0.00134923
0.00134895
0.00135138
0.00135003
0.00135128
0.00135365
0.00135494
0.00135509
0.00135495
0.00135643
0.00135455
0.00133149
0.00133134
0.00133094
0.00132961
0.00132917
0.00132829
0.00132766
0.00132746
0.00132728
0.00132687
0.00132571
0.0013238
0.00132267
0.00132188
0.00132178
0.00132269
0.00132285
0.00132309
0.0013245
0.00132677
0.00132886
0.00133166
0.00133293
0.00133346
0.00133436
0.00133602
0.00134055
0.001344
0.00134638
0.00134703
0.00134664
0.00134694
0.00134725
0.00134791
0.00135007
0.00135175
0.0013523
0.00135244
0.00135345
0.00135622
0.00135677
0.00135776
0.00135665
0.00135643
0.00135696
0.00135706
0.00135699
0.00135924
0.00135763
0.00136049
0.00136277
0.0013634
0.00136327
0.00136274
0.00136313
0.00136504
0.00136437
0.0013657
0.00136533
0.00134262
0.00134144
0.00134051
0.00133908
0.00133719
0.00133712
0.00133689
0.00133657
0.00133589
0.0013347
0.00133318
0.00133201
0.00133157
0.0013314
0.00133208
0.00133247
0.00133278
0.00133338
0.00133496
0.00133723
0.00133929
0.00134168
0.00134275
0.0013432
0.00134414
0.001346
0.00135061
0.00135378
0.00135614
0.00135693
0.00135674
0.00135687
0.00135726
0.00135769
0.00135958
0.00136221
0.00136373
0.00136424
0.0013649
0.00136663
0.00136785
0.00136782
0.00136957
0.00136912
0.00136904
0.00136806
0.00136946
0.00136827
0.00137091
0.00136948
0.00137152
0.00137262
0.00137151
0.00137286
0.00137395
0.00137484
0.00137638
0.00137741
0.00137866
0.00135417
0.00135267
0.00135089
0.00134862
0.00134861
0.00134828
0.00134781
0.00134707
0.00134613
0.00134479
0.00134395
0.00134357
0.00134367
0.00134401
0.00134458
0.00134505
0.00134546
0.00134591
0.00134764
0.00134982
0.00135176
0.00135384
0.00135452
0.00135495
0.00135591
0.00135799
0.00136254
0.00136548
0.00136782
0.00136877
0.00136877
0.00136886
0.00136937
0.00136983
0.00137162
0.00137403
0.0013761
0.00137756
0.00137807
0.00138029
0.0013818
0.00138308
0.00138204
0.00138263
0.00138377
0.00138372
0.00138593
0.00138518
0.00138531
0.00138483
0.0013838
0.0013868
0.00138778
0.00138864
0.00138717
0.00138733
0.00138791
0.00138834
0.00138947
0.00136694
0.00136455
0.00136167
0.00136174
0.00136127
0.00136065
0.00136037
0.00135987
0.00135823
0.00135804
0.00135755
0.00135777
0.00135822
0.00135906
0.00135937
0.00135908
0.0013587
0.00136059
0.0013622
0.00136431
0.00136615
0.00136769
0.00136829
0.00136869
0.0013697
0.00137211
0.00137657
0.00137935
0.00138171
0.00138278
0.0013829
0.00138286
0.00138324
0.00138358
0.00138529
0.00138749
0.0013897
0.00139179
0.00139271
0.00139424
0.00139611
0.00139911
0.00140009
0.00140254
0.00140182
0.00140062
0.00139828
0.00139917
0.00140016
0.00140077
0.00140254
0.0013996
0.00139997
0.00140009
0.00140077
0.00140328
0.0014051
0.00140745
0.00141193
0.00138052
0.00138165
0.00137987
0.0013786
0.00137721
0.00137895
0.00137946
0.00137819
0.00137696
0.00137496
0.00137574
0.00137628
0.00137746
0.00137757
0.00137701
0.00137689
0.00137771
0.00137851
0.00138015
0.00138209
0.00138364
0.00138483
0.00138503
0.00138546
0.00138651
0.0013892
0.00139345
0.00139611
0.00139847
0.00139968
0.00139999
0.0014001
0.00140054
0.001401
0.00140275
0.00140501
0.00140725
0.0014097
0.00141125
0.00141242
0.00141418
0.00141648
0.0014184
0.00142013
0.00142343
0.0014256
0.00142722
0.00142908
0.00143112
0.00143215
0.00143184
0.00143489
0.0014318
0.00143018
0.00143234
0.0014295
0.00143057
0.00143099
0.00143334
0.00140655
0.00140474
0.00140253
0.00140575
0.00140419
0.00140381
0.00140249
0.00140043
0.00139676
0.00139799
0.00139748
0.00139912
0.00139906
0.001398
0.00139781
0.0013972
0.00139788
0.00139895
0.0014005
0.00140252
0.00140391
0.00140445
0.00140459
0.00140516
0.00140625
0.00140934
0.0014134
0.00141599
0.00141838
0.0014197
0.00142007
0.0014201
0.00142025
0.00142055
0.00142218
0.00142452
0.00142693
0.0014296
0.00143195
0.0014336
0.00143529
0.00143769
0.00143991
0.00144188
0.001444
0.0014459
0.00144774
0.00144973
0.00145192
0.00145426
0.00145532
0.00146094
0.00146278
0.00146448
0.00146716
0.0014656
0.00146713
0.00146574
0.00146151
0.00142372
0.00142536
0.00142547
0.00142456
0.00142679
0.00142944
0.00142743
0.00142617
0.00142393
0.00142801
0.00142683
0.00142516
0.00142271
0.00142472
0.00142316
0.00142218
0.00142268
0.00142463
0.00142739
0.00142893
0.00142921
0.00142904
0.00142899
0.00142959
0.00143065
0.00143404
0.00143779
0.00144032
0.00144265
0.00144413
0.00144472
0.00144516
0.00144552
0.00144601
0.00144768
0.00145008
0.00145266
0.00145541
0.00145805
0.00146028
0.00146197
0.00146432
0.00146692
0.00146939
0.0014719
0.00147412
0.00147595
0.00147759
0.00147927
0.00148114
0.00148272
0.00148499
0.00148713
0.00148976
0.00149227
0.00149361
0.00149663
0.00150262
0.0015059
0.00145917
0.00145565
0.00145806
0.00145504
0.00145791
0.00145694
0.0014601
0.00145914
0.00145807
0.00145271
0.00145214
0.00145592
0.00145683
0.0014532
0.00145348
0.00145237
0.00145345
0.0014558
0.00145717
0.00145764
0.00145766
0.00145753
0.00145753
0.00145809
0.0014595
0.0014631
0.0014666
0.00146918
0.00147152
0.00147313
0.00147372
0.00147406
0.00147408
0.00147429
0.00147584
0.00147837
0.00148131
0.00148457
0.00148774
0.00149081
0.00149317
0.00149558
0.00149838
0.00150114
0.00150422
0.00150742
0.00151041
0.00151295
0.00151519
0.00151728
0.00151913
0.00152092
0.0015227
0.00152459
0.00152663
0.00152845
0.00153043
0.00153264
0.00153467
0.00149985
0.00149871
0.00149882
0.00149768
0.00150335
0.00149946
0.00149857
0.00149735
0.00149132
0.00149484
0.00149441
0.00149276
0.00149157
0.00149157