/*--------------------------------*- C++ -*----------------------------------*\
| =========                 |                                                 |
| \\      /  F ield         | OpenFOAM: The Open Source CFD Toolbox           |
|  \\    /   O peration     | Version:  2312                                  |
|   \\  /    A nd           | Website:  www.openfoam.com                      |
|    \\/     M anipulation  |                                                 |
\*---------------------------------------------------------------------------*/
FoamFile
{
    version     2.0;
    format      ascii;
    arch        "LSB;label=32;scalar=64";
    class       volScalarField;
    location    "2000";
    object      p;
}
// * * * * * * * * * * * * * * * * * * * * * * * * * * * * * * * * * * * * * //

dimensions      [0 2 -2 0 0 0 0];

internalField   nonuniform List<scalar> 
76025
(
0.0516877
0.0473962
0.042985
0.0386383
0.0342724
0.029891
0.0252873
0.0209003
0.0164162
0.0120155
0.00752121
0.00298257
-0.0015816
-0.00612186
-0.0106637
-0.0152119
-0.0196441
-0.0241214
-0.0285656
-0.0328466
-0.0370781
-0.0414004
-0.0456554
-0.0498101
-0.0539262
-0.057947
-0.0620054
-0.0660578
-0.0698178
-0.0736928
-0.0771521
-0.0807575
-0.0845393
-0.0882046
-0.0916913
-0.0949603
-0.0981031
-0.101395
-0.10464
-0.107808
-0.110682
-0.113461
-0.116476
-0.119538
-0.122354
-0.125081
-0.127903
-0.131039
-0.133921
-0.136862
-0.139916
-0.142979
-0.146331
-0.150029
-0.153884
-0.157828
-0.162306
-0.16717
-0.172444
-0.178032
-0.183969
-0.191096
-0.19924
-0.207908
-0.217557
-0.228855
-0.241135
-0.255504
-0.273665
0.0514889
0.0469215
0.0423248
0.0377532
0.0331617
0.0285129
0.0238687
0.0192287
0.0145431
0.00983716
0.00509207
0.000358616
-0.00435704
-0.00906034
-0.0137368
-0.018369
-0.0230108
-0.0275736
-0.0321311
-0.0365715
-0.0410374
-0.0454284
-0.0497555
-0.054019
-0.0582427
-0.0624074
-0.0665026
-0.0704409
-0.0742799
-0.0780594
-0.0817437
-0.085492
-0.0891404
-0.0926057
-0.0960217
-0.0993424
-0.102643
-0.105829
-0.108899
-0.111918
-0.114783
-0.11761
-0.120386
-0.123105
-0.125797
-0.128486
-0.131214
-0.133995
-0.136779
-0.139616
-0.14254
-0.145555
-0.148759
-0.152191
-0.15583
-0.159763
-0.164095
-0.168799
-0.173892
-0.179435
-0.18561
-0.192747
-0.200744
-0.209618
-0.219636
-0.231196
-0.244193
-0.259157
-0.276638
0.0515528
0.0467581
0.0419262
0.0371112
0.0322848
0.0274501
0.0225931
0.0177046
0.0127934
0.00786243
0.0029317
-0.00198089
-0.00687307
-0.0117407
-0.016576
-0.0213957
-0.0261805
-0.030921
-0.0356082
-0.0402477
-0.0448289
-0.0493338
-0.0537717
-0.0581434
-0.0624418
-0.0666554
-0.0707573
-0.0747571
-0.0786751
-0.0825078
-0.0862703
-0.0899505
-0.0935101
-0.0969717
-0.10037
-0.103683
-0.106889
-0.109963
-0.112933
-0.115817
-0.118594
-0.121286
-0.123915
-0.126516
-0.129099
-0.131657
-0.134206
-0.136784
-0.1394
-0.142057
-0.14479
-0.147637
-0.150649
-0.153878
-0.157357
-0.161126
-0.165241
-0.169763
-0.17474
-0.180259
-0.186447
-0.193479
-0.201458
-0.210497
-0.220782
-0.232597
-0.246104
-0.261741
-0.279604
0.0515377
0.0464945
0.041408
0.0363466
0.031288
0.0262116
0.0211062
0.0159761
0.0108354
0.00569414
0.000561361
-0.00455715
-0.009657
-0.0147333
-0.0197796
-0.0247912
-0.0297566
-0.0346692
-0.0395211
-0.0443086
-0.0490234
-0.0536617
-0.0582197
-0.0626918
-0.0670705
-0.0713509
-0.0755293
-0.0796067
-0.0835809
-0.0874494
-0.0912115
-0.0948654
-0.0984166
-0.101871
-0.10523
-0.108476
-0.11159
-0.114571
-0.117429
-0.120174
-0.122814
-0.125364
-0.127844
-0.130275
-0.132662
-0.135017
-0.137362
-0.139724
-0.142121
-0.144567
-0.147092
-0.149735
-0.152535
-0.155541
-0.158793
-0.162337
-0.166234
-0.170552
-0.175357
-0.18074
-0.186823
-0.193763
-0.201703
-0.210791
-0.221229
-0.233294
-0.247221
-0.263394
-0.281815
0.051211
0.045896
0.0405384
0.0352122
0.0298943
0.0245595
0.0191998
0.0138215
0.0084371
0.00305765
-0.00230936
-0.00765832
-0.0129829
-0.0182758
-0.0235287
-0.0287331
-0.0338817
-0.0389665
-0.0439811
-0.0489184
-0.0537725
-0.0585375
-0.063207
-0.0677755
-0.0722381
-0.0765905
-0.0808286
-0.0849471
-0.0889427
-0.092815
-0.0965651
-0.100196
-0.103709
-0.107105
-0.110381
-0.113524
-0.116523
-0.119375
-0.122087
-0.124674
-0.12715
-0.129528
-0.131827
-0.13406
-0.136241
-0.138386
-0.140514
-0.142647
-0.144806
-0.147013
-0.149295
-0.151688
-0.154233
-0.156974
-0.159959
-0.163239
-0.166876
-0.170939
-0.17551
-0.180686
-0.186592
-0.193379
-0.201207
-0.210264
-0.220773
-0.233025
-0.247297
-0.263979
-0.283208
0.050602
0.0449965
0.0393511
0.0337436
0.0281494
0.022543
0.0169158
0.011274
0.0056306
-2.26621e-06
-0.00561612
-0.011204
-0.0167585
-0.0222714
-0.027734
-0.0331379
-0.038475
-0.0437377
-0.0489182
-0.054009
-0.0590029
-0.0638929
-0.0686726
-0.0733363
-0.0778785
-0.0822936
-0.0865767
-0.0907235
-0.0947322
-0.0986021
-0.102333
-0.105927
-0.109383
-0.112704
-0.115888
-0.118922
-0.121795
-0.124504
-0.127059
-0.129474
-0.131766
-0.133949
-0.13604
-0.138052
-0.140001
-0.141903
-0.143775
-0.145642
-0.147525
-0.14945
-0.151445
-0.153546
-0.155792
-0.158227
-0.160901
-0.163867
-0.167189
-0.170941
-0.17521
-0.180101
-0.185743
-0.192291
-0.199922
-0.208852
-0.21933
-0.23167
-0.246192
-0.263304
-0.28325
0.0497064
0.0437917
0.0378407
0.0319348
0.0260477
0.0201527
0.0142408
0.00831865
0.00240045
-0.00350012
-0.00937347
-0.0152121
-0.0210084
-0.0267537
-0.0324388
-0.0380542
-0.043591
-0.0490406
-0.0543945
-0.0596445
-0.0647825
-0.069801
-0.074693
-0.0794518
-0.0840711
-0.0885452
-0.0928695
-0.0970402
-0.101055
-0.104912
-0.108611
-0.112152
-0.115537
-0.118767
-0.121841
-0.124744
-0.127465
-0.130004
-0.132371
-0.134582
-0.136656
-0.138609
-0.140457
-0.142215
-0.143896
-0.145518
-0.147101
-0.148666
-0.15024
-0.151847
-0.153517
-0.155284
-0.157188
-0.159271
-0.161583
-0.16418
-0.167127
-0.170501
-0.174393
-0.178913
-0.184195
-0.190405
-0.197734
-0.206422
-0.216744
-0.229042
-0.24368
-0.261087
-0.281656
0.0484571
0.0422132
0.0359372
0.0297136
0.0235145
0.0173118
0.0110965
0.00487597
-0.00133427
-0.00751936
-0.0136688
-0.0197745
-0.0258281
-0.0318201
-0.0377404
-0.0435785
-0.0493248
-0.0549697
-0.0605039
-0.0659183
-0.071204
-0.0763529
-0.081357
-0.0862091
-0.0909024
-0.0954308
-0.0997894
-0.103974
-0.107982
-0.11181
-0.115459
-0.118929
-0.122221
-0.125338
-0.128275
-0.131018
-0.133557
-0.135895
-0.138043
-0.140021
-0.141846
-0.143538
-0.145111
-0.14658
-0.147959
-0.149267
-0.150523
-0.151752
-0.152977
-0.154225
-0.155527
-0.156915
-0.158428
-0.160109
-0.162005
-0.164173
-0.166678
-0.169599
-0.173027
-0.17708
-0.181895
-0.18765
-0.19455
-0.202859
-0.212872
-0.224962
-0.239517
-0.256993
-0.278051
0.0467906
0.0401956
0.0335715
0.0270071
0.0204732
0.0139412
0.00740191
0.00086324
-0.00565797
-0.0121457
-0.0185883
-0.0249771
-0.0313028
-0.0375551
-0.0437226
-0.0497938
-0.0557582
-0.0616053
-0.0673249
-0.0729069
-0.0783418
-0.0836203
-0.088734
-0.0936751
-0.0984363
-0.103011
-0.107393
-0.111579
-0.115564
-0.119347
-0.122927
-0.126305
-0.129482
-0.132462
-0.135236
-0.137791
-0.14012
-0.142226
-0.144125
-0.145836
-0.14738
-0.148774
-0.150035
-0.151177
-0.152216
-0.153169
-0.154059
-0.154909
-0.155743
-0.15659
-0.157478
-0.158441
-0.159514
-0.160738
-0.162159
-0.163832
-0.165822
-0.168204
-0.171075
-0.174553
-0.178783
-0.183952
-0.190279
-0.198047
-0.20757
-0.219242
-0.233462
-0.25066
-0.271337
0.0446525
0.0376808
0.0306833
0.0237537
0.0168616
0.00997728
0.00309129
-0.00378762
-0.0106411
-0.0174519
-0.0242072
-0.0308975
-0.0375124
-0.0440405
-0.0504692
-0.0567862
-0.0629798
-0.0690387
-0.0749513
-0.0807067
-0.0862945
-0.0917043
-0.0969267
-0.101953
-0.106776
-0.111387
-0.115782
-0.119954
-0.123902
-0.127621
-0.131111
-0.134373
-0.137409
-0.140222
-0.142802
-0.145136
-0.147218
-0.149057
-0.150669
-0.152076
-0.153298
-0.154354
-0.155261
-0.156034
-0.15669
-0.157248
-0.157728
-0.158155
-0.158555
-0.158955
-0.159382
-0.159868
-0.160447
-0.161157
-0.16204
-0.163148
-0.164542
-0.166297
-0.16851
-0.171301
-0.174819
-0.179255
-0.184842
-0.19187
-0.200674
-0.211658
-0.225267
-0.241923
-0.262249
0.0419612
0.0345867
0.0271905
0.0198711
0.0125967
0.00533605
-0.00192004
-0.00916191
-0.0163699
-0.023525
-0.0306136
-0.0376248
-0.0445471
-0.0513676
-0.0580727
-0.0646492
-0.0710838
-0.0773641
-0.0834776
-0.0894126
-0.0951573
-0.1007
-0.106031
-0.111139
-0.116017
-0.120656
-0.125051
-0.129195
-0.133086
-0.13672
-0.140097
-0.143217
-0.146083
-0.148697
-0.151048
-0.153122
-0.154918
-0.156448
-0.15773
-0.158789
-0.159645
-0.160319
-0.160828
-0.161188
-0.161415
-0.16153
-0.161554
-0.161513
-0.161431
-0.161335
-0.161252
-0.16121
-0.16124
-0.161376
-0.161657
-0.162129
-0.162848
-0.163888
-0.165342
-0.167325
-0.169989
-0.17352
-0.178156
-0.184186
-0.191969
-0.201918
-0.214569
-0.230332
-0.250442
0.0386199
0.0308133
0.0229896
0.0152522
0.00756756
-9.65251e-05
-0.00774911
-0.0153794
-0.0229664
-0.0304893
-0.0379333
-0.0452861
-0.0525349
-0.0596659
-0.0666642
-0.0735147
-0.0802024
-0.0867142
-0.0930365
-0.0991557
-0.105059
-0.110734
-0.116169
-0.121353
-0.126278
-0.130933
-0.135313
-0.139411
-0.143224
-0.146748
-0.149984
-0.152931
-0.155595
-0.157973
-0.160054
-0.161827
-0.163295
-0.16447
-0.165376
-0.166037
-0.166477
-0.166718
-0.166777
-0.166672
-0.16642
-0.166041
-0.165559
-0.164999
-0.164387
-0.163747
-0.163104
-0.162483
-0.161912
-0.161419
-0.161037
-0.160806
-0.160777
-0.161014
-0.161599
-0.16264
-0.164276
-0.166687
-0.170105
-0.174822
-0.181218
-0.18973
-0.200996
-0.215403
-0.235161
0.0345296
0.0262588
0.0179758
0.00978941
0.00166369
-0.00643405
-0.0145124
-0.0225598
-0.0305532
-0.0384706
-0.0462953
-0.0540135
-0.0616113
-0.0690736
-0.0763836
-0.0835247
-0.0904809
-0.0972373
-0.103779
-0.110089
-0.116155
-0.121963
-0.1275
-0.132754
-0.137715
-0.142374
-0.146722
-0.150753
-0.154463
-0.157848
-0.16091
-0.163648
-0.166067
-0.168165
-0.169928
-0.17135
-0.172437
-0.173205
-0.17368
-0.173889
-0.173856
-0.173605
-0.173155
-0.172525
-0.171736
-0.17081
-0.169769
-0.168639
-0.167447
-0.166215
-0.164966
-0.163721
-0.162501
-0.161328
-0.160229
-0.159231
-0.158375
-0.157708
-0.157298
-0.157236
-0.157643
-0.158686
-0.160586
-0.163635
-0.168237
-0.17487
-0.184271
-0.196897
-0.215162
0.0295686
0.0207991
0.0120227
0.00335358
-0.00524609
-0.0138096
-0.0223454
-0.0308407
-0.0392706
-0.0476114
-0.0558443
-0.0639541
-0.0719255
-0.0797409
-0.0873828
-0.0948329
-0.102074
-0.109088
-0.115859
-0.122369
-0.128603
-0.134545
-0.140182
-0.1455
-0.150487
-0.155135
-0.159432
-0.163374
-0.166954
-0.17017
-0.173022
-0.17551
-0.177638
-0.179403
-0.180795
-0.181809
-0.182455
-0.182754
-0.182736
-0.182428
-0.181857
-0.181048
-0.180024
-0.178806
-0.177417
-0.175882
-0.174226
-0.172475
-0.170654
-0.168784
-0.166885
-0.164971
-0.163057
-0.161155
-0.159279
-0.157445
-0.155674
-0.153998
-0.152462
-0.151132
-0.150106
-0.149526
-0.149598
-0.150609
-0.152972
-0.157188
-0.164129
-0.174656
-0.192681
0.0235859
0.01428
0.00497206
-0.00421749
-0.0133277
-0.0223928
-0.0314212
-0.0403986
-0.0492982
-0.0580938
-0.0667653
-0.0752952
-0.0836666
-0.0918608
-0.099858
-0.107637
-0.115179
-0.122465
-0.129475
-0.136192
-0.142598
-0.148675
-0.154408
-0.159783
-0.164786
-0.169406
-0.173632
-0.177458
-0.180877
-0.183887
-0.186487
-0.188678
-0.190466
-0.191844
-0.192802
-0.193342
-0.193477
-0.193236
-0.192649
-0.191747
-0.190561
-0.189119
-0.187445
-0.185566
-0.183509
-0.181301
-0.178971
-0.176543
-0.174041
-0.171486
-0.168889
-0.166259
-0.163602
-0.16092
-0.158212
-0.155479
-0.152722
-0.149947
-0.147171
-0.144427
-0.141783
-0.139347
-0.137298
-0.135903
-0.135567
-0.136792
-0.140571
-0.147897
-0.162243
0.0164101
0.00652536
-0.0033564
-0.0131079
-0.0227699
-0.0323775
-0.0419384
-0.0514372
-0.0608447
-0.0701319
-0.0792766
-0.0882596
-0.0970621
-0.105664
-0.114041
-0.122173
-0.130037
-0.137612
-0.144877
-0.15181
-0.158392
-0.164605
-0.170431
-0.175854
-0.180858
-0.18543
-0.18956
-0.193238
-0.196458
-0.199218
-0.201516
-0.203356
-0.20474
-0.205661
-0.206111
-0.206096
-0.205638
-0.20477
-0.203526
-0.20194
-0.20005
-0.197886
-0.195479
-0.19286
-0.190057
-0.187104
-0.184029
-0.180861
-0.17762
-0.174323
-0.170978
-0.167587
-0.164148
-0.16065
-0.157077
-0.153409
-0.149621
-0.14569
-0.141596
-0.137337
-0.132935
-0.128454
-0.124025
-0.119883
-0.11643
-0.114238
-0.114613
-0.118999
-0.131673
0.00782425
-0.00268599
-0.0131885
-0.023549
-0.0338096
-0.0440056
-0.0541446
-0.0642086
-0.0741661
-0.0839857
-0.0936422
-0.103115
-0.112384
-0.121424
-0.130211
-0.138719
-0.146926
-0.154809
-0.162342
-0.169503
-0.176269
-0.182619
-0.188533
-0.193993
-0.198982
-0.203484
-0.207488
-0.210982
-0.213961
-0.216421
-0.21836
-0.219784
-0.220692
-0.221075
-0.22093
-0.220269
-0.219121
-0.217523
-0.215517
-0.213143
-0.210441
-0.207449
-0.204204
-0.200741
-0.197096
-0.193306
-0.189405
-0.185421
-0.181376
-0.177285
-0.173151
-0.168971
-0.16473
-0.160406
-0.155963
-0.151359
-0.14654
-0.141449
-0.136025
-0.130214
-0.123982
-0.11733
-0.110327
-0.103167
-0.0962789
-0.0904337
-0.0873598
-0.0888603
-0.0988366
-0.00241283
-0.0136006
-0.0247777
-0.0358015
-0.0467142
-0.0575519
-0.0683209
-0.0790011
-0.0895581
-0.099958
-0.110174
-0.120182
-0.129959
-0.139477
-0.148709
-0.157629
-0.166209
-0.174424
-0.182245
-0.189647
-0.196605
-0.203095
-0.209096
-0.214585
-0.219543
-0.223952
-0.227798
-0.231067
-0.233753
-0.235848
-0.237353
-0.238274
-0.238612
-0.238355
-0.237506
-0.236087
-0.234133
-0.231687
-0.228797
-0.225508
-0.221865
-0.217914
-0.213698
-0.209265
-0.20466
-0.199927
-0.195105
-0.190226
-0.185315
-0.180382
-0.17543
-0.170445
-0.165406
-0.160273
-0.154996
-0.149506
-0.14372
-0.137538
-0.130849
-0.123536
-0.115496
-0.106656
-0.0970064
-0.0867231
-0.0763192
-0.0669589
-0.0608384
-0.0599839
-0.0677466
-0.014656
-0.0265779
-0.0384893
-0.0502357
-0.0618597
-0.0733975
-0.084854
-0.0962069
-0.107419
-0.118453
-0.129279
-0.139872
-0.150203
-0.160245
-0.169967
-0.179337
-0.188325
-0.1969
-0.205031
-0.212692
-0.219854
-0.22649
-0.232573
-0.238077
-0.242982
-0.247265
-0.25091
-0.253904
-0.256235
-0.257899
-0.258894
-0.259224
-0.258884
-0.257868
-0.25619
-0.253881
-0.25098
-0.247539
-0.243608
-0.239242
-0.234493
-0.229418
-0.224075
-0.218522
-0.212817
-0.207014
-0.201161
-0.195298
-0.189449
-0.183628
-0.177833
-0.172046
-0.166235
-0.160352
-0.154325
-0.148063
-0.141447
-0.13433
-0.126541
-0.117893
-0.108207
-0.0973337
-0.0851932
-0.0719793
-0.0583931
-0.0461744
-0.0378693
-0.0354615
-0.0420737
-0.0293261
-0.0420532
-0.0547718
-0.0673154
-0.0797255
-0.0920367
-0.104252
-0.116346
-0.12828
-0.140012
-0.15151
-0.162744
-0.173684
-0.184296
-0.194547
-0.204403
-0.213828
-0.22279
-0.231255
-0.23919
-0.246564
-0.253344
-0.259499
-0.265002
-0.269825
-0.273946
-0.277345
-0.280006
-0.281915
-0.283068
-0.283462
-0.283092
-0.281951
-0.280042
-0.277389
-0.274028
-0.27001
-0.265388
-0.260224
-0.25458
-0.248523
-0.242125
-0.235459
-0.2286
-0.221621
-0.214592
-0.207573
-0.200614
-0.193747
-0.186989
-0.180336
-0.17377
-0.16725
-0.160717
-0.154083
-0.147234
-0.140013
-0.132226
-0.123635
-0.113983
-0.103021
-0.0905402
-0.076418
-0.0609223
-0.0451088
-0.03128
-0.0220704
-0.0192138
-0.0252424
-0.0471642
-0.0607732
-0.0743793
-0.0877993
-0.101072
-0.114229
-0.127272
-0.140175
-0.152893
-0.165384
-0.177612
-0.189544
-0.201146
-0.21238
-0.223209
-0.233594
-0.243497
-0.252879
-0.261703
-0.269931
-0.277527
-0.284455
-0.290679
-0.296166
-0.300887
-0.304812
-0.307918
-0.310183
-0.311592
-0.312133
-0.311803
-0.310593
-0.308498
-0.305527
-0.301711
-0.297093
-0.29173
-0.285685
-0.27903
-0.271843
-0.26421
-0.25622
-0.247972
-0.239561
-0.231086
-0.222634
-0.214286
-0.206102
-0.198128
-0.190386
-0.182874
-0.17557
-0.168431
-0.161388
-0.154346
-0.147173
-0.139686
-0.131646
-0.122762
-0.112709
-0.101179
-0.0879058
-0.0727724
-0.0562326
-0.0398218
-0.0259817
-0.0170043
-0.0142548
-0.0193381
-0.06865
-0.0831991
-0.0977556
-0.112118
-0.126321
-0.140394
-0.154335
-0.168115
-0.181685
-0.195002
-0.208026
-0.22072
-0.233046
-0.244961
-0.256424
-0.267392
-0.277821
-0.287668
-0.296889
-0.305442
-0.313284
-0.320374
-0.32667
-0.332134
-0.33673
-0.340423
-0.343183
-0.344984
-0.345803
-0.345628
-0.344446
-0.342248
-0.339027
-0.3348
-0.329599
-0.323478
-0.316499
-0.30874
-0.300286
-0.291237
-0.2817
-0.271796
-0.261651
-0.251393
-0.241151
-0.231043
-0.22117
-0.211617
-0.202439
-0.193664
-0.185292
-0.177299
-0.169641
-0.162257
-0.155061
-0.147936
-0.140701
-0.133101
-0.124796
-0.115382
-0.104443
-0.0916279
-0.0769097
-0.0611051
-0.0459768
-0.0333717
-0.0248299
-0.0215981
-0.0242613
-0.0947529
-0.110301
-0.125891
-0.141282
-0.156501
-0.171575
-0.1865
-0.201243
-0.215755
-0.229986
-0.243893
-0.257434
-0.270565
-0.283242
-0.295416
-0.30704
-0.318065
-0.32844
-0.338118
-0.347047
-0.35518
-0.362465
-0.368857
-0.374307
-0.378772
-0.382211
-0.384584
-0.385858
-0.386003
-0.384994
-0.382813
-0.379439
-0.374868
-0.369119
-0.362233
-0.354268
-0.3453
-0.335421
-0.324738
-0.313375
-0.301475
-0.289194
-0.276702
-0.264172
-0.251779
-0.239681
-0.228016
-0.216889
-0.206372
-0.19649
-0.187236
-0.178583
-0.170495
-0.16295
-0.155929
-0.149391
-0.143203
-0.137091
-0.130613
-0.123197
-0.114255
-0.103396
-0.0908375
-0.0775688
-0.0647093
-0.0533028
-0.0447659
-0.040662
-0.0413324
-0.123732
-0.140442
-0.157178
-0.173713
-0.190063
-0.206248
-0.222264
-0.238075
-0.25363
-0.268874
-0.28376
-0.298242
-0.312273
-0.325801
-0.338773
-0.351134
-0.36283
-0.373804
-0.383999
-0.393358
-0.401825
-0.409339
-0.415846
-0.421288
-0.42561
-0.428765
-0.430703
-0.431378
-0.430751
-0.428789
-0.425464
-0.420752
-0.414649
-0.407174
-0.39837
-0.388299
-0.377046
-0.364714
-0.351433
-0.337361
-0.322683
-0.307604
-0.292349
-0.277158
-0.262263
-0.247878
-0.234184
-0.221313
-0.209341
-0.198283
-0.188111
-0.178787
-0.170307
-0.162734
-0.156194
-0.150788
-0.146428
-0.142767
-0.1392
-0.134989
-0.129447
-0.122233
-0.113364
-0.103125
-0.0920513
-0.0813454
-0.0729032
-0.0684256
-0.0683184
-0.160807
-0.17876
-0.196845
-0.214706
-0.232358
-0.249832
-0.267121
-0.284187
-0.300972
-0.317419
-0.333473
-0.349085
-0.364203
-0.37877
-0.392726
-0.406009
-0.418557
-0.430305
-0.441188
-0.451144
-0.460104
-0.467999
-0.47476
-0.480321
-0.484618
-0.487588
-0.489168
-0.489295
-0.487908
-0.484951
-0.480367
-0.474119
-0.466195
-0.456615
-0.44542
-0.432677
-0.418481
-0.402949
-0.386238
-0.368542
-0.350098
-0.331182
-0.312108
-0.293211
-0.274824
-0.257263
-0.240793
-0.225602
-0.211779
-0.199299
-0.188049
-0.177894
-0.168792
-0.160901
-0.154585
-0.150178
-0.147704
-0.146838
-0.146852
-0.146881
-0.146035
-0.143316
-0.137956
-0.129931
-0.12025
-0.110768
-0.103745
-0.100551
-0.101069
-0.192933
-0.212508
-0.231949
-0.251158
-0.270156
-0.288948
-0.307523
-0.325846
-0.343857
-0.361495
-0.378704
-0.395428
-0.411606
-0.427173
-0.442062
-0.456206
-0.469537
-0.481982
-0.493472
-0.503931
-0.513279
-0.521439
-0.528334
-0.53389
-0.538031
-0.540677
-0.541747
-0.541156
-0.538824
-0.534674
-0.528644
-0.520701
-0.510839
-0.499079
-0.485468
-0.470073
-0.452992
-0.43435
-0.414317
-0.393106
-0.370991
-0.348315
-0.325485
-0.302957
-0.281221
-0.260758
-0.241989
-0.22521
-0.210517
-0.197765
-0.186569
-0.176443
-0.167099
-0.158809
-0.152423
-0.148785
-0.148203
-0.150248
-0.15386
-0.157696
-0.160311
-0.160239
-0.1567
-0.150123
-0.142101
-0.134939
-0.130816
-0.1303
-0.133051
-0.250894
-0.272009
-0.293519
-0.314721
-0.335648
-0.356365
-0.37687
-0.397123
-0.417058
-0.436604
-0.455697
-0.474269
-0.492253
-0.509576
-0.526167
-0.541948
-0.556841
-0.570765
-0.583633
-0.595359
-0.605854
-0.61503
-0.6228
-0.629077
-0.633777
-0.636814
-0.638091
-0.637475
-0.634783
-0.629831
-0.622466
-0.612596
-0.600191
-0.585267
-0.567878
-0.548107
-0.526071
-0.501925
-0.475881
-0.44822
-0.419303
-0.389573
-0.359569
-0.329937
-0.301424
-0.274835
-0.250968
-0.23048
-0.213733
-0.200625
-0.190429
-0.181861
-0.173715
-0.165986
-0.160028
-0.157205
-0.157723
-0.160676
-0.16479
-0.168692
-0.170823
-0.170017
-0.166107
-0.159915
-0.153286
-0.148583
-0.147419
-0.149795
-0.155418
-0.268424
-0.291031
-0.313101
-0.335176
-0.357194
-0.379008
-0.400582
-0.42189
-0.442864
-0.463418
-0.483478
-0.502975
-0.521843
-0.540011
-0.557398
-0.573922
-0.589496
-0.604027
-0.617422
-0.629582
-0.640408
-0.649796
-0.657644
-0.663854
-0.668342
-0.671059
-0.672046
-0.671271
-0.668516
-0.663501
-0.656002
-0.645846
-0.632907
-0.617095
-0.598333
-0.576581
-0.551835
-0.524142
-0.493627
-0.460534
-0.425275
-0.388446
-0.350858
-0.313577
-0.27792
-0.245411
-0.21764
-0.196016
-0.181415
-0.173744
-0.171522
-0.171924
-0.171736
-0.169752
-0.167342
-0.166335
-0.167188
-0.169196
-0.171521
-0.173293
-0.173205
-0.170268
-0.164619
-0.157513
-0.151102
-0.147631
-0.148498
-0.153545
-0.162256
-0.370943
-0.39706
-0.423435
-0.449189
-0.474416
-0.49939
-0.524205
-0.548798
-0.573056
-0.596869
-0.620148
-0.642815
-0.664798
-0.686017
-0.706383
-0.725799
-0.744164
-0.761369
-0.777303
-0.791848
-0.804876
-0.816251
-0.825821
-0.833417
-0.838835
-0.841827
-0.842064
-0.839304
-0.833554
-0.82492
-0.813464
-0.799149
-0.781833
-0.76129
-0.737262
-0.7095
-0.677814
-0.642126
-0.602533
-0.559341
-0.513111
-0.464733
-0.415454
-0.366844
-0.320725
-0.279052
-0.243708
-0.216208
-0.197301
-0.18659
-0.182411
-0.182087
-0.182696
-0.182453
-0.181101
-0.179315
-0.177646
-0.17621
-0.174731
-0.172535
-0.16866
-0.162354
-0.153841
-0.144907
-0.138238
-0.135873
-0.137723
-0.142734
-0.150875
0.0147194
0.0196877
0.024889
0.0302855
0.0359632
0.0419988
0.0483916
0.0549997
0.0617692
0.068862
0.0763012
0.0839814
0.0917466
0.100065
0.108054
0.116252
0.124109
0.132301
0.140147
0.147767
0.155649
0.162547
0.16897
0.174799
0.180036
0.184545
0.187965
0.190588
0.192514
0.193256
0.192889
0.191786
0.189959
0.187362
0.183654
0.179358
0.174529
0.169045
0.163157
0.157082
0.150445
0.143689
0.137229
0.130828
0.123922
0.117481
0.110923
0.104794
0.0988144
0.0931186
0.0877161
0.0825954
0.0778618
0.0733785
0.0692219
0.0651373
0.0615175
0.0581489
0.0551261
0.013674
0.018844
0.0242897
0.0300053
0.0360158
0.0423362
0.0489785
0.0559129
0.0631244
0.0706327
0.0784103
0.0864288
0.0946507
0.103105
0.111663
0.120202
0.128772
0.137273
0.145638
0.153648
0.161564
0.168938
0.175716
0.181884
0.187308
0.191928
0.195641
0.198303
0.200204
0.20097
0.200575
0.199414
0.197438
0.194536
0.190736
0.186208
0.181074
0.175346
0.169147
0.162598
0.155702
0.148714
0.141756
0.134639
0.127608
0.120693
0.113972
0.107519
0.101254
0.095245
0.0895518
0.0841696
0.0790587
0.074299
0.0698051
0.0656769
0.0619037
0.0584263
0.0552326
0.0122311
0.0176732
0.0233968
0.0294325
0.0357813
0.042452
0.0494386
0.0567358
0.0643449
0.0722638
0.08046
0.0888966
0.0975526
0.1064
0.115376
0.124446
0.133537
0.142525
0.151309
0.159801
0.168
0.175761
0.182918
0.189389
0.195077
0.199897
0.203783
0.206613
0.208498
0.20926
0.208904
0.207654
0.205432
0.202283
0.198257
0.193476
0.188014
0.181985
0.175451
0.168565
0.161382
0.153982
0.146502
0.139022
0.131624
0.124381
0.117311
0.110459
0.103858
0.0975484
0.0915632
0.0858931
0.0805404
0.0755094
0.0708423
0.0665316
0.0625517
0.0588798
0.0555068
0.0105246
0.016254
0.0222844
0.0286443
0.0353353
0.0423642
0.0497285
0.0574249
0.0654505
0.0737969
0.0824414
0.0913527
0.100501
0.109836
0.119295
0.128847
0.138401
0.147869
0.157132
0.166129
0.174768
0.182913
0.190443
0.197243
0.203228
0.208297
0.212371
0.215351
0.217271
0.218041
0.217668
0.216309
0.213893
0.210535
0.206254
0.201179
0.195385
0.188992
0.182082
0.174799
0.167221
0.159419
0.151529
0.143668
0.135863
0.128207
0.120735
0.113497
0.10654
0.0998977
0.0935929
0.0876324
0.0820259
0.0767722
0.071878
0.067333
0.063127
0.0592437
0.0556922
0.00866544
0.0147024
0.0210563
0.0277556
0.0348027
0.0422053
0.0499645
0.0580782
0.0665402
0.075338
0.0844505
0.0938495
0.103499
0.113345
0.123326
0.133384
0.14344
0.153409
0.163183
0.17268
0.181785
0.190355
0.198278
0.205437
0.211734
0.217066
0.221347
0.224471
0.226453
0.227229
0.226811
0.225339
0.22276
0.219182
0.214638
0.209245
0.203099
0.196316
0.188996
0.181272
0.173247
0.165018
0.156699
0.148388
0.140142
0.132041
0.124148
0.116512
0.109177
0.102173
0.0955231
0.0892396
0.0833299
0.0777955
0.0726338
0.0678395
0.0634077
0.0593196
0.0555846
0.0065919
0.012958
0.0196583
0.0267225
0.0341528
0.0419575
0.0501387
0.0586947
0.0676179
0.0768938
0.0864998
0.0964065
0.106575
0.116955
0.127484
0.138094
0.148699
0.159208
0.169515
0.179522
0.189107
0.198134
0.20648
0.214019
0.220642
0.226244
0.230739
0.234014
0.236065
0.236846
0.236378
0.234788
0.232034
0.228216
0.223387
0.217659
0.211135
0.203937
0.196179
0.187988
0.179484
0.170775
0.16197
0.153167
0.144445
0.135882
0.127543
0.11948
0.111735
0.10434
0.0973188
0.0906848
0.0844463
0.0786062
0.0731633
0.068112
0.0634456
0.059143
0.0552127
0.0042338
0.0109503
0.0180206
0.0254751
0.0333162
0.0415526
0.0501864
0.0592153
0.068631
0.0784178
0.0885525
0.0990034
0.10973
0.120679
0.131789
0.142983
0.154173
0.165259
0.176133
0.186682
0.196781
0.206293
0.215085
0.223024
0.229992
0.235878
0.240593
0.244022
0.246146
0.246932
0.246408
0.244687
0.241739
0.23766
0.23252
0.22643
0.2195
0.211856
0.203624
0.194935
0.185916
0.176683
0.167351
0.158024
0.148792
0.139732
0.130913
0.122389
0.114203
0.106389
0.0989716
0.0919669
0.0853832
0.0792234
0.0734854
0.0681617
0.0632444
0.0587111
0.0545713
0.00155529
0.0086445
0.0161076
0.0239765
0.0322542
0.0409496
0.0500648
0.0595973
0.069538
0.0798708
0.090571
0.101605
0.11293
0.124489
0.136217
0.148032
0.159843
0.171545
0.183023
0.194155
0.204805
0.214833
0.224097
0.23246
0.239795
0.245983
0.250929
0.254519
0.256718
0.257506
0.256917
0.255049
0.251889
0.247529
0.242052
0.23557
0.2282
0.220076
0.211331
0.202104
0.192531
0.182737
0.172842
0.162957
0.153176
0.143582
0.134245
0.125223
0.116563
0.1083
0.100459
0.0930576
0.0861042
0.0796009
0.0735444
0.0679264
0.0627385
0.0579574
0.053593
-0.00148608
0.00600086
0.013883
0.0221936
0.0309359
0.0401192
0.0497459
0.0598135
0.0703127
0.0812265
0.0925292
0.104185
0.116148
0.128358
0.140744
0.153223
0.165696
0.178055
0.190176
0.201929
0.213168
0.223747
0.233515
0.242329
0.250054
0.256564
0.261756
0.265513
0.267791
0.268577
0.267913
0.265885
0.262495
0.257833
0.25199
0.245084
0.23724
0.228598
0.219302
0.209498
0.19933
0.188932
0.178433
0.167947
0.157575
0.147405
0.137512
0.127956
0.118786
0.11004
0.101743
0.0939139
0.0865606
0.0796851
0.0732837
0.0673477
0.0618682
0.0568207
0.0522154
-0.00494818
0.00296325
0.0112926
0.0200745
0.0293126
0.0390166
0.049189
0.0598273
0.0709223
0.0824559
0.0944009
0.106719
0.119361
0.132265
0.145355
0.158541
0.171722
0.184781
0.197587
0.21
0.221868
0.233033
0.24334
0.252635
0.260776
0.267629
0.273081
0.277015
0.279375
0.280158
0.27941
0.27721
0.273571
0.268582
0.262344
0.25498
0.246624
0.237425
0.227535
0.217111
0.206303
0.195256
0.184104
0.172968
0.161958
0.151166
0.140672
0.13054
0.120822
0.111556
0.102769
0.0944799
0.0866968
0.0794217
0.0726506
0.0663741
0.0605825
0.05525
0.0503871
-0.0089032
-0.000538202
0.00826892
0.0175541
0.027322
0.0375833
0.0483403
0.0595897
0.0713217
0.0835177
0.0961487
0.109174
0.122542
0.136186
0.150027
0.16397
0.177906
0.191712
0.205248
0.218365
0.230903
0.242695
0.253577
0.263386
0.27197
0.279187
0.284917
0.289036
0.291483
0.292261
0.29142
0.289034
0.285125
0.279783
0.273119
0.265261
0.256353
0.246553
0.236023
0.224929
0.213431
0.201683
0.189827
0.177991
0.166292
0.154829
0.143685
0.13293
0.122619
0.11279
0.103475
0.0946894
0.0864439
0.0787397
0.0715722
0.0649309
0.058805
0.0531673
0.0480282
-0.0134307
-0.00457995
0.00473906
0.0145636
0.0248985
0.0357553
0.0471372
0.0590405
0.0714542
0.0843584
0.0977226
0.111504
0.125648
0.140084
0.154728
0.16948
0.184224
0.198828
0.213144
0.227014
0.240268
0.25273
0.264226
0.274583
0.28364
0.291246
0.297272
0.301588
0.304126
0.304895
0.303952
0.301363
0.297162
0.29144
0.284315
0.275923
0.266419
0.255969
0.244749
0.232932
0.220688
0.208181
0.195564
0.182974
0.170533
0.158346
0.146502
0.135075
0.124122
0.113686
0.103797
0.0944757
0.0857303
0.0775623
0.0699666
0.0629316
0.0564455
0.0504794
0.0450435
-0.0186238
-0.0092524
0.000615151
0.0110174
0.0219602
0.0334554
0.0455056
0.0581079
0.0712503
0.0849118
0.0990601
0.113651
0.128625
0.143909
0.159414
0.175032
0.190641
0.206099
0.22125
0.235926
0.249946
0.263126
0.275279
0.286223
0.295785
0.303807
0.310147
0.314671
0.317306
0.318064
0.317007
0.314199
0.30968
0.303546
0.295922
0.286953
0.276805
0.265655
0.253688
0.241089
0.228041
0.214716
0.201276
0.187868
0.174624
0.161655
0.149056
0.136903
0.125258
0.114166
0.10366
0.0937596
0.0844742
0.0758052
0.0677469
0.0602868
0.053412
0.047092
0.0413366
-0.024589
-0.0146584
-0.00420239
0.00681871
0.0184118
0.0305893
0.043355
0.056705
0.0706275
0.0851001
0.100089
0.115547
0.131412
0.147605
0.164031
0.180577
0.197112
0.213485
0.229531
0.245071
0.259913
0.273862
0.286719
0.298292
0.308394
0.31686
0.323537
0.328283
0.331019
0.331763
0.33058
0.327532
0.322669
0.316089
0.307925
0.298334
0.28749
0.275582
0.262807
0.249363
0.235445
0.221237
0.206909
0.192619
0.178505
0.164689
0.15127
0.138331
0.125937
0.114136
0.102961
0.0924347
0.0825661
0.0733564
0.0647991
0.0568807
0.049587
0.0428862
0.0367874
-0.0314649
-0.0209349
-0.0098477
0.00183742
0.0141283
0.0270382
0.0405714
0.054725
0.0694858
0.0848296
0.10072
0.117108
0.133926
0.151093
0.168507
0.186048
0.203576
0.220931
0.237937
0.254403
0.270128
0.284903
0.298516
0.310763
0.321446
0.330388
0.337426
0.342407
0.34525
0.345975
0.344653
0.341346
0.336108
0.329045
0.320298
0.310033
0.298437
0.285711
0.272064
0.257707
0.242846
0.22768
0.212392
0.197148
0.182095
0.167361
0.153055
0.139264
0.126056
0.113485
0.101585
0.0903796
0.0798788
0.0700835
0.0609864
0.0525729
0.0448274
0.0377164
0.0312482
-0.0394153
-0.0282388
-0.0164715
-0.00407139
0.00897155
0.0226712
0.0370312
0.0520477
0.0677072
0.0839852
0.100843
0.118227
0.136068
0.154279
0.172753
0.191364
0.209959
0.228367
0.246404
0.263867
0.28054
0.296202
0.310628
0.323598
0.334905
0.344359
0.351783
0.357016
0.359971
0.360674
0.359199
0.355609
0.349966
0.342381
0.333002
0.322008
0.309598
0.295986
0.281395
0.26605
0.250171
0.233967
0.217637
0.201357
0.185286
0.169559
0.154291
0.139577
0.125488
0.112082
0.0993961
0.0874542
0.0762679
0.0658378
0.0561558
0.0472061
0.0389716
0.0314177
0.024551
-0.048619
-0.0367441
-0.0242419
-0.011071
0.00278003
0.0173267
0.0325734
0.0485159
0.0651393
0.0824171