/*--------------------------------*- C++ -*----------------------------------*\
| =========                 |                                                 |
| \\      /  F ield         | OpenFOAM: The Open Source CFD Toolbox           |
|  \\    /   O peration     | Version:  2312                                  |
|   \\  /    A nd           | Website:  www.openfoam.com                      |
|    \\/     M anipulation  |                                                 |
\*---------------------------------------------------------------------------*/
FoamFile
{
    version     2.0;
    format      ascii;
    arch        "LSB;label=32;scalar=64";
    class       surfaceScalarField;
    location    "2000";
    object      phi;
}
// * * * * * * * * * * * * * * * * * * * * * * * * * * * * * * * * * * * * * //

dimensions      [0 3 -1 0 0 0 0];

oriented        oriented;

internalField   nonuniform List<scalar> 
116611
(
0.0295039
0.0110159
-0.0290984
-0.0114214
0.0299048
0.0109065
-0.0113073
0.0303029
0.0107892
-0.0111873
0.0306969
0.0106632
-0.0110572
0.0310828
0.0105262
-0.0109121
0.0314698
0.0103779
-0.0107649
0.0318412
0.0102192
-0.0105906
0.0322134
0.0100494
-0.0104216
0.0325779
0.00986811
-0.0102327
0.0329387
0.00967641
-0.0100371
0.0332898
0.00947087
-0.009822
0.0336346
0.00925284
-0.00959762
0.0339721
0.00902176
-0.00935931
0.034306
0.00877715
-0.00911103
0.0346347
0.00852001
-0.00884871
0.0349516
0.00824999
-0.00856693
0.0352633
0.00796289
-0.00827452
0.0355633
0.00766352
-0.00796356
0.0358521
0.00734506
-0.00763389
0.0361324
0.00701531
-0.00729562
0.0364071
0.00666454
-0.00693918
0.0366719
0.00629978
-0.00656463
0.0369271
0.00591781
-0.00617294
0.0371732
0.00551857
-0.00576476
0.037406
0.00510075
-0.00533355
0.0376285
0.00466382
-0.00488625
0.0378391
0.00420582
-0.00441649
0.0380292
0.00373013
-0.00392016
0.0382105
0.0032327
-0.00341399
0.0383674
0.00271337
-0.00287032
0.0385161
0.00217772
-0.00232644
0.0386465
0.0016145
-0.00174482
0.0387587
0.00102919
-0.00114148
0.038853
0.000424204
-0.000518408
0.0389252
-0.000208389
0.000136108
0.0389779
-0.000860827
0.000808198
0.0390121
-0.00154234
0.00150808
0.0390262
-0.00224586
0.00223179
0.0390214
-0.00297268
0.00297749
0.0389911
-0.0037298
0.00376011
0.0389394
-0.0045106
0.0045623
0.0388682
-0.00532119
0.00539236
0.0387768
-0.00615715
0.00624853
0.0386605
-0.00702076
0.00713708
0.0385247
-0.00791419
0.00804998
0.038366
-0.0088374
0.00899607
0.0381919
-0.00979065
0.0099648
0.0379921
-0.0107758
0.0109756
0.0377738
-0.0117936
0.0120119
0.0375332
-0.0128444
0.0130851
0.0372709
-0.0139289
0.0141911
0.0369899
-0.0150469
0.0153279
0.0366884
-0.0162001
0.0165016
0.0363652
-0.0173904
0.0177136
0.0360214
-0.018618
0.0189617
0.0356533
-0.0198874
0.0202556
0.0352673
-0.0211978
0.0215837
0.0348572
-0.0225532
0.0229633
0.034423
-0.023954
0.0243882
0.0339682
-0.0253987
0.0258535
0.0335068
-0.0268864
0.0273478
0.0330333
-0.0284349
0.0289085
0.0325427
-0.0300476
0.0305382
0.0320518
-0.0317222
0.0322132
0.0315699
-0.0334664
0.0339484
0.0310737
-0.0353061
0.0358023
0.0306101
-0.0372319
0.0376955
0.0302158
-0.0392423
0.0396366
-0.0414618
0.029828
0.0418496
0.0291082
0.0106121
-0.0287045
0.0295077
0.010507
0.0299034
0.0103934
0.0302956
0.010271
0.0306835
0.0101383
0.0310656
0.00999579
0.0314417
0.00984312
0.0318118
0.00967933
0.0321754
0.00950449
0.0325339
0.00931788
0.0328853
0.00911946
0.0332293
0.00890885
0.0335656
0.00868545
0.0338941
0.00844871
0.0342149
0.00819922
0.0345291
0.00793571
0.0348337
0.00765837
0.0351308
0.00736641
0.0354161
0.00705978
0.035694
0.00673733
0.0359599
0.0063987
0.0362156
0.00604404
0.0364608
0.00567264
0.0366954
0.00528393
0.0369187
0.00487748
0.0371303
0.00445221
0.0373277
0.00400838
0.0375123
0.00354553
0.0376825
0.00306259
0.0378361
0.00255969
0.0379779
0.0020359
0.0381022
0.0014902
0.0382086
0.000922794
0.0382998
0.000333092
0.0383716
-0.000280285
0.0384273
-0.000916492
0.0384622
-0.00157718
0.0384778
-0.00226154
0.0384758
-0.00297063
0.0384523
-0.00370635
0.0384101
-0.00446837
0.0383462
-0.00525733
0.038262
-0.00607289
0.0381578
-0.00691657
0.0380333
-0.00778964
0.0378881
-0.00869224
0.0377222
-0.00962479
0.0375349
-0.0105885
0.0373259
-0.0115847
0.0370948
-0.0126133
0.0368413
-0.0136753
0.0365658
-0.0147713
0.0362682
-0.0159025
0.0359484
-0.0170706
0.0356075
-0.0182771
0.0352445
-0.0195243
0.0348598
-0.0208131
0.034453
-0.0221464
0.0340246
-0.0235256
0.0335783
-0.0249524
0.0331217
-0.0264298
0.0326525
-0.0279658
0.0321729
-0.029568
0.031692
-0.0312412
0.0312195
-0.032994
0.0307542
-0.0348408
0.0303089
-0.0367866
0.029894
-0.0388274
-0.0410392
0.0294714
0.0287259
0.010209
-0.0283227
0.0291248
0.0101081
0.0295194
0.00999879
0.02991
0.00988047
0.0302956
0.00975266
0.0306762
0.00961514
0.0310518
0.00946758
0.0314215
0.0093096
0.0317851
0.00914085
0.0321422
0.00896085
0.0324923
0.0087693
0.0328353
0.00856585
0.0331707
0.00835013
0.0334977
0.00812169
0.0338167
0.00788022
0.0341272
0.00762523
0.034429
0.00735651
0.0347219
0.00707358
0.0350055
0.00677614
0.0352792
0.00646361
0.0355422
0.00613569
0.0357945
0.00579182
0.0360356
0.00543154
0.0362651
0.00505435
0.0364828
0.00465978
0.0366878
0.0042473
0.0368797
0.00381648
0.0370584
0.00336679
0.0372232
0.00289782
0.0373738
0.00240904
0.0375098
0.00189993
0.03763
0.00137001
0.0377343
0.000818442
0.0378228
0.000244631
0.0378941
-0.000351585
0.037948
-0.000970394
0.0379835
-0.00161266
0.0380009
-0.00227897
0.0380002
-0.00296992
0.0379802
-0.00368638
0.0379408
-0.00442889
0.0378813
-0.00519781
0.0378021
-0.00599372
0.0377029
-0.00681744
0.0375831
-0.00766977
0.0374421
-0.00855129
0.03728
-0.00946267
0.0370964
-0.0104048
0.0368905
-0.0113788
0.0366623
-0.0123851
0.0364116
-0.0134246
0.0361386
-0.0144983
0.0358434
-0.0156074
0.0355263
-0.0167534
0.0351872
-0.0179381
0.0348261
-0.0191633
0.0344437
-0.0204307
0.0340404
-0.021743
0.0336174
-0.0231026
0.0331776
-0.0245126
0.032725
-0.0259772
0.0322629
-0.0275037
0.0317949
-0.0291
0.0313278
-0.0307741
0.0308692
-0.0325354
0.0304228
-0.0343944
0.0299927
-0.0363565
0.0295794
-0.0384141
-0.040615
0.0291552
0.0283548
0.00980632
-0.0279521
0.0287534
0.00970946
0.0291476
0.0096046
0.0295372
0.00949093
0.0299218
0.00936807
0.0303013
0.00923566
0.0306754
0.00909344
0.0310439
0.00894113
0.0314063
0.00877841
0.0317623
0.00860489
0.0321114
0.00842018
0.0324533
0.00822391
0.0327877
0.00801573
0.0331142
0.00779526
0.0334323
0.00756211
0.0337416
0.0073159
0.0340419
0.00705621
0.0343328
0.00678266
0.0346141
0.00649485
0.0348853
0.00619239
0.0351461
0.00587487
0.0353961
0.00554182
0.0356349
0.00519281
0.0358619
0.00482735
0.0360767
0.00444492
0.036279
0.00404505
0.0364682
0.00362721
0.0366441
0.00319097
0.036806
0.00273585
0.0369537
0.00226134
0.0370868
0.00176692
0.0372047
0.00125201
0.0373072
0.000715951
0.0373938
0.000158095
0.0374636
-0.000421388
0.0375162
-0.00102307
0.0375514
-0.00164783
0.0375687
-0.0022963
0.0375679
-0.00296906
0.0375483
-0.00366676
0.0375094
-0.00439007
0.0374511
-0.00513948
0.037373
-0.00591563
0.0372747
-0.00671917
0.0371558
-0.00755087
0.037016
-0.00841144
0.0368549
-0.0093016
0.0366722
-0.0102222
0.0364675
-0.0111741
0.0362406
-0.0121581
0.0359913
-0.0131753
0.0357197
-0.0142267
0.0354259
-0.0153136
0.0351101
-0.0164376
0.0347723
-0.0176004
0.034413
-0.0188039
0.0340325
-0.0200503
0.0336319
-0.0213424
0.0332127
-0.0226835
0.032778
-0.0240778
0.0323314
-0.0255307
0.0318772
-0.0270495
0.0314202
-0.028643
0.0309664
-0.0303203
0.0305218
-0.0320908
0.0300882
-0.0339608
0.0296634
-0.0359317
0.0292382
-0.0379889
-0.0401612
0.0287843
0.0280011
0.00940685
-0.0276016
0.0283974
0.00931316
0.0287899
0.00921209
0.0291781
0.00910272
0.0295616
0.00898458
0.0299399
0.0088573
0.0303128
0.00872054
0.03068
0.00857397
0.0310411
0.00841729
0.0313958
0.00825016
0.0317438
0.00807221
0.0320846
0.00788309
0.0324179
0.00768243
0.0327433
0.00746985
0.0330604
0.00724501
0.0333688
0.0070075
0.0336681
0.00675691
0.033958
0.00649285
0.0342379
0.00621491
0.0345076
0.00592268
0.0347667
0.00561573
0.0350149
0.00529363
0.0352518
0.00495595
0.0354769
0.00460222
0.0356899
0.00423196
0.0358903
0.00384467
0.0360776
0.00343988
0.0362515
0.0030171
0.0364115
0.00257585
0.0365572
0.00211561
0.0366883
0.00163583
0.0368043
0.00113596
0.0369049
0.000615432
0.0369894
7.35249e-05
0.0370574
-0.0004894
0.0371086
-0.0010742
0.0371424
-0.00168168
0.0371586
-0.00231245
0.0371566
-0.00296713
0.0371362
-0.00364632
0.0370968
-0.00435065
0.037038
-0.00508071
0.0369595
-0.00583712
0.0368609
-0.00662056
0.0367418
-0.00743177
0.0366018
-0.00827146
0.0364406
-0.00914041
0.0362579
-0.0100394
0.0360533
-0.0109695
0.0358267
-0.0119315
0.0355779
-0.0129266
0.035307
-0.0139558
0.0350141
-0.0150206
0.0346992
-0.0161226
0.0343624
-0.0172636
0.0340042
-0.0184457
0.0336254
-0.0196714
0.0332272
-0.0209442
0.0328118
-0.0222681
0.0323822
-0.0236482
0.0319424
-0.0250908
0.031497
-0.0266041
0.0310512
-0.0281972
0.0306098
-0.029879
0.0301755
-0.0316564
0.0297454
-0.0335308
0.0293119
-0.0354982
0.0288597
-0.0375366
-0.0396659
0.0283644
0.0276714
0.00901196
-0.0272766
0.0280636
0.008921
0.0284526
0.00882314
0.0288378
0.00871749
0.0292188
0.00860358
0.0295951
0.00848101
0.0299662
0.00834942
0.0303317
0.00820843
0.0306913
0.00805771
0.0310446
0.00789691
0.0313911
0.00772569
0.0317305
0.00754367
0.0320624
0.00735051
0.0323864
0.00714583
0.0327022
0.00692925
0.0330093
0.0067004
0.0333073
0.00645888
0.0335959
0.00620428
0.0338746
0.00593621
0.034143
0.00565424
0.0344008
0.00535795
0.0346475
0.00504689
0.0348829
0.00472063
0.0351064
0.00437872
0.0353176
0.00402067
0.0355163
0.00364603
0.0357018
0.0032543
0.0358739
0.002845
0.0360322
0.00241762
0.0361761
0.00197165
0.0363054
0.00150654
0.0364196
0.00102176
0.0365183
0.00051678
0.036601
-9.18325e-06
0.0366672
-0.00055564
0.0367167
-0.00112364
0.0367489
-0.00171391
0.0367635
-0.00232708
0.0367601
-0.00296373
0.0367383
-0.00362448
0.0366976
-0.00430993
0.0366376
-0.00502071
0.0365579
-0.00575747
0.0364582
-0.00652089
0.0363382
-0.0073117
0.0361974
-0.00813064
0.0360355
-0.00897855
0.0358523
-0.00985625
0.0356475
-0.0107647
0.035421
-0.011705
0.0351726
-0.0126781
0.0349021
-0.0136854
0.0346097
-0.0147282
0.0342953
-0.0158083
0.0339592
-0.0169275
0.033602
-0.0180885
0.0332249
-0.0192943
0.0328294
-0.0205488
0.0324183
-0.0218569
0.0319945
-0.0232245
0.0315626
-0.0246589
0.0311269
-0.0261685
0.0306917
-0.027762
0.0302586
-0.0294459
0.0298254
-0.0312232
0.0293843
-0.0330897
0.0289229
-0.0350367
0.0284231
-0.0370368
-0.0391029
0.0278601
0.0273668
0.00862071
-0.0269755
0.027755
0.00853279
0.0281399
0.0084382
0.0285213
0.00833614
0.0288987
0.00822618
0.0292717
0.00810799
0.0296399
0.00798123
0.0300028
0.00784553
0.03036
0.00770053
0.030711
0.00754589
0.0310555
0.00738124
0.0313929
0.00720621
0.031723
0.00702045
0.0320453
0.00682358
0.0323593
0.00661521
0.0326647
0.00639497
0.0329611
0.00616246
0.0332481
0.00591729
0.0335253
0.00565904
0.0337922
0.00538731
0.0340485
0.00510166
0.0342937
0.00480167
0.0345275
0.00448687
0.0347494
0.00415683
0.034959
0.00381106
0.0351559
0.00344911
0.0353398
0.00307047
0.0355101
0.00267467
0.0356665
0.00226119
0.0358086
0.00182952
0.0359361
0.00137914
0.0360483
0.000909484
0.0361451
0.000420044
0.0362258
-8.9901e-05
0.0362901
-0.000619936
0.0363376
-0.00117114
0.0363679
-0.00174424
0.0363807
-0.00233982
0.0363754
-0.00295849
0.0363518
-0.00360085
0.0363094
-0.00426753
0.0362478
-0.00495915
0.0361667
-0.00567639
0.0360658
-0.00641994
0.0359447
-0.00719055
0.035803
-0.00798899
0.0356405
-0.00881608
0.035457
-0.00967269
0.035252
-0.0105598
0.0350255
-0.0114784
0.0347771
-0.0124298
0.0345068
-0.0134151
0.0342146
-0.0144359
0.0339005
-0.0154942
0.0335651
-0.0165921
0.0332092
-0.0177326
0.0328345
-0.0189195
0.0324428
-0.0201571
0.0320371
-0.0214512
0.0316208
-0.0228082
0.031198
-0.024236
0.0307716
-0.0257421
0.0303429
-0.0273333
0.0299086
-0.0290116
0.0294614
-0.0307761
0.0289894
-0.0326176
0.0284784
-0.0345257
0.027911
-0.0364694
-0.0384546
0.0272627
0.0270836
0.00823134
-0.0266943
0.0274695
0.00814697
0.0278515
0.00805611
0.0282297
0.00795798
0.0286037
0.00785219
0.0289732
0.00773845
0.029338
0.00761648
0.0296976
0.00748594
0.0300516
0.00734651
0.0303996
0.00719784
0.0307413
0.00703958
0.0310761
0.00687137
0.0314037
0.00669286
0.0317236
0.00650366
0.0320355
0.00630339
0.0323388
0.00609168
0.0326331
0.00586812
0.0329181
0.00563232
0.0331932
0.00538386
0.0334582
0.00512233
0.0337126
0.00484731
0.0339559
0.00455835
0.0341877
0.00425502
0.0344077
0.00393684
0.0346154
0.00360337
0.0348104
0.00325411
0.0349923
0.00288859
0.0351606
0.00250631
0.0353151
0.00210677
0.0354551
0.00168944
0.0355805
0.00125381
0.0356907
0.000799305
0.0357853
0.000325414
0.0358638
-0.000168421
0.0359259
-0.000682062
0.0359713
-0.00121651
0.0359995
-0.00177246
0.0360102
-0.00235053
0.0360031
-0.00295131
0.0359776
-0.0035754
0.0359335
-0.00422344
0.0358705
-0.00489608
0.0357881
-0.00559399
0.035686
-0.00631788
0.0355639
-0.00706849
0.0354215
-0.0078466
0.0352585
-0.00865303
0.0350745
-0.00948866
0.0348692
-0.0103545
0.0346423
-0.0112516
0.0343937
-0.0121812
0.0341233
-0.0131446
0.0338311
-0.0141438
0.0335177
-0.0151807
0.0331836
-0.0162581
0.0328303
-0.0173793
0.0324596
-0.0185487
0.0320737
-0.0197713
0.0316756
-0.0210531
0.0312683
-0.0224009
0.030854
-0.0238217
0.0304326
-0.0253206
0.0300003
-0.026901
0.0295491
-0.0285604
0.029068
-0.030295
0.0285431
-0.0320928
0.0279612
-0.0339438
0.027308
-0.0358163
-0.0377087
0.0265621
0.0268189
0.00784278
-0.0264303
0.0272035
0.0077623
0.0275841
0.00767556
0.0279603
0.00758174
0.028332
0.00748047
0.028699
0.0073715
0.0290609
0.00725454
0.0294175
0.00712932
0.0297685
0.00699553
0.0301135
0.00685286
0.0304521
0.00670097
0.030784
0.00653952
0.0311086
0.00636818
0.0314257
0.00618656
0.0317348
0.00599431
0.0320355
0.00579103
0.0323273
0.00557635
0.0326097
0.00534985
0.0328825
0.00511112
0.033145
0.00485976
0.033397
0.00459533
0.033638
0.00431739
0.0338675
0.00402549
0.0340852
0.00371918
0.0342906
0.00339799
0.0344832
0.00306143
0.0346628
0.00270903
0.0348288
0.00234029
0.0349809
0.00195469
0.0351186
0.00155171
0.0352416
0.00113083
0.0353494
0.000691492
0.0354417
0.00023312
0.0355179
-0.000244601
0.0355777
-0.000741887
0.0356208
-0.00125965
0.0356469
-0.00179855
0.0356556
-0.00235921
0.0356465
-0.00294221
0.0356193
-0.00354818
0.0355736
-0.00417775
0.0355091
-0.00483155
0.0354254
-0.00551028
0.0353221
-0.00621464
0.035199
-0.00694536
0.0350556
-0.00770322
0.0348917
-0.00848907
0.0347068
-0.00930381
0.0345008
-0.0101485
0.0342734
-0.0110242
0.0340245
-0.0119323
0.0337542
-0.0128744
0.033463
-0.0138525
0.0331514
-0.0148691
0.0328206
-0.0159273
0.0324722
-0.017031
0.0321082
-0.0181847
0.0317308
-0.0193939
0.031342
-0.0206644
0.0309428
-0.0220017
0.0305319
-0.0234108
0.0301045
-0.0248932
0.0296523
-0.0264488
0.0291641
-0.0280721
0.0286277
-0.0297586
0.0280308
-0.0314959
0.0273621
-0.0332751
0.0266044
-0.0350585
-0.0368144
0.0257101
0.0265715
0.00745496
-0.0261837
0.0269555
0.00737835
0.0273352
0.00729582
0.0277105
0.00720649
0.028081
0.00710999
0.0284464
0.00700604
0.0288066
0.00689438
0.0291612
0.00677472
0.0295099
0.0066468
0.0298525
0.00651031
0.0301885
0.00636493
0.0305177
0.00621036
0.0308396
0.00604626
0.0311539
0.00587228
0.0314601
0.00568805
0.0317579
0.00549321
0.0320469
0.00528738
0.0323266
0.00507016
0.0325966
0.00484114
0.0328564
0.00459991
0.0331057
0.00434605
0.033344
0.0040791
0.0335708
0.00379864
0.0337858
0.00350418
0.0339886
0.00319527
0.0341786
0.00287141
0.0343555
0.00253212
0.0345189
0.0021769
0.0346684
0.00180523
0.0348035
0.00141659
0.0349239
0.00101045
0.0350291
0.000586249
0.0351189
0.000143356
0.0351926
-0.000318308
0.03525
-0.000799287
0.0352907
-0.00130042
0.0353145
-0.00182234
0.035321
-0.00236566
0.0353097
-0.00293098
0.0352805
-0.00351891
0.0352328
-0.00413008
0.0351664
-0.00476516
0.0350809
-0.00542481
0.034976
-0.00610974
0.0348514
-0.00682069
0.0347066
-0.00755846
0.0345414
-0.00832392
0.0343556
-0.00911801
0.034149
-0.00994183
0.0339215
-0.0107967
0.0336732
-0.011684
0.0334046
-0.0126058
0.0331163
-0.0135642
0.0328093
-0.0145621
0.0324849
-0.015603
0.0321448
-0.0166908
0.0317904
-0.0178304
0.0314228
-0.0190262
0.0310415
-0.0202831
0.0306438
-0.0216041
0.0302241
-0.0229911
0.0297737
-0.0244427
0.0292813
-0.0259565
0.0287357
-0.0275266
0.0281267
-0.0291495
0.0274456
-0.0308149
0.0266824
-0.0325119
0.0258118
-0.034188
-0.0357668
0.0247643
0.0263434
0.00706803
-0.0259564
0.0267265
0.00699524
0.0271054
0.00691687
0.0274799
0.00683204
0.0278495
0.00674035
0.028214
0.00664153
0.0285731
0.0065353
0.0289264
0.0064214
0.0292737
0.00629954
0.0296146
0.00616942
0.0299488
0.00603076
0.0302759
0.00588323
0.0305956
0.00572653
0.0309076
0.00556031
0.0312114
0.00538423
0.0315067
0.00519792
0.0317931
0.00500102
0.0320701
0.00479314
0.0323373
0.00457388
0.0325944
0.00434282
0.0328409
0.00409956
0.0330764
0.00384364
0.0333004
0.00357462
0.0335125
0.00329204
0.0337124
0.00299541
0.0338995
0.00268426
0.0340736
0.0023581
0.0342341
0.00201641
0.0343806
0.00165868
0.0345128
0.00128438
0.0346303
0.00089297
0.0347326
0.000483908
0.0348195
5.64968e-05
0.0348903
-0.000389143
0.0349449
-0.000853848
0.0349829
-0.00133838
0.0350039
-0.00184336
0.0350076
-0.0023694
0.0349938
-0.00291711
0.034962
-0.0034871
0.0349119
-0.00408
0.0348432
-0.00469648
0.0347556
-0.00533722
0.0346488
-0.00600293
0.0345225
-0.00669438
0.0343764
-0.0074124
0.0342104
-0.00815789
0.0340243
-0.0089319
0.0338181
-0.00973568
0.0335922
-0.0105707
0.0333468
-0.0114386
0.0330827
-0.0123417
0.0328008
-0.0132823
0.0325021
-0.0142635
0.0321878
-0.0152886
0.0318585
-0.0163615
0.031514
-0.0174859
0.0311526
-0.0186649
0.0307704
-0.0199008
0.0303607
-0.0211944
0.0299144
-0.0225447
0.0294208
-0.0239491
0.0288692
-0.0254049
0.0282507
-0.0269081
0.0275586
-0.0284573
0.0267868
-0.0300431
0.0259222
-0.0316472
0.0249235
-0.0331894
-0.0345401
0.0236968
0.026137
0.00668219
-0.0257512
0.0265191
0.00661316
0.0268971
0.0065389
0.0272706
0.00645851
0.0276394
0.0063716
0.028003
0.00627789
0.0283612
0.00617713
0.0287135
0.00606903
0.0290598
0.00595331
0.0293995
0.00582968
0.0297324
0.00569786
0.0300581
0.00555752
0.0303763
0.00540837
0.0306865
0.00525007
0.0309885
0.00508228
0.0312817
0.00490465
0.0315659
0.00471681
0.0318407
0.0045184
0.0321055
0.00430901
0.0323601
0.00408823
0.032604
0.00385566
0.0328368
0.00361086
0.0330581
0.00335338
0.0332673
0.00308274
0.0334643
0.00279849
0.0336484
0.00250012
0.0338194
0.00218714
0.0339767
0.00185904
0.0341201
0.0015153
0.0342491
0.00115539
0.0343633
0.000778759
0.0344624
0.000384862
0.0345459
-2.70049e-05
0.0346134
-0.00045667
0.0346647
-0.000905132
0.0346994
-0.0013731
0.0347172
-0.0018612
0.0347179
-0.00237004
0.034701
-0.00290024
0.0346663
-0.00345241
0.0346135
-0.00402722
0.0345424
-0.00462533
0.0344526
-0.00524746
0.0343441
-0.00589436
0.0342165
-0.00656683
0.0340699
-0.00726575
0.0339041
-0.00799217
0.0337195
-0.00874726
0.0335163
-0.00953245
0.0332949
-0.0103493
0.0330561
-0.0111998
0.0328006
-0.0120861
0.032529
-0.0130107
0.0322418
-0.0139762
0.0319387
-0.0149856
0.0316184
-0.0160413
0.031278
-0.0171454
0.0309122
-0.0182992
0.030514
-0.0195025
0.0300739
-0.0207544
0.0295819
-0.0220527
0.0290281
-0.0233953
0.0284042
-0.024781
0.0277048
-0.0262087
0.0269254
-0.0276779
0.0260579
-0.0291757
0.0250783
-0.0306676
0.0239178
-0.0320288
-0.0330652
0.022443
0.0259552
0.00629747
-0.0255705
0.0263362
0.00623218
0.0267131
0.006162
0.0270856
0.00608602
0.0274533
0.00600385
0.027816
0.00591524
0.0281732
0.00581992
0.0285246
0.00571761
0.0288698
0.00560805
0.0292086
0.00549095
0.0295404
0.00536602
0.029865
0.00523296
0.0301819
0.00509145
0.0304908
0.00494117
0.0307913
0.00478179
0.031083
0.00461297
0.0313654
0.00443434
0.0316383
0.00424554
0.0319011
0.00404616
0.0321536
0.00383581
0.0323951
0.00361408
0.0326255
0.00338052
0.0328442
0.0031347
0.0330507
0.00287616
0.0332448
0.00260439
0.033426
0.00231893
0.0335939
0.00201925
0.0337481
0.00170485
0.0338882
0.0013752
0.0340138
0.00102976
0.0341246
0.000667973
0.0342202
0.000289281
0.0343001
-0.000106927
0.0343641
-0.000520657
0.0344119
-0.000952889
0.0344431
-0.00140433
0.0344575
-0.0018756
0.0344548
-0.00236734
0.0344347
-0.00288018
0.0343971
-0.00341476
0.0343417
-0.00397179
0.0342683
-0.00455197
0.0341769
-0.00515608
0.0340675
-0.00578494
0.0339401
-0.00643941
0.0337949
-0.00712052
0.0336321
-0.00782941
0.0334522
-0.00856739
0.0332557
-0.00933594
0.0330431
-0.0101367
0.0328147
-0.0109715
0.0325708
-0.0118422
0.032311
-0.0127509
0.0320341
-0.0136993
0.0317376
-0.0146891
0.0314176
-0.0157212
0.0310681
-0.016796
0.0306817
-0.0179127
0.0302494
-0.0190702
0.0297618
-0.0202667
0.0292098
-0.0215007
0.0285859
-0.0227714
0.0278847
-0.0240798
0.0271028
-0.0254268
0.0262343
-0.0268094
0.0252627
-0.0282041
0.0241409
-0.0295458
0.0227474
-0.0306354
-0.0311618
0.020844
0.0258001
0.0059137
-0.0254164
0.0261802
0.00585215
0.0265561
0.00578607
0.0269276
0.00571451
0.0272944
0.00563709
0.0276561
0.00555357
0.0280123
0.00546368
0.0283627
0.00536718
0.028707
0.00526379
0.0290447
0.00515324
0.0293755
0.00503523
0.029699
0.00490948
0.0300147
0.00477567
0.0303224
0.0046335
0.0306216
0.00448262
0.0309118
0.00432271
0.0311928
0.00415341
0.0314639
0.00397435
0.031725
0.00378513
0.0319754
0.00358536
0.0322149
0.00337461
0.032443
0.00315246
0.0326592
0.00291845
0.0328632
0.00267213
0.0330546
0.00241301
0.0332329
0.0021406
0.0333978
0.00185437
0.0335489
0.0015538
0.0336857
0.00123837
0.0338079
0.000907517
0.0339152
0.000560675
0.0340073
0.000197244
0.0340836
-0.000183199
0.0341439
-0.000580986
0.034188
-0.000997022
0.0342157
-0.00143201
0.0342267
-0.00188662
0.0342209
-0.00236151
0.0341981
-0.00285734
0.0341581
-0.00337485
0.0341011
-0.00391476
0.034027
-0.00447788
0.033936
-0.00506506
0.0338283
-0.0056772
0.0337041
-0.00631526
0.0335639
-0.00698033
0.0334081
-0.00767356
0.0332369
-0.00839624
0.0330507
-0.0091497
0.0328493
-0.00993532
0.0326322
-0.0107545
0.0323984
-0.0116084
0.0321457
-0.0124982
0.0318708
-0.0134244
0.0315691
-0.0143873
0.0312344
-0.0153865
0.0308593
-0.0164209
0.0304357
-0.0174891
0.029955
-0.0185895
0.029409
-0.0197207
0.0287907
-0.0208825
0.028095
-0.0220757
0.027318
-0.0233028
0.0264555
-0.0245643
0.0254946
-0.0258485
0.0244
-0.0271094
0.0230809
-0.0282267
0.0213404
-0.0288949
-0.0287461
0.0189247
0.0256741
0.00553056
-0.025291
0.0260535
0.00547278
0.0264287
0.00541082
0.0267995
0.0053437
0.0271655
0.00527107
0.0275264
0.00519267
0.0278819
0.00510827
0.0282314
0.00501761
0.0285748
0.00492043
0.0289116
0.00481646
0.0292414
0.00470543
0.0295638
0.00458705
0.0298785
0.00446101
0.030185
0.00432701
0.0304829
0.00418472
0.0307718
0.0040338
0.0310513
0.00387391
0.0313209
0.00370469
0.0315803
0.00352574
0.031829
0.00333667
0.0320666
0.00313705
0.0322926
0.00292646
0.0325066
0.00270443
0.0327082
0.0024705
0.032897
0.00222418
0.0330727
0.00196497
0.0332347
0.00169234
0.0333827
0.00140576
0.0335164
0.00110467
0.0336354
0.000788505
0.0337394
0.000456687
0.0338281
0.000108549
0.0339011
-0.000256143
0.0339581
-0.000638057
0.0339992
-0.00103805
0.034024
-0.00145685
0.0340326
-0.00189517
0.0340248
-0.00235373
0.0340007
-0.00283329
0.0339605
-0.00333462
0.0339043
-0.00385854
0.0338323
-0.00440591
0.0337449
-0.00497765
0.0336424
-0.00557466
0.033525
-0.00619792
0.0333931
-0.00684839
0.0332466
-0.00752709
0.0330854
-0.008235
0.0329088
-0.0089731
0.0327157
-0.00974221
0.0325042
-0.010543
0.0322717
-0.0113759
0.0320143
-0.0122408
0.0317272
-0.0131374
0.0314046
-0.0140648
0.0310398
-0.0150216
0.0306253
-0.0160064
0.0301536
-0.0170175
0.0296175
-0.0180534
0.0290107
-0.0191138
0.0283279
-0.0201997
0.0275654
-0.0213132
0.0267185
-0.0224559
0.0257776
-0.0236234
0.0247135
-0.0247844
0.0234567
-0.0258527
0.0218387
-0.0266087
0.0195638
-0.02662
-0.0255319
0.0163496
0.0255796
0.00514761
-0.0251966
0.0259587
0.00509363
0.0263337
0.00503583
0.0267042
0.0049732
0.0270699
0.00490539
0.0274304
0.00483216
0.0277854
0.00475328
0.0281345
0.00466851
0.0284773
0.0045776
0.0288135
0.00448029
0.0291426
0.0043763
0.0294643
0.00426536
0.0297782
0.00414717
0.0300838
0.00402142
0.0303807
0.0038878
0.0306685
0.00374598
0.0309468
0.0035956
0.0312152
0.00343631
0.0314732
0.00326774
0.0317204
0.00308948
0.0319563
0.00290112
0.0321806
0.00270221
0.0323927
0.00249229
0.0325923
0.00227088
0.032779
0.00203749
0.0329524
0.0017916
0.0331121
0.00153267
0.0332577
0.00126015
0.0333889
0.000973454
0.0335054
0.000672004
0.0336069
0.000355186
0.0336932
2.22836e-05
0.0337639
-0.000326861
0.033819
-0.000693185
0.0338585
-0.00107754
0.0338823
-0.0014807
0.0338906
-0.00190343
0.0338834
-0.00234653
0.0338609
-0.00281081
0.0338234
-0.00329708
0.033771
-0.0038062
0.0337041
-0.00433899
0.0336228
-0.00489632
0.0335271
-0.005479
0.033417
-0.00608784
0.0332922
-0.00672356
0.033152
-0.00738685
0.0329953
-0.00807829
0.0328205
-0.00879831
0.0326254
-0.0095471
0.032407
-0.0103246
0.0321616
-0.0111304
0.0318846
-0.0119638
0.0315708
-0.0128236
0.0312143
-0.0137083
0.0308088
-0.0146161
0.0303478
-0.0155455
0.029825
-0.0164947
0.0292348
-0.0174632
0.0285724
-0.0184514
0.0278338
-0.0194611
0.0270144
-0.0204938
0.0261042
-0.0215458
0.0250805
-0.0225998
0.0238814
-0.0235853
0.0223815
-0.0243527
0.0203112
-0.0245384
0.0173714
-0.0236802
-0.0217909
0.0136304
0.0255199
0.00476429
-0.0251366
0.0258994
0.00471414
0.0262747
0.00466052
0.0266455
0.00460241
0.0270114
0.00453946
0.0273721
0.00447143
0.0277273
0.00439813
0.0280765
0.0043193
0.0284194
0.0042347
0.0287556
0.0041441
0.0290847
0.00404721
0.0294063
0.00394378
0.0297199
0.00383351
0.0300253
0.00371609
0.0303218
0.00359122
0.0306092
0.00345857
0.030887
0.0033178
0.0311548
0.00316854
0.0314121
0.00301043
0.0316585
0.00284306
0.0318936
0.00266602
0.032117
0.00247886
0.0323282
0.00228112
0.0325268
0.00207229
0.0327124
0.00185188
0.0328846
0.00161934
0.0330432
0.00137411
0.0331877
0.00111562
0.0333179
0.000843247
0.0334335
0.000556372
0.0335344
0.000254342
0.0336202
-6.3542e-05
0.0336909
-0.000397589
0.0337466
-0.000748836
0.0337872
-0.00111814
0.0338128
-0.0015063
0.0338235
-0.00191412
0.0338193
-0.0023424
0.0338005
-0.00279195
0.033767
-0.00326358
0.0337188
-0.00375805
0.033656
-0.00427612
0.0335782
-0.0048185
0.033485
-0.00538584
0.0333758
-0.00597868
0.0332498
-0.00659749
0.0331055
-0.00724257
0.0329412
-0.00791406
0.0327548
-0.00861188
0.0325434
-0.0093357
0.0323037
-0.0100849
0.0320317
-0.0108585
0.0317231
-0.0116551
0.0313728
-0.0124733
0.0309757
-0.0133111
0.0305263
-0.0141667
0.0300193
-0.0150385
0.02945
-0.0159254
0.0288143
-0.0168275
0.0281089
-0.0177459
0.027329
-0.0186812
0.0264648
-0.0196296
0.0254923
-0.0205733
0.0243608
-0.0214682
0.0229522
-0.0221767
0.0210541
-0.0224547
0.0183197
-0.021804
0.0146258
-0.0199863
-0.0176297
0.0104646
0.0254995
0.00437986
-0.0251151
0.0258801
0.00433353
0.0262565
0.00428409
0.0266284
0.0042305
0.0269955
0.00417242
0.0273573
0.00410962
0.0277135
0.00404189
0.0280638
0.00396902
0.0284077
0.00389077
0.0287449
0.00380689
0.029075
0.00371713
0.0293976
0.00362122
0.0297122
0.00351888
0.0300185
0.00340982
0.030316
0.00329372
0.0306043
0.00317027
0.030883
0.00303911
0.0311516
0.00289989
0.0314098
0.00275224
0.0316571
0.00259576
0.0318931
0.00243003
0.0321174
0.0022546
0.0323295
0.00206899
0.0325291
0.0018727
0.0327158
0.0016652
0.0328892
0.00144594
0.033049
0.00121433
0.0331948
0.000969766
0.0333265
0.000711602
0.0334437
0.000439171
0.0335462
0.000151764
0.0336339
-0.000151214
0.0337067
-0.000470367
0.0337645
-0.000806648
0.0338072
-0.00116088
0.0338348
-0.00153386
0.0338471
-0.00192638
0.0338439
-0.00233925
0.0338252
-0.00277323
0.0337907
-0.00322907
0.0337401
-0.00370748
0.0336731
-0.00420911
0.0335891
-0.00473451
0.0334874
-0.00528413
0.033367
-0.0058583
0.0332267
-0.00645718
0.0330649
-0.00708076
0.0328797
-0.0077288
0.0326686
-0.00840083
0.032429
-0.00909609
0.0321576
-0.0098135
0.0318509
-0.0105517
0.0315047
-0.011309
0.031115
-0.0120836
0.0306773
-0.0128735
0.0301877
-0.0136771
0.0296424
-0.0144933
0.0290388
-0.0153218
0.0283743
-0.016163
0.0276449
-0.0170165
0.0268406
-0.017877
0.0259375
-0.0187265
0.0248822
-0.0195179
0.0235719
-0.0201579
0.0218094
-0.0204142
0.0192874
-0.0199326
0.0157711
-0.0182878
0.0115672
-0.0157824
-0.0135452
0.00748271
0.0255277
0.00399321
-0.025141
0.0259106
0.00395063
0.0262894
0.00390531
0.0266637
0.00385618
0.0270332
0.0038029
0.0273976
0.00374526
0.0277564
0.00368306
0.0281093
0.00361609
0.028456
0.0035441
0.028796
0.00346688
0.029129
0.00338417
0.0294545
0.00329571
0.0297721
0.00320123
0.0300815
0.00310044
0.0303822
0.00299304
0.0306737
0.00287871
0.0309557
0.00275711
0.0312277
0.00262789
0.0314893
0.00249067
0.03174
0.00234506
0.0319794
0.00219064
0.0322071
0.00202694
0.0324225
0.00185351
0.0326254
0.00166983
0.0328152
0.00147537
0.0329916
0.00126956
0.0331542
0.00105179
0.0333025
0.00082145
0.0334362
0.000577877
0.033555
0.000320379
0.0336586
4.82013e-05
0.0337465
-0.00023914
0.0338186
-0.000542489
0.0338747
-0.00086271
0.0339144
-0.0012006
0.0339375
-0.00155697
0.0339437
-0.00193262
0.0339328
-0.00232833
0.0339045
-0.00274486
0.0338583
-0.00318292
0.033794
-0.00364313
0.0337109
-0.00412605
0.0336085
-0.0046321
0.0334859
-0.00516155
0.0333421
-0.00571454
0.0331759
-0.00629098
0.0329858
-0.00689059
0.0327698
-0.00751283
0.0325258
-0.00815687
0.0322514
-0.00882163
0.0319436
-0.00950571
0.0315994
-0.0102075
0.0312156
-0.0109252
0.0307892
-0.0116571
0.0303175
-0.0124017
0.0297985
-0.0131581
0.0292311
-0.0139259
0.028614
-0.0147047
0.027944
-0.015493
0.0272111
-0.0162836
0.0263895
-0.0170554
0.0254245
-0.0177615
0.0242112
-0.0183046
0.0225672
-0.0185139
0.0202164
-0.0180635
0.0168716
-0.0165878
0.0127113
-0.0141275
0.00843549
-0.0115066
-0.0098766
0.00476692
0.0256225
0.00360229
-0.0252316
0.0260098
0.00356331
0.0263931
0.00352197
0.0267722
0.00347715
0.0271465
0.00342855
0.0275158
0.00337594
0.0278798
0.00331915
0.0282379
0.00325796
0.0285898
0.00319216
0.0289352
0.00312152
0.0292735
0.00304582
0.0296045
0.0029648
0.0299275
0.00287819
0.0302422
0.00278572
0.0305482
0.0026871
0.0308448
0.00258201
0.0311318
0.00247014
0.0314086
0.00235113
0.0316746
0.00222461
0.0319295
0.0020902
0.0321726
0.00194748
0.0324036