/*--------------------------------*- C++ -*----------------------------------*\
| =========                 |                                                 |
| \\      /  F ield         | OpenFOAM: The Open Source CFD Toolbox           |
|  \\    /   O peration     | Version:  2312                                  |
|   \\  /    A nd           | Website:  www.openfoam.com                      |
|    \\/     M anipulation  |                                                 |
\*---------------------------------------------------------------------------*/
FoamFile
{
    version     2.0;
    format      ascii;
    arch        "LSB;label=32;scalar=64";
    class       volVectorField;
    location    "2000";
    object      U;
}
// * * * * * * * * * * * * * * * * * * * * * * * * * * * * * * * * * * * * * //

dimensions      [0 1 -1 0 0 0 0];

internalField   nonuniform List<vector> 
76025
(
(0.995472 -0.193907 0)
(1.00025 -0.194941 1.40313e-20)
(1.00515 -0.195827 0)
(1.01019 -0.196638 0)
(1.01494 -0.197273 -2.4744e-20)
(1.02002 -0.19782 -4.65334e-20)
(1.02488 -0.198242 7.97788e-20)
(1.02981 -0.198497 -3.35676e-20)
(1.03477 -0.198679 -1.03928e-20)
(1.03981 -0.198756 9.89252e-21)
(1.04479 -0.198701 -1.79475e-23)
(1.04976 -0.19849 2.58146e-20)
(1.05477 -0.198206 -3.46577e-20)
(1.05979 -0.197723 0)
(1.06511 -0.197145 7.41099e-21)
(1.07019 -0.196504 0)
(1.07542 -0.195663 0)
(1.08052 -0.194788 0)
(1.08563 -0.193728 5.69827e-21)
(1.09063 -0.192705 -5.1079e-21)
(1.0957 -0.191429 -4.65494e-21)
(1.10094 -0.190029 -1.25034e-20)
(1.10616 -0.188525 8.16833e-21)
(1.1114 -0.186929 9.72333e-21)
(1.11664 -0.185268 -8.79008e-22)
(1.12174 -0.1836 1.5883e-21)
(1.12703 -0.181627 -6.28796e-21)
(1.13209 -0.179666 5.6796e-21)
(1.13708 -0.177582 -1.40861e-21)
(1.142 -0.17529 1.0303e-21)
(1.1468 -0.173149 5.66623e-22)
(1.15147 -0.170998 2.93302e-22)
(1.15622 -0.168421 -8.69637e-22)
(1.16081 -0.16608 -7.74102e-22)
(1.16524 -0.163523 3.05811e-21)
(1.16948 -0.161198 2.25108e-22)
(1.17361 -0.158775 -9.25656e-22)
(1.17775 -0.155933 5.83318e-22)
(1.18183 -0.153316 3.26796e-23)
(1.1858 -0.150607 -1.10119e-21)
(1.1896 -0.148107 7.42103e-22)
(1.19334 -0.145559 -4.1655e-22)
(1.19714 -0.142659 8.84974e-22)
(1.20094 -0.140052 -1.92755e-21)
(1.20471 -0.137408 -2.11281e-21)
(1.2085 -0.135038 4.22697e-21)
(1.21244 -0.132481 4.6285e-21)
(1.21659 -0.130126 -1.4111e-20)
(1.22087 -0.127869 9.86513e-21)
(1.22533 -0.125748 3.50351e-22)
(1.23004 -0.123721 -2.62832e-20)
(1.23504 -0.121707 -1.1054e-20)
(1.24039 -0.119691 1.11309e-20)
(1.2461 -0.117699 0)
(1.25227 -0.115773 -1.23826e-20)
(1.25885 -0.11416 -1.23915e-20)
(1.26595 -0.112431 1.25708e-22)
(1.27368 -0.110824 -1.33705e-20)
(1.28198 -0.109304 1.48961e-20)
(1.29086 -0.10765 -4.55374e-20)
(1.30052 -0.105662 -3.07437e-20)
(1.31171 -0.103942 1.77933e-21)
(1.32408 -0.101985 0)
(1.33771 -0.0997346 9.5521e-20)
(1.35326 -0.0968505 -4.25242e-20)
(1.37098 -0.0941288 2.08521e-20)
(1.3906 -0.0903441 -4.79764e-20)
(1.41349 -0.084101 5.02753e-20)
(1.44154 -0.0786271 1.11893e-19)
(0.994184 -0.202643 1.50784e-20)
(0.999265 -0.203705 4.25295e-20)
(1.0044 -0.204615 -5.66074e-20)
(1.00959 -0.205365 0)
(1.01477 -0.206032 6.29909e-20)
(1.02002 -0.206524 -1.96117e-21)
(1.02528 -0.206916 -4.78561e-20)
(1.0305 -0.207161 0)
(1.03574 -0.207264 -4.69742e-23)
(1.04099 -0.207249 -1.01251e-20)
(1.04628 -0.207109 9.60913e-21)
(1.05156 -0.206829 1.97458e-23)
(1.05681 -0.206426 0)
(1.06203 -0.205896 0)
(1.06729 -0.20518 1.4127e-20)
(1.07255 -0.204402 -3.62596e-20)
(1.07783 -0.203439 -6.52527e-21)
(1.08308 -0.202402 1.77307e-20)
(1.08832 -0.201186 -1.17057e-20)
(1.09351 -0.199903 5.21737e-21)
(1.09869 -0.198473 -4.11728e-21)
(1.10383 -0.196918 8.8984e-21)
(1.10894 -0.195249 -7.04832e-21)
(1.11404 -0.19347 9.81968e-21)
(1.11912 -0.19158 -6.17105e-21)
(1.12418 -0.189622 -6.88341e-21)
(1.12919 -0.187524 4.3914e-21)
(1.13413 -0.185369 0)
(1.139 -0.183124 0)
(1.14378 -0.180786 5.74705e-22)
(1.14851 -0.178349 0)
(1.15321 -0.175849 -2.80097e-22)
(1.1578 -0.173284 7.95495e-22)
(1.16228 -0.170702 -1.36642e-21)
(1.16667 -0.168098 1.04461e-22)
(1.17101 -0.16542 -8.48759e-22)
(1.17527 -0.16268 0)
(1.17943 -0.159908 -2.55843e-21)
(1.18352 -0.157154 2.09554e-21)
(1.18757 -0.154446 -1.85474e-21)
(1.19157 -0.151748 1.22057e-21)
(1.19554 -0.149043 -3.96569e-24)
(1.19949 -0.146372 5.18375e-22)
(1.20346 -0.143803 -4.8244e-22)
(1.20749 -0.141284 4.27342e-21)
(1.2116 -0.138816 -2.20092e-21)
(1.21581 -0.136379 -2.34583e-21)
(1.22015 -0.134068 4.77915e-21)
(1.22464 -0.131852 1.49075e-20)
(1.22929 -0.129718 1.62768e-22)
(1.23415 -0.127667 1.58281e-20)
(1.23923 -0.125694 -5.55707e-21)
(1.24461 -0.123813 -1.73563e-20)
(1.25035 -0.122059 1.12918e-20)
(1.25648 -0.120418 0)
(1.26309 -0.118894 3.73715e-20)
(1.27021 -0.11744 7.05458e-22)
(1.27795 -0.116141 -1.298e-20)
(1.28633 -0.114951 -1.34865e-20)
(1.29548 -0.113781 0)
(1.30562 -0.112497 1.54694e-20)
(1.317 -0.111131 4.85754e-20)
(1.32979 -0.109798 0)
(1.34418 -0.108292 -3.73409e-20)
(1.36059 -0.106415 1.83931e-20)
(1.37951 -0.104215 -4.2317e-20)
(1.40108 -0.10134 2.17386e-20)
(1.4257 -0.0971172 -5.08892e-20)
(1.45418 -0.09402 -5.58219e-20)
(0.992644 -0.212041 -7.60328e-20)
(0.998025 -0.213122 4.57583e-20)
(1.00346 -0.214047 -1.4434e-20)
(1.0089 -0.214799 5.39377e-20)
(1.01438 -0.215419 -6.69068e-20)
(1.01988 -0.215898 -4.92899e-20)
(1.02541 -0.216243 6.11314e-20)
(1.03096 -0.216444 0)
(1.03652 -0.216501 -4.78418e-23)
(1.04207 -0.216417 0)
(1.04762 -0.216194 -9.74884e-21)
(1.05317 -0.215829 9.20662e-21)
(1.05869 -0.21532 4.22703e-20)
(1.06419 -0.214675 -3.35788e-20)
(1.06966 -0.213883 7.63467e-21)
(1.07512 -0.212955 2.07826e-20)
(1.08055 -0.211887 -7.04037e-21)
(1.08597 -0.210681 -6.11484e-21)
(1.09136 -0.209341 -1.6087e-20)
(1.09672 -0.207861 1.06305e-20)
(1.10204 -0.206258 4.46701e-21)
(1.10731 -0.204533 -7.7032e-21)
(1.11252 -0.202688 4.22607e-21)
(1.11768 -0.20073 3.02315e-21)
(1.1228 -0.198664 0)
(1.12785 -0.196498 -2.09563e-21)
(1.13282 -0.194244 -1.47463e-21)
(1.13773 -0.191896 1.93877e-21)
(1.14258 -0.189455 0)
(1.14736 -0.186937 -8.99735e-22)
(1.15207 -0.18433 -1.1466e-22)
(1.15672 -0.181675 -2.61431e-22)
(1.16127 -0.178988 0)
(1.16575 -0.176257 5.68249e-22)
(1.17016 -0.173485 -2.63237e-21)
(1.1745 -0.170655 1.82952e-21)
(1.17877 -0.167813 0)
(1.18297 -0.164961 2.06324e-21)
(1.18711 -0.162103 -2.1593e-21)
(1.19123 -0.159269 -3.9326e-22)
(1.1953 -0.156459 0)
(1.19934 -0.15369 -9.22873e-22)
(1.20338 -0.150963 -5.02635e-22)
(1.20745 -0.148285 5.15836e-22)
(1.21156 -0.145671 -3.16445e-21)
(1.21573 -0.14314 -2.22825e-21)
(1.21997 -0.140705 4.61415e-21)
(1.22432 -0.13838 -4.86793e-21)
(1.22881 -0.136172 4.86646e-21)
(1.23345 -0.134084 -4.93681e-21)
(1.23828 -0.132122 -5.2478e-21)
(1.24335 -0.130286 1.04629e-20)
(1.24871 -0.128578 0)
(1.25442 -0.127008 1.09631e-20)
(1.26054 -0.125578 -5.57872e-22)
(1.26714 -0.124309 -1.2114e-20)
(1.27429 -0.123198 -1.25826e-20)
(1.28208 -0.122244 2.54255e-20)
(1.2906 -0.121416 7.82032e-22)
(1.29999 -0.120668 1.32271e-20)
(1.31046 -0.119949 -2.76536e-20)
(1.32227 -0.119294 -1.33262e-20)
(1.33568 -0.118663 1.33779e-21)
(1.35097 -0.117936 -1.64083e-20)
(1.36853 -0.116982 -1.85823e-20)
(1.3888 -0.115699 -5.73236e-20)
(1.41197 -0.113834 0)
(1.43816 -0.110772 -2.56533e-20)
(1.46741 -0.108397 2.46852e-20)
(0.990834 -0.222021 0)
(0.996565 -0.223102 1.52867e-20)
(1.00235 -0.224022 7.25496e-20)
(1.00812 -0.224767 -5.75803e-20)
(1.01391 -0.225358 -3.94581e-20)
(1.01972 -0.225803 6.55494e-20)
(1.02555 -0.226099 -1.22235e-20)
(1.0314 -0.226244 1.16688e-20)
(1.03725 -0.226236 1.10402e-20)
(1.04311 -0.226077 4.07413e-20)
(1.04896 -0.225766 -4.05826e-20)
(1.05479 -0.225303 -3.60816e-20)
(1.0606 -0.224686 1.03528e-20)
(1.0664 -0.223916 3.26429e-20)
(1.07216 -0.222994 -2.32701e-20)
(1.07788 -0.221922 6.95784e-21)
(1.08357 -0.220704 -6.40474e-21)
(1.08921 -0.219338 -5.86053e-21)
(1.0948 -0.217832 1.59018e-20)
(1.10035 -0.216184 -5.57777e-21)
(1.10584 -0.214402 -4.52042e-21)
(1.11128 -0.212488 0)
(1.11665 -0.210446 -6.0804e-21)
(1.12196 -0.208286 3.30737e-21)
(1.12719 -0.206015 4.43511e-21)
(1.13235 -0.203639 2.99427e-21)
(1.13742 -0.201163 -6.5439e-21)
(1.14241 -0.19859 2.11289e-21)
(1.14732 -0.195929 0)
(1.15215 -0.193191 3.30936e-22)
(1.15689 -0.190385 -3.58849e-22)
(1.16155 -0.187526 1.02905e-21)
(1.16612 -0.184622 -1.33136e-21)
(1.17062 -0.181681 3.9592e-21)
(1.17504 -0.1787 -6.98188e-22)
(1.17938 -0.175686 0)
(1.18365 -0.172665 0)
(1.18784 -0.169646 7.57677e-22)
(1.19198 -0.166642 7.68955e-22)
(1.19607 -0.163672 4.39135e-22)
(1.20012 -0.160749 -1.45432e-23)
(1.20415 -0.157879 4.72227e-22)
(1.20816 -0.155069 0)
(1.21219 -0.152334 -2.11614e-23)
(1.21625 -0.149694 0)
(1.22035 -0.147158 2.29105e-21)
(1.22453 -0.144732 9.90491e-23)
(1.22881 -0.142427 -7.07947e-21)
(1.23321 -0.140258 0)
(1.23778 -0.138231 -5.08056e-21)
(1.24253 -0.136353 5.00521e-21)
(1.24753 -0.134632 -1.0565e-20)
(1.25283 -0.133078 0)
(1.25848 -0.131704 -3.26526e-20)
(1.26456 -0.130522 -4.89851e-22)
(1.27113 -0.129541 1.1038e-20)
(1.27829 -0.128756 1.13716e-20)
(1.28613 -0.128171 0)
(1.29478 -0.127775 0)
(1.30441 -0.127556 -1.33259e-20)
(1.31524 -0.127481 2.78445e-20)
(1.32756 -0.127536 2.92749e-20)
(1.34166 -0.127684 0)
(1.35791 -0.127846 -3.01332e-20)
(1.3767 -0.127889 0)
(1.39834 -0.127635 5.81606e-20)
(1.4229 -0.126889 -1.9207e-20)
(1.45027 -0.125036 -2.4217e-20)
(1.47971 -0.123897 -2.48518e-20)
(0.98908 -0.232603 0)
(0.995103 -0.233658 0)
(1.0012 -0.234548 1.52176e-20)
(1.00731 -0.235256 -5.66971e-20)
(1.01344 -0.235803 7.02387e-20)
(1.01959 -0.236197 -1.31073e-20)
(1.02574 -0.236433 0)
(1.03191 -0.23651 -1.18355e-20)
(1.03808 -0.236424 0)
(1.04425 -0.236174 -2.05565e-20)
(1.0504 -0.235761 1.26153e-21)
(1.05654 -0.235183 1.92542e-20)
(1.06266 -0.234443 0)
(1.06875 -0.23354 -1.56757e-20)
(1.0748 -0.232475 4.52016e-20)
(1.08081 -0.23125 -2.80307e-20)
(1.08677 -0.229868 3.20288e-20)
(1.09268 -0.228332 -6.27559e-21)
(1.09852 -0.226643 5.12951e-21)
(1.1043 -0.224809 -4.85331e-21)
(1.11 -0.222831 -3.82852e-21)
(1.11563 -0.220716 1.13952e-20)
(1.12119 -0.218468 6.30269e-21)
(1.12666 -0.216095 0)
(1.13204 -0.213604 -3.85168e-21)
(1.13733 -0.211004 -8.73256e-22)
(1.14253 -0.208302 4.28433e-21)
(1.14763 -0.205506 -9.1169e-22)
(1.15263 -0.202627 1.40364e-22)
(1.15753 -0.199673 -1.5031e-22)
(1.16232 -0.196656 -7.85245e-22)
(1.16703 -0.193587 6.09294e-22)
(1.17163 -0.190478 0)
(1.17613 -0.187348 -8.64692e-22)
(1.18055 -0.184179 -1.05775e-21)
(1.18488 -0.180989 0)
(1.18912 -0.177799 1.52357e-21)
(1.19329 -0.174623 -2.41825e-21)
(1.19739 -0.171476 1.63169e-21)
(1.20143 -0.16837 -9.10008e-22)
(1.20543 -0.165319 -1.60705e-23)
(1.20939 -0.162333 -7.70065e-22)
(1.21333 -0.159425 2.54005e-22)
(1.21728 -0.156609 1.06991e-21)
(1.22125 -0.153899 -2.63855e-23)
(1.22526 -0.151308 6.81625e-21)
(1.22933 -0.148848 0)
(1.2335 -0.146534 4.7878e-21)
(1.23779 -0.144382 1.07738e-22)
(1.24224 -0.142402 -4.85369e-21)
(1.24689 -0.140608 0)
(1.25179 -0.139009 -5.13107e-21)
(1.257 -0.13762 5.05219e-21)
(1.26258 -0.136453 1.06444e-20)
(1.2686 -0.135518 0)
(1.27515 -0.134826 -2.19254e-20)
(1.2823 -0.134384 2.17957e-20)
(1.2902 -0.134205 -2.22777e-20)
(1.29899 -0.13429 3.20399e-22)
(1.30889 -0.134638 0)
(1.32014 -0.13523 -1.2626e-20)
(1.33304 -0.136055 1.36186e-20)
(1.34795 -0.13707 1.23147e-20)
(1.36525 -0.138198 3.0234e-20)
(1.38525 -0.139298 -4.54436e-20)
(1.40811 -0.140162 3.39354e-20)
(1.43364 -0.140619 -1.75325e-20)
(1.46151 -0.139977 1.69471e-20)
(1.49025 -0.140334 6.96284e-20)
(0.987612 -0.243891 -6.61732e-20)
(0.993871 -0.244912 2.59586e-21)
(1.00023 -0.245757 6.34429e-20)
(1.00663 -0.246409 0)
(1.01306 -0.246892 -1.40312e-20)
(1.01952 -0.247214 0)
(1.02601 -0.247372 2.47126e-20)
(1.0325 -0.247362 -1.2672e-21)
(1.039 -0.247181 -3.45021e-20)
(1.04549 -0.246825 1.05742e-20)
(1.05197 -0.246295 1.00179e-20)
(1.05842 -0.245591 9.22939e-21)
(1.06485 -0.244712 0)
(1.07125 -0.243661 0)
(1.07759 -0.242438 -7.5179e-21)
(1.08389 -0.241045 -6.91822e-21)
(1.09013 -0.239485 1.18373e-20)
(1.09631 -0.237761 -1.18335e-20)
(1.10241 -0.235877 -1.00641e-20)
(1.10844 -0.233837 8.41127e-21)
(1.11438 -0.231647 -1.60767e-20)
(1.12023 -0.229313 7.29693e-22)
(1.12598 -0.226842 5.89075e-21)
(1.13164 -0.22424 2.13525e-21)
(1.13719 -0.221516 3.16939e-21)
(1.14263 -0.218679 -3.18202e-21)
(1.14797 -0.215738 -1.23551e-21)
(1.15318 -0.212702 1.24207e-21)
(1.15828 -0.209583 0)
(1.16327 -0.20639 0)
(1.16814 -0.203137 2.58054e-21)
(1.17289 -0.199835 6.19981e-22)
(1.17753 -0.196497 -1.63356e-21)
(1.18204 -0.193146 -2.45419e-21)
(1.18646 -0.189753 2.42796e-21)
(1.19078 -0.186349 0)
(1.195 -0.182952 -1.53173e-21)
(1.19913 -0.179581 -2.70407e-21)
(1.20317 -0.17625 1.77297e-21)
(1.20715 -0.172974 -3.02734e-23)
(1.21106 -0.169767 -1.64146e-22)
(1.21493 -0.166644 7.72137e-22)
(1.21878 -0.163619 5.53669e-22)
(1.22261 -0.160706 1.13717e-21)
(1.22646 -0.157921 -5.70638e-21)
(1.23034 -0.15528 -2.69251e-23)
(1.23428 -0.152797 0)
(1.23831 -0.150487 -4.76854e-21)
(1.24247 -0.148366 1.45314e-20)
(1.2468 -0.146448 -9.61275e-21)
(1.25134 -0.144747 -4.93555e-21)
(1.25613 -0.143277 5.06078e-23)
(1.26125 -0.142055 -5.14733e-21)
(1.26674 -0.141093 -2.00683e-22)
(1.2727 -0.14041 9.82858e-21)
(1.27919 -0.140021 -9.5736e-21)
(1.28636 -0.139947 -1.02263e-20)
(1.29433 -0.140206 2.04133e-20)
(1.30331 -0.140813 7.37946e-22)
(1.31353 -0.141774 1.08438e-20)
(1.32526 -0.143087 -1.06165e-20)
(1.33884 -0.14474 1.2049e-20)
(1.35466 -0.146689 -2.53789e-20)
(1.37299 -0.14885 -1.329e-20)
(1.39403 -0.151071 2.76182e-20)
(1.41766 -0.153134 -1.34236e-20)
(1.44348 -0.154899 -4.86647e-20)
(1.47097 -0.155611 -2.19918e-20)
(1.49824 -0.157578 0)
(0.986431 -0.255932 0)
(0.992955 -0.256922 -1.66952e-20)
(0.999581 -0.257719 1.05258e-22)
(1.00624 -0.258309 0)
(1.01295 -0.258717 0)
(1.01971 -0.258953 -1.35459e-20)
(1.02649 -0.259013 3.7741e-20)
(1.0333 -0.258896 -4.8329e-20)
(1.04011 -0.258597 2.34983e-20)
(1.04693 -0.258114 -1.07024e-20)
(1.05372 -0.257446 0)
(1.0605 -0.256594 -9.33961e-21)
(1.06724 -0.255556 8.44754e-21)
(1.07394 -0.254335 0)
(1.08059 -0.252932 0)
(1.08718 -0.251349 -6.16471e-21)
(1.09371 -0.249589 1.2351e-21)
(1.10016 -0.247655 1.13554e-20)
(1.10654 -0.245552 9.3148e-21)
(1.11282 -0.243285 -8.94897e-21)
(1.119 -0.240861 -3.78411e-21)
(1.12508 -0.238285 -1.15649e-20)
(1.13105 -0.235565 5.95905e-22)
(1.1369 -0.232709 1.22892e-21)
(1.14264 -0.229727 -3.39612e-21)
(1.14825 -0.226628 6.795e-22)
(1.15372 -0.223422 -1.36174e-21)
(1.15907 -0.22012 0)
(1.16428 -0.216734 0)
(1.16936 -0.213276 0)
(1.1743 -0.209759 -6.03789e-22)
(1.1791 -0.206198 -1.8281e-21)
(1.18377 -0.202606 2.07691e-21)
(1.1883 -0.199005 2.87868e-21)
(1.19272 -0.195367 -2.84039e-21)
(1.19702 -0.191729 0)
(1.2012 -0.188114 1.85488e-21)
(1.20527 -0.184536 -9.18858e-22)
(1.20925 -0.181014 0)
(1.21314 -0.177562 1.04242e-21)
(1.21696 -0.174196 -2.03064e-22)
(1.22072 -0.170931 1.35576e-22)
(1.22445 -0.167783 -5.57205e-22)
(1.22815 -0.164769 0)
(1.23187 -0.161905 -2.37511e-21)
(1.23562 -0.159207 2.34134e-21)
(1.23942 -0.156693 0)
(1.24332 -0.154378 -2.72324e-23)
(1.24735 -0.152279 -6.80607e-23)
(1.25155 -0.150413 4.84138e-21)
(1.25596 -0.148798 0)
(1.26064 -0.14745 1.95948e-22)
(1.26564 -0.146388 -4.83615e-21)
(1.27104 -0.145632 -1.39256e-20)
(1.27691 -0.145206 3.2739e-22)
(1.28338 -0.145134 9.64195e-21)
(1.29057 -0.145447 0)
(1.29868 -0.146172 0)
(1.30791 -0.147333 8.52155e-21)
(1.31852 -0.148947 0)
(1.33084 -0.151024 0)
(1.3452 -0.15355 1.24959e-21)
(1.36189 -0.156483 -9.75754e-21)
(1.38105 -0.159714 -2.0764e-20)
(1.40263 -0.163107 2.12427e-20)
(1.42631 -0.166443 4.8952e-21)
(1.4515 -0.16964 1.53733e-20)
(1.47767 -0.171858 1.49297e-20)
(1.50253 -0.17569 0)
(0.985384 -0.26875 0)
(0.992256 -0.269716 1.69034e-20)
(0.999215 -0.270469 -4.75868e-20)
(1.00619 -0.270996 1.6021e-20)
(1.01321 -0.271325 0)
(1.02027 -0.271466 4.03817e-20)
(1.02736 -0.271417 -6.45723e-20)
(1.03447 -0.271176 1.43576e-21)
(1.0416 -0.27074 5.6876e-20)
(1.04872 -0.270109 -1.14326e-20)
(1.05583 -0.26928 9.73121e-21)
(1.06292 -0.268256 8.98501e-21)
(1.06997 -0.267035 -2.46952e-20)
(1.07699 -0.265619 3.08652e-20)
(1.08394 -0.264011 -1.4723e-20)
(1.09083 -0.262212 5.53064e-21)
(1.09765 -0.260225 -2.2767e-20)
(1.10438 -0.258056 5.91666e-21)
(1.11102 -0.255709 -3.59907e-21)
(1.11756 -0.253188 4.7635e-21)
(1.12399 -0.250501 1.18917e-21)
(1.1303 -0.247656 1.56592e-20)
(1.13649 -0.24466 1.14858e-21)
(1.14254 -0.241523 -1.09538e-21)
(1.14846 -0.238254 -3.13252e-21)
(1.15423 -0.234865 6.82265e-22)
(1.15986 -0.231367 6.1637e-22)
(1.16533 -0.227772 -1.46445e-21)
(1.17065 -0.224093 0)
(1.17582 -0.220345 -1.70193e-21)
(1.18083 -0.216541 1.71385e-21)
(1.18568 -0.212697 2.62436e-22)
(1.19038 -0.208828 -1.52894e-21)
(1.19492 -0.204953 -1.72214e-21)
(1.19933 -0.201052 5.50345e-21)
(1.2036 -0.197162 -3.58623e-21)
(1.20773 -0.193307 3.09806e-21)
(1.21174 -0.189503 -4.1609e-21)
(1.21564 -0.185769 2.1104e-21)
(1.21944 -0.182122 -5.40908e-22)
(1.22316 -0.178577 0)
(1.22681 -0.175154 5.94024e-22)
(1.23041 -0.171868 -5.85836e-22)
(1.234 -0.168738 -1.21389e-21)
(1.23758 -0.165782 3.6357e-21)
(1.24119 -0.163018 -2.4145e-21)
(1.24486 -0.160463 -2.40555e-21)
(1.24862 -0.158134 0)
(1.25251 -0.156052 -9.54806e-21)
(1.25656 -0.154233 9.44218e-21)
(1.26083 -0.152698 -4.72122e-21)
(1.26538 -0.151468 4.68743e-21)
(1.27025 -0.150566 4.3883e-21)
(1.27555 -0.150018 8.9681e-21)
(1.28137 -0.149857 8.98053e-21)
(1.28784 -0.150115 0)
(1.29513 -0.150833 -7.70822e-21)
(1.30344 -0.152045 0)
(1.31303 -0.153789 -6.13936e-22)
(1.32416 -0.156088 -8.63325e-21)
(1.33714 -0.15896 7.71001e-21)
(1.35222 -0.162381 8.7625e-21)
(1.36953 -0.166308 -6.95325e-21)
(1.38898 -0.170618 6.61145e-22)
(1.41033 -0.175221 -1.63111e-21)
(1.43309 -0.179905 3.11576e-20)
(1.45666 -0.184661 9.75233e-21)
(1.48058 -0.188587 1.46039e-20)
(1.50228 -0.194458 -1.40516e-20)
(0.984346 -0.282388 0)
(0.991638 -0.283328 0)
(0.999002 -0.284037 -3.18977e-20)
(1.00637 -0.284502 4.71705e-20)
(1.01376 -0.28475 1.45648e-20)
(1.02118 -0.284793 0)
(1.02862 -0.28463 0)
(1.03608 -0.284258 -1.1995e-20)
(1.04354 -0.283675 2.18311e-20)
(1.05099 -0.28288 -1.76508e-21)
(1.05843 -0.281875 -4.86744e-20)
(1.06584 -0.280658 9.53214e-21)
(1.07321 -0.279233 -7.66266e-21)
(1.08053 -0.277599 1.55982e-20)
(1.0878 -0.27576 -6.47786e-21)
(1.09499 -0.273718 0)
(1.1021 -0.271478 0)
(1.10911 -0.269044 6.06818e-22)
(1.11602 -0.266421 1.22979e-20)
(1.12282 -0.263616 -3.57941e-21)
(1.1295 -0.260637 2.40659e-21)
(1.13604 -0.257491 -2.36755e-21)
(1.14244 -0.254188 -1.26921e-21)
(1.14869 -0.250739 1.84806e-21)
(1.15479 -0.247153 6.79781e-22)
(1.16073 -0.243443 0)
(1.1665 -0.239621 0)
(1.1721 -0.235702 1.58646e-21)
(1.17752 -0.2317 0)
(1.18277 -0.22763 2.28311e-21)
(1.18785 -0.223507 -2.29834e-21)
(1.19274 -0.21935 -1.33116e-21)
(1.19747 -0.215176 1.53855e-21)
(1.20201 -0.210995 3.73549e-21)
(1.20641 -0.206805 -1.87128e-21)
(1.21064 -0.202639 -2.17846e-21)
(1.21472 -0.198521 2.26636e-21)
(1.21867 -0.19447 0)
(1.22248 -0.190504 0)
(1.22619 -0.186643 6.28007e-22)
(1.2298 -0.182904 0)
(1.23334 -0.179307 0)
(1.23682 -0.17587 -1.90313e-21)
(1.24027 -0.172613 2.52519e-21)
(1.24371 -0.169553 -1.27349e-21)
(1.24718 -0.166709 2.46197e-21)
(1.25069 -0.164101 0)
(1.25429 -0.161747 7.28263e-21)
(1.25802 -0.159669 9.06638e-24)
(1.26191 -0.157887 0)
(1.26603 -0.156425 -9.10189e-21)
(1.27043 -0.155306 5.07771e-23)
(1.2752 -0.154563 -8.70372e-21)
(1.28043 -0.154226 -3.96585e-21)
(1.28625 -0.154337 -7.8067e-21)
(1.29281 -0.154936 7.66609e-21)
(1.30031 -0.156072 7.73266e-21)
(1.30896 -0.157789 0)
(1.31902 -0.160131 -6.47137e-21)
(1.33073 -0.163123 -6.9994e-22)
(1.34429 -0.166782 0)
(1.35977 -0.171071 0)
(1.3771 -0.175961 6.95475e-21)
(1.396 -0.181337 0)
(1.41612 -0.187177 0)
(1.43698 -0.193271 -6.19368e-21)
(1.45804 -0.199698 -1.09501e-20)
(1.47888 -0.205473 -7.50764e-21)
(1.49636 -0.213129 0)
(0.983276 -0.296908 0)
(0.991025 -0.297816 0)
(0.998849 -0.298477 0)
(1.00667 -0.298874 1.55224e-20)
(1.0145 -0.299037 1.38055e-20)
(1.02235 -0.298979 -1.63847e-21)
(1.0302 -0.298696 -2.6584e-20)
(1.03806 -0.298186 1.21125e-20)
(1.04591 -0.297448 -1.09701e-20)
(1.05374 -0.29648 -2.05406e-20)
(1.06154 -0.295283 0)
(1.06931 -0.293859 0)
(1.07702 -0.29221 -7.09034e-22)
(1.08468 -0.290337 -2.16936e-20)
(1.09227 -0.288244 2.44265e-20)
(1.09977 -0.285935 -1.45044e-21)
(1.10719 -0.283413 -1.03844e-20)
(1.11449 -0.280686 -4.39339e-21)
(1.12168 -0.277758 -6.12352e-22)
(1.12875 -0.274637 0)
(1.13567 -0.271332 -4.19719e-21)
(1.14245 -0.267852 0)
(1.14907 -0.264207 -1.73807e-21)
(1.15553 -0.260409 7.01848e-22)
(1.16181 -0.256471 5.53623e-22)
(1.16791 -0.252405 1.16717e-21)
(1.17382 -0.248226 -2.39376e-21)
(1.17954 -0.243948 2.85373e-21)
(1.18507 -0.239588 -2.04616e-21)
(1.1904 -0.235163 0)
(1.19553 -0.230689 -3.36861e-21)
(1.20047 -0.226186 -2.35807e-21)
(1.20521 -0.221675 3.80296e-21)
(1.20976 -0.217159 -4.34206e-21)
(1.21413 -0.212649 2.34867e-21)
(1.21833 -0.208179 -2.31743e-21)
(1.22235 -0.203771 -1.17128e-21)
(1.22622 -0.199447 1.33083e-21)
(1.22994 -0.195227 6.31627e-22)
(1.23354 -0.19113 -1.91846e-21)
(1.23703 -0.187176 -1.70878e-22)
(1.24043 -0.183385 0)
(1.24377 -0.179777 6.43776e-22)
(1.24706 -0.176371 -1.28518e-21)
(1.25034 -0.173188 1.27727e-21)
(1.25363 -0.170247 0)
(1.25697 -0.16757 0)
(1.2604 -0.165177 2.42904e-21)
(1.26395 -0.163091 -4.8034e-21)
(1.26769 -0.161337 -9.15915e-21)
(1.27167 -0.159941 1.77746e-20)
(1.27597 -0.158934 -4.15799e-21)
(1.28069 -0.158351 4.11762e-21)
(1.28595 -0.158232 3.97576e-21)
(1.29189 -0.158622 -7.00088e-21)
(1.29868 -0.159571 6.87266e-21)
(1.30653 -0.161132 0)
(1.31563 -0.163352 -5.02714e-21)
(1.32618 -0.166274 -5.30397e-22)
(1.3383 -0.16992 4.81827e-21)
(1.35204 -0.174301 0)
(1.36725 -0.179389 0)
(1.38371 -0.185178 0)
(1.40106 -0.191595 5.25673e-21)
(1.41898 -0.198689 2.05233e-21)
(1.43715 -0.206249 5.98706e-21)
(1.45508 -0.214421 -1.03078e-20)
(1.47235 -0.221829 4.32241e-21)
(1.48384 -0.231298 4.84961e-21)
(0.98222 -0.312404 0)
(0.99045 -0.313273 3.43485e-20)
(0.998759 -0.313874 -4.23928e-20)
(1.00706 -0.314193 2.24474e-20)
(1.01538 -0.314262 -4.47056e-20)
(1.0237 -0.31409 -1.35479e-20)
(1.03202 -0.313676 -1.25787e-20)
(1.04034 -0.313017 0)
(1.04863 -0.312111 2.17547e-20)
(1.05689 -0.310957 1.95974e-20)
(1.06511 -0.309555 -1.90938e-20)
(1.07328 -0.307907 7.98429e-21)
(1.08139 -0.306015 -6.38065e-21)
(1.08943 -0.303883 8.44641e-21)
(1.09738 -0.301513 2.26003e-20)
(1.10523 -0.298911 -1.52168e-21)
(1.11297 -0.296082 -1.48489e-21)
(1.1206 -0.293032 -7.76909e-21)
(1.12809 -0.289768 -3.12761e-21)
(1.13544 -0.2863 -3.55007e-21)
(1.14263 -0.282636 4.3071e-21)
(1.14965 -0.278787 0)
(1.1565 -0.274765 7.85667e-22)
(1.16317 -0.270581 0)
(1.16964 -0.266252 -6.2773e-22)
(1.1759 -0.261791 -1.17295e-21)
(1.18196 -0.257214 8.47479e-22)
(1.18781 -0.252538 0)
(1.19343 -0.247782 1.73616e-21)
(1.19884 -0.242962 3.69118e-21)
(1.20403 -0.2381 -3.7132e-21)
(1.209 -0.233215 1.98226e-21)
(1.21374 -0.228331 -4.85964e-21)
(1.21828 -0.223444 9.71666e-21)
(1.22262 -0.21858 -2.52894e-21)
(1.22676 -0.213771 0)
(1.2307 -0.209041 -1.45189e-21)
(1.23447 -0.204413 1.38754e-22)
(1.23808 -0.199908 2.09559e-21)
(1.24155 -0.195547 -1.75874e-21)
(1.2449 -0.191352 3.38371e-22)
(1.24814 -0.187343 -1.07143e-21)
(1.25131 -0.183543 6.96964e-22)
(1.25443 -0.179971 0)
(1.25753 -0.176649 0)
(1.26064 -0.173597 0)
(1.2638 -0.17084 2.61066e-21)
(1.26706 -0.168398 2.51391e-21)
(1.27047 -0.166299 0)
(1.27409 -0.16457 4.67673e-21)
(1.278 -0.163242 4.35341e-21)
(1.2823 -0.162351 4.04111e-21)
(1.2871 -0.161935 0)
(1.29253 -0.162039 0)
(1.29874 -0.162712 -6.20186e-21)
(1.30591 -0.164005 6.08592e-21)
(1.31418 -0.165969 0)
(1.32368 -0.168648 5.01607e-21)
(1.33448 -0.172077 -4.38134e-21)
(1.34653 -0.176276 -2.0708e-21)
(1.3597 -0.181263 1.87603e-21)
(1.37371 -0.187041 -1.82607e-21)
(1.3883 -0.19365 0)
(1.40317 -0.201085 -1.8425e-21)
(1.41815 -0.209448 -1.63334e-21)
(1.43314 -0.21853 1.85809e-21)
(1.44746 -0.228474 1.29316e-21)
(1.46049 -0.237206 3.86243e-21)
(1.46381 -0.248575 -4.93354e-21)
(0.981251 -0.328996 9.27021e-21)
(0.989986 -0.329812 0)
(0.998804 -0.330342 8.33282e-21)
(1.00762 -0.33057 -3.79833e-20)
(1.01644 -0.330528 6.55526e-20)
(1.02527 -0.330228 -1.42987e-20)
(1.0341 -0.329667 1.26708e-20)
(1.04291 -0.328841 -2.21224e-20)
(1.0517 -0.327749 1.12534e-20)
(1.06044 -0.32639 9.8327e-21)
(1.06913 -0.324763 8.35298e-21)
(1.07776 -0.322871 -2.27013e-20)
(1.08631 -0.320717 8.09765e-21)
(1.09477 -0.318302 -1.68275e-20)
(1.10313 -0.315632 -3.86085e-21)
(1.11137 -0.312711 1.59347e-21)
(1.11949 -0.309546 7.89879e-21)
(1.12747 -0.306143 0)
(1.1353 -0.302512 0)
(1.14296 -0.298662 8.57176e-22)
(1.15044 -0.294604 1.03269e-21)
(1.15774 -0.290349 -6.98855e-22)
(1.16484 -0.285911 4.45253e-22)
(1.17173 -0.281304 3.13177e-21)
(1.1784 -0.276543 -3.13796e-21)
(1.18484 -0.271646 1.45568e-21)
(1.19105 -0.26663 1.71785e-21)
(1.19702 -0.261513 0)
(1.20274 -0.256315 -1.7405e-21)
(1.20823 -0.251058 -4.53645e-21)
(1.21346 -0.245762 -3.72182e-22)
(1.21845 -0.24045 4.96562e-21)
(1.22319 -0.23515 -2.98218e-21)
(1.2277 -0.229851 0)
(1.23198 -0.224594 1.57968e-21)
(1.23605 -0.21941 -1.60465e-21)
(1.23989 -0.214322 1.45027e-21)
(1.24355 -0.209357 -3.09163e-21)
(1.24702 -0.204535 0)
(1.25034 -0.199882 -4.027e-22)
(1.25352 -0.195419 3.83288e-22)
(1.25659 -0.19117 -5.84998e-22)
(1.25958 -0.187156 2.22474e-21)
(1.26251 -0.1834 -4.35273e-21)
(1.26543 -0.179924 2.85246e-21)
(1.26837 -0.176751 2.71684e-21)
(1.27139 -0.173905 -2.59004e-21)
(1.27453 -0.171412 5.05173e-21)
(1.27786 -0.169301 -4.91515e-21)
(1.28147 -0.167603 -1.13199e-20)
(1.28545 -0.166352 7.78438e-23)
(1.28989 -0.165584 -4.03057e-21)
(1.29494 -0.16534 0)
(1.3007 -0.165663 0)
(1.3073 -0.166599 -5.43324e-21)
(1.31484 -0.168193 7.60664e-21)
(1.32339 -0.170487 -4.4841e-21)
(1.33293 -0.173515 0)
(1.34338 -0.177311 1.52225e-21)
(1.35454 -0.181907 2.77268e-21)
(1.36619 -0.18735 -1.18769e-21)
(1.37804 -0.193696 9.93227e-22)
(1.3899 -0.201047 -1.23828e-21)
(1.40165 -0.209476 1.19323e-21)
(1.41325 -0.219119 6.64314e-21)
(1.42468 -0.229742 -5.56846e-21)
(1.43483 -0.241358 -1.96088e-21)
(1.44207 -0.251138 0)
(1.43323 -0.26487 0)
(0.980441 -0.346809 -9.318e-21)
(0.989712 -0.347563 -4.29531e-20)
(0.999071 -0.348008 3.39768e-20)
(1.00842 -0.34813 0)
(1.01778 -0.347962 7.21383e-21)
(1.02715 -0.347515 2.53911e-20)
(1.03652 -0.346788 -1.93235e-20)
(1.04586 -0.345775 2.6589e-20)
(1.05518 -0.344476 -2.10935e-20)
(1.06444 -0.342888 0)
(1.07364 -0.341012 -4.54079e-21)
(1.08276 -0.33885 0)
(1.0918 -0.336405 -4.95566e-21)
(1.10073 -0.33368 1.71107e-20)
(1.10954 -0.330679 0)
(1.11822 -0.327409 0)
(1.12676 -0.323874 0)
(1.13513 -0.320085 2.36912e-21)
(1.14333 -0.316049 -3.06628e-21)
(1.15135 -0.311778 -8.59046e-22)
(1.15916 -0.307284 0)
(1.16676 -0.302579 0)
(1.17413 -0.29768 0)
(1.18127 -0.292603 -6.50114e-21)
(1.18816 -0.287364 8.21269e-21)
(1.19479 -0.281984 -4.57702e-21)
(1.20117 -0.27648 -3.96106e-21)
(1.20727 -0.270875 4.6296e-21)
(1.2131 -0.26519 -4.64895e-21)
(1.21866 -0.259447 2.92487e-21)
(1.22394 -0.253672 -5.86048e-21)
(1.22894 -0.247887 2.59994e-21)
(1.23367 -0.242123 6.42576e-21)
(1.23814 -0.236372 3.52796e-21)
(1.24236 -0.23068 -1.57279e-21)
(1.24633 -0.225079 1.59835e-21)
(1.25007 -0.219596 0)
(1.25359 -0.214257 -1.768e-22)
(1.25692 -0.209087 8.47364e-22)
(1.26007 -0.204111 3.99212e-24)
(1.26307 -0.199354 -4.14424e-22)
(1.26596 -0.194841 1.00253e-21)
(1.26877 -0.190597 -1.61787e-21)
(1.27154 -0.186644 -7.95857e-22)
(1.27431 -0.183008 1.53361e-21)
(1.27714 -0.179712 0)
(1.28008 -0.176783 -5.48546e-21)
(1.28322 -0.17425 -7.64772e-21)
(1.28662 -0.172142 2.31424e-22)
(1.29037 -0.17049 6.97674e-21)
(1.29458 -0.169325 0)
(1.29934 -0.168682 0)
(1.30473 -0.168594 -3.4237e-21)
(1.31085 -0.169098 5.80341e-21)
(1.31772 -0.170227 -3.12826e-22)
(1.32536 -0.172014 -1.42497e-21)
(1.33369 -0.174492 6.21165e-21)
(1.34258 -0.177695 -2.53732e-21)
(1.35183 -0.18167 -1.49632e-21)
(1.36119 -0.18648 2.25137e-21)
(1.37043 -0.192222 -6.19796e-23)
(1.37938 -0.199018 -1.41781e-21)
(1.38796 -0.207036 -2.07393e-21)
(1.39623 -0.216419 -1.06668e-20)
(1.4042 -0.227298 7.63249e-21)
(1.41161 -0.239351 7.63712e-21)
(1.41645 -0.252314 -1.20814e-20)
(1.41476 -0.26283 -1.33598e-20)
(1.3894 -0.275919 0)
(0.979844 -0.365979 3.57883e-20)
(0.989692 -0.366661 -1.85758e-20)
(0.999632 -0.36701 0)
(1.00956 -0.367012 7.38016e-21)
(1.0195 -0.366701 0)
(1.02945 -0.36609 -1.82005e-20)
(1.03938 -0.365175 1.26947e-20)
(1.0493 -0.363953 -2.03185e-20)
(1.05917 -0.362422 1.98748e-20)
(1.06899 -0.360579 3.96701e-21)
(1.07873 -0.358425 -1.75572e-20)
(1.08839 -0.355963 1.36437e-20)
(1.09795 -0.353195 0)
(1.10739 -0.350125 7.90584e-21)
(1.11669 -0.346758 -1.39694e-20)
(1.12585 -0.343099 6.07168e-21)
(1.13484 -0.339156 0)
(1.14365 -0.334939 1.71391e-21)
(1.15226 -0.330457 -7.1335e-22)
(1.16066 -0.325722 -5.49406e-22)
(1.16883 -0.320747 0)
(1.17676 -0.315548 0)
(1.18443 -0.31014 0)
(1.19184 -0.304543 1.40958e-21)
(1.19898 -0.298774 4.22948e-21)
(1.20583 -0.292857 -4.23734e-21)
(1.21238 -0.286812 2.23874e-21)
(1.21863 -0.280663 0)
(1.22457 -0.274435 6.14449e-21)
(1.23021 -0.268153 -9.08669e-21)
(1.23554 -0.261844 0)
(1.24056 -0.255535 7.12166e-21)
(1.24528 -0.249251 -3.42519e-21)
(1.24971 -0.242999 -3.50028e-21)
(1.25385 -0.236826 2.01709e-21)
(1.25773 -0.230764 0)
(1.26134 -0.224844 0)
(1.26473 -0.219095 1.78394e-21)
(1.2679 -0.213544 0)
(1.2709 -0.20822 -9.14581e-22)
(1.27375 -0.20315 2.14259e-22)
(1.2765 -0.198361 8.62872e-22)
(1.27918 -0.193881 -3.57275e-23)
(1.28186 -0.189735 1.63344e-21)
(1.28459 -0.185948 3.17436e-21)
(1.28743 -0.182547 1.43446e-21)
(1.29045 -0.179556 -3.01894e-21)
(1.29374 -0.177002 -2.72538e-21)
(1.29737 -0.174912 -4.82771e-21)
(1.30141 -0.173309 4.74529e-21)
(1.30594 -0.172218 0)
(1.31101 -0.171662 -3.79632e-21)
(1.31665 -0.171663 2.55293e-22)
(1.32285 -0.172243 1.38189e-22)
(1.32956 -0.173423 -4.65792e-21)
(1.33668 -0.175229 0)
(1.34404 -0.177694 -9.91882e-22)
(1.35143 -0.180867 0)
(1.35863 -0.184825 0)
(1.36543 -0.189675 -1.15503e-21)
(1.37168 -0.195571 1.73074e-21)
(1.37731 -0.2027 6.18767e-21)
(1.38238 -0.211285 -8.43474e-21)
(1.387 -0.221515 7.96951e-21)