/*--------------------------------*- C++ -*----------------------------------*\
| =========                 |                                                 |
| \\      /  F ield         | OpenFOAM: The Open Source CFD Toolbox           |
|  \\    /   O peration     | Version:  2312                                  |
|   \\  /    A nd           | Website:  www.openfoam.com                      |
|    \\/     M anipulation  |                                                 |
\*---------------------------------------------------------------------------*/
FoamFile
{
    version     2.0;
    format      ascii;
    arch        "LSB;label=32;scalar=64";
    class       volScalarField;
    location    "100";
    object      k;
}
// * * * * * * * * * * * * * * * * * * * * * * * * * * * * * * * * * * * * * //

dimensions      [0 2 -2 0 0 0 0];

internalField   nonuniform List<scalar> 
76025
(
5.04709e-06
5.04869e-06
5.04979e-06
5.05105e-06
5.05167e-06
5.05555e-06
5.05693e-06
5.06034e-06
5.06177e-06
5.06461e-06
5.06782e-06
5.07134e-06
5.07626e-06
5.07945e-06
5.08495e-06
5.08963e-06
5.0958e-06
5.10287e-06
5.10929e-06
5.11675e-06
5.125e-06
5.13445e-06
5.14308e-06
5.1533e-06
5.16496e-06
5.17616e-06
5.19113e-06
5.20337e-06
5.22076e-06
5.23587e-06
5.25379e-06
5.27258e-06
5.29562e-06
5.31956e-06
5.3464e-06
5.37463e-06
5.40798e-06
5.44409e-06
5.48513e-06
5.52877e-06
5.57874e-06
5.63624e-06
5.70378e-06
5.78108e-06
5.87188e-06
5.98005e-06
6.10969e-06
6.26804e-06
6.46307e-06
6.69436e-06
6.97895e-06
7.31293e-06
7.70984e-06
8.14855e-06
8.69833e-06
9.26706e-06
9.93993e-06
1.07015e-05
1.15776e-05
1.26467e-05
1.38138e-05
1.53013e-05
1.7105e-05
1.92868e-05
2.19124e-05
2.48326e-05
2.81671e-05
3.18282e-05
3.57476e-05
5.14573e-06
5.14945e-06
5.15267e-06
5.15611e-06
5.15814e-06
5.1619e-06
5.16479e-06
5.16864e-06
5.17223e-06
5.1758e-06
5.17965e-06
5.18368e-06
5.18864e-06
5.19335e-06
5.19962e-06
5.20529e-06
5.21241e-06
5.21955e-06
5.22777e-06
5.23611e-06
5.24545e-06
5.25557e-06
5.26648e-06
5.27806e-06
5.29133e-06
5.30447e-06
5.31981e-06
5.33571e-06
5.3534e-06
5.37278e-06
5.39412e-06
5.41612e-06
5.44146e-06
5.46831e-06
5.49843e-06
5.53165e-06
5.56826e-06
5.60985e-06
5.65624e-06
5.70874e-06
5.76931e-06
5.83883e-06
5.92173e-06
6.01909e-06
6.13669e-06
6.27746e-06
6.44764e-06
6.65272e-06
6.89665e-06
7.18667e-06
7.52304e-06
7.91437e-06
8.35619e-06
8.86651e-06
9.43398e-06
1.00843e-05
1.08291e-05
1.16897e-05
1.27081e-05
1.38986e-05
1.53448e-05
1.70701e-05
1.91216e-05
2.15483e-05
2.43524e-05
2.75596e-05
3.11384e-05
3.49024e-05
3.88974e-05
5.26107e-06
5.26572e-06
5.2703e-06
5.27533e-06
5.27969e-06
5.28446e-06
5.28908e-06
5.29398e-06
5.2991e-06
5.30428e-06
5.30964e-06
5.31503e-06
5.32097e-06
5.32693e-06
5.33388e-06
5.341e-06
5.34902e-06
5.35744e-06
5.36672e-06
5.37657e-06
5.38725e-06
5.39873e-06
5.41124e-06
5.42463e-06
5.43944e-06
5.45512e-06
5.47228e-06
5.49076e-06
5.51097e-06
5.53288e-06
5.55707e-06
5.58321e-06
5.61206e-06
5.6437e-06
5.6788e-06
5.71785e-06
5.76167e-06
5.8112e-06
5.86758e-06
5.93211e-06
6.00688e-06
6.09448e-06
6.19793e-06
6.32059e-06
6.46655e-06
6.64007e-06
6.84599e-06
7.08804e-06
7.37108e-06
7.69813e-06
8.07414e-06
8.50183e-06
8.98927e-06
9.54147e-06
1.01726e-05
1.08996e-05
1.17435e-05
1.27365e-05
1.39084e-05
1.53081e-05
1.6974e-05
1.8952e-05
2.12837e-05
2.39893e-05
2.70725e-05
3.04827e-05
3.41492e-05
3.79227e-05
4.15861e-05
5.39842e-06
5.4034e-06
5.40862e-06
5.41431e-06
5.4201e-06
5.42611e-06
5.43226e-06
5.4386e-06
5.44517e-06
5.45195e-06
5.45899e-06
5.46618e-06
5.47376e-06
5.48155e-06
5.48988e-06
5.49866e-06
5.50809e-06
5.51814e-06
5.52894e-06
5.5405e-06
5.55294e-06
5.5663e-06
5.58074e-06
5.59629e-06
5.61319e-06
5.63141e-06
5.65119e-06
5.67264e-06
5.69604e-06
5.72156e-06
5.74956e-06
5.78031e-06
5.81425e-06
5.85192e-06
5.89396e-06
5.94121e-06
5.99474e-06
6.05577e-06
6.1259e-06
6.20684e-06
6.30097e-06
6.41126e-06
6.54092e-06
6.69347e-06
6.87268e-06
7.08249e-06
7.32667e-06
7.60909e-06
7.93337e-06
8.30378e-06
8.72486e-06
9.20339e-06
9.74794e-06
1.03713e-05
1.10905e-05
1.19276e-05
1.29106e-05
1.40718e-05
1.54495e-05
1.70831e-05
1.90124e-05
2.12712e-05
2.38797e-05
2.68364e-05
3.01146e-05
3.36425e-05
3.7339e-05
4.09853e-05
4.41254e-05
5.56231e-06
5.56762e-06
5.57328e-06
5.57941e-06
5.58592e-06
5.5928e-06
5.60003e-06
5.60759e-06
5.61549e-06
5.62373e-06
5.63234e-06
5.64129e-06
5.65066e-06
5.66043e-06
5.67069e-06
5.6815e-06
5.69293e-06
5.70507e-06
5.71799e-06
5.73178e-06
5.74653e-06
5.76234e-06
5.77935e-06
5.79766e-06
5.81744e-06
5.83884e-06
5.86207e-06
5.88735e-06
5.91498e-06
5.9453e-06
5.9787e-06
6.01569e-06
6.05684e-06
6.10294e-06
6.15484e-06
6.21372e-06
6.28082e-06
6.35778e-06
6.44635e-06
6.54861e-06
6.66691e-06
6.80442e-06
6.96423e-06
7.14959e-06
7.36386e-06
7.61044e-06
7.8929e-06
8.215e-06
8.58118e-06
8.99692e-06
9.46961e-06
1.00092e-05
1.0629e-05
1.13465e-05
1.21837e-05
1.3167e-05
1.43269e-05
1.56973e-05
1.7313e-05
1.92087e-05
2.14119e-05
2.3941e-05
2.67978e-05
2.9957e-05
3.33749e-05
3.69488e-05
4.05696e-05
4.38793e-05
4.61508e-05
5.75871e-06
5.76443e-06
5.77057e-06
5.77717e-06
5.78425e-06
5.7918e-06
5.79982e-06
5.80833e-06
5.81731e-06
5.82678e-06
5.83676e-06
5.84726e-06
5.85831e-06
5.86995e-06
5.88222e-06
5.89517e-06
5.90888e-06
5.92343e-06
5.9389e-06
5.95539e-06
5.97302e-06
5.99191e-06
6.01221e-06
6.03408e-06
6.05773e-06
6.08337e-06
6.11129e-06
6.14182e-06
6.17535e-06
6.21235e-06
6.25339e-06
6.29916e-06
6.35044e-06
6.40823e-06
6.47361e-06
6.54799e-06
6.63276e-06
6.72983e-06
6.84083e-06
6.96815e-06
7.11369e-06
7.28079e-06
7.47232e-06
7.69132e-06
7.94101e-06
8.22495e-06
8.54724e-06
8.9129e-06
9.32832e-06
9.80188e-06
1.03446e-05
1.09705e-05
1.16975e-05
1.25469e-05
1.35438e-05
1.47161e-05
1.60938e-05
1.77073e-05
1.95856e-05
2.17523e-05
2.42213e-05
2.69952e-05
3.00557e-05
3.3357e-05
3.68348e-05
4.03503e-05
4.37396e-05
4.63917e-05
4.75601e-05
5.99507e-06
6.0013e-06
6.008e-06
6.01521e-06
6.02294e-06
6.03119e-06
6.04e-06
6.04938e-06
6.05935e-06
6.06995e-06
6.08118e-06
6.09309e-06
6.10572e-06
6.11911e-06
6.13333e-06
6.14843e-06
6.16449e-06
6.18162e-06
6.19991e-06
6.21949e-06
6.24049e-06
6.26309e-06
6.28746e-06
6.31385e-06
6.34251e-06
6.37376e-06
6.40798e-06
6.44562e-06
6.4872e-06
6.53333e-06
6.58475e-06
6.64231e-06
6.70697e-06
6.77988e-06
6.86228e-06
6.95565e-06
7.06149e-06
7.18171e-06
7.31786e-06
7.47248e-06
7.64694e-06
7.84498e-06
8.06953e-06
8.3239e-06
8.61192e-06
8.93822e-06
9.30861e-06
9.73044e-06
1.02131e-05
1.07685e-05
1.14113e-05
1.21593e-05
1.30331e-05
1.40561e-05
1.52535e-05
1.66516e-05
1.82764e-05
2.01515e-05
2.22965e-05
2.47219e-05
2.74279e-05
3.04007e-05
3.36014e-05
3.69658e-05
4.04028e-05
4.37258e-05
4.66307e-05
4.82424e-05
4.82604e-05
6.28057e-06
6.28755e-06
6.29503e-06
6.30305e-06
6.31163e-06
6.32079e-06
6.33057e-06
6.34099e-06
6.35211e-06
6.36395e-06
6.37656e-06
6.39e-06
6.40433e-06
6.4196e-06
6.43592e-06
6.45336e-06
6.47203e-06
6.49206e-06
6.51358e-06
6.53676e-06
6.56179e-06
6.58888e-06
6.61829e-06
6.65033e-06
6.68536e-06
6.7238e-06
6.76613e-06
6.81292e-06
6.86481e-06
6.92256e-06
6.98701e-06
7.05912e-06
7.13999e-06
7.23082e-06
7.33295e-06
7.44784e-06
7.57712e-06
7.72255e-06
7.88597e-06
8.06976e-06
8.27579e-06
8.50795e-06
8.77009e-06
9.06658e-06
9.4028e-06
9.78539e-06
1.02227e-05
1.0725e-05
1.13049e-05
1.19774e-05
1.27597e-05
1.36715e-05
1.47341e-05
1.59696e-05
1.74007e-05
1.90491e-05
2.09337e-05
2.30695e-05
2.54645e-05
2.81156e-05
3.10109e-05
3.41181e-05
3.73782e-05
4.07081e-05
4.39746e-05
4.69017e-05
4.89324e-05
4.92147e-05
4.85955e-05
6.62687e-06
6.63498e-06
6.6436e-06
6.6528e-06
6.66259e-06
6.67302e-06
6.68412e-06
6.69596e-06
6.70858e-06
6.72205e-06
6.73643e-06
6.7518e-06
6.76825e-06
6.78587e-06
6.80477e-06
6.82509e-06
6.84697e-06
6.87057e-06
6.89609e-06
6.92372e-06
6.95372e-06
6.98639e-06
7.02207e-06
7.06115e-06
7.10409e-06
7.15141e-06
7.20368e-06
7.26159e-06
7.32587e-06
7.39738e-06
7.47707e-06
7.56598e-06
7.66528e-06
7.77624e-06
7.90032e-06
8.03907e-06
8.1943e-06
8.36794e-06
8.5624e-06
8.78027e-06
9.02484e-06
9.30012e-06
9.61201e-06
9.96669e-06
1.03717e-05
1.08362e-05
1.13712e-05
1.19896e-05
1.2706e-05
1.35371e-05
1.45007e-05
1.56158e-05
1.69015e-05
1.83766e-05
2.00585e-05
2.19623e-05
2.40981e-05
2.64715e-05
2.90779e-05
3.19022e-05
3.49214e-05
3.80791e-05
4.12984e-05
4.44707e-05
4.73808e-05
4.95742e-05
5.01648e-05
4.96614e-05
4.82809e-05
7.04943e-06
7.05915e-06
7.06941e-06
7.08028e-06
7.0918e-06
7.104e-06
7.11697e-06
7.13076e-06
7.14546e-06
7.16115e-06
7.17792e-06
7.19588e-06
7.21514e-06
7.23585e-06
7.25814e-06
7.2822e-06
7.3082e-06
7.33636e-06
7.36692e-06
7.40015e-06
7.43639e-06
7.47602e-06
7.51944e-06
7.56716e-06
7.6197e-06
7.67767e-06
7.74177e-06
7.81276e-06
7.8915e-06
7.97894e-06
8.07615e-06
8.18431e-06
8.30475e-06
8.43896e-06
8.58864e-06
8.75574e-06
8.94254e-06
9.15167e-06
9.3864e-06
9.65037e-06
9.94859e-06
1.02859e-05
1.06708e-05
1.11114e-05
1.16174e-05
1.22002e-05
1.28723e-05
1.36479e-05
1.4542e-05
1.55705e-05
1.67496e-05
1.80952e-05
1.96225e-05
2.13449e-05
2.32736e-05
2.54154e-05
2.77713e-05
3.03385e-05
3.30979e-05
3.60262e-05
3.90854e-05
4.21872e-05
4.52428e-05
4.80919e-05
5.033e-05
5.1216e-05
5.07625e-05
4.95047e-05
4.70736e-05
7.56943e-06
7.58135e-06
7.59385e-06
7.60704e-06
7.62093e-06
7.6356e-06
7.65113e-06
7.66761e-06
7.68516e-06
7.70387e-06
7.72387e-06
7.7453e-06
7.76832e-06
7.7931e-06
7.81984e-06
7.84874e-06
7.88006e-06
7.91405e-06
7.95103e-06
7.99136e-06
8.03545e-06
8.08375e-06
8.13678e-06
8.19511e-06
8.25939e-06
8.33034e-06
8.40878e-06
8.49562e-06
8.5919e-06
8.69876e-06
8.81751e-06
8.94963e-06
9.09683e-06
9.26109e-06
9.44472e-06
9.65041e-06
9.88138e-06
1.01414e-05
1.04351e-05
1.07676e-05
1.11455e-05
1.15758e-05
1.20676e-05
1.26313e-05
1.3278e-05
1.40194e-05
1.48684e-05
1.58381e-05
1.69421e-05
1.81936e-05
1.96055e-05
2.11891e-05
2.29549e-05
2.49097e-05
2.70581e-05
2.93983e-05
3.19231e-05
3.46211e-05
3.74567e-05
4.04044e-05
4.33963e-05
4.63083e-05
4.90432e-05
5.13114e-05
5.22224e-05
5.19289e-05
5.07932e-05
4.79707e-05
4.66313e-05
8.2165e-06
8.23137e-06
8.24691e-06
8.26324e-06
8.2804e-06
8.29845e-06
8.31752e-06
8.33771e-06
8.35916e-06
8.38201e-06
8.40641e-06
8.43256e-06
8.46065e-06
8.4909e-06
8.52355e-06
8.55889e-06
8.59722e-06
8.63889e-06
8.68432e-06
8.73395e-06
8.78829e-06
8.8479e-06
8.91344e-06
8.98562e-06
9.06526e-06
9.15328e-06
9.25072e-06
9.35877e-06
9.47879e-06
9.61231e-06
9.76112e-06
9.92728e-06
1.01132e-05
1.03217e-05
1.05559e-05
1.08198e-05
1.11178e-05
1.14549e-05
1.18371e-05
1.22712e-05
1.27647e-05
1.33261e-05
1.39642e-05
1.469e-05
1.55143e-05
1.64481e-05
1.75023e-05
1.86878e-05
2.00153e-05
2.14943e-05
2.31336e-05
2.49396e-05
2.69174e-05
2.90667e-05
3.13866e-05
3.38653e-05
3.64901e-05
3.92382e-05
4.20552e-05
4.49208e-05
4.77022e-05
5.0255e-05
5.24434e-05
5.3237e-05
5.29881e-05
5.21827e-05
4.94548e-05
4.69258e-05
4.66323e-05
9.03322e-06
9.05212e-06
9.07186e-06
9.09257e-06
9.1143e-06
9.13713e-06
9.1612e-06
9.18666e-06
9.21367e-06
9.24242e-06
9.27311e-06
9.30598e-06
9.34127e-06
9.37929e-06
9.42035e-06
9.46483e-06
9.51315e-06
9.56577e-06
9.62324e-06
9.68614e-06
9.75515e-06
9.83105e-06
9.91469e-06
1.00071e-05
1.01093e-05
1.02226e-05
1.03484e-05
1.04885e-05
1.06448e-05
1.08193e-05
1.10147e-05
1.12338e-05
1.148e-05
1.1757e-05
1.20691e-05
1.24213e-05
1.2819e-05
1.32684e-05
1.37759e-05
1.4349e-05
1.49953e-05
1.5723e-05
1.65407e-05
1.7457e-05
1.8481e-05
1.96222e-05
2.08889e-05
2.2289e-05
2.38298e-05
2.55167e-05
2.73544e-05
2.93437e-05
3.14851e-05
3.37706e-05
3.61951e-05
3.87346e-05
4.13755e-05
4.40733e-05
4.67577e-05
4.94151e-05
5.17831e-05
5.37563e-05
5.45306e-05
5.43292e-05
5.31798e-05
5.11725e-05
4.74466e-05
4.66196e-05
4.77851e-05
1.00831e-05
1.01078e-05
1.01337e-05
1.01608e-05
1.01893e-05
1.02193e-05
1.0251e-05
1.02844e-05
1.032e-05
1.03578e-05
1.03982e-05
1.04415e-05
1.04881e-05
1.05383e-05
1.05926e-05
1.06516e-05
1.07157e-05
1.07857e-05
1.08624e-05
1.09465e-05
1.10391e-05
1.11412e-05
1.12541e-05
1.13792e-05
1.1518e-05
1.16723e-05
1.18443e-05
1.20362e-05
1.22505e-05
1.24904e-05
1.2759e-05
1.306e-05
1.33976e-05
1.37761e-05
1.42007e-05
1.46764e-05
1.52091e-05
1.58048e-05
1.64698e-05
1.72108e-05
1.80344e-05
1.89477e-05
1.99574e-05
2.10705e-05
2.22934e-05
2.36325e-05
2.50935e-05
2.66819e-05
2.84015e-05
3.02532e-05
3.22383e-05
3.4351e-05
3.65889e-05
3.89343e-05
4.1381e-05
4.38868e-05
4.64459e-05
4.89645e-05
5.13812e-05
5.36582e-05
5.52976e-05
5.57572e-05
5.53278e-05
5.44237e-05
5.23977e-05
4.81065e-05
4.63129e-05
4.68627e-05
5.05812e-05
1.14662e-05
1.15002e-05
1.15358e-05
1.15734e-05
1.1613e-05
1.16547e-05
1.16989e-05
1.17459e-05
1.17958e-05
1.18491e-05
1.19062e-05
1.19675e-05
1.20335e-05
1.21049e-05
1.21823e-05
1.22665e-05
1.23582e-05
1.24586e-05
1.25686e-05
1.26895e-05
1.28227e-05
1.29696e-05
1.3132e-05
1.33118e-05
1.3511e-05
1.37321e-05
1.39777e-05
1.42505e-05
1.45537e-05
1.48907e-05
1.52651e-05
1.56808e-05
1.61421e-05
1.66533e-05
1.72191e-05
1.78444e-05
1.85341e-05
1.92934e-05
2.01277e-05
2.10422e-05
2.20423e-05
2.31333e-05
2.43204e-05
2.56083e-05
2.70016e-05
2.8504e-05
3.01185e-05
3.1846e-05
3.36881e-05
3.5641e-05
3.7704e-05
3.98628e-05
4.21152e-05
4.44282e-05
4.68016e-05
4.91603e-05
5.15208e-05
5.36842e-05
5.56777e-05
5.69442e-05
5.70363e-05
5.65306e-05
5.53673e-05
5.33838e-05
4.9206e-05
4.60533e-05
4.61043e-05
4.84781e-05
5.30476e-05
1.33531e-05
1.34036e-05
1.34568e-05
1.35132e-05
1.35729e-05
1.36361e-05
1.37034e-05
1.3775e-05
1.38515e-05
1.39334e-05
1.40213e-05
1.41159e-05
1.42178e-05
1.43281e-05
1.44475e-05
1.45771e-05
1.47182e-05
1.48719e-05
1.50397e-05
1.52231e-05
1.54238e-05
1.56437e-05
1.58847e-05
1.61491e-05
1.64392e-05
1.67574e-05
1.71065e-05
1.74893e-05
1.79089e-05
1.83683e-05
1.88709e-05
1.94202e-05
2.00198e-05
2.06735e-05
2.13852e-05
2.21588e-05
2.29985e-05
2.39084e-05
2.48929e-05
2.59559e-05
2.71017e-05
2.83341e-05
2.96565e-05
3.10721e-05
3.25831e-05
3.41909e-05
3.58956e-05
3.7695e-05
3.95875e-05
4.15621e-05
4.36198e-05
4.57322e-05
4.79057e-05
5.00772e-05
5.2268e-05
5.4338e-05
5.63465e-05
5.79058e-05
5.86266e-05
5.84792e-05
5.76592e-05
5.62103e-05
5.37255e-05
5.00678e-05
4.57964e-05
4.51331e-05
4.66636e-05
5.07066e-05
5.21083e-05
1.60611e-05
1.61441e-05
1.62319e-05
1.6325e-05
1.64237e-05
1.65285e-05
1.664e-05
1.67585e-05
1.68849e-05
1.70199e-05
1.7164e-05
1.73183e-05
1.74835e-05
1.76606e-05
1.78507e-05
1.8055e-05
1.82746e-05
1.85109e-05
1.87652e-05
1.90392e-05
1.93344e-05
1.96525e-05
1.99954e-05
2.03649e-05
2.07633e-05
2.11925e-05
2.16549e-05
2.21529e-05
2.26891e-05
2.3266e-05
2.38865e-05
2.45537e-05
2.52705e-05
2.60402e-05
2.68662e-05
2.77519e-05
2.87008e-05
2.97163e-05
3.08019e-05
3.19608e-05
3.3196e-05
3.45098e-05
3.59043e-05
3.73806e-05
3.89387e-05
4.05777e-05
4.22943e-05
4.40835e-05
4.59407e-05
4.78448e-05
4.98044e-05
5.1762e-05
5.37539e-05
5.56487e-05
5.753e-05
5.91137e-05
6.01908e-05
6.01925e-05
5.97504e-05
5.87892e-05
5.69483e-05
5.37809e-05
5.03166e-05
4.5646e-05
4.39004e-05
4.51138e-05
4.82772e-05
5.03635e-05
4.78331e-05
2.0235e-05
2.03796e-05
2.05315e-05
2.06912e-05
2.0859e-05
2.10352e-05
2.12204e-05
2.14152e-05
2.162e-05
2.18355e-05
2.20623e-05
2.23011e-05
2.25526e-05
2.28174e-05
2.30966e-05
2.33908e-05
2.3701e-05
2.40283e-05
2.43737e-05
2.47384e-05
2.51236e-05
2.55306e-05
2.59611e-05
2.64164e-05
2.68984e-05
2.74089e-05
2.795e-05
2.85238e-05
2.91326e-05
2.97791e-05
3.04659e-05
3.11959e-05
3.1972e-05
3.27974e-05
3.36751e-05
3.46084e-05
3.56002e-05
3.66535e-05
3.77708e-05
3.89544e-05
4.02059e-05
4.15264e-05
4.2916e-05
4.43737e-05
4.5897e-05
4.74827e-05
4.91223e-05
5.08101e-05
5.25354e-05
5.42636e-05
5.60235e-05
5.76928e-05
5.93916e-05
6.08264e-05
6.19877e-05
6.21631e-05
6.18157e-05
6.09727e-05
5.96181e-05
5.73912e-05
5.36031e-05
4.98554e-05
4.53112e-05
4.26624e-05
4.35132e-05
4.59561e-05
4.77092e-05
4.49775e-05
4.04344e-05
2.70485e-05
2.72698e-05
2.74983e-05
2.77342e-05
2.79775e-05
2.82284e-05
2.84871e-05
2.87539e-05
2.90292e-05
2.93132e-05
2.96062e-05
2.99087e-05
3.0221e-05
3.05436e-05
3.08771e-05
3.12221e-05
3.15792e-05
3.19493e-05
3.23332e-05
3.2732e-05
3.31467e-05
3.35787e-05
3.40294e-05
3.45005e-05
3.49936e-05
3.5511e-05
3.60545e-05
3.66268e-05
3.72302e-05
3.78675e-05
3.85415e-05
3.92553e-05
4.00117e-05
4.08139e-05
4.16648e-05
4.25671e-05
4.35234e-05
4.45356e-05
4.56056e-05
4.67342e-05
4.79214e-05
4.91664e-05
5.04672e-05
5.18202e-05
5.322e-05
5.4661e-05
5.6125e-05
5.76152e-05
5.90956e-05
6.05251e-05
6.19745e-05
6.31775e-05
6.42065e-05
6.42912e-05
6.39708e-05
6.32201e-05
6.19767e-05
5.99483e-05
5.71252e-05
5.29009e-05
4.86329e-05
4.4404e-05
4.09329e-05
4.13372e-05
4.33305e-05
4.40694e-05
4.13528e-05
3.6343e-05
3.63454e-05
3.76577e-05
3.79007e-05
3.81473e-05
3.83973e-05
3.86505e-05
3.8907e-05
3.91668e-05
3.94301e-05
3.9697e-05
3.99676e-05
4.02424e-05
4.05215e-05
4.08054e-05
4.10945e-05
4.13894e-05
4.16906e-05
4.19989e-05
4.23153e-05
4.26407e-05
4.29763e-05
4.33234e-05
4.36836e-05
4.40586e-05
4.44502e-05
4.48606e-05
4.52918e-05
4.57464e-05
4.62269e-05
4.67362e-05
4.72771e-05
4.78526e-05
4.84657e-05
4.91193e-05
4.98163e-05
5.0559e-05
5.13497e-05
5.21901e-05
5.3081e-05
5.4023e-05
5.50147e-05
5.60538e-05
5.71381e-05
5.82629e-05
5.94205e-05
6.06029e-05
6.17992e-05
6.29755e-05
6.41713e-05
6.5247e-05
6.62496e-05
6.68239e-05
6.67243e-05
6.62893e-05
6.54683e-05
6.42383e-05
6.24058e-05
5.9621e-05
5.59797e-05
5.14974e-05
4.66758e-05
4.27213e-05
3.86247e-05
3.88296e-05
4.02174e-05
3.99286e-05
3.67743e-05
3.176e-05
3.12415e-05
3.45285e-05
5.21298e-05
5.2285e-05
5.2439e-05
5.25917e-05
5.2743e-05
5.28928e-05
5.30412e-05
5.31886e-05
5.33349e-05
5.34806e-05
5.3626e-05
5.37715e-05
5.39176e-05
5.40649e-05
5.42141e-05
5.4366e-05
5.45216e-05
5.46819e-05
5.48484e-05
5.50224e-05
5.52055e-05
5.53996e-05
5.56066e-05
5.58286e-05
5.60673e-05
5.63253e-05
5.66053e-05
5.69103e-05
5.72431e-05
5.76065e-05
5.80039e-05
5.84376e-05
5.89107e-05
5.94255e-05
5.99836e-05
6.05861e-05
6.12335e-05
6.19252e-05
6.266e-05
6.34316e-05
6.4236e-05
6.50736e-05
6.59314e-05
6.67953e-05
6.76591e-05
6.84889e-05
6.92549e-05
6.98066e-05
6.97591e-05
6.94416e-05
6.8818e-05
6.77935e-05
6.64677e-05
6.45177e-05
6.18523e-05
5.81322e-05
5.37619e-05
4.89422e-05
4.38736e-05
3.98867e-05
3.56438e-05
3.54884e-05
3.56388e-05
3.45323e-05
3.06594e-05
2.64184e-05
2.59703e-05
2.88546e-05
3.36691e-05
6.94252e-05
6.93933e-05
6.93558e-05
6.93125e-05
6.92637e-05
6.92097e-05
6.91507e-05
6.9087e-05
6.90191e-05
6.89474e-05
6.88724e-05
6.87948e-05
6.87152e-05
6.86346e-05
6.85538e-05
6.84739e-05
6.83961e-05
6.83218e-05
6.82523e-05
6.81894e-05
6.81347e-05
6.80902e-05
6.80577e-05
6.80389e-05
6.80329e-05
6.80445e-05
6.80789e-05
6.8138e-05
6.82255e-05
6.83408e-05
6.84929e-05
6.86778e-05
6.8903e-05
6.91683e-05
6.94722e-05
6.98154e-05
7.01976e-05
7.06146e-05
7.10634e-05
7.15192e-05
7.19982e-05
7.25119e-05
7.29982e-05
7.34576e-05
7.35752e-05
7.34013e-05
7.30734e-05
7.22877e-05
7.13348e-05
7.01068e-05
6.85392e-05
6.63468e-05
6.33709e-05
5.96133e-05
5.51309e-05
4.99831e-05
4.51437e-05
3.97773e-05
3.57587e-05
3.19912e-05
3.0882e-05
2.97605e-05
2.68988e-05
2.34193e-05
2.08276e-05
2.08605e-05
2.32739e-05
2.7165e-05
3.20648e-05
8.79977e-05
8.77248e-05
8.74374e-05
8.71397e-05
8.6834e-05
8.65204e-05
8.61992e-05
8.58707e-05
8.55354e-05
8.51938e-05
8.48465e-05
8.44943e-05
8.41381e-05
8.37787e-05
8.34174e-05
8.30553e-05
8.26937e-05
8.23339e-05
8.19776e-05
8.16262e-05
8.12812e-05
8.09448e-05
8.06192e-05
8.03066e-05
8.00092e-05
7.97297e-05
7.94713e-05
7.92325e-05
7.9028e-05
7.88204e-05
7.87014e-05
7.85606e-05
7.84961e-05
7.8456e-05
7.84385e-05
7.84558e-05
7.85054e-05
7.85707e-05
7.86363e-05
7.86269e-05
7.85034e-05
7.82113e-05
7.77838e-05
7.70399e-05
7.61183e-05
7.50593e-05
7.37625e-05
7.2203e-05
7.01174e-05
6.74244e-05
6.4041e-05
5.9899e-05
5.51331e-05
5.00669e-05
4.4534e-05
3.95006e-05
3.43109e-05
2.99753e-05
2.68998e-05
2.40031e-05
2.14115e-05
1.77805e-05
1.65857e-05
1.57127e-05
1.61167e-05
1.79033e-05
2.07607e-05
2.45288e-05
2.92091e-05
0.000105966
0.000105436
0.000104893
0.000104339
0.000103772
0.000103194
0.000102605
0.000102005
0.000101396
0.000100777
0.00010015
9.95148e-05
9.88731e-05
9.82256e-05
9.75733e-05
9.69175e-05
9.62595e-05
9.56001e-05
9.49408e-05
9.42832e-05
9.36288e-05
9.29797e-05
9.23375e-05
9.17048e-05
9.10848e-05
9.04813e-05
8.98973e-05
8.93354e-05
8.87983e-05
8.82849e-05
8.78008e-05
8.73402e-05
8.69028e-05
8.64539e-05
8.59835e-05
8.54515e-05
8.4846e-05
8.41444e-05
8.33332e-05
8.23457e-05
8.13151e-05
8.01632e-05
7.88782e-05
7.7342e-05
7.55358e-05
7.32448e-05
7.04621e-05
6.70571e-05
6.30393e-05
5.84526e-05
5.34e-05
4.79374e-05
4.26489e-05
3.69831e-05
3.16523e-05
2.70081e-05
2.24056e-05
1.86755e-05
1.46802e-05
1.257e-05
1.21614e-05
1.18132e-05
1.14455e-05
1.17677e-05
1.28581e-05
1.46286e-05
1.71054e-05
2.04716e-05
2.4858e-05
0.00012102
0.000120277
0.000119518
0.000118743
0.000117952
0.000117145
0.000116324
0.000115489
0.000114641
0.000113779
0.000112905
0.000112019
0.000111122
0.000110214
0.000109297
0.000108371
0.000107437
0.000106497
0.000105551
0.000104602
0.000103648
0.000102694
0.000101738
0.000100786
9.98387e-05
9.88934e-05
9.79459e-05
9.69917e-05
9.60251e-05
9.50386e-05
9.40223e-05
9.29645e-05
9.18485e-05
9.0709e-05
8.95298e-05
8.82905e-05
8.69685e-05
8.55339e-05
8.39644e-05
8.22087e-05
8.02174e-05
7.78372e-05
7.51492e-05
7.18838e-05
6.82585e-05
6.39653e-05
5.93395e-05
5.42074e-05
4.89829e-05
4.34372e-05
3.78134e-05
3.22854e-05
2.68487e-05
2.13504e-05
1.70476e-05
1.20606e-05
9.31136e-06
7.9672e-06
8.30281e-06
8.3203e-06
7.86302e-06
7.76279e-06
7.93354e-06
8.38166e-06
9.1242e-06
1.02922e-05
1.21336e-05
1.49266e-05
1.88308e-05
0.000130038
0.000129145
0.000128235
0.000127309
0.000126364
0.000125401
0.00012442
0.00012342
0.000122402
0.000121365
0.000120309
0.000119235
0.000118143
0.000117034
0.000115907
0.000114764
0.000113604
0.000112428
0.000111235
0.000110027
0.000108804
0.000107569
0.000106318
0.00010504
0.000103733
0.000102396
0.000101025
9.9616e-05
9.81603e-05
9.66487e-05
9.50674e-05
9.34031e-05
9.16346e-05
8.97295e-05
8.76543e-05
8.53895e-05
8.28933e-05
8.01372e-05
7.709e-05
7.3698e-05
6.99564e-05
6.57787e-05
6.13034e-05
5.64079e-05
5.1402e-05
4.60739e-05
4.07521e-05
3.5548e-05
2.98369e-05
2.39011e-05
1.87634e-05
1.38415e-05
9.62946e-06
6.79938e-06
4.99015e-06
4.27804e-06
4.59356e-06
4.75285e-06
4.68373e-06
4.73365e-06
4.7569e-06
4.76787e-06
4.76429e-06
4.77499e-06
4.92355e-06
5.36944e-06
6.37353e-06
8.19085e-06
1.10315e-05
0.000126189
0.000125288
0.00012436
0.000123406
0.000122428
0.000121425
0.000120398
0.000119347
0.000118271
0.000117171
0.000116046
0.000114896
0.000113721
0.000112519
0.000111291
0.000110036
0.000108754
0.000107443
0.000106107
0.000104741
0.000103353
0.000101918
0.000100423
9.88599e-05
9.72115e-05
9.54591e-05
9.35809e-05
9.1557e-05
8.93617e-05
8.69803e-05
8.43849e-05
8.15795e-05
7.85349e-05
7.52936e-05
7.18188e-05
6.82096e-05
6.44036e-05
6.05487e-05
5.65274e-05
5.23684e-05
4.7855e-05
4.33078e-05
3.84849e-05
3.37351e-05
2.84833e-05
2.31599e-05
1.80836e-05
1.28869e-05
9.15991e-06
6.53869e-06
4.54512e-06
3.01877e-06
2.16206e-06
1.77377e-06
1.7942e-06
1.89146e-06
2.0588e-06
2.23629e-06
2.36629e-06
2.40998e-06
2.38211e-06
2.23848e-06
2.03212e-06
1.85372e-06
1.75748e-06
1.75759e-06
2.04258e-06
2.68608e-06
3.87391e-06
9.87408e-05
9.78538e-05
9.69416e-05
9.60062e-05
9.50463e-05
9.40611e-05
9.30496e-05
9.20121e-05
9.09471e-05
8.98554e-05
8.87341e-05
8.75856e-05
8.64046e-05
8.51959e-05
8.39511e-05
8.26776e-05
8.13645e-05
8.00202e-05
7.8636e-05
7.72004e-05
7.56855e-05
7.41017e-05
7.24522e-05
7.07368e-05
6.89558e-05
6.71116e-05
6.52055e-05
6.32409e-05
6.12169e-05
5.91346e-05
5.69848e-05
5.4761e-05
5.2436e-05
4.99885e-05
4.73611e-05
4.45157e-05
4.13542e-05
3.78406e-05
3.38405e-05
2.95584e-05
2.50005e-05
2.02178e-05
1.53585e-05
1.07086e-05
7.28029e-06
4.86473e-06
3.18408e-06
2.10272e-06
1.40438e-06
9.20233e-07
5.91793e-07
4.41154e-07
3.91249e-07
3.7779e-07
3.99744e-07
4.61477e-07
5.28575e-07
5.88057e-07
6.2928e-07
6.34105e-07
6.06612e-07
5.40277e-07
4.55592e-07
3.76745e-07
3.23378e-07
2.97795e-07
3.29232e-07
4.33014e-07
6.5618e-07
5.33401e-05
5.39154e-05
5.4487e-05
5.50528e-05
5.56099e-05
5.61558e-05
5.66889e-05
5.72063e-05
5.77066e-05
5.8186e-05
5.8643e-05
5.90733e-05
5.94751e-05
5.98432e-05
6.01752e-05
6.04648e-05
6.07087e-05
6.08976e-05
6.10283e-05
6.11002e-05
6.10991e-05
6.10106e-05
6.08189e-05
6.05066e-05
6.00543e-05
5.94409e-05
5.86427e-05
5.76334e-05
5.63832e-05
5.48594e-05
5.30247e-05
5.08392e-05
4.82584e-05
4.52372e-05
4.17292e-05
3.76958e-05
3.31101e-05
2.7981e-05
2.23708e-05
1.64637e-05
1.06166e-05
5.5326e-06
2.10916e-06
7.00827e-07
5.40145e-07
5.49378e-07
5.13457e-07
4.38015e-07
3.61426e-07
2.7063e-07
2.10311e-07
1.81686e-07
1.62951e-07
1.44956e-07
1.338e-07
1.27276e-07
1.21296e-07
1.14034e-07
1.04063e-07
9.05438e-08
7.46242e-08
5.742e-08
4.14553e-08
2.89325e-08
2.06795e-08
1.6106e-08
1.55964e-08
2.05617e-08
2.9088e-08
5.06839e-06
5.06782e-06
5.06688e-06
5.06507e-06
5.06451e-06
5.06209e-06
5.0598e-06
5.05498e-06
5.05098e-06
5.04663e-06
5.04319e-06
5.044e-06
5.04821e-06
5.0514e-06
5.04655e-06
5.03703e-06
5.03827e-06
5.03886e-06
5.03702e-06
5.03028e-06
5.03151e-06
5.03945e-06
5.03218e-06
5.03158e-06
5.02472e-06
5.0168e-06
5.02276e-06
5.02564e-06
5.02866e-06
5.0289e-06
5.02663e-06
5.03015e-06
5.03303e-06
5.0302e-06
5.03134e-06
5.02662e-06
5.02835e-06
5.02977e-06
5.02984e-06
5.03684e-06
5.02796e-06
5.02946e-06
5.02724e-06
5.02491e-06
5.02829e-06
5.0247e-06
5.02031e-06
5.01928e-06
5.02124e-06
5.02221e-06
5.02278e-06
5.0269e-06
5.02984e-06
5.03215e-06
5.03589e-06
5.03902e-06
5.04141e-06
5.04306e-06
5.04497e-06
5.1747e-06
5.1727e-06
5.16985e-06
5.16698e-06
5.16374e-06
5.15951e-06
5.15523e-06
5.15066e-06
5.14798e-06
5.14634e-06
5.146e-06
5.14678e-06
5.14688e-06
5.14235e-06
5.13298e-06
5.13071e-06
5.13261e-06
5.13064e-06
5.12542e-06
5.12281e-06
5.12575e-06
5.12813e-06
5.11974e-06
5.11982e-06
5.11031e-06
5.10571e-06
5.11078e-06
5.11493e-06
5.11481e-06
5.11394e-06
5.11458e-06
5.11742e-06
5.1194e-06
5.11634e-06
5.1189e-06
5.11604e-06
5.11546e-06
5.11757e-06
5.11829e-06
5.12425e-06
5.12147e-06
5.12115e-06
5.11973e-06
5.11787e-06
5.11905e-06
5.11885e-06
5.11667e-06
5.11533e-06
5.1161e-06
5.11757e-06
5.11871e-06
5.12112e-06
5.12451e-06
5.12647e-06
5.12985e-06
5.13297e-06
5.13617e-06
5.13922e-06
5.14227e-06
5.29642e-06
5.29277e-06
5.28875e-06
5.28475e-06
5.28046e-06
5.27624e-06
5.27253e-06
5.26958e-06
5.26788e-06
5.26642e-06
5.26478e-06
5.26193e-06
5.25678e-06
5.24958e-06
5.24391e-06
5.24445e-06
5.24351e-06
5.23814e-06
5.23312e-06
5.23399e-06
5.2362e-06
5.23403e-06
5.2254e-06
5.22474e-06
5.21434e-06
5.21182e-06
5.21628e-06
5.22094e-06
5.21852e-06
5.21708e-06
5.21984e-06
5.22185e-06
5.22312e-06
5.22048e-06
5.22338e-06
5.22215e-06
5.22082e-06
5.22235e-06
5.2232e-06
5.22958e-06
5.23029e-06
5.23021e-06
5.22974e-06
5.22931e-06
5.22901e-06
5.23029e-06
5.22994e-06
5.22941e-06
5.22951e-06
5.23072e-06
5.23255e-06
5.23467e-06
5.23809e-06
5.24084e-06
5.24397e-06
5.24714e-06
5.25042e-06
5.25374e-06
5.25715e-06
5.43902e-06
5.43472e-06
5.43036e-06
5.42614e-06
5.42203e-06
5.41828e-06
5.41493e-06
5.41191e-06
5.40894e-06
5.40524e-06
5.40049e-06
5.39435e-06
5.38748e-06
5.3815e-06
5.37842e-06
5.37787e-06
5.37272e-06
5.36643e-06
5.36388e-06
5.36552e-06
5.36614e-06
5.35977e-06
5.35152e-06
5.34932e-06
5.33877e-06
5.33817e-06
5.34198e-06
5.34627e-06
5.3423e-06
5.34066e-06
5.34452e-06
5.34586e-06
5.34684e-06
5.34479e-06
5.34791e-06
5.34782e-06
5.34674e-06
5.34761e-06
5.34809e-06
5.3543e-06
5.35776e-06
5.35911e-06
5.35956e-06
5.36069e-06
5.36069e-06
5.36217e-06
5.3634e-06
5.36413e-06
5.36477e-06
5.36589e-06
5.36781e-06
5.37007e-06
5.37322e-06
5.37652e-06
5.37997e-06
5.38349e-06
5.38708e-06
5.39063e-06
5.39428e-06
5.61013e-06
5.6055e-06
5.60088e-06
5.59636e-06
5.59187e-06
5.58742e-06
5.58285e-06
5.57798e-06
5.5725e-06
5.56618e-06
5.55918e-06
5.55196e-06
5.54556e-06
5.54082e-06
5.53756e-06
5.53361e-06
5.52629e-06
5.52128e-06
5.52056e-06
5.52124e-06
5.51855e-06
5.50937e-06
5.50153e-06
5.49754e-06
5.48754e-06
5.48827e-06
5.4914e-06
5.4948e-06
5.4898e-06
5.48811e-06
5.49242e-06
5.49332e-06
5.49418e-06
5.49271e-06
5.49587e-06
5.49697e-06
5.4965e-06
5.49717e-06
5.4973e-06
5.50282e-06
5.50821e-06
5.51157e-06
5.51325e-06
5.51563e-06
5.51698e-06
5.51887e-06
5.5211e-06
5.52321e-06
5.52511e-06
5.52696e-06
5.52922e-06
5.5318e-06
5.53491e-06
5.53839e-06
5.54211e-06
5.54596e-06
5.54991e-06
5.55381e-06
5.55785e-06
5.81512e-06
5.80967e-06
5.80411e-06
5.79844e-06
5.79252e-06
5.78632e-06
5.77971e-06
5.77263e-06
5.76506e-06
5.75717e-06
5.74938e-06
5.74219e-06
5.73605e-06
5.73075e-06
5.72535e-06
5.71869e-06
5.71145e-06
5.70805e-06
5.70732e-06
5.70553e-06
5.69907e-06
5.6883e-06
5.68055e-06
5.67487e-06
5.66591e-06
5.66727e-06
5.66968e-06
5.67192e-06
5.66621e-06
5.66451e-06
5.66889e-06
5.66954e-06
5.67031e-06
5.66934e-06
5.67247e-06
5.67469e-06
5.67508e-06
5.67607e-06
5.67617e-06
5.68078e-06
5.68719e-06
5.69262e-06
5.69603e-06
5.69965e-06
5.70264e-06
5.70559e-06
5.70879e-06
5.71211e-06
5.7154e-06
5.71853e-06
5.72173e-06
5.72506e-06
5.72864e-06
5.73248e-06
5.73655e-06
5.74076e-06
5.74509e-06
5.74936e-06
5.75387e-06
6.05915e-06
6.05227e-06
6.04518e-06
6.03781e-06
6.03008e-06
6.02199e-06
6.01355e-06
6.00484e-06
5.99603e-06
5.98736e-06
5.97911e-06
5.97146e-06
5.9643e-06
5.95717e-06
5.94962e-06
5.94188e-06
5.9356e-06
5.93263e-06
5.93003e-06
5.9247e-06
5.91495e-06
5.90331e-06
5.89521e-06
5.88814e-06
5.8804e-06
5.88183e-06
5.88337e-06
5.8843e-06
5.8781e-06
5.87636e-06
5.88055e-06
5.88108e-06
5.88176e-06
5.88126e-06
5.88435e-06
5.88755e-06
5.88905e-06
5.89075e-06
5.89123e-06
5.89505e-06
5.9017e-06
5.9088e-06
5.91429e-06
5.91947e-06
5.92421e-06
5.9287e-06
5.93321e-06
5.93782e-06
5.94248e-06
5.94707e-06
5.95162e-06
5.95614e-06
5.96072e-06
5.96538e-06
5.97014e-06
5.97496e-06
5.97986e-06
5.98464e-06
5.98975e-06
6.35073e-06
6.34218e-06
6.33341e-06
6.32432e-06
6.3149e-06
6.30522e-06
6.29534e-06
6.2854e-06
6.27555e-06
6.26592e-06
6.2566e-06
6.24754e-06
6.23857e-06
6.22956e-06
6.22072e-06
6.2128e-06
6.2068e-06
6.2024e-06
6.1965e-06
6.18736e-06
6.17506e-06
6.16283e-06
6.15399e-06
6.14591e-06
6.13923e-06
6.1402e-06
6.14076e-06
6.14031e-06
6.13369e-06
6.13185e-06
6.13565e-06
6.13616e-06
6.1368e-06
6.1367e-06