/*--------------------------------*- C++ -*----------------------------------*\
| =========                 |                                                 |
| \\      /  F ield         | OpenFOAM: The Open Source CFD Toolbox           |
|  \\    /   O peration     | Version:  2312                                  |
|   \\  /    A nd           | Website:  www.openfoam.com                      |
|    \\/     M anipulation  |                                                 |
\*---------------------------------------------------------------------------*/
FoamFile
{
    version     2.0;
    format      ascii;
    arch        "LSB;label=32;scalar=64";
    class       volScalarField;
    location    "100";
    object      nut;
}
// * * * * * * * * * * * * * * * * * * * * * * * * * * * * * * * * * * * * * //

dimensions      [0 2 -1 0 0 0 0];

internalField   nonuniform List<scalar> 
76025
(
0.00017149
0.000171561
0.000171621
0.000171685
0.000171734
0.000171855
0.00017191
0.000172026
0.000172084
0.000172176
0.000172275
0.000172379
0.000172508
0.000172607
0.000172748
0.000172874
0.000173028
0.000173198
0.00017336
0.000173538
0.000173732
0.000173948
0.000174152
0.000174383
0.000174644
0.000174897
0.00017522
0.000175498
0.000175869
0.000176205
0.000176599
0.000177006
0.000177491
0.000177992
0.000178545
0.000179125
0.000179791
0.000180504
0.000181306
0.000182151
0.000183126
0.000184222
0.000185529
0.000187042
0.000188772
0.000190883
0.00019343
0.000196514
0.0002004
0.000205003
0.000210572
0.000216977
0.000224317
0.000232094
0.000241292
0.000250277
0.000260307
0.000270889
0.000282504
0.000295804
0.0003098
0.000326876
0.000346786
0.000368047
0.000391574
0.000408606
0.000425046
0.000426802
0.000423766
0.00017318
0.000173289
0.000173382
0.000173493
0.000173565
0.000173675
0.000173765
0.000173876
0.000173979
0.000174083
0.000174192
0.000174303
0.000174431
0.000174555
0.000174706
0.000174848
0.000175015
0.000175184
0.000175372
0.000175563
0.000175773
0.000175996
0.000176235
0.000176486
0.000176768
0.000177049
0.00017737
0.000177702
0.000178068
0.000178465
0.000178899
0.000179348
0.000179857
0.000180396
0.000180993
0.000181647
0.000182364
0.000183169
0.000184066
0.000185076
0.000186242
0.000187587
0.000189198
0.000191102
0.00019342
0.00019621
0.000199585
0.000203648
0.00020843
0.000214015
0.000220337
0.000227441
0.00023513
0.000243578
0.000252461
0.000262073
0.000272398
0.000283739
0.000296476
0.000310804
0.000327577
0.000346461
0.000367089
0.000387935
0.000408036
0.00042082
0.00043137
0.000424234
0.000410592
0.000175135
0.000175254
0.000175369
0.000175497
0.000175612
0.000175736
0.000175856
0.000175981
0.00017611
0.00017624
0.000176374
0.000176507
0.00017665
0.000176794
0.000176954
0.000177118
0.000177297
0.000177484
0.000177687
0.000177899
0.000178128
0.00017837
0.000178632
0.000178909
0.000179212
0.000179531
0.000179877
0.000180247
0.000180648
0.000181081
0.000181555
0.000182066
0.000182627
0.00018324
0.000183916
0.000184666
0.000185506
0.000186453
0.000187532
0.000188769
0.000190209
0.000191905
0.00019392
0.000196323
0.000199192
0.0002026
0.000206625
0.000211305
0.000216684
0.000222749
0.000229499
0.000236876
0.000244896
0.000253512
0.000262821
0.000272948
0.000284125
0.000296673
0.000310917
0.000327195
0.000345538
0.000365455
0.00038609
0.000405309
0.00042148
0.00042827
0.000431815
0.000414311
0.00039132
0.000177425
0.000177546
0.000177669
0.000177803
0.000177938
0.000178078
0.000178221
0.000178368
0.000178519
0.000178674
0.000178833
0.000178996
0.000179164
0.000179337
0.000179519
0.000179708
0.000179909
0.000180121
0.000180345
0.000180583
0.000180837
0.000181107
0.000181397
0.000181706
0.000182039
0.000182396
0.00018278
0.000183195
0.000183645
0.000184133
0.000184666
0.00018525
0.000185894
0.000186607
0.000187402
0.000188297
0.000189312
0.000190472
0.000191812
0.000193364
0.000195177
0.000197313
0.000199832
0.000202799
0.000206275
0.000210315
0.000214957
0.000220227
0.000226126
0.000232647
0.000239772
0.000247506
0.000255869
0.000264954
0.000274904
0.000285957
0.000298383
0.000312498
0.000328513
0.000346426
0.000365904
0.00038585
0.000404861
0.000420496
0.000430426
0.000430262
0.000425472
0.000397102
0.000365649
0.000180106
0.000180229
0.000180358
0.000180495
0.000180639
0.000180789
0.000180946
0.000181109
0.000181279
0.000181454
0.000181636
0.000181825
0.000182021
0.000182224
0.000182435
0.000182657
0.000182889
0.000183133
0.000183391
0.000183664
0.000183954
0.000184262
0.000184591
0.000184943
0.000185321
0.000185727
0.000186166
0.000186641
0.000187158
0.000187724
0.000188347
0.000189036
0.000189804
0.000190665
0.000191638
0.000192746
0.000194014
0.000195475
0.000197163
0.000199119
0.000201386
0.000204024
0.000207084
0.000210613
0.000214653
0.000219232
0.00022437
0.000230075
0.000236349
0.000243201
0.000250658
0.000258778
0.000267671
0.000277504
0.000288495
0.000300907
0.000314966
0.00033085
0.000348455
0.000367411
0.000386819
0.000405101
0.000420675
0.000430782
0.000433208
0.000425763
0.000411348
0.000372475
0.000334167
0.000183253
0.000183381
0.000183515
0.000183657
0.000183806
0.000183964
0.00018413
0.000184304
0.000184486
0.000184677
0.000184877
0.000185087
0.000185306
0.000185536
0.000185776
0.000186029
0.000186296
0.000186577
0.000186874
0.000187189
0.000187524
0.000187881
0.000188262
0.000188671
0.000189111
0.000189587
0.000190103
0.000190666
0.000191284
0.000191965
0.000192722
0.000193567
0.000194517
0.000195592
0.000196813
0.000198208
0.000199803
0.000201635
0.000203732
0.000206136
0.000208873
0.000212
0.000215554
0.000219565
0.000224059
0.000229056
0.000234573
0.000240629
0.000247256
0.00025451
0.000262477
0.000271286
0.000281112
0.000292161
0.000304648
0.000318761
0.000334553
0.000351924
0.000370369
0.000389114
0.00040677
0.00042159
0.000431967
0.00043491
0.000429198
0.000414211
0.000388793
0.000341193
0.000297602
0.000186962
0.000187094
0.000187234
0.000187382
0.000187538
0.000187703
0.000187877
0.00018806
0.000188253
0.000188457
0.000188671
0.000188898
0.000189136
0.000189388
0.000189654
0.000189936
0.000190235
0.000190553
0.000190891
0.000191252
0.000191638
0.000192052
0.000192498
0.00019298
0.000193502
0.000194071
0.000194694
0.00019538
0.000196138
0.000196982
0.000197924
0.000198981
0.000200173
0.000201521
0.000203048
0.00020478
0.000206744
0.00020897
0.000211481
0.000214315
0.000217478
0.000221028
0.000224992
0.000229394
0.000234262
0.000239625
0.000245521
0.000252008
0.000259164
0.000267097
0.000275951
0.000285894
0.000297113
0.000309775
0.000323992
0.000339761
0.000356858
0.000374832
0.000392788
0.000409643
0.000423695
0.000433351
0.000436964
0.000431606
0.000417858
0.000394756
0.000357605
0.000304397
0.00025733
0.000191337
0.000191477
0.000191626
0.000191782
0.000191948
0.000192122
0.000192306
0.0001925
0.000192706
0.000192923
0.000193153
0.000193396
0.000193654
0.000193929
0.000194221
0.000194533
0.000194866
0.000195223
0.000195607
0.00019602
0.000196465
0.000196948
0.000197471
0.000198043
0.000198669
0.000199357
0.000200116
0.000200957
0.000201892
0.000202935
0.000204102
0.00020541
0.000206879
0.000208528
0.000210379
0.000212457
0.000214782
0.00021738
0.000220269
0.00022348
0.00022702
0.000230939
0.000235274
0.00024006
0.000245343
0.000251183
0.000257654
0.000264855
0.000272908
0.000281957
0.000292156
0.000303654
0.000316567
0.000330929
0.000346656
0.000363468
0.000380833
0.00039798
0.000413728
0.000426852
0.000435558
0.000438647
0.000434245
0.000420226
0.000398937
0.000366537
0.000318592
0.000263985
0.000215888
0.000196502
0.000196656
0.000196817
0.000196988
0.000197167
0.000197356
0.000197555
0.000197765
0.000197988
0.000198224
0.000198474
0.000198741
0.000199025
0.000199328
0.000199654
0.000200003
0.000200379
0.000200784
0.000201223
0.000201699
0.000202217
0.000202782
0.000203401
0.00020408
0.000204829
0.000205657
0.000206574
0.000207593
0.000208725
0.000209987
0.000211393
0.000212961
0.000214708
0.000216653
0.000218816
0.000221217
0.000223876
0.000226815
0.000230059
0.000233632
0.000237564
0.000241895
0.000246691
0.000252015
0.00025794
0.000264557
0.000271975
0.000280316
0.000289713
0.00030029
0.000312151
0.000325343
0.000339832
0.000355444
0.000371853
0.000388495
0.000404589
0.000419149
0.000430869
0.000438548
0.000440516
0.000435995
0.000422788
0.000400658
0.000371968
0.000328931
0.000273476
0.000223598
0.000173921
0.000202615
0.000202788
0.000202969
0.000203159
0.000203358
0.000203568
0.000203789
0.000204023
0.00020427
0.000204533
0.000204812
0.000205111
0.00020543
0.000205772
0.000206141
0.000206539
0.00020697
0.000207437
0.000207944
0.000208497
0.000209103
0.000209766
0.000210496
0.0002113
0.000212187
0.000213169
0.000214257
0.000215462
0.000216799
0.000218282
0.000219927
0.00022175
0.000223768
0.000226001
0.000228469
0.000231192
0.000234197
0.00023751
0.000241166
0.0002452
0.000249667
0.00025461
0.000260132
0.000266316
0.000273261
0.000281071
0.000289857
0.000299724
0.000310756
0.000322997
0.000336429
0.000350939
0.000366296
0.000382099
0.000397808
0.000412633
0.000425679
0.000435858
0.000441896
0.000442768
0.000437063
0.000424241
0.000402171
0.000373138
0.000335957
0.000282353
0.000229221
0.000183353
0.000130088
0.000209882
0.000210081
0.000210288
0.000210505
0.000210732
0.00021097
0.000211221
0.000211487
0.000211767
0.000212066
0.000212384
0.000212724
0.000213088
0.000213481
0.000213905
0.000214363
0.000214861
0.000215402
0.000215992
0.000216638
0.000217345
0.000218122
0.000218977
0.00021992
0.00022096
0.000222108
0.000223378
0.000224782
0.000226335
0.000228052
0.00022995
0.000232047
0.000234365
0.000236927
0.000239757
0.000242887
0.000246351
0.000250191
0.000254455
0.000259199
0.000264491
0.000270403
0.000277028
0.000284468
0.000292816
0.000302153
0.000312545
0.000324022
0.000336569
0.000350097
0.000364429
0.000379275
0.000394214
0.000408672
0.000421966
0.000433179
0.000441459
0.000445674
0.000444745
0.00043794
0.000424076
0.000402677
0.00037271
0.000337637
0.000289349
0.00023338
0.000188035
0.000139327
8.82224e-05
0.00021858
0.000218812
0.000219053
0.000219306
0.00021957
0.000219846
0.000220137
0.000220443
0.000220768
0.000221113
0.000221481
0.000221875
0.000222298
0.000222753
0.000223245
0.000223779
0.000224358
0.00022499
0.00022568
0.000226435
0.000227264
0.000228175
0.000229178
0.000230282
0.000231501
0.000232846
0.000234333
0.000235975
0.000237792
0.000239802
0.000242026
0.00024449
0.000247221
0.000250251
0.000253618
0.000257363
0.000261534
0.000266188
0.000271384
0.00027719
0.000283676
0.000290918
0.000298978
0.000307934
0.000317833
0.000328692
0.000340486
0.000353137
0.000366497
0.000380336
0.000394325
0.000408031
0.000420895
0.000432262
0.000441383
0.000447329
0.000449419
0.000446449
0.000437789
0.00042298
0.000400839
0.000371291
0.000335215
0.00029082
0.000236886
0.000189059
0.000145655
0.00010011
6.21243e-05
0.000229084
0.00022936
0.000229647
0.000229947
0.000230261
0.00023059
0.000230935
0.000231298
0.000231683
0.000232092
0.000232528
0.000232994
0.000233495
0.000234035
0.000234618
0.00023525
0.000235939
0.00023669
0.000237511
0.000238412
0.000239401
0.00024049
0.00024169
0.000243015
0.000244479
0.000246098
0.000247892
0.000249879
0.000252085
0.000254534
0.000257256
0.000260285
0.000263659
0.000267418
0.00027161
0.000276285
0.000281497
0.000287304
0.000293761
0.000300925
0.000308844
0.000317556
0.000327082
0.000337419
0.000348534
0.000360363
0.000372772
0.000385566
0.000398483
0.000411172
0.0004232
0.000434054
0.000443103
0.000449718
0.000453116
0.000452505
0.000447408
0.000436497
0.000419991
0.000397313
0.00036716
0.000331012
0.000287471
0.000238902
0.000187575
0.000147252
0.00010441
6.6651e-05
5.00588e-05
0.000241923
0.000242262
0.000242614
0.000242983
0.000243369
0.000243773
0.000244198
0.000244646
0.000245121
0.000245626
0.000246164
0.000246739
0.000247358
0.000248025
0.000248747
0.000249531
0.000250385
0.000251319
0.000252342
0.000253466
0.000254704
0.00025607
0.000257579
0.00025925
0.000261102
0.000263158
0.00026544
0.000267978
0.000270801
0.000273941
0.000277436
0.000281325
0.000285648
0.000290449
0.000295772
0.000301661
0.000308157
0.000315297
0.000323107
0.000331606
0.000340793
0.000350646
0.000361119
0.00037213
0.000383558
0.000395232
0.000406936
0.000418393
0.00042926
0.000439112
0.000447481
0.000453826
0.000457518
0.000458031
0.00045454
0.000446607
0.000433796
0.000414767
0.000391027
0.000360893
0.000323661
0.00028004
0.000233828
0.000186158
0.000143936
0.000105116
7.02434e-05
4.78809e-05
4.64432e-05
0.0002579
0.000258333
0.000258786
0.000259262
0.000259762
0.000260287
0.000260842
0.000261429
0.000262052
0.000262716
0.000263426
0.000264188
0.000265007
0.000265893
0.000266853
0.000267898
0.000269039
0.000270287
0.000271657
0.000273164
0.000274825
0.000276659
0.000278686
0.000280929
0.000283413
0.000286163
0.000289209
0.00029258
0.000296308
0.000300426
0.000304966
0.000309961
0.000315442
0.000321437
0.000327968
0.000335054
0.000342703
0.000350911
0.000359662
0.000368919
0.000378626
0.000388698
0.00039902
0.000409445
0.00041978
0.000429792
0.000439202
0.00044767
0.000454833
0.00046024
0.000463455
0.000463927
0.000461121
0.000454638
0.000443602
0.000428214
0.000407608
0.000381084
0.000351322
0.000312374
0.000268753
0.000225363
0.000180468
0.000138685
0.000102622
7.04137e-05
4.67316e-05
4.27471e-05
4.69816e-05
0.000278329
0.000278925
0.000279552
0.000280215
0.000280915
0.000281656
0.000282443
0.000283279
0.000284172
0.000285126
0.00028615
0.000287251
0.000288439
0.000289723
0.000291116
0.000292629
0.000294277
0.000296075
0.00029804
0.000300188
0.00030254
0.000305116
0.000307937
0.000311025
0.000314402
0.000318093
0.00032212
0.000326505
0.000331269
0.00033643
0.000342005
0.000348006
0.000354439
0.000361305
0.000368596
0.000376293
0.000384367
0.000392773
0.000401449
0.000410313
0.00041926
0.000428156
0.000436842
0.000445122
0.000452765
0.000459506
0.00046504
0.000469014
0.000471077
0.000470754
0.000467735
0.000461418
0.000451519
0.000437663
0.000419072
0.000396744
0.000368724
0.000336427
0.000298402
0.000253602
0.000212722
0.000171184
0.00013006
9.70774e-05
6.76476e-05
4.48214e-05
3.95765e-05
4.26703e-05
4.64966e-05
0.000305624
0.000306535
0.0003075
0.000308524
0.00030961
0.000310764
0.000311991
0.000313297
0.000314691
0.000316179
0.00031777
0.000319472
0.000321297
0.000323253
0.000325352
0.000327605
0.000330027
0.000332628
0.000335423
0.000338426
0.000341649
0.000345108
0.000348814
0.000352781
0.000357021
0.000361543
0.000366356
0.000371466
0.000376875
0.000382583
0.000388584
0.000394866
0.000401412
0.000408197
0.000415183
0.000422325
0.000429562
0.000436818
0.000444
0.000450994
0.000457664
0.00046385
0.000469365
0.000473995
0.000477491
0.000479587
0.00047997
0.000478311
0.000474296
0.00046744
0.000457645
0.000444139
0.000427224
0.000406142
0.000380855
0.000352559
0.000316413
0.000278194
0.000236293
0.000195007
0.000159
0.00011915
8.84829e-05
6.29935e-05
4.16538e-05
3.66796e-05
3.86609e-05
4.22154e-05
5.10739e-05
0.000344912
0.000346415
0.000347996
0.000349658
0.000351403
0.000353236
0.000355162
0.000357184
0.000359308
0.000361538
0.00036388
0.000366338
0.000368919
0.000371626
0.000374465
0.000377443
0.000380563
0.000383831
0.000387252
0.00039083
0.000394569
0.000398472
0.000402541
0.000406776
0.000411178
0.000415744
0.000420467
0.000425341
0.000430354
0.000435489
0.000440727
0.000446038
0.000451389
0.000456736
0.000462026
0.000467191
0.000472154
0.000476819
0.000481074
0.000484789
0.000487813
0.000489972
0.000491071
0.000490892
0.000489184
0.000485705
0.000480131
0.000472217
0.000461667
0.000448014
0.000431512
0.000410996
0.000387937
0.000360343
0.000328931
0.000292874
0.000251929
0.000215964
0.000175177
0.000141356
0.000107496
7.73798e-05
5.64397e-05
3.77648e-05
3.36211e-05
3.51208e-05
3.79734e-05
4.44061e-05
6.80473e-05
0.000404608
0.000406691
0.000408836
0.000411041
0.000413305
0.00041563
0.000418016
0.000420462
0.00042297
0.000425538
0.000428168
0.000430858
0.000433608
0.000436419
0.000439289
0.000442217
0.000445202
0.000448243
0.000451338
0.000454485
0.00045768
0.000460919
0.000464198
0.00046751
0.000470847
0.000474198
0.000477551
0.00048089
0.000484193
0.000487436
0.000490588
0.000493613
0.000496463
0.000499085
0.000501414
0.000503372
0.000504869
0.0005058
0.000506043
0.000505459
0.00050389
0.000501159
0.000497075
0.000491423
0.000483967
0.000474512
0.000462693
0.0004485
0.000431485
0.000411413
0.000388976
0.000362372
0.000333549
0.00029809
0.000262021
0.0002251
0.000188128
0.000154979
0.000119938
9.2886e-05
6.60243e-05
4.75983e-05
3.30975e-05
3.00872e-05
3.15856e-05
3.35645e-05
3.89297e-05
5.84402e-05
9.23008e-05
0.000485467
0.000487285
0.000489109
0.000490939
0.000492769
0.000494599
0.000496426
0.000498248
0.000500062
0.000501866
0.000503657
0.000505432
0.000507188
0.000508922
0.000510629
0.000512306
0.000513949
0.000515553
0.000517113
0.000518622
0.000520075
0.000521463
0.000522777
0.000524007
0.00052514
0.000526158
0.000527045
0.000527778
0.00052833
0.000528671
0.000528762
0.00052856
0.000528011
0.000527055
0.000525618
0.000523615
0.00052095
0.000517511
0.000513173
0.000507787
0.000501201
0.000493238
0.000483735
0.000472467
0.000459256
0.000443968
0.000426161
0.000406386
0.000383442
0.000358307
0.00032928
0.000296027
0.000262202
0.000226691
0.000193539
0.000159621
0.000128978
0.00010008
7.47561e-05
5.47764e-05
3.83426e-05
2.8678e-05
2.68995e-05
2.79475e-05
2.9424e-05
3.45886e-05
5.11321e-05
7.8981e-05
0.000115678
0.000570267
0.000570783
0.000571256
0.000571683
0.000572059
0.000572381
0.000572646
0.000572851
0.000572991
0.000573063
0.000573063
0.000572987
0.000572831
0.000572588
0.000572255
0.000571825
0.000571293
0.000570651
0.000569892
0.000569007
0.000567989
0.000566825
0.000565503
0.000564009
0.00056232
0.000560417
0.000558279
0.000555879
0.000553188
0.000550167
0.000546778
0.000542966
0.000538678
0.000533846
0.000528391
0.000522221
0.000515238
0.000507323
0.00049836
0.00048817
0.000476644
0.000463615
0.000448984
0.000432456
0.000414081
0.000393653
0.00037086
0.000345772
0.000315984
0.00028538
0.000253083
0.00022067
0.000189202
0.000158023
0.000129639
0.000101744
7.86026e-05
5.79259e-05
4.19611e-05
3.00891e-05
2.39201e-05
2.31589e-05
2.36126e-05
2.51638e-05
3.04075e-05
4.3875e-05
6.55145e-05
9.45207e-05
0.000126681
0.000634315
0.000633093
0.000631788
0.000630396
0.000628915
0.000627341
0.000625672
0.000623903
0.000622031
0.00062005
0.000617956
0.000615745
0.00061341
0.000610946
0.000608346
0.000605604
0.000602712
0.00059966
0.000596441
0.000593044
0.000589457
0.000585665
0.000581652
0.000577393
0.00057284
0.000567992
0.000562839
0.000557347
0.000551487
0.000545188
0.000538457
0.000531185
0.000523354
0.000514876
0.000505657
0.000495607
0.000484635
0.00047261
0.000459443
0.000444841
0.000428961
0.000411584
0.000392684
0.000371804
0.000348129
0.000321854
0.000294101
0.000264942
0.000234453
0.000205784
0.000176205
0.000148771
0.000121976
9.76762e-05
7.60068e-05
5.70356e-05
4.23612e-05
3.00896e-05
2.33594e-05
1.98021e-05
1.90824e-05
1.95049e-05
2.01499e-05
2.70735e-05
3.92132e-05
5.62107e-05
7.64325e-05
9.85286e-05
0.000123335
0.000658153
0.000655374
0.000652449
0.000649402
0.000646247
0.000642977
0.000639587
0.000636073
0.000632427
0.000628645
0.000624721
0.000620649
0.000616422
0.000612033
0.000607475
0.000602739
0.000597816
0.000592697
0.000587369
0.00058182
0.000576034
0.000569997
0.000563692
0.000557097
0.000550187
0.000542938
0.000535322
0.000527277
0.000518844
0.000509716
0.000500421
0.000490179
0.000479538
0.000468093
0.000455764
0.000442542
0.000428348
0.000412993
0.000396426
0.000378079
0.0003582
0.000335983
0.000312926
0.000287003
0.000261228
0.000234057
0.000207464
0.000181321
0.000154926
0.000131351
0.000107169
8.68122e-05
6.7681e-05
5.19901e-05
3.83786e-05
2.81991e-05
2.12192e-05
1.7466e-05
1.56403e-05
1.44868e-05
1.39407e-05
1.56472e-05
2.4414e-05
3.49881e-05
4.71018e-05
5.99048e-05
7.3387e-05
8.86013e-05
0.000106465
0.00062936
0.000625509
0.000621538
0.000617441
0.000613216
0.000608857
0.000604361
0.000599723
0.000594937
0.000589998
0.0005849
0.000579637
0.000574202
0.000568587
0.000562783
0.000556782
0.000550574
0.000544146
0.000537485
0.000530579
0.000523412
0.000515968
0.000508227
0.000500165
0.00049176
0.000482987
0.000473815
0.000464201
0.000454102
0.000443453
0.000432215
0.000420296
0.000407625
0.000393983
0.000379271
0.000363288
0.000346009
0.000327314
0.000307437
0.000285847
0.00026411
0.000240649
0.000218288
0.000193617
0.000171615
0.000147439
0.000126584
0.000105352
8.68643e-05
7.0185e-05
5.45867e-05
4.25731e-05
3.17947e-05
2.3271e-05
1.78522e-05
1.45789e-05
1.21295e-05
1.04485e-05
8.74377e-06
9.58509e-06
1.51553e-05
2.27529e-05
3.05792e-05
3.77288e-05
4.40667e-05
5.05247e-05
5.7513e-05
6.70695e-05
8.05161e-05
0.000542331
0.000538204
0.000533956
0.000529583
0.000525081
0.000520449
0.00051568
0.000510772
0.00050572
0.000500517
0.000495159
0.000489639
0.000483949
0.000478081
0.000472025
0.000465775
0.00045932
0.000452649
0.000445752
0.000438615
0.000431221
0.000423551
0.000415572
0.000407261
0.000398575
0.000389452
0.000379827
0.00036963
0.000358789
0.000347228
0.000334864
0.000321628
0.00030743
0.000292401
0.000276465
0.000259645
0.000241942
0.000223399
0.00020438
0.000184568
0.000165283
0.0001449
0.000126819
0.000107323
9.1768e-05
7.48738e-05
6.2382e-05
4.93762e-05
3.98873e-05
3.00809e-05
2.28108e-05
1.70529e-05
1.32806e-05
1.05654e-05
8.49094e-06
6.29075e-06
5.25744e-06
5.86485e-06
1.0268e-05
1.55802e-05
2.04367e-05
2.47532e-05
2.76791e-05
2.96835e-05
3.08606e-05
3.23116e-05
3.53988e-05
4.14184e-05
5.10474e-05
0.000398753
0.000395225
0.000391606
0.000387893
0.000384082
0.000380167
0.000376146
0.000372013
0.000367765
0.000363397
0.000358902
0.000354277
0.000349513
0.000344606
0.000339547
0.000334329
0.000328942
0.000323378
0.00031763
0.000311673
0.000305495
0.000299059
0.000292275
0.000285036
0.000277292
0.000269005
0.000260131
0.000250628
0.000240452
0.000229577
0.000217963
0.000205638
0.000192567
0.000178863
0.000164493
0.000149798
0.000134742
0.00011985
0.000105137
9.10945e-05
7.7902e-05
6.5636e-05
5.48774e-05
4.49465e-05
3.6967e-05
2.94021e-05
2.38726e-05
1.84188e-05
1.37053e-05
1.03595e-05
8.16107e-06
6.09102e-06
4.38649e-06
3.30407e-06
2.83234e-06
3.44793e-06
5.92872e-06
9.0597e-06
1.26611e-05
1.50358e-05
1.6634e-05
1.70599e-05
1.66427e-05
1.55524e-05
1.4444e-05
1.40569e-05
1.50614e-05
1.79417e-05
2.31412e-05
0.000221492
0.000219352
0.000217154
0.000214897
0.000212581
0.000210205
0.000207764
0.000205258
0.000202683
0.000200036
0.000197313
0.000194513
0.000191625
0.000188653
0.000185581
0.000182415
0.000179137
0.000175747
0.000172254
0.000168555
0.000164676
0.000160386
0.000155616
0.000150355
0.000144577
0.000138266
0.00013142
0.000124059
0.000116208
0.000107947
9.93316e-05
9.05309e-05
8.16041e-05
7.28341e-05
6.42224e-05
5.6153e-05
4.84908e-05
4.16678e-05
3.53599e-05
2.99181e-05
2.48551e-05
2.06904e-05
1.68236e-05
1.37791e-05
1.07907e-05
8.39053e-06
6.19129e-06
4.48582e-06
3.32132e-06
2.5413e-06
1.91531e-06
1.45953e-06
1.4073e-06
1.58286e-06
2.42826e-06
3.44951e-06
4.65517e-06
5.59576e-06
6.39249e-06
6.79928e-06
6.79333e-06
6.24209e-06
5.35082e-06
4.4652e-06
3.80612e-06
3.38155e-06
3.47223e-06
4.16183e-06
5.69568e-06
6.69499e-05
6.62181e-05
6.54671e-05
6.4698e-05
6.39098e-05
6.31024e-05
6.22743e-05
6.14263e-05
6.05553e-05
5.96641e-05
5.87456e-05
5.78076e-05
5.68352e-05
5.58462e-05
5.48102e-05
5.37648e-05
5.26516e-05
5.15419e-05
5.03312e-05
4.88055e-05
4.69673e-05
4.48854e-05
4.26136e-05
4.01974e-05
3.76861e-05
3.5124e-05
3.25565e-05
3.00185e-05
2.75457e-05
2.51598e-05
2.28841e-05
2.07252e-05
1.86936e-05
1.67816e-05
1.49887e-05
1.32953e-05
1.16922e-05
1.01555e-05
8.67067e-06
7.26422e-06
5.94932e-06
4.69108e-06
3.52897e-06
2.48124e-06
1.71999e-06
1.21658e-06
8.74331e-07
7.02577e-07
5.93892e-07
5.0322e-07
4.001e-07
3.40249e-07
3.27922e-07
3.3447e-07
3.71767e-07
4.44121e-07
5.24721e-07
5.9829e-07
6.5405e-07
6.66662e-07
6.38855e-07
5.64605e-07
4.67505e-07
3.76258e-07
3.12376e-07
2.73851e-07
2.8109e-07
3.40043e-07
4.88204e-07
6.21985e-06
6.29204e-06
6.36456e-06
6.43722e-06
6.50974e-06
6.58186e-06
6.65344e-06
6.7242e-06
6.79398e-06
6.86242e-06
6.92935e-06
6.99433e-06
7.05715e-06
7.11729e-06
7.17446e-06
7.22797e-06
7.27744e-06
7.32183e-06
7.36074e-06
7.39407e-06
7.42017e-06
7.43737e-06
7.44379e-06
7.43731e-06
7.41556e-06
7.37588e-06
7.31524e-06
7.23019e-06
7.11674e-06
6.97039e-06
6.78584e-06
6.55722e-06
6.27768e-06
5.93987e-06
5.53561e-06
5.05703e-06
4.49685e-06
3.85161e-06
3.12434e-06
2.33485e-06
1.52923e-06
8.08589e-07
3.11905e-07
1.04494e-07
8.10195e-08
8.28744e-08
7.79041e-08
6.68471e-08
5.54811e-08
4.17864e-08
3.266e-08
2.83743e-08
2.55905e-08
2.289e-08
2.12431e-08
2.03151e-08
1.94619e-08
1.83906e-08
1.68666e-08
1.4747e-08
1.22118e-08
9.43946e-09
6.845e-09
4.79737e-09
3.44264e-09
2.69137e-09
2.61543e-09
3.45934e-09
4.90853e-09
0.000171738
0.000171711
0.000171671
0.000171614
0.000171587
0.000171514
0.00017145
0.000171336
0.000171233
0.000171115
0.00017102
0.000170967
0.000170987
0.000171018
0.000170851
0.000170644
0.000170604
0.000170571
0.000170508
0.000170377
0.000170386
0.000170524
0.000170377
0.000170341
0.0001702
0.000170028
0.000170098
0.000170133
0.000170187
0.00017017
0.000170104
0.000170148
0.00017019
0.000170164
0.000170207
0.000170165
0.000170227
0.000170286
0.000170311
0.000170466
0.000170332
0.00017039
0.000170386
0.000170428
0.00017053
0.000170496
0.000170476
0.000170519
0.00017061
0.000170668
0.000170706
0.000170825
0.000170921
0.000171001
0.000171106
0.000171199
0.000171282
0.000171343
0.00017141
0.000173594
0.00017354
0.000173467
0.000173394
0.000173313
0.000173211
0.000173107
0.000172992
0.000172906
0.000172834
0.000172787
0.000172765
0.00017273
0.000172577
0.000172348
0.00017227
0.000172269
0.000172192
0.000172076
0.000172017
0.000172061
0.000172099
0.000171925
0.000171908
0.000171714
0.00017161
0.000171662
0.000171719
0.00017172
0.000171686
0.000171669
0.000171701
0.00017173
0.000171695
0.000171765
0.000171747
0.00017177
0.000171845
0.000171879
0.000172021
0.00017199
0.000172016
0.000172021
0.000172031
0.000172125
0.000172163
0.000172155
0.000172186
0.000172257
0.000172338
0.000172395
0.000172473
0.000172576
0.000172645
0.000172739
0.000172828
0.000172917
0.000173002
0.000173085
0.000175664
0.00017558
0.000175488
0.000175394
0.000175293
0.00017519
0.000175094
0.000175006
0.000174944
0.000174884
0.000174818
0.000174721
0.000174582
0.00017439
0.000174247
0.000174235
0.000174184
0.000174047
0.000173945
0.00017395
0.00017398
0.000173934
0.000173757
0.000173728
0.000173522
0.000173447
0.000173497
0.000173562
0.000173524
0.000173482
0.0001735
0.000173519
0.000173537
0.000173506
0.000173582
0.000173589
0.000173595
0.000173662
0.000173699
0.000173849
0.000173885
0.000173909
0.00017393
0.000173957
0.000173999
0.000174079
0.000174111
0.00017414
0.000174186
0.000174258
0.000174336
0.000174412
0.000174513
0.000174599
0.000174688
0.000174776
0.000174863
0.00017495
0.000175036
0.000178038
0.000177943
0.000177846
0.000177749
0.000177652
0.000177559
0.000177471
0.000177386
0.0001773
0.000177198
0.000177073
0.00017692
0.000176753
0.000176601
0.000176518
0.00017649
0.00017636
0.000176222
0.000176167
0.000176188
0.000176191
0.000176067
0.000175899
0.000175844
0.000175635
0.000175595
0.000175638
0.000175696
0.000175633
0.000175588
0.000175625
0.000175633
0.000175646
0.000175622
0.000175703
0.000175726
0.000175734
0.000175787
0.000175819
0.000175965
0.000176053
0.000176104
0.000176135
0.000176189
0.00017622
0.000176295
0.000176362
0.000176415
0.000176463
0.000176521
0.000176596
0.000176675
0.00017677
0.000176866
0.000176961
0.000177055
0.000177147
0.000177236
0.000177325
0.00018083
0.000180731
0.00018063
0.000180529
0.000180426
0.000180322
0.000180213
0.000180097
0.000179967
0.000179821
0.00017966
0.000179495
0.000179348
0.000179233
0.000179154
0.000179061
0.000178901
0.000178797
0.000178776
0.000178782
0.000178723
0.000178552
0.000178394
0.000178309
0.00017811
0.000178097
0.000178129
0.000178173
0.000178092
0.000178048
0.000178092
0.000178094
0.000178105
0.000178088
0.000178167
0.000178211
0.000178227
0.000178274
0.000178299
0.000178432
0.000178554
0.00017864
0.000178691
0.000178764
0.000178814
0.000178883
0.000178963
0.00017904
0.00017911
0.000179176
0.000179252
0.000179335
0.000179425
0.000179521
0.000179618
0.000179716
0.000179813
0.000179907
0.000180001
0.0001841
0.000183988
0.000183873
0.000183754
0.000183628
0.000183496
0.000183354
0.000183203
0.000183042
0.000182875
0.000182709
0.000182555
0.000182422
0.000182307
0.000182192
0.000182053
0.000181905
0.000181837
0.000181817
0.000181779
0.000181656
0.00018146
0.000181308
0.000181194
0.000181013
0.000181016
0.000181037
0.000181062
0.00018097
0.000180926
0.000180973
0.00018097
0.000180979
0.000180969
0.000181044
0.000181109
0.000181136
0.000181186
0.000181208
0.000181323
0.000181463
0.000181585
0.000181666
0.000181756
0.000181833
0.000181913
0.000182002
0.000182096
0.000182189
0.000182277
0.000182365
0.000182455
0.000182549
0.000182647
0.000182747
0.000182847
0.000182948
0.000183045
0.000183145
0.000187897
0.000187764
0.000187626
0.000187482
0.00018733
0.00018717
0.000187004
0.000186832
0.000186657
0.000186486
0.000186322
0.000186169
0.000186026
0.000185884
0.000185736
0.000185585
0.000185465
0.000185408
0.000185356
0.000185258
0.000185083
0.000184876
0.000184721
0.000184585
0.000184427
0.000184433
0.000184441
0.000184447
0.000184347
0.000184304
0.000184347
0.000184343
0.000184351
0.000184346
0.000184417
0.000184496
0.000184542
0.000184602
0.000184628
0.000184726
0.000184869
0.000185019
0.000185135
0.000185248
0.000185353
0.000185454
0.000185559
0.000185668
0.000185779
0.000185889
0.000185998
0.000186105
0.000186212
0.000186319
0.000186426
0.000186533
0.00018664
0.000186743
0.000186849
0.000192318
0.000192163
0.000192003
0.000191836
0.000191663
0.000191485
0.000191303
0.000191119
0.000190936
0.000190757
0.000190584
0.000190415
0.000190248
0.000190081
0.000189918
0.000189773
0.000189665
0.000189587
0.000189482
0.000189323
0.00018911
0.000188897
0.000188733
0.000188582
0.000188445
0.000188447
0.000188442
0.000188425
0.00018832
0.000188276
0.000188314
0.000188309
0.000188316
0.000188317