/*--------------------------------*- C++ -*----------------------------------*\
| =========                 |                                                 |
| \\      /  F ield         | OpenFOAM: The Open Source CFD Toolbox           |
|  \\    /   O peration     | Version:  2312                                  |
|   \\  /    A nd           | Website:  www.openfoam.com                      |
|    \\/     M anipulation  |                                                 |
\*---------------------------------------------------------------------------*/
FoamFile
{
    version     2.0;
    format      ascii;
    arch        "LSB;label=32;scalar=64";
    class       volScalarField;
    location    "100";
    object      omega;
}
// * * * * * * * * * * * * * * * * * * * * * * * * * * * * * * * * * * * * * //

dimensions      [0 0 -1 0 0 0 0];

internalField   nonuniform List<scalar> 
76025
(
0.0294308
0.0294279
0.029424
0.0294204
0.0294157
0.0294175
0.0294162
0.0294162
0.0294145
0.0294152
0.029417
0.0294197
0.0294262
0.0294277
0.0294357
0.0294412
0.0294507
0.0294626
0.0294722
0.0294849
0.0294994
0.0295172
0.0295321
0.0295516
0.0295743
0.0295955
0.0296263
0.0296492
0.0296855
0.0297146
0.0297499
0.0297876
0.0298359
0.0298865
0.0299442
0.030005
0.0300793
0.0301604
0.0302535
0.0303526
0.030464
0.0305948
0.0307434
0.030908
0.0311056
0.0313283
0.031586
0.0318962
0.0322508
0.0326549
0.0331429
0.0337037
0.0343703
0.0351089
0.0360489
0.0370272
0.0381855
0.039505
0.040982
0.0427538
0.0445896
0.0468108
0.0493244
0.0524031
0.0559597
0.060774
0.0662683
0.0745735
0.0843568
0.0297132
0.029716
0.0297186
0.0297194
0.0297188
0.0297215
0.0297229
0.0297261
0.029729
0.0297318
0.0297354
0.0297394
0.0297461
0.0297519
0.0297621
0.0297703
0.0297826
0.0297947
0.0298097
0.0298247
0.0298423
0.0298619
0.0298833
0.0299064
0.0299338
0.0299605
0.0299928
0.0300261
0.0300638
0.0301055
0.0301518
0.0301989
0.0302543
0.0303128
0.0303792
0.0304527
0.0305338
0.0306266
0.0307295
0.0308454
0.0309775
0.031126
0.0312992
0.0314968
0.0317273
0.0319935
0.0323053
0.0326677
0.0330886
0.0335803
0.0341434
0.0347975
0.0355387
0.036401
0.0373681
0.0384791
0.0397549
0.0411987
0.0428638
0.0447181
0.0468434
0.0492698
0.0520899
0.0555461
0.059682
0.0654903
0.0721851
0.0822714
0.0947351
0.0300401
0.0300463
0.0300526
0.0300594
0.0300646
0.0300705
0.0300763
0.0300826
0.0300896
0.0300968
0.0301045
0.0301122
0.0301215
0.0301307
0.0301427
0.030155
0.0301698
0.0301854
0.0302033
0.0302225
0.0302438
0.030267
0.0302927
0.0303206
0.030352
0.0303854
0.0304224
0.0304625
0.0305067
0.0305547
0.0306082
0.0306658
0.0307296
0.0307996
0.0308771
0.0309631
0.0310592
0.0311671
0.0312884
0.0314252
0.0315805
0.0317578
0.0319612
0.0321948
0.032464
0.0327742
0.0331324
0.033544
0.0340177
0.0345597
0.0351816
0.0358914
0.0367065
0.0376372
0.0387056
0.0399329
0.0413323
0.0429312
0.0447333
0.0467859
0.0491233
0.0518586
0.0551262
0.0591878
0.064232
0.0711762
0.0790829
0.091532
0.106272
0.0304264
0.0304339
0.030442
0.0304512
0.0304606
0.0304704
0.0304804
0.0304908
0.0305019
0.0305134
0.0305255
0.0305381
0.0305516
0.0305656
0.0305811
0.0305977
0.030616
0.0306358
0.0306576
0.0306812
0.0307069
0.0307348
0.0307654
0.0307986
0.0308351
0.0308747
0.0309179
0.030965
0.0310166
0.031073
0.0311349
0.0312027
0.0312773
0.0313597
0.0314509
0.0315524
0.031666
0.0317934
0.0319371
0.0320993
0.0322833
0.0324928
0.032732
0.0330054
0.033318
0.0336756
0.0340843
0.0345511
0.0350839
0.0356926
0.0363882
0.0371846
0.0380973
0.0391436
0.0403432
0.0417111
0.0432688
0.04503
0.0470285
0.0493124
0.0519601
0.0551282
0.0589825
0.0638208
0.0699647
0.0781908
0.087759
0.103211
0.120677
0.0308836
0.0308919
0.0309013
0.0309117
0.0309232
0.0309355
0.0309486
0.0309625
0.0309771
0.0309926
0.0310089
0.031026
0.0310441
0.0310631
0.0310833
0.0311048
0.0311278
0.0311526
0.0311792
0.031208
0.031239
0.0312725
0.0313089
0.0313483
0.0313912
0.0314377
0.0314885
0.0315438
0.0316042
0.0316704
0.031743
0.031823
0.0319111
0.0320087
0.032117
0.0322379
0.032373
0.0325248
0.0326955
0.0328879
0.0331051
0.0333511
0.03363
0.0339466
0.0343059
0.0347141
0.035178
0.0357058
0.0363072
0.0369937
0.037779
0.0386785
0.039709
0.0408876
0.0422318
0.0437577
0.0454871
0.0474454
0.0496851
0.0522812
0.0553538
0.0590988
0.0637019
0.069541
0.0770412
0.0867825
0.0986258
0.117805
0.138107
0.0314249
0.0314342
0.0314447
0.0314564
0.0314693
0.0314833
0.0314986
0.0315149
0.0315325
0.0315511
0.031571
0.031592
0.0316143
0.0316379
0.0316629
0.0316895
0.0317178
0.0317479
0.0317802
0.0318148
0.031852
0.031892
0.0319353
0.031982
0.0320326
0.0320875
0.0321473
0.0322124
0.0322837
0.0323619
0.0324478
0.0325425
0.0326472
0.0327632
0.0328922
0.0330359
0.0331965
0.0333762
0.0335776
0.0338037
0.0340575
0.0343433
0.0346657
0.0350298
0.0354415
0.035908
0.0364375
0.0370401
0.0377273
0.0385128
0.0394114
0.0404388
0.0416115
0.0429451
0.0444571
0.0461664
0.0481053
0.0503159
0.0528812
0.0559021
0.0595453
0.064032
0.0695787
0.0766987
0.0858224
0.0974148
0.112501
0.135969
0.159811
0.0320657
0.0320763
0.0320882
0.0321013
0.0321158
0.0321315
0.0321487
0.0321673
0.0321872
0.0322087
0.0322316
0.0322561
0.0322822
0.0323099
0.0323395
0.032371
0.0324046
0.0324405
0.0324788
0.0325199
0.0325639
0.0326114
0.0326625
0.0327177
0.0327775
0.0328424
0.032913
0.0329902
0.0330746
0.0331672
0.0332692
0.0333816
0.0335058
0.0336435
0.0337964
0.0339664
0.0341558
0.0343671
0.034603
0.0348669
0.0351618
0.0354931
0.0358659
0.0362864
0.0367619
0.0373009
0.0379136
0.0386116
0.0394079
0.0403167
0.0413526
0.0425307
0.043866
0.0453754
0.04708
0.0490098
0.0512148
0.0537615
0.0567648
0.0603499
0.064735
0.0701527
0.0768974
0.0856473
0.0966902
0.110767
0.130397
0.158485
0.187543
0.0328246
0.032837
0.0328507
0.0328657
0.0328821
0.0328999
0.0329193
0.0329402
0.0329627
0.032987
0.0330131
0.033041
0.0330709
0.0331029
0.033137
0.0331736
0.0332126
0.0332545
0.0332993
0.0333475
0.0333992
0.033455
0.0335152
0.0335802
0.0336508
0.0337275
0.0338111
0.0339024
0.0340024
0.0341121
0.0342329
0.034366
0.034513
0.0346756
0.0348558
0.0350558
0.0352782
0.0355256
0.0358015
0.0361096
0.036454
0.0368407
0.0372761
0.037768
0.038325
0.0389573
0.0396762
0.040494
0.0414239
0.0424794
0.0436743
0.0450234
0.0465432
0.0482569
0.050196
0.0524094
0.0549683
0.0579667
0.0615489
0.0658672
0.071198
0.0777804
0.0860761
0.0968721
0.11023
0.127959
0.15359
0.18643
0.225096
0.0337241
0.033739
0.0337552
0.0337727
0.0337917
0.0338121
0.0338343
0.0338581
0.0338838
0.0339114
0.033941
0.0339729
0.034007
0.0340436
0.0340829
0.034125
0.0341702
0.0342187
0.0342708
0.0343269
0.0343874
0.0344527
0.0345233
0.0345999
0.034683
0.0347734
0.0348721
0.03498
0.0350981
0.0352278
0.0353704
0.0355275
0.0357009
0.0358926
0.0361048
0.0363403
0.0366019
0.0368932
0.0372182
0.0375817
0.0379891
0.038447
0.0389637
0.039548
0.0402099
0.04096
0.0418099
0.0427715
0.0438573
0.0450801
0.0464543
0.047998
0.0497348
0.0517003
0.053942
0.0565318
0.0595618
0.0631553
0.0674866
0.0727451
0.0792738
0.0873384
0.0976811
0.110994
0.127379
0.150713
0.183434
0.222102
0.277603
0.0347923
0.0348106
0.0348301
0.034851
0.0348734
0.0348974
0.0349232
0.0349508
0.0349804
0.0350122
0.0350463
0.0350829
0.0351222
0.0351643
0.0352096
0.0352582
0.0353105
0.0353668
0.0354274
0.0354927
0.0355634
0.0356398
0.0357226
0.0358124
0.0359102
0.0360168
0.0361332
0.0362605
0.0364
0.0365533
0.036722
0.0369078
0.0371131
0.0373403
0.0375922
0.0378721
0.0381838
0.0385317
0.0389209
0.0393572
0.0398475
0.0403987
0.0410206
0.0417224
0.0425141
0.043406
0.0444092
0.0455348
0.0467955
0.0482062
0.0497863
0.0515621
0.0535702
0.0558623
0.0585045
0.0615933
0.0652402
0.0696063
0.0748998
0.081366
0.0894274
0.0994418
0.112496
0.128885
0.149811
0.18139
0.221457
0.269997
0.36186
0.0360651
0.0360878
0.0361117
0.0361371
0.0361641
0.0361927
0.0362232
0.0362558
0.0362906
0.0363278
0.0363675
0.0364102
0.0364559
0.0365049
0.0365576
0.0366142
0.0366751
0.0367408
0.0368116
0.0368881
0.0369709
0.0370607
0.0371581
0.0372641
0.0373796
0.0375057
0.0376437
0.0377949
0.037961
0.0381438
0.0383454
0.0385681
0.0388147
0.0390884
0.0393928
0.0397321
0.0401109
0.0405347
0.0410095
0.0415419
0.0421393
0.0428095
0.0435609
0.0444033
0.0453458
0.0463984
0.0475721
0.0488798
0.0503378
0.0519672
0.0537977
0.0558674
0.0582297
0.0609528
0.0641239
0.0678665
0.0723128
0.0776825
0.0842206
0.09226
0.102331
0.115001
0.131585
0.151972
0.180483
0.222508
0.270126
0.344302
0.528566
0.0375904
0.0376185
0.0376479
0.0376791
0.0377119
0.0377466
0.0377834
0.0378224
0.037864
0.0379082
0.0379555
0.0380059
0.03806
0.038118
0.0381802
0.0382471
0.0383191
0.0383968
0.0384807
0.0385715
0.0386699
0.0387768
0.0388932
0.03902
0.0391586
0.0393104
0.0394769
0.0396599
0.0398617
0.0400844
0.0403309
0.0406041
0.0409075
0.0412451
0.0416214
0.0420411
0.0425098
0.0430332
0.0436178
0.0442702
0.0449974
0.045807
0.0467065
0.0477051
0.0488128
0.050041
0.0514038
0.0529196
0.0546125
0.0565139
0.0586664
0.0611217
0.0639528
0.0672433
0.0711097
0.0757057
0.081194
0.0878895
0.0960627
0.106201
0.119006
0.135352
0.156447
0.183058
0.223686
0.276012
0.339533
0.468743
0.750628
0.039432
0.0394669
0.0395035
0.039542
0.0395824
0.0396251
0.0396701
0.0397178
0.0397684
0.0398222
0.0398796
0.0399408
0.0400063
0.0400765
0.0401519
0.040233
0.0403204
0.0404148
0.040517
0.0406277
0.0407481
0.0408792
0.0410223
0.0411787
0.0413502
0.0415386
0.0417459
0.0419745
0.042227
0.0425064
0.042816
0.0431595
0.043541
0.0439647
0.0444355
0.0449584
0.0455388
0.0461823
0.0468949
0.0476829
0.048553
0.0495126
0.0505705
0.051737
0.0530249
0.0544512
0.0560368
0.0578086
0.0598014
0.0620584
0.0646372
0.0676038
0.0710559
0.0750929
0.0798805
0.0856003
0.0924782
0.10097
0.11133
0.124373
0.141037
0.1624
0.189691
0.227412
0.283512
0.347516
0.454427
0.699459
0.95458
0.0416788
0.0417227
0.0417686
0.041817
0.0418679
0.0419215
0.0419781
0.042038
0.0421015
0.0421691
0.0422411
0.0423181
0.0424005
0.0424889
0.0425839
0.0426863
0.0427969
0.0429166
0.0430463
0.0431874
0.043341
0.0435086
0.0436919
0.0438927
0.0441129
0.044355
0.0446213
0.0449147
0.0452382
0.045595
0.0459888
0.0464232
0.0469024
0.0474306
0.0480122
0.048652
0.049355
0.0501268
0.0509732
0.0519013
0.0529191
0.0540365
0.0552655
0.0566212
0.0581228
0.0597939
0.0616646
0.0637724
0.066164
0.0688962
0.0720439
0.075692
0.0799727
0.0850036
0.0910393
0.0982671
0.107068
0.118053
0.131401
0.148682
0.17085
0.199105
0.236617
0.292352
0.364035
0.45765
0.65932
0.978736
1.0891
0.0444599
0.0445168
0.0445767
0.0446398
0.0447063
0.0447764
0.0448507
0.0449294
0.0450131
0.0451022
0.0451974
0.0452991
0.0454083
0.0455255
0.0456517
0.0457878
0.0459348
0.046094
0.0462665
0.0464539
0.0466576
0.0468794
0.0471211
0.0473848
0.0476726
0.0479871
0.0483307
0.0487063
0.0491167
0.0495652
0.050055
0.0505897
0.051173
0.0518091
0.0525024
0.0532582
0.0540821
0.0549809
0.0559628
0.0570374
0.0582166
0.059515
0.0609502
0.0625441
0.0643233
0.0663204
0.0685754
0.0711373
0.0740669
0.0774401
0.0813543
0.0859246
0.0913323
0.0977222
0.105504
0.114803
0.126398
0.140872
0.158481
0.182295
0.212225
0.250843
0.306799
0.384929
0.479486
0.654039
0.986578
1.13407
1.12911
0.047976
0.0480544
0.048137
0.0482244
0.0483166
0.0484141
0.0485174
0.048627
0.0487435
0.0488676
0.0489999
0.0491412
0.0492924
0.0494543
0.049628
0.0498144
0.0500147
0.0502301
0.050462
0.0507118
0.050981
0.0512713
0.0515844
0.0519223
0.0522871
0.0526809
0.0531061
0.0535654
0.0540615
0.0545977
0.0551773
0.0558043
0.0564831
0.057219
0.058018
0.0588871
0.0598347
0.0608709
0.0620076
0.0632589
0.0646419
0.0661769
0.0678885
0.0698059
0.0719646
0.0744078
0.0771881
0.0803707
0.0840363
0.0882882
0.0932575
0.0991123
0.106099
0.114419
0.124723
0.13696
0.152815
0.17212
0.196469
0.230594
0.271054
0.328363
0.413083
0.515752
0.676985
1.00695
1.17908
1.18833
1.12069
0.052552
0.0526663
0.0527866
0.0529133
0.0530466
0.0531869
0.0533348
0.0534908
0.0536556
0.0538298
0.054014
0.0542089
0.0544153
0.054634
0.0548659
0.0551119
0.055373
0.0556503
0.0559449
0.0562581
0.0565913
0.056946
0.0573238
0.0577268
0.058157
0.0586168
0.0591089
0.0596365
0.0602031
0.0608129
0.0614708
0.0621822
0.0629538
0.0637932
0.0647091
0.065712
0.066814
0.068029
0.0693738
0.0708676
0.0725335
0.0743987
0.0764955
0.0788629
0.0815485
0.0846097
0.0881187
0.0921649
0.0968607
0.102355
0.108827
0.116545
0.125821
0.137018
0.151055
0.16767
0.190229
0.216369
0.252866
0.301472
0.358166
0.45137
0.568659
0.724614
1.05394
1.22994
1.24873
1.19301
0.936549
0.0586672
0.0588299
0.0589992
0.0591756
0.059359
0.0595499
0.0597486
0.0599556
0.0601713
0.0603962
0.0606308
0.0608757
0.0611315
0.061399
0.0616787
0.0619717
0.0622788
0.0626012
0.0629402
0.063297
0.0636735
0.0640714
0.064493
0.0649408
0.0654178
0.0659274
0.0664736
0.0670609
0.0676946
0.0683809
0.0691266
0.06994
0.0708303
0.0718082
0.0728859
0.0740776
0.0753996
0.0768709
0.0785134
0.0803532
0.0824207
0.0847526
0.0873927
0.0903942
0.0938235
0.0977604
0.10231
0.107599
0.113795
0.12112
0.129831
0.140373
0.153096
0.168801
0.188452
0.212252
0.24537
0.282329
0.34033
0.406006
0.498653
0.644294
0.802824
1.12969
1.29422
1.30852
1.25639
1.01287
0.59421
0.0668511
0.0670528
0.0672601
0.0674732
0.0676921
0.067917
0.0681484
0.0683865
0.0686319
0.068885
0.0691463
0.0694166
0.0696965
0.0699869
0.0702889
0.0706036
0.0709324
0.0712767
0.0716386
0.07202
0.0724234
0.0728516
0.073308
0.0737962
0.0743207
0.0748863
0.0754988
0.0761646
0.0768912
0.077687
0.0785618
0.0795265
0.0805936
0.0817775
0.0830947
0.0845639
0.0862072
0.0880499
0.0901219
0.0924589
0.0951028
0.0981053
0.101528
0.105449
0.109966
0.115194
0.121301
0.128462
0.136959
0.147115
0.159327
0.174344
0.192495
0.215677
0.244144
0.280853
0.329438
0.386816
0.476287
0.569525
0.73659
0.932889
1.23674
1.37392
1.37185
1.31298
1.06224
0.621883
0.393772
0.0775699
0.0777794
0.0779934
0.078212
0.0784353
0.0786637
0.0788976
0.0791375
0.0793841
0.0796381
0.0799004
0.080172
0.0804542
0.0807482
0.0810556
0.0813782
0.0817181
0.0820775
0.0824592
0.0828663
0.0833023
0.0837714
0.084278
0.0848275
0.085426
0.0860801
0.0867978
0.0875878
0.0884602
0.0894264
0.0904993
0.0916939
0.0930271
0.0945182
0.0961898
0.0980677
0.100182
0.10257
0.105272
0.108342
0.111839
0.115843
0.120444
0.125767
0.131959
0.139198
0.147774
0.157907
0.170161
0.184896
0.202939
0.225399
0.252818
0.2888
0.331914
0.390962
0.462257
0.559349
0.688872
0.852116
1.1142
1.34684
1.44351
1.43903
1.35701
1.06319
0.621135
0.395557
0.298489
0.0914131
0.0916022
0.091796
0.0919946
0.0921984
0.0924083
0.0926248
0.0928489
0.0930817
0.0933242
0.0935778
0.0938442
0.0941249
0.094422
0.0947377
0.0950745
0.0954354
0.0958238
0.0962435
0.0966988
0.0971947
0.0977367
0.0983311
0.0989852
0.0997071
0.100506
0.101393
0.102379
0.103479
0.104707
0.106083
0.107627
0.109362
0.111316
0.113521
0.116016
0.118845
0.122063
0.125733
0.129938
0.134767
0.140361
0.146846
0.154456
0.163396
0.173983
0.186741
0.201887
0.220767
0.24333
0.271918
0.307217
0.351306
0.40828
0.477111
0.571358
0.683971
0.844911
1.04558
1.32562
1.49012
1.53239
1.50931
1.3723
1.00828
0.602129
0.396405
0.305273
0.26578
0.109449
0.10961
0.109777
0.109951
0.110132
0.110322
0.110522
0.110734
0.110958
0.111196
0.111452
0.111726
0.112022
0.112341
0.112689
0.113067
0.113481
0.113934
0.114433
0.114982
0.115589
0.116261
0.117008
0.117838
0.118764
0.119798
0.120956
0.122254
0.123712
0.125353
0.127202
0.129292
0.131657
0.13434
0.13739
0.140868
0.144846
0.149414
0.154673
0.160775
0.167843
0.176178
0.185895
0.197571
0.211345
0.228058
0.248464
0.272843
0.304261
0.340682
0.388974
0.445967
0.519537
0.610315
0.725342
0.876349
1.06569
1.32196
1.5308
1.61555
1.61835
1.5258
1.33493
0.865026
0.531137
0.371113
0.304503
0.275707
0.259981
0.133704
0.133854
0.134014
0.134184
0.134367
0.134562
0.134773
0.135001
0.135249
0.13552
0.135815
0.136139
0.136494
0.136886
0.137318
0.137796
0.138326
0.138914
0.139567
0.140295
0.141105
0.142009
0.14302
0.144152
0.145422
0.146849
0.148455
0.150267
0.152316
0.154636
0.15727
0.160269
0.163691
0.167607
0.172103
0.177284
0.183275
0.190247
0.198363
0.207964
0.219161
0.232784
0.24857
0.268429
0.291386
0.320689
0.355543
0.398207
0.452587
0.513316
0.597571
0.689984
0.814603
0.963008
1.16039
1.40078
1.61697
1.71621
1.7199
1.65689
1.5359
1.13634
0.679353
0.449088
0.342167
0.298863
0.282893
0.276845
0.274353
0.168371
0.16856
0.168764
0.168985
0.169226
0.169488
0.169774
0.170087
0.170431
0.170809
0.171225
0.171685
0.172192
0.172754
0.173377
0.174067
0.174835
0.175688
0.176639
0.177699
0.178882
0.180204
0.181686
0.183349
0.185222
0.187337
0.189731
0.19245
0.195547
0.199085
0.203142
0.207807
0.213193
0.219436
0.226708
0.235217
0.245213
0.257076
0.271058
0.288076
0.307884
0.333112
0.361349
0.399459
0.440147
0.496781
0.556643
0.636506
0.725722
0.832836
0.97826
1.126
1.34138
1.58923
1.77301
1.85255
1.8472
1.78738
1.67893
1.31141
0.802455
0.519194
0.37429
0.311902
0.291788
0.289534
0.297418
0.30523
0.308733
0.223147
0.223479
0.223835
0.22422
0.224635
0.225085
0.225575
0.226107
0.226688
0.227323
0.228017
0.228779
0.229615
0.230535
0.231549
0.232667
0.233905
0.235275
0.236794
0.238481
0.24036
0.242459
0.244813
0.247472
0.250489
0.253929
0.25787
0.262402
0.267637
0.273706
0.280777
0.289043
0.298762
0.310221
0.323838
0.340043
0.35946
0.382875
0.410824
0.44541
0.485333
0.53718
0.592569
0.66979
0.743816
0.854309
0.951228
1.09784
1.22803
1.44402
1.65769
1.89325
2.02165
2.02078
2.00774
1.9172
1.77108
1.35847
0.808611
0.534031
0.38475
0.313608
0.286626
0.282368
0.295659
0.318529
0.342769
0.360386
0.368888
0.326112
0.326763
0.327459
0.328205
0.329003
0.329859
0.330776
0.331763
0.332826
0.333973
0.335214
0.33656
0.338023
0.339617
0.341359
0.343267
0.345361
0.347667
0.350204
0.35302
0.356157
0.359691
0.363758
0.368516
0.374094
0.380648
0.388364
0.397466
0.408232
0.420985
0.436162
0.454211
0.475859
0.501667
0.532876
0.57003
0.6152
0.668645
0.733233
0.809028
0.898005
1.00217
1.1171
1.255
1.39048
1.56703
1.70707
1.92999
2.17704
2.30717
2.29913
2.27244
2.19525
2.05788
1.76185
1.24075
0.774797
0.524615
0.369931
0.314824
0.285974
0.279478
0.286269
0.307025
0.340871
0.381978
0.423171
0.456527
0.476705
0.56972
0.571171
0.572681
0.574258
0.575911
0.577653
0.579494
0.581447
0.583528
0.585748
0.588131
0.590688
0.593454
0.596436
0.59969
0.603218
0.607098
0.611354
0.615992
0.621403
0.62761
0.635451
0.645326
0.657512
0.672388
0.690401
0.712072
0.738012
0.76898
0.805766
0.849527
0.901123
0.962389
1.03377
1.11828
1.21471
1.32816
1.45313
1.59863
1.75039
1.92536
2.09313
2.28755
2.44828
2.63961
2.76024
2.92081
2.8728
2.75792
2.57297
2.37305
2.06832
1.53632
1.12061
0.738882
0.548327
0.44226
0.399641
0.370167
0.354446
0.350655
0.35861
0.379777
0.415148
0.461751
0.519759
0.588261
0.645408
0.680148
1.47485
1.47775
1.48077
1.48391
1.48719
1.49061
1.49419
1.49793
1.50188
1.50602
1.51048
1.51512
1.52027
1.52555
1.53167
1.53776
1.54534
1.55253
1.56237
1.5818
1.61145
1.65091
1.70021
1.75974
1.82974
1.9107
2.00284
2.10673
2.22237
2.35036
2.49015
2.64225
2.80502
2.97876
3.15979
3.34824
3.53692
3.72612
3.90287
4.06905
4.20224
4.30984
4.35212
4.31584
4.23275
3.9987
3.64173
2.99287
2.3647
1.82869
1.47911
1.29656
1.19312
1.12952
1.07525
1.03908
1.00734
0.982896
0.962129
0.951165
0.94953
0.956913
0.974518
1.00129
1.03522
1.08743
1.17127
1.27341
1.34407
8.57579
8.56883
8.561
8.55226
8.54257
8.5319
8.52023
8.50753
8.49378
8.47894
8.46299
8.44589
8.42763
8.40814
8.38742
8.36539
8.34204
8.31727
8.29106
8.26341
8.23419
8.20325
8.17043
8.13555
8.09842
8.05882
8.01651
7.97121
7.92261
7.87035
7.81401
7.75317
7.68729
7.61586
7.53831
7.45413
7.36294
7.26475
7.16017
7.05131
6.94244
6.84229
6.76218
6.70684
6.66684
6.62904
6.59088
6.5525
6.5144
6.4765
6.43941
6.40319
6.36764
6.3327
6.29851
6.2651
6.23248
6.20069
6.16979
6.13981
6.11085
6.08297
6.05629
6.0309
6.00688
5.98431
5.96325
5.9438
5.92602
0.0295124
0.0295136
0.029515
0.0295143
0.0295158
0.0295141
0.0295118
0.0295033
0.0294978
0.0294926
0.029489
0.0295028
0.029524
0.0295372
0.0295377
0.0295179
0.0295319
0.029541
0.0295412
0.0295244
0.0295301
0.0295527
0.0295355
0.0295382
0.0295225
0.0295057
0.0295287
0.0295395
0.0295478
0.0295522
0.0295503
0.0295634
0.0295729
0.0295609
0.0295602
0.0295397
0.029539
0.0295372
0.0295332
0.0295476
0.0295185
0.0295174
0.029505
0.029484
0.0294863
0.0294711
0.0294487
0.0294354
0.0294311
0.0294268
0.0294236
0.0294273
0.0294278
0.0294276
0.0294314
0.0294336
0.0294334
0.0294325
0.0294321
0.0298092
0.029807
0.029803
0.029799
0.0297942
0.0297875
0.0297805
0.0297739
0.0297733
0.0297762
0.0297824
0.0297906
0.0297972
0.0297973
0.0297826
0.0297829
0.0297941
0.0297961
0.0297857
0.0297809
0.0297903
0.0297975
0.029779
0.0297823
0.0297606
0.0297519
0.0297723
0.0297866
0.0297857
0.0297866
0.0297933
0.0298042
0.0298108
0.029799
0.0298018
0.0297882
0.0297809
0.0297801
0.0297785
0.0297886
0.0297778
0.0297714
0.0297622
0.0297498
0.0297403
0.0297326
0.0297213
0.0297081
0.0297003
0.029695
0.0296917
0.0296923
0.0296943
0.0296937
0.0296971
0.0297
0.029703
0.0297061
0.0297095
0.0301508
0.0301445
0.0301374
0.0301307
0.0301236
0.0301172
0.0301126
0.0301108
0.0301119
0.0301138
0.0301158
0.0301162
0.0301108
0.0301026
0.0300946
0.0300999
0.0301033
0.0300961
0.030085
0.030089
0.0300966
0.030092
0.0300731
0.0300742
0.03005
0.0300485
0.0300655
0.0300811
0.0300737
0.0300728
0.0300855
0.0300937
0.0300981
0.0300882
0.0300918
0.0300834
0.0300747
0.030072
0.0300704
0.0300811
0.0300789
0.0300745
0.030068
0.0300609
0.0300519
0.0300454
0.030038
0.0300299
0.0300226
0.0300171
0.0300141
0.0300132
0.0300155
0.0300165
0.030019
0.0300221
0.0300258
0.0300299
0.0300346
0.0305498
0.0305419
0.030534
0.030527
0.0305205
0.0305154
0.0305117
0.0305093
0.0305072
0.0305039
0.0304986
0.0304904
0.0304803
0.0304727
0.0304694
0.0304712
0.0304645
0.0304527
0.0304477
0.0304535
0.0304565
0.0304416
0.0304238
0.0304208
0.0303969
0.0304004
0.0304148
0.030429
0.0304175
0.0304158
0.0304315
0.0304376
0.030441
0.0304335
0.0304372
0.0304328
0.0304252
0.0304209
0.0304181
0.0304282
0.0304327
0.0304316
0.0304288
0.0304257
0.0304204
0.0304158
0.0304113
0.0304064
0.0304017
0.0303981
0.0303961
0.0303953
0.0303966
0.0303989
0.030402
0.0304058
0.0304102
0.030415
0.0304203
0.0310243
0.0310157
0.0310074
0.0309998
0.0309925
0.0309858
0.0309791
0.0309721
0.0309639
0.0309541
0.0309427
0.0309309
0.0309207
0.030914
0.0309094
0.0309035
0.0308903
0.0308802
0.0308798
0.0308825
0.0308777
0.0308558
0.0308392
0.0308315
0.0308099
0.0308162
0.0308283
0.0308397
0.0308256
0.0308238
0.0308403
0.0308451
0.030848
0.0308427
0.0308467
0.0308452
0.0308399
0.0308355
0.030832
0.0308399
0.030849
0.0308529
0.0308535
0.0308542
0.0308531
0.0308518
0.0308504
0.030849
0.0308476
0.0308465
0.030846
0.0308462
0.030848
0.030851
0.0308549
0.0308596
0.0308649
0.0308704
0.0308767
0.0315867
0.0315763
0.0315658
0.0315555
0.0315449
0.0315339
0.0315221
0.0315095
0.0314958
0.0314815
0.0314674
0.0314545
0.0314438
0.0314347
0.0314248
0.0314122
0.0313979
0.031391
0.0313905
0.0313872
0.0313728
0.0313473
0.031331
0.0313193
0.0313011
0.0313082
0.0313179
0.0313258
0.0313102
0.0313084
0.0313246
0.0313286
0.0313312
0.0313277
0.031332
0.0313331
0.0313305
0.0313273
0.0313241
0.0313295
0.0313408
0.0313496
0.0313544
0.0313588
0.031362
0.0313644
0.0313666
0.0313687
0.0313707
0.0313728
0.0313751
0.0313778
0.0313813
0.0313856
0.0313908
0.0313965
0.0314029
0.0314095
0.031417
0.0322471
0.0322333
0.0322193
0.0322048
0.0321897
0.0321739
0.0321574
0.0321404
0.0321232
0.0321062
0.0320903
0.0320755
0.0320617
0.0320477
0.0320326
0.0320169
0.032004
0.0319977
0.0319926
0.0319807
0.0319583
0.0319312
0.0319142
0.0318994
0.0318847
0.0318913
0.0318983
0.0319024
0.0318861
0.0318841
0.0318993
0.0319029
0.0319053
0.0319034
0.0319078
0.0319115
0.0319117
0.0319105
0.0319087
0.0319123
0.0319237
0.0319362
0.0319458
0.0319542
0.0319618
0.0319685
0.0319748
0.0319808
0.0319867
0.0319925
0.0319984
0.0320043
0.0320105
0.0320171
0.0320242
0.0320316
0.0320396
0.0320475
0.0320566
0.033022
0.0330042
0.032986
0.0329673
0.0329479
0.032928
0.0329077
0.0328873
0.0328672
0.0328476
0.0328286
0.0328102
0.0327918
0.0327732
0.0327547
0.032738
0.0327251
0.0327153
0.0327024
0.0326815
0.0326533
0.0326254
0.0326068
0.0325901
0.0325783
0.0325832
0.0325871
0.0325875
0.0325706
0.0325683
0.0325821
0.0325855
0.0325878
0.0325871
0.032592
0.0325978
0.0326011
0.0326027
0.0326027
0.0326061
0.0326168
0.0326314
0.0326453
0.0326582
0.0326703
0.0326817
0.0326925
0.032703
0.0327132
0.0327233
0.0327332
0.0327429
0.0327527
0.0327625
0.0327724
0.0327824
0.0327927
0.0328026
0.0328139
0.0339362
0.0339143
0.0338922
0.0338694
0.0338462
0.0338225
0.0337986
0.0337748
0.0337511
0.0337276
0.0337045
0.0336815
0.0336588
0.0336365
0.0336157
0.0335971
0.0335807
0.0335638
0.0335416
0.0335128
0.0334805
0.0334518
0.0334313
0.0334133
0.0334032
0.0334056
0.0334063
0.0334027
0.0333854
0.0333827
0.0333946
0.0333981
0.0334003
0.0334007
0.0334061
0.0334139
0.0334203
0.0334252
0.0334282
0.0334327
0.033443
0.0334586
0.0334758
0.033493
0.0335098
0.0335261
0.0335419
0.0335573
0.0335724
0.0335871
0.0336016
0.0336159
0.0336299
0.0336436
0.0336573
0.0336707
0.0336841
0.0336968
0.033711
0.0350222
0.0349962
0.03497
0.0349432
0.0349158
0.034888
0.03486
0.0348319
0.0348037
0.0347757
0.0347478
0.0347202
0.0346933
0.0346673
0.0346428
0.0346196
0.0345963
0.0345702
0.0345389
0.0345036
0.0344683
0.0344383
0.0344155
0.0343966
0.0343866
0.034386
0.0343828
0.0343751
0.0343576
0.0343541
0.0343639
0.0343676
0.0343699
0.0343713
0.0343774
0.0343869
0.0343965
0.0344051
0.0344121
0.0344192
0.0344303
0.0344467
0.0344662
0.0344872
0.0345086
0.0345299
0.034551
0.0345717
0.0345921
0.0346122
0.0346318
0.0346511
0.03467
0.0346885
0.0347066
0.0347242
0.0347415
0.0347579
0.0347759
0.0363201
0.0362896
0.0362589
0.0362275
0.0361953
0.0361627
0.0361297
0.0360964
0.036063
0.0360296
0.0359964
0.0359636
0.0359315
0.0359002
0.0358695
0.0358385
0.0358059
0.03577
0.0357306
0.0356899
0.0356518
0.0356198
0.0355944
0.0355743
0.0355629
0.0355582
0.0355506
0.0355389
0.0355211
0.0355165
0.0355242
0.035528
0.0355305
0.035533
0.03554
0.0355512
0.0355639
0.0355765
0.0355881
0.0355994
0.035613
0.035631
0.0356527
0.035677
0.0357027
0.0357291
0.0357556
0.035782
0.0358083
0.0358342
0.0358597
0.0358847
0.0359092
0.0359331
0.0359564
0.035979
0.0360011
0.036022
0.0360446
0.0378813
0.0378453
0.0378092
0.0377722
0.0377343
0.0376957
0.0376565
0.0376169
0.0375771
0.0375371
0.0374973
0.0374576
0.0374181
0.0373787
0.0373389
0.037298
0.037255
0.0372096
0.0371628
0.0371171
0.0370757
0.0370407
0.0370122
0.0369898
0.0369754
0.0369656
0.0369531
0.0369375
0.0369191
0.036913
0.0369185
0.0369224
0.0369254
0.0369291
0.0369373
0.0369503
0.0369661
0.0369831
0.0369999
0.0370165
0.0370345
0.0370557
0.0370806
0.0371085
0.0371386
0.03717
0.0372022
0.0372348
0.0372674
0.0372998
0.0373318
0.0373633
0.0373942
0.0374244
0.0374538
0.0374824
0.0375102
0.0375365
0.0375648
0.0397725
0.0397297
0.0396868
0.0396426
0.0395973
0.039551
0.0395039
0.0394561
0.0394077
0.039359
0.03931
0.0392607
0.039211
0.0391608
0.0391097
0.0390573
0.0390034
0.0389486
0.0388944
0.0388433
0.0387973
0.038758
0.0387253
0.0386992
0.03868
0.0386639
0.038646
0.0386264
0.0386068
0.038599
0.0386023
0.0386061
0.0386098
0.038615
0.0386249
0.0386401
0.0386593
0.038681
0.0387036
0.0387267
0.0387509
0.0387775
0.0388072
0.0388401
0.0388755
0.0389128
0.0389513
0.0389907
0.0390305
0.0390702
0.0391097
0.0391488
0.0391872
0.0392248
0.0392616
0.0392973
0.039332
0.039365
0.0394002
0.0420846
0.0420325
0.0419801
0.0419262
0.0418707
0.0418139
0.0417558
0.0416967
0.0416367
0.0415759
0.0415144
0.0414522
0.0413892
0.0413255
0.041261
0.0411956
0.04113
0.0410651
0.0410025
0.0409443
0.040892
0.0408465
0.0408077
0.0407756
0.0407495
0.0407261
0.040702
0.040678
0.0406567
0.0406467
0.0406477
0.0406514
0.0406562
0.0406633
0.0406754
0.0406936
0.0407169
0.040744
0.0407734
0.0408042
0.0408365
0.040871
0.0409081
0.0409482
0.040991
0.0410359
0.0410826
0.0411304
0.0411788
0.0412276
0.0412763
0.0413246
0.0413723
0.0414192
0.0414651
0.0415097
0.0415533
0.0415948
0.0416389
0.0449482
0.0448825
0.0448162
0.0447479
0.0446775
0.0446054
0.0445315
0.0444562
0.0443797
0.044302
0.0442233
0.0441437
0.0440635
0.0439827
0.0439017
0.043821
0.0437412
0.0436638
0.0435902
0.0435219
0.0434601
0.0434054
0.0433576
0.0433165
0.0432811
0.0432487
0.0432175
0.0431886
0.0431645
0.0431518
0.0431504
0.0431541
0.0431604
0.0431701
0.0431856
0.043208
0.0432366
0.0432705
0.0433082
0.0433487
0.0433915
0.0434369
0.043485
0.043536
0.0435897
0.0436458
0.0437039
0.0437634
0.043824
0.043885
0.0439462
0.0440071
0.0440675
0.044127
0.0441855
0.0442426
0.0442984
0.044352
0.0444084
0.0485693
0.0484816
0.0483932
0.0483019
0.0482081
0.0481119
0.0480135
0.0479134
0.0478118
0.0477089
0.0476052
0.0475009
0.0473964
0.0472922
0.0471888
0.047087
0.0469878
0.0468925
0.0468023
0.0467186
0.0466421
0.0465732
0.0465119
0.0464577
0.0464097
0.046366
0.0463258
0.0462904
0.0462623
0.0462461
0.0462424
0.0462462
0.0462546
0.0462683
0.046289
0.0463177
0.0463541
0.0463974
0.0464464
0.0464999
0.0465572
0.0466181
0.0466824
0.04675
0.0468208
0.0468944
0.0469704
0.0470483
0.0471275
0.0472076
0.0472882
0.0473687
0.0474487
0.0475279
0.047606
0.0476825
0.0477575
0.0478301
0.0479056
0.0532877
0.0531645
0.0530395
0.0529106
0.0527779
0.0526418
0.0525029
0.0523617
0.0522186
0.0520744
0.0519297
0.051785
0.0516413
0.0514991
0.0513596
0.0512236
0.0510924
0.0509671
0.0508489
0.050739
0.0506379
0.0505459
0.050463
0.0503889
0.0503227
0.0502634
0.0502108
0.0501662
0.0501317
0.0501108
0.0501046
0.0501091
0.0501214
0.0501413
0.0501706
0.0502098
0.0502589
0.0503172
0.0503837
0.0504573
0.0505371
0.0506225
0.0507131
0.0508085
0.0509084
0.0510122
0.0511194
0.0512293
0.0513414
0.0514549
0.0515692
0.0516836
0.0517976
0.0519106
0.0520221
0.0521316
0.0522388
0.0523432
0.0524498
0.0596057
0.0594337
0.0592584
0.0590767
0.0588883
0.0586939
0.0584942
0.0582901
0.0580825
0.0578725
0.0576611
0.0574497
0.0572396
0.057032
0.0568285
0.0566306
0.0564397
0.0562576
0.0560855
0.0559247
0.055776
0.05564
0.0555168
0.0554062
0.0553081
0.0552219
0.0551477
0.0550868
0.055041
0.0550129
0.055004
0.0550111
0.0550313
0.0550641
0.0551106
0.0551714
0.0552463
0.0553346
0.0554354
0.0555475
0.0556698
0.0558013
0.0559411
0.0560883
0.056242
0.0564012
0.0565648
0.0567319