/*--------------------------------*- C++ -*----------------------------------*\
| =========                 |                                                 |
| \\      /  F ield         | OpenFOAM: The Open Source CFD Toolbox           |
|  \\    /   O peration     | Version:  2312                                  |
|   \\  /    A nd           | Website:  www.openfoam.com                      |
|    \\/     M anipulation  |                                                 |
\*---------------------------------------------------------------------------*/
FoamFile
{
    version     2.0;
    format      ascii;
    arch        "LSB;label=32;scalar=64";
    class       volScalarField;
    location    "100";
    object      p;
}
// * * * * * * * * * * * * * * * * * * * * * * * * * * * * * * * * * * * * * //

dimensions      [0 2 -2 0 0 0 0];

internalField   nonuniform List<scalar> 
76025
(
0.000286197
0.000278322
0.000270332
0.000262293
0.000254199
0.000246143
0.000237572
0.000229246
0.000220706
0.000212225
0.000203647
0.000194983
0.000186229
0.000177472
0.00016867
0.000159644
0.0001509
0.000141822
0.000132889
0.000123857
0.000114957
0.000105869
9.6834e-05
8.79138e-05
7.891e-05
6.99787e-05
6.10859e-05
5.19491e-05
4.31634e-05
3.41111e-05
2.54956e-05
1.66327e-05
7.94138e-06
-9.76616e-07
-9.61143e-06
-1.8291e-05
-2.67011e-05
-3.54262e-05
-4.42336e-05
-5.27608e-05
-6.11175e-05
-6.94927e-05
-7.81564e-05
-8.68664e-05
-9.51775e-05
-0.000103558
-0.000112039
-0.000120818
-0.000129153
-0.000137648
-0.000146265
-0.000154847
-0.000163661
-0.000172682
-0.000181633
-0.000190506
-0.000199949
-0.00020949
-0.000219297
-0.000229138
-0.000239177
-0.000250405
-0.000261521
-0.000272893
-0.000284751
-0.000297244
-0.00031027
-0.000324167
-0.000337358
0.000287573
0.000279384
0.000271116
0.000262755
0.000254286
0.00024569
0.000237032
0.000228311
0.0002195
0.000210613
0.000201652
0.000192633
0.000183575
0.000174448
0.000165299
0.000156129
0.000146908
0.000137682
0.000128402
0.00011917
0.000109894
0.00010064
9.13977e-05
8.21964e-05
7.29919e-05
6.37824e-05
5.45917e-05
4.54921e-05
3.64414e-05
2.7383e-05
1.84208e-05
9.37031e-06
4.07261e-07
-8.4803e-06
-1.7345e-05
-2.61234e-05
-3.48998e-05
-4.36603e-05
-5.23618e-05
-6.10313e-05
-6.96015e-05
-7.819e-05
-8.67686e-05
-9.52883e-05
-0.000103787
-0.00011228
-0.000120817
-0.000129354
-0.000137874
-0.000146466
-0.000155142
-0.000163851
-0.000172663
-0.000181596
-0.000190598
-0.000199726
-0.000209142
-0.000218698
-0.000228472
-0.000238455
-0.000248749
-0.00025969
-0.000270885
-0.000282371
-0.00029433
-0.000306879
-0.00031995
-0.00033352
-0.000347406
0.000288987
0.000280446
0.000271808
0.000263062
0.000254206
0.000245274
0.000236263
0.000227166
0.00021799
0.000208736
0.000199425
0.000190069
0.000180666
0.000171223
0.000161759
0.000152257
0.000142734
0.000133197
0.000123653
0.000114109
0.000104574
9.50618e-05
8.55669e-05
7.60983e-05
6.66514e-05
5.72285e-05
4.78636e-05
3.85539e-05
2.92808e-05
2.00482e-05
1.08539e-05
1.69775e-06
-7.38784e-06
-1.64136e-05
-2.53948e-05
-3.43149e-05
-4.31875e-05
-5.20074e-05
-6.07904e-05
-6.95352e-05
-7.8216e-05
-8.68571e-05
-9.54699e-05
-0.000104068
-0.000112652
-0.000121212
-0.000129774
-0.000138353
-0.000146953
-0.000155583
-0.000164269
-0.000173013
-0.000181843
-0.000190787
-0.000199843
-0.000209036
-0.000218429
-0.000228022
-0.000237844
-0.000247923
-0.000258325
-0.000269169
-0.00028037
-0.000291915
-0.000303898
-0.000316393
-0.000329387
-0.000342862
-0.000356959
0.000290208
0.000281276
0.000272242
0.000263105
0.000253872
0.000244553
0.000235149
0.000225668
0.000216117
0.000206504
0.000196837
0.000187124
0.00017737
0.000167583
0.000157773
0.000147941
0.000138099
0.000128252
0.000118408
0.000108576
9.87626e-05
8.8975e-05
7.92171e-05
6.94956e-05
5.98153e-05
5.01807e-05
4.05999e-05
3.10737e-05
2.16036e-05
1.21916e-05
2.83959e-06
-6.44972e-06
-1.56743e-05
-2.48346e-05
-3.39307e-05
-4.2962e-05
-5.19314e-05
-6.08437e-05
-6.97048e-05
-7.85122e-05
-8.72626e-05
-9.59653e-05
-0.000104634
-0.000113277
-0.000121893
-0.00013049
-0.000139083
-0.000147687
-0.000156309
-0.00016496
-0.000173662
-0.000182427
-0.000191275
-0.000200229
-0.000209304
-0.000218524
-0.000227928
-0.000237542
-0.000247389
-0.000257503
-0.000267931
-0.000278734
-0.000289901
-0.000301432
-0.000313376
-0.000325782
-0.00033867
-0.000352028
-0.000366059
0.000291142
0.000281802
0.00027236
0.000262817
0.000253179
0.000243454
0.00023365
0.000223773
0.000213833
0.000203835
0.000193788
0.0001837
0.00017358
0.000163434
0.000153272
0.000143101
0.000132928
0.000122763
0.000112612
0.000102483
9.23848e-05
8.2323e-05
7.23043e-05
6.23347e-05
5.24196e-05
4.25635e-05
3.2771e-05
2.30468e-05
1.33938e-05
3.81344e-06
-5.69287e-06
-1.51242e-05
-2.44801e-05
-3.37595e-05
-4.29626e-05
-5.20915e-05
-6.11486e-05
-7.01374e-05
-7.90616e-05
-8.79238e-05
-9.67269e-05
-0.000105477
-0.000114184
-0.000122856
-0.000131497
-0.000140119
-0.000148731
-0.000157348
-0.00016598
-0.000174641
-0.000183348
-0.000192117
-0.000200968
-0.000209922
-0.000218999
-0.000228225
-0.000237631
-0.000247244
-0.00025709
-0.000267199
-0.000277609
-0.000288354
-0.000299449
-0.000310904
-0.000322748
-0.00033502
-0.000347744
-0.000360912
-0.000374713
0.000291777
0.000282006
0.000272135
0.000262162
0.000252097
0.000241948
0.000231724
0.000221433
0.000211082
0.00020068
0.000190237
0.000179759
0.000169258
0.000158741
0.000148217
0.000137694
0.000127182
0.000116688
0.000106222
9.57901e-05
8.54014e-05
7.50628e-05
6.47811e-05
5.45624e-05
4.44123e-05
3.43358e-05
2.43376e-05
1.44219e-05
4.59149e-06
-5.15187e-06
-1.48068e-05
-2.43722e-05
-3.38486e-05
-4.32359e-05
-5.25353e-05
-6.17488e-05
-7.08795e-05
-7.99309e-05
-8.89073e-05
-9.78132e-05
-0.000106653
-0.000115434
-0.000124164
-0.000132851
-0.000141503
-0.000150132
-0.000158747
-0.000167361
-0.000175989
-0.000184643
-0.00019334
-0.000202099
-0.000210939
-0.000219879
-0.000228944
-0.000238156
-0.000247542
-0.000257128
-0.00026694
-0.000277004
-0.000287348
-0.000297999
-0.000308978
-0.0003203
-0.00033199
-0.000344081
-0.000356576
-0.000369502
-0.000383011
0.000292054
0.000281828
0.000271503
0.000261077
0.000250562
0.000239968
0.000229302
0.000218575
0.000207795
0.000196971
0.000186113
0.00017523
0.000164333
0.00015343
0.000142531
0.000131646
0.000120784
0.000109954
9.91642e-05
8.84239e-05
7.77409e-05
6.71231e-05
5.65774e-05
4.61103e-05
3.57277e-05
2.54348e-05
1.52362e-05
5.13555e-06
-4.86421e-06
-1.47611e-05
-2.45539e-05
-3.4242e-05
-4.38269e-05
-5.33092e-05
-6.26907e-05
-7.19741e-05
-8.1163e-05
-9.02617e-05
-9.92751e-05
-0.000108209
-0.000117069
-0.000125862
-0.000134598
-0.000143284
-0.000151931
-0.00016055
-0.000169152
-0.000177749
-0.000186357
-0.00019499
-0.000203665
-0.000212398
-0.000221211
-0.000230123
-0.000239154
-0.000248328
-0.000257667
-0.000267195
-0.000276933
-0.000286905
-0.000297135
-0.000307645
-0.000318459
-0.000329595
-0.000341083
-0.000352949
-0.000365181
-0.00037789
-0.000390987
0.000291903
0.000281195
0.000270391
0.000259489
0.0002485
0.000237436
0.000226306
0.000215121
0.000203891
0.000192625
0.000181335
0.00017003
0.00015872
0.000147418
0.000136132
0.000124873
0.000113651
0.000102476
9.13573e-05
8.03036e-05
6.93237e-05
5.84256e-05
4.76168e-05
3.6904e-05
2.62932e-05
1.57897e-05
5.39799e-06
-4.87839e-06
-1.50367e-05
-2.50751e-05
-3.49926e-05
-4.47899e-05
-5.44687e-05
-6.40303e-05
-7.34774e-05
-8.28136e-05
-9.20432e-05
-0.000101171
-0.000110204
-0.000119147
-0.000128008
-0.000136796
-0.00014552
-0.000154189
-0.000162814
-0.000171406
-0.000179978
-0.000188544
-0.000197117
-0.000205713
-0.000214349
-0.000223041
-0.000231808
-0.000240669
-0.000249643
-0.000258749
-0.000268007
-0.000277437
-0.000287057
-0.000296887
-0.000306948
-0.000317264
-0.000327857
-0.000338753
-0.000349991
-0.000361591
-0.000373595
-0.000386221
-0.000398689
0.000291247
0.00028003
0.000268719
0.000257313
0.000245824
0.000234266
0.000222649
0.000210983
0.000199281
0.000187553
0.00017581
0.000164065
0.000152328
0.000140611
0.000128925
0.000117281
0.00010569
9.41627e-05
8.27088e-05
7.13381e-05
6.00596e-05
4.88818e-05
3.78123e-05
2.68583e-05
1.60256e-05
5.3197e-06
-5.25511e-06
-1.56955e-05
-2.5999e-05
-3.61642e-05
-4.61907e-05
-5.60803e-05
-6.58351e-05
-7.54573e-05
-8.49507e-05
-9.43197e-05
-0.00010357
-0.000112707
-0.000121738
-0.000130671
-0.000139515
-0.000148278
-0.00015697
-0.000165604
-0.000174188
-0.000182737
-0.000191263
-0.00019978
-0.000208302
-0.000216844
-0.000225422
-0.000234052
-0.000242751
-0.000251534
-0.000260419
-0.000269422
-0.000278558
-0.000287843
-0.000297294
-0.000306928
-0.000316766
-0.000326827
-0.000337139
-0.000347733
-0.000358655
-0.000369926
-0.000381732
-0.000394238
-0.00040651
0.000289994
0.000278238
0.000266392
0.000254454
0.000242437
0.000230358
0.000218228
0.000206058
0.00019386
0.000181648
0.000169434
0.000157229
0.000145048
0.000132901
0.000120802
0.000108762
9.67932e-05
8.49066e-05
7.31132e-05
6.1423e-05
4.98458e-05
3.83903e-05
2.70646e-05
1.58758e-05
4.83009e-06
-6.06738e-06
-1.68125e-05
-2.74022e-05
-3.78346e-05
-4.81088e-05
-5.82253e-05
-6.81871e-05
-7.79967e-05
-8.76578e-05
-9.71752e-05
-0.000106555
-0.000115802
-0.000124926
-0.000133934
-0.000142835
-0.000151639
-0.000160357
-0.000168999
-0.000177577
-0.000186103
-0.000194589
-0.00020305
-0.000211499
-0.000219949
-0.000228415
-0.000236912
-0.000245453
-0.000254053
-0.000262726
-0.000271484
-0.00028034
-0.000289308
-0.000298399
-0.000307628
-0.000317009
-0.000326562
-0.000336308
-0.000346275
-0.0003565
-0.000367034
-0.000377912
-0.000389443
-0.000401179
-0.000413102
0.000288036
0.000275709
0.000263297
0.000250796
0.000238223
0.000225595
0.000212924
0.000200223
0.000187507
0.000174788
0.000162081
0.000149399
0.000136755
0.000124164
0.000111639
9.9192e-05
8.68368e-05
7.45851e-05
6.24485e-05
5.0438e-05
3.85636e-05
2.68346e-05
1.52592e-05
3.84479e-06
-7.4026e-06
-1.84779e-05
-2.93775e-05
-4.00987e-05
-5.06404e-05
-6.10024e-05
-7.11868e-05
-8.11974e-05
-9.10376e-05
-0.000100713
-0.000110229
-0.000119593
-0.000128813
-0.000137899
-0.000146859
-0.000155704
-0.000164445
-0.000173094
-0.000181662
-0.000190162
-0.000198607
-0.000207008
-0.00021538
-0.000223736
-0.000232089
-0.000240451
-0.000248837
-0.000257256
-0.000265722
-0.000274243
-0.000282831
-0.000291495
-0.000300244
-0.000309088
-0.000318039
-0.000327109
-0.000336315
-0.000345681
-0.000355239
-0.00036503
-0.000375132
-0.000385608
-0.000396763
-0.000407552
-0.00042148
0.000285243
0.000272312
0.0002593
0.000246203
0.000233042
0.000219835
0.000206595
0.000193337
0.000180076
0.000166827
0.000153605
0.000140425
0.000127302
0.000114252
0.000101287
8.84238e-05
7.56746e-05
6.3053e-05
5.05713e-05
3.8241e-05
2.6073e-05
1.40768e-05
2.2609e-06
-9.36734e-06
-2.08019e-05
-3.20382e-05
-4.3073e-05
-5.39045e-05
-6.45323e-05
-7.49575e-05
-8.51839e-05
-9.5216e-05
-0.000105059
-0.000114719
-0.000124205
-0.000133525
-0.000142689
-0.000151707
-0.000160591
-0.000169352
-0.000178002
-0.000186554
-0.000195021
-0.000203415
-0.000211749
-0.000220037
-0.00022829
-0.000236523
-0.000244745
-0.00025297
-0.000261206
-0.000269465
-0.000277753
-0.000286079
-0.00029445
-0.000302872
-0.000311351
-0.000319895
-0.000328511
-0.000337211
-0.000346011
-0.000354931
-0.000364009
-0.0003733
-0.000382931
-0.000393002
-0.00040384
-0.000414621
-0.000428369
0.000281461
0.000267888
0.00025424
0.000240514
0.000226731
0.000212912
0.000199073
0.000185228
0.000171396
0.000157591
0.000143832
0.000130134
0.000116514
0.000102988
8.95717e-05
7.62814e-05
6.31314e-05
5.01361e-05
3.73085e-05
2.4661e-05
1.2205e-05
-4.95744e-08
-1.2094e-05
-2.3921e-05
-3.55249e-05
-4.69015e-05
-5.80484e-05
-6.89647e-05
-7.96513e-05
-9.01108e-05
-0.000100348
-0.00011037
-0.000120182
-0.000129793
-0.000139214
-0.000148455
-0.000157527
-0.000166442
-0.000175214
-0.000183855
-0.00019238
-0.0002008
-0.00020913
-0.000217382
-0.000225571
-0.000233708
-0.000241806
-0.000249876
-0.000257928
-0.000265972
-0.000274017
-0.000282068
-0.000290133
-0.000298216
-0.000306322
-0.000314453
-0.000322613
-0.000330806
-0.000339035
-0.000347311
-0.000355644
-0.000364055
-0.000372586
-0.000381317
-0.000390399
-0.000399896
-0.000410197
-0.000421102
-0.000435542
0.000276499
0.000262244
0.000247923
0.000233528
0.000219087
0.000204622
0.00019015
0.000175689
0.000161255
0.000146869
0.000132547
0.000118309
0.000104173
9.0156e-05
7.62757e-05
6.2549e-05
4.8992e-05
3.56201e-05
2.24474e-05
9.48708e-06
-3.24893e-06
-1.57503e-05
-2.80081e-05
-4.00152e-05
-5.17664e-05
-6.3258e-05
-7.44886e-05
-8.54586e-05
-9.61702e-05
-0.000106628
-0.000116838
-0.000126808
-0.000136547
-0.000146067
-0.000155378
-0.000164494
-0.000173429
-0.000182196
-0.000190811
-0.000199287
-0.00020764
-0.000215884
-0.000224032
-0.000232099
-0.000240098
-0.000248039
-0.000255935
-0.000263796
-0.00027163
-0.000279446
-0.00028725
-0.000295046
-0.00030284
-0.000310633
-0.000318427
-0.000326221
-0.000334017
-0.000341812
-0.000349609
-0.000357413
-0.00036523
-0.000373085
-0.000381041
-0.000389208
-0.000397664
-0.000406393
-0.000415688
-0.000424828
-0.000436234
0.000270118
0.000255139
0.000240101
0.000224998
0.000209859
0.000194711
0.00017957
0.000164457
0.000149391
0.000134394
0.000119484
0.000104683
9.00101e-05
7.5485e-05
6.11268e-05
4.69539e-05
3.2984e-05
1.92336e-05
5.718e-06
-7.54859e-06
-2.05537e-05
-3.32864e-05
-4.57377e-05
-5.79007e-05
-6.97703e-05
-8.13439e-05
-9.2621e-05
-0.000103603
-0.000114295
-0.000124702
-0.000134833
-0.000144697
-0.000154307
-0.000163677
-0.00017282
-0.000181753
-0.000190492
-0.000199052
-0.000207452
-0.000215706
-0.000223831
-0.000231843
-0.000239755
-0.000247581
-0.000255334
-0.000263025
-0.000270665
-0.000278262
-0.000285825
-0.000293361
-0.000300874
-0.000308368
-0.000315845
-0.000323304
-0.000330744
-0.000338162
-0.000345554
-0.000352915
-0.000360243
-0.000367541
-0.000374821
-0.000382121
-0.000389555
-0.000397197
-0.000404994
-0.00041293
-0.000420885
-0.000427844
-0.000433061
0.000262005
0.000246255
0.000230455
0.000214597
0.000198717
0.000182842
0.000166993
0.000151191
0.000135458
0.000119817
0.00010429
8.88997e-05
7.36679e-05
5.86164e-05
4.37662e-05
2.91377e-05
1.47502e-05
6.21855e-07
-1.32305e-05
-2.67917e-05
-4.00483e-05
-5.29887e-05
-6.56037e-05
-7.78865e-05
-8.98326e-05
-0.00010144
-0.00011271
-0.000123646
-0.000134253
-0.00014454
-0.00015452
-0.000164205
-0.000173611
-0.000182755
-0.000191655
-0.000200329
-0.000208796
-0.000217076
-0.000225188
-0.000233148
-0.000240976
-0.000248686
-0.000256293
-0.000263812
-0.000271255
-0.000278633
-0.000285956
-0.000293232
-0.00030047
-0.000307674
-0.000314849
-0.000321995
-0.000329113
-0.0003362
-0.000343252
-0.000350262
-0.000357223
-0.000364127
-0.00037097
-0.000377768
-0.000384552
-0.000391388
-0.000398394
-0.000405459
-0.000412422
-0.000419248
-0.000425529
-0.000430708
-0.000434315
0.00025172
0.000235144
0.000218528
0.000201864
0.000185192
0.000168544
0.000151941
0.000135408
0.00011897
0.00010265
8.64758e-05
7.04706e-05
5.46595e-05
3.90666e-05
2.37155e-05
8.62877e-06
-6.17203e-06
-2.06669e-05
-3.48373e-05
-4.86666e-05
-6.21404e-05
-7.52465e-05
-8.79754e-05
-0.000100321
-0.000112278
-0.000123848
-0.000135032
-0.000145836
-0.000156269
-0.000166346
-0.00017608
-0.00018549
-0.000194594
-0.000203414
-0.000211972
-0.00022029
-0.000228391
-0.000236296
-0.000244029
-0.000251608
-0.000259053
-0.00026638
-0.000273606
-0.000280744
-0.000287807
-0.000294806
-0.00030175
-0.000308649
-0.000315508
-0.000322332
-0.000329123
-0.000335882
-0.000342606
-0.000349291
-0.000355929
-0.000362512
-0.000369031
-0.000375485
-0.000381879
-0.000388275
-0.000394691
-0.00040119
-0.000407668
-0.000413843
-0.000419598
-0.000424836
-0.000428918
-0.000431989
-0.00043376
0.000238564
0.000221105
0.00020362
0.000186098
0.000168587
0.000151122
0.000133727
0.000116429
9.92561e-05
8.2236e-05
6.5397e-05
4.87668e-05
3.2373e-05
1.62427e-05
4.02103e-07
-1.51235e-05
-3.03102e-05
-4.51359e-05
-5.95802e-05
-7.36249e-05
-8.72548e-05
-0.000100457
-0.000113222
-0.000125543
-0.000137418
-0.000148849
-0.00015984
-0.0001704
-0.000180543
-0.000190288
-0.000199654
-0.000208662
-0.000217339
-0.000225709
-0.000233801
-0.000241642
-0.00024926
-0.000256681
-0.000263929
-0.000271027
-0.000277996
-0.000284854
-0.000291617
-0.000298299
-0.000304913
-0.000311469
-0.000317976
-0.000324442
-0.000330872
-0.000337271
-0.00034364
-0.000349978
-0.00035628
-0.00036254
-0.00036875
-0.000374909
-0.000381023
-0.000387114
-0.000393207
-0.00039937
-0.000405521
-0.000411523
-0.000417025
-0.000421917
-0.000426142
-0.000429276
-0.000431243
-0.000433106
-0.000435419
0.000221585
0.000203209
0.000184827
0.000166424
0.000148056
0.000129761
0.000111566
9.35009e-05
7.55965e-05
5.78845e-05
4.03961e-05
2.31625e-05
6.21445e-06
-1.04179e-05
-2.67051e-05
-4.26193e-05
-5.81338e-05
-7.32241e-05
-8.78677e-05
-0.000102045
-0.00011574
-0.000128938
-0.00014163
-0.000153811
-0.00016548
-0.00017664
-0.0001873
-0.000197474
-0.00020718
-0.000216443
-0.000225287
-0.000233741
-0.000241838
-0.00024961
-0.000257093
-0.000264321
-0.000271326
-0.00027814
-0.000284792
-0.000291306
-0.000297705
-0.000304008
-0.000310229
-0.000316383
-0.000322481
-0.000328533
-0.000334547
-0.00034053
-0.000346487
-0.00035242
-0.00035833
-0.000364215
-0.000370073
-0.000375906
-0.000381722
-0.000387538
-0.000393401
-0.00039932
-0.000405298
-0.000411218
-0.000416834
-0.000421751
-0.000425899
-0.000429305
-0.000431544
-0.000432544
-0.000433504
-0.000435472
-0.000438635
0.000200096
0.000180812
0.000161543
0.000142279
0.000123075
0.000103974
8.5006e-05
6.62045e-05
4.76038e-05
2.92389e-05
1.11447e-05
-6.64413e-06
-2.40932e-05
-4.11689e-05
-5.78385e-05
-7.40705e-05
-8.98356e-05
-0.000105106
-0.000119857
-0.000134068
-0.000147719
-0.000160797
-0.000173292
-0.0001852
-0.000196522
-0.000207263
-0.000217438
-0.000227065
-0.00023617
-0.000244781
-0.000252933
-0.000260663
-0.000268013
-0.000275025
-0.000281744
-0.000288211
-0.000294467
-0.00030055
-0.000306492
-0.00031232
-0.000318057
-0.000323722
-0.000329328
-0.000334887
-0.000340408
-0.000345899
-0.000351368
-0.00035682
-0.000362259
-0.000367687
-0.000373106
-0.000378526
-0.000383965
-0.000389453
-0.000395031
-0.000400725
-0.000406556
-0.000412393
-0.000418091
-0.000423325
-0.000427754
-0.000431294
-0.000434011
-0.000435496
-0.000435742
-0.000435906
-0.000436948
-0.000439114
-0.000442064
0.000174469
0.000154289
0.000134149
0.00011404
9.40183e-05
7.41298e-05
5.44089e-05
3.48918e-05
1.5617e-05
-3.37654e-06
-2.20498e-05
-4.03639e-05
-5.82804e-05
-7.57615e-05
-9.27702e-05
-0.000109271
-0.000125232
-0.00014062
-0.000155408
-0.000169572
-0.00018309
-0.000195949
-0.000208137
-0.00021965
-0.000230492
-0.000240672
-0.000250209
-0.000259128
-0.00026746
-0.000275243
-0.000282522
-0.000289346
-0.000295769
-0.000301846
-0.000307632
-0.000313182
-0.000318546
-0.000323767
-0.000328883
-0.000333924
-0.000338913
-0.000343865
-0.000348789
-0.000353693
-0.00035858
-0.000363455
-0.000368321
-0.000373185
-0.000378059
-0.000382962
-0.000387919
-0.000392972
-0.000398163
-0.000403536
-0.000409106
-0.000414809
-0.000420484
-0.000425861
-0.000430686
-0.000434697
-0.000437777
-0.00043981
-0.000440554
-0.000440315
-0.000440032
-0.000440264
-0.0004412
-0.000442871
-0.00044501
0.000146261
0.000125126
0.000104058
8.30476e-05
6.21513e-05
4.14178e-05
2.08867e-05
5.98274e-07
-1.94044e-05
-3.90776e-05
-5.83775e-05
-7.72602e-05
-9.56823e-05
-0.000113601
-0.000130974
-0.000147761
-0.000163925
-0.000179428
-0.000194239
-0.000208329
-0.000221674
-0.000234256
-0.000246064
-0.000257093
-0.000267347
-0.000276841
-0.000285598
-0.000293649
-0.000301034
-0.000307803
-0.000314015
-0.000319733
-0.000325028
-0.000329971
-0.000334636
-0.000339093
-0.000343403
-0.000347622
-0.000351793
-0.000355948
-0.000360105
-0.000364274
-0.000368453
-0.00037264
-0.000376833
-0.000381035
-0.000385257
-0.000389522
-0.000393868
-0.00039835
-0.000403024
-0.000407963
-0.000413154
-0.000418506
-0.000423889
-0.000429158
-0.000434086
-0.000438444
-0.000442037
-0.000444655
-0.000445978
-0.000446049
-0.000445577
-0.000445181
-0.000444802
-0.000444631
-0.000445124
-0.000446001
-0.000447149
0.000116927
9.46971e-05
7.25535e-05
5.04931e-05
2.8574e-05
6.8489e-06
-1.46379e-05
-3.58409e-05
-5.6712e-05
-7.72017e-05
-9.72603e-05
-0.000116838
-0.000135885
-0.000154352
-0.000172191
-0.000189354
-0.000205798
-0.000221479
-0.000236358
-0.000250401
-0.000263579
-0.000275868
-0.000287253
-0.000297729
-0.0003073
-0.000315983
-0.000323805
-0.000330808
-0.000337043
-0.000342576
-0.000347482
-0.000351847
-0.000355764
-0.00035933
-0.000362642
-0.000365792
-0.000368864
-0.000371925
-0.000375025
-0.000378191
-0.00038143
-0.000384736
-0.000388093
-0.000391494
-0.000394949
-0.00039849
-0.000402178
-0.000406055
-0.000410162
-0.000414498
-0.000419031
-0.000423766
-0.000428637
-0.000433452
-0.000438026
-0.000442201
-0.000445907
-0.000448908
-0.000450667
-0.000451251
-0.000451085
-0.000450797
-0.000450432
-0.000449602
-0.000448711
-0.000448349
-0.00044833
-0.000448507
-0.000449015
8.85704e-05
6.49613e-05
4.14842e-05
1.81196e-05
-5.07474e-06
-2.80404e-05
-5.07274e-05
-7.30847e-05
-9.50585e-05
-0.000116593
-0.000137631
-0.000158117
-0.000177993
-0.000197202
-0.000215688
-0.000233396
-0.000250274
-0.000266269
-0.000281334
-0.000295426
-0.000308506
-0.000320544
-0.000331519
-0.000341424
-0.000350263
-0.000358053
-0.000364823
-0.000370623
-0.000375516
-0.000379588
-0.000382937
-0.000385676
-0.000387932
-0.000389836
-0.000391516
-0.000393098
-0.000394691
-0.000396385
-0.000398244
-0.000400303
-0.000402568
-0.000405027
-0.000407659
-0.000410438
-0.000413374
-0.000416473
-0.000419817
-0.000423435
-0.000427327
-0.000431377
-0.000435415
-0.000439303
-0.000442938
-0.000446408
-0.000449788
-0.000452468
-0.000453872
-0.000454643
-0.00045491
-0.000455115
-0.000455399
-0.000454849
-0.000453639
-0.000452627
-0.00045186
-0.000451325
-0.000450954
-0.000450823
-0.000451146
5.94318e-05
3.42717e-05
9.19291e-06
-1.57524e-05
-4.0503e-05
-6.49976e-05
-8.91782e-05
-0.000112986
-0.000136358
-0.000159231
-0.000181539
-0.000203216
-0.000224196
-0.00024441
-0.000263793
-0.000282279
-0.000299802
-0.000316299
-0.000331709
-0.000345969
-0.000359026
-0.000370832
-0.000381353
-0.000390571
-0.00039849
-0.000405131
-0.00041053
-0.000414749
-0.000417871
-0.00042
-0.000421266
-0.000421819
-0.000421828
-0.000421476
-0.000420953
-0.000420447
-0.000420134
-0.000420168
-0.000420666
-0.000421694
-0.000423262
-0.000425319
-0.000427771
-0.000430475
-0.000433296
-0.000436087
-0.000438794
-0.000441427
-0.000443981
-0.000446603
-0.000449552
-0.00045255
-0.000454633
-0.000455445
-0.000456132
-0.00045696
-0.000456903
-0.00045745
-0.000458554
-0.000458594
-0.000457624
-0.000456613
-0.000455761
-0.000455057
-0.000454448
-0.000453935
-0.000453581
-0.000453495
-0.00045384
3.75013e-05
1.01226e-05
-1.69628e-05
-4.38704e-05
-7.0553e-05
-9.69362e-05
-0.000122954
-0.000148544
-0.000173637
-0.000198163
-0.000222045
-0.00024521
-0.000267579
-0.000289077
-0.000309627
-0.000329153
-0.000347584
-0.000364851
-0.000380883
-0.000395604
-0.00040894
-0.000420825
-0.000431201
-0.000440029
-0.00044729
-0.000452988
-0.000457153
-0.000459844
-0.000461155
-0.000461216
-0.000460199
-0.000458314
-0.000455809
-0.000452963
-0.000450075
-0.000447446
-0.000445348
-0.000443999
-0.000443522
-0.000443918
-0.00044505
-0.000446679
-0.000448514
-0.000450369
-0.000452203
-0.000454157
-0.000456237
-0.000458005
-0.000458711
-0.000458286
-0.000458026
-0.000459028
-0.000459921
-0.000458796
-0.00045776
-0.000459038
-0.000460395
-0.000460513
-0.000459843
-0.000459211
-0.000458567
-0.000457972
-0.00045748
-0.000457077
-0.000456752
-0.000456534
-0.000456456
-0.00045655
-0.000456942
-9.84165e-07
-3.03591e-05
-5.98375e-05
-8.91352e-05
-0.000118188
-0.000146926
-0.000175274
-0.000203154
-0.000230487
-0.000257183
-0.000283155
-0.00030831
-0.000332554
-0.000355794
-0.000377931
-0.000398866
-0.000418497
-0.00043671
-0.000453347
-0.000468243
-0.000481333
-0.000492588
-0.000501944
-0.00050936
-0.000514817
-0.000518327
-0.000519934
-0.000519721
-0.000517817
-0.000514397
-0.000509694
-0.000503992
-0.000497627
-0.000490978
-0.000484451
-0.000478461
-0.000473395
-0.000469578
-0.000467206
-0.000466288
-0.000466587
-0.000467588
-0.00046853
-0.000468636
-0.000467612
-0.000466211
-0.000465633
-0.000466125
-0.000466342
-0.000464468
-0.0004611
-0.000459601
-0.000460732
-0.000462064
-0.000462269
-0.000461486
-0.000460847
-0.000460486
-0.000460076
-0.000459645
-0.000459247
-0.000458932
-0.000458729
-0.000458637
-0.000458641
-0.000458732
-0.000458896
-0.000459119
-0.000459506
-1.47847e-05
-4.66249e-05
-7.78053e-05
-0.000108983
-0.00014002
-0.000170698
-0.000200918
-0.000230615
-0.00025971
-0.000288107
-0.000315708
-0.00034241
-0.000368112
-0.000392715
-0.000416128
-0.000438282
-0.00045915
-0.000478805
-0.000497174
-0.000513807
-0.000528285
-0.000540484
-0.000550419
-0.000558049
-0.00056329
-0.000566072
-0.000566364
-0.000564182
-0.000559603
-0.000552788
-0.000543999
-0.000533623
-0.000522184
-0.00051035
-0.000498906
-0.000488704
-0.000480574
-0.00047518
-0.000472869
-0.000473508
-0.000476402
-0.000480264
-0.000483425
-0.000484072
-0.000480812
-0.000474469
-0.000468412
-0.000465447
-0.000465685
-0.000466904
-0.00046725
-0.000465973
-0.000463987
-0.000462753
-0.000462225
-0.000461703
-0.000461164
-0.000460654
-0.000460178
-0.00045976
-0.000459435
-0.000459238
-0.000459184
-0.000459262
-0.000459446
-0.000459697
-0.000459979
-0.000460278
-0.000460681
-0.000110743
-0.000145125
-0.000179724
-0.000213934
-0.000247674
-0.000280982
-0.000313804
-0.000346023
-0.000377524
-0.000408194
-0.000437914
-0.00046655
-0.000493953
-0.000519963
-0.000544395
-0.000567031
-0.000587613
-0.000605796
-0.000621435
-0.000634801
-0.000646077
-0.000655083
-0.000661524
-0.000665184
-0.000665928
-0.000663662
-0.000658339
-0.000649974
-0.000638682
-0.000624688
-0.000608351
-0.000590175
-0.000570816
-0.000551078
-0.000531884
-0.00051422
-0.000499052
-0.000487206
-0.000479233
-0.000475272
-0.000474937
-0.00047729
-0.000480878
-0.000483896
-0.000485016
-0.000483557
-0.00047986
-0.000475028
-0.000470617
-0.000467977
-0.00046669
-0.000465593
-0.000464479
-0.000463517
-0.00046273
-0.000462013
-0.000461359
-0.000460757
-0.00046022
-0.000459776
-0.000459458
-0.000459289
-0.000459271
-0.000459388
-0.000459609
-0.000459904
-0.000460248
-0.000460626
-0.000461035
0.000276818
0.000283035
0.000289515
0.000296407
0.000303761
0.000311582
0.000319926
0.000328611
0.000337666
0.000347204
0.000357173
0.000367567
0.000378063
0.000389508
0.000400258
0.000411726
0.000422461
0.000433754
0.000444652
0.000455335
0.000466504
0.000475908
0.000485066
0.000493228
0.000500586
0.000507069
0.000512003
0.000515832
0.000518605
0.000519851
0.000519431
0.00051774
0.000514898
0.000511032
0.000505454
0.000498928
0.000491544
0.00048314
0.000474021
0.000464502
0.000454372
0.000443771
0.000433371
0.000423197
0.000412055
0.000401774
0.000391038
0.000380866
0.000370943
0.000361317
0.000352157
0.000343354
0.000335074
0.000327061
0.000319675
0.000312227
0.000305408
0.000299024
0.000293073
0.000278184
0.000284565
0.000291395
0.000298646
0.000306344
0.000314498
0.000323124
0.000332182
0.000341692
0.000351653
0.000362027
0.000372803
0.000383887
0.000395332
0.000406967
0.00041868
0.000430449
0.000442131
0.000453724
0.000464883
0.000475878
0.000486202
0.000495755
0.000504405
0.000512077
0.000518694
0.000524057
0.000528037
0.000530849
0.000532113
0.000531704
0.000530032
0.000527058
0.000522724
0.000517031
0.000510189
0.000502381
0.000493685
0.000484193
0.000474095
0.000463537
0.000452639
0.00044161
0.000430389
0.00041916
0.000408084
0.000397165
0.000386547
0.0003762
0.000366169
0.000356547
0.000347348
0.000338516
0.00033015
0.000322177
0.000314669
0.0003076
0.000300954
0.000294692
0.00027956
0.000286211
0.000293305
0.000300864
0.000308894
0.000317405
0.000326391
0.000335849
0.000345785
0.000356193
0.00036703
0.000378259
0.000389846
0.000401749
0.000413879
0.000426223
0.000438611
0.000450932
0.000463045
0.000474814
0.000486185
0.000496987
0.000507051
0.000516163
0.000524242
0.00053115
0.000536765
0.000541
0.000543867
0.00054515
0.000544832
0.000543085
0.000539867
0.000535243
0.000529265
0.000522103
0.000513873
0.000504747
0.000494813
0.00048425
0.000473201
0.000461739
0.000450045
0.000438287
0.000426538
0.000414949
0.000403544
0.0003924
0.000381567
0.000371087
0.000361019
0.000351367
0.000342148
0.000333373
0.000325084
0.000317265
0.000309886
0.000302939
0.000296404
0.00028071
0.000287641
0.000295036
0.000302914
0.000311287
0.000320164
0.000329547
0.000339434
0.000349823
0.0003607
0.000372039
0.000383801
0.00039595
0.000408423
0.000421131
0.000434039
0.000446991
0.000459905
0.000472612
0.000485016
0.000496969
0.000508266
0.00051881
0.000528384
0.000536881
0.000544145
0.000550036
0.00055449
0.000557455
0.000558785
0.000558489
0.000556636
0.000553215
0.000548348
0.00054206
0.000534529
0.000525872
0.00051625
0.000505798
0.00049469
0.000483064
0.000471032
0.000458777
0.000446471
0.000434158
0.000421985
0.00041001
0.000398311
0.000386956
0.000375988
0.000365448
0.000355358
0.000345738
0.000336594
0.000327935
0.000319752
0.000312033
0.000304772
0.000297954
0.000281571
0.000288797
0.000296513
0.000304735
0.000313475
0.000322745
0.000332549
0.000342887
0.000353754
0.000365134
0.000377002
0.000389323
0.000402053
0.000415125
0.00042846
0.000441977
0.000455557
0.000469096
0.000482445
0.000495478
0.000508032
0.000519904
0.000530965
0.000541026
0.000549953
0.000557588
0.000563788
0.000568459
0.000571547
0.000572935
0.000572624
0.000570663
0.000567057
0.000561924
0.000555311
0.000547381
0.000538269
0.000528132
0.000517128
0.000505429
0.000493194
0.000480569
0.000467718
0.000454785
0.000441864
0.000429075
0.00041651
0.000404243
0.000392341
0.000380851
0.000369813
0.000359253
0.000349187
0.000339623
0.000330564
0.000322006
0.000313942
0.000306358
0.000299239
0.000282124
0.000289663
0.000297717
0.000306302
0.000315433
0.000325121
0.000335372
0.000346187
0.000357559
0.000369472
0.000381902
0.00039481
0.00040815
0.000421857
0.000435851
0.000450038
0.000464302
0.00047852
0.000492547
0.000506236
0.000519418
0.000531905
0.000543534
0.000554117
0.000563502
0.000571529
0.000578053