/*--------------------------------*- C++ -*----------------------------------*\
| =========                 |                                                 |
| \\      /  F ield         | OpenFOAM: The Open Source CFD Toolbox           |
|  \\    /   O peration     | Version:  2312                                  |
|   \\  /    A nd           | Website:  www.openfoam.com                      |
|    \\/     M anipulation  |                                                 |
\*---------------------------------------------------------------------------*/
FoamFile
{
    version     2.0;
    format      ascii;
    arch        "LSB;label=32;scalar=64";
    class       surfaceScalarField;
    location    "100";
    object      phi;
}
// * * * * * * * * * * * * * * * * * * * * * * * * * * * * * * * * * * * * * //

dimensions      [0 3 -1 0 0 0 0];

oriented        oriented;

internalField   nonuniform List<scalar> 
116611
(
0.00112554
0.000402442
-0.00110965
-0.000418334
0.00114131
0.000397854
-0.000413625
0.00115691
0.000392912
-0.000408513
0.00117235
0.000387597
-0.000403036
0.00118754
0.000381891
-0.00039708
0.0012028
0.000375781
-0.00039104
0.00121759
0.000369264
-0.000384056
0.00123238
0.000362325
-0.000377112
0.0012468
0.000354929
-0.000369354
0.00126105
0.00034707
-0.000361312
0.00127502
0.000338726
-0.000352699
0.0012888
0.000329898
-0.000343678
0.00130229
0.000320592
-0.000334088
0.00131547
0.000310739
-0.000323916
0.00132844
0.000300387
-0.000313359
0.00134088
0.000289478
-0.000301911
0.00135323
0.000277981
-0.000290337
0.00136507
0.000265944
-0.00027778
0.00137664
0.000253238
-0.000264806
0.00138771
0.000239992
-0.000251067
0.00139852
0.000226048
-0.00023686
0.00140885
0.000211498
-0.000221823
0.00141869
0.000196253
-0.000206091
0.00142816
0.000180369
-0.000189845
0.00143715
0.000163787
-0.000172777
0.00144565
0.000146468
-0.000154968
0.00145373
0.000128389
-0.000136465
0.00146108
0.000109605
-0.000116953
0.00146816
9.00743e-05
-9.71575e-05
0.00147438
6.97094e-05
-7.59337e-05
0.0014803
4.86747e-05
-5.459e-05
0.00148539
2.66588e-05
-3.17498e-05
0.00149008
3.8753e-06
-8.56866e-06
0.00149396
-1.97434e-05
1.58656e-05
0.00149731
-4.42857e-05
4.094e-05
0.00149985
-6.96284e-05
6.70898e-05
0.0015019
-9.59033e-05
9.38509e-05
0.00150322
-0.000123083
0.000121765
0.0015037
-0.000151183
0.000150698
0.00150339
-0.0001803
0.000180617
0.00150234
-0.00021028
0.000211327
0.00150063
-0.000241256
0.000242966
0.00149808
-0.000273212
0.000275759
0.00149456
-0.000306148
0.000309672
0.00149028
-0.00034011
0.000344392
0.00148513
-0.000375046
0.000380192
0.00147922
-0.00041104
0.000416953
0.00147219
-0.000448075
0.000455103
0.00146438
-0.000486134
0.000493941
0.00145562
-0.000525257
0.000534013
0.00144589
-0.000565482
0.000575212
0.00143527
-0.000606746
0.000617369
0.00142366
-0.000649112
0.000660726
0.00141097
-0.000692632
0.000705323
0.00139723
-0.000737259
0.000751001
0.00138267
-0.000782979
0.000797537
0.00136705
-0.000829987
0.000845608
0.00135048
-0.00087816
0.000894727
0.00133277
-0.000927548
0.000945253
0.00131391
-0.000977976
0.000996837
0.00129402
-0.00102926
0.00104915
0.00127233
-0.00108153
0.00110322
0.00124884
-0.00113419
0.00115768
0.00122326
-0.0011868
0.00121238
0.00119544
-0.00123903
0.00126685
0.0011653
-0.0012907
0.00132085
0.00113285
-0.00134156
0.00137401
0.00109781
-0.00139148
0.00142652
-0.00143995
0.00106079
0.00147696
0.00110908
0.000386638
-0.00109328
0.00112474
0.000382194
0.00114025
0.000377401
0.0011556
0.000372246
0.0011708
0.000366694
0.00118581
0.000360768
0.00120064
0.000354441
0.00121527
0.000347697
0.00122967
0.000340526
0.00124384
0.000332899
0.00125776
0.000324808
0.00127141
0.000316245
0.00128481
0.00030719
0.00129792
0.00029763
0.00131073
0.000287573
0.00132324
0.000276968
0.00133541
0.000265819
0.00134725
0.000254101
0.00135869
0.000241798
0.00136979
0.000228894
0.00138046
0.000215372
0.00139074
0.000201225
0.00140056
0.000186427
0.00140996
0.000170974
0.0014189
0.000154842
0.00142737
0.000137995
0.00143532
0.000120444
0.00144275
0.000102171
0.00144968
8.31501e-05
0.00145601
6.33749e-05
0.00146187
4.28207e-05
0.00146708
2.14491e-05
0.00147168
-7.28341e-07
0.00147567
-2.37334e-05
0.00147898
-4.75976e-05
0.00148166
-7.23112e-05
0.00148367
-9.79058e-05
0.00148496
-0.00012438
0.00148555
-0.000151772
0.00148536
-0.000180107
0.00148444
-0.000209359
0.00148274
-0.000239554
0.00148023
-0.000270703
0.00147692
-0.000302836
0.00147277
-0.000335962
0.00146779
-0.000370071
0.00146194
-0.000405188
0.0014552
-0.000441331
0.00144757
-0.000478506
0.00143903
-0.000516714
0.00142953
-0.000555984
0.0014191
-0.000596313
0.00140771
-0.000637727
0.00139534
-0.000680264
0.00138202
-0.000723932
0.00136778
-0.000768737
0.00135252
-0.000814732
0.00133624
-0.000861883
0.00131882
-0.000910123
0.00130013
-0.000959292
0.00128006
-0.00100918
0.00125816
-0.00105963
0.00123424
-0.00111027
0.00120814
-0.00116071
0.00117979
-0.00121068
0.00114914
-0.00126006
0.00111625
-0.00130867
0.00108121
-0.00135644
-0.00140316
0.00104442
0.00109318
0.00037096
-0.0010775
0.00110873
0.000366642
0.00112414
0.000361985
0.00113941
0.000356977
0.00115451
0.000351601
0.00116942
0.00034585
0.00118416
0.000339708
0.00119869
0.000333162
0.00121302
0.000326201
0.00122711
0.000318806
0.00124095
0.000310964
0.00125454
0.00030266
0.00126785
0.00029388
0.00128087
0.00028461
0.0012936
0.000274839
0.00130602
0.000264548
0.00131812
0.000253724
0.00132987
0.000242349
0.00134126
0.000230407
0.00135227
0.00021788
0.00136289
0.000204755
0.0013731
0.000191016
0.00138288
0.000176645
0.00139223
0.000161629
0.00140112
0.000145951
0.00140953
0.000129589
0.00141744
0.000112532
0.00142484
9.47638e-05
0.00143173
7.62684e-05
0.00143807
5.70292e-05
0.00144386
3.70278e-05
0.00144907
1.62456e-05
0.00145367
-5.33355e-06
0.00145766
-2.77259e-05
0.00146101
-5.09474e-05
0.00146372
-7.50114e-05
0.00146574
-9.99316e-05
0.00146708
-0.000125724
0.00146772
-0.000152409
0.00146762
-0.000180003
0.00146677
-0.00020851
0.00146516
-0.000237942
0.00146277
-0.000268316
0.00145958
-0.000299649
0.00145557
-0.000331951
0.00145073
-0.000365228
0.00144504
-0.000399494
0.00143847
-0.000434765
0.00143101
-0.000471049
0.00142265
-0.000508357
0.00141338
-0.000546708
0.00140319
-0.00058612
0.00139207
-0.000626613
0.00138003
-0.000668219
0.00136705
-0.000710953
0.00135313
-0.000754814
0.00133819
-0.000799797
0.00132215
-0.00084584
0.00130484
-0.000892819
0.0012861
-0.000940545
0.0012657
-0.000988784
0.00124337
-0.00103731
0.00121893
-0.00108582
0.00119228
-0.00113406
0.00116342
-0.00118182
0.00113238
-0.00122901
0.00109926
-0.00127555
0.00106422
-0.00132139
-0.00136645
0.0010275
0.00107787
0.000355381
-0.00106229
0.00109332
0.000351192
0.00110863
0.000346673
0.00112379
0.000341815
0.00113879
0.000336603
0.00115361
0.000331026
0.00116825
0.000325071
0.00118269
0.000318725
0.00119691
0.000311975
0.00121091
0.000304806
0.00122467
0.000297205
0.00123817
0.000289158
0.0012514
0.000280649
0.00126435
0.000271665
0.001277
0.00026219
0.00128933
0.000252212
0.00130135
0.000241713
0.00131302
0.000230679
0.00132433
0.000219093
0.00133527
0.000206941
0.00134582
0.000194206
0.00135596
0.000180872
0.00136569
0.000166923
0.00137497
0.000152344
0.0013838
0.000137119
0.00139216
0.00012123
0.00140003
0.000104661
0.0014074
8.73961e-05
0.00141425
6.94206e-05
0.00142056
5.07171e-05
0.00142632
3.12692e-05
0.00143151
1.1059e-05
0.0014361
-9.93014e-06
0.00144009
-3.17144e-05
0.00144345
-5.43087e-05
0.00144617
-7.77284e-05
0.00144822
-0.000101988
0.0014496
-0.000127103
0.00145029
-0.000153091
0.00145025
-0.000179965
0.00144948
-0.000207737
0.00144795
-0.000236419
0.00144566
-0.000266026
0.00144258
-0.000296571
0.0014387
-0.000328065
0.00143399
-0.00036052
0.00142844
-0.000393947
0.00142204
-0.00042836
0.00141476
-0.000463774
0.00140661
-0.000500203
0.00139757
-0.000537669
0.00138764
-0.000576193
0.00137682
-0.000615795
0.0013651
-0.000656495
0.00135244
-0.000698294
0.00133879
-0.000741166
0.00132405
-0.000785057
0.00130807
-0.000829859
0.00129066
-0.000875412
0.00127163
-0.000921508
0.00125076
-0.000967918
0.00122788
-0.00101442
0.00120286
-0.0010608
0.00117568
-0.00110688
0.00114639
-0.00115253
0.00111506
-0.00119769
0.00108184
-0.00124233
0.00104686
-0.00128641
-0.00132985
0.00101026
0.00106313
0.000339893
-0.00104765
0.00107849
0.000335836
0.0010937
0.000331459
0.00110877
0.000326752
0.00112367
0.000321704
0.00113839
0.000316301
0.00115293
0.000310533
0.00116727
0.000304387
0.00118139
0.000297848
0.00119529
0.000290905
0.00120896
0.000283543
0.00122237
0.000275748
0.00123551
0.000267507
0.00124837
0.000258805
0.00126093
0.000249627
0.00127318
0.000239959
0.00128511
0.000229786
0.0012967
0.000219092
0.00130793
0.000207862
0.00131879
0.00019608
0.00132926
0.000183731
0.00133933
0.0001708
0.00134899
0.00015727
0.00135821
0.000143125
0.00136698
0.000128349
0.00137528
0.000112926
0.0013831
9.68399e-05
0.00139042
8.00745e-05
0.00139723
6.26139e-05
0.00140351
4.44415e-05
0.00140924
2.5541e-05
0.0014144
5.89588e-06
0.00141898
-1.45108e-05
0.00142296
-3.56952e-05
0.00142632
-5.76724e-05
0.00142905
-8.04578e-05
0.00143113
-0.000104066
0.00143254
-0.000128514
0.00143326
-0.000153814
0.00143328
-0.000179983
0.00143258
-0.000207032
0.00143113
-0.000234975
0.00142893
-0.000263824
0.00142595
-0.000293593
0.00142218
-0.000324294
0.0014176
-0.00035594
0.0014122
-0.000388544
0.00140596
-0.000422123
0.00139888
-0.000456694
0.00139095
-0.000492275
0.00138217
-0.000528888
0.00137253
-0.000566551
0.00136201
-0.000605275
0.00135057
-0.000645058
0.00133816
-0.000685874
0.00132465
-0.000727663
0.00130992
-0.000770326
0.00129378
-0.000813723
0.00127605
-0.000857677
0.00125653
-0.000901991
0.00123508
-0.000946467
0.00121159
-0.000990927
0.00118601
-0.00103522
0.00115837
-0.00107924
0.00112875
-0.00112291
0.00109727
-0.00116621
0.00106406
-0.00120912
0.00102922
-0.00125158
-0.00129336
0.000992735
0.00104899
0.000324496
-0.00103359
0.00106425
0.000320571
0.00107938
0.000316337
0.00109434
0.000311784
0.00110915
0.0003069
0.00112377
0.000301674
0.00113821
0.000296094
0.00115245
0.000290147
0.00116648
0.000283821
0.00118028
0.000277103
0.00119384
0.00026998
0.00120716
0.000262438
0.0012202
0.000254462
0.00123297
0.00024604
0.00124544
0.000237157
0.0012576
0.000227798
0.00126943
0.000217948
0.00128093
0.000207593
0.00129208
0.000196716
0.00130286
0.000185303
0.00131325
0.000173339
0.00132324
0.000160806
0.00133282
0.000147691
0.00134197
0.000133976
0.00135067
0.000119647
0.00135891
0.000104686
0.00136668
8.90774e-05
0.00137394
7.28057e-05
0.0013807
5.58545e-05
0.00138694
3.82075e-05
0.00139263
1.98486e-05
0.00139776
7.61731e-07
0.00140232
-1.90704e-05
0.00140629
-3.96632e-05
0.00140965
-6.10323e-05
0.00141239
-8.31928e-05
0.00141448
-0.00010616
0.00141591
-0.000129948
0.00141667
-0.000154572
0.00141674
-0.000180046
0.00141609
-0.000206384
0.00141471
-0.000233599
0.00141259
-0.000261703
0.00140971
-0.000290711
0.00140605
-0.000320636
0.00140161
-0.000351495
0.00139636
-0.000383302
0.00139032
-0.000416075
0.00138346
-0.000449835
0.00137578
-0.000484597
0.00136727
-0.000520378
0.0013579
-0.000557183
0.00134763
-0.000595003
0.00133638
-0.000633809
0.00132404
-0.00067354
0.00131049
-0.000714104
0.00129554
-0.000755376
0.00127902
-0.000797206
0.00126077
-0.000839427
0.00124065
-0.00088187
0.00121856
-0.000924383
0.00119448
-0.000966842
0.00116841
-0.00100915
0.00114041
-0.00105124
0.0011106
-0.0010931
0.0010791
-0.00113471
0.00104602
-0.00117605
0.00101142
-0.00121697
-0.0012569
0.000974963
0.00103544
0.000309187
-0.00102013
0.00105062
0.000305395
0.00106565
0.000301305
0.00108053
0.000296907
0.00109524
0.00029219
0.00110977
0.000287141
0.00112411
0.00028175
0.00113826
0.000276005
0.00115219
0.000269893
0.00116589
0.000263401
0.00117935
0.000256517
0.00119256
0.000249227
0.00120551
0.000241517
0.00121817
0.000233375
0.00123055
0.000224785
0.00124261
0.000215734
0.00125435
0.000206206
0.00126576
0.000196187
0.00127681
0.000185662
0.0012875
0.000174616
0.0012978
0.000163033
0.00130771
0.000150897
0.00131721
0.000138193
0.00132628
0.000124906
0.00133491
0.000111018
0.00134308
9.6515e-05
0.00135078
8.13798e-05
0.00135799
6.55967e-05
0.00136469
4.91495e-05
0.00137088
3.20221e-05
0.00137653
1.41986e-05
0.00138163
-4.33706e-06
0.00138616
-2.36021e-05
0.00139011
-4.36115e-05
0.00139346
-6.43809e-05
0.00139619
-8.59252e-05
0.00139829
-0.00010826
0.00139974
-0.000131399
0.00140052
-0.000155357
0.00140063
-0.000180149
0.00140003
-0.000205788
0.00139872
-0.000232289
0.00139668
-0.000259665
0.0013939
-0.000287933
0.00139038
-0.000317107
0.00138609
-0.000347206
0.00138103
-0.000378245
0.0013752
-0.000410243
0.00136858
-0.000443214
0.00136115
-0.000477169
0.00135288
-0.000512106
0.00134371
-0.000548012
0.00133355
-0.000584852
0.00132231
-0.000622567
0.00130985
-0.000661071
0.001296
-0.000700255
0.00128061
-0.000739987
0.00126353
-0.000780129
0.00124465
-0.000820542
0.00122387
-0.000861098
0.00120118
-0.000901691
0.00117658
-0.00094224
0.00115012
-0.000982692
0.0011219
-0.00102302
0.00109204
-0.00106323
0.00106065
-0.00110333
0.00102783
-0.00114323
0.000993474
-0.00118261
-0.00121997
0.000956536
0.00102252
0.000293964
-0.0010073
0.00103761
0.000290307
0.00105255
0.000286362
0.00106734
0.000282121
0.00108196
0.000277571
0.0010964
0.000272701
0.00111065
0.000267501
0.00112469
0.000261959
0.00113853
0.000256061
0.00115213
0.000249797
0.00116549
0.000243153
0.0011786
0.000236116
0.00119145
0.000228672
0.00120401
0.00022081
0.00121629
0.000212513
0.00122825
0.000203769
0.00123989
0.000194563
0.0012512
0.00018488
0.00126216
0.000174705
0.00127275
0.000164023
0.00128296
0.00015282
0.00129278
0.000141078
0.00130219
0.000128783
0.00131118
0.000115919
0.00131973
0.000102471
0.00132782
8.8421e-05
0.00133545
7.37544e-05
0.00134259
5.84549e-05
0.00134923
4.25065e-05
0.00135536
2.5893e-05
0.00136096
8.59864e-06
0.00136602
-9.39281e-06
0.00137051
-2.80979e-05
0.00137443
-4.75319e-05
0.00137776
-6.771e-05
0.00138048
-8.86476e-05
0.00138258
-0.000110359
0.00138404
-0.000132861
0.00138485
-0.000156166
0.00138499
-0.00018029
0.00138445
-0.000205248
0.00138322
-0.000231056
0.00138128
-0.000257728
0.00137863
-0.000285282
0.00137526
-0.000313734
0.00137115
-0.0003431
0.0013663
-0.000373395
0.00136069
-0.00040463
0.00135428
-0.000436809
0.00134704
-0.000469927
0.0013389
-0.000503962
0.00132977
-0.000538879
0.00131953
-0.000574617
0.00130806
-0.0006111
0.00129522
-0.000648231
0.00128087
-0.0006859
0.00126487
-0.00072399
0.00124713
-0.000762389
0.00122758
-0.000800991
0.00120619
-0.000839708
0.00118297
-0.000878471
0.00115797
-0.000917236
0.00113126
-0.000955983
0.00110295
-0.000994718
0.00107318
-0.00103346
0.00104205
-0.0010722
0.00100955
-0.00111072
0.000975182
-0.00114825
-0.00118087
0.000936082
0.00101025
0.000278827
-0.000995111
0.00102525
0.000275305
0.0010401
0.000271507
0.0010548
0.000267423
0.00106933
0.000263042
0.00108368
0.000258353
0.00109783
0.000253346
0.00111179
0.000248007
0.00112552
0.000242326
0.00113903
0.00023629
0.00115229
0.000229887
0.0011653
0.000223104
0.00117805
0.000215928
0.00119051
0.000208346
0.00120268
0.000200344
0.00121454
0.000191907
0.00122609
0.000183022
0.00123729
0.000173674
0.00124815
0.000163849
0.00125864
0.00015353
0.00126876
0.000142704
0.00127848
0.000131355
0.0012878
0.000119467
0.00129669
0.000107024
0.00130515
9.40103e-05
0.00131316
8.04106e-05
0.00132071
6.62085e-05
0.00132778
5.1388e-05
0.00133435
3.59331e-05
0.00134041
1.98278e-05
0.00134596
3.05626e-06
0.00135096
-1.4398e-05
0.00135541
-3.2551e-05
0.0013593
-5.14182e-05
0.00136261
-7.10149e-05
0.00136531
-9.13568e-05
0.00136741
-0.000112459
0.00136889
-0.000134337
0.00136973
-0.000157007
0.00136993
-0.000180484
0.00136946
-0.000204784
0.00136833
-0.000229923
0.00136652
-0.000255918
0.00136402
-0.000282783
0.00136082
-0.000310533
0.0013569
-0.00033918
0.00135223
-0.000368729
0.00134678
-0.000399178
0.00134049
-0.000430517
0.00133328
-0.000462722
0.00132507
-0.000495752
0.00131575
-0.000529553
0.00130519
-0.000564054
0.00129326
-0.000599173
0.00127984
-0.000634817
0.00126484
-0.000670892
0.00124815
-0.000707305
0.00122973
-0.000743971
0.00120956
-0.000780817
0.00118764
-0.000817787
0.00116401
-0.000854843
0.00113874
-0.000891967
0.00111192
-0.000929168
0.00108368
-0.000966478
0.00105414
-0.00100392
0.00102335
-0.00104141
0.000990977
-0.00107835
0.000955565
-0.00111283
-0.00113659
0.000911287
0.000998654
0.000263774
-0.0009836
0.00101357
0.000260389
0.00102834
0.000256739
0.00104295
0.000252814
0.00105739
0.000248603
0.00107164
0.000244096
0.00108571
0.000239282
0.00109956
0.000234149
0.0011132
0.000228686
0.00112661
0.00022288
0.00113978
0.00021672
0.00115269
0.000210193
0.00116534
0.000203285
0.0011777
0.000195984
0.00118976
0.000188277
0.00120152
0.000180148
0.00121296
0.000171585
0.00122406
0.000162572
0.00123482
0.000153096
0.0012452
0.000143141
0.00125522
0.000132691
0.00126484
0.000121732
0.00127406
0.000110249
0.00128286
9.82242e-05
0.00129123
8.56433e-05
0.00129915
7.249e-05
0.00130661
5.87483e-05
0.00131359
4.4402e-05
0.00132009
2.94352e-05
0.00132609
1.38318e-05
0.00133157
-2.42402e-06
0.00133652
-1.93494e-05
0.00134093
-3.69598e-05
0.00134478
-5.52713e-05
0.00134806
-7.42996e-05
0.00135077
-9.40607e-05
0.00135288
-0.000114571
0.00135439
-0.000135845
0.00135528
-0.000157901
0.00135555
-0.000180754
0.00135519
-0.00020442
0.00135418
-0.000228913
0.00135251
-0.000254247
0.00135016
-0.000280434
0.0013471
-0.000307479
0.00134331
-0.000335384
0.00133872
-0.000364143
0.00133328
-0.00039374
0.00132691
-0.000424147
0.00131952
-0.000455327
0.001311
-0.000487228
0.00130123
-0.000519789
0.00129012
-0.00055294
0.00127755
-0.000586606
0.00126344
-0.00062071
0.00124773
-0.000655177
0.00123036
-0.000689939
0.00121133
-0.000724936
0.00119063
-0.000760122
0.00116831
-0.000795464
0.00114442
-0.00083095
0.00111904
-0.000866588
0.00109228
-0.000902412
0.00106427
-0.000938465
0.00103508
-0.000974724
0.00100451
-0.00101085
0.000971463
-0.0010453
0.000932047
-0.00107342
-0.00107964
0.000875104
0.000987781
0.000248803
-0.00097281
0.00100261
0.000245556
0.0010173
0.000242056
0.00103182
0.000238292
0.00104617
0.000234253
0.00106034
0.00022993
0.00107431
0.000225311
0.00108807
0.000220385
0.00110162
0.000215141
0.00111493
0.000209567
0.001128
0.000203651
0.00114081
0.000197381
0.00115335
0.000190743
0.00116561
0.000183725
0.00117757
0.000176313
0.00118923
0.000168494
0.00120056
0.000160253
0.00121156
0.000151576
0.0012222
0.000142449
0.00123249
0.000132856
0.0012424
0.000122783
0.00125191
0.000112214
0.00126103
0.000101133
0.00126973
8.95246e-05
0.001278
7.73732e-05
0.00128583
6.46626e-05
0.0012932
5.13766e-05
0.0013001
3.7499e-05
0.00130652
2.30137e-05
0.00131245
7.90437e-06
0.00131787
-7.84524e-06
0.00132278
-2.42524e-05
0.00132715
-4.1333e-05
0.00133098
-5.91033e-05
0.00133426
-7.75798e-05
0.00133698
-9.67787e-05
0.00133912
-0.000116716
0.00134069
-0.000137408
0.00134166
-0.00015887
0.00134202
-0.000181116
0.00134176
-0.00020416
0.00134086
-0.000228011
0.00133929
-0.000252676
0.00133701
-0.000278159
0.00133399
-0.000304456
0.00133016
-0.000331556
0.00132546
-0.000359441
0.0013198
-0.000388085
0.0013131
-0.000417449
0.00130527
-0.000447491
0.0012962
-0.000478157
0.0012858
-0.000509391
0.00127399
-0.000541132
0.0012607
-0.000573317
0.00124588
-0.000605888
0.00122949
-0.00063879
0.00121153
-0.000671973
0.00119199
-0.0007054
0.00117091
-0.000739043
0.00114834
-0.000772893
0.00112435
-0.000806959
0.00109904
-0.000841276
0.00107252
-0.000875896
0.00104489
-0.000910835
0.00101604
-0.000945876
0.000985121
-0.000979922
0.000949206
-0.00100938
0.00090029
-0.0010245
-0.00100367
0.000824317
0.000977684
0.000233912
-0.000962793
0.000992434
0.000230806
0.00100703
0.000227456
0.00102147
0.000223854
0.00103574
0.000219989
0.00104981
0.000215851
0.0010637
0.000211429
0.00107737
0.000206713
0.00109082
0.00020169
0.00110404
0.00019635
0.00111701
0.00019068
0.00112972
0.000184668
0.00114216
0.000178302
0.00115432
0.000171568
0.00116618
0.000164454
0.00117773
0.000156945
0.00118895
0.000149027
0.00119984
0.000140687
0.00121038
0.000131909
0.00122056
0.000122678
0.00123036
0.00011298
0.00123978
0.000102799
0.00124879
9.21184e-05
0.0012574
8.09235e-05
0.00126557
6.91978e-05
0.00127331
5.69249e-05
0.0012806
4.40887e-05
0.00128742
3.06726e-05
0.00129378
1.666e-05
0.00129965
2.03477e-06
0.00130502
-1.32205e-05
0.00130989
-2.91228e-05
0.00131425
-4.56885e-05
0.00131808
-6.29339e-05
0.00132137
-8.08753e-05
0.00132412
-9.95284e-05
0.00132631
-0.000118908
0.00132793
-0.000139028
0.00132896
-0.0001599
0.00132938
-0.000181536
0.00132916
-0.000203941
0.00132827
-0.000227119
0.00132667
-0.000251069
0.00132429
-0.000275785
0.00132109
-0.000301254
0.00131699
-0.000327457
0.00131192
-0.000354369
0.00130579
-0.000381958
0.00129853
-0.000410185
0.00129005
-0.000439009
0.00128027
-0.000468383
0.00126914
-0.000498259
0.0012566
-0.000528588
0.0012426
-0.000559322
0.00122713
-0.000590417
0.00121017
-0.000621833
0.00119174
-0.000653539
0.00117185
-0.000685512
0.00115055
-0.000717746
0.00112791
-0.000750251
0.00110402
-0.000783062
0.00107897
-0.000816233
0.00105288
-0.000849802
0.00102567
-0.000883625
0.000996674
-0.000916881
0.000963512
-0.00094676
0.00091998
-0.000965852
0.000853354
-0.000957876
-0.000899478
0.000749162
0.000968432
0.000219097
-0.000953617
0.000983105
0.000216133
0.000997625
0.000212936
0.00101198
0.000209498
0.00102616
0.000205809
0.00104016
0.000201858
0.00105395
0.000197635
0.00106753
0.000193129
0.00108089
0.00018833
0.00109402
0.000183225
0.0011069
0.000177803
0.00111951
0.000172052
0.00113186
0.000165958
0.00114391
0.00015951
0.00115567
0.000152694
0.00116712
0.000145496
0.00117825
0.000137902
0.00118904
0.000129898
0.00119948
0.000121469
0.00120955
0.0001126
0.00121926
0.000103275
0.00122858
9.34799e-05
0.0012375
8.31973e-05
0.00124601
7.24116e-05
0.0012541
6.11063e-05
0.00126176
4.92651e-05
0.00126898
3.68711e-05
0.00127574
2.39078e-05
0.00128204
1.03585e-05
0.00128787
-3.79364e-06
0.00129322
-1.85662e-05
0.00129807
-3.39755e-05
0.00130242
-5.00375e-05
0.00130625
-6.67674e-05
0.00130956
-8.418e-05
0.00131232
-0.000102288
0.00131451
-0.000121104
0.00131612
-0.000140637
0.00131712
-0.000160895
0.00131746
-0.000181881
0.00131712
-0.000203597
0.00131604
-0.000226038
0.00131417
-0.000249197
0.00131144
-0.000273062
0.0013078
-0.000297615
0.00130318
-0.000322834
0.0012975
-0.000348692
0.0012907
-0.000375159
0.00128272
-0.0004022
0.00127349
-0.000429779
0.00126296
-0.000457858
0.0012511
-0.000486398
0.00123788
-0.000515362
0.00122327
-0.000544712
0.00120727
-0.000574418
0.00118989
-0.000604453
0.00117115
-0.000634799
0.00115109
-0.000665451
0.00112976
-0.000696424
0.00110726
-0.00072775
0.00108369
-0.000759485
0.00105913
-0.000791674
0.00103354
-0.000824212
0.00100632
-0.000856407
0.000975383
-0.000885946
0.00093539
-0.000906767
0.000875601
-0.000906063
0.000781612
-0.000863888
-0.000766655
0.000648789
0.000960125
0.000204351
-0.000945379
0.000974728
0.00020153
0.000989176
0.000198488
0.00100346
0.000195216
0.00101756
0.000191704
0.00103148
0.000187941
0.0010452
0.000183919
0.0010587
0.000179626
0.00107198
0.000175051
0.00108502
0.000170184
0.00109781
0.000165011
0.00111034
0.000159521
0.0011226
0.000153702
0.00113457
0.000147541
0.00114624
0.000141024
0.00115759
0.000134137
0.00116863
0.000126867
0.00117933
0.000119199
0.00118968
0.000111118
0.00119967
0.000102608
0.00120929
9.3655e-05
0.00121853
8.42422e-05
0.00122738
7.43536e-05
0.00123581
6.39728e-05
0.00124384
5.30832e-05
0.00125143
4.16682e-05
0.00125859
2.97109e-05
0.00126531
1.71949e-05
0.00127156
4.10347e-06
0.00127735
-9.58009e-06
0.00128265
-2.38723e-05
0.00128747
-3.87878e-05
0.00129177
-5.43408e-05
0.00129555
-7.05442e-05
0.00129878
-8.74096e-05
0.00130143
-0.000104947
0.00130349
-0.000123163
0.00130492
-0.000142063
0.00130567
-0.00016165
0.00130572
-0.000181923
0.001305
-0.000202878
0.00130347
-0.000224508
0.00130107
-0.000246801
0.00129775
-0.000269743
0.00129345
-0.000293316
0.00128812
-0.000317498
0.00128169
-0.000342266
0.00127413
-0.000367593
0.00126538
-0.00039345
0.0012554
-0.000419807
0.00124418
-0.000446633
0.00123168
-0.000473898
0.00121789
-0.000501573
0.00120281
-0.000529632
0.00118645
-0.000558053
0.00116882
-0.000586824
0.00114996
-0.000615943
0.00112993
-0.000645425
0.00110882
-0.000675308
0.00108671
-0.000705645
0.00106371
-0.000736478
0.00103975
-0.000767715
0.00101426
-0.000798726
0.000985277
-0.000827421
0.000947927
-0.000848595
0.000892625
-0.000851465
0.00080575
-0.000819188
0.000678544
-0.000736682
-0.000609259
0.000521147
0.000952922
0.00018966
-0.000938232
0.000967469
0.000186984
0.000981859
0.000184098
0.000996082
0.000180992
0.00101013
0.000177659
0.00102398
0.000174087
0.00103763
0.000170266
0.00105107
0.000166187
0.00106429
0.000161838
0.00107726
0.000157208
0.00108999
0.000152286
0.00110245
0.000147059
0.00111464
0.000141515
0.00112654
0.00013564
0.00113814
0.000129423
0.00114943
0.000122848
0.00116039
0.000115901
0.00117102
0.000108569
0.00118131
0.000100835
0.00119123
9.26854e-05
0.00120078
8.41035e-05
0.00120995
7.50735e-05
0.00121872
6.55792e-05
0.00122709
5.56042e-05
0.00123504
4.51321e-05
0.00124257
3.41465e-05
0.00124965
2.26309e-05
0.00125627
1.05692e-05
0.00126243
-2.05422e-06
0.0012681
-1.52553e-05
0.00127328
-2.90478e-05
0.00127794
-4.34446e-05
0.00128205
-5.84573e-05
0.0012856
-7.40962e-05
0.00128856
-9.03696e-05
0.0012909
-0.000107284
0.00129258
-0.000124844
0.00129357
-0.000143051
0.00129383
-0.000161905
0.00129331
-0.000181403
0.00129197
-0.000201538
0.00128976
-0.000222302
0.00128664
-0.000243683
0.00128257
-0.000265668
0.00127749
-0.00028824
0.00127137
-0.00031138
0.00126418
-0.000335068
0.00125586
-0.000359281
0.00124641
-0.000383995
0.00123579
-0.000409185
0.00122398
-0.000434828
0.00121099
-0.0004609
0.00119679
-0.000487381
0.00118142
-0.000514254
0.00116487
-0.00054151
0.0011472
-0.000569153
0.00112846
-0.000597201
0.00110873
-0.000625694
0.00108811
-0.000654689
0.00106668
-0.000684217
0.00104437
-0.000714162
0.00102056
-0.000743905
0.000993267
-0.000771437
0.00095783
-0.000791985
0.000905474
-0.000796239
0.000823707
-0.000769698
0.000703142
-0.000698623
0.00054936
-0.000582899
-0.000442656
0.000382757
0.000947092
0.000175001
-0.000932433
0.000961606
0.00017247
0.000975964
0.00016974
0.000990153
0.000166803
0.00100416
0.000163649
0.00101798
0.000160268
0.0010316
0.00015665
0.001045
0.000152786
0.00105817
0.000148665
0.00107111
0.000144274
0.00108379
0.000139604
0.00109621
0.000134641
0.00110835
0.000129374
0.0011202
0.00012379
0.00113174
0.000117875
0.00114298
0.000111615
0.00115388
0.000104997
0.00116444
9.80057e-05
0.00117465
9.06264e-05
0.00118449
8.28438e-05
0.00119396
7.46422e-05
0.00120302
6.6006e-05
0.00121168
5.69191e-05
0.00121992
4.73654e-05
0.00122773
3.73289e-05
0.00123508
2.67937e-05
0.00124197
1.57442e-05
0.00124837
4.16518e-06
0.00125427
-7.9581e-06
0.00125966
-2.06394e-05
0.0012645
-3.38909e-05
0.00126878
-4.77238e-05
0.00127247
-6.21479e-05
0.00127555
-7.71717e-05
0.00127798
-9.28017e-05
0.00127974
-0.000109042
0.00128079
-0.000125897
0.0012811
-0.000143365
0.00128064
-0.000161445
0.00127937
-0.000180133
0.00127725
-0.000199422
0.00127426
-0.000219305
0.00127034
-0.00023977
0.00126548
-0.000260804
0.00125963
-0.000282394
0.00125278
-0.000304523
0.00124488
-0.000327173
0.00123592
-0.000350325
0.00122589
-0.00037396
0.00121476
-0.00039806
0.00120254
-0.000422604
0.00118922
-0.000447579
0.00117481
-0.000472972
0.00115934
-0.00049878
0.00114284
-0.000525013
0.00112538
-0.000551694
0.00110705
-0.000578866
0.00108794
-0.000606586
0.00106812
-0.000634873
0.00104746
-0.000663555
0.00102522
-0.000691924
0.00099929
-0.000717974
0.000964933
-0.00073708
0.00091383
-0.000740882
0.000834515
-0.000716924
0.000718064
-0.000653248
0.000568305
-0.000548864
0.000405666
-0.00042026
-0.000296811
0.000259821
0.000943036
0.000160345
-0.00092838
0.000957545
0.000157961
0.000971895
0.00015539
0.000986075
0.000152623
0.00100007
0.000149651
0.00101388
0.000146464
0.00102747
0.000143054
0.00104085
0.000139409
0.00105399
0.00013552
0.00106689
0.000131376
0.00107953
0.000126965
0.0010919
0.000122275
0.00110398
0.000117295
0.00111576
0.000112011
0.00112722
0.000106411
0.00113835
0.000100482
0.00114914
9.4208e-05
0.00115957
8.75763e-05
0.00116963
8.05717e-05
0.00117929
7.31791e-05
0.00118855
6.53833e-05
0.00119739
5.71686e-05
0.00120579
4.85195e-05
0.00121373
3.942e-05
0.00122121
2.98547e-05
0.00122819
1.9808e-05
0.00123467
9.2648e-06
0.00124063
-1.78942e-06
0.00124604
-1.33687e-05
0.00125088
-2.54856e-05
0.00125514
-3.81517e-05
0.0012588
-5.13776e-05
0.00126182
-6.51725e-05
0.00126419
-7.95437e-05
0.00126589
-9.4497e-05
0.00126688
-0.000110036
0.00126715
-0.000126163
0.00126666
-0.000142877
0.00126539
-0.000160175
0.00126331
-0.000178054
0.0012604
-0.000196508
0.00125662
-0.000215527
0.00125195
-0.000235102
0.00124637
-0.000255222
0.00123985
-0.000275873
0.00123237
-0.000297043
0.00122391
-0.000318715
0.00121446
-0.000340875
0.00120401
-0.000363509
0.00119256
-0.000386602
0.0011801
-0.000410145
0.00116665
-0.000434131
0.00115224
-0.000458566
0.00113692
-0.000483462
0.00112076
-0.000508853
0.00110386
-0.000534788
0.0010863
-0.000561312
0.00106813
-0.000588411
0.0010491
-0.000615842
0.00102825
-0.000642709
0.00100318
-0.000666848
0.000968887
-0.000683685
0.000917235
-0.000685428
0.000837762
-0.000661409
0.000722527
-0.000601689
0.000574876
-0.000505597
0.0004129
-0.000386887
0.000263983
-0.000271344
-0.000186487
0.00015366
0.000941003
0.000145694
-0.000926352
0.0009555
0.000143464
0.000969831
0.000141059
0.000983984
0.000138471
0.000997944
0.00013569
0.0010117
0.000132709
0.00102524
0.000129517
0.00103854
0.000126105
0.0010516
0.000122463
0.0010644
0.00011858
0.00107691
0.000114446
0.00108914
0.000110048
0.00110106
0.000105376
0.00111265
0.000100417
0.00112391
9.51569e-05
0.00113481
8.95838e-05
0.00114533
8.36836e-05
0.00115546
7.74421e-05
0.00116519
7.08446e-05
0.00117449
6.38764e-05
0.00118336
5.6522e-05
0.00119176
4.8766e-05
0.00119969
4.05927e-05
0.00120712
3.19863e-05
0.00121404
2.29311e-05
0.00122044
1.34117e-05
0.00122629
3.41285e-06