/*--------------------------------*- C++ -*----------------------------------*\
| =========                 |                                                 |
| \\      /  F ield         | OpenFOAM: The Open Source CFD Toolbox           |
|  \\    /   O peration     | Version:  2312                                  |
|   \\  /    A nd           | Website:  www.openfoam.com                      |
|    \\/     M anipulation  |                                                 |
\*---------------------------------------------------------------------------*/
FoamFile
{
    version     2.0;
    format      ascii;
    arch        "LSB;label=32;scalar=64";
    class       volVectorField;
    location    "100";
    object      U;
}
// * * * * * * * * * * * * * * * * * * * * * * * * * * * * * * * * * * * * * //

dimensions      [0 1 -1 0 0 0 0];

internalField   nonuniform List<vector> 
76025
(
(0.0373599 -0.00801631 0)
(0.0375536 -0.00808145 5.74376e-22)
(0.0377487 -0.00814203 0)
(0.0379466 -0.00819911 0)
(0.0381419 -0.00825428 -1.01946e-21)
(0.0383475 -0.00829861 -1.89949e-21)
(0.0385509 -0.00834387 3.2675e-21)
(0.0387591 -0.00838027 -1.3695e-21)
(0.0389662 -0.00841536 -4.19518e-22)
(0.0391738 -0.00844603 3.97307e-22)
(0.0393829 -0.00847168 4.02201e-24)
(0.0395952 -0.00849014 1.02734e-21)
(0.0398105 -0.00850669 -1.38076e-21)
(0.0400252 -0.00851656 0)
(0.0402442 -0.00851751 2.84106e-22)
(0.0404589 -0.00852164 0)
(0.040678 -0.00851102 0)
(0.0408962 -0.00850461 0)
(0.0411161 -0.00848569 2.07441e-22)
(0.041334 -0.00846861 -1.74223e-22)
(0.0415533 -0.00844034 -1.5131e-22)
(0.0417746 -0.00840958 -3.8989e-22)
(0.0419932 -0.00837335 2.49673e-22)
(0.0422124 -0.00832969 2.42948e-22)
(0.0424316 -0.00828388 -4.54054e-23)
(0.0426495 -0.00823764 -7.31063e-24)
(0.04287 -0.00817585 -6.17234e-23)
(0.0430864 -0.00811487 3.24584e-23)
(0.0433053 -0.00804552 1.37292e-23)
(0.0435224 -0.00796769 -3.52767e-23)
(0.043736 -0.00789839 -6.08163e-23)
(0.043948 -0.00782376 2.08131e-22)
(0.0441614 -0.00773266 -3.35268e-22)
(0.0443739 -0.00764927 -8.89139e-23)
(0.0445844 -0.00755194 4.04767e-22)
(0.0447933 -0.00745931 1.2394e-23)
(0.0450019 -0.0073593 -9.52924e-23)
(0.0452122 -0.00724675 5.68537e-23)
(0.045422 -0.00714018 4.71891e-24)
(0.0456264 -0.00702648 -9.71925e-23)
(0.0458291 -0.00691383 6.56205e-23)
(0.0460343 -0.00679391 -3.48991e-23)
(0.04624 -0.0066585 7.29211e-23)
(0.0464446 -0.0065327 -1.56217e-22)
(0.0466453 -0.0063982 -1.72203e-22)
(0.0468479 -0.00626708 3.29856e-22)
(0.0470508 -0.0061205 3.68083e-22)
(0.0472551 -0.00597786 -1.13288e-21)
(0.0474574 -0.00583291 7.53832e-22)
(0.0476623 -0.00568749 -5.29684e-25)
(0.0478693 -0.00553864 -2.0318e-21)
(0.0480777 -0.00538345 -8.11617e-22)
(0.0482889 -0.00522468 8.62005e-22)
(0.048502 -0.00506398 0)
(0.0487168 -0.00490182 -8.63993e-22)
(0.0489383 -0.00474143 -9.1182e-22)
(0.0491678 -0.00457288 3.3254e-23)
(0.0494043 -0.00440196 -9.07227e-22)
(0.049649 -0.00422844 9.52541e-22)
(0.0498944 -0.00404543 -2.76542e-21)
(0.0501498 -0.00386398 -1.91396e-21)
(0.0504051 -0.00367632 -6.09485e-23)
(0.0506395 -0.00348095 0)
(0.050844 -0.00327331 4.87475e-21)
(0.0510083 -0.00305321 -1.89072e-21)
(0.0511322 -0.00283102 9.75306e-22)
(0.0511991 -0.00259033 -1.95609e-21)
(0.0512051 -0.00234406 2.04935e-21)
(0.0511775 -0.00209161 4.09468e-21)
(0.0372476 -0.00835811 6.08433e-22)
(0.0374495 -0.00842484 1.74277e-21)
(0.0376537 -0.00848679 -2.3297e-21)
(0.0378604 -0.00854416 0)
(0.0380681 -0.00859787 2.5802e-21)
(0.0382803 -0.00864521 -8.94162e-23)
(0.0384936 -0.00868882 -1.95717e-21)
(0.0387092 -0.00872681 0)
(0.0389266 -0.0087601 3.77653e-24)
(0.039145 -0.00878858 -4.09979e-22)
(0.0393648 -0.00881215 3.87002e-22)
(0.0395859 -0.00883003 6.58438e-24)
(0.0398081 -0.00884309 0)
(0.0400318 -0.00885071 0)
(0.0402574 -0.00885169 5.34573e-22)
(0.0404826 -0.00884935 -1.37752e-21)
(0.0407094 -0.00883978 -2.38023e-22)
(0.0409359 -0.00882658 6.30701e-22)
(0.041163 -0.00880687 -4.17101e-22)
(0.0413897 -0.00878303 1.79206e-22)
(0.0416167 -0.00875297 -1.19166e-22)
(0.0418434 -0.00871785 2.75942e-22)
(0.0420695 -0.00867754 -1.80912e-22)
(0.0422953 -0.00863128 2.28896e-22)
(0.0425207 -0.00858011 -1.34095e-22)
(0.0427457 -0.00852469 -7.73434e-23)
(0.0429702 -0.00846276 3.82941e-23)
(0.0431928 -0.00839697 0)
(0.0434149 -0.00832544 0)
(0.0436359 -0.00824931 -7.58459e-23)
(0.0438564 -0.00816791 0)
(0.0440763 -0.00808273 -1.26226e-22)
(0.0442944 -0.00799178 1.52919e-22)
(0.0445108 -0.00789795 -2.38459e-22)
(0.0447257 -0.00779921 1.07218e-23)
(0.0449392 -0.00769656 -9.76854e-23)
(0.045152 -0.00758837 0)
(0.0453637 -0.00747662 -2.51256e-22)
(0.0455741 -0.0073628 2.00876e-22)
(0.0457829 -0.00724527 -1.72533e-22)
(0.0459902 -0.00712312 1.11197e-22)
(0.046197 -0.00699654 1.16229e-25)
(0.046403 -0.00686753 4.54326e-23)
(0.0466083 -0.00673704 -4.22951e-23)
(0.0468131 -0.00660214 3.7334e-22)
(0.0470179 -0.00646342 -1.93497e-22)
(0.047223 -0.00632144 -2.10305e-22)
(0.0474285 -0.00617856 3.92731e-22)
(0.0476344 -0.00603138 1.25085e-21)
(0.0478416 -0.00588075 -3.41314e-25)
(0.04805 -0.00572761 1.29349e-21)
(0.0482599 -0.00557137 -4.52227e-22)
(0.0484726 -0.00541297 -1.36364e-21)
(0.0486889 -0.00525337 9.02032e-22)
(0.0489092 -0.00509144 0)
(0.0491354 -0.00492555 2.86245e-21)
(0.0493695 -0.00475866 3.45571e-23)
(0.0496107 -0.00459001 -9.55909e-22)
(0.0498577 -0.00441877 -1.00051e-21)
(0.0501059 -0.00424196 0)
(0.0503506 -0.00405649 9.48028e-22)
(0.0505841 -0.00386612 2.96529e-21)
(0.0507904 -0.00366778 0)
(0.0509592 -0.00345898 -2.00045e-21)
(0.0510836 -0.00323926 1.10204e-21)
(0.0511601 -0.00301128 -2.08041e-21)
(0.0511863 -0.00277742 1.04381e-21)
(0.0511641 -0.00254157 -2.17345e-21)
(0.0510978 -0.00229145 -2.2064e-21)
(0.0371306 -0.00871989 -3.02894e-21)
(0.0373414 -0.00878744 1.85189e-21)
(0.0375549 -0.00885024 -5.78421e-22)
(0.0377713 -0.0089082 2.16746e-21)
(0.03799 -0.00896131 -2.69021e-21)
(0.0382107 -0.00900927 -1.97021e-21)
(0.0384336 -0.00905213 2.44413e-21)
(0.0386586 -0.00908974 0)
(0.0388857 -0.00912205 4.68151e-24)
(0.0391143 -0.00914901 0)
(0.0393442 -0.00917059 -3.77805e-22)
(0.0395751 -0.00918669 3.60208e-22)
(0.0398068 -0.00919724 1.60826e-21)
(0.0400394 -0.00920227 -1.28002e-21)
(0.0402729 -0.00920153 2.87931e-22)
(0.0405072 -0.00919523 7.56964e-22)
(0.040742 -0.0091833 -2.53582e-22)
(0.0409771 -0.00916578 -2.15711e-22)
(0.0412122 -0.00914281 -5.24485e-22)
(0.0414472 -0.0091142 3.46678e-22)
(0.0416818 -0.00908011 1.28633e-22)
(0.0419159 -0.00904049 -1.99331e-22)
(0.0421494 -0.00899543 1.2094e-22)
(0.0423823 -0.00894476 5.40329e-23)
(0.0426145 -0.00888873 0)
(0.0428457 -0.00882761 -4.05562e-24)
(0.0430755 -0.00876138 2.57538e-23)
(0.0433042 -0.00868996 -8.02738e-25)
(0.0435318 -0.0086133 0)
(0.0437583 -0.00853181 1.7329e-22)
(0.0439837 -0.00844517 -1.22776e-22)
(0.0442076 -0.00835437 -2.19457e-23)
(0.0444298 -0.00825915 0)
(0.0446504 -0.00815963 8.72311e-23)
(0.0448694 -0.00805593 -3.16875e-22)
(0.0450868 -0.00794794 2.16082e-22)
(0.0453027 -0.00783597 0)
(0.0455173 -0.00772031 2.0366e-22)
(0.0457305 -0.00760108 -2.12171e-22)
(0.0459424 -0.00747844 -3.67335e-23)
(0.0461527 -0.00735209 0)
(0.046362 -0.00722241 -8.47303e-23)
(0.0465704 -0.0070896 -4.55785e-23)
(0.0467783 -0.00695365 4.46188e-23)
(0.0469856 -0.0068146 -2.80059e-22)
(0.0471925 -0.0066726 -2.04042e-22)
(0.0473995 -0.00652791 3.99496e-22)
(0.0476068 -0.00638061 -4.30881e-22)
(0.0478146 -0.00623051 4.42276e-22)
(0.0480233 -0.00607791 -4.33279e-22)
(0.0482336 -0.00592319 -4.42262e-22)
(0.048446 -0.00576617 9.41332e-22)
(0.0486617 -0.00560712 0)
(0.0488818 -0.00544646 9.72167e-22)
(0.0491073 -0.00528407 1.47796e-24)
(0.0493391 -0.00511967 -9.97786e-22)
(0.0495778 -0.00495365 -1.0088e-21)
(0.0498213 -0.00478492 2.00332e-21)
(0.050066 -0.00461221 1.93472e-25)
(0.0503054 -0.0044335 1.03369e-21)
(0.0505317 -0.00424686 -2.07706e-21)
(0.0507357 -0.00405291 -1.04178e-21)
(0.0509059 -0.00385064 3.46345e-23)
(0.0510342 -0.00363929 -1.02297e-21)
(0.0511163 -0.00341957 -1.00529e-21)
(0.051152 -0.00319383 -3.2401e-21)
(0.051142 -0.00296432 0)
(0.0510899 -0.0027326 -1.17722e-21)
(0.0510005 -0.00249607 1.17039e-21)
(0.037011 -0.00910125 0)
(0.0372317 -0.00916966 6.08061e-22)
(0.0374553 -0.00923303 2.86753e-21)
(0.0376815 -0.00929126 -2.27838e-21)
(0.0379102 -0.00934425 -1.54542e-21)
(0.0381412 -0.00939187 2.57692e-21)
(0.0383742 -0.00943399 -4.81636e-22)
(0.0386093 -0.00947058 4.51599e-22)
(0.0388461 -0.00950155 4.31044e-22)
(0.0390845 -0.00952688 1.56072e-21)
(0.0393243 -0.00954648 -1.55111e-21)
(0.0395651 -0.0095603 -1.3548e-21)
(0.0398068 -0.00956826 3.97698e-22)
(0.0400492 -0.00957036 1.20055e-21)
(0.0402921 -0.00956653 -8.43135e-22)
(0.0405354 -0.00955678 2.42463e-22)
(0.040779 -0.00954117 -2.16523e-22)
(0.0410227 -0.00951968 -1.90626e-22)
(0.0412662 -0.00949239 4.99092e-22)
(0.0415093 -0.00945929 -1.81141e-22)
(0.0417519 -0.00942044 -1.294e-22)
(0.0419938 -0.00937585 0)
(0.0422349 -0.00932561 -9.88509e-23)
(0.0424749 -0.00926976 6.2589e-23)
(0.0427138 -0.00920843 1.5006e-23)
(0.0429515 -0.00914179 -6.25782e-23)
(0.0431877 -0.00906986 9.87382e-23)
(0.0434225 -0.00899266 -1.13928e-22)
(0.0436557 -0.00891034 0)
(0.0438874 -0.00882311 -2.17199e-22)
(0.0441174 -0.00873111 -2.35029e-23)
(0.0443457 -0.00863463 2.97009e-22)
(0.0445722 -0.00853371 -1.98196e-22)
(0.0447968 -0.00842848 5.26585e-22)
(0.0450197 -0.00831912 -9.6584e-23)
(0.0452407 -0.00820575 0)
(0.0454599 -0.00808853 0)
(0.0456776 -0.0079676 7.57082e-23)
(0.0458937 -0.0078432 7.44612e-23)
(0.0461082 -0.00771556 4.24025e-23)
(0.0463212 -0.00758465 -1.39141e-24)
(0.046533 -0.00745056 4.36612e-23)
(0.0467439 -0.00731347 0)
(0.0469539 -0.00717358 -5.64819e-24)
(0.0471633 -0.00703102 0)
(0.0473722 -0.0068858 2.02432e-22)
(0.0475811 -0.00673802 9.63487e-24)
(0.0477902 -0.00658784 -6.66802e-22)
(0.0479999 -0.0064354 0)
(0.0482109 -0.00628082 -4.69651e-22)
(0.0484238 -0.00612432 4.6043e-22)
(0.0486397 -0.00596611 -9.36257e-22)
(0.0488597 -0.00580641 0)
(0.0490848 -0.00564546 -2.97467e-21)
(0.0493156 -0.00548313 1.08968e-24)
(0.0495518 -0.00531895 9.9314e-22)
(0.049792 -0.00515233 1.00236e-21)
(0.0500322 -0.00498211 0)
(0.0502666 -0.0048068 0)
(0.0504872 -0.00462473 -1.02213e-21)
(0.0506856 -0.00443461 2.05365e-21)
(0.0508532 -0.00423646 2.06484e-21)
(0.0509823 -0.00403054 0)
(0.0510679 -0.00381735 -2.1673e-21)
(0.051109 -0.00359829 0)
(0.0511073 -0.00337552 3.34383e-21)
(0.0510656 -0.00315108 -1.14042e-21)
(0.0509887 -0.00292596 -1.24585e-21)
(0.0508808 -0.00269991 -1.32519e-21)
(0.0368885 -0.00950297 0)
(0.0371202 -0.00957223 0)
(0.0373544 -0.0096361 5.86559e-22)
(0.0375913 -0.00969447 -2.18884e-21)
(0.0378307 -0.00974723 2.71446e-21)
(0.0380723 -0.00979425 -5.0746e-22)
(0.038316 -0.00983544 0)
(0.0385615 -0.00987073 -4.54448e-22)
(0.0388088 -0.00990006 0)
(0.0390574 -0.00992337 -7.69599e-22)
(0.0393074 -0.0099406 6.17815e-23)
(0.0395584 -0.00995171 7.14972e-22)
(0.0398102 -0.00995664 0)
(0.0400626 -0.0099554 -5.54932e-22)
(0.0403154 -0.00994795 1.58353e-21)
(0.0405683 -0.00993431 -9.63685e-22)
(0.0408212 -0.0099145 1.06155e-21)
(0.0410738 -0.00988855 -2.03923e-22)
(0.0413261 -0.00985651 1.49358e-22)
(0.0415777 -0.00981843 -1.39651e-22)
(0.0418284 -0.00977437 -8.84429e-23)
(0.0420782 -0.00972439 2.53853e-22)
(0.0423269 -0.00966857 1.04491e-22)
(0.0425742 -0.00960703 0)
(0.0428201 -0.00953987 2.53927e-23)
(0.0430644 -0.00946723 6.80787e-23)
(0.043307 -0.00938921 -1.19823e-22)
(0.0435478 -0.00930594 6.77378e-23)
(0.0437866 -0.00921757 -2.35616e-22)
(0.0440236 -0.00912428 3.56938e-22)
(0.0442585 -0.00902623 -1.709e-22)
(0.0444914 -0.00892362 9.90024e-23)
(0.0447222 -0.00881663 0)
(0.0449509 -0.00870544 -1.10053e-22)
(0.0451774 -0.00859023 -1.20892e-22)
(0.045402 -0.00847115 0)
(0.0456246 -0.00834837 1.53861e-22)
(0.0458452 -0.00822209 -2.38157e-22)
(0.0460641 -0.00809251 1.60488e-22)
(0.0462813 -0.00795979 -8.75742e-23)
(0.0464969 -0.00782405 -1.57557e-24)
(0.0467112 -0.00768539 -7.38992e-23)
(0.0469242 -0.00754398 2.41791e-23)
(0.0471363 -0.00739997 1.00015e-22)
(0.0473476 -0.0072535 9.99188e-25)
(0.0475585 -0.00710464 6.50828e-22)
(0.0477692 -0.00695356 0)
(0.0479804 -0.00680044 4.48487e-22)
(0.0481927 -0.00664548 -1.85777e-24)
(0.0484067 -0.00648889 -4.69211e-22)
(0.0486235 -0.00633092 0)
(0.0488441 -0.00617178 -5.03656e-22)
(0.0490693 -0.00601155 4.93119e-22)
(0.0492994 -0.00585016 9.97475e-22)
(0.0495339 -0.00568719 0)
(0.0497706 -0.00552181 -2.07306e-21)
(0.0500061 -0.00535295 2.08951e-21)
(0.0502345 -0.0051793 -2.10133e-21)
(0.0504487 -0.00499946 -3.44977e-23)
(0.0506408 -0.00481229 0)
(0.0508031 -0.0046173 -1.08113e-21)
(0.0509294 -0.0044149 1.05532e-21)
(0.0510154 -0.00420611 1.13158e-21)
(0.0510594 -0.00399223 2.17201e-21)
(0.0510625 -0.00377498 -3.43703e-21)
(0.051028 -0.00355642 2.33942e-21)
(0.05096 -0.00333807 -1.20418e-21)
(0.0508629 -0.00312047 1.31734e-21)
(0.0507391 -0.00290218 4.06118e-21)
(0.0367628 -0.00992708 -2.47647e-21)
(0.0370061 -0.00999707 1.05728e-22)
(0.037252 -0.0100613 2.4082e-21)
(0.0375004 -0.0101196 0)
(0.0377513 -0.0101719 -5.3403e-22)
(0.0380042 -0.0102181 0)
(0.0382592 -0.0102581 9.24531e-22)
(0.0385159 -0.0102918 -5.46978e-23)
(0.0387741 -0.0103191 -1.28121e-21)
(0.0390338 -0.0103401 3.86162e-22)
(0.0392945 -0.0103546 3.67961e-22)
(0.0395561 -0.0103626 3.28997e-22)
(0.0398184 -0.010364 0)
(0.0400811 -0.010359 0)
(0.0403439 -0.0103474 -2.58352e-22)
(0.0406068 -0.0103294 -2.31138e-22)
(0.0408693 -0.0103048 3.65382e-22)
(0.0411313 -0.0102739 -3.65559e-22)
(0.0413927 -0.0102366 -2.81922e-22)
(0.041653 -0.010193 2.01194e-22)
(0.0419123 -0.0101432 -3.67931e-22)
(0.0421703 -0.0100873 3.40822e-23)
(0.0424267 -0.0100253 7.16775e-23)
(0.0426815 -0.00995753 -5.82624e-24)
(0.0429345 -0.00988397 -6.9295e-23)
(0.0431856 -0.00980483 6.95208e-23)
(0.0434346 -0.00972024 1.7693e-22)
(0.0436814 -0.00963037 -1.77645e-22)
(0.043926 -0.0095354 0)
(0.0441682 -0.0094355 0)
(0.0444081 -0.00933088 4.66083e-22)
(0.0446457 -0.00922173 3.94318e-23)
(0.0448808 -0.0091083 -2.21668e-22)
(0.0451135 -0.00899078 -2.6942e-22)
(0.0453439 -0.00886936 2.6609e-22)
(0.0455719 -0.00874422 0)
(0.0457977 -0.00861557 -1.53114e-22)
(0.0460213 -0.0084836 -2.62357e-22)
(0.046243 -0.0083485 1.7216e-22)
(0.0464627 -0.00821045 -3.19584e-24)
(0.0466807 -0.0080696 -1.57518e-23)
(0.0468972 -0.00792609 7.36262e-23)
(0.0471123 -0.00778009 5.39217e-23)
(0.0473263 -0.00763176 1.10555e-22)
(0.0475397 -0.00748125 -5.52704e-22)
(0.0477527 -0.00732875 7.97671e-25)
(0.0479659 -0.00717445 0)
(0.0481801 -0.00701858 -4.89526e-22)
(0.0483959 -0.00686139 1.4718e-21)
(0.0486144 -0.00670309 -9.94122e-22)
(0.0488363 -0.00654386 -5.12853e-22)
(0.0490621 -0.00638372 -1.95291e-23)
(0.0492918 -0.00622249 -5.24286e-22)
(0.0495245 -0.00605969 -3.44895e-23)
(0.0497579 -0.00589452 1.03717e-21)
(0.0499881 -0.00572587 -1.08062e-21)
(0.0502097 -0.00555251 -1.08355e-21)
(0.0504162 -0.00537326 2.14194e-21)
(0.0506006 -0.00518721 -5.74569e-25)
(0.050756 -0.00499397 1.09619e-21)
(0.0508771 -0.00479381 -1.06984e-21)
(0.0509603 -0.00458774 1.08177e-21)
(0.0510043 -0.00437727 -2.19909e-21)
(0.0510096 -0.0041641 -1.15955e-21)
(0.0509793 -0.00395002 2.29247e-21)
(0.0509175 -0.00373684 -1.28102e-21)
(0.0508291 -0.00352512 -3.95663e-21)
(0.0507159 -0.00331498 -1.39321e-21)
(0.050575 -0.00310269 0)
(0.036634 -0.0103754 0)
(0.0368897 -0.0104459 -6.1777e-22)
(0.037148 -0.0105103 -2.67127e-24)
(0.0374089 -0.0105684 0)
(0.037672 -0.01062 0)
(0.0379371 -0.0106651 -4.96751e-22)
(0.0382041 -0.0107036 1.37971e-21)
(0.0384728 -0.0107353 -1.76529e-21)
(0.0387428 -0.0107603 8.62313e-22)
(0.0390141 -0.0107785 -3.87491e-22)
(0.0392862 -0.0107898 0)
(0.0395591 -0.0107943 -3.30096e-22)
(0.0398323 -0.0107918 2.87317e-22)
(0.0401058 -0.0107825 0)
(0.0403792 -0.0107663 0)
(0.0406524 -0.0107432 -1.89146e-22)
(0.0409249 -0.0107134 5.71605e-23)
(0.0411967 -0.0106769 3.31365e-22)
(0.0414674 -0.0106337 2.37687e-22)
(0.0417369 -0.010584 -2.17979e-22)
(0.0420049 -0.0105278 -7.67639e-23)
(0.0422713 -0.0104653 -1.25411e-22)
(0.0425358 -0.0103967 2.94197e-23)
(0.0427982 -0.010322 -5.57757e-23)
(0.0430585 -0.0102415 6.17716e-23)
(0.0433165 -0.0101553 -8.63381e-23)
(0.043572 -0.0100635 1.72562e-22)
(0.0438249 -0.0099665 0)
(0.0440752 -0.00986436 0)
(0.0443229 -0.00975734 0)
(0.0445678 -0.00964564 -9.8453e-23)
(0.04481 -0.0095295 -2.36213e-22)
(0.0450494 -0.00940918 2.4742e-22)
(0.0452861 -0.0092849 2.95026e-22)
(0.0455201 -0.00915686 -2.9133e-22)
(0.0457515 -0.00902527 0)
(0.0459804 -0.00889037 1.77491e-22)
(0.0462069 -0.00875234 -8.79245e-23)
(0.0464312 -0.00861139 0)
(0.0466534 -0.00846772 9.9071e-23)
(0.0468736 -0.00832151 -1.94198e-23)
(0.0470923 -0.00817293 1.29881e-23)
(0.0473096 -0.00802218 -5.34626e-23)
(0.047526 -0.00786945 0)
(0.0477419 -0.00771497 -2.37424e-22)
(0.0479579 -0.00755896 2.33333e-22)
(0.0481747 -0.00740165 0)
(0.0483932 -0.0072433 -2.05159e-23)
(0.0486139 -0.00708408 1.91654e-24)
(0.0488376 -0.0069241 5.02181e-22)
(0.0490643 -0.00676329 0)
(0.0492938 -0.00660135 -2.12886e-23)
(0.0495245 -0.00643773 -5.21047e-22)
(0.049754 -0.0062716 -1.63322e-21)
(0.0499782 -0.00610189 -3.69058e-23)
(0.050192 -0.00592747 1.06319e-21)
(0.0503896 -0.00574733 0)
(0.0505647 -0.00556078 0)
(0.0507114 -0.00536759 1.11199e-21)
(0.0508254 -0.00516815 0)
(0.0509035 -0.00496341 0)
(0.0509447 -0.00475484 6.04536e-25)
(0.0509497 -0.00454419 -1.13815e-21)
(0.0509211 -0.00433331 -2.41724e-21)
(0.050863 -0.00412387 2.47941e-21)
(0.0507801 -0.0039172 -6.31898e-23)
(0.0506774 -0.00371221 1.34416e-21)
(0.0505507 -0.00350952 1.49779e-21)
(0.0503847 -0.00329447 0)
(0.0365024 -0.0108499 0)
(0.0367713 -0.0109208 6.18802e-22)
(0.0370429 -0.0109851 -1.73296e-21)
(0.0373169 -0.0110426 5.88505e-22)
(0.0375932 -0.0110933 0)
(0.0378714 -0.011137 1.45619e-21)
(0.0381513 -0.0111736 -2.32066e-21)
(0.0384327 -0.011203 5.96971e-23)
(0.0387154 -0.0112253 2.01479e-21)
(0.038999 -0.0112402 -4.08311e-22)
(0.0392833 -0.0112479 3.33264e-22)
(0.0395681 -0.0112483 3.02344e-22)
(0.0398531 -0.0112414 -8.18595e-22)
(0.040138 -0.0112272 1.0012e-21)
(0.0404225 -0.0112058 -4.70517e-22)
(0.0407064 -0.0111772 1.52105e-22)
(0.0409895 -0.0111415 -6.44061e-22)
(0.0412714 -0.0110987 1.72363e-22)
(0.041552 -0.011049 -6.28281e-23)
(0.0418309 -0.0109925 1.19105e-22)
(0.042108 -0.0109294 5.78589e-23)
(0.042383 -0.0108597 9.08451e-23)
(0.0426557 -0.0107837 -5.85603e-23)
(0.0429261 -0.0107014 -5.66756e-23)
(0.0431938 -0.0106133 1.96248e-22)
(0.0434587 -0.0105193 -8.55773e-23)
(0.0437209 -0.0104198 2.80524e-22)
(0.04398 -0.010315 -4.50909e-22)
(0.0442361 -0.0102051 0)
(0.0444891 -0.0100904 -2.23745e-22)
(0.044739 -0.00997104 2.24656e-22)
(0.0449858 -0.00984737 1.50012e-23)
(0.0452294 -0.00971965 -1.51343e-22)
(0.04547 -0.00958811 -1.62171e-22)
(0.0457076 -0.00945298 5.1425e-22)
(0.0459423 -0.00931451 -3.3731e-22)
(0.0461742 -0.00917294 2.8573e-22)
(0.0464035 -0.00902848 -3.86e-22)
(0.0466304 -0.00888137 1.95898e-22)
(0.0468551 -0.00873183 -5.07051e-23)
(0.0470778 -0.00858009 0)
(0.0472991 -0.00842635 5.7311e-23)
(0.0475192 -0.00827087 -5.64041e-23)
(0.0477388 -0.00811388 -1.20903e-22)
(0.0479584 -0.00795563 3.66288e-22)
(0.0481787 -0.00779636 -2.44829e-22)
(0.0484003 -0.00763627 -2.48017e-22)
(0.0486239 -0.00747549 0)
(0.0488496 -0.00731401 -1.06472e-21)
(0.0490773 -0.00715165 1.05723e-21)
(0.0493062 -0.00698802 -5.22927e-22)
(0.0495343 -0.00682246 5.1153e-22)
(0.0497589 -0.00665411 5.36898e-22)
(0.049976 -0.00648198 1.0734e-21)
(0.0501808 -0.00630509 1.07674e-21)
(0.050368 -0.00612259 0)
(0.0505323 -0.00593401 -1.12258e-21)
(0.0506688 -0.00573933 0)
(0.0507738 -0.00553904 3.3383e-23)
(0.0508448 -0.00533413 -1.11035e-21)
(0.0508811 -0.00512603 1.12853e-21)
(0.0508835 -0.00491649 1.15365e-21)
(0.0508543 -0.00470736 -1.22115e-21)
(0.0507975 -0.00450043 -3.39002e-23)
(0.0507178 -0.00429716 -2.66444e-24)
(0.0506208 -0.00409799 4.18278e-21)
(0.0505092 -0.00389977 1.53147e-21)
(0.0503661 -0.00370406 1.68056e-21)
(0.0501413 -0.00346647 -1.75896e-21)
(0.0363682 -0.0113528 0)
(0.0366513 -0.0114239 0)
(0.036937 -0.0114879 -1.13292e-21)
(0.0372252 -0.0115446 1.68233e-21)
(0.0375155 -0.011594 5.12506e-22)
(0.0378076 -0.0116359 0)
(0.0381014 -0.0116703 0)
(0.0383964 -0.0116969 -4.14211e-22)
(0.0386925 -0.0117159 7.47248e-22)
(0.0389894 -0.0117272 -7.71134e-23)
(0.0392867 -0.0117308 -1.63629e-21)
(0.0395842 -0.0117265 3.17532e-22)
(0.0398816 -0.0117146 -2.42031e-22)
(0.0401786 -0.011695 4.94623e-22)
(0.0404749 -0.0116677 -1.898e-22)
(0.0407703 -0.0116328 0)
(0.0410644 -0.0115905 0)
(0.041357 -0.0115408 2.84698e-23)
(0.0416478 -0.0114839 2.54178e-22)
(0.0419366 -0.0114199 -6.0804e-23)
(0.0422231 -0.011349 5.42639e-24)
(0.0425071 -0.0112714 -2.32659e-24)
(0.0427884 -0.0111873 5.38543e-23)
(0.0430668 -0.0110968 -2.45833e-23)
(0.0433421 -0.0110002 -8.39904e-23)
(0.0436142 -0.0108979 0)
(0.043883 -0.0107899 0)
(0.0441484 -0.0106766 2.68426e-22)
(0.0444103 -0.0105583 0)
(0.0446687 -0.0104352 2.5294e-22)
(0.0449236 -0.0103076 -2.53813e-22)
(0.0451749 -0.0101758 -1.38492e-22)
(0.0454228 -0.0100401 1.49693e-22)
(0.0456672 -0.00990077 3.36452e-22)
(0.0459083 -0.00975808 -1.70589e-22)
(0.0461463 -0.0096123 -1.93506e-22)
(0.0463813 -0.0094637 1.98484e-22)
(0.0466136 -0.00931253 0)
(0.0468434 -0.00915906 0)
(0.047071 -0.00900356 5.71794e-23)
(0.047297 -0.00884629 0)
(0.0475218 -0.00868751 0)
(0.0477459 -0.00852748 -1.85239e-22)
(0.0479698 -0.00836645 2.48096e-22)
(0.0481943 -0.00820461 -1.29574e-22)
(0.0484196 -0.00804211 2.50895e-22)
(0.0486462 -0.00787897 0)
(0.0488739 -0.00771508 8.10611e-22)
(0.049102 -0.00755012 -2.77042e-24)
(0.0493293 -0.00738358 0)
(0.0495536 -0.00721476 -1.09352e-21)
(0.0497719 -0.00704281 -2.9752e-24)
(0.0499803 -0.00686682 -1.08642e-21)
(0.0501745 -0.00668598 -5.65145e-22)
(0.0503499 -0.00649968 -1.1288e-21)
(0.0505019 -0.00630764 1.10107e-21)
(0.0506266 -0.00611003 1.10396e-21)
(0.0507211 -0.00590744 0)
(0.0507835 -0.00570093 -1.15836e-21)
(0.0508133 -0.00549191 1.08117e-24)
(0.0508113 -0.00528207 0)
(0.0507797 -0.00507327 0)
(0.0507221 -0.00486738 1.25152e-21)
(0.0506435 -0.00466605 0)
(0.0505492 -0.00447031 0)
(0.0504448 -0.00427908 -1.49419e-21)
(0.0503231 -0.00408774 -1.59776e-21)
(0.0501434 -0.00389222 -1.83344e-21)
(0.0497532 -0.00360442 0)
(0.0362319 -0.0118869 0)
(0.0365302 -0.0119579 0)
(0.0368311 -0.0120212 0)
(0.0371344 -0.0120769 5.34739e-22)
(0.0374397 -0.0121246 4.6963e-22)
(0.0377467 -0.0121643 -6.45353e-23)
(0.0380552 -0.0121959 -9.11625e-22)
(0.0383648 -0.0122194 4.12977e-22)
(0.0386753 -0.0122346 -3.64608e-22)
(0.0389863 -0.0122416 -6.79216e-22)
(0.0392974 -0.0122404 0)
(0.0396085 -0.012231 0)
(0.0399191 -0.0122133 -3.01901e-23)
(0.040229 -0.0121875 -6.51623e-22)
(0.0405379 -0.0121537 6.80774e-22)
(0.0408453 -0.0121119 -6.30659e-23)
(0.0411512 -0.0120622 -2.6218e-22)
(0.041455 -0.0120048 -9.62131e-23)
(0.0417566 -0.0119399 -2.6938e-23)
(0.0420557 -0.0118676 0)
(0.0423521 -0.0117881 1.77927e-23)
(0.0426454 -0.0117018 0)
(0.0429356 -0.0116087 1.3786e-22)
(0.0432223 -0.0115091 -3.07449e-22)
(0.0435055 -0.0114034 3.68157e-22)
(0.0437849 -0.0112918 1.72886e-22)
(0.0440606 -0.0111746 -2.99835e-22)
(0.0443323 -0.0110521 3.27601e-22)
(0.0446001 -0.0109246 -2.27817e-22)
(0.044864 -0.0107924 0)
(0.0451238 -0.0106559 -3.10718e-22)
(0.0453798 -0.0105154 -1.95368e-22)
(0.0456319 -0.0103712 3.2957e-22)
(0.0458803 -0.0102236 -3.63953e-22)
(0.0461252 -0.0100729 1.97373e-22)
(0.0463668 -0.00991953 -1.94777e-22)
(0.0466054 -0.00976368 -1.00945e-22)
(0.0468412 -0.00960567 1.1295e-22)
(0.0470748 -0.00944583 5.70503e-23)
(0.0473065 -0.00928444 -1.70087e-22)
(0.0475367 -0.00912179 -1.54486e-23)
(0.0477661 -0.00895811 0)
(0.0479951 -0.00879363 6.1148e-23)
(0.0482241 -0.00862847 -1.24961e-22)
(0.0484532 -0.00846267 1.27359e-22)
(0.0486824 -0.00829614 0)
(0.0489112 -0.00812863 0)
(0.0491385 -0.00795972 2.86637e-22)
(0.0493627 -0.00778882 -5.4023e-22)
(0.0495813 -0.0076152 -1.12604e-21)
(0.0497913 -0.00743808 2.22421e-21)
(0.0499892 -0.00725671 -5.69116e-22)
(0.0501711 -0.00707046 5.52481e-22)
(0.050333 -0.00687894 5.52271e-22)
(0.0504714 -0.00668209 -1.1449e-21)
(0.050583 -0.00648024 1.12044e-21)
(0.0506658 -0.00627409 0)
(0.0507183 -0.0060647 -1.17663e-21)
(0.0507402 -0.00585348 2.44835e-24)
(0.0507326 -0.00564206 1.18737e-21)
(0.0506974 -0.00543226 0)
(0.0506379 -0.00522596 0)
(0.0505587 -0.00502497 0)
(0.0504658 -0.00483062 2.88111e-21)
(0.0503642 -0.00464312 1.57941e-21)
(0.0502549 -0.0044589 1.68593e-21)
(0.0501046 -0.00427146 -3.59409e-21)
(0.0498136 -0.00405291 -3.59546e-23)
(0.0489834 -0.00369337 2.24206e-21)
(0.0360943 -0.0124551 0)
(0.0364089 -0.0125257 1.15937e-21)
(0.036726 -0.0125881 -1.43399e-21)
(0.0370455 -0.0126422 7.48412e-22)
(0.0373669 -0.0126879 -1.50192e-21)
(0.0376899 -0.0127249 -4.49284e-22)
(0.0380141 -0.0127533 -4.1401e-22)
(0.0383393 -0.012773 0)
(0.0386651 -0.0127839 7.06386e-22)
(0.0389912 -0.012786 6.26552e-22)
(0.0393172 -0.0127794 -6.05783e-22)
(0.0396427 -0.012764 2.40432e-22)
(0.0399675 -0.0127399 -1.75494e-22)
(0.0402911 -0.0127072 2.63041e-22)
(0.0406132 -0.012666 5.87184e-22)
(0.0409336 -0.0126164 -6.47314e-23)
(0.0412518 -0.0125585 -6.41958e-23)
(0.0415676 -0.0124925 -1.44666e-22)
(0.0418806 -0.0124187 -3.84908e-23)
(0.0421906 -0.0123372 4.42431e-23)
(0.0424973 -0.0122483 -1.28858e-23)
(0.0428004 -0.0121522 0)
(0.0430998 -0.0120493 3.2779e-23)
(0.0433952 -0.0119398 0)
(0.0436866 -0.011824 -1.42292e-22)
(0.0439737 -0.0117023 -1.7132e-22)
(0.0442564 -0.011575 1.00019e-22)
(0.0445347 -0.0114425 0)
(0.0448087 -0.0113052 1.46088e-22)
(0.0450782 -0.0111633 3.14784e-22)
(0.0453434 -0.0110172 -3.14049e-22)
(0.0456043 -0.0108675 1.66426e-22)
(0.0458611 -0.0107143 -3.83279e-22)
(0.046114 -0.0105581 7.67069e-22)
(0.0463633 -0.0103992 -1.98851e-22)
(0.0466093 -0.010238 0)
(0.0468523 -0.0100748 -1.1537e-22)
(0.0470928 -0.00990999 8.16536e-24)
(0.0473311 -0.00974381 1.78491e-22)
(0.0475677 -0.00957654 -1.50377e-22)
(0.0478029 -0.0094084 2.96429e-23)
(0.0480371 -0.00923953 -9.79729e-23)
(0.0482704 -0.00906995 6.39189e-23)
(0.0485026 -0.0088996 0)
(0.0487333 -0.00872825 0)
(0.0489615 -0.00855554 0)
(0.0491859 -0.00838097 2.81662e-22)
(0.0494046 -0.00820393 2.8373e-22)
(0.049615 -0.00802376 0)
(0.0498144 -0.0078398 5.5365e-22)
(0.0499996 -0.00765146 5.7859e-22)
(0.0501672 -0.00745835 5.77075e-22)
(0.0503141 -0.00726031 0)
(0.0504376 -0.00705746 0)
(0.0505352 -0.00685025 -1.16408e-21)
(0.0506053 -0.00663945 1.14495e-21)
(0.0506471 -0.00642613 0)
(0.0506605 -0.00621163 1.17676e-21)
(0.0506464 -0.00599753 -1.20459e-21)
(0.0506068 -0.00578557 -1.27614e-21)
(0.0505447 -0.0055776 1.32166e-21)
(0.0504645 -0.00537547 -1.34959e-21)
(0.0503718 -0.00518084 0)
(0.0502728 -0.00499435 -1.52309e-21)
(0.0501694 -0.00481456 3.85449e-23)
(0.0500449 -0.00463321 -3.65233e-21)
(0.0498053 -0.00443584 -4.05549e-21)
(0.0492131 -0.0041484 4.40928e-21)
(0.0474519 -0.00371523 -2.49347e-21)
(0.0359564 -0.013061 2.97766e-22)
(0.0362885 -0.0131309 0)
(0.036623 -0.013192 2.75234e-22)
(0.0369599 -0.0132442 -1.2413e-21)
(0.0372985 -0.0132873 2.14078e-21)
(0.0376386 -0.0133212 -4.64636e-22)
(0.0379798 -0.0133458 4.10072e-22)
(0.0383217 -0.013361 -6.98068e-22)
(0.038664 -0.0133669 3.56027e-22)
(0.0390062 -0.0133635 3.06264e-22)
(0.039348 -0.0133507 2.48026e-22)
(0.039689 -0.0133286 -6.57202e-22)
(0.0400289 -0.0132972 2.40696e-22)
(0.0403672 -0.0132567 -4.26251e-22)
(0.0407036 -0.0132073 -7.10819e-23)
(0.0410376 -0.0131489 6.61817e-23)
(0.0413691 -0.0130819 1.49512e-22)
(0.0416975 -0.0130064 0)
(0.0420227 -0.0129227 0)
(0.0423443 -0.0128311 -5.63776e-23)
(0.0426619 -0.0127317 -5.3798e-23)
(0.0429755 -0.012625 -2.32093e-22)
(0.0432847 -0.0125113 1.1749e-22)
(0.0435894 -0.0123909 3.52633e-22)
(0.0438894 -0.0122642 -3.52923e-22)
(0.0441846 -0.0121315 1.20165e-22)
(0.044475 -0.0119934 1.34687e-22)
(0.0447604 -0.0118501 0)
(0.045041 -0.0117022 -1.4398e-22)
(0.0453168 -0.0115499 -3.46822e-22)
(0.0455879 -0.0113939 -2.61942e-23)
(0.0458545 -0.0112344 3.65998e-22)
(0.0461168 -0.0110719 -2.0929e-22)
(0.0463751 -0.0109068 0)
(0.0466298 -0.0107395 1.13679e-22)
(0.046881 -0.0105703 -1.17743e-22)
(0.0471293 -0.0103997 1.12827e-22)
(0.0473749 -0.0102277 -2.41435e-22)
(0.0476181 -0.0100548 0)
(0.047859 -0.00988095 -3.27484e-23)
(0.0480978 -0.00970626 3.23994e-23)
(0.0483343 -0.00953065 -5.20177e-23)
(0.0485678 -0.00935394 2.01965e-22)
(0.0487977 -0.00917581 -4.09301e-22)
(0.0490227 -0.00899584 2.70158e-22)
(0.0492413 -0.00881354 2.81257e-22)
(0.0494514 -0.00862835 -2.61782e-22)
(0.0496507 -0.00843972 5.82802e-22)
(0.0498368 -0.00824717 -5.57073e-22)
(0.050007 -0.00805035 -1.42118e-21)
(0.0501586 -0.00784906 3.75313e-24)
(0.0502893 -0.00764335 -5.6223e-22)
(0.0503969 -0.00743348 0)
(0.0504797 -0.00722001 0)
(0.0505367 -0.00700371 -1.18998e-21)
(0.0505674 -0.00678564 1.77866e-21)
(0.0505718 -0.00656706 -1.20033e-21)
(0.050551 -0.00634943 0)
(0.0505069 -0.00613439 1.30064e-21)
(0.0504421 -0.00592374 2.65821e-21)
(0.0503609 -0.00571929 -1.37416e-21)
(0.0502686 -0.00552282 -3.37836e-23)
(0.0501717 -0.00533551 1.54837e-21)
(0.0500739 -0.0051565 2.34616e-24)
(0.0499624 -0.00498097 -3.69138e-21)
(0.0497716 -0.00479098 4.00432e-21)
(0.0492815 -0.00455332 2.21118e-21)
(0.0479825 -0.00415764 0)
(0.0446879 -0.00362768 0)
(0.0358196 -0.0137089 -2.93217e-22)
(0.0361705 -0.0137778 -1.36342e-21)
(0.0365239 -0.0138372 1.08373e-21)
(0.0368794 -0.013887 0)
(0.0372367 -0.0139271 2.29083e-22)
(0.0375952 -0.0139572 7.90604e-22)
(0.0379546 -0.0139774 -6.06519e-22)
(0.0383146 -0.0139876 8.08227e-22)
(0.0386746 -0.0139878 -6.43267e-22)
(0.0390342 -0.013978 0)
(0.0393931 -0.0139583 -1.35935e-22)
(0.0397508 -0.0139286 0)
(0.0401069 -0.0138891 -1.13493e-22)
(0.0404611 -0.0138399 4.29696e-22)
(0.0408127 -0.0137812 0)
(0.0411616 -0.0137132 0)
(0.0415073 -0.0136361 0)
(0.0418495 -0.01355 -3.49371e-23)
(0.0421877 -0.0134555 4.83256e-23)
(0.0425218 -0.0133526 5.55113e-23)
(0.0428514 -0.0132418 0)
(0.0431762 -0.0131235 0)
(0.0434961 -0.012998 0)
(0.0438109 -0.0128658 -5.30379e-22)
(0.0441204 -0.0127272 6.62154e-22)
(0.0444246 -0.0125828 -3.58322e-22)
(0.0447234 -0.0124331 -2.84574e-22)
(0.0450169 -0.0122783 3.24885e-22)