/*--------------------------------*- C++ -*----------------------------------*\
| =========                 |                                                 |
| \\      /  F ield         | OpenFOAM: The Open Source CFD Toolbox           |
|  \\    /   O peration     | Version:  2312                                  |
|   \\  /    A nd           | Website:  www.openfoam.com                      |
|    \\/     M anipulation  |                                                 |
\*---------------------------------------------------------------------------*/
FoamFile
{
    version     2.0;
    format      ascii;
    arch        "LSB;label=32;scalar=64";
    class       volScalarField;
    location    "500";
    object      k;
}
// * * * * * * * * * * * * * * * * * * * * * * * * * * * * * * * * * * * * * //

dimensions      [0 2 -2 0 0 0 0];

internalField   nonuniform List<scalar> 
76025
(
5.00223e-06
5.00907e-06
5.00988e-06
5.00489e-06
5.00577e-06
5.00663e-06
5.00156e-06
5.00241e-06
4.99984e-06
4.99937e-06
5.00047e-06
5.00839e-06
5.01058e-06
5.01168e-06
5.00995e-06
5.01865e-06
5.0218e-06
5.01942e-06
5.02793e-06
5.03077e-06
5.02802e-06
5.03703e-06
5.03459e-06
5.03692e-06
5.04077e-06
5.04479e-06
5.05533e-06
5.06213e-06
5.07452e-06
5.08714e-06
5.10544e-06
5.12306e-06
5.15141e-06
5.17812e-06
5.21106e-06
5.24464e-06
5.28359e-06
5.33254e-06
5.38192e-06
5.43582e-06
5.49224e-06
5.55781e-06
5.63134e-06
5.70656e-06
5.78539e-06
5.869e-06
5.95825e-06
6.05097e-06
6.14842e-06
6.24658e-06
6.35358e-06
6.46746e-06
6.59336e-06
6.72206e-06
6.87823e-06
7.03843e-06
7.23477e-06
7.46351e-06
7.74005e-06
8.08254e-06
8.48542e-06
9.00411e-06
9.7094e-06
1.05778e-05
1.18274e-05
1.3327e-05
1.53394e-05
1.77197e-05
2.0631e-05
5.10443e-06
5.10646e-06
5.11127e-06
5.11368e-06
5.11805e-06
5.12419e-06
5.12652e-06
5.13749e-06
5.14061e-06
5.14425e-06
5.14581e-06
5.14069e-06
5.13964e-06
5.14186e-06
5.14471e-06
5.15168e-06
5.16089e-06
5.1646e-06
5.18581e-06
5.19473e-06
5.20493e-06
5.21263e-06
5.20621e-06
5.20513e-06
5.21289e-06
5.22286e-06
5.23719e-06
5.25635e-06
5.2857e-06
5.33215e-06
5.35371e-06
5.35133e-06
5.36338e-06
5.38399e-06
5.41225e-06
5.44676e-06
5.48623e-06
5.53093e-06
5.57894e-06
5.6309e-06
5.68769e-06
5.74865e-06
5.81379e-06
5.88271e-06
5.95699e-06
6.03671e-06
6.12122e-06
6.21121e-06
6.30862e-06
6.41474e-06
6.52969e-06
6.65695e-06
6.79709e-06
6.9538e-06
7.13167e-06
7.33761e-06
7.57781e-06
7.85839e-06
8.20019e-06
8.60915e-06
9.131e-06
9.78029e-06
1.06393e-05
1.17225e-05
1.31806e-05
1.49255e-05
1.72334e-05
1.97006e-05
2.29833e-05
5.2205e-06
5.22294e-06
5.22723e-06
5.23082e-06
5.23549e-06
5.24133e-06
5.24554e-06
5.2536e-06
5.26005e-06
5.26649e-06
5.2722e-06
5.27659e-06
5.2809e-06
5.28601e-06
5.29074e-06
5.29697e-06
5.30458e-06
5.3108e-06
5.32075e-06
5.32841e-06
5.3371e-06
5.34597e-06
5.35441e-06
5.36432e-06
5.37719e-06
5.39173e-06
5.40815e-06
5.42704e-06
5.44917e-06
5.47369e-06
5.49727e-06
5.51948e-06
5.54405e-06
5.5723e-06
5.60489e-06
5.64197e-06
5.68346e-06
5.72918e-06
5.77888e-06
5.83254e-06
5.89074e-06
5.95362e-06
6.02141e-06
6.0943e-06
6.1733e-06
6.25861e-06
6.35081e-06
6.45082e-06
6.56018e-06
6.68023e-06
6.81251e-06
6.95962e-06
7.12388e-06
7.30922e-06
7.52005e-06
7.76416e-06
8.04842e-06
8.38646e-06
8.7963e-06
9.29895e-06
9.9363e-06
1.0735e-05
1.17806e-05
1.308e-05
1.47653e-05
1.67376e-05
1.92364e-05
2.18837e-05
2.53522e-05
5.37496e-06
5.37828e-06
5.37652e-06
5.38079e-06
5.38673e-06
5.39523e-06
5.41119e-06
5.40925e-06
5.41543e-06
5.41551e-06
5.41863e-06
5.42462e-06
5.43267e-06
5.44223e-06
5.452e-06
5.46197e-06
5.47197e-06
5.48141e-06
5.49139e-06
5.50129e-06
5.51182e-06
5.52314e-06
5.5355e-06
5.54905e-06
5.56447e-06
5.58136e-06
5.59999e-06
5.62039e-06
5.64262e-06
5.66691e-06
5.6927e-06
5.72063e-06
5.75116e-06
5.78483e-06
5.82221e-06
5.86337e-06
5.90848e-06
5.95763e-06
6.01099e-06
6.06877e-06
6.13147e-06
6.19952e-06
6.27339e-06
6.35348e-06
6.44081e-06
6.53584e-06
6.63937e-06
6.75257e-06
6.87687e-06
7.01412e-06
7.16627e-06
7.3362e-06
7.52711e-06
7.7438e-06
7.99222e-06
8.2815e-06
8.62283e-06
9.03283e-06
9.53468e-06
1.01565e-05
1.09431e-05
1.19287e-05
1.31859e-05
1.47163e-05
1.66265e-05
1.8807e-05
2.1482e-05
2.42618e-05
2.78383e-05
5.5629e-06
5.5652e-06
5.57587e-06
5.58019e-06
5.58121e-06
5.59731e-06
5.60401e-06
5.60115e-06
5.60047e-06
5.60977e-06
5.62151e-06
5.62921e-06
5.63423e-06
5.63856e-06
5.64373e-06
5.6502e-06
5.65887e-06
5.67044e-06
5.68471e-06
5.69994e-06
5.71552e-06
5.73146e-06
5.7481e-06
5.76559e-06
5.78445e-06
5.80466e-06
5.82669e-06
5.85034e-06
5.87583e-06
5.90341e-06
5.93326e-06
5.96564e-06
6.00088e-06
6.03928e-06
6.08115e-06
6.12681e-06
6.17654e-06
6.23065e-06
6.28946e-06
6.35334e-06
6.42281e-06
6.49843e-06
6.5808e-06
6.67061e-06
6.76879e-06
6.87625e-06
6.99378e-06
7.12282e-06
7.26506e-06
7.42276e-06
7.59846e-06
7.79588e-06
8.01926e-06
8.27525e-06
8.57156e-06
8.92066e-06
9.337e-06
9.84289e-06
1.04651e-05
1.12384e-05
1.22053e-05
1.34003e-05
1.48779e-05
1.66332e-05
1.87461e-05
2.11061e-05
2.39186e-05
2.67894e-05
3.04333e-05
5.78526e-06
5.79156e-06
5.80822e-06
5.81523e-06
5.81536e-06
5.82284e-06
5.82873e-06
5.84668e-06
5.83518e-06
5.85188e-06
5.84673e-06
5.85161e-06
5.85982e-06
5.87026e-06
5.88462e-06
5.90797e-06
5.94549e-06
5.95923e-06
5.95156e-06
5.95318e-06
5.96395e-06
5.98007e-06
5.9994e-06
6.02067e-06
6.04358e-06
6.06815e-06
6.09441e-06
6.1224e-06
6.15236e-06
6.18455e-06
6.21921e-06
6.25663e-06
6.29709e-06
6.34092e-06
6.38844e-06
6.44002e-06
6.49601e-06
6.55683e-06
6.62291e-06
6.69476e-06
6.77294e-06
6.85819e-06
6.95115e-06
7.05287e-06
7.16419e-06
7.28662e-06
7.42096e-06
7.56902e-06
7.733e-06
7.91578e-06
8.12088e-06
8.3532e-06
8.61877e-06
8.92644e-06
9.28689e-06
9.71627e-06
1.02331e-05
1.08646e-05
1.16396e-05
1.25949e-05
1.37652e-05
1.51803e-05
1.68735e-05
1.88362e-05
2.11228e-05
2.36304e-05
2.65409e-05
2.94675e-05
3.31465e-05
6.02724e-06
6.03624e-06
6.04498e-06
6.0523e-06
6.06069e-06
6.07209e-06
6.08741e-06
6.10556e-06
6.1381e-06
6.14977e-06
6.14175e-06
6.13889e-06
6.14747e-06
6.15975e-06
6.18028e-06
6.20442e-06
6.23544e-06
6.26607e-06
6.28092e-06
6.32342e-06
6.31257e-06
6.3179e-06
6.31921e-06
6.33299e-06
6.35498e-06
6.38183e-06
6.41187e-06
6.44451e-06
6.47962e-06
6.51729e-06
6.55772e-06
6.60117e-06
6.64795e-06
6.69837e-06
6.75282e-06
6.81173e-06
6.87549e-06
6.94464e-06
7.01971e-06
7.10133e-06
7.19018e-06
7.28713e-06
7.39303e-06
7.50916e-06
7.63656e-06
7.77733e-06
7.93251e-06
8.10446e-06
8.29616e-06
8.51153e-06
8.75549e-06
9.03471e-06
9.35761e-06
9.7359e-06
1.01838e-05
1.07211e-05
1.13697e-05
1.2159e-05
1.31166e-05
1.42756e-05
1.56591e-05
1.72894e-05
1.918e-05
2.13233e-05
2.37488e-05
2.63702e-05
2.93357e-05
3.22941e-05
3.59351e-05
6.32443e-06
6.33424e-06
6.34345e-06
6.35116e-06
6.35934e-06
6.36906e-06
6.37991e-06
6.3963e-06
6.4169e-06
6.43422e-06
6.44672e-06
6.45857e-06
6.47026e-06
6.48866e-06
6.50903e-06
6.53477e-06
6.57316e-06
6.6056e-06
6.6487e-06
6.69182e-06
6.71637e-06
6.77486e-06
6.75771e-06
6.81059e-06
6.78883e-06
6.78809e-06
6.8063e-06
6.8356e-06
6.87209e-06
6.91373e-06
6.95963e-06
7.00949e-06
7.06336e-06
7.12144e-06
7.18409e-06
7.25176e-06
7.32493e-06
7.40422e-06
7.49028e-06
7.58388e-06
7.68588e-06
7.79733e-06
7.91944e-06
8.05364e-06
8.20169e-06
8.36577e-06
8.5483e-06
8.75207e-06
8.98124e-06
9.24122e-06
9.53888e-06
9.88323e-06
1.02855e-05
1.07605e-05
1.13256e-05
1.20029e-05
1.28153e-05
1.37903e-05
1.495e-05
1.63199e-05
1.79109e-05
1.97383e-05
2.17995e-05
2.40912e-05
2.66188e-05
2.9319e-05
3.22976e-05
3.5262e-05
3.87654e-05
6.68864e-06
6.7004e-06
6.71319e-06
6.72712e-06
6.74428e-06
6.76695e-06
6.8071e-06
6.8233e-06
6.81955e-06
6.82583e-06
6.83881e-06
6.85337e-06
6.87867e-06
6.90773e-06
6.93413e-06
6.95779e-06
6.9847e-06
7.00697e-06
7.03426e-06
7.05996e-06
7.08397e-06
7.11177e-06
7.13319e-06
7.15969e-06
7.18535e-06
7.21388e-06
7.24854e-06
7.28853e-06
7.3335e-06
7.38292e-06
7.4366e-06
7.49455e-06
7.55699e-06
7.62424e-06
7.69674e-06
7.77504e-06
7.85974e-06
7.95159e-06
8.0514e-06
8.16014e-06
8.27895e-06
8.40916e-06
8.55244e-06
8.71064e-06
8.88634e-06
9.08222e-06
9.3024e-06
9.55047e-06
9.8322e-06
1.0155e-05
1.0528e-05
1.09627e-05
1.14732e-05
1.20763e-05
1.27909e-05
1.36385e-05
1.46397e-05
1.58162e-05
1.71826e-05
1.87555e-05
2.05356e-05
2.2533e-05
2.47331e-05
2.71378e-05
2.973e-05
3.24716e-05
3.54226e-05
3.83436e-05
4.16591e-05
7.13868e-06
7.15246e-06
7.16723e-06
7.18602e-06
7.20856e-06
7.26514e-06
7.27575e-06
7.28771e-06
7.29531e-06
7.30432e-06
7.31769e-06
7.33416e-06
7.35733e-06
7.38506e-06
7.41371e-06
7.44057e-06
7.46715e-06
7.49142e-06
7.51664e-06
7.54156e-06
7.56806e-06
7.59599e-06
7.62687e-06
7.65985e-06
7.697e-06
7.73748e-06
7.78333e-06
7.83281e-06
7.88734e-06
7.94622e-06
8.00954e-06
8.07754e-06
8.15062e-06
8.22928e-06
8.31414e-06
8.40589e-06
8.50534e-06
8.61341e-06
8.7312e-06
8.85997e-06
9.00125e-06
9.1569e-06
9.32917e-06
9.52078e-06
9.73512e-06
9.97626e-06
1.02494e-05
1.05605e-05
1.09166e-05
1.13273e-05
1.18039e-05
1.23598e-05
1.30103e-05
1.37726e-05
1.46641e-05
1.5703e-05
1.69045e-05
1.82829e-05
1.98456e-05
2.16012e-05
2.35435e-05
2.56785e-05
2.79828e-05
3.04623e-05
3.30802e-05
3.58226e-05
3.87003e-05
4.15153e-05
4.46145e-05
7.6991e-06
7.71544e-06
7.73299e-06
7.75325e-06
7.77547e-06
7.81447e-06
7.84941e-06
7.87713e-06
7.89783e-06
7.9143e-06
7.92983e-06
7.94624e-06
7.96567e-06
7.98846e-06
8.01383e-06
8.04031e-06
8.06786e-06
8.09542e-06
8.12419e-06
8.15331e-06
8.18449e-06
8.21813e-06
8.25527e-06
8.29666e-06
8.3424e-06
8.3922e-06
8.44655e-06
8.50535e-06
8.569e-06
8.6379e-06
8.71237e-06
8.79268e-06
8.87931e-06
8.97283e-06
9.07402e-06
9.18371e-06
9.30296e-06
9.43301e-06
9.57533e-06
9.73172e-06
9.90434e-06
1.00958e-05
1.03093e-05
1.05486e-05
1.08184e-05
1.11242e-05
1.14726e-05
1.18718e-05
1.23305e-05
1.28593e-05
1.34707e-05
1.41785e-05
1.49972e-05
1.59415e-05
1.70253e-05
1.82612e-05
1.96586e-05
2.1225e-05
2.29618e-05
2.48714e-05
2.69432e-05
2.91788e-05
3.15489e-05
3.40614e-05
3.66629e-05
3.93588e-05
4.21095e-05
4.47518e-05
4.7648e-05
8.40266e-06
8.42238e-06
8.44302e-06
8.4657e-06
8.48983e-06
8.52073e-06
8.55515e-06
8.58914e-06
8.62027e-06
8.64809e-06
8.67337e-06
8.69743e-06
8.72155e-06
8.74685e-06
8.7736e-06
8.80206e-06
8.83197e-06
8.86366e-06
8.89693e-06
8.93252e-06
8.96995e-06
9.01028e-06
9.05413e-06
9.10178e-06
9.1545e-06
9.21153e-06
9.27463e-06
9.34291e-06
9.41803e-06
9.50083e-06
9.59128e-06
9.68894e-06
9.79466e-06
9.90925e-06
1.00336e-05
1.01687e-05
1.03159e-05
1.0477e-05
1.06541e-05
1.085e-05
1.10677e-05
1.13107e-05
1.15836e-05
1.18913e-05
1.22398e-05
1.2636e-05
1.30879e-05
1.36045e-05
1.41959e-05
1.48725e-05
1.56461e-05
1.65286e-05
1.75318e-05
1.86664e-05
1.99417e-05
2.13647e-05
2.29398e-05
2.46685e-05
2.65484e-05
2.85762e-05
3.07384e-05
3.30326e-05
3.54244e-05
3.7922e-05
4.04582e-05
4.30508e-05
4.56047e-05
4.8018e-05
5.05722e-05
9.29902e-06
9.32321e-06
9.34798e-06
9.37438e-06
9.40215e-06
9.4327e-06
9.46612e-06
9.5013e-06
9.53686e-06
9.57187e-06
9.60599e-06
9.63937e-06
9.67247e-06
9.70585e-06
9.74001e-06
9.77539e-06
9.81232e-06
9.85129e-06
9.89211e-06
9.93504e-06
9.9809e-06
1.003e-05
1.00833e-05
1.01414e-05
1.02044e-05
1.02739e-05
1.0349e-05
1.04322e-05
1.05222e-05
1.06211e-05
1.07304e-05
1.08489e-05
1.09795e-05
1.11231e-05
1.12803e-05
1.14518e-05
1.16394e-05
1.18456e-05
1.20736e-05
1.2327e-05
1.26098e-05
1.29269e-05
1.32837e-05
1.36862e-05
1.41414e-05
1.46569e-05
1.5241e-05
1.59027e-05
1.66514e-05
1.74964e-05
1.84471e-05
1.95121e-05
2.06996e-05
2.2016e-05
2.34661e-05
2.50522e-05
2.67744e-05
2.86299e-05
3.06128e-05
3.27149e-05
3.49212e-05
3.72235e-05
3.95856e-05
4.20115e-05
4.44244e-05
4.68417e-05
4.91042e-05
5.12372e-05
5.2651e-05
1.04588e-05
1.04898e-05
1.0521e-05
1.05535e-05
1.05872e-05
1.06224e-05
1.06594e-05
1.06982e-05
1.07385e-05
1.07796e-05
1.08216e-05
1.08641e-05
1.09073e-05
1.09514e-05
1.09968e-05
1.10434e-05
1.10914e-05
1.11414e-05
1.11938e-05
1.12491e-05
1.13081e-05
1.13714e-05
1.14398e-05
1.15141e-05
1.15949e-05
1.16832e-05
1.17796e-05
1.18849e-05
1.20002e-05
1.21264e-05
1.22644e-05
1.24158e-05
1.25816e-05
1.27634e-05
1.29632e-05
1.31834e-05
1.34267e-05
1.36963e-05
1.39959e-05
1.43298e-05
1.47026e-05
1.51198e-05
1.55872e-05
1.61112e-05
1.66988e-05
1.73573e-05
1.80942e-05
1.89173e-05
1.98339e-05
2.08514e-05
2.1976e-05
2.32132e-05
2.45671e-05
2.60403e-05
2.76335e-05
2.93451e-05
3.11721e-05
3.31075e-05
3.5143e-05
3.72655e-05
3.94603e-05
4.17107e-05
4.39836e-05
4.62664e-05
4.84916e-05
5.06216e-05
5.24935e-05
5.36772e-05
5.35697e-05
1.19898e-05
1.20315e-05
1.20731e-05
1.2116e-05
1.21597e-05
1.22044e-05
1.22506e-05
1.22984e-05
1.23478e-05
1.23988e-05
1.24515e-05
1.2506e-05
1.25617e-05
1.2619e-05
1.2678e-05
1.27391e-05
1.28027e-05
1.28692e-05
1.29392e-05
1.30133e-05
1.30922e-05
1.3177e-05
1.32683e-05
1.33671e-05
1.34744e-05
1.35911e-05
1.37184e-05
1.38572e-05
1.40089e-05
1.41749e-05
1.43566e-05
1.45557e-05
1.47743e-05
1.50145e-05
1.52791e-05
1.55708e-05
1.58932e-05
1.62499e-05
1.6645e-05
1.7083e-05
1.75688e-05
1.81078e-05
1.87055e-05
1.93678e-05
2.01008e-05
2.09107e-05
2.18034e-05
2.27847e-05
2.38597e-05
2.50329e-05
2.63079e-05
2.7687e-05
2.91711e-05
3.07592e-05
3.24493e-05
3.42358e-05
3.61129e-05
3.80693e-05
4.00954e-05
4.21742e-05
4.42915e-05
4.64194e-05
4.85319e-05
5.05815e-05
5.25508e-05
5.41939e-05
5.49191e-05
5.47053e-05
5.37822e-05
1.40704e-05
1.41293e-05
1.41882e-05
1.42482e-05
1.43091e-05
1.43708e-05
1.44341e-05
1.44985e-05
1.45643e-05
1.46317e-05
1.47009e-05
1.47723e-05
1.48461e-05
1.49226e-05
1.50022e-05
1.50852e-05
1.51722e-05
1.52637e-05
1.53605e-05
1.54632e-05
1.55728e-05
1.56903e-05
1.58166e-05
1.59529e-05
1.61004e-05
1.62603e-05
1.64341e-05
1.6623e-05
1.68287e-05
1.7053e-05
1.72976e-05
1.75648e-05
1.78567e-05
1.8176e-05
1.85255e-05
1.89084e-05
1.93283e-05
1.97888e-05
2.02941e-05
2.08483e-05
2.14561e-05
2.21221e-05
2.28511e-05
2.36479e-05
2.45173e-05
2.54638e-05
2.64917e-05
2.76044e-05
2.88049e-05
3.00953e-05
3.14763e-05
3.29476e-05
3.45073e-05
3.61515e-05
3.78761e-05
3.96713e-05
4.15311e-05
4.34394e-05
4.5384e-05
4.73468e-05
4.93077e-05
5.12351e-05
5.30876e-05
5.48185e-05
5.61278e-05
5.63523e-05
5.58549e-05
5.47866e-05
5.04522e-05
1.7014e-05
1.71012e-05
1.71877e-05
1.72751e-05
1.73629e-05
1.74513e-05
1.7541e-05
1.76322e-05
1.77252e-05
1.78205e-05
1.79183e-05
1.80192e-05
1.81234e-05
1.82317e-05
1.83443e-05
1.84621e-05
1.85856e-05
1.87156e-05
1.88529e-05
1.89984e-05
1.9153e-05
1.9318e-05
1.94944e-05
1.96835e-05
1.98867e-05
2.01052e-05
2.03408e-05
2.05948e-05
2.0869e-05
2.11652e-05
2.14854e-05
2.18317e-05
2.22066e-05
2.26124e-05
2.3052e-05
2.35285e-05
2.40451e-05
2.46052e-05
2.52125e-05
2.58708e-05
2.65838e-05
2.73556e-05
2.81897e-05
2.909e-05
3.00598e-05
3.1102e-05
3.22191e-05
3.34126e-05
3.46834e-05
3.60313e-05
3.74547e-05
3.8951e-05
4.0516e-05
4.21427e-05
4.38269e-05
4.55524e-05
4.73172e-05
4.90967e-05
5.08765e-05
5.26452e-05
5.43489e-05
5.59965e-05
5.7432e-05
5.80803e-05
5.77493e-05
5.70779e-05
5.49883e-05
5.22454e-05
4.49538e-05
2.13905e-05
2.15226e-05
2.16537e-05
2.17853e-05
2.19171e-05
2.20494e-05
2.21826e-05
2.23174e-05
2.24542e-05
2.25933e-05
2.27354e-05
2.28809e-05
2.30303e-05
2.31842e-05
2.33434e-05
2.35084e-05
2.368e-05
2.3859e-05
2.40462e-05
2.42427e-05
2.44493e-05
2.46673e-05
2.48977e-05
2.51419e-05
2.54011e-05
2.56767e-05
2.59702e-05
2.62831e-05
2.66171e-05
2.6974e-05
2.73557e-05
2.77643e-05
2.82021e-05
2.86714e-05
2.91748e-05
2.97151e-05
3.02953e-05
3.09184e-05
3.15876e-05
3.23061e-05
3.30771e-05
3.39036e-05
3.47885e-05
3.57343e-05
3.67431e-05
3.78162e-05
3.89546e-05
4.01579e-05
4.14251e-05
4.27542e-05
4.41409e-05
4.55813e-05
4.7069e-05
4.85934e-05
5.01534e-05
5.17205e-05
5.33064e-05
5.48669e-05
5.63841e-05
5.78788e-05
5.91971e-05
6.00022e-05
5.98765e-05
5.93321e-05
5.78932e-05
5.58163e-05
5.05413e-05
4.53871e-05
3.27968e-05
2.8259e-05
2.84518e-05
2.8641e-05
2.88285e-05
2.90138e-05
2.91971e-05
2.93793e-05
2.95609e-05
2.97425e-05
2.99245e-05
3.01077e-05
3.02924e-05
3.04793e-05
3.0669e-05
3.08621e-05
3.10594e-05
3.12615e-05
3.14693e-05
3.16836e-05
3.19055e-05
3.2136e-05
3.23762e-05
3.26272e-05
3.28905e-05
3.31672e-05
3.34588e-05
3.37669e-05
3.4093e-05
3.4439e-05
3.48065e-05
3.51977e-05
3.56147e-05
3.60594e-05
3.6534e-05
3.7041e-05
3.75828e-05
3.81622e-05
3.87817e-05
3.94444e-05
4.01527e-05
4.09094e-05
4.17167e-05
4.25765e-05
4.34901e-05
4.44585e-05
4.54815e-05
4.65582e-05
4.76869e-05
4.88651e-05
5.00878e-05
5.13485e-05
5.26437e-05
5.39642e-05
5.52924e-05
5.66406e-05
5.79519e-05
5.92708e-05
6.05078e-05
6.16565e-05
6.22828e-05
6.21671e-05
6.16131e-05
6.04513e-05
5.86902e-05
5.4759e-05
5.00863e-05
4.0901e-05
3.19558e-05
1.94912e-05
3.88061e-05
3.90364e-05
3.92551e-05
3.9465e-05
3.96667e-05
3.98614e-05
4.00504e-05
4.02347e-05
4.04153e-05
4.05929e-05
4.07677e-05
4.09399e-05
4.11103e-05
4.12793e-05
4.14479e-05
4.16168e-05
4.17869e-05
4.19593e-05
4.2135e-05
4.23153e-05
4.25012e-05
4.26942e-05
4.28955e-05
4.31064e-05
4.33286e-05
4.35636e-05
4.3813e-05
4.40787e-05
4.43625e-05
4.46664e-05
4.49924e-05
4.53423e-05
4.57175e-05
4.6119e-05
4.65494e-05
4.70113e-05
4.75073e-05
4.80401e-05
4.86125e-05
4.92265e-05
4.98842e-05
5.0587e-05
5.13358e-05
5.21306e-05
5.29712e-05
5.3855e-05
5.47802e-05
5.57443e-05
5.67432e-05
5.77645e-05
5.88038e-05
5.98633e-05
6.0923e-05
6.19495e-05
6.30079e-05
6.39555e-05
6.48208e-05
6.50041e-05
6.47314e-05
6.40068e-05
6.29116e-05
6.10506e-05
5.81334e-05
5.33566e-05
4.65309e-05
3.77177e-05
2.67393e-05
1.79126e-05
9.84681e-06
5.32384e-05
5.33798e-05
5.35194e-05
5.36572e-05
5.37913e-05
5.39213e-05
5.40473e-05
5.41695e-05
5.4288e-05
5.44001e-05
5.45001e-05
5.45899e-05
5.46717e-05
5.4747e-05
5.48174e-05
5.48843e-05
5.49492e-05
5.50134e-05
5.50784e-05
5.51453e-05
5.52155e-05
5.52902e-05
5.53707e-05
5.54584e-05
5.55548e-05
5.56617e-05
5.57808e-05
5.59146e-05
5.60653e-05
5.6234e-05
5.64224e-05
5.66311e-05
5.68585e-05
5.71003e-05
5.73661e-05
5.76595e-05
5.79848e-05
5.83445e-05
5.87411e-05
5.91761e-05
5.96501e-05
6.01633e-05
6.07152e-05
6.13042e-05
6.19294e-05
6.25817e-05
6.32664e-05
6.39788e-05
6.47069e-05
6.54156e-05
6.61427e-05
6.68932e-05
6.75833e-05
6.81885e-05
6.83994e-05
6.81861e-05
6.75708e-05
6.65777e-05
6.53135e-05
6.34283e-05
6.0516e-05
5.60821e-05
5.00309e-05
4.16531e-05
3.22317e-05
2.17172e-05
1.33747e-05
8.36531e-06
5.64517e-06
7.07179e-05
7.06817e-05
7.06459e-05
7.061e-05
7.05729e-05
7.0533e-05
7.04917e-05
7.04469e-05
7.04003e-05
7.03493e-05
7.02953e-05
7.02355e-05
7.01725e-05
7.01038e-05
7.00328e-05
6.99568e-05
6.98799e-05
6.97995e-05
6.97189e-05
6.96373e-05
6.95546e-05
6.9471e-05
6.93881e-05
6.93075e-05
6.9231e-05
6.91605e-05
6.90986e-05
6.9053e-05
6.90223e-05
6.90005e-05
6.89917e-05
6.89968e-05
6.90011e-05
6.89503e-05
6.89547e-05
6.89898e-05
6.90659e-05
6.91777e-05
6.93263e-05
6.95095e-05
6.97247e-05
6.99704e-05
7.02454e-05
7.05455e-05
7.08692e-05
7.11896e-05
7.15694e-05
7.19558e-05
7.22906e-05
7.25254e-05
7.27922e-05
7.26709e-05
7.2291e-05
7.15261e-05
7.0499e-05
6.92712e-05
6.77342e-05
6.55127e-05
6.23085e-05
5.78844e-05
5.18291e-05
4.41357e-05
3.49788e-05
2.51696e-05
1.59033e-05
9.9237e-06
6.37774e-06
4.65555e-06
4.40051e-06
9.02327e-05
8.99756e-05
8.97188e-05
8.94589e-05
8.92126e-05
8.89351e-05
8.86971e-05
8.84082e-05
8.81722e-05
8.78738e-05
8.76363e-05
8.73282e-05
8.70869e-05
8.67688e-05
8.65228e-05
8.61941e-05
8.59405e-05
8.56097e-05
8.53224e-05
8.50084e-05
8.46796e-05
8.4329e-05
8.39753e-05
8.36203e-05
8.32655e-05
8.29136e-05
8.25587e-05
8.22942e-05
8.20409e-05
8.16967e-05
8.13792e-05
8.11233e-05
8.08993e-05
8.07185e-05
8.04968e-05
8.02206e-05
8.00499e-05
7.98749e-05
7.97404e-05
7.96188e-05
7.95081e-05
7.94133e-05
7.93362e-05
7.92645e-05
7.91847e-05
7.90716e-05
7.88564e-05
7.84169e-05
7.77357e-05
7.68976e-05
7.58451e-05
7.47102e-05
7.33904e-05
7.18238e-05
6.97478e-05
6.69653e-05
6.32634e-05
5.83541e-05
5.22016e-05
4.45254e-05
3.59033e-05
2.65308e-05
1.75575e-05
1.1191e-05
7.15046e-06
4.84552e-06
3.74502e-06
3.73091e-06
4.10613e-06
0.000109622
0.000109139
0.000108659
0.000108181
0.000107703
0.000107222
0.000106739
0.00010625
0.000105761
0.000105263
0.000104765
0.000104255
0.000103744
0.000103221
0.000102695
0.000102153
0.000101597
0.000101021
0.000100434
9.9834e-05
9.92233e-05
9.86014e-05
9.79705e-05
9.73329e-05
9.66904e-05
9.60452e-05
9.53967e-05
9.47565e-05
9.41254e-05
9.34913e-05
9.28607e-05
9.22422e-05
9.16391e-05
9.10529e-05
9.04789e-05
8.99087e-05
8.93509e-05
8.88019e-05
8.82647e-05
8.77086e-05
8.71239e-05
8.64911e-05
8.57783e-05
8.49706e-05
8.40552e-05
8.29786e-05
8.18081e-05
8.05639e-05
7.91727e-05
7.7588e-05
7.57564e-05
7.34617e-05
7.06147e-05
6.69998e-05
6.25012e-05
5.69554e-05
5.03913e-05
4.27669e-05
3.4588e-05
2.5918e-05
1.77146e-05
1.17072e-05
7.6746e-06
5.00365e-06
3.60299e-06
3.24538e-06
3.13768e-06
3.52926e-06
5.22976e-06
0.000126415
0.000125749
0.000125081
0.000124412
0.000123738
0.000123057
0.000122371
0.000121676
0.000120974
0.000120264
0.000119545
0.000118804
0.000118044
0.000117266
0.000116471
0.00011566
0.000114835
0.000113994
0.000113139
0.00011227
0.000111389
0.000110496
0.000109591
0.000108677
0.000107753
0.00010682
0.000105879
0.000104931
0.000103977
0.00010302
0.000102059
0.000101091
0.000100112
9.91181e-05
9.81023e-05
9.70568e-05
9.59718e-05
9.48397e-05
9.36326e-05
9.23848e-05
9.10892e-05
8.9733e-05
8.82916e-05
8.67465e-05
8.50615e-05
8.32222e-05
8.11483e-05
7.87733e-05
7.59699e-05
7.26776e-05
6.87697e-05
6.41056e-05
5.87076e-05
5.24776e-05
4.56337e-05
3.8326e-05
3.08525e-05
2.32862e-05
1.6363e-05
1.12299e-05
7.6123e-06
5.01144e-06
3.42659e-06
2.51929e-06
2.60611e-06
2.70642e-06
3.06226e-06
4.8654e-06
7.2775e-06
0.0001372
0.000136397
0.00013558
0.000134749
0.000133905
0.000133046
0.000132172
0.000131284
0.000130382
0.000129465
0.000128533
0.000127586
0.000126622
0.00012564
0.00012464
0.000123622
0.000122586
0.000121532
0.00012046
0.000119369
0.000118261
0.000117135
0.00011599
0.000114828
0.000113647
0.000112447
0.000111229
0.000109992
0.000108735
0.000107445
0.000106119
0.000104756
0.000103354
0.000101907
0.000100409
9.88491e-05
9.72176e-05
9.54965e-05
9.36727e-05
9.17134e-05
8.95767e-05
8.72486e-05
8.46648e-05
8.18065e-05
7.86159e-05
7.50633e-05
7.10882e-05
6.66361e-05
6.16699e-05
5.61921e-05
5.02802e-05
4.39645e-05
3.75635e-05
3.10589e-05
2.50541e-05
1.90527e-05
1.37812e-05
9.79181e-06
6.8056e-06
4.58027e-06
3.01238e-06
1.95161e-06
1.74886e-06
1.91694e-06
2.51417e-06
3.02933e-06
3.57277e-06
4.84845e-06
6.28767e-06
0.000133577
0.000132731
0.000131866
0.000130984
0.000130085
0.000129169
0.000128235
0.000127283
0.000126313
0.000125325
0.000124318
0.000123292
0.000122247
0.000121182
0.000120096
0.000118988
0.000117859
0.000116706
0.000115531
0.000114331
0.000113107
0.000111857
0.000110581
0.000109276
0.000107946
0.000106586
0.000105209
0.000103776
0.000102271
0.000100685
9.90116e-05
9.72376e-05
9.53472e-05
9.332e-05
9.11358e-05
8.87671e-05
8.61921e-05
8.33804e-05
8.03094e-05
7.6971e-05
7.33164e-05
6.94303e-05
6.51546e-05
6.0804e-05
5.63573e-05
5.20081e-05
4.74825e-05
4.26988e-05
3.78392e-05
3.28435e-05
2.79446e-05
2.31621e-05
1.86964e-05
1.46876e-05
1.07566e-05
7.59236e-06
5.28228e-06
3.54704e-06
2.23034e-06
1.32823e-06
8.42467e-07
8.70514e-07
1.41802e-06
1.80644e-06
2.25237e-06
2.81025e-06
3.47119e-06
4.34732e-06
4.61386e-06
0.000105046
0.000104197
0.000103324
0.000102432
0.000101519
0.000100586
9.96304e-05
9.86553e-05
9.7658e-05
9.66429e-05
9.56033e-05
9.45487e-05
9.34693e-05
9.23667e-05
9.12452e-05
9.00942e-05
8.89235e-05
8.77279e-05
8.65084e-05
8.52679e-05
8.40051e-05
8.27144e-05
8.13969e-05
8.00494e-05
7.86695e-05
7.72597e-05
7.5785e-05
7.4269e-05
7.27229e-05
7.11436e-05
6.95258e-05
6.7863e-05
6.61556e-05
6.43975e-05
6.25923e-05
6.0733e-05
5.88291e-05
5.68625e-05
5.48638e-05
5.27688e-05
5.06706e-05
4.8396e-05
4.6155e-05
4.35649e-05
4.06611e-05
3.70536e-05
3.31722e-05
2.90095e-05
2.46457e-05
2.0147e-05
1.57626e-05
1.18242e-05
8.49709e-06
5.28644e-06
3.24525e-06
1.99049e-06
1.13834e-06
5.36802e-07
3.103e-07
2.53501e-07
2.8138e-07
4.3382e-07
7.25678e-07
1.19028e-06
1.69514e-06
2.27714e-06
2.88331e-06
3.14897e-06
2.87384e-06
6.1655e-05
6.20717e-05
6.25427e-05
6.32832e-05
6.37807e-05
6.43553e-05
6.48458e-05
6.54367e-05
6.60183e-05
6.66222e-05
6.72266e-05
6.80705e-05
6.87985e-05
6.92153e-05
7.03425e-05
7.01115e-05
7.10121e-05
7.07832e-05
7.08067e-05
7.11586e-05
7.16244e-05
7.2061e-05
7.24045e-05
7.27571e-05
7.30619e-05
7.35231e-05
7.33933e-05
7.31014e-05
7.26957e-05
7.21771e-05
7.15443e-05
7.07878e-05
6.98927e-05
6.88356e-05
6.759e-05
6.6123e-05
6.43982e-05
6.23758e-05
6.00089e-05
5.7251e-05
5.40491e-05
5.03462e-05
4.61071e-05
4.12636e-05
3.58091e-05
2.97414e-05
2.31612e-05
1.62683e-05
9.60907e-06
4.27413e-06
1.35708e-06
7.27516e-07
7.38275e-07
7.22687e-07
6.35425e-07
5.23766e-07
3.65902e-07
2.31001e-07
1.80942e-07
1.89594e-07
2.33958e-07
2.96984e-07
3.60964e-07
4.04694e-07
4.45101e-07
4.84281e-07
5.02555e-07
4.10688e-07
3.50019e-07
5.01902e-06
5.01723e-06
5.01347e-06
5.00885e-06
5.00446e-06
4.99752e-06
4.99084e-06
4.98395e-06
4.98045e-06
4.97668e-06
4.96875e-06
4.96591e-06
4.96545e-06
4.96799e-06
4.9667e-06
4.95965e-06
4.96347e-06
4.96379e-06
4.96267e-06
4.95748e-06
4.96623e-06
4.97469e-06
4.96988e-06
4.96981e-06
4.96711e-06
4.96117e-06
4.96807e-06
4.97384e-06
4.98312e-06
4.98197e-06
4.9833e-06
4.99036e-06
4.99809e-06
4.99579e-06
4.99722e-06
4.99572e-06
5.00089e-06
5.00234e-06
5.00137e-06
5.00861e-06
5.00341e-06
5.00585e-06
5.00384e-06
5.00374e-06
5.01227e-06
5.00748e-06
5.00165e-06
5.00263e-06
5.0008e-06
4.99483e-06
4.98541e-06
4.98567e-06
4.98423e-06
4.98938e-06
4.99087e-06
4.99415e-06
4.99691e-06
4.99783e-06
4.99949e-06
5.12737e-06
5.1228e-06
5.11525e-06
5.1084e-06
5.10086e-06
5.0931e-06
5.08653e-06
5.08084e-06
5.07678e-06
5.0716e-06
5.06585e-06
5.06407e-06
5.06124e-06
5.05768e-06
5.05009e-06
5.04771e-06
5.04884e-06
5.04923e-06
5.04483e-06
5.04415e-06
5.05293e-06
5.05715e-06
5.05168e-06
5.05242e-06
5.04722e-06
5.04328e-06
5.0508e-06
5.05841e-06
5.0645e-06
5.06371e-06
5.068e-06
5.07446e-06
5.08167e-06
5.08045e-06
5.08418e-06
5.08268e-06
5.08681e-06
5.09008e-06
5.08935e-06
5.09643e-06
5.09352e-06
5.09406e-06
5.09864e-06
5.09678e-06
5.09857e-06
5.10642e-06
5.10456e-06
5.1043e-06
5.10711e-06
5.10526e-06
5.09668e-06
5.09117e-06
5.0878e-06
5.08704e-06
5.08773e-06
5.09405e-06
5.09561e-06
5.10389e-06
5.10626e-06
5.24592e-06
5.23958e-06
5.23084e-06
5.22339e-06
5.21556e-06
5.20857e-06
5.20238e-06
5.1966e-06
5.19093e-06
5.18437e-06
5.17814e-06
5.17258e-06
5.16453e-06
5.1561e-06
5.14957e-06
5.15001e-06
5.1511e-06
5.14787e-06
5.14425e-06
5.14959e-06
5.15547e-06
5.15582e-06
5.15076e-06
5.15106e-06
5.1442e-06
5.1426e-06
5.15039e-06
5.15912e-06
5.16298e-06
5.1629e-06
5.16943e-06
5.17543e-06
5.18244e-06
5.18264e-06
5.1869e-06
5.18777e-06
5.18956e-06
5.19641e-06
5.19534e-06
5.20237e-06
5.20555e-06
5.20529e-06
5.20506e-06
5.21236e-06
5.21104e-06
5.21586e-06
5.2169e-06
5.21919e-06
5.22308e-06
5.22697e-06
5.23069e-06
5.22544e-06
5.22109e-06
5.21945e-06
5.21871e-06
5.21835e-06
5.2153e-06
5.21528e-06
5.21755e-06
5.38278e-06
5.37617e-06
5.3674e-06
5.35994e-06
5.35215e-06
5.34489e-06
5.33756e-06
5.32997e-06
5.32189e-06
5.31324e-06
5.3046e-06
5.29556e-06
5.28594e-06
5.27865e-06
5.27476e-06
5.27344e-06
5.27292e-06
5.26824e-06
5.26864e-06
5.2724e-06
5.27655e-06
5.27492e-06
5.26907e-06
5.26848e-06
5.26063e-06
5.26136e-06
5.2694e-06
5.27855e-06
5.28114e-06
5.28186e-06
5.28989e-06
5.29575e-06
5.30276e-06
5.30464e-06
5.31007e-06
5.31205e-06
5.31456e-06
5.31898e-06
5.32109e-06
5.32644e-06
5.33233e-06
5.33952e-06
5.337e-06
5.33932e-06
5.34195e-06
5.34742e-06
5.35132e-06
5.35421e-06
5.35737e-06
5.36005e-06
5.36275e-06
5.37379e-06
5.37596e-06
5.37795e-06
5.37841e-06
5.37913e-06
5.37464e-06
5.37827e-06
5.37922e-06
5.54456e-06
5.53768e-06
5.52835e-06
5.52008e-06
5.51111e-06
5.50211e-06
5.49257e-06
5.48259e-06
5.47218e-06
5.46162e-06
5.45128e-06
5.4414e-06
5.43299e-06
5.42765e-06
5.42467e-06
5.42191e-06
5.41684e-06
5.4135e-06
5.41435e-06
5.41726e-06
5.41892e-06
5.41628e-06
5.40974e-06
5.40785e-06
5.40021e-06
5.40285e-06
5.41114e-06
5.42046e-06
5.42247e-06
5.42405e-06
5.43317e-06
5.4393e-06
5.4466e-06
5.45008e-06
5.45666e-06
5.46063e-06
5.46311e-06
5.47105e-06
5.47129e-06
5.47848e-06
5.48143e-06
5.48918e-06
5.49633e-06
5.50275e-06
5.50002e-06
5.50242e-06
5.50735e-06
5.51533e-06
5.51825e-06
5.53364e-06
5.53371e-06
5.53755e-06
5.54056e-06
5.54376e-06
5.54672e-06
5.55033e-06
5.55068e-06
5.55996e-06
5.56161e-06
5.73491e-06
5.72698e-06
5.71617e-06
5.70619e-06
5.69525e-06
5.68412e-06
5.67249e-06
5.66069e-06
5.64891e-06
5.63754e-06
5.62701e-06
5.61781e-06
5.61057e-06
5.60537e-06
5.60079e-06
5.59545e-06
5.58956e-06
5.58766e-06
5.58736e-06
5.59041e-06
5.58951e-06
5.58447e-06
5.57758e-06
5.57448e-06
5.56799e-06
5.57221e-06
5.5806e-06
5.59003e-06
5.592e-06
5.59454e-06
5.60458e-06
5.61136e-06
5.61912e-06
5.62422e-06
5.63191e-06
5.63816e-06
5.64205e-06
5.64973e-06
5.6529e-06
5.65811e-06
5.67182e-06
5.67167e-06
5.67895e-06
5.68836e-06
5.69833e-06
5.69705e-06
5.69958e-06
5.70582e-06
5.71524e-06
5.72834e-06
5.73566e-06
5.74002e-06
5.74372e-06
5.74667e-06
5.75014e-06
5.75514e-06
5.7607e-06
5.76677e-06
5.77269e-06
5.95863e-06
5.94921e-06
5.93655e-06
5.92475e-06
5.91203e-06
5.89927e-06
5.88633e-06
5.87363e-06
5.86139e-06
5.84999e-06
5.83973e-06
5.83084e-06
5.82337e-06
5.81681e-06
5.81035e-06
5.80407e-06
5.79947e-06
5.79892e-06
5.79904e-06
5.79845e-06
5.79419e-06
5.78589e-06
5.77893e-06
5.77499e-06
5.77028e-06
5.77573e-06
5.7844e-06
5.7938e-06
5.79615e-06
5.79979e-06
5.81071e-06
5.81848e-06
5.82691e-06
5.83371e-06
5.84268e-06
5.85109e-06
5.85752e-06
5.86565e-06
5.8712e-06
5.87732e-06
5.88826e-06
5.90422e-06
5.90369e-06
5.90859e-06
5.9265e-06
5.93092e-06
5.93507e-06
5.93864e-06
5.94578e-06
5.95672e-06
5.96737e-06
5.97597e-06
5.98299e-06
5.98894e-06
5.99418e-06
5.99905e-06
6.00456e-06
6.00955e-06
6.01718e-06
6.22509e-06
6.21428e-06
6.19995e-06
6.18667e-06
6.17266e-06
6.15885e-06
6.14514e-06
6.13194e-06
6.1194e-06
6.10778e-06
6.09719e-06
6.08766e-06
6.07905e-06
6.07111e-06
6.06386e-06
6.05804e-06
6.05468e-06
6.05371e-06
6.05151e-06
6.04681e-06
6.0388e-06
6.02883e-06
6.02191e-06
6.01765e-06
6.0151e-06
6.02151e-06
6.0306e-06
6.03996e-06
6.04303e-06
6.04792e-06
6.05979e-06
6.0689e-06
6.07831e-06