/*--------------------------------*- C++ -*----------------------------------*\
| =========                 |                                                 |
| \\      /  F ield         | OpenFOAM: The Open Source CFD Toolbox           |
|  \\    /   O peration     | Version:  2312                                  |
|   \\  /    A nd           | Website:  www.openfoam.com                      |
|    \\/     M anipulation  |                                                 |
\*---------------------------------------------------------------------------*/
FoamFile
{
    version     2.0;
    format      ascii;
    arch        "LSB;label=32;scalar=64";
    class       volScalarField;
    location    "500";
    object      nut;
}
// * * * * * * * * * * * * * * * * * * * * * * * * * * * * * * * * * * * * * //

dimensions      [0 2 -1 0 0 0 0];

internalField   nonuniform List<scalar> 
76025
(
0.000170401
0.0001707
0.000170857
0.000170857
0.000170885
0.000170899
0.000170826
0.000170927
0.00017083
0.000170823
0.000170845
0.000171195
0.000171395
0.000171566
0.000171697
0.000171981
0.000172214
0.000172092
0.000172378
0.000172513
0.000172368
0.000172661
0.000172536
0.000172568
0.000172794
0.000172971
0.000173192
0.000173318
0.000173546
0.000173796
0.00017415
0.000174496
0.000175023
0.000175529
0.000176144
0.000176776
0.000177499
0.000178386
0.000179278
0.000180242
0.000181244
0.000182387
0.000183651
0.000184935
0.000186271
0.000187673
0.00018916
0.000190689
0.000192289
0.000193881
0.000195607
0.000197416
0.000199408
0.000201425
0.000203852
0.000206311
0.000209318
0.000212666
0.000216734
0.000221626
0.000227441
0.000234685
0.000244581
0.000256377
0.000273166
0.000292297
0.000316895
0.000343467
0.000373669
0.000172287
0.000172283
0.000172364
0.000172433
0.00017263
0.000172845
0.000172957
0.000173242
0.000173407
0.000173442
0.00017348
0.000173351
0.000173213
0.000173272
0.000173426
0.000173707
0.000173899
0.000174
0.000174799
0.000174918
0.000175176
0.000175376
0.000175066
0.00017518
0.000175539
0.000175885
0.000176237
0.00017673
0.000177461
0.000178675
0.00017897
0.000178494
0.00017849
0.000178774
0.00017927
0.000179914
0.000180659
0.000181493
0.000182377
0.000183317
0.000184327
0.000185394
0.00018652
0.000187699
0.000188953
0.000190288
0.000191687
0.000193168
0.00019475
0.000196461
0.000198289
0.000200296
0.000202476
0.000204889
0.00020759
0.000210657
0.000214207
0.000218262
0.000223197
0.000228963
0.000236323
0.000245263
0.000257023
0.00027144
0.000290244
0.000311581
0.000337991
0.000363675
0.000394755
0.000174327
0.000174282
0.000174418
0.000174479
0.000174551
0.000174628
0.000174689
0.00017492
0.000174935
0.000175106
0.000175249
0.00017556
0.000175662
0.00017591
0.000176038
0.000176191
0.000176347
0.000176473
0.000176748
0.000176909
0.000177084
0.000177267
0.000177408
0.000177595
0.000177836
0.000178097
0.000178419
0.000178639
0.000178644
0.000179112
0.000179926
0.000180487
0.000181008
0.00018154
0.000182155
0.000182882
0.000183695
0.000184569
0.000185495
0.000186468
0.000187498
0.00018859
0.000189747
0.000190975
0.000192287
0.000193689
0.000195187
0.000196795
0.000198532
0.00020042
0.000202471
0.00020473
0.000207212
0.000209987
0.00021309
0.000216646
0.000220736
0.000225525
0.000231306
0.000238247
0.000247057
0.000257808
0.000271756
0.000288413
0.000309126
0.000331906
0.000358415
0.000383914
0.000413566
0.000176934
0.000177009
0.000176776
0.000176842
0.000177065
0.000177242
0.000177642
0.000177431
0.000177566
0.000177299
0.000177347
0.000177478
0.000177741
0.000177861
0.000178365
0.000178499
0.000178945
0.000179254
0.000179492
0.00017966
0.00017983
0.000179985
0.000180183
0.000180358
0.000180607
0.000180836
0.000181116
0.000181392
0.000181579
0.000181938
0.000182202
0.000182503
0.000183127
0.00018313
0.000183863
0.000185364
0.000186723
0.000187898
0.000188999
0.000190088
0.000191204
0.000192373
0.000193611
0.00019493
0.000196346
0.000197869
0.000199507
0.000201278
0.000203199
0.000205297
0.00020759
0.000210127
0.000212931
0.000216089
0.000219648
0.000223764
0.000228549
0.000234246
0.000241161
0.000249595
0.000260208
0.00027311
0.000289272
0.000307927
0.000330066
0.000353469
0.000379449
0.000403805
0.000430686
0.00018
0.000180033
0.000180361
0.000180559
0.000180567
0.000180921
0.000180806
0.000180596
0.00018064
0.000180893
0.000181106
0.000181189
0.000181075
0.000180724
0.000180724
0.000180737
0.000180909
0.000181135
0.000181519
0.000182253
0.000182833
0.00018322
0.000183555
0.000183839
0.000184159
0.000184482
0.000184848
0.000185249
0.000185649
0.000186145
0.000186655
0.000187235
0.000187916
0.000188634
0.000189452
0.000190373
0.000191349
0.000192361
0.000193413
0.000194514
0.00019568
0.000196922
0.000198252
0.000199681
0.000201223
0.00020289
0.000204692
0.00020665
0.000208779
0.000211117
0.000213686
0.000216547
0.000219734
0.000223364
0.000227497
0.000232349
0.000238047
0.000244941
0.00025331
0.00026357
0.000276201
0.000291264
0.000309347
0.000329414
0.000352236
0.000375316
0.00039995
0.000422203
0.000445332
0.000183497
0.000183762
0.000184328
0.000184563
0.000184525
0.000184729
0.000184453
0.000184836
0.000184308
0.000184761
0.000184753
0.000184929
0.000185006
0.000185034
0.000185258
0.000185644
0.00018647
0.000186735
0.000185803
0.000185602
0.000185702
0.000186456
0.000186994
0.000187698
0.000188255
0.000188751
0.000189238
0.000189744
0.000190275
0.000190854
0.000191477
0.000192151
0.000192883
0.00019367
0.000194515
0.000195419
0.000196382
0.000197407
0.000198499
0.000199664
0.000200911
0.000202252
0.000203696
0.000205256
0.000206944
0.000208779
0.00021077
0.000212942
0.000215319
0.000217944
0.000220851
0.000224119
0.000227804
0.000232053
0.000236959
0.000242793
0.000249704
0.000258125
0.000268254
0.000280557
0.000295186
0.000312156
0.000331565
0.00035229
0.000374921
0.000396652
0.000419181
0.000438226
0.000456654
0.000187184
0.000187342
0.00018744
0.0001876
0.000187574
0.000187853
0.000188401
0.000188928
0.000189675
0.00018956
0.000189404
0.00018916
0.000189437
0.000189681
0.000190132
0.000190648
0.000191294
0.00019197
0.000192074
0.000192805
0.000192105
0.000191845
0.000191613
0.000191238
0.000192135
0.00019246
0.00019354
0.000194418
0.0001952
0.000195949
0.000196701
0.000197475
0.000198286
0.000199142
0.000200049
0.000201015
0.000202044
0.000203143
0.00020432
0.000205583
0.000206941
0.000208405
0.000209987
0.000211704
0.000213567
0.000215604
0.000217826
0.000220265
0.000222955
0.000225951
0.000229309
0.000233126
0.000237492
0.000242587
0.000248542
0.000255672
0.000264128
0.00027436
0.000286415
0.000300722
0.000317018
0.000335341
0.000355224
0.000375747
0.000397158
0.000416515
0.000436171
0.000450639
0.000463619
0.000191484
0.000191754
0.000191889
0.000191895
0.0001919
0.000191951
0.000191847
0.000192413
0.000193054
0.000193498
0.000193815
0.000194051
0.00019427
0.000194607
0.00019501
0.000195467
0.000196339
0.000196869
0.0001978
0.000198473
0.000198791
0.000199658
0.000198713
0.000199091
0.000198001
0.000197521
0.000198649
0.000198505
0.000200047
0.000201334
0.000202394
0.000203362
0.000204309
0.000205274
0.00020628
0.000207342
0.00020847
0.000209675
0.000210967
0.000212356
0.000213853
0.000215472
0.000217229
0.000219141
0.000221229
0.000223522
0.000226049
0.000228846
0.000231964
0.000235474
0.000239459
0.000244043
0.00024935
0.000255589
0.000262921
0.000271656
0.000281906
0.000294048
0.000307921
0.000323859
0.000341178
0.000360054
0.000379376
0.000398792
0.00041778
0.000433851
0.000449697
0.000457992
0.000465467
0.000196309
0.000196778
0.000196952
0.000197453
0.000197916
0.000198424
0.00019937
0.000199672
0.000199406
0.00019942
0.000199622
0.00019982
0.000200326
0.000200861
0.00020134
0.000201613
0.000202043
0.000202137
0.000202499
0.000202504
0.000202684
0.000202504
0.00020258
0.000201966
0.000202119
0.000202372
0.000204102
0.000204034
0.000205965
0.000207567
0.000208869
0.00021003
0.000211135
0.000212237
0.00021337
0.000214556
0.000215813
0.000217155
0.000218595
0.000220147
0.000221825
0.000223648
0.000225634
0.000227809
0.000230203
0.00023285
0.000235801
0.000239101
0.000242823
0.000247061
0.000251926
0.000257563
0.000264127
0.000271825
0.00028081
0.000291327
0.000303391
0.000317231
0.000332467
0.000349336
0.000366782
0.000385228
0.000402836
0.000420203
0.000435397
0.000447495
0.000458101
0.000458923
0.000461384
0.000202789
0.000203016
0.000203341
0.000203275
0.000203707
0.000205406
0.000205716
0.000205998
0.000206109
0.00020621
0.000206397
0.000206612
0.000206992
0.000207421
0.000207887
0.000208195
0.000208516
0.0002086
0.000208791
0.000208729
0.000208871
0.00020869
0.000208881
0.000208572
0.000208973
0.000208479
0.000209168
0.000209947
0.000212395
0.000212802
0.000215218
0.00021718
0.000218745
0.000220141
0.000221492
0.000222867
0.000224305
0.000225835
0.000227477
0.000229251
0.000231177
0.00023328
0.000235586
0.000238131
0.000240957
0.000244113
0.000247665
0.000251684
0.00025626
0.000261507
0.000267554
0.000274553
0.000282653
0.000292016
0.000302735
0.000314929
0.00032848
0.000343445
0.00035926
0.000376094
0.000392585
0.00040949
0.000424164
0.000438492
0.000448416
0.000456091
0.000459296
0.000452682
0.000449083
0.000210754
0.000210964
0.000211242
0.000211498
0.000211843
0.000212724
0.000213526
0.000214131
0.000214527
0.000214779
0.000214974
0.000215149
0.000215376
0.000215633
0.000215962
0.000216225
0.000216577
0.000216754
0.000216995
0.000217088
0.000216817
0.000216759
0.000216153
0.000217117
0.000218051
0.000219075
0.00022024
0.000221346
0.000222605
0.00022381
0.000225178
0.000226601
0.000228039
0.000229503
0.000231015
0.000232605
0.000234292
0.000236095
0.000238033
0.000240131
0.000242416
0.000244924
0.000247694
0.000250775
0.000254224
0.00025811
0.000262511
0.000267523
0.000273245
0.000279794
0.00028729
0.000295857
0.000305589
0.000316559
0.000328752
0.000342139
0.000356473
0.000371657
0.000387003
0.000402647
0.000416975
0.000431152
0.00044163
0.000451883
0.000455108
0.00045794
0.000451204
0.000438901
0.000424277
0.000220212
0.000220462
0.000220754
0.00022108
0.000221438
0.000221988
0.000222644
0.000223293
0.000223857
0.000224319
0.000224688
0.000224998
0.000225275
0.000225552
0.00022583
0.00022612
0.000226415
0.000226707
0.000226989
0.000227263
0.000227414
0.000227599
0.000227738
0.000228089
0.00022847
0.000228918
0.000229666
0.000230192
0.000229864
0.000230952
0.000233428
0.000235654
0.000237649
0.000239621
0.000241621
0.000243783
0.000246038
0.00024838
0.00025084
0.000253463
0.000256302
0.000259415
0.000262863
0.000266714
0.000271042
0.000275927
0.00028146
0.000287733
0.000294841
0.000302869
0.000311892
0.00032196
0.000333078
0.000345203
0.000358206
0.000371922
0.000386005
0.000400245
0.000413889
0.000427071
0.000437959
0.000448211
0.000453217
0.000458377
0.000453652
0.000450947
0.000432513
0.00041596
0.00038422
0.000231644
0.000231935
0.000232254
0.000232608
0.000232992
0.000233445
0.00023397
0.000234538
0.000235106
0.000235647
0.000236143
0.000236596
0.000237013
0.000237406
0.000237783
0.000238153
0.000238523
0.000238888
0.000239261
0.000239612
0.000239965
0.000240296
0.000240652
0.000241068
0.000241494
0.000242049
0.000242527
0.000243359
0.000243846
0.00024453
0.000245746
0.000247137
0.00024732
0.000249242
0.00025171
0.000256235
0.000260122
0.000263593
0.000266946
0.000270376
0.00027402
0.000277987
0.000282368
0.000287248
0.000292709
0.00029883
0.000305686
0.000313341
0.000321849
0.000331235
0.000341496
0.000352586
0.000364411
0.000376821
0.000389592
0.000402458
0.000415023
0.000426996
0.000437615
0.000447023
0.000453213
0.000458399
0.000456696
0.000455905
0.000442157
0.000433033
0.000402681
0.000380595
0.000331832
0.000245606
0.000245963
0.000246334
0.000246731
0.000247153
0.000247609
0.000248104
0.000248637
0.000249194
0.00024976
0.000250324
0.000250879
0.000251422
0.000251953
0.00025248
0.000252996
0.000253511
0.00025402
0.000254543
0.000255067
0.000255621
0.000256197
0.000256815
0.000257517
0.000258268
0.000259166
0.000260132
0.000261299
0.000262573
0.000264004
0.000265723
0.000267665
0.000269775
0.000272224
0.000274972
0.000278066
0.000281389
0.000284927
0.000288721
0.000292831
0.000297326
0.000302274
0.000307742
0.000313792
0.000320479
0.000327849
0.000335932
0.000344739
0.000354253
0.000364427
0.000375173
0.000386358
0.000397805
0.000409281
0.000420506
0.000431154
0.000440822
0.000449162
0.000455465
0.000459845
0.000460218
0.000459303
0.000449823
0.000442479
0.000418878
0.000402748
0.00036105
0.000329869
0.000266152
0.000262855
0.000263322
0.000263793
0.000264281
0.000264785
0.000265309
0.000265858
0.000266434
0.000267037
0.000267662
0.000268305
0.000268963
0.000269628
0.000270298
0.000270977
0.000271663
0.000272363
0.000273079
0.000273822
0.000274596
0.000275416
0.000276293
0.00027724
0.000278285
0.000279431
0.000280714
0.000282135
0.00028373
0.000285503
0.000287469
0.000289661
0.000292087
0.000294759
0.0002977
0.000300926
0.000304459
0.000308315
0.000312522
0.000317112
0.000322127
0.000327606
0.000333588
0.000340106
0.000347184
0.000354832
0.000363045
0.000371794
0.000381026
0.000390658
0.000400575
0.000410623
0.000420611
0.000430311
0.000439447
0.000447719
0.000454765
0.000460211
0.000463658
0.000464513
0.000462784
0.000456485
0.000448552
0.000430659
0.000416387
0.000382851
0.000359191
0.0003049
0.000266171
0.000205561
0.00028465
0.000285283
0.000285915
0.000286561
0.000287217
0.000287888
0.000288578
0.000289287
0.000290017
0.000290769
0.000291544
0.000292343
0.000293168
0.00029402
0.0002949
0.000295813
0.000296763
0.000297755
0.000298798
0.000299901
0.000301077
0.000302339
0.000303701
0.000305182
0.000306798
0.000308569
0.00031051
0.00031264
0.000314977
0.000317536
0.000320335
0.000323392
0.000326724
0.000330349
0.000334286
0.000338556
0.00034318
0.000348177
0.000353568
0.000359369
0.000365592
0.000372238
0.000379303
0.000386764
0.000394585
0.00040271
0.000411059
0.00041953
0.000427991
0.000436284
0.000444218
0.000451574
0.000458104
0.000463515
0.000467517
0.000469727
0.000469829
0.000467376
0.000461926
0.00045328
0.000439809
0.000424125
0.000397977
0.00037673
0.000332553
0.000298542
0.000239094
0.000202021
0.000142478
0.000313188
0.000314067
0.000314943
0.00031583
0.000316725
0.000317631
0.000318554
0.000319499
0.000320469
0.000321468
0.000322499
0.000323567
0.000324676
0.000325829
0.000327032
0.000328291
0.000329612
0.000331001
0.000332469
0.000334024
0.000335678
0.000337444
0.000339336
0.000341367
0.000343553
0.000345909
0.000348449
0.000351188
0.00035414
0.000357317
0.000360732
0.000364397
0.000368322
0.000372518
0.000376991
0.000381751
0.000386801
0.000392141
0.000397767
0.000403668
0.000409826
0.00041621
0.00042278
0.000429478
0.000436233
0.000442955
0.000449533
0.000455834
0.000461706
0.000466969
0.000471419
0.00047483
0.000476954
0.000477491
0.000476188
0.000472626
0.000466591
0.000457584
0.00044528
0.000429318
0.000408583
0.000384913
0.000351879
0.000319773
0.000266076
0.000230695
0.000173022
0.000140356
8.62314e-05
0.00035255
0.000353816
0.000355082
0.00035636
0.000357648
0.000358948
0.000360266
0.000361606
0.000362974
0.000364374
0.00036581
0.000367287
0.000368811
0.000370385
0.000372016
0.000373709
0.00037547
0.000377306
0.000379224
0.000381231
0.000383337
0.000385549
0.000387877
0.000390331
0.000392919
0.000395651
0.000398534
0.000401576
0.000404783
0.00040816
0.00041171
0.000415435
0.000419335
0.000423407
0.000427644
0.000432038
0.000436576
0.000441238
0.000446
0.00045083
0.000455688
0.000460522
0.000465268
0.00046985
0.000474178
0.000478143
0.000481621
0.000484467
0.00048652
0.000487597
0.000487487
0.000485971
0.000482808
0.000477686
0.000470431
0.000460541
0.000448001
0.000432209
0.000412869
0.000389885
0.000362356
0.000328997
0.000287278
0.000247785
0.000197928
0.000163344
0.000113211
8.62276e-05
4.74166e-05
0.000410206
0.000411901
0.000413577
0.000415244
0.0004169
0.000418548
0.000420192
0.000421837
0.000423487
0.000425146
0.000426819
0.000428507
0.000430216
0.000431949
0.000433709
0.0004355
0.000437327
0.000439193
0.000441103
0.00044306
0.00044507
0.000447137
0.000449266
0.00045146
0.000453723
0.000456057
0.000458466
0.000460948
0.000463504
0.000466131
0.000468826
0.00047158
0.000474383
0.00047722
0.000480072
0.000482919
0.000485736
0.000488491
0.000491148
0.000493664
0.000495986
0.00049805
0.000499784
0.0005011
0.000501899
0.000502065
0.000501466
0.000499956
0.000497373
0.000493524
0.000488199
0.000481202
0.000472298
0.000461147
0.000447748
0.000431423
0.000412529
0.000390185
0.000364339
0.000332889
0.00029579
0.000255982
0.000214852
0.000175569
0.000132894
0.000101315
6.47987e-05
4.2999e-05
2.11458e-05
0.00048862
0.000490218
0.000491739
0.0004932
0.000494605
0.00049596
0.000497273
0.000498549
0.000499794
0.000501009
0.000502196
0.000503353
0.000504482
0.000505586
0.000506666
0.000507724
0.000508764
0.000509788
0.000510799
0.000511799
0.000512791
0.000513776
0.000514754
0.000515726
0.000516691
0.000517648
0.000518593
0.000519522
0.00052043
0.00052131
0.00052215
0.000522935
0.000523639
0.000524232
0.00052469
0.000524988
0.000525098
0.000524987
0.000524613
0.000523927
0.000522871
0.000521375
0.000519359
0.000516729
0.000513384
0.000509193
0.000504026
0.000497743
0.000490181
0.000481104
0.000470348
0.000457782
0.000443131
0.000426008
0.000406888
0.000384602
0.000359585
0.000328666
0.000293898
0.000257137
0.000219036
0.000181025
0.000144488
0.000109123
7.80659e-05
5.23151e-05
3.05589e-05
1.77234e-05
8.52818e-06
0.000572787
0.000573191
0.000573571
0.000573923
0.000574237
0.00057451
0.000574739
0.000574923
0.00057506
0.000575136
0.000575119
0.000575015
0.000574832
0.000574573
0.000574244
0.00057385
0.000573397
0.000572888
0.000572324
0.000571706
0.000571031
0.000570297
0.000569499
0.000568633
0.000567693
0.000566673
0.000565568
0.000564372
0.000563079
0.000561667
0.000560119
0.000558405
0.000556472
0.00055423
0.000551723
0.000548935
0.00054585
0.000542434
0.000538641
0.000534417
0.000529694
0.000524393
0.000518429
0.000511698
0.000504097
0.000495462
0.000485712
0.000474717
0.000462262
0.000447994
0.000432091
0.000414439
0.000394484
0.000372053
0.000345829
0.000315735
0.000283152
0.000248555
0.00021347
0.000179223
0.000144473
0.000112565
8.32392e-05
5.74871e-05
3.72362e-05
2.1251e-05
1.13704e-05
6.30421e-06
3.90885e-06
0.000638158
0.000637028
0.000635862
0.000634655
0.000633405
0.000632098
0.000630746
0.000629327
0.000627858
0.00062631
0.000624703
0.000623005
0.00062124
0.000619374
0.000617447
0.000615465
0.000613448
0.000611353
0.000609198
0.000606956
0.000604613
0.00060215
0.000599562
0.000596842
0.000593979
0.000590968
0.000587804
0.000584516
0.000581066
0.000577376
0.000573441
0.000569229
0.000564581
0.000559018
0.000553398
0.000547478
0.000541279
0.000534696
0.000527675
0.000520133
0.000511978
0.000503124
0.000493479
0.000482932
0.00047137
0.000458554
0.000444735
0.000429554
0.000412525
0.000393341
0.000372834
0.000348701
0.000322193
0.000292975
0.000262315
0.000230632
0.000199349
0.000167465
0.00013658
0.000107956
8.09526e-05
5.81632e-05
3.8673e-05
2.3664e-05
1.28644e-05
7.05093e-06
4.06538e-06
2.77421e-06
2.49925e-06
0.000667357
0.000664868
0.000662323
0.000659696
0.000657115
0.000654253
0.000651629
0.000648575
0.000645853
0.000642614
0.000639758
0.000636322
0.000633305
0.000629655
0.000626452
0.000622572
0.00061917
0.000615177
0.000611447
0.000607452
0.00060326
0.000598802
0.000594189
0.000589411
0.000584457
0.00057932
0.000573935
0.000568918
0.00056369
0.000557521
0.000551187
0.000544881
0.000538356
0.000531645
0.000524153
0.000515757
0.000507434
0.000498422
0.000488938
0.000478747
0.000467766
0.000455953
0.000443236
0.000429478
0.000414486
0.000398158
0.000379936
0.00035955
0.000336776
0.000312312
0.000286452
0.000259307
0.000231843
0.000203652
0.000175407
0.000147169
0.000120637
9.51904e-05
7.2746e-05
5.2818e-05
3.61299e-05
2.2918e-05
1.29839e-05
7.22407e-06
4.14503e-06
2.68351e-06
2.05772e-06
2.02265e-06
2.19143e-06
0.000643322
0.00063994
0.000636508
0.00063302
0.000629472
0.000625839
0.000622144
0.000618349
0.000614486
0.00061051
0.00060646
0.000602283
0.000598023
0.000593622
0.000589129
0.000584475
0.000579693
0.000574737
0.000569644
0.000564394
0.000558977
0.000553375
0.000547584
0.000541598
0.000535408
0.000529007
0.00052237
0.000515542
0.000508499
0.000501141
0.000493476
0.000485516
0.000477238
0.000468603
0.000459541
0.000449953
0.000439833
0.000429106
0.000417722
0.000405473
0.000392246
0.000377905
0.000362256
0.000345258
0.000326769
0.000306873
0.000285482
0.00026351
0.000240149
0.000216141
0.000192129
0.000166785
0.000142984
0.000118974
9.69249e-05
7.64605e-05
5.86769e-05
4.28687e-05
2.99853e-05
1.93828e-05
1.14892e-05
6.57265e-06
3.99474e-06
2.53235e-06
1.83929e-06
1.68245e-06
1.68336e-06
1.92744e-06
3.14156e-06
0.000558987
0.000555397
0.000551744
0.000548026
0.000544236
0.00054037
0.000536424
0.000532394
0.000528276
0.000524066
0.000519762
0.000515337
0.00051079
0.000506117
0.00050132
0.000496392
0.00049133
0.000486126
0.000480775
0.000475272
0.000469609
0.000463778
0.00045777
0.000451577
0.000445189
0.000438593
0.000431774
0.000424719
0.000417405
0.000409811
0.000401896
0.000393611
0.000384899
0.000375697
0.000365934
0.000355532
0.000344405
0.000332481
0.000319618
0.000305905
0.000291278
0.000275705
0.000259098
0.000241545
0.000222926
0.000203745
0.0001835
0.00016342
0.000142643
0.000122484
0.000103521
8.45959e-05
6.88608e-05
5.34681e-05
4.11192e-05
3.02697e-05
2.15558e-05
1.41712e-05
8.70211e-06
5.38404e-06
3.47564e-06
2.29834e-06
1.59674e-06
1.21907e-06
1.36767e-06
1.63688e-06
2.24303e-06
4.17213e-06
7.10978e-06
0.000415121
0.000412067
0.000408944
0.000405754
0.000402495
0.000399166
0.000395766
0.000392293
0.000388747
0.000385124
0.000381423
0.000377639
0.000373768
0.000369806
0.000365748
0.00036159
0.000357326
0.000352951
0.000348458
0.000343842
0.000339097
0.000334217
0.000329192
0.000324016
0.000318681
0.000313167
0.000307462
0.000301538
0.000295329
0.000288739
0.000281725
0.000274245
0.000266255
0.000257705
0.000248546
0.000238724
0.000228192
0.000216909
0.00020485
0.000192009
0.000178359
0.000164055
0.000149127
0.000133864
0.000118441
0.00010324
8.84674e-05
7.45769e-05
6.16946e-05
5.00445e-05
4.00652e-05
3.09772e-05
2.40419e-05
1.75933e-05
1.31295e-05
8.8303e-06
5.76255e-06
3.94626e-06
2.7534e-06
1.87741e-06
1.2745e-06
8.88112e-07
9.48144e-07
1.43608e-06
2.77468e-06
3.78935e-06
4.3463e-06
6.13996e-06
8.66378e-06
0.000232377
0.000230512
0.0002286
0.000226645
0.000224648
0.000222607
0.000220524
0.000218396
0.000216225
0.000214008
0.000211745
0.000209434
0.000207075
0.000204663
0.000202197
0.000199671
0.000197081
0.000194423
0.000191692
0.000188886
0.000186
0.000183031
0.000179969
0.000176812
0.000173562
0.000170145
0.000166585
0.000162686
0.000158367
0.000153609
0.00014839
0.000142685
0.000136478
0.00012976
0.000122537
0.000114828
0.000106678
9.81549e-05
8.93457e-05
8.04083e-05
7.14234e-05
6.2682e-05
5.41664e-05
4.62929e-05
3.91607e-05
3.28241e-05
2.73007e-05
2.22617e-05
1.80769e-05
1.43397e-05
1.13042e-05
8.71218e-06
6.62788e-06
4.95307e-06
3.50676e-06
2.52952e-06
1.8403e-06
1.31475e-06
8.87178e-07
6.17512e-07
5.19938e-07
7.18174e-07
1.7201e-06
2.87296e-06
3.91375e-06
4.76137e-06
5.68284e-06
7.07153e-06
7.8701e-06
7.09687e-05
7.03103e-05
6.96334e-05
6.89413e-05
6.82309e-05
6.75047e-05
6.67643e-05
6.60079e-05
6.52378e-05
6.44514e-05
6.36532e-05
6.28362e-05
6.20114e-05
6.11682e-05
6.03122e-05
5.94367e-05
5.85424e-05
5.7625e-05
5.66825e-05
5.57197e-05
5.47333e-05
5.37284e-05
5.26806e-05
5.16363e-05
5.04856e-05
4.90992e-05
4.74637e-05
4.56286e-05
4.36315e-05
4.14988e-05
3.92588e-05
3.69401e-05
3.45759e-05
3.21953e-05
2.983e-05
2.75054e-05
2.52495e-05
2.30773e-05
2.10165e-05
1.9058e-05
1.7243e-05
1.55221e-05
1.39648e-05
1.24585e-05
1.10245e-05
9.55883e-06
8.19395e-06
6.89458e-06
5.69904e-06
4.56096e-06
3.55435e-06
2.69613e-06
1.99215e-06
1.31393e-06
9.13734e-07
6.86354e-07
5.03919e-07
3.1043e-07
2.09442e-07
1.78669e-07
1.96372e-07
3.04954e-07
5.81254e-07
1.18449e-06
1.8439e-06
2.58482e-06
3.31395e-06
3.63993e-06
3.41652e-06
7.1196e-06
7.16777e-06
7.23029e-06
7.32492e-06
7.38786e-06
7.46455e-06
7.53224e-06
7.61093e-06
7.69006e-06
7.77244e-06
7.85482e-06
7.96391e-06
8.06488e-06
8.12997e-06
8.28144e-06
8.27962e-06
8.41226e-06
8.40877e-06
8.43465e-06
8.49847e-06
8.57763e-06
8.65602e-06
8.72534e-06
8.79637e-06
8.86248e-06
8.95356e-06
8.97624e-06
8.98179e-06
8.97535e-06
8.95663e-06
8.92528e-06
8.88003e-06
8.81891e-06
8.73893e-06
8.63658e-06
8.50749e-06
8.34666e-06
8.14841e-06
7.90593e-06
7.61199e-06
7.25811e-06
6.83449e-06
6.33344e-06
5.74194e-06
5.05379e-06
4.26244e-06
3.3746e-06
2.41184e-06
1.4496e-06
6.54821e-07
2.10262e-07
1.13506e-07
1.15825e-07
1.14004e-07
1.00795e-07
8.35416e-08
5.86833e-08
3.72464e-08
2.93233e-08
3.08736e-08
3.82732e-08
4.87982e-08
5.95632e-08
6.70536e-08
7.40375e-08
8.08534e-08
8.42027e-08
6.9048e-08
5.90325e-08
0.000171037
0.000170905
0.00017084
0.000170744
0.00017066
0.000170539
0.000170431
0.000170289
0.000170126
0.000170008
0.000169751
0.000169681
0.000169551
0.00016958
0.000169521
0.000169367
0.00016939
0.000169358
0.000169314
0.00016919
0.000169309
0.00016945
0.000169348
0.000169327
0.000169246
0.000169103
0.000169171
0.000169239
0.000169397
0.000169374
0.000169369
0.000169468
0.000169584
0.000169556
0.000169589
0.000169579
0.000169698
0.00016976
0.000169767
0.000169942
0.000169874
0.000169943
0.000169952
0.000169985
0.000170194
0.000170106
0.000170045
0.00017016
0.000170191
0.000170138
0.000170026
0.000170102
0.000170052
0.00017023
0.00017018
0.000170229
0.00017028
0.000170306
0.000170368
0.000172871
0.000172773
0.000172633
0.000172503
0.000172362
0.000172213
0.000172075
0.000171928
0.000171791
0.000171647
0.000171496
0.000171447
0.000171363
0.000171236
0.000171018
0.000170974
0.000170933
0.000170935
0.000170782
0.000170749
0.000170865
0.000170932
0.000170815
0.000170805
0.000170679
0.000170574
0.000170651
0.000170754
0.000170857
0.00017084
0.000170884
0.000170973
0.00017108
0.000171067
0.000171145
0.00017113
0.000171207
0.000171314
0.00017132
0.000171497
0.00017145
0.000171449
0.000171623
0.000171586
0.000171603
0.000171863
0.000171864
0.000171997
0.000172094
0.000172107
0.000171972
0.000172009
0.00017189
0.000171887
0.000171942
0.000172054
0.0001721
0.000172261
0.000172309
0.000174893
0.000174769
0.000174606
0.000174461
0.000174308
0.000174163
0.000174023
0.000173882
0.00017374
0.000173587
0.000173438
0.0001733
0.000173099
0.000172881
0.000172737
0.000172739
0.000172768
0.000172654
0.000172525
0.000172586
0.000172673
0.000172671
0.000172551
0.000172539
0.000172374
0.000172316
0.000172395
0.000172518
0.000172583
0.000172577
0.000172659
0.000172739
0.000172843
0.000172851
0.00017293
0.000172945
0.000173006
0.000173168
0.000173159
0.000173309
0.00017342
0.000173396
0.000173409
0.000173621
0.000173582
0.000173649
0.000173668
0.00017379
0.000174048
0.000174191
0.000174378
0.000174366
0.000174348
0.000174312
0.00017434
0.000174327
0.000174218
0.000174085
0.000174182
0.000177179
0.000177049
0.000176884
0.000176737
0.000176582
0.000176432
0.000176277
0.000176114
0.000175942
0.000175758
0.00017557
0.000175369
0.000175154
0.000174992
0.000174917
0.000174888
0.000174835
0.000174693
0.000174669
0.000174699
0.000174758
0.000174717
0.000174581
0.000174555
0.00017437
0.000174351
0.000174436
0.000174567
0.00017461
0.000174616
0.000174722
0.0001748
0.000174902
0.000174935
0.000175034
0.000175079
0.000175103
0.000175243
0.000175308
0.000175401
0.000175516
0.000175782
0.000175682
0.000175668
0.000175784
0.000175899
0.00017598
0.000175955
0.000176063
0.000176155
0.000176348
0.000176856
0.000176934
0.000177042
0.000177066
0.000177156
0.000177045
0.00017718
0.000177104
0.000179827
0.000179693
0.00017952
0.000179361
0.000179188
0.000179013
0.000178826
0.00017863
0.000178425
0.000178214
0.000178005
0.000177801
0.000177626
0.000177515
0.000177451
0.000177374
0.000177226
0.00017712
0.00017713
0.000177146
0.00017716
0.000177091
0.000176945
0.000176892
0.000176719
0.00017672
0.000176816
0.000176951
0.000176984
0.000177002
0.000177125
0.000177206
0.000177311
0.000177367
0.000177487
0.000177548
0.000177601
0.000177765
0.000177786
0.000177951
0.000177942
0.000178133
0.000178377
0.000178515
0.000178391
0.000178423
0.000178528
0.000178628
0.000178564
0.00017904
0.000179104
0.000179156
0.000179244
0.00017934
0.000179453
0.000179609
0.000179635
0.000179946
0.000180001
0.000182882
0.000182733
0.000182539
0.000182355
0.000182155
0.000181949
0.000181734
0.000181514
0.000181293
0.000181077
0.000180874
0.000180692
0.000180546
0.000180437
0.000180335
0.000180203
0.00018005
0.000179988
0.000179964
0.000180025
0.000179962
0.000179852
0.000179703
0.000179626
0.000179475
0.000179504
0.000179602
0.000179738
0.000179768
0.000179801
0.000179938
0.000180026
0.000180137
0.000180216
0.000180351
0.000180454
0.000180506
0.000180699
0.000180745
0.000180841
0.000181176
0.000180982
0.000181271
0.000181517
0.000181771
0.000181649
0.000181666
0.000181753
0.000181791
0.00018211
0.000182177
0.000182412
0.000182434
0.000182592
0.000182748
0.000182757
0.000182932
0.000183103
0.000183273
0.000186397
0.000186227
0.000186009
0.0001858
0.000185577
0.000185351
0.000185122
0.000184894
0.000184673
0.000184463
0.000184271
0.0001841
0.000183952
0.000183817
0.000183678
0.000183535
0.000183422
0.000183397
0.000183391
0.00018336
0.000183256
0.000183084
0.000182937
0.000182843
0.000182722
0.000182776
0.000182879
0.000183011
0.000183045
0.000183093
0.000183242
0.000183344
0.000183462
0.000183564
0.000183714
0.000183853
0.000183958
0.00018406
0.000184245
0.000184327
0.000184562
0.000184881
0.000184694
0.000184881
0.00018541
0.000185445
0.000185475
0.000185472
0.000185492
0.000185687
0.000185882
0.000186052
0.000186135
0.000186122
0.000186388
0.000186416
0.000186672
0.000186835
0.000187013
0.000190487
0.000190301
0.000190062
0.000189837
0.0001896
0.000189364
0.000189129
0.0001889
0.00018868
0.000188473
0.00018828
0.000188102
0.000187937
0.00018778
0.000187633
0.000187509
0.000187431
0.000187404
0.000187353
0.000187248
0.000187085
0.00018689
0.000186745
0.000186644
0.000186558
0.00018663
0.00018674
0.000186868
0.000186911
0.000186975
0.000187136
0.000187255
0.000187385
0.00018751
0.000187678
0.00018785