/*--------------------------------*- C++ -*----------------------------------*\
| =========                 |                                                 |
| \\      /  F ield         | OpenFOAM: The Open Source CFD Toolbox           |
|  \\    /   O peration     | Version:  2312                                  |
|   \\  /    A nd           | Website:  www.openfoam.com                      |
|    \\/     M anipulation  |                                                 |
\*---------------------------------------------------------------------------*/
FoamFile
{
    version     2.0;
    format      ascii;
    arch        "LSB;label=32;scalar=64";
    class       volScalarField;
    location    "500";
    object      omega;
}
// * * * * * * * * * * * * * * * * * * * * * * * * * * * * * * * * * * * * * //

dimensions      [0 0 -1 0 0 0 0];

internalField   nonuniform List<scalar> 
76025
(
0.0293557
0.0293444
0.029322
0.0292928
0.0292932
0.0292958
0.0292787
0.0292663
0.029268
0.0292664
0.0292691
0.0292556
0.0292342
0.0292113
0.029179
0.0291814
0.0291603
0.0291671
0.0291681
0.0291617
0.0291703
0.0291729
0.0291799
0.029188
0.0291721
0.0291655
0.0291893
0.0292071
0.0292402
0.0292708
0.0293163
0.0293591
0.0294327
0.0295002
0.0295841
0.0296683
0.029767
0.0298933
0.0300199
0.0301584
0.0303029
0.0304727
0.0306633
0.0308571
0.031059
0.0312724
0.0314985
0.0317322
0.031975
0.0322186
0.0324814
0.0327605
0.0330646
0.0333725
0.0337412
0.0341157
0.0345634
0.035095
0.0357122
0.0364693
0.0373082
0.0383669
0.0396981
0.0412587
0.0432977
0.0455942
0.0484052
0.0515906
0.0552119
0.0296275
0.0296399
0.0296538
0.0296561
0.0296474
0.0296461
0.0296405
0.029655
0.0296448
0.0296597
0.0296623
0.0296548
0.0296724
0.0296751
0.0296651
0.0296572
0.0296776
0.0296816
0.0296673
0.0296981
0.0297126
0.0297226
0.0297385
0.029713
0.0296965
0.0296947
0.0297167
0.0297422
0.0297851
0.0298428
0.029914
0.0299805
0.0300486
0.0301161
0.0301904
0.0302742
0.0303679
0.0304747
0.0305902
0.0307167
0.0308566
0.0310077
0.0311698
0.0313412
0.0315262
0.0317242
0.0319334
0.0321545
0.0323935
0.0326515
0.0329302
0.0332355
0.0335698
0.0339394
0.0343547
0.034832
0.0353762
0.0360044
0.0367397
0.0376006
0.0386379
0.0398767
0.0413946
0.0431863
0.0454121
0.0479026
0.0509877
0.054171
0.0582217
0.0299465
0.0299683
0.0299695
0.0299797
0.0299941
0.0300143
0.0300279
0.0300343
0.0300687
0.0300761
0.0300841
0.0300558
0.0300629
0.0300496
0.0300546
0.0300639
0.0300804
0.0300941
0.0301036
0.0301195
0.0301388
0.0301577
0.0301813
0.0302054
0.0302368
0.0302742
0.0303116
0.03038
0.0305029
0.0305602
0.0305529
0.030581
0.0306288
0.0306946
0.03077
0.0308504
0.0309397
0.0310408
0.0311539
0.0312791
0.0314176
0.0315691
0.0317338
0.0319115
0.0321046
0.0323126
0.0325371
0.0327793
0.0330434
0.0333311
0.0336469
0.0339941
0.0343797
0.034808
0.0352904
0.035838
0.0364618
0.0371864
0.0380288
0.0390308
0.0402187
0.0416393
0.0433501
0.0453516
0.0477647
0.0504288
0.0536708
0.0570016
0.0613015
0.0303783
0.0303842
0.0304143
0.030427
0.0304223
0.0304399
0.0304612
0.0304865
0.0304982
0.0305446
0.0305539
0.030565
0.0305651
0.0305982
0.0305666
0.0305995
0.030579
0.030579
0.0305941
0.0306206
0.0306502
0.0306867
0.0307215
0.0307669
0.0308099
0.0308642
0.0309194
0.0309848
0.0310753
0.0311475
0.0312439
0.0313454
0.0314054
0.0315887
0.031666
0.0316316
0.031643
0.0317067
0.0318043
0.0319261
0.0320677
0.0322265
0.032402
0.0325936
0.0328033
0.0330312
0.0332789
0.0335484
0.0338431
0.0341657
0.0345213
0.0349132
0.03535
0.0358362
0.0363864
0.0370101
0.0377285
0.0385613
0.0395365
0.0406919
0.0420552
0.0436774
0.045583
0.0477917
0.0503733
0.0532068
0.0566136
0.0600829
0.0646371
0.030905
0.0309121
0.0309151
0.0309051
0.0309094
0.0309379
0.0309945
0.0310149
0.0310035
0.0310115
0.03104
0.0310681
0.0311155
0.0311999
0.0312285
0.0312619
0.0312802
0.0313051
0.0313174
0.0312748
0.0312609
0.0312819
0.0313154
0.0313621
0.0314102
0.0314647
0.0315215
0.0315809
0.0316501
0.0317141
0.0317873
0.0318618
0.0319339
0.0320159
0.0320987
0.0321832
0.0322789
0.0323904
0.0325183
0.0326626
0.032823
0.033
0.0331941
0.0334063
0.0336383
0.0338915
0.0341673
0.0344681
0.0347978
0.0351594
0.0355591
0.0360009
0.0364953
0.0370482
0.0376776
0.0383933
0.0392233
0.0401847
0.0413135
0.042639
0.0441899
0.0460074
0.0480947
0.0504932
0.0532203
0.0562355
0.0598039
0.0634515
0.0683384
0.0315277
0.0315165
0.0315103
0.031508
0.0315153
0.031521
0.0316002
0.0316317
0.0316599
0.0316727
0.0316461
0.0316424
0.0316736
0.0317253
0.0317645
0.0318243
0.0318844
0.0319128
0.0320316
0.032075
0.0321157
0.0320723
0.0320835
0.0320764
0.0321032
0.032149
0.032205
0.0322667
0.0323341
0.0324046
0.0324802
0.0325609
0.0326472
0.0327409
0.032843
0.032955
0.0330784
0.0332147
0.033365
0.0335302
0.0337111
0.0339091
0.0341252
0.0343613
0.034619
0.0349011
0.0352088
0.035545
0.0359141
0.0363203
0.0367708
0.0372712
0.0378341
0.0384672
0.039192
0.0400187
0.0409809
0.0420904
0.0433901
0.0448924
0.0466324
0.0486305
0.0508905
0.0534678
0.0563394
0.0595745
0.0633161
0.0672426
0.0725855
0.0321997
0.0322204
0.0322501
0.0322617
0.032311
0.0323236
0.0323109
0.0323168
0.0323611
0.0324423
0.0324268
0.0324535
0.0324513
0.0324743
0.0325052
0.0325439
0.0325962
0.0326408
0.0327005
0.032797
0.0328599
0.0329324
0.0329791
0.0331158
0.0330756
0.0331593
0.0331294
0.0331476
0.0331949
0.0332601
0.0333385
0.0334278
0.033527
0.0336362
0.0337558
0.0338867
0.0340297
0.034186
0.0343565
0.0345424
0.0347451
0.0349661
0.035207
0.0354701
0.0357573
0.0360724
0.0364167
0.0367942
0.03721
0.0376698
0.038182
0.0387546
0.0394018
0.0401337
0.040974
0.0419328
0.043046
0.0443179
0.0457957
0.0474711
0.0493949
0.0515576
0.0539942
0.056749
0.059797
0.0633116
0.0672573
0.071663
0.0775099
0.0330285
0.0330331
0.0330578
0.033097
0.0331388
0.0331807
0.0332551
0.0332425
0.0332388
0.0332522
0.0332623
0.0332829
0.0333054
0.0333425
0.033378
0.0334315
0.0334787
0.0335533
0.0336133
0.0337166
0.0337861
0.0339323
0.0340074
0.0342084
0.0342869
0.0343664
0.034263
0.0344355
0.0343524
0.0343396
0.0343865
0.0344681
0.0345719
0.0346923
0.0348268
0.0349749
0.0351367
0.0353129
0.0355046
0.0357131
0.03594
0.0361872
0.0364566
0.036751
0.0370732
0.037427
0.0378161
0.0382443
0.0387183
0.0392452
0.0398351
0.040498
0.0412494
0.0421009
0.0430762
0.0441841
0.0454593
0.046898
0.0485514
0.0503921
0.0524972
0.0548204
0.0574616
0.0604104
0.0637148
0.0675785
0.0718207
0.0769927
0.0832829
0.0340719
0.0340506
0.0340854
0.0340694
0.0340764
0.0341036
0.034143
0.0341726
0.0341994
0.0342283
0.0342588
0.0342977
0.0343374
0.0343906
0.0344399
0.0345106
0.0345703
0.0346644
0.0347373
0.0348633
0.0349507
0.0351192
0.0352117
0.0354501
0.0355501
0.0356467
0.0355142
0.0357222
0.0356055
0.0355689
0.0356041
0.0356832
0.0357922
0.0359232
0.0360723
0.0362378
0.0364192
0.0366171
0.0368325
0.0370668
0.0373219
0.0376
0.037904
0.0382366
0.0386022
0.0390046
0.0394503
0.0399432
0.0404912
0.0411031
0.04179
0.0425632
0.0434382
0.0444267
0.0455499
0.046815
0.0482535
0.049857
0.0516821
0.0536889
0.0559886
0.0584927
0.0613975
0.0645825
0.0682825
0.072563
0.0773248
0.0835514
0.0902915
0.0352025
0.035231
0.0352474
0.0353513
0.0353869
0.0353696
0.0353678
0.0353775
0.0353954
0.0354217
0.0354544
0.0354973
0.0355441
0.0356042
0.0356622
0.0357385
0.035811
0.0359128
0.0360008
0.0361309
0.0362331
0.0363984
0.036513
0.0367252
0.0368325
0.037114
0.0372109
0.0373084
0.0371353
0.0373409
0.037216
0.0371928
0.0372609
0.0373819
0.037537
0.0377171
0.0379185
0.0381402
0.0383827
0.0386474
0.0389366
0.0392529
0.0395998
0.0399812
0.0404019
0.0408673
0.0413842
0.0419592
0.0425997
0.0433155
0.0441178
0.0450177
0.0460293
0.0471636
0.0484389
0.0498619
0.0514627
0.0532339
0.0552402
0.0574355
0.0599705
0.0627084
0.0659716
0.0694706
0.0737714
0.0785426
0.08426
0.0917097
0.0993459
0.0365312
0.0365724
0.0366073
0.0366587
0.036704
0.0367352
0.0367609
0.0367865
0.0368151
0.0368486
0.0368874
0.0369338
0.036985
0.0370465
0.0371076
0.0371849
0.0372516
0.0373485
0.0374395
0.0375576
0.0377484
0.0379137
0.0381919
0.0382128
0.0382589
0.0383074
0.0383516
0.0384257
0.0384941
0.0385948
0.038691
0.0388024
0.0389377
0.0390969
0.0392788
0.0394819
0.0397066
0.0399543
0.0402269
0.0405268
0.0408568
0.0412202
0.041621
0.042064
0.0425544
0.0430987
0.0437034
0.0443768
0.045126
0.0459598
0.0468887
0.0479234
0.0490763
0.0503586
0.0517877
0.0533736
0.0551476
0.0571092
0.0593325
0.0617698
0.0646158
0.0676764
0.0714374
0.0753767
0.0805587
0.0859476
0.0933269
0.101963
0.112304
0.0381571
0.0382033
0.0382463
0.0382925
0.0383395
0.0383837
0.0384253
0.0384658
0.0385079
0.0385526
0.0386019
0.0386555
0.0387151
0.0387798
0.0388504
0.0389265
0.0390079
0.0390973
0.0391954
0.0393048
0.0394432
0.0395885
0.0397568
0.0399045
0.0400687
0.0402393
0.0403831
0.0405874
0.0409721
0.0411377
0.0410889
0.0411151
0.0412149
0.0413538
0.0415261
0.041712
0.0419279
0.0421811
0.0424739
0.0428071
0.0431821
0.0436009
0.044067
0.0445844
0.0451584
0.0457947
0.0465001
0.0472817
0.0481475
0.0491056
0.0501652
0.0513375
0.0526357
0.0540737
0.055671
0.0574442
0.0594286
0.0616336
0.0641438
0.0669121
0.0701857
0.0736987
0.078162
0.0827309
0.0891833
0.0954675
0.105441
0.115439
0.131623
0.0401435
0.0401975
0.040249
0.0403013
0.040354
0.0404066
0.0404587
0.0405108
0.0405641
0.0406196
0.0406788
0.0407418
0.0408099
0.0408829
0.0409617
0.0410466
0.0411378
0.0412381
0.0413444
0.041463
0.0415932
0.0417402
0.0418999
0.0420686
0.0422552
0.0424455
0.0426717
0.0428674
0.0431508
0.0434348
0.0436643
0.0438982
0.044394
0.0446278
0.0448147
0.0446925
0.0447458
0.0449389
0.0452286
0.045592
0.0460179
0.046502
0.047044
0.0476461
0.0483122
0.0490476
0.0498585
0.0507521
0.0517366
0.0528216
0.0540184
0.0553401
0.0568028
0.0584255
0.0602323
0.062248
0.0645131
0.0670497
0.0699536
0.0731839
0.0770525
0.0812034
0.0866782
0.0921498
0.100472
0.108171
0.121943
0.134624
0.158668
0.0425837
0.0426477
0.0427103
0.0427734
0.0428366
0.0428999
0.0429634
0.0430275
0.0430928
0.04316
0.0432301
0.043304
0.0433823
0.0434658
0.043555
0.0436504
0.0437513
0.0438604
0.0439761
0.0441024
0.0442377
0.0443852
0.0445447
0.0447119
0.0448948
0.0450801
0.0452831
0.045484
0.0457024
0.0459324
0.046155
0.0463855
0.0466373
0.0468856
0.0471437
0.0474111
0.0477158
0.0480695
0.0484756
0.0489353
0.0494495
0.0500201
0.0506501
0.0513436
0.0521057
0.0529429
0.0538627
0.0548742
0.055988
0.0572169
0.0585757
0.060082
0.0617568
0.0636245
0.0657148
0.0680618
0.0707135
0.0737095
0.0771586
0.0810393
0.0857426
0.090813
0.0977796
0.104562
0.115765
0.125691
0.145391
0.162723
0.201275
0.0456139
0.045691
0.0457675
0.045845
0.0459228
0.0460009
0.0460795
0.0461591
0.04624
0.0463228
0.0464081
0.0464971
0.0465892
0.0466854
0.0467863
0.046893
0.0470058
0.0471261
0.0472538
0.0473906
0.0475363
0.047692
0.0478583
0.0480338
0.0482209
0.0484164
0.0486234
0.0488395
0.0490677
0.0493092
0.0495634
0.0498334
0.0501232
0.0504351
0.0507734
0.0511427
0.0515487
0.0519962
0.0524893
0.053032
0.053628
0.0542819
0.0549989
0.0557854
0.0566489
0.0575982
0.058644
0.0597983
0.0610756
0.0624925
0.0640683
0.0658256
0.0677907
0.0699953
0.072477
0.0752824
0.0784702
0.0821063
0.0863171
0.0911315
0.0970274
0.103487
0.112692
0.121477
0.137262
0.150878
0.180121
0.205527
0.261636
0.0494305
0.0495274
0.0496238
0.0497215
0.0498196
0.0499182
0.0500179
0.050118
0.0502188
0.0503207
0.0504244
0.0505307
0.0506402
0.0507538
0.050872
0.0509957
0.0511257
0.0512628
0.0514077
0.0515612
0.0517238
0.0518964
0.0520795
0.0522733
0.0524788
0.052696
0.0529261
0.0531698
0.0534285
0.0537042
0.0539985
0.0543141
0.0546537
0.0550205
0.055418
0.0558501
0.0563211
0.0568354
0.0573978
0.0580136
0.0586887
0.0594298
0.0602449
0.0611429
0.0621344
0.0632312
0.0644473
0.0657984
0.0673027
0.068981
0.0708577
0.0729615
0.0753264
0.0779944
0.0810155
0.0844561
0.0883961
0.0929432
0.0982495
0.104454
0.112111
0.120802
0.133394
0.145511
0.168779
0.188759
0.233611
0.271192
0.354104
0.0543252
0.0544508
0.054574
0.0546974
0.0548201
0.0549421
0.0550643
0.0551869
0.0553103
0.0554349
0.0555609
0.0556892
0.0558202
0.0559547
0.0560934
0.056237
0.0563865
0.0565425
0.0567058
0.0568773
0.0570577
0.0572479
0.0574487
0.0576609
0.0578853
0.058123
0.0583752
0.0586431
0.0589286
0.0592336
0.0595605
0.0599119
0.0602911
0.0607015
0.0611473
0.0616331
0.0621641
0.0627459
0.0633852
0.0640892
0.0648662
0.0657253
0.0666772
0.0677335
0.0689077
0.0702149
0.0716724
0.0732999
0.0751202
0.0771601
0.0794509
0.0820313
0.0849474
0.0882587
0.092037
0.0963815
0.10141
0.107296
0.114257
0.122625
0.133018
0.145478
0.163215
0.18163
0.21704
0.247417
0.317811
0.372235
0.521316
0.0606739
0.0608299
0.0609821
0.0611328
0.0612813
0.0614278
0.061573
0.0617175
0.0618616
0.0620059
0.0621508
0.0622969
0.0624447
0.062595
0.0627484
0.0629056
0.0630676
0.0632351
0.0634091
0.0635905
0.0637803
0.0639797
0.0641897
0.0644118
0.0646471
0.0648974
0.0651643
0.0654499
0.0657565
0.0660869
0.0664442
0.0668319
0.0672543
0.0677159
0.0682222
0.068779
0.0693931
0.070072
0.0708242
0.0716591
0.0725871
0.07362
0.0747709
0.0760546
0.0774879
0.0790897
0.0808822
0.0828908
0.0851458
0.0876835
0.0905479
0.0937943
0.0974902
0.101726
0.106611
0.112304
0.118987
0.126945
0.136566
0.148451
0.163367
0.182379
0.208427
0.23945
0.292495
0.341711
0.446434
0.526364
0.691675
0.0688899
0.0690743
0.069252
0.0694255
0.069594
0.0697582
0.0699188
0.0700766
0.0702322
0.0703864
0.0705397
0.0706928
0.0708465
0.0710015
0.0711586
0.0713188
0.0714831
0.0716525
0.0718283
0.0720118
0.0722044
0.0724077
0.0726235
0.0728536
0.0731001
0.0733653
0.0736519
0.0739628
0.0743013
0.0746711
0.0750764
0.075522
0.0760132
0.076556
0.0771572
0.0778242
0.0785657
0.0793909
0.0803105
0.0813361
0.0824811
0.08376
0.0851898
0.0867893
0.0885806
0.0905888
0.0928441
0.0953822
0.0982464
0.10149
0.10518
0.1094
0.114259
0.119902
0.126501
0.134327
0.143677
0.155075
0.169228
0.187098
0.210173
0.240694
0.281362
0.334286
0.41205
0.494361
0.6312
0.743174
0.921754
0.0794198
0.0796307
0.0798291
0.0800183
0.0801989
0.0803723
0.0805401
0.0807036
0.0808641
0.0810223
0.0811788
0.0813344
0.08149
0.0816465
0.0818051
0.0819672
0.0821341
0.0823073
0.0824885
0.0826794
0.0828822
0.0830989
0.0833319
0.083584
0.0838579
0.0841569
0.0844845
0.0848447
0.0852419
0.085681
0.0861675
0.0867074
0.0873072
0.0879745
0.0887181
0.0895473
0.0904731
0.0915073
0.0926634
0.0939568
0.0954045
0.0970262
0.0988446
0.100886
0.103181
0.105765
0.108685
0.111994
0.11576
0.120066
0.125022
0.130768
0.137483
0.145419
0.154853
0.16629
0.180266
0.197781
0.220251
0.248921
0.28722
0.337251
0.402341
0.488959
0.596046
0.720971
0.875009
1.01068
1.15462
0.0929464
0.0931274
0.0933092
0.093492
0.0936743
0.0938561
0.094038
0.0942204
0.094404
0.0945865
0.0947632
0.0949365
0.095109
0.0952829
0.0954601
0.0956423
0.095831
0.0960283
0.0962363
0.0964575
0.0966944
0.0969498
0.097227
0.0975293
0.0978607
0.0982254
0.098628
0.099074
0.0995692
0.10012
0.100733
0.101416
0.102177
0.103026
0.103976
0.105039
0.106228
0.107561
0.109054
0.11073
0.112613
0.114729
0.117114
0.119805
0.122852
0.12631
0.130255
0.134773
0.139979
0.146019
0.153076
0.161407
0.171321
0.183276
0.197784
0.21596
0.238638
0.267859
0.305961
0.353908
0.418873
0.498219
0.60105
0.724564
0.865601
1.02194
1.17628
1.32694
1.4442
0.110816
0.110955
0.111103
0.111257
0.111418
0.111586
0.111759
0.11194
0.112128
0.112323
0.112526
0.112737
0.112956
0.113185
0.113423
0.113665
0.113913
0.114172
0.114444
0.114732
0.11504
0.115372
0.115731
0.116124
0.116555
0.117029
0.117554
0.118137
0.118786
0.119507
0.120312
0.121211
0.122216
0.123342
0.124602
0.126014
0.127598
0.129378
0.131381
0.133638
0.136187
0.139072
0.142347
0.146078
0.150347
0.155248
0.160926
0.167513
0.17524
0.184383
0.19524
0.208405
0.224372
0.244138
0.268757
0.300353
0.339777
0.391201
0.456204
0.536183
0.640241
0.758825
0.904475
1.06363
1.23622
1.40743
1.56879
1.67815
1.76074
0.135209
0.135329
0.135461
0.135606
0.135764
0.135934
0.136116
0.136312
0.136521
0.136744
0.136983
0.137239
0.137512
0.137804
0.138116
0.138448
0.1388
0.139163
0.139542
0.139943
0.14037
0.14083
0.141328
0.141871
0.142467
0.143122
0.143847
0.14465
0.145543
0.146536
0.147644
0.148883
0.150271
0.151828
0.153575
0.15554
0.157754
0.160256
0.163089
0.166307
0.169974
0.17417
0.178993
0.18456
0.191043
0.198593
0.207552
0.218097
0.230823
0.246221
0.264774
0.288114
0.316553
0.352679
0.397634
0.455024
0.524409
0.613025
0.717587
0.842997
0.993728
1.15764
1.35225
1.54913
1.72507
1.80566
1.81998
1.84457
1.87372
0.170399
0.170545
0.170711
0.170897
0.171101
0.171324
0.171567
0.171829
0.172113
0.172418
0.172748
0.1731
0.173478
0.173883
0.174317
0.174777
0.17526
0.175769
0.176309
0.176887
0.177509
0.178182
0.178914
0.179714
0.180592
0.181557
0.182623
0.1838
0.185104
0.186557
0.188177
0.189988
0.19202
0.194307
0.19689
0.199818
0.203147
0.206946
0.2113
0.216312
0.222115
0.22887
0.236789
0.246108
0.257232
0.270401
0.286561
0.305734
0.329681
0.358969
0.394299
0.440458
0.493866
0.563147
0.644841
0.744899
0.858793
0.997627
1.1535
1.33717
1.54185
1.7812
1.92118
1.97589
1.9589
1.92896
1.86393
1.83106
1.6647
0.22615
0.226412
0.226701
0.227018
0.22736
0.227728
0.228123
0.228546
0.228998
0.229482
0.229999
0.230537
0.231102
0.231697
0.232328
0.233002
0.233722
0.234494
0.235326
0.236223
0.237195
0.238251
0.239402
0.24066
0.242038
0.243551
0.245218
0.24706
0.249103
0.251384
0.253944
0.25683
0.2601
0.263825
0.268087
0.27299
0.27866
0.285249
0.292952
0.302005
0.312723
0.325468
0.340765
0.359131
0.381567
0.408463
0.442226
0.482029
0.532588
0.593362
0.664307
0.757786
0.852554
0.981476
1.10979
1.26615
1.43128
1.64321
1.88035
2.08577
2.19019
2.18046
2.14598
2.06656
1.90551
1.6534
1.36524
1.16617
1.02359
0.330506
0.331008
0.331536
0.332096
0.332686
0.333309
0.333966
0.334659
0.335391
0.336165
0.336984
0.337852
0.338771
0.339745
0.340781
0.341885
0.343065
0.344332
0.345694
0.347163
0.348753
0.350475
0.352348
0.35439
0.356618
0.359064
0.361764
0.364771
0.368181
0.372117
0.376676
0.381981
0.388177
0.395439
0.403984
0.414073
0.426035
0.440261
0.457276
0.477651
0.502227
0.531825
0.567738
0.611117
0.663757
0.727076
0.803552
0.893522
0.9996
1.12284
1.25496
1.41925
1.56242
1.76538
1.90822
2.15765
2.39151
2.48129
2.4717
2.43968
2.36358
2.19748
1.84451
1.33485
0.906112
0.799433
0.822026
0.789655
0.725741
0.574827
0.575809
0.576839
0.577924
0.579062
0.580255
0.581501
0.582807
0.584173
0.585608
0.587109
0.588691
0.590352
0.592103
0.593957
0.595923
0.598023
0.600272
0.602689
0.605292
0.608103
0.611138
0.614442
0.618036
0.621947
0.626441
0.631563
0.637894
0.645782
0.65546
0.667238
0.681483
0.698624
0.719174
0.743739
0.773046
0.807965
0.849477
0.898861
0.957252
1.0265
1.10766
1.20286
1.31346
1.43913
1.58445
1.73924
1.91804
2.09323
2.2904
2.47206
2.65858
2.82087
2.96536
3.06737
3.0015
2.87034
2.69787
2.51397
2.15093
1.62032
1.21212
0.824387
0.628771
0.575501
0.590218
0.61082
0.614764
0.586252
1.48017
1.48197
1.48383
1.48579
1.48788
1.49006
1.49227
1.4946
1.49695
1.49947
1.50194
1.50468
1.50729
1.51004
1.51288
1.5158
1.51896
1.52239
1.52619
1.5303
1.53481
1.53949
1.5451
1.55025
1.55826
1.57354
1.59669
1.62769
1.66675
1.71435
1.77096
1.83711
1.91334
2.00021
2.0983
2.20804
2.32991
2.464
2.61051
2.76885
2.93862
3.11788
3.30509
3.49681
3.68826
3.87637
4.04838
4.20759
4.32453
4.41727
4.43472
4.38562
4.26528
4.02339
3.55163
2.9001
2.25897
1.72922
1.48155
1.41883
1.43289
1.42257
1.24847
1.00488
0.919324
0.880965
0.870051
0.865117
0.841159
8.65989
8.65983
8.6501
8.63943
8.63319
8.62145
8.6091
8.59772
8.5849
8.5716
8.55865
8.54737
8.53063
8.5136
8.494
8.46796
8.4415
8.41778
8.39474
8.3731
8.35014
8.32495
8.29819
8.27126
8.24396
8.2116
8.17639
8.13885
8.09949
8.05851
8.01591
7.97158
7.92533
7.8769
7.82601
7.77232
7.71545
7.65496
7.59036
7.52116
7.44672
7.36649
7.27995
7.18636
7.0856
6.97757
6.86338
6.74518
6.62877
6.52718
6.45424
6.40947
6.37405
6.33914
6.30413
6.26952
6.23519
6.20195
6.17058
6.14099
6.11284
6.08597
6.06019
6.03539
6.01182
5.98962
5.9684
5.94786
5.92927
0.0293446
0.0293569
0.0293461
0.0293355
0.0293242
0.0293043
0.0292836
0.0292675
0.0292751
0.0292731
0.0292708
0.0292662
0.029286
0.0292958
0.0292985
0.0292835
0.0293021
0.0293095
0.0293104
0.0293013
0.0293324
0.0293579
0.0293471
0.0293503
0.0293484
0.0293381
0.0293672
0.0293894
0.0294168
0.029414
0.0294227
0.0294472
0.0294727
0.029464
0.0294666
0.0294596
0.0294693
0.0294671
0.0294602
0.0294725
0.0294536
0.0294561
0.0294426
0.0294364
0.0294503
0.0294374
0.0294137
0.0293996
0.0293834
0.0293575
0.0293214
0.0293098
0.0293101
0.0293096
0.0293269
0.0293378
0.0293453
0.0293462
0.0293452
0.0296601
0.0296505
0.0296308
0.0296135
0.029594
0.0295744
0.02956
0.0295521
0.0295521
0.0295466
0.0295391
0.0295372
0.0295352
0.0295363
0.0295295
0.0295232
0.0295369
0.029539
0.0295396
0.0295413
0.0295726
0.0295858
0.029574
0.0295801
0.0295714
0.0295665
0.0295973
0.0296241
0.0296417
0.0296401
0.0296575
0.0296799
0.0297035
0.0296986
0.0297068
0.0297007
0.0297116
0.0297119
0.0297067
0.0297173
0.0297085
0.0297118
0.0297084
0.0297039
0.0297115
0.0297122
0.0297011
0.0296767
0.0296762
0.0296632
0.0296367
0.0295984
0.0295992
0.0295953
0.0295897
0.0296073
0.0296083
0.0296289
0.0296344
0.029995
0.02998
0.029958
0.0299402
0.0299216
0.0299064
0.0298948
0.0298858
0.0298776
0.0298662
0.0298558
0.0298475
0.0298357
0.0298246
0.0298115
0.0298139
0.0298152
0.0298161
0.0298174
0.0298378
0.0298569
0.0298593
0.0298506
0.0298544
0.0298432
0.0298441
0.0298756
0.0299048
0.0299159
0.0299165
0.0299401
0.0299609
0.0299836
0.0299833
0.0299943
0.0299967
0.0299964
0.0300079
0.0300033
0.0300178
0.0300171
0.0300196
0.030016
0.0300215
0.0300207
0.0300368
0.0300394
0.0300317
0.0300094
0.0300071
0.0299962
0.0299682
0.0299463
0.0299432
0.0299341
0.0299342
0.0299354
0.0299583
0.0299545
0.0303805
0.0303655
0.0303442
0.0303272
0.0303097
0.0302943
0.0302795
0.0302643
0.030248
0.0302304
0.0302136
0.0301966
0.0301787
0.030165
0.0301558
0.0301533
0.0301594
0.0301571
0.0301636
0.0301799
0.0301936
0.0301911
0.0301812
0.0301823
0.0301694
0.0301768
0.0302082
0.030238
0.0302453
0.0302484
0.030276
0.0302961
0.0303185
0.0303234
0.0303374
0.0303408
0.0303511
0.0303521
0.0303528
0.0303673
0.0303809
0.0303757
0.0303788
0.0303943
0.0303894
0.0304005
0.0304087
0.0304294
0.0304286
0.0304281
0.03041
0.0303852
0.030384
0.0303767
0.0303752
0.0303638
0.0303574
0.0303548
0.0303732
0.0308327
0.0308174
0.0307951
0.0307764
0.0307559
0.0307359
0.0307146
0.0306924
0.0306694
0.0306463
0.0306244
0.0306038
0.0305866
0.0305757
0.0305699
0.0305676
0.0305645
0.030564
0.0305671
0.0305808
0.0305877
0.0305847
0.030573
0.0305715
0.0305582
0.0305729
0.0306032
0.0306325
0.0306383
0.030644
0.0306741
0.0306948
0.0307178
0.0307277
0.030744
0.0307557
0.0307606
0.0307769
0.0307745
0.0307865
0.0308046
0.0308151
0.0308129
0.0308252
0.0308313
0.0308393
0.0308486
0.0308761
0.0309036
0.0309073
0.0308967
0.0309091
0.0309107
0.030912
0.0309091
0.0309023
0.0308997
0.0308979
0.0308977
0.0313585
0.0313407
0.0313148
0.0312916
0.031266
0.0312402
0.0312132
0.0311859
0.031159
0.0311334
0.0311102
0.0310905
0.0310756
0.0310655
0.0310578
0.0310509
0.0310445
0.0310446
0.0310472
0.0310535
0.0310594
0.0310503
0.0310377
0.0310339
0.0310237
0.0310423
0.031072
0.031101
0.0311067
0.0311153
0.0311473
0.0311696
0.0311936
0.0312083
0.0312275
0.0312442
0.0312569
0.0312659
0.0312756
0.0312878
0.0313055
0.0313383
0.0313285
0.0313379
0.031349
0.031363
0.031374
0.0313933
0.0314384
0.0314553
0.031484
0.0314673
0.0314838
0.0314727
0.0314648
0.0314906
0.031491
0.0314947
0.0314977
0.0319674
0.031946
0.0319155
0.0318877
0.0318576
0.0318275
0.0317971
0.0317675
0.0317394
0.0317136
0.031691
0.0316721
0.0316571
0.0316446
0.0316334
0.0316238
0.0316182
0.0316194
0.0316212
0.0316233
0.031618
0.0316024
0.0315897
0.0315845
0.0315795
0.0316001
0.0316296
0.0316582
0.0316652
0.0316768
0.0317106
0.0317354
0.0317609
0.0317804
0.0318031
0.0318248
0.0318417
0.0318682
0.0318662
0.0318853
0.0319039
0.0319353
0.0319648
0.0319589
0.0319643
0.0319821
0.0319993
0.0320191
0.0320542
0.0320794
0.0321031
0.0321198
0.0321433
0.0321775
0.0321597
0.032181
0.0321663
0.032165
0.0321752
0.0326798
0.0326551
0.0326207
0.0325894
0.0325563
0.0325238
0.0324918
0.0324612
0.0324326
0.0324067
0.0323837
0.0323637
0.0323463
0.0323309
0.0323176
0.032308
0.0323034
0.032303
0.0322999
0.032293
0.0322783
0.0322588
0.0322466
0.0322413
0.0322426
0.0322644
0.032294
0.032322
0.0323311
0.0323461
0.0323818
0.0324098
0.0324376
0.0324618
0.0324889
0.0325158
0.0325388
0.0325654
0.0325949
0.0325957
0.0326181
0.032647
0.0326879
0.0327206
0.0327168
0.0327291
0.0327477
0.0327701
0.0327996
0.0328284
0.0328573
0.0328771
0.0329142
0.0329502
0.03296
0.0330121
0.0330259
0.0330386
0.0330454
0.0335245
0.0334974
0.03346
0.0334261
0.0333908
0.0333565
0.0333229
0.0332911
0.0332613
0.0332338
0.0332089
0.0331865
0.0331666
0.0331492
0.033135
0.0331249
0.0331183
0.033112
0.0331005
0.0330839
0.0330625
0.0330417
0.0330304
0.0330268
0.0330328
0.0330565
0.0330866
0.0331143
0.0331262
0.033145
0.0331829
0.0332149
0.0332458
0.0332749
0.033307
0.0333397
0.0333703
0.0334008
0.0334327
0.0334652
0.0334761
0.0335028
0.0335329
0.0336197
0.0336223
0.0336296
0.0336442
0.0336654
0.0336943
0.0337237
0.0337591
0.033786
0.0338239
0.0338613
0.0339006
0.0339387
0.0339633
0.0340048
0.0340207
0.0345357
0.0345066
0.0344663
0.0344299
0.0343921
0.0343555
0.0343197
0.0342855
0.0342532
0.0342232
0.0341954
0.0341702
0.0341477
0.0341281
0.0341118
0.0340981
0.0340852
0.0340697
0.0340488
0.0340243
0.0339988
0.0339784
0.0339686
0.0339681
0.0339782
0.0340037
0.0340343
0.0340621
0.0340775
0.0341006
0.0341413
0.0341781
0.0342131
0.0342477
0.0342854
0.0343247
0.0343635
0.0344015
0.034438
0.0344786
0.034516
0.0345418
0.0345653
0.0346289
0.0346778
0.0347077
0.0347295
0.0347511
0.034778
0.0348074
0.0348432
0.0348782
0.0349163
0.0349551
0.0349909
0.0350278
0.0350616
0.0351051
0.0351529
0.0357528
0.0357216
0.0356782
0.0356385
0.0355976
0.0355576
0.0355184
0.0354808
0.0354449
0.035411
0.0353795
0.0353506
0.0353241
0.0353003
0.0352784
0.0352574
0.0352351
0.0352094
0.03518
0.0351499
0.0351228
0.0351037
0.0350957
0.0350996
0.0351127
0.0351397
0.0351712
0.0351997
0.0352193
0.0352473
0.0352915
0.035334
0.0353744
0.0354152
0.0354595
0.0355061
0.0355537
0.0356011
0.0356468
0.0356926
0.0357435
0.0357888
0.0358222
0.0358663
0.0359238
0.0359756
0.0360171
0.0360509
0.0360837
0.0361161
0.0361541
0.0361916
0.036233
0.0362774
0.0363204
0.0363613
0.0364011
0.0364363
0.0364851
0.0372246
0.0371908
0.0371435
0.0370997
0.0370544
0.0370098
0.0369658
0.0369231
0.036882
0.0368427
0.0368055
0.0367704
0.0367373
0.0367058
0.0366751
0.0366439
0.036611
0.0365759
0.0365398
0.0365063
0.0364789
0.0364615
0.0364564
0.0364621
0.0364792
0.0365079
0.0365405
0.0365705
0.0365949
0.0366285
0.0366774
0.0367266
0.0367738
0.0368219
0.0368739
0.0369292
0.0369865
0.0370445
0.0371018
0.0371577
0.0372166
0.0372766
0.0373323
0.0373811
0.0374379
0.0374983
0.0375559
0.0376068
0.0376534
0.0376959
0.0377398
0.0377826
0.0378274
0.0378753
0.0379244
0.0379717
0.0380187
0.0380565
0.0381099
0.039014
0.0389766
0.0389243
0.0388748
0.0388236
0.0387724
0.0387215
0.0386715
0.0386226
0.0385752
0.0385293
0.038485
0.0384419
0.0383996
0.0383575
0.0383149
0.0382716
0.0382283
0.0381871
0.0381514
0.0381242
0.0381083
0.0381059
0.0381138
0.0381335
0.0381637
0.0381977
0.0382302
0.0382601
0.0383002
0.038355
0.0384124
0.038468
0.038525
0.0385862
0.0386516
0.0387202
0.0387904
0.038861
0.0389307
0.0390012
0.039072
0.0391464
0.0392144
0.0392811
0.0393493
0.0394183
0.0394847
0.0395477
0.0396059
0.0396617
0.0397149
0.0397675
0.0398207
0.039875
0.0399282
0.0399822
0.040027
0.04009
0.041206
0.0411631
0.0411042
0.0410468
0.040987
0.0409265
0.0408656
0.0408049
0.0407449
0.0406857
0.0406275
0.0405703
0.0405141
0.0404585
0.0404034
0.0403489
0.0402955
0.0402447
0.0401989
0.0401609
0.0401332
0.0401182
0.0401176
0.0401271
0.0401486
0.04018
0.0402157
0.0402514
0.0402878
0.0403354
0.0403976
0.0404647
0.0405309
0.0405989
0.0406715
0.040749
0.0408308
0.0409155
0.0410016
0.0410878
0.0411749
0.04126
0.0413495
0.041438
0.0415233
0.0416068
0.0416898
0.0417717
0.0418517
0.0419282
0.0420011
0.0420704
0.0421369
0.0422016
0.0422655
0.0423279
0.0423909
0.0424457
0.0425216
0.0439273
0.0438754
0.0438066
0.0437374
0.0436649
0.0435905
0.0435148
0.0434386
0.0433623
0.0432865
0.0432112
0.0431369
0.0430637
0.0429917
0.0429214
0.0428534
0.0427888
0.0427294
0.0426774
0.0426354
0.0426055
0.0425893
0.0425888
0.0425988
0.042621
0.0426533
0.042691
0.0427308
0.0427745
0.0428309
0.0429025
0.042981
0.0430606
0.0431424
0.0432293
0.0433219
0.0434198
0.0435218
0.0436266
0.0437326
0.0438403
0.0439462
0.044054
0.0441631
0.0442709
0.0443764
0.0444799
0.0445819
0.0446821
0.0447797
0.0448741
0.0449647
0.0450517
0.0451355
0.0452168
0.0452958
0.0453744
0.0454455
0.0455398
0.0473929
0.047324
0.0472382
0.0471491
0.0470553
0.0469579
0.046858
0.0467568
0.046655
0.0465533
0.0464525
0.0463531
0.0462557
0.046161
0.0460697
0.0459831
0.0459025
0.0458299
0.0457673
0.0457169
0.0456804
0.0456595
0.0456557
0.0456639
0.0456852
0.0457174
0.0457569
0.0458012
0.0458532
0.04592
0.0460031
0.0460956
0.0461924
0.0462919
0.046397
0.046509
0.0466274
0.0467513
0.0468795
0.0470102
0.0471437
0.047277
0.0474108
0.0475458
0.0476809
0.0478146
0.0479464
0.0480762
0.0482038
0.048329
0.0484513
0.0485703
0.0486856
0.0487974
0.0489061
0.049012
0.0491168
0.0492151
0.0493375
0.0520007
0.0518975
0.0517801
0.0516545
0.0515209
0.0513807
0.051236
0.0510884
0.0509394
0.0507905
0.0506429
0.0504982
0.0503574
0.0502219
0.0500931
0.0499725
0.0498618
0.0497629
0.0496777
0.0496081
0.0495556
0.0495215
0.0495067
0.0495104
0.049528
0.0495576
0.0495975
0.0496461
0.0497071
0.049786
0.0498837
0.0499939
0.0501124
0.0502357
0.0503657
0.0505036
0.0506496
0.0508029
0.0509624
0.0511264
0.0512945
0.0514646
0.0516359
0.0518082
0.0519812
0.0521539
0.0523253
0.0524949
0.0526624
0.0528274
0.0529896
0.0531486
0.0533044
0.053457
0.0536066
0.0537538
0.0538997
0.0540408
0.0542039
0.0584976
0.0582989
0.0581013
0.0579093
0.0577073
0.057492
0.0572667
0.0570343
0.056798
0.056561
0.0563268
0.0560959
0.0558706
0.0556534
0.0554469
0.0552533
0.0550752
0.0549148
0.0547743
0.0546556
0.0545603
0.0544897
0.054445
0.0544278
0.0544316
0.0544494
0.0544822
0.0545305
0.0545985
0.0546904
0.0548061
0.0549396