/*--------------------------------*- C++ -*----------------------------------*\
| =========                 |                                                 |
| \\      /  F ield         | OpenFOAM: The Open Source CFD Toolbox           |
|  \\    /   O peration     | Version:  2312                                  |
|   \\  /    A nd           | Website:  www.openfoam.com                      |
|    \\/     M anipulation  |                                                 |
\*---------------------------------------------------------------------------*/
FoamFile
{
    version     2.0;
    format      ascii;
    arch        "LSB;label=32;scalar=64";
    class       volScalarField;
    location    "500";
    object      p;
}
// * * * * * * * * * * * * * * * * * * * * * * * * * * * * * * * * * * * * * //

dimensions      [0 2 -2 0 0 0 0];

internalField   nonuniform List<scalar> 
76025
(
1.73864e-05
7.49167e-06
-2.51606e-06
-1.26206e-05
-2.26645e-05
-3.27762e-05
-4.33413e-05
-5.36141e-05
-6.4108e-05
-7.44412e-05
-8.48259e-05
-9.5272e-05
-0.000105782
-0.000116233
-0.000126744
-0.000137348
-0.000147651
-0.000158153
-0.0001685
-0.000178828
-0.000188955
-0.00019918
-0.00020917
-0.000218939
-0.000228688
-0.000238231
-0.000247711
-0.000257134
-0.00026609
-0.000275157
-0.000283549
-0.00029192
-0.000300146
-0.000308221
-0.000315817
-0.000323107
-0.000329844
-0.000336865
-0.000343497
-0.000349636
-0.000355182
-0.000360457
-0.000365927
-0.000370736
-0.000374961
-0.000378652
-0.000382242
-0.00038542
-0.000387647
-0.000389505
-0.000391039
-0.000391896
-0.000392312
-0.000392279
-0.00039155
-0.000389429
-0.000387495
-0.000384299
-0.000380551
-0.000376085
-0.000370228
-0.000363834
-0.000356288
-0.0003479
-0.000337958
-0.000325799
-0.000313861
-0.000301867
-0.000285476
1.48942e-05
4.5609e-06
-5.84378e-06
-1.6392e-05
-2.70371e-05
-3.77781e-05
-4.85586e-05
-5.93747e-05
-7.02447e-05
-8.11461e-05
-9.20889e-05
-0.000103057
-0.000114027
-0.000125004
-0.000135936
-0.000146832
-0.00015772
-0.000168542
-0.000179353
-0.000190033
-0.000200661
-0.000211158
-0.000221522
-0.000231721
-0.000241816
-0.000251791
-0.000261597
-0.000271138
-0.000280457
-0.000289604
-0.000298498
-0.000307302
-0.000315823
-0.000324002
-0.000331893
-0.000339436
-0.000346712
-0.000353761
-0.000360476
-0.00036687
-0.00037282
-0.000378461
-0.000383792
-0.000388643
-0.000393084
-0.000397096
-0.000400744
-0.000403885
-0.000406495
-0.00040869
-0.000410441
-0.000411618
-0.000412275
-0.000412388
-0.000411827
-0.000410508
-0.000408708
-0.000406049
-0.000402614
-0.000398384
-0.000393277
-0.000387412
-0.000380394
-0.000372329
-0.000363036
-0.000352462
-0.000341086
-0.000328769
-0.000314196
1.20179e-05
1.213e-06
-9.69092e-06
-2.07621e-05
-3.19413e-05
-4.31606e-05
-5.44293e-05
-6.57601e-05
-7.7144e-05
-8.85739e-05
-0.000100026
-0.00011148
-0.000122934
-0.000134372
-0.000145771
-0.000157151
-0.000168487
-0.000179769
-0.000190981
-0.000202106
-0.000213126
-0.00022402
-0.000234785
-0.000245404
-0.000255879
-0.000266193
-0.000276298
-0.000286188
-0.000295871
-0.00030534
-0.000314604
-0.000323635
-0.000332369
-0.000340801
-0.000348937
-0.000356761
-0.000364278
-0.000371496
-0.000378412
-0.000384994
-0.000391192
-0.000397023
-0.000402495
-0.000407585
-0.000412267
-0.000416521
-0.000420352
-0.00042374
-0.000426659
-0.000429107
-0.000431078
-0.000432533
-0.000433464
-0.000433849
-0.000433631
-0.000432753
-0.000431256
-0.000429052
-0.000426107
-0.000422404
-0.000417886
-0.000412531
-0.000406187
-0.000398839
-0.000390433
-0.000380939
-0.000370497
-0.000359149
-0.000345862
8.7868e-06
-2.5403e-06
-1.39786e-05
-2.55859e-05
-3.72892e-05
-4.90444e-05
-6.08534e-05
-7.27177e-05
-8.46267e-05
-9.65675e-05
-0.000108525
-0.000120486
-0.000132443
-0.000144381
-0.000156288
-0.000168157
-0.00017997
-0.000191716
-0.000203379
-0.000214944
-0.000226395
-0.000237718
-0.0002489
-0.000259924
-0.000270778
-0.00028145
-0.000291919
-0.000302175
-0.000312206
-0.000322004
-0.000331556
-0.000340843
-0.000349846
-0.000358553
-0.000366953
-0.000375037
-0.000382801
-0.000390252
-0.000397383
-0.00040417
-0.000410593
-0.000416646
-0.000422331
-0.000427632
-0.000432527
-0.000437004
-0.000441061
-0.000444685
-0.000447855
-0.000450563
-0.000452802
-0.000454552
-0.000455791
-0.000456498
-0.000456637
-0.000456173
-0.000455097
-0.000453369
-0.000450945
-0.000447795
-0.000443878
-0.000439149
-0.000433536
-0.000427012
-0.000419556
-0.000411177
-0.000401923
-0.000391898
-0.000380301
5.10346e-06
-6.77469e-06
-1.87669e-05
-3.09358e-05
-4.32021e-05
-5.55218e-05
-6.78907e-05
-8.03088e-05
-9.27676e-05
-0.000105254
-0.000117754
-0.000130256
-0.000142746
-0.000155211
-0.000167638
-0.000180014
-0.000192324
-0.000204556
-0.000216695
-0.000228725
-0.000240631
-0.000252397
-0.000264008
-0.000275448
-0.000286704
-0.000297762
-0.000308606
-0.000319223
-0.000329597
-0.00033972
-0.000349577
-0.000359158
-0.000368446
-0.000377428
-0.000386094
-0.000394432
-0.000402442
-0.000410125
-0.000417475
-0.000424477
-0.000431119
-0.000437392
-0.000443289
-0.000448801
-0.000453915
-0.000458621
-0.000462913
-0.000466781
-0.000470211
-0.000473194
-0.000475721
-0.000477778
-0.000479345
-0.000480403
-0.000480927
-0.000480891
-0.000480273
-0.000479043
-0.000477165
-0.000474607
-0.000471334
-0.000467312
-0.000462507
-0.000456903
-0.000450495
-0.00044332
-0.000435388
-0.000426841
-0.000416857
9.09543e-07
-1.15574e-05
-2.41402e-05
-3.69062e-05
-4.97703e-05
-6.26851e-05
-7.56455e-05
-8.86514e-05
-0.000101695
-0.000114761
-0.000127837
-0.000140908
-0.000153959
-0.000166975
-0.000179942
-0.000192848
-0.000205676
-0.000218415
-0.000231047
-0.000243558
-0.000255933
-0.000268156
-0.000280211
-0.000292081
-0.000303752
-0.000315209
-0.000326435
-0.000337416
-0.000348141
-0.000358596
-0.00036877
-0.000378651
-0.000388225
-0.000397481
-0.000406409
-0.000414998
-0.000423249
-0.000431164
-0.000438737
-0.000445958
-0.000452817
-0.000459305
-0.000465417
-0.000471145
-0.000476482
-0.000481419
-0.00048595
-0.000490068
-0.000493765
-0.000497032
-0.00049986
-0.000502239
-0.000504153
-0.000505586
-0.000506519
-0.00050693
-0.000506797
-0.000506093
-0.000504792
-0.000502866
-0.000500295
-0.000497056
-0.000493142
-0.00048855
-0.000483291
-0.000477421
-0.000470927
-0.000464026
-0.000455879
-3.85759e-06
-1.69486e-05
-3.01564e-05
-4.35535e-05
-5.705e-05
-7.05952e-05
-8.41831e-05
-9.78127e-05
-0.000111475
-0.000125155
-0.000138836
-0.000152504
-0.000166142
-0.000179737
-0.000193275
-0.000206739
-0.000220113
-0.000233383
-0.000246531
-0.000259542
-0.000272401
-0.000285093
-0.000297601
-0.00030991
-0.000322004
-0.000333866
-0.000345481
-0.000356835
-0.000367914
-0.000378706
-0.0003892
-0.000399384
-0.000409246
-0.000418776
-0.000427965
-0.000436805
-0.000445296
-0.000453442
-0.000461238
-0.000468677
-0.00047575
-0.000482452
-0.000488777
-0.000494722
-0.000500281
-0.00050545
-0.000510224
-0.000514598
-0.000518567
-0.000522125
-0.000525265
-0.000527978
-0.000530255
-0.000532081
-0.00053344
-0.000534316
-0.000534689
-0.000534539
-0.000533849
-0.000532603
-0.000530792
-0.000528411
-0.00052547
-0.000521979
-0.00051797
-0.0005135
-0.000508551
-0.000503403
-0.000497025
-9.29469e-06
-2.30459e-05
-3.69143e-05
-5.09779e-05
-6.51404e-05
-7.93478e-05
-9.35947e-05
-0.000107881
-0.000122197
-0.000136523
-0.000150842
-0.000165137
-0.000179392
-0.000193593
-0.000207726
-0.000221773
-0.000235718
-0.000249545
-0.000263235
-0.000276773
-0.000290141
-0.000303321
-0.000316299
-0.000329058
-0.000341582
-0.000353855
-0.000365864
-0.000377593
-0.000389029
-0.00040016
-0.000410975
-0.000421462
-0.000431612
-0.000441414
-0.00045086
-0.000459945
-0.000468673
-0.000477045
-0.000485059
-0.00049271
-0.000499992
-0.000506901
-0.000513436
-0.000519595
-0.000525374
-0.000530773
-0.000535789
-0.00054042
-0.000544664
-0.000548517
-0.000551975
-0.000555032
-0.000557681
-0.000559911
-0.00056171
-0.000563066
-0.000563966
-0.000564399
-0.000564359
-0.00056384
-0.00056285
-0.000561394
-0.000559505
-0.000557196
-0.000554533
-0.000551558
-0.000548295
-0.000545031
-0.000540639
-1.55057e-05
-2.99583e-05
-4.45282e-05
-5.92991e-05
-7.41669e-05
-8.9074e-05
-0.000104016
-0.000118993
-0.000133993
-0.000148997
-0.000163986
-0.000178941
-0.000193845
-0.000208683
-0.000223438
-0.000238093
-0.000252631
-0.000267035
-0.000281287
-0.000295369
-0.000309262
-0.000322949
-0.000336413
-0.000349634
-0.000362599
-0.000375292
-0.0003877
-0.000399808
-0.000411605
-0.000423076
-0.000434211
-0.000445
-0.000455432
-0.0004655
-0.000475197
-0.000484519
-0.000493474
-0.000502064
-0.000510287
-0.00051814
-0.000525622
-0.00053273
-0.000539466
-0.00054583
-0.000551823
-0.000557446
-0.0005627
-0.000567586
-0.000572103
-0.000576251
-0.000580028
-0.000583432
-0.000586456
-0.000589096
-0.000591345
-0.000593196
-0.000594645
-0.000595691
-0.000596337
-0.000596592
-0.000596475
-0.000596005
-0.000595232
-0.000594177
-0.000592941
-0.000591554
-0.00059015
-0.000588995
-0.000587288
-2.25994e-05
-3.77969e-05
-5.31111e-05
-6.86326e-05
-8.42512e-05
-9.99047e-05
-0.000115586
-0.000131294
-0.000147016
-0.000162731
-0.000178423
-0.00019407
-0.000209657
-0.000225165
-0.000240574
-0.000255866
-0.000271022
-0.000286024
-0.000300854
-0.000315496
-0.000329928
-0.000344133
-0.000358092
-0.000371787
-0.000385201
-0.000398319
-0.000411129
-0.000423619
-0.000435775
-0.000447584
-0.000459036
-0.00047012
-0.000480828
-0.000491153
-0.00050109
-0.000510638
-0.000519807
-0.000528601
-0.000537018
-0.00054506
-0.000552726
-0.000560019
-0.000566943
-0.0005735
-0.000579695
-0.000585532
-0.000591014
-0.000596144
-0.000600927
-0.000605363
-0.000609454
-0.0006132
-0.000616599
-0.000619652
-0.000622357
-0.000624717
-0.000626736
-0.000628421
-0.000629788
-0.000630855
-0.000631654
-0.000632216
-0.000632608
-0.000632862
-0.000633111
-0.000633391
-0.00063395
-0.000634966
-0.000636003
-3.07133e-05
-4.67002e-05
-6.28016e-05
-7.91174e-05
-9.55312e-05
-0.000111977
-0.000128444
-0.000144931
-0.000161419
-0.00017789
-0.000194323
-0.000210699
-0.000227
-0.000243207
-0.0002593
-0.000275258
-0.000291061
-0.000306688
-0.000322122
-0.000337341
-0.000352326
-0.000367058
-0.000381519
-0.00039569
-0.000409556
-0.000423103
-0.000436318
-0.000449188
-0.000461701
-0.000473843
-0.000485602
-0.00049697
-0.000507941
-0.000518508
-0.000528666
-0.000538423
-0.000547788
-0.000556765
-0.000565356
-0.000573566
-0.000581397
-0.000588855
-0.000595946
-0.000602677
-0.000609056
-0.000615088
-0.000620781
-0.00062614
-0.000631172
-0.000635882
-0.000640274
-0.000644353
-0.000648122
-0.000651587
-0.000654755
-0.000657635
-0.000660239
-0.000662585
-0.000664696
-0.000666603
-0.000668345
-0.000669971
-0.000671558
-0.000673162
-0.000674936
-0.00067696
-0.00067951
-0.000682773
-0.000686465
-4.0009e-05
-5.68363e-05
-7.37739e-05
-9.09311e-05
-0.000108185
-0.000125465
-0.000142762
-0.000160069
-0.00017737
-0.000194641
-0.00021186
-0.000229005
-0.000246059
-0.000262999
-0.000279807
-0.000296459
-0.000312935
-0.000329213
-0.000345271
-0.000361087
-0.00037664
-0.000391913
-0.000406885
-0.000421541
-0.000435864
-0.00044984
-0.000463454
-0.000476694
-0.000489547
-0.000502003
-0.000514052
-0.000525688
-0.000536905
-0.000547695
-0.000558057
-0.000567999
-0.000577535
-0.000586671
-0.000595411
-0.000603761
-0.00061173
-0.000619325
-0.000626557
-0.000633434
-0.000639968
-0.000646168
-0.000652045
-0.000657607
-0.000662865
-0.000667827
-0.000672502
-0.000676899
-0.000681029
-0.000684903
-0.000688534
-0.000691938
-0.000695136
-0.000698154
-0.000701021
-0.00070378
-0.000706479
-0.000709182
-0.000711977
-0.000714959
-0.000718293
-0.00072214
-0.000726746
-0.000732414
-0.000738448
-5.06825e-05
-6.84063e-05
-8.62338e-05
-0.000104285
-0.00012243
-0.000140591
-0.00015876
-0.000176929
-0.000195083
-0.000213196
-0.000231242
-0.000249199
-0.000267045
-0.000284757
-0.000302314
-0.000319692
-0.000336869
-0.000353822
-0.000370529
-0.000386966
-0.000403111
-0.000418944
-0.000434445
-0.000449595
-0.00046438
-0.000478781
-0.000492786
-0.000506382
-0.000519556
-0.000532302
-0.000544613
-0.000556484
-0.00056791
-0.000578885
-0.000589415
-0.000599513
-0.000609189
-0.000618451
-0.000627305
-0.00063576
-0.000643829
-0.000651522
-0.000658854
-0.000665838
-0.000672487
-0.000678816
-0.000684838
-0.000690568
-0.000696019
-0.000701205
-0.000706139
-0.000710836
-0.000715311
-0.000719583
-0.00072367
-0.000727595
-0.000731385
-0.000735072
-0.000738695
-0.000742304
-0.000745956
-0.000749735
-0.000753736
-0.0007581
-0.000762999
-0.000768688
-0.000775397
-0.000783645
-0.000793057
-6.29655e-05
-8.16455e-05
-0.000100421
-0.000119425
-0.000138515
-0.000157612
-0.000176703
-0.000195783
-0.000214833
-0.000233828
-0.000252742
-0.000271549
-0.000290225
-0.000308745
-0.000327086
-0.000345222
-0.00036313
-0.000380784
-0.000398162
-0.00041524
-0.000431993
-0.000448399
-0.000464439
-0.000480092
-0.000495341
-0.000510169
-0.000524561
-0.000538505
-0.00055199
-0.000565006
-0.000577552
-0.000589622
-0.000601213
-0.00061233
-0.000622982
-0.000633184
-0.000642947
-0.000652279
-0.00066119
-0.000669693
-0.000677803
-0.000685536
-0.00069291
-0.000699942
-0.000706652
-0.000713058
-0.000719177
-0.00072503
-0.000730633
-0.000736007
-0.000741168
-0.000746138
-0.000750937
-0.000755587
-0.000760114
-0.000764545
-0.000768914
-0.000773259
-0.000777625
-0.00078207
-0.000786662
-0.000791499
-0.000796685
-0.000802399
-0.000808809
-0.000816239
-0.000824886
-0.000835508
-0.000847389
-7.71396e-05
-9.68395e-05
-0.000116624
-0.000136639
-0.000156734
-0.000176824
-0.000196893
-0.000216935
-0.000236931
-0.000256854
-0.000276678
-0.000296374
-0.000315916
-0.000335279
-0.000354436
-0.00037336
-0.000392024
-0.000410404
-0.000428472
-0.000446204
-0.000463575
-0.000480561
-0.000497141
-0.000513294
-0.000529001
-0.000544245
-0.000559011
-0.000573285
-0.000587059
-0.000600323
-0.000613073
-0.000625309
-0.00063703
-0.000648241
-0.000658958
-0.000669198
-0.000678974
-0.0006883
-0.00069719
-0.000705661
-0.000713734
-0.00072143
-0.000728771
-0.000735781
-0.000742483
-0.000748901
-0.000755058
-0.000760979
-0.000766685
-0.000772201
-0.00077755
-0.000782756
-0.000787845
-0.000792845
-0.000797785
-0.000802699
-0.000807626
-0.000812609
-0.000817699
-0.000822962
-0.000828472
-0.000834338
-0.000840668
-0.000847662
-0.000855469
-0.000864407
-0.000874602
-0.000886774
-0.000900277
-9.35681e-05
-0.000114355
-0.000135212
-0.0001563
-0.00017746
-0.000198601
-0.000219705
-0.000240764
-0.000261759
-0.000282661
-0.000303439
-0.000324067
-0.000344516
-0.000364757
-0.000384762
-0.000404502
-0.000423948
-0.000443073
-0.000461848
-0.000480247
-0.000498243
-0.000515811
-0.000532927
-0.000549569
-0.000565718
-0.000581356
-0.000596467
-0.000611038
-0.000625058
-0.000638522
-0.000651425
-0.000663766
-0.00067555
-0.000686783
-0.000697488
-0.000707683
-0.000717386
-0.000726614
-0.000735388
-0.000743733
-0.000751674
-0.00075924
-0.000766458
-0.000773359
-0.000779971
-0.000786325
-0.000792449
-0.000798371
-0.00080412
-0.000809724
-0.000815209
-0.000820606
-0.000825944
-0.000831256
-0.000836577
-0.000841945
-0.000847403
-0.000853001
-0.000858794
-0.000864854
-0.000871257
-0.000878117
-0.000885535
-0.000893705
-0.000902727
-0.000912843
-0.000924137
-0.000937266
-0.00095158
-0.000112731
-0.000134676
-0.000156671
-0.000178897
-0.000201184
-0.000223437
-0.000245634
-0.000267768
-0.000289815
-0.000311745
-0.000333528
-0.000355131
-0.000376526
-0.000397681
-0.000418566
-0.00043915
-0.0004594
-0.000479288
-0.000498782
-0.000517853
-0.000536472
-0.000554613
-0.00057225
-0.00058936
-0.00060592
-0.000621913
-0.000637321
-0.000652131
-0.000666334
-0.000679924
-0.000692897
-0.000705254
-0.000717003
-0.000728157
-0.000738743
-0.000748783
-0.000758297
-0.000767311
-0.000775853
-0.000783955
-0.000791649
-0.000798972
-0.000805959
-0.000812647
-0.000819072
-0.00082527
-0.000831276
-0.000837122
-0.000842843
-0.000848469
-0.000854034
-0.00085957
-0.000865111
-0.000870694
-0.00087636
-0.00088215
-0.000888114
-0.000894304
-0.000900782
-0.000907618
-0.000914892
-0.000922708
-0.000931147
-0.000940343
-0.000950352
-0.000961428
-0.000973696
-0.000988003
-0.00100363
-0.00013532
-0.000158499
-0.000181696
-0.00020512
-0.000228594
-0.000252015
-0.000275361
-0.000298619
-0.000321765
-0.000344768
-0.000367594
-0.000390208
-0.00041258
-0.000434674
-0.000456459
-0.000477899
-0.000498962
-0.000519612
-0.000539818
-0.000559548
-0.00057877
-0.000597455
-0.000615575
-0.000633105
-0.000650021
-0.000666303
-0.000681935
-0.000696902
-0.000711195
-0.000724809
-0.000737742
-0.000749998
-0.000761587
-0.000772533
-0.000782865
-0.000792609
-0.000801793
-0.000810449
-0.000818615
-0.000826331
-0.000833639
-0.000840584
-0.000847211
-0.000853565
-0.00085969
-0.000865629
-0.000871421
-0.000877107
-0.000882721
-0.000888302
-0.000893884
-0.000899503
-0.000905199
-0.000911012
-0.000916986
-0.000923169
-0.000929613
-0.000936376
-0.000943523
-0.000951126
-0.000959256
-0.000967978
-0.000977333
-0.000987437
-0.000998386
-0.00101049
-0.00102391
-0.00103939
-0.00105613
-0.000162305
-0.000186764
-0.000211199
-0.000235855
-0.000260548
-0.000285167
-0.000309688
-0.000334095
-0.000358362
-0.000382453
-0.000406334
-0.000429967
-0.000453318
-0.000476351
-0.000499027
-0.000521311
-0.000543165
-0.000564553
-0.000585438
-0.000605786
-0.000625562
-0.000644735
-0.000663274
-0.000681151
-0.000698342
-0.000714825
-0.000730581
-0.000745597
-0.000759862
-0.000773373
-0.000786131
-0.000798142
-0.000809424
-0.000820009
-0.000829926
-0.000839208
-0.000847892
-0.000856021
-0.000863642
-0.000870806
-0.000877568
-0.000883982
-0.000890104
-0.00089599
-0.000901691
-0.000907259
-0.000912738
-0.000918172
-0.000923601
-0.000929065
-0.000934601
-0.000940248
-0.000946049
-0.000952048
-0.000958293
-0.000964837
-0.000971738
-0.000979063
-0.000986879
-0.000995237
-0.00100418
-0.00101377
-0.00102406
-0.00103522
-0.00104735
-0.0010607
-0.0010754
-0.00109178
-0.0011093
-0.000194411
-0.000220136
-0.00024579
-0.000271662
-0.000297562
-0.000323372
-0.00034906
-0.000374605
-0.00039998
-0.000425147
-0.000450066
-0.0004747
-0.000499009
-0.000522953
-0.000546493
-0.000569588
-0.000592196
-0.000614278
-0.000635795
-0.000656707
-0.000676977
-0.000696571
-0.000715455
-0.000733599
-0.000750976
-0.000767561
-0.000783335
-0.000798282
-0.000812395
-0.000825669
-0.000838107
-0.000849721
-0.000860538
-0.000870591
-0.000879916
-0.000888555
-0.000896555
-0.00090397
-0.00091086
-0.000917289
-0.000923326
-0.000929039
-0.000934498
-0.000939768
-0.000944912
-0.00094999
-0.000955052
-0.000960146
-0.000965313
-0.000970593
-0.000976024
-0.000981646
-0.0009875
-0.000993635
-0.00100011
-0.00100698
-0.00101432
-0.00102219
-0.00103065
-0.00103976
-0.00104959
-0.00106025
-0.00107182
-0.00108435
-0.00109784
-0.00111229
-0.00112763
-0.00114377
-0.00116047
-0.000231132
-0.000258102
-0.000284948
-0.000312006
-0.000339088
-0.000366069
-0.000392908
-0.00041958
-0.000446054
-0.00047229
-0.000498245
-0.000523877
-0.000549142
-0.000573995
-0.000598394
-0.000622293
-0.000645647
-0.000668411
-0.000690541
-0.000711995
-0.000732732
-0.000752712
-0.0007719
-0.000790261
-0.000807764
-0.000824383
-0.000840095
-0.000854884
-0.00086874
-0.000881661
-0.000893651
-0.000904729
-0.000914926
-0.000924281
-0.000932837
-0.000940643
-0.000947761
-0.000954259
-0.000960213
-0.000965703
-0.000970815
-0.000975635
-0.000980248
-0.000984736
-0.000989175
-0.000993633
-0.000998169
-0.00100283
-0.00100767
-0.00101271
-0.00101798
-0.00102353
-0.00102939
-0.00103561
-0.00104225
-0.0010494
-0.00105712
-0.00106552
-0.00107472
-0.00108483
-0.00109596
-0.00110814
-0.00112129
-0.00113521
-0.00114957
-0.00116394
-0.00117773
-0.00119071
-0.00120211
-0.000270649
-0.000298918
-0.000327002
-0.000355289
-0.000383602
-0.000411804
-0.000439847
-0.000467702
-0.000495334
-0.000522699
-0.000549751
-0.000576442
-0.000602723
-0.000628547
-0.000653864
-0.000678624
-0.000702777
-0.000726275
-0.000749067
-0.000771106
-0.000792346
-0.000812743
-0.000832256
-0.000850846
-0.000868477
-0.000885119
-0.000900745
-0.000915336
-0.000928879
-0.000941373
-0.000952823
-0.000963251
-0.00097269
-0.000981183
-0.000988783
-0.000995554
-0.00100157
-0.00100693
-0.00101171
-0.00101602
-0.00101997
-0.00102367
-0.00102723
-0.00103075
-0.00103432
-0.00103802
-0.00104191
-0.00104606
-0.00105048
-0.00105522
-0.00106029
-0.00106571
-0.00107151
-0.00107774
-0.00108451
-0.00109192
-0.00110013
-0.00110931
-0.00111961
-0.00113113
-0.00114385
-0.00115762
-0.00117208
-0.00118665
-0.00120046
-0.00121239
-0.00122113
-0.00122626
-0.00122666
-0.000311232
-0.000340934
-0.000370408
-0.000400075
-0.000429764
-0.000459332
-0.000488725
-0.000517909
-0.000546843
-0.000575483
-0.000603774
-0.000631667
-0.000659106
-0.000686039
-0.000712411
-0.000738165
-0.000763247
-0.000787601
-0.000811173
-0.000833909
-0.000855758
-0.000876668
-0.00089659
-0.000915478
-0.000933288
-0.000949985
-0.000965536
-0.000979916
-0.000993111
-0.00100512
-0.00101593
-0.00102559
-0.00103413
-0.00104158
-0.00104802
-0.00105353
-0.00105819
-0.00106212
-0.00106544
-0.00106828
-0.00107078
-0.00107309
-0.00107534
-0.00107767
-0.00108019
-0.00108299
-0.00108613
-0.00108966
-0.00109358
-0.00109792
-0.00110268
-0.00110792
-0.00111367
-0.00112003
-0.00112712
-0.00113508
-0.00114407
-0.00115424
-0.00116565
-0.0011783
-0.00119206
-0.00120656
-0.00122113
-0.00123467
-0.00124566
-0.00125239
-0.0012535
-0.00124852
-0.00123938
-0.000350571
-0.000381958
-0.000413076
-0.000444373
-0.000475684
-0.000506864
-0.00053785
-0.000568605
-0.000599086
-0.00062924
-0.000659011
-0.000688342
-0.000717174
-0.000745448
-0.000773103
-0.000800077
-0.000826308
-0.000851735
-0.000876295
-0.000899928
-0.000922575
-0.000944175
-0.00096467
-0.000984005
-0.00100213
-0.00101899
-0.00103455
-0.00104878
-0.00106165
-0.00107316
-0.00108331
-0.00109212
-0.00109962
-0.00110588
-0.00111096
-0.00111496
-0.00111798
-0.00112017
-0.00112168
-0.00112268
-0.00112336
-0.00112389
-0.00112446
-0.00112525
-0.00112639
-0.00112803
-0.00113024
-0.00113308
-0.00113655
-0.00114064
-0.00114532
-0.00115064
-0.00115665
-0.00116343
-0.00117101
-0.00117943
-0.00118874
-0.00119903
-0.0012104
-0.00122284
-0.00123601
-0.00124917
-0.00126134
-0.00127114
-0.00127702
-0.00127778
-0.00127295
-0.00126248
-0.00125015
-0.000390198
-0.000423414
-0.000456438
-0.000489637
-0.000522846
-0.00055592
-0.000588792
-0.000621418
-0.000653747
-0.000685724
-0.000717284
-0.000748365
-0.0007789
-0.000808824
-0.000838067
-0.000866561
-0.000894235
-0.000921017
-0.000946835
-0.000971619
-0.000995299
-0.0010178
-0.00103907
-0.00105902
-0.0010776
-0.00109474
-0.00111038
-0.00112449
-0.001137
-0.00114792
-0.00115722
-0.00116495
-0.00117113
-0.00117583
-0.00117912
-0.00118112
-0.00118196
-0.00118182
-0.00118089
-0.00117938
-0.00117755
-0.00117565
-0.00117395
-0.0011727
-0.00117214
-0.00117247
-0.00117383
-0.00117631
-0.00117987
-0.00118437
-0.00118959
-0.00119531
-0.00120146
-0.00120806
-0.00121515
-0.00122265
-0.00123051
-0.00123884
-0.00124785
-0.00125749
-0.00126697
-0.00127536
-0.00128257
-0.00128822
-0.00129083
-0.0012891
-0.00128358
-0.00127561
-0.00126744
-0.000421938
-0.000457654
-0.00049301
-0.000528501
-0.000563984
-0.000599309
-0.000634404
-0.000669225
-0.00070372
-0.000737829
-0.000771484
-0.000804616
-0.000837154
-0.000869025
-0.000900152
-0.000930459
-0.000959867
-0.000988297
-0.00101567
-0.0010419
-0.00106691
-0.00109062
-0.00111296
-0.00113385
-0.00115321
-0.00117096
-0.00118702
-0.00120132
-0.00121381
-0.00122445
-0.00123322
-0.00124011
-0.00124516
-0.0012484
-0.00124992
-0.00124984
-0.00124833
-0.0012456
-0.00124191
-0.00123757
-0.00123293
-0.00122837
-0.00122428
-0.00122104
-0.00121897
-0.00121832
-0.00121918
-0.00122152
-0.00122515
-0.00122974
-0.00123483
-0.00123998
-0.00124495
-0.00124985
-0.00125482
-0.0012596
-0.00126353
-0.00126617
-0.00126857
-0.00127222
-0.00127681
-0.0012814
-0.00128639
-0.00129141
-0.0012942
-0.00129332
-0.00128958
-0.00128438
-0.00128108
-0.000472164
-0.000510083
-0.000548185
-0.000586446
-0.000624699
-0.000662804
-0.000700684
-0.000738286
-0.000775551
-0.000812406
-0.000848775
-0.000884577
-0.000919733
-0.000954156
-0.000987761
-0.00102046
-0.00105215
-0.00108275
-0.00111215
-0.00114026
-0.00116698
-0.00119221
-0.00121587
-0.00123782
-0.00125794
-0.00127605
-0.00129206
-0.00130589
-0.00131749
-0.00132681
-0.00133383
-0.00133854
-0.00134097
-0.00134119
-0.00133929
-0.00133543
-0.00132979
-0.00132267
-0.00131437
-0.0013053
-0.00129592
-0.00128673
-0.00127828
-0.00127113
-0.00126579
-0.00126267
-0.00126198
-0.00126363
-0.00126714
-0.00127165
-0.00127601
-0.00127905
-0.00128032
-0.00128028
-0.00127971
-0.00127904
-0.00127776
-0.00127502
-0.00127246
-0.00127308
-0.00127693
-0.00128186
-0.00128612
-0.001289
-0.00129031
-0.00129004
-0.001288
-0.00128598
-0.00128629
-0.000491241
-0.000532087
-0.000572281
-0.000612805
-0.000653409
-0.000693799
-0.000733891
-0.000773663
-0.000813069
-0.000852035
-0.000890478
-0.000928317
-0.000965463
-0.00100183
-0.00103733
-0.00107185
-0.00110531
-0.00113759
-0.0011686
-0.00119823
-0.00122639
-0.00125301
-0.00127806
-0.00130157
-0.00132347
-0.00134345
-0.00136112
-0.00137632
-0.00138898
-0.00139905
-0.00140646
-0.00141113
-0.00141302
-0.00141211
-0.00140841
-0.00140203
-0.00139314
-0.00138201
-0.00136905
-0.0013548
-0.00133996
-0.00132536
-0.00131193
-0.00130061
-0.00129225
-0.00128744
-0.00128636
-0.00128862
-0.00129316
-0.00129828
-0.0013019
-0.00130202
-0.00129804
-0.00129167
-0.00128533
-0.00128098
-0.00127924
-0.00127898
-0.00127894
-0.00127854
-0.00127851
-0.00127974
-0.00128155
-0.00128244
-0.00128205
-0.00128102
-0.00128041
-0.00128119
-0.00128338
-0.000612948
-0.000656667
-0.000701119
-0.000745616
-0.000789855
-0.000833781
-0.000877378
-0.000920608
-0.000963411
-0.00100571
-0.00104741
-0.00108842
-0.00112862
-0.00116792
-0.00120621
-0.00124337
-0.00127929
-0.00131382
-0.00134682
-0.00137814
-0.00140757
-0.00143491
-0.00145991
-0.00148227
-0.0015018
-0.00151867
-0.00153302
-0.00154477
-0.0015537
-0.0015596
-0.00156225
-0.00156148
-0.00155716
-0.00154922
-0.00153767
-0.00152262
-0.00150429
-0.00148304
-0.00145941
-0.00143409
-0.00140796
-0.00138206
-0.00135756
-0.00133563
-0.0013174
-0.00130375
-0.00129516
-0.00129158
-0.00129229
-0.00129595
-0.00130053
-0.00130387
-0.00130453
-0.0013017
-0.00129611
-0.0012895
-0.00128424
-0.00128184
-0.001281
-0.00128028
-0.00127971
-0.00127933
-0.00127872
-0.00127741
-0.0012755
-0.00127387
-0.00127366
-0.0012754
-0.00127876
0.000190681
0.00019511
0.000199766
0.000204848
0.000210323
0.00021614
0.000222391
0.000228915
0.000235803
0.000243035
0.000250545
0.000258411
0.000266325
0.000275021
0.000282947
0.000291467
0.000299154
0.000307258
0.000314878
0.000322255
0.000329801
0.000335514
0.00034103
0.00034538
0.000348842
0.000351375
0.000352297
0.000352042
0.000350623
0.000347813
0.000343155
0.0003372
0.000330069
0.000321964
0.000312117
0.000301373
0.000289825
0.000277351
0.000264213
0.000250747
0.000236821
0.000222451
0.00020843
0.000194676
0.000180131
0.000166603
0.000152741
0.000139626
0.00012684
0.000114459
0.000102689
9.13932e-05
8.07094e-05
7.04883e-05
6.09233e-05
5.13664e-05
4.2537e-05
3.41849e-05
2.63065e-05
0.000193787
0.000198378
0.000203376
0.000208735
0.000214467
0.000220582
0.000227087
0.000233937
0.000241159
0.000248742
0.000256638
0.000264837
0.000273239
0.000281882
0.00029063
0.000299337
0.000307979
0.000316423
0.000324655
0.00033238
0.000339751
0.000346362
0.00035214
0.0003569
0.000360615
0.000363181
0.000364439
0.000364255
0.000362843
0.000359883
0.000355162
0.000349134
0.000341793
0.000333071
0.000323004
0.000311822
0.000299722
0.000286795
0.000273151
0.000258975
0.000244438
0.000229647
0.00021486
0.000199977
0.00018522
0.000170752
0.000156563
0.000142817
0.000129466
0.000116553
0.000104181
9.23632e-05
8.103e-05
7.02641e-05
5.99844e-05
5.026e-05
4.1056e-05
3.23615e-05
2.41184e-05
0.00019714
0.000201948
0.000207156
0.00021277
0.000218783
0.000225196
0.000232007
0.000239207
0.000246798
0.000254761
0.000263055
0.000271638
0.000280472
0.000289514
0.00029868
0.00030795
0.000317149
0.000326155
0.000334841
0.000343072
0.000350761
0.000357786
0.000363983
0.000369122
0.000373146
0.000375909
0.000377319
0.000377287
0.000375833
0.000372791
0.000368043
0.000361823
0.000354112
0.000344987
0.000334513
0.00032288
0.000310219
0.000296714
0.00028247
0.000267667
0.000252472
0.000236964
0.000221347
0.000205792
0.00019037
0.000175238
0.000160423
0.000145999
0.000132009
0.000118492
0.000105519
9.30907e-05
8.12173e-05
6.99001e-05
5.91762e-05
4.90215e-05
3.93985e-05
3.02907e-05
2.1659e-05
0.000200347
0.000205379
0.000210833
0.00021671
0.000223011
0.00022974
0.000236894
0.000244469
0.000252453
0.000260829
0.000269563
0.000278619
0.000287954
0.000297504
0.000307179
0.000316943
0.000326631
0.000336158
0.000345363
0.000354145
0.000362345
0.000369784
0.000376369
0.000381879
0.000386222
0.000389243
0.000390824
0.000390898
0.000389431
0.000386322
0.000381472
0.000375014
0.000366964
0.00035746
0.000346537
0.000334389
0.00032115
0.000306995
0.000292074
0.000276567
0.000260634
0.000244398
0.000228057
0.000211788
0.00019564
0.000179764
0.000164221
0.000149085
0.00013442
0.000120269
0.000106676
9.36615e-05
8.12417e-05
6.94162e-05
5.81876e-05
4.754e-05
3.74545e-05
2.79116e-05
1.88807e-05
0.000203344
0.000208613
0.000214329
0.000220491
0.000227102
0.000234166
0.000241683
0.000249647
0.000258049
0.000266866
0.000276072
0.000285626
0.000295481
0.000305567
0.000315803
0.000326106
0.00033635
0.00034643
0.000356201
0.000365532
0.000374258
0.000382186
0.000389197
0.000395099
0.000399772
0.000403064
0.000404847
0.000405026
0.000403568
0.000400388
0.000395398
0.000388695
0.000380319
0.000370404
0.000359006
0.000346304
0.000332453
0.000317624
0.000301989
0.000285733
0.000269031
0.000252042
0.000234938
0.000217876
0.000200953
0.000184295
0.000167994
0.000152126
0.000136756
0.000121932
0.000107691
9.40566e-05
8.10415e-05
6.86493e-05
5.6876e-05
4.57129e-05
3.51443e-05
2.51462e-05
1.56868e-05
0.000206149
0.000211669
0.000217659
0.000224123
0.000231063
0.000238483
0.000246384
0.000254761
0.000263604
0.000272891
0.000282594
0.000292671
0.000303071
0.000313725
0.000324552
0.000335453
0.000346308
0.000356994
0.000367366
0.000377271