/*--------------------------------*- C++ -*----------------------------------*\
| =========                 |                                                 |
| \\      /  F ield         | OpenFOAM: The Open Source CFD Toolbox           |
|  \\    /   O peration     | Version:  2312                                  |
|   \\  /    A nd           | Website:  www.openfoam.com                      |
|    \\/     M anipulation  |                                                 |
\*---------------------------------------------------------------------------*/
FoamFile
{
    version     2.0;
    format      ascii;
    arch        "LSB;label=32;scalar=64";
    class       surfaceScalarField;
    location    "500";
    object      phi;
}
// * * * * * * * * * * * * * * * * * * * * * * * * * * * * * * * * * * * * * //

dimensions      [0 3 -1 0 0 0 0];

oriented        oriented;

internalField   nonuniform List<scalar> 
116611
(
0.00119817
0.000417856
-0.00118232
-0.0004337
0.00121392
0.00041396
-0.000429714
0.0012295
0.000409751
-0.000425332
0.00124491
0.000405212
-0.000420617
0.00126015
0.000400355
-0.000415596
0.00127541
0.000395152
-0.000410419
0.00129024
0.000389586
-0.000404409
0.00130506
0.000383663
-0.000398483
0.00131944
0.00037732
-0.000391706
0.00133367
0.000370571
-0.000384802
0.00134765
0.000363397
-0.00037737
0.00136142
0.000355808
-0.000369579
0.00137487
0.000347799
-0.000361246
0.00138795
0.000339307
-0.00035239
0.00140075
0.000330381
-0.000343187
0.00141304
0.00032096
-0.000333247
0.00142518
0.000311035
-0.000323169
0.00143682
0.000300647
-0.000312288
0.00144813
0.000289662
-0.000300971
0.00145894
0.000278227
-0.000289041
0.00146942
0.000266181
-0.000276659
0.00147933
0.000253607
-0.000263517
0.00148872
0.000240433
-0.000249819
0.00149772
0.000226744
-0.000235743
0.0015062
0.000212462
-0.000220946
0.0015142
0.000197558
-0.000205559
0.00152167
0.000182013
-0.000189483
0.00152846
0.000165889
-0.000172679
0.00153495
0.000149191
-0.00015568
0.0015405
0.000131833
-0.000137384
0.00154578
0.000113938
-0.000119213
0.00155033
9.52047e-05
-9.97616e-05
0.00155434
7.58663e-05
-7.9869e-05
0.00155761
5.58902e-05
-5.91588e-05
0.00156028
3.52093e-05
-3.78795e-05
0.00156214
1.39384e-05
-1.58054e-05
0.00156366
-7.97633e-06
6.45476e-06
0.00156436
-3.05863e-05
2.98944e-05
0.00156435
-5.38793e-05
5.38901e-05
0.0015634
-7.79626e-05
7.89041e-05
0.00156179
-0.000102561
0.000104174
0.00155967
-0.000127802
0.00012992
0.00155656
-0.000153747
0.000156857
0.00155263
-0.000180301
0.000184237
0.0015478
-0.000207481
0.000212313
0.00154233
-0.000235168
0.00024063
0.00153602
-0.000263479
0.000269796
0.00152858
-0.000292353
0.000299786
0.00152044
-0.000321642
0.000329789
0.00151145
-0.000351387
0.000360368
0.00150147
-0.000381599
0.000391583
0.00149072
-0.000412104
0.000422853
0.00147912
-0.000442948
0.000454554
0.00146645
-0.000474142
0.000486807
0.00145248
-0.00050554
0.000519508
0.00143813
-0.000536811
0.000551162
0.00142237
-0.000568303
0.000584069
0.00140586
-0.000599542
0.000616047
0.00138839
-0.000630517
0.000647991
0.00136982
-0.000661082
0.000679651
0.00135068
-0.000690995
0.000710134
0.00133036
-0.000720536
0.000740856
0.00130918
-0.000748991
0.000770167
0.00128692
-0.000776246
0.000798509
0.00126349
-0.00080181
0.000825234
0.00123969
-0.00082505
0.000848859
0.00121526
-0.000845748
0.000870171
0.00118866
-0.000863883
0.000890488
-0.000878262
0.00116059
0.000906328
0.00118382
0.000402097
-0.00116806
0.00119944
0.000398345
0.00121491
0.00039428
0.00123022
0.000389899
0.0012454
0.000385174
0.00126042
0.000380134
0.00127526
0.00037475
0.00128991
0.000369008
0.00130433
0.000362898
0.00131852
0.000356385
0.00133245
0.000349466
0.00134612
0.000342139
0.00135953
0.000334388
0.00137263
0.000326203
0.00138542
0.000317592
0.00139788
0.000308503
0.00140997
0.000298946
0.00142172
0.000288895
0.00143304
0.00027834
0.001444
0.000267267
0.00145451
0.000255667
0.00146459
0.000243534
0.00147417
0.000230847
0.0014833
0.000217614
0.00149196
0.000203809
0.00150011
0.000189404
0.0015077
0.000174419
0.00151475
0.000158842
0.00152128
0.000142667
0.00152722
0.000125893
0.00153267
0.000108479
0.00153747
9.0406e-05
0.00154164
7.17021e-05
0.00154517
5.23535e-05
0.00154803
3.23513e-05
0.00155026
1.17101e-05
0.00155185
-9.56984e-06
0.00155276
-3.14936e-05
0.00155298
-5.40967e-05
0.00155239
-7.73774e-05
0.00155111
-0.000101274
0.00154909
-0.000125783
0.00154626
-0.00015092
0.00154265
-0.000176688
0.00153821
-0.000203047
0.001533
-0.000229957
0.00152693
-0.000257412
0.00151999
-0.000285406
0.00151222
-0.00031387
0.00150359
-0.000342763
0.00149407
-0.000372072
0.00148369
-0.000401726
0.00147243
-0.00043169
0.00146022
-0.000461928
0.00144703
-0.000492357
0.00143303
-0.000522814
0.00141803
-0.000553293
0.00140213
-0.000583651
0.00138536
-0.000613747
0.00136775
-0.000643473
0.00134942
-0.000672661
0.00133011
-0.000701228
0.00130995
-0.000728825
0.00128884
-0.000755138
0.00126678
-0.000779753
0.00124386
-0.000802127
0.00121999
-0.000821878
0.00119478
-0.000838674
-0.000851457
0.00116797
0.00117014
0.000386436
-0.00115448
0.00118567
0.000382814
0.00120106
0.000378887
0.00121631
0.000374652
0.00123139
0.000370098
0.0012463
0.000365221
0.00126104
0.00036001
0.0012756
0.000354454
0.00128995
0.000348542
0.00130408
0.000342258
0.00131796
0.000335588
0.00133157
0.000328521
0.00134492
0.000321045
0.00135797
0.00031315
0.00137073
0.000304828
0.00138318
0.000296061
0.00139529
0.000286838
0.00140704
0.000277144
0.00141841
0.000266965
0.00142939
0.000256286
0.00143996
0.000245099
0.0014501
0.000233393
0.00145979
0.000221156
0.00146903
0.000208381
0.00147778
0.000195053
0.00148603
0.000181159
0.00149376
0.000166691
0.00150096
0.000151642
0.00150762
0.000136006
0.00151374
0.00011977
0.0015193
0.00010292
0.00152426
8.54499e-05
0.0015286
6.73532e-05
0.00153233
4.86271e-05
0.00153541
2.92682e-05
0.00153785
9.27528e-06
0.00153963
-1.13477e-05
0.00154074
-3.26066e-05
0.00154115
-5.45111e-05
0.00154083
-7.7056e-05
0.00153978
-0.000100222
0.00153799
-0.000123996
0.00153545
-0.000148379
0.00153213
-0.000173366
0.00152801
-0.000198928
0.0015231
-0.000225042
0.00151737
-0.000251688
0.00151082
-0.000278847
0.00150342
-0.000306476
0.00149519
-0.000334534
0.00148611
-0.000362991
0.00147618
-0.000391799
0.0014654
-0.000420908
0.00145374
-0.000450266
0.00144119
-0.000479803
0.00142779
-0.000509413
0.00141352
-0.000539026
0.00139841
-0.000568542
0.00138249
-0.000597831
0.00136579
-0.000626766
0.00134831
-0.000655188
0.00133
-0.00068291
0.00131081
-0.000709643
0.0012907
-0.000735028
0.00126961
-0.000758663
0.00124755
-0.000780067
0.0012245
-0.000798823
0.00120031
-0.000814488
-0.00082609
0.00117495
0.00115708
0.000370819
-0.00114146
0.00117256
0.000367331
0.0011879
0.000363547
0.00120308
0.000359467
0.0012181
0.00035508
0.00123294
0.000350377
0.00124761
0.000345349
0.00126207
0.000339985
0.00127634
0.000334276
0.00129039
0.000328211
0.0013042
0.000321776
0.00131776
0.000314961
0.00133105
0.000307754
0.00134406
0.000300144
0.00135677
0.000292117
0.00136917
0.000283661
0.00138124
0.000274762
0.00139298
0.000265411
0.00140435
0.000255593
0.00141534
0.000245296
0.00142593
0.000234509
0.0014361
0.00022322
0.00144584
0.000211418
0.00145512
0.000199093
0.00146394
0.000186234
0.00147228
0.000172828
0.0014801
0.000158863
0.00148741
0.000144331
0.00149419
0.000129226
0.00150043
0.000113534
0.0015061
9.72466e-05
0.0015112
8.03557e-05
0.0015157
6.28543e-05
0.00151958
4.47403e-05
0.00152284
2.60101e-05
0.00152546
6.65977e-06
0.00152742
-1.33114e-05
0.00152872
-3.39051e-05
0.00152933
-5.51222e-05
0.00152923
-7.69595e-05
0.00152842
-9.94079e-05
0.00152688
-0.000122457
0.0015246
-0.000146099
0.00152156
-0.000170326
0.00151775
-0.000195117
0.00151316
-0.000220453
0.00150778
-0.000246311
0.0015016
-0.000272667
0.00149461
-0.000299487
0.00148682
-0.000326736
0.0014782
-0.000354376
0.00146877
-0.000382365
0.00145851
-0.000410651
0.00144742
-0.000439182
0.00143551
-0.00046789
0.00142279
-0.000496693
0.00140927
-0.000525509
0.00139497
-0.00055424
0.00137991
-0.000582765
0.00136408
-0.00061094
0.00134748
-0.000638585
0.00133004
-0.000665474
0.00131171
-0.000691311
0.00129242
-0.000715738
0.00127212
-0.000738366
0.00125082
-0.000758763
0.00122853
-0.000776532
0.00120528
-0.000791244
-0.000802053
0.00118125
0.00114455
0.000355217
-0.00112894
0.00116001
0.00035187
0.00117532
0.000348236
0.00119047
0.000344316
0.00120545
0.000340101
0.00122025
0.000335576
0.00123486
0.000330735
0.00124928
0.00032557
0.00126348
0.000320071
0.00127746
0.000314229
0.00129121
0.00030803
0.00130471
0.000301463
0.00131794
0.000294519
0.0013309
0.000287188
0.00134356
0.000279454
0.00135592
0.000271305
0.00136795
0.000262727
0.00137965
0.000253713
0.001391
0.00024425
0.00140197
0.000234323
0.00141255
0.000223923
0.00142273
0.000213041
0.00143249
0.000201663
0.0014418
0.00018978
0.00145066
0.000177378
0.00145904
0.000164446
0.00146693
0.000150972
0.00147431
0.000136947
0.00148118
0.000122361
0.00148751
0.000107205
0.00149328
9.14696e-05
0.00149849
7.51477e-05
0.00150311
5.82327e-05
0.00150713
4.07204e-05
0.00151054
2.26061e-05
0.00151331
3.88575e-06
0.00151544
-1.54433e-05
0.00151692
-3.53809e-05
0.00151772
-5.59261e-05
0.00151784
-7.70759e-05
0.00151726
-9.88243e-05
0.00151596
-0.000121163
0.00151395
-0.000144082
0.00151119
-0.000167572
0.00150769
-0.000191616
0.00150343
-0.000216195
0.00149841
-0.000241289
0.00149261
-0.000266871
0.00148604
-0.000292913
0.00147869
-0.000319381
0.00147055
-0.000346237
0.00146162
-0.000373442
0.00145192
-0.000400946
0.00144143
-0.000428696
0.00143017
-0.000456631
0.00141815
-0.000484674
0.00140538
-0.00051274
0.00139187
-0.000540728
0.00137761
-0.000568507
0.00136259
-0.000595917
0.00134676
-0.000622753
0.00133005
-0.000648767
0.0013124
-0.00067366
0.00129375
-0.000697086
0.00127407
-0.000718691
0.0012534
-0.000738092
0.0012318
-0.000754933
0.00120939
-0.000768832
-0.000779012
0.00118635
0.00113251
0.000339621
-0.00111691
0.00114796
0.000336417
0.00116326
0.000332937
0.0011784
0.000329179
0.00119336
0.000325136
0.00120815
0.000320796
0.00122273
0.000316149
0.00123711
0.000311186
0.00125129
0.0003059
0.00126523
0.000300283
0.00127894
0.000294324
0.00129239
0.000288009
0.00130558
0.000281328
0.0013185
0.000274273
0.00133112
0.000266831
0.00134344
0.000258989
0.00135543
0.000250732
0.00136709
0.00024205
0.00137841
0.000232935
0.00138936
0.000223374
0.00139992
0.000213356
0.00141009
0.000202874
0.00141984
0.000191913
0.00142916
0.000180463
0.00143803
0.000168509
0.00144643
0.000156041
0.00145436
0.000143047
0.00146179
0.000129517
0.00146871
0.000115441
0.0014751
0.00010081
0.00148096
8.56164e-05
0.00148625
6.98521e-05
0.00149097
5.35103e-05
0.00149511
3.65855e-05
0.00149864
1.90723e-05
0.00150156
9.67242e-07
0.00150385
-1.77332e-05
0.0015055
-3.70285e-05
0.00150649
-5.69175e-05
0.00150681
-7.73976e-05
0.00150645
-9.8464e-05
0.0015054
-0.00012011
0.00150364
-0.000142325
0.00150117
-0.000165101
0.00149798
-0.000188421
0.00149405
-0.000212268
0.00148938
-0.000236623
0.00148397
-0.000261461
0.00147781
-0.000286755
0.00147091
-0.000312474
0.00146325
-0.000338582
0.00145485
-0.00036504
0.00144571
-0.000391803
0.00143583
-0.000418817
0.00142522
-0.000446022
0.00141389
-0.000473343
0.00140184
-0.000500686
0.00138905
-0.000527939
0.00137549
-0.000554956
0.00136114
-0.000581557
0.00134591
-0.000607524
0.00132974
-0.000632599
0.00131258
-0.000656496
0.00129439
-0.0006789
0.0012752
-0.000699498
0.00125506
-0.000717957
0.00123411
-0.000733977
0.0012125
-0.00074723
-0.000757033
0.00119052
0.00112098
0.000324029
-0.00110539
0.00113643
0.000320968
0.00115173
0.00031764
0.00116686
0.000314046
0.00118182
0.000310176
0.00119659
0.000306021
0.00121117
0.000301572
0.00122554
0.000296818
0.00123969
0.000291749
0.00125361
0.000286359
0.0012673
0.00028064
0.00128073
0.000274579
0.00129389
0.000268164
0.00130678
0.000261387
0.00131937
0.000254235
0.00133166
0.0002467
0.00134363
0.000238764
0.00135526
0.000230418
0.00136655
0.000221651
0.00137747
0.000212452
0.00138801
0.000202811
0.00139817
0.000192722
0.00140791
0.00018217
0.00141722
0.000171148
0.0014261
0.000159637
0.00143451
0.000147626
0.00144246
0.000135104
0.00144991
0.000122058
0.00145687
0.000108481
0.00146332
9.43655e-05
0.00146923
7.97021e-05
0.0014746
6.44833e-05
0.00147941
4.87017e-05
0.00148365
3.23509e-05
0.00148729
1.54252e-05
0.00149034
-2.0789e-06
0.00149277
-2.01655e-05
0.00149458
-3.88337e-05
0.00149574
-5.80831e-05
0.00149626
-7.79115e-05
0.00149611
-9.8315e-05
0.00149528
-0.000119287
0.00149378
-0.000140821
0.00149158
-0.000162904
0.00148869
-0.000185525
0.00148508
-0.000208666
0.00148077
-0.00023231
0.00147574
-0.000256434
0.00147
-0.000281012
0.00146354
-0.000306016
0.00145637
-0.000331412
0.0014485
-0.000357162
0.00143991
-0.00038322
0.00143063
-0.000409533
0.00142064
-0.000436035
0.00140994
-0.000462645
0.00139852
-0.000489257
0.00138632
-0.000515744
0.00137331
-0.000541944
0.00135942
-0.000567667
0.00134458
-0.00059269
0.00132875
-0.00061677
0.0013119
-0.000639645
0.00129404
-0.00066104
0.00127524
-0.00068069
0.00125558
-0.000698306
0.00123525
-0.000713641
0.00121442
-0.000726402
-0.000735967
0.00119335
0.00111002
0.000308452
-0.00109444
0.00112545
0.00030553
0.00114074
0.000302352
0.00115587
0.00029892
0.00117082
0.000295222
0.0011856
0.000291248
0.00120017
0.000286993
0.00121454
0.000282449
0.00122869
0.000277604
0.0012426
0.000272447
0.00125627
0.000266971
0.00126968
0.000261165
0.00128283
0.000255019
0.0012957
0.00024852
0.00130827
0.000241661
0.00132054
0.000234432
0.00133248
0.000226819
0.00134409
0.00021881
0.00135535
0.000210394
0.00136624
0.000201559
0.00137676
0.000192294
0.00138689
0.000182591
0.00139662
0.000172441
0.00140593
0.000161835
0.00141481
0.000150755
0.00142325
0.000139193
0.00143122
0.000127135
0.0014387
0.000114568
0.0014457
0.000101486
0.00145219
8.78771e-05
0.00145816
7.37349e-05
0.00146359
5.90512e-05
0.00146847
4.38186e-05
0.00147279
2.803e-05
0.00147654
1.16792e-05
0.0014797
-5.23801e-06
0.00148226
-2.27251e-05
0.00148421
-4.0782e-05
0.00148553
-5.94088e-05
0.00148622
-7.8604e-05
0.00148627
-9.83643e-05
0.00148567
-0.000118684
0.00148441
-0.000139557
0.00148248
-0.000160973
0.00147987
-0.00018292
0.00147659
-0.000205383
0.00147262
-0.000228345
0.00146797
-0.000251786
0.00146264
-0.000275682
0.00145663
-0.000300004
0.00144994
-0.00032472
0.00144257
-0.000349791
0.00143452
-0.000375168
0.00142578
-0.000400791
0.00141633
-0.000426587
0.00140614
-0.00045246
0.00139518
-0.000478295
0.00138338
-0.000503948
0.00137069
-0.000529254
0.00135705
-0.000554022
0.00134241
-0.000578045
0.00132674
-0.000601104
0.00131007
-0.000622972
0.00129244
-0.000643417
0.00127397
-0.00066222
0.0012548
-0.000679133
0.00123511
-0.000693955
0.0012151
-0.000706388
-0.00071586
0.00119499
0.00109967
0.000292895
-0.00108412
0.0011151
0.000290108
0.00113037
0.000287077
0.00114549
0.000283805
0.00116043
0.000280281
0.00117518
0.000276491
0.00118975
0.000272428
0.00120411
0.000268089
0.00121825
0.000263463
0.00123216
0.000258539
0.00124582
0.000253307
0.00125923
0.000247758
0.00127237
0.000241883
0.00128522
0.000235669
0.00129777
0.000229106
0.00131002
0.000222185
0.00132194
0.000214893
0.00133353
0.00020722
0.00134478
0.000199152
0.00135566
0.000190677
0.00136616
0.000181786
0.00137629
0.00017247
0.00138601
0.000162718
0.00139532
0.000152523
0.0014042
0.000141871
0.00141265
0.000130749
0.00142064
0.000119147
0.00142815
0.000107053
0.00143518
9.44576e-05
0.00144171
8.13493e-05
0.00144772
6.77206e-05
0.00145321
5.35638e-05
0.00145816
3.88709e-05
0.00146255
2.36339e-05
0.00146639
7.84614e-06
0.00146965
-8.49725e-06
0.00147232
-2.53996e-05
0.0014744
-4.28614e-05
0.00147587
-6.08832e-05
0.00147673
-7.94641e-05
0.00147697
-9.86017e-05
0.00147658
-0.000118291
0.00147555
-0.000138527
0.00147388
-0.0001593
0.00147156
-0.0001806
0.00146859
-0.000202413
0.00146496
-0.000224723
0.00146069
-0.00024751
0.00145576
-0.000270751
0.00145017
-0.000294417
0.00144392
-0.000318473
0.00143701
-0.000342874
0.0014294
-0.000367565
0.00142109
-0.000392476
0.00141202
-0.000417523
0.00140216
-0.000442599
0.00139145
-0.000467579
0.00137982
-0.000492319
0.00136722
-0.000516656
0.00135362
-0.000540418
0.00133899
-0.000563419
0.00132336
-0.000585477
0.00130679
-0.000606399
0.00128937
-0.000625999
0.00127124
-0.000644093
0.00125259
-0.000660475
0.00123362
-0.000674987
0.00121457
-0.000687342
-0.000697114
0.00119583
0.00108999
0.000277365
-0.00107446
0.00110539
0.00027471
0.00112065
0.000271822
0.00113575
0.000268706
0.00115067
0.000265355
0.00116541
0.000261752
0.00117996
0.000257883
0.0011943
0.000253746
0.00120843
0.000249335
0.00122232
0.00024464
0.00123598
0.000239652
0.00124938
0.00023436
0.00126251
0.000228756
0.00127535
0.000222827
0.00128789
0.000216561
0.00130013
0.000209947
0.00131205
0.000202976
0.00132363
0.000195636
0.00133487
0.000187914
0.00134575
0.000179798
0.00135626
0.000171279
0.00136638
0.000162349
0.0013761
0.000152997
0.00138541
0.000143211
0.0013943
0.00013298
0.00140276
0.000122296
0.00141076
0.000111146
0.00141829
9.95189e-05
0.00142534
8.74082e-05
0.00143189
7.47972e-05
0.00143794
6.16757e-05
0.00144346
4.80368e-05
0.00144846
3.38732e-05
0.00145292
1.91761e-05
0.00145683
3.93799e-06
0.00146018
-1.18465e-05
0.00146296
-2.81801e-05
0.00146516
-4.50641e-05
0.00146678
-6.24994e-05
0.0014678
-8.04857e-05
0.00146822
-9.90214e-05
0.00146803
-0.000118103
0.00146723
-0.000137725
0.00146581
-0.00015788
0.00146376
-0.000178557
0.0014611
-0.000199745
0.0014578
-0.000221426
0.00145387
-0.00024358
0.0014493
-0.000266181
0.00144408
-0.000289196
0.00143819
-0.000312583
0.0014316
-0.000336291
0.0014243
-0.000360256
0.00141622
-0.000384397
0.00140732
-0.000408622
0.00139754
-0.00043282
0.00138682
-0.000456867
0.00137513
-0.000480628
0.00136243
-0.000503956
0.00134872
-0.000526704
0.00133401
-0.000548713
0.00131837
-0.000569837
0.00130189
-0.000589914
0.00128469
-0.000608803
0.00126694
-0.000626345
0.00124885
-0.000642384
0.00123065
-0.000656787
0.00121263
-0.000669323
-0.000679768
0.00119529
0.00108102
0.000261864
-0.00106551
0.00109639
0.000259339
0.00111162
0.000256593
0.00112669
0.00025363
0.0011416
0.000250445
0.00115633
0.000247026
0.00117086
0.000243355
0.00118518
0.000239426
0.00119928
0.000235231
0.00121316
0.000230764
0.00122679
0.000226016
0.00124017
0.000220978
0.00125329
0.00021564
0.00126612
0.000209992
0.00127866
0.00020402
0.0012909
0.000197714
0.00130281
0.000191063
0.00131439
0.000184056
0.00132562
0.00017668
0.0013365
0.000168922
0.001347
0.000160774
0.00135713
0.000152227
0.00136685
0.000143273
0.00137616
0.0001339
0.00138504
0.000124097
0.00139349
0.000113851
0.00140148
0.000103151
0.00140902
9.19861e-05
0.00141607
8.03496e-05
0.00142265
6.82248e-05
0.00142872
5.55984e-05
0.00143429
4.24664e-05
0.00143935
2.8822e-05
0.00144387
1.46536e-05
0.00144785
-4.80168e-08
0.0014513
-1.52883e-05
0.00145418
-3.10689e-05
0.00145651
-4.73912e-05
0.00145827
-6.42568e-05
0.00145945
-8.16662e-05
0.00146005
-9.96186e-05
0.00146006
-0.000118111
0.00145947
-0.000137139
0.00145828
-0.000156694
0.00145649
-0.000176767
0.00145409
-0.000197343
0.00145107
-0.000218403
0.00144741
-0.000239923
0.0014431
-0.000261871
0.00143811
-0.000284209
0.00143242
-0.000306887
0.00142597
-0.000329846
0.00141873
-0.000353014
0.00141064
-0.000376308
0.00140165
-0.000399634
0.00139172
-0.000422885
0.0013808
-0.00044595
0.00136888
-0.000468708
0.00135596
-0.000491035
0.00134207
-0.00051281
0.00132726
-0.000533902
0.00131162
-0.000554197
0.00129526
-0.000573559
0.00127834
-0.000591886
0.00126104
-0.000609039
0.00124357
-0.000624914
0.00122617
-0.000639389
0.00120916
-0.000652313
-0.000663558
0.00119295
0.00107278
0.000246389
-0.0010573
0.00108812
0.000243995
0.00110332
0.000241393
0.00111837
0.000238582
0.00113325
0.000235561
0.00114796
0.000232319
0.00116247
0.000228843
0.00117678
0.000225122
0.00119086
0.000221147
0.00120472
0.00021691
0.00121833
0.000212403
0.00123169
0.000207617
0.00124479
0.000202544
0.00125761
0.000197172
0.00127013
0.000191492
0.00128236
0.000185491
0.00129426
0.000179158
0.00130584
0.000172482
0.00131706
0.000165452
0.00132793
0.000158054
0.00133843
0.000150279
0.00134854
0.000142118
0.00135825
0.000133563
0.00136755
0.000124601
0.00137642
0.000115222
0.00138486
0.000105411
0.00139286
9.51554e-05
0.0014004
8.44434e-05
0.00140748
7.32707e-05
0.00141408
6.16259e-05
0.00142019
4.94893e-05
0.0014258
3.68553e-05
0.0014309
2.37186e-05
0.00143549
1.00647e-05
0.00143956
-4.11498e-06
0.00144309
-1.8824e-05
0.00144609
-3.40628e-05
0.00144853
-4.98347e-05
0.00145042
-6.61425e-05
0.00145174
-8.29877e-05
0.00145249
-0.00010037
0.00145266
-0.000118285
0.00145225
-0.000136728
0.00145125
-0.000155691
0.00144964
-0.000175158
0.00144741
-0.000195114
0.00144454
-0.000215534
0.00144101
-0.000236389
0.00143678
-0.000257641
0.00143182
-0.000279246
0.00142608
-0.000301148
0.00141952
-0.000323285
0.00141209
-0.000345584
0.00140374
-0.000367966
0.00139445
-0.000390342
0.00138419
-0.000412619
0.00137294
-0.000434699
0.00136071
-0.000456483
0.00134754
-0.000477868
0.00133349
-0.000498754
0.00131862
-0.000519036
0.00130305
-0.000538627
0.00128691
-0.000557413
0.00127035
-0.000575328
0.00125356
-0.000592251
0.00123677
-0.000608128
0.00122024
-0.000622853
0.00120428
-0.000636352
-0.000648654
0.00118937
0.00106532
0.000230935
-0.00104987
0.00108064
0.000228674
0.00109582
0.000226215
0.00111084
0.00022356
0.0011257
0.000220703
0.00114038
0.000217637
0.00115487
0.000214351
0.00116916
0.000210835
0.00118323
0.000207078
0.00119707
0.000203072
0.00121066
0.000198807
0.001224
0.000194275
0.00123708
0.000189467
0.00124988
0.000184373
0.00126239
0.000178982
0.0012746
0.000173284
0.00128649
0.000167267
0.00129805
0.000160922
0.00130926
0.000154235
0.00132012
0.000147196
0.00133061
0.000139793
0.00134071
0.000132016
0.00135042
0.000123856
0.00135972
0.0001153
0.0013686
0.000106337
0.00137706
9.69546e-05
0.00138508
8.71401e-05
0.00139264
7.68809e-05
0.00139974
6.61679e-05
0.00140637
5.49936e-05
0.00141252
4.33396e-05
0.00141818
3.11957e-05
0.00142334
1.85595e-05
0.00142799
5.41918e-06
0.00143211
-8.23669e-06
0.0014357
-2.24146e-05
0.00143875
-3.71165e-05
0.00144126
-5.23454e-05
0.00144322
-6.81035e-05
0.00144463
-8.4391e-05
0.00144546
-0.000101206
0.00144572
-0.000118543
0.00144539
-0.000136394
0.00144444
-0.000154746
0.00144287
-0.000173584
0.00144064
-0.000192883
0.00143772
-0.000212617
0.00143408
-0.000232751
0.00142969
-0.000253245
0.00142449
-0.00027405
0.00141846
-0.000295112
0.00141154
-0.00031637
0.00140371
-0.000337756
0.00139495
-0.0003592
0.00138523
-0.000380625
0.00137456
-0.000401951
0.00136296
-0.000423096
0.00135045
-0.000443978
0.0013371
-0.000464512
0.00132296
-0.00048462
0.00130814
-0.000504213
0.00129274
-0.000523232
0.00127691
-0.000541577
0.0012608
-0.000559219
0.00124461
-0.00057606
0.00122857
-0.000592087
0.00121295
-0.000607231
0.00119808
-0.000621488
-0.00063493
0.00118436
0.0010587
0.000215496
-0.00104326
0.001074
0.00021337
0.00108916
0.000211056
0.00110417
0.000208556
0.001119
0.000205866
0.00113366
0.000202976
0.00114813
0.00019988
0.0011624
0.000196566
0.00117646
0.000193026
0.00119028
0.000189249
0.00120386
0.000185226
0.00121719
0.000180948
0.00123025
0.000176406
0.00124303
0.00017159
0.00125552
0.000166489
0.00126771
0.000161094
0.00127959
0.000155393
0.00129113
0.000149376
0.00130234
0.000143032
0.00131318
0.000136348
0.00132366
0.000129314
0.00133376
0.000121918
0.00134347
0.00011415
0.00135277
0.000105998
0.00136166
9.74495e-05
0.00137012
8.84928e-05
0.00137814
7.91156e-05
0.00138572
6.93059e-05
0.00139283
5.90521e-05
0.00139948
4.83451e-05
0.00140565
3.71723e-05
0.00141132
2.55224e-05
0.00141649
1.33889e-05
0.00142115
7.61249e-07
0.00142529
-1.23722e-05
0.00142889
-2.60185e-05
0.00143195
-4.01808e-05
0.00143447
-5.48615e-05
0.00143643
-7.00608e-05
0.00143781
-8.57767e-05
0.00143861
-0.000102004
0.00143881
-0.000118736
0.00143837
-0.000135961
0.00143729
-0.000153662
0.00143552
-0.000171819
0.00143305
-0.000190408
0.00142983
-0.000209399
0.00142583
-0.000228755
0.00142102
-0.000248435
0.00141537
-0.000268396
0.00140884
-0.000288585
0.00140142
-0.000308948
0.00139309
-0.000329426
0.00138385
-0.000349958
0.0013737
-0.000370478
0.00136267
-0.000390919
0.00135079
-0.000411214
0.0013381
-0.000431294
0.00132468
-0.000451089
0.0013106
-0.000470536
0.00129595
-0.000489564
0.00128085
-0.000508132
0.00126543
-0.00052616
0.00124986
-0.000543653
0.00123434
-0.00056054
0.00121912
-0.000576865
0.00120453
-0.000592646
0.00119109
-0.00060804
-0.000623398
0.00117955
0.001053
0.000200065
-0.00103757
0.00106829
0.000198074
0.00108344
0.000195906
0.00109844
0.000193564
0.00111326
0.000191042
0.0011279
0.000188331
0.00114236
0.000185425
0.00115661
0.000182313
0.00117065
0.000178988
0.00118446
0.000175439
0.00119803
0.000171657
0.00121135
0.000167633
0.00122439
0.000163357
0.00123716
0.000158819
0.00124964
0.000154009
0.00126182
0.000148918
0.00127368
0.000143533
0.00128521
0.000137846
0.0012964
0.000131843
0.00130723
0.000125515
0.0013177
0.000118849
0.00132778
0.000111834
0.00133747
0.000104459
0.00134676
9.67116e-05
0.00135563
8.85799e-05
0.00136407
8.00521e-05
0.00137207
7.11157e-05
0.00137962
6.17588e-05
0.0013867
5.19697e-05
0.00139331
4.17376e-05
0.00139943
3.10513e-05
0.00140505
1.98998e-05
0.00141017
8.27382e-06
0.00141476
-3.83599e-06
0.00141883
-1.64386e-05
0.00142235
-2.95392e-05
0.00142531
-4.31416e-05
0.0014277
-5.72473e-05
0.00142949
-7.18552e-05
0.00143068
-8.69616e-05
0.00143123
-0.00010256
0.00143113
-0.00011864
0.00143036
-0.000135188
0.00142889
-0.000152187
0.00142668
-0.000169616
0.00142372
-0.000187448
0.00141998
-0.000205655
0.00141543
-0.000224202
0.00141004
-0.000243053
0.00140381
-0.000262166
0.00139673
-0.000281496
0.00138877
-0.000300996
0.00137996
-0.000320615
0.00137031
-0.0003403
0.00135982
-0.000359996
0.00134855
-0.000379646
0.00133653
-0.000399194
0.00132382
-0.000418581
0.00131048
-0.000437751
0.0012966
-0.000456652
0.00128226
-0.000475229
0.00126759
-0.000493459
0.00125271
-0.000511281
0.0012378
-0.000528738
0.00122306
-0.000545803
0.0012088
-0.00056261
0.00119548
-0.000579321
0.00118373
-0.000596289
-0.000614514
0.00117485
0.00104836
0.000184634
-0.00103293
0.00106365
0.000182781
0.0010788
0.000180762
0.00109379
0.000178578
0.0011086
0.000176225
0.00112324
0.000173695
0.00113768
0.00017098
0.00115192
0.000168072
0.00116595
0.000164962
0.00117975
0.000161642
0.0011933
0.000158101
0.00120661
0.00015433
0.00121964
0.000150321
0.0012324
0.000146062
0.00124486
0.000141545
0.00125702
0.000136759
0.00126886
0.000131694
0.00128037
0.000126338
0.00129153
0.000120681
0.00130233
0.000114712
0.00131276
0.000108418
0.00132281
0.00010179
0.00133245
9.48141e-05
0.00134168
8.74795e-05
0.00135049
7.97739e-05
0.00135886
7.16853e-05
0.00136677
6.32016e-05
0.00137422
5.43108e-05
0.00138119
4.50012e-05
0.00138766
3.52613e-05
0.00139363
2.50801e-05
0.00139909
1.4447e-05
0.00140401
3.3525e-06
0.00140838
-8.21175e-06
0.0014122
-2.02524e-05
0.00141543
-3.27737e-05
0.00141807
-4.57793e-05
0.00142009
-5.927e-05
0.00142148
-7.32444e-05
0.00142222
-8.76982e-05
0.00142228
-0.000102624
0.00142166
-0.000118012
0.00142031
-0.000133847
0.00141824
-0.000150114
0.00141542
-0.000166791
0.00141182
-0.000183855
0.00140745
-0.000201277
0.00140227
-0.000219029
0.00139629
-0.000237075
0.00138951
-0.00025538
0.00138192
-0.000273905
0.00137353
-0.000292607
0.00136436
-0.000311444
0.00135443
-0.00033037
0.00134377
-0.000349338
0.00133243
-0.0003683
0.00132044
-0.000387207
0.00130787
-0.000406011
0.00129478
-0.000424665
0.00128126
-0.00044313
0.0012674
-0.000461367
0.00125331
-0.000479367
0.00123913
-0.000497106
0.00122507
-0.000514678
0.00121141
-0.000532139
0.00119857
-0.00054977
0.00118718
-0.000567936
0.00117812
-0.000587228
-0.000609055
0.00117266
0.00104493
0.000169205
-0.00102951
0.00106022
0.000167494
0.00107536
0.000165625
0.00109033
0.000163603
0.00110514
0.000161422
0.00111976
0.000159075
0.00113418
0.000156554
0.0011484
0.000153852
0.00116241
0.00015096
0.00117618
0.00014787
0.00118971
0.000144573
0.00120298
0.000141059
0.00121598
0.00013732
0.0012287
0.000133345
0.00124111
0.000129126
0.00125322
0.000124652
0.001265
0.000119913
0.00127644
0.000114898
0.00128753
0.000109596
0.00129824
0.000103997
0.00130857
9.80892e-05
0.0013185
9.18609e-05
0.00132801
8.53008e-05
0.0013371
7.83969e-05
0.00134573
7.11374e-05
0.00135391
6.35102e-05
0.00136161
5.55032e-05
0.00136881
4.71046e-05
0.00137551
3.83023e-05
0.00138169
2.9085e-05
0.00138733
1.94414e-05
0.00139241
9.36114e-06
0.00139693
-1.16507e-06
0.00140086
-1.21451e-05
0.0014042
-2.35846e-05
0.00140691
-3.54887e-05
0.00140899
-4.7861e-05
0.00141043
-6.0703e-05
0.0014112
-7.40135e-05
0.00141129
-8.77889e-05
0.00141068
-0.000102023
0.00140938
-0.000116705
0.00140736
-0.000131824
0.0014046
-0.000147364
0.00140112
-0.000163304
0.00139689
-0.000179625
0.00139191
-0.0001963
0.00138618
-0.000213302
0.00137971
-0.000230601
0.00137249
-0.000248164
0.00136455
-0.000265958
0.00135589
-0.000283945
0.00134653
-0.000302089
0.00133651
-0.00032035
0.00132586
-0.000338688
0.00131462
-0.000357062
0.00130285
-0.000375433
0.0012906
-0.000393761
0.00127794
-0.00041201
0.00126497
-0.000430153
0.00125177
-0.000448174
0.0012385
-0.000466096
0.00122535
-0.000483958
0.00121262
-0.000501946
0.00120075
-0.000520265
0.00119037
-0.000539393
0.0011824
-0.000559967
0.00117777
-0.000582598
-0.000608484
0.0011772
0.00104263
0.000153817
-0.00102724
0.00105787
0.000152251
0.00107296
0.000150538
0.00108788
0.000148681
0.00110263
0.000146677
0.00111718
0.000144517
0.00113154
0.000142196
0.00114569
0.000139705
0.00115961
0.000137037
0.0011733
0.000134184
0.00118673
0.000131137
0.0011999
0.000127888
0.0012128
0.000124428
0.00122539
0.000120747
0.00123768
0.000116837
0.00124965
0.000112688
0.00126127
0.000108289
0.00127254
0.000103631
0.00128343
9.87023e-05
0.00129394
9.34926e-05
0.00130403
8.79907e-05
0.00131371
8.21854e-05
0.00132295
7.60651e-05
0.00133172
6.9618e-05
0.00134003
6.28323e-05
0.00134784
5.56957e-05
0.00135515
4.81961e-05
0.00136193
4.03213e-05
0.00136818
3.20591e-05
0.00137386
2.33976e-05
0.00137898
1.43251e-05