/*--------------------------------*- C++ -*----------------------------------*\
| =========                 |                                                 |
| \\      /  F ield         | OpenFOAM: The Open Source CFD Toolbox           |
|  \\    /   O peration     | Version:  2312                                  |
|   \\  /    A nd           | Website:  www.openfoam.com                      |
|    \\/     M anipulation  |                                                 |
\*---------------------------------------------------------------------------*/
FoamFile
{
    version     2.0;
    format      ascii;
    arch        "LSB;label=32;scalar=64";
    class       volVectorField;
    location    "500";
    object      U;
}
// * * * * * * * * * * * * * * * * * * * * * * * * * * * * * * * * * * * * * //

dimensions      [0 1 -1 0 0 0 0];

internalField   nonuniform List<vector> 
76025
(
(0.0393929 -0.00893933 0)
(0.039621 -0.00895302 -3.34778e-23)
(0.0398504 -0.00896082 0)
(0.0400822 -0.0089627 0)
(0.0403146 -0.00896091 2.05674e-22)
(0.0405564 -0.00894359 5.49353e-22)
(0.0407972 -0.00892707 -1.0598e-21)
(0.0410419 -0.00889809 4.81763e-22)
(0.0412835 -0.00886599 2.07768e-22)
(0.041524 -0.00882688 -2.32642e-22)
(0.0417669 -0.0087795 1.77454e-23)
(0.0420129 -0.00872175 -8.55253e-22)
(0.0422604 -0.00865922 1.13807e-21)
(0.0425055 -0.00858625 0)
(0.0427512 -0.0085002 -3.56186e-22)
(0.0429921 -0.00841484 0)
(0.0432345 -0.00831086 0)
(0.0434743 -0.00820814 0)
(0.0437131 -0.00808912 -4.30924e-22)
(0.0439481 -0.0079689 4.86163e-22)
(0.0441811 -0.00783357 5.10004e-22)
(0.0444113 -0.00769267 1.57068e-21)
(0.0446346 -0.00754234 -1.06821e-21)
(0.0448555 -0.00738008 -1.74848e-21)
(0.0450733 -0.00721235 -4.62435e-23)
(0.0452868 -0.00703906 -6.85703e-22)
(0.0454976 -0.00684743 1.94482e-21)
(0.0457011 -0.00665175 -1.98158e-21)
(0.0459035 -0.00644214 6.78138e-22)
(0.0460987 -0.00622072 -7.01344e-22)
(0.0462836 -0.00600907 -7.28602e-22)
(0.0464658 -0.00578187 1.56424e-21)
(0.0466441 -0.00553549 -2.36371e-21)
(0.0468153 -0.00529039 -4.23925e-22)
(0.0469788 -0.00503014 2.13199e-21)
(0.047134 -0.00476824 1.14717e-23)
(0.0472844 -0.00449179 -4.37062e-22)
(0.0474301 -0.00420074 2.29373e-22)
(0.0475693 -0.00391239 1.03152e-23)
(0.0476947 -0.00361144 -3.42723e-22)
(0.0478091 -0.0033055 2.28385e-22)
(0.0479192 -0.00298383 -1.12606e-22)
(0.0480217 -0.00264373 2.24135e-22)
(0.0481117 -0.00230415 -4.54721e-22)
(0.0481869 -0.00195284 -4.66304e-22)
(0.0482526 -0.00159575 8.92417e-22)
(0.0483091 -0.00121977 9.21035e-22)
(0.0483504 -0.000838776 -2.7896e-21)
(0.0483754 -0.00044847 1.79752e-21)
(0.0483892 -4.89739e-05 -3.73073e-23)
(0.0483882 0.000362244 -4.56359e-21)
(0.0483702 0.000788527 -1.76194e-21)
(0.0483381 0.00122698 1.828e-21)
(0.0482873 0.00167745 0)
(0.0482083 0.00213652 -1.72335e-21)
(0.0481116 0.00260524 -1.78886e-21)
(0.0479931 0.00309058 3.63999e-23)
(0.0478436 0.00359552 -1.70533e-21)
(0.0476636 0.00412148 1.66926e-21)
(0.0474532 0.00466391 -4.82124e-21)
(0.0472231 0.00520307 -3.27422e-21)
(0.0469459 0.00577754 -1.86765e-22)
(0.0466258 0.00637363 0)
(0.0462588 0.00698837 7.37143e-21)
(0.0458324 0.00762234 -2.63274e-21)
(0.0453451 0.00828299 1.37014e-21)
(0.0447898 0.00899263 -2.4364e-21)
(0.044153 0.00972095 2.47592e-21)
(0.0434259 0.0104231 4.36312e-21)
(0.0393678 -0.00934089 -1.81399e-23)
(0.0396048 -0.00935457 -1.75097e-22)
(0.0398437 -0.00936126 2.08992e-22)
(0.0400857 -0.00936143 0)
(0.0403296 -0.00935526 -6.34256e-22)
(0.0405786 -0.00934047 -1.06389e-22)
(0.0408289 -0.00931918 6.26795e-22)
(0.041082 -0.0092897 0)
(0.0413365 -0.00925292 1.85013e-23)
(0.0415912 -0.00920862 2.39448e-22)
(0.0418466 -0.00915643 -2.65225e-22)
(0.0421029 -0.00909546 2.23398e-23)
(0.0423596 -0.00902646 0)
(0.0426169 -0.00894859 0)
(0.0428744 -0.00886089 -8.14194e-22)
(0.0431296 -0.00876618 1.99831e-21)
(0.0433844 -0.00866087 4.48376e-22)
(0.0436369 -0.00854819 -1.42187e-21)
(0.0438877 -0.0084256 9.47087e-22)
(0.0441355 -0.00829501 -4.9854e-22)
(0.0443814 -0.00815442 5.80541e-22)
(0.0446237 -0.0080051 -1.10693e-21)
(0.0448619 -0.00784637 1.21087e-21)
(0.0450963 -0.00767746 -1.87442e-21)
(0.0453268 -0.00749968 1.26654e-21)
(0.0455531 -0.00731342 2.02311e-21)
(0.045775 -0.00711686 -1.37318e-21)
(0.0459902 -0.00691161 0)
(0.0462005 -0.00669605 0)
(0.0464058 -0.00647133 -7.98291e-22)
(0.0466061 -0.00623726 0)
(0.046801 -0.00599459 -8.54014e-22)
(0.0469885 -0.00574219 8.69639e-22)
(0.0471681 -0.00548201 -1.32979e-21)
(0.0473402 -0.00521209 2.2568e-23)
(0.0475048 -0.00493287 -4.58501e-22)
(0.0476628 -0.00464188 0)
(0.0478136 -0.00434308 -9.7231e-22)
(0.0479562 -0.00403698 7.36417e-22)
(0.0480889 -0.00372233 -6.07669e-22)
(0.0482114 -0.00339659 3.68513e-22)
(0.0483249 -0.00305971 -3.86954e-24)
(0.0484287 -0.00271598 1.32499e-22)
(0.0485211 -0.00236432 -1.23464e-22)
(0.0486017 -0.00200222 1.00928e-21)
(0.0486706 -0.0016281 -5.0834e-22)
(0.0487277 -0.00124427 -5.2305e-22)
(0.0487712 -0.000852541 9.69071e-22)
(0.0487998 -0.000447831 2.96905e-21)
(0.0488144 -3.03355e-05 -1.9468e-23)
(0.0488136 0.000397949 2.91635e-21)
(0.0487958 0.000838879 -9.74737e-22)
(0.0487611 0.0012918 -2.85676e-21)
(0.0487078 0.00175527 1.91474e-21)
(0.0486329 0.00222961 0)
(0.0485341 0.00272336 5.63676e-21)
(0.0484133 0.00322862 -3.44507e-24)
(0.0482652 0.0037499 -1.83247e-21)
(0.0480897 0.00428715 -1.85168e-21)
(0.0478855 0.00484145 0)
(0.0476491 0.00541965 1.63811e-21)
(0.0473789 0.00601475 4.97427e-21)
(0.0470667 0.00662935 0)
(0.0467067 0.00726689 -3.07433e-21)
(0.0462881 0.00793161 1.72018e-21)
(0.0457974 0.00863246 -2.91639e-21)
(0.0452323 0.00936508 1.40161e-21)
(0.044579 0.0101163 -2.54456e-21)
(0.0438113 0.0109103 -2.31718e-21)
(0.0393439 -0.0097654 1.63534e-22)
(0.0395916 -0.00977832 -9.08492e-23)
(0.0398415 -0.00978413 8.4696e-23)
(0.0400949 -0.00978317 -4.77765e-22)
(0.0403508 -0.00977475 6.17688e-22)
(0.0406091 -0.00975859 6.98738e-22)
(0.0408698 -0.0097345 -8.9481e-22)
(0.041133 -0.00970238 0)
(0.0413983 -0.00966214 2.02477e-23)
(0.0416651 -0.00961363 0)
(0.0419325 -0.00955672 3.1097e-22)
(0.0422004 -0.00949127 -3.15452e-22)
(0.0424683 -0.00941704 -1.84154e-21)
(0.0427362 -0.00933387 1.47261e-21)
(0.0430041 -0.00924151 -3.96862e-22)
(0.0432714 -0.00913995 -1.32665e-21)
(0.0435378 -0.00902914 4.51511e-22)
(0.0438026 -0.00890898 4.78154e-22)
(0.0440653 -0.00877965 1.60489e-21)
(0.0443255 -0.00864087 -1.0689e-21)
(0.0445828 -0.00849265 -5.93366e-22)
(0.0448368 -0.00833486 1.23287e-21)
(0.0450873 -0.00816743 -5.85568e-22)
(0.0453338 -0.00799002 -6.77695e-22)
(0.0455762 -0.00780292 0)
(0.0458138 -0.0076064 7.33714e-22)
(0.0460459 -0.00740041 7.44496e-22)
(0.0462725 -0.00718455 -7.2225e-22)
(0.0464936 -0.00695855 0)
(0.0467092 -0.00672308 1.6472e-21)
(0.046919 -0.00647791 -8.73045e-22)
(0.0471221 -0.00622402 -4.4778e-23)
(0.0473178 -0.00596108 0)
(0.0475061 -0.00568878 4.5515e-22)
(0.0476867 -0.0054071 -1.43852e-21)
(0.0478594 -0.00511578 9.76646e-22)
(0.0480241 -0.00481482 0)
(0.0481805 -0.00450479 7.5929e-22)
(0.0483283 -0.00418577 -7.67894e-22)
(0.0484665 -0.00385775 -1.25515e-22)
(0.0485944 -0.00351978 0)
(0.0487122 -0.00317199 -2.59387e-22)
(0.0488196 -0.00281487 -1.30763e-22)
(0.048916 -0.00244798 1.24547e-22)
(0.0490004 -0.0020709 -7.68708e-22)
(0.0490723 -0.00168336 -5.3393e-22)
(0.0491317 -0.00128561 1.01803e-21)
(0.0491775 -0.000877453 -1.0435e-21)
(0.0492088 -0.000457824 1.05968e-21)
(0.0492252 -2.67222e-05 -1.02915e-21)
(0.0492261 0.000415728 -1.00394e-21)
(0.0492104 0.000870396 2.09438e-21)
(0.0491773 0.00133749 0)
(0.0491255 0.00181705 2.06494e-21)
(0.0490529 0.0023099 5.09326e-23)
(0.0489581 0.00281799 -1.97859e-21)
(0.0488406 0.00334063 -1.94963e-21)
(0.0486981 0.00387973 3.8477e-21)
(0.0485287 0.00443672 -5.22621e-23)
(0.0483306 0.0050129 1.91364e-21)
(0.0481011 0.00560974 -3.7494e-21)
(0.0478365 0.00622705 -1.89192e-21)
(0.0475288 0.00686806 -1.42892e-23)
(0.0471696 0.00753548 -1.67543e-21)
(0.0467486 0.00823184 -1.51069e-21)
(0.0462543 0.00896045 -4.7409e-21)
(0.0456779 0.00972225 0)
(0.0450033 0.0105119 -1.39611e-21)
(0.0442271 0.0113539 1.30964e-21)
(0.0393185 -0.0102136 0)
(0.039579 -0.0102262 -5.70433e-23)
(0.0398417 -0.0102313 -5.10997e-22)
(0.0401075 -0.0102292 4.24483e-22)
(0.0403759 -0.0102191 5.16229e-22)
(0.0406463 -0.0102008 -8.44923e-22)
(0.0409188 -0.0101741 1.988e-22)
(0.0411934 -0.010139 -2.48175e-22)
(0.0414698 -0.0100952 -2.55906e-22)
(0.0417478 -0.0100428 -1.24098e-21)
(0.0420267 -0.00998143 1.26368e-21)
(0.0423064 -0.00991099 1.47371e-21)
(0.0425863 -0.00983126 -3.06928e-22)
(0.042866 -0.00974216 -1.64639e-21)
(0.0431453 -0.00964358 1.30767e-21)
(0.0434239 -0.00953543 -4.85507e-22)
(0.0437013 -0.00941776 5.14922e-22)
(0.0439774 -0.00929038 5.44354e-22)
(0.0442514 -0.00915331 -1.67948e-21)
(0.0445231 -0.00900643 5.37594e-22)
(0.0447918 -0.00884966 5.96049e-22)
(0.0450573 -0.00868291 0)
(0.045319 -0.00850612 1.40691e-21)
(0.0455767 -0.00831923 -6.90774e-22)
(0.0458299 -0.00812234 -1.48187e-21)
(0.0460781 -0.00791555 -1.56702e-21)
(0.046321 -0.00769882 3.11462e-21)
(0.0465582 -0.00747209 -1.62838e-21)
(0.0467895 -0.00723535 0)
(0.0470145 -0.00698887 -1.74171e-21)
(0.0472329 -0.00673281 -3.40718e-23)
(0.0474444 -0.00646729 1.81879e-21)
(0.0476485 -0.00619222 -9.66013e-22)
(0.0478449 -0.00590747 2.46904e-21)
(0.0480332 -0.00561314 -4.80785e-22)
(0.0482131 -0.00530932 0)
(0.0483843 -0.00499597 0)
(0.0485467 -0.00467315 2.72354e-22)
(0.0486998 -0.00434097 2.61263e-22)
(0.048843 -0.00399945 1.37868e-22)
(0.0489758 -0.00364825 -4.32858e-24)
(0.0490981 -0.0032872 1.32586e-22)
(0.0492095 -0.00291639 0)
(0.0493095 -0.0025358 -1.28541e-23)
(0.0493975 -0.00214521 0)
(0.0494729 -0.00174428 5.22797e-22)
(0.0495354 -0.00133281 4.98166e-24)
(0.0495843 -0.00091063 -1.65729e-21)
(0.0496189 -0.000477283 0)
(0.0496385 -3.23251e-05 -1.08497e-21)
(0.0496425 0.000424541 1.07345e-21)
(0.0496301 0.000893797 -2.0915e-21)
(0.0496003 0.00137586 0)
(0.049552 0.00187114 -6.3389e-21)
(0.0494838 0.00238034 4.77604e-23)
(0.0493944 0.00290472 2.07354e-21)
(0.0492827 0.00344502 2.04542e-21)
(0.0491471 0.00400239 0)
(0.0489853 0.00457827 0)
(0.0487951 0.00517413 -1.89669e-21)
(0.0485726 0.00579168 3.70774e-21)
(0.0483123 0.00643243 3.61152e-21)
(0.0480061 0.00709871 0)
(0.0476446 0.00779314 -3.60554e-21)
(0.0472172 0.00851795 0)
(0.0467127 0.00927551 4.74541e-21)
(0.0461223 0.0100671 -1.56609e-21)
(0.0454318 0.0108897 -1.48978e-21)
(0.0446413 0.0117708 -1.49831e-21)
(0.0392894 -0.0106858 0)
(0.0395643 -0.0106985 0)
(0.0398411 -0.010703 -1.1558e-22)
(0.0401209 -0.0106998 6.1246e-22)
(0.0404032 -0.0106881 -7.88864e-22)
(0.0406872 -0.0106677 1.89351e-22)
(0.0409732 -0.0106384 0)
(0.041261 -0.0106002 2.49215e-22)
(0.0415502 -0.0105528 0)
(0.0418407 -0.0104961 6.73049e-22)
(0.042132 -0.01043 8.9003e-23)
(0.0424238 -0.0103544 -7.32874e-22)
(0.0427159 -0.010269 0)
(0.043008 -0.0101736 9.17067e-22)
(0.0432994 -0.0100684 -2.84283e-21)
(0.0435899 -0.00995317 1.98142e-21)
(0.0438791 -0.00982789 -2.65245e-21)
(0.0441666 -0.00969249 5.50582e-22)
(0.044452 -0.00954692 -6.13134e-22)
(0.0447348 -0.00939129 6.05316e-22)
(0.0450146 -0.00922537 6.61419e-22)
(0.0452911 -0.00904911 -2.04026e-21)
(0.0455638 -0.00886242 -1.42674e-21)
(0.0458321 -0.00866528 0)
(0.0460957 -0.00845776 1.57009e-21)
(0.0463542 -0.00823998 8.33936e-22)
(0.0466071 -0.00801196 -2.44098e-21)
(0.0468541 -0.00777379 8.36811e-22)
(0.0470948 -0.00752551 -1.80163e-21)
(0.0473289 -0.00726726 2.70216e-21)
(0.047556 -0.0069992 -9.71783e-22)
(0.0477757 -0.00672133 5.00457e-22)
(0.0479877 -0.00643368 0)
(0.0481915 -0.00613625 -5.03181e-22)
(0.0483868 -0.00582909 -5.17036e-22)
(0.0485734 -0.00551227 0)
(0.0487509 -0.00518588 5.6582e-22)
(0.048919 -0.00484993 -8.32106e-22)
(0.0490774 -0.00450449 5.54927e-22)
(0.0492257 -0.00414951 -2.81707e-22)
(0.0493634 -0.00378487 -4.74025e-24)
(0.0494903 -0.00341044 -2.1685e-22)
(0.0496059 -0.00302619 7.06869e-23)
(0.04971 -0.00263204 2.78638e-22)
(0.0498019 -0.00222778 1.09902e-23)
(0.0498812 -0.00181313 1.71033e-21)
(0.0499474 -0.00138785 0)
(0.05 -0.00095171 1.11254e-21)
(0.0500384 -0.000504302 -2.38072e-23)
(0.050062 -4.51848e-05 -1.12725e-21)
(0.05007 0.000426038 0)
(0.0500619 0.000909835 -1.12261e-21)
(0.0500367 0.00140675 1.10997e-21)
(0.0499935 0.00191739 2.1557e-21)
(0.0499311 0.00244254 0)
(0.0498484 0.00298324 -4.28003e-21)
(0.0497441 0.00354054 4.27789e-21)
(0.0496163 0.00411568 -4.21715e-21)
(0.0494625 0.00471019 -5.7415e-23)
(0.0492791 0.00532583 0)
(0.049061 0.00596444 -1.98518e-21)
(0.0488014 0.00662807 1.87795e-21)
(0.0484917 0.00731881 1.993e-21)
(0.0481221 0.00803904 3.53505e-21)
(0.0476828 0.00879059 -5.39481e-21)
(0.0471639 0.00957516 3.4053e-21)
(0.0465579 0.0103943 -1.6523e-21)
(0.0458525 0.0112455 1.72513e-21)
(0.0450537 0.0121578 4.37644e-21)
(0.0392548 -0.0111836 2.99994e-22)
(0.0395453 -0.0111962 1.28311e-22)
(0.0398377 -0.0112002 -4.49771e-22)
(0.040133 -0.0111959 0)
(0.0404307 -0.0111826 1.78748e-22)
(0.04073 -0.0111601 0)
(0.0410308 -0.0111282 -5.3749e-22)
(0.041333 -0.0110868 -6.52861e-23)
(0.0416366 -0.0110357 9.31423e-22)
(0.0419414 -0.0109745 -3.63598e-22)
(0.0422467 -0.0109034 -3.6677e-22)
(0.0425522 -0.0108222 -4.28799e-22)
(0.0428576 -0.0107308 0)
(0.0431627 -0.010629 0)
(0.0434672 -0.0105168 4.91122e-22)
(0.0437702 -0.0103941 5.21777e-22)
(0.0440716 -0.010261 -1.17173e-21)
(0.044371 -0.0101173 1.17244e-21)
(0.0446683 -0.00996275 1.26911e-21)
(0.0449629 -0.00979759 -1.35929e-21)
(0.0452542 -0.00962158 2.73905e-21)
(0.0455418 -0.00943484 1.65113e-23)
(0.0458252 -0.00923742 -1.52734e-21)
(0.046104 -0.00902925 -8.10659e-22)
(0.0463778 -0.00881044 -1.66229e-21)
(0.0466462 -0.00858105 1.66562e-21)
(0.0469087 -0.00834114 1.78145e-21)
(0.0471649 -0.00809084 -1.78631e-21)
(0.0474145 -0.00783024 0)
(0.0476572 -0.00755944 0)
(0.0478924 -0.00727855 2.48956e-21)
(0.0481199 -0.00698764 5.14652e-23)
(0.0483393 -0.00668679 -1.04142e-21)
(0.0485502 -0.00637607 -1.09398e-21)
(0.0487523 -0.00605559 1.09981e-21)
(0.0489454 -0.00572542 0)
(0.049129 -0.00538565 -5.62916e-22)
(0.0493028 -0.00503626 -8.83875e-22)
(0.0494666 -0.00467726 5.80008e-22)
(0.04962 -0.00430863 -7.13627e-24)
(0.0497626 -0.00393031 -4.64167e-23)
(0.0498941 -0.00354222 2.18408e-22)
(0.0500142 -0.00314427 1.52293e-22)
(0.0501225 -0.00273636 2.9941e-22)
(0.0502185 -0.00231829 -1.47774e-21)
(0.0503019 -0.00188983 1.04853e-23)
(0.0503723 -0.00145071 0)
(0.0504291 -0.00100064 -1.21761e-21)
(0.0504718 -0.000539214 3.56207e-21)
(0.0504998 -6.60093e-05 -2.38663e-21)
(0.0505127 0.000419445 -1.17899e-21)
(0.0505098 0.00091768 -3.25712e-23)
(0.0504902 0.00142931 -1.13721e-21)
(0.0504533 0.00195505 -9.59419e-24)
(0.0503978 0.00249577 2.27817e-21)
(0.0503226 0.00305251 -2.31628e-21)
(0.0502259 0.00362651 -2.23052e-21)
(0.0501054 0.00421919 4.389e-21)
(0.0499574 0.00483222 -5.43393e-23)
(0.0497772 0.00546752 2.11178e-21)
(0.0495586 0.00612703 -2.06363e-21)
(0.0492938 0.00681284 1.95447e-21)
(0.0489742 0.0075268 -3.79652e-21)
(0.0485907 0.00827096 -1.89397e-21)
(0.0481351 0.00904675 3.57592e-21)
(0.0475991 0.00985565 -1.90472e-21)
(0.0469774 0.0106994 -5.33585e-21)
(0.0462597 0.0115758 -1.57838e-21)
(0.0454542 0.0125146 0)
(0.0392141 -0.0117094 0)
(0.0395213 -0.0117218 1.1947e-22)
(0.0398304 -0.011725 -1.97631e-23)
(0.0401424 -0.0117195 0)
(0.0404567 -0.0117045 0)
(0.0407726 -0.0116796 2.57317e-22)
(0.0410899 -0.0116447 -8.81253e-22)
(0.0414082 -0.0115999 1.24417e-21)
(0.0417274 -0.0115449 -6.25977e-22)
(0.0420475 -0.0114793 3.63961e-22)
(0.0423681 -0.011403 0)
(0.0426887 -0.011316 4.29333e-22)
(0.0430089 -0.0112182 -4.96758e-22)
(0.0433284 -0.0111094 0)
(0.0436468 -0.0109897 0)
(0.0439638 -0.0108589 5.88774e-22)
(0.0442787 -0.0107172 6.5566e-23)
(0.0445911 -0.0105645 -1.24879e-21)
(0.0449008 -0.0104009 -1.33491e-21)
(0.0452072 -0.0102259 1.37886e-21)
(0.0455101 -0.0100398 7.16946e-22)
(0.0458093 -0.00984208 3.11815e-21)
(0.046104 -0.00963305 3.34405e-23)
(0.0463938 -0.0094128 -8.88072e-22)
(0.0466782 -0.00918168 1.70118e-21)
(0.0469564 -0.00893974 -8.98156e-22)
(0.0472285 -0.0086872 1.82423e-21)
(0.0474939 -0.00842409 0)
(0.0477523 -0.00815046 0)
(0.0480033 -0.00786641 0)
(0.0482466 -0.00757208 -5.10137e-22)
(0.0484817 -0.00726756 -1.06063e-21)
(0.0487083 -0.00695297 1.09359e-21)
(0.0489261 -0.00662843 1.14712e-21)
(0.0491348 -0.00629406 -1.15282e-21)
(0.049334 -0.00594995 0)
(0.0495235 -0.00559621 6.07305e-22)
(0.0497028 -0.00523282 -3.05282e-22)
(0.0498718 -0.00485979 0)
(0.0500302 -0.00447713 3.07091e-22)
(0.0501775 -0.0040848 -5.7586e-23)
(0.0503136 -0.00368274 3.83858e-23)
(0.0504381 -0.00327085 -1.51395e-22)
(0.0505506 -0.00284901 0)
(0.0506509 -0.00241703 -6.2443e-22)
(0.0507385 -0.00197468 6.17896e-22)
(0.0508132 -0.00152168 0)
(0.0508745 -0.0010577 -3.33279e-23)
(0.0509219 -0.000582343 2.32177e-23)
(0.050955 -9.51579e-05 1.20182e-21)
(0.0509734 0.000404374 0)
(0.0509763 0.000916841 -5.8502e-23)
(0.0509632 0.00144294 -1.17999e-21)
(0.0509331 0.00198347 -3.62957e-21)
(0.0508848 0.00253941 -6.57618e-23)
(0.0508166 0.00311194 2.28703e-21)
(0.050726 0.00370245 0)
(0.0506096 0.00431252 0)
(0.0504627 0.00494393 2.29144e-21)
(0.0502796 0.00559858 0)
(0.0500533 0.00627834 0)
(0.0497761 0.00698509 -6.02674e-23)
(0.0494402 0.00772033 -2.02602e-21)
(0.0490382 0.00848589 -4.0048e-21)
(0.0485635 0.00928284 3.90721e-21)
(0.04801 0.0101128 -2.37941e-22)
(0.0473742 0.0109777 1.72328e-21)
(0.0466475 0.0118755 1.81382e-21)
(0.0458385 0.0128352 0)
(0.0391687 -0.0122658 0)
(0.0394933 -0.0122779 -1.19579e-22)
(0.0398197 -0.0122803 5.1835e-22)
(0.0401492 -0.0122734 -1.50877e-22)
(0.0404809 -0.0122565 0)
(0.0408143 -0.0122292 -8.34599e-22)
(0.0411492 -0.0121912 1.51436e-21)
(0.0414852 -0.0121424 7.18708e-23)
(0.0418218 -0.0120828 -1.86193e-21)
(0.0421587 -0.0120122 3.56646e-22)
(0.0424957 -0.0119304 -4.63795e-22)
(0.0428324 -0.0118372 -4.99341e-22)
(0.0431684 -0.0117326 1.56076e-21)
(0.0435034 -0.0116165 -2.19482e-21)
(0.043837 -0.0114887 1.13069e-21)
(0.0441689 -0.0113492 -6.70672e-22)
(0.0444982 -0.0111981 2.59895e-21)
(0.0448248 -0.0110353 -6.25545e-22)
(0.045148 -0.010861 7.70841e-22)
(0.0454673 -0.010675 -7.08091e-22)
(0.0457826 -0.0104776 6.50122e-23)
(0.0460934 -0.0102686 -4.8987e-21)
(0.0463994 -0.010048 -8.89068e-22)
(0.0467003 -0.00981563 -6.23011e-23)
(0.0469956 -0.00957192 2.74478e-21)
(0.0472845 -0.00931692 -9.22011e-22)
(0.0475669 -0.00905093 1.9866e-21)
(0.047842 -0.0087742 -3.02807e-21)
(0.0481095 -0.00848676 0)
(0.0483691 -0.00818872 -1.08337e-21)
(0.0486205 -0.00788021 1.08665e-21)
(0.0488633 -0.00756138 3.00911e-23)
(0.0490972 -0.00723238 -5.95941e-22)
(0.0493218 -0.00689336 -6.1096e-22)
(0.0495368 -0.00654448 1.85641e-21)
(0.049742 -0.00618586 -1.23388e-21)
(0.049937 -0.0058176 9.55208e-22)
(0.0501217 -0.00543971 -1.26415e-21)
(0.0502956 -0.00505222 6.31002e-22)
(0.0504587 -0.00465515 -1.56036e-22)
(0.0506106 -0.00424849 0)
(0.0507511 -0.00383219 1.61952e-22)
(0.0508798 -0.00340614 -1.60311e-22)
(0.0509966 -0.00297022 -3.24797e-22)
(0.0511011 -0.00252424 9.71048e-22)
(0.0511932 -0.00206797 -6.55583e-22)
(0.0512724 -0.00160111 -6.42088e-22)
(0.0513384 -0.00112331 0)
(0.051391 -0.000634174 -2.60275e-21)
(0.0514296 -0.000133199 2.55513e-21)
(0.0514539 0.000380181 -1.23924e-21)
(0.0514631 0.000906627 1.22554e-21)
(0.0514565 0.00144693 1.27677e-21)
(0.0514327 0.00200203 2.44908e-21)
(0.05139 0.00257304 2.39559e-21)
(0.0513259 0.00316128 0)
(0.051237 0.00376826 -2.44675e-21)
(0.0511187 0.00439561 0)
(0.0509656 0.00504508 6.04925e-23)
(0.0507715 0.00571837 -2.18767e-21)
(0.0505297 0.00641709 2.1967e-21)
(0.0502335 0.00714278 2.09026e-21)
(0.0498764 0.00789667 -2.15894e-21)
(0.0494532 0.00868039 -5.82109e-23)
(0.048959 0.00949485 5.77429e-23)
(0.0483901 0.0103424 5.87574e-21)
(0.0477442 0.0112245 2.01325e-21)
(0.0470141 0.0121414 1.93835e-21)
(0.0462072 0.0131195 -1.85635e-21)
(0.0391201 -0.0128557 0)
(0.0394628 -0.0128672 0)
(0.0398075 -0.0128684 4.12181e-22)
(0.0401553 -0.0128598 -6.22675e-22)
(0.0405054 -0.0128406 -2.76193e-22)
(0.0408568 -0.0128104 0)
(0.0412096 -0.012769 0)
(0.0415637 -0.012716 3.88969e-22)
(0.0419186 -0.0126515 -8.53117e-22)
(0.0422736 -0.0125753 -1.11485e-22)
(0.0426285 -0.0124873 2.38549e-21)
(0.0429828 -0.0123873 -4.98373e-22)
(0.043336 -0.0122752 5.67116e-22)
(0.0436876 -0.012151 -1.13945e-21)
(0.0440373 -0.0120145 6.47043e-22)
(0.0443848 -0.0118658 0)
(0.0447294 -0.0117046 0)
(0.0450708 -0.0115314 3.19211e-23)
(0.0454085 -0.0113458 -2.28349e-21)
(0.0457419 -0.0111483 7.74729e-22)
(0.0460707 -0.0109388 -8.61508e-22)
(0.0463946 -0.0107172 8.43131e-22)
(0.0467132 -0.0104837 9.06376e-22)
(0.047026 -0.0102382 -8.74481e-22)
(0.0473325 -0.00998104 -9.41815e-22)
(0.0476323 -0.00971249 0)
(0.0479251 -0.00943254 0)
(0.0482101 -0.00914147 1.58209e-21)
(0.0484871 -0.00883954 0)
(0.0487556 -0.0085268 1.13801e-21)
(0.0490152 -0.00820339 -1.14093e-21)
(0.0492658 -0.0078695 -5.77272e-22)
(0.0495069 -0.00752534 5.9206e-22)
(0.0497381 -0.00717112 1.24614e-21)
(0.0499594 -0.00680706 -6.21265e-22)
(0.0501704 -0.00643331 -6.5415e-22)
(0.0503708 -0.00604997 6.64552e-22)
(0.0505606 -0.00565708 0)
(0.0507393 -0.0052547 0)
(0.050907 -0.00484287 1.70444e-22)
(0.0510633 -0.00442158 0)
(0.051208 -0.00399078 0)
(0.051341 -0.0035504 -5.08799e-22)
(0.0514621 -0.00310029 6.77337e-22)
(0.051571 -0.00264028 -3.43757e-22)
(0.0516676 -0.00217011 6.54944e-22)
(0.0517516 -0.00168948 0)
(0.0518227 -0.00119802 2.02341e-21)
(0.0518806 -0.000695272 -2.49233e-23)
(0.0519248 -0.000180703 0)
(0.0519548 0.000346337 -2.63093e-21)
(0.0519695 0.000886618 -2.81161e-23)
(0.0519676 0.00144106 -2.55126e-21)
(0.0519473 0.00201073 -1.31066e-21)
(0.0519059 0.0025969 -2.53175e-21)
(0.05184 0.00320094 2.48311e-21)
(0.0517452 0.00382437 2.38977e-21)
(0.0516167 0.00446869 0)
(0.0514486 0.00513545 -2.36218e-21)
(0.0512354 0.00582597 5.44523e-23)
(0.0509713 0.00654157 0)
(0.0506512 0.00728342 0)
(0.0502706 0.00805261 2.11646e-21)
(0.0498262 0.00885068 0)
(0.0493149 0.00967861 0)
(0.048735 0.0105395 -2.08629e-21)
(0.0480851 0.0114347 -1.94379e-21)
(0.04736 0.0123678 -2.14947e-21)
(0.0465634 0.0133618 0)
(0.0390686 -0.013482 0)
(0.0394301 -0.0134927 0)
(0.0397938 -0.0134925 0)
(0.0401611 -0.0134818 -2.67149e-22)
(0.0405309 -0.0134596 -3.43497e-22)
(0.0409016 -0.0134258 -7.85971e-23)
(0.0412733 -0.0133802 6.92524e-22)
(0.0416462 -0.0133227 -3.8717e-22)
(0.0420199 -0.0132529 4.63089e-22)
(0.0423937 -0.0131707 9.63916e-22)
(0.0427673 -0.0130759 0)
(0.04314 -0.0129684 0)
(0.0435115 -0.0128481 -3.51851e-23)
(0.0438811 -0.0127149 1.8776e-21)
(0.0442482 -0.0125689 -2.70871e-21)
(0.0446126 -0.0124101 -7.43403e-23)
(0.0449738 -0.0122385 1.44371e-21)
(0.0453312 -0.0120541 7.51982e-22)
(0.0456844 -0.0118571 -5.42919e-23)
(0.046033 -0.0116475 0)
(0.0463764 -0.0114253 1.77351e-21)
(0.0467142 -0.0111908 0)
(0.0470459 -0.0109438 1.91554e-21)
(0.0473713 -0.0106847 -2.97732e-21)
(0.0476899 -0.0104132 3.07435e-21)
(0.0480013 -0.0101299 1.09063e-21)
(0.0483049 -0.00983494 -1.66511e-21)
(0.0486002 -0.00952844 1.69543e-21)
(0.0488869 -0.0092105 -1.1358e-21)
(0.0491642 -0.00888171 0)
(0.0494321 -0.00854228 -1.22406e-21)
(0.0496902 -0.00819237 -6.64707e-22)
(0.0499382 -0.00783218 1.25731e-21)
(0.050176 -0.00746198 -1.30175e-21)
(0.0504033 -0.00708203 6.70646e-22)
(0.05062 -0.00669253 -6.68242e-22)
(0.0508257 -0.00629357 -3.31196e-22)
(0.0510204 -0.00588522 3.50654e-22)
(0.051204 -0.00546756 1.69628e-22)
(0.0513762 -0.00504062 -5.10753e-22)
(0.051537 -0.00460442 -4.43516e-23)
(0.0516861 -0.00415894 0)
(0.0518234 -0.00370408 1.69562e-22)
(0.0519489 -0.00323971 -3.39304e-22)
(0.0520623 -0.00276565 3.39149e-22)
(0.0521634 -0.00228162 0)
(0.0522522 -0.00178729 0)
(0.0523281 -0.00128226 7.10276e-22)
(0.0523907 -0.000765986 -1.36549e-21)
(0.0524393 -0.000237852 -2.76388e-21)
(0.0524729 0.000302904 5.41257e-21)
(0.0524899 0.000857178 -1.37121e-21)
(0.0524882 0.00142601 1.32238e-21)
(0.0524653 0.00201057 1.28018e-21)
(0.0524176 0.00261213 -2.59216e-21)
(0.0523412 0.00323202 2.53905e-21)
(0.0522314 0.00387155 0)
(0.0520834 0.00453196 -2.52183e-21)
(0.0518923 0.00521444 5.73656e-23)
(0.0516535 0.00591995 2.36538e-21)
(0.0513629 0.00664955 0)
(0.0510173 0.00740411 0)
(0.0506137 0.00818476 0)
(0.0501509 0.00899299 4.52934e-21)
(0.0496268 0.00983012 2.28811e-21)
(0.0490418 0.0106999 2.15656e-21)
(0.0483949 0.0116033 -4.36715e-21)
(0.0476845 0.0125471 -1.36791e-22)
(0.0469217 0.0135516 2.27174e-21)
(0.0390153 -0.0141476 0)
(0.0393967 -0.0141573 -4.40748e-22)
(0.0397803 -0.0141554 5.6761e-22)
(0.0401676 -0.0141424 -4.85697e-22)
(0.0405577 -0.014117 9.38654e-22)
(0.0409493 -0.0140791 3.79664e-22)
(0.0413416 -0.0140288 4.20217e-22)
(0.0417345 -0.013966 0)
(0.0421278 -0.0138902 -9.60699e-22)
(0.0425212 -0.0138012 -1.0333e-21)
(0.0429141 -0.0136989 1.07526e-21)
(0.043306 -0.0135833 -6.22218e-22)
(0.0436965 -0.0134541 6.9821e-22)
(0.0440849 -0.0133113 -5.71785e-22)
(0.0444707 -0.0131552 -2.90173e-21)
(0.0448532 -0.0129855 -7.69786e-23)
(0.045232 -0.0128024 -7.60623e-23)
(0.0456066 -0.0126061 1.6133e-21)
(0.0459763 -0.0123965 8.35218e-22)
(0.0463406 -0.0121739 1.83648e-21)
(0.0466993 -0.0119382 -1.77717e-21)
(0.0470518 -0.0116895 0)
(0.0473979 -0.0114278 6.39791e-23)
(0.0477367 -0.0111533 0)
(0.0480678 -0.0108664 -1.04595e-21)
(0.0483907 -0.0105673 -1.07836e-21)
(0.048705 -0.010256 5.54995e-22)
(0.0490103 -0.00993303 0)
(0.0493063 -0.00959858 6.21023e-22)
(0.0495927 -0.00925312 1.25034e-21)
(0.049869 -0.00889696 -1.25233e-21)
(0.0501351 -0.00853028 6.31273e-22)
(0.0503905 -0.00815328 -1.339e-21)
(0.0506352 -0.00776637 2.68691e-21)
(0.0508689 -0.00736991 -6.8595e-22)
(0.0510915 -0.00696411 0)
(0.0513029 -0.00654904 -3.61397e-22)
(0.0515029 -0.00612478 1.80767e-23)
(0.0516914 -0.00569142 5.31335e-22)
(0.0518684 -0.00524903 -4.44115e-22)
(0.0520337 -0.00479763 8.66387e-23)
(0.0521872 -0.0043372 -2.71978e-22)
(0.0523288 -0.00386768 1.78211e-22)
(0.0524585 -0.00338892 0)
(0.052576 -0.0029007 0)
(0.0526811 -0.00240272 0)
(0.0527734 -0.00189459 7.28596e-22)
(0.0528524 -0.00137581 7.24986e-22)
(0.0529171 -0.000845756 0)
(0.0529663 -0.000303689 1.39328e-21)
(0.0529983 0.000251258 1.44402e-21)
(0.0530111 0.000820065 1.40296e-21)
(0.0530017 0.0014038 0)
(0.0529671 0.0020036 0)
(0.0529034 0.00262058 -2.64099e-21)
(0.0528067 0.00325583 2.58592e-21)
(0.0526729 0.00391037 0)
(0.0524981 0.00458509 2.45084e-21)
(0.0522785 0.00528085 -2.41129e-21)
(0.0520111 0.0059983 -2.495e-21)
(0.0516934 0.00673838 2.40565e-21)
(0.0513237 0.00750178 -2.36677e-21)
(0.0509005 0.00828982 0)
(0.050424 0.00910393 -2.27937e-21)
(0.0498931 0.00994597 6.82631e-23)
(0.04931 0.0108197 -4.76868e-21)
(0.0486734 0.0117267 -4.85635e-21)
(0.0479851 0.0126747 4.80891e-21)
(0.047257 0.0136827 -2.34762e-21)
(0.0389607 -0.0148556 -9.88663e-23)
(0.0393632 -0.014864 0)
(0.0397681 -0.0148602 -1.26947e-22)
(0.0401765 -0.0148444 8.13439e-22)
(0.0405876 -0.0148156 -1.56158e-21)
(0.0410007 -0.0147734 3.70735e-22)
(0.0414148 -0.0147178 -4.16111e-22)
(0.0418293 -0.0146488 9.95881e-22)
(0.0422439 -0.0145662 -4.96919e-22)
(0.0426581 -0.0144697 -5.36148e-22)
(0.0430715 -0.0143593 -6.25816e-22)
(0.0434836 -0.0142347 1.93572e-21)
(0.043894 -0.0140959 -6.09969e-22)
(0.044302 -0.0139429 2.22821e-21)
(0.044707 -0.0137757 8.12602e-22)
(0.0451085 -0.0135943 7.93924e-23)
(0.0455058 -0.0133988 -1.63417e-21)
(0.0458983 -0.0131894 0)
(0.0462855 -0.0129661 0)
(0.0466667 -0.0127291 -9.85329e-22)
(0.0470415 -0.0124787 -9.57601e-22)
(0.0474092 -0.0122146 -2.08692e-21)
(0.0477696 -0.0119372 1.05862e-21)
(0.0481221 -0.0116464 2.22902e-21)
(0.0484661 -0.0113426 -2.23122e-21)
(0.0488013 -0.0110262 6.02385e-22)
(0.049127 -0.0106977 6.19514e-22)
(0.0494433 -0.0103574 0)
(0.0497498 -0.010005 -6.15742e-22)
(0.0500458 -0.00964147 -1.31065e-21)
(0.0503311 -0.00926751 -2.80413e-23)
(0.0506053 -0.00888315 1.34054e-21)
(0.0508683 -0.00848882 -7.11459e-22)
(0.0511201 -0.00808491 0)
(0.0513605 -0.00767162 3.69097e-22)
(0.0515893 -0.00724908 -3.71515e-22)
(0.0518065 -0.00681736 3.54518e-22)
(0.0520118 -0.00637662 -7.31337e-22)
(0.0522052 -0.00592699 0)
(0.0523866 -0.00546862 -9.43019e-23)
(0.0525559 -0.00500154 9.2142e-23)
(0.0527131 -0.00452575 -1.42524e-22)
(0.052858 -0.00404118 5.53305e-22)
(0.0529905 -0.00354763 -1.10483e-21)
(0.0531101 -0.00304485 7.2988e-22)
(0.0532165 -0.00253246 7.33892e-22)
(0.0533088 -0.00200996 -6.89361e-22)
(0.0533861 -0.00147676 1.48469e-21)
(0.0534469 -0.00093216 -1.42824e-21)
(0.0534894 -0.000375339 -3.54335e-21)
(0.0535114 0.000194587 2.67483e-23)
(0.0535104 0.000778551 -1.35952e-21)
(0.0534832 0.0013775 0)
(0.0534268 0.00199237 0)
(0.0533378 0.002624 -2.68129e-21)
(0.0532128 0.00327319 3.921e-21)
(0.0530489 0.00394064 -2.59096e-21)
(0.0528433 0.00462693 0)
(0.0525937 0.00533274 2.59383e-21)
(0.0522985 0.00605855 4.95438e-21)
(0.0519562 0.00680528 -2.42058e-21)
(0.0515668 0.00757354 -1.28107e-23)
(0.0511294 0.00836493 2.45954e-21)
(0.0506457 0.00918072 -5.78825e-23)
(0.0501151 0.0100234 -4.99215e-21)
(0.0495411 0.0108964 4.98216e-21)
(0.048923 0.0118027 2.52883e-21)
(0.0482655 0.0127498 0)
(0.047578 0.0137476 0)
(0.0389049 -0.0156101 9.7216e-23)
(0.0393302 -0.015617 7.00033e-22)
(0.0397577 -0.0156107 -5.59181e-22)
(0.0401889 -0.0155917 0)
(0.0406226 -0.015559 -1.84223e-22)
(0.0410582 -0.0155121 -9.06069e-22)
(0.0414949 -0.0154508 6.5387e-22)
(0.0419322 -0.0153752 -1.34694e-21)
(0.0423695 -0.0152852 1.07285e-21)
(0.0428061 -0.0151805 0)
(0.0432415 -0.015061 2.8112e-22)
(0.0436751 -0.0149266 0)
(0.0441066 -0.0147773 7.93927e-22)
(0.0445353 -0.014613 -2.22685e-21)
(0.0449606 -0.0144338 0)
(0.0453819 -0.0142397 0)
(0.0457985 -0.0140307 0)
(0.0462099 -0.0138071 -1.40915e-21)
(0.0466153 -0.013569 1.88838e-21)
(0.0470142 -0.0133164 9.6962e-22)
(0.047406 -0.0130498 0)
(0.04779 -0.012769 0)
(0.0481659 -0.0124744 0)
(0.0485332 -0.0121662 -2.92936e-21)
(0.0488914 -0.0118447 3.539e-21)
(0.04924 -0.0115105 -1.79565e-21)
(0.0495786 -0.0111639 -1.25643e-21)
(0.0499067 -0.0108054 1.30295e-21)
(0.0502239 -0.0104352 -1.30535e-21)
(0.0505303 -0.0100534 6.9697e-22)
(0.0508251 -0.0096609 -1.39585e-21)
(0.0511082 -0.00925799 6.71276e-22)
(0.0513797 -0.00884456 1.44255e-21)