/*--------------------------------*- C++ -*----------------------------------*\
| =========                 |                                                 |
| \\      /  F ield         | OpenFOAM: The Open Source CFD Toolbox           |
|  \\    /   O peration     | Version:  2312                                  |
|   \\  /    A nd           | Website:  www.openfoam.com                      |
|    \\/     M anipulation  |                                                 |
\*---------------------------------------------------------------------------*/
FoamFile
{
    version     2.0;
    format      ascii;
    arch        "LSB;label=32;scalar=64";
    class       volScalarField;
    location    "1300";
    object      k;
}
// * * * * * * * * * * * * * * * * * * * * * * * * * * * * * * * * * * * * * //

dimensions      [0 2 -2 0 0 0 0];

internalField   nonuniform List<scalar> 
76025
(
4.95042e-06
4.94859e-06
4.94499e-06
4.94043e-06
4.9394e-06
4.94107e-06
4.94079e-06
4.93993e-06
4.93654e-06
4.93441e-06
4.93549e-06
4.93567e-06
4.93476e-06
4.93104e-06
4.93135e-06
4.92972e-06
4.92939e-06
4.93159e-06
4.9302e-06
4.92887e-06
4.92994e-06
4.93252e-06
4.93568e-06
4.94063e-06
4.94855e-06
4.95444e-06
4.96709e-06
4.97627e-06
4.99084e-06
5.00428e-06
5.0211e-06
5.03571e-06
5.05815e-06
5.07808e-06
5.10248e-06
5.12629e-06
5.15367e-06
5.18573e-06
5.21759e-06
5.25172e-06
5.28712e-06
5.32734e-06
5.37045e-06
5.41518e-06
5.46251e-06
5.51419e-06
5.56963e-06
5.63103e-06
5.70033e-06
5.77561e-06
5.86491e-06
5.9659e-06
6.0857e-06
6.22103e-06
6.39888e-06
6.60046e-06
6.85842e-06
7.18663e-06
7.60369e-06
8.20853e-06
8.95622e-06
1.00978e-05
1.16698e-05
1.37346e-05
1.63996e-05
1.94699e-05
2.31262e-05
2.73347e-05
3.25728e-05
5.03815e-06
5.03974e-06
5.04072e-06
5.04287e-06
5.0418e-06
5.04213e-06
5.0441e-06
5.0453e-06
5.04826e-06
5.04888e-06
5.04932e-06
5.04821e-06
5.05187e-06
5.05271e-06
5.05214e-06
5.05131e-06
5.05669e-06
5.05882e-06
5.05816e-06
5.06473e-06
5.06728e-06
5.06442e-06
5.06497e-06
5.06825e-06
5.07487e-06
5.082e-06
5.09217e-06
5.10333e-06
5.11664e-06
5.13168e-06
5.14874e-06
5.16621e-06
5.18655e-06
5.20807e-06
5.2319e-06
5.25773e-06
5.28546e-06
5.31561e-06
5.3476e-06
5.38207e-06
5.41987e-06
5.46028e-06
5.50413e-06
5.55161e-06
5.60417e-06
5.66216e-06
5.72616e-06
5.7984e-06
5.88009e-06
5.974e-06
6.08075e-06
6.2057e-06
6.35073e-06
6.52492e-06
6.73472e-06
6.99399e-06
7.32346e-06
7.74586e-06
8.3222e-06
9.08813e-06
1.01558e-05
1.15887e-05
1.34411e-05
1.57601e-05
1.85624e-05
2.18445e-05
2.57372e-05
2.98875e-05
3.52243e-05
5.1405e-06
5.14206e-06
5.14416e-06
5.1466e-06
5.14866e-06
5.15054e-06
5.15299e-06
5.15539e-06
5.15812e-06
5.16036e-06
5.16226e-06
5.16398e-06
5.16626e-06
5.16797e-06
5.17025e-06
5.17233e-06
5.17518e-06
5.17798e-06
5.18124e-06
5.1853e-06
5.18938e-06
5.19312e-06
5.19778e-06
5.20357e-06
5.21115e-06
5.21992e-06
5.23041e-06
5.24234e-06
5.25603e-06
5.27135e-06
5.28861e-06
5.30736e-06
5.32805e-06
5.35072e-06
5.37557e-06
5.40267e-06
5.43226e-06
5.46441e-06
5.49933e-06
5.53733e-06
5.57896e-06
5.62459e-06
5.6746e-06
5.72968e-06
5.79079e-06
5.85878e-06
5.935e-06
6.02085e-06
6.11868e-06
6.23028e-06
6.35918e-06
6.50917e-06
6.68649e-06
6.89943e-06
7.15986e-06
7.48741e-06
7.90567e-06
8.45903e-06
9.19357e-06
1.01846e-05
1.1495e-05
1.31892e-05
1.53065e-05
1.78725e-05
2.09021e-05
2.43711e-05
2.83493e-05
3.25815e-05
3.77224e-05
5.2645e-06
5.26535e-06
5.26678e-06
5.26859e-06
5.27127e-06
5.27464e-06
5.27828e-06
5.28192e-06
5.28573e-06
5.28949e-06
5.29318e-06
5.29668e-06
5.30021e-06
5.30353e-06
5.30705e-06
5.31071e-06
5.31468e-06
5.31893e-06
5.32368e-06
5.32895e-06
5.3347e-06
5.34105e-06
5.3482e-06
5.35639e-06
5.36584e-06
5.37659e-06
5.38874e-06
5.40231e-06
5.41751e-06
5.43437e-06
5.45307e-06
5.47365e-06
5.49628e-06
5.5212e-06
5.54854e-06
5.57848e-06
5.61133e-06
5.64732e-06
5.68677e-06
5.73004e-06
5.77768e-06
5.83024e-06
5.8883e-06
5.95262e-06
6.02419e-06
6.10428e-06
6.1943e-06
6.29622e-06
6.4124e-06
6.54601e-06
6.70115e-06
6.8837e-06
7.102e-06
7.3678e-06
7.69901e-06
8.12011e-06
8.66738e-06
9.38725e-06
1.03383e-05
1.15817e-05
1.31684e-05
1.51406e-05
1.75115e-05
2.02977e-05
2.34915e-05
2.70795e-05
3.11093e-05
3.53294e-05
4.03358e-05
5.42357e-06
5.42312e-06
5.42325e-06
5.4287e-06
5.4309e-06
5.429e-06
5.43014e-06
5.43328e-06
5.43746e-06
5.44211e-06
5.44697e-06
5.45189e-06
5.4569e-06
5.46194e-06
5.46711e-06
5.47248e-06
5.47811e-06
5.48414e-06
5.49073e-06
5.49791e-06
5.50576e-06
5.51438e-06
5.52389e-06
5.53445e-06
5.54619e-06
5.55927e-06
5.57368e-06
5.58956e-06
5.60709e-06
5.6264e-06
5.64767e-06
5.67105e-06
5.69675e-06
5.72502e-06
5.75606e-06
5.7901e-06
5.82753e-06
5.86869e-06
5.91399e-06
5.96391e-06
6.01904e-06
6.08006e-06
6.14776e-06
6.22301e-06
6.30704e-06
6.40138e-06
6.50795e-06
6.62921e-06
6.76841e-06
6.92992e-06
7.11969e-06
7.34618e-06
7.62124e-06
7.96202e-06
8.39223e-06
8.94482e-06
9.66162e-06
1.05933e-05
1.17911e-05
1.33022e-05
1.51567e-05
1.73781e-05
1.99646e-05
2.29286e-05
2.62492e-05
2.99226e-05
3.39526e-05
3.81264e-05
4.28942e-05
5.6164e-06
5.61579e-06
5.62034e-06
5.62237e-06
5.62157e-06
5.62694e-06
5.62408e-06
5.622e-06
5.62309e-06
5.62665e-06
5.63171e-06
5.63755e-06
5.64382e-06
5.65036e-06
5.65714e-06
5.6643e-06
5.67191e-06
5.68003e-06
5.68874e-06
5.69813e-06
5.70829e-06
5.71932e-06
5.73137e-06
5.74452e-06
5.75898e-06
5.77476e-06
5.79196e-06
5.81075e-06
5.83132e-06
5.85385e-06
5.87854e-06
5.90561e-06
5.93532e-06
5.96795e-06
6.00375e-06
6.04304e-06
6.08626e-06
6.13387e-06
6.18637e-06
6.24436e-06
6.30856e-06
6.37981e-06
6.45912e-06
6.54766e-06
6.64698e-06
6.75911e-06
6.88668e-06
7.03312e-06
7.20308e-06
7.40286e-06
7.64118e-06
7.93018e-06
8.2867e-06
8.73373e-06
9.30157e-06
1.00282e-05
1.0957e-05
1.21324e-05
1.35927e-05
1.53671e-05
1.74685e-05
1.9908e-05
2.26736e-05
2.57766e-05
2.91821e-05
3.28938e-05
3.68671e-05
4.0933e-05
4.52878e-05
5.84428e-06
5.84435e-06
5.84625e-06
5.84836e-06
5.84918e-06
5.85224e-06
5.8528e-06
5.86249e-06
5.86113e-06
5.85982e-06
5.8606e-06
5.86427e-06
5.86983e-06
5.87676e-06
5.88474e-06
5.89354e-06
5.90306e-06
5.9133e-06
5.92428e-06
5.93607e-06
5.94877e-06
5.96249e-06
5.97733e-06
5.99346e-06
6.01095e-06
6.02986e-06
6.05036e-06
6.07263e-06
6.09689e-06
6.12333e-06
6.15223e-06
6.18382e-06
6.21845e-06
6.25643e-06
6.29804e-06
6.34375e-06
6.39406e-06
6.44955e-06
6.51085e-06
6.57874e-06
6.65413e-06
6.73812e-06
6.83206e-06
6.93759e-06
7.05681e-06
7.19259e-06
7.34869e-06
7.53014e-06
7.74369e-06
7.99857e-06
8.30725e-06
8.68662e-06
9.15887e-06
9.7523e-06
1.05008e-05
1.14421e-05
1.26132e-05
1.40464e-05
1.57641e-05
1.77803e-05
2.0096e-05
2.27152e-05
2.56188e-05
2.88185e-05
3.22634e-05
3.59614e-05
3.98115e-05
4.36797e-05
4.73367e-05
6.11676e-06
6.11705e-06
6.12258e-06
6.127e-06
6.12997e-06
6.13242e-06
6.13284e-06
6.13885e-06
6.14918e-06
6.14663e-06
6.15238e-06
6.14759e-06
6.14806e-06
6.1527e-06
6.16005e-06
6.16941e-06
6.18024e-06
6.19226e-06
6.20539e-06
6.2196e-06
6.23495e-06
6.25152e-06
6.26943e-06
6.28881e-06
6.30966e-06
6.33213e-06
6.35644e-06
6.38277e-06
6.41136e-06
6.44248e-06
6.47642e-06
6.51348e-06
6.55408e-06
6.59858e-06
6.64735e-06
6.701e-06
6.76015e-06
6.82553e-06
6.89799e-06
6.97857e-06
7.06849e-06
7.16926e-06
7.28282e-06
7.4115e-06
7.55839e-06
7.72767e-06
7.92489e-06
8.15741e-06
8.43503e-06
8.77072e-06
9.18138e-06
9.68847e-06
1.03182e-05
1.11007e-05
1.20681e-05
1.32512e-05
1.46755e-05
1.63593e-05
1.83121e-05
2.05371e-05
2.30287e-05
2.57863e-05
2.87853e-05
3.2037e-05
3.54716e-05
3.90917e-05
4.27357e-05
4.62229e-05
4.88059e-05
6.43503e-06
6.43789e-06
6.44245e-06
6.44766e-06
6.45829e-06
6.46597e-06
6.47107e-06
6.47492e-06
6.47597e-06
6.49619e-06
6.49595e-06
6.49109e-06
6.48926e-06
6.49125e-06
6.49688e-06
6.50548e-06
6.51648e-06
6.52946e-06
6.54414e-06
6.56041e-06
6.57823e-06
6.59763e-06
6.61874e-06
6.64147e-06
6.66598e-06
6.69245e-06
6.72108e-06
6.75213e-06
6.78585e-06
6.82257e-06
6.86263e-06
6.90641e-06
6.95442e-06
7.00711e-06
7.065e-06
7.12886e-06
7.19952e-06
7.27797e-06
7.36538e-06
7.46317e-06
7.57314e-06
7.69745e-06
7.83895e-06
8.00115e-06
8.18862e-06
8.40757e-06
8.66604e-06
8.97448e-06
9.3463e-06
9.79832e-06
1.03511e-05
1.10284e-05
1.18568e-05
1.28629e-05
1.40714e-05
1.55024e-05
1.71695e-05
1.90797e-05
2.12334e-05
2.3628e-05
2.62535e-05
2.91063e-05
3.21556e-05
3.54102e-05
3.87743e-05
4.22303e-05
4.55377e-05
4.83129e-05
4.96348e-05
6.82398e-06
6.82853e-06
6.83394e-06
6.84116e-06
6.85714e-06
6.86726e-06
6.88587e-06
6.88266e-06
6.88717e-06
6.88748e-06
6.91544e-06
6.92433e-06
6.91619e-06
6.91229e-06
6.91398e-06
6.92023e-06
6.93014e-06
6.94301e-06
6.95842e-06
6.97616e-06
6.99609e-06
7.01821e-06
7.04233e-06
7.06856e-06
7.09706e-06
7.128e-06
7.16164e-06
7.19826e-06
7.23817e-06
7.28177e-06
7.32948e-06
7.38182e-06
7.4394e-06
7.50284e-06
7.57289e-06
7.65057e-06
7.73706e-06
7.83373e-06
7.9423e-06
8.06487e-06
8.20409e-06
8.36323e-06
8.5465e-06
8.75921e-06
9.00796e-06
9.30158e-06
9.6511e-06
1.00702e-05
1.05752e-05
1.11854e-05
1.1922e-05
1.28073e-05
1.38631e-05
1.51084e-05
1.65583e-05
1.82223e-05
2.01048e-05
2.22055e-05
2.45196e-05
2.70406e-05
2.97561e-05
3.26573e-05
3.57076e-05
3.89056e-05
4.21177e-05
4.52808e-05
4.80149e-05
4.94479e-05
4.98239e-05
7.30941e-06
7.31451e-06
7.32146e-06
7.32952e-06
7.35078e-06
7.36383e-06
7.39205e-06
7.39507e-06
7.38945e-06
7.41102e-06
7.41887e-06
7.42768e-06
7.45568e-06
7.44748e-06
7.44089e-06
7.44044e-06
7.44607e-06
7.45675e-06
7.47163e-06
7.49038e-06
7.51238e-06
7.53716e-06
7.56467e-06
7.59495e-06
7.62816e-06
7.66451e-06
7.70431e-06
7.74791e-06
7.79572e-06
7.84825e-06
7.90607e-06
7.96991e-06
8.04057e-06
8.11891e-06
8.2061e-06
8.30359e-06
8.41308e-06
8.53664e-06
8.67685e-06
8.83686e-06
9.02064e-06
9.23308e-06
9.48024e-06
9.76966e-06
1.01103e-05
1.05135e-05
1.09927e-05
1.15636e-05
1.22433e-05
1.30501e-05
1.40021e-05
1.51163e-05
1.64067e-05
1.7884e-05
1.95546e-05
2.14204e-05
2.348e-05
2.57285e-05
2.81579e-05
3.07594e-05
3.35167e-05
3.64138e-05
3.94064e-05
4.24642e-05
4.53991e-05
4.80602e-05
4.94764e-05
4.98577e-05
4.97254e-05
7.9158e-06
7.9223e-06
7.92946e-06
7.93809e-06
7.95056e-06
7.96258e-06
7.9751e-06
7.98571e-06
7.99358e-06
8.00713e-06
8.02335e-06
8.05069e-06
8.07333e-06
8.11451e-06
8.10827e-06
8.10251e-06
8.10199e-06
8.10824e-06
8.12091e-06
8.1392e-06
8.16232e-06
8.18975e-06
8.22115e-06
8.25647e-06
8.29577e-06
8.3393e-06
8.3874e-06
8.44055e-06
8.49932e-06
8.56442e-06
8.63667e-06
8.71712e-06
8.80694e-06
8.90743e-06
9.02043e-06
9.14807e-06
9.29291e-06
9.45809e-06
9.64743e-06
9.86559e-06
1.01182e-05
1.0412e-05
1.07552e-05
1.11571e-05
1.16289e-05
1.21825e-05
1.28318e-05
1.35923e-05
1.44782e-05
1.55038e-05
1.66817e-05
1.80219e-05
1.95311e-05
2.1213e-05
2.30683e-05
2.50937e-05
2.72847e-05
2.96334e-05
3.21287e-05
3.47603e-05
3.75028e-05
4.03339e-05
4.31864e-05
4.59682e-05
4.84365e-05
4.98023e-05
5.0112e-05
5.00232e-05
4.88097e-05
8.68321e-06
8.69048e-06
8.69848e-06
8.70777e-06
8.71834e-06
8.72967e-06
8.74092e-06
8.75269e-06
8.76394e-06
8.77765e-06
8.79149e-06
8.81078e-06
8.83055e-06
8.85272e-06
8.86935e-06
8.88311e-06
8.89714e-06
8.91338e-06
8.93363e-06
8.95826e-06
8.98749e-06
9.02139e-06
9.06007e-06
9.1037e-06
9.15259e-06
9.20714e-06
9.26795e-06
9.33571e-06
9.41131e-06
9.49583e-06
9.59054e-06
9.69701e-06
9.81701e-06
9.95265e-06
1.01067e-05
1.02822e-05
1.0483e-05
1.07136e-05
1.09792e-05
1.12861e-05
1.16415e-05
1.20536e-05
1.25317e-05
1.3086e-05
1.37274e-05
1.44673e-05
1.53172e-05
1.6288e-05
1.73891e-05
1.86312e-05
2.00207e-05
2.15612e-05
2.32542e-05
2.50987e-05
2.70918e-05
2.92267e-05
3.14974e-05
3.38925e-05
3.63987e-05
3.90008e-05
4.16564e-05
4.43446e-05
4.69061e-05
4.92173e-05
5.03545e-05
5.06234e-05
5.03019e-05
4.93798e-05
4.58832e-05
9.67093e-06
9.68015e-06
9.68974e-06
9.70033e-06
9.71145e-06
9.72308e-06
9.73537e-06
9.74874e-06
9.76272e-06
9.77795e-06
9.79415e-06
9.81281e-06
9.83355e-06
9.85595e-06
9.87919e-06
9.90248e-06
9.92737e-06
9.95494e-06
9.98612e-06
1.00216e-05
1.0062e-05
1.01078e-05
1.01595e-05
1.02175e-05
1.02828e-05
1.03559e-05
1.0438e-05
1.05301e-05
1.06337e-05
1.07505e-05
1.08824e-05
1.10317e-05
1.12012e-05
1.13938e-05
1.16135e-05
1.18644e-05
1.21516e-05
1.24807e-05
1.2858e-05
1.32906e-05
1.37863e-05
1.43534e-05
1.50006e-05
1.5737e-05
1.65714e-05
1.75124e-05
1.85677e-05
1.97441e-05
2.10471e-05
2.24802e-05
2.40457e-05
2.57427e-05
2.75695e-05
2.95237e-05
3.15989e-05
3.37851e-05
3.60773e-05
3.84562e-05
4.09099e-05
4.34013e-05
4.58806e-05
4.83047e-05
5.02784e-05
5.12741e-05
5.13428e-05
5.08864e-05
4.94239e-05
4.67042e-05
3.92899e-05
1.09679e-05
1.0981e-05
1.09943e-05
1.10086e-05
1.10234e-05
1.10388e-05
1.1055e-05
1.10724e-05
1.1091e-05
1.11111e-05
1.11331e-05
1.11575e-05
1.1184e-05
1.12127e-05
1.12439e-05
1.12778e-05
1.1315e-05
1.13564e-05
1.14028e-05
1.14549e-05
1.15136e-05
1.15797e-05
1.1654e-05
1.17375e-05
1.18315e-05
1.19372e-05
1.20562e-05
1.21903e-05
1.23416e-05
1.25125e-05
1.27057e-05
1.29243e-05
1.31718e-05
1.34523e-05
1.37702e-05
1.41304e-05
1.45385e-05
1.50002e-05
1.55219e-05
1.61102e-05
1.67719e-05
1.75139e-05
1.8343e-05
1.92657e-05
2.02879e-05
2.14149e-05
2.26511e-05
2.39998e-05
2.54627e-05
2.70403e-05
2.87318e-05
3.05329e-05
3.24405e-05
3.44436e-05
3.65352e-05
3.87058e-05
4.09529e-05
4.32398e-05
4.55614e-05
4.7817e-05
5.00346e-05
5.1622e-05
5.22655e-05
5.22276e-05
5.14326e-05
5.01064e-05
4.56351e-05
4.01422e-05
3.19116e-05
1.27199e-05
1.27408e-05
1.27621e-05
1.27845e-05
1.28075e-05
1.28315e-05
1.28568e-05
1.28837e-05
1.29121e-05
1.29426e-05
1.29755e-05
1.30115e-05
1.30509e-05
1.30943e-05
1.31419e-05
1.31946e-05
1.3253e-05
1.33183e-05
1.33912e-05
1.34729e-05
1.35643e-05
1.36668e-05
1.37816e-05
1.39102e-05
1.40542e-05
1.42155e-05
1.43963e-05
1.45987e-05
1.48255e-05
1.50796e-05
1.53641e-05
1.56824e-05
1.60383e-05
1.6436e-05
1.68798e-05
1.73745e-05
1.79248e-05
1.85359e-05
1.9213e-05
1.99612e-05
2.07856e-05
2.16911e-05
2.26824e-05
2.37634e-05
2.49376e-05
2.62078e-05
2.75758e-05
2.90422e-05
3.06065e-05
3.22665e-05
3.40196e-05
3.5858e-05
3.7778e-05
3.97622e-05
4.18034e-05
4.38849e-05
4.60062e-05
4.81051e-05
5.01717e-05
5.20379e-05
5.31944e-05
5.35258e-05
5.30586e-05
5.23287e-05
4.98886e-05
4.59584e-05
3.74756e-05
3.18063e-05
2.51039e-05
1.51852e-05
1.52224e-05
1.52599e-05
1.52989e-05
1.53389e-05
1.53804e-05
1.5424e-05
1.54701e-05
1.55193e-05
1.55721e-05
1.56292e-05
1.56912e-05
1.57588e-05
1.58328e-05
1.5914e-05
1.60032e-05
1.61016e-05
1.62103e-05
1.63305e-05
1.64635e-05
1.66107e-05
1.67734e-05
1.69533e-05
1.7152e-05
1.73715e-05
1.76138e-05
1.78811e-05
1.81759e-05
1.85006e-05
1.88583e-05
1.92517e-05
1.9684e-05
2.01586e-05
2.06791e-05
2.12492e-05
2.18727e-05
2.25536e-05
2.32957e-05
2.4103e-05
2.49794e-05
2.59282e-05
2.69529e-05
2.80563e-05
2.92406e-05
3.05076e-05
3.18581e-05
3.32919e-05
3.48079e-05
3.64037e-05
3.80744e-05
3.98167e-05
4.16168e-05
4.34731e-05
4.53558e-05
4.72656e-05
4.91695e-05
5.10496e-05
5.28282e-05
5.43109e-05
5.49302e-05
5.48755e-05
5.41534e-05
5.28555e-05
4.98781e-05
4.43594e-05
3.6749e-05
2.87873e-05
2.5034e-05
2.10219e-05
1.88615e-05
1.89319e-05
1.90037e-05
1.9078e-05
1.91545e-05
1.92336e-05
1.93162e-05
1.94028e-05
1.94942e-05
1.95911e-05
1.96942e-05
1.98042e-05
1.99222e-05
2.00488e-05
2.01851e-05
2.03321e-05
2.04907e-05
2.06623e-05
2.0848e-05
2.10491e-05
2.1267e-05
2.1503e-05
2.17586e-05
2.20355e-05
2.23353e-05
2.26599e-05
2.30114e-05
2.33918e-05
2.38034e-05
2.42488e-05
2.47305e-05
2.5251e-05
2.58135e-05
2.64209e-05
2.70763e-05
2.77829e-05
2.85439e-05
2.93623e-05
3.02413e-05
3.11834e-05
3.21913e-05
3.32669e-05
3.44119e-05
3.56272e-05
3.69129e-05
3.82684e-05
3.96919e-05
4.11808e-05
4.27295e-05
4.43311e-05
4.59825e-05
4.76572e-05
4.9363e-05
5.10462e-05
5.27231e-05
5.43208e-05
5.5772e-05
5.65896e-05
5.66262e-05
5.61082e-05
5.52076e-05
5.30511e-05
4.91727e-05
4.26474e-05
3.46472e-05
2.71814e-05
2.23625e-05
2.0469e-05
1.64231e-05
2.47812e-05
2.49058e-05
2.50313e-05
2.51587e-05
2.52878e-05
2.54191e-05
2.55533e-05
2.56911e-05
2.58334e-05
2.59807e-05
2.61338e-05
2.62934e-05
2.64605e-05
2.66357e-05
2.68199e-05
2.70141e-05
2.72192e-05
2.74363e-05
2.76664e-05
2.79108e-05
2.81706e-05
2.84473e-05
2.87421e-05
2.90567e-05
2.93926e-05
2.97516e-05
3.01356e-05
3.05466e-05
3.09868e-05
3.14584e-05
3.19637e-05
3.25055e-05
3.30862e-05
3.37088e-05
3.43759e-05
3.50903e-05
3.58547e-05
3.66715e-05
3.75431e-05
3.84714e-05
3.94578e-05
4.05036e-05
4.1609e-05
4.27737e-05
4.39963e-05
4.52746e-05
4.66051e-05
4.7983e-05
4.93977e-05
5.08417e-05
5.23128e-05
5.3754e-05
5.52072e-05
5.65678e-05
5.78545e-05
5.85789e-05
5.85361e-05
5.8209e-05
5.731e-05
5.56924e-05
5.25277e-05
4.7556e-05
4.04324e-05
3.20739e-05
2.48355e-05
2.03401e-05
1.81357e-05
1.55083e-05
1.2451e-05
3.42847e-05
3.44309e-05
3.45778e-05
3.4726e-05
3.48724e-05
3.5017e-05
3.51607e-05
3.53046e-05
3.54496e-05
3.55965e-05
3.57462e-05
3.58994e-05
3.60569e-05
3.62192e-05
3.63872e-05
3.65618e-05
3.67438e-05
3.69345e-05
3.71349e-05
3.73463e-05
3.75701e-05
3.78077e-05
3.80606e-05
3.83304e-05
3.86189e-05
3.89279e-05
3.92592e-05
3.96148e-05
3.99968e-05
4.04075e-05
4.08491e-05
4.13244e-05
4.18359e-05
4.23861e-05
4.29776e-05
4.36129e-05
4.42941e-05
4.50231e-05
4.58013e-05
4.66299e-05
4.75094e-05
4.84401e-05
4.94206e-05
5.04487e-05
5.15214e-05
5.26355e-05
5.37847e-05
5.49599e-05
5.61397e-05
5.73291e-05
5.85128e-05
5.95687e-05
6.06482e-05
6.10383e-05
6.0958e-05
6.04327e-05
5.95218e-05
5.80093e-05
5.53322e-05
5.10206e-05
4.49472e-05
3.73168e-05
2.89371e-05
2.21053e-05
1.79044e-05
1.59978e-05
1.27088e-05
9.99759e-06
1.03713e-05
4.7831e-05
4.78914e-05
4.79536e-05
4.80171e-05
4.80804e-05
4.8143e-05
4.82049e-05
4.82663e-05
4.83275e-05
4.83887e-05
4.84503e-05
4.8513e-05
4.85755e-05
4.86374e-05
4.87002e-05
4.87654e-05
4.88343e-05
4.89084e-05
4.89892e-05
4.90782e-05
4.91768e-05
4.92865e-05
4.94091e-05
4.95463e-05
4.96997e-05
4.98713e-05
5.00623e-05
5.02736e-05
5.05082e-05
5.07688e-05
5.10581e-05
5.13787e-05
5.17335e-05
5.21245e-05
5.25544e-05
5.30254e-05
5.35388e-05
5.40952e-05
5.46949e-05
5.53383e-05
5.60252e-05
5.67557e-05
5.7523e-05
5.83237e-05
5.91566e-05
6.00149e-05
6.08884e-05
6.17514e-05
6.25714e-05
6.34156e-05
6.38921e-05
6.38376e-05
6.35925e-05
6.28579e-05
6.17984e-05
6.02041e-05
5.76036e-05
5.36537e-05
4.80411e-05
4.10377e-05
3.3113e-05
2.51843e-05
1.8781e-05
1.5338e-05
1.30847e-05
9.85277e-06
8.01739e-06
8.32999e-06
9.67941e-06
6.46103e-05
6.44976e-05
6.43855e-05
6.42733e-05
6.416e-05
6.40454e-05
6.39294e-05
6.38123e-05
6.3694e-05
6.35748e-05
6.34549e-05
6.33348e-05
6.32148e-05
6.30953e-05
6.29767e-05
6.28601e-05
6.27462e-05
6.26363e-05
6.25312e-05
6.24319e-05
6.23395e-05
6.22553e-05
6.21809e-05
6.21177e-05
6.20675e-05
6.20312e-05
6.20077e-05
6.19886e-05
6.19933e-05
6.20242e-05
6.20826e-05
6.21699e-05
6.22921e-05
6.24464e-05
6.264e-05
6.2872e-05
6.31413e-05
6.34442e-05
6.37818e-05
6.4156e-05
6.4566e-05
6.50117e-05
6.54672e-05
6.594e-05
6.64507e-05
6.69526e-05
6.74515e-05
6.75895e-05
6.74858e-05
6.70669e-05
6.63784e-05
6.53783e-05
6.4087e-05
6.21814e-05
5.93869e-05
5.52908e-05
5.00019e-05
4.31014e-05
3.55788e-05
2.77474e-05
2.07046e-05
1.49263e-05
1.22459e-05
9.57747e-06
7.43542e-06
6.35593e-06
6.70921e-06
8.05679e-06
1.3678e-05
8.32899e-05
8.29448e-05
8.26022e-05
8.22606e-05
8.1918e-05
8.15736e-05
8.12271e-05
8.08784e-05
8.05275e-05
8.01744e-05
7.98193e-05
7.94626e-05
7.91047e-05
7.87462e-05
7.83875e-05
7.80294e-05
7.76727e-05
7.7318e-05
7.69658e-05
7.6612e-05
7.62586e-05
7.59079e-05
7.55622e-05
7.52236e-05
7.48943e-05
7.45765e-05
7.42719e-05
7.39812e-05
7.37074e-05
7.34607e-05
7.32324e-05
7.30172e-05
7.28719e-05
7.27128e-05
7.26261e-05
7.2562e-05
7.25156e-05
7.24727e-05
7.24574e-05
7.24817e-05
7.25338e-05
7.26064e-05
7.261e-05
7.2518e-05
7.22441e-05
7.18488e-05
7.1111e-05
7.02132e-05
6.91335e-05
6.78102e-05
6.60573e-05
6.36199e-05
6.02871e-05
5.58688e-05
5.02962e-05
4.35979e-05
3.61818e-05
2.84282e-05
2.15241e-05
1.52877e-05
1.08955e-05
8.31693e-06
6.26011e-06
5.21065e-06
4.89489e-06
5.29575e-06
6.58883e-06
1.14301e-05
1.94561e-05
0.00010185
0.000101272
0.000100696
0.00010012
9.95412e-05
9.89593e-05
9.83736e-05
9.77837e-05
9.71894e-05
9.65907e-05
9.59877e-05
9.53807e-05
9.47701e-05
9.41557e-05
9.35376e-05
9.29164e-05
9.22927e-05
9.16647e-05
9.10295e-05
9.03889e-05
8.97449e-05
8.90994e-05
8.84544e-05
8.78119e-05
8.71738e-05
8.6542e-05
8.59185e-05
8.53049e-05
8.47045e-05
8.41213e-05
8.35571e-05
8.30137e-05
8.24962e-05
8.20009e-05
8.15317e-05
8.1089e-05
8.06368e-05
8.01684e-05
7.96444e-05
7.90447e-05
7.83552e-05
7.75478e-05
7.65646e-05
7.55315e-05
7.43817e-05
7.30608e-05
7.1494e-05
6.95384e-05
6.7005e-05
6.37722e-05
5.96619e-05
5.45974e-05
4.86582e-05
4.18671e-05
3.46168e-05
2.73173e-05
2.02775e-05
1.43231e-05
9.69624e-06
6.74258e-06
4.86979e-06
3.89944e-06
3.39144e-06
3.52331e-06
4.09603e-06
5.33283e-06
8.45803e-06
1.40459e-05
2.26052e-05
0.000117945
0.000117173
0.000116399
0.000115622
0.00011484
0.000114051
0.000113254
0.00011245
0.000111637
0.000110816
0.000109986
0.000109148
0.000108302
0.000107441
0.000106565
0.000105676
0.000104776
0.000103866
0.000102948
0.000102021
0.000101088
0.000100149
9.9205e-05
9.82571e-05
9.73065e-05
9.63545e-05
9.54009e-05
9.44513e-05
9.35057e-05
9.25591e-05
9.16063e-05
9.06409e-05
8.96552e-05
8.86388e-05
8.75815e-05
8.64539e-05
8.52915e-05
8.40896e-05
8.28274e-05
8.14767e-05
8.00163e-05
7.83948e-05
7.65992e-05
7.45109e-05
7.20005e-05
6.90435e-05
6.54443e-05
6.11666e-05
5.61873e-05
5.04755e-05
4.41281e-05
3.7458e-05
3.06494e-05
2.37212e-05
1.73209e-05
1.1853e-05
8.11865e-06
5.57966e-06
3.90917e-06
2.88069e-06
2.21806e-06
2.15198e-06
2.31614e-06
2.90051e-06
3.97199e-06
5.66127e-06
9.19331e-06
1.6153e-05
2.42274e-05
0.000128323
0.000127413
0.000126498
0.00012558
0.000124649
0.0001237
0.000122735
0.000121752
0.000120753
0.000119738
0.000118708
0.000117661
0.000116599
0.000115522
0.000114428
0.000113319
0.000112193
0.000111052
0.000109895
0.000108723
0.000107536
0.000106335
0.000105118
0.000103886
0.000102641
0.000101384
0.000100111
9.88073e-05
9.74696e-05
9.6095e-05
9.46783e-05
9.3212e-05
9.16844e-05
9.00843e-05
8.8389e-05
8.65908e-05
8.46432e-05
8.25134e-05
8.01668e-05
7.75534e-05
7.46462e-05
7.1365e-05
6.76682e-05
6.35162e-05
5.88277e-05
5.37125e-05
4.81264e-05
4.21516e-05
3.62912e-05
2.99422e-05
2.39819e-05
1.81074e-05
1.27502e-05
8.90778e-06
6.17671e-06
4.24453e-06
2.89888e-06
1.98364e-06
1.4279e-06
1.1573e-06
1.16851e-06
1.38856e-06
1.89407e-06
2.23879e-06
2.55323e-06
4.3964e-06
8.67933e-06
1.49088e-05
2.39984e-05
0.000125375
0.000124423
0.000123456
0.000122474
0.000121479
0.000120467
0.000119439
0.000118392
0.000117327
0.000116243
0.00011514
0.000114017
0.000112873
0.00011171
0.000110526
0.00010932
0.000108092
0.00010684
0.000105565
0.000104266
0.000102941
0.00010159
0.000100216
9.88115e-05
9.73921e-05
9.59083e-05
9.43488e-05
9.27019e-05
9.0946e-05
8.90578e-05
8.70095e-05
8.47765e-05
8.23257e-05
7.96398e-05
7.66874e-05
7.34695e-05
6.99723e-05
6.62189e-05
6.22295e-05
5.80253e-05
5.36705e-05
4.91797e-05
4.46149e-05
3.99657e-05
3.52228e-05
3.03766e-05
2.55244e-05
2.08619e-05
1.60185e-05
1.1688e-05
8.31339e-06
5.7812e-06
3.98316e-06
2.73617e-06
1.84813e-06
1.19769e-06
7.86377e-07
5.46885e-07
4.44816e-07
5.06797e-07
7.3838e-07
9.62791e-07
1.11696e-06
1.05903e-06
9.07021e-07
1.69546e-06
4.45175e-06
9.87413e-06
1.85982e-05
9.85452e-05
9.76361e-05
9.67046e-05
9.57509e-05
9.47748e-05
9.37774e-05
9.27594e-05
9.17163e-05
9.0655e-05
8.95685e-05
8.84591e-05
8.73251e-05
8.61678e-05
8.49889e-05
8.37889e-05
8.25645e-05
8.13154e-05
8.00406e-05
7.87334e-05
7.7404e-05
7.60309e-05
7.46358e-05
7.31917e-05
7.16917e-05
7.00949e-05
6.84334e-05
6.67081e-05
6.49154e-05
6.30566e-05
6.11337e-05
5.91486e-05
5.71076e-05
5.50103e-05
5.28563e-05
5.06463e-05
4.83678e-05
4.60025e-05
4.35159e-05
4.08852e-05
3.80437e-05
3.49484e-05
3.15166e-05
2.77629e-05
2.36369e-05
1.93933e-05
1.51348e-05
1.09058e-05
7.34419e-06
4.79388e-06
3.08104e-06
1.9659e-06
1.26344e-06
8.30931e-07
5.40272e-07
3.37979e-07
1.98443e-07
1.49784e-07
1.40322e-07
1.77099e-07
2.65942e-07
3.74139e-07
4.37684e-07
4.5083e-07
3.27452e-07
1.99541e-07
2.78426e-07
6.5914e-07
1.78774e-06
4.62464e-06
5.30366e-05
5.31948e-05
5.42059e-05
5.45549e-05
5.48592e-05
5.5748e-05
5.62038e-05
5.65231e-05
5.75617e-05
5.79516e-05
5.82776e-05
5.81685e-05
5.79904e-05
5.84892e-05
5.86463e-05
5.9492e-05
5.96221e-05
6.04218e-05
6.05415e-05
6.12466e-05
6.15627e-05
6.15064e-05
6.14043e-05
6.12529e-05
6.10392e-05
6.07484e-05
6.0364e-05
5.98671e-05
5.92371e-05
5.84507e-05
5.7483e-05
5.63049e-05
5.48908e-05
5.31953e-05
5.12052e-05
4.88719e-05
4.61665e-05
4.30493e-05
3.95031e-05
3.55129e-05
3.10909e-05
2.62967e-05
2.11944e-05
1.60884e-05
1.09506e-05
6.23399e-06
2.72696e-06
8.93774e-07
3.35741e-07
2.54888e-07
2.39977e-07
2.24025e-07
2.01581e-07
1.83738e-07
1.73543e-07
1.79281e-07
1.88717e-07
1.8787e-07
1.7149e-07
1.48248e-07
1.23724e-07
1.01096e-07
8.33372e-08
6.70213e-08
5.70467e-08
5.5515e-08
9.13828e-08
3.28552e-07
7.35567e-07
5.13407e-06
5.1313e-06
5.12707e-06
5.12155e-06
5.11675e-06
5.10943e-06
5.10266e-06
5.09463e-06
5.08958e-06
5.08461e-06
5.07533e-06
5.07187e-06
5.06981e-06
5.06752e-06
5.05696e-06
5.04585e-06
5.04651e-06
5.043e-06
5.0354e-06
5.02684e-06
5.03256e-06
5.03968e-06
5.0269e-06
5.02274e-06
5.01157e-06
5.00049e-06
5.00559e-06
5.0085e-06
5.01258e-06
5.00911e-06
5.00648e-06
5.00682e-06
5.00872e-06
5.00196e-06
4.99975e-06
4.99371e-06
4.99369e-06
4.99182e-06
4.98929e-06
4.99031e-06
4.98043e-06
4.98154e-06
4.97884e-06
4.97464e-06
4.9758e-06
4.96974e-06
4.96143e-06
4.9594e-06
4.95686e-06
4.95184e-06
4.9443e-06
4.94065e-06
4.94066e-06
4.94231e-06
4.9464e-06
4.949e-06
4.95178e-06
4.95176e-06
4.95066e-06
5.24459e-06
5.24006e-06
5.23328e-06
5.22694e-06
5.21989e-06
5.21223e-06
5.20532e-06
5.19866e-06
5.19354e-06
5.18738e-06
5.18029e-06
5.17622e-06
5.16933e-06
5.16038e-06
5.1466e-06
5.14151e-06
5.14121e-06
5.13486e-06
5.12529e-06
5.12318e-06
5.12783e-06
5.12827e-06
5.11382e-06
5.1099e-06
5.09531e-06
5.08786e-06
5.09224e-06
5.09634e-06
5.09676e-06
5.09203e-06
5.09157e-06
5.09158e-06
5.09195e-06
5.08575e-06
5.08395e-06
5.07934e-06
5.07699e-06
5.07571e-06
5.07421e-06
5.07336e-06
5.0682e-06
5.06576e-06
5.06374e-06
5.061e-06
5.05998e-06
5.0582e-06
5.05402e-06
5.04925e-06
5.04663e-06
5.0435e-06
5.03901e-06
5.03349e-06
5.02871e-06
5.02752e-06
5.02838e-06
5.02954e-06
5.03192e-06
5.03346e-06
5.03546e-06
5.37236e-06
5.36643e-06
5.35873e-06
5.35191e-06
5.34447e-06
5.33742e-06
5.33079e-06
5.32424e-06
5.31765e-06
5.30984e-06
5.30163e-06
5.29323e-06
5.28203e-06
5.2709e-06
5.26106e-06
5.25971e-06
5.25475e-06
5.24436e-06
5.23687e-06
5.23698e-06
5.23925e-06
5.23491e-06
5.21891e-06
5.21379e-06
5.19783e-06
5.19282e-06
5.19651e-06
5.2008e-06
5.19828e-06
5.19292e-06
5.19382e-06
5.19299e-06
5.19213e-06
5.18674e-06
5.18487e-06
5.18115e-06
5.17795e-06
5.17615e-06
5.17493e-06
5.17399e-06
5.17095e-06
5.16805e-06
5.16587e-06
5.16422e-06
5.16265e-06
5.16185e-06
5.15999e-06
5.15762e-06
5.15497e-06
5.15147e-06
5.14708e-06
5.14254e-06
5.13842e-06
5.13432e-06
5.13418e-06
5.13337e-06
5.134e-06
5.13588e-06
5.13794e-06
5.52422e-06
5.51782e-06
5.50975e-06
5.50262e-06
5.49493e-06
5.48743e-06
5.4796e-06
5.47122e-06
5.46204e-06
5.45181e-06
5.44102e-06
5.42958e-06
5.41773e-06
5.4081e-06
5.40107e-06
5.39732e-06
5.3871e-06
5.37658e-06
5.37221e-06
5.3729e-06
5.37239e-06
5.3607e-06
5.34449e-06
5.33738e-06
5.32115e-06
5.31827e-06
5.32115e-06
5.32454e-06
5.3197e-06
5.31402e-06
5.3153e-06
5.31357e-06
5.31193e-06
5.30724e-06
5.30527e-06
5.30213e-06
5.29875e-06
5.29639e-06
5.29497e-06
5.29414e-06
5.29239e-06
5.28991e-06
5.28787e-06
5.2867e-06
5.28553e-06
5.28504e-06
5.28454e-06
5.28417e-06
5.28323e-06
5.28151e-06
5.27958e-06
5.27577e-06
5.27059e-06
5.26639e-06
5.26261e-06
5.26252e-06
5.2625e-06
5.26333e-06
5.26326e-06
5.70688e-06
5.69978e-06
5.69067e-06
5.68235e-06
5.67315e-06
5.66367e-06
5.6534e-06
5.64239e-06
5.6306e-06
5.61825e-06
5.60579e-06
5.59365e-06
5.58269e-06
5.57386e-06
5.56611e-06
5.5579e-06
5.54563e-06
5.53751e-06
5.5351e-06
5.5337e-06
5.52677e-06
5.51005e-06
5.49405e-06
5.48473e-06
5.46904e-06
5.46767e-06
5.4694e-06
5.47136e-06
5.46466e-06
5.45875e-06
5.45972e-06
5.45719e-06
5.45498e-06
5.45078e-06
5.44874e-06
5.44604e-06
5.44282e-06
5.44022e-06
5.43857e-06
5.43784e-06
5.43696e-06
5.43536e-06
5.43374e-06
5.43295e-06
5.43273e-06
5.4329e-06
5.43328e-06
5.43152e-06
5.43211e-06
5.43437e-06
5.43193e-06
5.43182e-06
5.43023e-06
5.42841e-06
5.42668e-06
5.42569e-06
5.42476e-06
5.42231e-06
5.42076e-06
5.92507e-06
5.91643e-06
5.9053e-06
5.89484e-06
5.88325e-06
5.87123e-06
5.85845e-06
5.84519e-06
5.83159e-06
5.81804e-06
5.80495e-06
5.79272e-06
5.78168e-06
5.77154e-06
5.76114e-06
5.74988e-06
5.73835e-06
5.73224e-06
5.72868e-06
5.72219e-06
5.70852e-06
5.68882e-06
5.67289e-06
5.66148e-06
5.64683e-06
5.64616e-06
5.64659e-06
5.64675e-06
5.63834e-06
5.63218e-06
5.63241e-06
5.62916e-06
5.62639e-06
5.62249e-06
5.62038e-06
5.61806e-06
5.61521e-06
5.61265e-06
5.61093e-06
5.61028e-06
5.61025e-06
5.6094e-06
5.60858e-06
5.60793e-06
5.60669e-06
5.6072e-06
5.60777e-06
5.6116e-06
5.60999e-06
5.6102e-06
5.61097e-06
5.61322e-06
5.61743e-06
5.61812e-06
5.61803e-06
5.61579e-06
5.6163e-06
5.61603e-06
5.61527e-06
6.18519e-06
6.17449e-06
6.16087e-06
6.14801e-06
6.13401e-06
6.11972e-06
6.10493e-06
6.09001e-06
6.07513e-06
6.0606e-06
6.04665e-06
6.03338e-06
6.02067e-06
6.0081e-06
5.99532e-06
5.98295e-06
5.97247e-06
5.9657e-06
5.9578e-06
5.94479e-06
5.92555e-06
5.90424e-06
5.88793e-06
5.87471e-06
5.86127e-06
5.86054e-06
5.85951e-06
5.8572e-06
5.84736e-06
5.8408e-06
5.83998e-06
5.83602e-06
5.83265e-06
5.82891e-06
5.82674e-06
5.82474e-06
5.82236e-06
5.82008e-06
5.81849e-06
5.81808e-06
5.81753e-06
5.81906e-06
5.8183e-06
5.81985e-06
5.81974e-06
5.81809e-06
5.81852e-06
5.82003e-06
5.82731e-06
5.82861e-06
5.82656e-06
5.82784e-06
5.83096e-06
5.83651e-06
5.83844e-06
5.84343e-06
5.8441e-06
5.84031e-06
5.84384e-06
6.49835e-06
6.4855e-06
6.46936e-06
6.45418e-06
6.43793e-06
6.42157e-06
6.4049e-06
6.38827e-06
6.37178e-06
6.35561e-06
6.33981e-06
6.32438e-06
6.30921e-06
6.29427e-06
6.27985e-06
6.26668e-06
6.25525e-06
6.2446e-06
6.23032e-06
6.21084e-06
6.18751e-06
6.16521e-06
6.14799e-06
6.13329e-06
6.12085e-06
6.11927e-06
6.11616e-06
6.11112e-06
6.09999e-06
6.09282e-06
6.09066e-06
6.08596e-06