/*--------------------------------*- C++ -*----------------------------------*\
| =========                 |                                                 |
| \\      /  F ield         | OpenFOAM: The Open Source CFD Toolbox           |
|  \\    /   O peration     | Version:  2312                                  |
|   \\  /    A nd           | Website:  www.openfoam.com                      |
|    \\/     M anipulation  |                                                 |
\*---------------------------------------------------------------------------*/
FoamFile
{
    version     2.0;
    format      ascii;
    arch        "LSB;label=32;scalar=64";
    class       volScalarField;
    location    "1300";
    object      nut;
}
// * * * * * * * * * * * * * * * * * * * * * * * * * * * * * * * * * * * * * //

dimensions      [0 2 -1 0 0 0 0];

internalField   nonuniform List<scalar> 
76025
(
0.000169909
0.000169947
0.000169948
0.000169871
0.000169939
0.000169991
0.000170019
0.000170047
0.000170034
0.000170043
0.000170144
0.000170212
0.000170249
0.000170231
0.000170313
0.000170354
0.000170405
0.000170517
0.000170523
0.000170519
0.000170582
0.000170642
0.000170764
0.000170923
0.000171135
0.000171302
0.000171592
0.000171816
0.000172135
0.000172434
0.000172796
0.000173119
0.000173576
0.000173989
0.000174478
0.000174958
0.000175497
0.000176115
0.00017673
0.000177383
0.000178058
0.000178811
0.000179613
0.000180443
0.000181316
0.000182259
0.000183266
0.000184371
0.000185603
0.000186925
0.000188471
0.000190191
0.000192201
0.000194445
0.000197342
0.000200611
0.000204697
0.000209953
0.000216371
0.000225905
0.000237315
0.0002543
0.000276554
0.000302855
0.000334045
0.000363034
0.000392789
0.000415202
0.000437811
0.000171354
0.00017142
0.000171511
0.000171672
0.000171742
0.000171825
0.000171888
0.000171932
0.000172054
0.000172153
0.000172251
0.000172313
0.00017245
0.000172543
0.000172523
0.000172508
0.000172698
0.000172808
0.000172749
0.000172962
0.000173057
0.000172908
0.000172888
0.00017304
0.000173252
0.000173461
0.000173715
0.000173981
0.000174279
0.000174605
0.000174964
0.00017533
0.000175744
0.000176179
0.000176652
0.00017716
0.0001777
0.00017828
0.000178892
0.000179546
0.000180254
0.000181006
0.000181814
0.000182682
0.000183632
0.00018467
0.000185802
0.000187065
0.000188473
0.000190073
0.000191864
0.000193937
0.00019631
0.000199128
0.000202482
0.000206587
0.000211744
0.00021833
0.000227178
0.000238868
0.000254498
0.000274692
0.00029885
0.000325862
0.000355059
0.000381767
0.00040832
0.000424759
0.000441234
0.000173172
0.000173216
0.000173271
0.000173318
0.000173395
0.00017353
0.000173621
0.000173737
0.000173852
0.000173891
0.000173949
0.000174014
0.000174089
0.000174146
0.000174214
0.000174273
0.000174363
0.000174519
0.000174663
0.000174802
0.000174819
0.000174882
0.000175081
0.000175295
0.000175527
0.000175768
0.000176031
0.000176312
0.000176618
0.000176948
0.000177308
0.000177691
0.000178107
0.000178555
0.00017904
0.000179562
0.000180126
0.000180733
0.000181386
0.00018209
0.000182853
0.000183681
0.00018458
0.000185559
0.000186634
0.000187817
0.000189128
0.000190585
0.000192226
0.000194074
0.000196183
0.000198609
0.00020144
0.000204812
0.000208882
0.000213985
0.000220408
0.000228897
0.000239882
0.000254495
0.000272756
0.000295154
0.000320388
0.000347275
0.000374894
0.000398254
0.00042032
0.000431009
0.000438165
0.000175262
0.000175278
0.000175292
0.000175328
0.00017535
0.000175457
0.00017561
0.000175671
0.000175786
0.000175894
0.000176031
0.000176092
0.000176244
0.000176364
0.000176438
0.000176528
0.000176513
0.000176685
0.000176839
0.000177012
0.000176989
0.000177093
0.000177226
0.000177559
0.000177901
0.000178246
0.000178581
0.000178916
0.000179263
0.000179627
0.000180015
0.00018043
0.000180875
0.000181357
0.000181878
0.00018244
0.000183051
0.000183712
0.000184429
0.000185208
0.000186057
0.000186983
0.000187996
0.000189106
0.000190327
0.000191679
0.000193181
0.000194861
0.000196754
0.000198906
0.000201377
0.000204255
0.000207662
0.000211779
0.000216864
0.000223294
0.000231543
0.000242286
0.000256018
0.000273434
0.000294035
0.000317957
0.000343097
0.000368774
0.000393247
0.000412056
0.000428943
0.000432318
0.000431449
0.000177991
0.000178013
0.000178022
0.000178161
0.000178109
0.000177997
0.000178013
0.000178118
0.000178143
0.000178261
0.000178437
0.000178565
0.000178671
0.000178808
0.000178953
0.000179095
0.000179187
0.000179166
0.000179411
0.000179639
0.000179878
0.000180121
0.000180364
0.000180644
0.000180952
0.00018128
0.000181624
0.000181983
0.00018236
0.00018276
0.000183186
0.000183643
0.000184133
0.000184663
0.000185236
0.000185857
0.000186531
0.000187263
0.000188061
0.000188931
0.000189882
0.000190923
0.000192066
0.000193323
0.000194712
0.000196255
0.000197979
0.000199919
0.000202124
0.000204656
0.000207603
0.000211091
0.000215294
0.000220469
0.000226948
0.000235201
0.000245711
0.00025908
0.000275491
0.000295217
0.000317207
0.000341432
0.000365161
0.000388522
0.000408594
0.000422094
0.000433013
0.000428053
0.000419029
0.000181203
0.000181185
0.000181331
0.000181369
0.000181368
0.000181543
0.000181439
0.000181365
0.000181186
0.000181221
0.000181405
0.000181624
0.000181807
0.000181953
0.000182024
0.000181976
0.000182111
0.000182415
0.000182703
0.000182982
0.000183258
0.000183541
0.000183832
0.000184139
0.000184467
0.000184814
0.000185181
0.00018557
0.000185983
0.000186423
0.000186895
0.0001874
0.000187945
0.000188534
0.00018917
0.000189861
0.000190611
0.000191429
0.000192321
0.000193297
0.000194366
0.00019554
0.000196835
0.000198266
0.000199855
0.000201632
0.000203634
0.000205911
0.00020853
0.000211583
0.000215199
0.000219556
0.000224895
0.000231541
0.000239889
0.000250402
0.000263465
0.0002794
0.000298
0.000319127
0.00034133
0.000364601
0.000385617
0.000405637
0.000419917
0.000427509
0.000431527
0.000417132
0.000399667
0.000184744
0.000184754
0.000184826
0.00018494
0.000184889
0.000184959
0.000184924
0.000185279
0.000185223
0.000185149
0.000185144
0.000185151
0.000185281
0.00018526
0.000185527
0.000185765
0.000186015
0.000186288
0.000186573
0.000186866
0.000187167
0.000187479
0.000187804
0.000188145
0.000188505
0.000188886
0.000189289
0.000189718
0.000190174
0.000190663
0.000191186
0.000191749
0.000192356
0.000193013
0.000193725
0.000194497
0.000195338
0.000196256
0.00019726
0.000198362
0.000199574
0.000200912
0.000202395
0.000204045
0.000205894
0.000207981
0.000210362
0.000213108
0.000216318
0.000220125
0.000224708
0.000230305
0.000237215
0.000245797
0.000256417
0.000269411
0.000284908
0.000302873
0.000322734
0.000344059
0.000365164
0.000386178
0.000403185
0.000418865
0.000425893
0.000427347
0.000423184
0.000398392
0.000373279
0.000188904
0.000188908
0.000189081
0.000189176
0.000189251
0.000189367
0.000189412
0.000189438
0.000189705
0.000189688
0.000189899
0.00018958
0.000189503
0.000189585
0.000189523
0.000189865
0.000190234
0.000190593
0.00019094
0.000191282
0.000191626
0.000191978
0.000192343
0.000192725
0.000193126
0.000193549
0.000193997
0.000194474
0.000194983
0.000195528
0.000196114
0.000196745
0.000197427
0.000198166
0.000198967
0.000199839
0.000200792
0.000201835
0.00020298
0.000204243
0.00020564
0.000207193
0.000208929
0.00021088
0.000213091
0.000215622
0.000218551
0.000221984
0.000226061
0.000230963
0.000236919
0.000244205
0.000253128
0.000263986
0.000277002
0.000292258
0.000309575
0.000328587
0.000348475
0.000368649
0.000387299
0.00040476
0.000416498
0.000426865
0.0004252
0.000420718
0.000406362
0.000371224
0.000339861
0.000193664
0.000193645
0.00019383
0.000193977
0.000194265
0.000194487
0.000194448
0.000194481
0.000194563
0.000195193
0.000195201
0.00019498
0.00019489
0.000194536
0.000194517
0.000194653
0.000195117
0.00019556
0.000195967
0.00019636
0.000196751
0.000197148
0.000197559
0.000197987
0.000198435
0.000198908
0.00019941
0.000199944
0.000200517
0.000201131
0.000201792
0.000202507
0.000203281
0.000204123
0.000205039
0.00020604
0.000207137
0.000208346
0.000209681
0.000211163
0.000212817
0.000214673
0.00021677
0.000219159
0.000221904
0.000225093
0.000228838
0.000233284
0.000238611
0.000245038
0.000252807
0.000262171
0.000273348
0.000286474
0.000301532
0.000318322
0.000336398
0.000355172
0.000373698
0.000391317
0.000406167
0.000418804
0.000424074
0.000428172
0.000416597
0.000406639
0.000379263
0.000336239
0.000298914
0.000199118
0.000199091
0.000199285
0.000199493
0.000199977
0.000200076
0.000200661
0.000200335
0.000200418
0.00020046
0.000200998
0.000201149
0.000200965
0.000200873
0.000200438
0.000200434
0.000200812
0.000201317
0.000201807
0.000202272
0.000202726
0.000203181
0.000203644
0.000204125
0.000204628
0.00020516
0.000205725
0.00020633
0.000206979
0.000207679
0.000208436
0.000209257
0.000210151
0.000211126
0.000212194
0.000213369
0.000214665
0.000216104
0.000217707
0.000219505
0.000221533
0.000223838
0.000226478
0.000229526
0.000233072
0.000237239
0.000242173
0.000248046
0.000255054
0.000263401
0.000273276
0.000284815
0.000298064
0.00031293
0.000329158
0.00034632
0.000363803
0.0003809
0.000396628
0.000410296
0.000420056
0.000426628
0.000424364
0.000421266
0.000399099
0.000383733
0.000340942
0.000293745
0.000252505
0.000205734
0.000205883
0.000206101
0.000206286
0.000206899
0.000206934
0.00020763
0.000207773
0.000207629
0.000208214
0.000208341
0.000208508
0.000209196
0.000208873
0.000208365
0.000208117
0.000208004
0.000208156
0.00020808
0.000208733
0.000209308
0.000210029
0.000210682
0.000211305
0.000211923
0.000212556
0.000213218
0.000213921
0.000214675
0.000215489
0.000216373
0.000217337
0.000218393
0.000219554
0.000220835
0.000222256
0.00022384
0.000225616
0.000227618
0.000229891
0.000232489
0.000235477
0.000238937
0.000242971
0.000247693
0.000253242
0.000259777
0.000267462
0.000276447
0.000286849
0.000298724
0.000312033
0.00032662
0.000342188
0.000358308
0.000374413
0.000389817
0.000403763
0.000415283
0.000423653
0.000427137
0.000426451
0.000415874
0.000404684
0.000372038
0.000350104
0.000290839
0.000249439
0.000198371
0.000214214
0.000214355
0.000214525
0.000214687
0.00021495
0.000215038
0.000214956
0.000215197
0.000215475
0.000215844
0.000216244
0.000216879
0.000217399
0.000218325
0.000217944
0.000217466
0.000217062
0.000216944
0.000216474
0.000216636
0.000217005
0.00021807
0.000219044
0.000219893
0.000220688
0.000221473
0.000222279
0.000223125
0.00022403
0.000225008
0.000226075
0.000227246
0.000228539
0.000229973
0.000231572
0.000233366
0.000235389
0.000237684
0.000240303
0.000243307
0.00024677
0.00025078
0.000255437
0.000260852
0.000267148
0.000274439
0.00028284
0.000292453
0.000303313
0.0003154
0.000328608
0.000342725
0.000357432
0.000372301
0.000386808
0.000400327
0.000412158
0.000421527
0.000427511
0.000429349
0.000425525
0.000416509
0.000397363
0.000377111
0.000335123
0.00030224
0.000237853
0.000202048
0.000148435
0.000224299
0.000224299
0.000224409
0.000224575
0.000224782
0.000224979
0.000225138
0.000225332
0.000225549
0.000225716
0.000225849
0.000226188
0.00022657
0.000227002
0.000227265
0.000227389
0.000227493
0.00022698
0.000227332
0.000227751
0.000228329
0.000229065
0.00022988
0.000230735
0.000231622
0.000232546
0.00023352
0.000234559
0.000235682
0.000236906
0.000238252
0.000239744
0.000241407
0.000243271
0.000245373
0.000247755
0.000250467
0.000253567
0.000257123
0.000261209
0.000265912
0.000271322
0.000277531
0.000284629
0.000292694
0.000301779
0.000311904
0.000323036
0.000335082
0.000347899
0.000361242
0.000374776
0.000388089
0.00040069
0.00041203
0.000421464
0.000428319
0.000431809
0.000431079
0.000425342
0.000413404
0.00039536
0.00036796
0.000337692
0.000285724
0.000247299
0.000186709
0.000155243
0.000107201
0.000236587
0.000236684
0.000236791
0.000236916
0.000237033
0.000237057
0.00023688
0.000237217
0.00023753
0.000237802
0.000237883
0.000237655
0.000237896
0.00023855
0.000239125
0.000239421
0.000239724
0.000239995
0.000240424
0.000240999
0.000241705
0.000242523
0.000243432
0.000244419
0.000245479
0.000246618
0.000247847
0.000249183
0.000250647
0.000252264
0.000254062
0.000256073
0.000258334
0.000260887
0.00026378
0.000267067
0.000270807
0.000275064
0.000279907
0.000285405
0.000291626
0.000298628
0.00030646
0.000315147
0.000324685
0.000335032
0.0003461
0.000357749
0.000369779
0.000381928
0.000393874
0.000405225
0.000415543
0.000424326
0.000431043
0.00043504
0.000435701
0.000432201
0.000423835
0.000409768
0.000389318
0.000362329
0.000327025
0.000283475
0.000231891
0.000191208
0.000140259
0.000111824
6.72776e-05
0.000251849
0.000252021
0.000252189
0.00025236
0.000252525
0.000252668
0.000252788
0.000252988
0.000253242
0.000253522
0.000253784
0.000254025
0.00025434
0.000254761
0.000255252
0.000255724
0.000256213
0.00025675
0.000257378
0.00025812
0.000258984
0.000259971
0.000261079
0.000262308
0.000263664
0.000265157
0.000266803
0.000268624
0.000270645
0.000272898
0.000275417
0.000278241
0.000281412
0.000284976
0.000288982
0.00029348
0.000298518
0.000304145
0.000310402
0.000317321
0.000324921
0.000333202
0.000342141
0.000351685
0.000361746
0.0003722
0.000382876
0.000393562
0.000403998
0.000413872
0.000422834
0.000430471
0.000436351
0.000439953
0.000440817
0.000438275
0.000431793
0.000420481
0.000403957
0.000381228
0.000352834
0.000315835
0.000271572
0.000223629
0.000179003
0.00013896
9.85884e-05
7.05977e-05
4.27475e-05
0.000271187
0.000271456
0.000271727
0.000272005
0.000272286
0.000272568
0.000272857
0.000273173
0.000273521
0.000273903
0.000274314
0.000274757
0.000275252
0.000275812
0.000276445
0.000277139
0.000277902
0.000278749
0.0002797
0.000280775
0.000281989
0.000283355
0.000284884
0.00028659
0.000288485
0.000290588
0.000292918
0.000295501
0.000298363
0.000301533
0.000305045
0.00030893
0.00031322
0.000317947
0.000323142
0.000328827
0.000335021
0.000341731
0.000348955
0.000356672
0.000364845
0.000373415
0.000382296
0.000391378
0.000400515
0.000409533
0.000418221
0.000426332
0.000433584
0.000439649
0.00044418
0.000446761
0.000446991
0.000444363
0.000438492
0.000428652
0.00041443
0.000394957
0.000370304
0.000339587
0.000301048
0.000257065
0.000210496
0.000168253
0.000128461
9.34435e-05
6.01601e-05
4.15779e-05
2.7975e-05
0.000296522
0.000296966
0.000297418
0.000297887
0.00029837
0.00029887
0.000299393
0.000299948
0.000300545
0.00030119
0.00030189
0.000302652
0.000303488
0.000304408
0.000305422
0.00030654
0.000307772
0.00030913
0.000310631
0.000312289
0.000314121
0.000316141
0.000318365
0.000320808
0.000323484
0.000326409
0.0003296
0.000333074
0.000336848
0.000340938
0.000345359
0.000350123
0.00035524
0.000360716
0.000366548
0.000372727
0.000379236
0.000386043
0.000393104
0.000400361
0.000407735
0.000415128
0.000422421
0.000429471
0.000436106
0.000442131
0.00044732
0.000451417
0.000454135
0.000455149
0.000454129
0.000450663
0.000444404
0.000434875
0.000421746
0.000404263
0.000382172
0.000354983
0.000322319
0.000282196
0.000238968
0.000195003
0.000154251
0.000117023
8.2888e-05
5.44281e-05
3.46971e-05
2.6085e-05
2.03735e-05
0.00033173
0.000332535
0.000333363
0.000334225
0.000335119
0.000336049
0.000337023
0.000338047
0.00033913
0.000340279
0.000341503
0.000342809
0.000344208
0.000345707
0.000347318
0.000349048
0.000350909
0.000352909
0.000355059
0.00035737
0.000359851
0.000362511
0.000365359
0.000368402
0.000371648
0.000375103
0.00037877
0.000382654
0.000386756
0.000391075
0.000395607
0.000400344
0.000405274
0.000410379
0.000415635
0.000421007
0.000426454
0.00043192
0.000437337
0.000442625
0.000447685
0.000452401
0.000456637
0.000460237
0.000463021
0.000464784
0.000465299
0.000464309
0.000461529
0.000456648
0.000449367
0.000439281
0.000426143
0.000409507
0.00038903
0.000364186
0.000334912
0.000299164
0.00025865
0.000216657
0.000176552
0.000137696
0.000102995
7.18792e-05
4.66985e-05
2.9998e-05
2.138e-05
1.81489e-05
1.4599e-05
0.000385014
0.000386318
0.00038764
0.000388989
0.000390363
0.000391765
0.000393201
0.000394677
0.000396197
0.000397768
0.000399394
0.00040108
0.000402833
0.000404656
0.000406556
0.000408537
0.000410604
0.000412761
0.000415012
0.000417361
0.000419811
0.000422363
0.000425019
0.000427779
0.000430641
0.000433603
0.00043666
0.000439804
0.000443026
0.000446314
0.000449651
0.000453016
0.000456385
0.000459726
0.000463001
0.000466164
0.000469159
0.000471918
0.000474362
0.000476398
0.000477917
0.000478796
0.00047889
0.000478036
0.000476049
0.000472724
0.000467836
0.00046113
0.000452325
0.000441159
0.000427377
0.000410593
0.000390731
0.000367321
0.000340171
0.000307283
0.000269392
0.000230369
0.000191607
0.000154185
0.000118593
8.70329e-05
6.02087e-05
3.87495e-05
2.47991e-05
1.77516e-05
1.46792e-05
1.25763e-05
1.07411e-05
0.000461085
0.000462299
0.000463516
0.000464738
0.000465947
0.00046714
0.000468322
0.000469499
0.000470674
0.000471851
0.000473032
0.00047422
0.000475415
0.000476619
0.000477832
0.000479055
0.000480289
0.000481534
0.00048279
0.000484058
0.000485336
0.000486621
0.000487911
0.000489201
0.000490485
0.000491753
0.000492996
0.000494196
0.00049534
0.000496405
0.000497371
0.00049821
0.000498889
0.000499371
0.00049961
0.000499553
0.000499135
0.000498281
0.000496903
0.000494901
0.000492159
0.000488551
0.000483919
0.0004781
0.000470902
0.000462137
0.000451585
0.000438995
0.000424104
0.000406819
0.000386869
0.000363931
0.000338147
0.000306873
0.000271895
0.000235074
0.00019862
0.000162847
0.000129267
9.75635e-05
7.03081e-05
4.80338e-05
3.07547e-05
1.97361e-05
1.41746e-05
1.19057e-05
9.59436e-06
7.83992e-06
1.00705e-05
0.000545992
0.000546085
0.000546167
0.000546235
0.000546277
0.000546289
0.000546269
0.000546216
0.000546126
0.000545999
0.000545832
0.000545623
0.000545365
0.000545047
0.000544674
0.000544244
0.000543758
0.000543216
0.000542617
0.000541958
0.000541236
0.000540446
0.000539579
0.000538627
0.000537579
0.000536422
0.000535134
0.000533684
0.00053206
0.000530244
0.00052821
0.000525928
0.000523364
0.000520472
0.000517206
0.000513506
0.000509299
0.000504497
0.000499006
0.000492719
0.000485518
0.000477279
0.000467816
0.000456982
0.000444599
0.000430528
0.000414548
0.000396406
0.000375967
0.000353588
0.000327121
0.00029701
0.000264308
0.000230549
0.000196609
0.000163254
0.00013204
0.000102156
7.59465e-05
5.34785e-05
3.60211e-05
2.30819e-05
1.47618e-05
1.10234e-05
9.00611e-06
6.87084e-06
5.87224e-06
7.47145e-06
1.15944e-05
0.000613803
0.000612378
0.000610909
0.000609392
0.000607822
0.000606195
0.000604509
0.000602761
0.000600948
0.000599067
0.000597113
0.000595084
0.000592976
0.000590783
0.000588503
0.000586132
0.000583664
0.000581105
0.000578455
0.000575699
0.000572826
0.000569823
0.000566678
0.000563375
0.000559898
0.000556222
0.000552301
0.000548022
0.000543512
0.000538748
0.000533688
0.000528284
0.000522531
0.000516334
0.00050968
0.000502484
0.000494653
0.00048607
0.000476647
0.000466291
0.000454892
0.000442328
0.000428324
0.000412874
0.000395891
0.000377232
0.000356721
0.000332689
0.000306351
0.000277599
0.00024708
0.000216318
0.000184964
0.000155167
0.000126622
9.90191e-05
7.58532e-05
5.43112e-05
3.77563e-05
2.49886e-05
1.5905e-05
1.03205e-05
8.02778e-06
6.15707e-06
4.83315e-06
4.36974e-06
5.83803e-06
8.78271e-06
1.81446e-05
0.000644073
0.000641196
0.000638274
0.000635298
0.000632255
0.000629139
0.000625943
0.000622664
0.000619297
0.000615836
0.000612277
0.000608616
0.000604847
0.000600967
0.000596969
0.000592847
0.000588597
0.000584212
0.000579682
0.000574979
0.000570093
0.000565019
0.000559744
0.000554258
0.000548546
0.00054259
0.000536368
0.000529844
0.000522999
0.000515858
0.000508308
0.000500257
0.000492031
0.000482994
0.00047365
0.000463586
0.000452694
0.000440802
0.000427982
0.000414193
0.000399309
0.000383157
0.000365249
0.000345568
0.000323466
0.000300139
0.000274131
0.000247277
0.000220017
0.000192042
0.000164586
0.000137997
0.000112445
8.93318e-05
6.86681e-05
5.02477e-05
3.56709e-05
2.38473e-05
1.55289e-05
9.92461e-06
6.7355e-06
5.06652e-06
3.82831e-06
3.22982e-06
3.20372e-06
4.4988e-06
6.86005e-06
1.42486e-05
2.84229e-05
0.000621565
0.000617792
0.000613954
0.000610044
0.000606053
0.000601974
0.000597801
0.00059353
0.000589156
0.000584673
0.000580077
0.000575362
0.000570525
0.000565557
0.000560451
0.0005552
0.000549797
0.000544226
0.000538461
0.000532496
0.000526321
0.000519929
0.000513307
0.000506442
0.000499319
0.000491919
0.00048422
0.000476192
0.000467808
0.000459043
0.000449853
0.000440188
0.000430011
0.000419235
0.000407806
0.000395648
0.00038251
0.000368284
0.000352772
0.000335801
0.000317467
0.000297543
0.00027612
0.000253979
0.000230452
0.000207345
0.000182727
0.000158833
0.000135444
0.0001123
9.15861e-05
7.2572e-05
5.59548e-05
4.17008e-05
2.97747e-05
2.01861e-05
1.31136e-05
8.38516e-06
5.49162e-06
3.82079e-06
2.7974e-06
2.28459e-06
2.04243e-06
2.2566e-06
3.48095e-06
5.4869e-06
9.45414e-06
1.73392e-05
3.22962e-05
0.000539976
0.000536005
0.000531957
0.000527829
0.000523615
0.000519308
0.000514905
0.000510401
0.000505793
0.000501075
0.000496244
0.000491294
0.000486221
0.000480998
0.000475617
0.000470075
0.000464367
0.000458486
0.000452425
0.000446172
0.000439717
0.00043305
0.000426157
0.000419023
0.000411629
0.000403953
0.000395955
0.000387609
0.000378861
0.00036964
0.000359866
0.000349458
0.000338329
0.000326389
0.000313553
0.000299687
0.0002849
0.000269155
0.000252487
0.000234742
0.000216307
0.00019687
0.000177145
0.000157221
0.00013664
0.000117756
9.8202e-05
8.12179e-05
6.5645e-05
5.1251e-05
3.98759e-05
2.98139e-05
2.15728e-05
1.47232e-05
9.40596e-06
6.06745e-06
4.09587e-06
2.85654e-06
2.06079e-06
1.57641e-06
1.28695e-06
1.35326e-06
1.63005e-06
2.56392e-06
4.38402e-06
6.25317e-06
9.90391e-06
1.84957e-05
3.24417e-05
0.00040018
0.000396806
0.000393369
0.000389868
0.000386288
0.000382619
0.00037886
0.00037501
0.000371069
0.000367033
0.0003629
0.000358665
0.000354325
0.000349872
0.000345301
0.000340605
0.000335776
0.000330809
0.000325692
0.000320424
0.000314985
0.000309375
0.000303581
0.000297573
0.000291334
0.000284819
0.000277927
0.000270538
0.000262597
0.000254058
0.00024487
0.00023499
0.000224368
0.000212985
0.000200809
0.000187882
0.000174213
0.000159865
0.000145066
0.000129857
0.000114764
9.97453e-05
8.53744e-05
7.18609e-05
5.92445e-05
4.84108e-05
3.8398e-05
3.02354e-05
2.34595e-05
1.72739e-05
1.30125e-05
8.77548e-06
5.62748e-06
3.84934e-06
2.70815e-06
1.92684e-06
1.37093e-06
9.99733e-07
8.12673e-07
7.75154e-07
9.27838e-07
1.34511e-06
2.25746e-06
3.02686e-06
3.22874e-06
4.20403e-06
7.48798e-06
1.33101e-05
2.53754e-05
0.000223285
0.000221188
0.000219046
0.000216861
0.000214633
0.000212361
0.000210043
0.000207677
0.000205262
0.000202794
0.00020027
0.000197685
0.000195038
0.000192323
0.000189539
0.000186677
0.000183738
0.000180714
0.000177591
0.00017439
0.00017105
0.000167638
0.000164094
0.000160317
0.000156349
0.000151887
0.000146894
0.000141357
0.000135253
0.000128578
0.000121333
0.000113562
0.000105306
9.66714e-05
8.77625e-05
7.87341e-05
6.97633e-05
6.10233e-05
5.27069e-05
4.49438e-05
3.78521e-05
3.15668e-05
2.60128e-05
2.12514e-05
1.71459e-05
1.35997e-05
1.0636e-05
8.1375e-06
5.93498e-06
4.15344e-06
2.87446e-06
2.02635e-06
1.46178e-06
1.07516e-06
7.85871e-07
5.70537e-07
4.46764e-07
3.81764e-07
3.756e-07
5.71805e-07
1.07257e-06
1.53417e-06
1.84551e-06
1.65926e-06
1.03251e-06
1.30812e-06
2.87846e-06
6.05532e-06
1.29093e-05
6.76482e-05
6.69274e-05
6.61902e-05
6.54312e-05
6.46542e-05
6.38667e-05
6.30592e-05
6.22395e-05
6.14073e-05
6.05593e-05
5.96924e-05
5.88015e-05
5.78914e-05
5.69573e-05
5.60073e-05
5.50287e-05
5.40307e-05
5.30083e-05
5.19367e-05
5.08882e-05
4.97003e-05
4.86393e-05
4.73146e-05
4.56649e-05
4.36983e-05
4.15083e-05
3.91507e-05
3.66747e-05
3.4133e-05
3.15739e-05
2.90392e-05
2.65704e-05
2.41921e-05
2.1931e-05
1.98003e-05
1.78048e-05
1.59462e-05
1.42152e-05
1.2609e-05
1.11044e-05
9.68898e-06
8.33901e-06
7.04798e-06
5.80056e-06
4.63814e-06
3.55916e-06
2.56512e-06
1.74542e-06
1.16872e-06
7.91597e-07
5.53526e-07
4.0769e-07
3.18907e-07
2.51413e-07
1.89774e-07
1.19335e-07
1.00502e-07
1.13796e-07
1.59783e-07
2.58283e-07
3.9744e-07
4.85126e-07
5.02218e-07
3.3861e-07
1.68368e-07
1.61804e-07
2.69749e-07
6.40479e-07
1.55411e-06
6.19448e-06
6.21458e-06
6.34151e-06
6.38504e-06
6.42961e-06
6.54402e-06
6.60202e-06
6.65045e-06
6.78498e-06
6.84893e-06
6.90433e-06
6.90686e-06
6.90086e-06
6.97664e-06
7.00878e-06
7.1291e-06
7.15937e-06
7.2769e-06
7.30807e-06
7.41813e-06
7.47654e-06
7.49766e-06
7.51449e-06
7.52652e-06
7.53223e-06
7.52986e-06
7.5174e-06
7.49252e-06
7.45262e-06
7.39474e-06
7.31558e-06
7.21122e-06
7.07807e-06
6.90977e-06
6.70392e-06
6.45319e-06
6.15246e-06
5.79471e-06
5.37526e-06
4.88924e-06
4.33466e-06
3.71576e-06
3.03731e-06
2.33872e-06
1.61525e-06
9.32275e-07
4.12494e-07
1.36341e-07
5.15448e-08
3.93576e-08
3.72652e-08
3.49839e-08
3.1655e-08
2.90121e-08
2.75509e-08
2.86129e-08
3.02758e-08
3.02946e-08
2.77924e-08
2.41435e-08
2.02454e-08
1.66185e-08
1.37596e-08
1.11123e-08
9.49619e-09
9.27583e-09
1.532e-08
5.52056e-08
1.23849e-07
0.000172766
0.0001727
0.000172609
0.000172495
0.000172391
0.000172243
0.000172104
0.00017194
0.000171823
0.000171712
0.000171508
0.0001714
0.000171327
0.000171229
0.000170972
0.000170757
0.000170752
0.000170642
0.000170477
0.000170322
0.000170404
0.000170528
0.000170283
0.000170175
0.000169955
0.000169732
0.000169787
0.000169826
0.000169907
0.000169839
0.000169764
0.000169746
0.000169772
0.000169681
0.000169665
0.000169598
0.000169646
0.000169644
0.000169637
0.0001697
0.000169555
0.00016961
0.000169599
0.00016961
0.000169673
0.000169595
0.000169504
0.000169535
0.00016955
0.000169534
0.000169451
0.000169433
0.000169464
0.000169527
0.00016965
0.000169687
0.000169792
0.000169832
0.000169856
0.00017467
0.000174574
0.000174441
0.000174312
0.00017417
0.000174016
0.000173871
0.000173728
0.000173608
0.000173469
0.000173306
0.000173194
0.000173031
0.000172823
0.000172546
0.000172446
0.000172425
0.000172238
0.000172074
0.000172029
0.000172095
0.0001721
0.000171819
0.000171718
0.000171441
0.000171283
0.000171332
0.000171391
0.000171409
0.000171321
0.000171283
0.00017126
0.000171261
0.000171177
0.000171169
0.000171117
0.00017113
0.000171151
0.000171155
0.000171179
0.000171119
0.000171116
0.000171119
0.000171131
0.000171169
0.000171179
0.000171158
0.000171125
0.000171122
0.00017113
0.000171124
0.000171084
0.00017103
0.00017107
0.000171085
0.000171134
0.000171184
0.000171235
0.000171294
0.00017682
0.0001767
0.000176551
0.000176413
0.000176264
0.00017612
0.00017598
0.000175839
0.000175696
0.000175529
0.000175353
0.000175172
0.000174942
0.000174717
0.000174522
0.000174477
0.000174363
0.00017413
0.000174007
0.000173996
0.000174026
0.000173944
0.000173637
0.000173518
0.000173224
0.000173109
0.000173149
0.000173212
0.00017318
0.000173082
0.000173068
0.000173031
0.000173012
0.000172937
0.000172934
0.000172894
0.000172883
0.000172905
0.000172921
0.000172936
0.000172908
0.000172898
0.000172911
0.000172938
0.000172975
0.000172993
0.000172999
0.000173024
0.000173036
0.000173009
0.000172961
0.00017293
0.000172906
0.00017288
0.000172955
0.00017296
0.000172991
0.000173025
0.000173098
0.000179315
0.000179188
0.000179034
0.000178893
0.000178741
0.000178591
0.000178433
0.000178265
0.000178082
0.000177879
0.000177664
0.000177438
0.000177206
0.000177017
0.000176875
0.000176787
0.000176582
0.000176372
0.00017631
0.000176324
0.000176287
0.000176071
0.000175765
0.000175617
0.000175322
0.000175243
0.000175276
0.000175324
0.000175254
0.000175151
0.000175143
0.000175094
0.000175062
0.000174998
0.000174991
0.000174963
0.000174944
0.000174954
0.000174976
0.000174994
0.000174991
0.00017498
0.000174987
0.000175023
0.000175073
0.000175136
0.000175149
0.000175176
0.000175217
0.000175261
0.000175296
0.000175265
0.000175181
0.000175133
0.00017509
0.000175168
0.000175169
0.000175205
0.000175216
0.000182253
0.000182117
0.000181949
0.000181791
0.000181617
0.000181438
0.000181244
0.000181036
0.000180814
0.000180581
0.000180346
0.000180117
0.000179909
0.00017974
0.000179589
0.000179427
0.000179198
0.000179048
0.000179018
0.000178981
0.000178844
0.000178544
0.000178247
0.000178068
0.000177786
0.000177736
0.000177751
0.000177777
0.000177677
0.000177571
0.000177558
0.000177498
0.000177458
0.000177401
0.000177392
0.000177373
0.000177354
0.000177357
0.000177376
0.000177401
0.000177415
0.000177419
0.000177429
0.000177464
0.000177519
0.000177592
0.000177685
0.000177648
0.000177687
0.000177796
0.00017776
0.000177852
0.000177909
0.000177949
0.000177981
0.000178013
0.000178046
0.000178001
0.000177913
0.000185687
0.000185529
0.000185332
0.000185144
0.000184936
0.00018472
0.00018449
0.000184252
0.000184007
0.000183762
0.000183525
0.000183303
0.000183102
0.000182917
0.000182727
0.000182522
0.000182317
0.000182211
0.000182156
0.00018203
0.000181786
0.000181442
0.000181153
0.000180945
0.000180683
0.000180654
0.000180648
0.000180644
0.000180518
0.000180409
0.000180384
0.000180314
0.000180266
0.000180214
0.000180203
0.00018019
0.000180177
0.000180177
0.000180195
0.000180224
0.000180259
0.000180273
0.000180294
0.00018032
0.000180325
0.000180387
0.000180453
0.000180607
0.000180586
0.000180607
0.000180694
0.000180775
0.000180939
0.000180997
0.000181072
0.000181132
0.000181173
0.000181231
0.000181182
0.000189685
0.000189498
0.000189268
0.000189046
0.000188806
0.00018856
0.000188306
0.000188049
0.000187793
0.000187542
0.000187301
0.000187071
0.00018685
0.000186632
0.000186411
0.000186197
0.00018602
0.000185908
0.000185776
0.000185546
0.000185219
0.000184856
0.000184568
0.000184337
0.0001841
0.000184076
0.000184046
0.000184005
0.000183857
0.000183743
0.000183703
0.000183624
0.000183568
0.000183519
0.000183505
0.000183498
0.000183491
0.000183495
0.000183513
0.00018355
0.000183563
0.000183638
0.000183645
0.000183725
0.000183751
0.000183724
0.000183755
0.000183823
0.000184073
0.000184143
0.000184137
0.000184146
0.00018424
0.000184429
0.000184502
0.000184682
0.000184719
0.000184622
0.00018474
0.000194375
0.000194161
0.000193899
0.000193649
0.000193383
0.000193115
0.000192841
0.000192567
0.000192296
0.000192029
0.000191769
0.000191513
0.000191262
0.000191015
0.000190777
0.000190561
0.000190376
0.000190204
0.00018997
0.000189644
0.000189261
0.000188891
0.000188597
0.000188349
0.000188134
0.000188096
0.00018804
0.00018796
0.000187793
0.000187671
0.000187613
0.000187525