/*--------------------------------*- C++ -*----------------------------------*\
| =========                 |                                                 |
| \\      /  F ield         | OpenFOAM: The Open Source CFD Toolbox           |
|  \\    /   O peration     | Version:  2312                                  |
|   \\  /    A nd           | Website:  www.openfoam.com                      |
|    \\/     M anipulation  |                                                 |
\*---------------------------------------------------------------------------*/
FoamFile
{
    version     2.0;
    format      ascii;
    arch        "LSB;label=32;scalar=64";
    class       volScalarField;
    location    "1300";
    object      omega;
}
// * * * * * * * * * * * * * * * * * * * * * * * * * * * * * * * * * * * * * //

dimensions      [0 0 -1 0 0 0 0];

internalField   nonuniform List<scalar> 
76025
(
0.0291357
0.0291185
0.0290971
0.0290834
0.0290656
0.0290666
0.0290602
0.0290504
0.0290326
0.0290186
0.0290078
0.0289971
0.0289855
0.0289668
0.0289546
0.0289381
0.0289275
0.0289214
0.0289122
0.0289052
0.0289006
0.0289057
0.0289035
0.0289055
0.028916
0.0289222
0.0289471
0.0289628
0.0289937
0.0290214
0.029058
0.0290882
0.0291409
0.0291862
0.0292442
0.0293001
0.0293661
0.0294451
0.0295229
0.0296067
0.0296932
0.0297931
0.0299001
0.0300105
0.030127
0.0302546
0.0303909
0.0305418
0.0307124
0.0308979
0.0311184
0.0313679
0.0316632
0.0319939
0.0324253
0.0329017
0.0335053
0.0342297
0.035142
0.0363363
0.0377398
0.0397082
0.0421971
0.0453506
0.0490938
0.053631
0.0588769
0.0658347
0.0743992
0.029402
0.0293999
0.02939
0.029375
0.0293568
0.0293446
0.0293452
0.0293447
0.0293412
0.0293278
0.0293137
0.0292967
0.0292947
0.0292838
0.0292838
0.0292817
0.0292806
0.0292742
0.0292804
0.0292823
0.029281
0.0292897
0.0292963
0.0292895
0.0292919
0.0292976
0.0293133
0.0293327
0.0293588
0.0293903
0.0294275
0.0294657
0.029512
0.0295613
0.0296169
0.0296779
0.0297438
0.029816
0.0298928
0.0299761
0.0300679
0.0301663
0.0302734
0.0303894
0.0305184
0.030661
0.0308186
0.0309966
0.0311985
0.0314301
0.031693
0.0319985
0.0323506
0.0327674
0.0332608
0.033855
0.0345864
0.0354778
0.036633
0.0380467
0.0399053
0.0421879
0.0449762
0.0483643
0.0522799
0.0572195
0.0630319
0.0703634
0.0798313
0.0296844
0.0296859
0.0296885
0.0296946
0.0296933
0.029681
0.0296795
0.0296735
0.0296696
0.0296759
0.0296769
0.0296757
0.0296759
0.0296762
0.0296775
0.0296794
0.0296805
0.02967
0.0296642
0.0296639
0.0296843
0.0296951
0.0296878
0.0296846
0.0296887
0.0296978
0.029713
0.0297334
0.0297594
0.0297904
0.0298273
0.0298684
0.0299149
0.0299667
0.0300244
0.030088
0.030158
0.0302347
0.0303184
0.0304099
0.0305106
0.0306215
0.0307434
0.0308779
0.0310274
0.0311941
0.031381
0.0315914
0.0318306
0.0321025
0.0324145
0.0327738
0.0331935
0.0336866
0.034277
0.0349904
0.0358683
0.0369556
0.0383254
0.0400189
0.0421439
0.0446859
0.047775
0.0514649
0.0557548
0.0611948
0.0674469
0.0755937
0.0860919
0.0300378
0.0300399
0.0300457
0.0300498
0.0300614
0.0300622
0.0300567
0.0300671
0.0300691
0.030072
0.0300696
0.0300791
0.0300732
0.0300715
0.0300788
0.0300842
0.0301092
0.0301041
0.0301046
0.030105
0.0301414
0.0301596
0.0301772
0.0301668
0.0301619
0.0301638
0.0301754
0.0301947
0.030221
0.0302536
0.0302923
0.0303367
0.0303871
0.0304438
0.030507
0.030577
0.0306545
0.0307401
0.0308344
0.0309384
0.0310533
0.0311805
0.0313214
0.0314777
0.0316517
0.0318464
0.0320648
0.0323113
0.0325909
0.03291
0.0332766
0.0337015
0.0341998
0.0347901
0.0355016
0.0363651
0.0374332
0.0387444
0.0403812
0.0423565
0.0447851
0.0476184
0.0510396
0.055041
0.0597374
0.065718
0.0725256
0.0817209
0.0934892
0.030471
0.0304648
0.0304639
0.0304707
0.030492
0.0305006
0.0305041
0.0305038
0.0305231
0.0305288
0.030526
0.0305318
0.0305417
0.0305464
0.0305506
0.0305563
0.030572
0.0306092
0.0306041
0.0306054
0.0306084
0.0306148
0.0306264
0.0306374
0.0306501
0.0306668
0.0306881
0.0307148
0.0307473
0.0307857
0.0308302
0.0308809
0.0309382
0.0310025
0.0310741
0.0311536
0.0312417
0.0313392
0.0314472
0.0315666
0.0316989
0.0318456
0.0320086
0.0321897
0.0323916
0.0326177
0.0328719
0.0331594
0.0334865
0.0338614
0.0342948
0.034801
0.0353992
0.036114
0.0369787
0.0380306
0.039321
0.040888
0.0428004
0.0450591
0.0477818
0.0508977
0.0546735
0.0590149
0.0642428
0.0708908
0.07841
0.0890692
0.102366
0.030995
0.0309948
0.0309949
0.0309997
0.0309954
0.0309951
0.030997
0.0309982
0.0310349
0.0310485
0.0310449
0.0310397
0.0310429
0.0310539
0.0310791
0.0311267
0.0311454
0.031138
0.0311366
0.0311404
0.0311489
0.0311611
0.0311772
0.0311966
0.0312196
0.0312464
0.0312773
0.031313
0.031354
0.0314008
0.0314538
0.0315134
0.0315801
0.0316546
0.0317372
0.0318288
0.0319302
0.0320425
0.0321669
0.0323046
0.0324572
0.0326266
0.0328149
0.0330247
0.033259
0.0335221
0.0338189
0.0341562
0.0345422
0.0349879
0.0355075
0.0361192
0.036847
0.03772
0.0387745
0.0400483
0.0415879
0.0434232
0.0456132
0.0481537
0.0511776
0.054602
0.0587982
0.0635461
0.069495
0.0769428
0.085434
0.0981297
0.113314
0.0316345
0.0316332
0.0316312
0.0316231
0.0316361
0.0316407
0.0316497
0.0316415
0.0316437
0.0316491
0.0316543
0.0316728
0.0316808
0.0317218
0.0317191
0.0317258
0.0317344
0.0317427
0.0317531
0.0317665
0.0317832
0.0318036
0.0318276
0.0318555
0.0318874
0.0319233
0.0319636
0.0320088
0.0320594
0.0321161
0.0321793
0.0322496
0.0323278
0.0324145
0.0325103
0.0326162
0.0327333
0.0328629
0.0330064
0.0331653
0.0333417
0.0335377
0.0337562
0.0340002
0.034274
0.0345828
0.0349335
0.0353348
0.0357977
0.0363365
0.0369692
0.0377179
0.0386099
0.0396762
0.040952
0.0424708
0.0442711
0.0463772
0.0488456
0.051678
0.0550329
0.0588206
0.0635412
0.0688014
0.0757546
0.0841505
0.0940762
0.10964
0.126813
0.0323803
0.032381
0.0323807
0.0323878
0.0323908
0.0323838
0.0323783
0.0324056
0.0324144
0.032404
0.0323981
0.0324275
0.0324431
0.0324534
0.0325029
0.0324937
0.0324875
0.0324895
0.0324992
0.0325153
0.032537
0.0325637
0.032595
0.032631
0.0326712
0.0327159
0.0327656
0.0328207
0.0328816
0.0329491
0.0330238
0.0331063
0.0331975
0.0332983
0.0334093
0.0335319
0.0336674
0.0338174
0.0339835
0.034168
0.0343731
0.0346018
0.0348579
0.0351455
0.0354702
0.035839
0.036261
0.0367477
0.0373131
0.0379746
0.0387533
0.0396735
0.0407629
0.0420505
0.043567
0.0453407
0.0474053
0.0497869
0.0525491
0.0557091
0.0594597
0.0637077
0.0691128
0.075052
0.0834234
0.0929166
0.105167
0.124515
0.143605
0.0332277
0.0332458
0.0332377
0.0332394
0.0332447
0.0332463
0.0332792
0.0332934
0.0332847
0.0332808
0.0332782
0.033291
0.0332971
0.0333678
0.0334001
0.0334208
0.0333978
0.0333885
0.0333941
0.0334102
0.0334344
0.0334653
0.0335025
0.033545
0.0335928
0.033646
0.0337049
0.03377
0.0338419
0.0339211
0.0340084
0.0341046
0.0342108
0.0343279
0.0344569
0.0345995
0.0347573
0.0349322
0.0351266
0.0353432
0.0355853
0.0358567
0.0361624
0.0365083
0.0369016
0.0373516
0.0378698
0.0384703
0.0391695
0.039987
0.0409445
0.0420658
0.043376
0.0449007
0.0466664
0.0487005
0.0510392
0.0537195
0.0568197
0.0603805
0.0646372
0.0694986
0.0758255
0.082701
0.0930741
0.103852
0.120069
0.143686
0.16605
0.0342711
0.0342985
0.0342923
0.0342928
0.0342896
0.0343233
0.0343159
0.0343558
0.0343641
0.0343583
0.0344054
0.0344239
0.0344148
0.0344113
0.0344944
0.0345263
0.0345105
0.034488
0.0344805
0.034489
0.0345101
0.0345417
0.0345815
0.0346287
0.0346827
0.0347437
0.0348117
0.0348871
0.0349705
0.0350626
0.0351642
0.0352764
0.0354003
0.0355372
0.0356885
0.0358561
0.0360424
0.0362499
0.0364816
0.0367412
0.0370332
0.0373628
0.0377366
0.0381623
0.0386488
0.0392076
0.0398522
0.040598
0.0414627
0.0424653
0.0436262
0.0449672
0.0465105
0.0482805
0.0503049
0.0526169
0.0552629
0.0582974
0.0618201
0.0659051
0.0708383
0.0765475
0.0841438
0.0923539
0.105532
0.118001
0.14083
0.168336
0.197318
0.0355285
0.0355276
0.0355237
0.0355309
0.0355284
0.0355854
0.0356021
0.0355921
0.0355896
0.0355932
0.0356093
0.035623
0.0356397
0.0356556
0.0357108
0.0357513
0.0357978
0.0358228
0.0359075
0.0358849
0.0358916
0.0358863
0.0359056
0.0359431
0.0359949
0.0360588
0.0361334
0.0362185
0.036314
0.0364206
0.0365391
0.0366707
0.0368169
0.0369791
0.0371595
0.0373606
0.0375853
0.0378371
0.0381201
0.0384393
0.0388004
0.0392102
0.0396767
0.0402092
0.040818
0.0415154
0.0423157
0.0432344
0.0442882
0.0454947
0.0468732
0.0484445
0.0502319
0.0522636
0.0545748
0.0572106
0.0602332
0.0637218
0.0678042
0.072605
0.0784683
0.0853882
0.0947557
0.104932
0.122028
0.137274
0.170116
0.199879
0.250669
0.0369527
0.0369588
0.0369629
0.0369751
0.0369879
0.0370287
0.0371011
0.0371088
0.0370975
0.0370968
0.0371033
0.0371206
0.037136
0.0371671
0.0372034
0.0372587
0.0373256
0.0373749
0.0375145
0.0375708
0.0376135
0.0375556
0.037532
0.0375477
0.0375905
0.0376537
0.0377337
0.0378288
0.0379383
0.0380627
0.0382027
0.0383598
0.0385358
0.0387326
0.0389531
0.0392006
0.039479
0.0397927
0.040147
0.0405479
0.0410025
0.0415185
0.0421051
0.0427717
0.0435299
0.0443907
0.0453678
0.0464769
0.0477337
0.0491561
0.0507649
0.0525841
0.0546428
0.0569781
0.0596375
0.0626832
0.0661997
0.0703001
0.0751531
0.0809605
0.0881331
0.096838
0.108682
0.121896
0.144534
0.164778
0.210685
0.247581
0.328828
0.0387126
0.0387451
0.0387617
0.0387745
0.0387858
0.0388022
0.0388248
0.0388436
0.038856
0.038888
0.0389264
0.0389533
0.038975
0.0389985
0.0390265
0.0390657
0.0391095
0.0392694
0.0392976
0.0393336
0.0393619
0.0393835
0.0394122
0.0394552
0.0395152
0.0395928
0.039688
0.039801
0.0399323
0.0400828
0.0402538
0.0404474
0.0406659
0.0409118
0.041189
0.0415014
0.0418538
0.0422514
0.0427003
0.0432071
0.0437794
0.0444254
0.0451541
0.0459754
0.0469001
0.0479401
0.0491089
0.0504215
0.0518951
0.0535534
0.0554218
0.057531
0.0599196
0.0626386
0.0657521
0.0693457
0.0735373
0.0784895
0.0844362
0.0916927
0.100764
0.112162
0.127476
0.145746
0.176235
0.204706
0.269413
0.318081
0.428012
0.0408769
0.040899
0.0409211
0.0409441
0.0409709
0.0410159
0.0410984
0.0410964
0.041101
0.041118
0.0411722
0.04129
0.0413355
0.0413161
0.041314
0.04136
0.0414116
0.0414798
0.0415355
0.0415838
0.0416295
0.0416778
0.0417342
0.0418034
0.0418885
0.0419916
0.0421145
0.0422584
0.0424251
0.0426161
0.0428337
0.0430805
0.0433592
0.0436733
0.044027
0.0444248
0.0448718
0.0453736
0.0459365
0.0465674
0.0472739
0.0480643
0.048948
0.0499354
0.0510385
0.0522708
0.0536483
0.0551899
0.056918
0.0588598
0.0610492
0.0635268
0.0663456
0.0695777
0.0733082
0.0776597
0.0828029
0.0889776
0.0965232
0.105917
0.117849
0.133317
0.153745
0.180877
0.221409
0.26613
0.352375
0.41766
0.583997
0.0435493
0.0435717
0.0435957
0.0436227
0.0436527
0.0436888
0.0437325
0.0437664
0.0437959
0.043827
0.0438684
0.0439229
0.0439726
0.0440127
0.0440501
0.0441014
0.0441624
0.0442314
0.0443037
0.0443783
0.0444569
0.0445421
0.0446377
0.044747
0.0448733
0.0450194
0.0451877
0.0453808
0.0456008
0.0458505
0.0461326
0.0464501
0.0468062
0.047205
0.0476506
0.0481479
0.0487021
0.0493193
0.0500059
0.0507696
0.0516186
0.0525625
0.0536125
0.0547811
0.0560832
0.0575362
0.0591605
0.0609808
0.0630269
0.0653349
0.0679504
0.070929
0.0743449
0.0782892
0.0828807
0.0883141
0.0948438
0.102834
0.112788
0.125429
0.141808
0.163446
0.192455
0.233546
0.287328
0.360581
0.462886
0.568604
0.746514
0.0469044
0.0469351
0.0469666
0.0470007
0.0470371
0.0470763
0.0471191
0.0471631
0.0472071
0.0472525
0.0473017
0.0473563
0.0474145
0.0474752
0.047539
0.0476099
0.0476896
0.0477787
0.047877
0.0479846
0.0481024
0.0482322
0.0483761
0.0485369
0.0487172
0.0489199
0.0491476
0.0494033
0.0496896
0.0500096
0.0503665
0.0507637
0.0512047
0.0516941
0.0522367
0.0528378
0.0535036
0.0542413
0.0550587
0.0559651
0.056971
0.0580886
0.0593319
0.0607172
0.0622639
0.0639944
0.0659358
0.068121
0.0705896
0.0733915
0.0765898
0.0802622
0.0845161
0.0894812
0.0953344
0.102379
0.111011
0.121798
0.135488
0.153239
0.176697
0.208219
0.252064
0.311013
0.388357
0.491831
0.622931
0.764981
0.89737
0.0512111
0.0512596
0.051308
0.051358
0.0514091
0.051462
0.0515176
0.051576
0.0516373
0.0517021
0.0517712
0.0518456
0.0519257
0.0520119
0.0521049
0.052206
0.0523167
0.0524384
0.0525721
0.0527189
0.0528799
0.0530567
0.053251
0.0534651
0.0537014
0.0539624
0.054251
0.05457
0.0549229
0.0553129
0.055744
0.0562202
0.0567464
0.057328
0.0579712
0.0586829
0.0594711
0.0603449
0.0613146
0.0623921
0.0635909
0.0649268
0.0664178
0.0680853
0.0699545
0.0720557
0.0744251
0.0771082
0.0801605
0.0836526
0.0876771
0.0923457
0.0978233
0.104296
0.112071
0.121628
0.133578
0.148819
0.1685
0.194653
0.229635
0.277705
0.342658
0.426223
0.535173
0.675185
0.829674
0.959709
1.03183
0.0568581
0.0569321
0.057006
0.0570812
0.0571572
0.0572345
0.0573142
0.0573968
0.0574831
0.0575736
0.0576691
0.0577704
0.0578784
0.0579937
0.0581172
0.05825
0.0583933
0.0585485
0.058717
0.0589001
0.0590995
0.0593168
0.0595541
0.0598136
0.060098
0.06041
0.0607529
0.0611304
0.0615465
0.0620056
0.0625127
0.0630733
0.0636939
0.0643816
0.0651444
0.0659915
0.0669331
0.067981
0.0691486
0.070451
0.071906
0.0735341
0.0753593
0.0774104
0.0797219
0.082336
0.0853041
0.0886927
0.0925824
0.0970795
0.102327
0.108489
0.115837
0.124653
0.135525
0.149157
0.166528
0.189159
0.21893
0.258972
0.312699
0.385278
0.477427
0.59332
0.741934
0.906106
1.04595
1.12784
1.12495
0.0643644
0.0644698
0.0645735
0.0646771
0.0647802
0.0648834
0.0649877
0.0650941
0.0652033
0.0653162
0.0654336
0.0655565
0.065686
0.0658229
0.0659685
0.066124
0.0662906
0.0664701
0.066664
0.0668744
0.0671032
0.0673527
0.0676255
0.0679245
0.0682531
0.0686148
0.0690139
0.069455
0.0699434
0.0704848
0.0710857
0.0717534
0.0724963
0.0733236
0.0742458
0.0752745
0.0764233
0.0777074
0.0791444
0.0807547
0.082562
0.0845946
0.0868864
0.089478
0.0924197
0.095774
0.0996184
0.104055
0.109208
0.115246
0.122404
0.130918
0.141292
0.154001
0.170075
0.190635
0.21729
0.252678
0.299101
0.361206
0.442922
0.546414
0.671538
0.827724
1.00147
1.14582
1.23547
1.23313
1.15918
0.0743565
0.0744774
0.0745989
0.0747216
0.0748421
0.0749604
0.075078
0.0751963
0.0753166
0.0754402
0.0755683
0.0757021
0.075843
0.075992
0.0761507
0.0763206
0.0765037
0.0767018
0.0769173
0.0771526
0.0774107
0.0776944
0.0780073
0.0783531
0.0787363
0.0791615
0.0796341
0.0801601
0.0807463
0.0814001
0.0821301
0.0829458
0.083858
0.0848789
0.0860222
0.0873038
0.0887417
0.0903568
0.0921735
0.0942206
0.0965325
0.0991507
0.102126
0.105519
0.10941
0.113896
0.119102
0.125195
0.132373
0.14092
0.151247
0.163682
0.179355
0.198904
0.224197
0.25708
0.299678
0.35622
0.428046
0.522948
0.639288
0.776886
0.940902
1.12004
1.26313
1.34371
1.32461
1.27522
1.02987
0.0876038
0.0876996
0.0878002
0.0879057
0.0880148
0.0881274
0.0882439
0.088365
0.0884914
0.0886241
0.0887642
0.0889129
0.0890698
0.0892352
0.0894117
0.089602
0.0898088
0.090035
0.0902833
0.0905571
0.0908601
0.0911961
0.0915699
0.0919863
0.092451
0.0929703
0.093551
0.094201
0.0949294
0.0957462
0.0966626
0.0976917
0.098848
0.100148
0.101612
0.103262
0.105123
0.107226
0.109608
0.112312
0.115393
0.118915
0.122961
0.127628
0.133056
0.139398
0.146879
0.155778
0.166428
0.179349
0.195316
0.214934
0.2406
0.272644
0.314322
0.368775
0.436259
0.525214
0.632565
0.767368
0.919266
1.09109
1.27227
1.39141
1.45286
1.434
1.3653
1.11491
0.834836
0.105262
0.105323
0.105393
0.105471
0.105557
0.105651
0.105754
0.105867
0.105989
0.106123
0.106269
0.10643
0.106606
0.106799
0.107012
0.107246
0.107504
0.107788
0.1081
0.108445
0.108828
0.109254
0.109729
0.11026
0.110855
0.111522
0.112271
0.113113
0.114061
0.115127
0.116328
0.117683
0.119212
0.120942
0.122901
0.125122
0.127648
0.130525
0.133813
0.137588
0.141937
0.146976
0.152845
0.15971
0.167851
0.177484
0.189088
0.203161
0.220289
0.241597
0.268652
0.302233
0.346484
0.400739
0.469008
0.558385
0.659193
0.7936
0.942326
1.1104
1.30176
1.44628
1.52544
1.55552
1.53842
1.45453
1.14922
0.917347
0.753833
0.129317
0.12936
0.129415
0.129484
0.129565
0.129659
0.129768
0.129891
0.130031
0.130188
0.130365
0.130563
0.130785
0.131033
0.131309
0.131618
0.131962
0.132346
0.132772
0.133243
0.133765
0.134346
0.134994
0.135719
0.136533
0.137445
0.138472
0.139628
0.140932
0.142405
0.144071
0.145959
0.148104
0.150546
0.153333
0.156523
0.160187
0.164411
0.1693
0.174995
0.181648
0.189495
0.198796
0.209852
0.223343
0.239386
0.259405
0.283945
0.314219
0.353101
0.401354
0.461024
0.536148
0.625408
0.732453
0.867659
1.01432
1.19209
1.38606
1.54038
1.61762
1.64155
1.63521
1.61329
1.52788
1.17715
0.960464
0.802191
0.684523
0.16386
0.163926
0.164012
0.164119
0.164245
0.164391
0.164559
0.164749
0.164964
0.165205
0.165474
0.165775
0.16611
0.166483
0.166897
0.167357
0.167867
0.168431
0.169055
0.169746
0.170513
0.171368
0.172323
0.17339
0.174585
0.175927
0.177437
0.17914
0.181067
0.183253
0.185743
0.188587
0.191847
0.195596
0.199928
0.204952
0.21081
0.217681
0.225767
0.235392
0.246813
0.260627
0.277287
0.297393
0.322765
0.352364
0.39126
0.437808
0.494708
0.567872
0.65143
0.75232
0.869598
1.00399
1.16262
1.35327
1.5463
1.70815
1.76564
1.76471
1.74082
1.70685
1.66049
1.56134
1.1767
0.97192
0.894638
0.810068
0.699935
0.218427
0.218605
0.218813
0.219052
0.219321
0.219621
0.219952
0.220317
0.220717
0.221156
0.221637
0.222164
0.222742
0.22337
0.224056
0.224806
0.225632
0.226542
0.227547
0.228659
0.229893
0.231264
0.23279
0.234491
0.236394
0.238529
0.240939
0.243677
0.246807
0.250403
0.254557
0.259376
0.264994
0.271574
0.279319
0.288481
0.299374
0.312421
0.328046
0.34709
0.36992
0.398205
0.432409
0.473924
0.526936
0.586329
0.666425
0.753117
0.855926
0.98487
1.10664
1.25639
1.42075
1.61115
1.84148
1.95354
1.98215
1.95329
1.89692
1.82738
1.7235
1.59021
1.4209
1.13128
0.906015
0.905343
0.928251
0.873338
0.746798
0.320664
0.321096
0.321577
0.322109
0.322684
0.323299
0.323958
0.324664
0.32542
0.326233
0.327108
0.328053
0.329075
0.330183
0.331387
0.332699
0.334131
0.335698
0.33742
0.339311
0.341402
0.343707
0.346259
0.34911
0.352315
0.35596
0.360206
0.365226
0.371176
0.37824
0.386646
0.396664
0.408634
0.422961
0.440166
0.460879
0.48586
0.516146
0.552624
0.597223
0.650434
0.715472
0.792606
0.883877
0.992965
1.10951
1.25336
1.39412
1.54697
1.73337
1.84299
2.06341
2.2657
2.31411
2.28079
2.20284
2.11454
1.98417
1.75704
1.493
1.25939
1.0323
0.839025
0.739643
0.790784
1.04576
1.1591
1.12012
0.945734
0.561502
0.562521
0.563605
0.564759
0.565984
0.567276
0.568641
0.570079
0.571599
0.573209
0.574923
0.576758
0.578725
0.580846
0.58313
0.585608
0.588293
0.591212
0.59443
0.597887
0.601817
0.606009
0.61072
0.61635
0.622913
0.631443
0.642294
0.655802
0.672412
0.692639
0.717114
0.746525
0.781774
0.82382
0.873806
0.933134
1.003
1.08514
1.18067
1.29106
1.4179
1.55796
1.71511
1.88061
2.0543
2.23362
2.39982
2.56367
2.699
2.81406
2.89216
2.85301
2.72486
2.54488
2.3517
2.09923
1.76016
1.43252
1.18428
0.886311
0.688422
0.627566
0.605231
0.638254
0.878465
1.29611
1.54657
1.63065
1.44069
1.45673
1.45884
1.46101
1.46338
1.46587
1.46833
1.47099
1.4736
1.47629
1.47902
1.48192
1.48508
1.48844
1.49215
1.49603
1.50039
1.50498
1.50996
1.51595
1.52106
1.52979
1.53447
1.54692
1.56995
1.60406
1.64867
1.70388
1.77003
1.84738
1.93621
2.03685
2.1493
2.2739
2.41012
2.55786
2.71656
2.88485
3.06122
3.24256
3.42599
3.60703
3.77942
3.93914
4.07494
4.18128
4.25234
4.25158
4.20768
4.10184
3.89218
3.55159
3.09901
2.60556
2.14894
1.78096
1.6629
1.49036
1.2331
1.10837
1.02965
0.941372
0.902207
0.897677
0.967046
1.18515
1.72076
2.44353
2.79125
2.97575
8.56193
8.55968
8.54779
8.54418
8.53227
8.51892
8.51312
8.49913
8.48369
8.46141
8.44073
8.42185
8.40335
8.38358
8.36756
8.34496
8.32784
8.30323
8.2842
8.25634
8.23412
8.20341
8.17145
8.13828
8.10374
8.06767
8.02991
7.99025
7.94849
7.90437
7.85762
7.80796
7.75505
7.69856
7.6381
7.5733
7.50374
7.42907
7.34906
7.26349
7.17264
7.07709
6.97803
6.87916
6.7795
6.68685
6.61092
6.55545
6.51359
6.47622
6.43972
6.40366
6.36808
6.33316
6.29901
6.26573
6.23324
6.20142
6.17038
6.14028
6.11123
6.08334
6.05666
6.0313
6.00733
5.98491
5.96493
5.95143
5.93921
0.0297169
0.0297122
0.0297034
0.029691
0.0296811
0.029664
0.0296487
0.0296303
0.029621
0.0296112
0.0295923
0.0295908
0.0295914
0.029595
0.0295778
0.0295499
0.0295546
0.0295532
0.029537
0.0295136
0.0295331
0.0295534
0.0295209
0.0295151
0.0294877
0.0294612
0.0294816
0.0294919
0.0295019
0.0294933
0.0294908
0.029496
0.0295026
0.0294786
0.0294684
0.0294443
0.0294359
0.0294253
0.0294116
0.0294067
0.0293735
0.0293706
0.0293566
0.0293299
0.0293258
0.0293035
0.0292703
0.029253
0.0292354
0.0292085
0.0291784
0.0291599
0.0291545
0.0291535
0.0291565
0.0291655
0.0291639
0.0291568
0.0291463
0.0300257
0.0300163
0.0300003
0.0299861
0.0299701
0.0299527
0.0299378
0.0299241
0.0299153
0.0299038
0.0298911
0.0298868
0.0298752
0.0298593
0.0298274
0.0298153
0.029817
0.0298126
0.0297854
0.0297809
0.0297964
0.0297983
0.0297628
0.0297576
0.0297206
0.0297044
0.0297215
0.0297352
0.0297345
0.0297222
0.029726
0.0297302
0.0297321
0.0297105
0.0297013
0.0296834
0.0296674
0.0296564
0.0296469
0.0296378
0.029618
0.0296043
0.0295919
0.0295739
0.0295614
0.0295492
0.0295283
0.0295062
0.0294914
0.0294718
0.0294465
0.0294212
0.0294025
0.0293887
0.0293911
0.0293895
0.0293948
0.0293951
0.0293965
0.0303833
0.0303703
0.0303523
0.0303373
0.0303208
0.0303056
0.0302921
0.0302791
0.0302663
0.0302504
0.030234
0.0302173
0.030193
0.0301682
0.0301455
0.0301456
0.0301369
0.0301175
0.0300957
0.0300983
0.0301061
0.0300954
0.0300565
0.0300475
0.0300064
0.0299974
0.0300118
0.0300257
0.0300165
0.0300026
0.0300104
0.0300119
0.0300102
0.0299922
0.0299818
0.0299672
0.0299506
0.0299363
0.0299265
0.0299185
0.0299057
0.0298908
0.0298758
0.0298616
0.0298462
0.0298386
0.0298267
0.0298086
0.0297913
0.0297757
0.0297586
0.0297377
0.029718
0.0296988
0.029685
0.0296795
0.0296778
0.0296828
0.0296822
0.0308074
0.0307935
0.0307749
0.0307593
0.0307424
0.0307263
0.0307095
0.0306915
0.0306715
0.030649
0.0306253
0.0305999
0.030573
0.0305514
0.0305361
0.0305301
0.0305076
0.0304844
0.0304703
0.0304717
0.0304753
0.0304463
0.030407
0.0303921
0.0303507
0.0303479
0.0303587
0.0303698
0.0303542
0.0303396
0.0303484
0.030347
0.0303431
0.0303275
0.0303174
0.0303042
0.0302882
0.030273
0.0302612
0.0302533
0.0302438
0.0302316
0.0302186
0.0302057
0.0301905
0.0301767
0.0301718
0.0301649
0.0301524
0.0301352
0.0301181
0.0301017
0.0300865
0.0300708
0.0300566
0.0300426
0.0300424
0.0300411
0.0300388
0.0313129
0.0312974
0.0312762
0.0312577
0.0312368
0.0312155
0.0311922
0.0311672
0.0311403
0.031112
0.0310835
0.0310557
0.0310306
0.0310108
0.0309937
0.0309757
0.0309469
0.0309275
0.0309193
0.0309178
0.0309027
0.030861
0.0308226
0.0308013
0.030762
0.0307628
0.03077
0.0307764
0.0307561
0.0307411
0.0307489
0.0307451
0.0307395
0.0307257
0.0307158
0.0307039
0.030689
0.0306738
0.0306612
0.0306529
0.0306454
0.0306357
0.0306248
0.0306144
0.0306036
0.030592
0.0305782
0.0305746
0.0305712
0.0305651
0.0305576
0.0305413
0.0305224
0.0305054
0.0304902
0.0304791
0.0304683
0.0304622
0.0304687
0.0319088
0.0318895
0.0318633
0.0318393
0.0318124
0.0317845
0.0317548
0.031724
0.0316923
0.0316607
0.0316303
0.0316018
0.0315762
0.0315528
0.0315287
0.0315024
0.0314746
0.0314593
0.0314493
0.0314354
0.0314024
0.0313533
0.0313155
0.0312884
0.0312527
0.031254
0.0312574
0.0312589
0.0312343
0.031219
0.0312245
0.0312186
0.0312115
0.031199
0.0311893
0.0311785
0.031165
0.0311507
0.0311381
0.0311295
0.0311233
0.0311162
0.0311079
0.0310999
0.0310922
0.0310842
0.031076
0.0310709
0.0310654
0.031063
0.0310524
0.0310508
0.031046
0.0310398
0.0310265
0.0310039
0.0309996
0.0309882
0.0309924
0.0326077
0.0325834
0.0325511
0.0325212
0.0324884
0.0324549
0.0324202
0.0323852
0.0323502
0.032316
0.0322831
0.0322519
0.0322219
0.0321922
0.0321619
0.0321323
0.0321066
0.0320895
0.0320698
0.0320394
0.0319921
0.0319397
0.0319011
0.0318695
0.0318374
0.0318376
0.0318373
0.0318317
0.0318039
0.0317879
0.0317903
0.0317824
0.0317738
0.031762
0.0317525
0.0317428
0.0317309
0.031718
0.0317061
0.0316976
0.0316923
0.0316876
0.0316823
0.0316769
0.0316719
0.0316676
0.0316645
0.0316611
0.0316575
0.0316526
0.0316426
0.0316479
0.0316487
0.0316464
0.0316443
0.0316405
0.0316378
0.0316339
0.0316328
0.033432
0.0334027
0.0333645
0.0333292
0.033291
0.0332526
0.0332134
0.0331742
0.0331353
0.0330971
0.0330597
0.0330232
0.0329872
0.0329517
0.0329172
0.0328854
0.0328573
0.032831
0.0327964
0.03275
0.0326931
0.0326391
0.0325985
0.0325635
0.0325345
0.0325328
0.0325259
0.0325129
0.0324825
0.0324653
0.0324639
0.0324541
0.032444
0.0324325
0.0324233
0.0324145
0.0324044
0.0323932
0.0323827
0.0323749
0.0323704
0.0323675
0.0323651
0.0323638
0.0323637
0.0323626
0.032356
0.0323637
0.0323668
0.0323687
0.0323696
0.0323715
0.0323734
0.0323733
0.0323731
0.0323722
0.0323622
0.032371
0.0323747
0.0344119
0.0343776
0.0343336
0.0342927
0.034249
0.0342053
0.0341607
0.0341162
0.0340717
0.0340276
0.0339841
0.0339412
0.0338991
0.0338581
0.0338188
0.0337813
0.0337443
0.0337034
0.0336527
0.0335931
0.03353
0.0334746
0.033431
0.0333934
0.0333659
0.0333595
0.0333453
0.0333248
0.0332921
0.0332731
0.0332674
0.0332556
0.0332439
0.0332323
0.0332232
0.0332153
0.033207
0.033198
0.0331894
0.033183
0.0331799
0.0331804
0.0331817
0.0331801
0.0331749
0.03318
0.0331905
0.0331854
0.033184
0.0331866
0.0331914
0.0332058
0.0332125
0.0332303
0.0332265
0.0332311
0.0332242
0.0332223
0.0332274
0.0355831
0.0355434
0.0354928
0.0354456
0.0353955
0.0353452
0.0352939
0.0352425
0.035191
0.0351397
0.0350888
0.0350385
0.0349891
0.0349406
0.0348928
0.0348444
0.0347931
0.0347356
0.0346701
0.0346005
0.0345329
0.0344751
0.0344277
0.0343875
0.0343591
0.0343456
0.0343231
0.0342951
0.03426
0.0342384
0.034228
0.034214
0.0342006
0.0341885
0.0341795
0.0341725
0.0341661
0.0341595
0.0341534
0.0341491
0.0341479
0.0341433
0.0341447
0.0341603
0.0341617
0.0341574
0.034163
0.0341759
0.0341911
0.0341845
0.0341843
0.0341933
0.0342051
0.0342259
0.0342511
0.0342437
0.0342521
0.0342512
0.0342624
0.0369892
0.0369432
0.0368851
0.0368303
0.0367724
0.0367139
0.0366544
0.0365944
0.0365341
0.0364737
0.0364135
0.0363536
0.0362937
0.0362336
0.0361724
0.0361087
0.0360405
0.0359668
0.0358887
0.035811
0.035739
0.0356771
0.0356249
0.0355809
0.0355486
0.0355256
0.035494
0.0354586
0.0354207
0.0353957
0.0353802
0.0353635
0.0353484
0.0353355
0.0353264
0.0353203
0.0353157
0.0353118
0.0353088
0.0353073
0.0353057
0.0353131
0.0353068
0.0353127
0.0353386
0.0353318
0.0353391
0.0353369
0.0353798
0.0353881
0.0353811
0.0353834
0.0353935
0.0354062
0.0354335
0.0354737
0.0354882
0.035503
0.0355005
0.0386866
0.038633
0.0385659
0.0385016
0.0384341
0.0383654
0.0382953
0.0382242
0.0381523
0.0380799
0.0380069
0.0379332
0.0378586
0.0377825
0.037704
0.0376222
0.0375366
0.0374478
0.0373585
0.0372729
0.0371949
0.0371269
0.0370681
0.0370182
0.0369785
0.036944
0.0369024
0.0368595
0.036818
0.0367887
0.0367674
0.0367477
0.0367306
0.0367167
0.0367074
0.0367021
0.0366995
0.036699
0.036699
0.0367017
0.0366976
0.0367016
0.0367207
0.0367158
0.0367302
0.0367573
0.0367518
0.0367864
0.0367863
0.0368326
0.0368306
0.0368331
0.0368395
0.0368492
0.0368656
0.0368845
0.036901
0.0369128
0.0369346
0.0407498
0.0406864
0.0406078
0.0405315
0.0404513
0.0403691
0.0402849
0.0401989
0.0401114
0.0400225
0.0399321
0.0398401
0.0397463
0.0396503
0.0395517
0.0394505
0.0393473
0.0392437
0.0391426
0.0390474
0.0389607
0.0388836
0.0388156
0.0387565
0.0387057
0.0386577
0.0386051
0.0385543
0.0385082
0.0384734
0.0384456
0.0384224
0.038403
0.0383878
0.0383782
0.0383738
0.0383734
0.0383725
0.0383817
0.0383821
0.0383924
0.0383915
0.038404
0.0384301
0.0384264
0.0384775
0.0384736
0.0384911
0.0385009
0.0385277
0.0385471
0.0385626
0.0385775
0.0385919
0.0386094
0.0386281
0.0386485
0.0386638
0.0386957
0.0432812
0.0432044
0.0431106
0.0430177
0.0429203
0.0428198
0.0427163
0.0426101
0.0425015
0.0423905
0.0422774
0.0421621
0.0420447
0.0419251
0.0418038
0.0416813
0.0415589
0.0414386
0.041323
0.0412146
0.041115
0.0410248
0.0409437
0.040871
0.0408051
0.0407416
0.0406767
0.0406172
0.0405648
0.0405231
0.040488
0.0404603
0.0404383
0.0404216
0.0404116
0.040408
0.0404079
0.0404159
0.0404189
0.0404245
0.0404533
0.0404514
0.040456
0.0405081
0.0405094
0.0405286
0.0405867
0.0405869
0.0406216
0.0406418
0.0406653
0.0406884
0.0407104
0.0407309
0.0407519
0.0407733
0.0407966
0.040815
0.0408524
0.0464357
0.0463389
0.0462232
0.0461068
0.0459847
0.0458582
0.0457276
0.0455933
0.0454557
0.0453153
0.0451722
0.0450269
0.0448797
0.0447312
0.0445822
0.0444338
0.0442876
0.0441455
0.0440096
0.0438818
0.0437633
0.0436542
0.0435541
0.0434624
0.0433772
0.0432954
0.0432165
0.0431464
0.0430855
0.0430349
0.0429912
0.0429581
0.0429329
0.0429145
0.0429042
0.0429017
0.0429033
0.0429117
0.0429247
0.0429337
0.0429563
0.0429927
0.042992
0.0430281
0.0430545
0.0430768
0.04312
0.0431467
0.0431848
0.0432186
0.0432528
0.043287
0.0433204
0.0433525
0.0433837
0.0434144
0.0434459
0.0434724
0.0435193
0.0504733
0.0503442
0.0501948
0.0500419
0.0498819
0.0497156
0.0495439
0.0493675
0.0491871
0.0490036
0.0488175
0.0486298
0.0484411
0.0482525
0.0480651
0.0478805
0.0477001
0.0475259
0.0473594
0.0472022
0.047055
0.0469179
0.0467907
0.0466726
0.0465621
0.046458
0.0463622
0.046278
0.046205
0.0461429
0.0460886
0.0460488
0.0460197
0.0459994
0.0459889
0.045988
0.0459914
0.0460042
0.046023
0.0460421
0.0460665
0.0461092
0.0461327
0.0461688
0.0462083
0.0462455
0.0462907
0.046333
0.0463793
0.0464261
0.0464736
0.0465215
0.0465695
0.046617
0.0466641
0.0467108
0.0467579
0.0468006
0.0468645
0.0558423
0.0556597
0.0554565
0.0552454
0.0550244
0.0547946
0.0545568
0.0543125
0.054063
0.0538097
0.053554
0.0532974
0.0530413
0.0527873
0.0525371
0.0522924
0.052055
0.0518267
0.051609
0.0514031
0.0512095
0.0510286
0.0508601
0.0507035
0.0505581
0.0504242
0.0503054
0.0502006
0.0501099
0.0500319
0.0499641
0.0499153
0.0498813
0.049859
0.0498489
0.0498495
0.0498587
0.049878
0.049905
0.0499373
0.049973
0.0500243
0.050071
0.0501218
0.0501777
0.0502356
0.0502977
0.0503609
0.0504265
0.0504937
0.0505624
0.0506322
0.0507029
0.0507742
0.050846
0.0509184
0.0509915
0.0510621
0.0511531
0.0631754
0.0629097
0.0626331
0.0623473
0.0620443
0.0617254
0.0613923
0.0610473
0.0606927
0.060331
0.0599648
0.059597
0.0592306
0.0588677
0.05851
0.0581604
0.0578212
0.0574947
0.0571831
0.0568879
0.0566102
0.0563505
0.0561091
0.0558863
0.0556827
0.0555012
0.0553408
0.0552
0.0550787
0.0549749
0.0548864
0.0548241
0.054783
0.054759
0.0547514
0.0547575
0.0547787
0.0548124
0.0548571