/*--------------------------------*- C++ -*----------------------------------*\
| =========                 |                                                 |
| \\      /  F ield         | OpenFOAM: The Open Source CFD Toolbox           |
|  \\    /   O peration     | Version:  2312                                  |
|   \\  /    A nd           | Website:  www.openfoam.com                      |
|    \\/     M anipulation  |                                                 |
\*---------------------------------------------------------------------------*/
FoamFile
{
    version     2.0;
    format      ascii;
    arch        "LSB;label=32;scalar=64";
    class       volScalarField;
    location    "1300";
    object      p;
}
// * * * * * * * * * * * * * * * * * * * * * * * * * * * * * * * * * * * * * //

dimensions      [0 2 -2 0 0 0 0];

internalField   nonuniform List<scalar> 
76025
(
0.000143104
0.00013446
0.000125728
0.000116916
0.000108111
9.92731e-05
8.99833e-05
8.09118e-05
7.16379e-05
6.24621e-05
5.32417e-05
4.39611e-05
3.46038e-05
2.52833e-05
1.59008e-05
6.395e-06
-2.84774e-06
-1.23322e-05
-2.16451e-05
-3.09995e-05
-4.01888e-05
-4.95011e-05
-5.86268e-05
-6.75784e-05
-7.65352e-05
-8.53175e-05
-9.40276e-05
-0.000102761
-0.000111109
-0.00011958
-0.000127589
-0.000135512
-0.000143173
-0.000150767
-0.000157966
-0.000165016
-0.000171673
-0.000178507
-0.000184995
-0.00019098
-0.000196566
-0.000201958
-0.000207368
-0.000212184
-0.000216469
-0.000220417
-0.000224138
-0.000227356
-0.000229779
-0.000231855
-0.000233503
-0.000234516
-0.000234929
-0.000234579
-0.000233311
-0.000230898
-0.000227991
-0.000223831
-0.000218721
-0.000212518
-0.000204852
-0.000195478
-0.00018408
-0.000171291
-0.00015642
-0.00013878
-0.000120295
-9.90607e-05
-7.12834e-05
0.000143705
0.000134701
0.000125634
0.000116439
0.00010714
9.77237e-05
8.82551e-05
7.8731e-05
6.9142e-05
5.95068e-05
4.98249e-05
4.0104e-05
3.03612e-05
2.05866e-05
1.08232e-05
1.07525e-06
-8.68962e-06
-1.84162e-05
-2.81504e-05
-3.77925e-05
-4.74116e-05
-5.69405e-05
-6.63701e-05
-7.56764e-05
-8.49079e-05
-9.40518e-05
-0.000103079
-0.000111899
-0.00012056
-0.000129098
-0.000137417
-0.000145637
-0.000153621
-0.000161338
-0.000168838
-0.000176069
-0.000183106
-0.000189941
-0.000196462
-0.000202689
-0.000208565
-0.000214178
-0.000219486
-0.000224344
-0.000228837
-0.000232941
-0.000236667
-0.000239859
-0.000242535
-0.000244767
-0.000246496
-0.000247599
-0.000248032
-0.000247715
-0.000246544
-0.000244461
-0.000241548
-0.000237529
-0.000232401
-0.000226052
-0.000218259
-0.000208822
-0.000197543
-0.000184517
-0.00016945
-0.000152073
-0.000132716
-0.000110381
-8.42361e-05
0.000144048
0.00013464
0.000125145
0.000115499
0.000105735
9.59064e-05
8.6013e-05
7.60479e-05
6.60196e-05
5.59351e-05
4.58131e-05
3.56681e-05
2.55012e-05
1.53253e-05
5.16131e-06
-5.00584e-06
-1.51549e-05
-2.52759e-05
-3.53561e-05
-4.53809e-05
-5.53347e-05
-6.5199e-05
-7.49699e-05
-8.46333e-05
-9.41901e-05
-0.000103629
-0.000112909
-0.000122022
-0.000130979
-0.000139764
-0.000148377
-0.000156799
-0.000164985
-0.000172923
-0.000180624
-0.000188078
-0.000195292
-0.000202251
-0.000208939
-0.000215333
-0.000221397
-0.000227137
-0.000232544
-0.000237585
-0.000242243
-0.000246492
-0.000250317
-0.000253676
-0.000256544
-0.000258905
-0.000260726
-0.000261939
-0.000262485
-0.000262299
-0.000261299
-0.000259412
-0.000256601
-0.000252736
-0.000247723
-0.000241437
-0.000233715
-0.000224399
-0.000213317
-0.000200389
-0.000185441
-0.000168263
-0.000148721
-0.000126299
-0.000100479
0.000144119
0.000134258
0.0001243
0.000114191
0.000103972
9.36787e-05
8.33164e-05
7.28887e-05
6.24046e-05
5.18744e-05
4.131e-05
3.0722e-05
2.01192e-05
9.51214e-06
-1.0875e-06
-1.16731e-05
-2.22304e-05
-3.27483e-05
-4.32134e-05
-5.36131e-05
-6.39324e-05
-7.416e-05
-8.4284e-05
-9.42905e-05
-0.000104169
-0.000113907
-0.00012349
-0.000132907
-0.000142146
-0.000151199
-0.000160052
-0.000168691
-0.000177096
-0.000185256
-0.000193166
-0.000200827
-0.000208232
-0.000215371
-0.00022223
-0.000228786
-0.00023502
-0.000240923
-0.000246484
-0.000251682
-0.00025649
-0.000260891
-0.000264866
-0.000268385
-0.000271416
-0.000273935
-0.000275907
-0.00027728
-0.000277997
-0.000277993
-0.000277195
-0.000275529
-0.000272925
-0.000269279
-0.000264482
-0.000258414
-0.00025094
-0.000241911
-0.000231178
-0.000218607
-0.000204044
-0.00018728
-0.000168063
-0.000146099
-0.000120926
0.000143912
0.000133573
0.000123137
0.000112543
0.000101838
9.10562e-05
8.02086e-05
6.93007e-05
5.83396e-05
4.73357e-05
3.63007e-05
2.52459e-05
1.41822e-05
3.12067e-06
-7.927e-06
-1.89488e-05
-2.99328e-05
-4.08663e-05
-5.17365e-05
-6.25303e-05
-7.32343e-05
-8.38353e-05
-9.43202e-05
-0.000104676
-0.00011489
-0.000124952
-0.000134847
-0.000144564
-0.000154089
-0.000163411
-0.000172519
-0.0001814
-0.000190039
-0.000198424
-0.000206552
-0.000214421
-0.000222025
-0.000229351
-0.000236386
-0.000243114
-0.000249521
-0.000255594
-0.000261319
-0.000266679
-0.000271654
-0.000276224
-0.00028037
-0.000284065
-0.000287281
-0.000289988
-0.000292152
-0.000293727
-0.000294659
-0.000294887
-0.000294343
-0.000292952
-0.000290633
-0.000287294
-0.000282831
-0.000277132
-0.000270078
-0.000261531
-0.000251354
-0.000239391
-0.00022549
-0.000209419
-0.000190911
-0.000169749
-0.000145248
0.000143395
0.000132547
0.000121602
0.000110494
9.92734e-05
8.79767e-05
7.66174e-05
6.52012e-05
5.37353e-05
4.22305e-05
3.06992e-05
1.91536e-05
7.60589e-06
-3.93188e-06
-1.54468e-05
-2.69258e-05
-3.83562e-05
-4.9725e-05
-6.10191e-05
-7.22248e-05
-8.33286e-05
-9.43168e-05
-0.000105176
-0.000115893
-0.000126456
-0.000136851
-0.000147066
-0.000157087
-0.000166904
-0.000176503
-0.000185874
-0.000195004
-0.00020388
-0.000212492
-0.000220838
-0.000228917
-0.000236721
-0.000244237
-0.000251456
-0.000258364
-0.000264949
-0.000271197
-0.000277095
-0.000282629
-0.000287782
-0.000292534
-0.000296867
-0.000300758
-0.000304179
-0.000307104
-0.000309496
-0.000311314
-0.000312507
-0.00031302
-0.000312787
-0.000311736
-0.000309791
-0.000306868
-0.000302874
-0.000297709
-0.000291263
-0.00028341
-0.00027402
-0.000262926
-0.000249978
-0.00023492
-0.000217523
-0.000197609
-0.000174229
0.000142502
0.000131113
0.000119626
0.000107973
9.62052e-05
8.43639e-05
7.24634e-05
6.05099e-05
4.85113e-05
3.64792e-05
2.44266e-05
1.23664e-05
3.11588e-07
-1.17246e-05
-2.3728e-05
-3.56852e-05
-4.75823e-05
-5.94057e-05
-7.11415e-05
-8.27756e-05
-9.42942e-05
-0.000105683
-0.000116929
-0.000128019
-0.000138938
-0.000149675
-0.000160216
-0.000170549
-0.000180661
-0.000190542
-0.000200179
-0.000209561
-0.000218676
-0.000227516
-0.000236082
-0.000244373
-0.000252378
-0.000260089
-0.000267495
-0.000274587
-0.000281353
-0.000287782
-0.000293861
-0.000299579
-0.000304919
-0.000309867
-0.000314405
-0.000318511
-0.000322162
-0.000325331
-0.000327986
-0.000330087
-0.000331589
-0.00033244
-0.000332582
-0.000331952
-0.000330482
-0.000328099
-0.000324723
-0.000320266
-0.000314627
-0.00030769
-0.000299331
-0.000289383
-0.000277698
-0.000264011
-0.000248163
-0.000229938
-0.000207996
0.000141167
0.000129204
0.000117143
0.000104911
9.2565e-05
8.01476e-05
6.76745e-05
5.5153e-05
4.25922e-05
3.00048e-05
1.74044e-05
4.80464e-06
-7.78097e-06
-2.03383e-05
-3.28527e-05
-4.53093e-05
-5.76935e-05
-6.99906e-05
-8.21861e-05
-9.42653e-05
-0.000106214
-0.000118017
-0.000129661
-0.000141133
-0.000152418
-0.000163504
-0.000174377
-0.000185026
-0.000195439
-0.000205604
-0.000215509
-0.000225145
-0.0002345
-0.000243568
-0.000252355
-0.000260856
-0.000269063
-0.000276969
-0.000284564
-0.000291842
-0.000298791
-0.000305404
-0.00031167
-0.000317579
-0.000323118
-0.000328274
-0.000333031
-0.000337371
-0.000341274
-0.000344715
-0.000347664
-0.000350088
-0.000351946
-0.000353195
-0.000353787
-0.000353669
-0.000352786
-0.000351078
-0.000348478
-0.000344906
-0.000340275
-0.00033448
-0.000327404
-0.00031889
-0.000308795
-0.00029689
-0.000283074
-0.000266939
-0.000246872
0.000139318
0.000126744
0.000114075
0.00010123
8.82721e-05
7.5245e-05
6.21665e-05
4.90448e-05
3.58902e-05
2.27164e-05
9.53875e-06
-3.6282e-06
-1.67703e-05
-2.98728e-05
-4.29205e-05
-5.58981e-05
-6.87899e-05
-8.15802e-05
-9.42533e-05
-0.000106794
-0.000119187
-0.000131417
-0.000143471
-0.000155334
-0.000166992
-0.000178433
-0.000189644
-0.000200613
-0.000211327
-0.000221777
-0.000231951
-0.000241839
-0.000251432
-0.000260728
-0.000269732
-0.000278441
-0.000286848
-0.000294946
-0.000302729
-0.000310191
-0.000317325
-0.000324123
-0.000330579
-0.000336684
-0.000342429
-0.000347802
-0.000352792
-0.000357383
-0.000361558
-0.000365295
-0.000368571
-0.000371358
-0.000373625
-0.000375338
-0.00037646
-0.000376955
-0.000376777
-0.00037588
-0.000374209
-0.0003717
-0.000368275
-0.000363845
-0.000358304
-0.000351513
-0.000343352
-0.000333665
-0.000322314
-0.000308757
-0.000291789
0.000136861
0.00012364
0.000110325
9.68323e-05
8.32258e-05
6.9554e-05
5.58354e-05
4.20795e-05
2.82983e-05
1.45065e-05
7.20402e-07
-1.30432e-05
-2.67693e-05
-4.04425e-05
-5.40473e-05
-6.75676e-05
-8.09872e-05
-9.42894e-05
-0.000107458
-0.000120475
-0.000133327
-0.000145996
-0.000158469
-0.000170732
-0.00018277
-0.000194571
-0.000206122
-0.000217411
-0.000228428
-0.00023916
-0.0002496
-0.000259736
-0.000269563
-0.000279082
-0.000288298
-0.00029721
-0.00030581
-0.000314095
-0.000322061
-0.000329704
-0.000337019
-0.000344001
-0.000350647
-0.00035695
-0.000362905
-0.000368503
-0.000373735
-0.000378589
-0.000383053
-0.000387112
-0.000390748
-0.000393941
-0.000396672
-0.00039892
-0.000400659
-0.000401864
-0.000402505
-0.000402549
-0.000401955
-0.000400672
-0.000398643
-0.000395793
-0.000392032
-0.000387259
-0.000381376
-0.000374275
-0.000365608
-0.000354894
-0.000341069
0.000133681
0.000119773
0.000105776
9.15965e-05
7.73043e-05
6.29505e-05
4.85559e-05
3.41322e-05
1.9691e-05
5.24823e-06
-9.17787e-06
-2.35694e-05
-3.79093e-05
-5.2181e-05
-6.63682e-05
-8.04538e-05
-9.44212e-05
-0.000108253
-0.000121932
-0.000135441
-0.000148762
-0.000161881
-0.000174782
-0.000187452
-0.000199875
-0.000212039
-0.000223931
-0.00023554
-0.000246855
-0.000257866
-0.000268565
-0.000278942
-0.000288995
-0.000298729
-0.000308149
-0.000317253
-0.000326037
-0.0003345
-0.00034264
-0.000350455
-0.000357944
-0.000365106
-0.000371937
-0.000378436
-0.000384601
-0.000390425
-0.000395905
-0.000401034
-0.000405804
-0.000410209
-0.000414238
-0.000417884
-0.000421137
-0.000423986
-0.000426421
-0.000428426
-0.000429988
-0.000431086
-0.000431697
-0.000431791
-0.000431328
-0.000430259
-0.000428522
-0.000426069
-0.000422794
-0.000418524
-0.000412659
-0.000405042
-0.000394327
0.000129655
0.000115017
0.000100295
8.53869e-05
7.03686e-05
5.52954e-05
4.01901e-05
2.50637e-05
9.9289e-06
-5.19711e-06
-2.02954e-05
-3.53471e-05
-5.03329e-05
-6.52345e-05
-8.0033e-05
-9.47097e-05
-0.000109247
-0.000123627
-0.000137831
-0.000151842
-0.000165644
-0.000179222
-0.000192558
-0.000205639
-0.00021845
-0.000230977
-0.000243208
-0.000255132
-0.00026674
-0.000278022
-0.00028897
-0.000299577
-0.000309845
-0.000319781
-0.000329391
-0.000338673
-0.000347628
-0.000356254
-0.000364554
-0.000372529
-0.00038018
-0.000387508
-0.000394515
-0.000401203
-0.000407571
-0.00041362
-0.000419351
-0.000424763
-0.000429857
-0.000434632
-0.00043909
-0.00044323
-0.000447053
-0.000450561
-0.000453754
-0.000456631
-0.000459192
-0.000461435
-0.000463356
-0.000464949
-0.000466199
-0.000467094
-0.000467615
-0.00046775
-0.000467331
-0.000466095
-0.000463427
-0.000459353
-0.000450989
0.000124629
0.000109216
9.37237e-05
7.80458e-05
6.22613e-05
4.64291e-05
3.05734e-05
1.47062e-05
-1.15815e-06
-1.70021e-05
-3.28052e-05
-4.85469e-05
-6.42074e-05
-7.97663e-05
-9.5203e-05
-0.000110497
-0.000125629
-0.000140577
-0.000155324
-0.000169854
-0.000184149
-0.000198193
-0.000211971
-0.000225465
-0.000238663
-0.000251551
-0.000264116
-0.000276348
-0.000288237
-0.000299777
-0.00031096
-0.000321782
-0.000332247
-0.000342368
-0.000352149
-0.000361589
-0.000370692
-0.000379461
-0.0003879
-0.000396013
-0.000403806
-0.000411283
-0.000418449
-0.000425311
-0.000431874
-0.000438144
-0.000444127
-0.00044983
-0.000455261
-0.000460427
-0.000465337
-0.00047
-0.000474428
-0.000478631
-0.000482621
-0.000486414
-0.000490024
-0.000493471
-0.000496773
-0.000499952
-0.000503031
-0.000506045
-0.000508999
-0.000511878
-0.000514426
-0.000516488
-0.000517696
-0.000518516
-0.000517429
0.000118411
0.000102172
8.5864e-05
6.93688e-05
5.27717e-05
3.61362e-05
1.94879e-05
2.8397e-06
-1.37934e-05
-3.03916e-05
-4.69323e-05
-6.33936e-05
-7.97553e-05
-9.59968e-05
-0.000112096
-0.00012803
-0.000143776
-0.000159312
-0.000174621
-0.000189684
-0.000204484
-0.000219003
-0.000233225
-0.000247134
-0.000260716
-0.000273957
-0.000286846
-0.000299373
-0.000311529
-0.000323308
-0.000334705
-0.000345719
-0.00035636
-0.00036664
-0.000376562
-0.000386131
-0.000395352
-0.000404233
-0.000412779
-0.000421001
-0.000428907
-0.000436507
-0.000443811
-0.000450829
-0.000457574
-0.000464056
-0.000470289
-0.000476284
-0.000482055
-0.000487618
-0.000492989
-0.000498184
-0.000503224
-0.000508131
-0.00051293
-0.000517649
-0.000522324
-0.000526993
-0.000531704
-0.000536515
-0.000541492
-0.000546698
-0.000552146
-0.000557798
-0.000563477
-0.000569323
-0.000575078
-0.00058176
-0.000586859
0.000110769
9.36497e-05
7.64723e-05
5.91093e-05
4.16519e-05
2.41669e-05
6.68065e-06
-1.07926e-05
-2.8236e-05
-4.56274e-05
-6.29427e-05
-8.01588e-05
-9.72538e-05
-0.000114206
-0.00013099
-0.000147584
-0.000163963
-0.000180105
-0.00019599
-0.000211598
-0.00022691
-0.000241908
-0.000256575
-0.000270894
-0.000284852
-0.000298435
-0.000311632
-0.000324435
-0.000336835
-0.000348827
-0.000360408
-0.000371581
-0.000382362
-0.000392761
-0.000402785
-0.00041244
-0.000421737
-0.000430686
-0.0004393
-0.000447592
-0.000455575
-0.000463266
-0.000470679
-0.000477829
-0.000484734
-0.000491411
-0.000497876
-0.000504149
-0.000510247
-0.000516194
-0.000522009
-0.00052772
-0.000533354
-0.000538944
-0.000544525
-0.000550145
-0.000555856
-0.00056172
-0.000567819
-0.000574243
-0.000581086
-0.00058843
-0.000596323
-0.000604835
-0.000614121
-0.000624552
-0.000636014
-0.000649208
-0.000660301
0.000101415
8.33596e-05
6.52598e-05
4.69766e-05
2.86073e-05
1.02221e-05
-8.15043e-06
-2.64942e-05
-4.47907e-05
-6.30164e-05
-8.11459e-05
-9.91539e-05
-0.000117016
-0.000134709
-0.000152207
-0.000169486
-0.000186519
-0.000203284
-0.000219758
-0.00023592
-0.000251748
-0.000267225
-0.000282332
-0.000297052
-0.000311371
-0.000325276
-0.000338756
-0.000351803
-0.00036441
-0.000376574
-0.000388293
-0.000399579
-0.000410448
-0.000420912
-0.00043098
-0.000440666
-0.000449983
-0.000458947
-0.000467577
-0.000475889
-0.000483904
-0.000491642
-0.000499123
-0.000506367
-0.000513396
-0.000520231
-0.000526894
-0.000533408
-0.000539798
-0.000546089
-0.00055231
-0.000558493
-0.000564672
-0.00057089
-0.000577196
-0.000583649
-0.00059032
-0.000597297
-0.000604683
-0.000612591
-0.000621142
-0.000630485
-0.000640829
-0.00065252
-0.000666005
-0.000681763
-0.000699905
-0.000720694
-0.000742587
8.99606e-05
7.09077e-05
5.18286e-05
3.25704e-05
1.32357e-05
-6.10138e-06
-2.54103e-05
-4.46729e-05
-6.38687e-05
-8.29726e-05
-0.000101957
-0.000120796
-0.000139461
-0.000157927
-0.000176167
-0.000194154
-0.000211861
-0.000229263
-0.000246335
-0.000263053
-0.000279396
-0.000295342
-0.000310873
-0.000325972
-0.000340623
-0.000354814
-0.000368534
-0.000381776
-0.000394535
-0.00040681
-0.000418604
-0.000429936
-0.000440823
-0.00045128
-0.000461321
-0.000470964
-0.00048023
-0.000489139
-0.000497714
-0.000505981
-0.000513963
-0.000521685
-0.000529173
-0.000536453
-0.000543548
-0.000550485
-0.00055729
-0.000563989
-0.000570612
-0.000577187
-0.000583748
-0.000590332
-0.00059698
-0.000603742
-0.000610674
-0.000617849
-0.000625349
-0.000633274
-0.000641742
-0.000650902
-0.000660969
-0.000672259
-0.000685211
-0.000700378
-0.000718291
-0.000739418
-0.000763649
-0.000790859
-0.000818163
7.57957e-05
5.56795e-05
3.55629e-05
1.52746e-05
-5.07854e-06
-2.54187e-05
-4.57128e-05
-6.59403e-05
-8.60784e-05
-0.0001061
-0.000125975
-0.000145675
-0.00016517
-0.000184431
-0.00020343
-0.000222136
-0.000240521
-0.000258557
-0.000276217
-0.000293476
-0.00031031
-0.000326696
-0.000342614
-0.000358046
-0.000372977
-0.000387395
-0.00040129
-0.000414656
-0.00042749
-0.000439794
-0.000451579
-0.000462869
-0.000473682
-0.000484037
-0.000493955
-0.00050346
-0.000512578
-0.000521336
-0.000529766
-0.000537896
-0.000545757
-0.000553381
-0.000560796
-0.000568032
-0.000575118
-0.000582083
-0.000588955
-0.000595764
-0.00060254
-0.000609318
-0.000616132
-0.000623023
-0.000630037
-0.000637225
-0.000644647
-0.000652376
-0.000660499
-0.000669124
-0.00067842
-0.000688637
-0.000700144
-0.000713393
-0.000728939
-0.000747367
-0.000769124
-0.000794383
-0.000822463
-0.000852499
-0.000880988
5.79842e-05
3.67603e-05
1.55717e-05
-5.77642e-06
-2.71763e-05
-4.85463e-05
-6.98495e-05
-9.10624e-05
-0.00011216
-0.000133112
-0.000153887
-0.000174452
-0.000194777
-0.000214828
-0.000234573
-0.000253982
-0.000273022
-0.000291663
-0.000309876
-0.000327634
-0.000344909
-0.000361679
-0.000377922
-0.000393618
-0.000408753
-0.000423315
-0.000437295
-0.000450689
-0.000463496
-0.000475723
-0.00048739
-0.000498523
-0.000509143
-0.000519275
-0.000528948
-0.000538191
-0.00054704
-0.00055553
-0.000563698
-0.000571581
-0.000579215
-0.000586638
-0.000593883
-0.000600983
-0.00060797
-0.000614874
-0.000621725
-0.000628555
-0.000635394
-0.000642276
-0.000649239
-0.000656321
-0.000663566
-0.000671022
-0.000678747
-0.000686807
-0.000695314
-0.000704432
-0.000714419
-0.000725612
-0.000738419
-0.000753316
-0.000770837
-0.000791431
-0.000815206
-0.00084173
-0.000869668
-0.000897871
-0.000924068
3.57342e-05
1.34065e-05
-8.84182e-06
-3.12322e-05
-5.3662e-05
-7.60467e-05
-9.83437e-05
-0.000120526
-0.000142564
-0.000164427
-0.000186079
-0.000207485
-0.00022861
-0.000249419
-0.000269878
-0.00028995
-0.000309602
-0.000328801
-0.000347515
-0.000365713
-0.000383367
-0.000400451
-0.000416942
-0.000432821
-0.00044807
-0.00046268
-0.000476642
-0.000489954
-0.000502619
-0.00051465
-0.000526074
-0.000536917
-0.000547208
-0.000556978
-0.000566264
-0.000575105
-0.000583546
-0.00059163
-0.000599404
-0.000606912
-0.000614197
-0.000621302
-0.000628265
-0.000635122
-0.000641907
-0.000648651
-0.000655384
-0.000662138
-0.00066894
-0.000675819
-0.000682806
-0.000689935
-0.000697244
-0.000704779
-0.000712609
-0.00072084
-0.000729631
-0.000739194
-0.000749772
-0.000761651
-0.000775181
-0.000790773
-0.000808753
-0.000829227
-0.00085176
-0.000875439
-0.000899266
-0.000923286
-0.000946537
9.39242e-06
-1.40241e-05
-3.73114e-05
-6.07188e-05
-8.41554e-05
-0.000107534
-0.000130807
-0.000153941
-0.000176905
-0.000199663
-0.000222178
-0.000244411
-0.000266323
-0.000287875
-0.000309029
-0.000329746
-0.000349988
-0.000369719
-0.000388903
-0.000407506
-0.000425498
-0.000442849
-0.000459534
-0.000475533
-0.000490827
-0.000505406
-0.000519261
-0.000532393
-0.000544809
-0.000556528
-0.000567581
-0.000577999
-0.000587816
-0.000597073
-0.000605818
-0.000614101
-0.000621977
-0.000629501
-0.00063673
-0.000643718
-0.000650516
-0.000657173
-0.000663731
-0.00067023
-0.000676701
-0.000683173
-0.000689674
-0.000696232
-0.000702869
-0.000709609
-0.000716475
-0.000723501
-0.000730739
-0.000738268
-0.000746194
-0.000754643
-0.000763729
-0.000773564
-0.000784288
-0.000796086
-0.000809145
-0.000823605
-0.000839458
-0.000856352
-0.0008738
-0.000891793
-0.000910841
-0.000931997
-0.000954291
-1.92781e-05
-4.38335e-05
-6.82075e-05
-9.26807e-05
-0.000117175
-0.000141602
-0.000165904
-0.000190046
-0.000213993
-0.000237705
-0.00026114
-0.000284257
-0.000307012
-0.000329361
-0.000351262
-0.000372672
-0.000393549
-0.000413851
-0.000433538
-0.000452574
-0.000470921
-0.000488549
-0.000505428
-0.000521534
-0.000536847
-0.000551354
-0.000565047
-0.000577927
-0.000590006
-0.000601308
-0.000611867
-0.00062172
-0.000630911
-0.000639491
-0.000647521
-0.000655065
-0.000662193
-0.000668976
-0.000675485
-0.000681788
-0.000687947
-0.000694018
-0.000700048
-0.000706072
-0.000712115
-0.000718193
-0.000724322
-0.000730517
-0.000736809
-0.000743248
-0.000749896
-0.000756818
-0.000764087
-0.000771772
-0.000779926
-0.000788564
-0.000797665
-0.000807225
-0.000817232
-0.000827612
-0.00083825
-0.000848974
-0.000859552
-0.000869993
-0.000880969
-0.000893898
-0.000910315
-0.000931117
-0.000954149
-4.85047e-05
-7.43229e-05
-9.99286e-05
-0.000125615
-0.000151313
-0.000176933
-0.000202412
-0.000227709
-0.000252785
-0.000277597
-0.000302098
-0.000326241
-0.000349978
-0.000373261
-0.000396041
-0.00041827
-0.000439901
-0.000460885
-0.000481178
-0.000500737
-0.00051952
-0.000537489
-0.00055461
-0.000570853
-0.000586194
-0.000600616
-0.000614109
-0.000626675
-0.000638329
-0.000649101
-0.000659026
-0.000668151
-0.00067653
-0.000684232
-0.000691333
-0.000697916
-0.000704071
-0.000709891
-0.000715466
-0.000720881
-0.000726214
-0.000731525
-0.000736861
-0.000742251
-0.000747716
-0.000753268
-0.000758917
-0.000764684
-0.000770616
-0.000776796
-0.00078333
-0.000790313
-0.00079777
-0.00080564
-0.000813829
-0.00082225
-0.000830793
-0.000839222
-0.00084717
-0.000854272
-0.000860273
-0.000865074
-0.000869002
-0.000873129
-0.000879337
-0.000889931
-0.000906283
-0.000927953
-0.000951739
-7.61705e-05
-0.000103486
-0.000130558
-0.000157697
-0.000184839
-0.00021189
-0.000238782
-0.00026547
-0.000291909
-0.000318052
-0.000343848
-0.000369242
-0.000394182
-0.000418614
-0.000442482
-0.000465732
-0.00048831
-0.000510162
-0.000531237
-0.000551482
-0.000570851
-0.000589296
-0.000606775
-0.00062325
-0.000638689
-0.000653069
-0.000666377
-0.000678613
-0.000689795
-0.000699952
-0.000709124
-0.000717366
-0.000724749
-0.000731358
-0.000737291
-0.000742656
-0.000747567
-0.000752139
-0.000756486
-0.000760715
-0.000764922
-0.000769187
-0.000773574
-0.000778138
-0.000782924
-0.000787968
-0.000793299
-0.000798923
-0.000804829
-0.000810997
-0.000817441
-0.000824232
-0.000831445
-0.000839035
-0.0008468
-0.000854412
-0.00086146
-0.000867463
-0.00087189
-0.000874323
-0.00087474
-0.000873728
-0.000872636
-0.000873304
-0.000877733
-0.000887904
-0.000904401
-0.000925963
-0.000949105
-0.000103407
-0.000132372
-0.000161166
-0.000190029
-0.000218891
-0.000247656
-0.00027625
-0.00030462
-0.000332717
-0.000360487
-0.000387872
-0.00041481
-0.000441241
-0.000467104
-0.000492335
-0.00051687
-0.000540648
-0.000563603
-0.000585674
-0.000606799
-0.000626919
-0.000645975
-0.000663914
-0.000680684
-0.000696242
-0.000710551
-0.000723591
-0.00073536
-0.000745877
-0.000755172
-0.000763293
-0.000770306
-0.000776298
-0.000781373
-0.000785656
-0.000789288
-0.000792426
-0.000795236
-0.000797891
-0.000800562
-0.000803405
-0.000806554
-0.000810105
-0.000814101
-0.000818532
-0.000823346
-0.000828485
-0.000833902
-0.000839552
-0.000845377
-0.000851296
-0.000857277
-0.000863419
-0.000869784
-0.000876053
-0.000881633
-0.000885997
-0.00088866
-0.000889189
-0.000887498
-0.000884006
-0.000879781
-0.000876638
-0.000876437
-0.000880294
-0.000889463
-0.000904607
-0.000924278
-0.000945184
-0.00012365
-0.000154816
-0.000185697
-0.000216634
-0.000247562
-0.000278373
-0.00030899
-0.000339355
-0.000369415
-0.000399112
-0.000428381
-0.000457155
-0.000485366
-0.000512944
-0.000539821
-0.000565923
-0.000591182
-0.000615526
-0.000638889
-0.000661202
-0.000682398
-0.000702405
-0.000721144
-0.000738541
-0.000754536
-0.000769079
-0.000782133
-0.00079368
-0.000803716
-0.000812258
-0.00081935
-0.000825068
-0.000829517
-0.00083284
-0.000835212
-0.000836842
-0.000837968
-0.000838846
-0.000839737
-0.000840886
-0.000842499
-0.00084472
-0.000847615
-0.00085115
-0.0008552
-0.000859554
-0.000863984
-0.000868353
-0.000872706
-0.000877172
-0.000881671
-0.000885891
-0.000889618
-0.000892961
-0.000896024
-0.000898587
-0.000900127
-0.000900161
-0.000898495
-0.000895275
-0.000891061
-0.000886722
-0.000883419
-0.000882447
-0.000884952
-0.000892039
-0.000904546
-0.000921224
-0.000939064
-0.000157313
-0.000190555
-0.000223934
-0.000257405
-0.000290868
-0.000324219
-0.000357371
-0.000390257
-0.000422816
-0.000454977
-0.000486664
-0.000517799
-0.0005483
-0.000578086
-0.000607071
-0.000635165
-0.000662277
-0.000688316
-0.000713184
-0.000736791
-0.000759044
-0.000779839
-0.000799051
-0.000816588
-0.000832385
-0.000846384
-0.000858549
-0.000868866
-0.000877341
-0.000884006
-0.000888922
-0.000892187
-0.000893936
-0.000894343
-0.000893625
-0.000892038
-0.000889875
-0.000887459
-0.000885135
-0.000883254
-0.000882145
-0.000882073
-0.000883187
-0.000885472
-0.000888705
-0.000892417
-0.000895933
-0.000898594
-0.000900169
-0.000900999
-0.000901562
-0.000902041
-0.000902376
-0.000902625
-0.000903098
-0.000903908
-0.000904524
-0.000904204
-0.000902577
-0.000899744
-0.000896197
-0.000892555
-0.000889795
-0.000888832
-0.00089011
-0.000894358
-0.00090281
-0.00091522
-0.000929538
-0.000169077
-0.000204814
-0.000240062
-0.000275585
-0.000311195
-0.000346647
-0.000381841
-0.000416732
-0.000451263
-0.000485361
-0.000518945
-0.000551932
-0.000584235
-0.000615768
-0.000646442
-0.000676169
-0.000704864
-0.000732455
-0.00075888
-0.000784081
-0.000808034
-0.000830662
-0.000851703
-0.000870865
-0.000887991
-0.000903001
-0.000915836
-0.000926434
-0.000934745
-0.000940743
-0.000944438
-0.000945891
-0.00094523
-0.000942669
-0.000938515
-0.000933179
-0.000927168
-0.000921061
-0.000915471
-0.000910984
-0.000908081
-0.000907047
-0.000907888
-0.00091024
-0.000913387
-0.000916378
-0.000918165
-0.000917876
-0.00091541
-0.000911802
-0.000908415
-0.000906025
-0.000904849
-0.000904661
-0.000904984
-0.000905255
-0.000905036
-0.000904161
-0.00090259
-0.000900312
-0.000897583
-0.000895001
-0.000893132
-0.000892267
-0.000892479
-0.00089409
-0.000898047
-0.000905228
-0.000915513
-0.000261803
-0.00030012
-0.000338946
-0.000377816
-0.000416529
-0.000455024
-0.000493231
-0.000531069
-0.000568467
-0.000605351
-0.000641631
-0.000677206
-0.000711965
-0.000745797
-0.00077858
-0.000810178
-0.00084044
-0.000869192
-0.000896246
-0.000921397
-0.000944415
-0.000965136
-0.000983625
-0.00099998
-0.00101413
-0.0010259
-0.00103513
-0.00104166
-0.00104539
-0.00104626
-0.00104426
-0.00103947
-0.00103204
-0.00102222
-0.0010104
-0.000997078
-0.000982865
-0.000968479
-0.000954693
-0.000942275
-0.000931913
-0.000924125
-0.000919166
-0.000916954
-0.000917036
-0.000918613
-0.000920627
-0.000921978
-0.000921925
-0.000920153
-0.000916785
-0.000912655
-0.000908859
-0.000906215
-0.000904801
-0.000903892
-0.000902753
-0.000901168
-0.000899236
-0.000897195
-0.000895384
-0.000894121
-0.000893534
-0.000893523
-0.000893878
-0.000894449
-0.000895306
-0.000897749
-0.000904695
0.000159001
0.000164323
0.000169976
0.000176113
0.000182738
0.000189821
0.000197465
0.000205502
0.000214012
0.000222982
0.000232366
0.000242265
0.000252323
0.000263361
0.000273749
0.000284915
0.000295394
0.000306415
0.000317116
0.000327652
0.000338628
0.000347893
0.000357054
0.000365173
0.000372512
0.000379044
0.000384038
0.000387899
0.000390679
0.000392055
0.000391684
0.000389988
0.000387088
0.000383176
0.000377476
0.000370775
0.00036319
0.00035454
0.000345082
0.000335192
0.000324693
0.000313591
0.000302657
0.000291902
0.000280209
0.000269348
0.000258025
0.000247243
0.000236649
0.000226316
0.000216445
0.000206891
0.000197859
0.000189137
0.000180976
0.000172738
0.000165083
0.000157811
0.000150915
0.00015967
0.000165189
0.000171198
0.00017766
0.000184599
0.000192028
0.000199965
0.000208373
0.000217281
0.000226675
0.000236511
0.000246803
0.00025745
0.000268492
0.000279797
0.00029121
0.000302735
0.000314193
0.000325612
0.000336645
0.000347502
0.000357769
0.000367311
0.000375965
0.000383671
0.000390361
0.00039581
0.000399885
0.000402773
0.000404152
0.000403844
0.000402224
0.000399237
0.000394845
0.00038904
0.000382033
0.000374011
0.000365057
0.00035523
0.000344749
0.000333791
0.000322386
0.000310819
0.000299032
0.000287199
0.0002755
0.000263916
0.000252615
0.000241557
0.000230787
0.000220407
0.00021043
0.000200814
0.000191643
0.000182841
0.000174473
0.000166512
0.000158954
0.000151755
0.000160457
0.000166234
0.000172493
0.000179252
0.000186515
0.000194292
0.000202585
0.000211392
0.00022072
0.000230558
0.000240867
0.000251615
0.00026277
0.000274289
0.00028609
0.000298157
0.000310314
0.000322449
0.000334424
0.000346093
0.000357375
0.000368144
0.00037823
0.00038739
0.000395545
0.000402554
0.000408283
0.000412651
0.000415647
0.000417077
0.000416894
0.000415233
0.000412037
0.000407379
0.000401304
0.000393984
0.000385534
0.000376127
0.000365854
0.000354889
0.000343387
0.000331406
0.000319156
0.000306794
0.000294399
0.000282129
0.000270014
0.000258137
0.000246541
0.000235262
0.000224372
0.000213878
0.0002038
0.000194148
0.000184961
0.000176219
0.000167895
0.000159981
0.000152452
0.000161003
0.000167039
0.000173582
0.000180647
0.000188244
0.000196385
0.000205073
0.000214309
0.000224089
0.000234401
0.00024522
0.000256513
0.000268244
0.000280351
0.000292748
0.000305401
0.000318144
0.0003309
0.000343499
0.000355833
0.000367746
0.000379049
0.000389648
0.000399307
0.000407919
0.00041532
0.000421362
0.000425981
0.000429116
0.000430629
0.000430502
0.000428763
0.000425389
0.000420507
0.000414134
0.000406452
0.000397572
0.000387658
0.000376851
0.000365319
0.000353206
0.000340627
0.000327779
0.000314827
0.000301826
0.000288926
0.000276193
0.000263703
0.000251521
0.000239693
0.000228266
0.000217266
0.000206716
0.000196623
0.000186994
0.000177821
0.000169092
0.000160796
0.000152917
0.000161196
0.000167505
0.00017435
0.000181744
0.000189701
0.000198229
0.000207336
0.000217022
0.000227284
0.000238108
0.00024947
0.000261339
0.00027367
0.000286399
0.000299449
0.000312736
0.000326138
0.000339551
0.000352824
0.000365824
0.000378386
0.00039031
0.000401465
0.000411652
0.000420734
0.000428549
0.000434942
0.000439817
0.000443113
0.000444718
0.000444611
0.000442793
0.000439257
0.000434126
0.00042744
0.000419363
0.000410027
0.000399593
0.000388218
0.000376076
0.000363331
0.000350132
0.00033665
0.000323034
0.000309381
0.000295819
0.000282439
0.000269321
0.000256531
0.000244121
0.000232133
0.000220597
0.000209533
0.00019895
0.00018885
0.000179231
0.000170083
0.000161391