/*--------------------------------*- C++ -*----------------------------------*\
| =========                 |                                                 |
| \\      /  F ield         | OpenFOAM: The Open Source CFD Toolbox           |
|  \\    /   O peration     | Version:  2312                                  |
|   \\  /    A nd           | Website:  www.openfoam.com                      |
|    \\/     M anipulation  |                                                 |
\*---------------------------------------------------------------------------*/
FoamFile
{
    version     2.0;
    format      ascii;
    arch        "LSB;label=32;scalar=64";
    class       surfaceScalarField;
    location    "1300";
    object      phi;
}
// * * * * * * * * * * * * * * * * * * * * * * * * * * * * * * * * * * * * * //

dimensions      [0 3 -1 0 0 0 0];

oriented        oriented;

internalField   nonuniform List<scalar> 
116611
(
0.00111791
0.000410136
-0.00110222
-0.000425829
0.00113352
0.000405941
-0.000421552
0.00114896
0.00040141
-0.000416844
0.00116424
0.000396538
-0.000411821
0.00117936
0.000391346
-0.000406465
0.00119448
0.000385781
-0.000400901
0.0012092
0.000379846
-0.000394569
0.00122388
0.000373519
-0.000388195
0.00123814
0.000366752
-0.000381011
0.00125223
0.000359554
-0.000373643
0.00126607
0.000351926
-0.000365771
0.0012797
0.000343858
-0.00035749
0.00129299
0.000335344
-0.000348636
0.00130592
0.000326326
-0.000339249
0.00131854
0.000316835
-0.000329462
0.00133068
0.000306835
-0.00031897
0.00134266
0.000296296
-0.000308274
0.00135414
0.000285266
-0.000296746
0.00136531
0.000273623
-0.000284795
0.00137597
0.000261485
-0.000272142
0.00138628
0.000248717
-0.000259033
0.00139601
0.000235372
-0.000245093
0.00140522
0.000221402
-0.000230619
0.00141404
0.000206879
-0.000215696
0.00142233
0.000191724
-0.000200017
0.00143013
0.000175917
-0.000183717
0.00143739
0.000159423
-0.00016668
0.00144401
0.000142328
-0.000148951
0.00145029
0.000124592
-0.000130876
0.00145571
0.000106142
-0.000111561
0.0014607
8.70739e-05
-9.20634e-05
0.00146498
6.71684e-05
-7.14421e-05
0.00146868
4.65894e-05
-5.02891e-05
0.00147164
2.53345e-05
-2.82957e-05
0.00147401
3.32568e-06
-5.70255e-06
0.00147561
-1.9351e-05
1.77598e-05
0.00147676
-4.27709e-05
4.16176e-05
0.00147698
-6.70023e-05
6.6786e-05
0.0014764
-9.19703e-05
9.25423e-05
0.00147496
-0.00011775
0.000119198
0.0014728
-0.000144161
0.000146316
0.00146996
-0.000171337
0.000174174
0.001466
-0.000199335
0.000203302
0.00146118
-0.000227979
0.000232801
0.00145543
-0.000257356
0.000263102
0.00144885
-0.000287378
0.00029396
0.00144115
-0.000318171
0.00032587
0.0014323
-0.000349558
0.000358408
0.00142254
-0.000381493
0.000391248
0.00141172
-0.000414025
0.000424854
0.00139969
-0.000447153
0.000459184
0.0013865
-0.00048075
0.000493931
0.00137205
-0.000514807
0.000529266
0.00135619
-0.000549257
0.000565116
0.00133882
-0.00058395
0.000601316
0.00132046
-0.000618659
0.000637024
0.00130038
-0.000653602
0.00067368
0.00127905
-0.000688377
0.0007097
0.00125626
-0.000722999
0.000745788
0.00123174
-0.000757358
0.00078188
0.00120547
-0.000791171
0.000817447
0.00117715
-0.000824178
0.000852501
0.00114696
-0.000855719
0.000885908
0.00111428
-0.000885647
0.000918326
0.00107886
-0.000913398
0.000948811
0.00104144
-0.000938189
0.000975615
0.00100062
-0.000960448
0.00100127
0.00095459
-0.000979654
0.00102568
-0.000994522
0.000904736
0.00104438
0.00110248
0.000394502
-0.00108685
0.00111797
0.000390458
0.0011333
0.00038608
0.00114847
0.000381367
0.00116351
0.0003763
0.00117839
0.000370903
0.0011931
0.000365142
0.00120761
0.000359004
0.00122189
0.000352474
0.00123592
0.000345523
0.0012497
0.000338147
0.00126321
0.000330343
0.00127647
0.000322093
0.00128941
0.000313384
0.00130202
0.00030422
0.00131431
0.000294552
0.00132621
0.000284387
0.00133778
0.0002737
0.00134892
0.000262481
0.00135969
0.000250716
0.00137001
0.000238392
0.00137989
0.000225501
0.00138926
0.000212023
0.00139818
0.000197963
0.00140661
0.000183296
0.00141453
0.000167993
0.00142189
0.000152069
0.0014287
0.000135513
0.00143498
0.000118311
0.00144066
0.000100462
0.0014458
8.19314e-05
0.00145028
6.26949e-05
0.00145409
4.27757e-05
0.00145726
2.2168e-05
0.00145972
8.60926e-07
0.00146153
-2.11602e-05
0.00146266
-4.38976e-05
0.00146302
-6.73629e-05
0.00146262
-9.15714e-05
0.00146139
-0.000116517
0.00145938
-0.000142157
0.00145655
-0.000168507
0.0014528
-0.00019558
0.00144817
-0.000223352
0.00144262
-0.000251801
0.00143614
-0.0002809
0.00142862
-0.000310656
0.00142009
-0.000341023
0.00141055
-0.000371951
0.00139994
-0.000403417
0.00138819
-0.000435404
0.00137529
-0.000467846
0.00136117
-0.000500686
0.00134576
-0.000533856
0.00132906
-0.00056725
0.00131114
-0.000600733
0.00129181
-0.000634277
0.00127116
-0.00066772
0.00124908
-0.000700923
0.00122544
-0.000733719
0.00120008
-0.000765816
0.00117278
-0.000796874
0.00114345
-0.000826393
0.0011118
-0.000853994
0.00107764
-0.000879239
0.00104099
-0.00090154
0.00100131
-0.000920762
0.000958036
-0.000936383
-0.000948076
0.000911591
0.00108749
0.000378955
-0.00107194
0.0011029
0.000375048
0.00111816
0.000370814
0.00113327
0.000366256
0.00114821
0.000361363
0.00116298
0.00035613
0.00117758
0.000350546
0.00119199
0.000344598
0.00120619
0.000338273
0.00122016
0.000331556
0.00123387
0.000324433
0.00124732
0.000316892
0.00126049
0.000308919
0.00127338
0.000300503
0.00128596
0.000291636
0.00129821
0.000282297
0.00131013
0.000272475
0.00132167
0.000262153
0.00133284
0.000251317
0.0013436
0.000239951
0.00135395
0.000228048
0.00136386
0.000215592
0.00137331
0.000202572
0.00138229
0.000188978
0.00139079
0.000174796
0.00139878
0.000160011
0.00140623
0.000144616
0.00141314
0.000128599
0.0014195
0.000111953
0.0014253
9.46661e-05
0.00143051
7.67243e-05
0.00143508
5.81166e-05
0.00143902
3.88379e-05
0.0014423
1.88857e-05
0.00144491
-1.74537e-06
0.00144683
-2.30817e-05
0.00144805
-4.51139e-05
0.00144853
-6.78497e-05
0.00144826
-9.12957e-05
0.00144719
-0.000115445
0.00144531
-0.000140285
0.00144262
-0.00016581
0.00143906
-0.000192023
0.00143462
-0.00021891
0.00142926
-0.000246447
0.00142298
-0.000274617
0.00141573
-0.000303402
0.00140748
-0.000332773
0.00139821
-0.000362687
0.00138791
-0.000393112
0.00137651
-0.000424013
0.00136401
-0.000455338
0.00135035
-0.000487024
0.00133549
-0.000519001
0.00131942
-0.000551179
0.00130214
-0.000583452
0.00128359
-0.000615728
0.00126374
-0.000647865
0.00124249
-0.000679677
0.00121971
-0.000710939
0.00119523
-0.000741336
0.00116885
-0.000770494
0.00114042
-0.000797966
0.00110976
-0.000823334
0.00107672
-0.000846194
0.0010412
-0.000866026
0.00100299
-0.000882553
0.000961836
-0.000895225
-0.000903758
0.000917518
0.00107301
0.000363468
-0.00105752
0.00108836
0.000359697
0.00110356
0.000355609
0.00111861
0.000351208
0.00113349
0.000346486
0.00114819
0.000341431
0.0011627
0.000336033
0.00117702
0.000330282
0.00119112
0.000324167
0.001205
0.000317675
0.00121864
0.000310793
0.00123202
0.00030351
0.00124513
0.000295811
0.00125795
0.000287684
0.00127047
0.000279117
0.00128267
0.000270097
0.00129454
0.000260609
0.00130605
0.000250641
0.00131719
0.000240177
0.00132793
0.000229204
0.00133827
0.000217709
0.00134818
0.00020568
0.00135765
0.000193106
0.00136665
0.000179974
0.00137518
0.000166272
0.0013832
0.000151988
0.00139071
0.000137109
0.00139768
0.000121627
0.0014041
0.000105532
0.00140996
8.88122e-05
0.00141522
7.14586e-05
0.00141988
5.34607e-05
0.0014239
3.48113e-05
0.00142728
1.55077e-05
0.00143
-4.46028e-06
0.00143203
-2.51133e-05
0.00143336
-4.64442e-05
0.00143396
-6.84558e-05
0.00143382
-9.11501e-05
0.0014329
-0.000114524
0.00143118
-0.00013857
0.00142865
-0.000163282
0.00142529
-0.000188654
0.00142105
-0.000214673
0.00141592
-0.000241321
0.00140988
-0.000268579
0.00140291
-0.000296425
0.00139497
-0.00032483
0.00138604
-0.000353759
0.0013761
-0.000383174
0.00136512
-0.000413036
0.00135308
-0.000443294
0.00133994
-0.000473887
0.00132569
-0.000504747
0.0013103
-0.000535786
0.00129374
-0.000566901
0.00127599
-0.00059797
0.00125695
-0.000628827
0.00123652
-0.000659253
0.00121457
-0.000688981
0.00119091
-0.000717675
0.00116538
-0.000744964
0.00113784
-0.000770432
0.00110818
-0.000793676
0.0010763
-0.000814307
0.0010421
-0.000831835
0.00100552
-0.00084597
0.000966437
-0.00085614
-0.00086206
0.000924739
0.00105901
0.000348022
-0.00104356
0.00107432
0.00034439
0.00108947
0.000340452
0.00110447
0.000336212
0.0011193
0.00033166
0.00113394
0.000326786
0.00114839
0.000321581
0.00116264
0.000316034
0.00117667
0.000310134
0.00119048
0.00030387
0.00120404
0.000297229
0.00121735
0.0002902
0.00123039
0.000282771
0.00124315
0.00027493
0.0012556
0.000266664
0.00126774
0.00025796
0.00127954
0.000248803
0.001291
0.000239182
0.00130209
0.000229084
0.0013128
0.000218495
0.00132311
0.000207401
0.001333
0.000195792
0.00134245
0.000183654
0.00135145
0.000170977
0.00135997
0.000157747
0.00136801
0.000143952
0.00137553
0.000129583
0.00138254
0.000114627
0.00138899
9.90749e-05
0.00139489
8.29168e-05
0.0014002
6.61431e-05
0.00140492
4.87448e-05
0.00140902
3.07146e-05
0.00141247
1.20494e-05
0.00141528
-7.26602e-06
0.00141741
-2.72452e-05
0.00141885
-4.78829e-05
0.00141957
-6.91801e-05
0.00141956
-9.11375e-05
0.00141879
-0.000113753
0.00141724
-0.000137021
0.00141489
-0.000160934
0.00141172
-0.000185484
0.00140771
-0.000210658
0.00140283
-0.000236441
0.00139706
-0.000262812
0.00139038
-0.000289748
0.00138277
-0.000317222
0.00137422
-0.0003452
0.00136469
-0.000373644
0.00135416
-0.000402515
0.00134263
-0.000431762
0.00133007
-0.000461325
0.00131646
-0.000491134
0.00130177
-0.000521096
0.00128596
-0.000551095
0.00126897
-0.00058098
0.0012507
-0.000610557
0.00123103
-0.000639581
0.00120981
-0.000667762
0.0011869
-0.000694765
0.00116217
-0.000720239
0.00113554
-0.000743794
0.00110692
-0.000765063
0.00107628
-0.00078366
0.00104355
-0.00079911
0.00100873
-0.000811147
0.000971703
-0.000819115
-0.000822602
0.000932245
0.00104548
0.000332604
-0.00103006
0.00106075
0.000329116
0.00107587
0.000325331
0.00109083
0.000321254
0.00110561
0.000316876
0.00112021
0.000312187
0.00113462
0.000307178
0.00114881
0.000301838
0.00116279
0.000296156
0.00117654
0.000290123
0.00119004
0.000283726
0.00120329
0.000276955
0.00121626
0.000269797
0.00122895
0.000262241
0.00124134
0.000254274
0.00125342
0.000245883
0.00126516
0.000237057
0.00127657
0.000227781
0.0012876
0.000218045
0.00129827
0.000207834
0.00130853
0.000197137
0.00131838
0.000185941
0.0013278
0.000174233
0.00133678
0.000162003
0.00134529
0.000149237
0.00135331
0.000135925
0.00136084
0.000122056
0.00136785
0.000107617
0.00137432
9.26005e-05
0.00138024
7.69952e-05
0.0013856
6.07925e-05
0.00139036
4.39839e-05
0.00139451
2.65619e-05
0.00139803
8.52364e-06
0.00140092
-1.01507e-05
0.00140314
-2.94677e-05
0.00140468
-4.94239e-05
0.00140552
-7.00201e-05
0.00140564
-9.12562e-05
0.00140502
-0.00011313
0.00140364
-0.000135637
0.00140147
-0.00015877
0.00139851
-0.000182519
0.00139472
-0.000206873
0.0013901
-0.000231816
0.00138461
-0.000257329
0.00137825
-0.000283388
0.001371
-0.000309967
0.00136283
-0.000337034
0.00135374
-0.000364554
0.00134371
-0.000392486
0.00133273
-0.000420777
0.00132077
-0.000449367
0.00130781
-0.000478174
0.00129381
-0.000507093
0.0012787
-0.000535987
0.0012624
-0.000564679
0.0012448
-0.000592954
0.00122577
-0.000620553
0.0012052
-0.00064719
0.00118298
-0.000672546
0.00115904
-0.0006963
0.00113333
-0.000718084
0.00110584
-0.000737569
0.00107653
-0.000754358
0.00104542
-0.000768001
0.00101252
-0.000778242
0.000977724
-0.000784319
-0.000785672
0.000940793
0.00103243
0.000317215
-0.00101704
0.00104768
0.000313872
0.00106277
0.000310242
0.00107769
0.00030633
0.00109244
0.000302128
0.001107
0.000297626
0.00112136
0.000292815
0.00113551
0.000287686
0.00114944
0.000282226
0.00116314
0.000276425
0.00117659
0.000270274
0.00118979
0.000263761
0.00120271
0.000256876
0.00121534
0.000249606
0.00122768
0.000241939
0.0012397
0.000233864
0.00125139
0.000225366
0.00126273
0.000216436
0.00127372
0.000207059
0.00128433
0.000197225
0.00129454
0.00018692
0.00130435
0.000176132
0.00131374
0.00016485
0.00132268
0.000153061
0.00133116
0.000140754
0.00133917
0.000127917
0.00134669
0.00011454
0.00135369
0.000100611
0.00136017
8.61213e-05
0.00136611
7.10602e-05
0.00137148
5.54191e-05
0.00137627
3.91897e-05
0.00138047
2.23649e-05
0.00138405
4.94132e-06
0.00138701
-1.31043e-05
0.00138931
-3.17719e-05
0.00139095
-5.10602e-05
0.0013919
-7.097e-05
0.00139214
-9.15013e-05
0.00139166
-0.000112652
0.00139044
-0.000134417
0.00138846
-0.000156791
0.00138571
-0.000179763
0.00138216
-0.000203323
0.0013778
-0.000227455
0.00137261
-0.000252141
0.00136658
-0.000277359
0.0013597
-0.000303085
0.00135195
-0.000329287
0.00134333
-0.00035593
0.00133381
-0.00038297
0.00132339
-0.000410352
0.00131202
-0.000438003
0.00129968
-0.000465828
0.00128628
-0.000493702
0.00127177
-0.000521469
0.00125603
-0.000548937
0.00123896
-0.000575884
0.00122046
-0.000602058
0.00120046
-0.000627191
0.0011789
-0.000650989
0.00115577
-0.000673161
0.00113104
-0.000693361
0.00110476
-0.00071129
0.00107693
-0.000726528
0.0010476
-0.000738667
0.00101679
-0.00074743
0.000984408
-0.000751939
-0.000751528
0.000950265
0.00101991
0.000301865
-0.00100456
0.00103512
0.000298664
0.00105017
0.000295189
0.00106506
0.000291442
0.00107978
0.000287415
0.0010943
0.0002831
0.00110863
0.000278489
0.00112274
0.000273573
0.00113663
0.000268338
0.00115028
0.000262773
0.00116369
0.000256868
0.00117683
0.000250614
0.00118971
0.000244001
0.00120229
0.000237018
0.00121458
0.000229653
0.00122655
0.000221894
0.00123819
0.000213727
0.00124948
0.000205141
0.00126042
0.000196125
0.00127098
0.000186665
0.00128115
0.00017675
0.00129091
0.000166368
0.00130025
0.000155507
0.00130916
0.000144155
0.00131761
0.000132302
0.0013256
0.000119934
0.00133309
0.000107043
0.00134009
9.36169e-05
0.00134656
7.9646e-05
0.0013525
6.51206e-05
0.00135789
5.00319e-05
0.00136271
3.43716e-05
0.00136694
1.81331e-05
0.00137057
1.31112e-06
0.00137358
-1.61176e-05
0.00137596
-3.41492e-05
0.00137768
-5.27842e-05
0.00137874
-7.20237e-05
0.0013791
-9.18677e-05
0.00137877
-0.000112314
0.00137771
-0.000133359
0.00137592
-0.000154997
0.00137337
-0.000177219
0.00137006
-0.000200013
0.00136597
-0.000223366
0.00136109
-0.000247262
0.00135541
-0.000271679
0.00134892
-0.000296592
0.0013416
-0.000321971
0.00133345
-0.000347777
0.00132444
-0.000373958
0.00131454
-0.000400449
0.0013037
-0.000427163
0.00129186
-0.000453988
0.00127894
-0.000480785
0.00126486
-0.000507387
0.00124952
-0.000533603
0.00123286
-0.000559221
0.00121481
-0.000584009
0.00119534
-0.000607724
0.00117446
-0.0006301
0.00115217
-0.000650873
0.00112851
-0.000669709
0.00110356
-0.000686339
0.00107735
-0.00070031
0.00104996
-0.000711281
0.00102144
-0.000718906
0.000991718
-0.000722221
-0.000720551
0.000960741
0.00100797
0.00028656
-0.000992666
0.00102313
0.000283499
0.00103815
0.000280176
0.001053
0.000276594
0.00106767
0.000272742
0.00108215
0.000268615
0.00109644
0.000264203
0.00111051
0.000259499
0.00112436
0.000254491
0.00113797
0.000249166
0.00115133
0.00024351
0.00116443
0.000237515
0.00117725
0.000231173
0.0011898
0.000224475
0.00120204
0.000217411
0.00121396
0.000209969
0.00122556
0.000202134
0.0012368
0.000193894
0.00124769
0.000185238
0.0012582
0.000176153
0.00126833
0.000166627
0.00127805
0.000156648
0.00128735
0.000146205
0.00129622
0.000135287
0.00130463
0.000123883
0.00131259
0.00011198
0.00132006
9.95693e-05
0.00132704
8.66394e-05
0.00133351
7.31804e-05
0.00133944
5.91828e-05
0.00134484
4.46376e-05
0.00134967
2.95367e-05
0.00135393
1.38739e-05
0.0013576
-2.35997e-06
0.00136067
-1.91837e-05
0.00136311
-3.65932e-05
0.00136492
-5.45903e-05
0.00136607
-7.31766e-05
0.00136656
-9.23524e-05
0.00136636
-0.000112116
0.00136546
-0.000132464
0.00136386
-0.000153392
0.00136153
-0.000174891
0.00135847
-0.000196952
0.00135467
-0.000219561
0.00135011
-0.000242702
0.00134478
-0.000266354
0.00133868
-0.00029049
0.00133178
-0.000315073
0.00132406
-0.000340056
0.00131548
-0.000365379
0.00130599
-0.000390962
0.00129554
-0.000416705
0.00128403
-0.000442486
0.00127141
-0.000468164
0.0012576
-0.000493575
0.00124254
-0.000518543
0.00122619
-0.000542874
0.00120855
-0.000566364
0.00118962
-0.000588795
0.00116945
-0.000609925
0.00114808
-0.000629509
0.0011256
-0.000647229
0.0011021
-0.000662835
0.00107764
-0.00067585
0.00105237
-0.000686018
0.00102636
-0.000692894
0.000999753
-0.000695612
-0.000693814
0.000973016
0.000996652
0.000271306
-0.000981397
0.00101177
0.000268382
0.00102674
0.00026521
0.00104154
0.000261791
0.00105616
0.000258116
0.0010706
0.000254176
0.00108484
0.000249964
0.00109887
0.00024547
0.00111268
0.000240686
0.00112624
0.0002356
0.00113955
0.000230197
0.0011526
0.000224464
0.00116538
0.000218395
0.00117787
0.000211983
0.00119007
0.000205219
0.00120194
0.000198091
0.00121349
0.000190588
0.00122469
0.000182695
0.00123553
0.000174399
0.00124599
0.000165688
0.00125607
0.000156549
0.00126575
0.000146972
0.00127501
0.000136945
0.00128384
0.000126458
0.00129222
0.000115499
0.00130015
0.000104057
0.00130759
9.21216e-05
0.00131455
7.96822e-05
0.001321
6.67287e-05
0.00132693
5.32514e-05
0.00133233
3.92413e-05
0.00133718
2.46902e-05
0.00134146
9.59238e-06
0.00134517
-6.06643e-06
0.00134828
-2.22978e-05
0.00135079
-3.91001e-05
0.00135267
-5.6476e-05
0.00135392
-7.44277e-05
0.00135453
-9.29558e-05
0.00135447
-0.00011206
0.00135374
-0.000131737
0.00135233
-0.000151982
0.00135023
-0.000172789
0.00134743
-0.000194147
0.00134391
-0.000216042
0.00133966
-0.000238456
0.00133467
-0.000261364
0.00132891
-0.000284731
0.00132235
-0.000308515
0.00131495
-0.000332658
0.00130666
-0.000357087
0.00129742
-0.000381716
0.00128715
-0.000406439
0.0012758
-0.000431135
0.00126331
-0.000455673
0.00124964
-0.000479904
0.00123476
-0.000503672
0.0012187
-0.000526808
0.00120147
-0.000549131
0.00118312
-0.000570446
0.00116372
-0.000590532
0.00114338
-0.000609161
0.00112217
-0.000626026
0.00110024
-0.000640901
0.00107769
-0.000653296
0.00105472
-0.000663052
0.00103148
-0.000669654
0.00100843
-0.000672558
-0.000671869
0.000986481
0.00098599
0.000256102
-0.000970786
0.00100105
0.000253318
0.00101597
0.000250295
0.00103072
0.000247038
0.0010453
0.00024354
0.00105969
0.000239788
0.00107387
0.000235776
0.00108785
0.000231492
0.00110161
0.000226929
0.00111513
0.000222078
0.0011284
0.000216929
0.0011414
0.000211464
0.00115412
0.000205672
0.00116656
0.000199548
0.00117869
0.000193083
0.00119052
0.000186268
0.00120201
0.000179092
0.00121316
0.000171543
0.00122396
0.000163607
0.00123437
0.000155269
0.00124441
0.000146517
0.00125404
0.00013734
0.00126326
0.000127727
0.00127205
0.000117668
0.00128039
0.000107152
0.00128828
9.61672e-05
0.0012957
8.4703e-05
0.00130263
7.27487e-05
0.00130907
6.02941e-05
0.00131499
4.73297e-05
0.00132039
3.38461e-05
0.00132524
1.98351e-05
0.00132954
5.29053e-06
0.00133328
-9.80582e-06
0.00133644
-2.54589e-05
0.00133901
-4.167e-05
0.00134098
-5.84426e-05
0.00134233
-7.57796e-05
0.00134306
-9.36822e-05
0.00134315
-0.00011215
0.00134259
-0.00013118
0.00134138
-0.000150768
0.0013395
-0.000170906
0.00133693
-0.00019158
0.00133366
-0.000212775
0.00132967
-0.000234465
0.00132493
-0.000256619
0.00131939
-0.000279196
0.00131302
-0.000302144
0.00130576
-0.000325397
0.00129755
-0.000348881
0.00128834
-0.000372506
0.00127808
-0.000396175
0.00126672
-0.000419778
0.00125425
-0.000443197
0.00124065
-0.000466306
0.00122595
-0.000488969
0.00121018
-0.000511039
0.0011934
-0.000532357
0.00117571
-0.000552748
0.00115718
-0.000572008
0.00113795
-0.000589927
0.00111814
-0.000606215
0.0010979
-0.000620668
0.00107744
-0.000632829
0.00105703
-0.000642643
0.00103705
-0.000649674
0.00101844
-0.000653955
-0.000656184
0.00100276
0.000976009
0.000240949
-0.000960856
0.000991022
0.000238305
0.00100588
0.000235434
0.00102058
0.00023234
0.00103511
0.000229015
0.00104944
0.000225451
0.00106358
0.000221637
0.00107751
0.000217565
0.00109121
0.000213225
0.00110468
0.00020861
0.0011179
0.000203713
0.00113084
0.000198517
0.00114351
0.000193007
0.00115588
0.000187173
0.00116796
0.000181008
0.00117972
0.000174505
0.00119116
0.000167653
0.00120226
0.000160444
0.00121301
0.000152863
0.00122338
0.000144896
0.00123337
0.00013653
0.00124295
0.000127753
0.00125213
0.000118554
0.00126087
0.000108921
0.00126918
9.88451e-05
0.00127703
8.83135e-05
0.00128442
7.73157e-05
0.00129133
6.5841e-05
0.00129774
5.38789e-05
0.00130365
4.14195e-05
0.00130905
2.84533e-05
0.00131391
1.49719e-05
0.00131823
9.67512e-07
0.00132201
-1.35789e-05
0.00132522
-2.86684e-05
0.00132785
-4.43048e-05
0.0013299
-6.04922e-05
0.00133135
-7.72334e-05
0.0013322
-9.45295e-05
0.00133243
-0.000112379
0.00133203
-0.000130779
0.00133098
-0.00014972
0.00132927
-0.000169192
0.00132687
-0.000189179
0.00132375
-0.000209655
0.00131987
-0.000230593
0.00131521
-0.000251954
0.0013097
-0.00027369
0.00130331
-0.000295748
0.00129597
-0.000318062
0.00128765
-0.00034056
0.0012783
-0.000363163
0.00126791
-0.000385783
0.00125646
-0.000408327
0.00124396
-0.000430696
0.00123044
-0.000452781
0.00121593
-0.000474466
0.00120052
-0.000495625
0.00118428
-0.000516115
0.00116731
-0.000535782
0.00114975
-0.000554443
0.00113172
-0.000571905
0.00111343
-0.000587917
0.00109506
-0.000602305
0.00107696
-0.000614728
0.00105961
-0.000625296
0.00104382
-0.000633875
0.00103088
-0.000641018
-0.0006476
0.0010223
0.000966747
0.000225845
-0.000951642
0.00098171
0.000223341
0.000996522
0.000220622
0.00101117
0.000217691
0.00102564
0.000214543
0.00103993
0.000211167
0.00105401
0.000207555
0.00106788
0.000203696
0.00108152
0.000199581
0.00109493
0.000195202
0.00110809
0.000190552
0.00112099
0.000185621
0.0011336
0.00018039
0.00114593
0.000174849
0.00115795
0.000168988
0.00116965
0.000162799
0.00118103
0.000156274
0.00119208
0.000149402
0.00120276
0.000142174
0.00121308
0.000134576
0.00122302
0.000126593
0.00123256
0.000118214
0.00124169
0.000109426
0.00125039
0.000100218
0.00125866
9.05789e-05
0.00126647
8.04968e-05
0.00127383
6.99607e-05
0.00128071
5.89597e-05
0.00128711
4.74831e-05
0.001293
3.55206e-05
0.00129839
2.30625e-05
0.00130327
1.01007e-05
0.00130761
-3.37679e-06
0.00131142
-1.73843e-05
0.00131467
-3.1923e-05
0.00131736
-4.69975e-05
0.00131948
-6.26114e-05
0.00132102
-7.87665e-05
0.00132195
-9.54621e-05
0.00132226
-0.000112694
0.00132194
-0.000130456
0.00132096
-0.000148736
0.00131928
-0.000167518
0.00131688
-0.000186781
0.00131372
-0.000206496
0.00130976
-0.000226631
0.00130496
-0.000247146
0.00129926
-0.000267994
0.00129264
-0.000289124
0.00128505
-0.000310476
0.00127648
-0.000331988
0.00126691
-0.000353593
0.00125634
-0.000375215
0.00124479
-0.000396778
0.00123229
-0.000418197
0.00121889
-0.000439381
0.00120466
-0.000460233
0.00118968
-0.000480642
0.00117405
-0.000500488
0.0011579
-0.000519634
0.00114139
-0.000537927
0.00112469
-0.000555206
0.00110806
-0.000571288
0.00109184
-0.000586084
0.00107661
-0.000599497
0.00106321
-0.000611902
0.00105298
-0.000623642
0.00104735
-0.000635384
-0.000647633
0.00104738
0.00095826
0.000210785
-0.000943201
0.000973177
0.000208425
0.000987939
0.000205859
0.00100254
0.000203094
0.00101696
0.000200121
0.00103119
0.000196933
0.00104523
0.000193522
0.00105904
0.000189878
0.00107263
0.00018599
0.00108599
0.000181849
0.00109909
0.000177446
0.00111194
0.000172775
0.00112451
0.000167822
0.00113678
0.000162574
0.00114875
0.000157019
0.00116041
0.000151147
0.00117173
0.00014495
0.00118271
0.000138419
0.00119334
0.000131545
0.0012036
0.000124313
0.00121349
0.000116711
0.00122297
0.000108727
0.00123205
0.000100347
0.00124071
9.15602e-05
0.00124894
8.23543e-05
0.00125671
7.27176e-05
0.00126404
6.26385e-05
0.00127089
5.2106e-05
0.00127726
4.11091e-05
0.00128315
2.96373e-05
0.00128853
1.7681e-05
0.0012934
5.23185e-06
0.00129775
-7.72518e-06
0.00130156
-2.11975e-05
0.00130482
-3.51876e-05
0.00130753
-4.96993e-05
0.00130965
-6.47343e-05
0.00131117
-8.0292e-05
0.00131208
-9.6369e-05
0.00131235
-0.000112958
0.00131194
-0.000130049
0.00131083
-0.000147628
0.00130899
-0.000165674
0.00130637
-0.000184165
0.00130295
-0.000203072
0.00129868
-0.000222364
0.00129353
-0.000242001
0.00128748
-0.000261944
0.00128051
-0.000282146
0.00127259
-0.000302559
0.00126373
-0.000323129
0.00125394
-0.000343798
0.00124323
-0.000364507
0.00123164
-0.000385189
0.00121922
-0.000405776
0.00120603
-0.000426192
0.00119215
-0.000446355
0.00117768
-0.000466176
0.00116275
-0.000485556
0.00114751
-0.000504389
0.00113214
-0.000522563
0.00111692
-0.000539985
0.00110224
-0.000556609
0.00108869
-0.000572533
0.00107721
-0.000588016
0.00106904
-0.000603734
0.00106561
-0.000620209
0.00106758
-0.000637359
-0.000652313
0.00107226
0.000950623
0.000195765
-0.000935602
0.000965498
0.000193549
0.000980219
0.000191139
0.000994772
0.00018854
0.00100915
0.000185745
0.00102334
0.000182746
0.00103732
0.000179536
0.00105109
0.000176106
0.00106464
0.000172445
0.00107794
0.000168542
0.001091
0.00016439
0.00110379
0.000159981
0.00111631
0.000155304
0.00112854
0.000150346
0.00114046
0.000145096
0.00115207
0.000139542
0.00116334
0.000133676
0.00117427
0.000127488
0.00118485
0.000120968
0.00119506
0.000114103
0.00120489
0.000106882
0.00121432
9.92905e-05
0.00122335
9.13174e-05
0.00123196
8.29499e-05
0.00124014
7.41759e-05
0.00124788
6.49835e-05
0.00125515
5.53609e-05
0.00126196
4.52969e-05
0.00126829
3.47806e-05
0.00127413
2.38017e-05
0.00127946
1.23512e-05
0.00128427
4.19828e-07
0.00128855
-1.20063e-05
0.00129228
-2.49296e-05
0.00129545
-3.8353e-05
0.00129803
-5.22785e-05
0.0013
-6.67058e-05
0.00130134
-8.16324e-05
0.00130202
-9.70524e-05
0.00130202
-0.000112957
0.00130131
-0.000129335
0.00129985
-0.000146169
0.00129762
-0.000163442
0.00129458
-0.000181131
0.00129072
-0.000199211
0.00128601
-0.000217651
0.00128043
-0.00023642
0.00127397
-0.000255482
0.00126662
-0.0002748
0.00125839
-0.00029433
0.00124929
-0.00031403
0.00123935
-0.000333852
0.00122859
-0.000353746
0.00121705
-0.000373657
0.00120481
-0.000393531
0.00119192
-0.000413307
0.00117849
-0.000432922
0.00116463
-0.000452311
0.00115048
-0.000471407
0.00113624
-0.000490152
0.0011222
-0.000508521
0.00110877
-0.000526559
0.00109661
-0.000544449
0.00108665
-0.000562575
0.00108015
-0.000581509
0.00107828
-0.000601866
0.00108117
-0.000623096
0.00108584
-0.000642029
-0.000651246
0.00108477
0.000943948
0.000180775
-0.000928958
0.000958791
0.000178706
0.000973477
0.000176453
0.000987994
0.000174022
0.00100233
0.000171407
0.00101648
0.000168599
0.00103042
0.000165591
0.00104416
0.000162375
0.00105766
0.00015894
0.00107093
0.000155277
0.00108394
0.000151377
0.00109669
0.000147232
0.00110916
0.00014283
0.00112135
0.000138163
0.00113322
0.000133217
0.00114478
0.000127983
0.00115601
0.000122449
0.00116689
0.000116607
0.00117742
0.000110444
0.00118757
0.00010395
0.00119734
9.71123e-05
0.00120671
8.99188e-05
0.00121567
8.23571e-05
0.0012242
7.4415e-05
0.0012323
6.60802e-05
0.00123994
5.73411e-05
0.00124712
4.81859e-05
0.00125381
3.86036e-05
0.00126001
2.85837e-05
0.00126569
1.81165e-05
0.00127085
7.19344e-06
0.00127547
-4.19589e-06
0.00127952
-1.60604e-05
0.00128299
-2.84018e-05
0.00128586
-4.12229e-05
0.00128811
-5.45247e-05
0.00128971
-6.83063e-05
0.00129064
-8.2564e-05
0.00129088
-9.7292e-05
0.0012904
-0.000112482
0.00128919
-0.000128121
0.00128722
-0.000144197
0.00128447
-0.000160691
0.00128092
-0.000177584
0.00127656
-0.000194853
0.00127139
-0.000212474
0.00126538
-0.000230419
0.00125856
-0.000248658
0.00125092
-0.000267158
0.00124247
-0.000285884
0.00123324
-0.000304801
0.00122326
-0.000323868
0.00121256
-0.000343046
0.00120119
-0.000362293
0.00118923
-0.000381566
0.00117675
-0.000400824
0.00116385
-0.000420029
0.00115069
-0.000439148
0.00113745
-0.000458172
0.00112444
-0.000477139
0.0011121
-0.00049618
0.00110111
-0.000515573
0.00109242
-0.000535759
0.00108714
-0.000557296
0.00108619
-0.000580553
0.00108914
-0.000604821
0.00109258
-0.00062653
0.00108905
-0.000638499
-0.000632358
0.00107016
0.000938395
0.000165809
-0.000923429
0.000953212
0.000163889
0.00096787
0.000161796
0.000982357
0.000159535
0.000996663
0.000157101
0.00101078
0.000154486
0.00102468
0.000151682
0.00103838
0.000148681
0.00105184
0.000145474
0.00106507
0.000142053
0.00107804
0.000138408
0.00109074
0.00013453
0.00110316
0.00013041
0.00111529
0.000126037
0.0011271
0.000121401
0.00113859
0.000116491
0.00114975
0.000111297
0.00116054
0.000105808
0.00117098
0.000100014
0.00118102
9.39026e-05
0.00119067
8.74627e-05
0.00119991
8.06823e-05
0.00120872
7.35493e-05
0.00121708
6.60517e-05
0.00122498
5.81776e-05
0.00123241
4.99154e-05
0.00123934
4.12535e-05
0.00124576
3.21812e-05
0.00125166
2.26882e-05
0.00125701
1.27649e-05
0.0012618
2.40304e-06
0.00126601
-8.40902e-06
0.00126963
-1.96761e-05
0.00127263
-3.14017e-05
0.001275
-4.35891e-05
0.00127671
-5.62396e-05
0.00127776
-6.93527e-05
0.00127812
-8.29254e-05
0.00127778
-9.69525e-05
0.00127672
-0.000111426
0.00127494
-0.000126337
0.00127241
-0.000141672
0.00126914
-0.000157415
0.00126511
-0.000173551
0.00126031
-0.000190058
0.00125475
-0.000206916
0.00124843
-0.0002241
0.00124136
-0.000241586
0.00123355
-0.000259345
0.00122501
-0.000277349
0.00121578
-0.000295568
0.00120588
-0.000313972
0.00119537
-0.000332529
0.00118429
-0.000351211
0.00117271
-0.000369994
0.00116075
-0.00038886
0.00114853
-0.000407809
0.00113626
-0.000426874
0.00112423
-0.000446149
0.00111294
-0.000465842
0.00110306
-0.000486302
0.00109549
-0.000508006
0.00109113
-0.000531393
0.00109034
-0.000556511
0.001092
-0.000582211
0.00109191
-0.000604728
0.00108242
-0.00061704
0.00105525
-0.000611332
-0.000582264
0.00100516
0.000934001
0.000150883
-0.000919075
0.000948775
0.000149115
0.000963387
0.000147185
0.000977825
0.000145098
0.000992077
0.000142848
0.00100613
0.00014043
0.00101998
0.000137835
0.00103361
0.000135056
0.001047
0.000132084
0.00106014
0.000128911
0.00107302
0.000125529
0.00108562
0.000121928
0.00109793
0.000118099
0.00110993
0.000114034
0.00112161
0.00010972
0.00113295
0.00010515
0.00114394
0.000100312
0.00115455
9.51948e-05
0.00116478
8.97888e-05
0.0011746
8.40824e-05
0.001184
7.80642e-05
0.00119296
7.17224e-05
0.00120146
6.50453e-05
0.00120949
5.80208e-05
0.00121703
5.06369e-05
0.00122406
4.2882e-05
0.00123057