/*--------------------------------*- C++ -*----------------------------------*\
| =========                 |                                                 |
| \\      /  F ield         | OpenFOAM: The Open Source CFD Toolbox           |
|  \\    /   O peration     | Version:  2312                                  |
|   \\  /    A nd           | Website:  www.openfoam.com                      |
|    \\/     M anipulation  |                                                 |
\*---------------------------------------------------------------------------*/
FoamFile
{
    version     2.0;
    format      ascii;
    arch        "LSB;label=32;scalar=64";
    class       volVectorField;
    location    "1300";
    object      U;
}
// * * * * * * * * * * * * * * * * * * * * * * * * * * * * * * * * * * * * * //

dimensions      [0 1 -1 0 0 0 0];

internalField   nonuniform List<vector> 
76025
(
(0.0374747 -0.00759221 0)
(0.0376688 -0.00764016 2.15478e-22)
(0.0378644 -0.00768379 0)
(0.0380626 -0.00772258 0)
(0.0382639 -0.00775903 -2.86935e-22)
(0.0384717 -0.0077816 -4.24938e-22)
(0.0386805 -0.00780669 6.56228e-22)
(0.0388924 -0.00782083 -2.50737e-22)
(0.0391011 -0.00783353 -3.83984e-23)
(0.0393096 -0.00783967 1.30571e-23)
(0.0395212 -0.00783939 1.24878e-23)
(0.0397359 -0.00783037 -1.332e-22)
(0.0399516 -0.00781845 1.70997e-22)
(0.0401655 -0.00779777 0)
(0.040379 -0.00776613 -1.13477e-22)
(0.0405898 -0.00773687 0)
(0.0408017 -0.00769069 0)
(0.0410129 -0.00764757 0)
(0.0412237 -0.00759014 -1.93447e-22)
(0.0414318 -0.00753291 2.42433e-22)
(0.0416382 -0.00746315 2.671e-22)
(0.041842 -0.00739013 8.53511e-22)
(0.0420408 -0.00730846 -5.8714e-22)
(0.0422381 -0.00721752 -1.02569e-21)
(0.0424331 -0.00712332 -4.68498e-23)
(0.0426258 -0.00702531 -4.41616e-22)
(0.0428156 -0.00691146 1.22185e-21)
(0.0430014 -0.00679518 -1.25518e-21)
(0.0431874 -0.00666839 4.37922e-22)
(0.0433687 -0.00653101 -4.60375e-22)
(0.0435407 -0.00640448 -4.8716e-22)
(0.0437107 -0.00626677 1.07587e-21)
(0.0438767 -0.00611356 -1.63305e-21)
(0.0440388 -0.00596216 -3.00947e-22)
(0.044196 -0.00579713 1.51127e-21)
(0.0443481 -0.00563196 1.03477e-23)
(0.0444979 -0.00545763 -3.03188e-22)
(0.0446424 -0.0052742 1.61959e-22)
(0.0447804 -0.00509324 8.94082e-24)
(0.0449078 -0.00490219 -2.43178e-22)
(0.0450283 -0.00470759 1.62425e-22)
(0.045147 -0.00450422 -8.00797e-23)
(0.0452561 -0.00428886 1.5983e-22)
(0.0453546 -0.00407436 -3.24861e-22)
(0.0454424 -0.00385094 -3.35293e-22)
(0.045524 -0.00362587 6.36536e-22)
(0.0455943 -0.00338895 6.6151e-22)
(0.0456499 -0.00314877 -2.00387e-21)
(0.0456925 -0.00290356 1.27831e-21)
(0.0457249 -0.00265443 -3.62334e-23)
(0.0457428 -0.00239936 -3.2342e-21)
(0.0457433 -0.0021374 -1.23283e-21)
(0.0457261 -0.00187136 1.28296e-21)
(0.0456872 -0.00160109 0)
(0.0456194 -0.00132581 -1.16614e-21)
(0.0455325 -0.0010468 -1.20701e-21)
(0.0454196 -0.00076152 2.1794e-23)
(0.0452752 -0.000467504 -1.10723e-21)
(0.0451009 -0.000166781 1.02776e-21)
(0.0448936 0.000134192 -2.90008e-21)
(0.0446505 0.000422038 -1.90602e-21)
(0.0443463 0.000723574 -1.43289e-22)
(0.0439842 0.00102968 0)
(0.0435556 0.00133232 3.42635e-21)
(0.0430379 0.00162737 -1.06318e-21)
(0.0424256 0.00192641 5.5015e-22)
(0.0417242 0.00220343 -7.72842e-22)
(0.0408911 0.00241369 7.32758e-22)
(0.0398909 0.00254327 9.44766e-22)
(0.0373918 -0.00794083 2.41079e-22)
(0.0375942 -0.00798993 6.09718e-22)
(0.0377986 -0.00803376 -8.29878e-22)
(0.038006 -0.00807245 0)
(0.0382157 -0.00810595 6.56627e-22)
(0.0384308 -0.0081323 -1.06101e-22)
(0.0386473 -0.00815368 -4.03723e-22)
(0.0388667 -0.0081685 0)
(0.0390875 -0.0081777 1.22852e-23)
(0.0393085 -0.00818076 -1.34651e-23)
(0.0395305 -0.00817739 -1.26913e-23)
(0.0397539 -0.00816687 1.60618e-23)
(0.039978 -0.00815006 0)
(0.040203 -0.00812612 0)
(0.0404284 -0.00809432 -3.0552e-22)
(0.0406519 -0.00805725 7.24915e-22)
(0.0408756 -0.00801152 1.91868e-22)
(0.0410976 -0.00796028 -6.59868e-22)
(0.0413188 -0.00790095 4.41146e-22)
(0.0415379 -0.00783556 -2.49015e-22)
(0.0417558 -0.00776225 3.25506e-22)
(0.041971 -0.00768235 -6.02178e-22)
(0.0421831 -0.00759501 7.06709e-22)
(0.0423924 -0.00749969 -1.11467e-21)
(0.0425989 -0.00739764 7.61944e-22)
(0.0428026 -0.00728913 1.27024e-21)
(0.0430031 -0.00717254 -8.6846e-22)
(0.0431986 -0.00704942 0)
(0.0433912 -0.00691849 0)
(0.0435802 -0.00678062 -5.43665e-22)
(0.0437651 -0.00663626 0)
(0.0439457 -0.00648557 -5.97051e-22)
(0.0441207 -0.0063273 6.14246e-22)
(0.0442899 -0.00616297 -9.44117e-22)
(0.0444538 -0.00599091 1.99006e-23)
(0.0446121 -0.00581294 -3.2434e-22)
(0.0447657 -0.005627 0)
(0.0449132 -0.00543656 -6.93244e-22)
(0.0450537 -0.00524107 5.2746e-22)
(0.0451863 -0.00503913 -4.35732e-22)
(0.0453111 -0.00482949 2.65608e-22)
(0.0454288 -0.00461301 -2.17682e-24)
(0.0455377 -0.00439297 9.61744e-23)
(0.0456367 -0.00416705 -8.9598e-23)
(0.0457258 -0.00393409 7.35594e-22)
(0.045805 -0.00369393 -3.70761e-22)
(0.0458728 -0.00344889 -3.83566e-22)
(0.0459275 -0.00319862 6.99538e-22)
(0.0459689 -0.00294001 2.1453e-21)
(0.045997 -0.00267434 -1.81439e-23)
(0.04601 -0.00240339 2.08645e-21)
(0.0460056 -0.00212656 -6.90903e-22)
(0.0459825 -0.00184446 -2.00097e-21)
(0.0459386 -0.00155725 1.34319e-21)
(0.0458712 -0.00126429 0)
(0.045779 -0.000960966 3.81792e-21)
(0.0456621 -0.000653607 -2.41482e-23)
(0.0455157 -0.000339142 -1.20399e-21)
(0.0453389 -1.91092e-05 -1.18167e-21)
(0.0451269 0.0003053 0)
(0.0448707 0.000636334 9.60449e-22)
(0.0445606 0.00097105 2.75508e-21)
(0.0441846 0.00131313 0)
(0.0437329 0.00165888 -1.46367e-21)
(0.0431907 0.00200499 7.96383e-22)
(0.0425435 0.00235449 -1.18084e-21)
(0.0417912 0.00268698 5.41588e-22)
(0.0409098 0.00298346 -7.72202e-22)
(0.0398918 0.00325524 -5.60777e-22)
(0.0373042 -0.0083056 -1.155e-21)
(0.0375168 -0.00835504 7.11737e-22)
(0.0377317 -0.00839919 -1.86615e-22)
(0.0379499 -0.008438 5.92873e-22)
(0.0381705 -0.00847069 -7.20211e-22)
(0.0383937 -0.00849704 -3.66724e-22)
(0.0386194 -0.00851695 4.37036e-22)
(0.0388476 -0.00853045 0)
(0.039078 -0.00853738 1.41808e-23)
(0.03931 -0.00853763 0)
(0.0395429 -0.00853107 4.44493e-23)
(0.0397765 -0.00851753 -5.54173e-23)
(0.0400107 -0.00849692 -5.26729e-22)
(0.0402453 -0.00846916 4.24361e-22)
(0.0404802 -0.00843401 -1.38246e-22)
(0.0407149 -0.00839156 -5.46774e-22)
(0.0409491 -0.00834182 1.8778e-22)
(0.0411822 -0.0082847 2.20847e-22)
(0.0414139 -0.00822033 8.23376e-22)
(0.0416438 -0.00814848 -5.49687e-22)
(0.0418717 -0.00806922 -3.31525e-22)
(0.0420973 -0.00798251 7.15732e-22)
(0.0423202 -0.00788824 -3.29228e-22)
(0.0425402 -0.0077862 -4.16411e-22)
(0.0427573 -0.00767666 0)
(0.0429708 -0.00755985 4.72594e-22)
(0.0431802 -0.00743573 4.89207e-22)
(0.0433856 -0.00730407 -4.65785e-22)
(0.0435869 -0.00716481 0)
(0.0437841 -0.00701831 1.12998e-21)
(0.0439768 -0.00686441 -6.11554e-22)
(0.0441644 -0.0067038 -3.97654e-23)
(0.0443462 -0.00653625 0)
(0.0445222 -0.00636151 3.26158e-22)
(0.0446923 -0.00617963 -1.04612e-21)
(0.044856 -0.00599144 6.99824e-22)
(0.0450135 -0.00579667 0)
(0.0451642 -0.00559588 5.47668e-22)
(0.0453078 -0.00538884 -5.56608e-22)
(0.0454434 -0.00517546 -9.09111e-23)
(0.0455706 -0.00495529 0)
(0.0456894 -0.00472874 -1.90086e-22)
(0.0457993 -0.00449628 -9.60984e-23)
(0.0458993 -0.00425717 9.06053e-23)
(0.0459888 -0.00401142 -5.63713e-22)
(0.0460673 -0.00375912 -3.94808e-22)
(0.0461342 -0.0035007 7.44744e-22)
(0.0461882 -0.00323557 -7.64687e-22)
(0.0462285 -0.00296325 7.78518e-22)
(0.0462546 -0.00268427 -7.51222e-22)
(0.0462653 -0.002399 -7.24261e-22)
(0.0462588 -0.00210712 1.5177e-21)
(0.0462338 -0.00180854 0)
(0.0461883 -0.00150311 1.47031e-21)
(0.0461205 -0.00119025 5.4064e-23)
(0.0460289 -0.000869097 -1.35443e-21)
(0.045912 -0.000540601 -1.3049e-21)
(0.0457666 -0.000203763 2.53644e-21)
(0.0455887 0.000141675 -5.6532e-23)
(0.0453722 0.000495709 1.19634e-21)
(0.045108 0.000858935 -2.25026e-21)
(0.0447851 0.00123191 -1.11808e-21)
(0.0443908 0.00161568 -5.2815e-23)
(0.0439139 0.00200834 -8.64495e-22)
(0.0433426 0.00240648 -7.06071e-22)
(0.0426639 0.00280763 -2.1384e-21)
(0.0418721 0.00320182 0)
(0.0409478 0.00357737 -4.65876e-22)
(0.039904 0.00393822 4.52822e-22)
(0.0372123 -0.00868938 0)
(0.0374364 -0.00873943 2.1683e-22)
(0.0376627 -0.00878388 8.67969e-22)
(0.0378923 -0.00882262 -6.78019e-22)
(0.0381243 -0.00885491 -3.11694e-22)
(0.0383586 -0.00888044 5.29549e-22)
(0.038595 -0.00889909 -7.17163e-23)
(0.0388336 -0.00891084 2.8155e-23)
(0.039074 -0.00891556 1.34631e-23)
(0.0393161 -0.00891318 -1.54113e-22)
(0.0395594 -0.00890354 1.72236e-22)
(0.0398036 -0.00888652 3.91696e-22)
(0.0400484 -0.00886206 -3.33409e-23)
(0.0402934 -0.00883005 -5.69214e-22)
(0.0405384 -0.00879037 4.98465e-22)
(0.0407833 -0.00874297 -2.1449e-22)
(0.0410275 -0.00868788 2.44602e-22)
(0.0412707 -0.00862503 2.74617e-22)
(0.0415126 -0.0085545 -8.84362e-22)
(0.0417526 -0.00847622 2.74447e-22)
(0.0419905 -0.00839016 3.33586e-22)
(0.0422259 -0.00829626 0)
(0.0424586 -0.0081945 8.72723e-22)
(0.0426882 -0.00808486 -4.23191e-22)
(0.0429145 -0.00796744 -9.53942e-22)
(0.043137 -0.00784236 -1.03953e-21)
(0.0433554 -0.00770957 2.05736e-21)
(0.0435695 -0.00756903 -1.09968e-21)
(0.043779 -0.00742083 0)
(0.0439837 -0.0072651 -1.21264e-21)
(0.0441833 -0.00710202 -3.17304e-23)
(0.0443774 -0.00693176 1.29063e-21)
(0.0445656 -0.00675424 -7.00643e-22)
(0.0447476 -0.00656934 1.80388e-21)
(0.0449233 -0.00637731 -3.47733e-22)
(0.0450921 -0.00617886 0)
(0.045254 -0.0059737 0)
(0.0454087 -0.00576192 2.00017e-22)
(0.0455556 -0.00554362 1.90833e-22)
(0.0456942 -0.00531879 1.02144e-22)
(0.0458242 -0.00508729 -3.21775e-24)
(0.0459451 -0.00484913 9.78656e-23)
(0.0460566 -0.00460445 0)
(0.046158 -0.00435319 -1.15421e-23)
(0.0462486 -0.00409525 0)
(0.0463279 -0.00383052 3.85213e-22)
(0.0463953 -0.003559 3.38436e-24)
(0.0464498 -0.00328053 -1.23552e-21)
(0.0464906 -0.00299486 0)
(0.0465168 -0.00270193 -7.99085e-22)
(0.0465276 -0.00240175 7.89938e-22)
(0.0465214 -0.00209412 -1.51826e-21)
(0.046497 -0.00177883 0)
(0.0464528 -0.00145559 -4.5384e-21)
(0.0463873 -0.00112391 5.01322e-23)
(0.0462986 -0.000783038 1.45722e-21)
(0.0461844 -0.000432623 1.40861e-21)
(0.0460407 -7.1828e-05 0)
(0.0458619 0.000300382 0)
(0.0456405 0.000684927 -1.17774e-21)
(0.0453662 0.00108297 2.21115e-21)
(0.0450279 0.00149509 2.0575e-21)
(0.0446136 0.00192168 0)
(0.0441123 0.00236158 -1.92671e-21)
(0.0435138 0.00281164 0)
(0.0428058 0.00326928 2.15785e-21)
(0.0419826 0.00372745 -7.19383e-22)
(0.0410267 0.00417728 -5.74927e-22)
(0.0399528 0.00462804 -6.02093e-22)
(0.0371144 -0.00909367 0)
(0.0373509 -0.00914459 0)
(0.0375897 -0.00918947 1.72501e-22)
(0.0378316 -0.0092282 -5.22723e-22)
(0.038076 -0.00926007 6.2988e-22)
(0.0383225 -0.0092847 -8.96262e-23)
(0.038571 -0.009302 0)
(0.0388213 -0.00931189 -2.83398e-23)
(0.0390733 -0.00931429 0)
(0.0393265 -0.00930909 1.14728e-22)
(0.0395809 -0.00929618 8.28541e-23)
(0.0398361 -0.00927546 -1.76999e-22)
(0.0400919 -0.00924681 0)
(0.0403478 -0.00921015 3.63904e-22)
(0.0406036 -0.00916542 -1.18596e-21)
(0.0408589 -0.00911262 8.86467e-22)
(0.0411134 -0.00905173 -1.2829e-21)
(0.0413667 -0.00898269 2.7324e-22)
(0.0416186 -0.00890552 -3.36873e-22)
(0.0418685 -0.00882022 3.36097e-22)
(0.0421162 -0.00872679 3.93671e-22)
(0.0423612 -0.00862517 -1.22384e-21)
(0.0426033 -0.00851539 -8.85778e-22)
(0.042842 -0.00839747 0)
(0.0430771 -0.00827145 1.03151e-21)
(0.0433082 -0.00813743 5.6872e-22)
(0.043535 -0.00799543 -1.63629e-21)
(0.0437572 -0.00784552 5.70896e-22)
(0.0439744 -0.00768777 -1.26542e-21)
(0.0441863 -0.00752228 1.89986e-21)
(0.0443927 -0.00734918 -7.01124e-22)
(0.0445933 -0.00716855 3.65281e-22)
(0.0447875 -0.00698045 0)
(0.0449753 -0.00678483 -3.7074e-22)
(0.0451563 -0.00658209 -3.81937e-22)
(0.0453301 -0.00637277 0)
(0.0454964 -0.00615659 4.18736e-22)
(0.045655 -0.00593361 -6.15811e-22)
(0.0458054 -0.0057039 4.11524e-22)
(0.0459473 -0.00546746 -2.10312e-22)
(0.0460802 -0.00522424 -3.59919e-24)
(0.0462037 -0.00497424 -1.63427e-22)
(0.0463174 -0.00471748 5.31137e-23)
(0.0464207 -0.00445393 2.0893e-22)
(0.0465132 -0.00418347 1.04329e-23)
(0.0465941 -0.00390596 1.28954e-21)
(0.0466629 -0.00362132 0)
(0.0467189 -0.00332939 8.32592e-22)
(0.0467612 -0.00302992 -2.3813e-23)
(0.0467891 -0.00272272 -8.43697e-22)
(0.0468015 -0.00240762 0)
(0.0467976 -0.00208436 -8.27352e-22)
(0.0467761 -0.00175259 8.16377e-22)
(0.0467355 -0.00141182 1.55524e-21)
(0.0466742 -0.00106137 0)
(0.0465898 -0.000700318 -2.99853e-21)
(0.0464787 -0.000327615 2.95655e-21)
(0.0463359 5.80758e-05 -2.8457e-21)
(0.0461543 0.00045835 -3.9363e-23)
(0.045925 0.000874645 0)
(0.0456377 0.00130831 -1.20212e-21)
(0.045282 0.00176 1.09242e-21)
(0.0448469 0.00223001 1.15695e-21)
(0.0443229 0.00271744 1.90443e-21)
(0.0437005 0.00321973 -2.87184e-21)
(0.0429685 0.0037352 1.7252e-21)
(0.0421218 0.00425786 -8.30205e-22)
(0.0411417 0.00478069 9.10141e-22)
(0.0400454 0.00531621 1.89912e-21)
(0.0370091 -0.00952001 -8.53004e-22)
(0.0372594 -0.00957179 1.27862e-22)
(0.0375117 -0.00961706 7.28314e-22)
(0.0377671 -0.00965575 0)
(0.038025 -0.00968709 -1.08943e-22)
(0.0382847 -0.00971072 0)
(0.0385463 -0.00972651 4.10029e-23)
(0.0388096 -0.00973442 -6.58053e-23)
(0.0390742 -0.0097343 6.41378e-23)
(0.0393401 -0.00972604 -7.2927e-23)
(0.0396068 -0.00970958 -8.41422e-23)
(0.039874 -0.00968483 -1.39969e-22)
(0.0401415 -0.00965165 0)
(0.040409 -0.00961001 0)
(0.0406761 -0.00955985 2.12004e-22)
(0.0409426 -0.00950117 2.43756e-22)
(0.041208 -0.00943396 -6.11648e-22)
(0.0414719 -0.0093582 6.11721e-22)
(0.0417341 -0.00927386 7.09625e-22)
(0.0419942 -0.00918097 -8.02536e-22)
(0.0422517 -0.00907954 1.63308e-21)
(0.0425063 -0.00896958 2.4294e-23)
(0.0427577 -0.00885114 -9.68109e-22)
(0.0430055 -0.00872426 -5.32135e-22)
(0.0432493 -0.00858899 -1.11379e-21)
(0.0434889 -0.00844543 1.11702e-21)
(0.0437238 -0.00829364 1.23565e-21)
(0.0439537 -0.00813372 -1.24024e-21)
(0.0441783 -0.00796575 0)
(0.0443973 -0.00778984 0)
(0.0446103 -0.00760609 1.81413e-21)
(0.0448171 -0.00741461 4.96206e-23)
(0.0450173 -0.00721551 -7.71387e-22)
(0.0452106 -0.00700874 -8.2505e-22)
(0.0453966 -0.0067949 8.22704e-22)
(0.0455752 -0.00657428 0)
(0.0457459 -0.00634669 -4.17767e-22)
(0.0459084 -0.00611213 -6.64775e-22)
(0.0460625 -0.00587068 4.35649e-22)
(0.0462077 -0.00562236 -6.48024e-24)
(0.0463437 -0.00536715 -3.52377e-23)
(0.04647 -0.00510504 1.65424e-22)
(0.0465863 -0.00483601 1.16576e-22)
(0.046692 -0.00455999 2.28498e-22)
(0.0467867 -0.00427686 -1.12578e-21)
(0.0468699 -0.0039865 9.98802e-24)
(0.046941 -0.00368872 0)
(0.0469993 -0.00338333 -9.32185e-22)
(0.0470442 -0.00307008 2.70514e-21)
(0.047075 -0.00274868 -1.81249e-21)
(0.047091 -0.00241885 -8.85936e-22)
(0.0470911 -0.00208017 -2.80441e-23)
(0.0470743 -0.00173212 -8.32197e-22)
(0.0470389 -0.00137397 5.475e-24)
(0.0469826 -0.00100469 1.65656e-21)
(0.0469021 -0.00062297 -1.66283e-21)
(0.0467925 -0.000227204 -1.54689e-21)
(0.0466474 0.000184403 2.99317e-21)
(0.0464589 0.000613758 -6.07025e-23)
(0.046218 0.00106248 1.35097e-21)
(0.0459151 0.00153201 -1.31196e-21)
(0.0455411 0.00202302 1.17773e-21)
(0.0450863 0.002536 -2.22085e-21)
(0.0445431 0.00307041 -1.07321e-21)
(0.043902 0.00362465 2.01598e-21)
(0.043153 0.00419843 -1.0845e-21)
(0.0422914 0.00478628 -2.90013e-21)
(0.0412954 0.00538353 -7.30549e-22)
(0.0401803 0.00601009 0)
(0.0368964 -0.00997062 0)
(0.0371614 -0.0100231 -1.86753e-22)
(0.0374283 -0.0100686 -1.19654e-23)
(0.0376983 -0.010107 0)
(0.0379706 -0.0101376 0)
(0.0382447 -0.01016 -4.51598e-23)
(0.0385205 -0.010174 1.44684e-23)
(0.0387977 -0.0101796 5.96835e-23)
(0.0390761 -0.0101767 -4.26948e-23)
(0.0393555 -0.0101651 7.31635e-23)
(0.0396356 -0.0101448 0)
(0.0399159 -0.0101156 1.4047e-22)
(0.0401963 -0.0100775 -2.01728e-22)
(0.0404764 -0.0100305 0)
(0.0407558 -0.00997451 0)
(0.0410342 -0.0099095 3.05707e-22)
(0.0413111 -0.00983546 6.72504e-23)
(0.0415864 -0.00975239 -6.78702e-22)
(0.0418595 -0.00966031 -7.75554e-22)
(0.0421301 -0.00955926 8.12227e-22)
(0.0423979 -0.00944926 4.37202e-22)
(0.0426625 -0.00933037 1.987e-21)
(0.0429234 -0.00920266 3.40157e-23)
(0.0431804 -0.00906618 -6.04063e-22)
(0.0434331 -0.00892102 1.13971e-21)
(0.0436811 -0.00876729 -6.23213e-22)
(0.0439241 -0.00860508 1.26794e-21)
(0.0441617 -0.0084345 0)
(0.0443936 -0.00825567 0)
(0.0446195 -0.0080687 0)
(0.0448391 -0.00787372 -3.74672e-22)
(0.045052 -0.00767086 -7.91026e-22)
(0.0452579 -0.00746022 8.2148e-22)
(0.0454566 -0.00724179 8.76633e-22)
(0.0456477 -0.00701635 -8.71519e-22)
(0.0458308 -0.00678396 0)
(0.0460058 -0.00654448 4.60087e-22)
(0.0461723 -0.00629793 -2.31664e-22)
(0.04633 -0.00604439 0)
(0.0464786 -0.00578389 2.35073e-22)
(0.0466177 -0.00551642 -4.41838e-23)
(0.046747 -0.00524196 2.94968e-23)
(0.0468661 -0.00496047 -1.16198e-22)
(0.0469746 -0.00467186 0)
(0.0470721 -0.00437601 -4.82639e-22)
(0.0471581 -0.00407275 4.7724e-22)
(0.0472321 -0.00376188 0)
(0.0472938 -0.00344317 -2.97097e-23)
(0.0473425 -0.00311631 2.31927e-23)
(0.0473776 -0.00278095 9.1534e-22)
(0.0473985 -0.00243664 0)
(0.0474041 -0.0020828 -5.52689e-23)
(0.0473928 -0.00171862 -8.78964e-22)
(0.0473624 -0.001343 -2.68886e-21)
(0.0473098 -0.000954531 -5.48236e-23)
(0.0472302 -0.000551464 1.63124e-21)
(0.0471179 -0.000131839 0)
(0.0469657 0.000306361 0)
(0.0467658 0.000765108 1.56316e-21)
(0.0465101 0.00124603 0)
(0.0461903 0.00175061 0)
(0.045799 0.00227966 -7.53451e-23)
(0.0453278 0.00283423 -1.27635e-21)
(0.0447706 0.00341423 -2.45523e-21)
(0.0441175 0.00401955 2.40997e-21)
(0.0433605 0.00465133 -2.66575e-22)
(0.0424936 0.00530444 9.79964e-22)
(0.0414915 0.00597746 1.10298e-21)
(0.0403683 0.0066979 0)
(0.036777 -0.0104478 0)
(0.0370573 -0.0105006 1.87112e-22)
(0.0373396 -0.010546 -4.07064e-22)
(0.037625 -0.010584 1.53643e-22)
(0.0379127 -0.0106136 0)
(0.0382021 -0.0106344 8.20001e-23)
(0.0384932 -0.0106463 -1.05608e-23)
(0.0387855 -0.0106493 7.261e-23)
(0.0390787 -0.0106431 -3.50038e-22)
(0.0393726 -0.0106279 5.83838e-23)
(0.0396669 -0.0106033 -1.5901e-22)
(0.0399613 -0.0105693 -1.95825e-22)
(0.0402555 -0.010526 6.70659e-22)
(0.0405492 -0.0104731 -1.00804e-21)
(0.0408418 -0.0104107 5.39419e-22)
(0.0411331 -0.0103387 -3.74509e-22)
(0.0414226 -0.0102573 1.43137e-21)
(0.0417099 -0.0101663 -3.37785e-22)
(0.0419947 -0.0100659 4.80197e-22)
(0.0422766 -0.00995604 -4.15312e-22)
(0.0425552 -0.00983684 6.72832e-23)
(0.0428301 -0.00970837 -3.18283e-21)
(0.0431011 -0.00957072 -6.08235e-22)
(0.0433676 -0.00942397 -6.43886e-23)
(0.0436294 -0.00926825 1.88468e-21)
(0.0438861 -0.00910366 -6.4068e-22)
(0.0441373 -0.00893034 1.42265e-21)
(0.0443827 -0.00874843 -2.18257e-21)
(0.044622 -0.00855807 0)
(0.0448549 -0.00835939 -8.0679e-22)
(0.0450809 -0.00815255 8.10334e-22)
(0.0452999 -0.00793769 2.75973e-23)
(0.0455115 -0.00771493 -4.58174e-22)
(0.0457155 -0.00748432 -4.73722e-22)
(0.0459114 -0.00724678 1.4281e-21)
(0.0460991 -0.00700212 -9.3651e-22)
(0.0462783 -0.00675029 7.33534e-22)
(0.0464487 -0.00649136 -9.71908e-22)
(0.0466101 -0.00622539 4.8606e-22)
(0.046762 -0.00595242 -1.20341e-22)
(0.0469044 -0.00567245 0)
(0.0470368 -0.00538546 1.26319e-22)
(0.0471589 -0.0050914 -1.24958e-22)
(0.0472705 -0.00479016 -2.53986e-22)
(0.0473713 -0.00448161 7.59279e-22)
(0.0474608 -0.00416557 -5.14859e-22)
(0.0475388 -0.00384181 -5.01379e-22)
(0.0476048 -0.00351004 0)
(0.0476584 -0.00316989 -2.02723e-21)
(0.0476989 -0.00282086 1.9762e-21)
(0.0477253 -0.00246231 -9.46482e-22)
(0.0477362 -0.00209335 9.33217e-22)
(0.0477292 -0.00171284 9.75399e-22)
(0.0477013 -0.00131929 1.82476e-21)
(0.0476481 -0.000910958 1.7512e-21)
(0.0475642 -0.000485859 0)
(0.0474434 -4.19359e-05 -1.75774e-21)
(0.047279 0.000422799 0)
(0.0470641 0.000910238 4.533e-23)
(0.046792 0.00142199 -1.46119e-21)
(0.0464562 0.00195973 1.47842e-21)
(0.0460507 0.00252458 1.35958e-21)
(0.0455682 0.00311844 -1.4375e-21)
(0.0450039 0.00374182 -4.49922e-23)
(0.0443474 0.00439667 8.23174e-23)
(0.0435927 0.00508511 3.79277e-21)
(0.0427315 0.00580271 1.36601e-21)
(0.041737 0.00655428 1.27288e-21)
(0.0406241 0.00737131 -1.30774e-21)
(0.0366521 -0.0109539 0)
(0.0369484 -0.0110068 0)
(0.0372468 -0.0110519 -2.24158e-22)
(0.0375484 -0.0110891 3.24337e-22)
(0.0378522 -0.0111173 4.40846e-23)
(0.0381578 -0.0111363 0)
(0.0384648 -0.0111457 0)
(0.0387732 -0.0111455 7.28452e-23)
(0.0390824 -0.0111356 -2.32787e-22)
(0.0393918 -0.011116 -1.04239e-22)
(0.0397012 -0.0110867 8.50221e-22)
(0.0400105 -0.0110475 -1.87505e-22)
(0.0403193 -0.0109983 2.6771e-22)
(0.0406273 -0.0109391 -5.33241e-22)
(0.0409341 -0.0108697 3.41907e-22)
(0.0412392 -0.0107902 0)
(0.041542 -0.0107007 0)
(0.0418423 -0.0106012 3.35627e-23)
(0.0421395 -0.0104917 -1.39058e-21)
(0.0424334 -0.0103723 4.83056e-22)
(0.0427235 -0.0102432 -5.63306e-22)
(0.0430095 -0.0101044 5.52409e-22)
(0.0432909 -0.00995608 6.17575e-22)
(0.0435674 -0.00979833 -5.84275e-22)
(0.0438387 -0.0096313 -6.54302e-22)
(0.0441044 -0.00945513 0)
(0.0443642 -0.00926997 0)
(0.0446176 -0.00907601 1.15738e-21)
(0.0448644 -0.0088734 0)
(0.0451043 -0.00866232 8.59339e-22)
(0.0453369 -0.00844295 -8.62816e-22)
(0.0455619 -0.00821547 -4.40675e-22)
(0.0457791 -0.00797999 4.56251e-22)
(0.0459884 -0.00773672 9.7167e-22)
(0.0461892 -0.0074865 -4.7843e-22)
(0.0463814 -0.00722907 -5.05811e-22)
(0.0465647 -0.00696446 5.16063e-22)
(0.046739 -0.00669276 0)
(0.046904 -0.00641405 0)
(0.0470595 -0.00612837 1.34295e-22)
(0.0472052 -0.00583573 0)
(0.047341 -0.00553611 0)
(0.0474667 -0.00522945 -4.02642e-22)
(0.0475819 -0.00491566 5.36385e-22)
(0.0476866 -0.00459458 -2.73126e-22)
(0.0477804 -0.004266 5.15087e-22)
(0.047863 -0.00392964 0)
(0.0479341 -0.00358511 1.59513e-21)
(0.047993 -0.00323188 -2.5099e-23)
(0.0480385 -0.00286925 0)
(0.0480692 -0.00249629 -2.03895e-21)
(0.0480827 -0.00211178 -2.98089e-23)
(0.0480759 -0.00171428 -1.93565e-21)
(0.0480449 -0.00130205 -9.91644e-22)
(0.0479847 -0.000873238 -1.87151e-21)
(0.0478901 -0.000425891 1.82274e-21)
(0.0477553 4.19176e-05 1.711e-21)
(0.0475749 0.000532027 0)
(0.0473434 0.00104626 -1.65447e-21)
(0.0470557 0.00158634 6.45754e-23)
(0.0467069 0.0021543 0)
(0.0462921 0.00275178 0)
(0.0458052 0.00338179 1.43932e-21)
(0.0452421 0.00404552 0)
(0.0445921 0.00474751 0)
(0.0438517 0.00548973 -1.50263e-21)
(0.0430092 0.00627021 -1.34437e-21)
(0.0420418 0.00710149 -1.68772e-21)
(0.0409595 0.00800923 0)
(0.0365226 -0.0114916 0)
(0.0368356 -0.0115446 0)
(0.037151 -0.0115891 0)
(0.0374696 -0.0116251 6.3006e-23)
(0.0377904 -0.0116516 -1.59884e-23)
(0.0381129 -0.0116681 -7.9683e-23)
(0.0384367 -0.0116746 5.16312e-23)
(0.0387618 -0.0116708 -7.26872e-23)
(0.0390876 -0.0116567 1.40965e-22)
(0.0394138 -0.0116321 3.31469e-22)
(0.0397395 -0.0115974 0)
(0.0400645 -0.0115523 0)
(0.0403888 -0.0114967 -3.65993e-23)
(0.0407118 -0.0114303 9.44811e-22)
(0.0410334 -0.0113533 -1.48053e-21)
(0.0413531 -0.0112655 -7.67851e-23)
(0.0416701 -0.0111671 8.33959e-22)
(0.0419841 -0.0110581 4.52743e-22)
(0.0422946 -0.0109387 -4.62409e-23)
(0.0426011 -0.0108091 0)
(0.0429033 -0.0106693 1.17242e-21)
(0.0432008 -0.0105194 0)
(0.0434933 -0.0103597 1.31718e-21)
(0.0437804 -0.0101901 -2.08727e-21)
(0.0440617 -0.010011 2.17875e-21)
(0.0443367 -0.00982241 7.92303e-22)
(0.0446053 -0.00962463 -1.22717e-21)
(0.044867 -0.00941783 1.26076e-21)
(0.0451215 -0.00920222 -8.49732e-22)
(0.0453685 -0.00897801 0)
(0.0456078 -0.00874542 -9.46017e-22)
(0.045839 -0.00850463 -5.26824e-22)
(0.046062 -0.0082558 9.82375e-22)
(0.0462765 -0.00799937 -1.02405e-21)
(0.0464821 -0.00773589 5.25297e-22)
(0.0466788 -0.00746522 -5.20165e-22)
(0.0468664 -0.00718743 -2.58625e-22)
(0.0470447 -0.00690263 2.77526e-22)
(0.0472135 -0.00661091 1.34015e-22)
(0.0473727 -0.00631235 -4.04009e-22)
(0.0475222 -0.00600695 -3.54372e-23)
(0.0476618 -0.0056947 0)
(0.0477914 -0.00537555 1.34701e-22)
(0.0479109 -0.00504937 -2.69702e-22)
(0.04802 -0.00471597 2.69516e-22)
(0.0481185 -0.00437506 0)
(0.0482058 -0.00402623 0)
(0.0482813 -0.00366892 5.65843e-22)
(0.0483437 -0.00330238 -1.07831e-21)
(0.0483914 -0.00292563 -2.17459e-21)
(0.0484219 -0.00253748 4.21712e-21)
(0.0484323 -0.00213652 -1.06444e-21)
(0.0484189 -0.00172116 1.01291e-21)
(0.0483775 -0.00128972 9.62741e-22)
(0.0483035 -0.000840447 -1.936e-21)
(0.0481926 -0.000371632 1.88743e-21)
(0.0480402 0.000118448 0)
(0.0478423 0.000631532 -1.85671e-21)
(0.0475952 0.00116951 6.9075e-23)
(0.047295 0.00173437 1.71886e-21)
(0.0469381 0.00232869 0)
(0.0465208 0.00295483 0)
(0.0460376 0.00361707 0)
(0.0454851 0.00431732 3.38476e-21)
(0.0448531 0.00506299 1.75341e-21)
(0.0441395 0.0058545 1.61185e-21)
(0.0433318 0.00669611 -3.52006e-21)
(0.0424155 0.0076031 -2.41191e-22)
(0.0414194 0.00859743 2.13575e-21)
(0.0363888 -0.0120638 0)
(0.0367195 -0.0121165 2.2975e-22)
(0.0370527 -0.0121601 -2.70351e-22)
(0.0373894 -0.0121945 2.01558e-23)
(0.0377282 -0.0122187 -5.97821e-23)
(0.0380686 -0.0122323 4.55775e-23)
(0.0384102 -0.0122352 8.81249e-23)
(0.0387528 -0.0122273 0)
(0.0390961 -0.0122085 -3.13173e-22)
(0.0394397 -0.0121787 -3.99812e-22)
(0.0397828 -0.0121378 4.33321e-22)
(0.0401247 -0.012086 -2.98301e-22)
(0.0404652 -0.0120231 3.77702e-22)
(0.0408041 -0.0119489 -2.58467e-22)
(0.0411411 -0.0118634 -1.64051e-21)
(0.0414758 -0.0117665 -7.96579e-23)
(0.0418077 -0.0116584 -7.8927e-23)
(0.0421362 -0.0115391 9.97302e-22)
(0.0424607 -0.0114089 5.33433e-22)
(0.0427807 -0.011268 1.22781e-21)
(0.0430957 -0.0111166 -1.17451e-21)
(0.0434055 -0.0109548 0)
(0.0437096 -0.0107827 5.58483e-23)
(0.0440077 -0.0106004 0)
(0.0442993 -0.0104083 -7.51963e-22)
(0.0445842 -0.0102065 -7.87053e-22)
(0.0448619 -0.0099952 4.10858e-22)
(0.0451321 -0.00977472 0)
(0.0453946 -0.00954529 4.76453e-22)
(0.045649 -0.00930716 9.68593e-22)
(0.0458951 -0.00906059 -9.7173e-22)
(0.0461326 -0.00880582 4.9409e-22)
(0.0463615 -0.00854299 -1.06574e-21)
(0.0465813 -0.00827282 2.12601e-21)
(0.0467919 -0.00799557 -5.38637e-22)
(0.0469933 -0.00771121 0)
(0.0471853 -0.00741987 -2.88044e-22)
(0.0473678 -0.00712169 1.69127e-23)
(0.0475408 -0.00681678 4.24677e-22)
(0.0477041 -0.00650523 -3.55574e-22)
(0.0478576 -0.00618706 6.91591e-23)
(0.0480014 -0.00586223 -2.1939e-22)
(0.0481352 -0.00553064 1.43322e-22)
(0.0482589 -0.00519212 0)
(0.048372 -0.00484634 0)
(0.048474 -0.00449288 0)
(0.0485639 -0.00413113 5.86422e-22)
(0.0486403 -0.00376032 5.81245e-22)
(0.0487015 -0.00337947 0)
(0.0487451 -0.00298746 1.09991e-21)
(0.0487682 -0.00258299 1.14336e-21)
(0.0487676 -0.00216467 1.09656e-21)
(0.0487398 -0.00173107 0)
(0.0486812 -0.00128074 0)
(0.0485883 -0.000812216 -2.00073e-21)
(0.0484579 -0.000324005 1.95592e-21)
(0.048287 0.000185483 0)
(0.0480731 0.000718016 1.82215e-21)
(0.0478135 0.0012757 -1.79218e-21)
(0.047506 0.00186096 -1.90267e-21)
(0.0471476 0.00247702 1.81896e-21)
(0.0467355 0.00312709 -1.82562e-21)
(0.0462654 0.00381684 0)
(0.0457341 0.00454884 -1.78891e-21)
(0.0451334 0.00533343 8.55626e-23)
(0.0444616 0.00616887 -4.135e-21)
(0.0437145 0.00707175 -4.45591e-21)
(0.0428851 0.00804542 4.51291e-21)
(0.0420433 0.00914095 -2.30916e-21)
(0.0362511 -0.012673 7.1283e-23)
(0.0366008 -0.012725 0)
(0.0369528 -0.0127674 4.09528e-23)
(0.0373084 -0.0127999 -3.17365e-23)
(0.0376662 -0.0128214 -5.03971e-23)
(0.0380256 -0.0128317 2.9493e-23)
(0.0383862 -0.0128306 -8.7527e-23)
(0.0387476 -0.0128181 3.34202e-22)
(0.0391093 -0.0127939 -1.61819e-22)
(0.0394711 -0.0127581 -2.13365e-22)
(0.0398325 -0.0127101 -2.94849e-22)
(0.0401925 -0.0126505 9.68858e-22)
(0.0405504 -0.0125792 -2.91333e-22)
(0.0409061 -0.0124962 1.26276e-21)
(0.0412593 -0.0124014 5.01653e-22)
(0.0416097 -0.0122949 8.23938e-23)
(0.0419569 -0.0121763 -1.00639e-21)
(0.0423004 -0.0120461 0)
(0.0426396 -0.0119043 0)
(0.0429738 -0.0117513 -6.73403e-22)
(0.0433025 -0.0115873 -6.55316e-22)
(0.0436252 -0.0114124 -1.47821e-21)
(0.0439416 -0.0112269 7.48951e-22)
(0.0442512 -0.0110309 1.62671e-21)
(0.0445537 -0.0108247 -1.62845e-21)
(0.0448488 -0.0106086 4.51121e-22)
(0.045136 -0.0103829 4.6931e-22)
(0.0454152 -0.0101478 0)
(0.0456859 -0.00990369 -4.71175e-22)
(0.045948 -0.00965081 -1.02363e-21)
(0.0462011 -0.00938948 -3.02214e-23)
(0.0464452 -0.00911998 1.05974e-21)
(0.0466801 -0.00884254 -5.71922e-22)
(0.0469055 -0.00855804 0)
(0.0471214 -0.0082665 2.94427e-22)
(0.0473277 -0.00796802 -2.97774e-22)
(0.0475244 -0.00766279 2.8293e-22)
(0.0477113 -0.00735097 -5.88511e-22)
(0.0478886 -0.00703268 0)
(0.048056 -0.00670797 -7.66239e-23)
(0.0482135 -0.00637685 7.46781e-23)
(0.0483609 -0.0060392 -1.16285e-22)
(0.0484978 -0.00569482 4.48935e-22)
(0.0486238 -0.00534338 -8.95673e-22)
(0.0487379 -0.00498442 5.89942e-22)
(0.0488392 -0.00461732 5.92635e-22)
(0.048926 -0.00424132 -5.48374e-22)
(0.0489966 -0.00385552 1.19482e-21)
(0.0490487 -0.00345891 -1.13766e-21)
(0.0490798 -0.00305039 -2.80446e-21)
(0.0490872 -0.00262883 2.72738e-23)
(0.0490681 -0.00219311 -1.05871e-21)
(0.0490197 -0.00174205 0)
(0.0489397 -0.00127452 0)
(0.0488257 -0.000789268 -2.07121e-21)
(0.0486758 -0.000284941 3.02091e-21)
(0.0484885 0.000240057 -2.00767e-21)
(0.0482621 0.000787659 0)
(0.0479953 0.00136029 2.0481e-21)
(0.0476867 0.0019609 3.88414e-21)
(0.0473344 0.00259341 -1.91088e-21)
(0.0469364 0.00326194 1.66539e-25)
(0.0464898 0.00397347 2.06261e-21)
(0.045992 0.00473115 -9.3177e-23)
(0.0454398 0.00554813 -4.49958e-21)
(0.0448345 0.00642326 4.65361e-21)
(0.0441907 0.0073845 2.47478e-21)
(0.0435097 0.00842006 0)
(0.0429441 0.00964272 0)
(0.0361095 -0.0133226 -7.02905e-23)
(0.0364795 -0.0133739 -1.72854e-22)
(0.036852 -0.0134146 1.34491e-22)
(0.0372279 -0.0134448 0)
(0.037606 -0.0134633 -1.53023e-23)
(0.0379856 -0.0134697 -2.25066e-22)
(0.0383662 -0.013464 1.47422e-22)
(0.0387473 -0.0134461 -5.03655e-22)
(0.0391287 -0.0134158 4.02831e-22)
(0.0395096 -0.0133729 0)
(0.03989 -0.0133174 1.23774e-22)
(0.040269 -0.0132492 0)
(0.0406458 -0.0131687 4.6492e-22)
(0.0410198 -0.0130759 -1.25946e-21)
(0.0413907 -0.0129709 0)
(0.041758 -0.0128534 0)
(0.0421214 -0.0127236 0)
(0.0424807 -0.0125814 -9.43788e-22)
(0.0428351 -0.0124272 1.26455e-21)
(0.043184 -0.012261 6.64664e-22)
(0.0435268 -0.0120833 0)
(0.0438631 -0.0118943 0)
(0.0441924 -0.0116943 0)
(0.0445142 -0.0114835 -2.17319e-21)
(0.0448281 -0.0112622 2.63598e-21)
(0.0451339 -0.0110308 -1.34838e-21)
(0.0454311 -0.0107895 -9.59534e-22)
(0.0457196 -0.0105388 1.00942e-21)