/*--------------------------------*- C++ -*----------------------------------*\
| =========                 |                                                 |
| \\      /  F ield         | OpenFOAM: The Open Source CFD Toolbox           |
|  \\    /   O peration     | Version:  2312                                  |
|   \\  /    A nd           | Website:  www.openfoam.com                      |
|    \\/     M anipulation  |                                                 |
\*---------------------------------------------------------------------------*/
FoamFile
{
    version     2.0;
    format      ascii;
    arch        "LSB;label=32;scalar=64";
    class       volScalarField;
    location    "900";
    object      k;
}
// * * * * * * * * * * * * * * * * * * * * * * * * * * * * * * * * * * * * * //

dimensions      [0 2 -2 0 0 0 0];

internalField   nonuniform List<scalar> 
76025
(
5.02515e-06
5.03018e-06
5.03027e-06
5.0302e-06
5.03043e-06
5.0385e-06
5.04498e-06
5.05349e-06
5.05932e-06
5.06636e-06
5.07298e-06
5.08043e-06
5.09104e-06
5.10018e-06
5.11326e-06
5.12433e-06
5.13821e-06
5.15353e-06
5.16884e-06
5.18531e-06
5.2024e-06
5.22131e-06
5.23974e-06
5.25901e-06
5.27977e-06
5.29903e-06
5.32212e-06
5.34102e-06
5.36529e-06
5.38592e-06
5.40986e-06
5.43315e-06
5.45749e-06
5.48384e-06
5.51021e-06
5.53795e-06
5.56843e-06
5.59957e-06
5.63501e-06
5.67269e-06
5.7153e-06
5.76489e-06
5.82012e-06
5.8861e-06
5.96134e-06
6.05282e-06
6.15506e-06
6.27842e-06
6.42562e-06
6.59231e-06
6.79538e-06
7.02807e-06
7.31274e-06
7.62911e-06
8.05803e-06
8.52764e-06
9.14765e-06
9.92285e-06
1.09052e-05
1.21802e-05
1.37255e-05
1.57457e-05
1.81915e-05
2.1136e-05
2.45207e-05
2.82013e-05
3.22612e-05
3.65919e-05
4.06557e-05
5.13078e-06
5.13552e-06
5.13995e-06
5.14477e-06
5.14763e-06
5.15269e-06
5.15781e-06
5.16445e-06
5.17125e-06
5.17849e-06
5.18607e-06
5.19371e-06
5.2028e-06
5.21198e-06
5.22338e-06
5.23467e-06
5.2476e-06
5.26124e-06
5.27613e-06
5.29158e-06
5.30794e-06
5.3253e-06
5.34357e-06
5.3623e-06
5.38256e-06
5.40233e-06
5.42421e-06
5.44616e-06
5.46966e-06
5.49397e-06
5.51995e-06
5.54617e-06
5.57472e-06
5.60442e-06
5.63664e-06
5.67126e-06
5.70846e-06
5.74977e-06
5.79558e-06
5.84649e-06
5.90437e-06
5.96908e-06
6.04446e-06
6.12998e-06
6.22942e-06
6.34303e-06
6.4749e-06
6.62823e-06
6.80472e-06
7.01232e-06
7.25255e-06
7.54073e-06
7.87868e-06
8.2998e-06
8.8066e-06
9.44998e-06
1.02604e-05
1.12885e-05
1.25933e-05
1.42096e-05
1.62171e-05
1.86142e-05
2.14196e-05
2.46468e-05
2.82577e-05
3.22907e-05
3.65494e-05
4.09888e-05
4.52846e-05
5.25391e-06
5.25954e-06
5.26506e-06
5.27127e-06
5.27675e-06
5.28264e-06
5.28861e-06
5.29512e-06
5.30215e-06
5.30965e-06
5.31773e-06
5.32609e-06
5.33528e-06
5.34477e-06
5.35558e-06
5.367e-06
5.37962e-06
5.39308e-06
5.40771e-06
5.42324e-06
5.43972e-06
5.45715e-06
5.47567e-06
5.4951e-06
5.51577e-06
5.53734e-06
5.56044e-06
5.58477e-06
5.61074e-06
5.63819e-06
5.66773e-06
5.69905e-06
5.73284e-06
5.76923e-06
5.80875e-06
5.85178e-06
5.89896e-06
5.95103e-06
6.00896e-06
6.07337e-06
6.14587e-06
6.22781e-06
6.32093e-06
6.42689e-06
6.54796e-06
6.68656e-06
6.84636e-06
7.03065e-06
7.24546e-06
7.49642e-06
7.79465e-06
8.15045e-06
8.58502e-06
9.11783e-06
9.78411e-06
1.06205e-05
1.16729e-05
1.29919e-05
1.46194e-05
1.66054e-05
1.89691e-05
2.17363e-05
2.49064e-05
2.84739e-05
3.23781e-05
3.65575e-05
4.08213e-05
4.51682e-05
4.90977e-05
5.39079e-06
5.39886e-06
5.40658e-06
5.41432e-06
5.42191e-06
5.42954e-06
5.43719e-06
5.445e-06
5.45308e-06
5.46148e-06
5.47037e-06
5.47966e-06
5.48959e-06
5.50002e-06
5.51126e-06
5.52329e-06
5.53628e-06
5.55024e-06
5.56529e-06
5.58143e-06
5.59872e-06
5.61715e-06
5.63685e-06
5.65776e-06
5.68011e-06
5.70404e-06
5.72973e-06
5.75726e-06
5.78688e-06
5.8187e-06
5.85306e-06
5.8902e-06
5.93047e-06
5.9743e-06
6.02218e-06
6.07464e-06
6.13245e-06
6.19628e-06
6.26737e-06
6.34637e-06
6.43522e-06
6.53552e-06
6.64915e-06
6.77842e-06
6.92603e-06
7.0955e-06
7.29107e-06
7.51859e-06
7.7853e-06
8.1017e-06
8.48095e-06
8.94223e-06
9.50924e-06
1.0214e-05
1.10943e-05
1.21935e-05
1.35573e-05
1.5227e-05
1.7239e-05
1.96157e-05
2.23698e-05
2.54999e-05
2.89816e-05
3.27833e-05
3.68137e-05
4.10161e-05
4.51886e-05
4.93409e-05
5.32805e-05
5.54463e-06
5.55537e-06
5.56582e-06
5.57597e-06
5.58598e-06
5.59594e-06
5.60587e-06
5.61582e-06
5.62588e-06
5.63613e-06
5.64669e-06
5.6576e-06
5.66902e-06
5.68099e-06
5.69363e-06
5.70704e-06
5.72135e-06
5.73664e-06
5.75303e-06
5.77061e-06
5.78949e-06
5.80971e-06
5.83146e-06
5.85467e-06
5.8798e-06
5.90696e-06
5.93632e-06
5.96809e-06
6.00249e-06
6.0398e-06
6.08034e-06
6.12446e-06
6.17262e-06
6.2253e-06
6.28311e-06
6.34671e-06
6.417e-06
6.4948e-06
6.58151e-06
6.67804e-06
6.78665e-06
6.9094e-06
7.04873e-06
7.20763e-06
7.38986e-06
7.60025e-06
7.84511e-06
8.13277e-06
8.47441e-06
8.88479e-06
9.38362e-06
9.99606e-06
1.07536e-05
1.16932e-05
1.28553e-05
1.42808e-05
1.60057e-05
1.80586e-05
2.04562e-05
2.32044e-05
2.62954e-05
2.97088e-05
3.34046e-05
3.73292e-05
4.13822e-05
4.54944e-05
4.94644e-05
5.34158e-05
5.75224e-05
5.72568e-06
5.73788e-06
5.75028e-06
5.76261e-06
5.77499e-06
5.78743e-06
5.79991e-06
5.81244e-06
5.82509e-06
5.83789e-06
5.85094e-06
5.86431e-06
5.87812e-06
5.89245e-06
5.90742e-06
5.92316e-06
5.93978e-06
5.95741e-06
5.97619e-06
5.99626e-06
6.01774e-06
6.04081e-06
6.06552e-06
6.09225e-06
6.12126e-06
6.15276e-06
6.18699e-06
6.22422e-06
6.26475e-06
6.30893e-06
6.35715e-06
6.40989e-06
6.46772e-06
6.53123e-06
6.60117e-06
6.67839e-06
6.76396e-06
6.85898e-06
6.96507e-06
7.08364e-06
7.21736e-06
7.36912e-06
7.54224e-06
7.74099e-06
7.97085e-06
8.23898e-06
8.55479e-06
8.9307e-06
9.38293e-06
9.93232e-06
1.06049e-05
1.14318e-05
1.24482e-05
1.36912e-05
1.51961e-05
1.69927e-05
1.91023e-05
2.15352e-05
2.4291e-05
2.7358e-05
3.07127e-05
3.43191e-05
3.81233e-05
4.20546e-05
4.60092e-05
4.99131e-05
5.36141e-05
5.74252e-05
6.23834e-05
5.94598e-06
5.95837e-06
5.97152e-06
5.98508e-06
5.9991e-06
6.01354e-06
6.02832e-06
6.04338e-06
6.05873e-06
6.07439e-06
6.09041e-06
6.10684e-06
6.12376e-06
6.14127e-06
6.15948e-06
6.1785e-06
6.19848e-06
6.21956e-06
6.2419e-06
6.26565e-06
6.29101e-06
6.31813e-06
6.34729e-06
6.37893e-06
6.4133e-06
6.45069e-06
6.4914e-06
6.5358e-06
6.58429e-06
6.63732e-06
6.69541e-06
6.75915e-06
6.82926e-06
6.90654e-06
6.99193e-06
7.08654e-06
7.19171e-06
7.30902e-06
7.44048e-06
7.58833e-06
7.75589e-06
7.94745e-06
8.16795e-06
8.42377e-06
8.72317e-06
9.07693e-06
9.49891e-06
1.00068e-05
1.06226e-05
1.13727e-05
1.22873e-05
1.3399e-05
1.47404e-05
1.63406e-05
1.82222e-05
2.03992e-05
2.28755e-05
2.56453e-05
2.86933e-05
3.19943e-05
3.55129e-05
3.92015e-05
4.29958e-05
4.68121e-05
5.05521e-05
5.41507e-05
5.75685e-05
6.15507e-05
6.84476e-05
6.21713e-06
6.22935e-06
6.24264e-06
6.25673e-06
6.2717e-06
6.28753e-06
6.30409e-06
6.32132e-06
6.33918e-06
6.35767e-06
6.37679e-06
6.39658e-06
6.41709e-06
6.4384e-06
6.4606e-06
6.48382e-06
6.50817e-06
6.53383e-06
6.56096e-06
6.58975e-06
6.62041e-06
6.65316e-06
6.68858e-06
6.72696e-06
6.76864e-06
6.81399e-06
6.86342e-06
6.91739e-06
6.97642e-06
7.04112e-06
7.11217e-06
7.19036e-06
7.27661e-06
7.372e-06
7.47779e-06
7.59554e-06
7.72706e-06
7.87471e-06
8.04121e-06
8.23024e-06
8.44626e-06
8.69594e-06
8.98681e-06
9.32854e-06
9.73342e-06
1.02169e-05
1.07979e-05
1.14992e-05
1.23467e-05
1.33688e-05
1.45942e-05
1.60496e-05
1.77574e-05
1.97326e-05
2.19822e-05
2.45043e-05
2.72889e-05
3.03181e-05
3.3566e-05
3.69984e-05
4.05714e-05
4.42288e-05
4.78956e-05
5.14801e-05
5.48992e-05
5.81287e-05
6.13757e-05
6.62564e-05
7.63875e-05
6.5508e-06
6.56342e-06
6.57721e-06
6.59196e-06
6.60786e-06
6.62494e-06
6.64313e-06
6.66237e-06
6.68263e-06
6.70392e-06
6.72624e-06
6.74961e-06
6.77407e-06
6.79969e-06
6.82656e-06
6.85479e-06
6.88452e-06
6.91591e-06
6.94914e-06
6.98446e-06
7.02203e-06
7.06255e-06
7.10634e-06
7.15378e-06
7.20529e-06
7.26135e-06
7.3225e-06
7.38934e-06
7.46257e-06
7.54298e-06
7.63151e-06
7.72925e-06
7.83747e-06
7.9577e-06
8.09177e-06
8.24198e-06
8.41107e-06
8.60261e-06
8.82081e-06
9.07155e-06
9.36129e-06
9.70026e-06
1.00997e-05
1.05734e-05
1.11381e-05
1.18137e-05
1.26225e-05
1.35889e-05
1.47376e-05
1.60924e-05
1.76733e-05
1.9495e-05
2.15656e-05
2.38858e-05
2.64493e-05
2.92427e-05
3.22473e-05
3.54377e-05
3.8781e-05
4.22368e-05
4.57542e-05
4.92673e-05
5.26887e-05
5.59271e-05
5.8933e-05
6.18044e-05
6.52417e-05
7.22877e-05
8.71123e-05
6.96072e-06
6.97491e-06
6.99027e-06
7.00661e-06
7.02424e-06
7.04324e-06
7.0636e-06
7.08533e-06
7.10845e-06
7.13298e-06
7.15897e-06
7.18645e-06
7.21548e-06
7.24615e-06
7.27856e-06
7.31283e-06
7.34911e-06
7.3876e-06
7.4285e-06
7.47209e-06
7.51906e-06
7.56978e-06
7.62466e-06
7.6842e-06
7.74894e-06
7.81949e-06
7.89659e-06
7.98106e-06
8.07386e-06
8.17612e-06
8.28917e-06
8.41462e-06
8.55437e-06
8.71075e-06
8.88662e-06
9.08555e-06
9.31192e-06
9.57125e-06
9.87035e-06
1.02178e-05
1.06238e-05
1.11016e-05
1.16669e-05
1.23371e-05
1.31314e-05
1.40706e-05
1.51757e-05
1.64666e-05
1.79605e-05
1.96704e-05
2.1604e-05
2.37629e-05
2.61434e-05
2.87357e-05
3.15259e-05
3.44943e-05
3.76178e-05
4.08655e-05
4.4199e-05
4.75727e-05
5.09262e-05
5.418e-05
5.72343e-05
6.00183e-05
6.25548e-05
6.52593e-05
6.96594e-05
8.00252e-05
0.000102273
7.46545e-06
7.48261e-06
7.50098e-06
7.52037e-06
7.54115e-06
7.56346e-06
7.58734e-06
7.61284e-06
7.64005e-06
7.66905e-06
7.69993e-06
7.73277e-06
7.76768e-06
7.80479e-06
7.84424e-06
7.88618e-06
7.93088e-06
7.97843e-06
8.02941e-06
8.08444e-06
8.14393e-06
8.20838e-06
8.27834e-06
8.35447e-06
8.43753e-06
8.52839e-06
8.62809e-06
8.73784e-06
8.85908e-06
8.99352e-06
9.14324e-06
9.31075e-06
9.49907e-06
9.71195e-06
9.95396e-06
1.02307e-05
1.0549e-05
1.09171e-05
1.13449e-05
1.1844e-05
1.24281e-05
1.31121e-05
1.39137e-05
1.48505e-05
1.59396e-05
1.71971e-05
1.86369e-05
2.02693e-05
2.21006e-05
2.41328e-05
2.63631e-05
2.87845e-05
3.13866e-05
3.41545e-05
3.70713e-05
4.01132e-05
4.32552e-05
4.64596e-05
4.96816e-05
5.28699e-05
5.59476e-05
5.8816e-05
6.13748e-05
6.36182e-05
6.57261e-05
6.88663e-05
7.50674e-05
9.05249e-05
0.000124221
8.09177e-06
8.11341e-06
8.13644e-06
8.16067e-06
8.18649e-06
8.21408e-06
8.24351e-06
8.27487e-06
8.3083e-06
8.34394e-06
8.38194e-06
8.42246e-06
8.46566e-06
8.51176e-06
8.56094e-06
8.61355e-06
8.66966e-06
8.73034e-06
8.79602e-06
8.86721e-06
8.94452e-06
9.02868e-06
9.12052e-06
9.221e-06
9.3313e-06
9.45276e-06
9.58701e-06
9.73598e-06
9.90197e-06
1.00877e-05
1.02967e-05
1.05327e-05
1.08007e-05
1.11065e-05
1.14569e-05
1.186e-05
1.23251e-05
1.28629e-05
1.34853e-05
1.42054e-05
1.5037e-05
1.5994e-05
1.70901e-05
1.83382e-05
1.9749e-05
2.13301e-05
2.30861e-05
2.5018e-05
2.71238e-05
2.93984e-05
3.18339e-05
3.44196e-05
3.71428e-05
3.99864e-05
4.29322e-05
4.59518e-05
4.90179e-05
5.2081e-05
5.50899e-05
5.7985e-05
6.06578e-05
6.29942e-05
6.49334e-05
6.6625e-05
6.86085e-05
7.30645e-05
8.21832e-05
0.000104818
0.000149491
8.87972e-06
8.90756e-06
8.93723e-06
8.96849e-06
9.00177e-06
9.03728e-06
9.07509e-06
9.11536e-06
9.15826e-06
9.20401e-06
9.25282e-06
9.30496e-06
9.36066e-06
9.42035e-06
9.48407e-06
9.55304e-06
9.6278e-06
9.70898e-06
9.7973e-06
9.8936e-06
9.99887e-06
1.01143e-05
1.02411e-05
1.03811e-05
1.0536e-05
1.07081e-05
1.09001e-05
1.1115e-05
1.13566e-05
1.16292e-05
1.19379e-05
1.22885e-05
1.26878e-05
1.31435e-05
1.36643e-05
1.42594e-05
1.49391e-05
1.5714e-05
1.65947e-05
1.75918e-05
1.87151e-05
1.99733e-05
2.13735e-05
2.29209e-05
2.46184e-05
2.64669e-05
2.84652e-05
3.06091e-05
3.28931e-05
3.53095e-05
3.78494e-05
4.05005e-05
4.32499e-05
4.60771e-05
4.89625e-05
5.18692e-05
5.4767e-05
5.75858e-05
6.02714e-05
6.27485e-05
6.48493e-05
6.64886e-05
6.77378e-05
6.91006e-05
7.16473e-05
7.82881e-05
9.18408e-05
0.000125198
0.000167383
9.89089e-06
9.92742e-06
9.96658e-06
1.00081e-05
1.00524e-05
1.00999e-05
1.01505e-05
1.02046e-05
1.02624e-05
1.03242e-05
1.03903e-05
1.04613e-05
1.05373e-05
1.06198e-05
1.07094e-05
1.08069e-05
1.09132e-05
1.10294e-05
1.11566e-05
1.12964e-05
1.14503e-05
1.16204e-05
1.18088e-05
1.20182e-05
1.22515e-05
1.25123e-05
1.28045e-05
1.31326e-05
1.35017e-05
1.39175e-05
1.43864e-05
1.49151e-05
1.5511e-05
1.61818e-05
1.69354e-05
1.77796e-05
1.87221e-05
1.97701e-05
2.09298e-05
2.22067e-05
2.3605e-05
2.51276e-05
2.67759e-05
2.855e-05
3.04489e-05
3.24699e-05
3.46095e-05
3.68629e-05
3.92245e-05
4.16858e-05
4.42377e-05
4.68661e-05
4.95568e-05
5.22828e-05
5.50225e-05
5.77234e-05
6.0352e-05
6.28063e-05
6.50365e-05
6.6932e-05
6.82313e-05
6.90454e-05
6.97355e-05
7.15268e-05
7.51534e-05
8.52553e-05
0.000105696
0.000149095
0.000174244
1.12256e-05
1.12755e-05
1.13295e-05
1.13874e-05
1.14497e-05
1.15168e-05
1.15889e-05
1.16664e-05
1.17497e-05
1.18393e-05
1.19367e-05
1.20427e-05
1.2158e-05
1.22837e-05
1.24209e-05
1.25711e-05
1.27358e-05
1.29167e-05
1.31158e-05
1.33355e-05
1.35782e-05
1.38468e-05
1.41446e-05
1.4475e-05
1.48421e-05
1.52499e-05
1.57033e-05
1.62069e-05
1.67662e-05
1.73864e-05
1.8073e-05
1.88315e-05
1.96673e-05
2.05855e-05
2.15909e-05
2.26876e-05
2.38794e-05
2.51693e-05
2.65595e-05
2.80515e-05
2.96459e-05
3.13429e-05
3.31417e-05
3.50409e-05
3.70382e-05
3.9131e-05
4.13153e-05
4.35864e-05
4.59373e-05
4.83595e-05
5.08431e-05
5.33693e-05
5.59216e-05
5.84599e-05
6.09626e-05
6.33482e-05
6.55824e-05
6.75203e-05
6.91191e-05
7.00319e-05
7.02631e-05
7.05284e-05
7.12847e-05
7.40904e-05
8.01935e-05
9.52024e-05
0.000126038
0.000160274
0.000173716
1.30636e-05
1.3138e-05
1.32194e-05
1.33076e-05
1.34034e-05
1.35073e-05
1.36209e-05
1.37447e-05
1.38798e-05
1.40268e-05
1.41871e-05
1.43618e-05
1.45526e-05
1.47608e-05
1.49884e-05
1.52372e-05
1.55094e-05
1.58073e-05
1.61334e-05
1.64904e-05
1.68811e-05
1.73086e-05
1.77762e-05
1.8287e-05
1.88445e-05
1.94522e-05
2.01136e-05
2.0832e-05
2.1611e-05
2.24537e-05
2.33633e-05
2.43424e-05
2.53938e-05
2.65198e-05
2.77224e-05
2.90033e-05
3.03638e-05
3.1805e-05
3.33276e-05
3.49319e-05
3.6618e-05
3.83855e-05
4.02335e-05
4.21607e-05
4.41651e-05
4.62435e-05
4.83914e-05
5.06035e-05
5.28697e-05
5.51792e-05
5.7519e-05
5.98628e-05
6.21904e-05
6.44391e-05
6.65932e-05
6.8516e-05
7.01853e-05
7.13614e-05
7.16042e-05
7.13422e-05
7.11286e-05
7.14682e-05
7.31175e-05
7.77362e-05
8.83571e-05
0.000110636
0.000141507
0.000163444
0.000162633
1.57692e-05
1.58966e-05
1.60373e-05
1.61913e-05
1.63597e-05
1.65434e-05
1.67434e-05
1.69607e-05
1.71966e-05
1.74524e-05
1.77293e-05
1.8029e-05
1.83527e-05
1.87023e-05
1.90794e-05
1.94857e-05
1.99229e-05
2.0393e-05
2.08978e-05
2.14391e-05
2.20189e-05
2.26388e-05
2.33009e-05
2.40069e-05
2.47586e-05
2.55577e-05
2.64058e-05
2.73046e-05
2.82557e-05
2.92606e-05
3.03208e-05
3.14377e-05
3.26128e-05
3.38476e-05
3.51432e-05
3.65011e-05
3.79223e-05
3.94078e-05
4.09587e-05
4.25754e-05
4.42583e-05
4.6007e-05
4.78209e-05
4.9698e-05
5.16358e-05
5.36293e-05
5.56722e-05
5.7757e-05
5.98657e-05
6.19893e-05
6.41016e-05
6.61683e-05
6.81623e-05
6.99847e-05
7.16363e-05
7.28761e-05
7.33283e-05
7.31321e-05
7.25217e-05
7.16761e-05
7.17438e-05
7.28613e-05
7.64922e-05
8.47672e-05
0.000101888
0.000124428
0.000146119
0.000155175
0.000147565
2.01981e-05
2.04298e-05
2.06826e-05
2.09561e-05
2.12514e-05
2.15692e-05
2.19101e-05
2.22745e-05
2.26633e-05
2.3077e-05
2.35163e-05
2.39819e-05
2.44744e-05
2.49944e-05
2.55426e-05
2.61198e-05
2.67264e-05
2.73631e-05
2.80304e-05
2.87291e-05
2.94596e-05
3.02227e-05
3.1019e-05
3.18492e-05
3.27141e-05
3.36147e-05
3.45519e-05
3.5527e-05
3.65411e-05
3.75956e-05
3.86922e-05
3.98324e-05
4.10179e-05
4.22508e-05
4.35326e-05
4.48653e-05
4.62504e-05
4.76895e-05
4.91838e-05
5.07337e-05
5.23394e-05
5.39997e-05
5.5713e-05
5.74757e-05
5.92832e-05
6.11258e-05
6.29956e-05
6.48797e-05
6.6745e-05
6.85989e-05
7.03668e-05
7.20331e-05
7.35335e-05
7.4735e-05
7.51961e-05
7.5019e-05
7.45264e-05
7.36368e-05
7.24545e-05
7.20284e-05
7.28255e-05
7.57928e-05
8.29623e-05
9.67988e-05
0.000111528
0.00012807
0.000140999
0.000140785
0.000127333
2.78707e-05
2.8222e-05
2.86e-05
2.90026e-05
2.94293e-05
2.98795e-05
3.03525e-05
3.08476e-05
3.13643e-05
3.19022e-05
3.24607e-05
3.30398e-05
3.36395e-05
3.42598e-05
3.49006e-05
3.55618e-05
3.62432e-05
3.69449e-05
3.76666e-05
3.84085e-05
3.9171e-05
3.99543e-05
4.07592e-05
4.15864e-05
4.24369e-05
4.33119e-05
4.42128e-05
4.51412e-05
4.60991e-05
4.70885e-05
4.81116e-05
4.91707e-05
5.02684e-05
5.1407e-05
5.25888e-05
5.3816e-05
5.50904e-05
5.64134e-05
5.77855e-05
5.92061e-05
6.06737e-05
6.2185e-05
6.37368e-05
6.53214e-05
6.69303e-05
6.85444e-05
7.01617e-05
7.17479e-05
7.3253e-05
7.47305e-05
7.59509e-05
7.70177e-05
7.73247e-05
7.71901e-05
7.65681e-05
7.56534e-05
7.4528e-05
7.31172e-05
7.20987e-05
7.27379e-05
7.54097e-05
8.16016e-05
9.1472e-05
0.000101472
0.000112884
0.000122478
0.000127181
0.000122514
0.000106224
4.00947e-05
4.0511e-05
4.09406e-05
4.13825e-05
4.18373e-05
4.23047e-05
4.27841e-05
4.32752e-05
4.37774e-05
4.42903e-05
4.48133e-05
4.53497e-05
4.5902e-05
4.64687e-05
4.70483e-05
4.76399e-05
4.82428e-05
4.88567e-05
4.94811e-05
5.01171e-05
5.07655e-05
5.14272e-05
5.21034e-05
5.27955e-05
5.35049e-05
5.42337e-05
5.49839e-05
5.57578e-05
5.6558e-05
5.73871e-05
5.8248e-05
5.91436e-05
6.00765e-05
6.10492e-05
6.2064e-05
6.31227e-05
6.42265e-05
6.53756e-05
6.65683e-05
6.77999e-05
6.90678e-05
7.03634e-05
7.16846e-05
7.30119e-05
7.43323e-05
7.56103e-05
7.68774e-05
7.80041e-05
7.89939e-05
7.97554e-05
7.96756e-05
7.93849e-05
7.87679e-05
7.77827e-05
7.64968e-05
7.50104e-05
7.32559e-05
7.17856e-05
7.23855e-05
7.46729e-05
8.00747e-05
8.61249e-05
9.35371e-05
0.000100389
0.000104515
0.000109023
0.000110071
0.000102839
8.64722e-05
5.65417e-05
5.68941e-05
5.72467e-05
5.75985e-05
5.79508e-05
5.83037e-05
5.86569e-05
5.90102e-05
5.93636e-05
5.97168e-05
6.00698e-05
6.04231e-05
6.07775e-05
6.11338e-05
6.14922e-05
6.18532e-05
6.22173e-05
6.25851e-05
6.29571e-05
6.33416e-05
6.37399e-05
6.41516e-05
6.45783e-05
6.5022e-05
6.54844e-05
6.59683e-05
6.64757e-05
6.70098e-05
6.75725e-05
6.81674e-05
6.87973e-05
6.94646e-05
7.01716e-05
7.092e-05
7.17113e-05
7.25461e-05
7.34244e-05
7.4342e-05
7.52909e-05
7.62589e-05
7.72492e-05
7.82404e-05
7.9246e-05
8.01976e-05
8.10918e-05
8.18906e-05
8.24721e-05
8.2529e-05
8.24371e-05
8.17732e-05
8.09808e-05
7.98741e-05
7.84532e-05
7.66055e-05
7.44801e-05
7.24275e-05
7.06362e-05
7.11088e-05
7.3038e-05
7.64163e-05
8.16335e-05
8.57678e-05
8.63785e-05
8.68198e-05
8.93068e-05
9.31431e-05
9.26515e-05
8.43609e-05
6.8262e-05
7.57383e-05
7.59027e-05
7.6056e-05
7.61978e-05
7.63297e-05
7.64523e-05
7.65653e-05
7.66683e-05
7.67616e-05
7.68456e-05
7.6921e-05
7.69888e-05
7.70495e-05
7.71052e-05
7.71564e-05
7.72045e-05
7.7251e-05
7.72973e-05
7.73448e-05
7.73961e-05
7.7454e-05
7.75213e-05
7.76107e-05
7.7727e-05
7.78657e-05
7.80394e-05
7.82381e-05
7.84753e-05
7.87412e-05
7.90497e-05
7.93977e-05
7.97867e-05
8.02169e-05
8.06884e-05
8.1203e-05
8.17583e-05
8.23539e-05
8.29644e-05
8.35702e-05
8.41538e-05
8.47706e-05
8.53333e-05
8.59347e-05
8.61083e-05
8.60333e-05
8.559e-05
8.51416e-05
8.4316e-05
8.32335e-05
8.18833e-05
8.00522e-05
7.7948e-05
7.51775e-05
7.248e-05
7.04166e-05
6.83508e-05
6.8719e-05
7.00272e-05
7.31362e-05
7.53834e-05
7.4081e-05
6.95532e-05
6.82385e-05
7.06893e-05
7.55462e-05
7.85537e-05
7.66881e-05
6.76402e-05
5.18654e-05
9.58298e-05
9.57469e-05
9.56369e-05
9.5503e-05
9.53494e-05
9.51767e-05
9.49808e-05
9.47614e-05
9.4521e-05
9.42635e-05
9.39917e-05
9.37097e-05
9.34109e-05
9.31151e-05
9.28065e-05
9.24957e-05
9.21835e-05
9.18714e-05
9.15608e-05
9.12548e-05
9.09568e-05
9.06716e-05
9.03975e-05
9.01785e-05
8.99361e-05
8.98234e-05
8.96431e-05
8.95998e-05
8.9492e-05
8.95132e-05
8.95449e-05
8.9615e-05
8.9718e-05
8.98573e-05
9.00433e-05
9.02594e-05
9.05078e-05
9.06248e-05
9.06718e-05
9.05948e-05
9.03492e-05
9.0147e-05
8.95766e-05
8.87933e-05
8.78445e-05
8.66649e-05
8.52125e-05
8.34057e-05
8.1082e-05
7.83361e-05
7.50923e-05
7.19514e-05
6.84915e-05
6.64134e-05
6.47776e-05
6.42714e-05
6.52551e-05
6.55291e-05
6.33174e-05
5.6517e-05
5.00945e-05
5.05021e-05
5.40456e-05
5.96063e-05
6.42329e-05
6.58289e-05
6.28069e-05
5.33733e-05
3.84568e-05
0.000114669
0.000114259
0.000113825
0.000113366
0.000112885
0.000112384
0.000111861
0.000111319
0.000110758
0.000110179
0.000109583
0.000108973
0.00010835
0.000107716
0.000107073
0.000106425
0.000105775
0.000105123
0.000104473
0.000103837
0.00010322
0.000102622
0.000102042
0.000101488
0.000100957
0.000100463
9.99962e-05
9.95705e-05
9.9175e-05
9.88198e-05
9.84999e-05
9.81993e-05
9.78935e-05
9.75646e-05
9.7178e-05
9.67165e-05
9.61601e-05
9.54736e-05
9.46146e-05
9.36813e-05
9.26375e-05
9.14244e-05
8.9996e-05
8.82921e-05
8.61822e-05
8.36217e-05
8.05949e-05
7.7112e-05
7.3353e-05
6.93581e-05
6.57217e-05
6.21283e-05
5.94476e-05
5.743e-05
5.7029e-05
5.68174e-05
5.30277e-05
4.53653e-05
3.50746e-05
3.42464e-05
3.64714e-05
4.09873e-05
4.63217e-05
5.14552e-05
5.45633e-05
5.51336e-05
5.14305e-05
4.24739e-05
2.95479e-05
0.00012973
0.000129081
0.000128396
0.000127678
0.000126932
0.000126159
0.000125364
0.000124548
0.000123712
0.000122857
0.000121986
0.000121099
0.000120197
0.000119281
0.000118367
0.000117457
0.000116549
0.000115643
0.000114739
0.000113837
0.000112941
0.000112051
0.00011117
0.000110302
0.000109443
0.000108589
0.000107736
0.000106877
0.000106003
0.000105106
0.000104169
0.00010319
0.000102189
0.000101147
0.000100041
9.88449e-05
9.75305e-05
9.60627e-05
9.44139e-05
9.24657e-05
9.02256e-05
8.7582e-05
8.45599e-05
8.11049e-05
7.71987e-05
7.30319e-05
6.85864e-05
6.41509e-05
5.97681e-05
5.55927e-05
5.15831e-05
4.78677e-05
4.56868e-05
4.40754e-05
4.05048e-05
3.24324e-05
2.20112e-05
2.00763e-05
2.19355e-05
2.60478e-05
3.08501e-05
3.585e-05
4.06392e-05
4.46327e-05
4.64984e-05
4.65743e-05
4.28864e-05
3.51989e-05
2.4941e-05
0.000137953
0.000137135
0.000136287
0.000135408
0.000134499
0.000133574
0.000132635
0.000131681
0.000130709
0.00012972
0.000128713
0.000127686
0.000126642
0.000125579
0.000124498
0.000123402
0.000122292
0.000121169
0.000120031
0.000118881
0.000117719
0.000116547
0.000115353
0.000114132
0.000112885
0.000111609
0.000110297
0.000108943
0.000107536
0.00010606
0.000104503
0.000102838
0.00010103
9.90542e-05
9.6878e-05
9.44743e-05
9.18096e-05
8.88453e-05
8.55681e-05
8.18968e-05
7.7942e-05
7.3555e-05
6.90151e-05
6.42587e-05
5.92336e-05
5.45688e-05
4.94786e-05
4.47201e-05
3.95879e-05
3.47074e-05
2.98704e-05
2.60892e-05
2.22663e-05
1.45523e-05
1.07243e-05
8.9463e-06
9.63143e-06
1.29988e-05
1.79649e-05
2.28215e-05
2.74114e-05
3.17598e-05
3.57488e-05
3.88851e-05
4.02841e-05
4.04205e-05
3.75683e-05
3.18091e-05
2.4486e-05
0.000133336
0.000132565
0.000131755
0.000130906
0.000130021
0.000129102
0.000128152
0.000127172
0.000126164
0.000125127
0.000124061
0.000122966
0.000121842
0.000120689
0.000119505
0.00011829
0.000117044
0.000115766
0.000114457
0.000113118
0.000111738
0.000110294
0.000108789
0.000107214
0.000105561
0.000103784
0.000101861
9.97728e-05
9.74943e-05
9.50084e-05
9.23021e-05
8.93708e-05
8.62132e-05
8.28418e-05
7.92758e-05
7.55758e-05
7.17305e-05
6.76195e-05
6.32801e-05
5.86869e-05
5.40203e-05
4.90436e-05
4.4197e-05
3.84205e-05
3.29018e-05
2.68571e-05
2.13056e-05
1.62062e-05
1.19862e-05
8.55702e-06
6.21381e-06
5.36892e-06
4.4268e-06
3.18765e-06
2.83089e-06
3.55115e-06
5.84397e-06
9.2959e-06
1.37965e-05
1.84972e-05
2.3017e-05
2.7145e-05
3.09055e-05
3.40531e-05
3.5897e-05
3.6506e-05
3.50526e-05
3.12138e-05
2.57833e-05
0.000104892
0.000104089
0.000103264
0.000102414
0.00010154
0.000100635
9.97032e-05
9.87356e-05
9.77403e-05
9.67056e-05
9.56383e-05
9.45339e-05
9.33882e-05
9.22109e-05
9.0977e-05
8.97173e-05
8.83923e-05
8.70409e-05
8.56268e-05
8.41222e-05
8.25278e-05
8.08525e-05
7.90719e-05
7.72011e-05
7.52412e-05
7.32004e-05
7.10883e-05
6.88908e-05
6.66108e-05
6.4248e-05
6.17829e-05
5.91789e-05
5.64192e-05
5.34438e-05
5.02326e-05
4.66648e-05
4.27046e-05
3.84415e-05
3.38001e-05
2.88713e-05
2.35097e-05
1.81231e-05
1.29185e-05
8.94449e-06
6.08348e-06
4.04903e-06
2.87177e-06
2.19426e-06
1.60273e-06
1.20041e-06
9.44746e-07
8.51735e-07
6.31606e-07
5.28971e-07
5.85152e-07
9.18256e-07
1.62033e-06
2.95167e-06
5.3325e-06
9.03524e-06
1.33627e-05
1.75345e-05
2.09906e-05
2.42675e-05
2.66866e-05
2.7975e-05
2.81907e-05
2.68052e-05
2.34403e-05
5.52244e-05
5.58806e-05
5.65412e-05
5.71682e-05
5.78244e-05
5.83872e-05
5.90678e-05
5.94969e-05
6.02322e-05
6.04466e-05
6.10276e-05
6.1209e-05
6.1712e-05
6.17882e-05
6.184e-05
6.18991e-05
6.18946e-05
6.1866e-05
6.21056e-05
6.17104e-05
6.15231e-05
6.15589e-05
6.06539e-05
6.02073e-05
6.03004e-05
5.9885e-05
5.90997e-05
5.79532e-05
5.64656e-05
5.46217e-05
5.23755e-05
4.96777e-05
4.64851e-05
4.2755e-05
3.84502e-05
3.35354e-05
2.80225e-05
2.19693e-05
1.56672e-05
9.66402e-06
4.73579e-06
1.72201e-06
7.46558e-07
7.04946e-07
7.20906e-07
6.70369e-07
5.91554e-07
4.9176e-07
3.67474e-07
2.93604e-07
2.40978e-07
1.92297e-07
1.48747e-07
1.31751e-07
1.52179e-07
2.34706e-07
4.08637e-07
7.04995e-07
1.12685e-06
1.6356e-06
2.16756e-06
2.71853e-06
3.43203e-06
4.08025e-06
4.66227e-06
5.02934e-06
5.39448e-06
5.77159e-06
5.66673e-06
5.01813e-06
5.01797e-06
5.01877e-06
5.0219e-06
5.02697e-06
5.02856e-06
5.02856e-06
5.02209e-06
5.01998e-06
5.01505e-06
5.01386e-06
5.01415e-06
5.02443e-06
5.03037e-06
5.02777e-06
5.0161e-06
5.01484e-06
5.01763e-06
5.01825e-06
5.00756e-06
5.00283e-06
5.00804e-06
5.00286e-06
5.00392e-06
4.99637e-06
4.98962e-06
4.99444e-06
4.99381e-06
4.99262e-06
4.99559e-06
4.99072e-06
4.99163e-06
4.99071e-06
4.98836e-06
4.98846e-06
4.98172e-06
4.98212e-06
4.98434e-06
4.98597e-06
4.99237e-06
4.98345e-06
4.98487e-06
4.98148e-06
4.97698e-06
4.97934e-06
4.97649e-06
4.97353e-06
4.97207e-06
4.97743e-06
4.98596e-06
4.99318e-06
5.00508e-06
5.0098e-06
5.01094e-06
5.01226e-06
5.01257e-06
5.01432e-06
5.01746e-06
5.02124e-06
5.13501e-06
5.13376e-06
5.12852e-06
5.12714e-06
5.1245e-06
5.1221e-06
5.11964e-06
5.1172e-06
5.11768e-06
5.11733e-06
5.11824e-06
5.12494e-06
5.12705e-06
5.12105e-06
5.11311e-06
5.10944e-06
5.11174e-06
5.11246e-06
5.10378e-06
5.09475e-06
5.09393e-06
5.09611e-06
5.0894e-06
5.09033e-06
5.08126e-06
5.07668e-06
5.07994e-06
5.08026e-06
5.07626e-06
5.07697e-06
5.07484e-06
5.07516e-06
5.07336e-06
5.06985e-06
5.07117e-06
5.06643e-06
5.0646e-06
5.06688e-06
5.06963e-06
5.07443e-06
5.07154e-06
5.07131e-06
5.06909e-06
5.06543e-06
5.06377e-06
5.06246e-06
5.06178e-06
5.06061e-06
5.06358e-06
5.07105e-06
5.07894e-06
5.09042e-06
5.1014e-06
5.10843e-06
5.11423e-06
5.11808e-06
5.121e-06
5.1247e-06
5.1274e-06
5.24863e-06
5.24653e-06
5.24572e-06
5.24543e-06
5.2462e-06
5.24798e-06
5.24263e-06
5.24395e-06
5.24606e-06
5.24636e-06
5.24551e-06
5.24088e-06
5.23564e-06
5.22972e-06
5.22541e-06
5.22602e-06
5.22487e-06
5.2172e-06
5.20753e-06
5.2017e-06
5.20283e-06
5.20048e-06
5.19403e-06
5.19419e-06
5.18386e-06
5.18062e-06
5.18263e-06
5.18311e-06
5.17698e-06
5.17599e-06
5.17588e-06
5.17533e-06
5.17293e-06
5.16889e-06
5.17034e-06
5.16725e-06
5.16472e-06
5.16589e-06
5.16873e-06
5.1755e-06
5.17432e-06
5.17341e-06
5.17173e-06
5.17141e-06
5.17069e-06
5.16813e-06
5.16615e-06
5.16749e-06
5.16932e-06
5.1744e-06
5.18144e-06
5.19101e-06
5.20294e-06
5.21382e-06
5.2236e-06
5.23195e-06
5.23852e-06
5.24509e-06
5.24945e-06
5.39887e-06
5.39621e-06
5.39514e-06
5.39419e-06
5.39529e-06
5.39553e-06
5.39779e-06
5.392e-06
5.39002e-06
5.38424e-06
5.38125e-06
5.37466e-06
5.36828e-06
5.36467e-06
5.36234e-06
5.36299e-06
5.35131e-06
5.34183e-06
5.33281e-06
5.32985e-06
5.33226e-06
5.32511e-06
5.31916e-06
5.31712e-06
5.30681e-06
5.30439e-06
5.30519e-06
5.30505e-06
5.29724e-06
5.29514e-06
5.29592e-06
5.29457e-06
5.29191e-06
5.28778e-06
5.28888e-06
5.28705e-06
5.2848e-06
5.28479e-06
5.28685e-06
5.29432e-06
5.29766e-06
5.29874e-06
5.29889e-06
5.2971e-06
5.2983e-06
5.29885e-06
5.29856e-06
5.29929e-06
5.30008e-06
5.30275e-06
5.30766e-06
5.31478e-06
5.32451e-06
5.33545e-06
5.34656e-06
5.35744e-06
5.36705e-06
5.37672e-06
5.38372e-06
5.5747e-06
5.57107e-06
5.5695e-06
5.56736e-06
5.56601e-06
5.56443e-06
5.56241e-06
5.55814e-06
5.55368e-06
5.54743e-06
5.54267e-06
5.53526e-06
5.5298e-06
5.52617e-06
5.52171e-06
5.51564e-06
5.50201e-06
5.49305e-06
5.48657e-06
5.48699e-06
5.48304e-06
5.47447e-06
5.4685e-06
5.46414e-06
5.45397e-06
5.45172e-06
5.45136e-06
5.44983e-06
5.44077e-06
5.43779e-06
5.43868e-06
5.43663e-06
5.43379e-06
5.42967e-06
5.43031e-06
5.42919e-06
5.42768e-06
5.42704e-06
5.42806e-06
5.43522e-06
5.44161e-06
5.44561e-06
5.44788e-06
5.44943e-06
5.45079e-06
5.45218e-06
5.4534e-06
5.45505e-06
5.45657e-06
5.45874e-06
5.46233e-06
5.4676e-06
5.47489e-06
5.48395e-06
5.49405e-06
5.50494e-06
5.5154e-06
5.52664e-06
5.53534e-06
5.78335e-06
5.77863e-06
5.77657e-06
5.77313e-06
5.77011e-06
5.76633e-06
5.76192e-06
5.75642e-06
5.75019e-06
5.74335e-06
5.73676e-06
5.72927e-06
5.72317e-06
5.71703e-06
5.70872e-06
5.69801e-06
5.68482e-06
5.67725e-06
5.67218e-06
5.67044e-06
5.66356e-06
5.65392e-06
5.64729e-06
5.64062e-06
5.6306e-06
5.62795e-06
5.62608e-06
5.62291e-06
5.61279e-06
5.60895e-06
5.60944e-06
5.60674e-06
5.60361e-06
5.59948e-06
5.59964e-06
5.59897e-06
5.59819e-06
5.59751e-06
5.59761e-06
5.60377e-06
5.61177e-06
5.61857e-06
5.62334e-06
5.62754e-06
5.63087e-06
5.63372e-06
5.63637e-06
5.63928e-06
5.64219e-06
5.64527e-06
5.64901e-06
5.65375e-06
5.65978e-06
5.66725e-06
5.67585e-06
5.68559e-06
5.69544e-06
5.70669e-06
5.71563e-06
6.03423e-06
6.02809e-06
6.025e-06
6.01993e-06
6.01508e-06
6.0092e-06
6.00276e-06
5.99546e-06
5.98761e-06
5.97947e-06
5.97121e-06
5.9626e-06
5.95405e-06
5.94432e-06
5.93251e-06
5.91971e-06
5.90794e-06
5.90098e-06
5.89531e-06
5.89052e-06
5.88092e-06
5.87018e-06
5.8622e-06
5.85333e-06
5.84329e-06
5.83969e-06
5.836e-06
5.83094e-06
5.81983e-06
5.81502e-06
5.81476e-06
5.81138e-06
5.8078e-06
5.80361e-06
5.80334e-06
5.803e-06
5.80281e-06
5.80246e-06
5.80204e-06
5.80685e-06
5.81518e-06
5.82404e-06
5.83142e-06
5.83816e-06
5.84405e-06
5.84919e-06
5.85384e-06
5.85841e-06
5.86299e-06
5.86764e-06
5.87255e-06
5.87798e-06
5.88411e-06
5.89118e-06
5.89905e-06
5.90797e-06
5.91704e-06
5.9278e-06
5.93624e-06
6.33655e-06
6.32843e-06
6.32373e-06
6.31667e-06
6.30983e-06
6.30197e-06
6.29362e-06
6.28444e-06
6.27485e-06
6.26476e-06
6.25431e-06
6.2432e-06
6.23132e-06
6.21826e-06
6.20428e-06
6.19099e-06
6.18004e-06
6.17217e-06
6.16446e-06
6.15606e-06
6.14393e-06
6.13175e-06
6.12182e-06
6.11084e-06
6.1004e-06
6.09525e-06
6.08946e-06
6.08226e-06
6.07012e-06
6.06416e-06
6.06279e-06
6.05866e-06