/*--------------------------------*- C++ -*----------------------------------*\
| =========                 |                                                 |
| \\      /  F ield         | OpenFOAM: The Open Source CFD Toolbox           |
|  \\    /   O peration     | Version:  2312                                  |
|   \\  /    A nd           | Website:  www.openfoam.com                      |
|    \\/     M anipulation  |                                                 |
\*---------------------------------------------------------------------------*/
FoamFile
{
    version     2.0;
    format      ascii;
    arch        "LSB;label=32;scalar=64";
    class       volScalarField;
    location    "900";
    object      nut;
}
// * * * * * * * * * * * * * * * * * * * * * * * * * * * * * * * * * * * * * //

dimensions      [0 2 -1 0 0 0 0];

internalField   nonuniform List<scalar> 
76025
(
0.00017122
0.000171332
0.000171383
0.000171402
0.00017142
0.000171572
0.000171725
0.000171915
0.000172058
0.00017222
0.000172373
0.000172538
0.000172755
0.000172947
0.000173213
0.000173427
0.000173703
0.000174034
0.000174363
0.000174705
0.000175054
0.000175427
0.000175785
0.00017615
0.000176528
0.000176904
0.000177327
0.000177678
0.000178119
0.00017851
0.000178953
0.000179393
0.000179852
0.000180344
0.000180839
0.000181356
0.000181919
0.000182494
0.000183139
0.00018382
0.000184577
0.000185443
0.000186395
0.000187514
0.000188773
0.000190279
0.000191946
0.000193931
0.000196268
0.00019888
0.00020201
0.000205535
0.00020979
0.000214452
0.000220638
0.000227269
0.000235842
0.00024624
0.000259029
0.000275141
0.000293716
0.000316619
0.000342342
0.000370045
0.000398087
0.000422002
0.000441987
0.000451584
0.000452877
0.000173012
0.000173125
0.00017324
0.00017336
0.000173445
0.000173564
0.000173691
0.000173847
0.000174004
0.000174165
0.000174329
0.000174493
0.000174679
0.000174867
0.000175095
0.000175319
0.000175569
0.000175839
0.000176136
0.000176445
0.000176772
0.000177115
0.000177473
0.000177837
0.000178222
0.0001786
0.000179011
0.000179421
0.000179856
0.000180304
0.000180784
0.000181266
0.000181786
0.000182326
0.000182907
0.000183527
0.000184188
0.000184915
0.000185711
0.000186587
0.000187569
0.000188655
0.000189903
0.000191302
0.000192909
0.000194725
0.000196809
0.000199204
0.000201927
0.000205089
0.000208695
0.000212959
0.000217873
0.000223878
0.000230962
0.000239755
0.000250535
0.000263814
0.000280047
0.000299208
0.000321643
0.000346495
0.000372899
0.000399223
0.000423563
0.000442787
0.000455409
0.000455711
0.000446959
0.000175046
0.000175181
0.000175312
0.000175453
0.000175583
0.000175719
0.00017586
0.000176013
0.000176175
0.000176344
0.00017652
0.000176698
0.000176888
0.000177082
0.000177298
0.000177524
0.00017777
0.000178031
0.000178313
0.000178614
0.000178932
0.000179268
0.000179622
0.000179992
0.000180383
0.000180787
0.000181216
0.000181665
0.000182139
0.000182637
0.000183168
0.000183728
0.000184327
0.000184967
0.000185656
0.0001864
0.000187208
0.000188091
0.000189063
0.000190132
0.000191323
0.000192654
0.00019415
0.000195834
0.000197738
0.000199894
0.000202352
0.000205154
0.000208378
0.000212092
0.000216439
0.00022154
0.000227656
0.000235011
0.000244004
0.000255011
0.000268441
0.000284651
0.000303735
0.000325707
0.000349981
0.000375715
0.000401486
0.000425263
0.000444901
0.000457067
0.000461109
0.000451626
0.000434363
0.000177278
0.000177452
0.000177618
0.000177784
0.000177947
0.000178111
0.000178276
0.000178446
0.000178622
0.000178804
0.000178994
0.00017919
0.000179394
0.000179605
0.00017983
0.000180066
0.000180319
0.000180588
0.000180875
0.000181182
0.000181508
0.000181854
0.000182221
0.000182609
0.000183021
0.000183458
0.000183923
0.000184418
0.000184945
0.000185507
0.000186108
0.000186753
0.000187446
0.000188193
0.000189003
0.000189881
0.000190841
0.00019189
0.000193046
0.00019432
0.000195737
0.00019732
0.000199095
0.000201093
0.000203349
0.000205911
0.000208833
0.000212188
0.000216068
0.000220602
0.000225951
0.000232345
0.000240054
0.000249428
0.000260836
0.000274639
0.000291111
0.000310338
0.000332161
0.00035606
0.000381141
0.000406065
0.000429045
0.000447926
0.000460547
0.000464405
0.000459029
0.000440173
0.000415711
0.000179781
0.000179989
0.000180193
0.000180393
0.00018059
0.000180788
0.000180986
0.000181186
0.000181389
0.000181597
0.00018181
0.000182029
0.000182257
0.000182492
0.000182739
0.000182998
0.000183271
0.00018356
0.000183867
0.000184194
0.000184542
0.000184912
0.000185307
0.000185726
0.000186175
0.000186656
0.000187172
0.000187725
0.000188319
0.000188958
0.000189646
0.000190388
0.000191191
0.000192062
0.000193009
0.000194042
0.000195172
0.000196412
0.000197781
0.000199291
0.000200972
0.000202853
0.000204965
0.000207348
0.000210049
0.000213131
0.000216673
0.000220779
0.000225586
0.000231271
0.000238066
0.000246249
0.000256147
0.000268096
0.000282398
0.000299246
0.000318649
0.000340366
0.000363843
0.000388185
0.000412133
0.000434047
0.00045209
0.000464164
0.000468539
0.000463497
0.000448568
0.00042167
0.00039135
0.000182701
0.000182922
0.000183148
0.000183374
0.000183603
0.000183833
0.000184065
0.0001843
0.000184538
0.00018478
0.000185027
0.00018528
0.000185541
0.00018581
0.00018609
0.000186382
0.000186689
0.000187012
0.000187353
0.000187714
0.000188098
0.000188507
0.000188942
0.000189408
0.00018991
0.00019045
0.000191031
0.000191658
0.000192335
0.000193066
0.000193858
0.000194716
0.00019565
0.000196666
0.000197776
0.00019899
0.000200323
0.000201791
0.000203414
0.00020521
0.000207216
0.000209469
0.00021201
0.000214895
0.000218193
0.000221992
0.000226408
0.000231593
0.000237736
0.000245072
0.000253876
0.000264449
0.000277079
0.000291996
0.000309305
0.000328926
0.000350541
0.000373556
0.000397082
0.000419915
0.000440598
0.00045741
0.00046872
0.000472648
0.000468194
0.00045418
0.000430206
0.000397281
0.000362485
0.000186185
0.000186403
0.000186633
0.000186871
0.000187117
0.000187372
0.000187632
0.000187899
0.000188171
0.00018845
0.000188736
0.000189029
0.000189331
0.000189643
0.000189967
0.000190304
0.000190657
0.000191026
0.000191416
0.000191827
0.000192263
0.000192726
0.00019322
0.000193752
0.000194324
0.000194941
0.000195608
0.000196329
0.00019711
0.000197957
0.000198878
0.00019988
0.000200973
0.000202168
0.000203478
0.000204916
0.000206501
0.000208253
0.000210197
0.000212363
0.000214793
0.000217541
0.00022067
0.000224257
0.000228406
0.000233244
0.000238937
0.000245683
0.000253718
0.0002633
0.000274692
0.000288118
0.000303724
0.000321519
0.000341331
0.00036277
0.000385207
0.000407758
0.000429304
0.000448493
0.000463865
0.000473845
0.000477178
0.000472267
0.000459062
0.000436367
0.000404647
0.000368212
0.000330155
0.000190364
0.000190575
0.000190803
0.000191044
0.000191299
0.000191567
0.000191848
0.00019214
0.000192442
0.000192756
0.00019308
0.000193416
0.000193764
0.000194125
0.0001945
0.000194891
0.000195301
0.00019573
0.000196182
0.000196659
0.000197164
0.000197701
0.000198276
0.000198895
0.000199562
0.000200281
0.00020106
0.000201903
0.000202819
0.000203814
0.000204899
0.000206084
0.00020738
0.000208803
0.000210367
0.000212094
0.000214006
0.000216132
0.000218508
0.000221179
0.0002242
0.000227654
0.000231634
0.000236254
0.000241657
0.000248018
0.000255538
0.00026444
0.000274952
0.00028728
0.000301572
0.000317875
0.000336102
0.000355993
0.000377096
0.000398757
0.000420121
0.000440137
0.000457601
0.000471195
0.000479627
0.000481634
0.000476364
0.000462573
0.000441188
0.000410457
0.000373288
0.000335953
0.00029497
0.000195363
0.000195577
0.000195809
0.000196054
0.000196318
0.000196599
0.000196897
0.000197211
0.000197542
0.000197888
0.00019825
0.000198629
0.000199025
0.000199439
0.000199872
0.000200326
0.000200802
0.000201304
0.000201832
0.000202392
0.000202984
0.000203618
0.000204299
0.000205032
0.000205822
0.000206676
0.0002076
0.000208604
0.000209695
0.000210884
0.000212184
0.000213608
0.000215172
0.000216897
0.000218804
0.000220922
0.000223286
0.00022594
0.000228935
0.000232343
0.000236243
0.000240754
0.000246006
0.000252152
0.000259368
0.000267843
0.000277773
0.000289334
0.000302658
0.000317801
0.000334712
0.000353209
0.00037296
0.00039347
0.000414081
0.000433972
0.000452184
0.000467633
0.000479182
0.000485692
0.000486137
0.00047966
0.000465721
0.000443584
0.000414863
0.000377325
0.000337996
0.000301457
0.000257969
0.000201321
0.000201554
0.000201803
0.000202067
0.00020235
0.000202652
0.000202974
0.000203317
0.000203679
0.000204063
0.000204468
0.000204895
0.000205344
0.000205818
0.000206317
0.000206843
0.000207399
0.000207986
0.000208607
0.000209266
0.000209973
0.000210731
0.000211547
0.000212427
0.000213377
0.000214406
0.000215522
0.000216737
0.000218063
0.000219513
0.000221104
0.000222857
0.000224794
0.000226945
0.000229345
0.000232036
0.000235073
0.000238521
0.00024246
0.00024699
0.000252226
0.000258311
0.000265404
0.000273668
0.000283261
0.000294329
0.000306976
0.000321247
0.000337102
0.000354399
0.00037288
0.000392159
0.000411723
0.000430928
0.000449013
0.000465097
0.000478243
0.000487441
0.000491739
0.00049026
0.000482285
0.000467373
0.00044517
0.000415703
0.000380621
0.000338698
0.000300715
0.000262853
0.000223551
0.000208419
0.000208686
0.000208971
0.000209271
0.00020959
0.000209931
0.000210293
0.000210679
0.000211088
0.000211523
0.000211983
0.000212472
0.000212989
0.000213537
0.000214117
0.000214732
0.000215385
0.000216077
0.000216815
0.000217608
0.000218461
0.00021938
0.000220372
0.000221446
0.000222609
0.000223874
0.000225253
0.000226761
0.000228415
0.000230237
0.000232252
0.000234489
0.000236986
0.000239787
0.000242947
0.00024653
0.000250615
0.000255294
0.000260674
0.000266875
0.000274029
0.000282266
0.000291727
0.00030252
0.000314719
0.000328345
0.000343354
0.000359621
0.000376932
0.000394976
0.000413345
0.000431526
0.000448916
0.000464809
0.000478437
0.00048895
0.000495534
0.000497316
0.00049361
0.00048383
0.000467546
0.000444689
0.000415045
0.000379616
0.000339477
0.000297437
0.00026113
0.00022339
0.000202452
0.000216902
0.000217221
0.00021756
0.000217916
0.000218293
0.000218694
0.000219119
0.000219571
0.00022005
0.00022056
0.0002211
0.000221675
0.000222285
0.000222933
0.000223622
0.000224357
0.000225137
0.000225977
0.000226881
0.000227857
0.00022891
0.000230051
0.000231289
0.000232636
0.000234106
0.000235715
0.000237482
0.000239431
0.000241589
0.000243988
0.000246668
0.000249675
0.000253065
0.000256903
0.000261264
0.000266233
0.000271906
0.000278384
0.000285774
0.000294177
0.000303686
0.000314374
0.000326282
0.000339411
0.000353707
0.00036905
0.000385254
0.000402058
0.000419131
0.000436064
0.000452371
0.000467494
0.000480804
0.000491616
0.000499218
0.000502862
0.000501924
0.000495682
0.000483795
0.000465933
0.000441883
0.000411911
0.000376084
0.000336335
0.000293607
0.000255298
0.000219704
0.00018802
0.00019028
0.000227128
0.000227517
0.000227929
0.000228362
0.000228822
0.00022931
0.000229828
0.000230378
0.000230961
0.000231581
0.000232239
0.00023294
0.000233686
0.000234482
0.000235329
0.000236241
0.000237225
0.000238288
0.000239439
0.000240689
0.000242047
0.000243528
0.000245149
0.000246927
0.000248885
0.000251048
0.000253447
0.000256118
0.000259103
0.000262449
0.000266212
0.000270455
0.000275246
0.000280661
0.000286779
0.00029368
0.00030144
0.000310129
0.0003198
0.000330487
0.000342196
0.000354898
0.000368524
0.000382958
0.000398038
0.000413547
0.000429212
0.000444702
0.000459629
0.000473546
0.000485948
0.00049628
0.000503947
0.00050833
0.000508828
0.000504834
0.000495971
0.000481626
0.000461916
0.000436632
0.000405654
0.000369733
0.000329503
0.000287673
0.000246199
0.000212665
0.000179269
0.000166359
0.000182614
0.000239627
0.000240107
0.00024062
0.000241162
0.000241738
0.000242353
0.000243006
0.000243701
0.000244441
0.000245229
0.00024607
0.000246968
0.000247927
0.000248964
0.000250085
0.000251299
0.000252617
0.00025405
0.000255614
0.000257324
0.000259199
0.000261262
0.000263537
0.000266053
0.000268844
0.000271948
0.000275406
0.000279265
0.000283576
0.000288395
0.000293778
0.000299784
0.000306469
0.000313886
0.000322079
0.000331082
0.000340913
0.000351572
0.000363034
0.000375249
0.000388137
0.000401586
0.000415449
0.000429541
0.00044364
0.000457481
0.000470754
0.000483104
0.00049413
0.00050338
0.000510369
0.000514583
0.000515496
0.000512602
0.000505443
0.000493582
0.000476919
0.000454872
0.000428179
0.000396445
0.000359557
0.000319436
0.000277324
0.000237001
0.000199262
0.000170919
0.000147519
0.000159069
0.00017895
0.000255233
0.000255847
0.000256509
0.000257216
0.000257973
0.000258786
0.000259656
0.000260587
0.000261586
0.000262656
0.000263815
0.000265071
0.000266432
0.000267911
0.000269521
0.000271276
0.000273194
0.000275294
0.000277599
0.000280131
0.00028292
0.000285993
0.000289384
0.000293128
0.000297261
0.000301823
0.000306853
0.00031239
0.000318471
0.000325132
0.000332402
0.000340302
0.000348847
0.000358039
0.000367866
0.000378303
0.000389306
0.000400815
0.000412747
0.000424998
0.000437438
0.000449913
0.000462242
0.000474208
0.000485567
0.000496035
0.000505292
0.000512982
0.000518704
0.000522033
0.000522531
0.00051977
0.000513314
0.000502817
0.00048797
0.000468528
0.000444673
0.00041577
0.000383346
0.000345448
0.000304157
0.000263484
0.00022306
0.000186556
0.000156178
0.000135021
0.000132744
0.000156466
0.000175487
0.000275396
0.000276247
0.000277173
0.000278173
0.000279256
0.000280427
0.000281702
0.000283089
0.000284598
0.000286236
0.000288018
0.000289957
0.000292067
0.000294367
0.000296874
0.000299608
0.000302589
0.00030584
0.000309384
0.000313245
0.000317447
0.000322016
0.000326973
0.000332342
0.000338143
0.000344393
0.000351106
0.000358292
0.000365953
0.000374087
0.000382683
0.000391724
0.00040118
0.000411014
0.000421176
0.000431604
0.000442222
0.000452938
0.000463645
0.000474215
0.000484499
0.000494325
0.000503496
0.000511787
0.000518942
0.000524676
0.000528669
0.000530584
0.000530031
0.000526643
0.000520042
0.000509954
0.000496021
0.000478128
0.000456074
0.000429822
0.000399821
0.000365114
0.000326314
0.000284615
0.000244334
0.000206789
0.000170873
0.000141005
0.000120578
0.000113627
0.000132994
0.000156004
0.000170668
0.000303027
0.000304381
0.000305873
0.000307504
0.000309283
0.000311221
0.000313328
0.000315612
0.000318087
0.000320764
0.000323656
0.000326774
0.000330132
0.000333743
0.000337618
0.000341771
0.000346211
0.00035095
0.000355997
0.000361358
0.00036704
0.000373044
0.000379373
0.000386024
0.00039299
0.000400265
0.000407834
0.000415682
0.000423786
0.00043212
0.000440651
0.00044934
0.000458141
0.000466999
0.000475849
0.000484616
0.000493211
0.000501531
0.000509456
0.000516849
0.000523552
0.000529382
0.000534136
0.000537585
0.000539474
0.000539522
0.000537424
0.000532887
0.00052552
0.000515114
0.000501297
0.000484075
0.000463067
0.000438536
0.000410235
0.000378379
0.000341728
0.000301726
0.000262635
0.000222118
0.000186522
0.000154282
0.000125688
0.000105743
9.9888e-05
0.0001131
0.000133697
0.000151849
0.000170786
0.000345276
0.000347607
0.000350137
0.000352861
0.000355787
0.000358921
0.000362263
0.000365816
0.000369583
0.000373565
0.000377763
0.000382176
0.000386805
0.000391646
0.000396699
0.000401959
0.000407422
0.000413081
0.000418928
0.000424955
0.000431151
0.000437504
0.000444
0.000450624
0.000457358
0.000464182
0.000471073
0.000478006
0.000484952
0.000491877
0.000498742
0.000505501
0.000512104
0.000518488
0.000524583
0.000530306
0.000535561
0.000540239
0.000544211
0.000547331
0.000549436
0.000550337
0.000549832
0.000547691
0.000543673
0.000537507
0.00052893
0.000517714
0.000503443
0.00048628
0.000465599
0.000442051
0.000414853
0.000385029
0.000349699
0.000312325
0.00027428
0.000235377
0.000199279
0.000164254
0.000134652
0.000110076
9.1442e-05
8.92332e-05
9.79342e-05
0.000113665
0.000132629
0.000152804
0.000165872
0.000412964
0.000416153
0.000419539
0.000423103
0.000426837
0.000430732
0.000434776
0.000438961
0.000443275
0.000447709
0.000452254
0.0004569
0.000461641
0.000466469
0.000471374
0.000476344
0.000481367
0.000486432
0.000491523
0.000496626
0.000501729
0.000506814
0.000511865
0.000516866
0.000521794
0.00052663
0.000531349
0.000535922
0.000540319
0.000544503
0.000548432
0.000552057
0.000555322
0.000558159
0.000560493
0.000562233
0.000563277
0.000563509
0.000562794
0.000560979
0.000557896
0.000553355
0.000547168
0.000539111
0.000528969
0.000516486
0.000501513
0.000483857
0.000463105
0.000440107
0.000413279
0.000384763
0.000350672
0.000315804
0.000278227
0.000242148
0.000206796
0.000171828
0.000141809
0.000114084
9.25619e-05
7.78765e-05
7.79094e-05
8.59222e-05
9.77011e-05
0.000114484
0.000135599
0.000152334
0.000155508
0.000505055
0.000508054
0.000511103
0.000514189
0.000517312
0.000520465
0.000523641
0.000526831
0.000530027
0.000533219
0.0005364
0.000539578
0.000542762
0.000545933
0.000549073
0.000552166
0.000555197
0.00055815
0.00056101
0.000563765
0.000566403
0.000568908
0.000571263
0.000573451
0.000575449
0.000577235
0.000578782
0.000580061
0.000581035
0.000581665
0.000581904
0.0005817
0.000580988
0.000579696
0.00057774
0.000575026
0.000571445
0.000566875
0.000561175
0.000554177
0.00054573
0.000535642
0.000523775
0.000509896
0.000493843
0.000475387
0.000454675
0.000431259
0.000405216
0.00037703
0.00034354
0.000310415
0.000275021
0.0002413
0.000206577
0.000174852
0.000144482
0.000115993
9.47738e-05
7.52587e-05
6.66952e-05
6.84727e-05
7.53265e-05
8.55025e-05
0.000100449
0.000119975
0.000137465
0.000146817
0.00014086
0.000598684
0.000600232
0.000601727
0.00060316
0.000604532
0.000605838
0.000607071
0.000608224
0.00060929
0.000610261
0.00061113
0.000611892
0.00061254
0.000613069
0.00061347
0.000613735
0.000613852
0.000613811
0.000613599
0.000613232
0.000612697
0.000611971
0.000611032
0.000609862
0.000608432
0.000606723
0.000604699
0.00060233
0.000599571
0.000596381
0.000592709
0.000588492
0.000583661
0.000578136
0.000571829
0.00056464
0.000556463
0.000547159
0.000536572
0.000524516
0.000510929
0.00049559
0.000478519
0.000459324
0.000438028
0.000414575
0.000388513
0.000359208
0.00032861
0.000296256
0.000263284
0.000231985
0.000199491
0.000169844
0.000140583
0.000114967
9.2198e-05
7.33844e-05
6.00679e-05
5.66009e-05
6.08359e-05
6.64506e-05
7.48256e-05
9.0538e-05
0.000107629
0.00012409
0.000135516
0.000136937
0.000121452
0.000667081
0.000666662
0.00066613
0.000665476
0.000664701
0.000663801
0.000662766
0.000661585
0.00066025
0.000658757
0.000657099
0.000655274
0.00065327
0.000651092
0.000648727
0.000646168
0.000643408
0.000640437
0.000637241
0.000633811
0.000630135
0.000626198
0.000622007
0.000617567
0.000612797
0.000607757
0.000602308
0.000596509
0.000590213
0.00058346
0.000576152
0.000568221
0.000559586
0.000550162
0.000539873
0.000528612
0.000516291
0.000502668
0.000487594
0.0004709
0.00045289
0.000433063
0.000411931
0.000387476
0.000360851
0.00033215
0.000303175
0.000273206
0.000243185
0.000213576
0.000184298
0.000157372
0.000130287
0.000106858
8.66392e-05
6.84853e-05
5.54341e-05
4.84436e-05
4.9694e-05
5.2399e-05
5.66e-05
6.56827e-05
8.24061e-05
9.91052e-05
0.000113836
0.000124366
0.000128911
0.000122138
9.94063e-05
0.000691219
0.000689128
0.000686842
0.000684374
0.000681737
0.000678923
0.000675894
0.000672635
0.000669153
0.000665462
0.00066157
0.000657489
0.00065316
0.000648704
0.000643991
0.000639074
0.000633937
0.000628564
0.000622939
0.000617049
0.000610879
0.000604417
0.000597568
0.000590588
0.000582921
0.000575519
0.000567055
0.00055878
0.000549364
0.000539941
0.000529712
0.000518775
0.000507028
0.000494418
0.00048093
0.000466404
0.000450798
0.000433266
0.000414199
0.000393328
0.000370722
0.000347278
0.000321707
0.000295116
0.000267798
0.000240555
0.000213347
0.00018676
0.000161294
0.000136067
0.000113999
9.33664e-05
7.52405e-05
6.03241e-05
4.87434e-05
4.11619e-05
4.01009e-05
4.08009e-05
4.29273e-05
4.62137e-05
5.79382e-05
7.62653e-05
9.26373e-05
0.000106337
0.000115558
0.000120095
0.000118318
0.000105232
7.88374e-05
0.000659203
0.00065561
0.000651873
0.000647981
0.000643932
0.000639717
0.000635327
0.000630749
0.000625975
0.000620999
0.000615815
0.000610418
0.000604799
0.000598957
0.000592882
0.000586569
0.000580008
0.00057319
0.0005661
0.00055875
0.000551133
0.000543222
0.000534983
0.000526404
0.000517435
0.000508092
0.000498282
0.000488003
0.000477148
0.000465699
0.000453567
0.000440614
0.000426674
0.000411629
0.000395316
0.00037767
0.000358681
0.000338258
0.000316515
0.000293776
0.000270499
0.00024647
0.000222204
0.000198364
0.000174121
0.000151622
0.000129563
0.000109516
9.12759e-05
7.3827e-05
6.12554e-05
4.79441e-05
3.89418e-05
3.31901e-05
3.17563e-05
3.19106e-05
3.19905e-05
3.1881e-05
3.60673e-05
5.10611e-05
6.8604e-05
8.59309e-05
9.91665e-05
0.000108206
0.000112252
0.000112786
0.000106428
9.03674e-05
6.48729e-05
0.0005658
0.000561819
0.000557672
0.00055336
0.000548885
0.000544248
0.000539444
0.00053447
0.000529319
0.000523986
0.000518463
0.000512744
0.00050682
0.000500684
0.000494351
0.000487818
0.000481067
0.000474085
0.000466853
0.000459358
0.000451579
0.00044349
0.000435053
0.000426235
0.000416968
0.000407187
0.000396819
0.000385792
0.000374025
0.000361442
0.000347951
0.00033353
0.000318232
0.00030201
0.000284842
0.00026673
0.000247794
0.000228054
0.000207977
0.000187264
0.000167011
0.000146823
0.000127521
0.00010992
9.23775e-05
7.85522e-05
6.44529e-05
5.35582e-05
4.26041e-05
3.43717e-05
2.79301e-05
2.42132e-05
2.31274e-05
2.24317e-05
2.22671e-05
2.0421e-05
2.00389e-05
2.65816e-05
3.87761e-05
5.61211e-05
7.35215e-05
8.80893e-05
9.88422e-05
0.000105039
0.00010606
0.000104612
9.62003e-05
8.0287e-05
5.86458e-05
0.000413968
0.000410506
0.000406929
0.000403233
0.000399416
0.000395493
0.000391463
0.000387317
0.000383047
0.000378644
0.000374101
0.000369411
0.000364562
0.00035955
0.000354363
0.000349
0.000343446
0.000337699
0.000331741
0.000325549
0.00031909
0.000312302
0.000305041
0.00029725
0.000288891
0.000279921
0.000270294
0.000259966
0.000248901
0.000237071
0.000224473
0.000211104
0.000197001
0.000182249
0.000167
0.00015143
0.000135835
0.00012038
0.000105617
9.13567e-05
7.85233e-05
6.64369e-05
5.59672e-05
4.69633e-05
3.83842e-05
3.27681e-05
2.57243e-05
2.08129e-05
1.74225e-05
1.53424e-05
1.34414e-05
1.20771e-05
1.13215e-05
8.86615e-06
9.10734e-06
9.84694e-06
1.34946e-05
2.21963e-05
3.63554e-05
5.27398e-05
6.8057e-05
8.04139e-05
8.96625e-05
9.51077e-05
9.60489e-05
9.48623e-05
8.77338e-05
7.50353e-05
5.94921e-05
0.000229788
0.000227737
0.000225621
0.000223437
0.000221182
0.000218857
0.000216459
0.000213987
0.000211435
0.000208804
0.000206082
0.000203275
0.000200362
0.000197359
0.000194228
0.000191008
0.000187628
0.000184163
0.000180515
0.000176642
0.000172419
0.000167664
0.000162394
0.000156589
0.000150244
0.000143325
0.000135841
0.00012783
0.000119346
0.000110473
0.000101329
9.2051e-05
8.28066e-05
7.37486e-05
6.50689e-05
5.69191e-05
4.94159e-05
4.25007e-05
3.63072e-05
3.07179e-05
2.5967e-05
2.15979e-05
1.81738e-05
1.4617e-05
1.19724e-05
9.23274e-06
7.48483e-06
6.00624e-06
4.78297e-06
3.71575e-06
3.18151e-06
3.82257e-06
4.20975e-06
3.56952e-06
3.29126e-06
4.08119e-06
6.64044e-06
1.1273e-05
1.94495e-05
3.11765e-05
4.50975e-05
5.68424e-05
6.64273e-05
7.35295e-05
7.72689e-05
7.832e-05
7.5272e-05
6.78414e-05
5.78761e-05
7.00954e-05
6.93858e-05
6.86634e-05
6.79268e-05
6.71729e-05
6.64002e-05
6.56044e-05
6.4788e-05
6.39413e-05
6.30756e-05
6.21695e-05
6.12491e-05
6.02717e-05
5.92957e-05
5.82262e-05
5.71983e-05
5.60013e-05
5.49357e-05
5.34951e-05
5.16863e-05
4.95675e-05
4.72181e-05
4.46692e-05
4.19792e-05
3.92097e-05
3.64153e-05
3.36406e-05
3.09192e-05
2.82823e-05
2.57539e-05
2.33494e-05
2.10697e-05
1.89233e-05
1.68951e-05
1.49904e-05
1.31744e-05
1.14461e-05
9.82854e-06
8.28898e-06
6.85446e-06
5.43716e-06
4.16326e-06
2.99998e-06
2.11719e-06
1.55559e-06
1.1486e-06
1.02354e-06
1.01066e-06
9.53594e-07
8.50039e-07
7.32211e-07
6.86268e-07
5.04111e-07
3.8571e-07
3.60174e-07
5.11073e-07
8.52661e-07
1.54084e-06
3.01554e-06
5.97898e-06
1.09985e-05
1.72698e-05
2.1655e-05
2.62104e-05
2.97746e-05
3.19733e-05
3.27926e-05
3.17695e-05
2.90508e-05
6.41932e-06
6.50013e-06
6.58221e-06
6.66137e-06
6.74465e-06
6.81847e-06
6.90624e-06
6.9672e-06
7.06254e-06
7.10224e-06
7.18247e-06
7.2209e-06
7.29497e-06
7.32385e-06
7.35084e-06
7.37751e-06
7.40139e-06
7.42068e-06
7.47638e-06
7.45554e-06
7.45808e-06
7.49701e-06
7.418e-06
7.39036e-06
7.43349e-06
7.41837e-06
7.36048e-06
7.26059e-06
7.12008e-06
6.93645e-06
6.70316e-06
6.41266e-06
6.05752e-06
5.62979e-06
5.12145e-06
4.52379e-06
3.83314e-06
3.05106e-06
2.21098e-06
1.38571e-06
6.88941e-07
2.53341e-07
1.10666e-07
1.05102e-07
1.08091e-07
1.01097e-07
8.97354e-08
7.50377e-08
5.64067e-08
4.53306e-08
3.74193e-08
3.00304e-08
2.33601e-08
2.08051e-08
2.41598e-08
3.74535e-08
6.55254e-08
1.13555e-07
1.8225e-07
2.65538e-07
3.53172e-07
4.44454e-07
5.62738e-07
6.7094e-07
7.68805e-07
8.31892e-07
8.94819e-07
9.59891e-07
9.45629e-07
0.000170961
0.000170956
0.000170954
0.000170972
0.000171036
0.000170983
0.000170922
0.000170693
0.000170709
0.000170561
0.000170542
0.00017046
0.000170584
0.00017065
0.000170521
0.000170266
0.000170181
0.000170182
0.000170174
0.000169967
0.000169879
0.000169976
0.000169872
0.00016988
0.000169725
0.000169577
0.000169628
0.000169601
0.000169589
0.000169629
0.000169515
0.000169501
0.000169481
0.000169464
0.000169483
0.0001694
0.000169437
0.000169512
0.000169569
0.000169718
0.00016959
0.000169635
0.000169602
0.000169588
0.000169725
0.000169697
0.000169693
0.000169738
0.000169866
0.00017005
0.000170171
0.000170501
0.000170644
0.000170779
0.000170818
0.000170937
0.000170969
0.000171023
0.000171078
0.000173099
0.000173016
0.000172769
0.000172626
0.000172504
0.000172441
0.000172355
0.000172373
0.00017241
0.00017237
0.000172324
0.000172374
0.000172349
0.000172142
0.000172013
0.000171883
0.000171896
0.000171875
0.000171683
0.00017152
0.000171508
0.000171547
0.000171411
0.000171417
0.000171239
0.000171122
0.000171154
0.000171146
0.000171085
0.000171087
0.00017102
0.000170998
0.000170964
0.000170924
0.000170967
0.000170906
0.000170918
0.000170986
0.000171067
0.000171177
0.000171142
0.000171181
0.000171165
0.000171134
0.000171158
0.000171201
0.00017122
0.00017132
0.000171398
0.000171562
0.000171703
0.000171945
0.000172189
0.000172378
0.000172525
0.000172658
0.000172756
0.000172855
0.000172924
0.000174701
0.000174611
0.000174591
0.000174666
0.000174703
0.000174783
0.000174621
0.000174688
0.000174719
0.000174624
0.000174502
0.00017431
0.000174228
0.000174031
0.000173922
0.000173892
0.000173843
0.000173686
0.000173511
0.000173405
0.000173412
0.000173364
0.000173239
0.000173234
0.000173024
0.000172934
0.000172947
0.000172943
0.000172847
0.000172819
0.000172787
0.000172753
0.00017271
0.000172658
0.000172706
0.000172674
0.000172667
0.000172716
0.000172794
0.000172977
0.000172948
0.000172944
0.000172931
0.000172976
0.000172997
0.000173015
0.000172994
0.000173127
0.000173272
0.000173386
0.000173506
0.000173683
0.000173913
0.000174136
0.000174338
0.000174521
0.000174675
0.000174824
0.000174933
0.000177136
0.000177102
0.000177104
0.000177184
0.000177189
0.000177283
0.000177336
0.000177099
0.000176997
0.00017674
0.000176639
0.000176542
0.000176357
0.000176294
0.000176242
0.000176288
0.000175976
0.000175808
0.000175643
0.000175543
0.000175615
0.000175489
0.000175374
0.00017532
0.00017512
0.000175041
0.000175042
0.00017503
0.000174905
0.000174858
0.000174843
0.000174799
0.000174752
0.000174696
0.000174739
0.00017473
0.000174727
0.000174748
0.000174813
0.000175008
0.000175123
0.000175173
0.000175202
0.000175181
0.000175264
0.000175334
0.000175372
0.000175425
0.000175495
0.000175569
0.000175666
0.000175798
0.000175978
0.000176184
0.000176393
0.000176601
0.00017679
0.000176979
0.000177126
0.000180035
0.000179985
0.000179959
0.000179911
0.000179838
0.000179741
0.000179685
0.000179555
0.000179503
0.000179326
0.00017931
0.000179124
0.000179009
0.000178976
0.00017889
0.000178778
0.000178471
0.000178322
0.0001782
0.0001782
0.000178129
0.000177982
0.000177866
0.00017777
0.000177575
0.000177501
0.000177487
0.000177454
0.000177309
0.000177248
0.000177237
0.000177184
0.000177135
0.000177078
0.000177114
0.000177116
0.000177127
0.00017714
0.000177179
0.000177346
0.000177512
0.000177661
0.000177763
0.0001778
0.000177902
0.000177996
0.000178057
0.000178076
0.00017812
0.000178177
0.000178255
0.000178359
0.000178496
0.000178663
0.000178847
0.000179044
0.000179236
0.000179439
0.000179603
0.000183217
0.00018304
0.000183005
0.000183019
0.000182954
0.000182889
0.0001828
0.000182711
0.000182615
0.000182536
0.000182415
0.000182251
0.000182149
0.000182068
0.000181909
0.000181701
0.000181451
0.000181338
0.000181234
0.00018114
0.00018109
0.000180906
0.000180784
0.00018065
0.000180457
0.000180381
0.000180348
0.000180289
0.000180129
0.000180054
0.000180038
0.000179978
0.000179925
0.000179868
0.000179898
0.000179909
0.000179934
0.000179952
0.000179964
0.000180101
0.000180283
0.000180453
0.000180591
0.000180709
0.000180809
0.000180909
0.00018099
0.000181062
0.000181135
0.00018121
0.000181295
0.000181395
0.000181514
0.000181654
0.000181812
0.000181986
0.000182162
0.000182358
0.00018252
0.000187002
0.000186783
0.000186754
0.000186833
0.000186772
0.000186703
0.000186615
0.000186506
0.000186382
0.00018627
0.000186103
0.000185953
0.000185813
0.000185663
0.000185446
0.000185211
0.000185007
0.000184871
0.000184694
0.000184689
0.000184551
0.000184349
0.000184208
0.00018404
0.000183849
0.000183765
0.000183705
0.000183618
0.000183444
0.000183355
0.00018333
0.000183261
0.000183202
0.000183145
0.000183171
0.000183191
0.000183223
0.000183246
0.000183247
0.000183355
0.000183531
0.000183721
0.000183888
0.000184048
0.000184187
0.000184313
0.000184423
0.000184527
0.000184629
0.000184732
0.000184839
0.000184952
0.000185074
0.00018521
0.000185356
0.000185516
0.000185678
0.000185863
0.000186013
0.000191409
0.000191386
0.000191365
0.000191292
0.000191245
0.000191173
0.000191095
0.000190949
0.000190815
0.000190648
0.000190465
0.000190287
0.000190091
0.00018988
0.000189633
0.000189399
0.000189208
0.00018905
0.000188906
0.00018883
0.000188626
0.000188409
0.000188241
0.000188042
0.00018785
0.000187749
0.000187657
0.00018754
0.000187353
0.000187249
0.000187208
0.000187131
0.000187065
0.000187007