/*--------------------------------*- C++ -*----------------------------------*\
| =========                 |                                                 |
| \\      /  F ield         | OpenFOAM: The Open Source CFD Toolbox           |
|  \\    /   O peration     | Version:  2312                                  |
|   \\  /    A nd           | Website:  www.openfoam.com                      |
|    \\/     M anipulation  |                                                 |
\*---------------------------------------------------------------------------*/
FoamFile
{
    version     2.0;
    format      ascii;
    arch        "LSB;label=32;scalar=64";
    class       volScalarField;
    location    "900";
    object      omega;
}
// * * * * * * * * * * * * * * * * * * * * * * * * * * * * * * * * * * * * * //

dimensions      [0 0 -1 0 0 0 0];

internalField   nonuniform List<scalar> 
76025
(
0.0293492
0.0293592
0.0293509
0.0293473
0.0293456
0.0293666
0.0293783
0.0293954
0.0294048
0.029418
0.0294303
0.0294453
0.0294697
0.0294897
0.02952
0.0295475
0.0295805
0.0296122
0.0296441
0.0296804
0.0297188
0.0297635
0.0298076
0.0298553
0.0299089
0.0299543
0.030013
0.0300601
0.030122
0.0301715
0.0302306
0.0302863
0.0303444
0.0304077
0.0304703
0.0305364
0.0306094
0.0306835
0.030769
0.0308601
0.0309643
0.0310872
0.0312246
0.0313902
0.0315794
0.0318102
0.0320666
0.0323746
0.032739
0.0331472
0.0336388
0.034194
0.0348574
0.0355749
0.0365214
0.0375222
0.0387873
0.0402975
0.0421003
0.0442688
0.0467306
0.0497309
0.0531385
0.0571174
0.0615964
0.0668275
0.0729913
0.0810302
0.089772
0.0296556
0.0296637
0.0296695
0.0296768
0.0296788
0.0296876
0.0296952
0.0297069
0.0297192
0.0297333
0.0297487
0.0297647
0.0297849
0.0298054
0.0298317
0.029858
0.0298891
0.0299208
0.0299549
0.0299899
0.030027
0.0300669
0.0301092
0.0301529
0.0302014
0.0302481
0.030301
0.0303541
0.0304112
0.0304705
0.0305334
0.0305969
0.0306664
0.0307384
0.0308169
0.0309015
0.0309925
0.0310942
0.0312075
0.0313339
0.0314783
0.0316401
0.0318293
0.0320435
0.0322921
0.0325743
0.0328995
0.0332736
0.033699
0.0341917
0.0347519
0.0354094
0.0361618
0.0370728
0.03813
0.0394152
0.0409541
0.0427898
0.0449686
0.0474907
0.0504197
0.0537213
0.0574409
0.061737
0.0667143
0.0729259
0.0802564
0.0899447
0.101317
0.0300144
0.0300235
0.0300326
0.0300437
0.0300528
0.0300629
0.0300728
0.0300837
0.0300959
0.0301097
0.0301254
0.0301423
0.0301619
0.0301825
0.0302067
0.0302325
0.0302618
0.030293
0.030327
0.0303629
0.030401
0.0304413
0.0304844
0.0305296
0.0305782
0.030629
0.030684
0.0307422
0.0308047
0.0308711
0.0309428
0.031019
0.0311014
0.0311906
0.0312876
0.0313936
0.0315102
0.0316391
0.0317829
0.0319428
0.032123
0.0323264
0.032557
0.0328181
0.0331144
0.0334505
0.0338339
0.0342701
0.0347707
0.0353451
0.0360131
0.03679
0.0377105
0.0387974
0.0400981
0.0416471
0.0434842
0.0456415
0.0481322
0.0509825
0.0542003
0.0578531
0.0620357
0.066956
0.0727758
0.0799829
0.0885284
0.100012
0.113034
0.0304087
0.0304244
0.0304393
0.0304545
0.0304693
0.0304841
0.0304987
0.0305134
0.0305285
0.0305444
0.0305617
0.0305802
0.0306008
0.0306228
0.0306471
0.0306736
0.0307027
0.0307343
0.0307687
0.0308058
0.0308456
0.0308883
0.0309341
0.0309828
0.0310353
0.0310918
0.0311528
0.0312186
0.0312897
0.0313665
0.0314498
0.0315401
0.0316383
0.0317455
0.0318629
0.0319917
0.0321339
0.0322909
0.0324657
0.0326595
0.0328769
0.0331215
0.033397
0.033708
0.0340598
0.034459
0.0349134
0.0354336
0.0360317
0.0367254
0.0375344
0.0384869
0.0396129
0.0409498
0.0425337
0.0443983
0.0465708
0.0490658
0.0518996
0.055091
0.0586916
0.0627975
0.0675489
0.0731891
0.0799347
0.0883196
0.098444
0.112094
0.128167
0.030841
0.0308651
0.0308881
0.0309102
0.0309318
0.030953
0.030974
0.0309948
0.0310155
0.0310365
0.0310582
0.0310807
0.0311046
0.03113
0.0311572
0.0311864
0.031218
0.0312522
0.0312891
0.031329
0.0313723
0.0314188
0.0314692
0.0315232
0.0315821
0.0316462
0.0317159
0.0317916
0.031874
0.0319637
0.0320615
0.0321683
0.032285
0.032413
0.0325534
0.032708
0.0328786
0.0330672
0.0332767
0.033509
0.0337691
0.0340611
0.0343899
0.0347611
0.0351815
0.0356599
0.0362071
0.0368367
0.0375662
0.0384171
0.0394161
0.0405932
0.0419822
0.0436156
0.045522
0.0477224
0.05023
0.0530565
0.0562227
0.0597766
0.0638032
0.068446
0.0738894
0.0804224
0.0883217
0.0981546
0.110272
0.126677
0.146985
0.031339
0.0313679
0.0313969
0.0314254
0.0314538
0.031482
0.0315101
0.031538
0.0315658
0.0315938
0.0316221
0.0316511
0.031681
0.0317122
0.0317449
0.0317796
0.0318164
0.0318558
0.0318981
0.0319436
0.0319926
0.0320455
0.0321026
0.0321646
0.0322324
0.0323065
0.0323873
0.0324756
0.0325721
0.0326775
0.0327928
0.0329191
0.0330576
0.0332097
0.0333771
0.0335615
0.0337652
0.0339906
0.0342409
0.0345189
0.0348301
0.03518
0.0355749
0.0360222
0.0365312
0.0371139
0.0377847
0.0385621
0.0394679
0.0405282
0.0417718
0.0432286
0.0449264
0.0468882
0.0491298
0.0516614
0.0544938
0.0576493
0.0611737
0.0651512
0.0697069
0.075029
0.0813349
0.0889764
0.0982695
0.109897
0.124624
0.144546
0.172099
0.0319358
0.031965
0.031996
0.0320278
0.0320606
0.0320942
0.0321284
0.032163
0.032198
0.0322334
0.0322695
0.0323063
0.0323442
0.0323832
0.0324239
0.0324664
0.0325113
0.0325587
0.0326091
0.032663
0.0327209
0.032783
0.03285
0.0329232
0.0330031
0.0330904
0.0331858
0.0332901
0.0334041
0.0335291
0.0336659
0.0338161
0.033981
0.0341624
0.0343621
0.0345826
0.0348265
0.0350969
0.0353976
0.0357328
0.0361086
0.0365331
0.0370144
0.037563
0.0381916
0.0389159
0.0397549
0.0407305
0.0418678
0.0431928
0.0447312
0.0465054
0.0485323
0.050823
0.0533857
0.0562316
0.0593849
0.0628934
0.0668366
0.0713375
0.0765587
0.0827307
0.0901042
0.099122
0.11012
0.124094
0.142268
0.167161
0.20732
0.0326591
0.032687
0.0327177
0.0327502
0.0327849
0.0328215
0.0328599
0.0328996
0.0329407
0.032983
0.0330266
0.0330716
0.0331181
0.0331663
0.0332165
0.0332689
0.0333239
0.0333818
0.0334432
0.0335085
0.0335781
0.0336527
0.0337337
0.0338217
0.0339175
0.0340221
0.0341362
0.0342609
0.0343974
0.0345468
0.0347106
0.0348905
0.0350882
0.035306
0.0355463
0.0358121
0.0361068
0.0364347
0.0368006
0.0372108
0.0376729
0.038198
0.0387975
0.0394853
0.0402778
0.0411941
0.0422557
0.0434852
0.0449051
0.0465358
0.0483937
0.0504903
0.0528332
0.0554297
0.0582934
0.0614518
0.0649548
0.0688833
0.0733521
0.0785204
0.0845896
0.0918308
0.100544
0.111291
0.124435
0.141619
0.164419
0.197219
0.258967
0.0335314
0.0335592
0.03359
0.0336231
0.033659
0.0336978
0.0337391
0.0337829
0.033829
0.0338774
0.033928
0.033981
0.0340363
0.0340941
0.0341547
0.0342182
0.0342851
0.0343556
0.0344303
0.0345096
0.0345941
0.0346853
0.034784
0.034891
0.0350074
0.035134
0.0352721
0.0354229
0.0355878
0.0357684
0.0359665
0.0361843
0.0364241
0.0366889
0.0369818
0.0373071
0.0376694
0.0380747
0.0385297
0.0390437
0.0396257
0.0402912
0.0410545
0.0419325
0.0429434
0.0441067
0.0454417
0.0469659
0.048694
0.0506367
0.0528014
0.0551938
0.0578228
0.0607056
0.0638746
0.0673839
0.0713146
0.075781
0.0809316
0.0869622
0.0941179
0.102713
0.113134
0.12608
0.142054
0.163796
0.193025
0.239794
0.337686
0.0345752
0.0346057
0.034639
0.0346747
0.0347134
0.0347553
0.0348005
0.0348487
0.0349002
0.0349548
0.0350127
0.0350739
0.0351384
0.0352066
0.0352785
0.0353544
0.0354347
0.0355198
0.0356101
0.0357062
0.0358097
0.0359215
0.0360424
0.0361734
0.0363157
0.0364705
0.0366393
0.0368236
0.0370254
0.0372467
0.0374899
0.037758
0.0380542
0.0383826
0.0387479
0.0391557
0.0396129
0.0401275
0.0407092
0.0413692
0.0421201
0.0429778
0.0439591
0.0450805
0.0463578
0.0478056
0.0494361
0.0512585
0.0532793
0.0555036
0.0579381
0.0605951
0.0634975
0.0666833
0.0702117
0.0741659
0.0786583
0.0838368
0.089883
0.0970355
0.105594
0.115925
0.128567
0.144378
0.16435
0.192677
0.231646
0.304448
0.457492
0.0358195
0.0358558
0.0358948
0.0359361
0.0359805
0.0360284
0.0360798
0.0361349
0.0361937
0.0362564
0.0363233
0.0363944
0.0364699
0.0365501
0.0366353
0.0367257
0.0368219
0.0369241
0.0370334
0.0371513
0.0372786
0.0374162
0.0375652
0.037727
0.0379029
0.0380946
0.038304
0.0385333
0.0387849
0.039062
0.0393678
0.0397065
0.0400828
0.0405024
0.0409718
0.0414989
0.0420925
0.0427628
0.0435213
0.0443803
0.0453533
0.0464529
0.0476943
0.0490893
0.0506471
0.0523752
0.0542789
0.0563629
0.058633
0.0610994
0.06378
0.066704
0.0699164
0.0734807
0.0774842
0.0820395
0.0872901
0.0934207
0.10065
0.109274
0.119662
0.132263
0.147875
0.167586
0.19361
0.231532
0.287471
0.405233
0.613586
0.0373062
0.0373508
0.0373986
0.0374488
0.0375024
0.0375598
0.0376211
0.0376865
0.0377563
0.0378308
0.0379101
0.0379947
0.0380848
0.0381808
0.038283
0.0383922
0.0385083
0.0386338
0.0387693
0.0389157
0.0390744
0.0392464
0.0394334
0.039637
0.0398593
0.0401025
0.0403694
0.040663
0.0409869
0.0413453
0.041743
0.0421857
0.0426797
0.0432324
0.043852
0.0445474
0.0453285
0.0462055
0.0471888
0.0482888
0.0495148
0.0508757
0.0523783
0.0540294
0.0558344
0.0577974
0.0599243
0.0622248
0.0647144
0.0674177
0.0703712
0.0736258
0.0772514
0.0813367
0.085999
0.0913806
0.0976601
0.105069
0.11387
0.124449
0.137271
0.152931
0.172656
0.198091
0.233674
0.286192
0.374063
0.557481
0.785637
0.0390957
0.0391512
0.0392106
0.0392731
0.0393396
0.0394107
0.0394864
0.039567
0.0396529
0.0397443
0.0398418
0.0399458
0.0400566
0.0401752
0.0403014
0.0404377
0.0405851
0.0407447
0.0409177
0.0411054
0.0413096
0.0415321
0.0417751
0.0420411
0.0423328
0.0426537
0.0430074
0.0433981
0.0438306
0.0443104
0.0448434
0.0454363
0.0460962
0.0468306
0.0476474
0.0485543
0.0495592
0.0506692
0.0518908
0.0532298
0.0546911
0.056279
0.0579977
0.0598522
0.0618493
0.0639998
0.0663195
0.0688306
0.0715644
0.0745642
0.0778877
0.0816082
0.0858223
0.0906441
0.0962261
0.102745
0.110424
0.119565
0.130481
0.14371
0.159864
0.179829
0.205576
0.240205
0.291014
0.368129
0.512307
0.752578
0.916593
0.0412762
0.0413457
0.0414204
0.0414995
0.041584
0.0416743
0.0417708
0.0418736
0.0419832
0.0421002
0.0422251
0.0423587
0.0425014
0.042656
0.0428232
0.0430043
0.0432007
0.0434141
0.0436463
0.0438994
0.0441757
0.0444779
0.0448089
0.045172
0.045571
0.0460099
0.0464932
0.0470256
0.0476122
0.0482585
0.0489702
0.0497529
0.0506121
0.0515533
0.0525816
0.0537016
0.0549176
0.0562333
0.0576524
0.0591785
0.0608161
0.0625708
0.0644505
0.0664664
0.0686341
0.0709754
0.0735194
0.0763044
0.0793809
0.0828117
0.0866778
0.0910758
0.0961342
0.101995
0.10886
0.116948
0.126546
0.138075
0.151891
0.168831
0.189765
0.216148
0.251459
0.301799
0.37716
0.498806
0.716496
0.937294
0.973699
0.0439817
0.0440712
0.0441681
0.0442718
0.0443833
0.0445032
0.0446317
0.0447695
0.0449173
0.0450754
0.0452466
0.0454321
0.0456326
0.0458498
0.0460852
0.0463406
0.046618
0.0469194
0.0472474
0.0476043
0.0479931
0.0484167
0.0488783
0.0493813
0.0499294
0.0505261
0.0511752
0.0518805
0.0526458
0.0534748
0.054371
0.0553377
0.0563781
0.0574953
0.0586923
0.0599722
0.0613384
0.0627952
0.064348
0.0660038
0.0677718
0.0696644
0.0716979
0.0738934
0.0762783
0.0788876
0.0817652
0.0849667
0.0885617
0.0926368
0.0973015
0.102679
0.108942
0.116265
0.124931
0.135207
0.147485
0.162398
0.180305
0.202728
0.231009
0.267677
0.319577
0.397148
0.513476
0.705094
0.949481
1.02434
0.989906
0.0474357
0.047559
0.0476938
0.0478392
0.0479968
0.0481669
0.048352
0.0485527
0.0487698
0.0490044
0.0492576
0.049531
0.049826
0.0501442
0.0504874
0.0508572
0.0512557
0.0516849
0.0521469
0.0526437
0.0531776
0.0537509
0.0543658
0.0550245
0.0557294
0.0564825
0.0572862
0.0581427
0.0590541
0.0600228
0.0610511
0.0621418
0.0632978
0.0645229
0.0658215
0.0671989
0.068662
0.0702193
0.0718817
0.0736627
0.0755792
0.0776524
0.0799083
0.0823795
0.085106
0.0881372
0.0915346
0.0953733
0.0997483
0.104775
0.110605
0.117389
0.125379
0.134774
0.146014
0.159406
0.175542
0.19545
0.219433
0.250662
0.291112
0.345609
0.427904
0.5513
0.732778
0.973675
1.06401
1.04769
0.952924
0.0520391
0.052226
0.0524312
0.052654
0.0528955
0.0531564
0.0534374
0.0537392
0.0540627
0.0544088
0.0547784
0.0551725
0.0555921
0.0560382
0.0565118
0.0570139
0.0575456
0.058108
0.0587022
0.0593293
0.0599904
0.0606868
0.0614196
0.0621904
0.0630006
0.0638519
0.0647464
0.0656863
0.0666745
0.0677141
0.0688091
0.0699642
0.0711852
0.0724789
0.0738537
0.0753195
0.0768885
0.0785751
0.0803969
0.0823749
0.0845347
0.0869071
0.0895293
0.0924468
0.0957151
0.0994015
0.103591
0.108385
0.113917
0.120341
0.127872
0.13669
0.147197
0.159587
0.174623
0.192601
0.214581
0.242379
0.276131
0.322694
0.384639
0.47226
0.608591
0.801632
1.02002
1.10016
1.09291
1.02191
0.864032
0.0584984
0.0587725
0.0590699
0.059389
0.0597306
0.0600947
0.0604812
0.06089
0.0613212
0.0617751
0.0622516
0.0627509
0.0632732
0.0638188
0.0643879
0.0649811
0.0655987
0.0662414
0.0669099
0.067605
0.0683279
0.0690798
0.0698625
0.0706779
0.0715285
0.0724171
0.0733473
0.0743232
0.0753498
0.076433
0.0775796
0.0787977
0.0800969
0.0814884
0.0829851
0.0846026
0.0863588
0.0882749
0.0903763
0.0926928
0.0952602
0.098121
0.101327
0.104942
0.109042
0.113721
0.1191
0.12532
0.132577
0.141069
0.151132
0.162952
0.177252
0.194102
0.215031
0.240195
0.271717
0.312846
0.363584
0.438519
0.540842
0.688552
0.907267
1.08478
1.13881
1.12672
1.06311
0.921344
0.767656
0.0674894
0.0678164
0.0681701
0.0685473
0.0689474
0.0693693
0.0698118
0.0702743
0.070756
0.0712565
0.0717755
0.0723129
0.0728693
0.0734449
0.0740402
0.0746557
0.0752923
0.0759508
0.0766325
0.0773389
0.078072
0.0788343
0.0796287
0.0804588
0.0813287
0.0822434
0.0832086
0.0842309
0.0853183
0.0864797
0.0877256
0.0890681
0.0905212
0.0921009
0.0938261
0.0957184
0.0978034
0.100111
0.102676
0.105541
0.108755
0.112378
0.116485
0.121165
0.12653
0.132713
0.1399
0.148283
0.158178
0.1698
0.183776
0.20017
0.220504
0.244424
0.2752
0.312427
0.360394
0.425526
0.508423
0.637585
0.814694
1.04783
1.17408
1.18097
1.1554
1.06983
0.937917
0.804247
0.683077
0.0793869
0.0797376
0.0801025
0.0804811
0.0808743
0.0812823
0.0817051
0.0821425
0.0825948
0.083062
0.0835446
0.0840466
0.0845712
0.085118
0.0856868
0.0862782
0.0868932
0.0875332
0.0882001
0.0888971
0.0896278
0.0903963
0.0912073
0.0920662
0.0929794
0.0939543
0.0949993
0.0961242
0.0973402
0.0986602
0.100099
0.101674
0.103404
0.105312
0.107425
0.109774
0.112393
0.115326
0.118623
0.122344
0.12656
0.131363
0.136861
0.14319
0.150518
0.15905
0.169082
0.180875
0.194942
0.211536
0.231925
0.255738
0.286407
0.322348
0.370307
0.428992
0.507025
0.618876
0.763772
0.992216
1.20061
1.2578
1.24176
1.1741
1.04048
0.908721
0.800722
0.700459
0.613887
0.0944433
0.0947869
0.0951373
0.0954946
0.0958606
0.0962364
0.0966228
0.0970205
0.0974307
0.0978544
0.0982929
0.098748
0.0992222
0.0997177
0.100237
0.100782
0.101356
0.101961
0.102603
0.103291
0.104032
0.104828
0.105687
0.106618
0.107628
0.108729
0.109932
0.111251
0.112701
0.114302
0.116073
0.118038
0.120227
0.12267
0.125407
0.128482
0.131948
0.135869
0.140319
0.145389
0.151194
0.157873
0.165607
0.174599
0.185129
0.197529
0.212276
0.229753
0.250866
0.276023
0.30758
0.344307
0.393267
0.451034
0.529793
0.629987
0.766136
0.968991
1.21593
1.35009
1.34186
1.2907
1.1544
0.958932
0.829763
0.750609
0.683691
0.616056
0.562048
0.113537
0.113855
0.114176
0.114501
0.114833
0.115174
0.115524
0.115886
0.116261
0.116652
0.117062
0.117491
0.117944
0.118424
0.118935
0.119481
0.120065
0.120695
0.121374
0.122112
0.122916
0.123797
0.124775
0.12586
0.127066
0.128406
0.129897
0.131558
0.133412
0.135484
0.137807
0.140415
0.143351
0.146663
0.150411
0.154666
0.159511
0.165048
0.171393
0.178708
0.187177
0.197046
0.208614
0.222229
0.238418
0.257685
0.280833
0.308617
0.342263
0.383392
0.434364
0.49531
0.577017
0.678283
0.812756
0.998036
1.23965
1.44554
1.47173
1.43864
1.30885
1.05893
0.828076
0.713275
0.663642
0.631631
0.594894
0.553801
0.521752
0.138639
0.138939
0.139241
0.139548
0.139862
0.140188
0.140526
0.140881
0.141255
0.141651
0.142074
0.142526
0.143014
0.14354
0.144111
0.144734
0.145414
0.146161
0.146982
0.147889
0.148895
0.150015
0.151276
0.152693
0.154285
0.156074
0.158085
0.160349
0.162901
0.165783
0.169045
0.172743
0.176949
0.181744
0.187227
0.193522
0.200772
0.209167
0.218909
0.230329
0.243711
0.259581
0.278441
0.300876
0.328025
0.360271
0.399408
0.446594
0.502696
0.575716
0.658708
0.770635
0.910302
1.10094
1.32895
1.56143
1.62727
1.60607
1.47499
1.22295
0.86462
0.66219
0.58341
0.560543
0.555852
0.548141
0.530833
0.507198
0.487798
0.173951
0.174279
0.174612
0.174952
0.175306
0.175677
0.176069
0.176487
0.176937
0.177422
0.177948
0.178522
0.17915
0.179839
0.180598
0.181437
0.182367
0.1834
0.184549
0.185838
0.187287
0.188913
0.190739
0.192795
0.19511
0.197725
0.200682
0.204037
0.207849
0.212197
0.217167
0.222869
0.229434
0.237021
0.245824
0.256087
0.268094
0.282251
0.298926
0.318886
0.342469
0.370934
0.405015
0.445101
0.494955
0.551512
0.622052
0.704118
0.803641
0.939468
1.07291
1.29585
1.52658
1.73034
1.79583
1.78052
1.65761
1.42296
0.972475
0.670695
0.531621
0.47698
0.46711
0.475532
0.486077
0.488834
0.483245
0.470014
0.455473
0.229287
0.229756
0.230236
0.230733
0.231253
0.231805
0.232395
0.233031
0.233719
0.234467
0.235284
0.236177
0.237158
0.238237
0.239439
0.24078
0.242271
0.243929
0.24577
0.247818
0.250102
0.252657
0.255532
0.258782
0.262473
0.266682
0.271499
0.277032
0.283413
0.290797
0.299377
0.309387
0.321114
0.334914
0.351216
0.37058
0.393594
0.421228
0.453964
0.493773
0.540238
0.596515
0.663105
0.737851
0.835687
0.929724
1.06413
1.19778
1.40287
1.6174
1.84686
1.97692
1.97544
1.96487
1.81905
1.58819
1.09842
0.755269
0.565697
0.464136
0.419606
0.406974
0.411152
0.424917
0.438414
0.44521
0.445804
0.438414
0.425282
0.333246
0.334065
0.334916
0.335805
0.336739
0.33774
0.33882
0.339982
0.341236
0.342591
0.344058
0.345649
0.347381
0.349266
0.35133
0.353588
0.356075
0.358806
0.361821
0.36517
0.368921
0.373186
0.378155
0.383959
0.390752
0.398714
0.408065
0.419068
0.432042
0.447378
0.46555
0.487142
0.512841
0.54351
0.580109
0.623883
0.675889
0.738038
0.810175
0.896452
0.992597
1.10714
1.23313
1.36827
1.54318
1.6653
1.92342
2.14867
2.27223
2.26219
2.22228
2.16023
1.96672
1.64133
1.17754
0.908536
0.713722
0.585631
0.494146
0.432719
0.402772
0.394954
0.398704
0.408853
0.419413
0.426097
0.428208
0.423922
0.411584
0.580257
0.582097
0.583967
0.585875
0.587843
0.58989
0.592038
0.594299
0.596703
0.599254
0.601996
0.604927
0.608109
0.611519
0.61528
0.619291
0.623809
0.628607
0.634059
0.640382
0.648064
0.657828
0.669907
0.684687
0.702593
0.724115
0.749858
0.780513
0.816902
0.860013
0.910914
0.970884
1.04114
1.1233
1.21834
1.32778
1.45157
1.59102
1.74291
1.91052
2.08034
2.27076
2.43191
2.62847
2.74813
2.9089
2.8465
2.69823
2.50601
2.30291
1.9531
1.40453
1.05156
0.89302
0.860124
0.870126
0.880057
0.824615
0.709347
0.593307
0.510384
0.477549
0.465253
0.463122
0.464572
0.466114
0.465679
0.460099
0.445492
1.49642
1.50015
1.50391
1.50771
1.51162
1.51559
1.51976
1.52398
1.52859
1.53317
1.53835
1.54343
1.54945
1.5551
1.56248
1.56853
1.5784
1.58441
1.60065
1.62755
1.66496
1.71232
1.77017
1.83903
1.91895
2.01016
2.11317
2.22809
2.35521
2.49469
2.64602
2.80872
2.98146
3.16327
3.35099
3.54209
3.73093
3.91122
4.07772
4.21205
4.3239
4.35311
4.3062
4.22471
3.91072
3.52519
2.80572
2.17111
1.68073
1.41219
1.29027
1.24111
1.25291
1.37142
1.62464
1.79672
1.90033
1.91562
1.76834
1.51117
1.21495
1.01532
0.969318
0.925872
0.896287
0.874946
0.859668
0.843739
0.806872
8.60283
8.59685
8.59001
8.58204
8.57338
8.5631
8.55282
8.53957
8.52839
8.51093
8.49675
8.47665
8.45952
8.43657
8.41265
8.39024
8.36256
8.33697
8.30691
8.27712
8.24918
8.21113
8.17659
8.14674
8.11198
8.07252
8.02933
7.98189
7.93047
7.8746
7.81355
7.74682
7.67394
7.59442
7.50768
7.41311
7.31059
7.20053
7.0861
6.97405
6.87402
6.79717
6.74603
6.70727
6.66943
6.63092
6.59221
6.5535
6.51472
6.47694
6.43993
6.40342
6.36756
6.33263
6.29886
6.26661
6.23632
6.20842
6.18298
6.15955
6.1374
6.11656
6.09881
6.08139
6.06431
6.04566
6.02858
6.01275
5.99256
0.0293525
0.0293525
0.0293574
0.0293726
0.0293913
0.0294096
0.0294203
0.0294217
0.0294067
0.0294032
0.0293996
0.0294154
0.0294543
0.0294776
0.0294848
0.0294604
0.0294677
0.029484
0.029489
0.029462
0.0294493
0.0294633
0.0294507
0.0294557
0.029438
0.029424
0.0294435
0.0294445
0.0294394
0.0294501
0.0294411
0.029449
0.0294471
0.0294361
0.0294333
0.029408
0.0294039
0.0294041
0.0294037
0.0294156
0.0293852
0.0293859
0.0293717
0.0293475
0.0293377
0.0293257
0.029309
0.0292927
0.029302
0.0293206
0.0293421
0.0293551
0.0293581
0.0293417
0.0293427
0.029324
0.0293289
0.0293379
0.0293506
0.0296652
0.0296722
0.0296842
0.0297009
0.0297065
0.0297035
0.0297041
0.0296868
0.0296831
0.029688
0.0297012
0.0297316
0.0297481
0.029749
0.0297251
0.0297262
0.0297374
0.0297452
0.0297279
0.0297035
0.0297008
0.0297067
0.0296912
0.0296956
0.0296735
0.0296671
0.0296805
0.0296839
0.0296709
0.0296748
0.029674
0.0296796
0.029675
0.0296613
0.0296616
0.0296445
0.0296318
0.0296334
0.0296354
0.0296444
0.0296336
0.0296254
0.0296152
0.0295991
0.0295854
0.0295703
0.029563
0.0295389
0.0295428
0.0295582
0.0295798
0.029605
0.0296267
0.0296351
0.0296434
0.0296429
0.029643
0.0296475
0.0296512
0.0300434
0.0300469
0.0300458
0.0300313
0.0300293
0.0300256
0.0300229
0.030019
0.0300256
0.0300437
0.0300599
0.0300665
0.0300506
0.0300505
0.0300446
0.0300533
0.0300551
0.0300382
0.0300127
0.0299973
0.0300028
0.0299975
0.0299819
0.0299837
0.0299604
0.0299572
0.0299665
0.02997
0.0299513
0.0299504
0.0299552
0.0299579
0.0299515
0.0299371
0.0299372
0.0299249
0.0299115
0.0299097
0.0299127
0.0299202
0.0299183
0.0299138
0.0299063
0.0298966
0.0298889
0.029871
0.0298632
0.0298479
0.0298336
0.0298432
0.0298631
0.0298878
0.0299169
0.0299411
0.0299625
0.0299789
0.0299901
0.0300021
0.0300083
0.0304787
0.0304696
0.0304632
0.0304441
0.0304493
0.0304346
0.0304382
0.0304462
0.0304526
0.0304642
0.0304647
0.0304441
0.0304398
0.0304303
0.0304261
0.0304218
0.0304092
0.0303845
0.0303616
0.030362
0.0303634
0.0303443
0.0303304
0.0303281
0.0303038
0.0303037
0.030308
0.0303094
0.0302864
0.0302825
0.0302896
0.0302895
0.0302824
0.0302685
0.0302673
0.0302584
0.030246
0.0302424
0.0302429
0.0302518
0.0302511
0.0302486
0.0302445
0.0302378
0.0302304
0.0302215
0.0302133
0.0302083
0.0302008
0.0302032
0.0302146
0.0302322
0.0302566
0.0302834
0.0303104
0.0303364
0.0303583
0.0303805
0.0303949
0.0309645
0.030953
0.0309488
0.0309451
0.0309501
0.030958
0.0309564
0.0309551
0.0309392
0.0309348
0.0309111
0.0309019
0.0308912
0.0308766
0.0308665
0.0308519
0.0308287
0.0308042
0.0307887
0.0307912
0.0307812
0.0307586
0.0307451
0.030737
0.0307136
0.0307138
0.0307141
0.0307112
0.0306852
0.0306789
0.0306859
0.0306835
0.030676
0.0306625
0.03066
0.0306533
0.0306429
0.030637
0.0306359
0.0306476
0.0306549
0.0306517
0.0306469
0.0306493
0.0306393
0.0306309
0.0306273
0.0306333
0.0306343
0.0306366
0.0306434
0.0306551
0.0306724
0.0306945
0.0307193
0.0307462
0.0307718
0.0307996
0.0308198
0.0315656
0.0315703
0.0315652
0.0315438
0.0315385
0.0315292
0.0315204
0.0315056
0.0314881
0.0314641
0.031449
0.0314362
0.0314202
0.0314005
0.0313823
0.0313593
0.0313298
0.0313076
0.0312976
0.0313042
0.0312748
0.0312533
0.0312378
0.031224
0.0312018
0.0312004
0.0311957
0.0311883
0.0311599
0.0311514
0.0311569
0.0311525
0.0311442
0.031131
0.0311268
0.0311211
0.0311124
0.0311056
0.0311041
0.0311146
0.0311276
0.0311359
0.0311385
0.0311414
0.0311427
0.0311412
0.0311419
0.0311456
0.0311491
0.0311531
0.0311591
0.0311682
0.031181
0.031198
0.0312182
0.0312419
0.0312658
0.0312938
0.0313152
0.0322682
0.0322732
0.0322617
0.0322209
0.0322055
0.0321858
0.0321665
0.0321461
0.0321255
0.0321011
0.0320855
0.0320651
0.0320432
0.0320167
0.0319904
0.031962
0.0319336
0.0319195
0.0319193
0.0318943
0.0318661
0.0318428
0.0318238
0.0318047
0.031783
0.031778
0.0317684
0.0317558
0.0317254
0.0317145
0.0317175
0.031711
0.0317016
0.0316887
0.0316826
0.0316774
0.0316708
0.0316648
0.0316625
0.0316699
0.0316849
0.0317004
0.0317119
0.0317208
0.0317289
0.0317351
0.0317413
0.0317483
0.0317555
0.0317629
0.0317713
0.0317812
0.0317933
0.0318082
0.0318256
0.0318461
0.0318673
0.0318934
0.0319131
0.0331048
0.0330664
0.0330454
0.0330211
0.0329935
0.0329647
0.0329346
0.0329117
0.0328844
0.0328604
0.0328371
0.0328095
0.0327807
0.0327483
0.0327173
0.0326876
0.0326627
0.0326484
0.0326324
0.0326011
0.032572
0.0325449
0.0325213
0.0324972
0.0324749
0.0324648
0.03245
0.0324318
0.0323994
0.0323856
0.0323853
0.0323766
0.0323657
0.0323526
0.0323455
0.0323408
0.0323346
0.0323291
0.0323281
0.0323328
0.0323469
0.0323659
0.0323841
0.0324003
0.0324154
0.0324291
0.0324421
0.0324547
0.0324673
0.0324799
0.0324927
0.0325063
0.0325209
0.0325372
0.0325549
0.0325749
0.032595
0.0326202
0.0326381
0.0340409
0.034011
0.0339786
0.0339454
0.0339142
0.0338811
0.0338492
0.0338207
0.0337902
0.0337611
0.0337294
0.0336955
0.0336606
0.0336244
0.0335912
0.0335614
0.0335355
0.0335123
0.0334822
0.0334476
0.0334144
0.0333822
0.0333531
0.0333241
0.0332995
0.0332832
0.0332625
0.0332384
0.0332037
0.0331863
0.033182
0.0331709
0.0331582
0.0331444
0.0331362
0.0331313
0.0331264
0.0331222
0.0331225
0.0331255
0.0331374
0.0331569
0.0331792
0.0332014
0.0332232
0.0332442
0.0332644
0.0332841
0.0333034
0.0333225
0.0333415
0.0333607
0.0333804
0.0334007
0.0334217
0.0334441
0.033466
0.0334924
0.0335104
0.0351503
0.0351123
0.0350812
0.0350453
0.0350113
0.0349759
0.0349413
0.0349073
0.0348722
0.0348357
0.0347972
0.0347576
0.0347178
0.0346787
0.0346426
0.0346086
0.0345752
0.0345402
0.0345006
0.0344613
0.0344213
0.0343831
0.0343475
0.0343134
0.0342845
0.0342609
0.0342336
0.0342031
0.0341655
0.0341439
0.0341349
0.034121
0.0341061
0.0340911
0.0340815
0.0340774
0.0340743
0.0340727
0.0340725
0.034075
0.034085
0.0341034
0.0341272
0.0341535
0.0341809
0.0342084
0.0342357
0.0342628
0.0342895
0.034316
0.0343423
0.0343686
0.0343949
0.0344214
0.034448
0.0344752
0.0345012
0.0345313
0.0345514
0.0364827
0.0364388
0.0364071
0.0363686
0.0363313
0.0362924
0.0362533
0.0362131
0.0361714
0.0361278
0.0360829
0.0360375
0.0359922
0.0359479
0.0359048
0.0358617
0.0358175
0.0357716
0.0357241
0.0356768
0.0356287
0.0355833
0.0355403
0.0355
0.0354648
0.0354328
0.035398
0.0353607
0.0353192
0.0352925
0.0352781
0.0352609
0.0352433
0.0352266
0.0352153
0.0352107
0.0352085
0.0352092
0.0352108
0.0352144
0.0352239
0.0352413
0.0352654
0.0352941
0.0353255
0.0353585
0.0353923
0.0354265
0.0354608
0.0354951
0.0355294
0.0355635
0.0355976
0.0356315
0.0356651
0.0356989
0.0357309
0.0357664
0.0357906
0.0381007
0.0380501
0.0380145
0.0379714
0.0379289
0.0378841
0.0378382
0.0377904
0.0377407
0.0376892
0.0376366
0.0375834
0.0375299
0.0374764
0.0374225
0.0373676
0.0373117
0.0372551
0.0371976
0.0371397
0.0370824
0.0370282
0.0369766
0.0369284
0.0368848
0.0368432
0.0367999
0.0367549
0.0367084
0.0366757
0.036655
0.0366338
0.036613
0.0365941
0.0365809
0.0365751
0.0365731
0.0365757
0.03658
0.0365864
0.0365973
0.036615
0.0366396
0.03667
0.0367047
0.0367422
0.0367818
0.0368227
0.0368644
0.0369066
0.036949
0.0369916
0.037034
0.0370762
0.0371179
0.0371592
0.0371984
0.0372405
0.0372699
0.0400759
0.0400158
0.0399731
0.0399224
0.0398716
0.0398182
0.0397629
0.0397052
0.0396454
0.0395836
0.0395205
0.0394561
0.0393907
0.0393244
0.039257
0.0391886
0.0391196
0.03905
0.0389797
0.0389094
0.0388414
0.0387762
0.0387142
0.038656
0.0386017
0.038549
0.0384958
0.0384422
0.0383891
0.0383491
0.0383212
0.0382953
0.0382708
0.0382491
0.0382337
0.0382262
0.0382241
0.0382283
0.0382358
0.0382461
0.0382605
0.0382807
0.0383075
0.0383404
0.0383786
0.0384208
0.0384661
0.0385137
0.0385628
0.0386131
0.0386641
0.0387155
0.0387669
0.038818
0.0388684
0.0389181
0.0389655
0.0390149
0.0390503
0.0425022
0.0424286
0.0423743
0.0423121
0.0422491
0.0421832
0.0421149
0.0420438
0.0419703
0.0418946
0.0418168
0.0417373
0.0416563
0.0415738
0.0414901
0.0414054
0.0413201
0.0412345
0.0411486
0.041064
0.0409825
0.0409038
0.0408287
0.0407576
0.0406902
0.0406245
0.0405596
0.0404957
0.0404343
0.0403858
0.0403496
0.0403179
0.0402891
0.0402643
0.0402465
0.0402373
0.0402349
0.0402407
0.0402519
0.0402672
0.0402871
0.0403125
0.0403441
0.040382
0.0404255
0.0404739
0.0405262
0.0405816
0.0406394
0.0406989
0.0407596
0.0408209
0.0408824
0.0409436
0.0410039
0.041063
0.0411194
0.0411769
0.0412193
0.0455112
0.0454181
0.045346
0.0452663
0.0451852
0.0451012
0.0450145
0.0449247
0.0448322
0.0447371
0.0446396
0.04454
0.0444385
0.0443354
0.044231
0.0441257
0.0440201
0.0439146
0.0438099
0.0437075
0.0436084
0.0435125
0.0434208
0.0433332
0.0432495
0.0431684
0.0430894
0.0430127
0.0429409
0.0428821
0.0428364
0.0427978
0.0427643
0.042736
0.0427158
0.0427052
0.0427028
0.042711
0.0427269
0.042749
0.0427768
0.0428107
0.0428511
0.042898
0.0429509
0.0430092
0.0430722
0.043139
0.0432087
0.0432808
0.0433544
0.0434288
0.0435035
0.0435777
0.0436506
0.0437217
0.0437896
0.043857
0.0439086
0.049297
0.0491754
0.0490754
0.0489692
0.0488612
0.0487505
0.0486369
0.0485203
0.0484007
0.0482784
0.0481535
0.0480263
0.0478972
0.0477665
0.0476348
0.0475026
0.0473707
0.0472396
0.0471105
0.0469843
0.0468619
0.0467435
0.0466299
0.0465211
0.0464169
0.0463166
0.0462202
0.0461273
0.0460424
0.045971
0.0459143
0.0458679
0.0458292
0.0457978
0.0457759
0.0457646
0.045764
0.0457766
0.0457999
0.0458319
0.045872
0.0459196
0.0459749
0.0460375
0.0461071
0.046183
0.0462644
0.0463506
0.0464405
0.0465333
0.046628
0.0467239
0.0468199
0.046915
0.0470083
0.0470985
0.0471845
0.0472678
0.0473353
0.054154
0.053992
0.0538501
0.0537034
0.0535549
0.053404
0.0532503
0.0530937
0.0529342
0.0527718
0.0526069
0.0524397
0.0522709
0.0521008
0.0519303
0.0517601
0.051591
0.051424
0.0512602
0.0511003
0.0509453
0.0507956
0.050652
0.0505145
0.0503831
0.0502576
0.0501377
0.0500244
0.0499223
0.0498356
0.049766
0.0497108
0.0496673
0.0496342
0.0496131
0.0496034
0.0496084
0.0496308
0.0496678
0.0497177
0.0497793
0.0498519
0.0499349
0.050028
0.0501305
0.0502415
0.0503601
0.0504852
0.0506155
0.0507497
0.0508864
0.0510242
0.0511617
0.0512972
0.0514291
0.0515556
0.0516752
0.051788
0.0518873
0.0604752
0.0602644
0.0600675
0.059869
0.059669
0.0594672
0.0592624
0.059054
0.0588416
0.0586251
0.0584043
0.0581794
0.0579517
0.0577226
0.057493
0.0572642
0.0570371
0.0568132
0.0565937
0.05638
0.056173
0.0559738
0.0557832
0.0556016
0.0554293
0.0552662
0.0551111
0.0549693
0.054844
0.0547383
0.0546546
0.054592
0.0545478
0.0545199
0.0545079
0.0545111
0.0545354
0.0545851
0.0546567
0.0547484
0.0548585
0.0549858
0.0551293
0.055288
0.0554605