/*--------------------------------*- C++ -*----------------------------------*\
| =========                 |                                                 |
| \\      /  F ield         | OpenFOAM: The Open Source CFD Toolbox           |
|  \\    /   O peration     | Version:  2312                                  |
|   \\  /    A nd           | Website:  www.openfoam.com                      |
|    \\/     M anipulation  |                                                 |
\*---------------------------------------------------------------------------*/
FoamFile
{
    version     2.0;
    format      ascii;
    arch        "LSB;label=32;scalar=64";
    class       volScalarField;
    location    "900";
    object      p;
}
// * * * * * * * * * * * * * * * * * * * * * * * * * * * * * * * * * * * * * //

dimensions      [0 2 -2 0 0 0 0];

internalField   nonuniform List<scalar> 
76025
(
0.0002146
0.000208315
0.000201939
0.000195576
0.000189074
0.000182719
0.000175844
0.000169188
0.000162378
0.000155586
0.000148668
0.000141685
0.00013464
0.00012755
0.0001205
0.000113174
0.00010613
9.87822e-05
9.15592e-05
8.42785e-05
7.70847e-05
6.97309e-05
6.23539e-05
5.50989e-05
4.77941e-05
4.05159e-05
3.33205e-05
2.58223e-05
1.86646e-05
1.12661e-05
4.33808e-06
-3.01115e-06
-1.01154e-05
-1.74763e-05
-2.46057e-05
-3.17367e-05
-3.86316e-05
-4.56827e-05
-5.29014e-05
-5.99235e-05
-6.67872e-05
-7.3622e-05
-8.06191e-05
-8.7807e-05
-9.45884e-05
-0.000101439
-0.000108287
-0.000115531
-0.000122395
-0.000129362
-0.000136387
-0.000143348
-0.000150523
-0.000157948
-0.000165396
-0.000172991
-0.000181055
-0.00018949
-0.000198257
-0.00020708
-0.000216499
-0.000227552
-0.000239372
-0.000251848
-0.000265801
-0.000282316
-0.000299595
-0.000318773
-0.000343447
0.000217321
0.00021078
0.000204183
0.000197555
0.000190826
0.000183972
0.000177056
0.000170091
0.000163031
0.000155894
0.000148678
0.000141424
0.000134134
0.000126774
0.000119389
0.000111984
0.000104536
9.70881e-05
8.95857e-05
8.21363e-05
7.46164e-05
6.71239e-05
5.96333e-05
5.21627e-05
4.46918e-05
3.72159e-05
2.97528e-05
2.23587e-05
1.49976e-05
7.60618e-06
3.07329e-07
-7.10762e-06
-1.44386e-05
-2.16987e-05
-2.89611e-05
-3.61398e-05
-4.33221e-05
-5.04355e-05
-5.7489e-05
-6.45449e-05
-7.15093e-05
-7.84806e-05
-8.53997e-05
-9.22792e-05
-9.91432e-05
-0.000106001
-0.000112875
-0.000119762
-0.000126629
-0.000133528
-0.000140467
-0.000147417
-0.000154453
-0.000161612
-0.000168877
-0.000176348
-0.00018412
-0.000192155
-0.000200507
-0.000209189
-0.000218443
-0.000228759
-0.000239928
-0.000251976
-0.000265377
-0.000280598
-0.000297367
-0.000316337
-0.000339974
0.000220454
0.000213613
0.0002067
0.00019975
0.000192703
0.000185573
0.000178366
0.000171078
0.000163716
0.000156281
0.000148791
0.00014126
0.000133685
0.00012607
0.000118433
0.00011076
0.000103069
9.53622e-05
8.76463e-05
7.99254e-05
7.22088e-05
6.45125e-05
5.68239e-05
4.91484e-05
4.14901e-05
3.385e-05
2.62553e-05
1.86979e-05
1.11588e-05
3.64496e-06
-3.83871e-06
-1.12963e-05
-1.87022e-05
-2.60615e-05
-3.33835e-05
-4.06414e-05
-4.78411e-05
-5.4968e-05
-6.20534e-05
-6.91107e-05
-7.61066e-05
-8.30504e-05
-8.99436e-05
-9.68176e-05
-0.000103673
-0.000110493
-0.000117289
-0.000124084
-0.000130881
-0.00013767
-0.000144468
-0.000151287
-0.000158157
-0.000165118
-0.000172191
-0.000179418
-0.000186851
-0.000194533
-0.00020251
-0.00021085
-0.000219698
-0.000229277
-0.000239661
-0.00025093
-0.000263369
-0.000277324
-0.000293004
-0.000310836
-0.000333087
0.000223482
0.000216302
0.000209048
0.000201768
0.000194409
0.000186955
0.000179416
0.000171803
0.00016413
0.000156398
0.000148615
0.000140788
0.000132921
0.000125022
0.000117099
0.000109155
0.000101201
9.32399e-05
8.52798e-05
7.73259e-05
6.93867e-05
6.14658e-05
5.35655e-05
4.56915e-05
3.78495e-05
3.00426e-05
2.22766e-05
1.45507e-05
6.86602e-06
-7.74514e-07
-8.36902e-06
-1.59182e-05
-2.34226e-05
-3.08678e-05
-3.82412e-05
-4.55407e-05
-5.27709e-05
-5.99372e-05
-6.70473e-05
-7.41009e-05
-8.1091e-05
-8.80201e-05
-9.48975e-05
-0.000101734
-0.000108528
-0.000115279
-0.000121998
-0.000128697
-0.000135379
-0.000142042
-0.000148701
-0.00015537
-0.000162067
-0.00016882
-0.000175654
-0.000182599
-0.000189698
-0.000196994
-0.000204529
-0.000212367
-0.000220608
-0.000229398
-0.000238845
-0.000249058
-0.000260264
-0.000272767
-0.000286924
-0.000303075
-0.000323575
0.000226254
0.000218722
0.000211119
0.000203497
0.000195799
0.000188005
0.000180129
0.000172187
0.000164188
0.000156136
0.000148037
0.000139898
0.000131728
0.000123533
0.000115322
0.000107101
9.88772e-05
9.06574e-05
8.2448e-05
7.42559e-05
6.60871e-05
5.79471e-05
4.98411e-05
4.17741e-05
3.37506e-05
2.57743e-05
1.7849e-05
9.97789e-06
2.16295e-06
-5.59551e-06
-1.32968e-05
-2.09414e-05
-2.85255e-05
-3.60307e-05
-4.34485e-05
-5.07844e-05
-5.80446e-05
-6.52321e-05
-7.23476e-05
-7.93917e-05
-8.63649e-05
-9.32697e-05
-0.000100112
-0.000106896
-0.000113627
-0.000120308
-0.000126943
-0.000133541
-0.000140104
-0.000146637
-0.00015315
-0.000159653
-0.00016616
-0.000172691
-0.000179265
-0.000185906
-0.000192642
-0.000199503
-0.000206521
-0.000213742
-0.000221235
-0.000229096
-0.000237424
-0.000246345
-0.000256064
-0.000266866
-0.000279164
-0.000293265
-0.000311754
0.000228812
0.000220911
0.000212941
0.000204957
0.0001969
0.000188751
0.000180523
0.000172233
0.00016389
0.000155501
0.000147072
0.00013861
0.000130125
0.000121624
0.000113116
0.000104606
9.61044e-05
8.7617e-05
7.91514e-05
7.07146e-05
6.2313e-05
5.39528e-05
4.56397e-05
3.73785e-05
2.9174e-05
2.10303e-05
1.29509e-05
4.93897e-06
-3.00397e-06
-1.08769e-05
-1.8679e-05
-2.64099e-05
-3.4063e-05
-4.16204e-05
-4.90786e-05
-5.64443e-05
-6.37238e-05
-7.09185e-05
-7.80286e-05
-8.50557e-05
-9.20018e-05
-9.887e-05
-0.000105665
-0.00011239
-0.000119051
-0.00012565
-0.000132192
-0.000138681
-0.000145122
-0.000151519
-0.000157878
-0.000164207
-0.000170514
-0.000176811
-0.000183108
-0.000189417
-0.00019575
-0.000202119
-0.000208538
-0.000215029
-0.000221632
-0.000228409
-0.000235444
-0.00024286
-0.000250854
-0.000259706
-0.000269867
-0.000281685
-0.000298113
0.000231105
0.000222814
0.000214457
0.000206091
0.000197656
0.000189131
0.000180531
0.000171875
0.000163172
0.000154429
0.000145654
0.000136855
0.000128041
0.00011922
0.000110401
0.000101593
9.28037e-05
8.40409e-05
7.53126e-05
6.66261e-05
5.79883e-05
4.94058e-05
4.08845e-05
3.24298e-05
2.40464e-05
1.57386e-05
7.5098e-06
-6.37137e-07
-8.70031e-06
-1.66785e-05
-2.45709e-05
-3.23775e-05
-4.00879e-05
-4.76866e-05
-5.51736e-05
-6.25572e-05
-6.98429e-05
-7.7032e-05
-8.4125e-05
-9.11238e-05
-9.80316e-05
-0.000104852
-0.000111589
-0.000118248
-0.000124831
-0.000131342
-0.000137785
-0.000144163
-0.000150481
-0.00015674
-0.000162944
-0.000169095
-0.000175195
-0.000181246
-0.000187246
-0.000193193
-0.000199079
-0.000204895
-0.000210634
-0.000216292
-0.00022188
-0.000227432
-0.000233011
-0.000238729
-0.000244776
-0.000251439
-0.000259222
-0.000268605
-0.000282723
0.000233065
0.000224361
0.000215593
0.000206825
0.00019799
0.000189069
0.000180079
0.000171037
0.000161955
0.000152842
0.000143704
0.000134552
0.000125394
0.00011624
0.0001071
9.79833e-05
8.88979e-05
7.98528e-05
7.08563e-05
6.19163e-05
5.30401e-05
4.42347e-05
3.55063e-05
2.68606e-05
1.83024e-05
9.83598e-06
1.46477e-06
-6.8086e-06
-1.49823e-05
-2.30552e-05
-3.10271e-05
-3.88972e-05
-4.66513e-05
-5.42781e-05
-6.17816e-05
-6.91706e-05
-7.64498e-05
-8.36207e-05
-9.06842e-05
-9.76434e-05
-0.000104502
-0.000111265
-0.000117937
-0.00012452
-0.000131021
-0.00013744
-0.000143783
-0.000150051
-0.000156246
-0.000162368
-0.000168415
-0.000174385
-0.000180271
-0.000186064
-0.000191748
-0.000197302
-0.000202699
-0.000207909
-0.000212898
-0.000217639
-0.000222113
-0.000226324
-0.000230308
-0.000234155
-0.000238047
-0.000242282
-0.000247468
-0.000254286
-0.000265545
0.000234625
0.000225484
0.000216283
0.000207087
0.000197831
0.000188493
0.00017909
0.000169642
0.000160163
0.00015066
0.000141143
0.000131621
0.000122105
0.000112605
0.000103133
9.36969e-05
8.43071e-05
7.49729e-05
6.57032e-05
5.65063e-05
4.73903e-05
3.83623e-05
2.94289e-05
2.05958e-05
1.18682e-05
3.25002e-06
-5.25528e-06
-1.36453e-05
-2.19186e-05
-3.00745e-05
-3.81134e-05
-4.6032e-05
-5.38147e-05
-6.14554e-05
-6.89616e-05
-7.63419e-05
-8.36007e-05
-9.07396e-05
-9.7761e-05
-0.000104669
-0.000111469
-0.000118166
-0.000124765
-0.000131269
-0.000137683
-0.00014401
-0.000150252
-0.00015641
-0.000162483
-0.000168468
-0.000174358
-0.000180143
-0.000185808
-0.000191331
-0.000196679
-0.000201817
-0.000206695
-0.000211262
-0.000215459
-0.000219231
-0.000222528
-0.000225318
-0.000227602
-0.000229437
-0.000230985
-0.000232556
-0.000234914
-0.000238859
-0.000247353
0.000235706
0.000226102
0.000216441
0.000206794
0.000197092
0.000187312
0.000177474
0.0001676
0.000157702
0.00014779
0.000137875
0.000127966
0.000118077
0.000108219
9.84013e-05
8.86361e-05
7.89336e-05
6.93039e-05
5.97564e-05
5.03003e-05
4.09439e-05
3.16948e-05
2.25598e-05
1.35448e-05
4.6548e-06
-4.10621e-06
-1.27352e-05
-2.12301e-05
-2.959e-05
-3.78146e-05
-4.59053e-05
-5.38552e-05
-6.16495e-05
-6.92885e-05
-7.67821e-05
-8.41385e-05
-9.13619e-05
-9.84549e-05
-0.000105422
-0.000112268
-0.000119
-0.000125623
-0.000132143
-0.000138563
-0.000144888
-0.000151119
-0.000157259
-0.000163305
-0.000169256
-0.000175102
-0.000180833
-0.00018643
-0.000191867
-0.00019711
-0.000202114
-0.000206824
-0.000211175
-0.000215091
-0.000218491
-0.000221285
-0.00022339
-0.000224729
-0.000225258
-0.000224992
-0.000224065
-0.000222805
-0.000222114
-0.000222547
-0.000227451
0.000236213
0.000226118
0.00021597
0.000205844
0.00019567
0.000185423
0.000175126
0.000164801
0.000154462
0.00014412
0.000133787
0.000123475
0.000113197
0.000102964
9.279e-05
8.26854e-05
7.26621e-05
6.27308e-05
5.2902e-05
4.31852e-05
3.35894e-05
2.41223e-05
1.4791e-05
5.60137e-06
-3.44171e-06
-1.23345e-05
-2.10744e-05
-2.966e-05
-3.8091e-05
-4.63682e-05
-5.4493e-05
-6.24543e-05
-7.02423e-05
-7.78628e-05
-8.53273e-05
-9.26436e-05
-9.9816e-05
-0.000106849
-0.000113749
-0.000120522
-0.000127176
-0.000133716
-0.000140148
-0.000146476
-0.000152704
-0.000158834
-0.000164866
-0.000170797
-0.00017662
-0.000182325
-0.000187892
-0.000193296
-0.000198503
-0.000203467
-0.000208132
-0.000212428
-0.000216274
-0.000219572
-0.000222212
-0.000224074
-0.000225028
-0.000224951
-0.000223744
-0.00022138
-0.000217965
-0.000213878
-0.000210099
-0.00020721
-0.000211233
0.00023603
0.000225415
0.00021475
0.000204117
0.000193442
0.000182702
0.000171918
0.000161117
0.000150313
0.00013952
0.000128748
0.000118013
0.000107328
9.67069e-05
8.61626e-05
7.57082e-05
6.5356e-05
5.51178e-05
4.50047e-05
3.5027e-05
2.51938e-05
1.55134e-05
5.99274e-06
-3.36222e-06
-1.25469e-05
-2.15582e-05
-3.03941e-05
-3.9054e-05
-4.75387e-05
-5.58506e-05
-6.39886e-05
-7.19401e-05
-7.97026e-05
-8.72865e-05
-9.47034e-05
-0.000101961
-0.000109065
-0.000116021
-0.000122837
-0.000129521
-0.000136081
-0.000142523
-0.000148853
-0.000155077
-0.000161196
-0.000167214
-0.000173128
-0.000178934
-0.000184622
-0.000190176
-0.000195574
-0.000200784
-0.000205765
-0.000210466
-0.00021482
-0.000218746
-0.000222146
-0.000224903
-0.000226877
-0.000227911
-0.000227831
-0.000226457
-0.000223637
-0.000219301
-0.00021356
-0.00020688
-0.000200402
-0.000195131
-0.000196056
0.000235019
0.000223853
0.000212639
0.000201466
0.00019026
0.000178997
0.000167699
0.000156394
0.000145099
0.000133829
0.000122597
0.000111418
0.000100308
8.92816e-05
7.83538e-05
6.75386e-05
5.68493e-05
4.62989e-05
3.5899e-05
2.56606e-05
1.55931e-05
5.70514e-06
-3.99636e-06
-1.35057e-05
-2.28189e-05
-3.19334e-05
-4.08482e-05
-4.95639e-05
-5.80829e-05
-6.6409e-05
-7.45362e-05
-8.24542e-05
-9.01686e-05
-9.76926e-05
-0.000105038
-0.000112212
-0.000119221
-0.000126076
-0.000132784
-0.000139355
-0.000145798
-0.00015212
-0.000158327
-0.000164426
-0.000170419
-0.000176306
-0.000182086
-0.00018775
-0.000193287
-0.000198681
-0.000203904
-0.000208926
-0.0002137
-0.000218172
-0.000222269
-0.000225901
-0.000228956
-0.000231297
-0.000232759
-0.000233145
-0.000232237
-0.000229801
-0.000225632
-0.000219618
-0.000211889
-0.000202981
-0.000194461
-0.00018835
-0.000190085
0.000233009
0.000221257
0.000209459
0.000197713
0.000185941
0.000174122
0.000162278
0.000150439
0.000138624
0.00012685
0.000115132
0.000103486
9.19303e-05
8.04812e-05
6.91548e-05
5.79666e-05
4.69311e-05
3.60621e-05
2.53723e-05
1.48731e-05
4.57453e-06
-5.51476e-06
-1.53878e-05
-2.50394e-05
-3.4466e-05
-4.3666e-05
-5.26397e-05
-6.13891e-05
-6.99184e-05
-7.82295e-05
-8.63125e-05
-9.41647e-05
-0.000101798
-0.000109228
-0.000116465
-0.000123518
-0.000130398
-0.000137116
-0.000143682
-0.000150108
-0.000156402
-0.000162574
-0.00016863
-0.000174575
-0.000180412
-0.00018614
-0.000191756
-0.000197254
-0.000202623
-0.000207844
-0.000212894
-0.000217741
-0.000222341
-0.000226637
-0.000230555
-0.000234001
-0.000236853
-0.000238957
-0.000240127
-0.000240136
-0.00023873
-0.000235627
-0.00023057
-0.000223416
-0.000214274
-0.000203674
-0.000193441
-0.000184895
-0.000180832
0.00022978
0.000217404
0.000204983
0.000192624
0.000180249
0.000167835
0.000155409
0.000143
0.000130632
0.000118322
0.000106088
9.39484e-05
8.19226e-05
7.0029e-05
5.82854e-05
4.67086e-05
3.53148e-05
2.41189e-05
1.31345e-05
2.37407e-06
-8.1519e-06
-1.84345e-05
-2.84667e-05
-3.82435e-05
-4.77621e-05
-5.70218e-05
-6.6024e-05
-7.47726e-05
-8.3273e-05
-9.15215e-05
-9.95109e-05
-0.000107249
-0.000114754
-0.000122039
-0.000129118
-0.000136003
-0.000142707
-0.000149242
-0.000155622
-0.000161858
-0.000167961
-0.000173939
-0.000179799
-0.000185547
-0.000191184
-0.000196713
-0.000202131
-0.000207434
-0.000212612
-0.000217652
-0.000222533
-0.000227227
-0.000231695
-0.000235885
-0.000239724
-0.00024312
-0.000245949
-0.000248053
-0.000249233
-0.000249252
-0.000247835
-0.000244661
-0.000239422
-0.000231933
-0.000222214
-0.000210908
-0.000199702
-0.000189232
-0.000179138
0.000225033
0.000211991
0.000198899
0.000185878
0.000172852
0.000159799
0.000146744
0.000133723
0.00012076
0.000107874
9.50872e-05
8.24198e-05
6.98933e-05
5.75284e-05
4.5345e-05
3.33621e-05
2.15976e-05
1.00682e-05
-1.21122e-06
-1.22271e-05
-2.2968e-05
-3.34246e-05
-4.35898e-05
-5.34591e-05
-6.30302e-05
-7.23039e-05
-8.12835e-05
-8.99753e-05
-9.83823e-05
-0.000106499
-0.00011433
-0.000121891
-0.000129202
-0.000136278
-0.000143135
-0.000149787
-0.000156251
-0.000162541
-0.000168672
-0.000174657
-0.000180506
-0.000186229
-0.000191834
-0.000197328
-0.000202715
-0.000207998
-0.000213178
-0.000218253
-0.000223219
-0.000228067
-0.000232785
-0.00023735
-0.000241734
-0.000245892
-0.000249766
-0.000253272
-0.000256298
-0.000258701
-0.000260292
-0.000260844
-0.000260079
-0.000257623
-0.000253092
-0.000246144
-0.000236631
-0.000225279
-0.00021347
-0.000202274
-0.000193834
0.000218302
0.000204539
0.000190714
0.00017697
0.000163234
0.000149482
0.000135746
0.000122059
0.000108452
9.49472e-05
8.15682e-05
6.83393e-05
5.52846e-05
4.24277e-05
2.97911e-05
1.73962e-05
5.26309e-06
-6.58979e-06
-1.81458e-05
-2.93904e-05
-4.03115e-05
-5.08994e-05
-6.11475e-05
-7.1052e-05
-8.06122e-05
-8.98307e-05
-9.87134e-05
-0.000107268
-0.000115494
-0.000123394
-0.000130982
-0.00013828
-0.000145308
-0.000152085
-0.000158629
-0.000164959
-0.000171094
-0.000177052
-0.00018285
-0.000188501
-0.000194019
-0.000199415
-0.000204697
-0.000209875
-0.000214954
-0.000219941
-0.000224839
-0.000229651
-0.000234379
-0.000239022
-0.000243575
-0.00024803
-0.000252371
-0.000256574
-0.000260599
-0.000264393
-0.000267878
-0.000270949
-0.000273453
-0.000275191
-0.000275857
-0.000274976
-0.000271972
-0.000266186
-0.000257378
-0.000246262
-0.000233976
-0.000221935
-0.000211049
0.000208786
0.000194238
0.000179616
0.000165088
0.000150585
0.000136087
0.000121623
0.000107234
9.29505e-05
7.8801e-05
6.4812e-05
5.10108e-05
3.74248e-05
2.40805e-05
1.10033e-05
-1.78293e-06
-1.4256e-05
-2.63955e-05
-3.81833e-05
-4.96039e-05
-6.06445e-05
-7.12954e-05
-8.15503e-05
-9.14065e-05
-0.000100865
-0.000109931
-0.000118613
-0.000126918
-0.000134847
-0.000142413
-0.00014964
-0.000156552
-0.000163174
-0.000169528
-0.000175639
-0.000181531
-0.000187228
-0.000192749
-0.000198115
-0.000203343
-0.000208445
-0.000213436
-0.000218324
-0.00022312
-0.000227833
-0.000232469
-0.000237036
-0.000241543
-0.000245998
-0.000250408
-0.000254783
-0.000259131
-0.000263458
-0.000267768
-0.000272065
-0.000276346
-0.000280592
-0.000284765
-0.000288754
-0.000292349
-0.000295121
-0.000296372
-0.000295191
-0.000290835
-0.000283124
-0.000272542
-0.000260098
-0.000247258
-0.000234688
0.000195399
0.00018002
0.000164559
0.000149219
0.000133932
0.000118675
0.00010348
8.83882e-05
7.3436e-05
5.86542e-05
4.4073e-05
2.97233e-05
1.5636e-05
1.84109e-06
-1.16331e-05
-2.47599e-05
-3.75144e-05
-4.98741e-05
-6.18191e-05
-7.33325e-05
-8.44005e-05
-9.50133e-05
-0.000105165
-0.000114854
-0.000124084
-0.000132863
-0.0001412
-0.000149104
-0.000156583
-0.000163663
-0.000170374
-0.000176745
-0.000182808
-0.000188592
-0.000194131
-0.000199453
-0.000204587
-0.000209559
-0.00021439
-0.000219098
-0.0002237
-0.000228207
-0.00023263
-0.000236978
-0.000241262
-0.000245489
-0.00024967
-0.000253818
-0.000257948
-0.000262081
-0.000266241
-0.000270462
-0.000274784
-0.000279265
-0.000283968
-0.000288967
-0.000294307
-0.000300004
-0.000305927
-0.000311716
-0.000316662
-0.000319833
-0.000320372
-0.000317586
-0.000310988
-0.000300863
-0.000288494
-0.000275536
-0.000262737
0.000177361
0.000161146
0.000144835
0.000128684
0.000112622
9.66218e-05
8.07156e-05
6.49484e-05
4.93596e-05
3.39838e-05
1.88551e-05
4.00808e-06
-1.05228e-05
-2.47046e-05
-3.85055e-05
-5.18958e-05
-6.48477e-05
-7.7336e-05
-8.93386e-05
-0.000100836
-0.000111815
-0.000122263
-0.000132175
-0.000141553
-0.0001504
-0.00015873
-0.000166552
-0.000173879
-0.000180732
-0.000187148
-0.000193163
-0.000198817
-0.000204149
-0.000209201
-0.000214012
-0.000218622
-0.000223063
-0.000227366
-0.000231556
-0.000235652
-0.000239668
-0.000243616
-0.000247504
-0.000251341
-0.000255134
-0.000258891
-0.000262625
-0.000266349
-0.000270088
-0.000273877
-0.000277768
-0.000281838
-0.000286178
-0.000290921
-0.000296193
-0.000302124
-0.00030877
-0.000316083
-0.000323757
-0.000331154
-0.000337516
-0.000342147
-0.000344144
-0.000342425
-0.000336493
-0.000326858
-0.000315176
-0.000303405
-0.000292607
0.000154988
0.000137938
0.000120771
0.000103806
8.6967e-05
7.02234e-05
5.36089e-05
3.71723e-05
2.09569e-05
5.00183e-06
-1.06547e-05
-2.5974e-05
-4.09177e-05
-5.54487e-05
-6.95312e-05
-8.31313e-05
-9.62174e-05
-0.000108761
-0.000120736
-0.000132122
-0.000142902
-0.000153065
-0.000162606
-0.000171527
-0.000179836
-0.000187547
-0.000194672
-0.000201234
-0.000207269
-0.000212823
-0.000217944
-0.000222684
-0.000227096
-0.000231234
-0.00023515
-0.000238892
-0.000242502
-0.000246015
-0.000249458
-0.000252849
-0.0002562
-0.000259517
-0.000262804
-0.000266064
-0.000269304
-0.000272529
-0.00027575
-0.000278991
-0.000282287
-0.000285701
-0.000289323
-0.000293282
-0.000297714
-0.000302802
-0.000308679
-0.000315415
-0.000322981
-0.000331127
-0.000339379
-0.000347344
-0.000354549
-0.000360025
-0.000362573
-0.000361235
-0.000355679
-0.000346858
-0.000336849
-0.000327961
-0.000321553
0.000129852
0.000111883
9.37863e-05
7.59298e-05
5.82349e-05
4.06688e-05
2.3269e-05
6.08877e-06
-1.08236e-05
-2.74243e-05
-4.36699e-05
-5.95164e-05
-7.492e-05
-8.98379e-05
-0.000104229
-0.000118054
-0.000131276
-0.000143861
-0.00015578
-0.000167007
-0.000177524
-0.000187317
-0.000196382
-0.000204722
-0.000212348
-0.000219275
-0.000225522
-0.000231126
-0.000236138
-0.000240616
-0.000244625
-0.000248233
-0.000251512
-0.000254534
-0.000257368
-0.000260075
-0.000262707
-0.000265306
-0.000267898
-0.000270498
-0.000273109
-0.000275724
-0.000278337
-0.000280945
-0.000283555
-0.00028618
-0.000288849
-0.000291604
-0.000294509
-0.00029765
-0.000301137
-0.000305089
-0.000309607
-0.000314801
-0.000320708
-0.000327299
-0.000334498
-0.000342197
-0.000350273
-0.000358355
-0.000365623
-0.000371115
-0.000373634
-0.000372127
-0.000366865
-0.000359449
-0.000352093
-0.000347072
-0.000345753
0.00010334
8.42922e-05
6.51085e-05
4.6198e-05
2.74817e-05
8.92765e-06
-9.42194e-06
-2.75081e-05
-4.52759e-05
-6.26744e-05
-7.96534e-05
-9.61619e-05
-0.00011215
-0.000127567
-0.000142365
-0.000156499
-0.000169924
-0.0001826
-0.000194492
-0.000205567
-0.000215801
-0.000225177
-0.000233689
-0.00024134
-0.00024814
-0.000254108
-0.000259277
-0.000263699
-0.000267441
-0.00027058
-0.000273203
-0.000275404
-0.000277282
-0.000278935
-0.000280456
-0.00028193
-0.000283422
-0.00028498
-0.00028663
-0.000288373
-0.000290197
-0.000292078
-0.000293994
-0.000295936
-0.000297917
-0.00029997
-0.000302146
-0.000304503
-0.000307114
-0.000310052
-0.000313377
-0.000317073
-0.000321136
-0.000325541
-0.000330283
-0.000335526
-0.000341562
-0.00034849
-0.000356042
-0.000363783
-0.000370991
-0.000376062
-0.00037764
-0.00037564
-0.000371108
-0.000365624
-0.000361352
-0.000360347
-0.000363623
7.79669e-05
5.7497e-05
3.69467e-05
1.67066e-05
-3.30549e-06
-2.31175e-05
-4.26812e-05
-6.19308e-05
-8.08037e-05
-9.92417e-05
-0.000117187
-0.000134581
-0.000151364
-0.00016748
-0.00018287
-0.00019748
-0.000211256
-0.000224149
-0.000236112
-0.000247106
-0.000257096
-0.000266059
-0.000273986
-0.000280881
-0.000286754
-0.00029163
-0.000295555
-0.000298596
-0.000300838
-0.000302382
-0.000303343
-0.00030385
-0.000304037
-0.000304041
-0.000303991
-0.000304
-0.000304162
-0.000304539
-0.000305164
-0.000306039
-0.000307146
-0.000308452
-0.000309931
-0.000311559
-0.000313321
-0.000315192
-0.000317123
-0.000319053
-0.000320998
-0.000323077
-0.000325406
-0.000327892
-0.000330453
-0.000333234
-0.000336495
-0.000340334
-0.000345001
-0.000350842
-0.000358202
-0.00036599
-0.00037225
-0.000375713
-0.000376238
-0.000374324
-0.00037089
-0.000367321
-0.000365466
-0.000367333
-0.00037377
5.14467e-05
2.93638e-05
7.15906e-06
-1.47087e-05
-3.63198e-05
-5.77001e-05
-7.87922e-05
-9.95202e-05
-0.000119812
-0.000139601
-0.000158819
-0.000177398
-0.000195266
-0.000212355
-0.000228595
-0.000243919
-0.000258262
-0.000271561
-0.000283754
-0.000294783
-0.000304596
-0.000313152
-0.000320421
-0.000326397
-0.000331092
-0.000334543
-0.000336816
-0.000338
-0.000338207
-0.000337571
-0.000336251
-0.000334422
-0.000332275
-0.000330008
-0.000327813
-0.000325869
-0.000324325
-0.000323289
-0.000322817
-0.000322907
-0.000323518
-0.00032458
-0.000326032
-0.000327824
-0.000329895
-0.000332102
-0.000334121
-0.000335486
-0.000335955
-0.000335995
-0.000336371
-0.000337149
-0.000337777
-0.000338607
-0.000340211
-0.000342606
-0.000346737
-0.000352823
-0.00035958
-0.000365561
-0.000369838
-0.000372023
-0.000372148
-0.000370591
-0.00036808
-0.000365767
-0.000365267
-0.000368455
-0.00037627
3.33879e-05
8.96756e-06
-1.52933e-05
-3.91809e-05
-6.27854e-05
-8.61122e-05
-0.000109094
-0.000131647
-0.000153694
-0.000175158
-0.000195961
-0.000216023
-0.000235263
-0.000253596
-0.000270944
-0.000287226
-0.000302367
-0.000316294
-0.000328935
-0.000340215
-0.000350071
-0.000358457
-0.000365333
-0.000370664
-0.000374436
-0.000376665
-0.000377406
-0.000376757
-0.00037486
-0.000371903
-0.000368112
-0.000363747
-0.000359102
-0.000354488
-0.000350215
-0.000346564
-0.000343754
-0.000341897
-0.000340971
-0.000340804
-0.000341119
-0.000341622
-0.000342166
-0.000342864
-0.00034407
-0.000346035
-0.00034838
-0.000349858
-0.000349149
-0.00034683
-0.000344981
-0.000344346
-0.000343201
-0.00034206
-0.000343079
-0.000346068
-0.000349969
-0.000354388
-0.000358994
-0.000363057
-0.000365918
-0.000367253
-0.000367051
-0.000365578
-0.00036345
-0.000361709
-0.000361791
-0.000365347
-0.000373188
-2.28435e-06
-2.88018e-05
-5.55217e-05
-8.18567e-05
-0.000107882
-0.000133619
-0.000158985
-0.000183883
-0.000208217
-0.000231892
-0.000254815
-0.000276887
-0.00029801
-0.000318082
-0.000337
-0.00035466
-0.000370958
-0.000385766
-0.0003989
-0.000410168
-0.000419477
-0.000426802
-0.000432153
-0.000435557
-0.000437041
-0.00043663
-0.00043438
-0.0004304
-0.000424871
-0.000418045
-0.000410245
-0.00040185
-0.000393289
-0.000385026
-0.000377533
-0.000371246
-0.000366504
-0.000363473
-0.000362067
-0.000361885
-0.000362209
-0.000362142
-0.000360935
-0.000358511
-0.000355761
-0.000354109
-0.000354426
-0.000355736
-0.000355295
-0.000352199
-0.000349074
-0.000348236
-0.000348547
-0.000348655
-0.000348657
-0.00034955
-0.000351633
-0.000354516
-0.000357599
-0.000360207
-0.000361742
-0.000361893
-0.000360754
-0.000358663
-0.00035621
-0.000354429
-0.000354741
-0.000358595
-0.000366452
-1.33746e-05
-4.22491e-05
-7.05148e-05
-9.86496e-05
-0.000126628
-0.000154289
-0.000181521
-0.000208232
-0.00023432
-0.000259682
-0.000284212
-0.000307802
-0.00033034
-0.000351719
-0.000371833
-0.000390616
-0.000408055
-0.000424261
-0.00043908
-0.000451998
-0.000462618
-0.000470772
-0.000476437
-0.000479608
-0.000480279
-0.00047845
-0.00047415
-0.000467453
-0.000458506
-0.000447562
-0.000435011
-0.000421394
-0.000407411
-0.000393906
-0.000381816
-0.000372077
-0.000365472
-0.000362452
-0.000362927
-0.000366101
-0.000370438
-0.0003739
-0.000374549
-0.000371493
-0.000365605
-0.000359476
-0.000355943
-0.000355898
-0.000357222
-0.00035773
-0.000356532
-0.000354623
-0.000353234
-0.00035252
-0.000352284
-0.000352523
-0.000353248
-0.000354408
-0.000355766
-0.000356828
-0.000356935
-0.00035559
-0.00035284
-0.00034912
-0.000345219
-0.000342469
-0.000342539
-0.000346656
-0.000354732
-0.000103221
-0.000134835
-0.000166441
-0.000197419
-0.000227919
-0.000258093
-0.000287858
-0.000317029
-0.000345448
-0.000372993
-0.000399541
-0.000424949
-0.000449051
-0.000471656
-0.000492556
-0.000511497
-0.000528182
-0.000542213
-0.000553535
-0.000562535
-0.00056942
-0.000574052
-0.000576084
-0.000575162
-0.00057106
-0.000563724
-0.000553253
-0.000539852
-0.000523803
-0.000505482
-0.000485394
-0.000464213
-0.00044279
-0.000422117
-0.000403256
-0.000387241
-0.000374947
-0.000366936
-0.000363301
-0.000363555
-0.000366571
-0.00037066
-0.000373887
-0.000375028
-0.000373559
-0.000369895
-0.000365225
-0.000361179
-0.000358769
-0.000357273
-0.000356082
-0.00035521
-0.00035472
-0.000354467
-0.000354351
-0.000354342
-0.000354388
-0.000354447
-0.000354415
-0.000354077
-0.000353102
-0.000351023
-0.000347338
-0.000342223
-0.000336929
-0.000333325
-0.00033287
-0.000335965
-0.000343171
6.76834e-05
7.54835e-05
8.36056e-05
9.21197e-05
0.000101141
0.00011073
0.000120922
0.000131526
0.000142494
0.000154047
0.000166163
0.000178766
0.00019152
0.000205319
0.000218532
0.000232513
0.000245879
0.000259876
0.000273543
0.000286952
0.000301063
0.00031351
0.000325587
0.000336766
0.000347157
0.000356654
0.000364617
0.000371476
0.000377322
0.000381468
0.000384024
0.000385263
0.000385356
0.000384346
0.000381626
0.000377892
0.000373245
0.000367497
0.000361021
0.000354072
0.000346364
0.000338292
0.000330283
0.000322444
0.000313576
0.000305423
0.000296822
0.000288661
0.000280714
0.000273024
0.000265714
0.000258729
0.000252204
0.000245837
0.000240084
0.000234264
0.00022902
0.000224193
0.000219809
6.60957e-05
7.41155e-05
8.26181e-05
9.15927e-05
0.000101077
0.000111084
0.000121634
0.000132693
0.000144272
0.000156377
0.000168979
0.000182067
0.000195547
0.000209484
0.000223675
0.000238024
0.000252514
0.000266997
0.00028147
0.000295529
0.000309545
0.000322935
0.000335558
0.000347316
0.000358096
0.000367838
0.000376321
0.000383405
0.000389311
0.000393613
0.000396211
0.00039751
0.000397497
0.000396109
0.000393311
0.000389316
0.000384311
0.000378349
0.000371539
0.000364072
0.000356046
0.000347686
0.000339086
0.000330231
0.000321316
0.000312462
0.000303726
0.000295203
0.000286884
0.000278831
0.000271126
0.000263775
0.000256731
0.000250109
0.000243834
0.00023799
0.000232551
0.000227493
0.000222793
6.40151e-05
7.24124e-05
8.12916e-05
9.0689e-05
0.000100623
0.000111106
0.000122136
0.000133707
0.000145833
0.000158516
0.000171714
0.000185388
0.000199507
0.000214024
0.000228845
0.00024395
0.00025918
0.000274425
0.000289527
0.000304344
0.000318843
0.000332807
0.000346053
0.000358378
0.000369678
0.000379813
0.000388645
0.000396081
0.000402124
0.000406513
0.000409277
0.000410572
0.000410379
0.000408746
0.000405719
0.000401465
0.000396099
0.000389783
0.000382597
0.000374734
0.000366313
0.000357425
0.000348227
0.000338896
0.000329515
0.000320218
0.000311033
0.000302041
0.000293305
0.000284869
0.000276784
0.000269052
0.000261695
0.000254727
0.000248198
0.000242096
0.000236393
0.000231089
0.000226174
6.15517e-05
7.03424e-05
7.9639e-05
8.94724e-05
9.98666e-05
0.000110837
0.000122386
0.000134515
0.000147225
0.000160509
0.00017434
0.00018868
0.000203492
0.00021871
0.000234245
0.000250053
0.000265984
0.000281953
0.000297778
0.000313361
0.000328557
0.000343135
0.000356981
0.000369883
0.000381716
0.000392311
0.00040152
0.000409275
0.000415509
0.000420031
0.000422898
0.000424168
0.000423848
0.000422038
0.000418772
0.00041422
0.00040849
0.000401746
0.000394111
0.000385766
0.000376835
0.000367434
0.000357742
0.000347928
0.000338037
0.000328214
0.00031852
0.000309038
0.000299843
0.000290977
0.000282479
0.000274372
0.000266679
0.000259406
0.000252568
0.00024616
0.000240174
0.000234613
0.000229472
5.87104e-05
6.79197e-05
7.76606e-05
8.79633e-05
9.88518e-05
0.000110342
0.000122442
0.000135155
0.000148478
0.000162398
0.000176893
0.000191928
0.000207455
0.00022341
0.000239708
0.000256266
0.000272964
0.000289691
0.000306292
0.000322635
0.000338554
0.000353828
0.000368315
0.00038182
0.000394194
0.000405268
0.000414887
0.000422958
0.000429409
0.000434083
0.000437018
0.000438259
0.000437833
0.000435838
0.000432322
0.000427442
0.000421325
0.000414129
0.000406006
0.000397129
0.000387649
0.000377714
0.000367484
0.000357103
0.000346662
0.000336286
0.000326065
0.00031608
0.000306398
0.000297068
0.000288129
0.00027961
0.000271531
0.0002639
0.000256725
0.000250004
0.000243734
0.000237912
0.000232533
5.53996e-05
6.50562e-05
7.52707e-05
8.60738e-05
9.7491e-05
0.000109539
0.000122227
0.000135558
0.00014953
0.000164128
0.000179329
0.000195095
0.000211378
0.000228111
0.000245213
0.000262584
0.000280107
0.000297653
0.00031507
0.000332204
0.00034888
0.000364895
0.000380072
0.000394218
0.000407164
0.000418739
0.000428788