/*--------------------------------*- C++ -*----------------------------------*\
| =========                 |                                                 |
| \\      /  F ield         | OpenFOAM: The Open Source CFD Toolbox           |
|  \\    /   O peration     | Version:  2312                                  |
|   \\  /    A nd           | Website:  www.openfoam.com                      |
|    \\/     M anipulation  |                                                 |
\*---------------------------------------------------------------------------*/
FoamFile
{
    version     2.0;
    format      ascii;
    arch        "LSB;label=32;scalar=64";
    class       surfaceScalarField;
    location    "900";
    object      phi;
}
// * * * * * * * * * * * * * * * * * * * * * * * * * * * * * * * * * * * * * //

dimensions      [0 3 -1 0 0 0 0];

oriented        oriented;

internalField   nonuniform List<scalar> 
116611
(
0.00108152
0.000408889
-0.00106561
-0.000424795
0.00109726
0.000404283
-0.000420025
0.00111284
0.000399315
-0.000414891
0.00112824
0.000393954
-0.000409355
0.00114331
0.000388156
-0.000403226
0.00115847
0.000381936
-0.0003971
0.00117314
0.000375293
-0.000389961
0.00118779
0.000368211
-0.000382865
0.00120215
0.000360671
-0.000375026
0.00121629
0.00035266
-0.000366804
0.00123014
0.000344135
-0.000357983
0.0012438
0.00033511
-0.000348769
0.00125722
0.00032559
-0.00033901
0.00127035
0.000315517
-0.000328645
0.00128333
0.000304931
-0.000317909
0.00129575
0.000293776
-0.0003062
0.00130811
0.000282014
-0.000294372
0.00131995
0.000269694
-0.000281534
0.00133152
0.000256688
-0.000268257
0.00134263
0.000243132
-0.000254248
0.0013535
0.000228841
-0.000239711
0.00136397
0.000213947
-0.000224414
0.00137396
0.000198343
-0.000208328
0.00138357
0.000182052
-0.000191668
0.00139271
0.000165042
-0.000174181
0.00140134
0.00014727
-0.000155902
0.00140958
0.000128717
-0.000136956
0.00141704
0.000109418
-0.000116877
0.0014242
8.93284e-05
-9.6494e-05
0.00143054
6.83561e-05
-7.46886e-05
0.00143655
4.6694e-05
-5.27064e-05
0.00144161
2.4018e-05
-2.90767e-05
0.00144629
5.31276e-07
-5.21717e-06
0.00145013
-2.38117e-05
1.99787e-05
0.00145337
-4.91423e-05
4.59016e-05
0.00145577
-7.53291e-05
7.29286e-05
0.00145751
-0.000102544
0.000100804
0.00145854
-0.000130667
0.000129636
0.00145867
-0.00015974
0.000159609
0.00145799
-0.000189882
0.000190564
0.00145648
-0.000220983
0.000222497
0.00145415
-0.000253166
0.000255492
0.00145104
-0.000286345
0.000289453
0.00144687
-0.000320587
0.000324759
0.00144192
-0.000355944
0.000360891
0.00143597
-0.000392398
0.000398347
0.00142927
-0.000429986
0.000436687
0.00142146
-0.000468741
0.000476549
0.0014128
-0.000508698
0.000517362
0.00140314
-0.000549897
0.000559553
0.00139255
-0.000592395
0.000602992
0.00138107
-0.00063621
0.000647686
0.0013687
-0.000681446
0.000693815
0.00135548
-0.000728241
0.000741461
0.00134158
-0.000776716
0.000790621
0.00132698
-0.000827126
0.000841725
0.00131189
-0.000879686
0.000894772
0.00129621
-0.000934616
0.000950304
0.00127976
-0.000992075
0.00100852
0.00126264
-0.00105193
0.00106904
0.00124457
-0.0011141
0.00113218
0.00122493
-0.00117862
0.00119826
0.00120311
-0.00124506
0.00126688
0.00117878
-0.00131278
0.00133712
0.00115157
-0.00138134
0.00140855
0.00112041
-0.00145053
0.00148169
0.00108559
-0.00151908
0.00155389
0.00104763
-0.0015856
0.00162356
-0.0016491
0.00100591
0.00169083
0.00106435
0.000393054
-0.00104851
0.00108003
0.000388597
0.00109556
0.000383784
0.00111092
0.000378595
0.00112609
0.000372985
0.00114106
0.000366973
0.00115581
0.000360543
0.00117035
0.000353674
0.00118466
0.000346361
0.00119874
0.000338579
0.00121256
0.000330317
0.0012261
0.000321563
0.00123939
0.0003123
0.0012524
0.000302512
0.00126512
0.000292209
0.00127755
0.000281347
0.00128964
0.000269925
0.00130142
0.000257917
0.00131279
0.000245311
0.00132384
0.000232082
0.00133447
0.000218214
0.00134471
0.000203706
0.00135453
0.000188528
0.00136391
0.000172667
0.00137285
0.000156105
0.00138131
0.000138804
0.00138926
0.000120773
0.00139668
0.000101993
0.00140358
8.24289e-05
0.00140987
6.20717e-05
0.00141565
4.0908e-05
0.00142077
1.88966e-05
0.00142527
-3.9606e-06
0.00142913
-2.76742e-05
0.00143228
-5.22936e-05
0.00143477
-7.7815e-05
0.0014365
-0.000104276
0.00143749
-0.000131656
0.00143774
-0.000159992
0.00143718
-0.000189324
0.00143584
-0.000219645
0.00143366
-0.000250983
0.00143065
-0.000283331
0.00142679
-0.000316734
0.00142207
-0.000351222
0.00141647
-0.000386799
0.00140998
-0.000423493
0.00140258
-0.000461342
0.00139427
-0.000500394
0.00138506
-0.00054068
0.00137493
-0.000582268
0.00136395
-0.000625225
0.00135215
-0.000669655
0.00133962
-0.00071571
0.00132646
-0.000763549
0.0013127
-0.00081337
0.00129836
-0.000865347
0.00128336
-0.00091961
0.00126746
-0.000976183
0.00125046
-0.00103492
0.00123199
-0.00109564
0.00121148
-0.0011581
0.00118839
-0.00122198
0.00116239
-0.00128678
0.00113314
-0.0013521
0.00110019
-0.00141758
0.00106337
-0.00148225
0.00102251
-0.00154473
-0.00160331
0.000976716
0.00104774
0.000377346
-0.00103204
0.00106333
0.000373015
0.00107877
0.000368339
0.00109407
0.000363301
0.00110917
0.000357878
0.00112408
0.00035206
0.00113879
0.000345833
0.00115329
0.000339182
0.00116755
0.000332095
0.00118158
0.000324555
0.00119534
0.00031655
0.00120884
0.000308065
0.00122205
0.000299085
0.00123497
0.000289595
0.0012476
0.000279585
0.00125991
0.000269037
0.00127189
0.000257939
0.00128354
0.000246272
0.00129483
0.000234021
0.00130574
0.000221168
0.00131626
0.000207698
0.00132637
0.000193594
0.00133606
0.000178838
0.00134531
0.000163414
0.00135411
0.000147304
0.00136243
0.000130488
0.00137025
0.000112952
0.00137756
9.46782e-05
0.00138435
7.56478e-05
0.00139058
5.58423e-05
0.00139624
3.52447e-05
0.0014013
1.38342e-05
0.00140575
-8.40769e-06
0.00140957
-3.14944e-05
0.00141273
-5.54506e-05
0.0014152
-8.02947e-05
0.00141697
-0.000106043
0.00141803
-0.000132709
0.00141835
-0.000160313
0.0014179
-0.000188879
0.00141668
-0.000218421
0.00141465
-0.000248954
0.00141181
-0.000280497
0.00140816
-0.000313075
0.00140365
-0.000346712
0.00139828
-0.00038143
0.00139204
-0.000417259
0.00138494
-0.000454238
0.00137696
-0.000492415
0.00136812
-0.000531843
0.00135845
-0.000572598
0.001348
-0.000614776
0.00133684
-0.000658494
0.00132503
-0.0007039
0.00131263
-0.000751144
0.00129962
-0.000800364
0.00128593
-0.000851657
0.00127136
-0.00090504
0.00125561
-0.000960427
0.0012383
-0.00101762
0.00121903
-0.00107636
0.00119732
-0.00113639
0.00117273
-0.00119739
0.00114498
-0.00125902
0.0011138
-0.00132092
0.00107887
-0.00138265
0.00103983
-0.00144321
0.000995965
-0.00150087
-0.0015529
0.000945557
0.00103178
0.000361747
-0.00101618
0.00104725
0.000357543
0.00106258
0.000353006
0.00107777
0.000348117
0.00109278
0.000342862
0.00110762
0.000337226
0.00112225
0.000331195
0.00113668
0.000324756
0.00115088
0.000317894
0.00116484
0.000310594
0.00117855
0.000302842
0.00119199
0.000294625
0.00120515
0.000285926
0.00121801
0.000276733
0.00123057
0.000267029
0.0012428
0.000256802
0.00125471
0.000246035
0.00126626
0.000234714
0.00127746
0.000222824
0.00128828
0.000210347
0.00129871
0.000197268
0.00130874
0.000183571
0.00131833
0.000169239
0.00132749
0.000154254
0.0013362
0.0001386
0.00134443
0.000122259
0.00135217
0.000105214
0.0013594
8.74475e-05
0.0013661
6.89433e-05
0.00137226
4.96823e-05
0.00137786
2.96473e-05
0.00138288
8.81816e-06
0.00138729
-1.28203e-05
0.00139108
-3.52855e-05
0.00139423
-5.85985e-05
0.00139671
-8.27785e-05
0.00139851
-0.000107843
0.00139961
-0.000133808
0.00139999
-0.000160692
0.00139963
-0.000188516
0.0013985
-0.000217297
0.0013966
-0.000247054
0.00139391
-0.000277807
0.00139042
-0.000309578
0.0013861
-0.000342394
0.00138095
-0.000376285
0.00137498
-0.000411284
0.00136818
-0.000447437
0.00136056
-0.000484802
0.00135217
-0.000523449
0.00134304
-0.000563467
0.00133322
-0.000604961
0.00132278
-0.000648049
0.00131173
-0.000692854
0.00130007
-0.000739477
0.00128768
-0.000787982
0.00127439
-0.000838366
0.0012599
-0.000890548
0.00124384
-0.000944365
0.00122581
-0.00099959
0.00120541
-0.00105596
0.00118226
-0.00111324
0.00115604
-0.00117117
0.0011265
-0.00122948
0.00109341
-0.00128783
0.00105643
-0.00134567
0.00101501
-0.00140179
0.000967969
-0.00145383
-0.00149791
0.000912975
0.00101647
0.000346265
-0.00100099
0.00103183
0.000342188
0.00104705
0.000337789
0.00106211
0.00033305
0.00107702
0.000327957
0.00109175
0.000322497
0.00110629
0.000316656
0.00112062
0.000310421
0.00113474
0.000303778
0.00114862
0.000296712
0.00116225
0.000289209
0.00117562
0.000281254
0.00118871
0.000272834
0.00120151
0.000263933
0.00121401
0.000254537
0.00122618
0.000244631
0.00123801
0.000234199
0.0012495
0.000223227
0.00126063
0.000211699
0.00127137
0.000199599
0.00128173
0.000186912
0.00129168
0.000173622
0.0013012
0.000159713
0.00131029
0.000145167
0.00131892
0.000129967
0.00132709
0.000114097
0.00133476
9.75403e-05
0.00134193
8.02789e-05
0.00134857
6.2296e-05
0.00135468
4.35737e-05
0.00136024
2.40946e-05
0.00136521
3.83956e-06
0.0013696
-1.72046e-05
0.00137337
-3.90583e-05
0.00137651
-6.17412e-05
0.00137901
-8.52718e-05
0.00138083
-0.000109668
0.00138197
-0.000134947
0.00138241
-0.000161127
0.00138212
-0.000188229
0.00138109
-0.000216271
0.00137931
-0.000245273
0.00137676
-0.000275259
0.00137344
-0.000306253
0.00136933
-0.000338285
0.00136444
-0.000371392
0.00135877
-0.000405616
0.00135235
-0.000441013
0.00134519
-0.000477651
0.00133736
-0.000515611
0.00132887
-0.000554985
0.00131978
-0.00059587
0.00131009
-0.000638359
0.00129976
-0.000682523
0.00128868
-0.000728394
0.00127665
-0.00077595
0.00126339
-0.000825107
0.00124856
-0.000875717
0.00123178
-0.000927587
0.00121268
-0.000980495
0.00119094
-0.00103422
0.00116624
-0.00108855
0.00113835
-0.00114328
0.00110705
-0.00119818
0.00107207
-0.00125285
0.00103298
-0.00130659
0.000988978
-0.00135778
0.000938316
-0.00140317
-0.00143736
0.00087777
0.00100187
0.000330908
-0.000986518
0.00101711
0.000326956
0.0010322
0.000322694
0.00104715
0.000318104
0.00106193
0.000313171
0.00107655
0.000307885
0.00109097
0.00030223
0.0011052
0.000296195
0.00111921
0.000289766
0.00113299
0.000282929
0.00114653
0.000275669
0.00115982
0.000267973
0.00117282
0.000259826
0.00118554
0.000251213
0.00119796
0.00024212
0.00121006
0.000232531
0.00122183
0.000222432
0.00123325
0.000211808
0.0012443
0.000200642
0.00125498
0.000188919
0.00126527
0.000176624
0.00127515
0.000163741
0.00128461
0.000150252
0.00129364
0.000136143
0.00130221
0.000121396
0.00131031
0.000105995
0.00131793
8.99223e-05
0.00132505
7.31614e-05
0.00133165
5.56952e-05
0.00133771
3.75063e-05
0.00134323
1.85771e-05
0.00134818
-1.11021e-06
0.00135255
-2.15694e-05
0.00135631
-4.28216e-05
0.00135945
-6.48859e-05
0.00136196
-8.778e-05
0.00136382
-0.000111522
0.001365
-0.000136131
0.0013655
-0.000161626
0.0013653
-0.000188026
0.00136438
-0.000215353
0.00136274
-0.00024363
0.00136036
-0.000272882
0.00135725
-0.00030314
0.0013534
-0.000334441
0.00134884
-0.000366828
0.00134358
-0.000400354
0.00133764
-0.000435082
0.00133108
-0.000471085
0.00132391
-0.000508442
0.00131615
-0.000547229
0.0013078
-0.000587514
0.00129878
-0.000629339
0.00128896
-0.00067271
0.00127816
-0.000717589
0.00126609
-0.000763886
0.00125245
-0.000811467
0.0012369
-0.000860161
0.00121909
-0.000909779
0.00119872
-0.000960128
0.00117553
-0.00101103
0.00114928
-0.0010623
0.00111977
-0.00111377
0.00108675
-0.00116516
0.0010499
-0.001216
0.00100862
-0.0012653
0.000961712
-0.00131087
0.000906768
-0.00134823
-0.0013702
0.000839612
0.000988015
0.000315674
-0.000972781
0.00100312
0.000311847
0.0010181
0.000307722
0.00103292
0.000303279
0.00104758
0.000298507
0.00106208
0.000293393
0.00107638
0.000287924
0.00109049
0.000282087
0.00110439
0.000275869
0.00111806
0.000269257
0.00113149
0.000262237
0.00114467
0.000254795
0.00115758
0.000246917
0.0011702
0.000238588
0.00118253
0.000229793
0.00119454
0.000220519
0.00120623
0.000210749
0.00121757
0.000200468
0.00122855
0.000189661
0.00123915
0.000178313
0.00124937
0.000166407
0.00125918
0.000153927
0.00126858
0.000140858
0.00127754
0.000127183
0.00128605
0.000112885
0.0012941
9.79485e-05
0.00130166
8.23561e-05
0.00130873
6.6091e-05
0.00131529
4.91362e-05
0.00132132
3.14745e-05
0.00132681
1.30884e-05
0.00133174
-6.03879e-06
0.00133609
-2.5923e-05
0.00133986
-4.65847e-05
0.00134301
-6.80426e-05
0.00134555
-9.03148e-05
0.00134745
-0.00011342
0.00134869
-0.000137378
0.00134928
-0.000162209
0.00134919
-0.000187936
0.00134841
-0.000214581
0.00134696
-0.000242171
0.00134481
-0.00027074
0.001342
-0.000300322
0.00133852
-0.000330961
0.0013344
-0.000362709
0.00132967
-0.000395623
0.00132435
-0.000429766
0.00131847
-0.000465201
0.00131201
-0.000501986
0.00130495
-0.000540164
0.00129719
-0.000579753
0.00128859
-0.00062074
0.00127895
-0.000663073
0.00126802
-0.000706661
0.00125551
-0.000751379
0.00124113
-0.000797079
0.00122456
-0.000843595
0.00120554
-0.000890761
0.00118383
-0.000938415
0.00115921
-0.000986404
0.00113148
-0.00103457
0.00110043
-0.00108271
0.00106577
-0.0011305
0.00102703
-0.00117727
0.000983354
-0.00122163
0.000933
-0.00126052
0.000872679
-0.0012879
-0.00129451
0.000796982
0.0009749
0.000300551
-0.000959777
0.000989894
0.000296853
0.00100475
0.000292866
0.00101946
0.000288574
0.001034
0.000283963
0.00104837
0.000279021
0.00106256
0.000273737
0.00107655
0.000268098
0.00109033
0.000262091
0.00110388
0.000255702
0.0011172
0.00024892
0.00113026
0.00024173
0.00114306
0.000234118
0.00115558
0.000226069
0.0011678
0.00021757
0.00117972
0.000208605
0.00119131
0.00019916
0.00120255
0.00018922
0.00121345
0.000178768
0.00122397
0.000167789
0.00123411
0.000156268
0.00124385
0.000144189
0.00125317
0.000131534
0.00126207
0.000118289
0.00127051
0.000104436
0.0012785
8.99596e-05
0.00128602
7.4842e-05
0.00129304
5.90666e-05
0.00129956
4.26165e-05
0.00130556
2.54744e-05
0.00131103
7.6224e-06
0.00131594
-1.09546e-05
0.0013203
-3.02755e-05
0.00132407
-5.03601e-05
0.00132726
-7.12274e-05
0.00132984
-9.28963e-05
0.0013318
-0.000115387
0.00133315
-0.00013872
0.00133386
-0.00016292
0.00133393
-0.000188011
0.00133337
-0.000214021
0.00133218
-0.000240982
0.00133038
-0.000268932
0.00132797
-0.000297914
0.00132498
-0.000327973
0.00132143
-0.000359161
0.00131734
-0.000391529
0.0013127
-0.000425126
0.00130748
-0.00045999
0.00130164
-0.000496142
0.00129506
-0.000533583
0.00128759
-0.000572283
0.00127903
-0.000612184
0.00126916
-0.000653197
0.00125771
-0.00069521
0.00124442
-0.00073809
0.00122903
-0.000781693
0.00121131
-0.000825874
0.00119104
-0.000870488
0.00116802
-0.000915394
0.00114206
-0.000960447
0.00111297
-0.00100548
0.00108048
-0.00105023
0.00104422
-0.00109424
0.00100352
-0.00113656
0.000957089
-0.0011752
0.000902452
-0.00120588
0.000835121
-0.00122057
-0.00120663
0.000747245
0.00096253
0.000285525
-0.000947504
0.000977423
0.000281959
0.000992174
0.000278116
0.00100677
0.000273976
0.00102121
0.000269529
0.00103546
0.000264762
0.00104954
0.000259665
0.00106341
0.000254224
0.00107707
0.000248428
0.00109051
0.000242264
0.00110371
0.000235719
0.00111666
0.000228779
0.00112935
0.000221431
0.00114176
0.000213662
0.00115387
0.000205455
0.00116568
0.000196798
0.00117717
0.000187675
0.00118831
0.000178071
0.00119911
0.00016797
0.00120954
0.000157357
0.00121959
0.000146217
0.00122925
0.000134533
0.0012385
0.000122288
0.00124732
0.000109468
0.0012557
9.60541e-05
0.00126363
8.20307e-05
0.00127109
6.73807e-05
0.00127807
5.20871e-05
0.00128455
3.61326e-05
0.00129053
1.94999e-05
0.00129598
2.17067e-06
0.0013009
-1.58701e-05
0.00130526
-3.46435e-05
0.00130907
-5.41697e-05
0.00131231
-7.44684e-05
0.00131498
-9.55604e-05
0.00131706
-0.000117468
0.00131855
-0.000140215
0.00131946
-0.000163829
0.00131979
-0.000188338
0.00131955
-0.000213776
0.00131874
-0.000240178
0.00131739
-0.000267583
0.00131551
-0.000296035
0.00131312
-0.000325574
0.00131019
-0.000356241
0.00130673
-0.000388067
0.00130268
-0.000421073
0.00129796
-0.000455266
0.00129244
-0.00049063
0.00128599
-0.000527127
0.0012784
-0.000564697
0.00126948
-0.000603258
0.00125899
-0.000642708
0.00124671
-0.000682932
0.00123242
-0.000723806
0.00121593
-0.0007652
0.00119704
-0.000806982
0.00117557
-0.000849021
0.00115136
-0.00089118
0.00112421
-0.000933301
0.0010939
-0.000975168
0.0010601
-0.00101643
0.00102225
-0.00105639
0.000979356
-0.00109367
0.000929537
-0.00112538
0.000869295
-0.00114564
0.000792672
-0.00114395
-0.0011049
0.000690936
0.000950921
0.000270584
-0.000935981
0.000965725
0.000267155
0.000980383
0.000263458
0.000994885
0.000259475
0.00100922
0.000255194
0.00102338
0.000250605
0.00103734
0.000245697
0.00105111
0.000240457
0.00106467
0.000234874
0.00107799
0.000228935
0.00109109
0.000222628
0.00110393
0.000215939
0.0011165
0.000208856
0.0011288
0.000201364
0.0011408
0.000193449
0.00115251
0.000185098
0.00116389
0.000176294
0.00117493
0.000167024
0.00118563
0.000157271
0.00119597
0.000147021
0.00120593
0.000136256
0.0012155
0.000124963
0.00122467
0.000113123
0.00123341
0.00010072
0.00124173
8.77382e-05
0.0012496
7.41601e-05
0.00125701
5.99684e-05
0.00126395
4.5146e-05
0.00127041
2.9675e-05
0.00127637
1.35374e-05
0.00128183
-3.28492e-06
0.00128677
-2.08095e-05
0.00129118
-3.90587e-05
0.00129507
-5.80537e-05
0.00129842
-7.78164e-05
0.00130122
-9.837e-05
0.0013035
-0.00011974
0.00130523
-0.000141953
0.00130645
-0.00016504
0.00130714
-0.000189032
0.00130733
-0.000213962
0.00130702
-0.000239867
0.00130621
-0.000266779
0.00130491
-0.000294731
0.00130308
-0.000323751
0.0013007
-0.000353855
0.00129769
-0.000385053
0.00129395
-0.000417335
0.00128936
-0.00045068
0.00128378
-0.000485047
0.00127703
-0.000520377
0.00126893
-0.000556597
0.00125929
-0.000593618
0.00124792
-0.000631342
0.00123465
-0.00066966
0.0012193
-0.000708457
0.00120171
-0.000747613
0.00118174
-0.000787004
0.00115921
-0.000826499
0.00113398
-0.000865945
0.00110582
-0.000905145
0.00107446
-0.000943802
0.00103942
-0.000981386
0.000999894
-0.00101687
0.000954379
-0.00104816
0.000900073
-0.00107107
0.000832111
-0.00107768
0.000742447
-0.00105429
-0.000984395
0.000621946
0.000940114
0.000255723
-0.000925253
0.000954837
0.000252432
0.000969412
0.000248883
0.000983828
0.000245059
0.000998075
0.000240948
0.00101214
0.000236539
0.00102602
0.000231822
0.00103969
0.000226786
0.00105314
0.000221417
0.00106637
0.000215705
0.00107936
0.000209638
0.0010921
0.000203201
0.00110457
0.000196383
0.00111677
0.000189169
0.00112867
0.000181546
0.00114027
0.000173499
0.00115155
0.000165013
0.0011625
0.000156075
0.0011731
0.000146667
0.00118335
0.000136775
0.00119322
0.000126382
0.00120271
0.000115473
0.0012118
0.000104031
0.00122049
9.20389e-05
0.00122874
7.94795e-05
0.00123657
6.63357e-05
0.00124395
5.25896e-05
0.00125087
3.82233e-05
0.00125733
2.32183e-05
0.00126331
7.55517e-06
0.00126881
-8.78408e-06
0.00127382
-2.58213e-05
0.00127834
-4.35799e-05
0.00128237
-6.20828e-05
0.00128591
-8.13542e-05
0.00128896
-0.00010142
0.00129152
-0.000122307
0.00129361
-0.000144043
0.00129523
-0.000166659
0.00129639
-0.000190183
0.00129707
-0.000214644
0.00129727
-0.000240068
0.00129697
-0.000266476
0.00129612
-0.000293884
0.00129467
-0.0003223
0.00129253
-0.000351721
0.00128961
-0.000382133
0.00128579
-0.000413509
0.00128092
-0.000445811
0.00127486
-0.000478986
0.00126745
-0.000512971
0.00125854
-0.00054769
0.00124798
-0.000583058
0.00123562
-0.000618982
0.00122132
-0.00065536
0.00120495
-0.000692085
0.00118638
-0.000729039
0.00116547
-0.000766096
0.00114208
-0.000803108
0.00111602
-0.000839892
0.00108706
-0.00087618
0.00105479
-0.00091153
0.00101853
-0.00094513
0.000977054
-0.000975389
0.000928056
-0.000999158
0.000867459
-0.00101048
0.000788581
-0.000998803
0.000682092
-0.000947797
-0.000848224
0.000545921
0.000930178
0.000240936
-0.000915391
0.000944827
0.000237783
0.000959326
0.000234384
0.000973665
0.00023072
0.000987833
0.00022678
0.00100182
0.000222554
0.00101561
0.00021803
0.0010292
0.000213198
0.00104257
0.000208046
0.00105571
0.000202563
0.00106861
0.000196736
0.00108126
0.000190553
0.00109364
0.000184001
0.00110575
0.000177065
0.00111756
0.000169733
0.00112907
0.000161989
0.00114026
0.00015382
0.00115113
0.00014521
0.00116165
0.000136144
0.00117182
0.000126606
0.00118162
0.000116579
0.00119105
0.000106047
0.00120009
9.49934e-05
0.00120872
8.34004e-05
0.00121695
7.12504e-05
0.00122476
5.85251e-05
0.00123215
4.52061e-05
0.0012391
3.12742e-05
0.00124561
1.67097e-05
0.00125167
1.49235e-06
0.00125728
-1.43981e-05
0.00126245
-3.09866e-05
0.00126716
-4.82972e-05
0.00127144
-6.63541e-05
0.00127526
-8.51821e-05
0.00127865
-0.000104807
0.0012816
-0.000125253
0.0012841
-0.000146547
0.00128615
-0.00016871
0.00128773
-0.000191766
0.00128882
-0.000215731
0.00128937
-0.000240618
0.00128933
-0.000266435
0.00128863
-0.000293183
0.00128718
-0.000320852
0.00128489
-0.000349428
0.00128164
-0.000378884
0.00127732
-0.000409186
0.0012718
-0.00044029
0.00126495
-0.000472141
0.00125666
-0.000504676
0.00124679
-0.000537824
0.00123524
-0.000571505
0.00122189
-0.00060563
0.00120663
-0.000640102
0.00118936
-0.000674814
0.00116996
-0.000709645
0.00114833
-0.000744457
0.00112429
-0.000779073
0.00109765
-0.000813249
0.00106806
-0.000846597
0.00103497
-0.000878434
0.000997322
-0.000907483
0.000953185
-0.000931252
0.000899067
-0.00094504
0.000829242
-0.000940652
0.000735184
-0.000904745
0.000608906
-0.000821519
-0.00069533
0.000456012
0.000921215
0.000226215
-0.000906495
0.000935797
0.000223201
0.000950229
0.000219951
0.000964501
0.000216448
0.000978601
0.000212679
0.000992519
0.000208636
0.00100624
0.000204306
0.00101976
0.00019968
0.00103306
0.000194746
0.00104613
0.000189492
0.00105896
0.000183907
0.00107154
0.000177977
0.00108385
0.00017169
0.00109588
0.000165031
0.00110763
0.000157988
0.00111907
0.000150546
0.0011302
0.00014269
0.00114101
0.000134404
0.00115148
0.000125673
0.0011616
0.00011648
0.00117137
0.00010681
0.00118078
9.66435e-05
0.00118981
8.59645e-05
0.00119845
7.47543e-05
0.00120671
6.29943e-05
0.00121457
5.06655e-05
0.00122203
3.77483e-05
0.00122908
2.42225e-05
0.00123572
1.00674e-05
0.00124195
-4.73831e-06
0.00124777
-2.02176e-05
0.00125318
-3.63952e-05
0.00125818
-5.32939e-05
0.00126276
-7.09364e-05
0.00126692
-8.93448e-05
0.00127065
-0.000108541
0.00127394
-0.000128544
0.00127677
-0.000149371
0.0012791
-0.000171038
0.00128089
-0.000193557
0.00128209
-0.000216933
0.00128264
-0.000241171
0.00128247
-0.000266266
0.0012815
-0.000292211
0.00127964
-0.000318988
0.00127679
-0.000346577
0.00127285
-0.000374948
0.00126773
-0.000404064
0.00126132
-0.000433881
0.00125353
-0.000464347
0.00124425
-0.000495402
0.00123341
-0.000526977
0.0012209
-0.000558998
0.00120665
-0.000591379
0.00119057
-0.000624023
0.00117257
-0.00065682
0.00115257
-0.00068964
0.00113043
-0.000722319
0.00110599
-0.000754632
0.00107897
-0.000786233
0.0010489
-0.000816523
0.00101487
-0.000844402
0.000975194
-0.00086781
0.000926809
-0.000882867
0.000864558
-0.000882789
0.000780852
-0.000856945
0.000666943
-0.000790837
0.000522887
-0.000677462
-0.00054148
0.000369036
0.000913377
0.000211549
-0.000898711
0.000927906
0.000208672
0.000942287
0.000205571
0.000956508
0.000202227
0.000970558
0.000198629
0.000984427
0.000194767
0.000998103
0.000190631
0.00101157
0.000186209
0.00102483
0.000181492
0.00103785
0.000176466
0.00105064
0.000171119
0.00106318
0.00016544
0.00107545
0.000159415
0.00108745
0.00015303
0.00109917
0.000146272
0.00111059
0.000139124
0.00112171
0.000131573
0.00113251
0.000123603
0.00114299
0.000115196
0.00115313
0.000106338
0.00116293
9.70087e-05
0.00117238
8.71922e-05
0.00118148
7.68694e-05
0.00119021
6.60218e-05
0.00119857
5.46298e-05
0.00120657
4.26739e-05
0.00121418
3.0134e-05
0.00122141
1.69897e-05
0.00122826
3.21997e-06
0.00123472
-1.11963e-05
0.00124078
-2.62822e-05
0.00124645
-4.20586e-05
0.0012517
-5.85452e-05
0.00125652
-7.57604e-05
0.0012609
-9.37216e-05
0.0012648
-0.000112444
0.0012682
-0.000131942
0.00127105
-0.000152224
0.00127331
-0.0001733
0.00127493
-0.000195174
0.00127584
-0.000217846
0.00127598
-0.000241312
0.00127528
-0.000265565
0.00127366
-0.000290592
0.00127105
-0.000316374
0.00126736
-0.000342887
0.00126251
-0.000370102
0.00125643
-0.000397984
0.00124904
-0.000426489
0.00124026
-0.000455568
0.00123003
-0.000485165
0.00121826
-0.000515216
0.00120491
-0.000545647
0.00118991
-0.000576375
0.00117319
-0.000607302
0.00115468
-0.00063831
0.00113429
-0.000669252
0.00111189
-0.000699923
0.00108727
-0.00073001
0.00106003
-0.000758986
0.00102936
-0.000785859
0.000993761
-0.000808802
0.000950432
-0.000824481
0.000894614
-0.000827049
0.000819272
-0.000807447
0.000715847
-0.00075352
0.000579756
-0.000654746
0.000422867
-0.000520573
-0.000386376
0.000267763
0.000906919
0.000196909
-0.000892279
0.000921425
0.000194167
0.000935785
0.000191211
0.000949989
0.000188023
0.000964025
0.000184593
0.000977883
0.000180909
0.000991551
0.000176962
0.00100502
0.000172742
0.00101827
0.000168236
0.00103131
0.000163432
0.00104411
0.00015832
0.00105666
0.000152886
0.00106896
0.000147116
0.00108099
0.000140997
0.00109275
0.000134514
0.00110423
0.000127652
0.0011154
0.000120396
0.00112628
0.000112729
0.00113684
0.000104635
0.00114708
9.60971e-05
0.00115699
8.70969e-05
0.00116657
7.76164e-05
0.0011758
6.76371e-05
0.00118468
5.71401e-05
0.0011932
4.61061e-05
0.00120136
3.45158e-05
0.00120915
2.23497e-05
0.00121655
9.58833e-06
0.00122356
-3.78818e-06
0.00123016
-1.77997e-05
0.00123634
-3.24656e-05
0.00124209
-4.78029e-05
0.00124737
-6.38275e-05
0.00125216
-8.05539e-05
0.00125644
-9.79952e-05
0.00126015
-0.000116162
0.00126328
-0.000135064
0.00126576
-0.000154706
0.00126755
-0.000175092
0.0012686
-0.000196223
0.00126885
-0.000218096
0.00126824
-0.000240705
0.00126671
-0.000264038
0.00126421
-0.000288082
0.00126065
-0.000312818
0.00125599
-0.000338222
0.00125015
-0.000364265
0.00124308
-0.000390913
0.00123472
-0.000418127
0.00122501
-0.00044586
0.0012139
-0.000474059
0.00120135
-0.000502664
0.00118731
-0.000531605
0.00117173
-0.000560798
0.00115457
-0.000590144
0.00113577
-0.000619511
0.00111524
-0.000648719
0.0010928
-0.000677486
0.00106812
-0.00070533
0.0010405
-0.000731364
0.00100851
-0.000753869
0.000969499
-0.000769789
0.00091894
-0.000773923
0.000850114
-0.000758223
0.000755109
-0.000712442
0.000628317
-0.000626728
0.000476178
-0.000502607
0.000319992
-0.000364387
-0.000244629
0.000178245
0.000902323
0.000182242
-0.000887656
0.000916863
0.000179627
0.000931262
0.000176811
0.000945512
0.000173774
0.0009596
0.000170504
0.000973516
0.000166993
0.000987249
0.000163229
0.00100079
0.000159203
0.00101412
0.000154902
0.00102724
0.000150315
0.00104013
0.000145429
0.00105278
0.000140233
0.00106519
0.000134711
0.00107733
0.000128852
0.00108921
0.000122639
0.0011008
0.000116057
0.00111211
0.000109092
0.00112311
0.000101727
0.0011338
9.39445e-05
0.00114417
8.57285e-05
0.0011542
7.70611e-05
0.0011639
6.79243e-05
0.00117323
5.83e-05
0.0011822
4.81698e-05
0.00119079
3.75152e-05
0.00119899
2.63179e-05
0.00120678
1.45594e-05
0.00121415
2.22116e-06
0.00122108
-1.07147e-05
0.00122754
-2.42663e-05
0.00123353
-3.84498e-05
0.001239
-5.32799e-05
0.00124395
-6.87699e-05
0.00124832
-8.49317e-05
0.0012521
-0.000101776
0.00125525
-0.00011931
0.00125773
-0.00013754
0.00125949
-0.000156469
0.0012605
-0.0001761
0.0012607
-0.000196429
0.00126006
-0.000217452
0.00125852
-0.00023916
0.00125602
-0.000261543
0.00125252
-0.000284585
0.00124797
-0.000308268
0.00124232
-0.000332568
0.00123551
-0.000357459
0.00122751
-0.000382909
0.00121826
-0.000408881
0.00120774
-0.000435334
0.0011959
-0.000462219
0.00118271
-0.00048948
0.00116816
-0.000517052
0.00115221
-0.00054485
0.00113484
-0.000572767
0.00111597
-0.000600646
0.00109548
-0.000628233
0.00107308
-0.000655081
0.00104809
-0.000680337
0.00101912
-0.000702398
0.000983525
-0.000718273
0.000936838
-0.000723102
0.000872507
-0.000709591
0.00078301
-0.000668727
0.000663213
-0.000592645
0.000516983
-0.000480497
0.000362007
-0.000347631
0.000218665
-0.000221045
-0.00012711
0.000101145
0.000900429
0.000167462
-0.00088565
0.000915087
0.000164969
0.000929612
0.000162286
0.000943992
0.000159394
0.000958216
0.000156281
0.00097227
0.000152938
0.000986145
0.000149355
0.000999826
0.000145521
0.0010133
0.000141425
0.00102656
0.000137055
0.00103959
0.000132399
0.00105238
0.000127445
0.00106491
0.000122179
0.00107718
0.000116588
0.00108916
0.000110657
0.00110085
0.000104371
0.00111222
9.77143e-05
0.00112328
9.06719e-05
0.001134
8.32269e-05
0.00114436
7.53624e-05
0.00115436
6.70613e-05
0.00116398
5.8306e-05
0.0011732
4.90787e-05
0.00118201
3.93615e-05
0.00119039
2.91364e-05
0.00119832
1.83855e-05
0.00120579
7.09091e-06
0.00121278
-4.76482e-06
0.00121926
-1.71992e-05
0.00122522
-3.02286e-05
0.00123064
-4.38676e-05
0.00123549
-5.81295e-05
0.00123975
-7.30263e-05
0.00124338
-8.85681e-05
0.00124637
-0.000104763
0.00124868
-0.000121617
0.00125027
-0.000139135
0.00125112
-0.000157317
0.00125118
-0.000176162
0.00125042
-0.000195667
0.00124879
-0.000215825
0.00124626
-0.000236628
0.00124278
-0.000258062
0.00123831
-0.000280114
0.0012328
-0.000302764
0.00122623
-0.000325992
0.00121854
-0.000349774
0.00120971
-0.00037408
0.00119971
-0.00039888
0.00118852
-0.000424137
0.00117611
-0.000449809
0.00116247
-0.000475847
0.00114761
-0.000502188
0.0011315
-0.000528744
0.00111412
-0.000555381
0.00109534
-0.000581866
0.00107487
-0.000607768
0.00105204
-0.000632244
0.00102536
-0.000653654
0.000992047
-0.000669089
0.000947503
-0.000673729
0.000885285
-0.000660885
0.000798296
-0.000622603
0.000682389
-0.00055282
0.000541324
-0.00045158
0.000389851
-0.000329024
0.000246518
-0.000204298
0.000124099
-9.86251e-05
-3.08499e-05
2.78386e-05
0.000902101
0.000152512
-0.000887151
0.000916928
0.000150143
0.000931616
0.000147598
0.000946152
0.000144858
0.000960522
0.000141911
0.000974713
0.000138748
0.00098871
0.000135358
0.0010025
0.000131732
0.00101606
0.000127859
0.00102939
0.000123726
0.00104247
0.000119324
0.00105528
0.000114638
0.0010678
0.000109657
0.00108002
0.000104365
0.00109193
9.87504e-05
0.0011035
9.27968e-05
0.00111472
8.64894e-05
0.00112558
7.98124e-05
0.00113606
7.27494e-05
0.00114614
6.52836e-05
0.0011558
5.73977e-05
0.00116504
4.90743e-05
0.00117382
4.02954e-05
0.00118214
3.10431e-05
0.00118997