/*--------------------------------*- C++ -*----------------------------------*\
| =========                 |                                                 |
| \\      /  F ield         | OpenFOAM: The Open Source CFD Toolbox           |
|  \\    /   O peration     | Version:  2312                                  |
|   \\  /    A nd           | Website:  www.openfoam.com                      |
|    \\/     M anipulation  |                                                 |
\*---------------------------------------------------------------------------*/
FoamFile
{
    version     2.0;
    format      ascii;
    arch        "LSB;label=32;scalar=64";
    class       volVectorField;
    location    "900";
    object      U;
}
// * * * * * * * * * * * * * * * * * * * * * * * * * * * * * * * * * * * * * //

dimensions      [0 1 -1 0 0 0 0];

internalField   nonuniform List<vector> 
76025
(
(0.03668 -0.00689617 0)
(0.0368524 -0.0069757 5.96217e-22)
(0.0370261 -0.00705066 0)
(0.0372021 -0.00712341 0)
(0.037371 -0.00719385 -1.08363e-21)
(0.0375518 -0.00725758 -2.05345e-21)
(0.0377276 -0.00731975 3.55773e-21)
(0.0379094 -0.00737558 -1.4998e-21)
(0.038091 -0.0074299 -4.72807e-22)
(0.0382739 -0.00748125 4.55016e-22)
(0.0384565 -0.00752881 -3.48243e-24)
(0.0386417 -0.00757083 1.21992e-21)
(0.0388309 -0.00761141 -1.64e-21)
(0.0390201 -0.00764712 0)
(0.0392167 -0.00767667 3.63667e-22)
(0.0394075 -0.00770839 0)
(0.0396044 -0.00772885 0)
(0.0398002 -0.00775282 0)
(0.039998 -0.00776717 2.9641e-22)
(0.0401945 -0.00778354 -2.77451e-22)
(0.0403935 -0.00779112 -2.58843e-22)
(0.0405976 -0.00779607 -7.12165e-22)
(0.0408003 -0.0077978 4.69862e-22)
(0.041004 -0.00779439 6.02229e-22)
(0.0412085 -0.0077894 -3.66882e-23)
(0.0414115 -0.00778516 1.33581e-22)
(0.0416195 -0.00776789 -4.59067e-22)
(0.0418223 -0.00775212 4.34018e-22)
(0.0420277 -0.00773057 -1.22279e-22)
(0.042232 -0.00770332 1.05627e-22)
(0.0424358 -0.00768038 8.60952e-23)
(0.0426355 -0.00765771 -1.11012e-22)
(0.0428371 -0.00761984 1.47669e-22)
(0.0430384 -0.00758988 -4.16783e-24)
(0.0432381 -0.00754826 -1.88086e-23)
(0.0434361 -0.00751355 1.01217e-23)
(0.0436322 -0.00747497 -1.22172e-23)
(0.0438302 -0.00742435 1.21037e-23)
(0.044028 -0.00737884 1.78868e-24)
(0.0442221 -0.00732992 -3.06955e-23)
(0.0444152 -0.00728449 2.1203e-23)
(0.0446089 -0.0072361 -1.30962e-23)
(0.0448043 -0.0071748 2.92132e-23)
(0.0450003 -0.00712397 -6.72037e-23)
(0.0451949 -0.00706836 -7.89705e-23)
(0.0453918 -0.00701991 1.55084e-22)
(0.0455909 -0.00696092 1.81777e-22)
(0.0457955 -0.00690834 -5.67207e-22)
(0.0460019 -0.00685769 3.93809e-22)
(0.0462135 -0.00681147 9.10772e-24)
(0.0464326 -0.00676776 -1.10329e-21)
(0.0466603 -0.00672484 -4.57239e-22)
(0.0468996 -0.00668454 4.83097e-22)
(0.0471537 -0.00664928 0)
(0.0474303 -0.00662161 -5.14572e-22)
(0.0477328 -0.00660654 -5.35072e-22)
(0.0480714 -0.00659871 1.54996e-23)
(0.0484523 -0.00660636 -5.49478e-22)
(0.0488795 -0.00663278 5.88552e-22)
(0.0493467 -0.00666389 -1.72646e-21)
(0.0498576 -0.00670236 -1.16199e-21)
(0.0504142 -0.00675974 1.75693e-23)
(0.0509853 -0.00682674 0)
(0.0515513 -0.00689595 3.07632e-21)
(0.0520993 -0.00696239 -1.27896e-21)
(0.0526116 -0.00704297 6.21179e-22)
(0.0530559 -0.00712235 -1.32516e-21)
(0.053426 -0.00716501 1.29609e-21)
(0.0536888 -0.00717803 2.73619e-21)
(0.036542 -0.00719751 6.32929e-22)
(0.0367235 -0.00727918 1.83363e-21)
(0.0369069 -0.0073567 -2.44289e-21)
(0.0370921 -0.00743013 0)
(0.0372766 -0.00750108 2.78719e-21)
(0.0374642 -0.00756657 -7.01627e-23)
(0.0376523 -0.0076291 -2.14578e-21)
(0.0378415 -0.00768698 0)
(0.0380324 -0.00774081 -4.18064e-24)
(0.0382246 -0.00779089 -4.69752e-22)
(0.0384179 -0.00783719 4.51338e-22)
(0.038612 -0.00787912 -1.97746e-24)
(0.038807 -0.0079173 0)
(0.0390035 -0.00795146 0)
(0.0392024 -0.00798007 7.17921e-22)
(0.0394017 -0.00800666 -1.83263e-21)
(0.0396029 -0.00802739 -3.39662e-22)
(0.0398044 -0.00804572 9.44992e-22)
(0.040007 -0.0080588 -6.2512e-22)
(0.0402096 -0.00806931 2.8578e-22)
(0.0404132 -0.00807497 -2.44724e-22)
(0.0406173 -0.00807663 5.13432e-22)
(0.040822 -0.00807477 -4.37641e-22)
(0.0410271 -0.00806867 6.27276e-22)
(0.0412328 -0.00805891 -4.01893e-22)
(0.0414385 -0.00804646 -5.00979e-22)
(0.0416448 -0.00802878 3.27154e-22)
(0.04185 -0.00800887 0)
(0.0420552 -0.00798503 0)
(0.0422596 -0.00795811 9.33474e-23)
(0.0424641 -0.00792719 0)
(0.0426685 -0.00789438 5.46734e-23)
(0.0428718 -0.00785716 -2.96677e-23)
(0.0430741 -0.00781846 3.6803e-23)
(0.0432757 -0.00777697 4.36476e-24)
(0.0434765 -0.00773375 -7.24824e-24)
(0.0436765 -0.00768764 0)
(0.0438754 -0.00763895 -5.90135e-23)
(0.044074 -0.00758993 5.46106e-23)
(0.0442722 -0.00753946 -5.21934e-23)
(0.0444702 -0.00748751 3.78225e-23)
(0.0446683 -0.00743405 5.76256e-25)
(0.0448666 -0.00737948 1.87038e-23)
(0.0450662 -0.00732627 -1.74777e-23)
(0.0452674 -0.00727196 1.67219e-22)
(0.0454708 -0.00721783 -8.89559e-23)
(0.0456769 -0.00716337 -1.00825e-22)
(0.045887 -0.00711164 1.96014e-22)
(0.0461017 -0.00706112 6.38692e-22)
(0.0463224 -0.00701276 4.45081e-24)
(0.0465508 -0.00696744 6.92497e-22)
(0.0467891 -0.00692579 -2.4809e-22)
(0.0470416 -0.00688946 -7.6705e-22)
(0.0473132 -0.00686059 5.03979e-22)
(0.0476093 -0.00684 0)
(0.0479371 -0.00683067 1.65018e-21)
(0.0483022 -0.00683377 2.58943e-23)
(0.0487086 -0.0068519 -5.54497e-22)
(0.0491555 -0.00688425 -5.73749e-22)
(0.0496372 -0.00692663 0)
(0.0501478 -0.00697819 5.77735e-22)
(0.0506738 -0.00703786 1.76372e-21)
(0.051196 -0.00710647 0)
(0.0516962 -0.00718098 -1.2124e-21)
(0.052163 -0.00726079 5.81285e-22)
(0.0525861 -0.00735254 -1.24185e-21)
(0.0529393 -0.00744672 6.23569e-22)
(0.0532087 -0.0075205 -1.36449e-21)
(0.0533294 -0.00761033 -1.41538e-21)
(0.0363969 -0.00752048 -3.17668e-21)
(0.0365866 -0.00760356 1.93962e-21)
(0.0367791 -0.00768255 -6.2098e-22)
(0.0369736 -0.00775708 2.3517e-21)
(0.0371697 -0.0078278 -2.92639e-21)
(0.037367 -0.00789438 -2.19348e-21)
(0.0375658 -0.00795687 2.72928e-21)
(0.0377657 -0.00801504 0)
(0.0379668 -0.00806886 -3.8952e-24)
(0.0381691 -0.00811836 0)
(0.0383723 -0.00816358 -4.60109e-22)
(0.0385762 -0.00820444 4.3843e-22)
(0.0387807 -0.00824091 2.06058e-21)
(0.0389858 -0.0082731 -1.63998e-21)
(0.0391917 -0.00830074 3.80685e-22)
(0.0393985 -0.0083241 1.06418e-21)
(0.0396061 -0.00834307 -3.60796e-22)
(0.0398143 -0.00835776 -3.23158e-22)
(0.040023 -0.00836827 -8.8668e-22)
(0.0402321 -0.0083745 5.86656e-22)
(0.0404413 -0.00837669 2.61586e-22)
(0.0406504 -0.00837475 -4.69496e-22)
(0.0408597 -0.00836882 2.48379e-22)
(0.041069 -0.00835888 2.02858e-22)
(0.0412784 -0.00834504 0)
(0.0414875 -0.00832759 -1.63792e-22)
(0.0416961 -0.00830653 -1.32294e-22)
(0.0419044 -0.00828187 1.5322e-22)
(0.0421124 -0.00825362 0)
(0.0423199 -0.00822222 -1.79433e-22)
(0.042527 -0.00818727 6.57442e-23)
(0.0427334 -0.00814978 -9.12379e-24)
(0.042939 -0.00810958 0)
(0.043144 -0.00806655 -7.51627e-24)
(0.0433485 -0.00802123 -2.06667e-23)
(0.0435521 -0.00797368 1.81977e-23)
(0.043755 -0.00792433 0)
(0.0439571 -0.00787316 5.0964e-23)
(0.0441591 -0.00782031 -5.70306e-23)
(0.0443611 -0.00776627 -1.15556e-23)
(0.044563 -0.00771109 0)
(0.0447651 -0.00765521 -3.19424e-23)
(0.044968 -0.00759865 -1.87488e-23)
(0.0451722 -0.00754174 1.93564e-23)
(0.0453783 -0.0074849 -1.2307e-22)
(0.0455865 -0.00742864 -9.29963e-23)
(0.0457979 -0.00737341 1.90647e-22)
(0.0460136 -0.00731982 -2.12797e-22)
(0.0462348 -0.00726844 2.19475e-22)
(0.0464631 -0.00722021 -2.19848e-22)
(0.0467011 -0.00717624 -2.33834e-22)
(0.0469522 -0.00713754 4.95614e-22)
(0.0472207 -0.00710557 0)
(0.047512 -0.00708216 5.24676e-22)
(0.0478317 -0.007069 -9.15134e-24)
(0.0481847 -0.00706774 -5.56057e-22)
(0.0485742 -0.00707945 -5.63645e-22)
(0.0489995 -0.0071041 1.11577e-21)
(0.0494554 -0.00714063 1.25908e-23)
(0.0499322 -0.00718654 5.61804e-22)
(0.0504178 -0.00723997 -1.12311e-21)
(0.0508983 -0.00730174 -5.44081e-22)
(0.0513583 -0.00737275 2.25023e-23)
(0.051784 -0.00745306 -5.61219e-22)
(0.0521657 -0.0075437 -5.8935e-22)
(0.0524933 -0.00764639 -1.73375e-21)
(0.0527444 -0.00775702 0)
(0.052895 -0.00785533 -6.59434e-22)
(0.052832 -0.00798588 6.47604e-22)
(0.0362494 -0.00786279 0)
(0.0364482 -0.00794707 6.46314e-22)
(0.0366499 -0.008027 3.10918e-21)
(0.0368535 -0.0081022 -2.47607e-21)
(0.0370592 -0.0081731 -1.73138e-21)
(0.0372667 -0.00823976 2.88186e-21)
(0.0374758 -0.00830199 -5.44698e-22)
(0.0376863 -0.00835971 5.28421e-22)
(0.0378979 -0.00841287 5.04055e-22)
(0.0381104 -0.00846147 1.90069e-21)
(0.0383238 -0.00850546 -1.89993e-21)
(0.0385379 -0.00854482 -1.73534e-21)
(0.0387526 -0.00857949 4.84537e-22)
(0.0389676 -0.00860951 1.61156e-21)
(0.0391829 -0.00863485 -1.16679e-21)
(0.0393985 -0.00865553 3.60712e-22)
(0.0396144 -0.00867162 -3.40026e-22)
(0.0398304 -0.00868313 -3.19409e-22)
(0.0400466 -0.00869016 8.84842e-22)
(0.0402627 -0.00869274 -3.04382e-22)
(0.0404787 -0.00869097 -2.63264e-22)
(0.0406944 -0.00868488 0)
(0.0409099 -0.00867459 -4.14886e-22)
(0.0411249 -0.00866021 2.18495e-22)
(0.0413394 -0.00864187 3.41574e-22)
(0.0415534 -0.00861973 2.80456e-22)
(0.0417667 -0.00859385 -5.8491e-22)
(0.0419793 -0.0085643 2.42022e-22)
(0.0421913 -0.00853128 0)
(0.0424024 -0.00849502 1.62248e-22)
(0.0426129 -0.00845564 -1.48018e-23)
(0.0428225 -0.00841347 -9.76522e-23)
(0.0430313 -0.00836853 1.07735e-23)
(0.0432395 -0.00832092 9.94081e-25)
(0.0434468 -0.0082711 3.10515e-24)
(0.0436534 -0.00821929 0)
(0.0438592 -0.0081657 0)
(0.0440646 -0.00811042 1.96587e-23)
(0.0442698 -0.00805371 2.13184e-23)
(0.0444749 -0.00799598 1.39326e-23)
(0.0446801 -0.00793744 -4.95594e-25)
(0.0448858 -0.00787832 1.65147e-23)
(0.0450924 -0.00781882 0)
(0.0453005 -0.00775938 -2.24422e-24)
(0.0455106 -0.0077005 0)
(0.0457236 -0.00764258 9.4418e-23)
(0.0459403 -0.0075861 7.25196e-24)
(0.0461623 -0.00753178 -3.18964e-22)
(0.0463914 -0.00748054 0)
(0.0466298 -0.0074334 -2.38817e-22)
(0.0468809 -0.00739158 2.34393e-22)
(0.0471487 -0.00735646 -4.925e-22)
(0.0474377 -0.00732956 0)
(0.0477528 -0.00731244 -1.58093e-21)
(0.0480977 -0.00730625 -8.48027e-24)
(0.0484744 -0.00731159 5.28802e-22)
(0.0488816 -0.00732831 5.3316e-22)
(0.0493139 -0.00735553 0)
(0.0497619 -0.00739192 0)
(0.0502135 -0.00743598 -5.48613e-22)
(0.0506554 -0.0074872 1.09769e-21)
(0.051075 -0.00754674 1.09937e-21)
(0.0514605 -0.00761689 0)
(0.0518023 -0.00769994 -1.07494e-21)
(0.0520921 -0.00779793 0)
(0.052319 -0.0079113 1.73627e-21)
(0.0524561 -0.00803549 -5.74207e-22)
(0.0524626 -0.00814702 -6.28724e-22)
(0.0521864 -0.0082899 -6.014e-22)
(0.0361014 -0.00822524 0)
(0.0363098 -0.00831043 0)
(0.0365211 -0.008391 6.46759e-22)
(0.0367343 -0.00846655 -2.44409e-21)
(0.0369496 -0.00853746 3.03955e-21)
(0.0371669 -0.00860383 -5.74701e-22)
(0.0373861 -0.00866552 0)
(0.0376067 -0.0087224 -5.31931e-22)
(0.0378286 -0.00877445 0)
(0.0380515 -0.00882164 -9.5974e-22)
(0.0382752 -0.00886394 4.12972e-23)
(0.0384997 -0.0089013 9.15376e-22)
(0.0387246 -0.00893373 0)
(0.0389497 -0.00896121 -7.87151e-22)
(0.039175 -0.00898375 2.29646e-21)
(0.0394003 -0.00900139 -1.44941e-21)
(0.0396255 -0.00901417 1.70352e-21)
(0.0398505 -0.00902214 -3.38717e-22)
(0.0400751 -0.00902537 2.95325e-22)
(0.0402993 -0.00902393 -2.79873e-22)
(0.040523 -0.00901792 -2.38818e-22)
(0.0407461 -0.00900742 7.24607e-22)
(0.0409684 -0.00899256 4.29317e-22)
(0.04119 -0.00897348 0)
(0.0414108 -0.0089503 -3.26706e-22)
(0.0416305 -0.00892319 -1.15376e-22)
(0.0418493 -0.00889228 4.24236e-22)
(0.0420671 -0.00885774 -1.17064e-22)
(0.0422838 -0.00881974 1.63365e-22)
(0.0424994 -0.00877849 -2.40862e-22)
(0.042714 -0.00873418 4.52936e-23)
(0.0429275 -0.00868704 -1.23115e-23)
(0.04314 -0.00863716 0)
(0.0433516 -0.00858481 -2.43844e-24)
(0.0435623 -0.00853032 -1.21584e-23)
(0.0437721 -0.00847392 0)
(0.0439812 -0.00841584 3.61816e-23)
(0.0441898 -0.0083563 -6.59812e-23)
(0.0443982 -0.00829559 4.57438e-23)
(0.0446065 -0.00823401 -2.9162e-23)
(0.0448151 -0.00817184 -5.76864e-25)
(0.0450244 -0.00810936 -2.85933e-23)
(0.0452348 -0.00804689 9.50555e-24)
(0.0454472 -0.00798487 4.21895e-23)
(0.0456621 -0.00792377 -1.25837e-24)
(0.0458808 -0.00786415 2.93091e-22)
(0.0461047 -0.00780668 0)
(0.0463356 -0.00775224 2.15297e-22)
(0.0465761 -0.0077019 2.53225e-24)
(0.0468291 -0.00765684 -2.30773e-22)
(0.0470984 -0.00761837 0)
(0.0473879 -0.00758783 -2.57473e-22)
(0.0477014 -0.00756635 2.51298e-22)
(0.0480415 -0.00755472 5.1858e-22)
(0.048409 -0.00755315 0)
(0.0488016 -0.00756119 -1.0723e-21)
(0.0492135 -0.00757788 1.06765e-21)
(0.0496357 -0.00760205 -1.06671e-21)
(0.0500569 -0.00763278 -8.31456e-24)
(0.0504646 -0.00766978 0)
(0.0508471 -0.00771399 -5.33209e-22)
(0.0511942 -0.00776785 5.29064e-22)
(0.0514976 -0.00783482 5.14793e-22)
(0.05175 -0.0079183 1.07074e-21)
(0.051943 -0.00802076 -1.57217e-21)
(0.0520618 -0.00814132 1.08307e-21)
(0.0520695 -0.00827308 -5.52139e-22)
(0.0519014 -0.00838583 5.19428e-22)
(0.0513551 -0.00852142 1.8823e-21)
(0.0359535 -0.00861052 -2.70097e-21)
(0.0361719 -0.0086964 8.37225e-23)
(0.0363933 -0.00877735 2.66668e-21)
(0.0366166 -0.00885293 0)
(0.0368419 -0.00892356 -6.05584e-22)
(0.0370694 -0.00898933 0)
(0.0372987 -0.00905011 1.10352e-21)
(0.0375295 -0.00910577 -4.34661e-23)
(0.0377616 -0.00915627 -1.57308e-21)
(0.0379948 -0.0092016 4.94248e-22)
(0.0382289 -0.00924173 4.71295e-22)
(0.0384637 -0.00927663 4.48098e-22)
(0.0386989 -0.00930631 0)
(0.0389342 -0.00933076 0)
(0.0391696 -0.00935001 -3.83156e-22)
(0.0394049 -0.00936409 -3.61354e-22)
(0.0396397 -0.00937305 6.52992e-22)
(0.0398741 -0.00937696 -6.53356e-22)
(0.0401078 -0.0093759 -5.86739e-22)
(0.0403408 -0.00936996 5.22176e-22)
(0.0405729 -0.00935924 -1.00972e-21)
(0.040804 -0.00934387 3.55322e-23)
(0.0410339 -0.00932399 4.28366e-22)
(0.0412628 -0.00929973 1.81266e-22)
(0.0414903 -0.00927128 3.08905e-22)
(0.0417166 -0.00923878 -3.09971e-22)
(0.0419415 -0.00920244 -2.24979e-22)
(0.042165 -0.00916244 2.25944e-22)
(0.042387 -0.00911896 0)
(0.0426077 -0.00907224 0)
(0.042827 -0.0090225 -9.10822e-23)
(0.0430449 -0.00896999 2.72414e-23)
(0.0432617 -0.0089148 8.29707e-24)
(0.0434772 -0.00885727 -3.20214e-23)
(0.0436916 -0.00879772 3.16217e-23)
(0.043905 -0.00873642 0)
(0.0441177 -0.00867363 -3.60579e-23)
(0.0443298 -0.00860961 -7.73109e-23)
(0.0445418 -0.00854467 5.12735e-23)
(0.0447538 -0.0084791 -1.45683e-24)
(0.0449663 -0.00841325 -6.00789e-24)
(0.0451799 -0.00834744 2.81293e-23)
(0.0453952 -0.00828211 2.19281e-23)
(0.0456132 -0.00821773 4.74971e-23)
(0.045835 -0.0081549 -2.42498e-22)
(0.0460622 -0.00809432 -1.31796e-24)
(0.0462967 -0.00803686 0)
(0.0465411 -0.00798351 -2.30283e-22)
(0.0467981 -0.00793541 7.09398e-22)
(0.0470712 -0.00789372 -4.814e-22)
(0.0473636 -0.00785949 -2.53985e-22)
(0.047678 -0.00783351 -9.28142e-24)
(0.048016 -0.00781615 -2.64703e-22)
(0.0483769 -0.00780719 -2.01801e-23)
(0.0487576 -0.00780589 5.13758e-22)
(0.0491519 -0.00781115 -5.28266e-22)
(0.0495512 -0.0078218 -5.3112e-22)
(0.0499449 -0.00783708 1.04076e-21)
(0.0503218 -0.00785697 7.21295e-24)
(0.0506711 -0.00788256 5.19001e-22)
(0.0509834 -0.00791616 -5.04225e-22)
(0.0512511 -0.00796133 5.12274e-22)
(0.0514679 -0.00802235 -1.02684e-21)
(0.0516271 -0.00810319 -5.09824e-22)
(0.0517179 -0.00820603 1.04444e-21)
(0.0517183 -0.0083281 -4.87748e-22)
(0.0515753 -0.00845819 -1.56232e-21)
(0.0511897 -0.00855618 -6.1266e-22)
(0.0502942 -0.00866342 0)
(0.0358067 -0.00902043 0)
(0.0360357 -0.00910689 -6.92096e-22)
(0.0362677 -0.00918802 6.70187e-24)
(0.0365017 -0.00926339 0)
(0.0367377 -0.00933345 0)
(0.0369758 -0.00939829 -5.93513e-22)
(0.0372157 -0.00945779 1.68211e-21)
(0.0374571 -0.00951182 -2.17584e-21)
(0.0376998 -0.00956035 1.06243e-21)
(0.0379435 -0.00960336 -4.96141e-22)
(0.0381881 -0.00964083 0)
(0.0384333 -0.00967276 -4.49729e-22)
(0.0386789 -0.00969914 4.23587e-22)
(0.0389245 -0.00972 0)
(0.0391701 -0.00973536 0)
(0.0394153 -0.00974529 -3.36147e-22)
(0.0396601 -0.00974983 4.5875e-23)
(0.0399041 -0.00974908 6.43258e-22)
(0.0401471 -0.00974312 5.60095e-22)
(0.0403892 -0.00973208 -5.52897e-22)
(0.04063 -0.00971607 -2.46791e-22)
(0.0408695 -0.00969524 -8.58843e-22)
(0.0411075 -0.00966975 2.34711e-23)
(0.041344 -0.00963977 1.4959e-22)
(0.0415789 -0.00960549 -3.3208e-22)
(0.041812 -0.0095671 1.17809e-22)
(0.0420434 -0.00952482 -2.45601e-22)
(0.0422731 -0.00947885 0)
(0.042501 -0.00942943 0)
(0.0427272 -0.00937681 0)
(0.0429516 -0.00932122 1.6533e-23)
(0.0431744 -0.00926294 2.06904e-24)
(0.0433958 -0.0092021 4.79494e-24)
(0.0436157 -0.0091391 4.49586e-23)
(0.0438343 -0.00907426 -4.43981e-23)
(0.0440519 -0.00900786 0)
(0.0442688 -0.00894021 4.9632e-23)
(0.0444851 -0.00887161 -2.37761e-23)
(0.0447015 -0.00880239 0)
(0.0449182 -0.00873291 3.46789e-23)
(0.0451359 -0.00866355 -7.32788e-24)
(0.0453555 -0.00859476 4.95683e-24)
(0.0455779 -0.00852706 -2.17623e-23)
(0.0458044 -0.00846106 0)
(0.0460367 -0.00839749 -1.05091e-22)
(0.0462768 -0.00833719 1.03259e-22)
(0.0465272 -0.00828112 0)
(0.0467904 -0.00823025 -1.08158e-23)
(0.0470695 -0.00818551 -1.98181e-24)
(0.0473667 -0.00814765 2.41265e-22)
(0.0476839 -0.00811707 0)
(0.0480213 -0.00809367 -7.40028e-24)
(0.0483772 -0.00807687 -2.53598e-22)
(0.0487477 -0.00806565 -7.86437e-22)
(0.0491263 -0.00805874 -1.45281e-23)
(0.0495049 -0.00805498 5.1172e-22)
(0.0498736 -0.00805366 0)
(0.0502225 -0.00805484 0)
(0.0505419 -0.00805963 5.06632e-22)
(0.0508233 -0.00807027 0)
(0.0510594 -0.00809017 0)
(0.0512443 -0.00812366 5.55347e-24)
(0.0513721 -0.00817544 -4.91695e-22)
(0.0514346 -0.00824945 -9.77239e-22)
(0.051416 -0.00834687 9.80195e-22)
(0.051283 -0.00846194 6.88594e-23)
(0.0509573 -0.00857698 5.59806e-22)
(0.050291 -0.00864102 5.32515e-22)
(0.0489434 -0.00869014 0)
(0.0356609 -0.00945681 0)
(0.0359015 -0.00954376 6.93541e-22)
(0.0361451 -0.00962493 -1.98927e-21)
(0.0363906 -0.00969991 6.67859e-22)
(0.036638 -0.00976915 0)
(0.0368875 -0.00983278 1.76382e-21)
(0.0371387 -0.00989066 -2.85496e-21)
(0.0373914 -0.00994268 4.76676e-23)
(0.0376452 -0.00998882 2.60586e-21)
(0.0379 -0.0100291 -5.21485e-22)
(0.0381555 -0.0100634 4.69866e-22)
(0.0384115 -0.0100918 4.44768e-22)
(0.0386678 -0.0101143 -1.24544e-21)
(0.038924 -0.010131 1.59293e-21)
(0.0391799 -0.0101419 -7.72059e-22)
(0.0394354 -0.010147 3.23301e-22)
(0.0396901 -0.0101465 -1.30533e-21)
(0.0399439 -0.0101405 3.31214e-22)
(0.0401965 -0.010129 -2.51704e-22)
(0.0404478 -0.0101122 2.97269e-22)
(0.0406976 -0.0100902 4.64813e-23)
(0.0409457 -0.0100633 1.26018e-21)
(0.041192 -0.0100315 1.47056e-22)
(0.0414364 -0.00999521 -4.55012e-23)
(0.0416789 -0.0099545 -4.44063e-22)
(0.0419193 -0.00990964 1.26798e-22)
(0.0421576 -0.00986085 -1.75429e-22)
(0.0423937 -0.0098084 2.45382e-22)
(0.0426278 -0.00975254 0)
(0.0428599 -0.00969354 2.30608e-23)
(0.0430899 -0.00963169 -2.31692e-23)
(0.0433181 -0.00956723 7.60944e-24)
(0.0435446 -0.00950042 -1.8741e-23)
(0.0437695 -0.00943168 -2.85432e-23)
(0.0439931 -0.00936132 1.15414e-22)
(0.0442157 -0.00928969 -7.64985e-23)
(0.0444376 -0.00921713 8.38421e-23)
(0.0446594 -0.00914399 -1.19556e-22)
(0.0448816 -0.00907069 6.33111e-23)
(0.0451049 -0.00899764 -1.79573e-23)
(0.0453302 -0.00892535 0)
(0.0455587 -0.00885437 2.31121e-23)
(0.0457918 -0.00878535 -2.27409e-23)
(0.0460313 -0.00871902 -5.20157e-23)
(0.0462792 -0.00865619 1.60207e-22)
(0.0465377 -0.00859769 -1.06742e-22)
(0.0468092 -0.00854431 -1.11364e-22)
(0.0470958 -0.00849667 0)
(0.0473992 -0.00845515 -4.96352e-22)
(0.0477201 -0.00841971 4.94874e-22)
(0.0480574 -0.00838986 -2.46252e-22)
(0.0484087 -0.00836468 2.40123e-22)
(0.0487694 -0.00834292 2.50077e-22)
(0.0491331 -0.00832324 5.03527e-22)
(0.0494921 -0.00830449 5.04669e-22)
(0.0498377 -0.00828599 0)
(0.050161 -0.0082678 -5.09787e-22)
(0.0504536 -0.00825091 0)
(0.0507076 -0.00823734 4.5116e-24)
(0.0509164 -0.00823018 -4.9187e-22)
(0.0510742 -0.00823346 4.88967e-22)
(0.0511752 -0.00825188 4.92278e-22)
(0.0512124 -0.0082901 -4.81492e-22)
(0.0511739 -0.0083514 1.34103e-23)
(0.0510352 -0.00843492 -8.76554e-24)
(0.0507455 -0.00853044 1.4852e-21)
(0.0501885 -0.00861132 4.74029e-22)
(0.0491499 -0.00861514 5.05197e-22)
(0.0471941 -0.00855795 -5.24725e-22)
(0.0355154 -0.00992196 0)
(0.035769 -0.0100093 0)
(0.0360254 -0.0100904 -1.32974e-21)
(0.0362835 -0.0101648 1.97452e-21)
(0.0365435 -0.010233 6.25308e-22)
(0.0368054 -0.0102951 0)
(0.0370689 -0.0103511 0)
(0.0373336 -0.0104007 -5.4488e-22)
(0.0375995 -0.0104441 1.01464e-21)
(0.0378661 -0.0104811 -5.3024e-23)
(0.0381333 -0.0105118 -2.34226e-21)
(0.0384007 -0.0105362 4.65403e-22)
(0.0386683 -0.0105543 -3.9583e-22)
(0.0389355 -0.0105662 8.08544e-22)
(0.0392023 -0.010572 -3.62287e-22)
(0.0394684 -0.0105717 0)
(0.0397335 -0.0105655 0)
(0.0399974 -0.0105534 2.30715e-23)
(0.0402598 -0.0105357 8.24378e-22)
(0.0405206 -0.0105124 -2.5009e-22)
(0.0407796 -0.0104838 2.14281e-22)
(0.0410366 -0.0104501 -2.03551e-22)
(0.0412914 -0.0104114 -1.58588e-22)
(0.0415441 -0.010368 1.8244e-22)
(0.0417944 -0.0103202 1.35367e-22)
(0.0420423 -0.0102683 0)
(0.0422877 -0.0102124 0)
(0.0425308 -0.0101529 -9.56185e-23)
(0.0427715 -0.0100901 0)
(0.0430099 -0.0100242 -7.31088e-24)
(0.043246 -0.00995569 7.34083e-24)
(0.0434802 -0.0098847 -8.41207e-24)
(0.0437125 -0.00981166 1.85343e-23)
(0.0439433 -0.00973699 6.46543e-23)
(0.0441729 -0.00966106 -3.74952e-23)
(0.0444018 -0.00958426 -5.46746e-23)
(0.0446305 -0.00950701 5.78717e-23)
(0.0448597 -0.00942976 0)
(0.0450903 -0.009353 0)
(0.0453233 -0.00927726 2.12379e-23)
(0.0455599 -0.00920317 0)
(0.0458018 -0.00913137 0)
(0.0460506 -0.00906257 -7.73668e-23)
(0.0463083 -0.00899748 1.04735e-22)
(0.0465769 -0.00893675 -5.64132e-23)
(0.046858 -0.0088809 1.10694e-22)
(0.0471532 -0.00883022 0)
(0.047463 -0.00878465 3.69058e-22)
(0.0477871 -0.00874377 6.24046e-25)
(0.0481237 -0.00870673 0)
(0.0484694 -0.00867238 -5.02895e-22)
(0.0488196 -0.00863937 -4.69881e-25)
(0.049168 -0.00860636 -4.9842e-22)
(0.0495078 -0.00857225 -2.57481e-22)
(0.0498312 -0.00853641 -5.11753e-22)
(0.0501307 -0.00849885 4.97247e-22)
(0.0503988 -0.00846037 4.96525e-22)
(0.0506287 -0.00842263 0)
(0.0508142 -0.00838825 -4.97804e-22)
(0.0509496 -0.00836071 -8.01989e-25)
(0.0510294 -0.00834423 0)
(0.0510469 -0.00834339 0)
(0.0509918 -0.0083622 4.92446e-22)
(0.0508456 -0.00840242 0)
(0.0505702 -0.00845968 0)
(0.0500867 -0.00851732 -4.95699e-22)
(0.0492243 -0.00853719 -5.36075e-22)
(0.0476867 -0.00843937 -4.62544e-22)
(0.0449191 -0.00821155 0)
(0.03537 -0.0104187 0)
(0.0356378 -0.0105063 0)
(0.0359085 -0.0105871 0)
(0.0361805 -0.0106607 6.52422e-22)
(0.0364544 -0.0107276 5.99489e-22)
(0.0367299 -0.010788 -5.16673e-23)
(0.0370069 -0.0108417 -1.16527e-21)
(0.0372849 -0.0108886 5.43302e-22)
(0.0375638 -0.0109287 -5.13024e-22)
(0.0378433 -0.010962 -9.75931e-22)
(0.0381231 -0.0109886 0)
(0.038403 -0.0110084 0)
(0.0386826 -0.0110216 -2.4492e-23)
(0.0389618 -0.0110281 -1.16869e-21)
(0.0392401 -0.0110282 1.40034e-21)
(0.0395175 -0.0110218 -5.07331e-23)
(0.0397935 -0.0110091 -6.3665e-22)
(0.0400681 -0.0109904 -2.86006e-22)
(0.0403408 -0.0109656 -1.30403e-23)
(0.0406116 -0.0109352 0)
(0.0408802 -0.0108992 -4.12139e-22)
(0.0411465 -0.0108579 0)
(0.0414103 -0.0108116 -3.16641e-22)
(0.0416715 -0.0107605 3.90732e-22)
(0.0419301 -0.010705 -3.51713e-22)
(0.0421859 -0.0106453 -8.0388e-23)
(0.0424391 -0.0105817 8.45508e-23)
(0.0426895 -0.0105146 -6.3071e-23)
(0.0429374 -0.0104443 3.36689e-23)
(0.0431828 -0.0103713 0)
(0.0434259 -0.0102957 -3.13901e-23)
(0.043667 -0.0102181 -4.63608e-23)
(0.0439065 -0.0101387 5.11196e-23)
(0.0441446 -0.0100582 -8.06852e-23)
(0.0443821 -0.00997701 5.36514e-23)
(0.0446195 -0.00989553 -5.29218e-23)
(0.0448577 -0.0098143 -3.0799e-23)
(0.0450976 -0.00973389 3.88055e-23)
(0.0453405 -0.00965488 2.10137e-23)
(0.0455876 -0.00957789 -6.22934e-23)
(0.0458404 -0.00950355 -6.07788e-24)
(0.0461007 -0.00943246 0)
(0.0463699 -0.00936516 2.51238e-23)
(0.0466495 -0.00930205 -5.25976e-23)
(0.0469408 -0.00924333 5.46698e-23)
(0.047244 -0.00918889 0)
(0.0475591 -0.00913832 0)
(0.0478847 -0.00909086 1.29481e-22)
(0.0482182 -0.00904545 -2.4077e-22)
(0.0485562 -0.00900083 -5.08198e-22)
(0.0488939 -0.00895568 1.00286e-21)
(0.0492258 -0.00890876 -2.56013e-22)
(0.0495458 -0.00885907 2.48271e-22)
(0.0498473 -0.00880604 2.48411e-22)
(0.0501239 -0.0087496 -5.1006e-22)
(0.0503694 -0.00869033 4.98323e-22)
(0.0505778 -0.00862949 0)
(0.0507435 -0.00856909 -5.09014e-22)
(0.0508611 -0.00851191 5.1747e-24)
(0.0509251 -0.00846139 5.00601e-22)
(0.050929 -0.00842145 0)
(0.0508636 -0.00839591 0)
(0.0507134 -0.00838731 0)
(0.0504485 -0.00839449 9.74544e-22)
(0.0500092 -0.00840745 4.56713e-22)
(0.0492715 -0.00840083 4.66752e-22)
(0.0479909 -0.00832191 -9.93459e-22)
(0.0457554 -0.00807286 4.77739e-23)
(0.0418642 -0.00766921 4.674e-22)
(0.0352252 -0.0109505 0)
(0.0355087 -0.011038 1.38625e-21)
(0.0357948 -0.0111183 -1.72114e-21)
(0.0360822 -0.0111908 9.47704e-22)
(0.0363713 -0.0112562 -1.88803e-21)
(0.0366619 -0.0113145 -5.90731e-22)
(0.0369537 -0.0113655 -5.61722e-22)
(0.0372463 -0.0114093 0)
(0.0375396 -0.0114458 1.01405e-21)
(0.0378332 -0.0114749 9.3947e-22)
(0.0381268 -0.0114969 -9.30957e-22)
(0.0384202 -0.0115116 4.19399e-22)
(0.0387131 -0.0115192 -3.66502e-22)
(0.0390051 -0.0115197 4.27977e-22)
(0.0392961 -0.0115133 1.36268e-21)
(0.0395856 -0.0115002 -5.21116e-23)
(0.0398735 -0.0114804 -5.1664e-23)
(0.0401595 -0.0114542 -5.56155e-22)
(0.0404434 -0.0114217 -2.46559e-22)
(0.0407249 -0.0113833 -4.04237e-22)
(0.0410039 -0.0113392 4.20924e-22)
(0.0412802 -0.0112897 0)
(0.0415536 -0.0112351 1.76928e-23)
(0.0418241 -0.0111756 0)
(0.0420917 -0.0111117 1.02433e-22)
(0.0423563 -0.0110437 7.9542e-23)
(0.0426179 -0.010972 -2.84843e-23)
(0.0428767 -0.0108969 0)
(0.0431329 -0.0108189 3.55921e-24)
(0.0433866 -0.0107385 2.8863e-23)
(0.0436382 -0.0106559 -2.87779e-23)
(0.0438881 -0.0105717 2.51393e-23)
(0.0441368 -0.0104865 -8.83651e-23)
(0.0443849 -0.0104007 1.84153e-22)
(0.0446333 -0.010315 -5.23501e-23)
(0.0448828 -0.0102299 0)
(0.0451345 -0.010146 -3.88075e-23)
(0.0453896 -0.0100639 4.4855e-24)
(0.0456493 -0.00998408 6.57646e-23)
(0.045915 -0.00990717 -5.63824e-23)
(0.046188 -0.00983357 1.12823e-23)
(0.0464694 -0.00976356 -4.00619e-23)
(0.04676 -0.00969723 2.60444e-23)
(0.0470601 -0.00963442 0)
(0.0473694 -0.00957473 0)
(0.0476868 -0.00951745 0)
(0.0480104 -0.00946164 1.23572e-22)
(0.0483375 -0.00940618 1.2531e-22)
(0.0486645 -0.00934987 0)
(0.048987 -0.00929152 2.45308e-22)
(0.0493003 -0.00923006 2.57629e-22)
(0.0495993 -0.00916464 2.57773e-22)
(0.0498786 -0.00909476 0)
(0.0501328 -0.00902028 0)
(0.0503569 -0.00894153 -5.14152e-22)
(0.0505457 -0.00885936 5.05793e-22)
(0.0506942 -0.00877518 0)
(0.0507976 -0.00869094 5.08005e-22)
(0.0508505 -0.00860917 -5.10945e-22)
(0.0508468 -0.0085328 -5.25954e-22)
(0.0507779 -0.00846481 5.1531e-22)
(0.0506302 -0.00840742 -5.26128e-22)
(0.050379 -0.0083604 0)
(0.049976 -0.00831758 -5.19529e-22)
(0.0493258 -0.00826046 -2.57106e-23)
(0.0482374 -0.00815191 -1.01777e-21)
(0.0463698 -0.00792055 -9.46069e-22)
(0.0431589 -0.00746327 1.01804e-21)
(0.0379149 -0.00688001 -5.21435e-22)
(0.0350826 -0.0115215 3.56417e-22)
(0.0353829 -0.0116088 0)
(0.0356858 -0.0116883 3.35768e-22)
(0.03599 -0.0117595 -1.57854e-21)
(0.0362957 -0.0118229 2.76013e-21)
(0.0366027 -0.0118787 -6.09992e-22)
(0.0369108 -0.0119267 5.5619e-22)
(0.0372195 -0.0119669 -1.02204e-21)
(0.0375286 -0.0119992 5.20596e-22)
(0.0378377 -0.0120237 4.70917e-22)
(0.0381466 -0.0120405 4.32684e-22)
(0.0384549 -0.0120495 -1.20808e-21)
(0.0387624 -0.0120509 4.16566e-22)
(0.0390687 -0.0120447 -1.02864e-21)
(0.0393735 -0.0120313 -2.79458e-22)
(0.0396765 -0.0120106 5.33026e-23)
(0.0399775 -0.011983 5.72654e-22)
(0.0402761 -0.0119486 0)
(0.0405723 -0.0119078 0)
(0.0408657 -0.0118608 1.8498e-22)
(0.0411562 -0.0118079 1.78382e-22)
(0.0414436 -0.0117495 2.65512e-22)
(0.0417279 -0.011686 -1.35883e-22)
(0.042009 -0.0116177 -1.6954e-22)
(0.0422869 -0.011545 1.69637e-22)
(0.0425617 -0.0114684 -1.91847e-23)
(0.0428335 -0.0113883 -7.74956e-24)
(0.0431025 -0.0113052 0)
(0.0433691 -0.0112196 -3.49333e-24)
(0.0436335 -0.0111321 -4.91011e-23)
(0.0438963 -0.011043 -2.05863e-23)
(0.044158 -0.010953 6.83251e-23)
(0.0444194 -0.0108627 -5.40245e-23)
(0.0446813 -0.0107728 0)
(0.0449446 -0.0106839 3.52531e-23)
(0.0452104 -0.0105965 -3.89739e-23)
(0.0454797 -0.010511 3.7507e-23)
(0.0457536 -0.0104281 -8.64058e-23)
(0.046033 -0.0103479 0)
(0.0463186 -0.0102707 -1.27807e-23)
(0.046611 -0.0101964 1.28193e-23)
(0.0469103 -0.0101249 -2.15766e-23)
(0.047216 -0.0100558 8.35232e-23)
(0.0475273 -0.00998842 -1.71889e-22)
(0.0478426 -0.00992193 1.13538e-22)
(0.0481597 -0.00985541 1.21491e-22)
(0.0484758 -0.00978784 -1.11105e-22)
(0.0487878 -0.00971818 2.566e-22)
(0.049092 -0.00964545 -2.4314e-22)
(0.0493844 -0.00956881 -6.27306e-22)
(0.0496608 -0.00948759 1.57393e-24)
(0.0499171 -0.00940131 -2.4895e-22)
(0.0501489 -0.00930981 0)
(0.0503521 -0.0092132 0)
(0.0505224 -0.00911193 -5.25738e-22)
(0.0506556 -0.00900683 7.82072e-22)
(0.0507474 -0.00889907 -5.27515e-22)
(0.0507929 -0.00879023 0)
(0.0507864 -0.0086821 5.53239e-22)
(0.0507201 -0.00857653 1.08575e-21)
(0.0505817 -0.00847468 -5.40457e-22)
(0.05035 -0.00837588 1.67307e-23)
(0.0499847 -0.00827517 5.69414e-22)
(0.0494067 -0.00815832 -2.77237e-23)
(0.0484624 -0.00799531 -1.09697e-21)
(0.0468699 -0.0077341 1.10724e-21)
(0.0441598 -0.0072892 5.33751e-22)
(0.0396396 -0.00658865 0)
(0.0329799 -0.00591037 0)
(0.0349443 -0.0121371 -3.50947e-22)
(0.0352629 -0.012224 -1.70142e-21)
(0.0355841 -0.0123024 1.35169e-21)
(0.0359066 -0.0123719 0)
(0.0362304 -0.0124331 3.01144e-22)
(0.0365555 -0.0124861 1.11126e-21)
(0.0368814 -0.0125306 -8.40834e-22)
(0.0372078 -0.0125668 1.24275e-21)
(0.0375344 -0.0125945 -9.88269e-22)
(0.0378607 -0.0126138 0)
(0.0381865 -0.0126248 -2.19513e-22)
(0.0385114 -0.0126275 0)
(0.0388351 -0.0126222 -3.28453e-22)
(0.0391573 -0.0126088 1.03826e-21)
(0.0394776 -0.0125876 0)
(0.0397958 -0.0125589 0)
(0.0401116 -0.0125229 0)
(0.0404247 -0.0124798 3.16029e-22)
(0.0407349 -0.01243 -4.2252e-22)
(0.041042 -0.0123739 -1.81678e-22)
(0.0413459 -0.0123119 0)
(0.0416465 -0.0122442 0)
(0.0419437 -0.0121715 0)
(0.0422376 -0.0120942 1.53254e-22)
(0.0425283 -0.0120127 -1.61042e-22)
(0.0428159 -0.0119277 5.69226e-23)
(0.0431007 -0.0118395 3.21566e-24)