/*--------------------------------*- C++ -*----------------------------------*\
| =========                 |                                                 |
| \\      /  F ield         | OpenFOAM: The Open Source CFD Toolbox           |
|  \\    /   O peration     | Version:  2312                                  |
|   \\  /    A nd           | Website:  www.openfoam.com                      |
|    \\/     M anipulation  |                                                 |
\*---------------------------------------------------------------------------*/
FoamFile
{
    version     2.0;
    format      ascii;
    arch        "LSB;label=32;scalar=64";
    class       volScalarField;
    location    "100";
    object      k;
}
// * * * * * * * * * * * * * * * * * * * * * * * * * * * * * * * * * * * * * //

dimensions      [0 2 -2 0 0 0 0];

internalField   nonuniform List<scalar> 
76025
(
4.8049e-06
4.80527e-06
4.80532e-06
4.80531e-06
4.80503e-06
4.80551e-06
4.80557e-06
4.8065e-06
4.80687e-06
4.80767e-06
4.80832e-06
4.80904e-06
4.81027e-06
4.81112e-06
4.81258e-06
4.81417e-06
4.81569e-06
4.81812e-06
4.81991e-06
4.82248e-06
4.82513e-06
4.82845e-06
4.83149e-06
4.83507e-06
4.83908e-06
4.84311e-06
4.84834e-06
4.8528e-06
4.85865e-06
4.86421e-06
4.87007e-06
4.87672e-06
4.88461e-06
4.89298e-06
4.90248e-06
4.91223e-06
4.92444e-06
4.93682e-06
4.9522e-06
4.96778e-06
4.98695e-06
5.00868e-06
5.03578e-06
5.06763e-06
5.10808e-06
5.15691e-06
5.21907e-06
5.29911e-06
5.39771e-06
5.52093e-06
5.66999e-06
5.83922e-06
6.03642e-06
6.25504e-06
6.53417e-06
6.82186e-06
7.1536e-06
7.51032e-06
7.86902e-06
8.27109e-06
8.60609e-06
8.94714e-06
9.28e-06
9.6e-06
9.90279e-06
1.01765e-05
1.05403e-05
1.07811e-05
1.11381e-05
4.83484e-06
4.83583e-06
4.83653e-06
4.83724e-06
4.83754e-06
4.8383e-06
4.83873e-06
4.83966e-06
4.84047e-06
4.84163e-06
4.84299e-06
4.8442e-06
4.84546e-06
4.84677e-06
4.8484e-06
4.85019e-06
4.85229e-06
4.85467e-06
4.8573e-06
4.86001e-06
4.863e-06
4.86623e-06
4.86974e-06
4.87347e-06
4.87776e-06
4.88209e-06
4.88715e-06
4.89242e-06
4.89823e-06
4.90461e-06
4.91165e-06
4.91909e-06
4.92759e-06
4.93672e-06
4.94697e-06
4.95843e-06
4.9712e-06
4.98591e-06
5.00254e-06
5.02191e-06
5.0447e-06
5.07178e-06
5.10483e-06
5.14496e-06
5.19478e-06
5.25624e-06
5.33286e-06
5.42722e-06
5.54266e-06
5.68344e-06
5.85034e-06
6.05048e-06
6.28222e-06
6.55571e-06
6.85497e-06
7.18514e-06
7.53416e-06
7.89034e-06
8.25266e-06
8.58899e-06
8.92271e-06
9.2428e-06
9.55425e-06
9.84201e-06
1.01187e-05
1.04177e-05
1.07774e-05
1.10344e-05
1.14353e-05
4.86579e-06
4.86749e-06
4.86901e-06
4.87058e-06
4.87189e-06
4.87325e-06
4.8745e-06
4.87584e-06
4.87715e-06
4.87865e-06
4.88035e-06
4.88202e-06
4.88358e-06
4.88493e-06
4.88644e-06
4.88819e-06
4.89048e-06
4.89319e-06
4.89635e-06
4.89972e-06
4.9033e-06
4.90699e-06
4.9109e-06
4.91499e-06
4.91948e-06
4.92425e-06
4.92951e-06
4.9352e-06
4.94148e-06
4.94835e-06
4.95603e-06
4.96445e-06
4.97388e-06
4.98433e-06
4.99614e-06
5.00943e-06
5.02463e-06
5.04204e-06
5.06228e-06
5.08608e-06
5.1145e-06
5.14876e-06
5.19063e-06
5.24193e-06
5.3052e-06
5.38303e-06
5.47868e-06
5.59502e-06
5.73574e-06
5.90309e-06
6.10075e-06
6.32877e-06
6.58998e-06
6.87707e-06
7.1882e-06
7.51654e-06
7.85437e-06
8.19649e-06
8.52835e-06
8.85719e-06
9.17197e-06
9.47875e-06
9.77711e-06
1.00559e-05
1.03461e-05
1.06609e-05
1.1013e-05
1.12729e-05
1.16275e-05
4.89927e-06
4.90107e-06
4.90295e-06
4.90495e-06
4.90697e-06
4.909e-06
4.91105e-06
4.91311e-06
4.91521e-06
4.9173e-06
4.91971e-06
4.92204e-06
4.92455e-06
4.92727e-06
4.92997e-06
4.93248e-06
4.93498e-06
4.93763e-06
4.94061e-06
4.94392e-06
4.94756e-06
4.95149e-06
4.9557e-06
4.9602e-06
4.96507e-06
4.97032e-06
4.97606e-06
4.98231e-06
4.98924e-06
4.99686e-06
5.0054e-06
5.01489e-06
5.02559e-06
5.03764e-06
5.05138e-06
5.06706e-06
5.08524e-06
5.10637e-06
5.13133e-06
5.16117e-06
5.19718e-06
5.24099e-06
5.2945e-06
5.35999e-06
5.43991e-06
5.53712e-06
5.65434e-06
5.79461e-06
5.96028e-06
6.15388e-06
6.37621e-06
6.62796e-06
6.90535e-06
7.20505e-06
7.52208e-06
7.85033e-06
8.18184e-06
8.50943e-06
8.83076e-06
9.14367e-06
9.44427e-06
9.74301e-06
1.00274e-05
1.03e-05
1.05964e-05
1.0923e-05
1.1268e-05
1.15159e-05
1.18667e-05
4.93768e-06
4.93918e-06
4.94087e-06
4.94276e-06
4.94483e-06
4.94705e-06
4.94943e-06
4.95193e-06
4.95457e-06
4.95728e-06
4.96025e-06
4.96332e-06
4.96656e-06
4.97002e-06
4.97351e-06
4.97686e-06
4.98004e-06
4.98316e-06
4.98639e-06
4.98986e-06
4.99365e-06
4.99781e-06
5.00236e-06
5.00734e-06
5.01279e-06
5.01877e-06
5.02534e-06
5.03255e-06
5.04056e-06
5.04944e-06
5.05939e-06
5.07057e-06
5.08324e-06
5.09771e-06
5.11436e-06
5.1337e-06
5.15635e-06
5.18305e-06
5.21497e-06
5.25341e-06
5.29993e-06
5.35634e-06
5.42476e-06
5.50748e-06
5.60701e-06
5.72594e-06
5.86687e-06
6.03207e-06
6.22339e-06
6.44173e-06
6.68675e-06
6.95571e-06
7.24494e-06
7.54987e-06
7.86451e-06
8.18226e-06
8.49774e-06
8.80903e-06
9.1139e-06
9.41172e-06
9.70205e-06
9.99123e-06
1.02622e-05
1.05391e-05
1.08563e-05
1.11995e-05
1.1525e-05
1.17635e-05
1.19826e-05
4.98178e-06
4.98312e-06
4.98463e-06
4.9863e-06
4.98817e-06
4.99023e-06
4.99252e-06
4.99501e-06
4.99773e-06
5.00063e-06
5.00375e-06
5.00706e-06
5.01056e-06
5.01425e-06
5.0181e-06
5.02202e-06
5.026e-06
5.03006e-06
5.03427e-06
5.0387e-06
5.04343e-06
5.0485e-06
5.05396e-06
5.05987e-06
5.0663e-06
5.07331e-06
5.08101e-06
5.08951e-06
5.09896e-06
5.10954e-06
5.12146e-06
5.13505e-06
5.15057e-06
5.16857e-06
5.18945e-06
5.21403e-06
5.24292e-06
5.27729e-06
5.31849e-06
5.36804e-06
5.42769e-06
5.49941e-06
5.58537e-06
5.68785e-06
5.80923e-06
5.95173e-06
6.11728e-06
6.30719e-06
6.52184e-06
6.76038e-06
7.0203e-06
7.29807e-06
7.58939e-06
7.8893e-06
8.19259e-06
8.49622e-06
8.798e-06
9.09729e-06
9.39227e-06
9.68111e-06
9.96689e-06
1.0247e-05
1.05146e-05
1.08132e-05
1.11569e-05
1.15002e-05
1.17831e-05
1.19572e-05
1.22736e-05
5.03007e-06
5.03155e-06
5.03315e-06
5.03488e-06
5.03676e-06
5.03882e-06
5.04108e-06
5.04355e-06
5.04627e-06
5.04922e-06
5.0524e-06
5.05577e-06
5.0593e-06
5.06295e-06
5.06673e-06
5.07064e-06
5.0747e-06
5.07896e-06
5.08352e-06
5.08842e-06
5.09375e-06
5.09954e-06
5.10586e-06
5.11276e-06
5.12032e-06
5.12863e-06
5.1378e-06
5.14803e-06
5.1595e-06
5.17252e-06
5.18733e-06
5.20447e-06
5.22423e-06
5.24745e-06
5.27451e-06
5.30663e-06
5.34434e-06
5.3893e-06
5.44302e-06
5.50715e-06
5.58356e-06
5.67422e-06
5.78117e-06
5.90637e-06
6.05162e-06
6.21823e-06
6.40692e-06
6.61746e-06
6.84874e-06
7.09836e-06
7.36336e-06
7.64013e-06
7.92491e-06
8.21433e-06
8.50621e-06
8.79967e-06
9.09296e-06
9.38557e-06
9.67302e-06
9.9561e-06
1.02389e-05
1.0512e-05
1.07951e-05
1.11283e-05
1.14841e-05
1.17951e-05
1.19884e-05
1.22164e-05
1.30114e-05
5.08446e-06
5.08611e-06
5.08784e-06
5.08965e-06
5.09156e-06
5.09359e-06
5.09579e-06
5.09818e-06
5.10081e-06
5.10374e-06
5.10699e-06
5.11056e-06
5.11444e-06
5.11856e-06
5.12289e-06
5.12738e-06
5.13204e-06
5.13688e-06
5.14196e-06
5.14735e-06
5.15316e-06
5.15946e-06
5.1664e-06
5.17407e-06
5.18265e-06
5.19228e-06
5.20318e-06
5.21565e-06
5.22995e-06
5.24656e-06
5.2658e-06
5.28838e-06
5.31473e-06
5.34582e-06
5.38225e-06
5.42521e-06
5.47553e-06
5.53499e-06
5.6051e-06
5.68745e-06
5.78372e-06
5.89551e-06
6.02431e-06
6.17128e-06
6.33723e-06
6.52231e-06
6.72614e-06
6.94747e-06
7.18457e-06
7.43513e-06
7.69674e-06
7.96688e-06
8.24352e-06
8.52508e-06
8.81126e-06
9.10076e-06
9.39072e-06
9.67901e-06
9.9619e-06
1.0246e-05
1.05294e-05
1.08076e-05
1.11263e-05
1.14854e-05
1.18191e-05
1.20423e-05
1.21858e-05
1.26483e-05
1.46877e-05
5.14233e-06
5.14434e-06
5.14645e-06
5.14867e-06
5.15101e-06
5.15348e-06
5.15609e-06
5.15885e-06
5.1618e-06
5.16498e-06
5.16846e-06
5.1723e-06
5.17654e-06
5.1812e-06
5.18628e-06
5.19177e-06
5.19767e-06
5.20398e-06
5.21072e-06
5.21796e-06
5.22576e-06
5.23427e-06
5.24359e-06
5.25394e-06
5.26549e-06
5.27853e-06
5.29337e-06
5.31043e-06
5.33006e-06
5.35285e-06
5.37926e-06
5.41003e-06
5.44579e-06
5.48738e-06
5.5357e-06
5.59156e-06
5.65616e-06
5.73107e-06
5.81758e-06
5.91699e-06
6.03047e-06
6.1591e-06
6.30366e-06
6.46467e-06
6.64221e-06
6.83594e-06
7.04516e-06
7.26868e-06
7.50526e-06
7.75329e-06
8.01142e-06
8.27817e-06
8.55256e-06
8.83414e-06
9.1221e-06
9.41207e-06
9.70103e-06
9.98806e-06
1.0274e-05
1.05645e-05
1.08491e-05
1.11511e-05
1.15108e-05
1.18595e-05
1.21115e-05
1.22356e-05
1.2468e-05
1.36576e-05
1.85377e-05
5.2081e-06
5.21037e-06
5.21266e-06
5.21498e-06
5.21735e-06
5.21981e-06
5.22242e-06
5.2252e-06
5.22823e-06
5.23157e-06
5.23531e-06
5.23957e-06
5.24441e-06
5.24994e-06
5.25619e-06
5.26325e-06
5.27108e-06
5.27977e-06
5.28926e-06
5.29969e-06
5.31101e-06
5.32347e-06
5.33704e-06
5.35209e-06
5.36863e-06
5.38716e-06
5.40801e-06
5.43164e-06
5.45847e-06
5.48905e-06
5.52398e-06
5.56384e-06
5.60948e-06
5.66139e-06
5.72078e-06
5.78788e-06
5.86432e-06
5.95136e-06
6.04998e-06
6.16124e-06
6.28595e-06
6.42491e-06
6.57857e-06
6.74727e-06
6.93097e-06
7.12944e-06
7.3422e-06
7.56849e-06
7.80756e-06
8.05827e-06
8.31982e-06
8.59096e-06
8.87146e-06
9.16025e-06
9.45243e-06
9.74393e-06
1.00353e-05
1.03273e-05
1.06196e-05
1.09144e-05
1.12108e-05
1.15591e-05
1.19273e-05
1.21985e-05
1.23178e-05
1.24709e-05
1.30563e-05
1.61949e-05
2.7116e-05
5.27661e-06
5.27925e-06
5.28199e-06
5.28483e-06
5.28777e-06
5.29082e-06
5.29399e-06
5.29728e-06
5.30072e-06
5.3044e-06
5.30838e-06
5.31281e-06
5.31781e-06
5.32357e-06
5.33021e-06
5.3379e-06
5.34674e-06
5.35687e-06
5.36833e-06
5.38126e-06
5.39568e-06
5.41175e-06
5.42951e-06
5.4492e-06
5.47088e-06
5.49502e-06
5.52195e-06
5.55207e-06
5.58582e-06
5.62369e-06
5.66633e-06
5.71419e-06
5.76822e-06
5.8287e-06
5.89698e-06
5.97302e-06
6.05877e-06
6.15528e-06
6.26344e-06
6.38426e-06
6.51841e-06
6.66672e-06
6.8295e-06
7.00726e-06
7.19984e-06
7.40732e-06
7.62913e-06
7.8648e-06
8.11351e-06
8.37422e-06
8.64619e-06
8.9282e-06
9.22032e-06
9.51599e-06
9.81148e-06
1.01081e-05
1.04052e-05
1.07026e-05
1.10019e-05
1.13054e-05
1.16413e-05
1.20202e-05
1.23094e-05
1.24343e-05
1.25016e-05
1.28523e-05
1.46144e-05
2.23059e-05
4.69582e-05
5.35777e-06
5.36079e-06
5.3638e-06
5.36682e-06
5.36987e-06
5.373e-06
5.37624e-06
5.37964e-06
5.38327e-06
5.38716e-06
5.39141e-06
5.3961e-06
5.40139e-06
5.40739e-06
5.41432e-06
5.42231e-06
5.43157e-06
5.44223e-06
5.45447e-06
5.46841e-06
5.48421e-06
5.50195e-06
5.52185e-06
5.54398e-06
5.56861e-06
5.59613e-06
5.62689e-06
5.66126e-06
5.69977e-06
5.74284e-06
5.79122e-06
5.84535e-06
5.90617e-06
5.97417e-06
6.05035e-06
6.13533e-06
6.2308e-06
6.33785e-06
6.45736e-06
6.59035e-06
6.73739e-06
6.89933e-06
7.07626e-06
7.26873e-06
7.47624e-06
7.69902e-06
7.93592e-06
8.18679e-06
8.45012e-06
8.7253e-06
9.01133e-06
9.30726e-06
9.60859e-06
9.90757e-06
1.02104e-05
1.05128e-05
1.08143e-05
1.11205e-05
1.14292e-05
1.17643e-05
1.21454e-05
1.24502e-05
1.25564e-05
1.25965e-05
1.2753e-05
1.38661e-05
1.87071e-05
3.60878e-05
6.33217e-05
5.44207e-06
5.44511e-06
5.4483e-06
5.45165e-06
5.45515e-06
5.45879e-06
5.46258e-06
5.46653e-06
5.47069e-06
5.47509e-06
5.47981e-06
5.4849e-06
5.49051e-06
5.49669e-06
5.50368e-06
5.51156e-06
5.52062e-06
5.53095e-06
5.54289e-06
5.5565e-06
5.57217e-06
5.58992e-06
5.61018e-06
5.63294e-06
5.65874e-06
5.68793e-06
5.721e-06
5.75839e-06
5.80073e-06
5.84861e-06
5.90275e-06
5.96392e-06
6.03277e-06
6.11038e-06
6.19703e-06
6.29435e-06
6.40358e-06
6.52572e-06
6.66156e-06
6.81193e-06
6.97722e-06
7.15805e-06
7.35418e-06
7.56603e-06
7.79255e-06
8.03412e-06
8.28875e-06
8.55706e-06
8.83629e-06
9.12742e-06
9.42818e-06
9.734e-06
1.00394e-05
1.03445e-05
1.06556e-05
1.09597e-05
1.12711e-05
1.15911e-05
1.19219e-05
1.2318e-05
1.25972e-05
1.26842e-05
1.26897e-05
1.27726e-05
1.34094e-05
1.68426e-05
2.87652e-05
5.82421e-05
7.02162e-05
5.54432e-06
5.54772e-06
5.55116e-06
5.55468e-06
5.5583e-06
5.56207e-06
5.56599e-06
5.57012e-06
5.57447e-06
5.57909e-06
5.58403e-06
5.58934e-06
5.5951e-06
5.60137e-06
5.60832e-06
5.61604e-06
5.62475e-06
5.63463e-06
5.64597e-06
5.659e-06
5.67409e-06
5.6915e-06
5.71167e-06
5.73491e-06
5.76184e-06
5.79299e-06
5.829e-06
5.87053e-06
5.91829e-06
5.97309e-06
6.03559e-06
6.10684e-06
6.18721e-06
6.27809e-06
6.37938e-06
6.49312e-06
6.62019e-06
6.76132e-06
6.91709e-06
7.088e-06
7.27418e-06
7.4759e-06
7.69264e-06
7.92462e-06
8.17042e-06
8.43058e-06
8.70249e-06
8.98792e-06
9.28223e-06
9.58971e-06
9.89868e-06
1.02096e-05
1.05202e-05
1.08321e-05
1.11488e-05
1.14564e-05
1.17929e-05
1.21269e-05
1.25233e-05
1.27733e-05
1.28201e-05
1.27911e-05
1.27928e-05
1.32971e-05
1.55842e-05
2.46965e-05
5.08677e-05
6.81438e-05
7.12022e-05
5.65362e-06
5.65718e-06
5.66088e-06
5.66475e-06
5.66884e-06
5.67319e-06
5.67782e-06
5.68282e-06
5.68822e-06
5.69409e-06
5.70046e-06
5.7074e-06
5.71492e-06
5.72313e-06
5.73202e-06
5.74178e-06
5.75244e-06
5.76431e-06
5.77751e-06
5.79249e-06
5.80949e-06
5.82912e-06
5.85171e-06
5.87798e-06
5.90868e-06
5.94453e-06
5.98633e-06
6.03494e-06
6.09115e-06
6.15588e-06
6.22982e-06
6.31391e-06
6.40875e-06
6.51499e-06
6.63344e-06
6.76538e-06
6.91155e-06
7.07237e-06
7.24827e-06
7.4394e-06
7.64574e-06
7.86726e-06
8.10334e-06
8.35399e-06
8.61779e-06
8.89525e-06
9.18381e-06
9.48542e-06
9.79422e-06
1.0112e-05
1.04216e-05
1.07421e-05
1.10533e-05
1.13771e-05
1.16952e-05
1.20289e-05
1.23938e-05
1.27684e-05
1.29643e-05
1.29639e-05
1.28941e-05
1.29047e-05
1.31693e-05
1.50965e-05
2.17063e-05
4.35442e-05
6.53947e-05
7.07621e-05
6.74068e-05
5.78206e-06
5.78674e-06
5.7916e-06
5.79666e-06
5.80196e-06
5.80751e-06
5.81335e-06
5.81952e-06
5.82609e-06
5.83311e-06
5.84069e-06
5.84892e-06
5.85791e-06
5.86779e-06
5.8787e-06
5.89082e-06
5.90431e-06
5.91947e-06
5.93654e-06
5.95592e-06
5.97798e-06
6.00327e-06
6.03224e-06
6.06577e-06
6.1046e-06
6.14957e-06
6.20152e-06
6.26132e-06
6.32982e-06
6.40783e-06
6.49622e-06
6.59547e-06
6.7067e-06
6.82959e-06
6.96601e-06
7.11651e-06
7.28172e-06
7.46183e-06
7.65715e-06
7.86766e-06
8.09321e-06
8.3337e-06
8.58834e-06
8.85723e-06
9.1388e-06
9.43367e-06
9.73901e-06
1.00551e-05
1.03722e-05
1.06921e-05
1.10065e-05
1.13345e-05
1.16467e-05
1.19928e-05
1.23146e-05
1.2715e-05
1.3025e-05
1.31354e-05
1.30983e-05
1.30178e-05
1.29546e-05
1.33211e-05
1.46304e-05
2.03752e-05
3.77538e-05
6.25105e-05
6.99368e-05
6.74207e-05
6.04558e-05
5.92598e-06
5.93042e-06
5.93505e-06
5.93995e-06
5.94523e-06
5.95096e-06
5.95725e-06
5.96417e-06
5.97183e-06
5.9803e-06
5.98973e-06
6.00019e-06
6.01189e-06
6.02494e-06
6.03964e-06
6.0561e-06
6.07474e-06
6.09566e-06
6.11945e-06
6.14619e-06
6.17668e-06
6.21098e-06
6.25006e-06
6.29463e-06
6.34544e-06
6.40329e-06
6.46902e-06
6.54342e-06
6.62739e-06
6.72153e-06
6.82686e-06
6.94355e-06
7.07284e-06
7.21436e-06
7.37006e-06
7.54031e-06
7.72562e-06
7.92607e-06
8.14185e-06
8.37285e-06
8.61877e-06
8.87952e-06
9.15399e-06
9.44265e-06
9.74295e-06
1.00558e-05
1.03747e-05
1.06973e-05
1.10155e-05
1.13401e-05
1.16596e-05
1.1996e-05
1.23232e-05
1.27007e-05
1.3058e-05
1.32911e-05
1.32983e-05
1.32506e-05
1.30825e-05
1.30832e-05
1.32473e-05
1.50778e-05
1.93074e-05
3.41925e-05
5.98107e-05
6.88212e-05
6.72356e-05
5.96921e-05
5.56062e-05
6.09324e-06
6.09967e-06
6.10655e-06
6.11394e-06
6.12189e-06
6.13047e-06
6.13972e-06
6.14972e-06
6.16051e-06
6.17221e-06
6.18486e-06
6.19866e-06
6.21371e-06
6.23033e-06
6.24871e-06
6.26928e-06
6.29238e-06
6.31851e-06
6.34812e-06
6.38179e-06
6.42001e-06
6.46341e-06
6.51288e-06
6.5692e-06
6.63312e-06
6.70541e-06
6.78687e-06
6.87818e-06
6.98015e-06
7.0933e-06
7.21841e-06
7.35585e-06
7.50614e-06
7.66986e-06
7.84825e-06
8.04167e-06
8.25042e-06
8.47451e-06
8.71397e-06
8.96848e-06
9.23763e-06
9.52113e-06
9.81737e-06
1.01269e-05
1.04443e-05
1.07689e-05
1.10902e-05
1.14136e-05
1.1735e-05
1.20656e-05
1.23949e-05
1.27573e-05
1.31153e-05
1.3406e-05
1.34877e-05
1.34731e-05
1.33342e-05
1.31872e-05
1.30774e-05
1.36963e-05
1.48896e-05
2.00561e-05
3.23019e-05
5.70369e-05
6.71614e-05
6.64253e-05
5.89177e-05
5.21865e-05
5.24747e-05
6.29511e-06
6.30224e-06
6.30978e-06
6.31782e-06
6.32641e-06
6.33562e-06
6.34555e-06
6.3563e-06
6.36801e-06
6.38086e-06
6.39507e-06
6.41089e-06
6.42863e-06
6.4487e-06
6.47147e-06
6.4975e-06
6.52722e-06
6.56132e-06
6.60019e-06
6.64464e-06
6.69494e-06
6.7522e-06
6.81711e-06
6.8904e-06
6.97276e-06
7.06487e-06
7.16739e-06
7.28096e-06
7.40612e-06
7.5435e-06
7.69338e-06
7.85661e-06
8.03271e-06
8.22341e-06
8.42908e-06
8.65001e-06
8.88617e-06
9.13743e-06
9.4036e-06
9.6838e-06
9.97791e-06
1.0284e-05
1.06003e-05
1.09244e-05
1.12456e-05
1.1572e-05
1.18887e-05
1.22197e-05
1.25412e-05
1.28948e-05
1.32477e-05
1.35428e-05
1.36619e-05
1.36728e-05
1.3556e-05
1.34194e-05
1.31322e-05
1.33025e-05
1.36082e-05
1.58462e-05
2.0053e-05
3.28123e-05
5.4552e-05
6.48807e-05
6.47076e-05
5.75836e-05
4.89357e-05
4.73735e-05
5.02742e-05
6.52479e-06
6.53334e-06
6.54237e-06
6.55195e-06
6.56216e-06
6.57312e-06
6.58498e-06
6.59799e-06
6.61244e-06
6.62871e-06
6.64724e-06
6.66846e-06
6.69294e-06
6.7211e-06
6.75361e-06
6.7908e-06
6.83343e-06
6.88166e-06
6.93642e-06
6.99758e-06
7.06636e-06
7.14337e-06
7.22924e-06
7.3246e-06
7.43008e-06
7.54631e-06
7.67384e-06
7.81331e-06
7.96511e-06
8.12998e-06
8.30785e-06
8.49977e-06
8.70484e-06
8.92508e-06
9.16023e-06
9.41047e-06
9.67511e-06
9.954e-06
1.02461e-05
1.05497e-05
1.08645e-05
1.11843e-05
1.15071e-05
1.1828e-05
1.21449e-05
1.24736e-05
1.2787e-05
1.31344e-05
1.34621e-05
1.37266e-05
1.38205e-05
1.38523e-05
1.37614e-05
1.36465e-05
1.34048e-05
1.32468e-05
1.32702e-05
1.43124e-05
1.60368e-05
2.19933e-05
3.47522e-05
5.18626e-05
6.15791e-05
6.16825e-05
5.5042e-05
4.55681e-05
4.22967e-05
4.39078e-05
4.82569e-05
6.81447e-06
6.82644e-06
6.83969e-06
6.85441e-06
6.87081e-06
6.88904e-06
6.90928e-06
6.93172e-06
6.9566e-06
6.98421e-06
7.01484e-06
7.04895e-06
7.08688e-06
7.12927e-06
7.17639e-06
7.22912e-06
7.28755e-06
7.3528e-06
7.42474e-06
7.50466e-06
7.59337e-06
7.69152e-06
7.79989e-06
7.91908e-06
8.04982e-06
8.19266e-06
8.34818e-06
8.51682e-06
8.69884e-06
8.89466e-06
9.104e-06
9.32734e-06
9.56398e-06
9.815e-06
1.008e-05
1.03583e-05
1.06485e-05
1.09507e-05
1.12602e-05
1.15763e-05
1.18933e-05
1.22103e-05
1.25226e-05
1.28357e-05
1.31714e-05
1.34832e-05
1.37382e-05
1.39259e-05
1.39792e-05
1.40201e-05
1.39199e-05
1.38457e-05
1.36128e-05
1.33487e-05
1.33082e-05
1.37134e-05
1.4635e-05
1.76622e-05
2.37338e-05
3.7787e-05
4.89382e-05
5.71629e-05
5.70428e-05
5.07105e-05
4.16727e-05
3.72997e-05
3.73408e-05
4.04502e-05
4.55053e-05
7.16861e-06
7.1861e-06
7.20521e-06
7.22631e-06
7.24976e-06
7.27596e-06
7.30527e-06
7.33809e-06
7.37476e-06
7.41566e-06
7.46115e-06
7.51158e-06
7.56744e-06
7.62901e-06
7.69706e-06
7.77166e-06
7.85396e-06
7.94367e-06
8.04236e-06
8.15066e-06
8.26941e-06
8.39907e-06
8.54045e-06
8.69381e-06
8.85981e-06
9.03843e-06
9.23016e-06
9.43481e-06
9.65254e-06
9.88293e-06
1.0126e-05
1.03809e-05
1.06481e-05
1.09257e-05
1.1215e-05
1.15113e-05
1.18161e-05
1.21268e-05
1.24269e-05
1.27391e-05
1.30411e-05
1.3362e-05
1.3638e-05
1.38615e-05
1.40174e-05
1.41263e-05
1.4082e-05
1.40972e-05
1.4079e-05
1.39751e-05
1.37402e-05
1.35133e-05
1.34012e-05
1.35798e-05
1.41109e-05
1.59523e-05
1.96126e-05
2.80241e-05
3.78591e-05
4.4941e-05
5.1093e-05
5.02517e-05
4.42669e-05
3.66602e-05
3.21322e-05
3.08943e-05
3.22702e-05
3.60649e-05
4.15511e-05
7.62051e-06
7.64237e-06
7.66612e-06
7.69222e-06
7.72126e-06
7.75385e-06
7.79076e-06
7.83267e-06
7.88044e-06
7.93468e-06
7.99625e-06
8.06566e-06
8.14365e-06
8.23066e-06
8.32721e-06
8.43377e-06
8.55042e-06
8.67815e-06
8.81757e-06
8.9687e-06
9.13213e-06
9.30752e-06
9.49547e-06
9.69529e-06
9.90755e-06
1.01312e-05
1.03665e-05
1.06123e-05
1.08683e-05
1.11332e-05
1.14087e-05
1.16893e-05
1.19795e-05
1.22635e-05
1.25616e-05
1.28469e-05
1.31536e-05
1.34395e-05
1.36963e-05
1.39323e-05
1.40899e-05
1.4233e-05
1.42348e-05
1.42427e-05
1.4228e-05
1.42322e-05
1.40277e-05
1.39834e-05
1.37694e-05
1.35964e-05
1.34766e-05
1.35906e-05
1.40044e-05
1.52112e-05
1.77146e-05
2.30854e-05
3.03483e-05
3.57059e-05
4.11781e-05
4.38154e-05
4.17754e-05
3.64473e-05
3.08307e-05
2.65714e-05
2.46185e-05
2.4268e-05
2.61329e-05
3.02107e-05
3.60691e-05
8.20843e-06
8.24727e-06
8.29009e-06
8.33738e-06
8.38979e-06
8.44788e-06
8.51242e-06
8.58404e-06
8.66353e-06
8.7516e-06
8.84881e-06
8.95597e-06
9.07321e-06
9.20149e-06
9.3403e-06
9.49071e-06
9.65323e-06
9.8276e-06
1.00141e-05
1.02121e-05
1.04218e-05
1.06418e-05
1.08727e-05
1.11124e-05
1.13612e-05
1.16169e-05
1.18791e-05
1.21455e-05
1.2417e-05
1.26964e-05
1.29896e-05
1.32614e-05
1.35209e-05
1.37508e-05
1.39543e-05
1.41308e-05
1.42858e-05
1.44077e-05
1.44213e-05
1.44515e-05
1.44694e-05
1.43663e-05
1.42626e-05
1.41169e-05
1.3962e-05
1.39189e-05
1.37766e-05
1.364e-05
1.35784e-05
1.36795e-05
1.41019e-05
1.49941e-05
1.69257e-05
2.04656e-05
2.52363e-05
2.92086e-05
3.31867e-05
3.57047e-05
3.45529e-05
3.13062e-05
2.80619e-05
2.45394e-05
2.10836e-05
1.83805e-05
1.70585e-05
1.67765e-05
1.87151e-05
2.2848e-05
2.86783e-05
9.03933e-06
9.10056e-06
9.16912e-06
9.24554e-06
9.33051e-06
9.42449e-06
9.52814e-06
9.64171e-06
9.76584e-06
9.90056e-06
1.00464e-05
1.02031e-05
1.03711e-05
1.05503e-05
1.07416e-05
1.09438e-05
1.11572e-05
1.13809e-05
1.16134e-05
1.18561e-05
1.21033e-05
1.23586e-05
1.2624e-05
1.289e-05
1.31533e-05
1.3413e-05
1.36581e-05
1.3896e-05
1.41105e-05
1.42942e-05
1.44546e-05
1.45402e-05
1.45752e-05
1.46002e-05
1.46128e-05
1.45878e-05
1.45673e-05
1.4536e-05
1.45332e-05
1.44933e-05
1.43531e-05
1.42191e-05
1.3938e-05
1.38353e-05
1.36474e-05
1.36042e-05
1.36714e-05
1.38594e-05
1.42406e-05
1.4902e-05
1.61464e-05
1.82959e-05
2.07449e-05
2.38564e-05
2.68118e-05
2.78453e-05
2.62308e-05
2.33018e-05
2.15836e-05
2.01966e-05
1.84235e-05
1.61271e-05
1.34589e-05
1.0921e-05
9.53694e-06
9.11731e-06
1.06397e-05
1.42593e-05
1.94173e-05
1.0336e-05
1.04504e-05
1.05746e-05
1.07094e-05
1.08548e-05
1.10108e-05
1.11776e-05
1.13543e-05
1.15415e-05
1.17379e-05
1.19446e-05
1.21582e-05
1.23828e-05
1.26072e-05
1.2841e-05
1.30702e-05
1.3306e-05
1.35357e-05
1.37585e-05
1.39889e-05
1.41789e-05
1.43975e-05
1.45823e-05
1.46645e-05
1.47025e-05
1.47347e-05
1.47246e-05
1.47716e-05
1.48554e-05
1.47603e-05
1.47093e-05
1.46672e-05
1.46142e-05
1.45758e-05
1.46257e-05
1.46438e-05
1.45995e-05
1.45174e-05
1.43735e-05
1.43081e-05
1.42011e-05
1.41078e-05
1.39898e-05
1.39103e-05
1.39432e-05
1.40181e-05
1.40804e-05
1.43163e-05
1.48397e-05
1.58411e-05
1.7398e-05
1.90132e-05
2.04772e-05
2.00301e-05
1.70163e-05
1.47049e-05
1.42262e-05
1.41813e-05
1.39926e-05
1.3344e-05
1.20823e-05
1.01762e-05
7.76931e-06
5.35148e-06
3.93776e-06
3.41573e-06
3.78469e-06
5.55014e-06
8.90083e-06
1.20173e-05
1.21393e-05
1.22716e-05
1.24096e-05
1.25624e-05
1.27136e-05
1.2884e-05
1.30483e-05
1.32268e-05
1.34117e-05
1.35664e-05
1.38005e-05
1.39569e-05
1.3979e-05
1.40756e-05
1.40818e-05
1.41022e-05
1.42094e-05
1.42977e-05
1.43285e-05
1.43669e-05
1.43119e-05
1.43051e-05
1.42989e-05
1.4393e-05
1.45118e-05
1.4443e-05
1.44678e-05
1.44551e-05
1.44371e-05
1.44719e-05
1.45294e-05
1.46049e-05
1.47317e-05
1.47484e-05
1.49341e-05
1.5284e-05
1.54526e-05
1.54293e-05
1.52764e-05
1.50103e-05
1.47189e-05
1.43076e-05
1.40005e-05
1.34589e-05
1.27108e-05
1.20382e-05
1.18317e-05
1.16205e-05
1.08182e-05
8.81666e-06
6.39374e-06
6.21637e-06
6.68225e-06
7.1084e-06
7.79105e-06
8.51274e-06
9.02628e-06
9.16564e-06
8.88642e-06
7.96448e-06
6.44641e-06
4.54157e-06
2.69193e-06
1.5397e-06
1.0313e-06
9.44751e-07
1.383e-06
2.40172e-06
1.14546e-05
1.15617e-05
1.16756e-05
1.17957e-05
1.19227e-05
1.20543e-05
1.21908e-05
1.23314e-05
1.24708e-05
1.26131e-05
1.27425e-05
1.28787e-05
1.2994e-05
1.31121e-05
1.31936e-05
1.32966e-05
1.34366e-05
1.36166e-05
1.38391e-05
1.4105e-05
1.44168e-05
1.4776e-05
1.51848e-05
1.56388e-05
1.61467e-05
1.66891e-05
1.72799e-05
1.78932e-05
1.85279e-05
1.9148e-05
1.97492e-05
2.02641e-05
2.0689e-05
2.09117e-05
2.08099e-05
2.03996e-05
1.95264e-05
1.81961e-05
1.65727e-05
1.47411e-05
1.28089e-05
1.0763e-05
8.75082e-06
6.41515e-06
4.06882e-06
2.63682e-06
1.97439e-06
1.87872e-06
1.81963e-06
1.60687e-06
1.3914e-06
1.25998e-06
1.39012e-06
1.80943e-06
2.38068e-06
3.05756e-06
3.69131e-06
4.22111e-06
4.43433e-06
4.41188e-06
3.90697e-06
3.04945e-06
2.03371e-06
1.13352e-06
5.66401e-07
2.66867e-07
1.60405e-07
1.78678e-07
3.28721e-07
3.40762e-05
3.49958e-05
3.59216e-05
3.6851e-05
3.77835e-05
3.8715e-05
3.96467e-05
4.05716e-05
4.14944e-05
4.24022e-05
4.33075e-05
4.41859e-05
4.50659e-05
4.59023e-05
4.67527e-05
4.75374e-05
4.82549e-05
4.88612e-05
4.93938e-05
4.97703e-05
5.00736e-05
5.01473e-05
5.00193e-05
4.97306e-05
4.9401e-05
4.8587e-05
4.77722e-05
4.64958e-05
4.48758e-05
4.28688e-05
4.04296e-05
3.75136e-05
3.40803e-05
3.01126e-05
2.56039e-05
2.06359e-05
1.53364e-05
1.00687e-05
5.43299e-06
2.22421e-06
8.34291e-07
7.10687e-07
7.83986e-07
7.57051e-07
6.39136e-07
5.46013e-07
4.43319e-07
3.63622e-07
3.18093e-07
2.92611e-07
2.77105e-07
2.70251e-07
2.93256e-07
3.40226e-07
3.94615e-07
4.50575e-07
5.07488e-07
5.40477e-07
5.29335e-07
4.77523e-07
3.76763e-07
2.67744e-07
1.90457e-07
1.32415e-07
9.48114e-08
7.06153e-08
5.28024e-08
4.20742e-08
3.74748e-08
4.79572e-06
4.79606e-06
4.79632e-06
4.79664e-06
4.797e-06
4.79728e-06
4.79747e-06
4.79675e-06
4.79564e-06
4.79398e-06
4.79343e-06
4.79529e-06
4.79922e-06
4.80154e-06
4.80227e-06
4.79929e-06
4.79983e-06
4.80119e-06
4.80221e-06
4.79988e-06
4.79955e-06
4.80218e-06
4.801e-06
4.80074e-06
4.80035e-06
4.79711e-06
4.79819e-06
4.79921e-06
4.80169e-06
4.80226e-06
4.80182e-06
4.80374e-06
4.80561e-06
4.80495e-06
4.80546e-06
4.80409e-06
4.80525e-06
4.80554e-06
4.8047e-06
4.80569e-06
4.8022e-06
4.80252e-06
4.80182e-06
4.80116e-06
4.80198e-06
4.80052e-06
4.79835e-06
4.79664e-06
4.79636e-06
4.79669e-06
4.79725e-06
4.79913e-06
4.80088e-06
4.80224e-06
4.80315e-06
4.80386e-06
4.80419e-06
4.80458e-06
4.80473e-06
4.82797e-06
4.8278e-06
4.82742e-06
4.82698e-06
4.82633e-06
4.82539e-06
4.8242e-06
4.8229e-06
4.82243e-06
4.82263e-06
4.82448e-06
4.82644e-06
4.82777e-06
4.82802e-06
4.82572e-06
4.82525e-06
4.82627e-06
4.82689e-06
4.82623e-06
4.82452e-06
4.82505e-06
4.82634e-06
4.82493e-06
4.82495e-06
4.82345e-06
4.82099e-06
4.82207e-06
4.82351e-06
4.82522e-06
4.82562e-06
4.82575e-06
4.82749e-06
4.82932e-06
4.82871e-06
4.82956e-06
4.8287e-06
4.82923e-06
4.83022e-06
4.82991e-06
4.83053e-06
4.82879e-06
4.82855e-06
4.82836e-06
4.82772e-06
4.82819e-06
4.82813e-06
4.82724e-06
4.82607e-06
4.8248e-06
4.8246e-06
4.82447e-06
4.82505e-06
4.82637e-06
4.82778e-06
4.82945e-06
4.83086e-06
4.83204e-06
4.83308e-06
4.83397e-06
4.86061e-06
4.85971e-06
4.85869e-06
4.85763e-06
4.85647e-06
4.85544e-06
4.8547e-06
4.85463e-06
4.85519e-06
4.85621e-06
4.85716e-06
4.8578e-06
4.8573e-06
4.85555e-06
4.85443e-06
4.85487e-06
4.85547e-06
4.85514e-06
4.85336e-06
4.85258e-06
4.85336e-06
4.85375e-06
4.85211e-06
4.85197e-06
4.84974e-06
4.84802e-06
4.84903e-06
4.85066e-06
4.85179e-06
4.85207e-06
4.8527e-06
4.85422e-06
4.8561e-06
4.85567e-06
4.8567e-06
4.85629e-06
4.85645e-06
4.85765e-06
4.85796e-06
4.85872e-06
4.85806e-06
4.85769e-06
4.85775e-06
4.85793e-06
4.85783e-06
4.85814e-06
4.85841e-06
4.85812e-06
4.85765e-06
4.85726e-06
4.85712e-06
4.85691e-06
4.85725e-06
4.85794e-06
4.85907e-06
4.86036e-06
4.86172e-06
4.86302e-06
4.86436e-06
4.89557e-06
4.8944e-06
4.89329e-06
4.8923e-06
4.89152e-06
4.8911e-06
4.89107e-06
4.89126e-06
4.89164e-06
4.89194e-06
4.89164e-06
4.89031e-06
4.88851e-06
4.88704e-06
4.88702e-06
4.88735e-06
4.88697e-06
4.8853e-06
4.88351e-06
4.88365e-06
4.88408e-06
4.88379e-06
4.88197e-06
4.88148e-06
4.87886e-06
4.87773e-06
4.87879e-06
4.8805e-06
4.88125e-06
4.88149e-06
4.88241e-06
4.88371e-06
4.88565e-06
4.88544e-06
4.88655e-06
4.88657e-06
4.88652e-06
4.88771e-06
4.88836e-06
4.88984e-06
4.88968e-06
4.88934e-06
4.88948e-06
4.8903e-06
4.89061e-06
4.89102e-06
4.89161e-06
4.89218e-06
4.89217e-06
4.89274e-06
4.8926e-06
4.89296e-06
4.89312e-06
4.89337e-06
4.89389e-06
4.89464e-06
4.89563e-06
4.89665e-06
4.89786e-06
4.93418e-06
4.93325e-06
4.9325e-06
4.93191e-06
4.93151e-06
4.93126e-06
4.93106e-06
4.93071e-06
4.93005e-06
4.92886e-06
4.92711e-06
4.92517e-06
4.92376e-06
4.92327e-06
4.9234e-06
4.92284e-06
4.92119e-06
4.91908e-06
4.91803e-06
4.91841e-06
4.91852e-06
4.91741e-06
4.91545e-06
4.91448e-06
4.91167e-06
4.91106e-06
4.91207e-06
4.91372e-06
4.91414e-06
4.91435e-06
4.91549e-06
4.91663e-06
4.91875e-06
4.91879e-06
4.91997e-06
4.92053e-06
4.92048e-06
4.92158e-06
4.92243e-06
4.92418e-06
4.9252e-06
4.92512e-06
4.925e-06
4.92592e-06
4.92684e-06
4.92762e-06
4.9284e-06
4.92934e-06
4.92986e-06
4.93071e-06
4.93116e-06
4.93178e-06
4.93237e-06
4.93289e-06
4.93344e-06
4.93403e-06
4.9348e-06
4.93557e-06
4.93654e-06
4.97905e-06
4.97819e-06
4.97742e-06
4.97663e-06
4.97581e-06
4.97486e-06
4.97366e-06
4.97215e-06
4.97031e-06
4.96825e-06
4.96627e-06
4.96476e-06
4.96396e-06
4.96351e-06
4.96268e-06
4.96079e-06
4.95838e-06
4.95654e-06
4.9561e-06
4.95629e-06
4.95569e-06
4.95396e-06
4.95186e-06
4.95045e-06
4.94767e-06
4.94758e-06
4.94857e-06
4.95015e-06
4.95039e-06
4.95062e-06
4.95187e-06
4.95283e-06
4.95502e-06
4.95529e-06
4.95651e-06
4.95741e-06
4.95752e-06
4.95858e-06
4.95953e-06
4.96147e-06
4.96314e-06
4.96424e-06
4.96417e-06
4.96488e-06
4.96613e-06
4.96744e-06
4.96874e-06
4.97014e-06
4.97127e-06
4.97247e-06
4.97347e-06
4.97443e-06
4.97541e-06
4.97634e-06
4.97725e-06
4.97806e-06
4.97895e-06
4.97975e-06
4.98072e-06
5.02783e-06
5.02653e-06
5.02523e-06
5.02375e-06
5.02212e-06
5.02027e-06
5.01825e-06
5.01611e-06
5.01399e-06
5.01209e-06
5.01059e-06
5.00951e-06
5.00859e-06
5.00731e-06
5.00527e-06
5.00266e-06
5.00041e-06
4.99921e-06
4.99905e-06
4.99879e-06
4.99742e-06
4.99518e-06
4.99287e-06
4.99102e-06
4.98841e-06
4.98872e-06
4.98956e-06
4.99095e-06
4.99096e-06
4.99117e-06
4.99256e-06
4.99345e-06
4.99579e-06
4.99636e-06
4.99765e-06
4.99894e-06
4.99937e-06
5.00047e-06
5.0015e-06
5.00347e-06
5.0056e-06
5.00753e-06
5.00817e-06
5.00881e-06
5.00998e-06
5.01146e-06
5.01306e-06
5.01479e-06
5.0164e-06
5.01797e-06
5.01941e-06
5.02072e-06
5.022e-06
5.02322e-06
5.02443e-06
5.02554e-06
5.02669e-06
5.02769e-06
5.02885e-06
5.07994e-06
5.0781e-06
5.07627e-06
5.07424e-06
5.07214e-06
5.06995e-06
5.06778e-06
5.0657e-06
5.0638e-06
5.06212e-06
5.06059e-06
5.05902e-06
5.05708e-06
5.05458e-06
5.05169e-06
5.04897e-06
5.04713e-06
5.04626e-06
5.0458e-06
5.04471e-06
5.04256e-06
5.03992e-06
5.03741e-06
5.03529e-06
5.03308e-06
5.03367e-06
5.03446e-06
5.03572e-06
5.03568e-06
5.03593e-06
5.03734e-06
5.03809e-06