/*--------------------------------*- C++ -*----------------------------------*\
| =========                 |                                                 |
| \\      /  F ield         | OpenFOAM: The Open Source CFD Toolbox           |
|  \\    /   O peration     | Version:  2312                                  |
|   \\  /    A nd           | Website:  www.openfoam.com                      |
|    \\/     M anipulation  |                                                 |
\*---------------------------------------------------------------------------*/
FoamFile
{
    version     2.0;
    format      ascii;
    arch        "LSB;label=32;scalar=64";
    class       volScalarField;
    location    "100";
    object      nut;
}
// * * * * * * * * * * * * * * * * * * * * * * * * * * * * * * * * * * * * * //

dimensions      [0 2 -1 0 0 0 0];

internalField   nonuniform List<scalar> 
76025
(
7.10483e-05
7.14888e-05
7.19651e-05
7.28834e-05
7.26513e-05
7.29553e-05
7.35943e-05
7.30451e-05
7.42415e-05
7.43328e-05
7.45446e-05
7.45526e-05
7.49309e-05
7.521e-05
7.64817e-05
7.62661e-05
7.71509e-05
7.66658e-05
7.87639e-05
7.77414e-05
7.80077e-05
7.88646e-05
7.97664e-05
7.9943e-05
8.11881e-05
8.01498e-05
8.14577e-05
8.21791e-05
8.12123e-05
8.49474e-05
8.56171e-05
8.3708e-05
8.52004e-05
8.52389e-05
8.73503e-05
8.68373e-05
8.5828e-05
8.76133e-05
8.7515e-05
9.04193e-05
9.00767e-05
8.88537e-05
9.12e-05
9.20918e-05
9.35916e-05
9.35142e-05
9.55958e-05
9.75743e-05
9.90963e-05
0.000101072
0.000103086
0.000105031
0.000107899
0.000111575
0.000116232
0.00011757
0.000122227
0.000126248
0.000131194
0.000138818
0.000138376
0.000136155
0.000139737
0.000140583
0.0001409
0.000138568
0.000143502
0.000140759
0.000124487
6.75825e-05
6.78175e-05
6.81259e-05
6.85836e-05
6.90135e-05
6.91124e-05
6.9675e-05
6.97825e-05
7.01395e-05
7.05894e-05
7.10328e-05
7.14208e-05
7.19355e-05
7.21711e-05
7.24517e-05
7.31293e-05
7.32936e-05
7.39922e-05
7.43478e-05
7.51404e-05
7.54593e-05
7.60908e-05
7.65925e-05
7.69751e-05
7.75801e-05
7.84104e-05
7.87464e-05
7.95858e-05
8.00561e-05
8.00826e-05
8.083e-05
8.16592e-05
8.19803e-05
8.31971e-05
8.36227e-05
8.46322e-05
8.54533e-05
8.59226e-05
8.71651e-05
8.77909e-05
8.88694e-05
8.99936e-05
9.03721e-05
9.18127e-05
9.25273e-05
9.42002e-05
9.51459e-05
9.6981e-05
9.88335e-05
0.000101431
0.000104431
0.000107461
0.000110767
0.000114562
0.000118488
0.00012377
0.000128309
0.000132949
0.000136906
0.000138111
0.00013969
0.000141584
0.000143052
0.000143676
0.00014349
0.000146408
0.000146148
0.000133272
0.000119913
6.3646e-05
6.39269e-05
6.4177e-05
6.44418e-05
6.48291e-05
6.51531e-05
6.55348e-05
6.58786e-05
6.62171e-05
6.66005e-05
6.70257e-05
6.74599e-05
6.79434e-05
6.84005e-05
6.87544e-05
6.92262e-05
6.96307e-05
7.01656e-05
7.06396e-05
7.12146e-05
7.17898e-05
7.23912e-05
7.29681e-05
7.3505e-05
7.40773e-05
7.47689e-05
7.54126e-05
7.60856e-05
7.67241e-05
7.7337e-05
7.79389e-05
7.86949e-05
7.94251e-05
8.02055e-05
8.0961e-05
8.17378e-05
8.24832e-05
8.32798e-05
8.42015e-05
8.51945e-05
8.61939e-05
8.72026e-05
8.83683e-05
8.97823e-05
9.13029e-05
9.301e-05
9.49486e-05
9.73006e-05
9.98687e-05
0.000102752
0.000105996
0.00010953
0.000113561
0.000118052
0.000122788
0.000127423
0.000131885
0.000136071
0.000139417
0.000141887
0.000143227
0.000144661
0.000146319
0.000147572
0.000148472
0.000148706
0.000143363
0.000126234
0.000116479
6.00288e-05
6.03021e-05
6.05689e-05
6.08366e-05
6.1141e-05
6.14744e-05
6.18234e-05
6.21999e-05
6.25951e-05
6.30056e-05
6.34355e-05
6.3877e-05
6.4339e-05
6.48264e-05
6.53133e-05
6.58014e-05
6.63056e-05
6.68202e-05
6.73658e-05
6.79237e-05
6.85105e-05
6.91131e-05
6.97347e-05
7.03668e-05
7.10205e-05
7.16978e-05
7.23972e-05
7.30995e-05
7.38065e-05
7.45337e-05
7.52627e-05
7.60431e-05
7.68598e-05
7.76915e-05
7.85681e-05
7.94625e-05
8.03986e-05
8.13981e-05
8.24622e-05
8.36175e-05
8.48317e-05
8.61499e-05
8.76248e-05
8.92596e-05
9.10904e-05
9.31432e-05
9.54913e-05
9.81559e-05
0.000101153
0.000104542
0.000108361
0.0001126
0.0001172
0.000122094
0.000127101
0.000131979
0.000136465
0.000140236
0.000143249
0.000145649
0.000147592
0.000149667
0.000151563
0.000152884
0.000153132
0.000149759
0.000136724
0.000116569
0.000108383
5.66261e-05
5.6897e-05
5.71717e-05
5.74534e-05
5.77514e-05
5.80716e-05
5.84121e-05
5.87781e-05
5.91708e-05
5.95877e-05
6.00287e-05
6.04885e-05
6.09662e-05
6.14647e-05
6.19811e-05
6.2509e-05
6.30511e-05
6.36048e-05
6.41778e-05
6.4769e-05
6.53807e-05
6.6012e-05
6.66645e-05
6.73371e-05
6.8031e-05
6.87489e-05
6.94898e-05
7.02477e-05
7.10237e-05
7.18177e-05
7.26336e-05
7.34869e-05
7.43793e-05
7.53069e-05
7.62758e-05
7.72872e-05
7.83534e-05
7.94844e-05
8.06976e-05
8.20133e-05
8.34432e-05
8.50142e-05
8.67573e-05
8.8707e-05
9.09042e-05
9.33834e-05
9.61909e-05
9.9366e-05
0.000102948
0.000106958
0.000111398
0.000116206
0.000121294
0.000126537
0.000131703
0.000136475
0.0001406
0.000144111
0.000147289
0.000150319
0.000153191
0.000155817
0.000157572
0.000156837
0.00015111
0.000140486
0.000125087
0.000109824
9.04948e-05
5.33144e-05
5.36125e-05
5.39079e-05
5.42063e-05
5.45178e-05
5.48453e-05
5.51896e-05
5.55533e-05
5.59397e-05
5.63505e-05
5.67869e-05
5.72475e-05
5.77306e-05
5.82357e-05
5.87621e-05
5.93088e-05
5.98754e-05
6.04617e-05
6.1068e-05
6.16954e-05
6.23442e-05
6.30147e-05
6.37074e-05
6.44225e-05
6.51612e-05
6.59251e-05
6.67147e-05
6.75288e-05
6.83686e-05
6.9236e-05
7.01342e-05
7.10721e-05
7.20526e-05
7.308e-05
7.41577e-05
7.52966e-05
7.65046e-05
7.77981e-05
7.91973e-05
8.07233e-05
8.2399e-05
8.42517e-05
8.63172e-05
8.86355e-05
9.1249e-05
9.41993e-05
9.75292e-05
0.000101274
0.000105452
0.000110049
0.000115012
0.00012025
0.000125637
0.000130982
0.000136013
0.000140526
0.000144593
0.000148578
0.000152757
0.000156822
0.000160396
0.000161254
0.000155773
0.000150483
0.000142301
0.000129378
0.000112648
9.7684e-05
7.18328e-05
5.01064e-05
5.0433e-05
5.07567e-05
5.10802e-05
5.14137e-05
5.17596e-05
5.21188e-05
5.24934e-05
5.28866e-05
5.33005e-05
5.37369e-05
5.41963e-05
5.46789e-05
5.51844e-05
5.57131e-05
5.62651e-05
5.68408e-05
5.74405e-05
5.8065e-05
5.87144e-05
5.93895e-05
6.00903e-05
6.08175e-05
6.15712e-05
6.23524e-05
6.3162e-05
6.40009e-05
6.48706e-05
6.57728e-05
6.6711e-05
6.76878e-05
6.87122e-05
6.97876e-05
7.09234e-05
7.21238e-05
7.34056e-05
7.47757e-05
7.62586e-05
7.78767e-05
7.96561e-05
8.16265e-05
8.38216e-05
8.62804e-05
8.90434e-05
9.21509e-05
9.56368e-05
9.95263e-05
0.000103825
0.000108516
0.000113544
0.000118831
0.000124272
0.000129727
0.000134979
0.000139865
0.00014452
0.000149389
0.000154776
0.000160134
0.000162548
0.000160028
0.000155108
0.000149083
0.000142824
0.000131232
0.000117258
0.000102245
8.04399e-05
5.45708e-05
4.70768e-05
4.74127e-05
4.77511e-05
4.8092e-05
4.84437e-05
4.88075e-05
4.91831e-05
4.95722e-05
4.99774e-05
5.0401e-05
5.08452e-05
5.13115e-05
5.1801e-05
5.23142e-05
5.28518e-05
5.34139e-05
5.4001e-05
5.46134e-05
5.5252e-05
5.59173e-05
5.66105e-05
5.73322e-05
5.80837e-05
5.8866e-05
5.96806e-05
6.05292e-05
6.14137e-05
6.23376e-05
6.33034e-05
6.43165e-05
6.53811e-05
6.6507e-05
6.77004e-05
6.8973e-05
7.03338e-05
7.18002e-05
7.33858e-05
7.5118e-05
7.70225e-05
7.9128e-05
8.14657e-05
8.40686e-05
8.697e-05
9.02003e-05
9.37842e-05
9.77347e-05
0.000102052
0.000106715
0.000111687
0.000116907
0.000122312
0.000127812
0.000133256
0.000138497
0.000143738
0.000149507
0.000156029
0.000162794
0.000160692
0.000157619
0.000154141
0.00014757
0.000141601
0.00013268
0.0001182
0.000103841
8.56638e-05
6.2569e-05
4.0374e-05
4.42247e-05
4.45579e-05
4.48983e-05
4.52456e-05
4.56077e-05
4.59849e-05
4.63758e-05
4.67806e-05
4.7201e-05
4.76387e-05
4.80955e-05
4.85732e-05
4.90737e-05
4.95984e-05
5.01488e-05
5.0726e-05
5.13307e-05
5.19638e-05
5.26261e-05
5.33187e-05
5.40426e-05
5.47994e-05
5.55906e-05
5.64182e-05
5.72841e-05
5.81916e-05
5.91441e-05
6.01467e-05
6.12033e-05
6.23205e-05
6.35057e-05
6.47689e-05
6.61192e-05
6.75683e-05
6.91306e-05
7.08205e-05
7.26577e-05
7.4669e-05
7.68784e-05
7.93121e-05
8.19956e-05
8.49541e-05
8.82094e-05
9.17786e-05
9.56712e-05
9.9887e-05
0.000104416
0.000109238
0.000114326
0.000119649
0.000125169
0.000130784
0.000136373
0.000142147
0.000148777
0.000156391
0.00016038
0.000158503
0.000155272
0.00015195
0.000146708
0.000139378
0.0001327
0.000119608
0.000104019
8.85486e-05
6.81004e-05
4.64291e-05
3.20675e-05
4.15776e-05
4.19042e-05
4.22387e-05
4.25816e-05
4.29413e-05
4.33187e-05
4.37123e-05
4.41226e-05
4.45507e-05
4.4998e-05
4.54659e-05
4.59563e-05
4.6471e-05
4.70121e-05
4.75813e-05
4.81807e-05
4.88112e-05
4.94748e-05
5.01719e-05
5.09049e-05
5.16742e-05
5.24829e-05
5.33314e-05
5.4224e-05
5.51614e-05
5.61493e-05
5.7192e-05
5.8295e-05
5.94638e-05
6.07051e-05
6.20285e-05
6.34431e-05
6.49601e-05
6.65887e-05
6.83475e-05
7.02441e-05
7.23041e-05
7.45495e-05
7.70005e-05
7.96785e-05
8.26027e-05
8.57922e-05
8.92611e-05
9.30221e-05
9.70813e-05
0.000101442
0.000106103
0.000111061
0.000116318
0.000121862
0.000127638
0.000133541
0.000139767
0.000147081
0.000155611
0.00015754
0.000155634
0.000152889
0.000149084
0.000144984
0.000137716
0.000130444
0.000120716
0.000104144
8.8871e-05
7.15062e-05
5.11052e-05
3.43527e-05
3.45217e-05
3.90668e-05
3.9388e-05
3.97183e-05
4.00582e-05
4.04162e-05
4.07936e-05
4.11891e-05
4.16027e-05
4.20354e-05
4.24885e-05
4.29631e-05
4.34611e-05
4.39842e-05
4.45349e-05
4.51156e-05
4.57292e-05
4.63775e-05
4.70633e-05
4.77882e-05
4.85549e-05
4.93648e-05
5.0221e-05
5.11249e-05
5.208e-05
5.30882e-05
5.41551e-05
5.52854e-05
5.64846e-05
5.77586e-05
5.91143e-05
6.05618e-05
6.21085e-05
6.3767e-05
6.55439e-05
6.74591e-05
6.95168e-05
7.17447e-05
7.41618e-05
7.67856e-05
7.96359e-05
8.27292e-05
8.60847e-05
8.9716e-05
9.36403e-05
9.78678e-05
0.000102415
0.000107292
0.000112518
0.000118098
0.000123999
0.000130148
0.000136704
0.000144479
0.000153665
0.000154337
0.000152408
0.000149923
0.000146232
0.000142062
0.000136123
0.000127691
0.000119636
0.000104925
8.77378e-05
7.26889e-05
5.43011e-05
3.72112e-05
2.99897e-05
5.2485e-05
3.67411e-05
3.70582e-05
3.73838e-05
3.77183e-05
3.80708e-05
3.84429e-05
3.88341e-05
3.92448e-05
3.96765e-05
4.01305e-05
4.06081e-05
4.11107e-05
4.16401e-05
4.21985e-05
4.27884e-05
4.34123e-05
4.40732e-05
4.47735e-05
4.55161e-05
4.63036e-05
4.7139e-05
4.80247e-05
4.8964e-05
4.99594e-05
5.10147e-05
5.21353e-05
5.33262e-05
5.45926e-05
5.59412e-05
5.73795e-05
5.89174e-05
6.05616e-05
6.23246e-05
6.42155e-05
6.62492e-05
6.84374e-05
7.08044e-05
7.33693e-05
7.61501e-05
7.91677e-05
8.24397e-05
8.59881e-05
8.98283e-05
9.39842e-05
9.84696e-05
0.000103313
0.000108527
0.000114129
0.000120097
0.000126375
0.000133121
0.000141123
0.000150683
0.000150666
0.000148833
0.000146482
0.000143005
0.000138738
0.000133464
0.000125335
0.000116588
0.000104853
8.6601e-05
7.15021e-05
5.55735e-05
3.91552e-05
2.81008e-05
3.95483e-05
6.73217e-05
3.45103e-05
3.48208e-05
3.51412e-05
3.54712e-05
3.58199e-05
3.61892e-05
3.65781e-05
3.69873e-05
3.74181e-05
3.7872e-05
3.83506e-05
3.8855e-05
3.93872e-05
3.99487e-05
4.05424e-05
4.11703e-05
4.18359e-05
4.25411e-05
4.32902e-05
4.40851e-05
4.49307e-05
4.58288e-05
4.67849e-05
4.78005e-05
4.88821e-05
5.00345e-05
5.12642e-05
5.25768e-05
5.39803e-05
5.54835e-05
5.70962e-05
5.88278e-05
6.06886e-05
6.26942e-05
6.48524e-05
6.71862e-05
6.97161e-05
7.24618e-05
7.54423e-05
7.8679e-05
8.21901e-05
8.59989e-05
9.01212e-05
9.45845e-05
9.94016e-05
0.000104603
0.000110177
0.000116128
0.000122412
0.000129195
0.000137249
0.000146896
0.000146883
0.000144686
0.000142673
0.000139377
0.000134934
0.000130065
0.0001225
0.000113191
0.000102297
8.5534e-05
6.88015e-05
5.51353e-05
4.01688e-05
2.84824e-05
3.12568e-05
5.87081e-05
7.36686e-05
3.24527e-05
3.27591e-05
3.30748e-05
3.33994e-05
3.37422e-05
3.41056e-05
3.44889e-05
3.4893e-05
3.53194e-05
3.57696e-05
3.62453e-05
3.67478e-05
3.72788e-05
3.78399e-05
3.84337e-05
3.90622e-05
3.97284e-05
4.0435e-05
4.11856e-05
4.19834e-05
4.28331e-05
4.37384e-05
4.47047e-05
4.57362e-05
4.68399e-05
4.80225e-05
4.92915e-05
5.06547e-05
5.21215e-05
5.37029e-05
5.54081e-05
5.72501e-05
5.92373e-05
6.13891e-05
6.37109e-05
6.62306e-05
6.89669e-05
7.19381e-05
7.51632e-05
7.86616e-05
8.2451e-05
8.6553e-05
9.09828e-05
9.57651e-05
0.000100902
0.000106404
0.000112227
0.000118421
0.000125127
0.000133124
0.000142695
0.000142338
0.00014073
0.000137861
0.000135666
0.000130609
0.000125781
0.000119194
0.000109252
9.80487e-05
8.31551e-05
6.58676e-05
5.24996e-05
3.98658e-05
2.88569e-05
2.66899e-05
4.90143e-05
6.70608e-05
7.94969e-05
3.04846e-05
3.07847e-05
3.10948e-05
3.14144e-05
3.17526e-05
3.21119e-05
3.24922e-05
3.28943e-05
3.332e-05
3.37714e-05
3.42499e-05
3.47573e-05
3.52952e-05
3.58657e-05
3.64703e-05
3.7112e-05
3.77925e-05
3.85157e-05
3.9284e-05
4.01024e-05
4.09743e-05
4.19063e-05
4.29027e-05
4.39713e-05
4.51199e-05
4.6357e-05
4.76915e-05
4.91329e-05
5.06921e-05
5.23812e-05
5.42098e-05
5.61912e-05
5.83373e-05
6.0661e-05
6.31772e-05
6.59075e-05
6.88695e-05
7.20795e-05
7.55551e-05
7.93132e-05
8.33706e-05
8.77454e-05
9.24466e-05
9.74827e-05
0.000102834
0.000108497
0.000114506
0.000121142
0.000129007
0.000138534
0.000137088
0.000136256
0.000133294
0.000130363
0.000126931
0.000120039
0.000115124
0.000105023
9.21616e-05
7.90893e-05
6.24404e-05
4.90088e-05
3.77929e-05
2.83642e-05
2.32655e-05
4.01881e-05
6.08677e-05
7.16131e-05
8.97463e-05
2.86605e-05
2.89576e-05
2.92656e-05
2.95833e-05
2.99196e-05
3.02772e-05
3.06558e-05
3.10564e-05
3.14809e-05
3.19312e-05
3.24094e-05
3.29176e-05
3.3458e-05
3.40333e-05
3.46461e-05
3.52995e-05
3.59966e-05
3.67413e-05
3.75372e-05
3.83895e-05
3.93029e-05
4.02836e-05
4.13375e-05
4.24735e-05
4.37001e-05
4.50265e-05
4.64625e-05
4.80192e-05
4.97084e-05
5.15408e-05
5.35277e-05
5.56786e-05
5.80097e-05
6.05248e-05
6.32482e-05
6.61945e-05
6.938e-05
7.28188e-05
7.65279e-05
8.05219e-05
8.48134e-05
8.94107e-05
9.43032e-05
9.94851e-05
0.000104956
0.000110833
0.000117445
0.00012533
0.000133261
0.000133013
0.000129984
0.000129202
0.00012441
0.000121795
0.000115319
0.00010811
0.000100631
8.49723e-05
7.27955e-05
5.85326e-05
4.45137e-05
3.51787e-05
2.63537e-05
2.15873e-05
3.34875e-05
5.50807e-05
6.52338e-05
7.86462e-05
0.00010298
2.6947e-05
2.72327e-05
2.75297e-05
2.78369e-05
2.81632e-05
2.85118e-05
2.8883e-05
2.92778e-05
2.96985e-05
3.01471e-05
3.06263e-05
3.11382e-05
3.1686e-05
3.22722e-05
3.29007e-05
3.35747e-05
3.42992e-05
3.50776e-05
3.5916e-05
3.68183e-05
3.77922e-05
3.88419e-05
3.99769e-05
4.12057e-05
4.25374e-05
4.39814e-05
4.55472e-05
4.72447e-05
4.90861e-05
5.10804e-05
5.32407e-05
5.55744e-05
5.80975e-05
6.08133e-05
6.37455e-05
6.69067e-05
7.03117e-05
7.39733e-05
7.79046e-05
8.21137e-05
8.65988e-05
9.13572e-05
9.63807e-05
0.000101736
0.000107587
0.000114355
0.000122387
0.000128278
0.000126711
0.000125581
0.000121994
0.000120389
0.000113977
0.000110671
0.000100744
9.23832e-05
7.89352e-05
6.41559e-05
5.33697e-05
4.00865e-05
3.08281e-05
2.49865e-05
1.9567e-05
2.90508e-05
5.00348e-05
6.02518e-05
7.08668e-05
8.97378e-05
0.000120343
2.53538e-05
2.56364e-05
2.59318e-05
2.62385e-05
2.65653e-05
2.69152e-05
2.72886e-05
2.76866e-05
2.81112e-05
2.85648e-05
2.90497e-05
2.95688e-05
3.01248e-05
3.07213e-05
3.13622e-05
3.20524e-05
3.27967e-05
3.36013e-05
3.44719e-05
3.54156e-05
3.64393e-05
3.7551e-05
3.87607e-05
4.0078e-05
4.15127e-05
4.3075e-05
4.47775e-05
4.66308e-05
4.86447e-05
5.08265e-05
5.31865e-05
5.57319e-05
5.84717e-05
6.14157e-05
6.45809e-05
6.79785e-05
7.16197e-05
7.55117e-05
7.96575e-05
8.40568e-05
8.87139e-05
9.36737e-05
9.90425e-05
0.000105101
0.000112165
0.000120535
0.000122565
0.00012084
0.000119165
0.000116471
0.000112524
0.000108955
0.000101085
9.4892e-05
8.06066e-05
7.1213e-05
5.61596e-05
4.56622e-05
3.56158e-05
2.70038e-05
2.1724e-05
1.87877e-05
2.60845e-05
4.55233e-05
5.5751e-05
6.47855e-05
7.96362e-05
0.000100788
0.000135695
2.39229e-05
2.41967e-05
2.44839e-05
2.47823e-05
2.51002e-05
2.5441e-05
2.58053e-05
2.61944e-05
2.66109e-05
2.70574e-05
2.75372e-05
2.80538e-05
2.86108e-05
2.92129e-05
2.98649e-05
3.05731e-05
3.13432e-05
3.21829e-05
3.30988e-05
3.40998e-05
3.5193e-05
3.63901e-05
3.7701e-05
3.91364e-05
4.07068e-05
4.24203e-05
4.42854e-05
4.63143e-05
4.85174e-05
5.09052e-05
5.34854e-05
5.6269e-05
5.92563e-05
6.2463e-05
6.58947e-05
6.95556e-05
7.34456e-05
7.75678e-05
8.19327e-05
8.65824e-05
9.16163e-05
9.72419e-05
0.000103706
0.000111255
0.000117216
0.000116084
0.000114718
0.000112106
0.000109634
0.000104965
0.000100401
9.26775e-05
8.25156e-05
7.21002e-05
5.85076e-05
4.95511e-05
3.69211e-05
3.05058e-05
2.26557e-05
1.91242e-05
1.71995e-05
2.50521e-05
4.1659e-05
5.15263e-05
5.98548e-05
7.18824e-05
8.58304e-05
0.000111253
0.000142933
2.25509e-05
2.28154e-05
2.30928e-05
2.33812e-05
2.36889e-05
2.40196e-05
2.43743e-05
2.47549e-05
2.51645e-05
2.56069e-05
2.60863e-05
2.66071e-05
2.71745e-05
2.77937e-05
2.84713e-05
2.92132e-05
3.00276e-05
3.09205e-05
3.19019e-05
3.29777e-05
3.41604e-05
3.54607e-05
3.689e-05
3.846e-05
4.01848e-05
4.20812e-05
4.41609e-05
4.64314e-05
4.88987e-05
5.15707e-05
5.4449e-05
5.75399e-05
6.08333e-05
6.43375e-05
6.80478e-05
7.19687e-05
7.61111e-05
8.0529e-05
8.53104e-05
9.06388e-05
9.66811e-05
0.000103617
0.000111335
0.000110874
0.00010912
0.000107622
0.000104504
0.000101167
9.6325e-05
8.92602e-05
8.08311e-05
6.96661e-05
5.96234e-05
4.85831e-05
3.91514e-05
3.09012e-05
2.35824e-05
1.9749e-05
1.55997e-05
1.71311e-05
2.51931e-05
3.78207e-05
4.72092e-05
5.56713e-05
6.55701e-05
7.44432e-05
9.17351e-05
0.000113893
0.000140814
2.14263e-05
2.16887e-05
2.1969e-05
2.22638e-05
2.25808e-05
2.29242e-05
2.32955e-05
2.36967e-05
2.41311e-05
2.46023e-05
2.51145e-05
2.56725e-05
2.6281e-05
2.69466e-05
2.7675e-05
2.84749e-05
2.93528e-05
3.03196e-05
3.13822e-05
3.25541e-05
3.38477e-05
3.52755e-05
3.6851e-05
3.85868e-05
4.04894e-05
4.25691e-05
4.48453e-05
4.73329e-05
5.00421e-05
5.29806e-05
5.61466e-05
5.9538e-05
6.31416e-05
6.69599e-05
7.10064e-05
7.53289e-05
8.00102e-05
8.52005e-05
9.09538e-05
9.74473e-05
0.000104678
0.000104851
0.00010312
0.000101886
9.87261e-05
9.5975e-05
9.00489e-05
8.4262e-05
7.49567e-05
6.63286e-05
5.59877e-05
4.67702e-05
3.8051e-05
2.99804e-05
2.39281e-05
1.88953e-05
1.54408e-05
1.39247e-05
1.66825e-05
2.60906e-05
3.43663e-05
4.32339e-05
5.21657e-05
5.98974e-05
6.55306e-05
7.62975e-05
8.74089e-05
0.00010372
0.000130385
2.02941e-05
2.05581e-05
2.08367e-05
2.11304e-05
2.14481e-05
2.17946e-05
2.21721e-05
2.25834e-05
2.3032e-05
2.35222e-05
2.40587e-05
2.46461e-05
2.52904e-05
2.59974e-05
2.67751e-05
2.76302e-05
2.85741e-05
2.96136e-05
3.07638e-05
3.20378e-05
3.34511e-05
3.50196e-05
3.67607e-05
3.87004e-05
4.08668e-05
4.32667e-05
4.5906e-05
4.87866e-05
5.19108e-05
5.52765e-05
5.88815e-05
6.27231e-05
6.68184e-05
7.12001e-05
7.59407e-05
8.10876e-05
8.66653e-05
9.27467e-05
9.87448e-05
9.78669e-05
9.66229e-05
9.49118e-05
9.17974e-05
8.80963e-05
8.20554e-05
7.59937e-05
6.70157e-05
5.9313e-05
5.015e-05
4.25361e-05
3.42605e-05
2.79377e-05
2.21834e-05
1.78869e-05
1.44448e-05
1.2588e-05
1.33647e-05
1.82858e-05
2.48906e-05
3.08789e-05
3.97294e-05
4.83286e-05
5.3876e-05
5.76073e-05
6.39104e-05
6.89087e-05
7.45242e-05
9.16868e-05
0.000110626
1.9646e-05
1.98986e-05
2.01755e-05
2.04696e-05
2.07872e-05
2.11342e-05
2.15145e-05
2.1932e-05
2.2392e-05
2.28999e-05
2.34621e-05
2.40846e-05
2.47748e-05
2.55403e-05
2.63895e-05
2.73322e-05
2.83778e-05
2.95397e-05
3.08313e-05
3.22656e-05
3.38584e-05
3.5625e-05
3.75755e-05
3.97081e-05
4.20505e-05
4.46364e-05
4.74948e-05
5.0646e-05
5.41204e-05
5.79521e-05
6.21853e-05
6.68205e-05
7.18686e-05
7.71813e-05
8.27804e-05
8.83759e-05
9.17063e-05
8.98421e-05
8.899e-05
8.54424e-05
8.26442e-05
7.71518e-05
7.16244e-05
6.441e-05
5.72272e-05
4.97932e-05
4.19368e-05
3.54434e-05
2.90606e-05
2.38999e-05
1.91923e-05
1.58783e-05
1.29318e-05
1.11492e-05
1.13016e-05
1.40658e-05
1.86261e-05
2.2732e-05
2.89107e-05
3.77389e-05
4.46068e-05
4.78986e-05
5.04293e-05
5.34042e-05
5.56933e-05
5.55826e-05
6.05815e-05
6.99759e-05
8.57162e-05
1.86508e-05
1.89418e-05
1.9245e-05
1.95658e-05
1.99153e-05
2.02988e-05
2.07197e-05
2.11819e-05
2.16905e-05
2.22513e-05
2.28704e-05
2.35551e-05
2.43111e-05
2.51484e-05
2.60738e-05
2.71004e-05
2.82404e-05
2.9507e-05
3.0918e-05
3.24918e-05
3.42511e-05
3.62248e-05
3.84643e-05
4.09975e-05
4.38486e-05
4.70507e-05
5.06427e-05
5.46527e-05
5.90962e-05
6.39902e-05
6.93098e-05
7.47166e-05
7.99918e-05
8.26401e-05
8.20593e-05
7.9133e-05
7.74855e-05
7.27828e-05
6.94012e-05
6.27091e-05
5.8554e-05
5.04642e-05
4.50907e-05
3.76872e-05
3.23738e-05
2.69921e-05
2.27517e-05
1.87546e-05
1.56115e-05
1.28914e-05
1.09705e-05
9.52129e-06
9.72005e-06
1.15066e-05
1.42943e-05
1.73072e-05
2.15912e-05
2.88279e-05
3.54517e-05
3.91601e-05
4.18495e-05
4.36146e-05
4.43319e-05
4.25512e-05
4.00146e-05
3.71444e-05
3.91997e-05
4.67761e-05
5.86099e-05
1.89558e-05
1.92274e-05
1.95534e-05
1.99144e-05
2.031e-05
2.07463e-05
2.12282e-05
2.17591e-05
2.23438e-05
2.2987e-05
2.36951e-05
2.44735e-05
2.53302e-05
2.62736e-05
2.73156e-05
2.84645e-05
2.97355e-05
3.11419e-05
3.26995e-05
3.44455e-05
3.63836e-05
3.85356e-05
4.09478e-05
4.36547e-05
4.66998e-05
5.01164e-05
5.38753e-05
5.797e-05
6.22123e-05
6.64108e-05
7.02915e-05
6.97902e-05
6.75792e-05
6.372e-05
6.07846e-05
5.54741e-05
5.18281e-05
4.56532e-05
4.17467e-05
3.55387e-05
3.14461e-05
2.5997e-05
2.24165e-05
1.85018e-05
1.59617e-05
1.33847e-05
1.16567e-05
9.86414e-06
8.56736e-06
7.90164e-06
8.12815e-06
9.25707e-06
1.08152e-05
1.29993e-05
1.66173e-05
2.21387e-05
2.67056e-05
3.07397e-05
3.34815e-05
3.59255e-05
3.73414e-05
3.72284e-05
3.35038e-05
2.73603e-05
2.17975e-05
1.84664e-05
1.94079e-05
2.46464e-05
3.28549e-05
1.84502e-05
1.88971e-05
1.93426e-05
1.98087e-05
2.03161e-05
2.08721e-05
2.14799e-05
2.21421e-05
2.28652e-05
2.3654e-05
2.45205e-05
2.54658e-05
2.65084e-05
2.76419e-05
2.8915e-05
3.03279e-05
3.1927e-05
3.36994e-05
3.56499e-05
3.78342e-05
4.01627e-05
4.28364e-05
4.56285e-05
4.82285e-05
5.07381e-05
5.32698e-05
5.54999e-05
5.35873e-05
5.14742e-05
4.84757e-05
4.53523e-05
4.20054e-05
3.84604e-05
3.47766e-05
3.1369e-05
2.78038e-05
2.44709e-05
2.11325e-05
1.82915e-05
1.56624e-05
1.36223e-05
1.16692e-05
1.02894e-05
8.90396e-06
8.09856e-06
7.09551e-06
6.317e-06
6.20878e-06
6.50991e-06
7.1026e-06
8.16011e-06
9.75731e-06
1.27963e-05
1.69178e-05
1.75318e-05
2.1053e-05
2.48782e-05
2.93935e-05
3.25383e-05
3.35355e-05
3.25145e-05
2.84693e-05
2.18675e-05
1.40089e-05
8.92837e-06
6.48303e-06
6.03459e-06
7.74071e-06
1.15343e-05
2.17844e-05
2.21899e-05
2.27272e-05
2.332e-05
2.39683e-05
2.46526e-05
2.54235e-05
2.6238e-05
2.71451e-05
2.81353e-05
2.91426e-05
3.04228e-05
3.16314e-05
3.25989e-05
3.38236e-05
3.4869e-05
3.51792e-05
3.48017e-05
3.43237e-05
3.3564e-05
3.26829e-05
3.14587e-05
3.0203e-05
2.8826e-05
2.75147e-05
2.61325e-05
2.43123e-05
2.26139e-05
2.08045e-05
1.90247e-05
1.7323e-05
1.57235e-05
1.41884e-05
1.28253e-05
1.14578e-05
1.03664e-05
9.46806e-06
8.58798e-06
7.7247e-06
6.95437e-06
6.26852e-06
5.7025e-06
5.20954e-06
4.83675e-06
4.53729e-06
4.40826e-06
4.4254e-06
4.70688e-06
5.08047e-06
5.57245e-06
5.96628e-06
5.35003e-06
6.93929e-06
9.68653e-06
1.25983e-05
1.58255e-05
1.87535e-05
2.11244e-05
2.24328e-05
2.25292e-05
2.08908e-05
1.71304e-05
1.19264e-05
6.6029e-06
3.36103e-06
1.91702e-06
1.42788e-06
1.73513e-06
2.59825e-06
9.23752e-06
9.21027e-06
9.18804e-06
9.16815e-06
9.15367e-06
9.13862e-06
9.12815e-06
9.11485e-06
9.10292e-06
9.08439e-06
9.06129e-06
9.03097e-06
8.99467e-06
8.93695e-06
8.87161e-06
8.78576e-06
8.6741e-06
8.53952e-06
8.38803e-06
8.22776e-06
8.06246e-06
7.89546e-06
7.73142e-06
7.56795e-06
7.41158e-06
7.25389e-06
7.10386e-06
6.95126e-06
6.79902e-06
6.63312e-06
6.45145e-06
6.23927e-06
6.01273e-06
5.74494e-06
5.42305e-06
5.06151e-06
4.64299e-06
4.17502e-06
3.70756e-06
3.2481e-06
2.83492e-06
2.41465e-06
2.04892e-06
1.59948e-06
1.16491e-06
9.30402e-07
8.86506e-07
1.07518e-06
1.24596e-06
1.2259e-06
1.12176e-06
1.01967e-06
1.10224e-06
1.48489e-06
2.14661e-06
3.04727e-06
3.88148e-06
4.71488e-06
5.19956e-06
5.35694e-06
4.83181e-06
3.75225e-06
2.43318e-06
1.27483e-06
5.85597e-07
2.37784e-07
1.29158e-07
1.38794e-07
2.52238e-07
4.07998e-06
4.19143e-06
4.3041e-06
4.41773e-06
4.53228e-06
4.64735e-06
4.7631e-06
4.87876e-06
4.99495e-06
5.11019e-06
5.22598e-06
5.33957e-06
5.45423e-06
5.56485e-06
5.67804e-06
5.78473e-06
5.88481e-06
5.97323e-06
6.05429e-06
6.11847e-06
6.17528e-06
6.20655e-06
6.21533e-06
6.20547e-06
6.19402e-06
6.12176e-06
6.05263e-06
5.92718e-06
5.75952e-06
5.5432e-06
5.2711e-06
4.93574e-06
4.52946e-06
4.04684e-06
3.48313e-06
2.84457e-06
2.14396e-06
1.42784e-06
7.80951e-07
3.23334e-07
1.22272e-07
1.04769e-07
1.16214e-07
1.12865e-07
9.585e-08
8.23671e-08
6.72711e-08
5.55013e-08
4.88331e-08
4.51783e-08
4.30271e-08
4.21985e-08
4.60426e-08
5.3705e-08
6.26206e-08
7.18732e-08
8.13654e-08
8.70916e-08
8.57237e-08
7.77162e-08
6.16187e-08
4.39974e-08
3.14386e-08
2.19516e-08
1.57815e-08
1.17988e-08
8.85395e-09
7.07834e-09
6.32364e-09
7.38586e-05
7.37555e-05
7.27396e-05
7.31984e-05
7.25789e-05
7.19161e-05
7.12752e-05
7.17512e-05
7.22349e-05
7.17303e-05
7.20743e-05
7.12784e-05
6.93918e-05
6.8392e-05
6.93539e-05
7.17356e-05
6.97277e-05
6.87382e-05
6.86112e-05
6.88756e-05
6.77032e-05
6.79276e-05
6.81288e-05
6.69177e-05
6.76509e-05
6.77634e-05
6.68045e-05
6.63758e-05
6.72678e-05
6.76704e-05
6.67589e-05
6.67278e-05
6.68579e-05
6.74217e-05
6.63933e-05
6.66616e-05
6.71459e-05
6.67969e-05
6.69746e-05
6.85751e-05
6.80571e-05
6.72179e-05
6.8073e-05
6.89492e-05
6.8316e-05
6.85099e-05
6.96348e-05
6.9481e-05
6.96547e-05
7.05668e-05
7.07938e-05
7.02009e-05
7.11753e-05
6.99679e-05
7.02195e-05
7.07454e-05
7.0804e-05
7.10134e-05
7.11225e-05
6.94404e-05
6.89778e-05
6.87986e-05
6.8521e-05
6.81725e-05
6.78558e-05
6.77625e-05
6.79919e-05
6.80641e-05
6.76667e-05
6.7027e-05
6.60702e-05
6.54763e-05
6.54866e-05
6.65603e-05
6.62094e-05
6.45671e-05
6.4135e-05
6.45579e-05
6.41666e-05
6.35228e-05
6.33456e-05
6.3371e-05
6.27379e-05
6.31849e-05
6.29674e-05
6.2641e-05
6.19456e-05
6.26921e-05
6.29331e-05
6.20677e-05
6.22587e-05
6.24197e-05
6.28127e-05
6.24349e-05
6.24351e-05
6.30073e-05
6.28729e-05
6.27364e-05
6.32519e-05
6.3417e-05
6.33936e-05
6.34964e-05
6.39832e-05
6.45215e-05
6.43202e-05
6.49576e-05
6.52819e-05
6.55372e-05
6.60088e-05
6.62951e-05
6.64726e-05
6.66342e-05
6.68545e-05
6.66161e-05
6.70732e-05
6.72426e-05
6.73133e-05
6.74283e-05
6.52308e-05
6.49691e-05
6.48015e-05
6.45563e-05
6.43954e-05
6.42752e-05
6.41889e-05
6.40375e-05
6.36607e-05
6.30361e-05
6.2319e-05
6.18519e-05
6.18434e-05
6.19713e-05
6.20742e-05
6.10491e-05
6.03665e-05
6.03217e-05
6.0484e-05
5.98817e-05
5.92058e-05
5.9102e-05
5.89557e-05
5.8699e-05
5.89232e-05
5.85436e-05
5.8419e-05
5.78384e-05
5.83409e-05
5.84413e-05
5.78503e-05
5.80979e-05
5.81759e-05
5.83417e-05
5.82907e-05
5.82783e-05
5.86705e-05
5.88113e-05
5.8783e-05
5.89347e-05
5.92503e-05
5.95325e-05
5.95338e-05
5.95863e-05
6.01895e-05
6.03008e-05
6.05982e-05
6.09486e-05
6.13256e-05
6.17224e-05
6.20378e-05
6.23385e-05
6.24971e-05
6.27845e-05
6.28935e-05
6.3052e-05
6.31909e-05
6.32975e-05
6.34165e-05
6.16211e-05
6.14148e-05
6.12511e-05
6.10661e-05
6.08833e-05
6.06525e-05
6.03402e-05
5.99172e-05
5.93973e-05
5.88698e-05
5.84833e-05
5.83534e-05
5.83548e-05
5.81763e-05
5.76812e-05
5.69512e-05
5.67307e-05
5.67217e-05
5.652e-05
5.59244e-05
5.53885e-05
5.52633e-05
5.50749e-05
5.49843e-05
5.50494e-05
5.46584e-05
5.45467e-05
5.41395e-05
5.44538e-05
5.44746e-05
5.41172e-05
5.43422e-05
5.43344e-05
5.44102e-05
5.44509e-05
5.44794e-05
5.47343e-05
5.49645e-05
5.5054e-05
5.51519e-05
5.54189e-05
5.57861e-05
5.59189e-05
5.59259e-05
5.62457e-05
5.65309e-05
5.6782e-05
5.70567e-05
5.73851e-05
5.7749e-05
5.80826e-05
5.84144e-05
5.87011e-05
5.89749e-05
5.92101e-05
5.93869e-05
5.95411e-05
5.96839e-05
5.9821e-05
5.82199e-05
5.79944e-05
5.77898e-05
5.75337e-05
5.72329e-05
5.68723e-05
5.64616e-05
5.60324e-05
5.56376e-05
5.53366e-05
5.51578e-05
5.50356e-05
5.48084e-05
5.43739e-05
5.38256e-05
5.34201e-05
5.32979e-05
5.31355e-05
5.27569e-05
5.22538e-05
5.18805e-05
5.17078e-05
5.15305e-05
5.14932e-05
5.14368e-05
5.10881e-05
5.09729e-05
5.06776e-05
5.08728e-05
5.08563e-05
5.06299e-05
5.08127e-05
5.07875e-05
5.08385e-05
5.09129e-05
5.09717e-05
5.11513e-05
5.13777e-05
5.15243e-05
5.16185e-05
5.18125e-05
5.21585e-05
5.24291e-05
5.25444e-05
5.27239e-05
5.29821e-05
5.32455e-05
5.35037e-05
5.37776e-05
5.40837e-05
5.43956e-05
5.47116e-05
5.50228e-05
5.5318e-05
5.55959e-05
5.58414e-05
5.60588e-05
5.62483e-05
5.64132e-05
5.48577e-05
5.45781e-05
5.43104e-05
5.39884e-05
5.36416e-05
5.32795e-05
5.29263e-05
5.26092e-05
5.23477e-05
5.21363e-05
5.193e-05
5.16517e-05
5.1253e-05
5.07864e-05
5.03841e-05
5.01366e-05
4.99555e-05
4.96531e-05
4.92363e-05
4.88282e-05
4.85407e-05
4.83497e-05
4.82005e-05
4.81575e-05
4.80159e-05
4.7716e-05
4.76022e-05
4.73772e-05
4.74964e-05
4.74633e-05
4.73085e-05
4.74518e-05
4.74419e-05
4.74825e-05
4.75727e-05
4.76524e-05
4.77932e-05
4.7997e-05
4.81749e-05
4.82944e-05
4.84429e-05
4.8725e-05
4.90379e-05
4.92614e-05
4.94436e-05
4.96575e-05
4.99041e-05
5.0163e-05
5.04242e-05
5.06977e-05
5.09799e-05
5.12677e-05
5.15583e-05
5.18457e-05
5.21261e-05
5.23919e-05
5.26415e-05
5.28664e-05
5.30676e-05
5.15475e-05
5.12436e-05
5.09636e-05
5.06509e-05
5.03421e-05
5.00441e-05
4.97674e-05
4.95133e-05
4.92692e-05
4.90073e-05
4.8694e-05
4.83149e-05
4.79019e-05
4.75253e-05
4.72371e-05
4.70067e-05
4.67344e-05
4.63681e-05
4.59779e-05
4.56427e-05
4.53939e-05
4.52061e-05
4.50771e-05
4.49998e-05
4.48081e-05
4.45501e-05
4.44354e-05
4.42589e-05
4.43262e-05
4.42863e-05
4.41782e-05
4.42893e-05
4.42994e-05
4.43343e-05
4.44269e-05
4.45229e-05
4.46466e-05
4.48283e-05
4.50217e-05
4.51787e-05
4.53237e-05
4.55443e-05
4.58311e-05
4.61055e-05
4.63363e-05
4.65514e-05
4.67793e-05
4.70255e-05
4.72808e-05
4.75421e-05
4.78075e-05
4.80752e-05
4.83444e-05
4.86127e-05
4.88778e-05
4.91352e-05
4.93852e-05
4.96183e-05
4.98357e-05
4.8426e-05
4.81418e-05
4.78901e-05
4.76165e-05
4.73509e-05
4.70889e-05
4.68278e-05
4.65571e-05
4.6263e-05
4.59338e-05
4.55708e-05
4.51954e-05
4.48438e-05
4.4542e-05
4.42774e-05
4.3999e-05
4.36652e-05
4.32956e-05
4.29516e-05
4.26659e-05
4.24392e-05
4.22623e-05
4.2137e-05
4.20194e-05
4.18066e-05
4.15836e-05
4.14688e-05
4.13284e-05
4.13616e-05
4.1321e-05
4.1244e-05
4.13275e-05