/*--------------------------------*- C++ -*----------------------------------*\
| =========                 |                                                 |
| \\      /  F ield         | OpenFOAM: The Open Source CFD Toolbox           |
|  \\    /   O peration     | Version:  2312                                  |
|   \\  /    A nd           | Website:  www.openfoam.com                      |
|    \\/     M anipulation  |                                                 |
\*---------------------------------------------------------------------------*/
FoamFile
{
    version     2.0;
    format      ascii;
    arch        "LSB;label=32;scalar=64";
    class       volScalarField;
    location    "100";
    object      omega;
}
// * * * * * * * * * * * * * * * * * * * * * * * * * * * * * * * * * * * * * //

dimensions      [0 0 -1 0 0 0 0];

internalField   nonuniform List<scalar> 
76025
(
0.0286974
0.0286941
0.0286892
0.0286826
0.0286751
0.0286763
0.0286754
0.0286836
0.0286841
0.02869
0.0286932
0.0286967
0.0287029
0.0287067
0.0287124
0.0287224
0.0287276
0.0287458
0.0287519
0.0287684
0.0287838
0.0288065
0.0288243
0.0288488
0.0288746
0.0289008
0.028939
0.0289655
0.0290086
0.0290459
0.0290816
0.0291313
0.0291865
0.0292491
0.0293177
0.029389
0.0294795
0.0295739
0.0296774
0.0297982
0.029911
0.0300687
0.0302153
0.0303975
0.0305997
0.0308337
0.0310899
0.031402
0.0317871
0.0322578
0.0328456
0.0335064
0.0343833
0.03536
0.0367545
0.0381964
0.0399234
0.0419302
0.0439586
0.0465666
0.0486445
0.0508897
0.0530789
0.0552169
0.0578965
0.060675
0.0644183
0.0702696
0.0756237
0.0290048
0.0290078
0.0290151
0.0290196
0.029019
0.0290207
0.0290182
0.0290196
0.0290217
0.0290265
0.0290315
0.0290386
0.0290466
0.0290553
0.0290668
0.0290769
0.0290892
0.0291031
0.0291204
0.0291377
0.029158
0.0291796
0.0292042
0.0292301
0.0292626
0.0292936
0.0293325
0.0293722
0.0294166
0.0294658
0.0295213
0.0295774
0.0296438
0.0297121
0.0297903
0.0298739
0.0299686
0.0300701
0.0301891
0.0303114
0.0304619
0.0306171
0.030807
0.0310173
0.0312637
0.0315534
0.0318943
0.0323117
0.0327994
0.0334136
0.0341239
0.0350245
0.036073
0.0373662
0.0388281
0.0404749
0.042416
0.0444343
0.0467495
0.0488678
0.050991
0.0532033
0.0552358
0.0576589
0.0605605
0.0637888
0.0691055
0.0758986
0.0844097
0.0293357
0.0293498
0.0293649
0.0293796
0.02939
0.0294004
0.0294081
0.0294148
0.029421
0.0294279
0.0294353
0.0294439
0.0294545
0.0294651
0.0294793
0.0294928
0.0295097
0.0295272
0.0295486
0.0295716
0.0295979
0.0296254
0.0296561
0.0296878
0.0297236
0.029761
0.0298027
0.0298476
0.0298977
0.029952
0.030013
0.0300789
0.0301521
0.0302321
0.0303205
0.0304187
0.0305268
0.0306485
0.0307826
0.0309351
0.0311049
0.0312998
0.0315224
0.0317784
0.0320773
0.0324256
0.0328393
0.0333275
0.0339168
0.0346164
0.0354624
0.0364704
0.0376771
0.0390823
0.0406727
0.0424958
0.0444778
0.0465934
0.0487151
0.0507824
0.0529087
0.0550658
0.0572869
0.0601964
0.0634268
0.0676617
0.0743324
0.0823597
0.0944138
0.0297215
0.0297358
0.0297524
0.0297707
0.029789
0.0298076
0.0298258
0.0298435
0.0298601
0.029876
0.0298906
0.0299052
0.0299201
0.0299354
0.0299524
0.0299699
0.0299894
0.0300109
0.0300349
0.0300614
0.0300916
0.0301254
0.0301635
0.0302049
0.0302498
0.0302973
0.030348
0.0304018
0.0304598
0.0305224
0.0305906
0.0306652
0.0307472
0.0308376
0.0309377
0.0310487
0.031173
0.0313113
0.031468
0.0316441
0.0318456
0.0320756
0.0323409
0.0326489
0.0330073
0.0334313
0.0339305
0.0345311
0.0352438
0.0361058
0.0371252
0.0383465
0.0397439
0.0413364
0.0430936
0.0450227
0.047023
0.0490426
0.0510855
0.053089
0.0552711
0.0574909
0.0601159
0.0634882
0.0671932
0.0728578
0.0812701
0.0912787
0.109488
0.0302045
0.0302135
0.030225
0.0302394
0.0302562
0.0302752
0.0302959
0.0303184
0.0303417
0.0303661
0.0303899
0.0304139
0.0304374
0.0304607
0.0304848
0.0305094
0.0305353
0.030563
0.0305927
0.0306242
0.0306583
0.0306955
0.0307365
0.0307814
0.0308299
0.0308822
0.0309379
0.0309979
0.0310624
0.0311326
0.0312091
0.0312938
0.0313873
0.0314918
0.0316082
0.0317392
0.0318861
0.0320524
0.0322406
0.0324547
0.0326995
0.0329798
0.0333042
0.0336802
0.0341222
0.0346426
0.0352628
0.0359995
0.0368772
0.0379103
0.0391181
0.0404917
0.0420182
0.0437052
0.0454916
0.0473903
0.0492683
0.0512583
0.0532252
0.0553376
0.057672
0.0601262
0.0633743
0.0671977
0.0718438
0.0797195
0.0899373
0.103546
0.132411
0.0307839
0.0307907
0.0307994
0.0308102
0.030823
0.030838
0.0308553
0.0308753
0.0308973
0.030922
0.0309484
0.0309767
0.0310061
0.0310363
0.0310674
0.0310994
0.0311328
0.0311679
0.0312054
0.0312455
0.0312885
0.0313348
0.0313847
0.0314385
0.031496
0.0315576
0.031623
0.0316936
0.0317692
0.031852
0.0319421
0.0320426
0.0321535
0.0322785
0.0324177
0.0325754
0.0327519
0.0329528
0.0331792
0.0334386
0.033734
0.0340765
0.0344728
0.0349396
0.0354881
0.0361399
0.0369078
0.0378116
0.0388604
0.0400595
0.0414072
0.0428803
0.0444878
0.0461832
0.0479587
0.0497988
0.0516755
0.053709
0.0557316
0.0581164
0.0606083
0.0635455
0.0674995
0.0718566
0.0784037
0.0888879
0.10128
0.122407
0.170864
0.0314721
0.0314794
0.0314883
0.0314991
0.0315116
0.0315256
0.0315412
0.031559
0.0315787
0.0316009
0.0316254
0.0316526
0.0316823
0.0317143
0.0317485
0.0317847
0.0318232
0.0318641
0.0319082
0.0319558
0.0320074
0.0320635
0.0321244
0.0321902
0.0322607
0.0323366
0.0324174
0.0325045
0.0325978
0.0326994
0.0328095
0.0329314
0.033065
0.0332148
0.0333806
0.0335681
0.0337782
0.0340187
0.0342915
0.0346081
0.0349729
0.0354019
0.0359018
0.0364932
0.0371815
0.0379887
0.0389117
0.0399683
0.0411441
0.0424442
0.0438517
0.0453584
0.046963
0.0486291
0.0504051
0.0522387
0.0542166
0.0563274
0.0585538
0.0612503
0.0639819
0.0677718
0.0724098
0.077916
0.0875099
0.100592
0.117252
0.15187
0.238432
0.0322685
0.0322777
0.0322882
0.0323006
0.0323147
0.0323304
0.0323474
0.0323662
0.0323869
0.0324097
0.0324347
0.0324623
0.0324926
0.0325256
0.0325613
0.0325997
0.0326408
0.0326846
0.0327315
0.032782
0.0328366
0.0328961
0.0329609
0.0330319
0.0331091
0.0331935
0.0332852
0.0333853
0.0334944
0.033614
0.0337455
0.0338913
0.0340533
0.034235
0.0344393
0.0346714
0.0349362
0.0352413
0.035593
0.0360019
0.0364754
0.0370267
0.0376609
0.0383926
0.0392192
0.0401558
0.041187
0.0423311
0.0435596
0.0448982
0.0463154
0.0478379
0.0494501
0.0511621
0.053011
0.0549535
0.0571255
0.0593741
0.0619936
0.0650047
0.0683102
0.0732373
0.0785749
0.0865644
0.0999924
0.115969
0.142251
0.202149
0.363791
0.0332157
0.0332281
0.0332411
0.0332554
0.0332711
0.0332881
0.0333065
0.0333263
0.033348
0.0333718
0.0333979
0.0334266
0.0334581
0.0334926
0.03353
0.0335705
0.0336139
0.0336603
0.0337097
0.0337627
0.0338194
0.0338811
0.0339485
0.0340228
0.0341052
0.0341969
0.0342994
0.0344136
0.034542
0.0346854
0.0348479
0.0350299
0.0352374
0.0354708
0.0357382
0.0360414
0.0363908
0.0367878
0.0372449
0.0377626
0.0383535
0.039017
0.0397622
0.0405891
0.041499
0.0424979
0.0435761
0.0447542
0.0460096
0.047383
0.0488387
0.0504322
0.0521233
0.0539723
0.0559593
0.058114
0.0604877
0.063015
0.0661681
0.0695259
0.0739502
0.0800066
0.0867425
0.0991533
0.116435
0.13818
0.183083
0.294161
0.578084
0.0342962
0.0343145
0.0343329
0.0343519
0.0343719
0.0343928
0.0344147
0.0344378
0.0344624
0.0344889
0.0345175
0.0345489
0.0345831
0.0346208
0.034662
0.0347073
0.0347564
0.0348099
0.0348676
0.0349302
0.034998
0.0350721
0.0351534
0.0352434
0.0353441
0.0354567
0.0355842
0.035727
0.0358903
0.0360732
0.036283
0.0365171
0.0367856
0.0370835
0.0374245
0.0378034
0.0382363
0.0387134
0.0392554
0.0398471
0.0405133
0.0412341
0.0420369
0.0429016
0.0438545
0.0448848
0.0460087
0.0472377
0.0485645
0.0500302
0.051598
0.0533307
0.0551831
0.0572327
0.0594213
0.0618505
0.0644804
0.0675474
0.0712327
0.0752798
0.0814056
0.0886135
0.0988043
0.117131
0.138604
0.174403
0.255479
0.47143
0.785479
0.035582
0.0356061
0.0356303
0.035655
0.0356802
0.035706
0.0357326
0.0357599
0.0357885
0.0358186
0.0358507
0.0358854
0.0359232
0.0359648
0.0360108
0.0360618
0.0361186
0.0361816
0.0362516
0.036329
0.0364149
0.0365098
0.0366155
0.0367324
0.0368635
0.0370088
0.0371725
0.0373544
0.0375603
0.0377883
0.0380463
0.0383301
0.0386505
0.0389997
0.039394
0.0398221
0.0403056
0.040825
0.0414124
0.0420374
0.0427461
0.043496
0.044349
0.045253
0.0462802
0.0473795
0.0486149
0.0499577
0.0514313
0.0530592
0.0547991
0.0567388
0.0588156
0.0610968
0.0635717
0.0663229
0.0694038
0.0731894
0.0774441
0.0830523
0.0911673
0.100473
0.117316
0.141721
0.171988
0.236685
0.392741
0.743783
0.894698
0.0370616
0.0370897
0.0371186
0.0371486
0.0371798
0.037212
0.0372452
0.0372793
0.0373147
0.0373515
0.0373902
0.0374313
0.0374754
0.0375233
0.0375759
0.037634
0.0376988
0.037771
0.0378523
0.037943
0.0380451
0.0381588
0.0382864
0.0384278
0.0385859
0.0387603
0.0389545
0.0391692
0.0394076
0.03967
0.0399607
0.0402785
0.0406303
0.0410121
0.0414382
0.0418983
0.0424162
0.0429707
0.0436029
0.0442736
0.0450504
0.0458672
0.0468263
0.0478271
0.0490077
0.0502362
0.051667
0.0531689
0.0548587
0.0566845
0.0586395
0.0608609
0.0631527
0.0657586
0.0686032
0.0717688
0.0756223
0.0801545
0.085635
0.0938631
0.104173
0.11874
0.144992
0.176169
0.22948
0.354133
0.665715
0.912501
0.940583
0.0388837
0.0389117
0.0389408
0.0389716
0.0390041
0.0390382
0.039074
0.0391113
0.0391504
0.0391914
0.0392346
0.0392803
0.0393294
0.0393822
0.0394397
0.0395029
0.0395727
0.0396503
0.039737
0.039834
0.0399428
0.0400648
0.0402009
0.0403534
0.0405225
0.0407112
0.0409193
0.0411514
0.0414063
0.04169
0.0420007
0.0423456
0.0427236
0.0431419
0.0436064
0.0441186
0.044694
0.0453235
0.0460421
0.0468172
0.0477187
0.0486701
0.0497984
0.0509553
0.0523492
0.0537386
0.0554214
0.0570787
0.0590517
0.0610548
0.0633195
0.0658212
0.0683496
0.0714964
0.0746853
0.0786338
0.0835302
0.0891174
0.0973214
0.108825
0.123143
0.148294
0.184439
0.23166
0.333827
0.591332
0.920285
0.992064
0.953137
0.0410191
0.0410483
0.0410786
0.0411107
0.0411448
0.0411812
0.0412198
0.0412608
0.0413044
0.0413508
0.0414001
0.041453
0.0415095
0.0415705
0.0416363
0.041708
0.0417859
0.0418717
0.0419655
0.04207
0.0421847
0.0423136
0.0424555
0.0426158
0.042792
0.0429916
0.043211
0.0434604
0.043734
0.0440455
0.0443866
0.044775
0.0452003
0.0456851
0.0462193
0.0468266
0.0474993
0.0482569
0.0491031
0.0500386
0.051098
0.0522334
0.0535483
0.0548949
0.0565085
0.0580705
0.0600247
0.0618256
0.0641587
0.06631
0.0690288
0.0717279
0.0747545
0.0785728
0.0821785
0.0877158
0.0937574
0.10174
0.114628
0.130275
0.154171
0.194193
0.243673
0.333546
0.540052
0.925314
1.03781
1.01615
0.89566
0.0436783
0.0437092
0.0437404
0.0437729
0.0438069
0.0438428
0.0438808
0.0439216
0.0439653
0.0440126
0.0440636
0.0441191
0.0441792
0.0442449
0.0443162
0.0443947
0.0444798
0.0445742
0.0446769
0.0447917
0.0449172
0.0450588
0.0452142
0.0453912
0.0455861
0.0458096
0.0460563
0.0463407
0.0466544
0.0470169
0.0474154
0.047876
0.0483795
0.048964
0.0496
0.0503369
0.0511341
0.0520518
0.0530411
0.0541643
0.0553792
0.0567238
0.0582045
0.059772
0.0615766
0.0633565
0.0655793
0.0675743
0.070356
0.0726286
0.0760216
0.0788381
0.082924
0.0872723
0.0921386
0.100208
0.107656
0.121577
0.140669
0.163915
0.206502
0.263313
0.348459
0.532237
0.932983
1.08351
1.07437
0.988117
0.751082
0.0467923
0.0468313
0.0468704
0.0469104
0.0469517
0.0469946
0.0470394
0.0470868
0.0471372
0.0471912
0.0472495
0.0473127
0.0473814
0.0474567
0.0475388
0.0476295
0.0477289
0.0478392
0.0479606
0.0480965
0.0482466
0.0484158
0.0486034
0.0488164
0.0490529
0.0493235
0.0496245
0.04997
0.0503534
0.0507939
0.0512796
0.0518378
0.0524478
0.053153
0.0539149
0.054796
0.0557351
0.0568216
0.0579624
0.0592815
0.0606502
0.0622247
0.0638586
0.0657028
0.0676749
0.0697915
0.0722566
0.074632
0.077834
0.0803841
0.0846761
0.0877272
0.0936156
0.0984668
0.106787
0.117612
0.129433
0.154584
0.179933
0.222402
0.291024
0.378669
0.555155
0.943849
1.1274
1.13489
1.07209
0.857266
0.587062
0.0507188
0.0507615
0.0508047
0.0508494
0.0508957
0.050944
0.0509944
0.0510476
0.051104
0.0511645
0.0512294
0.0513002
0.0513772
0.0514623
0.051556
0.0516605
0.0517765
0.0519068
0.0520522
0.0522161
0.0523997
0.052607
0.0528396
0.0531023
0.0533973
0.0537313
0.0541061
0.0545301
0.0550039
0.055539
0.0561329
0.0568022
0.057541
0.0583747
0.0592848
0.0603125
0.0614176
0.0626714
0.0639931
0.0655087
0.0670691
0.0688895
0.0707221
0.072903
0.0750834
0.0776888
0.0803884
0.0833915
0.0869341
0.0903012
0.0955752
0.0996431
0.108119
0.114761
0.129616
0.14387
0.168471
0.206538
0.24513
0.326374
0.429714
0.603436
0.986733
1.17699
1.19538
1.14223
0.94876
0.665183
0.462063
0.055408
0.0554614
0.055516
0.0555728
0.0556322
0.0556945
0.0557598
0.055829
0.0559024
0.0559811
0.0560656
0.0561575
0.0562574
0.0563674
0.0564886
0.0566232
0.0567728
0.0569398
0.0571266
0.0573356
0.05757
0.057832
0.0581264
0.0584545
0.0588254
0.0592375
0.0597034
0.0602189
0.060801
0.0614414
0.0621628
0.062952
0.0638429
0.0648118
0.0659002
0.067079
0.068392
0.0698151
0.0713795
0.073092
0.0749372
0.0770088
0.0791761
0.0817237
0.0842814
0.0874544
0.0904842
0.0944517
0.0984763
0.103593
0.110153
0.117088
0.129746
0.141277
0.167328
0.189194
0.237434
0.288798
0.36718
0.507198
0.685397
1.06751
1.23836
1.25292
1.20467
1.02531
0.739836
0.517782
0.386712
0.0614418
0.061493
0.061546
0.0616024
0.0616628
0.0617276
0.0617977
0.0618737
0.0619568
0.0620477
0.0621482
0.0622588
0.0623821
0.0625183
0.062671
0.06284
0.0630302
0.0632407
0.0634779
0.06374
0.064036
0.0643618
0.0647302
0.0651355
0.0655954
0.0660987
0.0666716
0.0672935
0.0680037
0.0687666
0.0696411
0.0705706
0.0716442
0.0727696
0.0740766
0.0754274
0.0770057
0.0786181
0.0805135
0.0824414
0.0847151
0.0870527
0.089788
0.0926953
0.0959396
0.0996861
0.103634
0.109002
0.114391
0.122848
0.131949
0.146128
0.165568
0.189635
0.231696
0.270819
0.355683
0.436066
0.600651
0.828596
1.16591
1.30976
1.30949
1.25918
1.08108
0.801082
0.570144
0.425819
0.351732
0.0688543
0.0689275
0.0690032
0.0690834
0.0691693
0.0692615
0.0693611
0.0694688
0.0695861
0.0697138
0.0698536
0.0700061
0.0701739
0.0703571
0.0705595
0.070781
0.0710267
0.071296
0.071596
0.071925
0.0722927
0.0726959
0.0731487
0.0736457
0.0742054
0.0748171
0.0755075
0.0762563
0.0771049
0.0780155
0.0790547
0.0801572
0.0814294
0.0827531
0.0843052
0.0858814
0.0877748
0.0896445
0.0919667
0.0941942
0.0970744
0.099767
0.103356
0.10668
0.111299
0.115902
0.122359
0.129829
0.139757
0.153782
0.17098
0.198839
0.230806
0.280889
0.342383
0.428682
0.562719
0.724715
1.02802
1.28382
1.37943
1.37128
1.30439
1.10798
0.839438
0.612119
0.461074
0.385519
0.341791
0.0784889
0.0785609
0.0786365
0.0787177
0.0788065
0.0789035
0.0790103
0.079128
0.0792588
0.0794037
0.0795651
0.0797441
0.0799435
0.0801649
0.080411
0.0806846
0.0809877
0.0813256
0.081698
0.0821141
0.0825705
0.0830822
0.0836424
0.0842719
0.0849571
0.0857288
0.086564
0.0875045
0.0885168
0.089655
0.0908786
0.0922519
0.0937352
0.0953825
0.0971911
0.0991591
0.101395
0.103744
0.106572
0.109386
0.113044
0.116454
0.121437
0.125981
0.133413
0.140487
0.152564
0.165268
0.186497
0.211374
0.248625
0.296037
0.357752
0.445247
0.556174
0.725758
0.947818
1.26841
1.42267
1.4483
1.42402
1.32218
1.09349
0.846622
0.635928
0.488872
0.415262
0.376634
0.349006
0.0909152
0.0910493
0.0911871
0.0913311
0.0914828
0.0916433
0.0918135
0.0919955
0.0921904
0.0924013
0.0926287
0.0928775
0.0931467
0.0934442
0.0937659
0.0941245
0.0945105
0.0949447
0.095408
0.0959343
0.0964896
0.0971306
0.0977967
0.0985774
0.0993727
0.100322
0.101269
0.102427
0.103554
0.104974
0.106323
0.108078
0.109707
0.111885
0.113882
0.1166
0.119122
0.122526
0.125849
0.130168
0.134969
0.140784
0.148566
0.157345
0.170828
0.185888
0.210129
0.237675
0.280738
0.328547
0.401051
0.483695
0.60411
0.759204
0.976886
1.26725
1.46749
1.53256
1.52102
1.4554
1.28603
1.03979
0.821644
0.636381
0.502769
0.436635
0.407592
0.393349
0.375598
0.106903
0.107021
0.10715
0.10729
0.107446
0.107619
0.107809
0.108022
0.108256
0.108517
0.108803
0.109123
0.109471
0.109862
0.110281
0.110756
0.111258
0.111831
0.112427
0.113118
0.113823
0.114658
0.115488
0.116502
0.117477
0.118717
0.119858
0.121388
0.122722
0.12464
0.12621
0.128669
0.130548
0.133784
0.136089
0.140447
0.143432
0.14959
0.153909
0.16306
0.170489
0.184481
0.198742
0.221125
0.248622
0.285827
0.334497
0.394526
0.473816
0.568888
0.702189
0.855922
1.08295
1.36433
1.56745
1.64124
1.62934
1.57074
1.42432
1.16101
0.936526
0.760927
0.611364
0.497553
0.442037
0.429293
0.431368
0.43173
0.420796
0.129689
0.12997
0.130255
0.130552
0.130861
0.131184
0.131523
0.131881
0.132258
0.13266
0.133083
0.133538
0.134017
0.134536
0.135079
0.135676
0.136295
0.136987
0.137696
0.138508
0.139324
0.140292
0.141237
0.14241
0.143513
0.144978
0.146292
0.148202
0.149811
0.152418
0.154458
0.158199
0.160848
0.166394
0.170051
0.17857
0.184368
0.197955
0.207796
0.230453
0.247112
0.284683
0.316309
0.37458
0.431274
0.515666
0.605522
0.727289
0.869769
1.06113
1.28545
1.5748
1.74132
1.7786
1.76549
1.68765
1.53705
1.23855
0.974645
0.799441
0.670542
0.562642
0.475586
0.431962
0.426306
0.451657
0.47743
0.488454
0.489308
0.158314
0.158569
0.158852
0.159159
0.159496
0.159861
0.160259
0.160687
0.161153
0.161654
0.162198
0.162782
0.163416
0.1641
0.164843
0.165648
0.166525
0.167487
0.168532
0.169698
0.170955
0.172394
0.173947
0.175786
0.177758
0.180221
0.182838
0.186342
0.189878
0.195092
0.200118
0.208342
0.215675
0.229131
0.240404
0.262966
0.281068
0.318402
0.348129
0.407817
0.456436
0.546951
0.621771
0.747782
0.855006
1.0164
1.17284
1.40503
1.66219
1.88593
1.98648
1.97642
1.91812
1.83521
1.61349
1.25776
0.943299
0.758039
0.644644
0.56218
0.49338
0.433193
0.401712
0.399154
0.437525
0.493724
0.548213
0.578556
0.591001
0.205326
0.205978
0.206658
0.20738
0.208154
0.208979
0.209865
0.210811
0.211831
0.212922
0.214102
0.21537
0.21675
0.218212
0.21982
0.221529
0.223442
0.225412
0.22764
0.229941
0.232658
0.235808
0.239672
0.244216
0.249897
0.256691
0.265309
0.275655
0.288599
0.304489
0.324333
0.349175
0.379982
0.419125
0.466246
0.526683
0.596607
0.686969
0.7858
0.913528
1.04248
1.20898
1.35963
1.56226
1.72169
1.97563
2.22898
2.30582
2.27956
2.23032
2.13209
1.94861
1.60024
1.17511
0.879965
0.698469
0.571834
0.482464
0.430035
0.397906
0.371599
0.357445
0.35529
0.382004
0.441039
0.526873
0.627165
0.717007
0.771685
0.331182
0.333947
0.336833
0.339875
0.343057
0.346429
0.349965
0.353741
0.357698
0.361955
0.366408
0.371268
0.376336
0.381822
0.387622
0.393963
0.400868
0.408297
0.416555
0.426901
0.439585
0.454944
0.473634
0.496043
0.523104
0.555317
0.594061
0.639777
0.694807
0.758861
0.835417
0.924057
1.02935
1.14864
1.28719
1.44063
1.61427
1.79933
1.9974
2.19666
2.39455
2.58113
2.74641
2.89462
2.96628
2.88341
2.72025
2.5137
2.28729
1.94138
1.47775
1.16603
0.895823
0.68985
0.564235
0.492309
0.453927
0.427292
0.408582
0.39444
0.381243
0.376314
0.380799
0.407688
0.458104
0.53797
0.661647
0.79706
0.924359
1.24
1.2553
1.27074
1.28659
1.30251
1.31905
1.33551
1.35289
1.36998
1.38844
1.40626
1.42606
1.44463
1.46718
1.48717
1.51343
1.54905
1.59454
1.64986
1.71431
1.78814
1.87145
1.96403
2.06645
2.17858
2.30071
2.43247
2.5741
2.72508
2.88672
3.06121
3.24784
3.44087
3.64003
3.8373
4.03035
4.20556
4.35831
4.46998
4.53837
4.51826
4.45739
4.27094
4.01077
3.49283
2.83406
2.22716
1.74736
1.46043
1.31076
1.24037
1.23568
1.26117
1.21856
1.10904
1.00338
0.951005
0.895274
0.852827
0.823581
0.808594
0.812698
0.835822
0.889155
0.967221
1.12231
1.24192
1.28737
1.30322
8.35204
8.34935
8.34589
8.34162
8.33652
8.33056
8.32372
8.31595
8.30728
8.29757
8.28696
8.27519
8.26256
8.2486
8.23394
8.21773
8.1999
8.18003
8.15849
8.13443
8.10873
8.07974
8.04772
8.01399
7.9756
7.93676
7.8928
7.84451
7.79158
7.7336
7.67005
7.6004
7.52415
7.44101
7.35084
7.25447
7.15333
7.05169
6.9569
6.87897
6.82325
6.78337
6.74608
6.7076
6.66809
6.62901
6.59004
6.55159
6.51388
6.47679
6.44025
6.40429
6.36924
6.33508
6.30168
6.26902
6.23715
6.20584
6.1749
6.14444
6.11443
6.08545
6.05804
6.03212
6.00777
5.98497
5.96371
5.94408
5.92614
0.0286175
0.0286225
0.0286276
0.0286311
0.0286368
0.0286406
0.0286436
0.0286319
0.0286161
0.0285903
0.0285806
0.0286046
0.0286595
0.02869
0.0286895
0.0286478
0.0286548
0.0286817
0.0286984
0.028676
0.0286804
0.0287101
0.0286989
0.0287038
0.0287018
0.0286686
0.028697
0.0287129
0.0287322
0.0287347
0.028727
0.0287426
0.0287602
0.0287353
0.0287467
0.0287225
0.0287381
0.0287432
0.0287293
0.0287571
0.0287209
0.0287328
0.0287226
0.0287038
0.0287099
0.0287017
0.0286834
0.0286549
0.0286363
0.0286322
0.0286359
0.0286519
0.0286737
0.0286876
0.0286976
0.0286992
0.0287014
0.0287003
0.0286995
0.0289307
0.0289311
0.0289279
0.0289227
0.0289144
0.0289013
0.0288847
0.0288694
0.0288656
0.0288708
0.0289036
0.0289322
0.0289502
0.0289495
0.0289142
0.0289089
0.028936
0.0289495
0.0289487
0.0289357
0.0289491
0.0289643
0.0289528
0.0289607
0.0289433
0.0289198
0.0289476
0.028967
0.0289741
0.0289727
0.0289758
0.0289901
0.0290082
0.028986
0.0289998
0.0289867
0.0289894
0.0290027
0.028998
0.0290146
0.029
0.029004
0.0290005
0.0289891
0.0289827
0.0289824
0.0289742
0.0289613
0.0289452
0.0289282
0.0289183
0.0289196
0.0289283
0.0289382
0.0289561
0.0289691
0.0289802
0.0289894
0.028996
0.0292678
0.0292575
0.0292454
0.0292329
0.0292194
0.029209
0.0292057
0.0292091
0.029227
0.0292464
0.0292621
0.029271
0.029258
0.0292305
0.0292241
0.0292417
0.0292568
0.0292594
0.0292431
0.0292464
0.0292602
0.0292662
0.0292555
0.0292605
0.0292358
0.0292241
0.0292524
0.0292769
0.0292788
0.0292763
0.0292867
0.029297
0.0293125
0.0292947
0.0293028
0.0292972
0.0292926
0.0293079
0.0293078
0.0293235
0.0293195
0.0293194
0.0293269
0.029323
0.0293155
0.0293155
0.029313
0.0293074
0.0292995
0.0292895
0.0292785
0.0292697
0.0292704
0.0292701
0.0292765
0.0292858
0.029297
0.0293088
0.0293208
0.0296434
0.0296319
0.029622
0.0296147
0.0296118
0.0296143
0.0296229
0.0296341
0.0296446
0.0296526
0.0296526
0.0296309
0.0296092
0.0296051
0.029614
0.0296271
0.0296323
0.0296208
0.0296112
0.0296222
0.0296346
0.029635
0.0296227
0.0296231
0.0295897
0.0295881
0.0296137
0.0296385
0.0296305
0.0296262
0.0296447
0.0296529
0.0296717
0.0296589
0.0296692
0.029669
0.0296626
0.0296766
0.0296803
0.0297023
0.0297019
0.0296975
0.0297064
0.0297189
0.0297173
0.0297126
0.0297153
0.0297141
0.0297121
0.029707
0.0297015
0.0296959
0.0296928
0.0296916
0.0296897
0.0296912
0.0296962
0.0297021
0.0297102
0.030106
0.0301005
0.0300984
0.0300987
0.030104
0.0301085
0.0301142
0.0301182
0.0301163
0.0301004
0.0300807
0.0300576
0.0300537
0.0300574
0.0300655
0.030071
0.0300611
0.0300421
0.0300457
0.0300573
0.0300651
0.0300597
0.0300459
0.0300391
0.0300064
0.030016
0.0300424
0.0300697
0.0300614
0.0300584
0.0300789
0.0300826
0.0301008
0.0300909
0.0300985
0.0301015
0.0300957
0.0301051
0.0301086
0.0301335
0.0301457
0.0301444
0.030144
0.030162
0.0301732
0.0301808
0.0301798
0.0301881
0.030187
0.030193
0.03019
0.0301911
0.0301895
0.0301866
0.0301892
0.030188
0.0301901
0.0301932
0.0301984
0.0306773
0.0306748
0.0306745
0.0306738
0.0306725
0.0306678
0.0306591
0.0306447
0.0306248
0.0306025
0.0305866
0.0305794
0.0305832
0.030589
0.0305939
0.0305857
0.0305646
0.0305586
0.0305682
0.0305787
0.0305821
0.0305713
0.0305544
0.0305384
0.0305098
0.0305247
0.0305471
0.0305714
0.0305537
0.0305495
0.0305767
0.0305799
0.0306035
0.0305996
0.0306092
0.0306177
0.0306147
0.0306246
0.0306274
0.0306514
0.030673
0.0306799
0.0306764
0.0306879
0.030703
0.0307213
0.0307283
0.0307372
0.0307434
0.0307458
0.0307576
0.0307567
0.0307658
0.0307654
0.0307677
0.0307683
0.0307716
0.0307744
0.0307795
0.0313554
0.0313464
0.0313378
0.0313257
0.0313113
0.0312932
0.0312726
0.0312509
0.0312312
0.0312175
0.0312125
0.0312131
0.031216
0.0312161
0.0312006
0.0311785
0.0311628
0.0311677
0.0311756
0.0311809
0.0311777
0.0311595
0.0311383
0.0311173
0.031098
0.0311189
0.0311428
0.0311698
0.0311557
0.0311546
0.0311809
0.0311794
0.0312016
0.031199
0.031206
0.031218
0.0312169
0.0312248
0.0312275
0.0312496
0.0312786
0.0312989
0.0313004
0.0313069
0.0313202
0.0313418
0.031362
0.0313778
0.0313939
0.0314012
0.0314152
0.0314221
0.0314321
0.0314385
0.0314449
0.0314493
0.0314553
0.0314593
0.0314666
0.0320964
0.0320783
0.032061
0.0320407
0.0320206
0.032
0.0319818
0.0319669
0.0319576
0.0319536
0.031953
0.0319508
0.0319428
0.031926
0.0319021
0.0318869
0.0318873
0.0318939
0.0319005
0.0319028
0.0318926
0.0318682
0.0318431
0.0318192
0.0318067
0.0318295
0.0318491
0.0318701
0.0318455
0.0318426
0.0318766
0.0318771
0.0319053
0.0319105
0.0319202
0.0319371
0.0319411
0.0319519
0.0319533
0.0319702
0.0319999
0.0320306
0.0320435
0.0320493
0.0320578
0.0320729
0.0320956
0.0321165
0.0321404
0.0321565
0.0321752
0.0321895
0.032204
0.032216
0.0322271
0.0322355
0.032245
0.032251
0.0322609
0.0329694
0.0329484
0.0329304
0.0329112
0.0328946
0.0328793
0.0328675
0.0328581
0.0328509
0.0328431
0.032832
0.0328149
0.0327919
0.0327665
0.0327469
0.0327417
0.0327434
0.032746
0.0327468
0.0327393
0.0327168
0.0326851
0.0326559
0.0326329
0.0326336
0.0326587
0.0326814
0.0327058
0.032689
0.0326912
0.0327212
0.0327163
0.0327399
0.0327462
0.0327543
0.0327725
0.0327803
0.0327956
0.0327998
0.0328129
0.0328412
0.0328795
0.0329087
0.0329256
0.032938
0.0329505
0.0329705
0.0329919
0.0330192
0.0330432
0.0330684
0.0330911
0.0331131
0.0331325
0.0331511
0.0331655
0.0331808
0.0331908
0.0332047
0.0339906
0.0339702
0.0339546
0.0339375
0.0339235
0.0339093
0.0338966
0.0338827
0.0338675
0.0338486
0.033826
0.0338007
0.0337766
0.0337585
0.0337513
0.0337525
0.0337556
0.0337579
0.0337551
0.0337375
0.0337076
0.0336731
0.0336437
0.0336261
0.033635
0.0336576
0.0336748
0.0336898
0.0336596
0.0336583
0.0336987
0.0337
0.0337306
0.0337463
0.0337591
0.0337811
0.0337934
0.033813
0.0338214
0.0338302
0.0338511
0.0338868
0.033924
0.033953
0.0339732
0.0339885
0.0340056
0.0340235
0.0340473
0.0340717
0.0340985
0.0341248
0.0341519
0.0341767
0.0342019
0.0342225
0.0342446
0.03426
0.0342799
0.0352493
0.0352283
0.0352127
0.0351932
0.0351759
0.0351555
0.0351349
0.0351111
0.0350857
0.0350578
0.0350301
0.0350048
0.0349856
0.0349744
0.0349705
0.034969
0.0349649
0.0349559
0.0349367
0.0349034
0.0348631
0.0348232
0.0347937
0.0347847
0.0348004
0.0348248
0.0348463
0.0348672
0.0348502
0.0348569
0.0348893
0.0348832
0.0349058
0.0349216
0.0349345
0.0349582
0.0349747
0.0349999
0.0350185
0.0350323
0.0350516
0.0350854
0.0351279
0.0351707
0.0352057
0.0352336
0.035258
0.0352791
0.0353025
0.0353261
0.0353525
0.0353789
0.0354077
0.0354345
0.0354637
0.035488
0.0355154
0.0355351
0.0355606
0.0366986
0.0366713
0.03665
0.0366229
0.0365981
0.0365695
0.0365418
0.036512
0.0364838
0.0364566
0.036434
0.0364168
0.0364065
0.0364017
0.0363995
0.0363951
0.0363854
0.0363679
0.0363388
0.0362998
0.0362587
0.0362222
0.0362012
0.0362045
0.0362228
0.0362443
0.0362585
0.0362656
0.0362302
0.0362302
0.0362779
0.0362848
0.0363162
0.0363423
0.0363617
0.0363894
0.0364092
0.0364357
0.0364594
0.0364763
0.0364918
0.0365167
0.0365521
0.0365963
0.0366389
0.0366776
0.0367119
0.0367408
0.0367685
0.036794
0.0368211
0.0368469
0.0368756
0.0369019
0.0369319
0.0369569
0.0369867
0.0370081
0.0370374
0.0384675
0.0384342
0.0384085
0.0383762
0.038348
0.0383163
0.0382879
0.0382588
0.038234
0.0382113
0.0381939
0.0381798
0.0381692
0.0381584
0.038145
0.0381253
0.0380976
0.0380602
0.0380129
0.0379611
0.0379125
0.0378749
0.0378601
0.0378692
0.0378876
0.0379097
0.037929
0.0379467
0.0379322
0.0379451
0.0379788
0.037974
0.037994
0.0380181
0.0380395
0.0380713
0.0380984
0.038132
0.0381675
0.0381987
0.0382254
0.0382545
0.0382897
0.0383356
0.0383855
0.0384351
0.0384827
0.0385246
0.0385637
0.0385977
0.0386314
0.038661
0.0386928
0.0387201
0.0387516
0.0387765
0.0388077
0.0388287
0.0388599
0.0405145
0.0404768
0.0404497
0.040415
0.0403868
0.0403551
0.0403288
0.0403019
0.0402801
0.0402593
0.0402424
0.0402259
0.0402096
0.0401903
0.0401666
0.0401364
0.0400992
0.0400549
0.0400061
0.0399588
0.0399199
0.0398973
0.0399001
0.0399165
0.0399382
0.0399575
0.0399679
0.0399651
0.0399236
0.039924
0.0399826
0.0400004
0.0400332
0.0400679
0.0400966
0.0401319
0.0401611
0.0401934
0.0402288
0.040262
0.0402913
0.0403194
0.0403485
0.0403861
0.0404312
0.0404805
0.040533
0.0405832
0.0406328
0.0406774
0.0407218
0.0407602
0.0408004
0.0408337
0.0408713
0.0408997
0.0409357
0.0409585
0.0409939
0.0430951
0.0430572
0.043033
0.0429992
0.042974
0.0429435
0.042919
0.0428918
0.0428685
0.0428429
0.0428185
0.0427904
0.0427596
0.0427227
0.0426798
0.0426294
0.0425723
0.0425102
0.0424476
0.0423913
0.0423488
0.0423296
0.0423336
0.0423439
0.04236
0.0423771
0.0423927
0.0424079
0.0423997
0.0424212
0.0424548
0.0424541
0.0424718
0.0425026
0.0425357
0.0425801
0.0426227
0.0426681
0.0427193
0.0427706
0.0428197
0.0428662
0.0429089
0.0429529
0.0430015
0.0430532
0.0431096
0.043165
0.0432222
0.0432746
0.0433282
0.0433745
0.0434235
0.0434634
0.0435086
0.0435418
0.0435842
0.0436099
0.0436508
0.0461605
0.0461147
0.0460853
0.0460436
0.0460117
0.0459722
0.0459389
0.0459003
0.045865
0.0458252
0.0457859
0.0457417
0.0456955
0.0456443
0.0455899
0.0455317
0.0454723
0.0454146
0.0453637
0.0453262
0.0453085
0.0453128
0.0453295
0.0453516
0.0453741
0.0453908
0.0453969
0.0453813
0.045331
0.04533
0.045407
0.0454425
0.0454802
0.0455214
0.045559
0.0456037
0.0456455
0.0456854
0.0457307
0.0457781
0.0458263
0.0458751
0.0459215
0.0459667
0.0460147
0.0460646
0.0461203
0.0461765
0.0462377
0.0462955
0.0463575
0.0464123
0.0464722
0.0465214
0.0465779
0.0466198
0.0466731
0.0467061
0.0467575
0.0500413
0.0499879
0.0499549
0.0499057
0.0498683
0.04982
0.0497786
0.0497291
0.0496828
0.0496296
0.0495766
0.0495172
0.0494556
0.0493882
0.049318
0.0492445
0.0491713
0.0491023
0.0490431
0.0490004
0.0489785
0.0489726
0.0489727
0.0489761
0.0489825
0.0489905
0.0490004
0.0490133
0.0490177
0.0490522
0.0490823
0.0490891
0.0491075
0.0491461
0.0491938
0.0492564
0.049324
0.0493899
0.0494603
0.0495328
0.0496057
0.0496789
0.0497501
0.0498164
0.0498813
0.0499424
0.0500059
0.050066
0.0501305
0.0501895
0.0502541
0.0503101
0.0503733
0.0504243
0.0504852
0.0505292
0.0505881
0.0506229
0.0506812
0.0546378
0.054565
0.0545166
0.0544478
0.054393
0.0543244
0.0542639
0.0541932
0.0541268
0.0540528
0.0539805
0.0539029
0.0538261
0.0537473
0.0536711
0.0535988
0.0535353
0.053485
0.0534524
0.0534403
0.0534434
0.0534575
0.0534793
0.0535038
0.053527
0.0535424
0.0535442
0.0535127
0.0534455
0.0534398
0.0535495
0.0536146
0.0536637
0.0537096
0.0537526
0.0538034