/*--------------------------------*- C++ -*----------------------------------*\
| =========                 |                                                 |
| \\      /  F ield         | OpenFOAM: The Open Source CFD Toolbox           |
|  \\    /   O peration     | Version:  2312                                  |
|   \\  /    A nd           | Website:  www.openfoam.com                      |
|    \\/     M anipulation  |                                                 |
\*---------------------------------------------------------------------------*/
FoamFile
{
    version     2.0;
    format      ascii;
    arch        "LSB;label=32;scalar=64";
    class       volScalarField;
    location    "100";
    object      p;
}
// * * * * * * * * * * * * * * * * * * * * * * * * * * * * * * * * * * * * * //

dimensions      [0 2 -2 0 0 0 0];

internalField   nonuniform List<scalar> 
76025
(
0.000305002
0.000296851
0.000288531
0.000280162
0.000271759
0.000263303
0.000254429
0.00024582
0.000236926
0.000228088
0.000219149
0.000210097
0.000200928
0.000191751
0.000182464
0.000173098
0.000163871
0.000154375
0.000144931
0.000135493
0.000126076
0.000116396
0.000106788
9.72626e-05
8.76478e-05
7.8123e-05
6.84805e-05
5.8615e-05
4.91086e-05
3.92126e-05
2.97125e-05
2.00432e-05
1.0322e-05
4.97315e-07
-9.17567e-06
-1.88811e-05
-2.84492e-05
-3.84678e-05
-4.84829e-05
-5.8387e-05
-6.81658e-05
-7.80038e-05
-8.83178e-05
-9.86653e-05
-0.00010873
-0.000119032
-0.000129544
-0.00014039
-0.000150961
-0.000161871
-0.000172999
-0.000184285
-0.000196035
-0.00020818
-0.000220511
-0.000233083
-0.000246335
-0.000260218
-0.000274577
-0.000289508
-0.000304971
-0.000322024
-0.000339865
-0.000358475
-0.000378365
-0.000400216
-0.000423102
-0.000448044
-0.000474744
0.000306245
0.000297746
0.000289169
0.0002805
0.000271725
0.00026281
0.000253839
0.0002448
0.000235644
0.000226411
0.000217092
0.000207711
0.000198276
0.000188771
0.000179227
0.000169671
0.000160014
0.000150361
0.000140616
0.000130916
0.000121125
0.000111338
0.000101554
9.17854e-05
8.19738e-05
7.21253e-05
6.22458e-05
5.24492e-05
4.26673e-05
3.28612e-05
2.31078e-05
1.31958e-05
3.3043e-06
-6.5251e-06
-1.64134e-05
-2.62633e-05
-3.61877e-05
-4.61413e-05
-5.60588e-05
-6.60428e-05
-7.60103e-05
-8.60849e-05
-9.62168e-05
-0.00010634
-0.000116571
-0.000126909
-0.000137389
-0.000147952
-0.000158651
-0.00016957
-0.000180711
-0.000192047
-0.00020367
-0.000215616
-0.000227871
-0.000240535
-0.000253726
-0.0002674
-0.00028161
-0.000296416
-0.000311978
-0.000328737
-0.000346393
-0.000364982
-0.000384852
-0.000406363
-0.000429284
-0.00045378
-0.000480075
0.000307528
0.000298699
0.000289774
0.000280738
0.000271588
0.000262359
0.000253046
0.000243637
0.000234142
0.000224563
0.000214917
0.00020522
0.000195468
0.000185669
0.000175837
0.000165949
0.000156024
0.000146069
0.000136089
0.000126084
0.000116068
0.000106056
9.60386e-05
8.6016e-05
7.59841e-05
6.59455e-05
5.59358e-05
4.59509e-05
3.59658e-05
2.59905e-05
1.60073e-05
6.00723e-06
-3.96954e-06
-1.39278e-05
-2.38949e-05
-3.38539e-05
-4.38216e-05
-5.3791e-05
-6.37823e-05
-7.38079e-05
-8.38457e-05
-9.39179e-05
-0.000104033
-0.000114214
-0.000124477
-0.000134815
-0.000145254
-0.000155811
-0.000166515
-0.000177378
-0.000188434
-0.000199706
-0.000211241
-0.000223086
-0.000235265
-0.000247828
-0.000260846
-0.000274367
-0.000288449
-0.000303173
-0.000318668
-0.000335129
-0.000352564
-0.000371038
-0.000390758
-0.000411927
-0.000434574
-0.000458795
-0.000484823
0.000308658
0.000299458
0.000290153
0.000280741
0.00027123
0.00026163
0.000251942
0.000242169
0.000232322
0.000222406
0.000212429
0.000202397
0.000192316
0.000182189
0.000172026
0.000161829
0.000151607
0.000141365
0.000131109
0.000120843
0.000110576
0.000100311
9.00485e-05
7.97954e-05
6.95563e-05
5.93339e-05
4.91324e-05
3.89505e-05
2.87884e-05
1.86472e-05
8.5255e-06
-1.57715e-06
-1.16629e-05
-2.17307e-05
-3.17843e-05
-4.18258e-05
-5.18605e-05
-6.18958e-05
-7.1938e-05
-8.19896e-05
-9.20529e-05
-0.000102139
-0.000112265
-0.000122441
-0.000132676
-0.000142981
-0.000153378
-0.000163886
-0.000174522
-0.00018531
-0.00019628
-0.000207462
-0.000218891
-0.000230606
-0.000242647
-0.000255059
-0.000267905
-0.000281245
-0.000295144
-0.000309691
-0.000324996
-0.000341196
-0.000358376
-0.000376612
-0.000396053
-0.000416857
-0.000439145
-0.000463006
-0.000488688
0.000309492
0.000299897
0.000290199
0.000280398
0.000270501
0.000260516
0.000250448
0.000240303
0.000230088
0.000219811
0.000209477
0.000199094
0.000188669
0.000178208
0.000167719
0.000157208
0.000146682
0.000136147
0.000125609
0.000115073
0.000104546
9.40319e-05
8.35359e-05
7.30628e-05
6.26162e-05
5.2198e-05
4.18104e-05
3.14567e-05
2.11385e-05
1.08553e-05
6.06067e-07
-9.61187e-06
-1.9801e-05
-2.99599e-05
-4.00908e-05
-5.01983e-05
-6.0287e-05
-7.03625e-05
-8.04297e-05
-9.0495e-05
-0.000100566
-0.000110651
-0.000120761
-0.000130909
-0.000141105
-0.000151364
-0.000161702
-0.000172138
-0.000182691
-0.000193384
-0.000204245
-0.000215303
-0.00022659
-0.000238146
-0.000250012
-0.000262236
-0.000274873
-0.000287987
-0.000301654
-0.000315962
-0.000331009
-0.000346906
-0.000363741
-0.00038161
-0.000400656
-0.000421044
-0.000442943
-0.000466505
-0.000491977
0.000310023
0.000300013
0.000289904
0.000279693
0.00026939
0.000259002
0.000248537
0.000238002
0.000227402
0.000216746
0.000206041
0.000195296
0.000184518
0.000173714
0.000162892
0.000152059
0.000141222
0.000130387
0.000119562
0.000108753
9.79645e-05
8.72034e-05
7.64745e-05
6.57819e-05
5.51293e-05
4.45195e-05
3.39554e-05
2.34393e-05
1.29723e-05
2.55397e-06
-7.81635e-06
-1.81407e-05
-2.84203e-05
-3.8656e-05
-4.88508e-05
-5.90091e-05
-6.91357e-05
-7.92359e-05
-8.93159e-05
-9.93824e-05
-0.000109443
-0.000119507
-0.000129583
-0.000139685
-0.000149823
-0.000160013
-0.000170269
-0.000180609
-0.000191053
-0.000201623
-0.000212345
-0.000223246
-0.00023436
-0.000245722
-0.000257376
-0.000269367
-0.000281753
-0.0002946
-0.000307985
-0.000321984
-0.000336676
-0.00035216
-0.000368536
-0.000385935
-0.000404512
-0.000424445
-0.000446004
-0.000469361
-0.000495073
0.000310206
0.000299758
0.000289215
0.000278573
0.000267842
0.000257033
0.000246151
0.000235205
0.000224203
0.000213152
0.000202063
0.000190943
0.000179799
0.000168641
0.000157476
0.000146312
0.000135156
0.000124018
0.000112902
0.000101816
9.07664e-05
7.97587e-05
6.87981e-05
5.78892e-05
4.70359e-05
3.62413e-05
2.55081e-05
1.48381e-05
4.23221e-06
-6.30942e-06
-1.67874e-05
-2.72039e-05
-3.756e-05
-4.78578e-05
-5.81009e-05
-6.82938e-05
-7.84417e-05
-8.85501e-05
-9.86255e-05
-0.000108675
-0.000118705
-0.000128727
-0.00013875
-0.000148785
-0.000158845
-0.000168942
-0.000179093
-0.000189313
-0.000199622
-0.000210041
-0.000220593
-0.000231306
-0.00024221
-0.000253343
-0.000264744
-0.000276464
-0.000288557
-0.000301085
-0.000314109
-0.000327691
-0.000341916
-0.000356885
-0.000372715
-0.000389568
-0.000407604
-0.00042702
-0.000448213
-0.000471463
-0.000497932
0.000309968
0.00029906
0.00028806
0.000276964
0.000265785
0.000254532
0.000243214
0.000231839
0.000220416
0.000208954
0.000197463
0.000185953
0.000174431
0.000162907
0.000151389
0.000139886
0.000128407
0.000116959
0.00010555
9.41871e-05
8.28763e-05
7.16241e-05
6.04359e-05
4.93165e-05
3.82698e-05
2.72989e-05
1.64063e-05
5.59376e-06
-5.13798e-06
-1.57889e-05
-2.63599e-05
-3.68533e-05
-4.72702e-05
-5.76136e-05
-6.78878e-05
-7.80976e-05
-8.82484e-05
-9.8346e-05
-0.000108397
-0.000118409
-0.00012839
-0.000138349
-0.000148296
-0.000158243
-0.0001682
-0.000178181
-0.000188201
-0.000198275
-0.00020842
-0.000218657
-0.000229008
-0.000239499
-0.000250159
-0.000261025
-0.000272135
-0.00028354
-0.000295281
-0.000307409
-0.000319978
-0.000333053
-0.000346722
-0.000361093
-0.000376305
-0.000392507
-0.000409855
-0.000428636
-0.000449323
-0.000472421
-0.000498801
0.000309236
0.000297843
0.000286362
0.00027479
0.000263139
0.000251421
0.000239645
0.000227821
0.000215959
0.000204068
0.00019216
0.000180245
0.000168331
0.00015643
0.00014455
0.0001327
0.000120891
0.00010913
9.7425e-05
8.57838e-05
7.42133e-05
6.27199e-05
5.13094e-05
3.99863e-05
2.87547e-05
1.76178e-05
6.57766e-06
-4.3641e-06
-1.52069e-05
-2.59511e-05
-3.65983e-05
-4.71505e-05
-5.76096e-05
-6.79793e-05
-7.82645e-05
-8.84703e-05
-9.86026e-05
-0.000108668
-0.000118672
-0.000128624
-0.000138532
-0.000148404
-0.000158252
-0.000168084
-0.000177914
-0.000187753
-0.000197614
-0.000207514
-0.000217467
-0.000227493
-0.000237612
-0.000247849
-0.000258231
-0.000268791
-0.000279567
-0.000290596
-0.000301919
-0.000313573
-0.00032561
-0.000338101
-0.000351143
-0.000364834
-0.00037931
-0.000394689
-0.000411173
-0.000429116
-0.000449056
-0.000471886
-0.000498956
0.000307926
0.000296021
0.000284033
0.00027196
0.000259813
0.000247607
0.000235352
0.000223059
0.000210738
0.0001984
0.000186059
0.000173724
0.000161407
0.000149117
0.000136866
0.000124662
0.000112517
0.000100439
8.84373e-05
7.65191e-05
6.46918e-05
5.29622e-05
4.13361e-05
2.98183e-05
1.84127e-05
7.12232e-06
-4.05086e-06
-1.51057e-05
-2.6042e-05
-3.68606e-05
-4.75639e-05
-5.81538e-05
-6.8633e-05
-7.90064e-05
-8.92791e-05
-9.94571e-05
-0.000109546
-0.000119554
-0.000129487
-0.000139354
-0.000149162
-0.000158923
-0.000168644
-0.000178337
-0.000188013
-0.000197683
-0.00020736
-0.000217058
-0.000226792
-0.000236578
-0.000246436
-0.000256388
-0.000266455
-0.000276667
-0.000287058
-0.000297665
-0.000308509
-0.00031962
-0.00033106
-0.000342903
-0.000355222
-0.000368115
-0.000381702
-0.000396094
-0.000411573
-0.000428468
-0.000447445
-0.000469417
-0.000494323
0.000305942
0.000293495
0.000280972
0.000268369
0.000255701
0.000242982
0.000230225
0.000217441
0.000204641
0.00019184
0.000179048
0.00016628
0.000153546
0.000140858
0.000128226
0.000115663
0.000103178
9.07828e-05
7.84849e-05
6.62929e-05
5.42144e-05
4.22564e-05
3.04248e-05
1.87245e-05
7.15927e-06
-4.26824e-06
-1.55564e-05
-2.67045e-05
-3.7713e-05
-4.85836e-05
-5.9319e-05
-6.99215e-05
-8.03955e-05
-9.07463e-05
-0.00010098
-0.000111103
-0.000121122
-0.000131045
-0.000140879
-0.000150633
-0.000160316
-0.000169937
-0.000179507
-0.000189034
-0.00019853
-0.000208006
-0.000217474
-0.000226945
-0.000236433
-0.000245953
-0.000255521
-0.000265151
-0.000274862
-0.00028469
-0.000294667
-0.000304802
-0.000315104
-0.000325615
-0.000336392
-0.000347492
-0.000358975
-0.000370941
-0.00038349
-0.00039679
-0.000411191
-0.000426989
-0.000445067
-0.000465397
-0.000487222
0.000303172
0.00029015
0.000277062
0.000263901
0.000250683
0.000237425
0.000224141
0.000210843
0.000197545
0.000184259
0.000171001
0.000157784
0.000144621
0.000131524
0.000118505
0.000105577
9.27512e-05
8.00381e-05
6.74473e-05
5.49874e-05
4.26662e-05
3.04909e-05
1.84674e-05
6.6007e-06
-5.10588e-06
-1.665e-05
-2.80307e-05
-3.9248e-05
-5.0303e-05
-6.11986e-05
-7.19379e-05
-8.25242e-05
-9.29634e-05
-0.000103262
-0.000113426
-0.000123464
-0.000133383
-0.000143191
-0.000152897
-0.00016251
-0.000172039
-0.000181494
-0.000190884
-0.00020022
-0.00020951
-0.000218767
-0.000227999
-0.000237218
-0.000246435
-0.000255661
-0.000264905
-0.000274176
-0.000283509
-0.000292938
-0.000302459
-0.000312063
-0.000321772
-0.000331622
-0.000341656
-0.000351908
-0.000362441
-0.000373347
-0.000384744
-0.000396915
-0.000410206
-0.000425097
-0.000442507
-0.000460385
-0.000476639
0.000299485
0.000285855
0.000272168
0.000258418
0.000244621
0.000230796
0.000216959
0.000203123
0.000189302
0.000175513
0.000161771
0.000148091
0.000134486
0.000120971
0.000107558
9.42617e-05
8.10935e-05
6.80653e-05
5.5187e-05
4.24676e-05
2.99152e-05
1.75371e-05
5.33922e-06
-6.67392e-06
-1.84992e-05
-3.01351e-05
-4.15812e-05
-5.28387e-05
-6.39098e-05
-7.47987e-05
-8.55088e-05
-9.60455e-05
-0.000106416
-0.000116627
-0.000126688
-0.000136607
-0.000146393
-0.000156054
-0.0001656
-0.000175041
-0.000184386
-0.000193645
-0.000202827
-0.000211943
-0.000221002
-0.000230013
-0.000238984
-0.000247925
-0.000256845
-0.000265745
-0.00027463
-0.000283531
-0.000292489
-0.000301485
-0.000310494
-0.000319524
-0.000328589
-0.000337712
-0.000346913
-0.000356215
-0.000365687
-0.000375433
-0.000385658
-0.00039669
-0.000408861
-0.000422916
-0.000438603
-0.000453715
-0.000469311
0.000294728
0.000280452
0.000266132
0.000251759
0.000237351
0.000222929
0.00020851
0.000194111
0.000179745
0.000165432
0.000151187
0.000137029
0.000122971
0.000109028
9.52163e-05
8.15489e-05
6.80398e-05
5.47011e-05
4.15436e-05
2.85765e-05
1.58083e-05
3.24607e-06
-9.10439e-06
-2.1239e-05
-3.31552e-05
-4.48523e-05
-5.63311e-05
-6.7594e-05
-7.8645e-05
-8.94891e-05
-0.000100131
-0.000110579
-0.000120842
-0.000130927
-0.000140846
-0.000150608
-0.000160222
-0.0001697
-0.000179051
-0.000188285
-0.000197413
-0.000206445
-0.000215389
-0.000224256
-0.000233054
-0.000241792
-0.000250476
-0.000259115
-0.000267708
-0.000276249
-0.000284776
-0.000293326
-0.000301879
-0.000310389
-0.000318853
-0.000327271
-0.00033564
-0.000343967
-0.000352248
-0.000360513
-0.000368857
-0.00037744
-0.00038654
-0.000396421
-0.000407558
-0.000420309
-0.000432919
-0.000445059
-0.000456898
0.000288724
0.000273763
0.000258771
0.000243739
0.000228685
0.000213634
0.000198604
0.000183613
0.000168678
0.000153818
0.000139053
0.0001244
0.000109877
9.54989e-05
8.12828e-05
6.7244e-05
5.33971e-05
3.97553e-05
2.63299e-05
1.31307e-05
1.66164e-07
-1.25567e-05
-2.50325e-05
-3.72577e-05
-4.92308e-05
-6.09521e-05
-7.24239e-05
-8.36503e-05
-9.46373e-05
-0.000105391
-0.000115919
-0.000126232
-0.00013634
-0.000146253
-0.000155984
-0.000165545
-0.000174945
-0.000184198
-0.000193314
-0.000202304
-0.000211179
-0.000219948
-0.000228622
-0.000237208
-0.000245716
-0.000254154
-0.000262526
-0.000270833
-0.000279066
-0.000287261
-0.000295462
-0.000303637
-0.000311735
-0.000319734
-0.000327633
-0.000335403
-0.000343026
-0.000350496
-0.000357804
-0.000365007
-0.000372246
-0.000379742
-0.000387695
-0.000396373
-0.0004063
-0.00041672
-0.000426706
-0.000436937
-0.000446007
0.000281265
0.000265576
0.000249872
0.000234141
0.000218405
0.00020269
0.000187017
0.000171406
0.000155876
0.000140448
0.000125143
0.000109981
9.49818e-05
8.01622e-05
6.55399e-05
5.11319e-05
3.69541e-05
2.30207e-05
9.34375e-06
-4.06649e-06
-1.72016e-05
-3.00549e-05
-4.26215e-05
-5.48986e-05
-6.68859e-05
-7.85854e-05
-9.00013e-05
-0.00010114
-0.00011201
-0.00012262
-0.00013298
-0.000143103
-0.000153002
-0.000162691
-0.000172183
-0.000181492
-0.000190631
-0.000199613
-0.000208451
-0.000217155
-0.000225737
-0.000234207
-0.000242575
-0.000250849
-0.00025904
-0.000267148
-0.000275174
-0.00028312
-0.000291019
-0.000298912
-0.00030676
-0.000314509
-0.000322136
-0.000329618
-0.000336936
-0.000344028
-0.000350882
-0.000357492
-0.000363865
-0.000370076
-0.000376313
-0.000382687
-0.000389277
-0.000396544
-0.000404483
-0.000412319
-0.000420284
-0.00042921
-0.000439808
0.000272101
0.000255636
0.000239174
0.000222704
0.000206245
0.000189828
0.000173478
0.000157216
0.000141064
0.000125044
0.000109179
9.34935e-05
7.80074e-05
6.27407e-05
4.7712e-05
3.29399e-05
1.84417e-05
4.23289e-06
-9.67367e-06
-2.32675e-05
-3.65403e-05
-4.94858e-05
-6.20999e-05
-7.43809e-05
-8.63302e-05
-9.79517e-05
-0.000109252
-0.000120241
-0.000130929
-0.000141327
-0.000151452
-0.000161318
-0.000170943
-0.000180342
-0.000189534
-0.000198533
-0.000207355
-0.000216014
-0.000224524
-0.000232896
-0.000241143
-0.000249276
-0.000257303
-0.000265235
-0.000273073
-0.000280813
-0.000288469
-0.000296096
-0.000303703
-0.000311256
-0.0003187
-0.000326016
-0.000333174
-0.00034014
-0.000346868
-0.000353312
-0.000359465
-0.000365337
-0.000370905
-0.000376261
-0.000381468
-0.000386381
-0.000391307
-0.000396754
-0.000402265
-0.000407764
-0.000414131
-0.000422792
-0.000434097
0.000260947
0.000243657
0.00022639
0.000209135
0.000191911
0.000174754
0.000157691
0.000140747
0.000123944
0.000107309
9.08668e-05
7.46441e-05
5.86642e-05
4.29487e-05
2.75181e-05
1.23926e-05
-2.40851e-06
-1.68686e-05
-3.09738e-05
-4.47135e-05
-5.80796e-05
-7.10665e-05
-8.3671e-05
-9.58932e-05
-0.000107736
-0.000119208
-0.000130318
-0.000141079
-0.000151507
-0.000161617
-0.00017143
-0.000180965
-0.000190243
-0.000199285
-0.000208109
-0.000216735
-0.000225181
-0.000233462
-0.000241594
-0.000249588
-0.000257458
-0.000265214
-0.00027286
-0.000280403
-0.000287839
-0.000295205
-0.000302557
-0.000309889
-0.000317147
-0.000324302
-0.000331334
-0.000338223
-0.000344923
-0.000351407
-0.000357636
-0.000363594
-0.000369248
-0.000374587
-0.000379499
-0.000383987
-0.000387727
-0.000390793
-0.000394005
-0.000397281
-0.000400299
-0.000404007
-0.000409773
-0.000418557
-0.000429971
0.000247439
0.000229264
0.000211137
0.000193043
0.000175006
0.000157062
0.000139244
0.000121579
0.000104093
8.68141e-05
6.97723e-05
5.29964e-05
3.65127e-05
2.03452e-05
4.51674e-06
-1.09503e-05
-2.60348e-05
-4.07184e-05
-5.49864e-05
-6.88279e-05
-8.22352e-05
-9.52033e-05
-0.000107731
-0.00011982
-0.000131476
-0.000142711
-0.000153537
-0.000163972
-0.000174036
-0.000183753
-0.000193148
-0.000202248
-0.000211079
-0.000219667
-0.000228036
-0.000236209
-0.000244206
-0.000252044
-0.000259739
-0.000267303
-0.000274743
-0.000282067
-0.000289271
-0.000296376
-0.000303447
-0.000310509
-0.000317539
-0.000324481
-0.000331325
-0.000338067
-0.00034469
-0.000351179
-0.000357511
-0.000363682
-0.00036967
-0.000375406
-0.000380819
-0.000385742
-0.000389936
-0.000393054
-0.000394919
-0.000396412
-0.000397681
-0.000398397
-0.000399521
-0.000402361
-0.000407906
-0.000416495
-0.000427295
0.000231226
0.000212109
0.00019307
0.000174089
0.000155191
0.000136419
0.000117808
9.93894e-05
8.11921e-05
6.32484e-05
4.55917e-05
2.82545e-05
1.12665e-05
-5.34555e-06
-2.1556e-05
-3.73396e-05
-5.26728e-05
-6.75356e-05
-8.1912e-05
-9.57908e-05
-0.000109164
-0.000122029
-0.000134385
-0.000146238
-0.000157598
-0.000168482
-0.000178911
-0.000188907
-0.000198499
-0.000207717
-0.000216594
-0.000225161
-0.000233453
-0.000241501
-0.000249336
-0.000256984
-0.000264468
-0.000271804
-0.000279004
-0.000286077
-0.000293017
-0.000299837
-0.000306604
-0.000313356
-0.000320089
-0.000326751
-0.000333329
-0.000339821
-0.000346235
-0.000352573
-0.00035885
-0.000365086
-0.000371299
-0.000377455
-0.000383484
-0.000389205
-0.000394444
-0.000398743
-0.000401674
-0.00040309
-0.000403642
-0.000403327
-0.00040207
-0.000400884
-0.000400954
-0.000403253
-0.000408393
-0.000416123
-0.000425721
0.000211635
0.000191497
0.000171464
0.000151519
0.000131691
0.000112024
9.25599e-05
7.33324e-05
5.43758e-05
3.57265e-05
1.74221e-05
-5.00624e-07
-1.80083e-05
-3.50703e-05
-5.16574e-05
-6.7741e-05
-8.32947e-05
-9.82963e-05
-0.000112729
-0.00012658
-0.000139842
-0.000152513
-0.000164596
-0.000176097
-0.000187031
-0.000197416
-0.000207281
-0.000216659
-0.000225591
-0.000234118
-0.000242285
-0.000250136
-0.000257718
-0.000265072
-0.000272236
-0.000279237
-0.000286098
-0.000292833
-0.000299435
-0.000305924
-0.000312355
-0.00031876
-0.000325142
-0.000331455
-0.000337668
-0.000343795
-0.000349864
-0.000355903
-0.000361943
-0.000368025
-0.000374179
-0.000380421
-0.000386725
-0.000393017
-0.000399134
-0.000404758
-0.000409409
-0.000412536
-0.000414155
-0.000414499
-0.000413294
-0.000410689
-0.000407741
-0.00040537
-0.000404697
-0.000406442
-0.000410642
-0.00041712
-0.000425526
0.000188554
0.00016734
0.000146271
0.000125324
0.000104525
8.39282e-05
6.3579e-05
4.35171e-05
2.37818e-05
4.41432e-06
-1.45424e-05
-3.30466e-05
-5.10596e-05
-6.85456e-05
-8.54707e-05
-0.000101802
-0.00011751
-0.00013257
-0.00014696
-0.000160669
-0.000173689
-0.000186019
-0.000197668
-0.000208651
-0.000218995
-0.000228728
-0.000237885
-0.000246512
-0.000254659
-0.000262379
-0.000269729
-0.000276764
-0.000283541
-0.000290113
-0.000296524
-0.000302796
-0.000308942
-0.000315011
-0.000321042
-0.000327056
-0.000333044
-0.000338964
-0.00034477
-0.000350477
-0.000356113
-0.000361712
-0.000367322
-0.000373009
-0.000378829
-0.000384837
-0.000391006
-0.00039728
-0.000403574
-0.000409773
-0.000415562
-0.000420437
-0.000423999
-0.000426185
-0.000426678
-0.000425327
-0.000422489
-0.00041868
-0.000414637
-0.000411623
-0.000410449
-0.000411362
-0.000414425
-0.000419664
-0.000426615
0.000160076
0.00013766
0.000115412
9.33298e-05
7.14437e-05
4.9807e-05
2.84716e-05
7.48308e-06
-1.31139e-05
-3.32723e-05
-5.29436e-05
-7.20795e-05
-9.06347e-05
-0.000108568
-0.000125839
-0.000142411
-0.000158248
-0.000173322
-0.000187608
-0.000201091
-0.000213761
-0.000225615
-0.000236658
-0.000246901
-0.000256378
-0.000265131
-0.000273216
-0.000280697
-0.000287646
-0.000294142
-0.000300261
-0.00030609
-0.0003117
-0.000317163
-0.000322553
-0.000327937
-0.000333348
-0.000338792
-0.000344248
-0.000349666
-0.000354984
-0.000360205
-0.000365361
-0.000370497
-0.000375671
-0.000380915
-0.000386243
-0.000391644
-0.000397122
-0.000402725
-0.000408514
-0.00041445
-0.000420288
-0.00042566
-0.000430248
-0.000433951
-0.000436451
-0.000437362
-0.000436738
-0.000434629
-0.000430909
-0.000426377
-0.000422296
-0.000419461
-0.000418009
-0.000418015
-0.000419964
-0.00042395
-0.000429541
0.000128138
0.000104476
8.10631e-05
5.78467e-05
3.48606e-05
1.21725e-05
-1.0156e-05
-3.2072e-05
-5.3524e-05
-7.44579e-05
-9.4817e-05
-0.000114545
-0.000133588
-0.000151897
-0.000169426
-0.000186127
-0.000201961
-0.000216891
-0.000230893
-0.000243952
-0.000256062
-0.00026723
-0.000277477
-0.000286825
-0.000295306
-0.000302971
-0.000309889
-0.000316146
-0.000321834
-0.000327038
-0.00033184
-0.000336377
-0.000340821
-0.000345288
-0.000349828
-0.000354465
-0.000359201
-0.00036399
-0.000368793
-0.000373577
-0.00037832
-0.000382995
-0.000387614
-0.000392186
-0.000396774
-0.000401417
-0.000406156
-0.000410982
-0.00041581
-0.00042049
-0.000424949
-0.000429303
-0.000433656
-0.000437652
-0.000440666
-0.000442836
-0.00044452
-0.000445201
-0.000444053
-0.000441085
-0.000437287
-0.000433586
-0.000430636
-0.000428557
-0.000427222
-0.000426831
-0.000427869
-0.000430524
-0.000434724
8.53409e-05
6.02599e-05
3.53844e-05
1.07837e-05
-1.35148e-05
-3.74556e-05
-6.09719e-05
-8.40006e-05
-0.000106482
-0.000128352
-0.000149546
-0.000169998
-0.000189644
-0.000208426
-0.000226286
-0.000243168
-0.000259019
-0.00027379
-0.000287433
-0.000299914
-0.000311212
-0.000321318
-0.000330251
-0.00033805
-0.000344769
-0.000350472
-0.000355249
-0.000359263
-0.000362711
-0.000365739
-0.000368492
-0.000371136
-0.000373834
-0.000376695
-0.000379788
-0.000383154
-0.000386839
-0.000390829
-0.000395063
-0.000399419
-0.000403774
-0.000407994
-0.000411976
-0.000415664
-0.000419074
-0.000422311
-0.000425514
-0.000428938
-0.000432676
-0.000436116
-0.000438321
-0.000439356
-0.000440996
-0.000443738
-0.000446216
-0.000448212
-0.000449476
-0.000449026
-0.000447225
-0.000444752
-0.000442172
-0.00044002
-0.000438612
-0.000437817
-0.000437444
-0.000437486
-0.000438015
-0.000439218
-0.00044146
4.378e-05
1.71558e-05
-9.00902e-06
-3.48888e-05
-6.04509e-05
-8.55964e-05
-0.00011024
-0.00013431
-0.000157739
-0.000180455
-0.00020238
-0.000223433
-0.000243539
-0.000262629
-0.000280633
-0.000297478
-0.000313115
-0.000327519
-0.000340653
-0.000352457
-0.00036289
-0.000371939
-0.00037963
-0.000386014
-0.00039116
-0.000395166
-0.000398168
-0.000400328
-0.000401821
-0.000402854
-0.000403687
-0.000404541
-0.000405581
-0.000406985
-0.000408909
-0.000411425
-0.000414502
-0.000418005
-0.000421708
-0.000425385
-0.000428851
-0.000432096
-0.000435212
-0.000438306
-0.000441189
-0.000443253
-0.000443819
-0.000443235
-0.000443271
-0.000444681
-0.00044559
-0.000444826
-0.000445204
-0.00044779
-0.000449751
-0.000450416
-0.000450349
-0.00044965
-0.000448311
-0.000446633
-0.000445203
-0.000444515
-0.000444652
-0.000445296
-0.000446022
-0.000446583
-0.000446812
-0.000446899
-0.000447496
-2.52101e-05
-5.34504e-05
-8.15826e-05
-0.000109297
-0.000136563
-0.000163336
-0.000189531
-0.000215061
-0.000239842
-0.000263787
-0.000286801
-0.00030879
-0.000329662
-0.000349316
-0.000367636
-0.000384475
-0.000399701
-0.000413278
-0.000425244
-0.000435573
-0.000444207
-0.000451137
-0.000456391
-0.000460023
-0.00046212
-0.00046281
-0.00046226
-0.000460632
-0.000458116
-0.000454995
-0.00045161
-0.000448312
-0.000445455
-0.000443383
-0.000442389
-0.000442658
-0.000444209
-0.000446822
-0.000450004
-0.000453057
-0.000455209
-0.000455986
-0.00045562
-0.000455034
-0.000455006
-0.000455254
-0.000454335
-0.00045123
-0.000447804
-0.000446976
-0.000448084
-0.000449142
-0.000449783
-0.000450064
-0.000450108
-0.000450083
-0.000449673
-0.000448799
-0.000447631
-0.000446551
-0.000446006
-0.000446289
-0.000447316
-0.000448631
-0.000449696
-0.000450242
-0.000450351
-0.000450261
-0.000450498
-7.09843e-05
-0.000100916
-0.000129984
-0.000158872
-0.000187468
-0.000215523
-0.000242902
-0.000269526
-0.000295314
-0.000320166
-0.000343981
-0.000366674
-0.000388185
-0.000408495
-0.000427708
-0.000445773
-0.000462244
-0.000476658
-0.000488817
-0.000498746
-0.00050651
-0.000512098
-0.000515467
-0.000516611
-0.000515588
-0.000512523
-0.000507617
-0.000501157
-0.000493526
-0.000485229
-0.000476875
-0.000469145
-0.000462744
-0.000458316
-0.00045634
-0.000457003
-0.000460066
-0.000464803
-0.00047004
-0.000474312
-0.000476183
-0.000474524
-0.0004692
-0.00046224
-0.000456646
-0.000454365
-0.000454862
-0.00045573
-0.000455608
-0.00045404
-0.000451977
-0.00045069
-0.000450364
-0.000450153
-0.000449722
-0.000449049
-0.000448092
-0.000446907
-0.000445724
-0.000444904
-0.000444785
-0.000445484
-0.000446789
-0.000448254
-0.000449486
-0.000450277
-0.000450678
-0.000450885
-0.000451176
-0.000182958
-0.000215167
-0.000247408
-0.000279007
-0.000309873
-0.000340042
-0.000369445
-0.000397941
-0.000425384
-0.000451632
-0.000476526
-0.000499884
-0.00052149
-0.000541105
-0.000558404
-0.000573317
-0.000586167
-0.000597124
-0.000605999
-0.000612509
-0.000616451
-0.000617714
-0.00061623
-0.000611976
-0.000604986
-0.000595384
-0.000583398
-0.00056938
-0.000553813
-0.000537317
-0.000520638
-0.000504617
-0.000490133
-0.000478029
-0.000469002
-0.000463496
-0.000461579
-0.000462868
-0.00046649
-0.000471126
-0.000475141
-0.000477234
-0.000476657
-0.000473402
-0.000468385
-0.000462986
-0.000458884
-0.000456794
-0.000455551
-0.000454354
-0.000453177
-0.00045217
-0.000451332
-0.000450495
-0.000449555
-0.000448445
-0.000447126
-0.000445675
-0.000444344
-0.000443502
-0.000443454
-0.000444211
-0.000445552
-0.000447117
-0.000448506
-0.000449543
-0.000450268
-0.000450831
-0.000451425
0.000343957
0.00034974
0.000355834
0.0003623
0.000369147
0.000376432
0.000384222
0.000392318
0.000400704
0.000409472
0.000418683
0.000428278
0.000437975
0.000448482
0.000458319
0.000468611
0.000478237
0.000488454
0.000498225
0.000507724
0.000517504
0.000525762
0.000533595
0.000540429
0.000546446
0.000551589
0.000555166
0.000557577
0.000559075
0.000559067
0.000557245
0.000554293
0.000550273
0.000545279
0.000538544
0.000530911
0.000522523
0.000513168
0.000503055
0.00049264
0.000481596
0.000470249
0.000459173
0.000448272
0.000436569
0.000425656
0.000414419
0.00040377
0.000393307
0.000383219
0.000373608
0.000364387
0.000355749
0.000347517
0.000339778
0.000332045
0.00032497
0.000318275
0.000312034
0.000346606
0.00035258
0.000358972
0.000365739
0.000372908
0.000380497
0.000388523
0.000396941
0.000405756
0.000414963
0.00042454
0.000434456
0.000444632
0.000455121
0.000465754
0.000476363
0.00048698
0.00049751
0.000507893
0.000517783
0.000527467
0.000536466
0.00054465
0.000551926
0.000558198
0.000563432
0.000567404
0.00056991
0.000571402
0.000571349
0.000569532
0.000566575
0.000562388
0.000556877
0.000550017
0.000542054
0.000533198
0.000523524
0.00051307
0.000502039
0.000490631
0.000478965
0.000467236
0.000455312
0.000443444
0.000431778
0.000420303
0.000409191
0.00039836
0.000387884
0.000377857
0.00036828
0.000359098
0.000350417
0.000342115
0.000334311
0.000326987
0.000320101
0.000313616
0.000349286
0.000355507
0.000362135
0.000369185
0.000376665
0.000384584
0.000392935
0.000401711
0.000410914
0.000420536
0.000430535
0.00044086
0.000451482
0.00046237
0.000473451
0.000484679
0.00049591
0.000507009
0.000517838
0.000528274
0.000538269
0.000547726
0.000556359
0.000564027
0.000570652
0.00057611
0.000580275
0.000583018
0.000584507
0.000584419
0.000582681
0.000579625
0.00057513
0.000569276
0.000562097
0.000553802
0.000544493
0.000534366
0.000523486
0.000512032
0.000500134
0.000487875
0.000475452
0.000462994
0.000450607
0.000438428
0.000426476
0.000414825
0.000403522
0.000392608
0.000382144
0.000372122
0.000362554
0.000353447
0.000344853
0.000336759
0.00032913
0.000321952
0.000315198
0.000351792
0.000358266
0.000365169
0.000372512
0.000380306
0.000388562
0.000397277
0.000406445
0.000416061
0.00042611
0.000436564
0.000447383
0.000458529
0.000469942
0.000481539
0.000493278
0.00050501
0.000516649
0.000528022
0.000539045
0.000549573
0.000559461
0.000568525
0.000576601
0.000583594
0.000589347
0.000593733
0.000596663
0.000598199
0.000598106
0.000596359
0.000593161
0.000588413
0.000582279
0.000574761
0.000566073
0.000556317
0.000545671
0.000534254
0.000522245
0.00050976
0.000496923
0.000483928
0.000470936
0.000457992
0.000445234
0.000432721
0.00042052
0.000408701
0.000397304
0.000386368
0.000375913
0.000365956
0.000356502
0.000347558
0.000339113
0.00033115
0.000323663
0.000316637
0.000354087
0.000360832
0.000368028
0.000375686
0.000383817
0.000392431
0.00040153
0.000411109
0.000421161
0.000431667
0.000442604
0.000453935
0.000465617
0.000477582
0.000489748
0.000502034
0.000514329
0.000526534
0.000538498
0.000550098
0.00056118
0.000571564
0.000581092
0.000589602
0.000596969
0.00060304
0.000607684
0.000610785
0.000612391
0.000612303
0.000610502
0.000607154
0.000602183
0.000595752
0.000587883
0.000578767
0.000568535
0.000557347
0.000545352
0.000532726
0.000519624
0.000506194
0.000492601
0.000478988
0.000465437
0.000452067
0.000438967
0.000426207
0.000413852
0.000401945
0.000390522
0.000379608
0.000369218
0.000359357
0.000350024
0.000341214
0.000332917
0.000325119
0.000317806
0.000356159
0.000363191
0.000370697
0.000378688
0.000387177
0.000396172
0.000405677
0.000415689
0.000426201
0.000437195
0.000448644
0.000460512
0.000472751
0.000485295
0.000498064
0.000510963
0.000523884
0.000536706
0.000549287
0.000561483
0.000573134
0.000584062
0.000594096
0.00060307
0.000610833
0.000617239
0.000622153