/*--------------------------------*- C++ -*----------------------------------*\
| =========                 |                                                 |
| \\      /  F ield         | OpenFOAM: The Open Source CFD Toolbox           |
|  \\    /   O peration     | Version:  2312                                  |
|   \\  /    A nd           | Website:  www.openfoam.com                      |
|    \\/     M anipulation  |                                                 |
\*---------------------------------------------------------------------------*/
FoamFile
{
    version     2.0;
    format      ascii;
    arch        "LSB;label=32;scalar=64";
    class       surfaceScalarField;
    location    "100";
    object      phi;
}
// * * * * * * * * * * * * * * * * * * * * * * * * * * * * * * * * * * * * * //

dimensions      [0 3 -1 0 0 0 0];

oriented        oriented;

internalField   nonuniform List<scalar> 
116611
(
0.00114763
0.000399993
-0.00113168
-0.000415939
0.00116344
0.000395269
-0.000411088
0.00117909
0.000390185
-0.000405832
0.00119456
0.00038471
-0.000400174
0.00120978
0.000378845
-0.000394068
0.00122504
0.00037253
-0.000387794
0.00123983
0.000365814
-0.000380604
0.00125472
0.000358683
-0.000373568
0.00126922
0.000351077
-0.000365578
0.00128355
0.000343011
-0.000357345
0.00129761
0.000334435
-0.000348488
0.00131146
0.000325358
-0.000339215
0.00132502
0.000315774
-0.000329332
0.00133832
0.000305638
-0.000318934
0.00135134
0.000294968
-0.000307989
0.00136391
0.000283773
-0.00029634
0.00137633
0.000271913
-0.00028434
0.0013883
0.000259553
-0.000271525
0.00139993
0.000246448
-0.000258076
0.00141113
0.000232839
-0.000244037
0.00142209
0.000218463
-0.000229419
0.00143253
0.000203467
-0.000213913
0.00144252
0.000187754
-0.000197745
0.00145215
0.000171385
-0.000181014
0.00146126
0.000154279
-0.000163382
0.00146997
0.000136422
-0.000145134
0.00147825
0.000117738
-0.000126024
0.00148576
9.83446e-05
-0.000105853
0.00149309
7.81327e-05
-8.54662e-05
0.00149948
5.70703e-05
-6.34574e-05
0.00150556
3.53471e-05
-4.14264e-05
0.00151096
1.25656e-05
-1.79593e-05
0.00151584
-1.10517e-05
6.16829e-06
0.00151999
-3.54997e-05
3.13488e-05
0.00152354
-6.09803e-05
5.74273e-05
0.00152631
-8.72666e-05
8.44969e-05
0.00152867
-0.000114586
0.000112229
0.00153022
-0.000142877
0.000141329
0.00153101
-0.000172105
0.000171308
0.00153094
-0.00020245
0.000202522
0.00153011
-0.000233712
0.000234542
0.0015287
-0.000266089
0.000267497
0.0015264
-0.000299537
0.000301838
0.00152311
-0.000334012
0.000337306
0.00151906
-0.000369641
0.00037369
0.00151411
-0.000406351
0.000411305
0.00150836
-0.000444256
0.00045
0.00150147
-0.000483287
0.000490186
0.00149376
-0.000523494
0.0005312
0.00148502
-0.000564913
0.000573652
0.00147528
-0.00060759
0.00061733
0.00146463
-0.000651477
0.00066213
0.00145294
-0.000696651
0.000708343
0.00144012
-0.00074317
0.000755981
0.00142616
-0.000790989
0.00080495
0.00141118
-0.000840152
0.000855132
0.00139512
-0.000890752
0.00090682
0.00137783
-0.000942756
0.000960043
0.00135932
-0.000996192
0.0010147
0.00133944
-0.001051
0.00107087
0.00131866
-0.00110715
0.00112793
0.00129652
-0.00116518
0.00118732
0.00127299
-0.00122483
0.00124836
0.00124814
-0.00128594
0.0013108
0.00122192
-0.00134855
0.00137477
0.00119377
-0.00141294
0.00144109
0.00116422
-0.00147871
0.00150826
0.00113359
-0.00154651
0.00157714
-0.00161888
0.00110307
0.0016494
0.00113089
0.000384159
-0.00111506
0.00114658
0.000379574
0.00116214
0.000374634
0.00117752
0.000369325
0.00119276
0.000363606
0.00120779
0.000357499
0.00122262
0.000350979
0.00123728
0.000344024
0.00125172
0.000336636
0.00126595
0.000328781
0.00127994
0.00032045
0.00129366
0.000311633
0.00130713
0.000302306
0.00132032
0.000292455
0.00133319
0.000282094
0.0013458
0.000271166
0.00135803
0.000259678
0.00136998
0.000247602
0.00138151
0.000234924
0.00139273
0.00022162
0.00140352
0.000207672
0.00141391
0.000193079
0.00142385
0.000177808
0.00143338
0.000161855
0.00144246
0.000145197
0.0014511
0.000127789
0.00145919
0.000109644
0.00146679
9.07454e-05
0.00147387
7.10558e-05
0.00148035
5.05869e-05
0.00148639
2.93038e-05
0.0014918
7.15538e-06
0.0014966
-1.5846e-05
0.00150081
-3.97151e-05
0.00150433
-6.44985e-05
0.00150725
-9.01805e-05
0.00150946
-0.000116805
0.00151096
-0.000144368
0.00151176
-0.000172907
0.00151177
-0.000202457
0.00151105
-0.000233001
0.00150954
-0.000264572
0.00150718
-0.000297178
0.00150401
-0.00033085
0.00149999
-0.000365618
0.00149511
-0.000401471
0.00148931
-0.00043845
0.00148258
-0.000476567
0.00147494
-0.000515852
0.00146634
-0.000556311
0.00145673
-0.000597984
0.00144614
-0.000640878
0.00143451
-0.000685027
0.00142182
-0.000730474
0.00140805
-0.000777225
0.00139319
-0.00082529
0.00137715
-0.000874708
0.00135989
-0.000925503
0.0013414
-0.000977699
0.00132172
-0.00103131
0.00130094
-0.00108638
0.00127881
-0.00114304
0.00125525
-0.00120127
0.00123026
-0.00126096
0.0012038
-0.00132209
0.00117561
-0.00138475
0.0011459
-0.001449
0.00111576
-0.00151637
-0.0015898
0.00108668
0.00111471
0.000368478
-0.00109903
0.00113027
0.000364014
0.0011457
0.000359203
0.00116099
0.000354033
0.00117611
0.000348487
0.00119106
0.000342555
0.00120582
0.000336221
0.00122037
0.000329468
0.00123472
0.000322285
0.00124885
0.000314656
0.00126273
0.000306567
0.00127636
0.000298002
0.00128972
0.000288947
0.00130279
0.000279384
0.00131558
0.000269303
0.00132807
0.000258684
0.00134023
0.000247514
0.00135206
0.000235773
0.00136354
0.000223446
0.00137464
0.000210513
0.00138535
0.00019696
0.00139567
0.000182768
0.00140556
0.000167918
0.00141502
0.000152395
0.00142403
0.000136181
0.00143256
0.000119256
0.00144061
0.000101602
0.00144815
8.32023e-05
0.00145517
6.40399e-05
0.00146166
4.40975e-05
0.0014676
2.33554e-05
0.00147297
1.79283e-06
0.00147773
-2.06123e-05
0.00148189
-4.38742e-05
0.00148541
-6.80136e-05
0.00148827
-9.30468e-05
0.00149046
-0.000118991
0.00149196
-0.000145867
0.00149275
-0.000173696
0.00149279
-0.000202497
0.00149207
-0.000232282
0.00149056
-0.000263068
0.00148826
-0.000294877
0.00148514
-0.00032773
0.00148117
-0.000361642
0.00147633
-0.00039663
0.00147059
-0.000432717
0.00146395
-0.000469925
0.00145637
-0.000508271
0.00144784
-0.000547777
0.00143832
-0.000588468
0.00142781
-0.000630366
0.00141627
-0.000673491
0.00140367
-0.000717871
0.00138997
-0.000763521
0.00137513
-0.000810457
0.00135914
-0.00085871
0.00134195
-0.000908315
0.00132355
-0.000959305
0.00130395
-0.00101171
0.00128312
-0.00106555
0.00126094
-0.00112087
0.00123731
-0.00117764
0.00121216
-0.00123581
0.00118545
-0.00129537
0.00115714
-0.00135645
0.00112779
-0.00141964
0.00109895
-0.00148753
-0.00156228
0.00107143
0.00109915
0.000352931
-0.00108361
0.00111458
0.000348587
0.00112988
0.000343906
0.00114503
0.000338876
0.00116003
0.000333487
0.00117487
0.000327723
0.00118952
0.00032157
0.00120397
0.000315015
0.00121821
0.000308042
0.00123223
0.000300638
0.00124601
0.000292787
0.00125954
0.000284473
0.0012728
0.000275684
0.00128578
0.000266403
0.00129847
0.000256614
0.00131085
0.000246303
0.00132291
0.000235452
0.00133464
0.000224048
0.00134601
0.000212071
0.00135702
0.000199506
0.00136765
0.000186335
0.00137787
0.000172541
0.00138768
0.000158108
0.00139706
0.000143017
0.00140599
0.000127251
0.00141446
0.000110792
0.00142244
9.36214e-05
0.00142992
7.57219e-05
0.00143688
5.70766e-05
0.00144331
3.76669e-05
0.00144919
1.74752e-05
0.0014545
-3.51832e-06
0.00145922
-2.53335e-05
0.00146334
-4.79873e-05
0.00146682
-7.14974e-05
0.00146966
-9.58824e-05
0.00147182
-0.00012116
0.00147331
-0.000147349
0.00147408
-0.000174468
0.00147412
-0.000202534
0.0014734
-0.000231566
0.00147191
-0.00026158
0.00146963
-0.000292595
0.00146653
-0.000324629
0.00146259
-0.000357702
0.00145779
-0.000391832
0.00145211
-0.000427038
0.00144553
-0.000463341
0.00143802
-0.000500761
0.00142956
-0.000539318
0.00142012
-0.000579032
0.00140968
-0.000619924
0.0013982
-0.000662012
0.00138565
-0.000705316
0.00137198
-0.000749858
0.00135718
-0.000795658
0.00134122
-0.000842751
0.00132409
-0.000891177
0.00130575
-0.000940966
0.00128617
-0.000992127
0.00126528
-0.00104466
0.00124298
-0.00109857
0.00121919
-0.00115384
0.00119384
-0.00121047
0.00116695
-0.00126848
0.00113877
-0.00132828
0.00111033
-0.00139121
0.00108346
-0.00146065
-0.00153607
0.00105725
0.00108423
0.00033751
-0.00106881
0.00109952
0.000333289
0.00111469
0.000328741
0.00112971
0.000323855
0.00114458
0.00031862
0.00115928
0.000313022
0.0011738
0.000307048
0.00118813
0.000300686
0.00120225
0.000293919
0.00121615
0.000286736
0.00122982
0.000279119
0.00124324
0.000271055
0.0012564
0.000262529
0.00126927
0.000253525
0.00128186
0.000244029
0.00129414
0.000234025
0.00130609
0.000223495
0.00131771
0.000212426
0.00132899
0.000200799
0.00133989
0.000188599
0.00135042
0.000175809
0.00136055
0.000162412
0.00137026
0.000148391
0.00137955
0.000133729
0.00138839
0.000118409
0.00139678
0.000102411
0.00140468
8.57195e-05
0.00141208
6.83162e-05
0.00141898
5.01837e-05
0.00142534
3.13039e-05
0.00143116
1.16586e-05
0.00143641
-8.77006e-06
0.00144107
-3.00006e-05
0.00144514
-5.20506e-05
0.00144858
-7.49379e-05
0.00145138
-9.86806e-05
0.00145351
-0.000123296
0.00145497
-0.000148803
0.00145572
-0.000175219
0.00145575
-0.000202562
0.00145503
-0.000230849
0.00145355
-0.000260098
0.00145128
-0.000290326
0.0014482
-0.000321553
0.0014443
-0.000353797
0.00143954
-0.000387076
0.00143391
-0.000421408
0.00142738
-0.000456813
0.00141993
-0.000493308
0.00141152
-0.000530913
0.00140213
-0.000569644
0.00139173
-0.000609521
0.00138028
-0.000650561
0.00136775
-0.000692785
0.00135411
-0.000736217
0.00133934
-0.000780887
0.00132342
-0.000826831
0.00130632
-0.000874082
0.001288
-0.000922639
0.00126837
-0.000972496
0.00124735
-0.00102365
0.00122488
-0.0010761
0.00120089
-0.00112985
0.00117536
-0.00118494
0.00114847
-0.00124158
0.00112087
-0.00130068
0.0010941
-0.00136443
0.00106949
-0.00143604
-0.0015092
0.00104262
0.00106991
0.0003222
-0.0010546
0.00108509
0.000318108
0.00110013
0.000313699
0.00111502
0.000308961
0.00112976
0.000303884
0.00114433
0.000298454
0.00115872
0.00029266
0.00117291
0.00028649
0.0011869
0.000279928
0.00120068
0.000272962
0.00121422
0.000265578
0.00122751
0.000257761
0.00124055
0.000249495
0.0012533
0.000240767
0.00126577
0.00023156
0.00127794
0.000221859
0.00128979
0.000211649
0.0013013
0.000200913
0.00131246
0.000189636
0.00132326
0.0001778
0.00133368
0.000165389
0.00134371
0.000152387
0.00135332
0.000138776
0.00136251
0.00012454
0.00137126
0.000109662
0.00137955
9.41227e-05
0.00138736
7.79064e-05
0.00139468
6.0995e-05
0.00140149
4.3371e-05
0.00140778
2.50167e-05
0.00141352
5.91407e-06
0.00141871
-1.39534e-05
0.00142331
-3.46044e-05
0.00142732
-5.60563e-05
0.00143071
-7.83269e-05
0.00143346
-0.000101434
0.00143556
-0.000125394
0.00143698
-0.000150226
0.00143771
-0.000175947
0.00143772
-0.000202574
0.001437
-0.000230125
0.00143552
-0.000258618
0.00143326
-0.000288069
0.0014302
-0.000318497
0.00142632
-0.000349918
0.0014216
-0.000382351
0.001416
-0.000415812
0.00140951
-0.000450318
0.00140209
-0.000485886
0.00139371
-0.000522533
0.00138434
-0.000560276
0.00137395
-0.000599132
0.00136251
-0.000639123
0.00135
-0.000680269
0.00133638
-0.000722601
0.00132164
-0.000766152
0.00130576
-0.000810946
0.00128866
-0.000856986
0.00127027
-0.000904249
0.00125051
-0.000952737
0.00122932
-0.00100246
0.00120665
-0.00105343
0.00118249
-0.00110568
0.00115689
-0.00115935
0.00113031
-0.001215
0.00110394
-0.00127431
0.00107951
-0.00134
0.00105626
-0.0014128
-0.00147655
0.00102362
0.00105615
0.000306982
-0.00104094
0.00107124
0.000303027
0.00108617
0.000298763
0.00110095
0.000294179
0.00111557
0.000289265
0.00113002
0.00028401
0.00114428
0.0002784
0.00115834
0.000272425
0.0011722
0.00026607
0.00118584
0.000259324
0.00119925
0.000252172
0.00121241
0.0002446
0.00122531
0.000236593
0.00123794
0.000228138
0.00125028
0.000219219
0.00126232
0.00020982
0.00127404
0.000199927
0.00128543
0.000189523
0.00129648
0.000178592
0.00130716
0.000167117
0.00131746
0.000155084
0.00132738
0.000142474
0.00133688
0.000129271
0.00134596
0.000115458
0.00135461
0.000101019
0.00136279
8.59356e-05
0.00137051
7.01909e-05
0.00137774
5.37675e-05
0.00138446
3.6648e-05
0.00139066
1.88149e-05
0.00139632
2.51004e-07
0.00140143
-1.90605e-05
0.00140596
-3.91376e-05
0.00140991
-5.99975e-05
0.00141324
-8.16578e-05
0.00141594
-0.000104136
0.00141799
-0.000127448
0.00141938
-0.000151613
0.00142008
-0.000176647
0.00142007
-0.000202567
0.00141934
-0.000229391
0.00141785
-0.000257134
0.0014156
-0.000285814
0.00141255
-0.000315447
0.00140868
-0.000346049
0.00140397
-0.000377637
0.00139838
-0.000410225
0.00139189
-0.000443831
0.00138447
-0.000478468
0.0013761
-0.000514156
0.00136673
-0.00055091
0.00135635
-0.000588749
0.00134492
-0.000627694
0.00133242
-0.000667773
0.00131884
-0.000709017
0.00130413
-0.000751444
0.00128824
-0.000795048
0.00127106
-0.000839809
0.00125253
-0.000885721
0.00123261
-0.000932814
0.00121125
-0.000981098
0.00118841
-0.00103059
0.00116412
-0.00108139
0.00113866
-0.00113389
0.00111295
-0.0011893
0.00108861
-0.00124998
0.00106643
-0.00131781
0.00104092
-0.00138729
-0.00142953
0.000993892
0.00104295
0.000291853
-0.00102782
0.00105794
0.000288036
0.00107278
0.00028392
0.00108746
0.000279496
0.00110198
0.000274751
0.00111631
0.000269675
0.00113046
0.000264255
0.0011444
0.00025848
0.00115814
0.000252337
0.00117165
0.000245814
0.00118492
0.000238897
0.00119795
0.000231572
0.00121072
0.000223826
0.00122321
0.000215645
0.00123541
0.000207013
0.00124732
0.000197916
0.00125891
0.000188338
0.00127017
0.000178264
0.00128108
0.000167677
0.00129164
0.000156563
0.00130182
0.000144904
0.00131161
0.000132684
0.00132099
0.000119886
0.00132995
0.000106494
0.00133848
9.2491e-05
0.00134656
7.78594e-05
0.00135417
6.25825e-05
0.00136129
4.6643e-05
0.00136792
3.00236e-05
0.00137402
1.27072e-05
0.0013796
-5.32291e-06
0.00138462
-2.4084e-05
0.00138908
-4.35931e-05
0.00139295
-6.38675e-05
0.00139621
-8.49242e-05
0.00139886
-0.00010678
0.00140086
-0.000129452
0.0014022
-0.000152956
0.00140287
-0.00017731
0.00140283
-0.00020253
0.00140207
-0.000228631
0.00140056
-0.000255629
0.00139829
-0.000283541
0.00139523
-0.000312381
0.00139134
-0.000342165
0.00138661
-0.000372908
0.00138101
-0.000404625
0.00137451
-0.000437331
0.00136709
-0.000471041
0.0013587
-0.000505774
0.00134934
-0.000541545
0.00133896
-0.000578374
0.00132755
-0.000616285
0.00131509
-0.000655307
0.00130153
-0.000695455
0.00128679
-0.000736713
0.00127081
-0.00077906
0.00125349
-0.000822494
0.00123482
-0.000867053
0.00121475
-0.000912745
0.00119322
-0.000959564
0.00117022
-0.00100759
0.00114596
-0.00105713
0.00112112
-0.00110905
0.00109713
-0.00116531
0.00107529
-0.00122813
0.00105319
-0.00129572
0.00101752
-0.00135161
-0.00135545
0.000943448
0.00103031
0.000276817
-0.00101527
0.00104521
0.000273138
0.00105995
0.000269172
0.00107454
0.000264909
0.00108896
0.000260335
0.00110319
0.000255442
0.00111723
0.000250216
0.00113106
0.000244646
0.00114468
0.000238719
0.00115807
0.000232423
0.00117122
0.000225745
0.00118412
0.000218672
0.00119676
0.00021119
0.00120912
0.000203285
0.00122119
0.000194942
0.00123296
0.000186148
0.00124441
0.000176886
0.00125553
0.000167142
0.00126631
0.0001569
0.00127673
0.000146144
0.00128678
0.000134858
0.00129643
0.000123026
0.00130569
0.000110631
0.00131453
9.76572e-05
0.00132293
8.40871e-05
0.00133088
6.99041e-05
0.00133838
5.50913e-05
0.00134539
3.96316e-05
0.0013519
2.3508e-05
0.00135791
6.70345e-06
0.00136338
-1.0798e-05
0.00136831
-2.90138e-05
0.00137268
-4.79607e-05
0.00137647
-6.76553e-05
0.00137966
-8.81141e-05
0.00138223
-0.000109354
0.00138417
-0.00013139
0.00138545
-0.00015424
0.00138606
-0.000177918
0.00138597
-0.000202441
0.00138517
-0.000227824
0.00138362
-0.000254081
0.0013813
-0.000281228
0.0013782
-0.000309279
0.00137428
-0.000338248
0.00136953
-0.000368151
0.0013639
-0.000399001
0.00135739
-0.000430814
0.00134995
-0.000463606
0.00134157
-0.000497391
0.00133221
-0.000532186
0.00132185
-0.000568014
0.00131046
-0.000604898
0.00129801
-0.000642855
0.00128442
-0.000681859
0.00126959
-0.000721886
0.00125347
-0.000762946
0.00123604
-0.000805063
0.00121724
-0.000848253
0.001197
-0.000892499
0.00117528
-0.00093785
0.00115226
-0.00098457
0.00112848
-0.00103335
0.00110514
-0.00108571
0.00108365
-0.00114382
0.00106324
-0.00120771
0.00103521
-0.0012677
0.000977891
-0.00129429
-0.00124677
0.000869212
0.00101828
0.000261884
-0.00100335
0.00103308
0.000258343
0.00104772
0.000254526
0.00106221
0.000250423
0.00107652
0.000246022
0.00109065
0.000241313
0.00110459
0.000236282
0.00111831
0.000230919
0.00113182
0.000225212
0.0011451
0.000219147
0.00115813
0.000212712
0.00117091
0.000205893
0.00118342
0.000198678
0.00119565
0.000191053
0.00120759
0.000183003
0.00121922
0.000174513
0.00123054
0.00016557
0.00124153
0.000156158
0.00125216
0.000146261
0.00126244
0.000135864
0.00127235
0.000124951
0.00128187
0.000113507
0.00129099
0.000101514
0.00129969
8.8956e-05
0.00130796
7.58169e-05
0.00131578
6.20799e-05
0.00132315
4.77281e-05
0.00133003
3.27448e-05
0.00133643
1.71132e-05
0.00134231
8.16733e-07
0.00134768
-1.61606e-05
0.0013525
-3.38357e-05
0.00135676
-5.2225e-05
0.00136045
-7.13445e-05
0.00136355
-9.12105e-05
0.00136603
-0.000111839
0.00136789
-0.000133245
0.00136909
-0.000155444
0.00136963
-0.000178452
0.00136947
-0.000202283
0.0013686
-0.000226953
0.00136699
-0.000252474
0.00136463
-0.000278862
0.00136148
-0.00030613
0.00135752
-0.000334293
0.00135274
-0.000363364
0.00134709
-0.000393357
0.00134056
-0.000424287
0.00133312
-0.000456166
0.00132474
-0.00048901
0.00131539
-0.000522837
0.00130505
-0.000557669
0.00129367
-0.00059352
0.00128118
-0.000630362
0.00126749
-0.000668166
0.00125255
-0.000706947
0.00123633
-0.000746727
0.00121877
-0.000787506
0.0011998
-0.000829276
0.00117936
-0.000872067
0.00115761
-0.000916101
0.00113502
-0.000961976
0.0011126
-0.00101092
0.00109173
-0.00106484
0.00107244
-0.00112453
0.00104906
-0.00118433
0.00100448
-0.00122312
0.000913851
-0.00120365
-0.0011014
0.000768472
0.00100692
0.00024706
-0.000992099
0.00102161
0.000243658
0.00103614
0.000239991
0.00105052
0.000236048
0.00106472
0.00023182
0.00107874
0.000227295
0.00109256
0.000222461
0.00110617
0.000217307
0.00111956
0.00021182
0.00113272
0.000205988
0.00114564
0.000199798
0.00115829
0.000193237
0.00117068
0.000186292
0.00118278
0.000178949
0.00119459
0.000171194
0.00120609
0.000163013
0.00121727
0.00015439
0.00122812
0.000145312
0.00123862
0.000135762
0.00124875
0.000125726
0.00125852
0.000115188
0.00126789
0.000104131
0.00127687
9.254e-05
0.00128543
8.03981e-05
0.00129355
6.76892e-05
0.00130124
5.43967e-05
0.00130846
4.05041e-05
0.00131521
2.59948e-05
0.00132147
1.08524e-05
0.00132723
-4.93886e-06
0.00133246
-2.13957e-05
0.00133716
-3.8534e-05
0.0013413
-5.63698e-05
0.00134488
-7.49189e-05
0.00134787
-9.41968e-05
0.00135025
-0.000114219
0.001352
-0.000135
0.00135311
-0.000156555
0.00135356
-0.000178899
0.00135332
-0.000202046
0.00135238
-0.00022601
0.00135071
-0.000250804
0.00134829
-0.000276442
0.00134509
-0.000302937
0.0013411
-0.000330302
0.00133629
-0.000358551
0.00133063
-0.000387695
0.00132409
-0.000417747
0.00131664
-0.000448719
0.00130826
-0.000480628
0.00129891
-0.000513493
0.00128857
-0.000547326
0.00127715
-0.000582099
0.00126457
-0.000617777
0.00125078
-0.000654377
0.00123574
-0.000691914
0.0012194
-0.000730384
0.00120167
-0.000769776
0.00118251
-0.00081012
0.00116205
-0.000851606
0.00114073
-0.000894779
0.00111945
-0.000940693
0.00109948
-0.000990956
0.00108125
-0.00104661
0.00106089
-0.00110418
0.00102517
-0.0011486
0.000950923
-0.00114888
0.000821996
-0.00107473
-0.000932636
0.000653235
0.00099628
0.00023235
-0.00098157
0.00101085
0.000229088
0.00102527
0.000225572
0.00103953
0.000221792
0.00105361
0.000217737
0.00106751
0.000213398
0.00108121
0.000208761
0.0010947
0.000203817
0.00110796
0.000198552
0.001121
0.000192954
0.00113378
0.000187011
0.00114631
0.00018071
0.00115857
0.000174037
0.00117054
0.000166979
0.00118221
0.000159522
0.00119357
0.000151651
0.00120461
0.000143352
0.00121531
0.00013461
0.00122566
0.00012541
0.00123565
0.000115737
0.00124526
0.000105574
0.00125449
9.49066e-05
0.00126331
8.37181e-05
0.00127172
7.19925e-05
0.00127969
5.97136e-05
0.00128722
4.68651e-05
0.0012943
3.34306e-05
0.0013009
1.93938e-05
0.00130701
4.73848e-06
0.00131262
-1.05505e-05
0.00131772
-2.64901e-05
0.00132228
-4.30956e-05
0.00132629
-6.03825e-05
0.00132974
-7.83662e-05
0.0013326
-9.70618e-05
0.00133487
-0.000116484
0.00133652
-0.000136648
0.00133753
-0.000157566
0.00133788
-0.000179255
0.00133756
-0.000201725
0.00133655
-0.000224992
0.00133481
-0.000249068
0.00133234
-0.000273966
0.0013291
-0.000299697
0.00132507
-0.000326273
0.00132022
-0.000353706
0.00131453
-0.000382007
0.00130798
-0.000411187
0.00130052
-0.00044126
0.00129213
-0.000472244
0.00128279
-0.000504146
0.0012724
-0.00053694
0.00126089
-0.00057059
0.00124822
-0.000605103
0.00123434
-0.000640498
0.00121918
-0.000676757
0.00120267
-0.000713874
0.00118478
-0.000751886
0.00116563
-0.000790967
0.00114564
-0.000831622
0.00112567
-0.000874811
0.00110688
-0.000921896
0.00108978
-0.000973858
0.00107155
-0.00102838
0.00104173
-0.00107436
0.00098004
-0.00108691
0.000866865
-0.00103571
0.000706529
-0.000914391
-0.000754551
0.000528444
0.000986401
0.000217752
-0.000971803
0.00100086
0.000214633
0.00101516
0.000211271
0.00102929
0.000207656
0.00104325
0.000203778
0.00105702
0.000199627
0.00107059
0.00019519
0.00108395
0.000190458
0.00109709
0.000185417
0.00110998
0.000180056
0.00112263
0.000174362
0.00113502
0.000168323
0.00114713
0.000161925
0.00115896
0.000155154
0.00117048
0.000147997
0.00118169
0.000140439
0.00119258
0.000132466
0.00120313
0.000124063
0.00121332
0.000115214
0.00122316
0.000105905
0.00123261
9.61206e-05
0.00124167
8.58437e-05
0.00125033
7.5059e-05
0.00125857
6.37504e-05
0.00126639
5.19017e-05
0.00127375
3.94967e-05
0.00128066
2.65193e-05
0.00128711
1.29532e-05
0.00129306
-1.21699e-06
0.00129852
-1.60071e-05
0.00130346
-3.14332e-05
0.00130788
-4.75104e-05
0.00131175
-6.42538e-05
0.00131506
-8.16782e-05
0.0013178
-9.97983e-05
0.00131994
-0.000118628
0.00132147
-0.000138182
0.00132238
-0.000158473
0.00132264
-0.000179514
0.00132223
-0.000201318
0.00132114
-0.000223897
0.00131933
-0.000247264
0.0013168
-0.000271429
0.0013135
-0.000296404
0.00130943
-0.000322198
0.00130454
-0.000348823
0.00129882
-0.000376288
0.00129224
-0.000404606
0.00128477
-0.000433791
0.00127638
-0.000463852
0.00126699
-0.000494756
0.00125652
-0.00052647
0.00124493
-0.000558994
0.00123216
-0.00059234
0.00121816
-0.000626493
0.00120284
-0.000661439
0.0011862
-0.000697237
0.00116838
-0.000734064
0.00114981
-0.000772394
0.00113131
-0.000813124
0.00111394
-0.000857437
0.00109815
-0.000906113
0.0010816
-0.000957301
0.00105555
-0.00100233
0.00100244
-0.00102125
0.000901987
-0.000986459
0.000751252
-0.000884971
0.00057556
-0.0007387
-0.000589688
0.000410698
0.000977322
0.000203265
-0.000962834
0.000991662
0.000200292
0.00100585
0.000197088
0.00101986
0.000193642
0.00103369
0.000189944
0.00104734
0.000185985
0.00106077
0.000181752
0.001074
0.000177235
0.00108699
0.000172422
0.00109975
0.000167301
0.00111225
0.000161859
0.00112449
0.000156085
0.00113645
0.000149964
0.00114812
0.000143484
0.00115949
0.00013663
0.00117054
0.000129388
0.00118126
0.000121743
0.00119164
0.000113682
0.00120167
0.000105187
0.00121133
9.62456e-05
0.00122061
8.68402e-05
0.0012295
7.69556e-05
0.00123798
6.65758e-05
0.00124605
5.56848e-05
0.00125368
4.42663e-05
0.00126087
3.23043e-05
0.00126761
1.97827e-05
0.00127388
6.68538e-06
0.00127966
-7.00243e-06
0.00128495
-2.12974e-05
0.00128973
-3.62144e-05
0.00129399
-5.17684e-05
0.00129771
-6.79741e-05
0.00130088
-8.48459e-05
0.00130348
-0.000102398
0.00130549
-0.000120643
0.00130691
-0.000139595
0.0013077
-0.000159266
0.00130785
-0.000179668
0.00130735
-0.000200814
0.00130617
-0.000222714
0.00130428
-0.00024538
0.00130168
-0.000268821
0.00129832
-0.000293047
0.00129419
-0.000318068
0.00128926
-0.000343895
0.00128351
-0.000370538
0.00127691
-0.00039801
0.00126943
-0.00042631
0.001261
-0.000455414
0.00125152
-0.000485278
0.00124096
-0.000515908
0.00122926
-0.0005473
0.00121637
-0.000579448
0.00120222
-0.00061234
0.00118682
-0.000646045
0.00117037
-0.000680782
0.0011533
-0.000716997
0.00113644
-0.000755529
0.00112073
-0.00079742
0.00110647
-0.000843177
0.00109137
-0.000891008
0.00106763
-0.000933561
0.00101988
-0.000954588
0.000928763
-0.00093013
0.000786771
-0.000844466
0.000612794
-0.000710993
0.000440173
-0.00056608
-0.000448153
0.000298638
0.000969081
0.000188884
-0.0009547
0.000983311
0.000186062
0.000997379
0.00018302
0.00101127
0.000179747
0.00102498
0.000176234
0.0010385
0.000172471
0.0010518
0.000168446
0.00106489
0.000164149
0.00107774
0.000159568
0.00109035
0.000154692
0.0011027
0.000149507
0.00111479
0.000144002
0.00112659
0.000138163
0.00113809
0.000131978
0.00114929
0.000125431
0.00116017
0.000118508
0.00117072
0.000111196
0.00118092
0.00010348
0.00119077
9.53428e-05
0.00120024
8.67707e-05
0.00120933
7.77473e-05
0.00121803
6.8257e-05
0.00122633
5.82835e-05
0.0012342
4.78108e-05
0.00124164
3.68228e-05
0.00124864
2.53032e-05
0.00125519
1.3236e-05
0.00126127
6.05709e-07
0.00126687
-1.26031e-05
0.00127198
-2.64065e-05
0.00127658
-4.08191e-05
0.00128067
-5.58553e-05
0.00128423
-7.15295e-05
0.00128724
-8.78553e-05
0.00128968
-0.000104846
0.00129156
-0.000122514
0.00129283
-0.000140873
0.0012935
-0.000159932
0.00129354
-0.000179705
0.00129292
-0.000200201
0.00129164
-0.000221431
0.00128967
-0.000243405
0.00128698
-0.000266132
0.00128355
-0.000289621
0.00127937
-0.000313884
0.0012744
-0.00033893
0.00126864
-0.000364769
0.00126202
-0.000391394
0.00125448
-0.000418773
0.00124594
-0.000446876
0.00123636
-0.000475694
0.00122568
-0.000505231
0.00121385
-0.00053547
0.00120084
-0.000566432
0.00118669
-0.000598191
0.00117165
-0.000631006
0.00115621
-0.000665347
0.00114118
-0.00070196
0.00112738
-0.000741731
0.00111482
-0.000784863
0.00110097
-0.00082932
0.00107838
-0.000868426
0.00103323
-0.000888411
0.000947802
-0.000869156
0.000812617
-0.000794945
0.00064164
-0.000673489
0.000466071
-0.000535425
0.000316735
-0.000416744
-0.000342623
0.000211205
0.000961727
0.000174606
-0.00094745
0.000975849
0.000171941
0.000989804
0.000169065
0.00100358
0.00016597
0.00101717
0.000162647
0.00103056
0.000159084
0.00104373
0.000155273
0.00105668
0.000151201
0.00106939
0.000146858
0.00108185
0.000142231
0.00109404
0.000137309
0.00110597
0.000132079
0.0011176
0.000126528
0.00112894
0.000120642
0.00113996
0.000114408
0.00115066
0.00010781
0.00116102
0.000100835
0.00117103
9.34682e-05
0.00118068
8.56931e-05
0.00118996
7.74945e-05
0.00119885
6.88566e-05
0.00120734
5.97633e-05
0.00121543
5.01984e-05
0.00122309
4.01456e-05
0.00123033
2.95887e-05
0.00123712
1.85115e-05
0.00124346
6.8978e-06
0.00124933
-5.2672e-06
0.00125473
-1.80001e-05
0.00125964
-3.13156e-05
0.00126404
-4.52282e-05
0.00126794
-5.97522e-05
0.00127131
-7.49012e-05
0.00127415
-9.06883e-05
0.00127643
-0.000107126
0.00127814
-0.000124226
0.00127927
-0.000142
0.00127979
-0.000160458
0.0012797
-0.000179611
0.00127897
-0.000199469
0.00127757
-0.00022004
0.0012755
-0.000241335
0.00127273
-0.000263362
0.00126925
-0.000286133
0.00126502
-0.000309656
0.00126003
-0.000333937
0.00125422
-0.00035896
0.00124752
-0.000384694
0.00123985
-0.000411109
0.00123118
-0.000438201
0.00122146
-0.000465971
0.00121064
-0.000494415
0.00119873
-0.000523566
0.00118586
-0.00055356
0.00117233
-0.000584657
0.0011587
-0.000617373
0.00114572
-0.00065237
0.00113405
-0.000690291
0.00112327
-0.000730949
0.00111034
-0.00077194
0.00108773
-0.000806706
0.00104264
-0.000823332
0.000959234
-0.00080501
0.000827977
-0.000737898
0.000659542
-0.00062651
0.000482504
-0.000496451
0.000326977
-0.000379898
0.00021417
-0.000303937
-0.000274395
0.000145942
0.000955322
0.000160432
-0.000941148
0.000969337
0.000157926
0.00098318
0.000155221
0.000996841
0.000152309
0.00101031
0.00014918
0.00102357
0.000145825
0.00103661
0.000142232
0.00104942
0.000138392
0.00106198
0.000134292
0.00107429
0.000129922
0.00108633
0.000125269
0.00109809
0.00012032
0.00110956
0.000115063
0.00112071
0.000109484
0.00113155
0.000103568
0.00114206
9.73023e-05
0.00115223
9.06711e-05
0.00116204
8.36594e-05
0.00117148
7.62517e-05
0.00118054
6.8432e-05
0.00118921
6.01844e-05
0.00119748
5.14924e-05
0.00120534
4.23396e-05
0.00121278
3.27094e-05
0.00121978
2.25855e-05
0.00122634
1.19515e-05
0.00123245
7.91536e-07
0.00123809
-1.091e-05
0.00124326
-2.31694e-05
0.00124794
-3.60009e-05
0.00125213
-4.9419e-05
0.00125582
-6.34372e-05
0.00125899
-7.80688e-05
0.00126162
-9.3326e-05
0.00126372
-0.00010922
0.00126526
-0.000125763
0.00126622
-0.000142964
0.00126659
-0.000160832
0.00126636
-0.000179378
0.0012655
-0.00019861
0.001264
-0.000218538
0.00126184
-0.000239172
0.001259
-0.000260521
0.00125545
-0.000282592
0.00125118
-0.000305381
0.00124611
-0.000328868
0.00124017
-0.000353021
0.0012333
-0.000377821
0.00122546
-0.000403268
0.00121662
-0.000429362
0.00120677
-0.000456126
0.00119599
-0.000483628
0.00118446
-0.00051204
0.00117259
-0.000541689
0.00116098
-0.00057305
0.00115032
-0.000606709
0.00114092
-0.000642973
0.00113178
-0.00068115
0.00111911
-0.000718283
0.00109504
-0.000747866
0.00104741
-0.000759078
0.000962453
-0.000738373
0.000832003
-0.00067456
0.000665104
-0.000570999
0.000487886
-0.000449293
0.000328859
-0.000337424
0.000209681
-0.000260721
0.000135258
-0.000229514
-0.000230646
9.15097e-05
0.000949946
0.000146359
-0.000935873
0.000963855
0.000144017
0.000977587
0.000141489
0.000991132
0.000138764
0.00100448
0.000135836
0.00101761
0.000132693
0.00103052
0.000129325
0.00104319
0.000125723
0.0010556
0.000121874
0.00106776
0.000117767
0.00107964
0.00011339
0.00109123
0.00010873
0.00110252
0.000103775
0.00111349
9.85101e-05
0.00112414
9.29218e-05
0.00113444
8.69952e-05
0.0011444
8.07155e-05
0.00115399
7.4067e-05
0.00116321
6.7034e-05
0.00117204
5.96002e-05
0.00118048
5.17491e-05
0.0011885
4.3464e-05
0.00119612
3.47281e-05
0.0012033
2.55245e-05
0.00121005
1.58363e-05
0.00121635
5.64672e-06
0.00122221
-5.05935e-06
0.00122759
-1.62992e-05
0.00123251