/*--------------------------------*- C++ -*----------------------------------*\
| =========                 |                                                 |
| \\      /  F ield         | OpenFOAM: The Open Source CFD Toolbox           |
|  \\    /   O peration     | Version:  2312                                  |
|   \\  /    A nd           | Website:  www.openfoam.com                      |
|    \\/     M anipulation  |                                                 |
\*---------------------------------------------------------------------------*/
FoamFile
{
    version     2.0;
    format      ascii;
    arch        "LSB;label=32;scalar=64";
    class       volVectorField;
    location    "100";
    object      U;
}
// * * * * * * * * * * * * * * * * * * * * * * * * * * * * * * * * * * * * * //

dimensions      [0 1 -1 0 0 0 0];

internalField   nonuniform List<vector> 
76025
(
(0.037727 -0.00855044 0)
(0.0379261 -0.00861413 8.04257e-22)
(0.0381275 -0.00867429 0)
(0.0383304 -0.00873127 0)
(0.0385315 -0.00878538 -1.42796e-21)
(0.0387405 -0.00882917 -2.68185e-21)
(0.0389485 -0.00887495 4.59977e-21)
(0.0391621 -0.00891107 -1.93297e-21)
(0.0393758 -0.00894688 -5.95886e-22)
(0.0395908 -0.00897856 5.66811e-22)
(0.0398061 -0.00900547 4.37669e-24)
(0.0400246 -0.00902563 1.48729e-21)
(0.0402457 -0.00904426 -1.99357e-21)
(0.0404678 -0.00905488 0)
(0.0406934 -0.00905874 4.21512e-22)
(0.0409154 -0.00906564 0)
(0.041141 -0.00905853 0)
(0.041367 -0.00905518 0)
(0.0415944 -0.00904059 3.21259e-22)
(0.041819 -0.00902921 -2.80802e-22)
(0.0420466 -0.00900555 -2.518e-22)
(0.0422771 -0.00898012 -6.69869e-22)
(0.0425057 -0.00894887 4.33919e-22)
(0.0427349 -0.00891175 4.85388e-22)
(0.0429638 -0.00887352 -5.79377e-23)
(0.0431918 -0.00883551 5.01249e-23)
(0.0434252 -0.00878109 -2.5509e-22)
(0.0436548 -0.00873051 2.15e-22)
(0.0438863 -0.00867051 -3.89559e-23)
(0.0441187 -0.00859932 1.0971e-23)
(0.0443462 -0.00853875 -2.20897e-23)
(0.0445741 -0.00847421 1.53259e-22)
(0.0448052 -0.00839408 -2.60216e-22)
(0.045035 -0.0083247 -8.69388e-23)
(0.0452642 -0.00824065 3.776e-22)
(0.0454916 -0.0081638 1.62664e-23)
(0.0457209 -0.0080786 -9.63212e-23)
(0.0459546 -0.00798013 5.96017e-23)
(0.0461882 -0.00789017 4.84895e-24)
(0.0464183 -0.0077912 -1.06056e-22)
(0.0466465 -0.00769769 7.17157e-23)
(0.0468785 -0.00759765 -3.9243e-23)
(0.0471149 -0.00747948 8.33662e-23)
(0.0473504 -0.00737531 -1.79827e-22)
(0.0475835 -0.00726121 -2.007e-22)
(0.0478197 -0.00715356 3.88421e-22)
(0.0480585 -0.00702978 4.40422e-22)
(0.0483002 -0.00691327 -1.35386e-21)
(0.0485414 -0.00679545 9.16175e-22)
(0.0487869 -0.00667995 9.27569e-24)
(0.0490364 -0.00656325 -2.50835e-21)
(0.04929 -0.00644147 -1.02347e-21)
(0.0495497 -0.00631768 1.08922e-21)
(0.0498147 -0.00619376 0)
(0.0500847 -0.00607058 -1.12841e-21)
(0.0503628 -0.00595776 -1.19556e-21)
(0.0506507 -0.00583511 4.3267e-23)
(0.050948 -0.00571502 -1.22232e-21)
(0.0512537 -0.00559377 1.31451e-21)
(0.0515626 -0.00546477 -3.88524e-21)
(0.0518881 -0.00534632 -2.7351e-21)
(0.0522394 -0.00523077 -4.74686e-23)
(0.0526019 -0.00511392 0)
(0.0529767 -0.00499659 7.60216e-21)
(0.053369 -0.00487404 -3.09479e-21)
(0.0537857 -0.00477326 1.59786e-21)
(0.0542018 -0.00465645 -3.34909e-21)
(0.0546278 -0.00452835 3.52417e-21)
(0.0551707 -0.00442242 7.33615e-21)
(0.0376146 -0.00889869 8.63586e-22)
(0.0378222 -0.00896436 2.45933e-21)
(0.0380321 -0.00902552 -3.27785e-21)
(0.0382445 -0.00908214 0)
(0.0384574 -0.00913549 3.6517e-21)
(0.0386747 -0.00918272 -1.13726e-22)
(0.0388924 -0.00922623 -2.77159e-21)
(0.0391123 -0.00926451 0)
(0.0393348 -0.00929817 4.35308e-24)
(0.0395589 -0.00932747 -5.88184e-22)
(0.0397847 -0.00935226 5.5791e-22)
(0.0400119 -0.00937186 7.54039e-24)
(0.04024 -0.00938716 0)
(0.0404697 -0.00939732 0)
(0.0407015 -0.00940093 8.07719e-22)
(0.0409329 -0.00940183 -2.0692e-21)
(0.0411666 -0.00939565 -3.66836e-22)
(0.0414 -0.00938656 9.92714e-22)
(0.0416348 -0.00937097 -6.56194e-22)
(0.0418689 -0.00935208 2.90106e-22)
(0.0421043 -0.00932739 -2.15524e-22)
(0.0423395 -0.0092983 4.7698e-22)
(0.0425744 -0.00926433 -3.56368e-22)
(0.0428094 -0.00922512 4.82032e-22)
(0.0430448 -0.00918132 -2.9727e-22)
(0.0432803 -0.00913392 -2.8671e-22)
(0.0435163 -0.00908061 1.75489e-22)
(0.0437506 -0.00902435 0)
(0.0439849 -0.00896303 0)
(0.0442185 -0.00889762 -3.20395e-23)
(0.0444525 -0.00882743 0)
(0.0446877 -0.0087538 -9.72314e-23)
(0.044922 -0.0086757 1.33086e-22)
(0.0451557 -0.00859489 -2.10161e-22)
(0.0453889 -0.00850983 1.1377e-23)
(0.0456219 -0.00842121 -9.59897e-23)
(0.0458554 -0.00832779 0)
(0.0460884 -0.0082322 -2.6376e-22)
(0.046321 -0.00813515 2.13804e-22)
(0.0465534 -0.00803537 -1.8611e-22)
(0.046786 -0.00793183 1.21803e-22)
(0.0470194 -0.00782453 2.73945e-25)
(0.0472528 -0.00771646 5.14836e-23)
(0.0474866 -0.00760815 -4.78872e-23)
(0.0477216 -0.00749642 4.30214e-22)
(0.0479583 -0.00738228 -2.24386e-22)
(0.0481965 -0.00726666 -2.46273e-22)
(0.0484365 -0.00715162 4.68848e-22)
(0.0486789 -0.00703391 1.50473e-21)
(0.0489246 -0.00691458 4.41146e-24)
(0.0491737 -0.00679458 1.58966e-21)
(0.0494264 -0.0066739 -5.6389e-22)
(0.0496844 -0.00655396 -1.7259e-21)
(0.0499483 -0.00643567 1.14038e-21)
(0.0502183 -0.00631778 0)
(0.0504953 -0.006199 3.72801e-21)
(0.0507797 -0.00608131 5.76857e-23)
(0.0510722 -0.00596634 -1.27186e-21)
(0.0513728 -0.00585329 -1.35072e-21)
(0.0516836 -0.00574144 0)
(0.0520088 -0.00562783 1.36136e-21)
(0.0523517 -0.00551805 4.3466e-21)
(0.0527081 -0.00541279 0)
(0.0530766 -0.00530925 -3.11454e-21)
(0.0534593 -0.00520551 1.70834e-21)
(0.0538563 -0.00510542 -3.37034e-21)
(0.0542618 -0.00500739 1.70922e-21)
(0.0547094 -0.00492402 -3.67123e-21)
(0.0552984 -0.00486118 -3.82613e-21)
(0.0374983 -0.00926704 -4.38425e-21)
(0.0377138 -0.00933339 2.64736e-21)
(0.0379322 -0.00939522 -8.29548e-22)
(0.0381535 -0.0094524 3.11928e-21)
(0.0383773 -0.00950499 -3.86369e-21)
(0.0386031 -0.00955287 -2.84805e-21)
(0.0388308 -0.00959579 3.5271e-21)
(0.0390605 -0.00963381 0)
(0.0392921 -0.00966684 5.31971e-24)
(0.0395255 -0.00969484 0)
(0.0397603 -0.0097178 -5.57657e-22)
(0.0399964 -0.00973569 5.33018e-22)
(0.0402335 -0.00974844 2.41677e-21)
(0.0404714 -0.00975618 -1.92115e-21)
(0.0407104 -0.00975864 4.3803e-22)
(0.0409505 -0.0097558 1.17728e-21)
(0.0411914 -0.0097479 -3.94613e-22)
(0.0414329 -0.00973474 -3.44214e-22)
(0.0416749 -0.00971671 -8.78721e-22)
(0.0419172 -0.00969338 5.80795e-22)
(0.0421594 -0.00966522 2.34321e-22)
(0.0424014 -0.00963215 -3.9165e-22)
(0.0426433 -0.00959419 2.21731e-22)
(0.042885 -0.00955122 1.38844e-22)
(0.0431267 -0.00950345 0)
(0.043368 -0.00945109 -7.47923e-23)
(0.0436084 -0.00939449 -3.24925e-23)
(0.0438482 -0.00933333 6.52733e-23)
(0.0440875 -0.00926756 0)
(0.0443263 -0.00919761 8.83305e-23)
(0.0445651 -0.00912295 -8.92006e-23)
(0.0448035 -0.00904474 -2.4215e-23)
(0.045041 -0.00896311 0)
(0.0452778 -0.00887762 8.02916e-23)
(0.045514 -0.00878881 -3.11826e-22)
(0.0457497 -0.00869644 2.13544e-22)
(0.0459848 -0.00860101 0)
(0.0462195 -0.00850288 2.16655e-22)
(0.0464541 -0.0084017 -2.26454e-22)
(0.0466885 -0.00829795 -4.01778e-23)
(0.0469226 -0.00819142 0)
(0.0471566 -0.00808268 -9.49147e-23)
(0.047391 -0.00797207 -5.19706e-23)
(0.047626 -0.00785915 5.18385e-23)
(0.0478618 -0.00774438 -3.2434e-22)
(0.0480984 -0.00762812 -2.37448e-22)
(0.0483364 -0.00751094 4.73805e-22)
(0.0485762 -0.00739271 -5.16229e-22)
(0.0488181 -0.00727363 5.30393e-22)
(0.0490628 -0.00715433 -5.24853e-22)
(0.0493108 -0.0070353 -5.46438e-22)
(0.0495628 -0.00691655 1.16218e-21)
(0.0498196 -0.00679835 0)
(0.0500816 -0.00668115 1.22485e-21)
(0.050349 -0.00656504 -1.19985e-23)
(0.0506225 -0.00645026 -1.29919e-21)
(0.0509029 -0.00633756 -1.33314e-21)
(0.051191 -0.00622706 2.67785e-21)
(0.0514882 -0.00611892 1.61573e-23)
(0.0517964 -0.0060132 1.42818e-21)
(0.0521176 -0.0059096 -2.94176e-21)
(0.0524533 -0.00581029 -1.49262e-21)
(0.0528013 -0.0057152 7.04673e-23)
(0.0531598 -0.00562317 -1.56865e-21)
(0.0535292 -0.00553388 -1.6002e-21)
(0.0539107 -0.005449 -5.1448e-21)
(0.054314 -0.00537109 0)
(0.0548012 -0.0053179 -1.95521e-21)
(0.0554833 -0.00528684 1.93444e-21)
(0.0373802 -0.00965521 0)
(0.0376047 -0.00972211 8.871e-22)
(0.037832 -0.00978425 4.19448e-21)
(0.0380622 -0.00984157 -3.3254e-21)
(0.0382952 -0.00989394 -2.27286e-21)
(0.0385305 -0.00994131 3.77915e-21)
(0.038768 -0.00998351 -7.09428e-22)
(0.0390075 -0.0100205 6.69053e-22)
(0.0392487 -0.0100524 6.39915e-22)
(0.0394914 -0.0100789 2.34276e-21)
(0.0397356 -0.0101001 -2.32594e-21)
(0.0399809 -0.010116 -2.06565e-21)
(0.0402273 -0.0101264 5.92296e-22)
(0.0404745 -0.0101314 1.85803e-21)
(0.0407224 -0.0101309 -1.31795e-21)
(0.0409709 -0.010125 3.89438e-22)
(0.0412199 -0.0101137 -3.55474e-22)
(0.0414693 -0.0100971 -3.21665e-22)
(0.0417189 -0.0100751 8.6564e-22)
(0.0419684 -0.010048 -3.06519e-22)
(0.0422179 -0.0100156 -2.39471e-22)
(0.0424671 -0.00997815 0)
(0.0427159 -0.00993558 -2.76557e-22)
(0.0429642 -0.00988804 1.55528e-22)
(0.043212 -0.00983567 1.64625e-22)
(0.0434589 -0.00977863 6.36178e-23)
(0.0437051 -0.00971699 -1.6269e-22)
(0.0439505 -0.00965073 -2.92655e-24)
(0.044195 -0.00958003 0)
(0.0444386 -0.00950503 -1.38418e-22)
(0.0446814 -0.00942595 -2.91438e-23)
(0.0449232 -0.00934315 2.46103e-22)
(0.0451641 -0.00925667 -1.86052e-22)
(0.0454041 -0.00916654 5.05611e-22)
(0.0456432 -0.00907302 -9.14617e-23)
(0.0458814 -0.00897624 0)
(0.0461188 -0.00887641 0)
(0.0463556 -0.00877367 8.08616e-23)
(0.0465917 -0.00866824 8.09781e-23)
(0.0468273 -0.00856045 4.6616e-23)
(0.0470624 -0.0084504 -1.54828e-24)
(0.0472973 -0.00833828 4.94187e-23)
(0.0475323 -0.00822427 0)
(0.0477674 -0.00810864 -5.68632e-24)
(0.048003 -0.00799177 0)
(0.0482395 -0.00787382 2.41192e-22)
(0.0484771 -0.00775507 1.3796e-23)
(0.0487164 -0.00763579 -7.94797e-22)
(0.0489577 -0.00751635 0)
(0.0492016 -0.00739703 -5.75405e-22)
(0.0494486 -0.00727816 5.64548e-22)
(0.0496992 -0.00716002 -1.16966e-21)
(0.0499537 -0.00704295 0)
(0.0502126 -0.0069274 -3.7724e-21)
(0.0504764 -0.00681366 -1.14402e-23)
(0.0507455 -0.00670203 1.28112e-21)
(0.0510212 -0.00659301 1.31347e-21)
(0.0513049 -0.00648719 0)
(0.0515981 -0.00638503 0)
(0.0519021 -0.00628666 -1.43935e-21)
(0.0522174 -0.00619222 2.96397e-21)
(0.0525436 -0.00610238 3.05421e-21)
(0.0528794 -0.0060173 0)
(0.0532243 -0.00593695 -3.2927e-21)
(0.0535789 -0.00586125 0)
(0.053951 -0.00579274 5.32821e-21)
(0.0543714 -0.00573924 -1.81756e-21)
(0.0549398 -0.00572519 -2.01956e-21)
(0.0557392 -0.00571159 -2.1135e-21)
(0.0372621 -0.0100632 0)
(0.0374962 -0.0101306 0)
(0.0377331 -0.0101929 8.732e-22)
(0.0379728 -0.0102501 -3.27153e-21)
(0.0382151 -0.0103021 4.04859e-21)
(0.0384599 -0.0103486 -7.60051e-22)
(0.038707 -0.0103898 0)
(0.0389561 -0.0104255 -6.85642e-22)
(0.0392069 -0.0104556 0)
(0.0394594 -0.0104802 -1.18139e-21)
(0.0397131 -0.0104991 8.01501e-23)
(0.039968 -0.0105124 1.10403e-21)
(0.0402238 -0.01052 0)
(0.0404804 -0.0105218 -8.89763e-22)
(0.0407375 -0.010518 2.55785e-21)
(0.0409949 -0.0105086 -1.57995e-21)
(0.0412526 -0.0104935 1.78616e-21)
(0.0415102 -0.0104728 -3.46988e-22)
(0.0417677 -0.0104466 2.75472e-22)
(0.042025 -0.0104149 -2.60047e-22)
(0.0422818 -0.0103779 -1.92426e-22)
(0.0425381 -0.0103356 5.68114e-22)
(0.0427937 -0.0102881 2.92837e-22)
(0.0430485 -0.0102355 0)
(0.0433024 -0.010178 -1.21694e-22)
(0.0435552 -0.0101157 1.42325e-23)
(0.043807 -0.0100487 7.37442e-23)
(0.0440575 -0.00997719 1.35518e-23)
(0.0443069 -0.00990127 -1.56354e-22)
(0.0445549 -0.00982114 2.40502e-22)
(0.0448018 -0.00973699 -1.46292e-22)
(0.0450473 -0.00964902 9.07609e-23)
(0.0452917 -0.00955736 0)
(0.0455347 -0.0094622 -1.07868e-22)
(0.0457765 -0.00936375 -1.22591e-22)
(0.0460171 -0.0092622 0)
(0.0462565 -0.00915775 1.63904e-22)
(0.046495 -0.00905062 -2.59675e-22)
(0.0467325 -0.00894104 1.74965e-22)
(0.0469692 -0.00882924 -9.75345e-23)
(0.0472052 -0.00871541 -1.76331e-24)
(0.0474408 -0.00859975 -8.4189e-23)
(0.0476761 -0.00848254 2.76699e-23)
(0.0479115 -0.00836406 1.16621e-22)
(0.0481472 -0.00824457 -1.08226e-24)
(0.0483835 -0.00812434 7.68813e-22)
(0.0486208 -0.00800369 0)
(0.0488595 -0.00788295 5.42278e-22)
(0.0490999 -0.00776244 3.05644e-24)
(0.0493424 -0.00764246 -5.71772e-22)
(0.0495875 -0.00752335 0)
(0.0498354 -0.00740547 -6.28772e-22)
(0.0500865 -0.00728919 6.16324e-22)
(0.0503413 -0.0071749 1.27134e-21)
(0.0506004 -0.00706305 0)
(0.0508647 -0.00695416 -2.70706e-21)
(0.0511356 -0.00684891 2.75882e-21)
(0.0514149 -0.00674799 -2.8265e-21)
(0.0517032 -0.00665172 -4.15811e-23)
(0.0520004 -0.00656021 0)
(0.0523058 -0.00647367 -1.55792e-21)
(0.052619 -0.00639262 1.5607e-21)
(0.0529399 -0.00631731 1.66888e-21)
(0.0532696 -0.00624849 3.33092e-21)
(0.0536122 -0.00618752 -5.28063e-21)
(0.0539893 -0.00613987 3.65549e-21)
(0.0544621 -0.00611917 -1.88407e-21)
(0.055157 -0.00614556 1.99422e-21)
(0.0560446 -0.00612807 6.35532e-21)
(0.0371425 -0.0104925 -3.80747e-21)
(0.0373873 -0.0105605 1.4457e-22)
(0.0376348 -0.0106229 3.65059e-21)
(0.0378848 -0.0106798 0)
(0.0381374 -0.0107311 -8.14373e-22)
(0.0383922 -0.0107767 0)
(0.0386492 -0.0108165 1.42598e-21)
(0.0389081 -0.0108504 -7.34666e-23)
(0.0391688 -0.0108785 -1.98584e-21)
(0.0394311 -0.0109006 6.05878e-22)
(0.0396946 -0.0109168 5.78875e-22)
(0.0399591 -0.010927 5.26822e-22)
(0.0402245 -0.0109313 0)
(0.0404905 -0.0109296 0)
(0.0407568 -0.0109219 -4.28064e-22)
(0.0410233 -0.0109083 -3.91077e-22)
(0.0412897 -0.0108888 6.54159e-22)
(0.041556 -0.0108636 -6.53412e-22)
(0.0418218 -0.0108326 -5.41856e-22)
(0.042087 -0.0107959 4.3391e-22)
(0.0423514 -0.0107537 -8.18394e-22)
(0.042615 -0.0107061 4.86299e-23)
(0.0428775 -0.0106531 2.64643e-22)
(0.0431388 -0.010595 7.70498e-23)
(0.0433989 -0.0105318 7.32232e-23)
(0.0436576 -0.0104637 -7.3431e-23)
(0.0439148 -0.010391 7.06292e-23)
(0.0441705 -0.0103136 -7.09141e-23)
(0.0444246 -0.0102319 0)
(0.0446771 -0.0101461 0)
(0.0449279 -0.0100562 4.19797e-22)
(0.0451772 -0.00996257 5.07515e-23)
(0.0454247 -0.00986534 -2.12367e-22)
(0.0456707 -0.00976473 -2.7757e-22)
(0.045915 -0.00966096 2.73074e-22)
(0.0461578 -0.00955425 0)
(0.0463992 -0.00944481 -1.65822e-22)
(0.0466392 -0.00933289 -2.90135e-22)
(0.0468781 -0.00921872 1.90445e-22)
(0.0471158 -0.00910253 -3.39717e-24)
(0.0473527 -0.00898459 -1.8148e-23)
(0.0475888 -0.00886513 8.48047e-23)
(0.0478245 -0.00874444 6.24864e-23)
(0.04806 -0.00862279 1.30296e-22)
(0.0482956 -0.00850048 -6.55251e-22)
(0.0485315 -0.0083778 -1.26952e-24)
(0.048768 -0.00825506 0)
(0.0490055 -0.00813257 -5.89489e-22)
(0.0492442 -0.00801064 1.79548e-21)
(0.0494844 -0.00788962 -1.21451e-21)
(0.0497264 -0.00776986 -6.36357e-22)
(0.0499706 -0.00765177 -2.27855e-23)
(0.0502174 -0.0075358 -6.68053e-22)
(0.0504674 -0.00742244 -5.32307e-23)
(0.0507215 -0.00731231 1.3299e-21)
(0.050981 -0.00720614 -1.40122e-21)
(0.0512474 -0.00710467 -1.44452e-21)
(0.0515213 -0.00700839 2.89756e-21)
(0.0518018 -0.0069173 1.58845e-23)
(0.052088 -0.00683163 1.54684e-21)
(0.0523798 -0.00675185 -1.52596e-21)
(0.0526775 -0.00667886 1.59347e-21)
(0.052983 -0.00661375 -3.30508e-21)
(0.0532994 -0.00655759 -1.76265e-21)
(0.0536388 -0.00651441 3.51356e-21)
(0.0540471 -0.00649505 -1.94202e-21)
(0.0546193 -0.00651716 -6.04597e-21)
(0.0554657 -0.0065749 -2.14614e-21)
(0.0562919 -0.00652149 0)
(0.0370192 -0.0109446 0)
(0.0372762 -0.0110131 -9.58584e-22)
(0.0375355 -0.0110755 -3.44522e-24)
(0.0377972 -0.011132 0)
(0.0380611 -0.0111825 0)
(0.038327 -0.0112268 -7.79042e-22)
(0.0385949 -0.0112649 2.17754e-21)
(0.0388645 -0.0112968 -2.79228e-21)
(0.0391357 -0.0113224 1.36323e-21)
(0.0394081 -0.0113417 -6.20295e-22)
(0.0396817 -0.0113547 0)
(0.0399562 -0.0113614 -5.39165e-22)
(0.0402314 -0.0113618 4.81601e-22)
(0.0405069 -0.0113559 0)
(0.0407826 -0.0113438 0)
(0.0410583 -0.0113255 -3.44212e-22)
(0.0413336 -0.0113011 7.70197e-23)
(0.0416085 -0.0112706 6.25295e-22)
(0.0418827 -0.0112341 4.95509e-22)
(0.042156 -0.0111918 -4.71261e-22)
(0.0424281 -0.0111438 -1.90523e-22)
(0.0426991 -0.0110902 -5.22939e-22)
(0.0429686 -0.0110312 3.95387e-23)
(0.0432366 -0.0109668 1.46388e-23)
(0.0435029 -0.0108974 -9.34787e-23)
(0.0437675 -0.010823 -3.10164e-23)
(0.0440302 -0.0107438 5.63196e-23)
(0.0442909 -0.0106601 0)
(0.0445497 -0.0105721 0)
(0.0448065 -0.0104799 0)
(0.0450613 -0.0103839 -9.11686e-23)
(0.045314 -0.0102841 -2.33754e-22)
(0.0455647 -0.0101808 2.45899e-22)
(0.0458134 -0.0100743 3.11731e-22)
(0.0460602 -0.00996483 -3.06641e-22)
(0.0463051 -0.00985257 0)
(0.0465483 -0.00973778 1.97569e-22)
(0.0467899 -0.00962073 -9.67207e-23)
(0.0470299 -0.00950167 0)
(0.0472686 -0.00938087 1.13375e-22)
(0.0475062 -0.00925858 -2.2546e-23)
(0.0477428 -0.00913507 1.50628e-23)
(0.0479786 -0.00901062 -6.30426e-23)
(0.0482139 -0.00888552 0)
(0.0484489 -0.00876004 -2.8449e-22)
(0.0486838 -0.00863449 2.79136e-22)
(0.0489188 -0.00850917 0)
(0.0491542 -0.00838439 -2.46289e-23)
(0.0493901 -0.0082605 -2.66554e-24)
(0.049627 -0.0081379 6.22159e-22)
(0.049865 -0.008017 0)
(0.0501048 -0.00789829 -1.91886e-23)
(0.0503469 -0.0077823 -6.62871e-22)
(0.050592 -0.00766966 -2.08995e-21)
(0.0508414 -0.00756119 -4.25467e-23)
(0.0510962 -0.00745764 1.40946e-21)
(0.0513569 -0.00735941 0)
(0.0516221 -0.00726668 0)
(0.0518904 -0.00717924 1.52444e-21)
(0.0521624 -0.00709828 0)
(0.0524392 -0.00702502 0)
(0.0527218 -0.00696013 2.46096e-23)
(0.0530126 -0.00690562 -1.68252e-21)
(0.0533194 -0.0068642 -3.61032e-21)
(0.0536742 -0.00684474 3.7011e-21)
(0.0541569 -0.00686395 -1.25395e-23)
(0.0548749 -0.00693296 2.0106e-21)
(0.0558104 -0.00699846 2.14149e-21)
(0.056211 -0.00684947 0)
(0.0368914 -0.011421 0)
(0.0371616 -0.0114897 9.83125e-22)
(0.0374339 -0.011552 -2.7626e-21)
(0.0377085 -0.0116079 9.32341e-22)
(0.037985 -0.0116573 0)
(0.0382633 -0.0117001 2.34374e-21)
(0.0385433 -0.0117363 -3.74437e-21)
(0.0388247 -0.0117658 8.30553e-23)
(0.0391073 -0.0117886 3.29545e-21)
(0.0393909 -0.0118046 -6.63862e-22)
(0.0396754 -0.011814 5.59868e-22)
(0.0399605 -0.0118167 5.15797e-22)
(0.0402459 -0.0118127 -1.41813e-21)
(0.0405314 -0.0118021 1.76333e-21)
(0.0408169 -0.0117849 -8.3839e-22)
(0.041102 -0.0117613 3.05496e-22)
(0.0413865 -0.0117312 -1.26383e-21)
(0.0416702 -0.0116948 3.29453e-22)
(0.0419528 -0.0116522 -1.8203e-22)
(0.0422342 -0.0116036 2.59255e-22)
(0.0425142 -0.0115491 7.93432e-23)
(0.0427926 -0.0114889 6.89072e-22)
(0.0430691 -0.011423 1.16399e-23)
(0.0433438 -0.0113518 -7.81199e-23)
(0.0436163 -0.0112754 -1.54236e-23)
(0.0438867 -0.0111941 -2.56279e-23)
(0.0441549 -0.0111079 1.9797e-22)
(0.0444206 -0.0110173 -3.35121e-22)
(0.044684 -0.0109223 0)
(0.044945 -0.0108233 -2.15396e-22)
(0.0452036 -0.0107205 2.15874e-22)
(0.0454597 -0.010614 1.74893e-23)
(0.0457134 -0.0105042 -1.59157e-22)
(0.0459648 -0.0103914 -1.74277e-22)
(0.0462139 -0.0102757 5.65764e-22)
(0.0464609 -0.0101575 -3.70786e-22)
(0.0467057 -0.010037 3.23184e-22)
(0.0469486 -0.00991442 -4.39611e-22)
(0.0471897 -0.0097901 2.23982e-22)
(0.047429 -0.0096643 -5.90169e-23)
(0.0476669 -0.00953727 0)
(0.0479035 -0.00940928 6.79915e-23)
(0.0481388 -0.00928062 -6.67517e-23)
(0.0483732 -0.00915156 -1.45307e-22)
(0.0486068 -0.0090224 4.41683e-22)
(0.0488397 -0.00889344 -2.9305e-22)
(0.0490723 -0.00876499 -3.01116e-22)
(0.0493046 -0.00863743 0)
(0.0495371 -0.00851114 -1.31269e-21)
(0.04977 -0.00838657 1.31397e-21)
(0.0500039 -0.0082642 -6.59015e-22)
(0.0502392 -0.00814458 6.46556e-22)
(0.0504765 -0.00802832 6.77986e-22)
(0.050717 -0.00791628 1.39151e-21)
(0.0509617 -0.00780924 1.42122e-21)
(0.0512104 -0.00770755 0)
(0.0514618 -0.00761097 -1.49995e-21)
(0.051714 -0.0075198 0)
(0.0519681 -0.00743545 3.94397e-23)
(0.0522261 -0.00735909 -1.59065e-21)
(0.0524875 -0.00729185 1.62211e-21)
(0.0527536 -0.00723502 1.70217e-21)
(0.0530308 -0.00719186 -1.77889e-21)
(0.0533422 -0.0071694 -4.15224e-23)
(0.053751 -0.00718348 -3.36023e-23)
(0.0543613 -0.00725108 6.09275e-21)
(0.0552213 -0.00735492 2.14018e-21)
(0.0559893 -0.0073705 2.34807e-21)
(0.0553416 -0.00704124 -2.4343e-21)
(0.0367594 -0.0119237 0)
(0.0370434 -0.0119924 0)
(0.0373297 -0.0120541 -1.85728e-21)
(0.037618 -0.0121091 2.74936e-21)
(0.0379082 -0.0121571 8.43925e-22)
(0.0382 -0.012198 0)
(0.0384932 -0.0122319 0)
(0.0387875 -0.0122586 -6.95138e-22)
(0.0390827 -0.0122782 1.2693e-21)
(0.0393787 -0.0122906 -1.07343e-22)
(0.039675 -0.0122958 -2.82576e-21)
(0.0399716 -0.012294 5.50799e-22)
(0.0402682 -0.0122851 -4.41525e-22)
(0.0405645 -0.0122692 8.97644e-22)
(0.0408604 -0.0122463 -3.68714e-22)
(0.0411554 -0.0122167 0)
(0.0414495 -0.0121803 0)
(0.0417424 -0.0121374 3.99452e-23)
(0.0420339 -0.012088 6.57267e-22)
(0.0423237 -0.0120323 -1.8325e-22)
(0.0426116 -0.0119706 1.09638e-22)
(0.0428975 -0.011903 -1.01287e-22)
(0.0431812 -0.0118296 -2.23034e-23)
(0.0434625 -0.0117508 6.33444e-23)
(0.0437413 -0.0116668 -1.95557e-23)
(0.0440174 -0.0115777 0)
(0.0442909 -0.0114839 0)
(0.0445616 -0.0113856 2.27091e-22)
(0.0448295 -0.0112831 0)
(0.0450945 -0.0111766 2.56085e-22)
(0.0453567 -0.0110664 -2.54899e-22)
(0.0456161 -0.0109527 -1.44778e-22)
(0.0458726 -0.0108359 1.60733e-22)
(0.0461264 -0.0107161 3.70239e-22)
(0.0463776 -0.0105938 -1.90492e-22)
(0.0466262 -0.0104691 -2.21225e-22)
(0.0468722 -0.0103423 2.261e-22)
(0.047116 -0.0102138 0)
(0.0473575 -0.0100837 0)
(0.047597 -0.00995235 6.73242e-23)
(0.0478345 -0.00982006 0)
(0.0480702 -0.00968706 0)
(0.0483043 -0.00955365 -2.23384e-22)
(0.0485369 -0.00942012 2.99321e-22)
(0.0487683 -0.00928677 -1.57238e-22)
(0.0489987 -0.00915393 3.08545e-22)
(0.0492282 -0.00902196 0)
(0.0494572 -0.00889125 1.00633e-21)
(0.049686 -0.00876224 1.57114e-24)
(0.0499151 -0.0086354 0)
(0.0501447 -0.00851124 -1.38965e-21)
(0.0503755 -0.00839038 2.24355e-24)
(0.0506083 -0.00827363 -1.41248e-21)
(0.050844 -0.00816183 -7.37048e-22)
(0.0510823 -0.00805522 -1.50104e-21)
(0.0513212 -0.00795334 1.47297e-21)
(0.0515594 -0.00785677 1.51242e-21)
(0.0517981 -0.00776669 0)
(0.0520388 -0.00768499 -1.63524e-21)
(0.0522809 -0.0076125 -1.70088e-23)
(0.0525241 -0.00755018 0)
(0.0527741 -0.00750154 0)
(0.0530497 -0.00747326 1.83081e-21)
(0.0534007 -0.00747841 0)
(0.0539195 -0.00753689 0)
(0.0546852 -0.00764987 -2.05815e-21)
(0.0555335 -0.00774232 -2.18807e-21)
(0.0555902 -0.00760517 -2.39772e-21)
(0.0531232 -0.00703644 0)
(0.0366243 -0.012455 0)
(0.0369229 -0.0125233 0)
(0.0372237 -0.0125841 0)
(0.0375265 -0.0126377 9.0398e-22)
(0.0378311 -0.0126838 8.04389e-22)
(0.0381372 -0.0127224 -9.44267e-23)
(0.0384445 -0.0127534 -1.55457e-21)
(0.0387527 -0.0127769 7.11485e-22)
(0.0390615 -0.0127927 -6.4027e-22)
(0.0393707 -0.0128008 -1.20239e-21)
(0.03968 -0.0128014 0)
(0.0399891 -0.0127945 0)
(0.0402978 -0.01278 -4.34147e-23)
(0.0406058 -0.0127581 -1.25849e-21)
(0.0409128 -0.012729 1.40388e-21)
(0.0412187 -0.0126926 -8.98113e-23)
(0.041523 -0.0126492 -5.87384e-22)
(0.0418257 -0.012599 -2.42016e-22)
(0.0421264 -0.012542 -3.46234e-23)
(0.042425 -0.0124786 0)
(0.0427212 -0.0124089 -1.87228e-22)
(0.0430148 -0.0123331 0)
(0.0433058 -0.0122515 -1.63823e-23)
(0.0435938 -0.0121643 -1.21773e-22)
(0.0438789 -0.0120718 2.02726e-22)
(0.0441608 -0.0119743 1.37242e-22)
(0.0444396 -0.0118721 -2.67146e-22)
(0.044715 -0.0117654 3.07295e-22)
(0.0449872 -0.0116545 -2.19421e-22)
(0.045256 -0.0115399 0)
(0.0455216 -0.0114216 -3.36046e-22)
(0.0457838 -0.0113 -2.23472e-22)
(0.0460428 -0.0111755 3.6225e-22)
(0.0462985 -0.0110482 -4.11538e-22)
(0.0465512 -0.0109185 2.28124e-22)
(0.0468009 -0.0107868 -2.24216e-22)
(0.0470476 -0.0106532 -1.18327e-22)
(0.0472916 -0.010518 1.33417e-22)
(0.0475329 -0.0103816 6.88344e-23)
(0.0477717 -0.0102442 -2.0362e-22)
(0.0480082 -0.0101062 -1.86249e-23)
(0.0482425 -0.00996765 0)
(0.0484747 -0.00982904 7.50201e-23)
(0.0487052 -0.00969062 -1.54275e-22)
(0.0489341 -0.00955271 1.58244e-22)
(0.0491616 -0.00941568 0)
(0.049388 -0.00927988 0)
(0.0496137 -0.00914573 3.62807e-22)
(0.0498389 -0.00901368 -6.8631e-22)
(0.050064 -0.00888419 -1.44489e-21)
(0.0502893 -0.00875784 2.8835e-21)
(0.0505156 -0.0086354 -7.41012e-22)
(0.0507436 -0.00851772 7.28128e-22)
(0.0509729 -0.00840496 7.39582e-22)
(0.051201 -0.00829648 -1.54032e-21)
(0.0514271 -0.00819291 1.52044e-21)
(0.0516524 -0.0080957 0)
(0.0518776 -0.00800646 -1.63575e-21)
(0.0521021 -0.00792609 -1.46508e-23)
(0.0523249 -0.00785569 1.69066e-21)
(0.0525505 -0.0077984 0)
(0.052796 -0.00776108 0)
(0.0531026 -0.00775523 0)
(0.0535504 -0.0077993 4.0183e-21)
(0.0542252 -0.00790543 2.15169e-21)
(0.0550619 -0.00802988 2.26759e-21)
(0.0554695 -0.0080142 -4.60823e-21)
(0.0540068 -0.00761159 1.95058e-23)
(0.0491372 -0.00677302 2.84895e-21)
(0.0364878 -0.0130177 0)
(0.0368016 -0.0130851 2.0178e-21)
(0.0371176 -0.0131446 -2.48687e-21)
(0.0374355 -0.0131962 1.31581e-21)
(0.0377552 -0.0132399 -2.62658e-21)
(0.0380763 -0.0132756 -7.95001e-22)
(0.0383983 -0.0133032 -7.38952e-22)
(0.0387211 -0.0133226 0)
(0.0390443 -0.013334 1.28424e-21)
(0.0393676 -0.0133372 1.15929e-21)
(0.0396906 -0.0133324 -1.1264e-21)
(0.0400131 -0.0133196 4.70788e-22)
(0.0403347 -0.0132988 -3.73969e-22)
(0.0406551 -0.0132702 4.98415e-22)
(0.0409742 -0.0132339 1.3178e-21)
(0.0412915 -0.0131901 -9.43169e-23)
(0.0416067 -0.0131389 -9.3426e-23)
(0.0419198 -0.0130805 -4.3652e-22)
(0.0422303 -0.0130151 -1.66876e-22)
(0.0425381 -0.012943 -1.60804e-22)
(0.042843 -0.0128644 2.01608e-22)
(0.0431447 -0.0127795 0)
(0.0434431 -0.0126888 4.24723e-23)
(0.0437381 -0.0125923 0)
(0.0440295 -0.0124906 -9.71845e-23)
(0.0443171 -0.0123838 -1.39723e-22)
(0.044601 -0.0122723 9.09853e-23)
(0.0448811 -0.0121564 0)
(0.0451573 -0.0120364 1.55582e-22)
(0.0454296 -0.0119128 3.48347e-22)
(0.0456981 -0.0117857 -3.42742e-22)
(0.0459628 -0.0116555 1.87104e-22)
(0.0462237 -0.0115225 -4.44356e-22)
(0.046481 -0.011387 8.90736e-22)
(0.0467346 -0.0112494 -2.32439e-22)
(0.0469848 -0.0111099 0)
(0.0472317 -0.0109689 -1.38438e-22)
(0.0474753 -0.0108266 9.59151e-24)
(0.0477159 -0.0106834 2.18428e-22)
(0.0479536 -0.0105394 -1.84078e-22)
(0.0481887 -0.0103951 3.65505e-23)
(0.0484212 -0.0102508 -1.22012e-22)
(0.0486514 -0.0101066 7.96815e-23)
(0.0488795 -0.00996298 0)
(0.0491058 -0.00982023 0)
(0.0493305 -0.00967869 0)
(0.0495538 -0.00953874 3.60757e-22)
(0.0497761 -0.00940078 3.66102e-22)
(0.0499975 -0.00926522 0)
(0.0502183 -0.0091326 7.27099e-22)
(0.050439 -0.00900364 7.58562e-22)
(0.0506604 -0.00887914 7.66939e-22)
(0.0508822 -0.00875924 0)
(0.0511013 -0.00864312 0)
(0.0513171 -0.00853135 -1.59241e-21)
(0.0515309 -0.0084255 1.58151e-21)
(0.0517427 -0.00832699 0)
(0.0519514 -0.00823671 1.67369e-21)
(0.0521562 -0.00815594 -1.72108e-21)
(0.0523606 -0.00808753 -1.79346e-21)
(0.0525807 -0.00803823 1.86902e-21)
(0.0528538 -0.00801941 -1.87824e-21)
(0.0532489 -0.00804757 0)
(0.0538505 -0.00813836 -2.0677e-21)
(0.0546392 -0.00827023 3.46334e-23)
(0.0552171 -0.00832102 -4.49837e-21)
(0.0544305 -0.00806274 -4.95435e-21)
(0.0506786 -0.00730328 5.4522e-21)
(0.0435272 -0.00625866 -3.13507e-21)
(0.036351 -0.0136147 5.45144e-22)
(0.0366809 -0.0136808 0)
(0.037013 -0.0137383 4.9554e-22)
(0.0373469 -0.0137875 -2.25549e-21)
(0.0376824 -0.0138281 3.89439e-21)
(0.0380192 -0.0138602 -8.45043e-22)
(0.0383568 -0.0138836 7.55933e-22)
(0.0386948 -0.0138984 -1.31972e-21)
(0.0390331 -0.0139045 6.68644e-22)
(0.0393711 -0.013902 5.88488e-22)
(0.0397085 -0.0138909 5.00366e-22)
(0.0400449 -0.0138713 -1.35932e-21)
(0.0403801 -0.0138433 4.82904e-22)
(0.0407137 -0.013807 -1.00648e-21)
(0.0410453 -0.0137626 -2.26019e-22)
(0.0413746 -0.0137103 9.89669e-23)
(0.0417014 -0.0136502 4.63371e-22)
(0.0420253 -0.0135827 0)
(0.0423461 -0.0135079 0)
(0.0426636 -0.0134261 3.77973e-23)
(0.0429774 -0.0133376 3.66138e-23)
(0.0432875 -0.0132427 -1.07871e-22)
(0.0435936 -0.0131418 5.3298e-23)
(0.0438955 -0.0130351 2.87922e-22)
(0.0441932 -0.0129231 -2.88035e-22)
(0.0444866 -0.012806 1.18116e-22)
(0.0447755 -0.0126843 1.39979e-22)
(0.04506 -0.0125583 0)
(0.0453399 -0.0124284 -1.58219e-22)
(0.0456155 -0.0122949 -3.99404e-22)
(0.0458866 -0.0121582 -3.97942e-23)
(0.0461533 -0.0120186 4.25225e-22)
(0.0464158 -0.0118764 -2.49644e-22)
(0.046674 -0.0117321 0)
(0.0469282 -0.0115859 1.38319e-22)
(0.0471786 -0.0114381 -1.44457e-22)
(0.0474251 -0.0112891 1.39661e-22)
(0.0476681 -0.0111392 -3.00905e-22)
(0.0479077 -0.0109887 0)
(0.0481441 -0.0108379 -4.13081e-23)
(0.0483775 -0.010687 4.12221e-23)
(0.0486081 -0.0105364 -6.67775e-23)
(0.0488361 -0.0103864 2.60772e-22)
(0.0490618 -0.0102372 -5.32086e-22)
(0.0492854 -0.0100893 3.5227e-22)
(0.049507 -0.00994286 3.71429e-22)
(0.049727 -0.00979831 -3.49243e-22)
(0.0499454 -0.00965602 7.77066e-22)
(0.0501625 -0.00951644 -7.47376e-22)
(0.0503787 -0.00938026 -1.92556e-21)
(0.0505947 -0.00924821 -1.171e-25)
(0.0508102 -0.00912036 -7.69321e-22)
(0.051022 -0.00899584 0)
(0.0512292 -0.00887492 0)
(0.0514334 -0.00875927 -1.65814e-21)
(0.0516336 -0.00865011 2.50102e-21)
(0.0518285 -0.00854829 -1.69079e-21)
(0.0520178 -0.00845519 0)
(0.0522045 -0.00837363 1.81611e-21)
(0.052404 -0.00831014 3.73147e-21)
(0.0526524 -0.00827637 -1.91133e-21)
(0.0530115 -0.00828804 -5.19375e-23)
(0.0535583 -0.00836071 2.03908e-21)
(0.0542951 -0.0084849 3.37979e-23)
(0.0549311 -0.00857053 -4.48673e-21)
(0.0545674 -0.00840916 4.75371e-21)
(0.051693 -0.00778199 2.65348e-21)
(0.0454164 -0.00668765 0)
(0.0367811 -0.00561453 0)
(0.0362149 -0.0142491 -5.58269e-22)
(0.0365622 -0.0143134 -2.56449e-21)
(0.0369113 -0.0143685 2.02869e-21)
(0.0372623 -0.0144146 0)
(0.0376147 -0.0144515 4.34331e-22)
(0.037968 -0.0144793 1.52928e-21)
(0.038322 -0.0144977 -1.16246e-21)
(0.0386762 -0.0145069 1.60956e-21)
(0.0390302 -0.0145069 -1.27623e-21)
(0.0393837 -0.0144976 0)
(0.0397362 -0.0144792 -2.75527e-22)
(0.0400873 -0.0144518 0)
(0.0404366 -0.0144155 -3.06735e-22)
(0.0407838 -0.0143705 1.04902e-21)
(0.0411285 -0.0143169 0)
(0.0414704 -0.0142549 0)
(0.0418091 -0.0141849 0)
(0.0421443 -0.014107 1.34903e-22)
(0.0424757 -0.0140216 -1.78486e-22)
(0.042803 -0.0139289 -3.8543e-23)
(0.043126 -0.0138294 0)
(0.0434446 -0.0137233 0)
(0.0437584 -0.013611 0)
(0.0440674 -0.013493 -4.98036e-22)
(0.0443713 -0.0133696 6.3961e-22)
(0.0446703 -0.0132412 -3.6383e-22)
(0.0449641 -0.0131083 -3.12282e-22)
(0.0452527 -0.0129712 3.76199e-22)
(0.0455363 -0.0128304 -3.76665e-22)
(0.0458147 -0.0126862 2.31482e-22)
(0.0460881 -0.012539 -4.87375e-22)
(0.0463565 -0.0123892 2.16216e-22)