/*--------------------------------*- C++ -*----------------------------------*\
| =========                 |                                                 |
| \\      /  F ield         | OpenFOAM: The Open Source CFD Toolbox           |
|  \\    /   O peration     | Version:  2312                                  |
|   \\  /    A nd           | Website:  www.openfoam.com                      |
|    \\/     M anipulation  |                                                 |
\*---------------------------------------------------------------------------*/
FoamFile
{
    version     2.0;
    format      ascii;
    arch        "LSB;label=32;scalar=64";
    class       volScalarField;
    location    "1400";
    object      nut;
}
// * * * * * * * * * * * * * * * * * * * * * * * * * * * * * * * * * * * * * //

dimensions      [0 2 -1 0 0 0 0];

internalField   nonuniform List<scalar> 
76025
(
6.27318e-06
6.26911e-06
6.26503e-06
6.26113e-06
6.25894e-06
6.25607e-06
6.25413e-06
6.25212e-06
6.25023e-06
6.24916e-06
6.24891e-06
6.24861e-06
6.24717e-06
6.24644e-06
6.24844e-06
6.24759e-06
6.24829e-06
6.24575e-06
6.24157e-06
6.23614e-06
6.22982e-06
6.22697e-06
6.22468e-06
6.22243e-06
6.22004e-06
6.21799e-06
6.21621e-06
6.21459e-06
6.2134e-06
6.21172e-06
6.21086e-06
6.20964e-06
6.20841e-06
6.20638e-06
6.2036e-06
6.19941e-06
6.19483e-06
6.18947e-06
6.18263e-06
6.17317e-06
6.16284e-06
6.15302e-06
6.14104e-06
6.12717e-06
6.11234e-06
6.09837e-06
6.084e-06
6.06881e-06
6.05397e-06
6.04182e-06
6.03152e-06
6.02237e-06
6.01399e-06
6.00425e-06
5.99026e-06
5.97559e-06
5.95555e-06
5.93039e-06
5.8985e-06
5.85613e-06
5.80937e-06
5.7596e-06
5.70683e-06
5.65201e-06
5.59713e-06
5.54985e-06
5.50489e-06
5.45621e-06
5.40132e-06
6.25424e-06
6.25098e-06
6.24753e-06
6.24387e-06
6.24006e-06
6.23625e-06
6.23236e-06
6.22869e-06
6.22497e-06
6.22158e-06
6.21895e-06
6.21695e-06
6.21524e-06
6.2141e-06
6.21409e-06
6.21389e-06
6.21408e-06
6.21365e-06
6.21262e-06
6.21073e-06
6.20794e-06
6.20488e-06
6.20176e-06
6.19867e-06
6.19541e-06
6.19185e-06
6.18817e-06
6.18423e-06
6.18014e-06
6.17576e-06
6.17099e-06
6.16588e-06
6.16034e-06
6.15435e-06
6.14797e-06
6.14119e-06
6.13399e-06
6.12639e-06
6.11838e-06
6.10989e-06
6.1009e-06
6.09152e-06
6.08171e-06
6.07133e-06
6.06047e-06
6.04953e-06
6.03851e-06
6.02717e-06
6.01579e-06
6.00474e-06
5.99347e-06
5.9808e-06
5.96589e-06
5.94801e-06
5.92678e-06
5.90159e-06
5.87196e-06
5.83755e-06
5.79828e-06
5.75484e-06
5.7078e-06
5.65835e-06
5.60801e-06
5.55864e-06
5.51172e-06
5.46508e-06
5.42052e-06
5.36472e-06
5.30695e-06
6.23137e-06
6.2287e-06
6.22596e-06
6.22314e-06
6.2201e-06
6.2168e-06
6.21318e-06
6.20938e-06
6.20533e-06
6.20106e-06
6.19683e-06
6.19294e-06
6.18943e-06
6.18629e-06
6.1837e-06
6.18159e-06
6.1799e-06
6.17852e-06
6.17732e-06
6.17612e-06
6.17464e-06
6.17274e-06
6.17041e-06
6.16775e-06
6.16476e-06
6.16141e-06
6.15769e-06
6.15362e-06
6.14917e-06
6.14439e-06
6.13924e-06
6.13372e-06
6.12783e-06
6.12158e-06
6.11499e-06
6.10805e-06
6.10075e-06
6.09307e-06
6.08499e-06
6.07647e-06
6.06752e-06
6.05817e-06
6.0483e-06
6.03781e-06
6.02675e-06
6.01531e-06
6.00342e-06
5.99071e-06
5.97674e-06
5.96118e-06
5.94378e-06
5.92426e-06
5.9023e-06
5.87761e-06
5.84988e-06
5.81887e-06
5.78438e-06
5.7464e-06
5.70518e-06
5.66125e-06
5.61544e-06
5.56884e-06
5.52226e-06
5.47679e-06
5.43167e-06
5.38378e-06
5.33429e-06
5.2679e-06
5.18956e-06
6.20886e-06
6.20563e-06
6.20245e-06
6.19936e-06
6.19637e-06
6.19338e-06
6.19028e-06
6.18704e-06
6.1836e-06
6.17984e-06
6.17576e-06
6.17148e-06
6.16715e-06
6.16284e-06
6.15869e-06
6.15478e-06
6.15115e-06
6.14783e-06
6.14479e-06
6.14201e-06
6.13939e-06
6.13682e-06
6.13417e-06
6.13136e-06
6.12836e-06
6.12512e-06
6.1216e-06
6.11776e-06
6.11354e-06
6.10894e-06
6.10393e-06
6.09849e-06
6.09261e-06
6.08631e-06
6.07961e-06
6.07251e-06
6.06492e-06
6.05681e-06
6.04817e-06
6.03895e-06
6.0291e-06
6.01863e-06
6.00755e-06
5.99574e-06
5.98302e-06
5.96923e-06
5.9542e-06
5.93777e-06
5.91983e-06
5.90024e-06
5.87882e-06
5.85538e-06
5.82972e-06
5.80167e-06
5.77107e-06
5.7378e-06
5.70181e-06
5.66325e-06
5.62251e-06
5.58011e-06
5.53677e-06
5.49313e-06
5.44842e-06
5.40248e-06
5.3535e-06
5.29718e-06
5.23408e-06
5.14947e-06
5.04931e-06
6.18751e-06
6.18371e-06
6.17985e-06
6.176e-06
6.17224e-06
6.16861e-06
6.16509e-06
6.16162e-06
6.15818e-06
6.15468e-06
6.15101e-06
6.14711e-06
6.143e-06
6.13869e-06
6.13424e-06
6.12972e-06
6.12519e-06
6.12068e-06
6.11625e-06
6.11193e-06
6.10772e-06
6.10362e-06
6.09959e-06
6.09557e-06
6.0915e-06
6.08734e-06
6.08303e-06
6.07854e-06
6.07378e-06
6.06871e-06
6.06328e-06
6.05744e-06
6.05114e-06
6.04435e-06
6.03708e-06
6.02933e-06
6.02106e-06
6.01217e-06
6.00263e-06
5.99241e-06
5.98147e-06
5.96974e-06
5.95711e-06
5.94345e-06
5.92867e-06
5.9127e-06
5.89544e-06
5.87676e-06
5.85653e-06
5.83465e-06
5.81105e-06
5.78561e-06
5.75824e-06
5.72882e-06
5.69725e-06
5.66344e-06
5.62742e-06
5.5894e-06
5.54974e-06
5.50855e-06
5.46595e-06
5.42182e-06
5.37432e-06
5.32192e-06
5.26221e-06
5.1909e-06
5.1082e-06
5.00177e-06
4.87841e-06
6.16542e-06
6.16153e-06
6.15745e-06
6.15321e-06
6.14889e-06
6.14455e-06
6.14026e-06
6.13603e-06
6.13188e-06
6.12781e-06
6.12378e-06
6.11971e-06
6.11556e-06
6.11128e-06
6.10686e-06
6.10229e-06
6.09757e-06
6.09273e-06
6.08777e-06
6.08273e-06
6.07762e-06
6.07246e-06
6.06726e-06
6.06201e-06
6.0567e-06
6.05129e-06
6.04577e-06
6.04009e-06
6.03421e-06
6.02809e-06
6.02167e-06
6.0149e-06
6.00771e-06
6.00003e-06
5.99184e-06
5.98312e-06
5.97385e-06
5.96396e-06
5.95336e-06
5.94201e-06
5.92985e-06
5.91682e-06
5.90283e-06
5.8878e-06
5.87162e-06
5.85422e-06
5.83549e-06
5.81538e-06
5.79381e-06
5.77075e-06
5.74611e-06
5.71979e-06
5.69168e-06
5.66168e-06
5.62968e-06
5.59564e-06
5.55947e-06
5.52126e-06
5.48122e-06
5.4388e-06
5.39325e-06
5.34367e-06
5.28775e-06
5.22307e-06
5.14765e-06
5.05763e-06
4.95217e-06
4.82422e-06
4.67871e-06
6.1403e-06
6.13673e-06
6.13289e-06
6.12879e-06
6.12446e-06
6.11994e-06
6.1153e-06
6.11056e-06
6.10579e-06
6.10101e-06
6.09625e-06
6.09151e-06
6.08677e-06
6.082e-06
6.07718e-06
6.07228e-06
6.06727e-06
6.06214e-06
6.05688e-06
6.05147e-06
6.04591e-06
6.0402e-06
6.03434e-06
6.02833e-06
6.02216e-06
6.01582e-06
6.0093e-06
6.00257e-06
5.99562e-06
5.98842e-06
5.98091e-06
5.97307e-06
5.96482e-06
5.9561e-06
5.94685e-06
5.93704e-06
5.92663e-06
5.91558e-06
5.90383e-06
5.89132e-06
5.87796e-06
5.86371e-06
5.84851e-06
5.83227e-06
5.81491e-06
5.79635e-06
5.77653e-06
5.7554e-06
5.73291e-06
5.70898e-06
5.68351e-06
5.65637e-06
5.62744e-06
5.59654e-06
5.56354e-06
5.52837e-06
5.49075e-06
5.45042e-06
5.40713e-06
5.35983e-06
5.30716e-06
5.24775e-06
5.17949e-06
5.09958e-06
5.00623e-06
4.89619e-06
4.76921e-06
4.61986e-06
4.45608e-06
6.11033e-06
6.10728e-06
6.10393e-06
6.10027e-06
6.09633e-06
6.09211e-06
6.08764e-06
6.08295e-06
6.07808e-06
6.07304e-06
6.06789e-06
6.06264e-06
6.05732e-06
6.05194e-06
6.0465e-06
6.04099e-06
6.0354e-06
6.02972e-06
6.02393e-06
6.01801e-06
6.01194e-06
6.00571e-06
5.9993e-06
5.9927e-06
5.98589e-06
5.97885e-06
5.97158e-06
5.96406e-06
5.95625e-06
5.94815e-06
5.93971e-06
5.93091e-06
5.92166e-06
5.91191e-06
5.90162e-06
5.89076e-06
5.87927e-06
5.8671e-06
5.85422e-06
5.84055e-06
5.82605e-06
5.81064e-06
5.79426e-06
5.77685e-06
5.75836e-06
5.7387e-06
5.71781e-06
5.69563e-06
5.67208e-06
5.64702e-06
5.6203e-06
5.59177e-06
5.56125e-06
5.52847e-06
5.4932e-06
5.45519e-06
5.41395e-06
5.36888e-06
5.31928e-06
5.26382e-06
5.20088e-06
5.12909e-06
5.04666e-06
4.95115e-06
4.83983e-06
4.70929e-06
4.56067e-06
4.38933e-06
4.21436e-06
6.07444e-06
6.07192e-06
6.06909e-06
6.06595e-06
6.06251e-06
6.05877e-06
6.05474e-06
6.05043e-06
6.04586e-06
6.04103e-06
6.03598e-06
6.03071e-06
6.02524e-06
6.01961e-06
6.01382e-06
6.00788e-06
6.00179e-06
5.99557e-06
5.98921e-06
5.98269e-06
5.97602e-06
5.96917e-06
5.96213e-06
5.95489e-06
5.94742e-06
5.93971e-06
5.93173e-06
5.92346e-06
5.91489e-06
5.90597e-06
5.8967e-06
5.887e-06
5.87682e-06
5.86611e-06
5.85484e-06
5.84297e-06
5.83045e-06
5.81722e-06
5.80324e-06
5.78846e-06
5.77281e-06
5.75624e-06
5.73868e-06
5.72006e-06
5.70031e-06
5.67937e-06
5.65713e-06
5.63349e-06
5.6083e-06
5.5814e-06
5.55258e-06
5.52161e-06
5.48823e-06
5.4521e-06
5.41287e-06
5.37009e-06
5.32302e-06
5.27084e-06
5.21263e-06
5.14719e-06
5.07294e-06
4.98826e-06
4.89116e-06
4.77902e-06
4.64896e-06
4.49699e-06
4.32473e-06
4.13197e-06
3.96114e-06
6.03261e-06
6.03039e-06
6.0279e-06
6.02514e-06
6.02209e-06
6.01875e-06
6.01513e-06
6.01122e-06
6.00703e-06
6.00256e-06
5.99781e-06
5.9928e-06
5.98753e-06
5.98201e-06
5.97624e-06
5.97024e-06
5.96401e-06
5.95756e-06
5.95088e-06
5.94399e-06
5.93687e-06
5.92952e-06
5.92193e-06
5.9141e-06
5.906e-06
5.89763e-06
5.88895e-06
5.87996e-06
5.87061e-06
5.8609e-06
5.85078e-06
5.84019e-06
5.82908e-06
5.81741e-06
5.80514e-06
5.79222e-06
5.77861e-06
5.76426e-06
5.74912e-06
5.73312e-06
5.71619e-06
5.69828e-06
5.6793e-06
5.65918e-06
5.63782e-06
5.6151e-06
5.59089e-06
5.56504e-06
5.53736e-06
5.50764e-06
5.47562e-06
5.44102e-06
5.40351e-06
5.36265e-06
5.31795e-06
5.26886e-06
5.2146e-06
5.15421e-06
5.08661e-06
5.01053e-06
4.92447e-06
4.82633e-06
4.71332e-06
4.58214e-06
4.42969e-06
4.25286e-06
4.05622e-06
3.84998e-06
3.72107e-06
5.986e-06
5.9836e-06
5.98104e-06
5.97828e-06
5.97531e-06
5.9721e-06
5.96864e-06
5.96492e-06
5.96093e-06
5.95668e-06
5.95214e-06
5.94734e-06
5.94225e-06
5.9369e-06
5.93126e-06
5.92535e-06
5.91916e-06
5.91269e-06
5.90593e-06
5.89889e-06
5.89156e-06
5.88392e-06
5.87599e-06
5.86774e-06
5.85916e-06
5.85024e-06
5.84096e-06
5.8313e-06
5.82123e-06
5.81074e-06
5.79977e-06
5.78827e-06
5.77618e-06
5.76347e-06
5.7501e-06
5.73602e-06
5.72118e-06
5.70552e-06
5.68899e-06
5.67151e-06
5.653e-06
5.63339e-06
5.61257e-06
5.59044e-06
5.56687e-06
5.54171e-06
5.51482e-06
5.48598e-06
5.45501e-06
5.42164e-06
5.38557e-06
5.34646e-06
5.30394e-06
5.25752e-06
5.20659e-06
5.15045e-06
5.0883e-06
5.01909e-06
4.94146e-06
4.85379e-06
4.75407e-06
4.63961e-06
4.50702e-06
4.3525e-06
4.17338e-06
3.96986e-06
3.7552e-06
3.56004e-06
3.55145e-06
5.93627e-06
5.93317e-06
5.93002e-06
5.92678e-06
5.92342e-06
5.91991e-06
5.91622e-06
5.91233e-06
5.90821e-06
5.90386e-06
5.89926e-06
5.8944e-06
5.88926e-06
5.88386e-06
5.87817e-06
5.87219e-06
5.86592e-06
5.85934e-06
5.85246e-06
5.84525e-06
5.83771e-06
5.82982e-06
5.82158e-06
5.81297e-06
5.80397e-06
5.79455e-06
5.78471e-06
5.77442e-06
5.76365e-06
5.75237e-06
5.74052e-06
5.72805e-06
5.71491e-06
5.70107e-06
5.68647e-06
5.67107e-06
5.65481e-06
5.63763e-06
5.61945e-06
5.60019e-06
5.57976e-06
5.55805e-06
5.53497e-06
5.51038e-06
5.48413e-06
5.45606e-06
5.42599e-06
5.39369e-06
5.35892e-06
5.3214e-06
5.28079e-06
5.23668e-06
5.18861e-06
5.13599e-06
5.07815e-06
5.01421e-06
4.9431e-06
4.86348e-06
4.77367e-06
4.67157e-06
4.55446e-06
4.41888e-06
4.26106e-06
4.07824e-06
3.87078e-06
3.64657e-06
3.43763e-06
3.31204e-06
3.58584e-06
5.88435e-06
5.88022e-06
5.87611e-06
5.87198e-06
5.86781e-06
5.86357e-06
5.85923e-06
5.85476e-06
5.85012e-06
5.8453e-06
5.84028e-06
5.83502e-06
5.82952e-06
5.82376e-06
5.81772e-06
5.8114e-06
5.80477e-06
5.79783e-06
5.79057e-06
5.78296e-06
5.775e-06
5.76667e-06
5.75794e-06
5.7488e-06
5.73923e-06
5.7292e-06
5.71867e-06
5.70764e-06
5.69605e-06
5.68387e-06
5.67102e-06
5.65747e-06
5.64317e-06
5.62806e-06
5.6121e-06
5.59522e-06
5.57737e-06
5.55847e-06
5.53843e-06
5.51716e-06
5.49456e-06
5.47052e-06
5.4449e-06
5.41757e-06
5.38835e-06
5.35706e-06
5.32349e-06
5.28737e-06
5.2484e-06
5.20623e-06
5.16046e-06
5.1106e-06
5.05605e-06
4.99607e-06
4.92979e-06
4.8561e-06
4.77358e-06
4.68047e-06
4.57459e-06
4.45328e-06
4.31326e-06
4.15094e-06
3.96336e-06
3.75104e-06
3.52175e-06
3.29962e-06
3.15356e-06
3.22618e-06
4.12991e-06
5.82917e-06
5.82403e-06
5.8189e-06
5.81376e-06
5.80861e-06
5.80342e-06
5.79817e-06
5.79283e-06
5.78737e-06
5.78178e-06
5.77601e-06
5.77006e-06
5.76389e-06
5.75748e-06
5.75081e-06
5.74387e-06
5.73662e-06
5.72905e-06
5.72115e-06
5.71288e-06
5.70424e-06
5.6952e-06
5.68574e-06
5.67583e-06
5.66545e-06
5.65456e-06
5.64313e-06
5.63113e-06
5.61851e-06
5.60521e-06
5.59119e-06
5.57637e-06
5.56072e-06
5.54417e-06
5.52667e-06
5.50813e-06
5.4885e-06
5.46767e-06
5.44555e-06
5.42205e-06
5.39703e-06
5.37038e-06
5.34193e-06
5.31151e-06
5.27891e-06
5.24392e-06
5.20625e-06
5.16558e-06
5.12155e-06
5.0737e-06
5.02151e-06
4.96435e-06
4.90145e-06
4.83187e-06
4.75446e-06
4.66777e-06
4.56998e-06
4.45887e-06
4.33178e-06
4.18558e-06
4.01694e-06
3.82374e-06
3.6065e-06
3.37408e-06
3.14809e-06
2.98251e-06
3.02076e-06
3.58832e-06
6.02712e-06
5.76757e-06
5.7617e-06
5.75577e-06
5.74979e-06
5.74376e-06
5.73767e-06
5.7315e-06
5.72525e-06
5.71888e-06
5.71238e-06
5.70573e-06
5.6989e-06
5.69187e-06
5.68461e-06
5.67711e-06
5.66933e-06
5.66125e-06
5.65285e-06
5.6441e-06
5.63497e-06
5.62544e-06
5.61549e-06
5.60507e-06
5.59418e-06
5.58276e-06
5.57078e-06
5.55821e-06
5.54501e-06
5.53112e-06
5.51647e-06
5.50101e-06
5.48468e-06
5.46742e-06
5.44915e-06
5.42981e-06
5.40932e-06
5.38757e-06
5.36446e-06
5.33989e-06
5.31372e-06
5.28581e-06
5.256e-06
5.22408e-06
5.18984e-06
5.15302e-06
5.11333e-06
5.07042e-06
5.02388e-06
4.97323e-06
4.9179e-06
4.85721e-06
4.79035e-06
4.71633e-06
4.63394e-06
4.54168e-06
4.43771e-06
4.31976e-06
4.18509e-06
4.03085e-06
3.85442e-06
3.65424e-06
3.43302e-06
3.19832e-06
2.97633e-06
2.81123e-06
2.81678e-06
3.31729e-06
5.18921e-06
1.1825e-05
5.69539e-06
5.68905e-06
5.68259e-06
5.67602e-06
5.66933e-06
5.66253e-06
5.65561e-06
5.64856e-06
5.64137e-06
5.63401e-06
5.62648e-06
5.61875e-06
5.61081e-06
5.60263e-06
5.59418e-06
5.58545e-06
5.57641e-06
5.56703e-06
5.55727e-06
5.54712e-06
5.53653e-06
5.52548e-06
5.51392e-06
5.50183e-06
5.48917e-06
5.47588e-06
5.46193e-06
5.44726e-06
5.43181e-06
5.41551e-06
5.3983e-06
5.3801e-06
5.36085e-06
5.34046e-06
5.31883e-06
5.29587e-06
5.27147e-06
5.24549e-06
5.21779e-06
5.18821e-06
5.15656e-06
5.12263e-06
5.08618e-06
5.04692e-06
5.00452e-06
4.95862e-06
4.90876e-06
4.85443e-06
4.79501e-06
4.72978e-06
4.65786e-06
4.57821e-06
4.48953e-06
4.39025e-06
4.27847e-06
4.15185e-06
4.00779e-06
3.84361e-06
3.65767e-06
3.45023e-06
3.22479e-06
2.99498e-06
2.7777e-06
2.62188e-06
2.63315e-06
3.08988e-06
4.84887e-06
1.07397e-05
2.85244e-05
5.60846e-06
5.60174e-06
5.59487e-06
5.58782e-06
5.58061e-06
5.57324e-06
5.56568e-06
5.55795e-06
5.55002e-06
5.54189e-06
5.53354e-06
5.52495e-06
5.5161e-06
5.50697e-06
5.49755e-06
5.4878e-06
5.4777e-06
5.46722e-06
5.45633e-06
5.44499e-06
5.43316e-06
5.42082e-06
5.40791e-06
5.3944e-06
5.38023e-06
5.36536e-06
5.34972e-06
5.33325e-06
5.31588e-06
5.29753e-06
5.27812e-06
5.25757e-06
5.23579e-06
5.21268e-06
5.18813e-06
5.162e-06
5.13415e-06
5.10443e-06
5.07264e-06
5.03858e-06
5.00201e-06
4.96267e-06
4.92024e-06
4.87436e-06
4.82463e-06
4.77057e-06
4.7116e-06
4.64708e-06
4.57622e-06
4.49807e-06
4.41149e-06
4.31507e-06
4.20711e-06
4.08564e-06
3.94834e-06
3.7928e-06
3.61724e-06
3.42073e-06
3.20647e-06
2.98151e-06
2.75678e-06
2.55405e-06
2.42095e-06
2.46311e-06
2.95083e-06
4.71245e-06
1.06183e-05
2.81524e-05
6.24134e-05
5.5028e-06
5.49559e-06
5.48819e-06
5.4806e-06
5.4728e-06
5.4648e-06
5.45658e-06
5.44813e-06
5.43944e-06
5.4305e-06
5.42128e-06
5.41178e-06
5.40197e-06
5.39183e-06
5.38133e-06
5.37045e-06
5.35916e-06
5.34742e-06
5.3352e-06
5.32247e-06
5.30918e-06
5.29529e-06
5.28075e-06
5.2655e-06
5.24948e-06
5.23264e-06
5.2149e-06
5.19619e-06
5.17641e-06
5.15547e-06
5.13329e-06
5.10976e-06
5.08477e-06
5.05819e-06
5.02988e-06
4.99966e-06
4.96736e-06
4.93278e-06
4.89568e-06
4.85581e-06
4.81285e-06
4.76648e-06
4.7163e-06
4.66186e-06
4.60263e-06
4.53801e-06
4.46726e-06
4.38952e-06
4.30375e-06
4.20864e-06
4.10263e-06
3.98391e-06
3.85041e-06
3.70026e-06
3.53171e-06
3.34386e-06
3.13896e-06
2.92047e-06
2.70122e-06
2.48862e-06
2.31105e-06
2.22011e-06
2.32616e-06
2.93181e-06
4.93434e-06
1.13781e-05
2.9964e-05
6.54695e-05
0.000104174
5.37352e-06
5.3656e-06
5.35748e-06
5.34912e-06
5.34054e-06
5.33171e-06
5.32263e-06
5.31327e-06
5.30364e-06
5.29369e-06
5.28343e-06
5.27283e-06
5.26185e-06
5.25049e-06
5.2387e-06
5.22646e-06
5.21374e-06
5.20048e-06
5.18667e-06
5.17224e-06
5.15715e-06
5.14135e-06
5.12478e-06
5.10736e-06
5.08905e-06
5.06974e-06
5.04936e-06
5.02781e-06
5.00499e-06
4.98079e-06
4.95509e-06
4.92776e-06
4.89866e-06
4.86762e-06
4.83447e-06
4.79901e-06
4.76099e-06
4.72016e-06
4.67624e-06
4.62887e-06
4.5777e-06
4.52228e-06
4.46211e-06
4.39661e-06
4.3251e-06
4.24676e-06
4.16057e-06
4.06533e-06
3.95958e-06
3.84157e-06
3.70946e-06
3.56172e-06
3.39689e-06
3.21555e-06
3.01866e-06
2.80904e-06
2.59797e-06
2.38906e-06
2.20132e-06
2.06352e-06
2.04151e-06
2.2713e-06
3.124e-06
5.73612e-06
1.37147e-05
3.47293e-05
7.15771e-05
0.000110554
0.000131378
5.21282e-06
5.204e-06
5.19493e-06
5.1856e-06
5.17599e-06
5.1661e-06
5.1559e-06
5.14539e-06
5.13453e-06
5.12331e-06
5.11171e-06
5.0997e-06
5.08725e-06
5.07433e-06
5.06091e-06
5.04694e-06
5.0324e-06
5.01723e-06
5.00139e-06
4.98481e-06
4.96744e-06
4.94922e-06
4.93006e-06
4.9099e-06
4.88864e-06
4.86618e-06
4.84243e-06
4.81727e-06
4.79058e-06
4.76223e-06
4.73206e-06
4.69991e-06
4.66558e-06
4.62888e-06
4.58956e-06
4.54736e-06
4.50199e-06
4.45312e-06
4.40038e-06
4.34334e-06
4.28153e-06
4.21437e-06
4.1412e-06
4.0612e-06
3.9734e-06
3.87662e-06
3.76944e-06
3.65027e-06
3.51762e-06
3.37003e-06
3.20684e-06
3.0294e-06
2.83896e-06
2.64212e-06
2.44136e-06
2.24244e-06
2.05977e-06
1.91404e-06
1.84696e-06
1.93253e-06
2.37906e-06
3.71538e-06
7.62241e-06
1.87462e-05
4.40907e-05
8.213e-05
0.000119038
0.000137487
0.000126564
5.00775e-06
4.99787e-06
4.9877e-06
4.9772e-06
4.96638e-06
4.9552e-06
4.94365e-06
4.93172e-06
4.91937e-06
4.90658e-06
4.89332e-06
4.87957e-06
4.86529e-06
4.85044e-06
4.83498e-06
4.81886e-06
4.80204e-06
4.78446e-06
4.76607e-06
4.74678e-06
4.72654e-06
4.70526e-06
4.68284e-06
4.65919e-06
4.63421e-06
4.60776e-06
4.57973e-06
4.54996e-06
4.51831e-06
4.48459e-06
4.44863e-06
4.41019e-06
4.36906e-06
4.32497e-06
4.27761e-06
4.22667e-06
4.17175e-06
4.11245e-06
4.04827e-06
3.97864e-06
3.90288e-06
3.82018e-06
3.72957e-06
3.62984e-06
3.51967e-06
3.39777e-06
3.26284e-06
3.11412e-06
2.95242e-06
2.77878e-06
2.59544e-06
2.41155e-06
2.2248e-06
2.04343e-06
1.87748e-06
1.74336e-06
1.67365e-06
1.7156e-06
2.00283e-06
2.8384e-06
5.1495e-06
1.16602e-05
2.82519e-05
5.9105e-05
9.7499e-05
0.000129893
0.00014208
0.000130092
0.000110637
4.7377e-06
4.72657e-06
4.71507e-06
4.70319e-06
4.6909e-06
4.67819e-06
4.66502e-06
4.65136e-06
4.6372e-06
4.6225e-06
4.60722e-06
4.59133e-06
4.57479e-06
4.55754e-06
4.53954e-06
4.52074e-06
4.50107e-06
4.48046e-06
4.45885e-06
4.43614e-06
4.41224e-06
4.38705e-06
4.36047e-06
4.33235e-06
4.30257e-06
4.27102e-06
4.23752e-06
4.20191e-06
4.16398e-06
4.12352e-06
4.08027e-06
4.03394e-06
3.98424e-06
3.9308e-06
3.87325e-06
3.81114e-06
3.74396e-06
3.67113e-06
3.59194e-06
3.50558e-06
3.41105e-06
3.30724e-06
3.1931e-06
3.06745e-06
2.92977e-06
2.78097e-06
2.62216e-06
2.455e-06
2.28752e-06
2.11872e-06
1.95299e-06
1.79615e-06
1.65703e-06
1.55277e-06
1.506e-06
1.55148e-06
1.79335e-06
2.4282e-06
4.03483e-06
8.30871e-06
1.95385e-05
4.35261e-05
7.89061e-05
0.000115228
0.000140971
0.000145267
0.000134159
0.000115512
9.87396e-05
4.37109e-06
4.3584e-06
4.34529e-06
4.33171e-06
4.31764e-06
4.30306e-06
4.28792e-06
4.2722e-06
4.25587e-06
4.23887e-06
4.22117e-06
4.20273e-06
4.18348e-06
4.16338e-06
4.14235e-06
4.12034e-06
4.09726e-06
4.07303e-06
4.04757e-06
4.02075e-06
3.99248e-06
3.96262e-06
3.93104e-06
3.89758e-06
3.86209e-06
3.82439e-06
3.78426e-06
3.74147e-06
3.69577e-06
3.64689e-06
3.5945e-06
3.53826e-06
3.47776e-06
3.41254e-06
3.34207e-06
3.26571e-06
3.18276e-06
3.09241e-06
2.99381e-06
2.8861e-06
2.76846e-06
2.64062e-06
2.50387e-06
2.35929e-06
2.2089e-06
2.06095e-06
1.91426e-06
1.77098e-06
1.63581e-06
1.51471e-06
1.41841e-06
1.35943e-06
1.35174e-06
1.44566e-06
1.70449e-06
2.28546e-06
3.58549e-06
6.70088e-06
1.44998e-05
3.22896e-05
6.27508e-05
9.89411e-05
0.000129938
0.000146564
0.000147514
0.000139097
0.000122569
0.000105368
9.19433e-05
3.85912e-06
3.84448e-06
3.82936e-06
3.81369e-06
3.79745e-06
3.78059e-06
3.76308e-06
3.74488e-06
3.72595e-06
3.70624e-06
3.68569e-06
3.66426e-06
3.64187e-06
3.61846e-06
3.59395e-06
3.56826e-06
3.5413e-06
3.51296e-06
3.48313e-06
3.45168e-06
3.41849e-06
3.3834e-06
3.34624e-06
3.30687e-06
3.26513e-06
3.22078e-06
3.17355e-06
3.12316e-06
3.06926e-06
3.01148e-06
2.94936e-06
2.88242e-06
2.8101e-06
2.7318e-06
2.64692e-06
2.55484e-06
2.45502e-06
2.34715e-06
2.23146e-06
2.1095e-06
1.98261e-06
1.85298e-06
1.73131e-06
1.61263e-06
1.50047e-06
1.39606e-06
1.30624e-06
1.23824e-06
1.19937e-06
1.19538e-06
1.26093e-06
1.42217e-06
1.74452e-06
2.35891e-06
3.56767e-06
6.08351e-06
1.16327e-05
2.38909e-05
4.70486e-05
7.91439e-05
0.00011096
0.000133535
0.000143843
0.000146175
0.000140353
0.000127357
0.000112881
0.000101555
9.18781e-05
3.1358e-06
3.1194e-06
3.10247e-06
3.08494e-06
3.06678e-06
3.04794e-06
3.0284e-06
3.0081e-06
2.987e-06
2.96505e-06
2.94219e-06
2.91837e-06
2.89351e-06
2.86754e-06
2.84039e-06
2.81196e-06
2.78215e-06
2.75087e-06
2.71798e-06
2.68337e-06
2.64689e-06
2.60839e-06
2.56768e-06
2.52451e-06
2.47857e-06
2.42955e-06
2.37713e-06
2.32097e-06
2.26071e-06
2.19599e-06
2.12645e-06
2.05182e-06
1.97192e-06
1.88673e-06
1.79647e-06
1.7017e-06
1.60366e-06
1.50391e-06
1.40636e-06
1.3192e-06
1.23762e-06
1.16442e-06
1.10392e-06
1.05938e-06
1.03347e-06
1.02535e-06
1.05828e-06
1.14061e-06
1.28888e-06
1.53317e-06
1.93702e-06
2.61976e-06
3.80577e-06
5.95254e-06
1.00138e-05
1.77831e-05
3.20456e-05
5.47151e-05
8.17409e-05
0.000104434
0.000120725
0.000131534
0.000136487
0.000134295
0.000125539
0.000113669
0.000108313
0.000102402
9.60047e-05
2.14973e-06
2.13347e-06
2.11675e-06
2.09953e-06
2.08176e-06
2.0634e-06
2.04442e-06
2.02478e-06
2.00446e-06
1.9834e-06
1.96157e-06
1.93891e-06
1.91537e-06
1.89088e-06
1.86539e-06
1.83883e-06
1.81111e-06
1.78217e-06
1.7519e-06
1.72023e-06
1.68702e-06
1.65199e-06
1.6147e-06
1.57494e-06
1.53266e-06
1.48778e-06
1.44029e-06
1.39029e-06
1.33789e-06
1.28338e-06
1.22714e-06
1.16975e-06
1.112e-06
1.05485e-06
9.99632e-07
9.49283e-07
9.07038e-07
8.71976e-07
8.46345e-07
8.32805e-07
8.33326e-07
8.52003e-07
9.0393e-07
9.8505e-07
1.10145e-06
1.26287e-06
1.48452e-06
1.79129e-06
2.22343e-06
2.86381e-06
3.88152e-06
5.58328e-06
8.38727e-06
1.27074e-05
1.92889e-05
2.89684e-05
4.16576e-05
5.74054e-05
7.56246e-05
9.23087e-05
0.000105317
0.000113507
0.000115778
0.000111513
0.000104883
0.000105698
0.000105317
0.000102763
9.79317e-05
1.03062e-06
1.02081e-06
1.01079e-06
1.00053e-06
9.90033e-07
9.79283e-07
9.68265e-07
9.5696e-07
9.45353e-07
9.33425e-07
9.21156e-07
9.08525e-07
8.95508e-07
8.82083e-07
8.68223e-07
8.53906e-07
8.39122e-07
8.23861e-07
8.08116e-07
7.9188e-07
7.75183e-07
7.58209e-07
7.41245e-07
7.24484e-07
7.08138e-07
6.9245e-07
6.77706e-07
6.64245e-07
6.52466e-07
6.42838e-07
6.36049e-07
6.32775e-07
6.33772e-07
6.39901e-07
6.54228e-07
6.87971e-07
7.34284e-07
7.935e-07
8.6654e-07
9.54648e-07
1.05915e-06
1.18113e-06
1.3215e-06
1.47989e-06
1.6582e-06
1.86459e-06
2.12693e-06
2.50885e-06
3.08374e-06
3.88491e-06
5.03599e-06
6.91435e-06
8.73422e-06
8.9101e-06
8.7218e-06
9.77945e-06
1.52046e-05
2.6142e-05
4.3102e-05
5.71058e-05
6.56699e-05
6.9265e-05
7.26891e-05
7.45942e-05
7.83385e-05
8.9179e-05
9.24126e-05
9.0953e-05
8.52405e-05
3.48449e-07
3.55094e-07
3.61825e-07
3.68583e-07
3.75348e-07
3.82111e-07
3.88868e-07
3.95618e-07
4.02361e-07
4.09098e-07
4.15833e-07
4.22571e-07
4.2932e-07
4.36091e-07
4.42898e-07
4.49824e-07
4.57531e-07
4.66199e-07
4.76063e-07
4.87304e-07
5.00093e-07
5.14594e-07
5.30987e-07
5.49466e-07
5.70243e-07
5.93542e-07
6.19588e-07
6.48595e-07
6.8074e-07
7.16127e-07
7.54743e-07
7.96381e-07
8.40562e-07
8.86423e-07
9.32635e-07
9.77382e-07
1.01811e-06
1.05176e-06
1.07511e-06
1.08549e-06
1.08211e-06
1.06679e-06
1.03867e-06
9.95903e-07
9.56524e-07
9.42951e-07
1.00594e-06
1.22456e-06
1.4017e-06
1.13917e-06
7.86643e-07
5.68925e-07
6.29103e-07
6.21357e-07
6.37185e-07
9.02013e-07
1.65668e-06
3.29425e-06
6.2928e-06
1.0509e-05
1.50877e-05
1.90685e-05
2.27642e-05
2.59728e-05
2.94129e-05
3.37238e-05
3.45745e-05
3.20894e-05
2.66726e-05
3.07783e-07
3.17049e-07
3.26466e-07
3.36029e-07
3.45704e-07
3.55455e-07
3.65247e-07
3.75042e-07
3.84801e-07
3.94482e-07
4.04039e-07
4.1342e-07
4.22571e-07
4.31427e-07
4.39915e-07
4.47873e-07
4.54498e-07
4.59648e-07
4.63169e-07
4.64995e-07
4.65068e-07
4.63313e-07
4.59637e-07
4.53921e-07
4.46023e-07
4.35782e-07
4.23024e-07
4.07574e-07
3.8927e-07
3.6799e-07
3.43675e-07
3.16367e-07
2.8625e-07
2.53697e-07
2.19313e-07
1.83959e-07
1.48754e-07
1.15039e-07
8.4297e-08
5.8012e-08
3.73205e-08
2.2182e-08
1.20679e-08
7.13835e-09
4.80283e-09
3.21918e-09
3.12588e-09
5.68928e-09
8.38671e-09
6.11787e-09
3.56608e-09
2.46101e-09
2.12655e-09
1.86429e-09
1.75822e-09
2.47345e-09
4.51509e-09
9.04968e-09
1.87584e-08
3.80579e-08
7.89077e-08
1.33805e-07
1.93055e-07
2.45284e-07
2.93134e-07
3.36941e-07
3.36001e-07
2.81962e-07
1.87547e-07
6.14488e-06
6.14939e-06
6.14946e-06
6.152e-06
6.15286e-06
6.15307e-06
6.15363e-06
6.1587e-06
6.16423e-06
6.16844e-06
6.17377e-06
6.18091e-06
6.18274e-06
6.18502e-06
6.18926e-06
6.19465e-06
6.19146e-06
6.19141e-06
6.19655e-06
6.21536e-06
6.23126e-06
6.2275e-06
6.21507e-06
6.21895e-06
6.21472e-06
6.2114e-06
6.22387e-06
6.23793e-06
6.24218e-06
6.24655e-06
6.27004e-06
6.26793e-06
6.27332e-06
6.27179e-06
6.27348e-06
6.27196e-06
6.26501e-06
6.25847e-06
6.27159e-06
6.27399e-06
6.28043e-06
6.28854e-06
6.29233e-06
6.29509e-06
6.29093e-06
6.29283e-06
6.29428e-06
6.29616e-06
6.29477e-06
6.29322e-06
6.29099e-06
6.29015e-06
6.29038e-06
6.29114e-06
6.29064e-06
6.28877e-06
6.28541e-06
6.2808e-06
6.27687e-06
6.12776e-06
6.12968e-06
6.13057e-06
6.13208e-06
6.13306e-06
6.13435e-06
6.13732e-06
6.14273e-06
6.14826e-06
6.15411e-06
6.16063e-06
6.16587e-06
6.16818e-06
6.17073e-06
6.17444e-06
6.17659e-06
6.1749e-06
6.17675e-06
6.18672e-06
6.20547e-06
6.21676e-06
6.21107e-06
6.20212e-06
6.206e-06
6.20188e-06
6.19892e-06
6.21024e-06
6.22385e-06
6.22927e-06
6.23331e-06
6.2541e-06
6.25601e-06
6.2589e-06
6.2604e-06
6.26316e-06
6.26177e-06
6.25612e-06
6.24805e-06
6.25127e-06
6.25491e-06
6.25974e-06
6.26717e-06
6.27283e-06
6.27657e-06
6.27679e-06
6.27645e-06
6.27707e-06
6.27788e-06
6.2773e-06
6.27553e-06
6.27324e-06
6.2709e-06
6.26893e-06
6.26723e-06
6.2658e-06
6.26417e-06
6.26226e-06
6.25963e-06
6.25681e-06
6.10431e-06
6.10586e-06
6.1074e-06
6.10941e-06
6.11208e-06
6.11588e-06
6.12106e-06
6.12718e-06
6.13357e-06
6.14014e-06
6.14606e-06
6.1499e-06
6.15195e-06
6.15431e-06
6.15698e-06
6.15794e-06
6.15813e-06
6.16327e-06
6.17664e-06
6.19353e-06
6.20033e-06
6.19427e-06
6.18869e-06
6.19215e-06
6.18819e-06
6.18563e-06
6.19588e-06
6.20882e-06
6.21514e-06
6.21933e-06
6.23702e-06
6.24238e-06
6.24415e-06
6.24514e-06
6.24799e-06
6.2486e-06
6.24513e-06
6.23797e-06
6.23519e-06
6.23591e-06
6.23852e-06
6.24419e-06
6.25051e-06
6.25529e-06
6.25788e-06
6.25855e-06
6.25898e-06
6.2594e-06
6.25913e-06
6.25773e-06
6.25556e-06
6.25293e-06
6.25014e-06
6.24731e-06
6.24456e-06
6.24188e-06
6.23926e-06
6.23651e-06
6.23366e-06
6.07896e-06
6.08148e-06
6.0845e-06
6.08839e-06
6.0932e-06
6.09892e-06
6.10532e-06
6.11198e-06
6.11856e-06
6.12455e-06
6.12909e-06
6.13175e-06
6.13351e-06
6.13561e-06
6.13764e-06
6.13891e-06
6.14169e-06
6.15024e-06
6.16509e-06
6.17904e-06
6.18247e-06
6.17709e-06
6.17419e-06
6.17713e-06
6.17336e-06
6.1712e-06
6.18044e-06
6.19264e-06
6.1996e-06
6.20409e-06
6.21903e-06
6.22675e-06
6.22864e-06
6.22895e-06
6.23075e-06
6.23248e-06
6.23137e-06
6.22624e-06
6.2212e-06
6.2186e-06
6.21816e-06
6.22084e-06
6.22594e-06
6.23112e-06
6.23501e-06
6.23715e-06
6.23827e-06
6.23895e-06
6.23907e-06
6.23829e-06
6.2366e-06
6.23423e-06
6.23143e-06
6.22835e-06
6.22512e-06
6.22181e-06
6.21848e-06
6.21509e-06
6.21172e-06
6.05532e-06
6.05936e-06
6.06415e-06
6.06971e-06
6.07588e-06
6.08245e-06
6.0891e-06
6.0955e-06
6.1013e-06
6.10599e-06
6.10918e-06
6.11113e-06
6.11283e-06
6.1149e-06
6.11709e-06
6.11982e-06
6.12554e-06
6.1367e-06
6.1513e-06
6.16205e-06
6.16333e-06
6.15921e-06
6.15834e-06
6.16076e-06
6.1572e-06
6.1554e-06
6.16369e-06
6.1751e-06
6.1825e-06
6.18734e-06
6.19997e-06
6.20906e-06
6.21183e-06
6.21175e-06
6.2124e-06
6.21416e-06
6.2147e-06
6.21185e-06
6.20695e-06
6.20245e-06
6.19927e-06
6.19856e-06
6.20081e-06
6.20479e-06
6.20884e-06
6.21192e-06
6.21394e-06
6.21523e-06
6.21592e-06
6.21586e-06
6.21493e-06
6.21321e-06
6.21086e-06
6.20805e-06
6.20493e-06
6.20157e-06
6.19808e-06
6.19444e-06
6.19079e-06
6.03434e-06
6.03961e-06
6.04545e-06
6.05171e-06
6.05815e-06
6.06451e-06
6.07054e-06
6.07599e-06
6.08057e-06
6.08402e-06
6.08637e-06
6.08816e-06
6.09015e-06
6.09268e-06
6.0959e-06
6.10077e-06
6.10918e-06
6.12168e-06
6.13486e-06
6.14272e-06
6.14291e-06
6.14031e-06
6.14089e-06
6.14282e-06
6.1395e-06
6.13803e-06
6.14542e-06
6.15601e-06
6.16367e-06
6.16883e-06
6.1796e-06
6.18925e-06
6.19321e-06
6.19325e-06
6.19291e-06
6.19397e-06
6.19522e-06
6.1943e-06
6.19075e-06
6.18598e-06
6.18123e-06
6.17776e-06
6.17668e-06
6.17799e-06
6.18066e-06
6.18353e-06
6.18591e-06
6.18769e-06
6.18891e-06
6.1895e-06
6.18936e-06
6.18845e-06
6.18685e-06
6.18466e-06
6.18201e-06
6.17901e-06
6.17575e-06
6.17225e-06
6.16869e-06
6.01428e-06
6.01998e-06
6.02589e-06
6.03187e-06
6.03768e-06
6.04318e-06
6.0482e-06
6.05256e-06
6.05611e-06
6.05883e-06
6.06099e-06
6.06315e-06
6.06585e-06
6.06943e-06
6.07431e-06
6.08146e-06
6.09178e-06
6.10438e-06
6.11555e-06
6.12115e-06
6.12109e-06
6.12002e-06
6.12158e-06
6.12309e-06
6.12003e-06
6.11886e-06
6.1254e-06
6.13514e-06
6.1429e-06
6.14834e-06
6.15764e-06
6.16728e-06
6.17239e-06
6.17303e-06
6.17209e-06
6.17213e-06
6.1732e-06
6.17346e-06
6.17153e-06
6.16762e-06
6.16264e-06
6.15767e-06
6.15392e-06
6.15214e-06
6.15224e-06
6.15349e-06
6.15515e-06
6.15673e-06
6.15803e-06
6.15893e-06
6.1593e-06
6.15907e-06
6.15821e-06
6.15676e-06
6.15478e-06
6.15235e-06
6.14958e-06
6.14648e-06
6.14326e-06
5.9921e-06
5.99745e-06
6.00275e-06
6.00793e-06
6.01284e-06
6.01743e-06
6.02157e-06
6.02517e-06
6.02822e-06
6.03085e-06
6.03343e-06
6.03644e-06
6.04031e-06
6.04539e-06
6.05216e-06
6.06117e-06
6.0724e-06
6.08418e-06
6.09328e-06
6.09735e-06
6.09763e-06
6.09795e-06
6.10014e-06
6.10128e-06
6.0985e-06
6.0976e-06
6.10336e-06
6.11224e-06
6.11994e-06
6.12559e-06
6.13375e-06
6.14298e-06
6.14901e-06
6.15056e-06