/*--------------------------------*- C++ -*----------------------------------*\
| =========                 |                                                 |
| \\      /  F ield         | OpenFOAM: The Open Source CFD Toolbox           |
|  \\    /   O peration     | Version:  2312                                  |
|   \\  /    A nd           | Website:  www.openfoam.com                      |
|    \\/     M anipulation  |                                                 |
\*---------------------------------------------------------------------------*/
FoamFile
{
    version     2.0;
    format      ascii;
    arch        "LSB;label=32;scalar=64";
    class       volScalarField;
    location    "1400";
    object      nuTilda;
}
// * * * * * * * * * * * * * * * * * * * * * * * * * * * * * * * * * * * * * //

dimensions      [0 2 -1 0 0 0 0];

internalField   nonuniform List<scalar> 
76025
(
4.03783e-05
4.03709e-05
4.03634e-05
4.03563e-05
4.03523e-05
4.03471e-05
4.03435e-05
4.03399e-05
4.03364e-05
4.03345e-05
4.0334e-05
4.03335e-05
4.03308e-05
4.03295e-05
4.03332e-05
4.03316e-05
4.03329e-05
4.03283e-05
4.03206e-05
4.03107e-05
4.02991e-05
4.02939e-05
4.02897e-05
4.02856e-05
4.02812e-05
4.02775e-05
4.02742e-05
4.02712e-05
4.02691e-05
4.0266e-05
4.02644e-05
4.02622e-05
4.02599e-05
4.02562e-05
4.02511e-05
4.02434e-05
4.0235e-05
4.02252e-05
4.02126e-05
4.01952e-05
4.01762e-05
4.01581e-05
4.0136e-05
4.01104e-05
4.0083e-05
4.00571e-05
4.00304e-05
4.00022e-05
3.99746e-05
3.99519e-05
3.99327e-05
3.99156e-05
3.99e-05
3.98817e-05
3.98555e-05
3.9828e-05
3.97903e-05
3.9743e-05
3.96827e-05
3.96023e-05
3.95132e-05
3.94178e-05
3.93161e-05
3.92098e-05
3.91028e-05
3.901e-05
3.89213e-05
3.88248e-05
3.87153e-05
4.03437e-05
4.03378e-05
4.03315e-05
4.03248e-05
4.03179e-05
4.03109e-05
4.03038e-05
4.02971e-05
4.02903e-05
4.02841e-05
4.02792e-05
4.02756e-05
4.02724e-05
4.02704e-05
4.02703e-05
4.027e-05
4.02703e-05
4.02695e-05
4.02676e-05
4.02642e-05
4.02591e-05
4.02535e-05
4.02477e-05
4.02421e-05
4.02361e-05
4.02295e-05
4.02228e-05
4.02155e-05
4.0208e-05
4.02e-05
4.01912e-05
4.01818e-05
4.01716e-05
4.01605e-05
4.01488e-05
4.01363e-05
4.0123e-05
4.01089e-05
4.00941e-05
4.00784e-05
4.00618e-05
4.00444e-05
4.00262e-05
4.00069e-05
3.99867e-05
3.99663e-05
3.99458e-05
3.99246e-05
3.99033e-05
3.98827e-05
3.98616e-05
3.98378e-05
3.98098e-05
3.97762e-05
3.97361e-05
3.96885e-05
3.96324e-05
3.95669e-05
3.9492e-05
3.94086e-05
3.9318e-05
3.92221e-05
3.9124e-05
3.90273e-05
3.89348e-05
3.88424e-05
3.87537e-05
3.86419e-05
3.85254e-05
4.0302e-05
4.02971e-05
4.02921e-05
4.02869e-05
4.02814e-05
4.02753e-05
4.02687e-05
4.02617e-05
4.02543e-05
4.02464e-05
4.02387e-05
4.02316e-05
4.02251e-05
4.02193e-05
4.02146e-05
4.02107e-05
4.02076e-05
4.0205e-05
4.02028e-05
4.02006e-05
4.01979e-05
4.01944e-05
4.01901e-05
4.01852e-05
4.01797e-05
4.01736e-05
4.01667e-05
4.01592e-05
4.0151e-05
4.01422e-05
4.01327e-05
4.01225e-05
4.01116e-05
4.01001e-05
4.00879e-05
4.0075e-05
4.00615e-05
4.00473e-05
4.00323e-05
4.00164e-05
3.99998e-05
3.99824e-05
3.9964e-05
3.99445e-05
3.99238e-05
3.99024e-05
3.98802e-05
3.98564e-05
3.98302e-05
3.98009e-05
3.97682e-05
3.97314e-05
3.96899e-05
3.96431e-05
3.95904e-05
3.95313e-05
3.94653e-05
3.93924e-05
3.93129e-05
3.92278e-05
3.91386e-05
3.90473e-05
3.89556e-05
3.88657e-05
3.87759e-05
3.86802e-05
3.85806e-05
3.84462e-05
3.82861e-05
4.02608e-05
4.02548e-05
4.0249e-05
4.02433e-05
4.02378e-05
4.02323e-05
4.02267e-05
4.02207e-05
4.02144e-05
4.02075e-05
4.02e-05
4.01921e-05
4.01841e-05
4.01762e-05
4.01686e-05
4.01613e-05
4.01547e-05
4.01485e-05
4.01429e-05
4.01378e-05
4.0133e-05
4.01282e-05
4.01233e-05
4.01181e-05
4.01126e-05
4.01066e-05
4.01001e-05
4.0093e-05
4.00852e-05
4.00767e-05
4.00674e-05
4.00573e-05
4.00464e-05
4.00347e-05
4.00223e-05
4.00091e-05
3.9995e-05
3.99799e-05
3.99638e-05
3.99466e-05
3.99282e-05
3.99086e-05
3.98879e-05
3.98658e-05
3.9842e-05
3.98161e-05
3.97878e-05
3.97569e-05
3.9723e-05
3.9686e-05
3.96454e-05
3.96009e-05
3.9552e-05
3.94984e-05
3.94398e-05
3.93759e-05
3.93064e-05
3.92317e-05
3.91524e-05
3.90694e-05
3.89843e-05
3.88981e-05
3.88093e-05
3.87176e-05
3.86193e-05
3.85056e-05
3.83772e-05
3.82036e-05
3.79956e-05
4.02216e-05
4.02146e-05
4.02075e-05
4.02004e-05
4.01935e-05
4.01868e-05
4.01803e-05
4.0174e-05
4.01676e-05
4.01612e-05
4.01544e-05
4.01472e-05
4.01396e-05
4.01317e-05
4.01234e-05
4.01151e-05
4.01067e-05
4.00984e-05
4.00902e-05
4.00822e-05
4.00744e-05
4.00668e-05
4.00593e-05
4.00519e-05
4.00443e-05
4.00366e-05
4.00286e-05
4.00203e-05
4.00114e-05
4.0002e-05
3.99919e-05
3.9981e-05
3.99693e-05
3.99567e-05
3.99431e-05
3.99286e-05
3.99132e-05
3.98966e-05
3.98787e-05
3.98596e-05
3.98391e-05
3.9817e-05
3.97933e-05
3.97676e-05
3.97397e-05
3.97095e-05
3.96769e-05
3.96415e-05
3.96031e-05
3.95614e-05
3.95164e-05
3.94677e-05
3.94152e-05
3.93585e-05
3.92976e-05
3.9232e-05
3.91619e-05
3.90876e-05
3.90098e-05
3.89286e-05
3.88442e-05
3.87563e-05
3.86612e-05
3.85556e-05
3.84346e-05
3.82888e-05
3.81182e-05
3.7896e-05
3.76346e-05
4.01809e-05
4.01738e-05
4.01663e-05
4.01585e-05
4.01505e-05
4.01425e-05
4.01346e-05
4.01267e-05
4.01191e-05
4.01116e-05
4.01041e-05
4.00966e-05
4.00889e-05
4.0081e-05
4.00728e-05
4.00643e-05
4.00556e-05
4.00466e-05
4.00374e-05
4.00281e-05
4.00186e-05
4.0009e-05
3.99993e-05
3.99895e-05
3.99797e-05
3.99696e-05
3.99593e-05
3.99487e-05
3.99377e-05
3.99263e-05
3.99143e-05
3.99017e-05
3.98882e-05
3.98738e-05
3.98585e-05
3.98422e-05
3.98248e-05
3.98062e-05
3.97862e-05
3.97649e-05
3.97419e-05
3.97173e-05
3.96909e-05
3.96624e-05
3.96317e-05
3.95987e-05
3.9563e-05
3.95246e-05
3.94834e-05
3.94392e-05
3.93918e-05
3.93411e-05
3.92868e-05
3.92286e-05
3.91663e-05
3.90998e-05
3.90289e-05
3.89537e-05
3.88745e-05
3.87902e-05
3.86992e-05
3.85995e-05
3.84865e-05
3.83547e-05
3.81998e-05
3.8013e-05
3.77914e-05
3.75184e-05
3.72022e-05
4.01346e-05
4.0128e-05
4.01209e-05
4.01134e-05
4.01054e-05
4.0097e-05
4.00884e-05
4.00797e-05
4.00708e-05
4.0062e-05
4.00531e-05
4.00444e-05
4.00356e-05
4.00267e-05
4.00177e-05
4.00086e-05
3.99993e-05
3.99898e-05
3.998e-05
3.99699e-05
3.99596e-05
3.99489e-05
3.9938e-05
3.99268e-05
3.99152e-05
3.99034e-05
3.98912e-05
3.98786e-05
3.98656e-05
3.98521e-05
3.9838e-05
3.98233e-05
3.98078e-05
3.97914e-05
3.9774e-05
3.97555e-05
3.97358e-05
3.9715e-05
3.96928e-05
3.96691e-05
3.96438e-05
3.96167e-05
3.95878e-05
3.95569e-05
3.95237e-05
3.94883e-05
3.94503e-05
3.94097e-05
3.93664e-05
3.93203e-05
3.9271e-05
3.92183e-05
3.9162e-05
3.91016e-05
3.90369e-05
3.89677e-05
3.88934e-05
3.88133e-05
3.87269e-05
3.86321e-05
3.85258e-05
3.84051e-05
3.82654e-05
3.81003e-05
3.79053e-05
3.76725e-05
3.73996e-05
3.70725e-05
3.67058e-05
4.00792e-05
4.00736e-05
4.00674e-05
4.00606e-05
4.00533e-05
4.00455e-05
4.00372e-05
4.00285e-05
4.00194e-05
4.00101e-05
4.00005e-05
3.99907e-05
3.99808e-05
3.99708e-05
3.99607e-05
3.99504e-05
3.994e-05
3.99294e-05
3.99185e-05
3.99075e-05
3.98961e-05
3.98845e-05
3.98725e-05
3.98601e-05
3.98473e-05
3.98341e-05
3.98205e-05
3.98064e-05
3.97917e-05
3.97764e-05
3.97605e-05
3.97439e-05
3.97265e-05
3.9708e-05
3.96886e-05
3.9668e-05
3.96462e-05
3.96232e-05
3.95987e-05
3.95727e-05
3.9545e-05
3.95156e-05
3.94843e-05
3.94509e-05
3.94154e-05
3.93776e-05
3.93373e-05
3.92944e-05
3.92488e-05
3.92001e-05
3.91481e-05
3.90923e-05
3.90324e-05
3.89679e-05
3.88982e-05
3.88228e-05
3.87406e-05
3.86503e-05
3.85503e-05
3.84379e-05
3.83093e-05
3.81615e-05
3.79901e-05
3.77892e-05
3.75519e-05
3.72691e-05
3.69409e-05
3.65538e-05
3.61481e-05
4.00127e-05
4.0008e-05
4.00027e-05
3.99969e-05
3.99905e-05
3.99835e-05
3.9976e-05
3.9968e-05
3.99595e-05
3.99505e-05
3.9941e-05
3.99312e-05
3.9921e-05
3.99105e-05
3.98996e-05
3.98885e-05
3.98771e-05
3.98655e-05
3.98536e-05
3.98413e-05
3.98288e-05
3.9816e-05
3.98027e-05
3.97891e-05
3.9775e-05
3.97605e-05
3.97455e-05
3.97299e-05
3.97137e-05
3.96968e-05
3.96793e-05
3.96609e-05
3.96416e-05
3.96213e-05
3.95999e-05
3.95773e-05
3.95534e-05
3.95282e-05
3.95014e-05
3.94732e-05
3.94432e-05
3.94113e-05
3.93775e-05
3.93416e-05
3.93035e-05
3.92629e-05
3.92198e-05
3.91738e-05
3.91246e-05
3.9072e-05
3.90154e-05
3.89544e-05
3.88884e-05
3.88166e-05
3.87384e-05
3.86527e-05
3.85579e-05
3.84521e-05
3.83334e-05
3.81989e-05
3.80449e-05
3.78676e-05
3.76618e-05
3.74208e-05
3.71367e-05
3.67982e-05
3.64053e-05
3.59533e-05
3.55409e-05
3.99348e-05
3.99306e-05
3.9926e-05
3.99208e-05
3.99151e-05
3.99089e-05
3.99021e-05
3.98948e-05
3.98869e-05
3.98786e-05
3.98697e-05
3.98603e-05
3.98504e-05
3.98401e-05
3.98292e-05
3.9818e-05
3.98063e-05
3.97941e-05
3.97816e-05
3.97686e-05
3.97552e-05
3.97413e-05
3.9727e-05
3.97122e-05
3.96969e-05
3.9681e-05
3.96646e-05
3.96475e-05
3.96298e-05
3.96114e-05
3.95921e-05
3.9572e-05
3.95508e-05
3.95285e-05
3.95051e-05
3.94804e-05
3.94543e-05
3.94267e-05
3.93976e-05
3.93668e-05
3.93342e-05
3.92996e-05
3.92628e-05
3.92238e-05
3.91822e-05
3.91379e-05
3.90906e-05
3.90399e-05
3.89854e-05
3.89268e-05
3.88634e-05
3.87946e-05
3.87197e-05
3.86377e-05
3.85476e-05
3.84481e-05
3.83374e-05
3.82134e-05
3.80734e-05
3.79144e-05
3.77327e-05
3.75229e-05
3.72779e-05
3.69888e-05
3.66458e-05
3.62383e-05
3.57718e-05
3.52663e-05
3.49411e-05
3.98475e-05
3.9843e-05
3.98382e-05
3.98331e-05
3.98275e-05
3.98215e-05
3.9815e-05
3.9808e-05
3.98005e-05
3.97925e-05
3.97839e-05
3.97749e-05
3.97653e-05
3.97552e-05
3.97446e-05
3.97334e-05
3.97217e-05
3.97095e-05
3.96967e-05
3.96834e-05
3.96695e-05
3.96551e-05
3.964e-05
3.96244e-05
3.96081e-05
3.95911e-05
3.95734e-05
3.9555e-05
3.95358e-05
3.95158e-05
3.94948e-05
3.94728e-05
3.94496e-05
3.94252e-05
3.93995e-05
3.93724e-05
3.93438e-05
3.93136e-05
3.92816e-05
3.92477e-05
3.92117e-05
3.91736e-05
3.91329e-05
3.90897e-05
3.90435e-05
3.8994e-05
3.8941e-05
3.88839e-05
3.88224e-05
3.87559e-05
3.86838e-05
3.86052e-05
3.85193e-05
3.8425e-05
3.8321e-05
3.82056e-05
3.80769e-05
3.79324e-05
3.77687e-05
3.75819e-05
3.73667e-05
3.71161e-05
3.68207e-05
3.64693e-05
3.60515e-05
3.55623e-05
3.50279e-05
3.45242e-05
3.45016e-05
3.9754e-05
3.97482e-05
3.97422e-05
3.97361e-05
3.97298e-05
3.97232e-05
3.97162e-05
3.97088e-05
3.97011e-05
3.96928e-05
3.96841e-05
3.96749e-05
3.96652e-05
3.96549e-05
3.96442e-05
3.96328e-05
3.96209e-05
3.96084e-05
3.95953e-05
3.95816e-05
3.95672e-05
3.95522e-05
3.95365e-05
3.952e-05
3.95028e-05
3.94848e-05
3.9466e-05
3.94462e-05
3.94256e-05
3.94039e-05
3.93811e-05
3.93571e-05
3.93317e-05
3.9305e-05
3.92767e-05
3.92468e-05
3.92153e-05
3.91818e-05
3.91464e-05
3.91087e-05
3.90687e-05
3.90261e-05
3.89807e-05
3.89322e-05
3.88802e-05
3.88245e-05
3.87646e-05
3.87e-05
3.86303e-05
3.85546e-05
3.84724e-05
3.83826e-05
3.82841e-05
3.81757e-05
3.80558e-05
3.79221e-05
3.77722e-05
3.76026e-05
3.74092e-05
3.71865e-05
3.69271e-05
3.66213e-05
3.62575e-05
3.58248e-05
3.53181e-05
3.47498e-05
3.41988e-05
3.38567e-05
3.45918e-05
3.96559e-05
3.9648e-05
3.96402e-05
3.96324e-05
3.96245e-05
3.96164e-05
3.96082e-05
3.95997e-05
3.95909e-05
3.95817e-05
3.95721e-05
3.95621e-05
3.95516e-05
3.95406e-05
3.95291e-05
3.9517e-05
3.95044e-05
3.94911e-05
3.94772e-05
3.94626e-05
3.94474e-05
3.94314e-05
3.94146e-05
3.9397e-05
3.93786e-05
3.93593e-05
3.9339e-05
3.93176e-05
3.92952e-05
3.92717e-05
3.92467e-05
3.92204e-05
3.91926e-05
3.91632e-05
3.9132e-05
3.9099e-05
3.90641e-05
3.9027e-05
3.89875e-05
3.89456e-05
3.89009e-05
3.88532e-05
3.88023e-05
3.87478e-05
3.86893e-05
3.86265e-05
3.85588e-05
3.84857e-05
3.84065e-05
3.83203e-05
3.82262e-05
3.81232e-05
3.80097e-05
3.7884e-05
3.77439e-05
3.75868e-05
3.7409e-05
3.7206e-05
3.6972e-05
3.66994e-05
3.63787e-05
3.59984e-05
3.55464e-05
3.50174e-05
3.44232e-05
3.38224e-05
3.34124e-05
3.36178e-05
3.59483e-05
3.9551e-05
3.95412e-05
3.95314e-05
3.95215e-05
3.95117e-05
3.95018e-05
3.94917e-05
3.94815e-05
3.94711e-05
3.94603e-05
3.94493e-05
3.94379e-05
3.9426e-05
3.94137e-05
3.94009e-05
3.93875e-05
3.93736e-05
3.9359e-05
3.93437e-05
3.93278e-05
3.93111e-05
3.92936e-05
3.92753e-05
3.92561e-05
3.92359e-05
3.92148e-05
3.91925e-05
3.91692e-05
3.91445e-05
3.91186e-05
3.90911e-05
3.90621e-05
3.90314e-05
3.89988e-05
3.89643e-05
3.89278e-05
3.88889e-05
3.88476e-05
3.88036e-05
3.87567e-05
3.87067e-05
3.86533e-05
3.8596e-05
3.85346e-05
3.84685e-05
3.83973e-05
3.83203e-05
3.82368e-05
3.81459e-05
3.80465e-05
3.79374e-05
3.78171e-05
3.76837e-05
3.75348e-05
3.73676e-05
3.71781e-05
3.69617e-05
3.67121e-05
3.64215e-05
3.60803e-05
3.56769e-05
3.52007e-05
3.46457e-05
3.40268e-05
3.33968e-05
3.29156e-05
3.30283e-05
3.45983e-05
3.99245e-05
3.94331e-05
3.94218e-05
3.94104e-05
3.93989e-05
3.93873e-05
3.93756e-05
3.93637e-05
3.93517e-05
3.93394e-05
3.93268e-05
3.9314e-05
3.93008e-05
3.92871e-05
3.92731e-05
3.92585e-05
3.92435e-05
3.92278e-05
3.92114e-05
3.91944e-05
3.91766e-05
3.91581e-05
3.91386e-05
3.91183e-05
3.9097e-05
3.90746e-05
3.90511e-05
3.90265e-05
3.90005e-05
3.89731e-05
3.89442e-05
3.89137e-05
3.88813e-05
3.88471e-05
3.88108e-05
3.87722e-05
3.87313e-05
3.86878e-05
3.86414e-05
3.85919e-05
3.85391e-05
3.84826e-05
3.84219e-05
3.83568e-05
3.82867e-05
3.82109e-05
3.81288e-05
3.80397e-05
3.79424e-05
3.78359e-05
3.77187e-05
3.75892e-05
3.74453e-05
3.72845e-05
3.71036e-05
3.68985e-05
3.66641e-05
3.63938e-05
3.60792e-05
3.57106e-05
3.52773e-05
3.47696e-05
3.41864e-05
3.35394e-05
3.28973e-05
3.23984e-05
3.24155e-05
3.38712e-05
3.82854e-05
4.86289e-05
3.9294e-05
3.92817e-05
3.92692e-05
3.92564e-05
3.92435e-05
3.92303e-05
3.92168e-05
3.92031e-05
3.91891e-05
3.91748e-05
3.91601e-05
3.9145e-05
3.91295e-05
3.91135e-05
3.9097e-05
3.90799e-05
3.90622e-05
3.90438e-05
3.90246e-05
3.90046e-05
3.89838e-05
3.8962e-05
3.89392e-05
3.89153e-05
3.88902e-05
3.88639e-05
3.88362e-05
3.8807e-05
3.87762e-05
3.87437e-05
3.87093e-05
3.86728e-05
3.86341e-05
3.85931e-05
3.85494e-05
3.8503e-05
3.84534e-05
3.84005e-05
3.8344e-05
3.82833e-05
3.82182e-05
3.81481e-05
3.80725e-05
3.79906e-05
3.79018e-05
3.7805e-05
3.76993e-05
3.75832e-05
3.74554e-05
3.73139e-05
3.71563e-05
3.698e-05
3.67813e-05
3.65559e-05
3.6298e-05
3.60005e-05
3.56547e-05
3.52504e-05
3.47784e-05
3.42326e-05
3.36139e-05
3.29525e-05
3.22946e-05
3.18009e-05
3.18372e-05
3.32296e-05
3.75713e-05
4.72283e-05
6.52588e-05
3.91249e-05
3.91118e-05
3.90983e-05
3.90845e-05
3.90704e-05
3.9056e-05
3.90411e-05
3.90259e-05
3.90104e-05
3.89943e-05
3.89779e-05
3.8961e-05
3.89435e-05
3.89255e-05
3.89068e-05
3.88875e-05
3.88675e-05
3.88467e-05
3.8825e-05
3.88025e-05
3.87789e-05
3.87543e-05
3.87285e-05
3.87015e-05
3.86731e-05
3.86432e-05
3.86117e-05
3.85785e-05
3.85435e-05
3.85063e-05
3.84669e-05
3.84251e-05
3.83807e-05
3.83335e-05
3.82831e-05
3.82294e-05
3.81719e-05
3.81104e-05
3.80443e-05
3.79732e-05
3.78965e-05
3.78136e-05
3.77237e-05
3.76259e-05
3.75193e-05
3.74025e-05
3.72742e-05
3.71326e-05
3.69756e-05
3.68006e-05
3.66044e-05
3.63829e-05
3.61311e-05
3.58425e-05
3.55096e-05
3.51229e-05
3.46737e-05
3.41532e-05
3.35624e-05
3.29127e-05
3.22294e-05
3.15797e-05
3.11336e-05
3.12767e-05
3.28215e-05
3.7276e-05
4.7067e-05
6.49417e-05
9.15376e-05
3.89172e-05
3.89029e-05
3.88883e-05
3.88732e-05
3.88578e-05
3.88419e-05
3.88255e-05
3.88087e-05
3.87914e-05
3.87736e-05
3.87552e-05
3.87362e-05
3.87166e-05
3.86963e-05
3.86753e-05
3.86534e-05
3.86307e-05
3.86071e-05
3.85825e-05
3.85568e-05
3.85299e-05
3.85018e-05
3.84723e-05
3.84413e-05
3.84087e-05
3.83743e-05
3.8338e-05
3.82997e-05
3.82591e-05
3.8216e-05
3.81702e-05
3.81214e-05
3.80695e-05
3.80142e-05
3.7955e-05
3.78915e-05
3.78235e-05
3.77503e-05
3.76714e-05
3.75862e-05
3.74939e-05
3.73937e-05
3.72845e-05
3.71651e-05
3.70343e-05
3.68903e-05
3.67311e-05
3.65542e-05
3.63567e-05
3.61347e-05
3.58832e-05
3.55966e-05
3.52673e-05
3.48879e-05
3.44496e-05
3.39442e-05
3.33707e-05
3.27306e-05
3.20547e-05
3.13624e-05
3.07524e-05
3.04273e-05
3.08055e-05
3.27646e-05
3.77536e-05
4.8061e-05
6.64742e-05
9.38326e-05
0.000123816
3.86596e-05
3.86437e-05
3.86273e-05
3.86105e-05
3.85932e-05
3.85754e-05
3.85571e-05
3.85382e-05
3.85187e-05
3.84985e-05
3.84777e-05
3.84562e-05
3.84339e-05
3.84107e-05
3.83867e-05
3.83617e-05
3.83357e-05
3.83085e-05
3.82801e-05
3.82505e-05
3.82194e-05
3.81868e-05
3.81525e-05
3.81165e-05
3.80784e-05
3.80382e-05
3.79957e-05
3.79506e-05
3.79027e-05
3.78518e-05
3.77975e-05
3.77396e-05
3.76778e-05
3.76115e-05
3.75404e-05
3.7464e-05
3.73817e-05
3.72929e-05
3.71967e-05
3.70924e-05
3.69789e-05
3.6855e-05
3.67194e-05
3.65704e-05
3.64061e-05
3.6224e-05
3.60212e-05
3.57938e-05
3.55371e-05
3.52453e-05
3.49115e-05
3.45286e-05
3.40888e-05
3.3588e-05
3.30222e-05
3.23916e-05
3.17234e-05
3.10242e-05
3.0359e-05
2.98452e-05
2.9761e-05
3.06114e-05
3.33279e-05
3.93726e-05
5.09117e-05
7.03818e-05
9.84359e-05
0.00012899
0.000146372
3.83338e-05
3.83157e-05
3.82971e-05
3.8278e-05
3.82582e-05
3.82379e-05
3.82168e-05
3.81952e-05
3.81727e-05
3.81495e-05
3.81255e-05
3.81006e-05
3.80747e-05
3.80478e-05
3.80198e-05
3.79907e-05
3.79602e-05
3.79285e-05
3.78952e-05
3.78603e-05
3.78236e-05
3.77851e-05
3.77445e-05
3.77017e-05
3.76564e-05
3.76084e-05
3.75575e-05
3.75034e-05
3.74458e-05
3.73844e-05
3.73188e-05
3.72486e-05
3.71733e-05
3.70924e-05
3.70053e-05
3.69112e-05
3.68094e-05
3.6699e-05
3.6579e-05
3.64482e-05
3.63051e-05
3.61481e-05
3.59752e-05
3.57838e-05
3.55709e-05
3.53326e-05
3.5064e-05
3.47593e-05
3.44123e-05
3.40157e-05
3.35634e-05
3.30537e-05
3.24835e-05
3.18661e-05
3.12031e-05
3.0508e-05
2.98309e-05
2.92602e-05
2.89872e-05
2.93342e-05
3.09897e-05
3.49266e-05
4.26896e-05
5.63147e-05
7.77135e-05
0.000106479
0.000135982
0.000151608
0.000142289
3.79085e-05
3.78878e-05
3.78664e-05
3.78442e-05
3.78214e-05
3.77978e-05
3.77733e-05
3.7748e-05
3.77218e-05
3.76946e-05
3.76664e-05
3.7637e-05
3.76065e-05
3.75747e-05
3.75415e-05
3.75068e-05
3.74706e-05
3.74326e-05
3.73928e-05
3.73509e-05
3.73068e-05
3.72603e-05
3.72112e-05
3.71593e-05
3.71042e-05
3.70457e-05
3.69834e-05
3.6917e-05
3.68461e-05
3.67702e-05
3.66889e-05
3.66014e-05
3.65073e-05
3.64058e-05
3.6296e-05
3.6177e-05
3.60477e-05
3.59067e-05
3.57527e-05
3.55837e-05
3.53976e-05
3.51918e-05
3.49628e-05
3.47064e-05
3.44177e-05
3.40911e-05
3.37204e-05
3.32995e-05
3.28262e-05
3.22979e-05
3.17151e-05
3.11015e-05
3.04443e-05
2.97684e-05
2.91122e-05
2.85517e-05
2.82482e-05
2.84319e-05
2.96114e-05
3.24818e-05
3.82036e-05
4.84209e-05
6.50266e-05
8.90559e-05
0.00011848
0.000145108
0.000155583
0.000145277
0.000129058
3.73311e-05
3.73069e-05
3.72818e-05
3.72558e-05
3.72289e-05
3.7201e-05
3.71721e-05
3.7142e-05
3.71108e-05
3.70783e-05
3.70445e-05
3.70092e-05
3.69724e-05
3.69339e-05
3.68937e-05
3.68516e-05
3.68074e-05
3.67609e-05
3.6712e-05
3.66605e-05
3.66061e-05
3.65486e-05
3.64876e-05
3.64229e-05
3.6354e-05
3.62807e-05
3.62024e-05
3.61188e-05
3.60293e-05
3.59331e-05
3.58297e-05
3.5718e-05
3.55973e-05
3.54665e-05
3.53242e-05
3.51691e-05
3.49994e-05
3.48131e-05
3.46078e-05
3.43804e-05
3.41271e-05
3.38435e-05
3.35247e-05
3.31647e-05
3.27585e-05
3.23048e-05
3.18018e-05
3.12493e-05
3.06691e-05
3.00538e-05
2.94156e-05
2.87758e-05
2.81746e-05
2.77003e-05
2.74802e-05
2.76942e-05
2.8764e-05
3.11583e-05
3.57202e-05
4.37706e-05
5.71004e-05
7.728e-05
0.000104007
0.000132827
0.00015462
0.000158359
0.000148749
0.000133061
0.000119466
3.6512e-05
3.64828e-05
3.64527e-05
3.64214e-05
3.63889e-05
3.63551e-05
3.632e-05
3.62834e-05
3.62453e-05
3.62056e-05
3.61641e-05
3.61207e-05
3.60754e-05
3.60278e-05
3.59779e-05
3.59255e-05
3.58704e-05
3.58123e-05
3.5751e-05
3.56861e-05
3.56174e-05
3.55446e-05
3.54671e-05
3.53845e-05
3.52964e-05
3.52023e-05
3.51014e-05
3.4993e-05
3.48764e-05
3.47506e-05
3.46145e-05
3.44669e-05
3.43063e-05
3.41311e-05
3.39393e-05
3.37284e-05
3.34954e-05
3.3237e-05
3.2949e-05
3.2627e-05
3.22659e-05
3.18613e-05
3.14134e-05
3.09212e-05
3.03866e-05
2.98354e-05
2.9261e-05
2.86695e-05
2.80798e-05
2.75215e-05
2.70546e-05
2.67574e-05
2.6718e-05
2.7189e-05
2.83835e-05
3.06618e-05
3.45909e-05
4.11414e-05
5.18119e-05
6.84012e-05
9.17908e-05
0.000119627
0.000145146
0.000159493
0.000160326
0.000152997
0.000138929
0.000124779
0.000114098
3.5289e-05
3.52526e-05
3.52148e-05
3.51755e-05
3.51346e-05
3.50921e-05
3.50479e-05
3.50017e-05
3.49535e-05
3.49032e-05
3.48506e-05
3.47954e-05
3.47376e-05
3.46769e-05
3.4613e-05
3.45458e-05
3.44749e-05
3.43999e-05
3.43206e-05
3.42365e-05
3.41472e-05
3.40521e-05
3.39507e-05
3.38425e-05
3.37267e-05
3.36027e-05
3.34693e-05
3.33255e-05
3.31699e-05
3.30011e-05
3.28171e-05
3.26159e-05
3.23949e-05
3.21512e-05
3.18816e-05
3.15823e-05
3.12494e-05
3.08789e-05
3.04684e-05
3.00192e-05
2.95323e-05
2.9012e-05
2.84998e-05
2.79752e-05
2.74538e-05
2.6943e-05
2.64814e-05
2.61167e-05
2.59018e-05
2.58794e-05
2.624e-05
2.70732e-05
2.85566e-05
3.09199e-05
3.45442e-05
4.00295e-05
4.8386e-05
6.11982e-05
7.99721e-05
0.000104189
0.000129322
0.000148214
0.000157117
0.000159153
0.000154085
0.000142959
0.000130896
0.000121714
0.000114047
3.33617e-05
3.33147e-05
3.3266e-05
3.32154e-05
3.31627e-05
3.31079e-05
3.30507e-05
3.29911e-05
3.29289e-05
3.28638e-05
3.27957e-05
3.27243e-05
3.26494e-05
3.25707e-05
3.24879e-05
3.24006e-05
3.23084e-05
3.2211e-05
3.21077e-05
3.19981e-05
3.18815e-05
3.17572e-05
3.16244e-05
3.14821e-05
3.13287e-05
3.11629e-05
3.09831e-05
3.07873e-05
3.05735e-05
3.03395e-05
3.00827e-05
2.98005e-05
2.94904e-05
2.91498e-05
2.87771e-05
2.83714e-05
2.79345e-05
2.74702e-05
2.69946e-05
2.65494e-05
2.61133e-05
2.57042e-05
2.5352e-05
2.50837e-05
2.49239e-05
2.48732e-05
2.5077e-05
2.55672e-05
2.63897e-05
2.76086e-05
2.93521e-05
3.1794e-05
3.51556e-05
3.97847e-05
4.62474e-05
5.53393e-05
6.8201e-05
8.57613e-05
0.00010618
0.000124026
0.000137387
0.000146506
0.000150747
0.000148865
0.000141424
0.000131543
0.000127165
0.000122393
0.000117297
3.01693e-05
3.01089e-05
3.00464e-05
2.99817e-05
2.99146e-05
2.98448e-05
2.97721e-05
2.96965e-05
2.96177e-05
2.95355e-05
2.94496e-05
2.93597e-05
2.92655e-05
2.91667e-05
2.90629e-05
2.89536e-05
2.88385e-05
2.87169e-05
2.85882e-05
2.84519e-05
2.83071e-05
2.81522e-05
2.79846e-05
2.7803e-05
2.76062e-05
2.73931e-05
2.71626e-05
2.6914e-05
2.66466e-05
2.63604e-05
2.60558e-05
2.57346e-05
2.53998e-05
2.5056e-05
2.47108e-05
2.43839e-05
2.40999e-05
2.38568e-05
2.36746e-05
2.35768e-05
2.35805e-05
2.37152e-05
2.40786e-05
2.46174e-05
2.53373e-05
2.62504e-05
2.73775e-05
2.87553e-05
3.04393e-05
3.25594e-05
3.53447e-05
3.90756e-05
4.38909e-05
4.97171e-05
5.68544e-05
6.56357e-05
7.58391e-05
8.7781e-05
0.000101505
0.000114385
0.000124738
0.00013141
0.00013328
0.000129774
0.000124388
0.000125046
0.000124738
0.000122682
0.000118824
2.49062e-05
2.48448e-05
2.47816e-05
2.47165e-05
2.46494e-05
2.45802e-05
2.45086e-05
2.44346e-05
2.43579e-05
2.42784e-05
2.41959e-05
2.41101e-05
2.40207e-05
2.39276e-05
2.38304e-05
2.37288e-05
2.36226e-05
2.35115e-05
2.33953e-05
2.32738e-05
2.31469e-05
2.30159e-05
2.28828e-05
2.27491e-05
2.26166e-05
2.24873e-05
2.23638e-05
2.22493e-05
2.21478e-05
2.20638e-05
2.2004e-05
2.1975e-05
2.19838e-05
2.2038e-05
2.2163e-05
2.245e-05
2.28276e-05
2.3286e-05
2.38185e-05
2.44194e-05
2.50823e-05
2.57992e-05
2.65614e-05
2.73552e-05
2.81798e-05
2.90596e-05
3.00845e-05
3.143e-05
3.32119e-05
3.53531e-05
3.79678e-05
4.15111e-05
4.44144e-05
4.46752e-05
4.43959e-05
4.59222e-05
5.25993e-05
6.32025e-05
7.69538e-05
8.75562e-05
9.39832e-05
9.66899e-05
9.92775e-05
0.000100722
0.000103574
0.000111936
0.000114466
0.000113322
0.000108878
1.888e-05
1.89706e-05
1.90612e-05
1.91508e-05
1.92394e-05
1.93268e-05
1.94129e-05
1.94979e-05
1.95818e-05
1.96645e-05
1.97462e-05
1.9827e-05
1.9907e-05
1.99863e-05
2.00652e-05
2.01445e-05
2.02317e-05
2.03285e-05
2.04371e-05
2.05588e-05
2.06949e-05
2.08461e-05
2.10133e-05
2.11973e-05
2.13989e-05
2.16187e-05
2.18571e-05
2.21141e-05
2.23893e-05
2.26816e-05
2.29889e-05
2.33077e-05
2.3633e-05
2.39578e-05
2.42731e-05
2.45679e-05
2.48278e-05
2.5037e-05
2.51793e-05
2.52419e-05
2.52216e-05
2.51289e-05
2.49562e-05
2.4687e-05
2.44317e-05
2.4342e-05
2.4751e-05
2.60416e-05
2.69713e-05
2.55589e-05
2.32342e-05
2.13863e-05
2.19423e-05
2.1873e-05
2.2014e-05
2.40655e-05
2.8173e-05
3.38076e-05
4.0414e-05
4.69207e-05
5.24699e-05
5.66361e-05
6.01685e-05
6.30541e-05
6.60112e-05
6.957e-05
7.02572e-05
6.82369e-05
6.36658e-05
1.82956e-05
1.84335e-05
1.85707e-05
1.87071e-05
1.88421e-05
1.89755e-05
1.91067e-05
1.92354e-05
1.93612e-05
1.94837e-05
1.96025e-05
1.97171e-05
1.9827e-05
1.99318e-05
2.00307e-05
2.01222e-05
2.01975e-05
2.02555e-05
2.02948e-05
2.03151e-05
2.0316e-05
2.02964e-05
2.02553e-05
2.0191e-05
2.01011e-05
1.99827e-05
1.98324e-05
1.96459e-05
1.9418e-05
1.9143e-05
1.88141e-05
1.84235e-05
1.79628e-05
1.74227e-05
1.67933e-05
1.60648e-05
1.52274e-05
1.42736e-05
1.32006e-05
1.20185e-05
1.07599e-05
9.44494e-06
8.10986e-06
7.11135e-06
6.4402e-06
5.82693e-06
5.78423e-06
6.71893e-06
7.40397e-06
6.84212e-06
5.978e-06
5.44843e-06
5.25299e-06
5.08291e-06
5.00899e-06
5.4553e-06
6.34144e-06
7.54627e-06
9.05665e-06
1.08128e-05
1.29833e-05
1.48268e-05
1.62615e-05
1.72748e-05
1.80712e-05
1.87199e-05
1.87067e-05
1.78943e-05
1.61432e-05
4.01431e-05
4.01514e-05
4.01515e-05
4.01562e-05
4.01578e-05
4.01582e-05
4.01592e-05
4.01686e-05
4.01788e-05
4.01865e-05
4.01963e-05
4.02094e-05
4.02128e-05
4.0217e-05
4.02248e-05
4.02347e-05
4.02288e-05
4.02287e-05
4.02382e-05
4.02727e-05
4.03018e-05
4.02949e-05
4.02721e-05
4.02792e-05
4.02715e-05
4.02654e-05
4.02882e-05
4.0314e-05
4.03217e-05
4.03297e-05
4.03726e-05
4.03687e-05
4.03785e-05
4.03758e-05
4.03788e-05
4.03761e-05
4.03634e-05
4.03515e-05
4.03754e-05
4.03798e-05
4.03915e-05
4.04062e-05
4.04131e-05
4.04181e-05
4.04106e-05
4.0414e-05
4.04167e-05
4.04201e-05
4.04176e-05
4.04147e-05
4.04107e-05
4.04092e-05
4.04096e-05
4.0411e-05
4.04101e-05
4.04067e-05
4.04005e-05
4.03921e-05
4.0385e-05
4.01115e-05
4.0115e-05
4.01167e-05
4.01195e-05
4.01213e-05
4.01237e-05
4.01291e-05
4.01391e-05
4.01493e-05
4.01601e-05
4.01721e-05
4.01818e-05
4.0186e-05
4.01907e-05
4.01975e-05
4.02015e-05
4.01984e-05
4.02018e-05
4.02201e-05
4.02545e-05
4.02752e-05
4.02648e-05
4.02484e-05
4.02555e-05
4.02479e-05
4.02425e-05
4.02633e-05
4.02882e-05
4.02981e-05
4.03055e-05
4.03435e-05
4.0347e-05
4.03523e-05
4.0355e-05
4.036e-05
4.03575e-05
4.03472e-05
4.03324e-05
4.03383e-05
4.0345e-05
4.03538e-05
4.03673e-05
4.03776e-05
4.03845e-05
4.03848e-05
4.03842e-05
4.03854e-05
4.03868e-05
4.03858e-05
4.03826e-05
4.03784e-05
4.03741e-05
4.03705e-05
4.03674e-05
4.03648e-05
4.03619e-05
4.03584e-05
4.03536e-05
4.03484e-05
4.00681e-05
4.0071e-05
4.00738e-05
4.00775e-05
4.00825e-05
4.00895e-05
4.00991e-05
4.01104e-05
4.01222e-05
4.01343e-05
4.01453e-05
4.01523e-05
4.01561e-05
4.01605e-05
4.01654e-05
4.01672e-05
4.01675e-05
4.0177e-05
4.02016e-05
4.02326e-05
4.02451e-05
4.0234e-05
4.02237e-05
4.02301e-05
4.02228e-05
4.02181e-05
4.02369e-05
4.02607e-05
4.02723e-05
4.02799e-05
4.03123e-05
4.03221e-05
4.03253e-05
4.03271e-05
4.03323e-05
4.03335e-05
4.03271e-05
4.0314e-05
4.0309e-05
4.03103e-05
4.0315e-05
4.03254e-05
4.03369e-05
4.03457e-05
4.03504e-05
4.03516e-05
4.03524e-05
4.03532e-05
4.03527e-05
4.03501e-05
4.03462e-05
4.03414e-05
4.03363e-05
4.03311e-05
4.03261e-05
4.03212e-05
4.03164e-05
4.03114e-05
4.03062e-05
4.00211e-05
4.00257e-05
4.00313e-05
4.00386e-05
4.00475e-05
4.00581e-05
4.007e-05
4.00823e-05
4.00945e-05
4.01055e-05
4.01139e-05
4.01188e-05
4.01221e-05
4.0126e-05
4.01297e-05
4.01321e-05
4.01372e-05
4.0153e-05
4.01803e-05
4.0206e-05
4.02123e-05
4.02024e-05
4.01971e-05
4.02025e-05
4.01956e-05
4.01916e-05
4.02086e-05
4.0231e-05
4.02438e-05
4.0252e-05
4.02794e-05
4.02935e-05
4.0297e-05
4.02975e-05
4.03008e-05
4.0304e-05
4.0302e-05
4.02926e-05
4.02834e-05
4.02786e-05
4.02778e-05
4.02827e-05
4.0292e-05
4.03015e-05
4.03086e-05
4.03125e-05
4.03146e-05
4.03158e-05
4.03161e-05
4.03146e-05
4.03115e-05
4.03072e-05
4.03021e-05
4.02964e-05
4.02905e-05
4.02845e-05
4.02784e-05
4.02722e-05
4.0266e-05
3.99771e-05
3.99846e-05
3.99935e-05
4.00039e-05
4.00153e-05
4.00275e-05
4.00399e-05
4.00518e-05
4.00625e-05
4.00712e-05
4.00771e-05
4.00807e-05
4.00839e-05
4.00877e-05
4.00917e-05
4.00968e-05
4.01074e-05
4.0128e-05
4.01549e-05
4.01747e-05
4.01771e-05
4.01695e-05
4.01679e-05
4.01724e-05
4.01658e-05
4.01625e-05
4.01778e-05
4.01988e-05
4.02124e-05
4.02213e-05
4.02444e-05
4.02611e-05
4.02662e-05
4.02661e-05
4.02672e-05
4.02705e-05
4.02714e-05
4.02662e-05
4.02573e-05
4.0249e-05
4.02432e-05
4.02419e-05
4.0246e-05
4.02533e-05
4.02607e-05
4.02664e-05
4.02701e-05
4.02724e-05
4.02737e-05
4.02736e-05
4.02719e-05
4.02687e-05
4.02644e-05
4.02593e-05
4.02535e-05
4.02474e-05
4.0241e-05
4.02343e-05
4.02276e-05
3.9938e-05
3.99478e-05
3.99587e-05
3.99704e-05
3.99824e-05
3.99942e-05
4.00054e-05
4.00155e-05
4.00241e-05
4.00305e-05
4.00348e-05
4.00381e-05
4.00418e-05
4.00465e-05
4.00525e-05
4.00615e-05
4.00771e-05
4.01002e-05
4.01246e-05
4.01391e-05
4.01395e-05
4.01347e-05
4.01357e-05
4.01393e-05
4.01332e-05
4.01305e-05
4.01441e-05
4.01636e-05
4.01777e-05
4.01872e-05
4.0207e-05
4.02248e-05
4.02321e-05
4.02321e-05
4.02315e-05
4.02334e-05
4.02357e-05
4.0234e-05
4.02275e-05
4.02188e-05
4.021e-05
4.02037e-05
4.02017e-05
4.02041e-05
4.0209e-05
4.02143e-05
4.02186e-05
4.02219e-05
4.02241e-05
4.02252e-05
4.0225e-05
4.02233e-05
4.02204e-05
4.02163e-05
4.02115e-05
4.02059e-05
4.01999e-05
4.01935e-05
4.0187e-05
3.99005e-05
3.99112e-05
3.99222e-05
3.99334e-05
3.99442e-05
3.99545e-05
3.99638e-05
3.9972e-05
3.99786e-05
3.99836e-05
3.99876e-05
3.99917e-05
3.99967e-05
4.00033e-05
4.00124e-05
4.00257e-05
4.00448e-05
4.00682e-05
4.00889e-05
4.00993e-05
4.00992e-05
4.00972e-05
4.01001e-05
4.01028e-05
4.00972e-05
4.0095e-05
4.01071e-05
4.01251e-05
4.01394e-05
4.01495e-05
4.01666e-05
4.01844e-05
4.01938e-05
4.01949e-05
4.01932e-05
4.01933e-05
4.01953e-05
4.01957e-05
4.01922e-05
4.0185e-05
4.01758e-05
4.01667e-05
4.01598e-05
4.01565e-05
4.01567e-05
4.0159e-05
4.0162e-05
4.01649e-05
4.01673e-05
4.0169e-05
4.01697e-05
4.01693e-05
4.01677e-05
4.0165e-05
4.01613e-05
4.01569e-05
4.01518e-05
4.0146e-05
4.01401e-05
3.9859e-05
3.9869e-05
3.98789e-05
3.98886e-05
3.98978e-05
3.99064e-05
3.99141e-05
3.99209e-05
3.99266e-05
3.99315e-05
3.99363e-05
3.99419e-05
3.99491e-05
3.99586e-05
3.99712e-05
3.9988e-05
4.00089e-05
4.00308e-05
4.00476e-05
4.00552e-05
4.00557e-05
4.00563e-05
4.00604e-05
4.00625e-05
4.00573e-05
4.00556e-05
4.00663e-05
4.00828e-05
4.0097e-05
4.01075e-05
4.01225e-05
4.01396e-05
4.01507e-05