/*--------------------------------*- C++ -*----------------------------------*\
| =========                 |                                                 |
| \\      /  F ield         | OpenFOAM: The Open Source CFD Toolbox           |
|  \\    /   O peration     | Version:  2312                                  |
|   \\  /    A nd           | Website:  www.openfoam.com                      |
|    \\/     M anipulation  |                                                 |
\*---------------------------------------------------------------------------*/
FoamFile
{
    version     2.0;
    format      ascii;
    arch        "LSB;label=32;scalar=64";
    class       volScalarField;
    location    "1400";
    object      p;
}
// * * * * * * * * * * * * * * * * * * * * * * * * * * * * * * * * * * * * * //

dimensions      [0 2 -2 0 0 0 0];

internalField   nonuniform List<scalar> 
76025
(
-0.000136412
-0.000146136
-0.000156222
-0.000166418
-0.000176497
-0.000186736
-0.000197328
-0.000207463
-0.000217919
-0.000228187
-0.000238502
-0.0002489
-0.000259437
-0.000269982
-0.000280729
-0.000291345
-0.000301785
-0.000312295
-0.000322896
-0.00033326
-0.000343514
-0.000353966
-0.000364299
-0.000374457
-0.000384593
-0.000394545
-0.000404847
-0.000415221
-0.000424861
-0.000435003
-0.000444454
-0.000453956
-0.00046408
-0.000474232
-0.000484027
-0.000493473
-0.000502515
-0.000512181
-0.000521854
-0.000531382
-0.000540408
-0.000549198
-0.000558755
-0.000568451
-0.000577565
-0.000586386
-0.000595459
-0.00060511
-0.000613984
-0.00062304
-0.000632328
-0.000641432
-0.000651113
-0.000661471
-0.000671828
-0.000681449
-0.000692176
-0.00070296
-0.000714246
-0.000725985
-0.000737995
-0.000751199
-0.000765955
-0.000781405
-0.000797699
-0.000815291
-0.000834301
-0.000856829
-0.000882371
-0.00014234
-0.000152675
-0.000163156
-0.000173758
-0.000184413
-0.000195125
-0.000205801
-0.000216503
-0.000227281
-0.000238093
-0.000248965
-0.000259875
-0.000270831
-0.000281795
-0.000292692
-0.000303494
-0.000314365
-0.00032513
-0.000335963
-0.000346628
-0.000357331
-0.000367932
-0.000378475
-0.000388937
-0.000399402
-0.000409887
-0.000420346
-0.000430562
-0.000440617
-0.000450592
-0.000460467
-0.000470583
-0.000480678
-0.000490558
-0.000500366
-0.000509994
-0.000519602
-0.000529176
-0.000538727
-0.000548277
-0.00055761
-0.000566921
-0.00057625
-0.000585496
-0.000594643
-0.000603745
-0.000612958
-0.00062226
-0.000631482
-0.000640822
-0.000650323
-0.000659883
-0.000669706
-0.000679815
-0.000690015
-0.000700361
-0.000711274
-0.000722499
-0.000734058
-0.000746072
-0.000758961
-0.000773082
-0.000788111
-0.000804239
-0.000821663
-0.000840822
-0.000861783
-0.000885307
-0.000910742
-0.000148443
-0.000159211
-0.000170132
-0.0001812
-0.000192328
-0.000203412
-0.000214493
-0.00022563
-0.000236822
-0.000248072
-0.000259354
-0.000270641
-0.000281918
-0.00029316
-0.000304338
-0.000315505
-0.000326651
-0.000337765
-0.000348829
-0.000359844
-0.000370793
-0.00038166
-0.000392471
-0.000403233
-0.000413945
-0.000424592
-0.000435102
-0.000445483
-0.000455771
-0.000465971
-0.000476157
-0.000486332
-0.00049639
-0.00050634
-0.000516221
-0.000526015
-0.000535727
-0.000545362
-0.000554973
-0.000564545
-0.00057401
-0.000583393
-0.000592736
-0.00060209
-0.000611438
-0.000620753
-0.000630069
-0.000639432
-0.000648825
-0.000658265
-0.000667814
-0.000677493
-0.000687375
-0.000697525
-0.000707935
-0.000718604
-0.000729645
-0.000741122
-0.000753087
-0.000765707
-0.000779194
-0.000793758
-0.000809462
-0.000826522
-0.000845135
-0.000865591
-0.000888016
-0.000913273
-0.000940232
-0.000154769
-0.000165982
-0.000177356
-0.000188874
-0.000200429
-0.000211956
-0.000223481
-0.000235046
-0.000246655
-0.000258298
-0.000269952
-0.000281598
-0.000293223
-0.000304819
-0.000316384
-0.000327919
-0.000339416
-0.000350866
-0.000362256
-0.000373581
-0.000384831
-0.000396006
-0.000407108
-0.00041813
-0.000429061
-0.000439893
-0.000450621
-0.000461253
-0.000471789
-0.000482238
-0.000492611
-0.000502904
-0.000513113
-0.000523245
-0.000533296
-0.000543255
-0.000553114
-0.000562883
-0.000572578
-0.000582198
-0.000591737
-0.000601207
-0.00061064
-0.000620057
-0.000629443
-0.000638791
-0.000648129
-0.000657498
-0.000666916
-0.000676408
-0.000686029
-0.00069582
-0.000705819
-0.000716071
-0.000726603
-0.00073744
-0.000748669
-0.000760394
-0.000772699
-0.000785725
-0.000799664
-0.000814728
-0.000831085
-0.000848947
-0.000868553
-0.000890244
-0.000914188
-0.000941209
-0.000969977
-0.000161813
-0.000173508
-0.000185358
-0.00019735
-0.000209373
-0.000221365
-0.000233349
-0.000245361
-0.000257411
-0.000269482
-0.000281553
-0.000293606
-0.000305633
-0.000317628
-0.000329585
-0.000341497
-0.000353356
-0.000365151
-0.000376874
-0.000388516
-0.000400073
-0.00041154
-0.00042291
-0.000434179
-0.000445343
-0.000456401
-0.000467353
-0.000478195
-0.000488927
-0.00049955
-0.000510072
-0.000520499
-0.000530838
-0.000541086
-0.00055123
-0.000561258
-0.000571169
-0.00058097
-0.000590675
-0.000600299
-0.000609855
-0.000619354
-0.000628811
-0.000638238
-0.000647638
-0.000657019
-0.0006664
-0.000675813
-0.000685288
-0.000694856
-0.000704556
-0.000714424
-0.000724498
-0.000734819
-0.000745434
-0.000756394
-0.000767778
-0.000779689
-0.00079224
-0.000805578
-0.000819891
-0.000835395
-0.000852305
-0.00087088
-0.000891404
-0.000914273
-0.000939695
-0.000968581
-0.000999864
-0.000169716
-0.000181917
-0.000194272
-0.000206767
-0.000219289
-0.000231771
-0.000244233
-0.000256714
-0.000269223
-0.000281743
-0.000294251
-0.000306731
-0.000319172
-0.000331569
-0.000343915
-0.000356199
-0.000368413
-0.000380546
-0.00039259
-0.000404538
-0.000416383
-0.000428119
-0.000439742
-0.000451247
-0.000462633
-0.000473897
-0.000485037
-0.000496051
-0.000506938
-0.000517703
-0.000528352
-0.000538891
-0.000549326
-0.000559652
-0.000569856
-0.000579931
-0.000589879
-0.000599711
-0.000609444
-0.000619095
-0.000628678
-0.000638205
-0.000647688
-0.000657138
-0.000666564
-0.000675971
-0.000685379
-0.000694814
-0.000704311
-0.000713903
-0.000723626
-0.000733519
-0.00074362
-0.000753975
-0.000764636
-0.000775662
-0.000787136
-0.000799161
-0.000811866
-0.000825406
-0.000839974
-0.000855799
-0.000873138
-0.000892294
-0.000913597
-0.000937511
-0.000964304
-0.00099501
-0.00102862
-0.000178488
-0.000191222
-0.000204108
-0.000217132
-0.000230175
-0.000243166
-0.000256125
-0.000269092
-0.000282075
-0.000295058
-0.000308015
-0.00032093
-0.000333792
-0.000346595
-0.00035933
-0.000371987
-0.000384556
-0.000397026
-0.00040939
-0.00042164
-0.000433768
-0.00044577
-0.000457641
-0.000469377
-0.000480974
-0.000492429
-0.000503743
-0.000514913
-0.000525944
-0.000536837
-0.000547599
-0.000558237
-0.000568754
-0.000579146
-0.000589401
-0.000599513
-0.000609487
-0.000619336
-0.000629077
-0.000638727
-0.000648304
-0.000657821
-0.000667291
-0.000676726
-0.000686136
-0.000695527
-0.000704919
-0.00071434
-0.000723825
-0.000733408
-0.000743126
-0.000753015
-0.000763114
-0.000773466
-0.000784125
-0.000795157
-0.000806645
-0.000818697
-0.000831447
-0.000845061
-0.000859743
-0.00087574
-0.000893343
-0.0009129
-0.0009348
-0.00095958
-0.000987581
-0.00101999
-0.00105572
-0.000188219
-0.000201517
-0.000214962
-0.00022854
-0.000242129
-0.000255652
-0.000269129
-0.000282602
-0.00029608
-0.000309544
-0.000322969
-0.000336336
-0.000349634
-0.000362854
-0.000375989
-0.000389027
-0.000401959
-0.000414772
-0.00042746
-0.000440012
-0.000452424
-0.000464688
-0.000476799
-0.000488753
-0.000500548
-0.000512181
-0.000523652
-0.000534962
-0.000546115
-0.000557113
-0.000567963
-0.000578672
-0.000589244
-0.000599671
-0.000609942
-0.000620055
-0.000630017
-0.000639843
-0.000649553
-0.000659165
-0.000668701
-0.000678176
-0.000687604
-0.000696999
-0.000706368
-0.000715722
-0.000725078
-0.000734466
-0.000743917
-0.000753467
-0.000763149
-0.000772998
-0.000783049
-0.000793347
-0.000803943
-0.000814906
-0.000826319
-0.000838292
-0.000850962
-0.000864502
-0.000879127
-0.000895105
-0.000912756
-0.000932479
-0.000954728
-0.000980119
-0.0010091
-0.001043
-0.00108103
-0.000199055
-0.00021295
-0.000226984
-0.000241147
-0.000255309
-0.00026939
-0.000283412
-0.000297416
-0.000311412
-0.00032538
-0.000339292
-0.000353129
-0.000366877
-0.000380528
-0.000394074
-0.000407502
-0.000420801
-0.00043396
-0.00044697
-0.00045982
-0.000472506
-0.000485019
-0.000497356
-0.000509511
-0.000521484
-0.000533272
-0.000544876
-0.000556298
-0.000567541
-0.000578611
-0.000589515
-0.00060026
-0.000610849
-0.000621271
-0.00063152
-0.000641595
-0.000651509
-0.000661278
-0.000670924
-0.000680471
-0.000689938
-0.000699345
-0.000708706
-0.000718034
-0.000727337
-0.000736625
-0.000745917
-0.00075524
-0.000764626
-0.000774106
-0.000783712
-0.000793475
-0.000803429
-0.000813615
-0.000824083
-0.000834897
-0.00084614
-0.000857917
-0.000870365
-0.000883662
-0.000898029
-0.00091375
-0.000931178
-0.000950761
-0.000973023
-0.000998679
-0.0010283
-0.00106341
-0.00110315
-0.000211146
-0.000225673
-0.000240331
-0.000255109
-0.000269875
-0.000284545
-0.000299138
-0.000313699
-0.000328236
-0.000342728
-0.000357147
-0.00037147
-0.000385682
-0.000399775
-0.000413738
-0.000427561
-0.000441229
-0.000454731
-0.000468057
-0.000481197
-0.000494144
-0.000506892
-0.000519436
-0.000531772
-0.000543899
-0.000555816
-0.000567524
-0.000579026
-0.000590328
-0.000601435
-0.000612356
-0.0006231
-0.000633666
-0.000644044
-0.00065423
-0.000664229
-0.000674055
-0.000683729
-0.000693276
-0.00070272
-0.000712084
-0.000721389
-0.000730648
-0.000739875
-0.000749078
-0.000758267
-0.000767462
-0.000776687
-0.000785973
-0.000795348
-0.00080484
-0.000814476
-0.000824286
-0.000834306
-0.000844579
-0.000855162
-0.000866131
-0.000877586
-0.000889656
-0.000902514
-0.000916386
-0.000931565
-0.00094843
-0.000967478
-0.000989299
-0.00101473
-0.00104448
-0.00108039
-0.00112173
-0.000224654
-0.00023985
-0.000255168
-0.000270597
-0.000286
-0.000301289
-0.000316482
-0.000331625
-0.000346727
-0.000361766
-0.00037671
-0.000391534
-0.000406223
-0.000420767
-0.000435156
-0.000449375
-0.000463412
-0.000477254
-0.000490889
-0.000504308
-0.000517504
-0.00053047
-0.000543201
-0.000555695
-0.00056795
-0.000579965
-0.000591744
-0.000603291
-0.000614612
-0.000625716
-0.000636613
-0.000647311
-0.000657807
-0.000668092
-0.000678166
-0.000688039
-0.00069773
-0.000707263
-0.000716666
-0.000725965
-0.000735185
-0.000744347
-0.000753466
-0.000762556
-0.000771625
-0.000780683
-0.000789748
-0.000798844
-0.000807998
-0.000817236
-0.000826578
-0.000836048
-0.000845669
-0.000855468
-0.000865479
-0.00087575
-0.000886343
-0.000897342
-0.000908864
-0.000921069
-0.000934173
-0.000948472
-0.000964361
-0.000982373
-0.00100317
-0.00102769
-0.00105682
-0.00109264
-0.00113473
-0.000239769
-0.000255677
-0.000271694
-0.000287811
-0.000303887
-0.000319828
-0.000335652
-0.000351405
-0.000367098
-0.000382705
-0.000398193
-0.000413536
-0.000428715
-0.000443721
-0.00045854
-0.00047316
-0.000487565
-0.000501741
-0.000515676
-0.000529362
-0.000542788
-0.00055595
-0.000568843
-0.000581464
-0.000593812
-0.000605889
-0.000617698
-0.000629244
-0.000640538
-0.000651589
-0.000662409
-0.000673006
-0.000683373
-0.000693506
-0.000703411
-0.000713102
-0.000722603
-0.000731942
-0.00074115
-0.000750256
-0.000759287
-0.000768264
-0.000777204
-0.000786119
-0.000795019
-0.000803912
-0.000812816
-0.000821754
-0.000830747
-0.000839816
-0.000848978
-0.000858247
-0.000867639
-0.00087717
-0.000886863
-0.000896746
-0.000906863
-0.000917276
-0.000928076
-0.000939396
-0.00095143
-0.000964458
-0.000978876
-0.000995237
-0.00101428
-0.00103705
-0.00106464
-0.00109908
-0.00114061
-0.000256715
-0.00027338
-0.00029014
-0.000306987
-0.000323774
-0.000340403
-0.000356891
-0.000373285
-0.000389595
-0.000405795
-0.000421849
-0.000437727
-0.000453411
-0.000468887
-0.000484143
-0.000499163
-0.000513932
-0.000528435
-0.000542657
-0.00055659
-0.000570225
-0.000583555
-0.000596577
-0.000609287
-0.000621687
-0.000633778
-0.000645566
-0.000657059
-0.000668268
-0.000679206
-0.000689888
-0.000700315
-0.000710485
-0.000720398
-0.000730065
-0.000739508
-0.000748755
-0.000757839
-0.000766795
-0.000775655
-0.000784448
-0.000793194
-0.000801912
-0.000810614
-0.000819307
-0.000828003
-0.000836716
-0.000845466
-0.000854272
-0.000863148
-0.000872103
-0.000881146
-0.00089028
-0.000899509
-0.000908837
-0.000918273
-0.00092783
-0.000937539
-0.000947449
-0.000957651
-0.000968294
-0.000979615
-0.000991981
-0.00100595
-0.00102231
-0.00104224
-0.00106723
-0.00109943
-0.00114055
-0.000275749
-0.00029322
-0.00031077
-0.000328391
-0.000345932
-0.000363288
-0.000380475
-0.000397542
-0.0004145
-0.000431319
-0.000447961
-0.000464394
-0.000480595
-0.000496551
-0.000512248
-0.000527668
-0.000542794
-0.00055761
-0.000572103
-0.00058626
-0.000600073
-0.000613537
-0.000626646
-0.0006394
-0.000651799
-0.000663848
-0.000675555
-0.000686929
-0.000697984
-0.000708737
-0.000719202
-0.000729379
-0.000739268
-0.000748878
-0.000758228
-0.000767346
-0.000776266
-0.000785027
-0.000793667
-0.000802222
-0.00081072
-0.000819186
-0.000827636
-0.000836083
-0.000844534
-0.000853
-0.000861493
-0.000870032
-0.000878629
-0.000887292
-0.000896026
-0.000904828
-0.00091369
-0.000922601
-0.000931543
-0.000940496
-0.00094944
-0.000958355
-0.000967238
-0.000976109
-0.000985042
-0.000994194
-0.00100386
-0.00101454
-0.00102706
-0.00104265
-0.00106327
-0.00109177
-0.00113238
-0.000297168
-0.0003155
-0.000333891
-0.000352335
-0.000370676
-0.000388801
-0.000406727
-0.000424503
-0.00044214
-0.000459607
-0.000476861
-0.000493867
-0.000510601
-0.000527046
-0.000543186
-0.000559003
-0.000574478
-0.000589593
-0.000604333
-0.000618686
-0.000632643
-0.000646197
-0.000659345
-0.000672086
-0.000684423
-0.000696363
-0.000707913
-0.00071909
-0.000729908
-0.000740389
-0.000750542
-0.000760372
-0.000769883
-0.000779094
-0.000788032
-0.000796734
-0.000805241
-0.000813599
-0.000821848
-0.000830029
-0.000838171
-0.000846299
-0.000854432
-0.000862579
-0.000870749
-0.000878951
-0.000887198
-0.000895502
-0.000903874
-0.000912315
-0.000920823
-0.000929384
-0.000937981
-0.000946584
-0.000955151
-0.00096363
-0.000971954
-0.000980045
-0.00098782
-0.000995205
-0.00100216
-0.0010087
-0.00101499
-0.00102139
-0.00102865
-0.00103799
-0.00105174
-0.00107251
-0.00110675
-0.000321317
-0.000340568
-0.000359857
-0.000379178
-0.000398368
-0.000417309
-0.000436015
-0.000454539
-0.00047289
-0.000491035
-0.000508927
-0.000526526
-0.000543806
-0.000560748
-0.000577333
-0.000593541
-0.000609352
-0.000624745
-0.000639704
-0.000654216
-0.000668272
-0.000681864
-0.000694989
-0.000707649
-0.000719846
-0.000731591
-0.000742895
-0.000753775
-0.000764254
-0.000774351
-0.000784078
-0.000793442
-0.000802458
-0.000811155
-0.000819571
-0.000827751
-0.000835746
-0.000843607
-0.000851382
-0.000859112
-0.00086683
-0.00087456
-0.000882322
-0.000890124
-0.000897975
-0.000905883
-0.000913859
-0.000921914
-0.000930052
-0.00093827
-0.00094656
-0.000954903
-0.000963268
-0.000971609
-0.000979861
-0.000987933
-0.000995706
-0.00100303
-0.00100972
-0.00101558
-0.00102039
-0.00102398
-0.00102627
-0.00102736
-0.00102781
-0.00102875
-0.00103293
-0.00104307
-0.00106854
-0.000348606
-0.000368842
-0.000389091
-0.000409348
-0.000429444
-0.000449253
-0.000468789
-0.000488104
-0.000507208
-0.000526064
-0.000544622
-0.000562838
-0.00058068
-0.000598127
-0.000615158
-0.00063175
-0.000647881
-0.000663529
-0.000678674
-0.000693303
-0.000707404
-0.000720972
-0.000734003
-0.000746499
-0.000758467
-0.000769916
-0.000780865
-0.000791334
-0.000801349
-0.000810931
-0.000820092
-0.000828848
-0.000837227
-0.00084527
-0.000853028
-0.000860557
-0.000867918
-0.00087517
-0.000882367
-0.000889552
-0.000896762
-0.000904023
-0.000911353
-0.000918759
-0.000926249
-0.000933831
-0.000941514
-0.000949305
-0.000957205
-0.000965209
-0.000973306
-0.000981472
-0.000989668
-0.000997836
-0.00100589
-0.0010137
-0.0010211
-0.00102784
-0.00103364
-0.00103813
-0.00104088
-0.0010414
-0.00103925
-0.00103411
-0.00102616
-0.00101629
-0.00100784
-0.0010047
-0.00102057
-0.000379499
-0.000400791
-0.000422069
-0.000443327
-0.00046439
-0.000485123
-0.000505539
-0.000525692
-0.000545589
-0.000565192
-0.000584444
-0.000603296
-0.000621713
-0.000639669
-0.000657141
-0.000674103
-0.00069053
-0.000706396
-0.000721681
-0.000736368
-0.000750446
-0.000763907
-0.000776749
-0.000788975
-0.000800593
-0.000811618
-0.000822071
-0.000831978
-0.000841369
-0.000850264
-0.000858683
-0.000866655
-0.000874225
-0.000881448
-0.00088839
-0.00089512
-0.000901712
-0.000908233
-0.000914743
-0.00092129
-0.000927913
-0.000934638
-0.00094148
-0.000948447
-0.000955544
-0.000962778
-0.000970155
-0.000977678
-0.000985349
-0.000993162
-0.00100111
-0.00100916
-0.00101729
-0.00102542
-0.00103345
-0.00104124
-0.00104856
-0.0010551
-0.00106045
-0.00106404
-0.00106516
-0.00106294
-0.00105635
-0.00104443
-0.00102671
-0.00100377
-0.000979619
-0.000959772
-0.000961863
-0.000414586
-0.000437019
-0.000459407
-0.000481745
-0.00050385
-0.000525579
-0.000546941
-0.000567991
-0.000588736
-0.000609134
-0.000629121
-0.000648642
-0.000667658
-0.000686139
-0.000704056
-0.000721381
-0.000738086
-0.00075414
-0.000769521
-0.000784209
-0.000798191
-0.00081146
-0.000824012
-0.000835852
-0.000846991
-0.000857447
-0.000867246
-0.00087642
-0.000884999
-0.000893006
-0.000900474
-0.000907449
-0.000913994
-0.000920183
-0.0009261
-0.000931833
-0.000937468
-0.000943085
-0.000948752
-0.000954524
-0.000960441
-0.00096653
-0.000972803
-0.000979266
-0.00098592
-0.000992768
-0.000999813
-0.00100706
-0.0010145
-0.00102214
-0.00102998
-0.001038
-0.00104617
-0.00105445
-0.00106271
-0.00107082
-0.00107852
-0.00108547
-0.00109113
-0.00109477
-0.00109532
-0.00109135
-0.00108107
-0.00106256
-0.00103453
-0.000997391
-0.000956516
-0.000920062
-0.000909069
-0.000454439
-0.000478094
-0.000501671
-0.000525163
-0.000548378
-0.000571165
-0.000593528
-0.000615524
-0.000637159
-0.000658384
-0.000679131
-0.000699338
-0.000718958
-0.000737955
-0.000756299
-0.000773955
-0.000790889
-0.00080707
-0.000822468
-0.000837061
-0.000850834
-0.000863778
-0.000875888
-0.000887172
-0.00089764
-0.000907317
-0.000916232
-0.000924424
-0.000931923
-0.000938767
-0.000945008
-0.000950716
-0.000955975
-0.000960886
-0.000965555
-0.000970089
-0.000974592
-0.000979158
-0.000983863
-0.000988768
-0.000993914
-0.000999323
-0.001005
-0.00101094
-0.00101715
-0.00102361
-0.00103033
-0.00103729
-0.00104452
-0.00105202
-0.0010598
-0.00106788
-0.00107624
-0.00108487
-0.00109368
-0.00110256
-0.0011113
-0.00111955
-0.00112674
-0.00113196
-0.00113375
-0.00112992
-0.00111763
-0.00109378
-0.00105638
-0.00100671
-0.000952519
-0.00090523
-0.00088635
-0.000500108
-0.000525114
-0.000550011
-0.000574786
-0.000599237
-0.0006232
-0.000646678
-0.000669726
-0.00069235
-0.000714494
-0.000736083
-0.000757046
-0.000777329
-0.00079689
-0.000815691
-0.000833694
-0.000850859
-0.000867147
-0.000882525
-0.000896967
-0.000910452
-0.000922969
-0.000934514
-0.000945094
-0.000954723
-0.000963429
-0.000971246
-0.00097821
-0.000984357
-0.00098974
-0.000994433
-0.000998531
-0.00100215
-0.00100542
-0.00100847
-0.00101145
-0.00101448
-0.00101769
-0.00102115
-0.00102494
-0.00102911
-0.00103367
-0.00103862
-0.00104393
-0.00104959
-0.00105558
-0.00106188
-0.00106851
-0.00107546
-0.00108278
-0.00109051
-0.0010987
-0.00110738
-0.00111657
-0.00112629
-0.00113649
-0.00114706
-0.00115776
-0.00116807
-0.0011769
-0.00118225
-0.00118096
-0.00116891
-0.00114211
-0.00109879
-0.00104212
-0.000981707
-0.000931941
-0.000910249
-0.000551724
-0.00057814
-0.000604397
-0.000630491
-0.000656211
-0.00068138
-0.000705995
-0.000730112
-0.000753733
-0.0007768
-0.000799225
-0.000820928
-0.000841846
-0.000861928
-0.000881129
-0.000899402
-0.000916702
-0.00093298
-0.000948197
-0.000962319
-0.000975319
-0.000987181
-0.000997899
-0.00100748
-0.00101593
-0.00102329
-0.0010296
-0.00103489
-0.00103924
-0.00104271
-0.00104542
-0.00104749
-0.00104909
-0.00105038
-0.00105153
-0.00105272
-0.00105411
-0.00105584
-0.00105802
-0.00106073
-0.001064
-0.00106784
-0.00107221
-0.00107705
-0.00108232
-0.00108795
-0.00109392
-0.00110024
-0.00110696
-0.00111416
-0.00112191
-0.00113032
-0.00113949
-0.00114952
-0.00116048
-0.00117247
-0.00118555
-0.00119966
-0.00121434
-0.00122825
-0.00123875
-0.00124176
-0.00123239
-0.00120659
-0.00116327
-0.00110781
-0.00105146
-0.00100807
-0.000991151
-0.000612729
-0.00064081
-0.000668723
-0.00069642
-0.000723678
-0.000750307
-0.000776301
-0.000801714
-0.000826546
-0.000850733
-0.000874177
-0.000896788
-0.000918491
-0.000939226
-0.000958939
-0.000977575
-0.000995078
-0.00101139
-0.00102647
-0.00104026
-0.00105274
-0.00106388
-0.00107367
-0.00108212
-0.00108923
-0.00109503
-0.00109955
-0.00110283
-0.00110496
-0.00110602
-0.00110617
-0.00110559
-0.00110446
-0.00110303
-0.00110151
-0.00110014
-0.00109914
-0.0010987
-0.00109897
-0.00110004
-0.00110195
-0.00110468
-0.00110816
-0.00111227
-0.00111689
-0.00112194
-0.00112735
-0.00113317
-0.00113949
-0.00114646
-0.00115424
-0.00116296
-0.00117277
-0.00118374
-0.00119595
-0.00120959
-0.00122489
-0.00124182
-0.00126004
-0.00127828
-0.00129378
-0.00130216
-0.00129792
-0.0012773
-0.0012411
-0.00119613
-0.00115602
-0.00113344
-0.00113355
-0.000678245
-0.000707966
-0.000737402
-0.000766597
-0.000795314
-0.000823336
-0.000850647
-0.000877298
-0.000903284
-0.00092853
-0.000952926
-0.000976364
-0.000998758
-0.00102003
-0.00104012
-0.00105896
-0.00107648
-0.00109261
-0.00110727
-0.00112043
-0.00113203
-0.00114203
-0.00115042
-0.0011572
-0.00116237
-0.00116596
-0.001168
-0.00116858
-0.00116778
-0.00116576
-0.00116272
-0.00115889
-0.00115453
-0.00114995
-0.00114546
-0.00114138
-0.00113799
-0.00113556
-0.00113427
-0.00113423
-0.00113545
-0.00113781
-0.00114113
-0.00114517
-0.00114969
-0.00115453
-0.00115966
-0.00116518
-0.0011713
-0.00117827
-0.00118627
-0.00119545
-0.00120595
-0.00121757
-0.00123002
-0.00124351
-0.00125847
-0.00127515
-0.00129434
-0.00131559
-0.00133545
-0.00134849
-0.00134931
-0.00133584
-0.00131227
-0.00128993
-0.00128095
-0.00128925
-0.00131404
-0.000764905
-0.000796601
-0.000828156
-0.000859376
-0.000890012
-0.000919859
-0.000948896
-0.000977177
-0.0010047
-0.00103137
-0.00105707
-0.00108168
-0.00110508
-0.0011272
-0.00114795
-0.00116725
-0.00118502
-0.00120117
-0.00121562
-0.00122828
-0.00123911
-0.00124803
-0.00125502
-0.00126004
-0.00126308
-0.00126414
-0.00126324
-0.00126046
-0.00125593
-0.00124981
-0.00124235
-0.00123383
-0.00122462
-0.00121512
-0.00120577
-0.00119705
-0.00118941
-0.00118328
-0.00117897
-0.00117667
-0.00117636
-0.00117781
-0.00118057
-0.00118406
-0.00118778
-0.00119145
-0.00119518
-0.00119938
-0.00120453
-0.00121077
-0.00121798
-0.00122621
-0.00123576
-0.00124571
-0.00125487
-0.00126446
-0.00127667
-0.00129243
-0.00131269
-0.00133539
-0.00135501
-0.00136668
-0.00136897
-0.00136452
-0.00136079
-0.00136783
-0.00139171
-0.00142899
-0.00147552
-0.000842322
-0.000876365
-0.000909806
-0.000942908
-0.000975408
-0.00100702
-0.00103771
-0.00106753
-0.00109646
-0.00112444
-0.0011513
-0.00117691
-0.00120116
-0.00122392
-0.0012451
-0.0012646
-0.00128231
-0.00129814
-0.00131197
-0.0013237
-0.00133324
-0.00134054
-0.00134552
-0.00134814
-0.00134837
-0.00134619
-0.00134167
-0.00133488
-0.00132599
-0.00131522
-0.00130288
-0.00128933
-0.00127502
-0.00126049
-0.00124635
-0.00123327
-0.00122196
-0.00121309
-0.0012072
-0.00120462
-0.00120533
-0.00120883
-0.0012141
-0.00121977
-0.00122457
-0.00122793
-0.0012302
-0.00123255
-0.0012362
-0.00124067
-0.00124443
-0.00124752
-0.00125194
-0.0012574
-0.00126253
-0.00127014
-0.00128295
-0.00129944
-0.00131648
-0.00133192
-0.00134399
-0.00135163
-0.00135627
-0.00136251
-0.00137753
-0.00140758
-0.00145318
-0.00150716
-0.00156367
-0.000974791
-0.00101058
-0.00104659
-0.00108222
-0.00111715
-0.00115113
-0.00118409
-0.00121609
-0.0012471
-0.001277
-0.00130565
-0.00133286
-0.00135851
-0.00138245
-0.00140457
-0.00142474
-0.00144285
-0.00145872
-0.00147222
-0.00148318
-0.00149147
-0.00149695
-0.00149948
-0.00149896
-0.00149531
-0.0014885
-0.00147854
-0.00146552
-0.00144962
-0.00143111
-0.00141037
-0.00138791
-0.00136432
-0.00134032
-0.00131677
-0.00129465
-0.00127509
-0.00125925
-0.00124822
-0.00124284
-0.00124338
-0.0012491
-0.00125789
-0.00126654
-0.00127216
-0.00127339
-0.00127087
-0.00126713
-0.00126533
-0.00126487
-0.00126283
-0.00125974
-0.00125981
-0.0012644
-0.00127159
-0.00127941
-0.0012877
-0.00129636
-0.00130426
-0.00131047
-0.00131483
-0.00131816
-0.00132319
-0.00133469
-0.00135812
-0.00139735
-0.00145127
-0.00151193
-0.00157096
-0.00106071
-0.00109993
-0.00113781
-0.00117545
-0.00121253
-0.0012486
-0.00128358
-0.00131753
-0.00135043
-0.00138212
-0.00141242
-0.00144113
-0.00146807
-0.00149311
-0.0015161
-0.00153693
-0.0015555
-0.00157169
-0.00158533
-0.00159621
-0.00160411
-0.00160882
-0.00161011
-0.0016078
-0.00160171
-0.00159167
-0.00157759
-0.00155941
-0.00153713
-0.00151086
-0.0014809
-0.00144779
-0.00141231
-0.00137553
-0.00133881
-0.00130379
-0.00127238
-0.00124666
-0.00122868
-0.0012201
-0.00122169
-0.00123244
-0.0012485
-0.00126372
-0.00127358
-0.0012766
-0.00127408
-0.00126956
-0.00126757
-0.0012691
-0.00127234
-0.00127496
-0.00127662
-0.00127844
-0.00128091
-0.00128342
-0.00128572
-0.00128729
-0.0012874
-0.00128575
-0.00128287
-0.00128049
-0.00128212
-0.00129255
-0.00131666
-0.00135618
-0.0014087
-0.00146846
-0.00152693
-0.00126213
-0.0013044
-0.0013473
-0.00138926
-0.00142979
-0.00146892
-0.00150682
-0.00154356
-0.00157907
-0.00161315
-0.00164558
-0.00167612
-0.00170455
-0.00173064
-0.00175416
-0.00177481
-0.00179226
-0.00180623
-0.00181652
-0.001823
-0.00182557
-0.00182413
-0.00181859
-0.0018088
-0.0017946
-0.00177579
-0.00175218
-0.00172364
-0.0016901
-0.00165164
-0.00160851
-0.00156121
-0.00151063
-0.00145809
-0.00140538
-0.00135467
-0.00130846
-0.00126938
-0.00123995
-0.00122216
-0.00121701
-0.00122368
-0.00123826
-0.00125441
-0.00126726
-0.00127522
-0.00127841
-0.00127816
-0.0012767
-0.00127661
-0.00127813
-0.00127984
-0.00128108
-0.00128198
-0.00128258
-0.00128247
-0.00128134
-0.00127878
-0.0012743
-0.00126775
-0.0012598
-0.00125285
-0.00125105
-0.00125848
-0.00127708
-0.00130929
-0.00135639
-0.00141266
-0.00147006
0.000202185
0.000206734
0.000211491
0.000216481
0.000221672
0.000227104
0.000232745
0.000238459
0.000244247
0.000250168
0.000256231
0.000262332
0.000268314
0.000274729
0.000280424
0.000285789
0.000290269
0.000294999
0.000298929
0.000302415
0.000305389
0.000306769
0.000307268
0.000306418
0.000304501
0.000301316
0.000296381
0.000290271
0.000282848
0.000274073
0.000263153
0.000251344
0.000238538
0.00022478
0.000209255
0.00019314
0.000176549
0.000159354
0.00014179
0.00012418
0.000106448
8.86533e-05
7.14098e-05
5.47762e-05
3.76913e-05
2.17007e-05
5.76446e-06
-9.09419e-06
-2.3473e-05
-3.70775e-05
-4.98833e-05
-6.20396e-05
-7.34099e-05
-8.39663e-05
-9.388e-05
-0.000103569
-0.000112314
-0.000120524
-0.000128069
0.000206388
0.000211206
0.000216271
0.00022153
0.000227018
0.000232734
0.000238643
0.000244696
0.000250895
0.000257253
0.000263687
0.000270106
0.000276496
0.000282919
0.000289185
0.000294924
0.000300249
0.000305247
0.000309635
0.000313261
0.000316191
0.000317959
0.000318596
0.000318062
0.000316272
0.000312897
0.000308081
0.000301713
0.00029413
0.000284845
0.000273774
0.000261613
0.000248473
0.000233868
0.000218063
0.000201395
0.000184121
0.000166246
0.000148051
0.000129629
0.000111065
9.26315e-05
7.45807e-05
5.66711e-05
3.9246e-05
2.23281e-05
5.98881e-06
-9.52862e-06
-2.44199e-05
-3.86222e-05
-5.20286e-05
-6.46706e-05
-7.66305e-05
-8.78322e-05
-9.84409e-05
-0.000108279
-0.000117374
-0.000125767
-0.000133512
0.000210428
0.000215563
0.000220934
0.000226541
0.000232384
0.000238454
0.000244729
0.000251188
0.000257819
0.000264596
0.000271446
0.000278283
0.000285085
0.000291841
0.00029845
0.000304774
0.000310743
0.000316177
0.000320907
0.000324884
0.000327949
0.000330055
0.000330932
0.000330553
0.000328816
0.000325402
0.00032049
0.000314026
0.000306063
0.000296475
0.000285185
0.000272608
0.000258762
0.000243563
0.000227201
0.000209943
0.000191942
0.000173351
0.000154371
0.000135157
0.000115832
9.65392e-05
7.74719e-05
5.88364e-05
4.06852e-05
2.31205e-05
6.17959e-06
-1.00706e-05
-2.56148e-05
-4.04256e-05
-5.4439e-05
-6.76727e-05
-8.01447e-05
-9.18802e-05
-0.000102816
-0.000112962
-0.00012238
-0.000131105
-0.0001392
0.000214136
0.000219584
0.000225298
0.000231273
0.000237501
0.000243973
0.000250674
0.000257582
0.000264674
0.000271914
0.000279245
0.000286603
0.000293939
0.000301192
0.000308251
0.000315057
0.000321472
0.000327346
0.000332519
0.000336938
0.000340377
0.000342748
0.000343845
0.000343598
0.000341918
0.000338531
0.000333529
0.000326907
0.00031862
0.000308726
0.000297092
0.000284011
0.000269516
0.000253722
0.000236708
0.000218734
0.000199964
0.000180563
0.000160721
0.00014064
0.000120463
0.00010035
8.04731e-05
6.1053e-05
4.21205e-05
2.37866e-05
6.11305e-06
-1.08511e-05
-2.70602e-05
-4.24846e-05
-5.70871e-05
-7.08594e-05
-8.38015e-05
-9.59304e-05
-0.000107251
-0.000117794
-0.000127599
-0.000136705
-0.000145141
0.000217876
0.000223658
0.000229724
0.000236068
0.000242685
0.000249566
0.000256697
0.000264059
0.000271622
0.00027935
0.000287191
0.000295084
0.000302967
0.000310753
0.000318336
0.00032563
0.00033251
0.000338845
0.000344492
0.000349346
0.000353184
0.000355855
0.000357188
0.000357099
0.000355498
0.000352146
0.000347081
0.000340284
0.000331715
0.00032148
0.000309441
0.000295837
0.000280741
0.00026429
0.000246566
0.000227801
0.000208201
0.000187941
0.00016721
0.000146223
0.000125163
0.000104206
8.3506e-05
6.3223e-05
4.34499e-05
2.42889e-05
5.82418e-06
-1.18847e-05
-2.87907e-05
-4.48605e-05
-6.00679e-05
-7.44028e-05
-8.78717e-05
-0.000100492
-0.000112288
-0.000123283
-0.000133507
-0.000142997
-0.00015178
0.000221744
0.000227885
0.000234327
0.000241064
0.000248092
0.000255402
0.000262981
0.000270809
0.000278858
0.000287089
0.000295449
0.000303878
0.000312303
0.000320636
0.000328772
0.000336602
0.000344001
0.000350831
0.000356952
0.000362225
0.000366444
0.000369444
0.000371048
0.000371148
0.000369641
0.000366316
0.000361186
0.00035422
0.000345382
0.000334786
0.000322321
0.000308186