/*--------------------------------*- C++ -*----------------------------------*\
| =========                 |                                                 |
| \\      /  F ield         | OpenFOAM: The Open Source CFD Toolbox           |
|  \\    /   O peration     | Version:  2312                                  |
|   \\  /    A nd           | Website:  www.openfoam.com                      |
|    \\/     M anipulation  |                                                 |
\*---------------------------------------------------------------------------*/
FoamFile
{
    version     2.0;
    format      ascii;
    arch        "LSB;label=32;scalar=64";
    class       surfaceScalarField;
    location    "1400";
    object      phi;
}
// * * * * * * * * * * * * * * * * * * * * * * * * * * * * * * * * * * * * * //

dimensions      [0 3 -1 0 0 0 0];

oriented        oriented;

internalField   nonuniform List<scalar> 
116611
(
0.00134753
0.000409963
-0.00133154
-0.000425949
0.00136336
0.000405285
-0.000421112
0.00137901
0.000400298
-0.000415946
0.00139446
0.00039497
-0.000410421
0.00140973
0.000389238
-0.000404508
0.00142503
0.000383054
-0.000398356
0.00143956
0.000376468
-0.000391002
0.00145429
0.000369453
-0.000384177
0.00146865
0.000362006
-0.000376364
0.00148294
0.000354153
-0.000368447
0.00149692
0.000345783
-0.000359766
0.00151069
0.000336932
-0.000350698
0.00152415
0.000327569
-0.000341028
0.00153747
0.000317665
-0.000330988
0.00155046
0.000307265
-0.000320253
0.00156306
0.00029641
-0.000309016
0.0015754
0.000284841
-0.000297177
0.00158734
0.000272869
-0.000284808
0.00159874
0.000260097
-0.000271493
0.00160981
0.000246955
-0.000258032
0.00162065
0.000232978
-0.000243815
0.00163106
0.000218478
-0.000228885
0.00164105
0.000203297
-0.000213291
0.00165067
0.000187473
-0.000197094
0.00165975
0.000170957
-0.000180032
0.00166853
0.000153704
-0.000162488
0.00167689
0.00013564
-0.000143999
0.00168432
0.00011693
-0.000124362
0.00169164
9.74243e-05
-0.000104745
0.00169774
7.71644e-05
-8.32599e-05
0.00170387
5.64176e-05
-6.25506e-05
0.00170955
3.4532e-05
-4.02064e-05
0.00171455
1.18501e-05
-1.68529e-05
0.00171882
-1.15803e-05
7.31338e-06
0.00172233
-3.59514e-05
3.24338e-05
0.0017251
-6.09873e-05
5.822e-05
0.0017275
-8.70088e-05
8.46054e-05
0.00172935
-0.000113714
0.000111863
0.00173056
-0.000141339
0.000140139
0.00173077
-0.00017007
0.000169854
0.00173028
-0.000199484
0.000199971
0.00172954
-0.000229855
0.000230599
0.00172836
-0.000261051
0.000262233
0.00172601
-0.000293295
0.000295644
0.00172306
-0.000326444
0.000329395
0.00171939
-0.000360483
0.000364158
0.00171555
-0.000395408
0.00039924
0.00171034
-0.000431492
0.000436707
0.00170458
-0.000468479
0.000474236
0.001698
-0.000506384
0.000512971
0.00169056
-0.000545239
0.000552679
0.00168273
-0.000584893
0.000592717
0.00167436
-0.00062553
0.000633896
0.00166519
-0.000667265
0.000676442
0.00165506
-0.000709927
0.000720059
0.00164442
-0.000753525
0.000764158
0.00163321
-0.000798122
0.000809337
0.00162143
-0.000843714
0.000855496
0.00160907
-0.00089014
0.0009025
0.00159623
-0.000937208
0.000950048
0.00158357
-0.000984892
0.000997549
0.00157078
-0.00103386
0.00104664
0.00155739
-0.00108368
0.00109707
0.00154417
-0.0011341
0.00114731
0.0015311
-0.00118502
0.0011981
0.00151738
-0.00123688
0.0012506
0.00150538
-0.0012889
0.0013009
0.00149529
-0.00134052
0.00135061
-0.00139814
0.00148292
0.0014105
0.00133212
0.000394151
-0.00131631
0.0013478
0.000389607
0.00136334
0.000384757
0.00137874
0.000379567
0.00139401
0.000373969
0.00140905
0.000368012
0.00142386
0.000361661
0.00143843
0.00035488
0.00145276
0.000347679
0.0014669
0.000340014
0.0014808
0.000331885
0.00149444
0.000323284
0.00150782
0.000314191
0.0015209
0.000304582
0.00153367
0.000294497
0.00154622
0.000283863
0.00155836
0.000272698
0.00157026
0.000260968
0.00158168
0.000248679
0.00159284
0.000235791
0.00160354
0.000222284
0.00161385
0.000208168
0.00162373
0.000193409
0.00163322
0.000177992
0.00164228
0.000161898
0.0016509
0.000145079
0.00165897
0.000127568
0.00166656
0.00010934
0.00167362
9.03648e-05
0.00168011
7.06802e-05
0.00168629
5.02321e-05
0.00169187
2.89526e-05
0.00169685
6.87457e-06
0.00170129
-1.6021e-05
0.00170505
-3.97125e-05
0.00170827
-6.42139e-05
0.00171083
-8.95606e-05
0.00171281
-0.000115699
0.0017142
-0.000142725
0.00171481
-0.000170686
0.00171484
-0.000199512
0.0017142
-0.00022921
0.00171291
-0.000259762
0.00171089
-0.000291276
0.00170818
-0.000323742
0.00170482
-0.000357122
0.00170083
-0.000391411
0.00169603
-0.000426699
0.00169053
-0.000462973
0.0016843
-0.000500159
0.00167735
-0.000538284
0.00166978
-0.000577329
0.00166158
-0.000617325
0.00165266
-0.000658345
0.00164312
-0.000700386
0.00163301
-0.000743418
0.0016223
-0.000787407
0.00161098
-0.000832393
0.00159913
-0.000878294
0.00158699
-0.000925065
0.00157479
-0.000972691
0.00156227
-0.00102134
0.00154952
-0.00107093
0.00153678
-0.00112135
0.00152428
-0.00117253
0.00151186
-0.00122445
0.00149998
-0.00127702
0.00148877
-0.00132931
-0.00138627
0.00147689
0.00131783
0.000378489
-0.00130216
0.00133335
0.00037408
0.00134875
0.000369364
0.00136401
0.000364305
0.00137909
0.000358882
0.00139402
0.00035309
0.00140876
0.000346914
0.0014233
0.00034034
0.00143763
0.000333353
0.00145171
0.000325931
0.00146554
0.000318059
0.0014791
0.000309725
0.00149237
0.000300915
0.00150534
0.000291613
0.00151803
0.00028181
0.00153041
0.000271487
0.00154247
0.000260636
0.0015542
0.000249238
0.0015656
0.000237284
0.00157664
0.000224752
0.00158729
0.000211631
0.00159756
0.000197901
0.00160742
0.000183544
0.00161687
0.000168542
0.00162589
0.000152879
0.00163443
0.000136538
0.0016425
0.000119503
0.00165008
0.000101755
0.00165716
8.32854e-05
0.00166376
6.40805e-05
0.00166987
4.41214e-05
0.00167544
2.3387e-05
0.00168046
1.84728e-06
0.00168493
-2.04859e-05
0.0016888
-4.35876e-05
0.00169209
-6.74966e-05
0.00169475
-9.22278e-05
0.00169684
-0.000117788
0.00169832
-0.000144206
0.00169914
-0.000171505
0.00169931
-0.000199679
0.00169882
-0.000228724
0.00169772
-0.000258654
0.00169595
-0.000289505
0.00169349
-0.000321283
0.00169035
-0.000353981
0.00168654
-0.000387603
0.00168202
-0.000422184
0.00167678
-0.00045773
0.00167084
-0.000494218
0.00166421
-0.000531658
0.00165694
-0.00057006
0.00164906
-0.000609438
0.00164054
-0.000649832
0.00163141
-0.000691249
0.00162167
-0.000733679
0.00161137
-0.000777113
0.00160055
-0.000821571
0.00158928
-0.000867027
0.00157767
-0.000913455
0.00156584
-0.000960856
0.00155379
-0.00100929
0.00154162
-0.00105876
0.00152944
-0.00110917
0.0015174
-0.00116049
0.00150558
-0.00121264
0.00149425
-0.00126569
0.0014836
-0.00131866
-0.00137599
0.00147332
0.00130442
0.000362927
-0.00128886
0.00131984
0.000358664
0.0013351
0.000354101
0.00135021
0.000349198
0.00136515
0.000343941
0.00137992
0.000338317
0.00139452
0.000332317
0.00140893
0.00032593
0.00142313
0.000319144
0.00143712
0.000311944
0.00145087
0.000304313
0.00146436
0.000296237
0.00147757
0.0002877
0.00149049
0.000278688
0.00150312
0.000269184
0.00151543
0.000259177
0.00152742
0.000248649
0.00153907
0.000237588
0.00155037
0.000225978
0.00156132
0.000213804
0.0015719
0.000201052
0.0015821
0.000187703
0.0015919
0.000173743
0.00160129
0.000159154
0.00161025
0.00014392
0.00161876
0.000128022
0.00162682
0.000111443
0.00163441
9.41666e-05
0.00164152
7.61794e-05
0.00164813
5.7465e-05
0.00165424
3.80075e-05
0.00165985
1.77846e-05
0.00166493
-3.23148e-06
0.00166944
-2.49979e-05
0.00167338
-4.75328e-05
0.00167675
-7.08612e-05
0.00167952
-9.50041e-05
0.00168171
-0.000119972
0.00168329
-0.000145782
0.00168423
-0.000172451
0.00168454
-0.000199986
0.00168421
-0.000228395
0.00168324
-0.000257687
0.00168162
-0.000287881
0.00167932
-0.000318989
0.00167636
-0.000351018
0.00167273
-0.000383976
0.00166843
-0.00041788
0.00166344
-0.000452742
0.00165779
-0.000488562
0.00165148
-0.000525348
0.00164453
-0.000563112
0.00163696
-0.000601871
0.00162878
-0.000641647
0.00161999
-0.000682456
0.00161061
-0.000724306
0.0016007
-0.0007672
0.00159028
-0.000811151
0.00157941
-0.000856158
0.00156818
-0.000902222
0.00155668
-0.000949358
0.00154498
-0.000997593
0.00153316
-0.00104694
0.00152136
-0.00109737
0.00150972
-0.00114885
0.0014984
-0.00120132
0.00148759
-0.00125489
0.00147745
-0.00130851
-0.00136661
0.00146807
0.0012918
0.000347458
-0.00127633
0.00130713
0.000343335
0.0013223
0.000338927
0.00133731
0.000334192
0.00135214
0.00032911
0.00136679
0.00032367
0.00138125
0.00031786
0.00139551
0.00031167
0.00140956
0.000305088
0.0014234
0.000298102
0.00143702
0.000290699
0.00145039
0.000282866
0.0014635
0.000274587
0.00147634
0.000265849
0.00148889
0.000256636
0.00150113
0.000246933
0.00151306
0.000236726
0.00152465
0.000225998
0.00153589
0.000214734
0.00154678
0.000202919
0.00155729
0.000190535
0.00156743
0.000177569
0.00157717
0.000164004
0.0015865
0.000149823
0.00159541
0.000135009
0.00160389
0.000119545
0.00161191
0.000103413
0.00161948
8.65985e-05
0.00162658
6.90845e-05
0.00163319
5.08542e-05
0.00163931
3.18899e-05
0.00164492
1.21714e-05
0.00165001
-8.32312e-06
0.00165455
-2.95327e-05
0.00165852
-5.15118e-05
0.00166194
-7.42738e-05
0.00166477
-9.78391e-05
0.00166702
-0.000122221
0.00166867
-0.000147435
0.00166972
-0.000173494
0.00167014
-0.000200411
0.00166994
-0.000228196
0.00166911
-0.000256859
0.00166765
-0.000286415
0.00166554
-0.000316878
0.00166278
-0.000348258
0.00165937
-0.000380566
0.0016553
-0.000413815
0.00165058
-0.000448018
0.0016452
-0.000483184
0.00163918
-0.000519323
0.00163252
-0.000556452
0.00162523
-0.000594586
0.00161733
-0.000633747
0.00160883
-0.000673954
0.00159975
-0.000715223
0.00159011
-0.000757568
0.00157997
-0.000801008
0.00156937
-0.00084556
0.00155839
-0.000891244
0.00154712
-0.000938086
0.00153565
-0.000986118
0.00152407
-0.00103537
0.00151255
-0.00108584
0.00150122
-0.00113753
0.00149029
-0.00119039
0.00147996
-0.00124456
0.0014704
-0.00129896
-0.00135839
0.00146219
0.00127989
0.000332085
-0.00126452
0.00129513
0.000328093
0.00131023
0.000323832
0.00132516
0.000319259
0.00133992
0.000314353
0.00135449
0.000309102
0.00136886
0.000303491
0.00138302
0.00029751
0.00139696
0.000291145
0.00141068
0.000284385
0.00142416
0.000277217
0.0014374
0.000269628
0.00145038
0.000261605
0.00146309
0.000253135
0.00147552
0.000244204
0.00148766
0.000234797
0.00149949
0.000224899
0.00151099
0.000214495
0.00152215
0.000203569
0.00153297
0.000192105
0.00154342
0.000180087
0.00155349
0.000167499
0.00156317
0.000154324
0.00157244
0.000140546
0.00158131
0.000126147
0.00158974
0.000111112
0.00159773
9.5422e-05
0.00160527
7.90613e-05
0.00161234
6.20125e-05
0.00161893
4.42583e-05
0.00162504
2.57807e-05
0.00163065
6.56133e-06
0.00163574
-1.34102e-05
0.00164029
-3.4083e-05
0.0016443
-5.55175e-05
0.00164775
-7.77272e-05
0.00165064
-0.00010073
0.00165296
-0.00012454
0.0016547
-0.000149172
0.00165584
-0.000174639
0.00165638
-0.000200954
0.00165632
-0.000228129
0.00165563
-0.000256176
0.00165433
-0.000285109
0.00165239
-0.000314942
0.00164982
-0.000345685
0.00164661
-0.000377353
0.00164275
-0.000409958
0.00163824
-0.000443513
0.00163309
-0.000478031
0.0016273
-0.000513528
0.00162086
-0.000550018
0.0016138
-0.000587522
0.00160611
-0.000626061
0.00159781
-0.000665656
0.00158892
-0.000706332
0.00157947
-0.000748114
0.00156949
-0.00079103
0.00155904
-0.000835114
0.0015482
-0.000880403
0.00153706
-0.000926939
0.00152571
-0.000974769
0.00151428
-0.00102394
0.00150293
-0.00107448
0.00149183
-0.00112643
0.00148118
-0.00117974
0.00147122
-0.0012346
0.00146212
-0.00128986
-0.00135059
0.00145432
0.00126866
0.000316808
-0.00125338
0.00128381
0.000312946
0.00129881
0.000308826
0.00131367
0.000304406
0.00132835
0.000299668
0.00134285
0.000294599
0.00135716
0.000289185
0.00137126
0.000283413
0.00138513
0.000277271
0.00139877
0.000270744
0.00141217
0.00026382
0.00142531
0.000256485
0.00143819
0.000248727
0.00145079
0.000240532
0.00146311
0.000231886
0.00147513
0.000222775
0.00148685
0.000213185
0.00149824
0.0002031
0.0015093
0.000192506
0.00152002
0.000181388
0.00153038
0.000169728
0.00154037
0.00015751
0.00154997
0.000144719
0.00155918
0.000131338
0.00156798
0.000117348
0.00157636
0.000102734
0.0015843
8.74785e-05
0.0015918
7.15634e-05
0.00159884
5.49718e-05
0.00160541
3.76858e-05
0.00161151
1.96876e-05
0.00161711
9.58117e-07
0.00162219
-1.84909e-05
0.00162675
-3.86444e-05
0.00163078
-5.95462e-05
0.00163427
-8.12162e-05
0.00163721
-0.000103669
0.00163959
-0.000126919
0.0016414
-0.000150982
0.00164263
-0.000175869
0.00164327
-0.000201596
0.00164332
-0.000228174
0.00164276
-0.000255617
0.00164159
-0.000283938
0.0016398
-0.000313151
0.00163738
-0.000343268
0.00163433
-0.000374303
0.00163064
-0.00040627
0.00162631
-0.000439181
0.00162133
-0.000473054
0.00161571
-0.000507902
0.00160944
-0.000543747
0.00160252
-0.000580607
0.00159497
-0.000618508
0.00158679
-0.000657478
0.001578
-0.000697546
0.00156864
-0.000738749
0.00155874
-0.000781128
0.00154835
-0.00082473
0.00153756
-0.000869611
0.00152645
-0.000915831
0.00151514
-0.000963459
0.00150376
-0.00101256
0.00149248
-0.0010632
0.00148149
-0.00111544
0.00147099
-0.00116925
0.00146127
-0.00122488
0.0014525
-0.00128108
-0.00134316
0.00144507
0.00125812
0.000301621
-0.00124293
0.00127318
0.000297892
0.00128809
0.000293915
0.00130284
0.000289649
0.00131744
0.000285075
0.00133185
0.000280181
0.00134608
0.000274955
0.00136011
0.000269386
0.00137392
0.00026346
0.0013875
0.000257163
0.00140084
0.000250483
0.00141392
0.000243404
0.00142673
0.000235914
0.00143927
0.000227999
0.00145151
0.000219644
0.00146345
0.000210834
0.00147508
0.000201556
0.00148638
0.000191795
0.00149735
0.000181536
0.00150798
0.000170762
0.00151825
0.000159459
0.00152815
0.00014761
0.00153767
0.000135199
0.0015468
0.000122209
0.00155552
0.000108623
0.00156383
9.44242e-05
0.00157172
7.95952e-05
0.00157916
6.41183e-05
0.00158616
4.79761e-05
0.00159269
3.11506e-05
0.00159876
1.36236e-05
0.00160434
-4.62442e-06
0.0016094
-2.35563e-05
0.00161396
-4.32016e-05
0.001618
-6.35835e-05
0.00162151
-8.47245e-05
0.00162448
-0.000106638
0.0016269
-0.00012934
0.00162876
-0.000152845
0.00163006
-0.000177165
0.00163077
-0.000202314
0.00163091
-0.000228306
0.00163044
-0.000255154
0.00162937
-0.000282871
0.00162769
-0.000311471
0.00162539
-0.000340966
0.00162246
-0.000371371
0.00161889
-0.000402699
0.00161467
-0.000434966
0.00160981
-0.000468187
0.00160429
-0.000502382
0.00159811
-0.000537569
0.00159128
-0.000573775
0.00158379
-0.000611026
0.00157567
-0.000649356
0.00156693
-0.000688804
0.00155759
-0.000729413
0.0015477
-0.000771238
0.00153731
-0.00081434
0.0015265
-0.000858793
0.00151534
-0.000904677
0.00150397
-0.000952084
0.00149251
-0.00100111
0.00148115
-0.00105184
0.00147009
-0.00110438
0.00145958
-0.00115873
0.00144991
-0.00121521
0.00144132
-0.00127249
-0.00133654
0.0014347
0.00124831
0.000286515
-0.0012332
0.00126328
0.000282925
0.0012781
0.000279097
0.00129276
0.000274987
0.00130725
0.00027058
0.00132157
0.000265862
0.0013357
0.000260824
0.00134963
0.000255453
0.00136336
0.000249738
0.00137686
0.000243665
0.00139012
0.000237221
0.00140313
0.000230393
0.00141588
0.000223167
0.00142835
0.000215529
0.00144053
0.000207463
0.0014524
0.000198956
0.00146397
0.000189992
0.00147521
0.000180556
0.00148611
0.000170633
0.00149666
0.000160207
0.00150686
0.000149263
0.00151669
0.000137783
0.00152613
0.000125752
0.00153519
0.000113153
0.00154384
9.99685e-05
0.00155209
8.61821e-05
0.00155991
7.17759e-05
0.00156729
5.67326e-05
0.00157423
4.10344e-05
0.00158072
2.46634e-05
0.00158674
7.60149e-06
0.00159228
-1.01657e-05
0.00159732
-2.85939e-05
0.00160186
-4.77372e-05
0.00160588
-6.76093e-05
0.00160939
-8.82301e-05
0.00161236
-0.000109615
0.0016148
-0.000131777
0.00161669
-0.000154732
0.00161802
-0.000178493
0.00161878
-0.000203073
0.00161896
-0.000228486
0.00161855
-0.000254745
0.00161754
-0.000281863
0.00161593
-0.000309854
0.00161369
-0.00033873
0.00161082
-0.000368507
0.00160732
-0.000399197
0.00160317
-0.000430818
0.00159837
-0.000463386
0.00159291
-0.000496922
0.00158679
-0.000531448
0.00158001
-0.000566991
0.00157257
-0.000603583
0.00156447
-0.000641261
0.00155574
-0.000680071
0.00154639
-0.000720065
0.00153646
-0.000761309
0.001526
-0.000803879
0.00151507
-0.000847865
0.00150376
-0.00089337
0.00149219
-0.000940511
0.0014805
-0.000989414
0.00146886
-0.00104021
0.00145752
-0.00109303
0.00144673
-0.00114794
0.00143683
-0.0012053
0.0014281
-0.00126376
-0.00132961
0.00142116
0.00123926
0.000271488
-0.00122423
0.00125414
0.000268039
0.00126888
0.000264362
0.00128345
0.000260414
0.00129785
0.000256178
0.00131207
0.000251642
0.0013261
0.000246794
0.00133993
0.000241625
0.00135355
0.000236121
0.00136694
0.000230271
0.0013801
0.000224062
0.00139301
0.000217481
0.00140567
0.000210514
0.00141805
0.000203147
0.00143014
0.000195367
0.00144194
0.000187157
0.00145343
0.000178504
0.0014646
0.000169391
0.00147543
0.000159803
0.00148591
0.000149723
0.00149604
0.000139137
0.00150579
0.000128026
0.00151517
0.000116375
0.00152416
0.000104166
0.00153274
9.13826e-05
0.00154092
7.80071e-05
0.00154867
6.40222e-05
0.001556
4.941e-05
0.00156288
3.41528e-05
0.00156931
1.82326e-05
0.00157528
1.63098e-06
0.00158076
-1.56486e-05
0.00158576
-3.35884e-05
0.00159025
-5.22341e-05
0.00159425
-7.16029e-05
0.00159773
-9.17104e-05
0.00160068
-0.000112572
0.00160311
-0.000134203
0.00160499
-0.000156615
0.00160632
-0.000179824
0.00160709
-0.000203842
0.00160729
-0.000228682
0.0016069
-0.000254358
0.00160592
-0.000280883
0.00160434
-0.00030827
0.00160214
-0.000336533
0.00159932
-0.000365685
0.00159586
-0.000395742
0.00159177
-0.00042672
0.00158702
-0.000458637
0.00158161
-0.000491514
0.00157553
-0.000525375
0.00156879
-0.000560248
0.00156137
-0.000596167
0.00155329
-0.000633174
0.00154454
-0.00067132
0.00153514
-0.000710664
0.00152511
-0.000751281
0.00151449
-0.000793262
0.00150334
-0.000836715
0.00149174
-0.000881766
0.00147979
-0.000928563
0.00146765
-0.00097727
0.0014555
-0.00102806
0.00144359
-0.00108112
0.00143224
-0.00113659
0.00142178
-0.00119484
0.00141252
-0.0012545
-0.00132223
0.00140514
0.00123098
0.000256535
-0.00121603
0.00124579
0.000253228
0.00126045
0.000249705
0.00127494
0.000245922
0.00128926
0.000241861
0.00130339
0.00023751
0.00131733
0.000232858
0.00133106
0.000227894
0.00134457
0.000222607
0.00135786
0.000216984
0.00137091
0.000211013
0.00138371
0.000204681
0.00139625
0.000197974
0.00140852
0.000190879
0.0014205
0.000183382
0.00143219
0.000175468
0.00144357
0.000167122
0.00145463
0.000158329
0.00146536
0.000149072
0.00147575
0.000139336
0.00148578
0.000129104
0.00149545
0.00011836
0.00150474
0.000107086
0.00151364
9.52659e-05
0.00152214
8.28812e-05
0.00153023
6.99148e-05
0.0015379
5.63488e-05
0.00154515
4.21653e-05
0.00155196
2.73465e-05
0.00155831
1.18742e-05
0.00156421
-4.27015e-06
0.00156963
-2.10598e-05
0.00157456
-3.85197e-05
0.001579
-5.66745e-05
0.00158294
-7.55452e-05
0.00158638
-9.5146e-05
0.00158929
-0.000115492
0.00159169
-0.000136597
0.00159355
-0.000158475
0.00159486
-0.000181139
0.00159562
-0.000204603
0.00159582
-0.000228879
0.00159544
-0.000253981
0.00159448
-0.000279921
0.00159293
-0.000306713
0.00159076
-0.00033437
0.00158798
-0.000362906
0.00158458
-0.000392336
0.00158053
-0.000422675
0.00157584
-0.000453942
0.00157048
-0.000486158
0.00156445
-0.000519346
0.00155774
-0.000553536
0.00155034
-0.000588762
0.00154223
-0.000625069
0.00153342
-0.000662509
0.00152391
-0.000701149
0.0015137
-0.000741074
0.00150282
-0.000782385
0.00149132
-0.000825209
0.00147925
-0.000869701
0.00146673
-0.000916041
0.0014539
-0.000964439
0.00144097
-0.00101513
0.00142821
-0.00106836
0.00141597
-0.00112436
0.00140459
-0.00118346
0.00139435
-0.00124426
-0.00131286
0.00138499
0.00122349
0.000241649
-0.0012086
0.00123823
0.000238486
0.00125282
0.00023512
0.00126724
0.000231503
0.00128148
0.00022762
0.00129553
0.000223458
0.00130938
0.000219005
0.00132302
0.000214252
0.00133644
0.000209186
0.00134963
0.000203796
0.00136258
0.000198067
0.00137527
0.000191989
0.0013877
0.000185547
0.00139985
0.000178728
0.00141171
0.000171518
0.00142328
0.000163901
0.00143454
0.000155864
0.00144548
0.000147391
0.00145608
0.000138466
0.00146634
0.000129073
0.00147625
0.000119195
0.0014858
0.000108815
0.00149497
9.79164e-05
0.00150375
8.64817e-05
0.00151214
7.44931e-05
0.00152012
6.19327e-05
0.00152769
4.87826e-05
0.00153483
3.50245e-05
0.00154154
2.06404e-05
0.0015478
5.61191e-06
0.0015536
-1.00725e-05
0.00155893
-2.63835e-05
0.00156377
-4.33674e-05
0.00156814
-6.10398e-05
0.00157201
-7.94193e-05
0.00157539
-9.85212e-05
0.00157826
-0.00011836
0.00158061
-0.000138948
0.00158243
-0.000160301
0.00158372
-0.00018243
0.00158447
-0.00020535
0.00158466
-0.000229072
0.00158429
-0.00025361
0.00158335
-0.000278976
0.00158182
-0.000305182
0.00157969
-0.000332242
0.00157695
-0.000360169
0.00157359
-0.000388977
0.0015696
-0.00041868
0.00156495
-0.000449295
0.00155964
-0.000480843
0.00155364
-0.000513347
0.00154693
-0.000546833
0.00153951
-0.000581338
0.00153135
-0.000616904
0.00152242
-0.000653587
0.00151273
-0.000691457
0.00150226
-0.000730603
0.00149102
-0.000771141
0.00147902
-0.000813216
0.00146633
-0.000857006
0.00145302
-0.000902733
0.00143925
-0.000950665
0.00142524
-0.00100112
0.00141131
-0.00105444
0.0013979
-0.00111094
0.00138526
-0.00117083
0.00137343
-0.00123243
-0.00129962
0.00136019
0.0012168
0.00022683
-0.00120198
0.00123147
0.000223813
0.00124599
0.000220604
0.00126034
0.000217156
0.0012745
0.000213453
0.00128848
0.000209481
0.00130225
0.000205231
0.00131582
0.000200691
0.00132915
0.000195851
0.00134225
0.000190696
0.0013551
0.000185216
0.00136769
0.000179396
0.00138002
0.000173224
0.00139206
0.000166686
0.00140381
0.000159768
0.00141526
0.000152454
0.00142639
0.000144731
0.0014372
0.000136582
0.00144767
0.000127991
0.0014578
0.000118943
0.00146758
0.000109421
0.00147699
9.94068e-05
0.00148602
8.8884e-05
0.00149467
7.78348e-05
0.00150292
6.62411e-05
0.00151077
5.4085e-05
0.0015182
4.13482e-05
0.00152521
2.80123e-05
0.00153179
1.4059e-05
0.00153794
-5.30946e-07
0.00154361
-1.57494e-05
0.00154883
-3.15977e-05
0.00155357
-4.81116e-05
0.00155784
-6.53094e-05
0.00156163
-8.32065e-05
0.00156492
-0.000101818
0.00156772
-0.000121159
0.00157002
-0.000141241
0.00157179
-0.000162078
0.00157305
-0.000183684
0.00157377
-0.00020607
0.00157395
-0.000229249
0.00157357
-0.000253234
0.00157263
-0.000278035
0.00157111
-0.000303665
0.001569
-0.000330136
0.00156629
-0.000357459
0.00156296
-0.000385647
0.001559
-0.000414715
0.00155438
-0.000444676
0.00154908
-0.000475548
0.00154309
-0.000507352
0.00153637
-0.000540114
0.0015289
-0.000573866
0.00152064
-0.000608649
0.00151157
-0.000644516
0.00150165
-0.000681539
0.00149086
-0.000719809
0.00147917
-0.000759449
0.00146657
-0.000800617
0.00145308
-0.000843519
0.00143877
-0.000888425
0.00142379
-0.000935682
0.0014084
-0.000985725
0.00139298
-0.00103902
0.00137802
-0.00109598
0.00136363
-0.00115643
0.00134921
-0.00121802
-0.00127991
0.0013295
0.00121098
0.000212088
-0.00119623
0.00122558
0.000209216
0.00124002
0.000206164
0.00125429
0.000202885
0.00126838
0.000199362
0.00128227
0.000195583
0.00129597
0.000191537
0.00130945
0.000187214
0.0013227
0.0001826
0.00133571
0.000177685
0.00134847
0.000172456
0.00136096
0.000166899
0.00137319
0.000161002
0.00138512
0.000154749
0.00139676
0.000148128
0.00140809
0.000141122
0.00141911
0.000133718
0.00142979
0.000125898
0.00144013
0.000117648
0.00145013
0.000108949
0.00145976
9.97865e-05
0.00146903
9.01418e-05
0.00147791
7.99975e-05
0.00148641
6.93357e-05
0.00149452
5.81383e-05
0.00150221
4.63867e-05
0.0015095
3.40626e-05
0.00151636
2.11473e-05
0.0015228
7.62205e-06
0.0015288
-6.52947e-06
0.00153434
-2.12843e-05
0.00153942
-3.6678e-05
0.00154403
-5.27301e-05
0.00154818
-6.94603e-05
0.00155186
-8.68834e-05
0.00155506
-0.000105014
0.00155776
-0.000123865
0.00155997
-0.000143451
0.00156168
-0.000163784
0.00156287
-0.000184876
0.00156354
-0.00020674
0.00156368
-0.000229387
0.00156327
-0.000252828
0.00156231
-0.000277074
0.00156078
-0.000302136
0.00155867
-0.000328026
0.00155597
-0.000354752
0.00155265
-0.000382326
0.00154869
-0.000410759
0.00154408
-0.000440065
0.00153879
-0.000470256
0.00153279
-0.000501351
0.00152604
-0.00053337
0.00151852
-0.000566341
0.00151017
-0.000600299
0.00150094
-0.000635292
0.00149079
-0.000671384
0.00147964
-0.000708664
0.00146745
-0.000747252
0.00145415
-0.000787318
0.00143973
-0.000829101
0.00142424
-0.000872937
0.00140784
-0.000919278
0.00139081
-0.000968694
0.00137351
-0.00102173
0.00135619
-0.00107866
0.00133825
-0.00113849
0.00131803
-0.0011978
-0.00125211
0.00129023
0.00120613
0.00019743
-0.00119147
0.00122064
0.000194704
0.001235
0.00019181
0.00124918
0.000188701
0.00126318
0.00018536
0.00127699
0.000181774
0.0012906
0.000177934
0.00130398
0.000173828
0.00131714
0.000169445
0.00133005
0.000164772
0.00134271
0.000159796
0.0013551
0.000154506
0.00136722
0.000148886
0.00137905
0.000142924
0.00139057
0.000136604
0.00140178
0.000129911
0.00141267
0.00012283
0.00142322
0.000115345
0.00143343
0.00010744
0.00144328
9.90965e-05
0.00145277
9.02984e-05
0.00146188
8.10276e-05
0.00147062
7.1266e-05
0.00147896
6.09954e-05
0.0014869
5.0197e-05
0.00149443
3.88522e-05
0.00150155
2.69419e-05
0.00150825
1.44474e-05
0.00151452
1.34914e-06
0.00152035
-1.23549e-05
0.00152572
-2.66587e-05
0.00153065
-4.16006e-05
0.00153511
-5.71977e-05
0.00153912
-7.34668e-05
0.00154266
-9.04233e-05
0.00154573
-0.000108081
0.00154832
-0.000126453
0.00155042
-0.000145552
0.00155202
-0.000165391
0.00155313
-0.00018598
0.00155372
-0.000207332
0.00155379
-0.000229457
0.00155333
-0.000252366
0.00155232
-0.000276069
0.00155076
-0.000300575
0.00154863
-0.000325893
0.00154591
-0.000352031
0.00154258
-0.000379
0.00153863
-0.000406806
0.00153402
-0.000435461
0.00152874
-0.000464973
0.00152275
-0.000495355
0.001516
-0.00052662
0.00150844
-0.000558789
0.00150003
-0.000591885
0.00149068
-0.000625943
0.00148031
-0.000661013
0.00146881
-0.000697169
0.00145609
-0.00073453
0.00144206
-0.000773285
0.00142668
-0.000813723
0.00141001
-0.000856267
0.0013922
-0.000901467
0.00137342
-0.000949917
0.00135362
-0.00100193
0.00133188
-0.00105691
0.00130523
-0.00111185
0.00126722
-0.00115978
-0.00118736
0.00120246
0.00120237
0.000182857
-0.0011878
0.0012168
0.00018028
0.00123106
0.000177547
0.00124515
0.000174611
0.00125905
0.000171454
0.00127276
0.000168064
0.00128627
0.000164432
0.00129955
0.000160547
0.0013126
0.000156396
0.0013254
0.000151968
0.00133795
0.000147251
0.00135022
0.00014223
0.00136221
0.000136893
0.00137391
0.000131225
0.00138531
0.000125211
0.00139638
0.000118836
0.00140713
0.000112084
0.00141753
0.000104939
0.00142759
9.7384e-05
0.00143729
8.94014e-05
0.00144661
8.09734e-05
0.00145556
7.20818e-05
0.00146411
6.27081e-05
0.00147228
5.28332e-05
0.00148004
4.24379e-05
0.00148738
3.1503e-05
0.00149432
2.0009e-05
0.00150083
7.93645e-06
0.00150691
-4.73205e-06
0.00151254
-1.79838e-05
0.00151772
-3.18449e-05
0.00152246
-4.63393e-05
0.00152675
-6.14861e-05
0.00153059
-7.73007e-05
0.00153396
-9.37977e-05
0.00153687
-0.000110991
0.00153931
-0.000128893
0.00154127
-0.000147515
0.00154275
-0.000166871
0.00154374
-0.00018697
0.00154423
-0.000207823
0.00154422
-0.00022944
0.00154368
-0.000251831
0.00154261
-0.000275003
0.00154101
-0.000298967
0.00153884
-0.000323728
0.00153611
-0.000349294
0.00153278
-0.000375671
0.00152883
-0.000402865
0.00152425
-0.00043088
0.00151901
-0.000459723
0.00151305
-0.000489398
0.00150634
-0.000519908
0.0014988
-0.000551258
0.00149037
-0.000583455
0.00148094
-0.000616513
0.0014704
-0.000650464
0.0014586
-0.000685377
0.00144546
-0.000721384
0.00143088
-0.000758714
0.00141488
-0.000797718
0.00139747
-0.000838853
0.00137858
-0.000882577
0.00135773
-0.000929065
0.00133339
-0.000977596
0.00130188
-0.0010254
0.0012559
-0.00106587
0.00118258
-0.00108646
-0.00107225
0.00106747
0.00119978
0.00016836
-0.00118528
0.00121412
0.000165937
0.0012283
0.00016337
0.0012423
0.000160611
0.00125611
0.000157643
0.00126972
0.000154455
0.00128311
0.000151036
0.00129629
0.000147376
0.00130922
0.000143463
0.0013219
0.000139286
0.00133432
0.000134831
0.00134646
0.000130086
0.00135832
0.000125037
0.00136988
0.000119668
0.00138112
0.000113967
0.00139204
0.000107916
0.00140263
0.0001015
0.00141286
9.47013e-05
0.00142274
8.75034e-05
0.00143226
7.98881e-05
0.00144139
7.1837e-05
0.00145014
6.33312e-05
0.0014585
5.43514e-05
0.00146646
4.48779e-05
0.001474
3.48909e-05
0.00148114
2.43702e-05
0.00148785
1.32959e-05
0.00149414
1.64755e-06
0.00149999
-1.05807e-05
0.00150539
-2.33872e-05
0.00151035
-3.68076e-05
0.00151487
-5.086e-05
0.00151895
-6.5562e-05
0.00152258
-8.09292e-05
0.00152576
-9.69755e-05
0.00152848
-0.000113714
0.00153074
-0.000131157
0.00153254
-0.000149316
0.00153388
-0.000168202
0.00153473
-0.000187824
0.0015351
-0.000208194
0.00153498
-0.000229319
0.00153436
-0.000251208
0.00153322
-0.000273869
0.00153156
-0.000297308
0.00152937
-0.000321531
0.00152662
-0.000346544
0.0015233
-0.00037235
0.00151938
-0.000398951
0.00151485
-0.000426348
0.00150966
-0.000454538
0.00150378
-0.000483514
0.00149714
-0.000513266
0.00148966
-0.000543781
0.00148125
-0.000575047
0.00147181
-0.000607068
0.00146123
-0.000639881
0.00144943
-0.000673581
0.00143639
-0.000708341
0.00142209
-0.000744416
0.00140646
-0.000782089
0.00138914
-0.000821531
0.00136905
-0.00086249
0.00134372
-0.000903734
0.00130825
-0.000942126
0.00125379
-0.00097094
0.00116656
-0.000978637
0.00102884
-0.000948742
-0.000878709
0.000835301
0.0011984
0.000153923
-0.00118396
0.00121267
0.00015166
0.00122678
0.000149266
0.0012407
0.000146691
0.00125442
0.000143919
0.00126794
0.000140938
0.00128124
0.000137739
0.0012943
0.000134312
0.00130712
0.000130644
0.00131968
0.000126725
0.00133197
0.000122541
0.00134398
0.000118079
0.00135569
0.000113326
0.00136709
0.000108266
0.00137817
0.000102885
0.00138892
9.71668e-05
0.00139933
9.10949e-05
0.00140937
8.46521e-05
0.00141906
7.78205e-05
0.00142836
7.05815e-05
0.00143729
6.2916e-05
0.00144581
5.48044e-05
0.00145394
4.62266e-05
0.00146165
3.71619e-05
0.00146895
2.75897e-05
0.00147584
1.74889e-05
0.00148229
6.83833e-06
0.00148832
-4.38035e-06
0.0014939
-1.61613e-05
0.00149904
-2.85301e-05
0.00150375
-4.1512e-05
0.00150802