/*--------------------------------*- C++ -*----------------------------------*\
| =========                 |                                                 |
| \\      /  F ield         | OpenFOAM: The Open Source CFD Toolbox           |
|  \\    /   O peration     | Version:  2312                                  |
|   \\  /    A nd           | Website:  www.openfoam.com                      |
|    \\/     M anipulation  |                                                 |
\*---------------------------------------------------------------------------*/
FoamFile
{
    version     2.0;
    format      ascii;
    arch        "LSB;label=32;scalar=64";
    class       volVectorField;
    location    "1400";
    object      U;
}
// * * * * * * * * * * * * * * * * * * * * * * * * * * * * * * * * * * * * * //

dimensions      [0 1 -1 0 0 0 0];

internalField   nonuniform List<vector> 
76025
(
(0.0421757 -0.0122452 0)
(0.0424353 -0.0122449 -3.88932e-24)
(0.0426976 -0.0122365 0)
(0.0429642 -0.0122233 0)
(0.0432237 -0.0122029 1.35491e-22)
(0.043499 -0.0121713 3.90104e-22)
(0.0437636 -0.0121381 -7.60407e-22)
(0.0440295 -0.0120931 3.49352e-22)
(0.0442994 -0.0120454 1.57639e-22)
(0.044572 -0.011993 -1.79287e-22)
(0.0448455 -0.0119323 9.8511e-24)
(0.0451211 -0.0118627 -6.83895e-22)
(0.0453981 -0.0117883 9.05809e-22)
(0.0456765 -0.0117033 0)
(0.0459641 -0.0116095 -2.9237e-22)
(0.0462417 -0.011515 0)
(0.0465253 -0.0114065 0)
(0.0468034 -0.0112958 0)
(0.0470831 -0.0111709 -3.68582e-22)
(0.047355 -0.0110486 4.10087e-22)
(0.0476304 -0.010911 4.34068e-22)
(0.0479107 -0.010765 1.3643e-21)
(0.0481882 -0.0106136 -9.24619e-22)
(0.0484647 -0.0104552 -1.53399e-21)
(0.04874 -0.0102907 -4.88373e-23)
(0.04901 -0.0101251 -6.14388e-22)
(0.049289 -0.00993774 1.75387e-21)
(0.0495598 -0.00975251 -1.80164e-21)
(0.0498268 -0.00955381 6.31755e-22)
(0.0500898 -0.00934022 -6.61699e-22)
(0.0503472 -0.0091315 -6.95708e-22)
(0.0506078 -0.00891459 1.49993e-21)
(0.050874 -0.00867378 -2.29984e-21)
(0.0511325 -0.00844629 -4.31919e-22)
(0.0513848 -0.00819807 2.07855e-21)
(0.0516277 -0.00795675 1.66259e-23)
(0.0518689 -0.00769772 -4.26221e-22)
(0.0521161 -0.00741063 2.21262e-22)
(0.0523641 -0.00713748 3.81689e-24)
(0.0526053 -0.00684639 -3.42412e-22)
(0.0528371 -0.00655881 2.26656e-22)
(0.0530692 -0.00625334 -1.15796e-22)
(0.0533123 -0.00591637 2.34194e-22)
(0.053555 -0.00558934 -4.77887e-22)
(0.0537875 -0.00524866 -4.93668e-22)
(0.0540164 -0.00490969 9.72069e-22)
(0.0542508 -0.00454116 1.01399e-21)
(0.0544895 -0.00417687 -3.05285e-21)
(0.0547178 -0.00380495 2.05028e-21)
(0.0549436 -0.00342252 2.03487e-23)
(0.0551682 -0.00302772 -5.2954e-21)
(0.0553924 -0.00261312 -2.14503e-21)
(0.0556221 -0.00217911 2.19502e-21)
(0.0558542 -0.00172561 0)
(0.0560851 -0.00126358 -2.25508e-21)
(0.0563124 -0.000803654 -2.30889e-21)
(0.0565448 -0.00031487 4.05809e-23)
(0.0567821 0.000194734 -2.35082e-21)
(0.0570158 0.000736161 2.48624e-21)
(0.0572517 0.00130542 -7.44008e-21)
(0.0574992 0.00189603 -5.13498e-21)
(0.0577648 0.00252392 -3.7237e-23)
(0.0580341 0.00318945 0)
(0.0583004 0.00389634 1.40847e-20)
(0.0585816 0.00465535 -5.75103e-21)
(0.058869 0.00542573 2.94175e-21)
(0.0591462 0.0062957 -6.2403e-21)
(0.0594263 0.00728553 6.64368e-21)
(0.0599188 0.00825359 1.38732e-20)
(0.0421829 -0.0126905 1.3629e-23)
(0.0424537 -0.0126893 -7.30587e-23)
(0.0427269 -0.0126792 7.65874e-23)
(0.0430029 -0.0126612 0)
(0.0432793 -0.012639 -4.23398e-22)
(0.0435604 -0.0126069 -9.2444e-23)
(0.0438416 -0.0125695 4.40937e-22)
(0.044122 -0.0125237 0)
(0.0444037 -0.0124705 1.11878e-23)
(0.0446862 -0.0124108 1.82599e-22)
(0.0449709 -0.0123443 -2.05002e-22)
(0.0452567 -0.0122702 1.4091e-23)
(0.0455429 -0.0121891 0)
(0.0458294 -0.012101 0)
(0.0461174 -0.0120023 -6.62308e-22)
(0.0464047 -0.0118993 1.60801e-21)
(0.0466934 -0.0117857 3.60481e-22)
(0.0469814 -0.011667 -1.16407e-21)
(0.0472696 -0.0115381 7.79777e-22)
(0.0475557 -0.0114032 -4.16991e-22)
(0.0478417 -0.0112595 4.85153e-22)
(0.0481259 -0.0111078 -9.28434e-22)
(0.0484088 -0.0109484 1.02922e-21)
(0.0486904 -0.0107811 -1.59639e-21)
(0.0489712 -0.0106056 1.08652e-21)
(0.0492508 -0.0104234 1.76762e-21)
(0.049529 -0.0102316 -1.20029e-21)
(0.0498032 -0.0100343 0)
(0.0500746 -0.00982797 0)
(0.050343 -0.00961334 -7.12639e-22)
(0.0506111 -0.00938855 0)
(0.0508807 -0.00915642 -7.80004e-22)
(0.0511472 -0.0089177 8.21979e-22)
(0.0514095 -0.00867417 -1.25288e-21)
(0.0516687 -0.00842124 9.50018e-24)
(0.0519251 -0.00815921 -4.31925e-22)
(0.0521793 -0.00788626 0)
(0.0524312 -0.00760452 -9.11342e-22)
(0.0526819 -0.00731781 6.9207e-22)
(0.0529295 -0.00702518 -5.79197e-22)
(0.0531736 -0.00672231 3.53666e-22)
(0.0534161 -0.00640687 -4.96389e-24)
(0.0536575 -0.00608316 1.3099e-22)
(0.0538973 -0.00575749 -1.21717e-22)
(0.0541346 -0.00542169 1.01064e-21)
(0.0543706 -0.00507402 -5.10856e-22)
(0.0546068 -0.00471281 -5.26991e-22)
(0.0548432 -0.00434738 1.03386e-21)
(0.0550766 -0.00396978 3.17937e-21)
(0.0553082 -0.00357817 7.78014e-24)
(0.055539 -0.00317332 3.24668e-21)
(0.0557696 -0.00275316 -1.11621e-21)
(0.0560025 -0.00232005 -3.38565e-21)
(0.0562383 -0.00187783 2.23608e-21)
(0.0564764 -0.00142438 0)
(0.0567165 -0.000951561 7.06866e-21)
(0.05696 -0.000458506 7.7118e-23)
(0.0572075 5.13469e-05 -2.39652e-21)
(0.0574582 0.000580809 -2.49243e-21)
(0.0577147 0.00113549 0)
(0.057981 0.0017266 2.52875e-21)
(0.0582602 0.00234955 7.95952e-21)
(0.05855 0.00299971 0)
(0.0588473 0.00368952 -5.68197e-21)
(0.059156 0.00442834 3.09876e-21)
(0.0594731 0.00521838 -6.174e-21)
(0.0598007 0.00607585 3.13043e-21)
(0.060116 0.00699917 -6.69693e-21)
(0.0605496 0.00792726 -7.03751e-21)
(0.0421986 -0.0131743 -1.49995e-23)
(0.0424786 -0.0131714 1.49523e-23)
(0.0427612 -0.0131593 3.88577e-23)
(0.0430463 -0.0131392 -2.91409e-22)
(0.0433342 -0.0131125 3.77945e-22)
(0.0436237 -0.0130786 4.81466e-22)
(0.0439154 -0.0130373 -6.15381e-22)
(0.0442092 -0.0129887 0)
(0.0445044 -0.0129325 9.90594e-24)
(0.0448003 -0.0128688 0)
(0.0450967 -0.0127978 2.32981e-22)
(0.0453932 -0.0127191 -2.45557e-22)
(0.0456896 -0.0126328 -1.4326e-21)
(0.0459856 -0.012539 1.14876e-21)
(0.0462811 -0.0124372 -3.1737e-22)
(0.0465769 -0.0123274 -1.06183e-21)
(0.0468726 -0.0122097 3.54206e-22)
(0.0471683 -0.0120838 3.90269e-22)
(0.0474635 -0.0119501 1.29917e-21)
(0.0477585 -0.011808 -8.69689e-22)
(0.0480524 -0.011658 -4.81512e-22)
(0.0483448 -0.0115001 1.02295e-21)
(0.0486359 -0.0113343 -4.90892e-22)
(0.0489255 -0.0111606 -5.61769e-22)
(0.0492136 -0.0109792 0)
(0.0494995 -0.0107901 6.18289e-22)
(0.0497825 -0.0105941 6.54132e-22)
(0.0500628 -0.0103904 -6.31163e-22)
(0.0503408 -0.0101786 0)
(0.0506167 -0.00995908 1.46225e-21)
(0.0508913 -0.00973106 -7.74288e-22)
(0.051164 -0.00949684 -1.99154e-23)
(0.0514338 -0.00925694 0)
(0.0517008 -0.00900979 4.28219e-22)
(0.0519658 -0.00875278 -1.33254e-21)
(0.0522284 -0.00848665 8.82712e-22)
(0.0524882 -0.00821214 0)
(0.0527458 -0.00792881 7.00837e-22)
(0.0530019 -0.00763709 -7.02134e-22)
(0.0532558 -0.00733744 -1.18611e-22)
(0.053507 -0.00702839 0)
(0.0537557 -0.00671019 -2.4607e-22)
(0.0540029 -0.00638285 -1.26283e-22)
(0.0542492 -0.00604659 1.25872e-22)
(0.0544939 -0.00570033 -7.59955e-22)
(0.0547368 -0.00534407 -5.21397e-22)
(0.0549784 -0.00497812 1.04195e-21)
(0.0552194 -0.00460352 -1.07629e-21)
(0.0554589 -0.00421911 1.08168e-21)
(0.0556972 -0.00382408 -1.07538e-21)
(0.0559354 -0.00341808 -1.09945e-21)
(0.0561746 -0.00299999 2.2486e-21)
(0.0564163 -0.00256945 0)
(0.0566614 -0.00212613 2.31257e-21)
(0.0569096 -0.00166836 -2.79923e-23)
(0.057161 -0.00119532 -2.41391e-21)
(0.0574171 -0.000706173 -2.46099e-21)
(0.0576791 -0.000199297 4.93835e-21)
(0.0579474 0.000329193 3.66494e-23)
(0.0582234 0.00088359 2.57867e-21)
(0.0585099 0.00146661 -5.28501e-21)
(0.0588103 0.0020776 -2.65823e-21)
(0.0591236 0.00272153 1.27608e-22)
(0.0594483 0.00340551 -2.82603e-21)
(0.0597867 0.00413601 -2.89668e-21)
(0.0601366 0.00491532 -9.32379e-21)
(0.0605077 0.00575743 0)
(0.0608585 0.00666727 -3.56186e-21)
(0.0613444 0.00762726 3.50377e-21)
(0.0422177 -0.0136897 0)
(0.0425098 -0.013685 -1.40344e-23)
(0.0428037 -0.0136706 -2.58909e-22)
(0.0430993 -0.0136482 2.1821e-22)
(0.0433971 -0.0136185 3.32178e-22)
(0.0436966 -0.0135812 -5.42381e-22)
(0.0439982 -0.0135363 1.38239e-22)
(0.0443019 -0.0134838 -1.73348e-22)
(0.0446075 -0.0134238 -1.87217e-22)
(0.0449144 -0.013356 -9.19807e-22)
(0.045222 -0.0132805 9.29657e-22)
(0.04553 -0.0131971 1.11922e-21)
(0.045838 -0.0131057 -2.21124e-22)
(0.0461457 -0.0130062 -1.26768e-21)
(0.046453 -0.0128985 1.00912e-21)
(0.0467597 -0.0127826 -3.76299e-22)
(0.0470657 -0.0126584 4.02007e-22)
(0.0473708 -0.012526 4.27881e-22)
(0.047675 -0.0123854 -1.35025e-21)
(0.0479781 -0.0122365 4.34344e-22)
(0.04828 -0.0120794 4.88186e-22)
(0.0485805 -0.0119142 0)
(0.0488796 -0.0117409 1.14692e-21)
(0.0491768 -0.0115597 -5.61202e-22)
(0.049472 -0.0113707 -1.23991e-21)
(0.0497649 -0.0111741 -1.32639e-21)
(0.0500555 -0.0109697 2.63651e-21)
(0.0503436 -0.0107575 -1.39351e-21)
(0.0506293 -0.0105374 0)
(0.0509127 -0.0103096 -1.52167e-21)
(0.0511936 -0.0100742 -2.49238e-23)
(0.0514722 -0.0098319 1.63403e-21)
(0.0517482 -0.0095827 -8.81598e-22)
(0.0520219 -0.00932473 2.23758e-21)
(0.0522931 -0.00905731 -4.3415e-22)
(0.0525615 -0.00878128 0)
(0.0528272 -0.00849711 0)
(0.0530903 -0.00820458 2.41073e-22)
(0.053351 -0.00790406 2.39723e-22)
(0.0536092 -0.00759588 1.23911e-22)
(0.0538647 -0.0072797 -3.9226e-24)
(0.0541179 -0.00695521 1.24978e-22)
(0.0543693 -0.00662217 0)
(0.0546191 -0.00628094 -3.89568e-24)
(0.0548672 -0.00593157 0)
(0.0551138 -0.00557374 5.28961e-22)
(0.0553595 -0.00520698 1.37156e-23)
(0.0556046 -0.00483119 -1.62446e-21)
(0.0558494 -0.00444594 0)
(0.0560941 -0.00405025 -1.12475e-21)
(0.0563396 -0.00364334 1.10956e-21)
(0.0565869 -0.00322455 -2.26767e-21)
(0.0568366 -0.00279349 0)
(0.0570899 -0.00235 -7.05266e-21)
(0.0573471 -0.00189361 -2.58214e-23)
(0.0576089 -0.00142323 2.37335e-21)
(0.0578765 -0.000937031 2.41626e-21)
(0.0581511 -0.000433286 0)
(0.0584338 9.03116e-05 0)
(0.0587261 0.000636478 -2.59947e-21)
(0.0590305 0.00120824 5.32667e-21)
(0.0593491 0.00180837 5.47345e-21)
(0.059683 0.00244075 0)
(0.0600325 0.00311043 -5.83949e-21)
(0.0604004 0.0038243 0)
(0.0607842 0.00458801 9.5857e-21)
(0.0611959 0.00541423 -3.22118e-21)
(0.0615917 0.00630783 -3.62329e-21)
(0.0621325 0.00726106 -3.84348e-21)
(0.0422431 -0.014232 0)
(0.0425487 -0.0142255 0)
(0.0428562 -0.0142087 -5.51352e-23)
(0.0431648 -0.0141833 3.62581e-22)
(0.043475 -0.0141503 -4.7043e-22)
(0.0437865 -0.0141093 1.24735e-22)
(0.0440993 -0.0140604 0)
(0.0444135 -0.0140034 1.75989e-22)
(0.0447292 -0.0139385 0)
(0.0450461 -0.0138656 4.95232e-22)
(0.0453641 -0.0137845 6.94818e-23)
(0.0456827 -0.0136951 -5.45633e-22)
(0.0460017 -0.0135974 0)
(0.0463206 -0.0134914 7.03159e-22)
(0.0466393 -0.0133769 -2.18732e-21)
(0.0469573 -0.013254 1.54288e-21)
(0.0472743 -0.0131226 -2.07479e-21)
(0.0475902 -0.0129827 4.25925e-22)
(0.0479047 -0.0128344 -4.80716e-22)
(0.0482176 -0.0126778 4.8684e-22)
(0.0485287 -0.0125128 5.39132e-22)
(0.0488381 -0.0123395 -1.63835e-21)
(0.0491454 -0.012158 -1.15927e-21)
(0.0494505 -0.0119685 0)
(0.0497533 -0.011771 1.2996e-21)
(0.0500536 -0.0115657 7.09368e-22)
(0.0503514 -0.0113526 -2.05001e-21)
(0.0506466 -0.0111317 7.16128e-22)
(0.050939 -0.0109033 -1.54656e-21)
(0.0512286 -0.0106674 2.33761e-21)
(0.0515154 -0.0104243 -8.38724e-22)
(0.0517996 -0.0101741 4.37244e-22)
(0.0520808 -0.00991733 0)
(0.0523598 -0.00965115 -4.54699e-22)
(0.0526356 -0.00937673 -4.62801e-22)
(0.0529084 -0.00909434 0)
(0.0531784 -0.00880434 4.88334e-22)
(0.0534456 -0.00850669 -7.39677e-22)
(0.0537103 -0.00820146 4.89917e-22)
(0.0539725 -0.00788865 -2.51801e-22)
(0.0542324 -0.00756804 -4.08671e-24)
(0.0544902 -0.00723934 -1.9546e-22)
(0.0547461 -0.00690245 6.4434e-23)
(0.0550006 -0.00655735 2.62249e-22)
(0.0552537 -0.00620392 -2.87729e-24)
(0.0555058 -0.00584181 1.61382e-21)
(0.0557571 -0.00547071 0)
(0.0560082 -0.00509048 1.0983e-21)
(0.0562593 -0.0047009 8.35421e-24)
(0.0565109 -0.00430147 -1.11563e-21)
(0.0567637 -0.00389179 0)
(0.0570184 -0.0034715 -1.17176e-21)
(0.0572759 -0.00304023 1.1561e-21)
(0.0575371 -0.00259754 2.36621e-21)
(0.0578027 -0.00214271 0)
(0.0580736 -0.00167465 -4.9117e-21)
(0.0583509 -0.00119202 4.95894e-21)
(0.0586359 -0.000693336 -5.04422e-21)
(0.0589302 -0.000176669 -3.76463e-23)
(0.0592357 0.000360459 0)
(0.0595546 0.000920866 -2.73866e-21)
(0.0598895 0.00150752 2.77112e-21)
(0.0602428 0.00212437 2.88254e-21)
(0.0606162 0.0027766 5.8822e-21)
(0.0610131 0.00347142 -9.23348e-21)
(0.0614318 0.00421511 6.39384e-21)
(0.0618861 0.00501995 -3.24615e-21)
(0.0623322 0.00589572 3.40228e-21)
(0.0629355 0.00682373 1.10504e-20)
(0.0422733 -0.014802 7.05794e-23)
(0.0425926 -0.0147936 1.16026e-22)
(0.0429143 -0.0147744 -1.96334e-22)
(0.0432372 -0.0147461 0)
(0.0435619 -0.0147097 1.11469e-22)
(0.0438875 -0.0146649 0)
(0.044214 -0.0146116 -3.72754e-22)
(0.0445413 -0.0145499 -5.63258e-23)
(0.0448694 -0.0144799 6.61672e-22)
(0.0451981 -0.0144013 -2.63682e-22)
(0.0455272 -0.0143142 -2.72812e-22)
(0.0458566 -0.0142184 -3.18604e-22)
(0.0461861 -0.0141139 0)
(0.0465155 -0.0140007 0)
(0.0468444 -0.0138788 3.79572e-22)
(0.0471727 -0.0137483 4.06336e-22)
(0.0475 -0.0136091 -9.14238e-22)
(0.0478261 -0.0134612 9.13704e-22)
(0.0481506 -0.0133047 9.97128e-22)
(0.0484732 -0.0131397 -1.07792e-21)
(0.0487939 -0.0129663 2.18888e-21)
(0.0491123 -0.0127844 3.09145e-23)
(0.0494284 -0.0125944 -1.21542e-21)
(0.0497418 -0.0123961 -6.50936e-22)
(0.0500526 -0.0121899 -1.36268e-21)
(0.0503605 -0.0119759 1.36761e-21)
(0.0506655 -0.0117541 1.48423e-21)
(0.0509674 -0.0115247 -1.49148e-21)
(0.0512663 -0.0112879 0)
(0.051562 -0.0110439 0)
(0.0518547 -0.0107928 2.1597e-21)
(0.0521444 -0.0105349 4.18567e-23)
(0.0524306 -0.0102703 -9.16864e-22)
(0.0527145 -0.0099959 -9.63419e-22)
(0.0529951 -0.00971382 9.49511e-22)
(0.0532726 -0.00942394 0)
(0.0535473 -0.00912651 -4.91268e-22)
(0.0538191 -0.00882155 -7.64394e-22)
(0.0540884 -0.00850905 5.02895e-22)
(0.0543553 -0.00818898 -2.39611e-24)
(0.0546199 -0.00786128 -4.15678e-23)
(0.0548824 -0.00752587 1.96216e-22)
(0.0551431 -0.00718267 1.34624e-22)
(0.0554024 -0.00683164 2.73301e-22)
(0.0556604 -0.0064727 -1.36373e-21)
(0.0559175 -0.0061057 -3.00341e-24)
(0.056174 -0.00573049 0)
(0.0564303 -0.00534688 -1.13131e-21)
(0.056687 -0.00495466 3.42422e-21)
(0.0569444 -0.00455344 -2.28885e-21)
(0.0572031 -0.00414284 -1.17534e-21)
(0.057464 -0.00372244 -1.7718e-23)
(0.0577277 -0.00329181 -1.21433e-21)
(0.057995 -0.00285047 -6.10137e-23)
(0.0582669 -0.00239784 2.40093e-21)
(0.0585443 -0.00193316 -2.46409e-21)
(0.0588284 -0.00145541 -2.53579e-21)
(0.059121 -0.00096337 5.07986e-21)
(0.0594238 -0.000455425 4.22829e-23)
(0.0597393 7.04676e-05 2.68103e-21)
(0.0600703 0.000616828 -2.6448e-21)
(0.06042 0.00118674 2.76945e-21)
(0.0607916 0.00178432 -5.70511e-21)
(0.0611882 0.00241471 -3.02043e-21)
(0.0616144 0.0030853 5.96133e-21)
(0.0620693 0.00380291 -3.24754e-21)
(0.0625683 0.00458042 -1.01665e-20)
(0.0630658 0.00542987 -3.68281e-21)
(0.0637351 0.00632471 0)
(0.0423069 -0.0154013 0)
(0.0426403 -0.0153911 5.0683e-23)
(0.0429762 -0.0153694 -1.3723e-23)
(0.0433137 -0.0153381 0)
(0.0436531 -0.0152982 0)
(0.0439938 -0.0152495 1.72e-22)
(0.0443353 -0.0151918 -6.13338e-22)
(0.0446775 -0.0151253 8.79606e-22)
(0.0450202 -0.0150499 -4.47692e-22)
(0.045363 -0.0149656 2.67462e-22)
(0.0457057 -0.0148722 0)
(0.046048 -0.0147698 3.23082e-22)
(0.0463898 -0.0146582 -3.73218e-22)
(0.0467308 -0.0145376 0)
(0.0470709 -0.0144079 0)
(0.0474099 -0.0142692 4.60079e-22)
(0.0477475 -0.0141216 5.65836e-23)
(0.0480836 -0.0139651 -9.72536e-22)
(0.0484178 -0.0137997 -1.05937e-21)
(0.04875 -0.0136256 1.08489e-21)
(0.0490798 -0.0134429 5.7269e-22)
(0.0494072 -0.0132518 2.48255e-21)
(0.0497318 -0.0130523 2.94982e-23)
(0.0500536 -0.0128446 -7.11494e-22)
(0.0503723 -0.0126288 1.37448e-21)
(0.0506879 -0.0124052 -7.45294e-22)
(0.0510001 -0.012174 1.49691e-21)
(0.051309 -0.0119352 0)
(0.0516145 -0.0116891 0)
(0.0519165 -0.011436 0)
(0.0522152 -0.0111759 -4.41457e-22)
(0.0525105 -0.0109091 -9.33427e-22)
(0.0528022 -0.0106351 9.47652e-22)
(0.0530911 -0.0103518 9.92702e-22)
(0.0533767 -0.0100608 -9.78591e-22)
(0.053659 -0.00976255 0)
(0.0539383 -0.00945698 5.17219e-22)
(0.0542148 -0.00914426 -2.54207e-22)
(0.0544885 -0.00882439 0)
(0.0547597 -0.00849741 2.64615e-22)
(0.0550286 -0.00816331 -5.04244e-23)
(0.0552955 -0.00782202 3.33847e-23)
(0.0555606 -0.00747349 -1.35522e-22)
(0.0558242 -0.00711763 0)
(0.0560867 -0.00675433 -5.6347e-22)
(0.0563483 -0.00638344 5.55848e-22)
(0.0566094 -0.00600478 0)
(0.0568703 -0.00561814 -1.90839e-23)
(0.0571316 -0.00522326 -7.6876e-24)
(0.0573936 -0.00481988 1.1624e-21)
(0.0576569 -0.00440771 0)
(0.057922 -0.00398646 -6.74087e-24)
(0.0581898 -0.00355586 -1.19918e-21)
(0.058461 -0.00311561 -3.67423e-21)
(0.0587367 -0.00266535 -2.98906e-23)
(0.059018 -0.00220455 2.4839e-21)
(0.0593065 -0.00173252 0)
(0.0596041 -0.00124831 0)
(0.0599132 -0.000750671 2.57864e-21)
(0.0602366 -0.000237923 0)
(0.0605779 0.000292176 0)
(0.0609408 0.00084256 8.07231e-23)
(0.0613298 0.00141726 -2.77352e-21)
(0.061749 0.00202137 -5.9011e-21)
(0.0622042 0.00266243 5.96913e-21)
(0.0626954 0.00334784 1.06098e-22)
(0.0632401 0.00409073 3.25212e-21)
(0.0637917 0.00490709 3.42253e-21)
(0.0645309 0.00576284 0)
(0.0423441 -0.0160321 0)
(0.0426927 -0.0160198 -5.14608e-23)
(0.0430435 -0.0159952 2.96764e-22)
(0.0433957 -0.0159605 -8.00198e-23)
(0.04375 -0.0159168 0)
(0.0441056 -0.0158638 -5.72846e-22)
(0.0444623 -0.0158014 1.05854e-21)
(0.0448197 -0.0157297 6.18376e-23)
(0.0451777 -0.0156486 -1.35547e-21)
(0.0455359 -0.0155582 2.59094e-22)
(0.0458936 -0.0154582 -3.45419e-22)
(0.0462507 -0.0153488 -3.74898e-22)
(0.0466068 -0.0152298 1.18853e-21)
(0.0469616 -0.0151013 -1.67575e-21)
(0.0473148 -0.0149633 8.65748e-22)
(0.0476664 -0.014816 -5.18168e-22)
(0.048016 -0.0146593 2.01932e-21)
(0.0483634 -0.0144935 -4.89329e-22)
(0.0487084 -0.0143186 6.03834e-22)
(0.0490508 -0.0141347 -5.48966e-22)
(0.0493904 -0.013942 5.67552e-23)
(0.0497271 -0.0137407 -3.89262e-21)
(0.0500605 -0.0135309 -7.20443e-22)
(0.0503907 -0.0133129 -5.62147e-23)
(0.0507174 -0.0130868 2.1996e-21)
(0.0510406 -0.0128528 -7.54292e-22)
(0.05136 -0.0126112 1.62669e-21)
(0.0516758 -0.0123622 -2.48053e-21)
(0.0519877 -0.0121061 0)
(0.0522959 -0.011843 -9.12383e-22)
(0.0526004 -0.0115732 9.1841e-22)
(0.052901 -0.011297 1.4158e-23)
(0.0531982 -0.0110127 -5.04016e-22)
(0.0534918 -0.0107202 -5.11217e-22)
(0.053782 -0.0104203 1.55481e-21)
(0.0540688 -0.0101135 -1.02236e-21)
(0.0543523 -0.00979981 7.96536e-22)
(0.0546329 -0.00947937 -1.06122e-21)
(0.0549106 -0.0091522 5.29908e-22)
(0.0551857 -0.00881831 -1.34319e-22)
(0.0554584 -0.00847768 0)
(0.0557291 -0.00813024 1.39885e-22)
(0.055998 -0.00777591 -1.37993e-22)
(0.0562652 -0.00741462 -2.84873e-22)
(0.0565313 -0.00704626 8.55724e-22)
(0.0567963 -0.0066707 -5.64372e-22)
(0.0570607 -0.00628779 -5.71815e-22)
(0.0573248 -0.00589739 0)
(0.0575889 -0.00549932 -2.36928e-21)
(0.0578536 -0.00509344 2.37089e-21)
(0.0581193 -0.00467957 -1.19167e-21)
(0.0583867 -0.00425758 1.17609e-21)
(0.0586565 -0.00382732 1.1912e-21)
(0.0589295 -0.00338864 2.43861e-21)
(0.0592071 -0.00294137 2.47546e-21)
(0.0594905 -0.00248522 0)
(0.0597816 -0.0020198 -2.51895e-21)
(0.0600825 -0.00154454 0)
(0.0603962 -0.00105859 2.63566e-23)
(0.0607259 -0.00056071 -2.65291e-21)
(0.0610757 -4.90992e-05 2.63402e-21)
(0.0614501 0.000478801 2.7547e-21)
(0.0618547 0.00102674 -2.76731e-21)
(0.0622944 0.00159959 -4.75016e-23)
(0.0627768 0.00220493 -1.07753e-22)
(0.063303 0.00285043 9.42526e-21)
(0.0638938 0.00354973 3.25285e-21)
(0.0645008 0.004324 3.67183e-21)
(0.0653146 0.00511967 -3.59971e-21)
(0.0423854 -0.016697 0)
(0.0427504 -0.0166821 0)
(0.0431175 -0.0166543 2.55416e-22)
(0.0434856 -0.0166158 -3.88068e-22)
(0.0438555 -0.0165677 -1.89135e-22)
(0.0442266 -0.0165098 0)
(0.0445985 -0.016442 0)
(0.0449712 -0.0163644 2.85156e-22)
(0.0453444 -0.016277 -6.36126e-22)
(0.0457177 -0.0161798 -9.16157e-23)
(0.0460907 -0.0160726 1.80278e-21)
(0.0464629 -0.0159554 -3.75259e-22)
(0.0468339 -0.0158283 4.38135e-22)
(0.0472034 -0.0156912 -8.75097e-22)
(0.047571 -0.0155444 4.99067e-22)
(0.0479365 -0.0153878 0)
(0.0482995 -0.0152215 0)
(0.0486597 -0.0150457 2.71574e-23)
(0.0490169 -0.0148606 -1.78574e-21)
(0.0493709 -0.0146663 6.13496e-22)
(0.0497215 -0.0144629 -6.7484e-22)
(0.0500685 -0.0142508 6.71914e-22)
(0.0504116 -0.01403 7.2779e-22)
(0.0507509 -0.013801 -7.00942e-22)
(0.0510861 -0.0135638 -7.61554e-22)
(0.0514172 -0.0133189 0)
(0.0517441 -0.0130663 0)
(0.0520668 -0.0128065 1.2994e-21)
(0.0523853 -0.0125396 0)
(0.0526995 -0.012266 9.51787e-22)
(0.0530095 -0.0119859 -9.57905e-22)
(0.0533152 -0.0116997 -4.9684e-22)
(0.0536175 -0.0114047 5.05952e-22)
(0.0539156 -0.0111024 1.04064e-21)
(0.0542099 -0.0107932 -5.20271e-22)
(0.0545006 -0.0104773 -5.39728e-22)
(0.0547878 -0.010155 5.38492e-22)
(0.0550718 -0.00982634 0)
(0.0553528 -0.00949128 0)
(0.055631 -0.00914988 1.40262e-22)
(0.0559067 -0.00880212 0)
(0.0561801 -0.00844796 0)
(0.0564515 -0.00808736 -4.32232e-22)
(0.0567211 -0.00772024 5.74425e-22)
(0.0569894 -0.00734653 -2.91979e-22)
(0.0572564 -0.00696613 5.80744e-22)
(0.0575226 -0.00657894 0)
(0.0577882 -0.00618484 1.79444e-21)
(0.0580538 -0.00578373 6.77436e-24)
(0.0583197 -0.00537552 0)
(0.0585865 -0.00496013 -2.42387e-21)
(0.0588548 -0.00453752 9.54559e-24)
(0.0591255 -0.00410769 -2.44418e-21)
(0.0593994 -0.00367066 -1.23828e-21)
(0.0596779 -0.00322647 -2.51951e-21)
(0.0599624 -0.00277514 2.48682e-21)
(0.060255 -0.00231665 2.53989e-21)
(0.060558 -0.00185086 0)
(0.0608745 -0.00137745 -2.6135e-21)
(0.0612083 -0.000895771 -5.22629e-23)
(0.061564 -0.000404625 0)
(0.0619468 9.79236e-05 0)
(0.0623631 0.000615074 2.79113e-21)
(0.0628196 0.00115121 0)
(0.0633253 0.00171381 0)
(0.0638829 0.00231026 -2.93403e-21)
(0.0645181 0.00295574 -3.24477e-21)
(0.0651753 0.00366947 -3.36515e-21)
(0.0660733 0.00440574 0)
(0.0424315 -0.0173989 0)
(0.0428143 -0.0173811 0)
(0.0431989 -0.0173496 0)
(0.0435843 -0.0173067 -1.84276e-22)
(0.0439711 -0.0172537 -2.51164e-22)
(0.0443588 -0.0171903 -6.89054e-23)
(0.044747 -0.0171164 5.06622e-22)
(0.0451356 -0.0170322 -2.89137e-22)
(0.0455244 -0.0169377 3.52318e-22)
(0.0459131 -0.0168328 7.37269e-22)
(0.0463012 -0.0167175 0)
(0.0466884 -0.0165917 0)
(0.0470741 -0.0164556 -2.9207e-23)
(0.0474582 -0.0163091 1.46111e-21)
(0.0478401 -0.0161524 -2.12074e-21)
(0.0482195 -0.0159856 -6.18831e-23)
(0.0485961 -0.0158089 1.13243e-21)
(0.0489695 -0.0156223 5.94601e-22)
(0.0493395 -0.0154261 -3.59577e-23)
(0.0497057 -0.0152204 0)
(0.0500678 -0.0150056 1.4018e-21)
(0.0504258 -0.0147818 0)
(0.0507793 -0.0145494 1.5201e-21)
(0.0511282 -0.0143085 -2.37813e-21)
(0.0514725 -0.0140595 2.44754e-21)
(0.051812 -0.0138027 8.68239e-22)
(0.0521467 -0.0135385 -1.34467e-21)
(0.0524766 -0.013267 1.37742e-21)
(0.0528016 -0.0129888 -9.31502e-22)
(0.0531219 -0.0127039 0)
(0.0534374 -0.0124129 -1.02858e-21)
(0.053748 -0.0121155 -5.59962e-22)
(0.0540549 -0.0118094 1.0454e-21)
(0.0543571 -0.0114966 -1.07345e-21)
(0.0546551 -0.0111774 5.49279e-22)
(0.0549491 -0.010852 -5.41902e-22)
(0.0552393 -0.0105205 -2.73923e-22)
(0.0555259 -0.010183 2.82802e-22)
(0.0558093 -0.00983965 1.42744e-22)
(0.0560896 -0.00949038 -4.22561e-22)
(0.0563672 -0.00913522 -3.62175e-23)
(0.0566423 -0.00877415 0)
(0.0569152 -0.00840714 1.44668e-22)
(0.0571863 -0.00803412 -2.9162e-22)
(0.0574557 -0.00765503 2.93831e-22)
(0.0577238 -0.00726978 0)
(0.057991 -0.00687828 0)
(0.0582576 -0.00648046 6.17999e-22)
(0.058524 -0.00607624 -1.20257e-21)
(0.0587907 -0.0056656 -2.45915e-21)
(0.0590583 -0.00524854 4.91422e-21)
(0.0593273 -0.00482512 -1.23812e-21)
(0.0595986 -0.0043955 1.23078e-21)
(0.0598731 -0.00395987 1.24815e-21)
(0.060152 -0.00351854 -2.53216e-21)
(0.0604369 -0.00307185 2.49968e-21)
(0.0607296 -0.00262021 0)
(0.0610328 -0.00216402 -2.53254e-21)
(0.0613495 -0.00170361 -4.94705e-23)
(0.0616839 -0.00123908 2.55748e-21)
(0.0620411 -0.000770115 0)
(0.0624271 -0.000295673 0)
(0.0628495 0.000186549 0)
(0.0633166 0.000680158 5.49139e-21)
(0.0638394 0.00119214 2.89688e-21)
(0.0644239 0.00172975 3.20289e-21)
(0.0650974 0.00230841 -6.18363e-21)
(0.0658047 0.00295087 1.82571e-22)
(0.0667859 0.00359849 3.46225e-21)
(0.0424828 -0.0181406 0)
(0.0428846 -0.0181196 -2.90963e-22)
(0.043288 -0.0180841 3.79115e-22)
(0.043692 -0.0180364 -3.61173e-22)
(0.0440973 -0.0179779 6.90866e-22)
(0.044503 -0.0179084 2.90076e-22)
(0.0449089 -0.0178278 3.24978e-22)
(0.0453148 -0.0177363 0)
(0.0457205 -0.0176339 -7.50573e-22)
(0.0461256 -0.0175205 -8.10978e-22)
(0.0465296 -0.0173961 8.44738e-22)
(0.0469322 -0.0172608 -4.92707e-22)
(0.0473329 -0.0171146 5.54519e-22)
(0.0477315 -0.0169576 -4.51306e-22)
(0.0481276 -0.01679 -2.30309e-21)
(0.0485208 -0.0166119 -6.33329e-23)
(0.0489107 -0.0164234 -6.23266e-23)
(0.049297 -0.0162249 1.28295e-21)
(0.0496793 -0.0160164 6.67971e-22)
(0.0500574 -0.0157983 1.46247e-21)
(0.0504309 -0.0155709 -1.42236e-21)
(0.0507996 -0.0153343 0)
(0.0511633 -0.015089 3.96952e-23)
(0.0515218 -0.0148353 0)
(0.051875 -0.0145735 -8.47055e-22)
(0.0522228 -0.0143039 -8.77737e-22)
(0.0525652 -0.0140269 4.54473e-22)
(0.052902 -0.013743 0)
(0.0532334 -0.0134524 5.05071e-22)
(0.0535594 -0.0131555 1.03823e-21)
(0.05388 -0.0128527 -1.04454e-21)
(0.0541956 -0.0125428 5.32801e-22)
(0.0545063 -0.0122254 -1.10851e-21)
(0.0548121 -0.0119015 2.20005e-21)
(0.0551132 -0.0115718 -5.52746e-22)
(0.0554099 -0.0112363 0)
(0.0557024 -0.0108952 -2.88252e-22)
(0.0559911 -0.0105487 6.34582e-24)
(0.0562763 -0.0101967 4.35852e-22)
(0.0565581 -0.00983941 -3.62437e-22)
(0.0568371 -0.00947671 7.20593e-23)
(0.0571134 -0.00910863 -2.24159e-22)
(0.0573875 -0.00873513 1.47562e-22)
(0.0576596 -0.00835615 0)
(0.05793 -0.00797162 0)
(0.0581992 -0.00758146 0)
(0.0584674 -0.0071856 6.14343e-22)
(0.058735 -0.00678397 6.17245e-22)
(0.0590024 -0.00637653 0)
(0.0592702 -0.00596327 1.22958e-21)
(0.0595386 -0.00554429 1.24273e-21)
(0.0598084 -0.00511974 1.25354e-21)
(0.0600802 -0.0046899 0)
(0.0603548 -0.00425516 0)
(0.0606332 -0.00381608 -2.54331e-21)
(0.0609169 -0.00337339 2.51114e-21)
(0.0612076 -0.00292799 0)
(0.0615079 -0.00248093 2.55457e-21)
(0.0618209 -0.00203334 -2.5648e-21)
(0.062151 -0.0015863 -2.51392e-21)
(0.0625037 -0.00114065 2.58116e-21)
(0.062886 -0.000696618 -2.54634e-21)
(0.0633069 -0.000253229 0)
(0.0637767 0.000191995 -2.70475e-21)
(0.0643088 0.000644937 -1.11648e-23)
(0.0649141 0.00111366 -5.39948e-21)
(0.0656174 0.00161134 -5.85822e-21)
(0.0663754 0.00217511 6.24633e-21)
(0.067397 0.00270191 -3.49079e-21)
(0.0425389 -0.0189249 -6.81379e-23)
(0.0429612 -0.0189003 0)
(0.0433849 -0.0188603 -9.13889e-23)
(0.0438089 -0.0188073 6.2505e-22)
(0.044234 -0.0187428 -1.21017e-21)
(0.0446593 -0.0186667 2.91453e-22)
(0.0450844 -0.0185787 -3.2931e-22)
(0.0455091 -0.0184792 8.03188e-22)
(0.0459332 -0.018368 -4.00513e-22)
(0.0463561 -0.0182453 -4.32627e-22)
(0.0467775 -0.018111 -5.10002e-22)
(0.0471968 -0.0179651 1.57221e-21)
(0.0476136 -0.0178078 -4.93161e-22)
(0.0480277 -0.0176393 1.81002e-21)
(0.0484387 -0.0174595 6.60504e-22)
(0.048846 -0.0172689 6.4624e-23)
(0.0492495 -0.0170676 -1.32318e-21)
(0.0496487 -0.0168558 0)
(0.0500433 -0.0166338 0)
(0.050433 -0.0164019 -7.92113e-22)
(0.0508175 -0.0161605 -7.76342e-22)
(0.0511966 -0.0159099 -1.68234e-21)
(0.05157 -0.0156504 8.48324e-22)
(0.0519375 -0.0153825 1.79966e-21)
(0.0522991 -0.0151066 -1.80342e-21)
(0.0526545 -0.014823 4.8407e-22)
(0.0530039 -0.0145323 4.99116e-22)
(0.0533471 -0.0142347 0)
(0.0536842 -0.0139308 -5.10227e-22)
(0.0540153 -0.0136209 -1.08583e-21)
(0.0543402 -0.0133055 -2.74661e-23)
(0.05466 -0.0129821 1.1069e-21)
(0.0549741 -0.0126526 -5.75141e-22)
(0.0552828 -0.0123171 0)
(0.0555865 -0.0119763 2.92325e-22)
(0.0558853 -0.0116304 -2.94458e-22)
(0.0561798 -0.0112793 2.89495e-22)
(0.05647 -0.0109234 -5.90231e-22)
(0.0567566 -0.0105626 0)
(0.0570397 -0.010197 -7.55377e-23)
(0.0573198 -0.00982667 7.52796e-23)
(0.0575972 -0.00945146 -1.16005e-22)
(0.0578724 -0.0090714 4.58464e-22)
(0.0581455 -0.00868639 -9.22036e-22)
(0.0584171 -0.00829637 6.10591e-22)
(0.0586873 -0.00790125 6.24557e-22)
(0.0589567 -0.00750093 -6.0908e-22)
(0.0592254 -0.00709534 1.26685e-21)
(0.059494 -0.00668444 -1.24413e-21)
(0.0597627 -0.00626827 -3.15516e-21)
(0.0600318 -0.00584693 -5.73983e-24)
(0.0603019 -0.00542067 -1.26302e-21)
(0.0605734 -0.00498987 0)
(0.0608468 -0.00455513 0)
(0.0611231 -0.00411727 -2.55452e-21)
(0.0614033 -0.00367743 3.80795e-21)
(0.0616891 -0.00323704 -2.51923e-21)
(0.0619827 -0.0027979 0)
(0.0622873 -0.00236209 2.48939e-21)
(0.0626072 -0.00193192 5.05212e-21)
(0.0629485 -0.00150971 -2.54283e-21)
(0.0633189 -0.00109742 -2.77249e-23)
(0.0637289 -0.000696022 2.46531e-21)
(0.0641916 -0.000304796 1.36846e-22)
(0.0647237 8.04174e-05 -5.06105e-21)
(0.0653435 0.000469195 5.23653e-21)
(0.0660691 0.000871828 2.82859e-21)
(0.0668777 0.00135366 0)
(0.0678324 0.00170887 0)
(0.0426003 -0.019755 6.90789e-23)
(0.0430443 -0.0197264 5.50376e-22)
(0.0434897 -0.0196813 -4.36983e-22)
(0.0439351 -0.0196223 0)
(0.0443814 -0.0195513 -1.50061e-22)
(0.0448277 -0.0194678 -7.57312e-22)
(0.0452734 -0.0193717 5.41854e-22)
(0.0457184 -0.0192633 -1.13424e-21)
(0.0461623 -0.0191427 8.99894e-22)
(0.0466047 -0.0190097 0)
(0.0470448 -0.0188645 2.32742e-22)
(0.0474823 -0.0187071 0)
(0.0479168 -0.0185376 6.65659e-22)
(0.0483477 -0.0183563 -1.86063e-21)
(0.0487747 -0.0181633 0)
(0.0491974 -0.0179589 0)
(0.0496154 -0.0177434 0)
(0.0500283 -0.017517 -1.16441e-21)
(0.0504358 -0.0172801 1.55908e-21)
(0.0508375 -0.0170331 8.00884e-22)
(0.0512332 -0.0167763 0)
(0.0516227 -0.0165102 0)
(0.0520056 -0.0162353 0)
(0.0523819 -0.0159519 -2.39354e-21)
(0.0527514 -0.0156605 2.89769e-21)
(0.0531141 -0.0153617 -1.47551e-21)
(0.0534699 -0.0150558 -1.0311e-21)
(0.0538188 -0.0147435 1.07333e-21)
(0.054161 -0.0144252 -1.07805e-21)
(0.0544965 -0.0141012 5.72742e-22)
(0.0548252 -0.0137715 -1.16296e-21)
(0.0551483 -0.0134345 5.57492e-22)
(0.0554651 -0.0130919 1.17197e-21)
(0.055776 -0.0127442 5.99264e-22)
(0.0560815 -0.0123917 -2.93356e-22)