/*--------------------------------*- C++ -*----------------------------------*\
| =========                 |                                                 |
| \\      /  F ield         | OpenFOAM: The Open Source CFD Toolbox           |
|  \\    /   O peration     | Version:  2312                                  |
|   \\  /    A nd           | Website:  www.openfoam.com                      |
|    \\/     M anipulation  |                                                 |
\*---------------------------------------------------------------------------*/
FoamFile
{
    version     2.0;
    format      ascii;
    arch        "LSB;label=32;scalar=64";
    class       volScalarField;
    location    "1500";
    object      nut;
}
// * * * * * * * * * * * * * * * * * * * * * * * * * * * * * * * * * * * * * //

dimensions      [0 2 -1 0 0 0 0];

internalField   nonuniform List<scalar> 
76025
(
6.0628e-06
6.06112e-06
6.05913e-06
6.06257e-06
6.06781e-06
6.07445e-06
6.08049e-06
6.08635e-06
6.09255e-06
6.09876e-06
6.10522e-06
6.11096e-06
6.11459e-06
6.11718e-06
6.12019e-06
6.12253e-06
6.12577e-06
6.12889e-06
6.1325e-06
6.13573e-06
6.13908e-06
6.13895e-06
6.1398e-06
6.14188e-06
6.14433e-06
6.14853e-06
6.15523e-06
6.16372e-06
6.17738e-06
6.19023e-06
6.20469e-06
6.21833e-06
6.23251e-06
6.2462e-06
6.25871e-06
6.26875e-06
6.27688e-06
6.2828e-06
6.28574e-06
6.28473e-06
6.28028e-06
6.27443e-06
6.26685e-06
6.26233e-06
6.25434e-06
6.25e-06
6.25989e-06
6.2762e-06
6.29541e-06
6.31303e-06
6.3248e-06
6.32742e-06
6.31961e-06
6.30308e-06
6.28116e-06
6.26055e-06
6.24113e-06
6.22251e-06
6.20074e-06
6.17108e-06
6.12597e-06
6.04399e-06
5.8995e-06
5.84861e-06
6.0859e-06
5.57959e-06
3.06892e-06
2.57963e-06
2.14513e-05
6.0686e-06
6.06753e-06
6.06251e-06
6.05844e-06
6.0565e-06
6.05699e-06
6.06143e-06
6.06929e-06
6.07737e-06
6.08508e-06
6.09275e-06
6.10057e-06
6.10803e-06
6.11445e-06
6.11975e-06
6.12424e-06
6.12819e-06
6.1317e-06
6.13509e-06
6.13853e-06
6.14161e-06
6.14297e-06
6.14164e-06
6.13872e-06
6.13552e-06
6.13289e-06
6.13163e-06
6.13168e-06
6.13325e-06
6.13589e-06
6.13897e-06
6.14223e-06
6.14537e-06
6.14776e-06
6.14938e-06
6.15068e-06
6.15209e-06
6.15402e-06
6.15681e-06
6.1601e-06
6.16454e-06
6.17613e-06
6.19281e-06
6.21159e-06
6.23183e-06
6.25269e-06
6.27259e-06
6.28954e-06
6.30119e-06
6.30519e-06
6.30012e-06
6.28624e-06
6.26581e-06
6.24256e-06
6.22037e-06
6.20077e-06
6.18243e-06
6.16131e-06
6.13355e-06
6.09561e-06
6.03395e-06
5.91963e-06
5.76973e-06
5.80945e-06
6.03483e-06
5.0255e-06
2.40874e-06
2.61432e-06
2.56212e-05
6.05009e-06
6.0591e-06
6.06386e-06
6.06376e-06
6.05984e-06
6.05566e-06
6.053e-06
6.05311e-06
6.05602e-06
6.06188e-06
6.07014e-06
6.07911e-06
6.0883e-06
6.09732e-06
6.10577e-06
6.11347e-06
6.12031e-06
6.12634e-06
6.13167e-06
6.13652e-06
6.14105e-06
6.14503e-06
6.14805e-06
6.14991e-06
6.1506e-06
6.15023e-06
6.14901e-06
6.14663e-06
6.14312e-06
6.14038e-06
6.13813e-06
6.13647e-06
6.13527e-06
6.13427e-06
6.13505e-06
6.13867e-06
6.14723e-06
6.15815e-06
6.17035e-06
6.18354e-06
6.19747e-06
6.21214e-06
6.22742e-06
6.24275e-06
6.25721e-06
6.26947e-06
6.27781e-06
6.28039e-06
6.27574e-06
6.26336e-06
6.24422e-06
6.22084e-06
6.19667e-06
6.17479e-06
6.15636e-06
6.13955e-06
6.12004e-06
6.09349e-06
6.05741e-06
6.00569e-06
5.91792e-06
5.77464e-06
5.65454e-06
5.79057e-06
5.85464e-06
4.28997e-06
1.97016e-06
3.20823e-06
3.03538e-05
6.01694e-06
6.02706e-06
6.03637e-06
6.04526e-06
6.0524e-06
6.05548e-06
6.05457e-06
6.05249e-06
6.05105e-06
6.05128e-06
6.05361e-06
6.05781e-06
6.06389e-06
6.07228e-06
6.08173e-06
6.09125e-06
6.10043e-06
6.10906e-06
6.11703e-06
6.12434e-06
6.13109e-06
6.13736e-06
6.14314e-06
6.14843e-06
6.15313e-06
6.15715e-06
6.16047e-06
6.16314e-06
6.16525e-06
6.16709e-06
6.16892e-06
6.17084e-06
6.17308e-06
6.17627e-06
6.18049e-06
6.18564e-06
6.19182e-06
6.199e-06
6.20708e-06
6.21589e-06
6.22516e-06
6.23445e-06
6.24308e-06
6.25006e-06
6.25408e-06
6.25368e-06
6.24757e-06
6.23502e-06
6.21637e-06
6.19322e-06
6.16824e-06
6.14449e-06
6.12424e-06
6.10778e-06
6.09278e-06
6.0747e-06
6.04889e-06
6.0131e-06
5.96547e-06
5.8942e-06
5.77504e-06
5.61738e-06
5.58131e-06
5.77011e-06
5.48995e-06
3.42252e-06
1.67536e-06
4.34201e-06
3.65849e-05
5.98603e-06
5.99146e-06
5.99885e-06
6.00799e-06
6.01796e-06
6.02671e-06
6.03333e-06
6.0385e-06
6.04216e-06
6.04458e-06
6.04659e-06
6.04875e-06
6.05156e-06
6.05546e-06
6.06061e-06
6.0673e-06
6.07554e-06
6.08454e-06
6.09362e-06
6.10247e-06
6.11091e-06
6.11893e-06
6.12651e-06
6.13368e-06
6.14047e-06
6.14685e-06
6.1528e-06
6.15831e-06
6.16341e-06
6.16817e-06
6.17267e-06
6.17682e-06
6.18076e-06
6.18491e-06
6.18946e-06
6.1943e-06
6.1994e-06
6.2047e-06
6.21004e-06
6.2151e-06
6.21936e-06
6.22204e-06
6.22214e-06
6.21854e-06
6.21022e-06
6.19656e-06
6.17772e-06
6.1548e-06
6.12986e-06
6.10551e-06
6.08415e-06
6.06706e-06
6.05356e-06
6.04071e-06
6.02393e-06
5.99861e-06
5.96251e-06
5.91565e-06
5.85288e-06
5.75416e-06
5.60433e-06
5.47019e-06
5.53462e-06
5.67038e-06
4.83144e-06
2.5486e-06
1.61098e-06
6.61953e-06
4.48193e-05
5.96492e-06
5.96443e-06
5.96623e-06
5.97035e-06
5.97668e-06
5.98433e-06
5.99252e-06
6.00093e-06
6.009e-06
6.01603e-06
6.02176e-06
6.02688e-06
6.03196e-06
6.03707e-06
6.04227e-06
6.04775e-06
6.05368e-06
6.06022e-06
6.06753e-06
6.07553e-06
6.0839e-06
6.0923e-06
6.10054e-06
6.10851e-06
6.11613e-06
6.12339e-06
6.13025e-06
6.13668e-06
6.14266e-06
6.14817e-06
6.15322e-06
6.15753e-06
6.16135e-06
6.16515e-06
6.16898e-06
6.17258e-06
6.17577e-06
6.17828e-06
6.17963e-06
6.1792e-06
6.17619e-06
6.16976e-06
6.1592e-06
6.14417e-06
6.12489e-06
6.10232e-06
6.07816e-06
6.05457e-06
6.03369e-06
6.017e-06
6.00459e-06
5.99477e-06
5.98409e-06
5.96806e-06
5.94252e-06
5.90546e-06
5.85767e-06
5.79814e-06
5.71342e-06
5.58041e-06
5.4199e-06
5.36974e-06
5.50342e-06
5.38165e-06
3.86871e-06
1.8429e-06
1.92561e-06
1.09023e-05
5.50191e-05
5.95086e-06
5.94726e-06
5.94448e-06
5.94312e-06
5.94364e-06
5.9461e-06
5.95024e-06
5.95575e-06
5.96235e-06
5.96946e-06
5.97655e-06
5.98359e-06
5.99067e-06
5.99776e-06
6.00459e-06
6.01094e-06
6.01702e-06
6.02333e-06
6.03008e-06
6.03717e-06
6.04447e-06
6.05195e-06
6.05961e-06
6.06732e-06
6.0749e-06
6.08213e-06
6.08887e-06
6.095e-06
6.10043e-06
6.10516e-06
6.109e-06
6.11135e-06
6.11338e-06
6.11554e-06
6.11717e-06
6.11781e-06
6.11701e-06
6.11424e-06
6.10884e-06
6.10021e-06
6.08793e-06
6.07193e-06
6.05267e-06
6.03118e-06
6.00896e-06
5.98782e-06
5.9695e-06
5.95523e-06
5.94525e-06
5.93846e-06
5.9323e-06
5.92305e-06
5.90662e-06
5.87963e-06
5.84074e-06
5.79111e-06
5.73178e-06
5.65503e-06
5.53868e-06
5.37515e-06
5.25288e-06
5.30138e-06
5.39091e-06
4.73597e-06
2.76133e-06
1.4538e-06
3.02305e-06
1.84771e-05
6.71547e-05
5.93563e-06
5.93323e-06
5.92995e-06
5.92636e-06
5.9231e-06
5.92073e-06
5.91959e-06
5.91981e-06
5.92145e-06
5.9244e-06
5.92835e-06
5.93301e-06
5.93826e-06
5.944e-06
5.94997e-06
5.95591e-06
5.96175e-06
5.96766e-06
5.97373e-06
5.97993e-06
5.98614e-06
5.99211e-06
5.99761e-06
6.00265e-06
6.0073e-06
6.01159e-06
6.01545e-06
6.01873e-06
6.02126e-06
6.023e-06
6.0234e-06
6.02198e-06
6.01962e-06
6.01867e-06
6.01748e-06
6.01448e-06
6.00889e-06
6.00023e-06
5.98835e-06
5.9734e-06
5.95601e-06
5.93738e-06
5.91915e-06
5.90287e-06
5.88978e-06
5.88061e-06
5.8753e-06
5.87283e-06
5.87113e-06
5.8672e-06
5.85752e-06
5.83876e-06
5.80865e-06
5.7668e-06
5.71478e-06
5.65428e-06
5.58114e-06
5.47747e-06
5.3242e-06
5.16202e-06
5.12713e-06
5.23594e-06
5.05551e-06
3.68125e-06
1.82741e-06
1.52849e-06
6.02474e-06
3.05125e-05
8.104e-05
5.91236e-06
5.91267e-06
5.91205e-06
5.91034e-06
5.90767e-06
5.90441e-06
5.90097e-06
5.89774e-06
5.89509e-06
5.89326e-06
5.89236e-06
5.89235e-06
5.89319e-06
5.89482e-06
5.89713e-06
5.89994e-06
5.90303e-06
5.90629e-06
5.90969e-06
5.9132e-06
5.91674e-06
5.9201e-06
5.9231e-06
5.92564e-06
5.9277e-06
5.92927e-06
5.93026e-06
5.93054e-06
5.92995e-06
5.92836e-06
5.92562e-06
5.92147e-06
5.91566e-06
5.90811e-06
5.8988e-06
5.88774e-06
5.87486e-06
5.86043e-06
5.84504e-06
5.82956e-06
5.81528e-06
5.80435e-06
5.79844e-06
5.79678e-06
5.79816e-06
5.8012e-06
5.80406e-06
5.80434e-06
5.79927e-06
5.78604e-06
5.76242e-06
5.72737e-06
5.68155e-06
5.62693e-06
5.56505e-06
5.4931e-06
5.39742e-06
5.25632e-06
5.08351e-06
4.98884e-06
5.04072e-06
5.05091e-06
4.26607e-06
2.45575e-06
1.3394e-06
2.49536e-06
1.31243e-05
4.70896e-05
9.64251e-05
5.88109e-06
5.88215e-06
5.88342e-06
5.88439e-06
5.88465e-06
5.88395e-06
5.88226e-06
5.87975e-06
5.87668e-06
5.8733e-06
5.8699e-06
5.86669e-06
5.86381e-06
5.86137e-06
5.85944e-06
5.85802e-06
5.85701e-06
5.85633e-06
5.8559e-06
5.85566e-06
5.85553e-06
5.85544e-06
5.85521e-06
5.85469e-06
5.85378e-06
5.85239e-06
5.85045e-06
5.84784e-06
5.84447e-06
5.84025e-06
5.83514e-06
5.82907e-06
5.8219e-06
5.81344e-06
5.80348e-06
5.79197e-06
5.779e-06
5.7652e-06
5.75148e-06
5.73961e-06
5.73119e-06
5.72693e-06
5.72917e-06
5.73407e-06
5.73842e-06
5.73986e-06
5.7361e-06
5.72493e-06
5.7045e-06
5.67369e-06
5.63252e-06
5.58242e-06
5.5256e-06
5.46297e-06
5.39144e-06
5.29992e-06
5.16877e-06
4.99704e-06
4.86632e-06
4.85212e-06
4.90473e-06
4.51191e-06
3.04577e-06
1.5333e-06
1.50414e-06
5.91552e-06
2.68569e-05
6.69811e-05
0.000113162
5.84509e-06
5.84491e-06
5.84555e-06
5.84682e-06
5.84839e-06
5.84982e-06
5.85078e-06
5.85106e-06
5.85054e-06
5.84919e-06
5.84707e-06
5.84433e-06
5.84113e-06
5.83763e-06
5.83397e-06
5.83027e-06
5.8266e-06
5.82301e-06
5.8195e-06
5.81605e-06
5.81265e-06
5.80929e-06
5.80589e-06
5.80235e-06
5.7986e-06
5.79454e-06
5.79009e-06
5.78517e-06
5.77972e-06
5.77374e-06
5.76717e-06
5.75987e-06
5.75171e-06
5.74266e-06
5.7327e-06
5.72187e-06
5.71055e-06
5.69934e-06
5.68934e-06
5.68173e-06
5.67661e-06
5.67586e-06
5.67646e-06
5.67475e-06
5.66842e-06
5.65568e-06
5.63505e-06
5.60561e-06
5.56713e-06
5.52039e-06
5.4671e-06
5.4093e-06
5.34717e-06
5.27615e-06
5.18614e-06
5.0609e-06
4.89457e-06
4.74556e-06
4.67822e-06
4.70208e-06
4.52294e-06
3.45282e-06
1.8573e-06
1.24009e-06
3.082e-06
1.52018e-05
4.72656e-05
8.8361e-05
0.00013039
5.80502e-06
5.8034e-06
5.80236e-06
5.80203e-06
5.80242e-06
5.80338e-06
5.80471e-06
5.80614e-06
5.8074e-06
5.80826e-06
5.80854e-06
5.80816e-06
5.8071e-06
5.80537e-06
5.80302e-06
5.8001e-06
5.79669e-06
5.79288e-06
5.78873e-06
5.78429e-06
5.7796e-06
5.77469e-06
5.76957e-06
5.76422e-06
5.75862e-06
5.75271e-06
5.74645e-06
5.73977e-06
5.73267e-06
5.72517e-06
5.71711e-06
5.70821e-06
5.69855e-06
5.68809e-06
5.67684e-06
5.66514e-06
5.65294e-06
5.64102e-06
5.63008e-06
5.61952e-06
5.6106e-06
5.60188e-06
5.59015e-06
5.57346e-06
5.55051e-06
5.52049e-06
5.48319e-06
5.439e-06
5.38903e-06
5.33495e-06
5.27802e-06
5.21748e-06
5.14722e-06
5.05638e-06
4.93288e-06
4.77131e-06
4.61708e-06
4.51253e-06
4.49102e-06
4.39968e-06
3.65081e-06
2.18144e-06
1.23885e-06
1.94881e-06
8.86343e-06
3.33572e-05
7.14146e-05
0.000109824
0.000147123
5.7587e-06
5.75637e-06
5.75417e-06
5.75225e-06
5.75078e-06
5.74984e-06
5.74945e-06
5.74956e-06
5.75005e-06
5.75073e-06
5.75142e-06
5.75195e-06
5.75219e-06
5.75201e-06
5.75131e-06
5.75002e-06
5.74812e-06
5.7456e-06
5.7425e-06
5.73883e-06
5.7346e-06
5.72984e-06
5.72454e-06
5.71872e-06
5.71238e-06
5.7055e-06
5.69802e-06
5.68993e-06
5.68125e-06
5.67192e-06
5.66169e-06
5.65042e-06
5.63814e-06
5.62466e-06
5.61e-06
5.59413e-06
5.57689e-06
5.55874e-06
5.53969e-06
5.51909e-06
5.49723e-06
5.47409e-06
5.44762e-06
5.41627e-06
5.37938e-06
5.33715e-06
5.29038e-06
5.24024e-06
5.1879e-06
5.13357e-06
5.07471e-06
5.00485e-06
4.91045e-06
4.78418e-06
4.62557e-06
4.47203e-06
4.34805e-06
4.28048e-06
4.20217e-06
3.67205e-06
2.42558e-06
1.34502e-06
1.48913e-06
5.53212e-06
2.35138e-05
5.83394e-05
9.62595e-05
0.000130677
0.00016302
5.70373e-06
5.70115e-06
5.69845e-06
5.6957e-06
5.69299e-06
5.69043e-06
5.68811e-06
5.68612e-06
5.68447e-06
5.68316e-06
5.68211e-06
5.68122e-06
5.68039e-06
5.67951e-06
5.67845e-06
5.6771e-06
5.67533e-06
5.67309e-06
5.67031e-06
5.66693e-06
5.66291e-06
5.6582e-06
5.65276e-06
5.64655e-06
5.63956e-06
5.63173e-06
5.623e-06
5.61333e-06
5.60267e-06
5.59094e-06
5.57802e-06
5.5638e-06
5.54808e-06
5.53065e-06
5.51132e-06
5.4899e-06
5.4662e-06
5.44013e-06
5.41148e-06
5.37996e-06
5.34565e-06
5.30851e-06
5.26805e-06
5.22395e-06
5.17703e-06
5.12866e-06
5.07977e-06
5.0304e-06
4.97873e-06
4.92033e-06
4.84732e-06
4.74914e-06
4.61505e-06
4.45786e-06
4.30801e-06
4.17478e-06
4.0761e-06
3.96738e-06
3.55995e-06
2.55479e-06
1.48446e-06
1.32618e-06
3.79373e-06
1.66698e-05
4.74629e-05
8.53342e-05
0.00012023
0.000150696
0.000178914
5.6386e-06
5.63573e-06
5.63269e-06
5.62947e-06
5.62609e-06
5.62259e-06
5.61902e-06
5.61543e-06
5.6119e-06
5.60846e-06
5.60513e-06
5.6019e-06
5.59873e-06
5.59558e-06
5.59238e-06
5.58904e-06
5.58548e-06
5.58159e-06
5.57728e-06
5.57247e-06
5.56708e-06
5.56101e-06
5.55418e-06
5.5465e-06
5.53791e-06
5.52832e-06
5.51764e-06
5.50578e-06
5.49264e-06
5.4781e-06
5.46209e-06
5.44453e-06
5.42525e-06
5.40407e-06
5.38079e-06
5.3552e-06
5.32704e-06
5.29602e-06
5.2619e-06
5.22438e-06
5.1832e-06
5.13829e-06
5.08937e-06
5.03658e-06
4.98143e-06
4.92522e-06
4.87127e-06
4.81738e-06
4.75486e-06
4.67361e-06
4.56637e-06
4.42682e-06
4.27466e-06
4.12531e-06
3.986e-06
3.86253e-06
3.70794e-06
3.3523e-06
2.56185e-06
1.61257e-06
1.30468e-06
2.88768e-06
1.20136e-05
3.81304e-05
7.52617e-05
0.000111396
0.000142737
0.000169508
0.000193633
5.56218e-06
5.55874e-06
5.55516e-06
5.55139e-06
5.5474e-06
5.5432e-06
5.53878e-06
5.53416e-06
5.52935e-06
5.52437e-06
5.51925e-06
5.514e-06
5.50861e-06
5.50307e-06
5.49737e-06
5.49146e-06
5.48529e-06
5.47878e-06
5.47187e-06
5.46447e-06
5.45651e-06
5.44789e-06
5.43852e-06
5.42829e-06
5.41711e-06
5.40488e-06
5.39149e-06
5.37683e-06
5.36078e-06
5.3432e-06
5.32403e-06
5.30315e-06
5.28038e-06
5.25557e-06
5.22859e-06
5.19925e-06
5.16736e-06
5.13265e-06
5.09479e-06
5.05336e-06
5.00793e-06
4.95785e-06
4.90278e-06
4.84285e-06
4.77953e-06
4.71438e-06
4.64739e-06
4.57326e-06
4.48032e-06
4.35995e-06
4.22019e-06
4.07294e-06
3.92997e-06
3.78931e-06
3.64126e-06
3.43406e-06
3.08262e-06
2.46037e-06
1.69973e-06
1.36607e-06
2.44329e-06
8.9283e-06
3.01338e-05
6.53317e-05
0.000102469
0.000135575
0.000163592
0.000186907
0.000206789
5.47258e-06
5.46836e-06
5.46398e-06
5.45941e-06
5.45463e-06
5.4496e-06
5.44431e-06
5.43875e-06
5.43289e-06
5.42673e-06
5.42026e-06
5.41347e-06
5.40636e-06
5.39891e-06
5.3911e-06
5.38292e-06
5.37432e-06
5.36526e-06
5.35568e-06
5.34554e-06
5.33474e-06
5.32323e-06
5.3109e-06
5.29768e-06
5.28345e-06
5.26811e-06
5.25157e-06
5.23368e-06
5.21432e-06
5.19338e-06
5.17076e-06
5.14629e-06
5.11979e-06
5.0911e-06
5.06004e-06
5.02641e-06
4.99e-06
4.95054e-06
4.90768e-06
4.86094e-06
4.80966e-06
4.7531e-06
4.69066e-06
4.62242e-06
4.5483e-06
4.46757e-06
4.37563e-06
4.26778e-06
4.14223e-06
4.00275e-06
3.8585e-06
3.71512e-06
3.57556e-06
3.39856e-06
3.14085e-06
2.77436e-06
2.27727e-06
1.72895e-06
1.4757e-06
2.27697e-06
6.9537e-06
2.34676e-05
5.53697e-05
9.26879e-05
0.000127513
0.000157627
0.000182662
0.000202902
0.000218974
5.36629e-06
5.36114e-06
5.35579e-06
5.35023e-06
5.34444e-06
5.33837e-06
5.33202e-06
5.32535e-06
5.31834e-06
5.31096e-06
5.30319e-06
5.29499e-06
5.28635e-06
5.27723e-06
5.26761e-06
5.25746e-06
5.24673e-06
5.23539e-06
5.22338e-06
5.21066e-06
5.19714e-06
5.18277e-06
5.16746e-06
5.15112e-06
5.13365e-06
5.11495e-06
5.0949e-06
5.07337e-06
5.05021e-06
5.02532e-06
4.99858e-06
4.9698e-06
4.93876e-06
4.90525e-06
4.86899e-06
4.82973e-06
4.78715e-06
4.74092e-06
4.69067e-06
4.63589e-06
4.57591e-06
4.50988e-06
4.43693e-06
4.35594e-06
4.26486e-06
4.16096e-06
4.04193e-06
3.90872e-06
3.76625e-06
3.61916e-06
3.46991e-06
3.31724e-06
3.10999e-06
2.81544e-06
2.44188e-06
2.04678e-06
1.7066e-06
1.61024e-06
2.29615e-06
5.75907e-06
1.81655e-05
4.55717e-05
8.18314e-05
0.000117827
0.000149989
0.000177363
0.000199666
0.000217036
0.00022971
5.23734e-06
5.23114e-06
5.2247e-06
5.218e-06
5.21102e-06
5.20372e-06
5.19609e-06
5.1881e-06
5.1797e-06
5.17088e-06
5.1616e-06
5.15182e-06
5.1415e-06
5.1306e-06
5.11909e-06
5.10691e-06
5.09402e-06
5.08036e-06
5.06589e-06
5.05052e-06
5.0342e-06
5.01683e-06
4.99834e-06
4.97863e-06
4.95758e-06
4.93508e-06
4.911e-06
4.88517e-06
4.85745e-06
4.82774e-06
4.79582e-06
4.76147e-06
4.72443e-06
4.68444e-06
4.64114e-06
4.59418e-06
4.54315e-06
4.48763e-06
4.42719e-06
4.36124e-06
4.28894e-06
4.20896e-06
4.11937e-06
4.01806e-06
3.90293e-06
3.77365e-06
3.63367e-06
3.48647e-06
3.33437e-06
3.18311e-06
3.00084e-06
2.76369e-06
2.45317e-06
2.1019e-06
1.80731e-06
1.65095e-06
1.76163e-06
2.45648e-06
5.11729e-06
1.41795e-05
3.63492e-05
7.00198e-05
0.000106295
0.000140048
0.000169654
0.000194511
0.000214339
0.000228985
0.000238633
5.07649e-06
5.06906e-06
5.06134e-06
5.0533e-06
5.04492e-06
5.03615e-06
5.02699e-06
5.01738e-06
5.0073e-06
4.99672e-06
4.98558e-06
4.97385e-06
4.96148e-06
4.94842e-06
4.93462e-06
4.92002e-06
4.90456e-06
4.88817e-06
4.87077e-06
4.8523e-06
4.83265e-06
4.81173e-06
4.78944e-06
4.76565e-06
4.74024e-06
4.71306e-06
4.68393e-06
4.65267e-06
4.61918e-06
4.58329e-06
4.54471e-06
4.50315e-06
4.45828e-06
4.40976e-06
4.35717e-06
4.30009e-06
4.23802e-06
4.17046e-06
4.09672e-06
4.01563e-06
3.92568e-06
3.82491e-06
3.71103e-06
3.58354e-06
3.44546e-06
3.29895e-06
3.14655e-06
2.99658e-06
2.82254e-06
2.61252e-06
2.35854e-06
2.06442e-06
1.78021e-06
1.59361e-06
1.61793e-06
1.93842e-06
2.73227e-06
4.87312e-06
1.1345e-05
2.81398e-05
5.75977e-05
9.29309e-05
0.000127571
0.000158953
0.000186155
0.000208675
0.000226198
0.000238419
0.00024545
4.8699e-06
4.86096e-06
4.85167e-06
4.84198e-06
4.83186e-06
4.82129e-06
4.81021e-06
4.79861e-06
4.78643e-06
4.77364e-06
4.76018e-06
4.74599e-06
4.73104e-06
4.71525e-06
4.69856e-06
4.6809e-06
4.66218e-06
4.64234e-06
4.62127e-06
4.59887e-06
4.57504e-06
4.54965e-06
4.52256e-06
4.49364e-06
4.46271e-06
4.42959e-06
4.39406e-06
4.35594e-06
4.31513e-06
4.27124e-06
4.22398e-06
4.173e-06
4.11792e-06
4.05833e-06
3.99379e-06
3.92383e-06
3.84774e-06
3.76447e-06
3.67269e-06
3.57055e-06
3.45621e-06
3.329e-06
3.19125e-06
3.0447e-06
2.89281e-06
2.74642e-06
2.57999e-06
2.38518e-06
2.16266e-06
1.92028e-06
1.688e-06
1.50404e-06
1.4474e-06
1.63057e-06
2.14095e-06
3.08595e-06
4.9057e-06
9.42472e-06
2.12431e-05
4.50595e-05
7.78475e-05
0.000112449
0.00014497
0.000174028
0.000198988
0.000219407
0.000234834
0.000244992
0.00024988
4.59679e-06
4.58592e-06
4.57462e-06
4.56282e-06
4.5505e-06
4.5376e-06
4.5241e-06
4.50993e-06
4.49507e-06
4.47944e-06
4.463e-06
4.44568e-06
4.42741e-06
4.40811e-06
4.38771e-06
4.36611e-06
4.34323e-06
4.31895e-06
4.29316e-06
4.26574e-06
4.23654e-06
4.20541e-06
4.17218e-06
4.13668e-06
4.0987e-06
4.05797e-06
4.01429e-06
3.96762e-06
3.91756e-06
3.86375e-06
3.80581e-06
3.74332e-06
3.67586e-06
3.60294e-06
3.52393e-06
3.43794e-06
3.34366e-06
3.23925e-06
3.12283e-06
2.99536e-06
2.8598e-06
2.7135e-06
2.56321e-06
2.42278e-06
2.2648e-06
2.08729e-06
1.8923e-06
1.68917e-06
1.50806e-06
1.36873e-06
1.3148e-06
1.40944e-06
1.72605e-06
2.38237e-06
3.46714e-06
5.0992e-06
8.17447e-06
1.57598e-05
3.30287e-05
6.12399e-05
9.45152e-05
0.000127406
0.000157684
0.000184516
0.000207407
0.000225958
0.000239644
0.000248199
0.000251492
4.22563e-06
4.2123e-06
4.19845e-06
4.18399e-06
4.16888e-06
4.15307e-06
4.1365e-06
4.11914e-06
4.10091e-06
4.08176e-06
4.06161e-06
4.04038e-06
4.01799e-06
3.99436e-06
3.96938e-06
3.94294e-06
3.91494e-06
3.88523e-06
3.85369e-06
3.82015e-06
3.78446e-06
3.74642e-06
3.70583e-06
3.6625e-06
3.61612e-06
3.56647e-06
3.51346e-06
3.45671e-06
3.39582e-06
3.33038e-06
3.25997e-06
3.18409e-06
3.10225e-06
3.01372e-06
2.91718e-06
2.81078e-06
2.69344e-06
2.56721e-06
2.43206e-06
2.29075e-06
2.16041e-06
2.02497e-06
1.87886e-06
1.72381e-06
1.55964e-06
1.40502e-06
1.27466e-06
1.17689e-06
1.16568e-06
1.25847e-06
1.48703e-06
1.91862e-06
2.66108e-06
3.79677e-06
5.28849e-06
7.34704e-06
1.16196e-05
2.22675e-05
4.36007e-05
7.35192e-05
0.000105754
0.000136544
0.000164572
0.000189308
0.000210372
0.000227322
0.000239676
0.000247128
0.000249385
3.70844e-06
3.69223e-06
3.67537e-06
3.65778e-06
3.6394e-06
3.62018e-06
3.60006e-06
3.57899e-06
3.55688e-06
3.53367e-06
3.50928e-06
3.48361e-06
3.45657e-06
3.42806e-06
3.39796e-06
3.36616e-06
3.3325e-06
3.29686e-06
3.25906e-06
3.21895e-06
3.17633e-06
3.131e-06
3.08275e-06
3.0313e-06
2.97642e-06
2.91811e-06
2.85597e-06
2.7895e-06
2.71827e-06
2.64178e-06
2.55947e-06
2.47088e-06
2.37494e-06
2.27004e-06
2.15699e-06
2.0368e-06
1.9073e-06
1.78069e-06
1.67013e-06
1.55549e-06
1.43283e-06
1.30843e-06
1.19643e-06
1.1015e-06
1.01747e-06
9.86956e-07
1.0212e-06
1.13156e-06
1.33861e-06
1.67151e-06
2.17429e-06
2.91356e-06
3.95309e-06
5.24341e-06
6.63752e-06
8.62546e-06
1.36145e-05
2.63077e-05
4.95254e-05
7.91977e-05
0.000109619
0.000138129
0.000163923
0.000186686
0.000206141
0.000221826
0.000233283
0.000240119
0.000241829
2.98271e-06
2.96384e-06
2.94428e-06
2.92392e-06
2.90269e-06
2.88055e-06
2.85742e-06
2.83326e-06
2.80798e-06
2.7815e-06
2.75376e-06
2.72465e-06
2.69407e-06
2.66193e-06
2.62811e-06
2.59249e-06
2.55493e-06
2.5153e-06
2.47345e-06
2.4292e-06
2.38241e-06
2.33289e-06
2.28046e-06
2.22493e-06
2.16612e-06
2.10352e-06
2.03663e-06
1.96507e-06
1.88857e-06
1.80687e-06
1.7195e-06
1.62699e-06
1.52905e-06
1.42337e-06
1.31777e-06
1.22919e-06
1.14263e-06
1.05901e-06
9.86069e-07
9.20385e-07
8.53133e-07
8.0819e-07
8.05481e-07
8.379e-07
9.11869e-07
1.03809e-06
1.2311e-06
1.50552e-06
1.87346e-06
2.34879e-06
2.95654e-06
3.73157e-06
4.67795e-06
5.65755e-06
6.46264e-06
7.7178e-06
1.22254e-05
2.47371e-05
4.72778e-05
7.52876e-05
0.000103421
0.000129513
0.000153066
0.000173947
0.000191978
0.000206703
0.000217634
0.000224236
0.000225596
2.01093e-06
1.9921e-06
1.97264e-06
1.95244e-06
1.93146e-06
1.90967e-06
1.88701e-06
1.86345e-06
1.83894e-06
1.81341e-06
1.78681e-06
1.75907e-06
1.73011e-06
1.69987e-06
1.66825e-06
1.63519e-06
1.6006e-06
1.5644e-06
1.52648e-06
1.48671e-06
1.44506e-06
1.40163e-06
1.35603e-06
1.30751e-06
1.25597e-06
1.20148e-06
1.1442e-06
1.08456e-06
1.02326e-06
9.60365e-07
8.96573e-07
8.35189e-07
7.78342e-07
7.27362e-07
6.83895e-07
6.47599e-07
6.17674e-07
6.08396e-07
6.2016e-07
6.47769e-07
6.92857e-07
7.58566e-07
8.49861e-07
9.72425e-07
1.13202e-06
1.33313e-06
1.57609e-06
1.85492e-06
2.1632e-06
2.50899e-06
2.92097e-06
3.42347e-06
3.97486e-06
4.3923e-06
4.46133e-06
4.54729e-06
6.80175e-06
1.53543e-05
3.32123e-05
5.76841e-05
8.28467e-05
0.000106254
0.000127487
0.000146521
0.000163216
0.000177159
0.000187785
0.00019433
0.000195108
9.2887e-07
9.16216e-07
9.032e-07
8.89809e-07
8.76079e-07
8.62044e-07
8.47721e-07
8.331e-07
8.18163e-07
8.02883e-07
7.87229e-07
7.71165e-07
7.5465e-07
7.3764e-07
7.20106e-07
7.02019e-07
6.83334e-07
6.64027e-07
6.44089e-07
6.23514e-07
6.02253e-07
5.80316e-07
5.58084e-07
5.36175e-07
5.14896e-07
4.94573e-07
4.75469e-07
4.58228e-07
4.43552e-07
4.2914e-07
4.17263e-07
4.22416e-07
4.35956e-07
4.55056e-07
4.79787e-07
5.10679e-07
5.48084e-07
5.92241e-07
6.43534e-07
7.02295e-07
7.69433e-07
8.46205e-07
9.32892e-07
1.02785e-06
1.12753e-06
1.22628e-06
1.31695e-06
1.39673e-06
1.47408e-06
1.57028e-06
1.70935e-06
1.89051e-06
2.04413e-06
2.00189e-06
1.6365e-06
1.18962e-06
1.49059e-06
3.42183e-06
9.69705e-06
2.42195e-05
4.2264e-05
6.04969e-05
7.79723e-05
9.46244e-05
0.000110044
0.000123389
0.000134025
0.000141106
0.000141292
1.93171e-07
1.91053e-07
1.89415e-07
1.8919e-07
1.90665e-07
1.93493e-07
1.97238e-07
2.01568e-07
2.06253e-07
2.1113e-07
2.16087e-07
2.21032e-07
2.25888e-07
2.30638e-07
2.3524e-07
2.39464e-07
2.43412e-07
2.47917e-07
2.53117e-07
2.59067e-07
2.65872e-07
2.73615e-07
2.82342e-07
2.92095e-07
3.02909e-07
3.14798e-07
3.27737e-07
3.41664e-07
3.56491e-07
3.7196e-07
3.87641e-07
4.03308e-07
4.18518e-07
4.32647e-07
4.45029e-07
4.55059e-07
4.62277e-07
4.66556e-07
4.68445e-07
4.69119e-07
4.69443e-07
4.68836e-07
4.65304e-07
4.56725e-07
4.41694e-07
4.19811e-07
3.93092e-07
3.6836e-07
3.54772e-07
3.57429e-07
3.71287e-07
3.76546e-07
3.35783e-07
2.32906e-07
1.82743e-07
1.62002e-07
1.4341e-07
1.79291e-07
5.13297e-07
1.56362e-06
3.89361e-06
7.95642e-06
1.37911e-05
2.10549e-05
2.91711e-05
3.74818e-05
4.52561e-05
5.15996e-05
5.51978e-05
7.59663e-08
7.89302e-08
8.1971e-08
8.51236e-08
8.84173e-08
9.18703e-08
9.54855e-08
9.92524e-08
1.0315e-07
1.0715e-07
1.11219e-07
1.15322e-07
1.19419e-07
1.23457e-07
1.27379e-07
1.3121e-07
1.34834e-07
1.37668e-07
1.3967e-07
1.40853e-07
1.41209e-07
1.40718e-07
1.39355e-07
1.37089e-07
1.33885e-07
1.29716e-07
1.24565e-07
1.18435e-07
1.11361e-07
1.03415e-07
9.47164e-08
8.54413e-08
7.5819e-08
6.61237e-08
5.66583e-08
4.77256e-08
3.96e-08
3.25154e-08
2.66197e-08
2.18413e-08
1.78499e-08
1.43419e-08
1.12906e-08
8.72832e-09
6.54509e-09
4.71302e-09
3.25559e-09
2.26111e-09
1.56966e-09
1.25124e-09
1.37977e-09
1.59314e-09
1.6616e-09
1.45878e-09
1.1985e-09
8.43542e-10
4.69904e-10
4.11509e-10
1.45067e-09
4.13481e-09
8.66845e-09
2.26976e-08
4.94549e-08
9.08989e-08
1.47378e-07
2.18754e-07
3.03755e-07
3.97968e-07
5.43863e-07
6.15188e-06
6.15636e-06
6.1631e-06
6.17139e-06
6.18124e-06
6.18814e-06
6.19067e-06
6.18777e-06
6.18336e-06
6.17943e-06
6.17716e-06
6.17575e-06
6.17434e-06
6.17778e-06
6.17686e-06
6.17467e-06
6.17197e-06
6.17483e-06
6.18486e-06
6.19383e-06
6.19399e-06
6.16846e-06
6.16335e-06
6.14487e-06
6.11872e-06
6.11196e-06
6.11769e-06
6.13562e-06
6.1545e-06
6.15078e-06
6.1314e-06
6.11675e-06
6.10696e-06
6.10171e-06
6.10096e-06
6.10091e-06
6.09593e-06
6.09062e-06
6.09156e-06
6.10092e-06
6.11175e-06
6.09941e-06
6.09168e-06
6.07438e-06
6.06954e-06
6.07209e-06
6.071e-06
6.06983e-06
6.06269e-06
6.04954e-06
6.0423e-06
6.04186e-06
6.0461e-06
6.05112e-06
6.06054e-06
6.06647e-06
6.0675e-06
6.06652e-06
6.06481e-06
6.15372e-06
6.16071e-06
6.16749e-06
6.17253e-06
6.17413e-06
6.17237e-06
6.16937e-06
6.16504e-06
6.16175e-06
6.16021e-06
6.1596e-06
6.1597e-06
6.16031e-06
6.1605e-06
6.15883e-06
6.15766e-06
6.15968e-06
6.16698e-06
6.17582e-06
6.17822e-06
6.16806e-06
6.15015e-06
6.14188e-06
6.12121e-06
6.10171e-06
6.09939e-06
6.10819e-06
6.12677e-06
6.14207e-06
6.13568e-06
6.11716e-06
6.10311e-06
6.09376e-06
6.08857e-06
6.08744e-06
6.08715e-06
6.08268e-06
6.07738e-06
6.07711e-06
6.08364e-06
6.09386e-06
6.08916e-06
6.08243e-06
6.06987e-06
6.05953e-06
6.05593e-06
6.05449e-06
6.05519e-06
6.05464e-06
6.04789e-06
6.03875e-06
6.03191e-06
6.02953e-06
6.03072e-06
6.03628e-06
6.04401e-06
6.05478e-06
6.06302e-06
6.0675e-06
6.15103e-06
6.15309e-06
6.15368e-06
6.15306e-06
6.15044e-06
6.14711e-06
6.14449e-06
6.14256e-06
6.14172e-06
6.14179e-06
6.14206e-06
6.14225e-06
6.14211e-06
6.14144e-06
6.1412e-06
6.14331e-06
6.14912e-06
6.15692e-06
6.16113e-06
6.1566e-06
6.14351e-06
6.12995e-06
6.11818e-06
6.09838e-06
6.0853e-06
6.08689e-06
6.09836e-06
6.11651e-06
6.12776e-06
6.11938e-06
6.10192e-06
6.08855e-06
6.07961e-06
6.07443e-06
6.07298e-06
6.0724e-06
6.06839e-06
6.06316e-06
6.06192e-06
6.06629e-06
6.07478e-06
6.07498e-06
6.07025e-06
6.06172e-06
6.05154e-06
6.04391e-06
6.03931e-06
6.03772e-06
6.03865e-06
6.03775e-06
6.03295e-06
6.02597e-06
6.01971e-06
6.01601e-06
6.01568e-06
6.01873e-06
6.02546e-06
6.03358e-06
6.04198e-06
6.13051e-06
6.12924e-06
6.12739e-06
6.12543e-06
6.12359e-06
6.12229e-06
6.12172e-06
6.12171e-06
6.12203e-06
6.12236e-06
6.12244e-06
6.1223e-06
6.12227e-06
6.12296e-06
6.12547e-06
6.13048e-06
6.13714e-06
6.14195e-06
6.14052e-06
6.13166e-06
6.11902e-06
6.10722e-06
6.09327e-06
6.07654e-06
6.06925e-06
6.07431e-06
6.08767e-06
6.10434e-06
6.11165e-06
6.10189e-06
6.08551e-06
6.07286e-06
6.0643e-06
6.05914e-06
6.05739e-06
6.05652e-06
6.05288e-06
6.04775e-06
6.04567e-06
6.04833e-06
6.05496e-06
6.05765e-06
6.05529e-06
6.04958e-06
6.04173e-06
6.03355e-06
6.02664e-06
6.02192e-06
6.02049e-06
6.02089e-06
6.02019e-06
6.01692e-06
6.01171e-06
6.00629e-06
6.0021e-06
6.00009e-06
6.00083e-06
6.00408e-06
6.00937e-06
6.10129e-06
6.10033e-06
6.09955e-06
6.09907e-06
6.09901e-06
6.09931e-06
6.09978e-06
6.10024e-06
6.10057e-06
6.10075e-06
6.10093e-06
6.10149e-06
6.10297e-06
6.10589e-06
6.11055e-06
6.11623e-06
6.12082e-06
6.12112e-06
6.11533e-06
6.10508e-06
6.09381e-06
6.08218e-06
6.06802e-06
6.05561e-06
6.05336e-06
6.06132e-06
6.07556e-06
6.08996e-06
6.09373e-06
6.08311e-06
6.06779e-06
6.05586e-06
6.04767e-06
6.04254e-06
6.04051e-06
6.03936e-06
6.036e-06
6.03101e-06
6.02819e-06
6.0294e-06
6.03429e-06
6.03787e-06
6.03754e-06
6.03399e-06
6.02846e-06
6.02173e-06
6.01466e-06
6.00822e-06
6.00384e-06
6.00217e-06
6.00206e-06
6.00157e-06
5.99954e-06
5.99602e-06
5.99175e-06
5.98768e-06
5.98466e-06
5.9833e-06
5.98366e-06
6.0729e-06
6.07324e-06
6.07374e-06
6.07438e-06
6.07507e-06
6.07573e-06
6.07627e-06
6.07672e-06
6.0772e-06
6.07789e-06
6.07912e-06
6.08121e-06
6.08444e-06
6.0888e-06
6.09373e-06
6.09776e-06
6.09876e-06
6.09511e-06
6.08723e-06
6.07742e-06
6.06713e-06
6.05546e-06
6.04298e-06
6.03533e-06
6.03731e-06
6.0474e-06
6.06155e-06
6.0732e-06
6.07394e-06
6.06287e-06
6.04859e-06
6.03737e-06
6.02954e-06
6.02444e-06
6.02217e-06
6.02075e-06
6.0176e-06
6.01276e-06
6.00933e-06
6.00926e-06
6.01252e-06
6.01605e-06
6.01704e-06
6.0152e-06
6.01146e-06
6.00659e-06
6.0008e-06
5.99453e-06
5.98875e-06
5.98465e-06
5.98263e-06
5.98202e-06
5.98166e-06
5.98065e-06
5.97864e-06
5.97582e-06
5.9726e-06
5.96954e-06
5.96703e-06
6.04606e-06
6.04692e-06
6.04777e-06
6.04858e-06
6.04931e-06
6.05e-06
6.05074e-06
6.05168e-06
6.05299e-06
6.05484e-06
6.05741e-06
6.06077e-06
6.06479e-06
6.06903e-06
6.07243e-06
6.07356e-06
6.07124e-06
6.0654e-06
6.05738e-06
6.04851e-06
6.03869e-06
6.02778e-06
6.01836e-06
6.0153e-06
6.02063e-06
6.03198e-06
6.04517e-06
6.0539e-06
6.05216e-06
6.04096e-06
6.02768e-06
6.01716e-06
6.00967e-06
6.00462e-06
6.00214e-06
6.00046e-06
5.99746e-06
5.9928e-06
5.98887e-06
5.98765e-06
5.98939e-06
5.99231e-06
5.99392e-06
5.99331e-06
5.99093e-06
5.98755e-06
5.98336e-06
5.97836e-06
5.97292e-06
5.96784e-06
5.96396e-06
5.96162e-06
5.96056e-06
5.96018e-06
5.95985e-06
5.95911e-06
5.95778e-06
5.95603e-06
5.95402e-06
6.01772e-06
6.01857e-06
6.0194e-06
6.02029e-06
6.02128e-06
6.02247e-06
6.02395e-06
6.02583e-06
6.02818e-06
6.03103e-06
6.03434e-06
6.03795e-06
6.0415e-06
6.04428e-06
6.04531e-06
6.04379e-06
6.03958e-06
6.03337e-06
6.02607e-06
6.01788e-06
6.0087e-06
5.99967e-06
5.99401e-06
5.99496e-06
6.0027e-06
6.01445e-06
6.02601e-06
6.03187e-06
6.02818e-06
6.01711e-06
6.00481e-06
5.99496e-06
5.98779e-06
5.98282e-06
5.98015e-06
5.97823e-06