/*--------------------------------*- C++ -*----------------------------------*\
| =========                 |                                                 |
| \\      /  F ield         | OpenFOAM: The Open Source CFD Toolbox           |
|  \\    /   O peration     | Version:  2312                                  |
|   \\  /    A nd           | Website:  www.openfoam.com                      |
|    \\/     M anipulation  |                                                 |
\*---------------------------------------------------------------------------*/
FoamFile
{
    version     2.0;
    format      ascii;
    arch        "LSB;label=32;scalar=64";
    class       volScalarField;
    location    "1500";
    object      nuTilda;
}
// * * * * * * * * * * * * * * * * * * * * * * * * * * * * * * * * * * * * * //

dimensions      [0 2 -1 0 0 0 0];

internalField   nonuniform List<scalar> 
76025
(
3.9991e-05
3.99879e-05
3.99842e-05
3.99906e-05
4.00003e-05
4.00127e-05
4.00239e-05
4.00348e-05
4.00463e-05
4.00578e-05
4.00698e-05
4.00804e-05
4.00871e-05
4.00919e-05
4.00975e-05
4.01018e-05
4.01078e-05
4.01136e-05
4.01202e-05
4.01262e-05
4.01324e-05
4.01321e-05
4.01337e-05
4.01376e-05
4.01421e-05
4.01498e-05
4.01622e-05
4.01778e-05
4.0203e-05
4.02266e-05
4.02531e-05
4.02781e-05
4.03041e-05
4.03291e-05
4.03519e-05
4.03702e-05
4.0385e-05
4.03958e-05
4.04012e-05
4.03993e-05
4.03912e-05
4.03805e-05
4.03667e-05
4.03585e-05
4.03439e-05
4.0336e-05
4.03541e-05
4.03838e-05
4.04187e-05
4.04507e-05
4.04721e-05
4.04768e-05
4.04626e-05
4.04327e-05
4.03928e-05
4.03553e-05
4.03198e-05
4.02858e-05
4.02459e-05
4.01914e-05
4.01082e-05
3.9956e-05
3.96846e-05
3.9588e-05
4.0034e-05
3.90684e-05
3.31689e-05
3.16636e-05
5.89429e-05
4.00018e-05
3.99998e-05
3.99905e-05
3.99829e-05
3.99793e-05
3.99802e-05
3.99885e-05
4.00031e-05
4.00181e-05
4.00324e-05
4.00466e-05
4.00612e-05
4.0075e-05
4.00869e-05
4.00967e-05
4.0105e-05
4.01123e-05
4.01188e-05
4.0125e-05
4.01314e-05
4.01371e-05
4.01396e-05
4.01371e-05
4.01317e-05
4.01258e-05
4.0121e-05
4.01186e-05
4.01187e-05
4.01216e-05
4.01265e-05
4.01322e-05
4.01382e-05
4.0144e-05
4.01484e-05
4.01514e-05
4.01538e-05
4.01564e-05
4.01599e-05
4.01651e-05
4.01712e-05
4.01793e-05
4.02006e-05
4.02313e-05
4.02658e-05
4.03028e-05
4.03409e-05
4.03772e-05
4.04081e-05
4.04292e-05
4.04365e-05
4.04273e-05
4.04021e-05
4.03649e-05
4.03224e-05
4.02818e-05
4.02459e-05
4.02122e-05
4.01734e-05
4.01222e-05
4.0052e-05
3.99373e-05
3.97226e-05
3.94372e-05
3.95133e-05
3.99389e-05
3.79458e-05
3.10918e-05
3.17764e-05
6.27445e-05
3.99674e-05
3.99841e-05
3.9993e-05
3.99928e-05
3.99855e-05
3.99777e-05
3.99728e-05
3.9973e-05
3.99784e-05
3.99893e-05
4.00047e-05
4.00213e-05
4.00384e-05
4.00551e-05
4.00708e-05
4.0085e-05
4.00977e-05
4.01088e-05
4.01187e-05
4.01277e-05
4.0136e-05
4.01434e-05
4.01489e-05
4.01524e-05
4.01536e-05
4.0153e-05
4.01507e-05
4.01463e-05
4.01398e-05
4.01348e-05
4.01306e-05
4.01276e-05
4.01253e-05
4.01235e-05
4.01249e-05
4.01316e-05
4.01474e-05
4.01676e-05
4.019e-05
4.02143e-05
4.02399e-05
4.02668e-05
4.02947e-05
4.03228e-05
4.03492e-05
4.03715e-05
4.03867e-05
4.03914e-05
4.03829e-05
4.03604e-05
4.03255e-05
4.02827e-05
4.02384e-05
4.01982e-05
4.01643e-05
4.01333e-05
4.00972e-05
4.0048e-05
3.9981e-05
3.98844e-05
3.97194e-05
3.94467e-05
3.92147e-05
3.94772e-05
3.95995e-05
3.63247e-05
2.94834e-05
3.35674e-05
6.68002e-05
3.99055e-05
3.99244e-05
3.99418e-05
3.99584e-05
3.99716e-05
3.99774e-05
3.99757e-05
3.99718e-05
3.99691e-05
3.99696e-05
3.99739e-05
3.99817e-05
3.99931e-05
4.00086e-05
4.00262e-05
4.00439e-05
4.00609e-05
4.00769e-05
4.00916e-05
4.01052e-05
4.01176e-05
4.01292e-05
4.01399e-05
4.01496e-05
4.01583e-05
4.01657e-05
4.01718e-05
4.01767e-05
4.01806e-05
4.0184e-05
4.01874e-05
4.01909e-05
4.0195e-05
4.02009e-05
4.02087e-05
4.02181e-05
4.02295e-05
4.02427e-05
4.02575e-05
4.02736e-05
4.02906e-05
4.03076e-05
4.03234e-05
4.03361e-05
4.03435e-05
4.03427e-05
4.03316e-05
4.03086e-05
4.02745e-05
4.02321e-05
4.01861e-05
4.01424e-05
4.0105e-05
4.00745e-05
4.00467e-05
4.00131e-05
3.99651e-05
3.98983e-05
3.9809e-05
3.96745e-05
3.94474e-05
3.91424e-05
3.90718e-05
3.9438e-05
3.88918e-05
3.41581e-05
2.82558e-05
3.64451e-05
7.18649e-05
3.98476e-05
3.98578e-05
3.98716e-05
3.98888e-05
3.99074e-05
3.99237e-05
3.99361e-05
3.99457e-05
3.99526e-05
3.99571e-05
3.99608e-05
3.99649e-05
3.99701e-05
3.99774e-05
3.99869e-05
3.99994e-05
4.00147e-05
4.00314e-05
4.00483e-05
4.00647e-05
4.00803e-05
4.00951e-05
4.01092e-05
4.01224e-05
4.01349e-05
4.01467e-05
4.01577e-05
4.01679e-05
4.01772e-05
4.0186e-05
4.01943e-05
4.02019e-05
4.02092e-05
4.02168e-05
4.02252e-05
4.0234e-05
4.02434e-05
4.02531e-05
4.02629e-05
4.02722e-05
4.028e-05
4.02849e-05
4.02851e-05
4.02785e-05
4.02632e-05
4.02382e-05
4.02036e-05
4.01614e-05
4.01154e-05
4.00703e-05
4.00307e-05
3.99989e-05
3.99738e-05
3.99499e-05
3.99185e-05
3.98712e-05
3.98034e-05
3.97151e-05
3.95961e-05
3.94073e-05
3.91169e-05
3.88526e-05
3.898e-05
3.92455e-05
3.75339e-05
3.15617e-05
2.79678e-05
4.09986e-05
7.82716e-05
3.9808e-05
3.9807e-05
3.98104e-05
3.98182e-05
3.98301e-05
3.98444e-05
3.98598e-05
3.98755e-05
3.98906e-05
3.99038e-05
3.99145e-05
3.99241e-05
3.99335e-05
3.99431e-05
3.99528e-05
3.9963e-05
3.9974e-05
3.99862e-05
3.99998e-05
4.00147e-05
4.00302e-05
4.00458e-05
4.00611e-05
4.00759e-05
4.009e-05
4.01034e-05
4.01161e-05
4.0128e-05
4.0139e-05
4.01492e-05
4.01585e-05
4.01664e-05
4.01735e-05
4.01805e-05
4.01875e-05
4.01941e-05
4.02e-05
4.02046e-05
4.02071e-05
4.02063e-05
4.02008e-05
4.01889e-05
4.01695e-05
4.01418e-05
4.01062e-05
4.00644e-05
4.00196e-05
3.99757e-05
3.99368e-05
3.99056e-05
3.98824e-05
3.9864e-05
3.9844e-05
3.98139e-05
3.97658e-05
3.96959e-05
3.96052e-05
3.94917e-05
3.93288e-05
3.907e-05
3.87525e-05
3.8652e-05
3.89184e-05
3.86759e-05
3.53129e-05
2.89705e-05
2.93066e-05
4.7443e-05
8.59897e-05
3.97815e-05
3.97748e-05
3.97695e-05
3.97669e-05
3.97679e-05
3.97726e-05
3.97804e-05
3.97907e-05
3.98031e-05
3.98165e-05
3.98298e-05
3.9843e-05
3.98563e-05
3.98696e-05
3.98824e-05
3.98943e-05
3.99056e-05
3.99174e-05
3.993e-05
3.99433e-05
3.99569e-05
3.99708e-05
3.99851e-05
3.99994e-05
4.00135e-05
4.00269e-05
4.00395e-05
4.00508e-05
4.00609e-05
4.00697e-05
4.00768e-05
4.00811e-05
4.00849e-05
4.00889e-05
4.00919e-05
4.00931e-05
4.00916e-05
4.00865e-05
4.00765e-05
4.00605e-05
4.00377e-05
4.0008e-05
3.99722e-05
3.99321e-05
3.98906e-05
3.9851e-05
3.98166e-05
3.97897e-05
3.9771e-05
3.97582e-05
3.97465e-05
3.97291e-05
3.9698e-05
3.96469e-05
3.9573e-05
3.94782e-05
3.93642e-05
3.92157e-05
3.8988e-05
3.86629e-05
3.84156e-05
3.85141e-05
3.86945e-05
3.73273e-05
3.22436e-05
2.72287e-05
3.30351e-05
5.60445e-05
9.51e-05
3.97528e-05
3.97483e-05
3.97421e-05
3.97353e-05
3.97292e-05
3.97247e-05
3.97226e-05
3.9723e-05
3.97261e-05
3.97316e-05
3.97391e-05
3.97479e-05
3.97578e-05
3.97686e-05
3.97799e-05
3.9791e-05
3.9802e-05
3.98131e-05
3.98245e-05
3.98362e-05
3.98478e-05
3.9859e-05
3.98693e-05
3.98787e-05
3.98875e-05
3.98955e-05
3.99027e-05
3.99088e-05
3.99136e-05
3.99168e-05
3.99176e-05
3.99149e-05
3.99105e-05
3.99087e-05
3.99065e-05
3.99009e-05
3.98904e-05
3.98742e-05
3.9852e-05
3.98239e-05
3.97912e-05
3.97561e-05
3.97217e-05
3.96909e-05
3.96662e-05
3.96488e-05
3.96387e-05
3.9634e-05
3.96308e-05
3.96233e-05
3.96049e-05
3.95692e-05
3.95118e-05
3.94316e-05
3.93315e-05
3.92142e-05
3.90715e-05
3.8867e-05
3.85603e-05
3.82294e-05
3.81574e-05
3.8381e-05
3.80086e-05
3.48391e-05
2.89064e-05
2.75866e-05
3.99201e-05
6.69325e-05
0.000105642
3.97089e-05
3.97095e-05
3.97083e-05
3.97051e-05
3.97e-05
3.96939e-05
3.96874e-05
3.96813e-05
3.96762e-05
3.96728e-05
3.96711e-05
3.9671e-05
3.96726e-05
3.96757e-05
3.96801e-05
3.96854e-05
3.96913e-05
3.96974e-05
3.97038e-05
3.97105e-05
3.97172e-05
3.97235e-05
3.97292e-05
3.9734e-05
3.97379e-05
3.97408e-05
3.97427e-05
3.97432e-05
3.97421e-05
3.97391e-05
3.97339e-05
3.97261e-05
3.97151e-05
3.97009e-05
3.96833e-05
3.96623e-05
3.96379e-05
3.96105e-05
3.95812e-05
3.95517e-05
3.95245e-05
3.95036e-05
3.94923e-05
3.94891e-05
3.94917e-05
3.94975e-05
3.9503e-05
3.95036e-05
3.94938e-05
3.94685e-05
3.94232e-05
3.93557e-05
3.92672e-05
3.9161e-05
3.90399e-05
3.8898e-05
3.87075e-05
3.84226e-05
3.80669e-05
3.78688e-05
3.79777e-05
3.7999e-05
3.62691e-05
3.12518e-05
2.66544e-05
3.1385e-05
5.02172e-05
8.00033e-05
0.000117629
3.96497e-05
3.96517e-05
3.96541e-05
3.9656e-05
3.96565e-05
3.96551e-05
3.96519e-05
3.96472e-05
3.96413e-05
3.96349e-05
3.96285e-05
3.96224e-05
3.96169e-05
3.96123e-05
3.96086e-05
3.96059e-05
3.9604e-05
3.96027e-05
3.96019e-05
3.96014e-05
3.96012e-05
3.9601e-05
3.96005e-05
3.95996e-05
3.95978e-05
3.95952e-05
3.95915e-05
3.95865e-05
3.95801e-05
3.95721e-05
3.95624e-05
3.95508e-05
3.95371e-05
3.95209e-05
3.95019e-05
3.94799e-05
3.9455e-05
3.94285e-05
3.94022e-05
3.93793e-05
3.93631e-05
3.93549e-05
3.93592e-05
3.93687e-05
3.9377e-05
3.93798e-05
3.93726e-05
3.9351e-05
3.93116e-05
3.92519e-05
3.91719e-05
3.9074e-05
3.89622e-05
3.88383e-05
3.86955e-05
3.85111e-05
3.82434e-05
3.7886e-05
3.76087e-05
3.75783e-05
3.76907e-05
3.68317e-05
3.31015e-05
2.76092e-05
2.74713e-05
3.97149e-05
6.3826e-05
9.49694e-05
0.000131126
3.95813e-05
3.9581e-05
3.95822e-05
3.95846e-05
3.95876e-05
3.95903e-05
3.95921e-05
3.95927e-05
3.95917e-05
3.95891e-05
3.95851e-05
3.95799e-05
3.95738e-05
3.95671e-05
3.95601e-05
3.95531e-05
3.95461e-05
3.95392e-05
3.95325e-05
3.95259e-05
3.95194e-05
3.9513e-05
3.95065e-05
3.94997e-05
3.94926e-05
3.94848e-05
3.94763e-05
3.94669e-05
3.94564e-05
3.94449e-05
3.94323e-05
3.94183e-05
3.94026e-05
3.93852e-05
3.9366e-05
3.93451e-05
3.93233e-05
3.93016e-05
3.92823e-05
3.92675e-05
3.92576e-05
3.92561e-05
3.92573e-05
3.9254e-05
3.92417e-05
3.92169e-05
3.91768e-05
3.91193e-05
3.9044e-05
3.8952e-05
3.88465e-05
3.87313e-05
3.86066e-05
3.84629e-05
3.82791e-05
3.80198e-05
3.7669e-05
3.73482e-05
3.72011e-05
3.72534e-05
3.68565e-05
3.42396e-05
2.90297e-05
2.61268e-05
3.32068e-05
5.25962e-05
8.01371e-05
0.000111299
0.000145531
3.95048e-05
3.95018e-05
3.94998e-05
3.94991e-05
3.94999e-05
3.95017e-05
3.95042e-05
3.9507e-05
3.95094e-05
3.9511e-05
3.95116e-05
3.95108e-05
3.95088e-05
3.95055e-05
3.9501e-05
3.94954e-05
3.94889e-05
3.94816e-05
3.94737e-05
3.94652e-05
3.94562e-05
3.94468e-05
3.94369e-05
3.94267e-05
3.94159e-05
3.94045e-05
3.93925e-05
3.93796e-05
3.9366e-05
3.93515e-05
3.9336e-05
3.93188e-05
3.93001e-05
3.92798e-05
3.9258e-05
3.92353e-05
3.92116e-05
3.91884e-05
3.91671e-05
3.91465e-05
3.91291e-05
3.91121e-05
3.90891e-05
3.90564e-05
3.90113e-05
3.89522e-05
3.88784e-05
3.87906e-05
3.86907e-05
3.8582e-05
3.84667e-05
3.83433e-05
3.81989e-05
3.80104e-05
3.77505e-05
3.74041e-05
3.70663e-05
3.68331e-05
3.67847e-05
3.65774e-05
3.47607e-05
3.02863e-05
2.61201e-05
2.9399e-05
4.46063e-05
6.92726e-05
9.83131e-05
0.000128395
0.000159983
3.94161e-05
3.94116e-05
3.94073e-05
3.94037e-05
3.94008e-05
3.9399e-05
3.93983e-05
3.93985e-05
3.93994e-05
3.94007e-05
3.94021e-05
3.94031e-05
3.94035e-05
3.94032e-05
3.94018e-05
3.93994e-05
3.93957e-05
3.93909e-05
3.93849e-05
3.93778e-05
3.93697e-05
3.93605e-05
3.93503e-05
3.93391e-05
3.93268e-05
3.93135e-05
3.92991e-05
3.92834e-05
3.92666e-05
3.92485e-05
3.92286e-05
3.92067e-05
3.91828e-05
3.91565e-05
3.91279e-05
3.90969e-05
3.90631e-05
3.90275e-05
3.899e-05
3.89494e-05
3.89062e-05
3.88603e-05
3.88077e-05
3.87452e-05
3.86713e-05
3.85864e-05
3.84918e-05
3.83898e-05
3.82827e-05
3.81707e-05
3.80486e-05
3.79025e-05
3.77029e-05
3.7432e-05
3.70851e-05
3.67418e-05
3.6459e-05
3.63027e-05
3.61194e-05
3.48155e-05
3.11494e-05
2.66834e-05
2.73996e-05
3.89751e-05
6.08556e-05
8.84817e-05
0.000117498
0.000145775
0.00017408
3.93101e-05
3.93051e-05
3.92999e-05
3.92946e-05
3.92893e-05
3.92844e-05
3.92799e-05
3.9276e-05
3.92728e-05
3.92703e-05
3.92682e-05
3.92665e-05
3.92649e-05
3.92632e-05
3.92612e-05
3.92585e-05
3.92551e-05
3.92508e-05
3.92454e-05
3.92388e-05
3.9231e-05
3.92218e-05
3.92113e-05
3.91992e-05
3.91856e-05
3.91703e-05
3.91533e-05
3.91344e-05
3.91136e-05
3.90907e-05
3.90653e-05
3.90374e-05
3.90065e-05
3.89722e-05
3.89341e-05
3.88917e-05
3.88447e-05
3.87928e-05
3.87356e-05
3.86725e-05
3.86035e-05
3.85285e-05
3.84465e-05
3.83565e-05
3.82603e-05
3.81606e-05
3.80591e-05
3.7956e-05
3.78475e-05
3.77239e-05
3.7568e-05
3.7356e-05
3.70618e-05
3.67098e-05
3.63666e-05
3.60548e-05
3.58196e-05
3.55562e-05
3.4524e-05
3.15821e-05
2.73772e-05
2.65858e-05
3.51253e-05
5.41811e-05
8.0287e-05
0.00010895
0.000136975
0.000163122
0.000188478
3.91837e-05
3.91781e-05
3.91722e-05
3.91659e-05
3.91593e-05
3.91525e-05
3.91455e-05
3.91385e-05
3.91316e-05
3.91249e-05
3.91184e-05
3.91121e-05
3.91059e-05
3.90997e-05
3.90935e-05
3.90869e-05
3.908e-05
3.90723e-05
3.90639e-05
3.90545e-05
3.90439e-05
3.90319e-05
3.90185e-05
3.90034e-05
3.89865e-05
3.89676e-05
3.89465e-05
3.89231e-05
3.88971e-05
3.88683e-05
3.88365e-05
3.88016e-05
3.87631e-05
3.87208e-05
3.86742e-05
3.86227e-05
3.8566e-05
3.85032e-05
3.8434e-05
3.83574e-05
3.8273e-05
3.81805e-05
3.80791e-05
3.7969e-05
3.78532e-05
3.77343e-05
3.76193e-05
3.75036e-05
3.73684e-05
3.7191e-05
3.69536e-05
3.66393e-05
3.62891e-05
3.59374e-05
3.56017e-05
3.52975e-05
3.49076e-05
3.39673e-05
3.16053e-05
2.7975e-05
2.64732e-05
3.26318e-05
4.8865e-05
7.30869e-05
0.000101229
0.000129679
0.000156154
0.000179924
0.000202036
3.90342e-05
3.90275e-05
3.90205e-05
3.9013e-05
3.90052e-05
3.89969e-05
3.89882e-05
3.89791e-05
3.89696e-05
3.89598e-05
3.89497e-05
3.89393e-05
3.89287e-05
3.89177e-05
3.89065e-05
3.88948e-05
3.88825e-05
3.88696e-05
3.88559e-05
3.88412e-05
3.88254e-05
3.88083e-05
3.87896e-05
3.87692e-05
3.87469e-05
3.87224e-05
3.86956e-05
3.86662e-05
3.8634e-05
3.85986e-05
3.85599e-05
3.85177e-05
3.84715e-05
3.84211e-05
3.8366e-05
3.8306e-05
3.82404e-05
3.81688e-05
3.80904e-05
3.80041e-05
3.79089e-05
3.78034e-05
3.76865e-05
3.75584e-05
3.74219e-05
3.72803e-05
3.71333e-05
3.6969e-05
3.67606e-05
3.64864e-05
3.61618e-05
3.58121e-05
3.54644e-05
3.51141e-05
3.4736e-05
3.41892e-05
3.32087e-05
3.12674e-05
2.83628e-05
2.67913e-05
3.12096e-05
4.4702e-05
6.66164e-05
9.3729e-05
0.000122446
0.000149963
0.000174593
0.000195816
0.000214309
3.88573e-05
3.8849e-05
3.88403e-05
3.88312e-05
3.88217e-05
3.88117e-05
3.88011e-05
3.87901e-05
3.87784e-05
3.87661e-05
3.87532e-05
3.87396e-05
3.87254e-05
3.87105e-05
3.86949e-05
3.86784e-05
3.86612e-05
3.8643e-05
3.86237e-05
3.86033e-05
3.85815e-05
3.85583e-05
3.85334e-05
3.85066e-05
3.84778e-05
3.84466e-05
3.84129e-05
3.83764e-05
3.83369e-05
3.82939e-05
3.82474e-05
3.8197e-05
3.81422e-05
3.80827e-05
3.8018e-05
3.79477e-05
3.78712e-05
3.77879e-05
3.7697e-05
3.75972e-05
3.7487e-05
3.73646e-05
3.72284e-05
3.70781e-05
3.69133e-05
3.67318e-05
3.65224e-05
3.62731e-05
3.59777e-05
3.56424e-05
3.52875e-05
3.49259e-05
3.45649e-05
3.40933e-05
3.33761e-05
3.22842e-05
3.06327e-05
2.84896e-05
2.7335e-05
3.06316e-05
4.15784e-05
6.08135e-05
8.6253e-05
0.000114682
0.00014309
0.000169261
0.000191912
0.000210669
0.000225783
3.86451e-05
3.86347e-05
3.8624e-05
3.86128e-05
3.86011e-05
3.85889e-05
3.85761e-05
3.85626e-05
3.85484e-05
3.85335e-05
3.85178e-05
3.85012e-05
3.84836e-05
3.84651e-05
3.84456e-05
3.84249e-05
3.84031e-05
3.83799e-05
3.83554e-05
3.83293e-05
3.83016e-05
3.82721e-05
3.82406e-05
3.8207e-05
3.81709e-05
3.81322e-05
3.80906e-05
3.80458e-05
3.79975e-05
3.79454e-05
3.78893e-05
3.78286e-05
3.7763e-05
3.76918e-05
3.76144e-05
3.75302e-05
3.74384e-05
3.73381e-05
3.72284e-05
3.71079e-05
3.69749e-05
3.68272e-05
3.66623e-05
3.64772e-05
3.62663e-05
3.60221e-05
3.57374e-05
3.54121e-05
3.50559e-05
3.46787e-05
3.42853e-05
3.38711e-05
3.32876e-05
3.24113e-05
3.12048e-05
2.97812e-05
2.83927e-05
2.79644e-05
3.06997e-05
3.94168e-05
5.57293e-05
7.88468e-05
0.00010625
0.000134976
0.0001625
0.000187061
0.000207648
0.000223951
0.000235968
3.83839e-05
3.83712e-05
3.83581e-05
3.83444e-05
3.83301e-05
3.83151e-05
3.82995e-05
3.82831e-05
3.82658e-05
3.82477e-05
3.82286e-05
3.82084e-05
3.81871e-05
3.81646e-05
3.81408e-05
3.81155e-05
3.80888e-05
3.80604e-05
3.80302e-05
3.79981e-05
3.7964e-05
3.79276e-05
3.78888e-05
3.78473e-05
3.78028e-05
3.77552e-05
3.7704e-05
3.7649e-05
3.75897e-05
3.75259e-05
3.74571e-05
3.73828e-05
3.73022e-05
3.72147e-05
3.71195e-05
3.70155e-05
3.69018e-05
3.67771e-05
3.66402e-05
3.64894e-05
3.63224e-05
3.61354e-05
3.59232e-05
3.56796e-05
3.53977e-05
3.50746e-05
3.47163e-05
3.43295e-05
3.39182e-05
3.34964e-05
3.29697e-05
3.2251e-05
3.12431e-05
2.99907e-05
2.88226e-05
2.81475e-05
2.86297e-05
3.12543e-05
3.81371e-05
5.14476e-05
7.16774e-05
9.72594e-05
0.000125528
0.00015382
0.000180056
0.000202852
0.000221407
0.000235278
0.000244478
3.80523e-05
3.80368e-05
3.80207e-05
3.8004e-05
3.79864e-05
3.79681e-05
3.79489e-05
3.79288e-05
3.79076e-05
3.78854e-05
3.78619e-05
3.78372e-05
3.78111e-05
3.77834e-05
3.77542e-05
3.77232e-05
3.76903e-05
3.76554e-05
3.76182e-05
3.75787e-05
3.75365e-05
3.74915e-05
3.74434e-05
3.73918e-05
3.73366e-05
3.72774e-05
3.72136e-05
3.71449e-05
3.70709e-05
3.69913e-05
3.69053e-05
3.6812e-05
3.67108e-05
3.66005e-05
3.648e-05
3.63482e-05
3.62036e-05
3.60446e-05
3.58691e-05
3.56737e-05
3.54539e-05
3.52036e-05
3.49155e-05
3.45858e-05
3.42198e-05
3.38206e-05
3.33924e-05
3.29572e-05
3.24331e-05
3.17706e-05
3.09186e-05
2.98486e-05
2.87086e-05
2.78886e-05
2.79992e-05
2.93577e-05
3.21526e-05
3.76232e-05
4.80186e-05
6.49309e-05
8.79253e-05
0.000114873
0.00014314
0.000170443
0.000195124
0.000216078
0.000232629
0.000244273
0.000251005
3.76164e-05
3.75972e-05
3.75773e-05
3.75565e-05
3.75348e-05
3.75121e-05
3.74882e-05
3.74632e-05
3.74369e-05
3.74092e-05
3.738e-05
3.73492e-05
3.73166e-05
3.72822e-05
3.72457e-05
3.7207e-05
3.71658e-05
3.71221e-05
3.70756e-05
3.7026e-05
3.6973e-05
3.69163e-05
3.68557e-05
3.67906e-05
3.67208e-05
3.66456e-05
3.65646e-05
3.64772e-05
3.63831e-05
3.62812e-05
3.61707e-05
3.60506e-05
3.59198e-05
3.57769e-05
3.56206e-05
3.54493e-05
3.52607e-05
3.50514e-05
3.48171e-05
3.45518e-05
3.42487e-05
3.39034e-05
3.35194e-05
3.30984e-05
3.26473e-05
3.21971e-05
3.16647e-05
3.10109e-05
3.02171e-05
2.92852e-05
2.83114e-05
2.74709e-05
2.71975e-05
2.80563e-05
3.01367e-05
3.32183e-05
3.76928e-05
4.54214e-05
5.87458e-05
7.84554e-05
0.000103199
0.000130541
0.000158099
0.000184023
0.000207016
0.000226193
0.00024085
0.000250566
0.000255258
3.70213e-05
3.69972e-05
3.6972e-05
3.69457e-05
3.69182e-05
3.68894e-05
3.68591e-05
3.68273e-05
3.67938e-05
3.67586e-05
3.67214e-05
3.66822e-05
3.66407e-05
3.65967e-05
3.65501e-05
3.65006e-05
3.64479e-05
3.63919e-05
3.63322e-05
3.62684e-05
3.62001e-05
3.61271e-05
3.60487e-05
3.59645e-05
3.58738e-05
3.5776e-05
3.56704e-05
3.55568e-05
3.54339e-05
3.53006e-05
3.51557e-05
3.49978e-05
3.48253e-05
3.46365e-05
3.4429e-05
3.41996e-05
3.39437e-05
3.36545e-05
3.33245e-05
3.29536e-05
3.25472e-05
3.20935e-05
3.16098e-05
3.11398e-05
3.05882e-05
2.99355e-05
2.91725e-05
2.83165e-05
2.74899e-05
2.68049e-05
2.65264e-05
2.701e-05
2.84771e-05
3.10012e-05
3.42779e-05
3.80995e-05
4.35634e-05
5.3207e-05
6.90053e-05
9.06572e-05
0.00011612
0.000143
0.000169312
0.000193615
0.000214888
0.000232401
0.000245444
0.000253642
0.000256806
3.61746e-05
3.61433e-05
3.61107e-05
3.60766e-05
3.60409e-05
3.60034e-05
3.5964e-05
3.59227e-05
3.58791e-05
3.58332e-05
3.57848e-05
3.57336e-05
3.56794e-05
3.5622e-05
3.55611e-05
3.54963e-05
3.54274e-05
3.53539e-05
3.52755e-05
3.51917e-05
3.51019e-05
3.50056e-05
3.49022e-05
3.47909e-05
3.46708e-05
3.45411e-05
3.44012e-05
3.425e-05
3.40858e-05
3.39072e-05
3.37123e-05
3.34992e-05
3.32654e-05
3.30077e-05
3.27207e-05
3.2397e-05
3.203e-05
3.16229e-05
3.11715e-05
3.06806e-05
3.02089e-05
2.96972e-05
2.91179e-05
2.84674e-05
2.77322e-05
2.69879e-05
2.63138e-05
2.57752e-05
2.57114e-05
2.62267e-05
2.73895e-05
2.92786e-05
3.19269e-05
3.51329e-05
3.8488e-05
4.22395e-05
4.83693e-05
5.97082e-05
7.73373e-05
9.99065e-05
0.000125091
0.000150796
0.000175474
0.000198032
0.000217673
0.000233697
0.000245475
0.000252615
0.000254781
3.49088e-05
3.48673e-05
3.4824e-05
3.47787e-05
3.47312e-05
3.46813e-05
3.4629e-05
3.45739e-05
3.45159e-05
3.44547e-05
3.43902e-05
3.43219e-05
3.42496e-05
3.4173e-05
3.40917e-05
3.40052e-05
3.3913e-05
3.38148e-05
3.37098e-05
3.35975e-05
3.34772e-05
3.3348e-05
3.3209e-05
3.30592e-05
3.28976e-05
3.27235e-05
3.25355e-05
3.23312e-05
3.21086e-05
3.1865e-05
3.15975e-05
3.13029e-05
3.09755e-05
3.06069e-05
3.01962e-05
2.97429e-05
2.9233e-05
2.87106e-05
2.82327e-05
2.77129e-05
2.71259e-05
2.6493e-05
2.58853e-05
2.53376e-05
2.48238e-05
2.46297e-05
2.48472e-05
2.55146e-05
2.66503e-05
2.82388e-05
3.026e-05
3.27099e-05
3.55212e-05
3.83963e-05
4.10303e-05
4.42516e-05
5.07949e-05
6.33475e-05
8.18505e-05
0.00010423
0.000128228
0.000152162
0.00017489
0.000195613
0.000213701
0.000228483
0.00023937
0.000245899
0.000247535
3.29162e-05
3.28602e-05
3.28019e-05
3.2741e-05
3.26771e-05
3.26102e-05
3.25399e-05
3.24661e-05
3.23883e-05
3.23064e-05
3.222e-05
3.21287e-05
3.2032e-05
3.19297e-05
3.1821e-05
3.17055e-05
3.15826e-05
3.14515e-05
3.13115e-05
3.11617e-05
3.10013e-05
3.08291e-05
3.0644e-05
3.04447e-05
3.02299e-05
2.99967e-05
2.97422e-05
2.94634e-05
2.91573e-05
2.88208e-05
2.84487e-05
2.80401e-05
2.75893e-05
2.70792e-05
2.65419e-05
2.60671e-05
2.55789e-05
2.50815e-05
2.4624e-05
2.41907e-05
2.37233e-05
2.33959e-05
2.33757e-05
2.36137e-05
2.41329e-05
2.49526e-05
2.60776e-05
2.74779e-05
2.90958e-05
3.08847e-05
3.28385e-05
3.49679e-05
3.72005e-05
3.92206e-05
4.07202e-05
4.28432e-05
4.91278e-05
6.19594e-05
8.01464e-05
0.000101249
0.000123211
0.000144785
0.000165214
0.000183949
0.000200502
0.000214228
0.000224517
0.000230767
0.000232057
2.96429e-05
2.95695e-05
2.94932e-05
2.94134e-05
2.933e-05
2.92426e-05
2.9151e-05
2.90549e-05
2.89541e-05
2.88481e-05
2.87365e-05
2.86188e-05
2.84946e-05
2.83634e-05
2.82244e-05
2.8077e-05
2.79206e-05
2.77543e-05
2.75771e-05
2.7388e-05
2.7186e-05
2.6971e-05
2.674e-05
2.64881e-05
2.62132e-05
2.59136e-05
2.5588e-05
2.52364e-05
2.48601e-05
2.44569e-05
2.40281e-05
2.35941e-05
2.31711e-05
2.27722e-05
2.24159e-05
2.21054e-05
2.18398e-05
2.17555e-05
2.18622e-05
2.21069e-05
2.24906e-05
2.30187e-05
2.36999e-05
2.45357e-05
2.55172e-05
2.66219e-05
2.78083e-05
2.902e-05
3.02192e-05
3.14305e-05
3.27321e-05
3.41606e-05
3.55745e-05
3.65606e-05
3.67176e-05
3.6911e-05
4.1317e-05
5.27642e-05
6.91547e-05
8.79901e-05
0.000107031
0.000125496
0.000143069
0.000159456
0.000174256
0.000186875
0.000196626
0.000202683
0.000203406
2.42479e-05
2.41624e-05
2.40736e-05
2.39813e-05
2.38856e-05
2.37867e-05
2.36845e-05
2.35789e-05
2.34696e-05
2.33563e-05
2.32386e-05
2.31161e-05
2.29882e-05
2.28543e-05
2.27138e-05
2.25664e-05
2.24111e-05
2.22474e-05
2.20747e-05
2.18924e-05
2.16992e-05
2.14947e-05
2.12816e-05
2.10654e-05
2.08492e-05
2.06365e-05
2.04306e-05
2.02395e-05
2.00727e-05
1.99049e-05
1.97635e-05
1.98252e-05
1.99848e-05
2.02038e-05
2.04776e-05
2.08055e-05
2.11837e-05
2.16066e-05
2.20699e-05
2.25687e-05
2.31028e-05
2.36736e-05
2.42748e-05
2.48889e-05
2.5491e-05
2.60511e-05
2.65377e-05
2.69464e-05
2.73272e-05
2.77815e-05
2.84047e-05
2.91652e-05
2.97711e-05
2.96077e-05
2.80829e-05
2.58471e-05
2.74066e-05
3.41562e-05
4.58068e-05
6.14949e-05
7.63078e-05
9.00999e-05
0.000103294
0.000116206
0.000128574
0.000139617
0.000148634
0.000154738
0.000154898
1.6264e-05
1.62188e-05
1.61836e-05
1.61788e-05
1.62105e-05
1.62708e-05
1.63497e-05
1.64395e-05
1.65351e-05
1.66329e-05
1.67306e-05
1.68265e-05
1.69191e-05
1.70082e-05
1.70933e-05
1.71703e-05
1.72414e-05
1.73215e-05
1.74126e-05
1.75152e-05
1.76304e-05
1.77588e-05
1.79004e-05
1.80549e-05
1.82218e-05
1.84003e-05
1.8589e-05
1.87861e-05
1.89895e-05
1.91952e-05
1.93974e-05
1.95935e-05
1.97785e-05
1.99461e-05
2.00897e-05
2.02039e-05
2.02849e-05
2.03325e-05
2.03534e-05
2.03608e-05
2.03644e-05
2.03577e-05
2.03186e-05
2.02226e-05
2.00513e-05
1.97941e-05
1.94663e-05
1.91479e-05
1.89662e-05
1.90022e-05
1.91864e-05
1.9255e-05
1.87036e-05
1.70503e-05
1.60379e-05
1.55582e-05
1.50878e-05
1.5961e-05
2.08327e-05
2.77507e-05
3.53747e-05
4.32226e-05
5.10005e-05
5.85669e-05
6.58071e-05
7.25754e-05
7.86056e-05
8.34168e-05
8.61239e-05
1.286e-05
1.29842e-05
1.31081e-05
1.3233e-05
1.33598e-05
1.3489e-05
1.36205e-05
1.37536e-05
1.38874e-05
1.40209e-05
1.41529e-05
1.42824e-05
1.44084e-05
1.45295e-05
1.46442e-05
1.47539e-05
1.48554e-05
1.49334e-05
1.49877e-05
1.50196e-05
1.50291e-05
1.5016e-05
1.49792e-05
1.49175e-05
1.4829e-05
1.47114e-05
1.45622e-05
1.43785e-05
1.41574e-05
1.38963e-05
1.35928e-05
1.32453e-05
1.28538e-05
1.24197e-05
1.19475e-05
1.14442e-05
1.0921e-05
1.03946e-05
9.88638e-06
9.4084e-06
8.94478e-06
8.46798e-06
7.97585e-06
7.47831e-06
6.95865e-06
6.40986e-06
5.84335e-06
5.33421e-06
4.8689e-06
4.60053e-06
4.71441e-06
4.88701e-06
4.93869e-06
4.78051e-06
4.55126e-06
4.16862e-06
3.60131e-06
3.48378e-06
4.77385e-06
6.2034e-06
7.46544e-06
9.49945e-06
1.15468e-05
1.3453e-05
1.51918e-05
1.67825e-05
1.82347e-05
1.95273e-05
2.1142e-05
4.0156e-05
4.01643e-05
4.01767e-05
4.01919e-05
4.02101e-05
4.02227e-05
4.02274e-05
4.02221e-05
4.0214e-05
4.02067e-05
4.02025e-05
4.02e-05
4.01974e-05
4.02037e-05
4.0202e-05
4.0198e-05
4.0193e-05
4.01983e-05
4.02167e-05
4.02332e-05
4.02335e-05
4.01865e-05
4.01771e-05
4.01431e-05
4.00948e-05
4.00823e-05
4.00929e-05
4.0126e-05
4.01608e-05
4.0154e-05
4.01182e-05
4.00911e-05
4.0073e-05
4.00633e-05
4.00619e-05
4.00618e-05
4.00525e-05
4.00427e-05
4.00444e-05
4.00618e-05
4.00819e-05
4.0059e-05
4.00447e-05
4.00126e-05
4.00035e-05
4.00083e-05
4.00063e-05
4.00041e-05
3.99908e-05
3.99663e-05
3.99528e-05
3.9952e-05
3.99599e-05
3.99693e-05
3.99868e-05
3.99978e-05
3.99998e-05
3.99979e-05
3.99948e-05
4.01594e-05
4.01723e-05
4.01848e-05
4.0194e-05
4.0197e-05
4.01937e-05
4.01882e-05
4.01802e-05
4.01742e-05
4.01714e-05
4.01702e-05
4.01704e-05
4.01715e-05
4.01719e-05
4.01688e-05
4.01667e-05
4.01704e-05
4.01838e-05
4.02001e-05
4.02045e-05
4.01858e-05
4.01528e-05
4.01376e-05
4.00994e-05
4.00633e-05
4.0059e-05
4.00753e-05
4.01096e-05
4.01379e-05
4.01261e-05
4.00919e-05
4.00659e-05
4.00485e-05
4.00389e-05
4.00368e-05
4.00363e-05
4.0028e-05
4.00181e-05
4.00176e-05
4.00297e-05
4.00487e-05
4.004e-05
4.00275e-05
4.00042e-05
3.99849e-05
3.99782e-05
3.99755e-05
3.99768e-05
3.99758e-05
3.99633e-05
3.99462e-05
3.99335e-05
3.9929e-05
3.99312e-05
3.99416e-05
3.9956e-05
3.99761e-05
3.99914e-05
3.99998e-05
4.01544e-05
4.01582e-05
4.01593e-05
4.01582e-05
4.01533e-05
4.01472e-05
4.01424e-05
4.01388e-05
4.01373e-05
4.01374e-05
4.01379e-05
4.01382e-05
4.0138e-05
4.01367e-05
4.01363e-05
4.01402e-05
4.01509e-05
4.01653e-05
4.01731e-05
4.01647e-05
4.01406e-05
4.01155e-05
4.00938e-05
4.00571e-05
4.00328e-05
4.00358e-05
4.00571e-05
4.00907e-05
4.01115e-05
4.0096e-05
4.00637e-05
4.00389e-05
4.00223e-05
4.00126e-05
4.00099e-05
4.00089e-05
4.00014e-05
3.99917e-05
3.99894e-05
3.99975e-05
4.00133e-05
4.00137e-05
4.00049e-05
3.9989e-05
3.99701e-05
3.99558e-05
3.99473e-05
3.99443e-05
3.9946e-05
3.99443e-05
3.99354e-05
3.99224e-05
3.99107e-05
3.99037e-05
3.99031e-05
3.99088e-05
3.99214e-05
3.99366e-05
3.99522e-05
4.01166e-05
4.01142e-05
4.01108e-05
4.01072e-05
4.01038e-05
4.01014e-05
4.01003e-05
4.01003e-05
4.01009e-05
4.01015e-05
4.01016e-05
4.01014e-05
4.01013e-05
4.01026e-05
4.01072e-05
4.01165e-05
4.01288e-05
4.01377e-05
4.0135e-05
4.01187e-05
4.00953e-05
4.00735e-05
4.00476e-05
4.00166e-05
4.0003e-05
4.00124e-05
4.00372e-05
4.00681e-05
4.00817e-05
4.00636e-05
4.00332e-05
4.00097e-05
3.99938e-05
3.99842e-05
3.99809e-05
3.99793e-05
3.99725e-05
3.9963e-05
3.99591e-05
3.99641e-05
3.99764e-05
3.99814e-05
3.9977e-05
3.99664e-05
3.99518e-05
3.99365e-05
3.99236e-05
3.99148e-05
3.99121e-05
3.99129e-05
3.99116e-05
3.99054e-05
3.98957e-05
3.98856e-05
3.98777e-05
3.9874e-05
3.98753e-05
3.98814e-05
3.98913e-05
4.00625e-05
4.00607e-05
4.00593e-05
4.00584e-05
4.00583e-05
4.00588e-05
4.00597e-05
4.00605e-05
4.00612e-05
4.00615e-05
4.00618e-05
4.00629e-05
4.00656e-05
4.0071e-05
4.00796e-05
4.00902e-05
4.00986e-05
4.00992e-05
4.00885e-05
4.00695e-05
4.00486e-05
4.0027e-05
4.00007e-05
3.99776e-05
3.99734e-05
3.99883e-05
4.00147e-05
4.00415e-05
4.00485e-05
4.00288e-05
4.00003e-05
3.99781e-05
3.99629e-05
3.99533e-05
3.99495e-05
3.99473e-05
3.99411e-05
3.99318e-05
3.99265e-05
3.99288e-05
3.99379e-05
3.99446e-05
3.99439e-05
3.99373e-05
3.9927e-05
3.99144e-05
3.99012e-05
3.98892e-05
3.9881e-05
3.98779e-05
3.98776e-05
3.98767e-05
3.98729e-05
3.98663e-05
3.98583e-05
3.98507e-05
3.9845e-05
3.98425e-05
3.98432e-05
4.00098e-05
4.00104e-05
4.00114e-05
4.00126e-05
4.00138e-05
4.0015e-05
4.00161e-05
4.00169e-05
4.00178e-05
4.00191e-05
4.00213e-05
4.00252e-05
4.00312e-05
4.00393e-05
4.00485e-05
4.00559e-05
4.00578e-05
4.0051e-05
4.00364e-05
4.00182e-05
3.99991e-05
3.99774e-05
3.99541e-05
3.99398e-05
3.99435e-05
3.99623e-05
3.99887e-05
4.00104e-05
4.00117e-05
3.99911e-05
3.99646e-05
3.99436e-05
3.9929e-05
3.99195e-05
3.99153e-05
3.99126e-05
3.99067e-05
3.98977e-05
3.98913e-05
3.98911e-05
3.98972e-05
3.99038e-05
3.99057e-05
3.99022e-05
3.98952e-05
3.98861e-05
3.98753e-05
3.98635e-05
3.98527e-05
3.9845e-05
3.98412e-05
3.98401e-05
3.98394e-05
3.98375e-05
3.98338e-05
3.98284e-05
3.98224e-05
3.98166e-05
3.98119e-05
3.99598e-05
3.99614e-05
3.9963e-05
3.99645e-05
3.99659e-05
3.99672e-05
3.99686e-05
3.99703e-05
3.99727e-05
3.99762e-05
3.9981e-05
3.99872e-05
3.99947e-05
4.00026e-05
4.00089e-05
4.0011e-05
4.00067e-05
3.99959e-05
3.99809e-05
3.99644e-05
3.99461e-05
3.99257e-05
3.99081e-05
3.99024e-05
3.99124e-05
3.99336e-05
3.99582e-05
3.99744e-05
3.99712e-05
3.99503e-05
3.99256e-05
3.99059e-05
3.98919e-05
3.98824e-05
3.98778e-05
3.98747e-05
3.9869e-05
3.98603e-05
3.98529e-05
3.98506e-05
3.98539e-05
3.98594e-05
3.98624e-05
3.98613e-05
3.98568e-05
3.98505e-05
3.98426e-05
3.98332e-05
3.9823e-05
3.98135e-05
3.98062e-05
3.98018e-05
3.97998e-05
3.97991e-05
3.97984e-05
3.9797e-05
3.97945e-05
3.97912e-05
3.97875e-05
3.99069e-05
3.99085e-05
3.99101e-05
3.99117e-05
3.99136e-05
3.99158e-05
3.99186e-05
3.99221e-05
3.99265e-05
3.99318e-05
3.9938e-05
3.99447e-05
3.99513e-05
3.99565e-05
3.99584e-05
3.99556e-05
3.99478e-05
3.99362e-05
3.99225e-05
3.99072e-05
3.98901e-05
3.98732e-05
3.98626e-05
3.98643e-05
3.98788e-05
3.99008e-05
3.99224e-05
3.99334e-05
3.99265e-05
3.99058e-05
3.98828e-05
3.98644e-05
3.98509e-05
3.98416e-05