/*--------------------------------*- C++ -*----------------------------------*\
| =========                 |                                                 |
| \\      /  F ield         | OpenFOAM: The Open Source CFD Toolbox           |
|  \\    /   O peration     | Version:  2312                                  |
|   \\  /    A nd           | Website:  www.openfoam.com                      |
|    \\/     M anipulation  |                                                 |
\*---------------------------------------------------------------------------*/
FoamFile
{
    version     2.0;
    format      ascii;
    arch        "LSB;label=32;scalar=64";
    class       volScalarField;
    location    "1500";
    object      p;
}
// * * * * * * * * * * * * * * * * * * * * * * * * * * * * * * * * * * * * * //

dimensions      [0 2 -2 0 0 0 0];

internalField   nonuniform List<scalar> 
76025
(
0.000269861
0.000265843
0.00026171
0.000257704
0.000253517
0.000249244
0.000244632
0.000240203
0.000235648
0.00023106
0.000226265
0.000221323
0.000216313
0.000211332
0.00020633
0.000201322
0.000196319
0.000191101
0.00018595
0.000180967
0.000175962
0.000170663
0.000165418
0.00016025
0.000155125
0.000150113
0.000145049
0.000139946
0.000135142
0.000130037
0.000125216
0.000120495
0.000115935
0.000111826
0.000107811
0.00010388
9.98879e-05
9.59489e-05
9.24895e-05
8.93169e-05
8.64241e-05
8.37276e-05
8.12903e-05
7.93927e-05
7.79973e-05
7.66276e-05
7.56274e-05
7.52647e-05
7.56204e-05
7.62812e-05
7.75011e-05
7.93915e-05
8.20366e-05
8.56366e-05
9.02084e-05
9.54719e-05
0.000101752
0.000108911
0.000117147
0.000126667
0.000137985
0.000150082
0.000164282
0.000179946
0.000196592
0.000213854
0.00023165
0.000257697
0.000287532
0.00027547
0.000271062
0.000266667
0.000262349
0.000257944
0.000253344
0.000248681
0.000243968
0.000239105
0.000234126
0.000229038
0.000223931
0.000218816
0.000213665
0.000208451
0.000203212
0.000197851
0.00019251
0.000187112
0.000181784
0.000176314
0.000170866
0.000165479
0.000160135
0.000154793
0.000149478
0.000144202
0.000139084
0.000133975
0.000128896
0.000123983
0.000119104
0.000114462
0.000110106
0.000105735
0.000101476
9.72712e-05
9.34041e-05
8.99569e-05
8.67315e-05
8.37763e-05
8.10166e-05
7.86374e-05
7.67139e-05
7.51157e-05
7.38072e-05
7.28684e-05
7.25444e-05
7.281e-05
7.35988e-05
7.49686e-05
7.70457e-05
7.99519e-05
8.37814e-05
8.85723e-05
9.42827e-05
0.000101021
0.000108894
0.000117967
0.000128473
0.00014074
0.000154405
0.000169848
0.000186923
0.000205316
0.000225945
0.000248846
0.000276732
0.00030309
0.000281335
0.000276647
0.000271972
0.000267367
0.000262682
0.000257856
0.000252895
0.000247812
0.000242628
0.000237361
0.000232043
0.000226691
0.000221292
0.000215835
0.000210316
0.000204715
0.000199073
0.00019341
0.000187734
0.000182032
0.000176327
0.000170657
0.000165017
0.000159402
0.000153816
0.000148276
0.000142815
0.000137422
0.000132068
0.000126795
0.000121627
0.000116604
0.000111776
0.000107115
0.00010257
9.81912e-05
9.40246e-05
9.01335e-05
8.65224e-05
8.31616e-05
8.00789e-05
7.72959e-05
7.48632e-05
7.28025e-05
7.11099e-05
6.98266e-05
6.89916e-05
6.86931e-05
6.8964e-05
6.98415e-05
7.13706e-05
7.36365e-05
7.67382e-05
8.07602e-05
8.57748e-05
9.18409e-05
9.90522e-05
0.000107527
0.000117389
0.000128822
0.000142007
0.000156981
0.000173818
0.000192388
0.000212829
0.000236576
0.00026289
0.00029345
0.000319541
0.000287032
0.000282046
0.000277055
0.000272141
0.000267152
0.000261999
0.000256687
0.000251259
0.000245756
0.000240192
0.00023457
0.000228887
0.000223137
0.000217322
0.000211452
0.000205536
0.000199596
0.00019364
0.000187678
0.000181715
0.000175764
0.000169834
0.000163929
0.000158059
0.000152236
0.000146468
0.000140763
0.000135127
0.000129576
0.000124127
0.000118806
0.00011365
0.000108665
0.000103845
9.9187e-05
9.47098e-05
9.04405e-05
8.64057e-05
8.26351e-05
7.91492e-05
7.59669e-05
7.31076e-05
7.05926e-05
6.84512e-05
6.67111e-05
6.5403e-05
6.45604e-05
6.42415e-05
6.45062e-05
6.54101e-05
6.70068e-05
6.93711e-05
7.25959e-05
7.67734e-05
8.19954e-05
8.83554e-05
9.59586e-05
0.000104938
0.000115448
0.000127667
0.000141769
0.000157837
0.000175884
0.000195881
0.00021856
0.000245233
0.000274749
0.000307707
0.000333849
0.000292641
0.000287324
0.000281991
0.000276738
0.00027141
0.000265911
0.000260253
0.000254485
0.000248645
0.000242745
0.000236783
0.000230756
0.000224667
0.000218524
0.000212339
0.000206126
0.000199893
0.00019365
0.000187403
0.000181162
0.000174935
0.00016873
0.000162559
0.000156432
0.000150358
0.000144346
0.000138408
0.000132557
0.000126808
0.000121168
0.000115663
0.000110321
0.000105149
0.000100144
9.53087e-05
9.06594e-05
8.62246e-05
8.20369e-05
7.81277e-05
7.45181e-05
7.12229e-05
6.82585e-05
6.56453e-05
6.34097e-05
6.15811e-05
6.01942e-05
5.92921e-05
5.89291e-05
5.91637e-05
6.00551e-05
6.16664e-05
6.40733e-05
6.73654e-05
7.16403e-05
7.70028e-05
8.35672e-05
9.14624e-05
0.00010084
0.00011187
0.000124739
0.000139607
0.000156581
0.000175699
0.000197187
0.00022227
0.000251688
0.000284224
0.000319317
0.00034539
0.000298304
0.00029263
0.00028694
0.000281333
0.000275653
0.000269799
0.000263783
0.000257655
0.000251455
0.000245196
0.000238878
0.000232501
0.000226069
0.00021959
0.000213077
0.000206538
0.000199982
0.000193417
0.000186854
0.0001803
0.000173767
0.000167264
0.000160803
0.000154393
0.000148046
0.000141772
0.000135583
0.000129491
0.000123505
0.000117638
0.000111918
0.000106372
0.000101003
9.58071e-05
9.07892e-05
8.59708e-05
8.13813e-05
7.70509e-05
7.30046e-05
6.92609e-05
6.58346e-05
6.27421e-05
6.00038e-05
5.76463e-05
5.57022e-05
5.42105e-05
5.32164e-05
5.27704e-05
5.29293e-05
5.37548e-05
5.53154e-05
5.76894e-05
6.09685e-05
6.52567e-05
7.06702e-05
7.73393e-05
8.54108e-05
9.50525e-05
0.00010645
0.000119791
0.00013524
0.000152927
0.000172992
0.000196082
0.000223564
0.000255471
0.000290687
0.000327076
0.000352733
0.000303972
0.000297912
0.000291842
0.000285863
0.00027981
0.000273579
0.00026718
0.000260668
0.000254083
0.000247443
0.000240749
0.000233999
0.000227197
0.000220352
0.000213475
0.000206576
0.000199666
0.000192755
0.000185851
0.000178966
0.00017211
0.000165295
0.000158531
0.00015183
0.000145201
0.000138656
0.000132207
0.000125863
0.000119637
0.000113545
0.000107618
0.000101874
9.63096e-05
9.09191e-05
8.57122e-05
8.07136e-05
7.59525e-05
7.14564e-05
6.72477e-05
6.33439e-05
5.97601e-05
5.65129e-05
5.36233e-05
5.11185e-05
4.90315e-05
4.74016e-05
4.62727e-05
4.56948e-05
4.57242e-05
4.64238e-05
4.78643e-05
5.01271e-05
5.33067e-05
5.75126e-05
6.287e-05
6.95214e-05
7.76287e-05
8.73738e-05
9.89517e-05
0.000112555
0.000128364
0.000146575
0.000167542
0.00019233
0.000221928
0.000255902
0.000292911
0.000329287
0.000354238
0.00030957
0.000303096
0.000296618
0.000290238
0.000283785
0.000277149
0.000270342
0.000263421
0.00025643
0.000249387
0.000242293
0.000235148
0.000227953
0.00022072
0.000213459
0.000206184
0.000198904
0.000191632
0.000184377
0.00017715
0.000169962
0.000162825
0.00015575
0.000148747
0.000141827
0.000135003
0.000128283
0.00012168
0.000115205
0.00010888
0.000102734
9.67731e-05
9.09914e-05
8.53855e-05
7.99709e-05
7.47748e-05
6.9826e-05
6.51496e-05
6.07655e-05
5.66888e-05
5.29333e-05
4.95147e-05
4.64537e-05
4.37766e-05
4.15162e-05
3.97107e-05
3.84035e-05
3.76437e-05
3.74866e-05
3.79947e-05
3.92394e-05
4.13034e-05
4.42841e-05
4.82952e-05
5.34691e-05
5.99581e-05
6.79348e-05
7.759e-05
8.91256e-05
0.000102749
0.000118689
0.000137268
0.000159142
0.000185496
0.00021662
0.00025197
0.00028928
0.000324045
0.000347753
0.000315077
0.000308162
0.000301247
0.000294437
0.000287554
0.000280486
0.000273245
0.00026589
0.000258468
0.000250999
0.000243484
0.000235922
0.000228316
0.000220677
0.000213016
0.000205348
0.000197685
0.000190036
0.000182414
0.00017483
0.000167295
0.00015982
0.000152417
0.000145097
0.000137872
0.000130751
0.000123747
0.00011687
0.000110134
0.000103564
9.71823e-05
9.09902e-05
8.49794e-05
7.91508e-05
7.35239e-05
6.81263e-05
6.29845e-05
5.81201e-05
5.35493e-05
4.92846e-05
4.53382e-05
4.17251e-05
3.84654e-05
3.55851e-05
3.31159e-05
3.10946e-05
2.95629e-05
2.85677e-05
2.8162e-05
2.84065e-05
2.93718e-05
3.11405e-05
3.38112e-05
3.75005e-05
4.23451e-05
4.85026e-05
5.6151e-05
6.54869e-05
7.67256e-05
9.01133e-05
0.00010597
0.00012479
0.000147454
0.000174813
0.00020667
0.00024235
0.000278306
0.000310249
0.000330698
0.000320468
0.000313086
0.000305704
0.000298435
0.000291093
0.000283564
0.00027586
0.000268043
0.000260163
0.000252241
0.000244279
0.000236276
0.000228236
0.000220168
0.000212087
0.000204006
0.000195938
0.000187895
0.000179888
0.000171928
0.000164028
0.000156199
0.000148454
0.000140804
0.000133259
0.000125832
0.000118533
0.000111373
0.000104369
9.75477e-05
9.09233e-05
8.44906e-05
7.82425e-05
7.21844e-05
6.63382e-05
6.07303e-05
5.53841e-05
5.03176e-05
4.55436e-05
4.10724e-05
3.69147e-05
3.30847e-05
2.96017e-05
2.64899e-05
2.37793e-05
2.15038e-05
1.97017e-05
1.84162e-05
1.76971e-05
1.76019e-05
1.81982e-05
1.95672e-05
2.18063e-05
2.50319e-05
2.93807e-05
3.50106e-05
4.21018e-05
5.08617e-05
6.15371e-05
7.44405e-05
8.99955e-05
0.000108833
0.00013177
0.000159136
0.000190769
0.000225367
0.000258807
0.000288201
0.000307033
0.000325691
0.00031781
0.000309933
0.000302175
0.000294345
0.000286325
0.000278128
0.000269819
0.000261451
0.000253047
0.000244611
0.00023614
0.000227639
0.000219118
0.000210593
0.000202078
0.000193585
0.000185127
0.000176717
0.000168366
0.000160087
0.000151892
0.000143793
0.000135801
0.000127929
0.000120187
0.000112586
0.000105137
9.78609e-05
9.0782e-05
8.39044e-05
7.72201e-05
7.07245e-05
6.44281e-05
5.83543e-05
5.25272e-05
4.69668e-05
4.1687e-05
3.66973e-05
3.20055e-05
2.76205e-05
2.3555e-05
1.98262e-05
1.64564e-05
1.34719e-05
1.09029e-05
8.78316e-06
7.15113e-06
6.05149e-06
5.53679e-06
5.67007e-06
6.52791e-06
8.2033e-06
1.08078e-05
1.44732e-05
1.93552e-05
2.56407e-05
3.35613e-05
4.34103e-05
5.55579e-05
7.04732e-05
8.87519e-05
0.000110886
0.000137092
0.000167253
0.000199186
0.000229602
0.000257223
0.000274585
0.000330679
0.000322268
0.000313863
0.000305586
0.000297238
0.000288696
0.000279976
0.000271145
0.00026226
0.000253345
0.000244405
0.000235439
0.000226452
0.000217454
0.000208461
0.000199489
0.000190551
0.000181661
0.000172831
0.000164073
0.000155401
0.000146827
0.000138363
0.00013002
0.000121811
0.000113746
0.000105835
9.80921e-05
9.05403e-05
8.31961e-05
7.6056e-05
6.91117e-05
6.23622e-05
5.58229e-05
4.95171e-05
4.34657e-05
3.76843e-05
3.21827e-05
2.69668e-05
2.20416e-05
1.74141e-05
1.30951e-05
9.09932e-06
5.44569e-06
2.15647e-06
-7.43409e-07
-3.22608e-06
-5.2595e-06
-6.80592e-06
-7.81995e-06
-8.2461e-06
-8.01597e-06
-7.04569e-06
-5.23308e-06
-2.45291e-06
1.45223e-06
6.68558e-06
1.35069e-05
2.22275e-05
3.31915e-05
4.67757e-05
6.3375e-05
8.33772e-05
0.0001073
0.000134467
0.000162608
0.000190074
0.000216455
0.00023363
0.000335362
0.000326385
0.000317419
0.000308589
0.000299691
0.000290596
0.00028132
0.000271937
0.000262503
0.000253048
0.000243577
0.000234089
0.000224589
0.000215088
0.000205604
0.000196153
0.00018675
0.000177408
0.00016814
0.00015896
0.00014988
0.000140913
0.000132072
0.000123369
0.000114813
0.000106417
9.81909e-05
9.01503e-05
8.23192e-05
7.47033e-05
6.72949e-05
6.00868e-05
5.30826e-05
4.63007e-05
3.97624e-05
3.34846e-05
2.74781e-05
2.17484e-05
1.62979e-05
1.11294e-05
6.24773e-06
1.66106e-06
-2.61882e-06
-6.57725e-06
-1.01974e-05
-1.34609e-05
-1.63473e-05
-1.8833e-05
-2.08891e-05
-2.24803e-05
-2.35623e-05
-2.4079e-05
-2.39595e-05
-2.3112e-05
-2.1414e-05
-1.87012e-05
-1.47619e-05
-9.35694e-06
-2.26233e-06
6.70956e-06
1.77709e-05
3.13134e-05
4.81335e-05
6.86447e-05
9.16979e-05
0.000115985
0.000140997
0.000165903
0.000180824
0.000339657
0.000330075
0.000320512
0.000311094
0.00030161
0.000291928
0.000282064
0.000272094
0.000262082
0.000252056
0.000242024
0.000231986
0.000221946
0.000211918
0.000201919
0.000191967
0.000182077
0.000172265
0.000162543
0.000152925
0.000143424
0.000134054
0.000124827
0.000115754
0.000106847
9.81156e-05
8.95712e-05
8.12345e-05
7.31217e-05
6.523e-05
5.75501e-05
5.0077e-05
4.28193e-05
3.57962e-05
2.90259e-05
2.25206e-05
1.62863e-05
1.03246e-05
4.63491e-06
-7.82551e-07
-5.92536e-06
-1.07882e-05
-1.53634e-05
-1.96415e-05
-2.36125e-05
-2.7266e-05
-3.05905e-05
-3.35727e-05
-3.61952e-05
-3.8436e-05
-4.02652e-05
-4.16418e-05
-4.25074e-05
-4.27774e-05
-4.23331e-05
-4.10245e-05
-3.87e-05
-3.52619e-05
-3.06937e-05
-2.49622e-05
-1.77608e-05
-8.21836e-06
4.68702e-06
2.09679e-05
3.99774e-05
6.13963e-05
8.49162e-05
0.000108936
0.000126064
0.000343461
0.000333236
0.000323035
0.00031299
0.000302883
0.000292577
0.000282088
0.000271497
0.000260871
0.000250242
0.000239618
0.000228999
0.000218392
0.00020781
0.000197271
0.000186795
0.000176399
0.000166097
0.000155904
0.000145833
0.000135899
0.000126114
0.000116492
0.000107042
9.77775e-05
8.87067e-05
7.98443e-05
7.12118e-05
6.2815e-05
5.46457e-05
4.66953e-05
3.89624e-05
3.14594e-05
2.42042e-05
1.721e-05
1.04841e-05
4.02755e-06
-2.16183e-06
-8.08745e-06
-1.37516e-05
-1.91544e-05
-2.42943e-05
-2.91681e-05
-3.37728e-05
-3.8106e-05
-4.21667e-05
-4.59541e-05
-4.9467e-05
-5.2702e-05
-5.5652e-05
-5.83025e-05
-6.06257e-05
-6.25743e-05
-6.40797e-05
-6.50635e-05
-6.5475e-05
-6.53498e-05
-6.48269e-05
-6.40169e-05
-6.27054e-05
-6.0071e-05
-5.48639e-05
-4.62379e-05
-3.39836e-05
-1.80639e-05
1.31421e-06
2.36818e-05
4.77502e-05
6.74493e-05
0.000346659
0.000335746
0.000324866
0.000314153
0.000303385
0.000292415
0.000281264
0.000270016
0.000258741
0.000247475
0.000236228
0.000225
0.000213798
0.000202637
0.000191536
0.000180516
0.000169595
0.000158789
0.000148112
0.000137579
0.000127203
0.000116999
0.000106979
9.71534e-05
8.75333e-05
7.81282e-05
6.89568e-05
6.00332e-05
5.13539e-05
4.29086e-05
3.46906e-05
2.67033e-05
1.89616e-05
1.14799e-05
4.26665e-06
-2.67603e-06
-9.35104e-06
-1.5764e-05
-2.19207e-05
-2.78259e-05
-3.34829e-05
-3.8894e-05
-4.40619e-05
-4.89907e-05
-5.3687e-05
-5.81605e-05
-6.24223e-05
-6.64845e-05
-7.03579e-05
-7.40487e-05
-7.75546e-05
-8.08628e-05
-8.39556e-05
-8.68318e-05
-8.9548e-05
-9.22721e-05
-9.52764e-05
-9.87668e-05
-0.000102585
-0.000106017
-0.000107844
-0.000106762
-0.000101845
-9.25496e-05
-7.887e-05
-6.13775e-05
-4.0409e-05
-1.71369e-05
1.50716e-07
0.000349097
0.000337448
0.00032584
0.000314416
0.00030294
0.000291265
0.000279409
0.000267461
0.000255498
0.000243557
0.000231651
0.00021978
0.000207952
0.000196182
0.000184493
0.000172905
0.000161438
0.000150108
0.000138931
0.000127922
0.000117094
0.000106461
9.60346e-05
8.58271e-05
7.58475e-05
6.61101e-05
5.66334e-05
4.74213e-05
3.84651e-05
2.97553e-05
2.1288e-05
1.30708e-05
5.117e-06
-2.5644e-06
-9.97085e-06
-1.71056e-05
-2.39757e-05
-3.05897e-05
-3.69557e-05
-4.3081e-05
-4.89716e-05
-5.46344e-05
-6.0078e-05
-6.53143e-05
-7.03597e-05
-7.52348e-05
-7.99628e-05
-8.4567e-05
-8.90685e-05
-9.34841e-05
-9.78303e-05
-0.000102137
-0.000106478
-0.00011101
-0.000116017
-0.000121869
-0.000128815
-0.000136713
-0.000144989
-0.000152614
-0.000158119
-0.000160138
-0.000157763
-0.000150558
-0.000138946
-0.000123395
-0.0001039
-8.17645e-05
-6.41286e-05
0.000350628
0.000338195
0.000325815
0.000313634
0.000301411
0.000288988
0.000276388
0.000263704
0.000251016
0.000238368
0.000225772
0.000213231
0.000200753
0.000188355
0.00017606
0.00016389
0.000151867
0.000140008
0.000128329
0.000116845
0.000105571
9.452e-05
8.3704e-05
7.31334e-05
6.28172e-05
5.27719e-05
4.30073e-05
3.35177e-05
2.42925e-05
1.53242e-05
6.61389e-06
-1.82761e-06
-9.98992e-06
-1.78689e-05
-2.54667e-05
-3.27906e-05
-3.98504e-05
-4.66567e-05
-5.32194e-05
-5.95481e-05
-6.56523e-05
-7.15439e-05
-7.72381e-05
-8.27557e-05
-8.81233e-05
-9.33717e-05
-9.8533e-05
-0.000103639
-0.00010872
-0.000113818
-0.000119002
-0.000124402
-0.000130249
-0.0001369
-0.000144771
-0.000154104
-0.000164762
-0.000176367
-0.00018817
-0.00019873
-0.000206499
-0.00021047
-0.000209911
-0.000204651
-0.000195132
-0.000181542
-0.000163758
-0.000142965
-0.000125702
0.000350965
0.000337686
0.000324473
0.000311478
0.000298449
0.000285224
0.000271825
0.000258351
0.000244888
0.000231484
0.000218153
0.0002049
0.000191732
0.000178669
0.000165734
0.000152953
0.000140347
0.000127935
0.000115733
0.000103756
9.20196e-05
8.05354e-05
6.9316e-05
5.83719e-05
4.77186e-05
3.73711e-05
2.73291e-05
1.75826e-05
8.12174e-06
-1.05909e-06
-9.95546e-06
-1.85588e-05
-2.68655e-05
-3.48782e-05
-4.26051e-05
-5.0058e-05
-5.72496e-05
-6.41928e-05
-7.08992e-05
-7.73803e-05
-8.36489e-05
-8.97213e-05
-9.56195e-05
-0.000101372
-0.000107014
-0.000112585
-0.000118125
-0.000123682
-0.000129317
-0.000135127
-0.000141269
-0.000147993
-0.000155655
-0.000164641
-0.000175129
-0.000187021
-0.000200221
-0.000214331
-0.000228071
-0.000239924
-0.000248971
-0.000254461
-0.000255691
-0.000252358
-0.000244724
-0.000233092
-0.000217517
-0.000198841
-0.0001832
0.00035005
0.000335879
0.000321791
0.000307943
0.000294073
0.000280009
0.000265776
0.00025148
0.000237212
0.000223026
0.000208938
0.000194955
0.000181086
0.000167351
0.000153775
0.000140387
0.00012721
0.000114263
0.000101564
8.91292e-05
7.69719e-05
6.5105e-05
5.35372e-05
4.22773e-05
3.13386e-05
2.07245e-05
1.0426e-05
4.32031e-07
-9.26508e-06
-1.8665e-05
-2.77598e-05
-3.65439e-05
-4.50181e-05
-5.31894e-05
-6.1069e-05
-6.86703e-05
-7.6007e-05
-8.3092e-05
-8.99374e-05
-9.65556e-05
-0.000102962
-0.000109177
-0.00011523
-0.00012116
-0.000127017
-0.000132857
-0.000138751
-0.000144782
-0.000151061
-0.000157741
-0.000165028
-0.000173194
-0.000182493
-0.000192979
-0.000204615
-0.000217642
-0.000232055
-0.000246872
-0.000260847
-0.000273284
-0.000283588
-0.000290698
-0.000293651
-0.000292026
-0.000286032
-0.000276313
-0.00026321
-0.000247403
-0.000234836
0.000347087
0.000331938
0.000316883
0.000302095
0.0002873
0.000272318
0.000257174
0.00024198
0.000226836
0.000211799
0.00019689
0.000182115
0.000167486
0.000153024
0.000138756
0.000124712
0.000110917
9.73911e-05
8.41524e-05
7.12162e-05
5.85968e-05
4.63083e-05
3.43648e-05
2.27827e-05
1.15707e-05
7.22505e-07
-9.77436e-06
-1.99318e-05
-2.97572e-05
-3.92491e-05
-4.84048e-05
-5.72273e-05
-6.57256e-05
-7.39129e-05
-8.18053e-05
-8.94188e-05
-9.67683e-05
-0.000103866
-0.000110723
-0.000117349
-0.000123759
-0.000129978
-0.000136047
-0.000142031
-0.000148011
-0.000154083
-0.000160353
-0.000166933
-0.000173948
-0.000181533
-0.000189825
-0.000198891
-0.000208628
-0.000219017
-0.000230532
-0.000243467
-0.000257241
-0.000271153
-0.000284988
-0.000298362
-0.00031012
-0.000318816
-0.000323263
-0.000323059
-0.000318432
-0.000310312
-0.000299563
-0.000287006
-0.000278228
0.000342765
0.000326594
0.000310556
0.000294808
0.000279066
0.000263143
0.000247066
0.000230956
0.00021492
0.000199024
0.000183293
0.000167736
0.000152366
0.000137205
0.000122285
0.000107637
9.32896e-05
7.92648e-05
6.55811e-05
5.22529e-05
3.92905e-05
2.66994e-05
1.4488e-05
2.66472e-06
-8.77435e-06
-1.98408e-05
-3.05463e-05
-4.08982e-05
-5.0896e-05
-6.05364e-05
-6.98206e-05
-7.87558e-05
-8.73538e-05
-9.56292e-05
-0.000103597
-0.000111272
-0.000118664
-0.000125781
-0.000132629
-0.000139214
-0.000145554
-0.000151686
-0.00015768
-0.000163642
-0.0001697
-0.000175981
-0.000182588
-0.000189606
-0.000197096
-0.000205092
-0.000213511
-0.000222145
-0.000230952
-0.000240413
-0.000250875
-0.000262043
-0.000273851
-0.00028689
-0.000301276
-0.000315943
-0.000329094
-0.000339073
-0.000344766
-0.000345695
-0.000342126
-0.000335102
-0.000326171
-0.00031659
-0.000311064
0.000334437
0.000317133
0.000299951
0.000283109
0.000266304
0.000249328
0.000232207
0.000215068
0.00019803
0.000181164
0.000164502
0.000148055
0.000131837
0.000115873
0.000100198
8.48454e-05
6.98453e-05
5.52224e-05
4.09982e-05
2.7192e-05
1.38236e-05
9.09894e-07
-1.15393e-05
-2.35285e-05
-3.50728e-05
-4.61905e-05
-5.68986e-05
-6.72069e-05
-7.712e-05
-8.66452e-05
-9.57947e-05
-0.000104585
-0.000113034
-0.00012116
-0.00012898
-0.000136503
-0.000143737
-0.00015068
-0.00015733
-0.000163688
-0.000169773
-0.000175631
-0.000181352
-0.00018707
-0.000192949
-0.000199142
-0.000205738
-0.000212699
-0.000219879
-0.000227153
-0.000234304
-0.000241196
-0.000248217
-0.00025581
-0.000263752
-0.000272214
-0.000282505
-0.000295644
-0.000311083
-0.000326997
-0.000341362
-0.000352413
-0.000359005
-0.000360676
-0.000357708
-0.000351204
-0.000343296
-0.00033618
-0.000334185
0.000325565
0.000307069
0.000288792
0.000270873
0.000252999
0.000234969
0.000216814
0.00019867
0.000180666
0.000162883
0.000145355
0.000128098
0.000111129
9.44758e-05
7.81759e-05
6.22658e-05
4.67754e-05
3.17267e-05
1.7133e-05
3.00161e-06
-1.06589e-05
-2.38352e-05
-3.65227e-05
-4.87295e-05
-6.04695e-05
-7.17569e-05
-8.26022e-05
-9.30134e-05
-0.000103002
-0.000112589
-0.000121798
-0.000130661
-0.000139213
-0.000147487
-0.000155511
-0.0001633
-0.000170843
-0.000178098
-0.000184995
-0.000191456
-0.000197453
-0.000203052
-0.000208429
-0.000213795
-0.000219296
-0.000224996
-0.000230958
-0.000237142
-0.000243072
-0.000248202
-0.000252579
-0.000256536
-0.000260642
-0.000264955
-0.000269668
-0.000276109
-0.000285916
-0.00029964
-0.000316123
-0.00033317
-0.000348517
-0.000360218
-0.000367071
-0.000368742
-0.000365557
-0.000358708
-0.000350815
-0.000345104
-0.000346095
0.000308538
0.000288697
0.000268994
0.000249747
0.000230607
0.000211319
0.000191911
0.000172535
0.00015334
0.000134417
0.000115812
9.75432e-05
7.96308e-05
6.21108e-05
4.50315e-05
2.84437e-05
1.23922e-05
-3.08718e-06
-1.79702e-05
-3.22461e-05
-4.59166e-05
-5.89943e-05
-7.14998e-05
-8.34574e-05
-9.48905e-05
-0.000105818
-0.000116255
-0.000126219
-0.000135737
-0.000144841
-0.000153576
-0.000161998
-0.000170176
-0.00017819
-0.000186115
-0.000194008
-0.000201863
-0.000209577
-0.000216938
-0.000223679
-0.000229608
-0.000234791
-0.000239628
-0.000244558
-0.000249564
-0.000254136
-0.000258086
-0.000261963
-0.000265322
-0.00026698
-0.000267821
-0.000268665
-0.000269437
-0.000270584
-0.00027318
-0.00027857
-0.000288119
-0.000302181
-0.000319355
-0.000337136
-0.000352785
-0.000364101
-0.000369942
-0.000370228
-0.000365401
-0.000356864
-0.000347703
-0.000341825
-0.000343859
0.000293499
0.000272352
0.000251575
0.000231236
0.000210974
0.000190569
0.000170058
0.000149598
0.000129352
0.000109429
8.98848e-05
7.07388e-05
5.20023e-05
3.36949e-05
1.58495e-05
-1.48983e-06
-1.82671e-05
-3.44235e-05
-4.99095e-05
-6.4687e-05
-7.87374e-05
-9.20647e-05
-0.00010469
-0.000116643
-0.00012796
-0.000138681
-0.000148848
-0.000158505
-0.000167686
-0.000176412
-0.000184696
-0.000192553
-0.00020003
-0.00020723
-0.000214335
-0.000221591
-0.000229218
-0.000237277
-0.000245535
-0.000253428
-0.000260187
-0.000265256
-0.000268996
-0.000272605
-0.000276616
-0.000279914
-0.000281154
-0.000281307
-0.000281481
-0.000280985
-0.000279423
-0.000277477
-0.000276169
-0.0002762
-0.000278222
-0.00028315
-0.000292281
-0.000306073
-0.000323106
-0.000340642
-0.000355474
-0.000365008
-0.000368009
-0.000364743
-0.000356248
-0.000344354
-0.000332392
-0.000324539
-0.00032542
0.000262169
0.000239164
0.000216329
0.000194172
0.000172301
0.00015038
0.000128407
0.000106544
8.49696e-05
6.38144e-05
4.31621e-05
2.30759e-05
3.6272e-06
-1.51189e-05
-3.31436e-05
-5.04669e-05
-6.70919e-05
-8.30051e-05
-9.82086e-05
-0.000112713
-0.000126519
-0.000139621
-0.000152022
-0.000163729
-0.000174755
-0.000185118
-0.000194842
-0.000203959
-0.000212496
-0.000220481
-0.000227932
-0.00023486
-0.000241288
-0.000247281
-0.000252987
-0.000258646
-0.000264528
-0.000270761
-0.000277228
-0.000283492
-0.000288698
-0.000291802
-0.0002927
-0.000292935
-0.000293871
-0.000295087
-0.000295318
-0.000294358
-0.000292589
-0.000290303
-0.000287535
-0.000284562
-0.00028207
-0.000281041
-0.000282419
-0.000286804
-0.000295049
-0.000307912
-0.000324463
-0.000341679
-0.000355394
-0.000361979
-0.000359871
-0.000350159
-0.000335188
-0.000317643
-0.00030111
-0.000289647
-0.000288096
0.000239369
0.000215398
0.000191901
0.000168604
0.00014525
0.000121803
9.83752e-05
7.51339e-05
5.22314e-05
2.97552e-05
7.7161e-06
-1.39225e-05
-3.51028e-05
-5.56306e-05
-7.53162e-05
-9.40216e-05
-0.000111651
-0.000128152
-0.000143515
-0.000157752
-0.000170905
-0.000183033
-0.000194205
-0.000204513
-0.000214082
-0.000223063
-0.000231626
-0.000239936
-0.000248126
-0.000256262
-0.000264311
-0.000272116
-0.000279407
-0.000285864
-0.000291229
-0.000295453
-0.000298639
-0.000300705
-0.000301717
-0.000302129
-0.000302442
-0.000302589
-0.000302221
-0.000301339
-0.000300187
-0.000299233
-0.000298547
-0.000297798
-0.000296653
-0.000294934
-0.000292541
-0.000289485
-0.000286053
-0.000283137
-0.00028212
-0.000284182
-0.000290313
-0.000301646
-0.000318077
-0.000335989
-0.000348981
-0.000351717
-0.000342665
-0.000324166
-0.000300061
-0.000274316
-0.000251343
-0.00023515
-0.0002293
0.000181971
0.000155741
0.000129969
0.000104885
7.9944e-05
5.48288e-05
2.97046e-05
4.92388e-06
-1.92315e-05
-4.26034e-05
-6.51003e-05
-8.66379e-05
-0.000107207
-0.000126855
-0.000145524
-0.000163062
-0.000179357
-0.000194358
-0.000208027
-0.000220359
-0.000231379
-0.000241137
-0.000249701
-0.000257161
-0.00026362
-0.000269207
-0.000274067
-0.000278359
-0.000282244
-0.000285867
-0.000289334
-0.000292702
-0.00029597
-0.000299091
-0.000302014
-0.00030473
-0.000307138
-0.000308913
-0.000309781
-0.000309718
-0.000308927
-0.000307705
-0.000306215
-0.000304485
-0.000302648
-0.000300878
-0.000299255
-0.000297666
-0.000295967
-0.000294097
-0.000292071
-0.000289917
-0.000287651
-0.000285434
-0.000283759
-0.000283554
-0.00028615
-0.000294393
-0.000311092
-0.000332885
-0.000350167
-0.000354748
-0.000343945
-0.000319295
-0.000285203
-0.00024892
-0.000217343
-0.000194031
-0.000182593
-0.000191658
-0.000181833
-0.000171379
-0.000160502
-0.000148953
-0.000136571
-0.000123292
-0.000109391
-9.50177e-05
-7.97958e-05
-6.36247e-05
-4.66856e-05
-2.93047e-05
-1.05965e-05
7.90522e-06
2.73534e-05
4.67555e-05
6.71413e-05
8.74102e-05
0.000107276
0.000128449
0.000148727
0.000168671
0.000187825
0.000206391
0.000224173
0.00024054
0.000255937
0.000270677
0.0002833
0.000294419
0.000304076
0.000312611
0.000319798
0.000325157
0.000329263
0.00033237
0.00033388
0.000334332
0.000334201
0.00033258
0.000330643
0.000328722
0.00032627
0.000322809
0.000319466
0.000315624
0.000311833
0.000307705
0.000303658
0.000299702
0.000295783
0.000292214
0.000288668
0.00028528
0.000281793
0.000278675
0.000275649
0.000272918
-0.000199309
-0.00018916
-0.000178371
-0.000166929
-0.000154767
-0.000141854
-0.000128133
-0.000113645
-9.84365e-05
-8.24513e-05
-6.56963e-05
-4.81531e-05
-2.9868e-05
-1.08638e-05
8.73045e-06
2.8773e-05
4.94505e-05
7.04098e-05
9.1667e-05
0.000112638
0.000134069
0.000155303
0.00017596
0.000195882
0.000214996
0.000233366
0.000250567
0.000266424
0.000281334
0.00029458
0.000305888
0.000315827
0.000324361
0.000331458
0.000336906
0.000340908
0.000343782
0.000345347
0.000345589
0.00034496
0.000343512
0.000341508
0.000339023
0.000335791
0.000332218
0.000328385
0.000324352
0.00032025
0.000315922
0.000311596
0.000307372
0.000303236
0.000299177
0.00029535
0.000291615
0.000288135
0.000284922
0.00028186
0.000278968
-0.000207807
-0.000197242
-0.000186029
-0.000174077
-0.000161375
-0.000147886
-0.000133611
-0.000118544
-0.000102662
-8.59517e-05
-6.84383e-05
-5.01474e-05
-3.1091e-05
-1.1328e-05
9.06915e-06
3.01009e-05
5.16695e-05
7.36089e-05
9.57124e-05
0.000117785
0.000139955
0.000161944
0.000183423
0.000204146
0.000224086
0.000243131
0.000260974
0.000277498
0.000292794
0.000306396
0.000318222
0.000328425
0.000336973
0.000343981
0.00034938
0.000353299
0.000355943
0.000357386
0.000357568
0.000356835
0.000355276
0.000352941
0.000349962
0.000346356
0.000342404
0.000338212
0.000333793
0.000329251
0.000324637
0.000320046
0.000315549
0.000311141
0.00030684
0.00030269
0.000298759
0.000295045
0.000291537
0.000288211
0.000285096
-0.00021674
-0.000205741
-0.000194063
-0.000181625
-0.000168409
-0.000154379
-0.000139525
-0.000123835
-0.000107288
-8.98739e-05
-7.16046e-05
-5.25045e-05
-3.2603e-05
-1.19694e-05
9.3213e-06
3.12493e-05
5.37011e-05
7.65671e-05
9.96139e-05
0.000122742
0.000145863
0.000168713
0.000191057
0.000212668
0.000233473
0.000253266
0.000271788
0.000288968
0.000304741
0.00031876
0.000331041
0.000341538
0.000350231
0.000357279
0.000362648
0.000366494
0.000368973
0.000370221
0.00037024
0.000369277
0.000367412
0.000364709
0.000361344
0.00035742
0.000353062
0.00034844
0.000343601
0.00033864
0.000333651
0.000328699
0.000323836
0.000319089
0.000314492
0.000310064
0.000305836
0.000301807
0.000297986
0.000294374
0.000291027
-0.000226342
-0.000214873
-0.000202695
-0.000189729
-0.000175957
-0.000161342
-0.000145862
-0.000129499
-0.000112241
-9.40841e-05
-7.50347e-05
-5.51099e-05
-3.43447e-05
-1.28049e-05
9.43476e-06
3.23056e-05
5.57133e-05
7.95366e-05
0.000103588
0.000127747
0.000151856
0.000175658
0.000198937
0.000221486
0.00024316
0.000263732
0.000282977
0.0003008
0.000317095
0.00033158
0.000344269
0.000355078
0.000363988
0.000371128
0.000376503
0.000380291
0.000382628
0.000383657
0.000383428
0.000382129
0.000379877
0.000376781
0.000373008
0.000368674
0.00036389
0.000358818
0.000353555
0.000348187
0.000342794
0.000337439
0.000332176
0.000327047
0.000322085
0.000317315
0.000312757
0.000308424
0.000304333
0.000300476
0.000296903
-0.000236869
-0.000224902
-0.000212189
-0.00019865
-0.000184269
-0.000169007
-0.000152842
-0.000135753
-0.000117729
-9.87676e-05
-7.88772e-05
-5.80756e-05
-3.6398e-05
-1.39019e-05
9.33953e-06
3.32381e-05
5.7689e-05
8.25558e-05
0.000107672
0.000132891
0.000158029
0.000182845
0.000207121
0.000230639
0.000253206
0.000274591
0.00029459
0.000313078
0.000329928
0.000344904
0.000358004
0.00036913
0.000378257
0.000385487
0.000390873
0.0003946
0.000396789
0.000397581
0.000397064
0.000395405
0.000392745
0.000389224
0.000385001
0.00038021
0.00037498
0.000369458
0.000363753
0.000357953
0.000352132
0.000346356
0.000340683
0.000335159
0.000329821
0.000324699
0.000319814
0.00031518
0.00031081
0.000306691
0.000302867
-0.000248393
-0.000235904
-0.00022263
-0.000208491
-0.000193466
-0.000177519
-0.000160625
-0.000142762
-0.000123919
-0.000104094
-8.3295e-05
-6.15441e-05
-3.88789e-05
-1.53559e-05
8.95056e-06
3.39468e-05
5.95169e-05
8.55147e-05
0.000111774
0.000138124
0.000164364
0.000190262
0.000215593
0.000240125