/*--------------------------------*- C++ -*----------------------------------*\
| =========                 |                                                 |
| \\      /  F ield         | OpenFOAM: The Open Source CFD Toolbox           |
|  \\    /   O peration     | Version:  2312                                  |
|   \\  /    A nd           | Website:  www.openfoam.com                      |
|    \\/     M anipulation  |                                                 |
\*---------------------------------------------------------------------------*/
FoamFile
{
    version     2.0;
    format      ascii;
    arch        "LSB;label=32;scalar=64";
    class       surfaceScalarField;
    location    "1500";
    object      phi;
}
// * * * * * * * * * * * * * * * * * * * * * * * * * * * * * * * * * * * * * //

dimensions      [0 3 -1 0 0 0 0];

oriented        oriented;

internalField   nonuniform List<scalar> 
116611
(
0.000923788
0.00042231
-0.000907856
-0.000438241
0.000939671
0.000417951
-0.000433834
0.000955466
0.000413292
-0.000429086
0.000971114
0.000408271
-0.00042392
0.000986433
0.00040287
-0.000418189
0.00100169
0.000396979
-0.000412235
0.00101651
0.000390704
-0.000405524
0.0010313
0.000384011
-0.0003988
0.0010458
0.000376824
-0.000391329
0.0010601
0.000369214
-0.000383513
0.00107408
0.000361082
-0.000375061
0.00108781
0.000352476
-0.000366207
0.00110123
0.000343361
-0.000356781
0.0011145
0.000333733
-0.000347005
0.00112749
0.000323599
-0.000336588
0.00114012
0.000313004
-0.000325629
0.00115257
0.000301741
-0.000314196
0.00116458
0.000290012
-0.00030202
0.00117621
0.000277549
-0.000289175
0.00118743
0.000264647
-0.000275871
0.00119845
0.000250946
-0.000261963
0.00120893
0.000236675
-0.000247161
0.00121903
0.000221756
-0.000231851
0.00122875
0.000206229
-0.000215949
0.00123793
0.000190009
-0.000199184
0.0012467
0.000173092
-0.000181861
0.00125492
0.000155362
-0.000163585
0.00126233
0.000137053
-0.00014447
0.00126956
0.000117907
-0.000125137
0.00127601
9.7928e-05
-0.000104371
0.0012814
7.72725e-05
-8.26617e-05
0.00128601
5.5722e-05
-6.03321e-05
0.0012897
3.34246e-05
-3.71218e-05
0.00129274
1.0586e-05
-1.36203e-05
0.00129487
-1.33682e-05
1.12369e-05
0.0012961
-3.80189e-05
3.67842e-05
0.00129649
-6.37456e-05
6.33587e-05
0.00129541
-9.03854e-05
9.1467e-05
0.0012935
-0.000117616
0.00011953
0.00129051
-0.00014578
0.000148763
0.00128654
-0.000174716
0.000178688
0.00128157
-0.000204669
0.000209637
0.00127511
-0.000235558
0.000242023
0.00126805
-0.000267001
0.000274061
0.00125993
-0.000299442
0.000307557
0.00125092
-0.000332702
0.00034171
0.00124042
-0.000367083
0.000377584
0.00122895
-0.000402054
0.000413522
0.00121634
-0.000437835
0.000450446
0.00120232
-0.000474483
0.000488504
0.00118678
-0.000511982
0.000527518
0.00116943
-0.000550244
0.000567594
0.00115014
-0.000589077
0.000608371
0.00112894
-0.000628318
0.000649524
0.00110568
-0.000667924
0.000691184
0.00108076
-0.000707708
0.000732622
0.00105338
-0.000747974
0.000775352
0.00102392
-0.000788302
0.000817767
0.000991988
-0.000828823
0.000860754
0.000956563
-0.000869713
0.000905139
0.000918854
-0.000910675
0.000948384
0.000877442
-0.000952105
0.000993518
0.000832778
-0.000992426
0.00103709
0.000780082
-0.00102667
0.00107936
0.000719456
-0.00104868
0.0011093
0.000665621
-0.00107499
0.00112882
0.000613325
-0.00115219
0.00120449
0.00054893
-0.0012512
0.00131559
-0.00124945
0.000463315
0.00133507
0.000906928
0.000406533
-0.000891151
0.000922609
0.00040227
0.000938228
0.000397673
0.000953753
0.000392747
0.000969165
0.000387458
0.000984344
0.0003818
0.000999297
0.000375751
0.00101404
0.000369266
0.00102853
0.000362338
0.00104279
0.000354948
0.00105678
0.0003471
0.00107047
0.000338785
0.00108386
0.000329973
0.00109694
0.000320647
0.00110971
0.000310829
0.00112225
0.000300465
0.00113441
0.000289579
0.00114629
0.000278131
0.00115772
0.000266123
0.00116886
0.000253505
0.00117953
0.000240277
0.00118976
0.000226445
0.00119953
0.000211989
0.00120886
0.000196898
0.00121771
0.000181152
0.00122609
0.000164712
0.00123386
0.000147598
0.00124111
0.000129798
0.00124776
0.000111257
0.00125368
9.20072e-05
0.00125895
7.20088e-05
0.00126343
5.12431e-05
0.00126709
2.97604e-05
0.00127011
7.56125e-06
0.00127228
-1.55293e-05
0.0012737
-3.94387e-05
0.00127415
-6.41993e-05
0.00127356
-8.98009e-05
0.00127213
-0.000116186
0.00126975
-0.000143397
0.00126648
-0.000171443
0.00126216
-0.000200354
0.00125673
-0.00023012
0.00125037
-0.000260649
0.00124295
-0.000292013
0.00123443
-0.000324189
0.00122458
-0.000357232
0.00121354
-0.000391011
0.00120122
-0.000425519
0.00118749
-0.000460753
0.0011722
-0.000496686
0.00115518
-0.000533226
0.00113635
-0.000570249
0.00111567
-0.000607639
0.00109307
-0.000645325
0.00106858
-0.000683218
0.00104195
-0.000721343
0.00101315
-0.000759501
0.000981944
-0.000797616
0.000948029
-0.000835798
0.000911485
-0.000874131
0.000871791
-0.000912411
0.000827297
-0.000947932
0.000774981
-0.000974353
0.00071762
-0.000991316
0.000668011
-0.00102538
0.000625325
-0.00110951
0.000567089
-0.00119296
-0.00116623
0.000483866
0.000890652
0.000390806
-0.000874926
0.000906222
0.0003867
0.000921661
0.000382234
0.00093699
0.000377418
0.000952199
0.000372249
0.000967273
0.000366726
0.000982192
0.000360832
0.000996913
0.000354545
0.0010114
0.000347847
0.00102564
0.000340714
0.0010396
0.000333135
0.00105329
0.000325097
0.00106668
0.000316585
0.00107975
0.000307581
0.0010925
0.000298076
0.00110491
0.00028805
0.00111699
0.000277499
0.00112872
0.000266405
0.00114009
0.000254758
0.00115105
0.000242538
0.00116159
0.000229741
0.00117168
0.000216349
0.00118133
0.000202347
0.0011905
0.000187725
0.00119918
0.000172468
0.00120734
0.00015656
0.00121495
0.000139989
0.001222
0.000122742
0.00122845
0.000104809
0.00123428
8.6178e-05
0.00123945
6.68351e-05
0.00124392
4.67757e-05
0.00124767
2.60153e-05
0.0012507
4.52777e-06
0.00125296
-1.7788e-05
0.00125442
-4.0899e-05
0.00125503
-6.4808e-05
0.00125476
-8.953e-05
0.00125362
-0.000115048
0.00125158
-0.000141359
0.00124861
-0.000168474
0.00124465
-0.000196397
0.00123966
-0.000225129
0.00123365
-0.000254637
0.00122656
-0.00028492
0.00121834
-0.000315972
0.0012089
-0.000347789
0.00119821
-0.00038032
0.0011862
-0.000413515
0.00117278
-0.000447335
0.00115783
-0.000481729
0.00114123
-0.000516625
0.00112291
-0.000551932
0.00110284
-0.000587567
0.00108097
-0.000623455
0.00105725
-0.000659504
0.00103152
-0.000695613
0.00100363
-0.000731611
0.000973452
-0.000767435
0.000940902
-0.000803249
0.000905875
-0.000839104
0.000867312
-0.000873848
0.000822786
-0.000903406
0.000771016
-0.000922583
0.000718677
-0.000938978
0.000677642
-0.000984343
0.000640385
-0.00107225
0.000582096
-0.00113467
-0.00108157
0.00049744
0.000874651
0.000374964
-0.000858809
0.000890286
0.000371065
0.000905717
0.000366802
0.000920963
0.000362173
0.000936035
0.000357176
0.000950951
0.00035181
0.000965709
0.000346073
0.000980295
0.000339959
0.000994687
0.000333455
0.00100886
0.000326545
0.00102278
0.000319211
0.00103644
0.000311436
0.00104982
0.000303208
0.00106289
0.000294509
0.00107564
0.000285326
0.00108804
0.000275645
0.00110009
0.000265449
0.00111177
0.000254726
0.00112307
0.000243463
0.00113396
0.000231649
0.00114443
0.00021927
0.00115446
0.000206314
0.00116404
0.000192769
0.00117314
0.000178622
0.00118175
0.00016386
0.00118984
0.000148471
0.00119739
0.000132439
0.00120438
0.000115756
0.00121077
9.84121e-05
0.00121655
8.03961e-05
0.00122169
6.16988e-05
0.00122616
4.23107e-05
0.00122992
2.22522e-05
0.00123298
1.46916e-06
0.0012353
-2.01095e-05
0.00123685
-4.24527e-05
0.00123761
-6.5565e-05
0.00123753
-8.94523e-05
0.00123659
-0.00011411
0.00123477
-0.000139534
0.00123202
-0.000165729
0.00122832
-0.000192694
0.00122362
-0.000220425
0.00121788
-0.000248905
0.00121108
-0.000278119
0.00120316
-0.000308051
0.00119405
-0.000338677
0.00118368
-0.000369952
0.00117199
-0.000401824
0.0011589
-0.000434243
0.00114433
-0.000467156
0.00112821
-0.000500505
0.00111049
-0.00053422
0.00109115
-0.000568223
0.00107012
-0.000602422
0.0010473
-0.000636687
0.00102255
-0.000670859
0.00099574
-0.000704806
0.000966868
-0.000738563
0.000935903
-0.000772283
0.000902323
-0.000805525
0.000864404
-0.000835929
0.000819831
-0.000858832
0.000770177
-0.000872929
0.000725557
-0.000894358
0.000694031
-0.000952816
0.000660174
-0.00103839
0.000599928
-0.00107442
-0.000996148
0.000514501
0.000858742
0.000359069
-0.000842847
0.000874472
0.000355336
0.000890004
0.00035127
0.00090532
0.000346856
0.000920417
0.000342079
0.000935297
0.000336931
0.000949966
0.000331404
0.000964431
0.000325494
0.00097869
0.000319196
0.000992735
0.0003125
0.00100655
0.000305395
0.00102012
0.000297868
0.00103342
0.000289907
0.00104643
0.000281496
0.00105914
0.000272622
0.00107151
0.00026327
0.00108354
0.000253423
0.00109519
0.000243069
0.00110646
0.000232194
0.00111733
0.000220784
0.00112777
0.000208826
0.00113778
0.000196309
0.00114733
0.000183221
0.0011564
0.000169549
0.00116498
0.000155281
0.00117304
0.000140406
0.00118057
0.000124913
0.00118754
0.00010879
0.00119392
9.20279e-05
0.0011997
7.46186e-05
0.00120485
5.65507e-05
0.00120934
3.78184e-05
0.00121315
1.84429e-05
0.00121627
-1.65389e-06
0.00121867
-2.2512e-05
0.00122032
-4.41043e-05
0.00122119
-6.64347e-05
0.00122125
-8.95068e-05
0.00122046
-0.000113321
0.0012188
-0.000137875
0.00121624
-0.000163169
0.00121274
-0.000189198
0.00120827
-0.000215953
0.00120279
-0.000243418
0.00119624
-0.000271573
0.00118858
-0.000300391
0.00117974
-0.00032984
0.00116967
-0.000359879
0.00115831
-0.000390461
0.0011456
-0.00042154
0.00113151
-0.000453067
0.001116
-0.00048499
0.00109902
-0.000517238
0.00108052
-0.000549722
0.00106041
-0.000582316
0.00103858
-0.000614858
0.00101492
-0.000647198
0.000989406
-0.000679292
0.00096209
-0.000711247
0.000932748
-0.000742941
0.000900247
-0.000773024
0.000862434
-0.000798115
0.000818376
-0.000814774
0.000773494
-0.000828048
0.00073939
-0.000860253
0.000716634
-0.000930061
0.000682295
-0.00100405
0.000616799
-0.00100893
-0.000906956
0.000527608
0.000843206
0.000343302
-0.000827439
0.000858881
0.000339661
0.000874423
0.000335729
0.000889794
0.000331485
0.000904964
0.000326909
0.00091991
0.000321985
0.00093462
0.000316695
0.000949087
0.000311027
0.000963311
0.000304972
0.000977289
0.000298522
0.000991016
0.000291668
0.00100448
0.0002844
0.00101768
0.000276709
0.0010306
0.000268582
0.00104321
0.000260008
0.00105551
0.000250973
0.00106747
0.000241463
0.00107907
0.000231465
0.0010903
0.000220966
0.00110113
0.000209952
0.00111155
0.00019841
0.00112153
0.000186327
0.00113106
0.000173692
0.00114012
0.000160492
0.00114868
0.000146716
0.00115674
0.000132352
0.00116426
0.000117391
0.00117123
0.000101822
0.00117762
8.56345e-05
0.00118342
6.88225e-05
0.00118859
5.13736e-05
0.00119312
3.32884e-05
0.00119698
1.45825e-05
0.00120017
-4.84019e-06
0.00120264
-2.49867e-05
0.00120438
-4.58399e-05
0.00120535
-6.74039e-05
0.00120552
-8.96817e-05
0.00120488
-0.000112674
0.00120338
-0.000136377
0.001201
-0.000160788
0.0011977
-0.000185897
0.00119344
-0.000211692
0.00118817
-0.000238155
0.00118186
-0.000265261
0.00117446
-0.000292983
0.00116591
-0.000321289
0.00115617
-0.000350144
0.00114522
-0.000379509
0.00113302
-0.000409341
0.00111955
-0.000439593
0.00110476
-0.000470204
0.00108861
-0.00050109
0.00107102
-0.000532135
0.0010519
-0.000563192
0.00103115
-0.000594104
0.00100874
-0.000624791
0.000984749
-0.000655301
0.000959124
-0.000685622
0.000931158
-0.000714975
0.000899117
-0.000740984
0.000861286
-0.000760284
0.000819612
-0.0007731
0.000783255
-0.000791691
0.000761406
-0.000838403
0.00074421
-0.000912865
0.000704914
-0.000964758
0.000631919
-0.000935932
-0.000813554
0.000538517
0.000828443
0.000327748
-0.00081289
0.000843926
0.000324178
0.000859319
0.000320335
0.000874597
0.000316207
0.000889727
0.000311779
0.000904679
0.000307033
0.000919423
0.00030195
0.000933936
0.000296514
0.0009482
0.000290709
0.0009622
0.000284521
0.000975928
0.00027794
0.000989375
0.000270953
0.00100253
0.000263552
0.00101539
0.000255724
0.00102794
0.00024746
0.00104016
0.000238748
0.00105205
0.000229576
0.00106358
0.000219932
0.00107475
0.000209803
0.00108552
0.000199178
0.00109589
0.000188043
0.00110583
0.000176388
0.00111532
0.000164198
0.00112435
0.000151464
0.00113289
0.000138173
0.00114093
0.000124314
0.00114844
0.000109878
0.00115541
9.48544e-05
0.00116181
7.92348e-05
0.00116762
6.30118e-05
0.00117282
4.61733e-05
0.00117738
2.87261e-05
0.00118129
1.06738e-05
0.00118454
-8.0874e-06
0.00118709
-2.75368e-05
0.00118892
-4.76674e-05
0.00118999
-6.84824e-05
0.0011903
-8.99831e-05
0.00118979
-0.000112169
0.00118845
-0.000135034
0.00118623
-0.000158573
0.00118311
-0.000182775
0.00117904
-0.000207624
0.00117399
-0.000233102
0.00116792
-0.000259189
0.00116079
-0.000285859
0.00115259
-0.000313085
0.00114328
-0.000340837
0.00113285
-0.000369078
0.00112127
-0.000397764
0.00110852
-0.000426839
0.00109454
-0.000456227
0.00107928
-0.000485824
0.00106264
-0.000515497
0.00104455
-0.000545106
0.001025
-0.000574554
0.00100406
-0.000603848
0.000981758
-0.000632999
0.000957674
-0.000661538
0.000930483
-0.000687784
0.000898387
-0.000708888
0.000861534
-0.000723431
0.000825801
-0.000737367
0.000801867
-0.000767758
0.000791414
-0.00082795
0.000774211
-0.000895662
0.000725483
-0.00091603
0.000643647
-0.000854096
-0.000715904
0.000545997
0.000814579
0.000312356
-0.000799187
0.000829872
0.000308886
0.000845063
0.000305144
0.000860148
0.000301123
0.000875111
0.000296816
0.000889932
0.000292211
0.000904588
0.000287295
0.000919052
0.00028205
0.000933298
0.000276463
0.000947302
0.000270517
0.000961045
0.000264197
0.000974508
0.00025749
0.000987676
0.000250383
0.00100054
0.000242865
0.00101307
0.000234922
0.00102528
0.000226544
0.00103713
0.000217719
0.00104863
0.000208436
0.00105975
0.000198684
0.00107048
0.00018845
0.0010808
0.000177723
0.00109069
0.000166491
0.00110015
0.000154744
0.00110914
0.00014247
0.00111766
0.000129659
0.00112567
0.000116299
0.00113317
0.000102381
0.00114013
8.78955e-05
0.00114653
7.28351e-05
0.00115235
5.71912e-05
0.00115757
4.09531e-05
0.00116216
2.4133e-05
0.00116612
6.71433e-06
0.00116943
-1.13934e-05
0.00117205
-3.01579e-05
0.00117396
-4.95777e-05
0.00117513
-6.96548e-05
0.00117554
-9.03895e-05
0.00117515
-0.000111779
0.00117393
-0.00013382
0.00117186
-0.000156502
0.0011689
-0.000179816
0.00116503
-0.00020375
0.00116021
-0.000228288
0.00115444
-0.000253411
0.00114768
-0.000279099
0.00113992
-0.000305326
0.00113114
-0.000332062
0.00112133
-0.000359267
0.00111046
-0.000386889
0.00109847
-0.000414858
0.00108533
-0.000443084
0.00107096
-0.000471452
0.0010553
-0.000499842
0.00103836
-0.000528161
0.0010202
-0.000556393
0.00100089
-0.000584541
0.000980189
-0.000612297
0.000957093
-0.000638442
0.000929964
-0.000660655
0.000898159
-0.000677083
0.000865199
-0.000690471
0.00084028
-0.000712449
0.000830805
-0.000758282
0.000826975
-0.00082412
0.000802592
-0.000871279
0.000741188
-0.000854626
0.00065081
-0.000763718
-0.000613439
0.000548344
0.000801492
0.000297038
-0.000786175
0.000816677
0.000293701
0.000831727
0.000290094
0.000846642
0.000286208
0.000861419
0.000282038
0.000876052
0.000277578
0.00089053
0.000272817
0.000904836
0.000267744
0.000918951
0.000262347
0.000932855
0.000256613
0.000946524
0.000250527
0.000959938
0.000244076
0.000973075
0.000237247
0.000985916
0.000230024
0.000998442
0.000222396
0.00101064
0.00021435
0.00102248
0.000205873
0.00103397
0.000196953
0.00104507
0.000187579
0.00105578
0.000177739
0.00106608
0.000167422
0.00107596
0.000156617
0.00108539
0.000145313
0.00109436
0.000133499
0.00110285
0.000121164
0.00111085
0.0001083
0.00111834
9.48955e-05
0.00112529
8.0943e-05
0.00113169
6.64353e-05
0.00113752
5.13626e-05
0.00114275
3.57178e-05
0.00114737
1.95159e-05
0.00115137
2.71539e-06
0.00115472
-1.47435e-05
0.00115739
-3.28319e-05
0.00115937
-5.15508e-05
0.00116061
-7.0902e-05
0.00116111
-9.08852e-05
0.00116083
-0.000111498
0.00115975
-0.000132737
0.00115784
-0.000154595
0.00115509
-0.000177064
0.00115147
-0.000200134
0.00114697
-0.000223791
0.00114158
-0.000248019
0.00113528
-0.000272797
0.00112805
-0.000298099
0.00111988
-0.000323888
0.00111073
-0.000350118
0.00110057
-0.00037673
0.00108935
-0.000403643
0.00107704
-0.000430764
0.00106358
-0.000457993
0.00104899
-0.000485252
0.00103334
-0.000512518
0.00101673
-0.000539781
0.000999
-0.000566809
0.000979383
-0.00059268
0.000956467
-0.000615526
0.000929321
-0.00063351
0.000900067
-0.000647829
0.000876024
-0.000666428
0.000866177
-0.000702601
0.000868675
-0.00076078
0.000862691
-0.000818136
0.000824007
-0.000832596
0.000748746
-0.000779365
0.000652206
-0.000667178
-0.000512725
0.000551493
0.000789043
0.000281753
-0.000773758
0.000804182
0.000278562
0.000819167
0.000275109
0.000833991
0.000271384
0.00084865
0.000267379
0.00086314
0.000263088
0.000877456
0.000258501
0.00089159
0.000253611
0.000905531
0.000248406
0.000919266
0.000242877
0.000932781
0.000237013
0.000946057
0.000230801
0.000959075
0.000224229
0.000971816
0.000217283
0.000984259
0.000209952
0.000996387
0.000202222
0.00100818
0.00019408
0.00101962
0.000185514
0.00103069
0.000176511
0.00104137
0.00016706
0.00105164
0.000157149
0.00106149
0.000146767
0.0010709
0.000135903
0.00107985
0.000124546
0.00108833
0.000112686
0.00109632
0.000100313
0.00110379
8.74194e-05
0.00111074
7.39954e-05
0.00111714
6.00347e-05
0.00112298
4.55267e-05
0.00112823
3.04695e-05
0.00113287
1.48757e-05
0.0011369
-1.31875e-06
0.00114029
-1.81375e-05
0.00114303
-3.55628e-05
0.00114507
-5.35972e-05
0.00114641
-7.22428e-05
0.00114703
-9.15001e-05
0.0011469
-0.000111368
0.001146
-0.000131843
0.00114433
-0.000152921
0.00114186
-0.000174595
0.00113858
-0.000196855
0.00113448
-0.000219689
0.00112954
-0.000243079
0.00112374
-0.000267001
0.00111707
-0.000291426
0.0011095
-0.000316312
0.00110099
-0.000341611
0.00109151
-0.000367255
0.00108104
-0.00039317
0.00106955
-0.000419276
0.00105708
-0.000445517
0.0010437
-0.000471871
0.0010295
-0.000498318
0.00101437
-0.000524654
0.000997709
-0.000550148
0.000978322
-0.000573293
0.000955248
-0.000592453
0.000929851
-0.000608112
0.00090798
-0.000625958
0.000898423
-0.000656871
0.000903729
-0.000707907
0.000909605
-0.000766656
0.000890712
-0.000799244
0.000833019
-0.000774903
0.000744869
-0.000691214
0.000643811
-0.000566121
-0.000412261
0.000543347
0.000777188
0.0002665
-0.000761935
0.000792297
0.000263453
0.00080725
0.000260156
0.000822034
0.0002566
0.000836639
0.000252773
0.000851057
0.00024867
0.000865281
0.000244278
0.000879301
0.00023959
0.000893112
0.000234596
0.000906703
0.000229287
0.000920063
0.000223652
0.000933182
0.000217682
0.000946046
0.000211365
0.000958638
0.000204691
0.000970942
0.000197648
0.000982941
0.000190222
0.000994618
0.000182403
0.00100595
0.000174178
0.00101693
0.000165534
0.00102753
0.000156461
0.00103773
0.000146946
0.00104752
0.000136977
0.00105688
0.000126544
0.00106579
0.000115636
0.00107423
0.000104243
0.00108219
9.23552e-05
0.00108965
7.99634e-05
0.00109658
6.70598e-05
0.00110298
5.36367e-05
0.00110883
3.96834e-05
0.00111409
2.52044e-05
0.00111876
1.02014e-05
0.00112285
-5.40125e-06
0.00112631
-2.1597e-05
0.00112912
-3.83804e-05
0.00113128
-5.57552e-05
0.00113276
-7.3724e-05
0.00113355
-9.2288e-05
0.00113363
-0.000111447
0.00113299
-0.000131198
0.0011316
-0.000151538
0.00112947
-0.000172459
0.00112656
-0.000193951
0.00112287
-0.000216
0.00111838
-0.000238588
0.00111307
-0.000261688
0.00110691
-0.000285268
0.00109989
-0.000309288
0.00109197
-0.000333696
0.00108315
-0.000358433
0.00107342
-0.000383442
0.00106283
-0.000408687
0.00105147
-0.000434153
0.00103941
-0.00045981
0.00102655
-0.000485461
0.00101239
-0.000510491
0.00099592
-0.000533681
0.000976296
-0.000553669
0.000954525
-0.000570681
0.000935465
-0.000589052
0.00092719
-0.000617684
0.000934201
-0.000663882
0.000947244
-0.00072095
0.000943311
-0.000762723
0.000902765
-0.000758698
0.00082589
-0.000698028
0.000728091
-0.000593414
0.000624162
-0.000462192
-0.000311917
0.000523818
0.000765947
0.000251287
-0.000750734
0.00078102
0.00024838
0.00079594
0.000245237
0.000810693
0.000241846
0.000825267
0.0002382
0.00083965
0.000234287
0.000853829
0.000230099
0.000867795
0.000225625
0.000881536
0.000220855
0.000895043
0.000215779
0.000908306
0.000210389
0.000921315
0.000204674
0.000934057
0.000198623
0.00094652
0.000192228
0.000958692
0.000185476
0.000970559
0.000178356
0.000982104
0.000170857
0.000993314
0.000162969
0.00100417
0.000154678
0.00101466
0.000145974
0.00102476
0.000136845
0.00103446
0.00012728
0.00104373
0.000117268
0.00105257
0.000106798
0.00106095
9.58606e-05
0.00106886
8.44455e-05
0.00107628
7.25437e-05
0.00108319
6.01475e-05
0.00108958
4.72475e-05
0.00109543
3.38352e-05
0.00110072
1.99193e-05
0.00110544
5.48006e-06
0.00110958
-9.54663e-06
0.00111313
-2.51423e-05
0.00111606
-4.13091e-05
0.00111835
-5.80513e-05
0.00112
-7.5372e-05
0.00112099
-9.32727e-05
0.00112129
-0.000111753
0.0011209
-0.000130811
0.00111981
-0.000150441
0.00111799
-0.000170637
0.00111542
-0.000191387
0.0011121
-0.000212678
0.001108
-0.000234488
0.00110311
-0.000256795
0.00109741
-0.000279567
0.00109088
-0.000302765
0.00108353
-0.000326347
0.00107538
-0.000350275
0.00106646
-0.000374531
0.00105689
-0.00039911
0.0010467
-0.000423969
0.0010358
-0.000448906
0.00102372
-0.000473379
0.00100963
-0.0004964
0.000992863
-0.000516916
0.000974347
-0.000535153
0.000958318
-0.000554652
0.000952074
-0.000582808
0.000960699
-0.000626309
0.000978081
-0.000681263
0.000984315
-0.000727184
0.000957953
-0.000736362
0.00089316
-0.000693906
0.000801815
-0.000606683
0.000699497
-0.000491096
0.000595531
-0.000358226
-0.000209362
0.000492975
0.000755344
0.000236113
-0.00074017
0.000770377
0.000233346
0.000785258
0.000230356
0.000799975
0.00022713
0.000814514
0.00022366
0.000828863
0.000219938
0.000843009
0.000215952
0.00085694
0.000211694
0.000870643
0.000207152
0.000884106
0.000202317
0.000897316
0.000197178
0.000910263
0.000191727
0.000922935
0.000185952
0.000935319
0.000179844
0.000947403
0.000173391
0.000959175
0.000166584
0.000970622
0.000159411
0.000981729
0.000151861
0.000992483
0.000143924
0.00100287
0.000135588
0.00101287
0.000126842
0.00102248
0.000117675
0.00103167
0.000108077
0.00104043
9.80373e-05
0.00104874
8.75455e-05
0.0010566
7.6592e-05
0.00106397
6.5168e-05
0.00107085
5.32653e-05
0.00107723
4.08734e-05
0.00108308
2.79881e-05
0.00108838
1.46169e-05
0.00109314
7.14603e-07
0.00109735
-1.37515e-05
0.00110097
-2.87684e-05
0.00110401
-4.43407e-05
0.00110643
-6.0473e-05
0.00110822
-7.71681e-05
0.00110938
-9.44275e-05
0.00110988
-0.000112251
0.0011097
-0.000130636
0.00110884
-0.000149577
0.00110727
-0.000169069
0.00110498
-0.0001891
0.00110196
-0.000209658
0.0010982
-0.000230724
0.00109368
-0.000252276
0.0010884
-0.000274288
0.00108237
-0.000296732
0.00107561
-0.00031959
0.00106819
-0.000342856
0.00106019
-0.000366531
0.00105164
-0.000390557
0.00104238
-0.000414717
0.001032
-0.000438521
0.00101981
-0.000461184
0.00100538
-0.000481975
0.000989739
-0.000501275
0.000976762
-0.000522177
0.000973013
-0.000550903
0.000983401
-0.000593196
0.00100344
-0.000646346
0.00101587
-0.000693692
0.000999541
-0.000710859
0.000945085
-0.000681905
0.000860853
-0.000609674
0.000762484
-0.000508314
0.000661419
-0.00039003
0.000563639
-0.000260446
-0.000118876
0.000473153
0.000745402
0.000220978
-0.000730268
0.000760396
0.000218353
0.000775235
0.000215516
0.00078991
0.000212455
0.000804408
0.000209163
0.000818716
0.000205629
0.000832823
0.000201846
0.000846715
0.000197802
0.00086038
0.000193487
0.000873804
0.000188892
0.000886974
0.000184007
0.000899879
0.000178822
0.000912504
0.000173327
0.000924838
0.00016751
0.000936867
0.000161362
0.000948579
0.000154872
0.000959961
0.000148029
0.000971
0.000140823
0.000981682
0.000133241
0.000991995
0.000125275
0.00100192
0.000116912
0.00101146
0.000108143
0.00102058
9.89562e-05
0.00102927
8.93418e-05
0.00103753
7.92897e-05
0.00104533
6.87904e-05
0.00105266
5.78352e-05
0.00105951
4.64152e-05
0.00106587
3.45198e-05
0.0010717
2.21505e-05
0.00107702
9.30406e-06
0.00108181
-4.07794e-06
0.00108606
-1.79968e-05
0.00108974
-3.24505e-05
0.00109284
-4.74444e-05
0.00109535
-6.29829e-05
0.00109725
-7.90689e-05
0.00109853
-9.5704e-05
0.00109917
-0.000112888
0.00109915
-0.000130619
0.00109846
-0.000148893
0.0010971
-0.000167705
0.00109505
-0.000187046
0.00109229
-0.000206905
0.00108884
-0.000227267
0.00108468
-0.000248117
0.00107983
-0.000269441
0.00107433
-0.000291233
0.00106824
-0.000313499
0.00106162
-0.000336236
0.00105446
-0.00035937
0.00104657
-0.000382666
0.00103753
-0.000405676
0.00102682
-0.000427811
0.00101431
-0.000448678
0.00100124
-0.000468905
0.000991295
-0.000491328
0.000990311
-0.000521193
0.00100255
-0.000563137
0.00102407
-0.000614717
0.00103953
-0.000661808
0.00102905
-0.00068321
0.000981839
-0.000663649
0.000903614
-0.00060368
0.00080923
-0.00051529
0.000710844
-0.000409927
0.000614542
-0.000293729
0.000522975
-0.000168879
-3.37434e-05
0.000437843
0.000736172
0.000205886
-0.00072108
0.000751122
0.000203403
0.000765918
0.00020072
0.000780547
0.000197826
0.000794999
0.000194711
0.00080926
0.000191368
0.00082332
0.000187787
0.000837164
0.000183957
0.000850781
0.00017987
0.000864158
0.000175516
0.000877281
0.000170884
0.000890138
0.000165965
0.000902715
0.000160749
0.000914999
0.000155226
0.000926978
0.000149384
0.000938638
0.000143212
0.000949965
0.000136701
0.000960948
0.00012984
0.000971573
0.000122617
0.000981826
0.000115021
0.000991696
0.000107043
0.00100117
9.86704e-05
0.00101023
8.98937e-05
0.00101887
8.07026e-05
0.00102707
7.10871e-05
0.00103483
6.10376e-05
0.00104212
5.05457e-05
0.00104893
3.9601e-05
0.00105525
2.81959e-05
0.00106107
1.63348e-05
0.00106638
3.99354e-06
0.00107118
-8.8736e-06
0.00107544
-2.22567e-05
0.00107914
-3.61602e-05
0.00108229
-5.05895e-05
0.00108486
-6.55491e-05
0.00108683
-8.10421e-05
0.0010882
-9.70705e-05
0.00108894
-0.000113635
0.00108906
-0.000130735
0.00108853
-0.000148368
0.00108736
-0.00016653
0.00108553
-0.000185215
0.00108304
-0.000204417
0.0010799
-0.000224128
0.00107613
-0.000244345
0.00107176
-0.000265075
0.00106685
-0.000286323
0.00106143
-0.000308076
0.00105543
-0.000330238
0.00104862
-0.000352562
0.00104061
-0.000374652
0.00103106
-0.000396123
0.00102018
-0.000416939
0.00100952
-0.000438017
0.00100263
-0.000462011
0.00100457
-0.000493264
0.00101857
-0.000535197
0.00104053
-0.000585097
0.00105639
-0.000630583
0.00104795
-0.00065336
0.0010045
-0.000639763
0.000930291
-0.000589441
0.000839336
-0.000512725
0.000744117
-0.000420071
0.000651172
-0.000316982
0.000562705
-0.000205262
0.000478076
-8.42502e-05
4.8049e-05
0.000396284
0.000727726
0.000190842
-0.000712682
0.000742628
0.000188501
0.000757374
0.000185974
0.000771954
0.000183246
0.000786354
0.000180311
0.000800563
0.000177159
0.000814568
0.000173781
0.000828357
0.000170168
0.000841917
0.00016631
0.000855236
0.000162197
0.000868301
0.00015782
0.000881098
0.000153168
0.000893615
0.000148232
0.000905838
0.000143002
0.000917755
0.000137467
0.000929353
0.000131615
0.000940617
0.000125437
0.000951536
0.000118921
0.000962096
0.000112056
0.000972285
0.000104832
0.00098209
9.72378e-05
0.000991498
8.92621e-05
0.0010005
8.08947e-05
0.00100907
7.21252e-05
0.00101722
6.29436e-05
0.00102492
5.33405e-05
0.00103215
4.33068e-05
0.00103892
3.28317e-05
0.00104521
2.19122e-05
0.001051
1.05469e-05
0.00105629
-1.30581e-06
0.00106108
-1.36624e-05
0.00106535
-2.65197e-05
0.00106907
-3.98841e-05
0.00107224
-5.37614e-05
0.00107485
-6.81565e-05
0.00107688
-8.30734e-05
0.00107833
-9.85147e-05
0.00107917
-0.000114482
0.00107942
-0.000130977
0.00107905
-0.000147998
0.00107806
-0.000165545
0.00107646
-0.000183615
0.00107425
-0.00020221
0.00107146
-0.000221336
0.00106812
-0.000241001
0.00106425
-0.000261206
0.00105984
-0.000281916
0.00105478
-0.000303011
0.00104879
-0.000324251
0.00104155
-0.000345319
0.00103295
-0.000366053
0.00102361
-0.000386783
0.00101539
-0.000408717
0.00101167
-0.000434298
0.00101658
-0.000466928
0.00103205
-0.000508729
0.0010533
-0.000556451
0.00106721
-0.00059901
0.00105745
-0.000620824
0.00101444
-0.00061035
0.00094194
-0.000567258
0.000853223
-0.000500724
0.00076076
-0.000420262
0.000671244
-0.000330555
0.000587089
-0.000232827
0.000508268
-0.000126441
0.000433983
-9.96548e-06
0.00011482
0.000367212
0.000720151
0.000175847
-0.000705156
0.000735003
0.00017365
0.000749697
0.000171279
0.000764223
0.000168721
0.000778567
0.000165966
0.000792718
0.000163008
0.000806664
0.000159836
0.000820392
0.000156441
0.000833888
0.000152813
0.000847141
0.000148944
0.000860138
0.000144823
0.000872865
0.000140441
0.00088531
0.000135787
0.00089746
0.000130852
0.000909302
0.000125625
0.000920823
0.000120094
0.00093201
0.00011425
0.00094285
0.000108081
0.000953331
0.000101575
0.000963441
9.47227e-05
0.000973167
8.7512e-05
0.000982496
7.99323e-05
0.000991418
7.19727e-05
0.000999921
6.36229e-05
0.00100799
5.48727e-05
0.00101562
4.57128e-05
0.00102279
3.61325e-05
0.0010295
2.61233e-05
0.00103573
1.56857e-05
0.00104147
4.80143e-06
0.00104674
-6.5696e-06
0.0010515
-1.84253e-05
0.00105575
-3.07705e-05
0.00105948
-4.36117e-05
0.00106267
-5.69549e-05
0.00106532
-7.08052e-05
0.00106741
-8.5167e-05
0.00106894
-0.000100044
0.0010699
-0.000115439
0.00107028
-0.000131356
0.00107008
-0.000147796
0.0010693
-0.000164764
0.00106795
-0.000182266
0.00106605
-0.000200311
0.00106362
-0.000218905
0.00106065
-0.00023803
0.00105706
-0.000257625
0.00105271
-0.000277557
0.00104732
-0.00029762
0.00104069
-0.000317627
0.00103303
-0.000337654
0.00102535
-0.000358378
0.00101981
-0.000381243
0.00101947
-0.00040838
0.00102729
-0.000442112
0.00104357
-0.000483214
0.00106272
-0.000527876
0.00107241
-0.000566145
0.00105843
-0.000585029
0.00101298
-0.000575366
0.000940038
-0.000537412
0.000852306
-0.000479527
0.000761942
-0.00041036
0.000675443
-0.000333763
0.000595056
-0.000250168
0.000520932
-0.000158703
0.000451916
-5.74247e-05
0.000388184
5.37672e-05
0.000171604
0.0003314
0.000713514
0.000160895
-0.000698563
0.000728318
0.000158845
0.000742963
0.000156635
0.000757435
0.000154248
0.000771724
0.000151678
0.000785816
0.000148915
0.0007997
0.000145952
0.000813362
0.000142778
0.000826791
0.000139385
0.000839973
0.000135762