/*--------------------------------*- C++ -*----------------------------------*\
| =========                 |                                                 |
| \\      /  F ield         | OpenFOAM: The Open Source CFD Toolbox           |
|  \\    /   O peration     | Version:  2312                                  |
|   \\  /    A nd           | Website:  www.openfoam.com                      |
|    \\/     M anipulation  |                                                 |
\*---------------------------------------------------------------------------*/
FoamFile
{
    version     2.0;
    format      ascii;
    arch        "LSB;label=32;scalar=64";
    class       volVectorField;
    location    "1500";
    object      U;
}
// * * * * * * * * * * * * * * * * * * * * * * * * * * * * * * * * * * * * * //

dimensions      [0 1 -1 0 0 0 0];

internalField   nonuniform List<vector> 
76025
(
(0.0339175 -0.00321938 0)
(0.0340343 -0.00333752 1.08552e-21)
(0.0341603 -0.00345417 0)
(0.0342894 -0.00356863 0)
(0.0344142 -0.00367824 -1.98539e-21)
(0.034542 -0.00378744 -3.80763e-21)
(0.0346678 -0.0038944 6.56025e-21)
(0.0347979 -0.00399642 -2.77509e-21)
(0.0349278 -0.00409801 -8.8781e-22)
(0.0350623 -0.00419486 8.6058e-22)
(0.0351951 -0.0042894 -4.15824e-24)
(0.0353299 -0.00437959 2.36104e-21)
(0.0354659 -0.00446973 -3.16053e-21)
(0.0356045 -0.00455273 0)
(0.0357505 -0.0046337 7.29262e-22)
(0.0358934 -0.00471468 0)
(0.0360408 -0.00478769 0)
(0.0361894 -0.00486371 0)
(0.0363386 -0.00493408 6.38355e-22)
(0.0364857 -0.00500699 -6.0759e-22)
(0.036635 -0.00507129 -5.83865e-22)
(0.03679 -0.00513412 -1.67626e-21)
(0.0369461 -0.00518974 1.10934e-21)
(0.037104 -0.00524251 1.53417e-21)
(0.0372621 -0.00529524 -4.61084e-23)
(0.0374181 -0.00534772 4.27458e-22)
(0.0375794 -0.00538885 -1.36866e-21)
(0.0377355 -0.00543117 1.35601e-21)
(0.0378906 -0.00547037 -4.33583e-22)
(0.0380534 -0.00549335 4.19152e-22)
(0.0382037 -0.00553053 3.96442e-22)
(0.0383404 -0.00557015 -7.14498e-22)
(0.0384753 -0.00558879 1.06639e-21)
(0.0386027 -0.00561444 1.57122e-22)
(0.0387268 -0.00563019 -7.80101e-22)
(0.0388432 -0.00565537 9.3349e-24)
(0.0389554 -0.00568102 1.41423e-22)
(0.0390572 -0.00569433 -5.7894e-23)
(0.0391447 -0.00570948 7.62344e-24)
(0.0392252 -0.00572049 8.05049e-23)
(0.0392982 -0.00573396 -5.09026e-23)
(0.0393664 -0.00575307 2.52853e-23)
(0.0394234 -0.00576662 -4.80935e-23)
(0.0394725 -0.00578326 9.22628e-23)
(0.0395221 -0.00580107 7.85214e-23)
(0.0395725 -0.00582636 -1.8041e-22)
(0.0396185 -0.00585838 -1.49096e-22)
(0.0396528 -0.00588592 4.27655e-22)
(0.0396847 -0.00591906 -3.37789e-22)
(0.0397112 -0.00596081 -4.3685e-23)
(0.0397267 -0.00600893 7.76409e-22)
(0.0397246 -0.00606462 3.63676e-22)
(0.0396982 -0.00612893 -2.97145e-22)
(0.0396474 -0.00620254 0)
(0.0395648 -0.00628026 4.33077e-22)
(0.0394633 -0.0063623 3.75522e-22)
(0.0393351 -0.00646248 2.89614e-23)
(0.0391727 -0.00657767 4.76751e-22)
(0.038986 -0.00672056 -5.80213e-22)
(0.0387467 -0.00690017 1.91355e-21)
(0.0384601 -0.00712701 1.2271e-21)
(0.0381413 -0.0073864 -2.61874e-22)
(0.0377762 -0.00770032 0)
(0.0372622 -0.00800919 -4.86634e-21)
(0.0363003 -0.00826417 2.55424e-21)
(0.0353321 -0.00863341 -1.17546e-21)
(0.0353535 -0.00976032 2.93042e-21)
(0.0361134 -0.0114517 -2.8864e-21)
(0.0347495 -0.0118317 -7.36935e-21)
(0.0337311 -0.00345418 1.16482e-21)
(0.0338534 -0.00357565 3.3403e-21)
(0.0339813 -0.00369538 -4.42187e-21)
(0.0341142 -0.0038115 0)
(0.0342495 -0.00392539 5.11323e-21)
(0.0343891 -0.00403594 -9.57163e-23)
(0.0345288 -0.00414392 -3.9433e-21)
(0.0346682 -0.00424919 0)
(0.0348086 -0.00435114 -9.57222e-24)
(0.0349506 -0.00445037 -8.81909e-22)
(0.0350945 -0.00454598 8.54014e-22)
(0.035239 -0.00463776 -5.24059e-24)
(0.0353831 -0.00472686 0)
(0.0355276 -0.00481243 0)
(0.0356744 -0.00489287 1.44797e-21)
(0.0358221 -0.00497243 -3.6601e-21)
(0.0359735 -0.00504627 -6.93085e-22)
(0.036125 -0.00511919 1.97958e-21)
(0.0362784 -0.00518643 -1.31428e-21)
(0.0364307 -0.00525299 6.21539e-22)
(0.036585 -0.00531468 -5.63903e-22)
(0.0367392 -0.00537318 1.16468e-21)
(0.0368928 -0.00542771 -1.06551e-21)
(0.0370464 -0.0054786 1.56186e-21)
(0.0372006 -0.00552589 -1.02463e-21)
(0.0373552 -0.00557102 -1.41414e-21)
(0.0375094 -0.00561105 9.36153e-22)
(0.0376615 -0.00564869 0)
(0.0378124 -0.00568305 0)
(0.0379613 -0.00571406 3.80087e-22)
(0.0381046 -0.00574486 0)
(0.0382448 -0.00577132 3.40444e-22)
(0.0383799 -0.00579212 -3.27341e-22)
(0.0385105 -0.00580799 4.83033e-22)
(0.0386378 -0.00582344 1.54817e-23)
(0.0387614 -0.00583732 1.40968e-22)
(0.0388805 -0.00584893 0)
(0.0389903 -0.00586218 2.17877e-22)
(0.0390917 -0.00587276 -1.49689e-22)
(0.0391882 -0.00588222 1.21068e-22)
(0.0392804 -0.00589139 -6.53066e-23)
(0.0393679 -0.00590062 4.22422e-24)
(0.0394474 -0.00591278 -1.9044e-23)
(0.0395201 -0.0059211 1.75772e-23)
(0.0395886 -0.00593126 -1.18365e-22)
(0.0396518 -0.00594183 5.37551e-23)
(0.0397066 -0.00595729 3.85859e-23)
(0.0397502 -0.00597264 -1.33406e-22)
(0.0397844 -0.00599058 -3.47802e-22)
(0.0398082 -0.006013 -1.94183e-23)
(0.0398176 -0.00604107 -3.77508e-22)
(0.039808 -0.0060757 1.30146e-22)
(0.0397753 -0.00611602 4.52662e-22)
(0.0397168 -0.00616049 -2.74543e-22)
(0.0396319 -0.00621159 0)
(0.0395195 -0.00626847 -1.03451e-21)
(0.0393802 -0.00634067 -4.02403e-23)
(0.0392077 -0.00642591 3.94346e-22)
(0.038998 -0.00652881 4.02779e-22)
(0.0387477 -0.00666304 0)
(0.0384556 -0.00683323 -6.52779e-22)
(0.0381323 -0.00705612 -2.01987e-21)
(0.0377269 -0.00729082 0)
(0.0370708 -0.00747154 1.8287e-21)
(0.0360108 -0.00761084 -6.34591e-22)
(0.0351269 -0.00802951 2.1578e-21)
(0.0355806 -0.00926354 -1.11441e-21)
(0.0363827 -0.0105917 2.97968e-21)
(0.0347125 -0.0104279 3.60138e-21)
(0.0335438 -0.0037014 -5.95475e-21)
(0.0336731 -0.00382677 3.55621e-21)
(0.0338056 -0.00394999 -1.14777e-21)
(0.033941 -0.00406874 4.37394e-21)
(0.0340806 -0.00418433 -5.42491e-21)
(0.0342249 -0.00429692 -4.11061e-21)
(0.0343731 -0.00440639 5.09947e-21)
(0.0345239 -0.00451257 0)
(0.0346762 -0.00461531 -7.69994e-24)
(0.0348292 -0.00471475 0)
(0.034983 -0.00481072 -8.83461e-22)
(0.0351375 -0.00490296 8.49472e-22)
(0.0352926 -0.0049913 4.05189e-21)
(0.035448 -0.00507605 -3.22288e-21)
(0.0356037 -0.00515661 7.63134e-22)
(0.0357603 -0.00523343 2.17339e-21)
(0.0359178 -0.00530638 -7.30375e-22)
(0.0360759 -0.00537554 -6.796e-22)
(0.0362348 -0.00544083 -1.91101e-21)
(0.0363942 -0.005502 1.26991e-21)
(0.0365536 -0.00555949 5.8646e-22)
(0.0367123 -0.00561326 -1.10663e-21)
(0.0368703 -0.00566316 5.77977e-22)
(0.0370281 -0.00570891 5.06157e-22)
(0.0371854 -0.00575074 0)
(0.0373419 -0.00578879 -4.55125e-22)
(0.0374966 -0.00582335 -4.28322e-22)
(0.03765 -0.00585391 4.59102e-22)
(0.0378018 -0.00588049 0)
(0.0379514 -0.00590376 -7.46664e-22)
(0.0380984 -0.00592294 3.37334e-22)
(0.0382423 -0.00593793 -3.07141e-23)
(0.0383822 -0.005948 0)
(0.0385185 -0.00595289 -1.53687e-22)
(0.0386505 -0.00595817 3.91485e-22)
(0.0387781 -0.00596244 -2.46985e-22)
(0.0389001 -0.00596655 0)
(0.039016 -0.00597057 -1.43067e-22)
(0.0391262 -0.00597231 1.27484e-22)
(0.0392314 -0.00597248 2.14033e-23)
(0.0393314 -0.00597176 0)
(0.0394254 -0.00597122 3.05877e-23)
(0.0395123 -0.00597108 1.32907e-23)
(0.0395921 -0.00596961 -1.72617e-23)
(0.039665 -0.00596852 7.94918e-23)
(0.0397303 -0.00596854 3.21679e-23)
(0.0397865 -0.00597111 -9.99955e-23)
(0.0398318 -0.00597455 7.75507e-23)
(0.0398655 -0.00597913 -5.66917e-23)
(0.0398858 -0.00598584 7.64606e-23)
(0.0398895 -0.00599541 1.01168e-22)
(0.0398732 -0.00600805 -1.21276e-22)
(0.0398337 -0.00602354 0)
(0.0397694 -0.00604229 -1.48385e-22)
(0.0396794 -0.00606564 6.58816e-23)
(0.0395627 -0.00609493 2.56633e-22)
(0.0394167 -0.00613351 2.95632e-22)
(0.0392353 -0.00618235 -6.27423e-22)
(0.0390138 -0.0062464 -7.99618e-23)
(0.0387527 -0.00633567 -3.31967e-22)
(0.0384576 -0.00645836 7.62354e-22)
(0.0381144 -0.00660945 3.24084e-22)
(0.0376282 -0.00674382 -7.81966e-23)
(0.036808 -0.00679535 6.44418e-22)
(0.0356946 -0.00687666 9.40122e-22)
(0.0351754 -0.00739859 2.29485e-21)
(0.0359687 -0.00859346 0)
(0.0364859 -0.00956949 1.36873e-21)
(0.0342028 -0.00899171 -1.3143e-21)
(0.0333395 -0.00396139 0)
(0.0334839 -0.00409022 1.20998e-21)
(0.0336292 -0.00421677 5.85448e-21)
(0.0337741 -0.0043385 -4.64514e-21)
(0.0339206 -0.00445614 -3.28759e-21)
(0.0340704 -0.00457042 5.447e-21)
(0.0342241 -0.00468113 -1.03619e-21)
(0.0343814 -0.00478799 1.01054e-21)
(0.0345417 -0.00489094 9.68454e-22)
(0.034704 -0.00499007 3.69192e-21)
(0.0348679 -0.00508537 -3.67896e-21)
(0.035033 -0.00517672 -3.42399e-21)
(0.0351992 -0.00526395 9.28238e-22)
(0.0353661 -0.00534701 3.22261e-21)
(0.0355335 -0.00542589 -2.34867e-21)
(0.035701 -0.00550054 7.3853e-22)
(0.0358684 -0.00557109 -7.06467e-22)
(0.0360356 -0.00563739 -6.74876e-22)
(0.0362026 -0.00569953 1.92454e-21)
(0.0363694 -0.0057574 -6.57404e-22)
(0.0365357 -0.00581106 -5.97782e-22)
(0.0367015 -0.00586042 0)
(0.0368666 -0.00590543 -1.01957e-21)
(0.0370308 -0.00594609 5.26376e-22)
(0.037194 -0.00598257 9.28606e-22)
(0.0373557 -0.00601495 8.45159e-22)
(0.0375159 -0.00604322 -1.73246e-21)
(0.0376742 -0.00606727 8.0002e-22)
(0.0378304 -0.00608727 0)
(0.0379841 -0.00610327 7.01514e-22)
(0.0381349 -0.0061153 -2.82289e-23)
(0.0382824 -0.00612361 -6.39599e-22)
(0.0384263 -0.00612698 2.70557e-22)
(0.0385662 -0.00612703 -6.37089e-22)
(0.0387019 -0.0061272 1.36782e-22)
(0.0388334 -0.00612586 0)
(0.0389604 -0.00612285 0)
(0.0390823 -0.00611802 -3.37158e-23)
(0.0391989 -0.00611107 -3.84557e-23)
(0.0393099 -0.00610242 -1.19029e-23)
(0.039415 -0.00609259 3.06062e-25)
(0.0395137 -0.00608195 -1.30799e-23)
(0.0396056 -0.00607062 0)
(0.0396899 -0.00605838 -1.06098e-23)
(0.0397664 -0.00604575 0)
(0.0398342 -0.00603304 -4.29238e-23)
(0.0398921 -0.00602049 2.03514e-24)
(0.0399382 -0.00600766 3.0139e-23)
(0.0399708 -0.00599455 0)
(0.0399877 -0.00598156 3.44496e-23)
(0.0399869 -0.00596915 -3.40402e-23)
(0.039966 -0.00595771 1.23452e-22)
(0.0399234 -0.00594771 0)
(0.0398578 -0.00593978 3.09275e-22)
(0.0397679 -0.0059348 6.12561e-23)
(0.039651 -0.00593345 -1.23321e-22)
(0.0395024 -0.00593678 -1.54506e-22)
(0.0393161 -0.00594621 0)
(0.0390903 -0.00596701 0)
(0.0388307 -0.00600872 3.39368e-22)
(0.0385364 -0.00607488 -7.80181e-22)
(0.0381576 -0.00614398 -9.01154e-22)
(0.0375531 -0.0061554 0)
(0.0365873 -0.00608949 7.87881e-22)
(0.035586 -0.00616883 0)
(0.035562 -0.00678985 -2.18454e-21)
(0.0366177 -0.00789477 6.67005e-22)
(0.0366667 -0.00844454 1.12296e-21)
(0.0337168 -0.00743272 1.14084e-21)
(0.0331106 -0.00423792 0)
(0.0332712 -0.00436967 0)
(0.0334336 -0.00449915 1.24038e-21)
(0.0335948 -0.00462362 -4.70546e-21)
(0.0337555 -0.00474362 5.83107e-21)
(0.0339172 -0.00485983 -1.10757e-21)
(0.0340806 -0.00497205 0)
(0.0342458 -0.00507994 -1.03294e-21)
(0.0344133 -0.00518337 0)
(0.034583 -0.00528236 -1.89344e-21)
(0.034755 -0.00537698 6.21497e-23)
(0.0349289 -0.00546723 1.8131e-21)
(0.0351043 -0.00555308 0)
(0.0352808 -0.00563448 -1.60606e-21)
(0.0354581 -0.00571142 4.70769e-21)
(0.0356358 -0.00578387 -3.00893e-21)
(0.0358135 -0.00585182 3.58754e-21)
(0.0359909 -0.00591525 -7.11307e-22)
(0.0361679 -0.00597412 6.43718e-22)
(0.0363441 -0.00602842 -6.25083e-22)
(0.0365195 -0.00607812 -5.63003e-22)
(0.036694 -0.00612318 1.68866e-21)
(0.0368674 -0.00616359 1.0478e-21)
(0.0370395 -0.00619941 0)
(0.03721 -0.00623068 -8.98346e-22)
(0.0373789 -0.00625745 -3.8538e-22)
(0.0375459 -0.00627976 1.26625e-21)
(0.0377105 -0.00629766 -3.93347e-22)
(0.0378727 -0.00631121 6.75336e-22)
(0.0380321 -0.00632039 -1.02294e-21)
(0.0381885 -0.00632531 2.8154e-22)
(0.0383415 -0.00632594 -1.27687e-22)
(0.038491 -0.00632109 0)
(0.0386363 -0.00631332 1.20838e-22)
(0.0387774 -0.00630468 1.06149e-22)
(0.0389142 -0.0062937 0)
(0.0390462 -0.00628044 -5.85877e-23)
(0.039173 -0.00626509 8.72088e-23)
(0.039294 -0.00624782 -5.2182e-23)
(0.0394091 -0.0062288 1.8591e-23)
(0.0395181 -0.00620825 -3.90083e-26)
(0.0396204 -0.00618635 4.6211e-24)
(0.0397155 -0.0061632 -2.21811e-24)
(0.0398028 -0.00613878 -9.84203e-24)
(0.0398815 -0.00611311 1.02663e-23)
(0.0399505 -0.0060862 3.60984e-25)
(0.0400085 -0.00605802 0)
(0.0400536 -0.00602845 -1.18312e-23)
(0.0400843 -0.00599739 -2.54899e-23)
(0.040099 -0.00596497 -1.49297e-23)
(0.0400965 -0.00593156 0)
(0.0400755 -0.00589759 -1.08501e-23)
(0.0400348 -0.00586345 1.07407e-23)
(0.0399728 -0.00582938 -4.77849e-23)
(0.0398868 -0.00579538 0)
(0.0397726 -0.00576114 1.2033e-22)
(0.0396244 -0.00572688 -9.39055e-23)
(0.0394388 -0.0056951 1.41702e-22)
(0.0392192 -0.00567249 -6.09932e-23)
(0.0389705 -0.0056653 0)
(0.0386681 -0.00566427 1.84128e-22)
(0.0382165 -0.00562897 -3.01027e-22)
(0.0374665 -0.0055085 -5.89363e-23)
(0.0364421 -0.00536566 -8.09296e-22)
(0.0357703 -0.00550525 7.34054e-22)
(0.0363231 -0.00620315 -7.61408e-22)
(0.0374039 -0.00709691 4.1187e-22)
(0.036741 -0.00716766 -2.47071e-22)
(0.0330905 -0.00575749 -3.14023e-21)
(0.0328699 -0.00453403 -5.39236e-21)
(0.0330404 -0.00466843 1.29926e-22)
(0.0332158 -0.00480042 5.206e-21)
(0.0333921 -0.00492723 0)
(0.0335692 -0.00504932 -1.18759e-21)
(0.0337472 -0.00516739 0)
(0.0339258 -0.00528118 2.18687e-21)
(0.0341048 -0.00539026 -6.93768e-23)
(0.0342843 -0.00549441 -3.12333e-21)
(0.0344648 -0.0055936 9.90269e-22)
(0.0346464 -0.00568787 9.47573e-22)
(0.0348293 -0.00577723 9.0929e-22)
(0.0350136 -0.0058617 0)
(0.0351989 -0.00594126 0)
(0.0353851 -0.00601592 -7.98011e-22)
(0.0355718 -0.00608566 -7.61856e-22)
(0.0357589 -0.00615047 1.4074e-21)
(0.035946 -0.00621036 -1.40632e-21)
(0.0361327 -0.0062653 -1.29812e-21)
(0.0363187 -0.00631529 1.19421e-21)
(0.0365038 -0.00636032 -2.33994e-21)
(0.0366878 -0.00640039 4.89517e-23)
(0.0368703 -0.00643553 1.03767e-21)
(0.0370512 -0.00646574 4.66752e-22)
(0.0372303 -0.00649105 8.61979e-22)
(0.0374073 -0.00651152 -8.6638e-22)
(0.037582 -0.00652717 -7.37791e-22)
(0.0377542 -0.00653805 7.42885e-22)
(0.0379235 -0.00654418 0)
(0.0380899 -0.0065455 0)
(0.0382529 -0.00654221 -6.62747e-22)
(0.0384123 -0.00653414 5.05479e-23)
(0.0385678 -0.00652026 2.28145e-22)
(0.0387188 -0.00650409 1.68449e-22)
(0.0388653 -0.0064865 -1.65413e-22)
(0.039007 -0.0064664 0)
(0.0391436 -0.00644391 5.92545e-23)
(0.0392747 -0.00641918 4.28033e-23)
(0.0394001 -0.00639228 -3.03471e-23)
(0.0395193 -0.00636325 -5.99635e-24)
(0.0396322 -0.00633217 1.79928e-25)
(0.0397381 -0.00629908 -2.63931e-24)
(0.0398363 -0.00626397 5.58748e-24)
(0.0399262 -0.00622673 9.21564e-24)
(0.0400066 -0.00618725 -4.12611e-23)
(0.0400765 -0.0061454 9.96052e-24)
(0.0401346 -0.0061011 0)
(0.0401798 -0.00605424 -9.12485e-23)
(0.0402109 -0.0060048 2.05303e-22)
(0.0402273 -0.00595292 -1.65867e-22)
(0.040228 -0.00589882 -6.97423e-23)
(0.0402122 -0.00584266 -2.99412e-23)
(0.0401782 -0.00578432 -3.25099e-23)
(0.0401236 -0.0057233 7.79412e-24)
(0.0400442 -0.00565868 1.1994e-22)
(0.0399349 -0.00558959 -1.7127e-22)
(0.0397919 -0.00551672 -7.95539e-23)
(0.0396166 -0.00544416 1.40613e-22)
(0.0394145 -0.00537771 -8.41026e-23)
(0.0391758 -0.00531438 1.8566e-23)
(0.038837 -0.00522755 -1.86131e-23)
(0.0382717 -0.00506911 -1.13426e-22)
(0.0373995 -0.00483137 2.95752e-22)
(0.0364993 -0.00467498 5.85851e-23)
(0.0363877 -0.00491805 -3.6543e-22)
(0.0374433 -0.00561359 -1.67502e-22)
(0.0382049 -0.00616245 4.26508e-22)
(0.0366217 -0.0057199 8.21739e-22)
(0.0322302 -0.00397418 0)
(0.0326331 -0.0048517 0)
(0.0328088 -0.00498848 -1.39084e-21)
(0.0329914 -0.00512254 2.05081e-23)
(0.0331773 -0.00525109 0)
(0.0333662 -0.00537466 0)
(0.0335581 -0.00549397 -1.1998e-21)
(0.033752 -0.00560878 3.40982e-21)
(0.0339468 -0.00571861 -4.40902e-21)
(0.034142 -0.00582318 2.14787e-21)
(0.0343374 -0.00592243 -1.01222e-21)
(0.0345329 -0.00601631 0)
(0.0347287 -0.00610479 -9.28873e-22)
(0.0349248 -0.00618787 8.84224e-22)
(0.0351213 -0.00626549 0)
(0.0353181 -0.00633767 0)
(0.0355149 -0.0064044 -7.31345e-22)
(0.0357118 -0.00646571 7.70127e-23)
(0.0359085 -0.00652161 1.40852e-21)
(0.0361047 -0.00657212 1.27195e-21)
(0.0363002 -0.00661727 -1.25502e-21)
(0.0364947 -0.00665708 -5.80964e-22)
(0.0366878 -0.00669159 -2.09754e-21)
(0.0368794 -0.00672081 3.92714e-23)
(0.0370692 -0.00674478 4.12714e-22)
(0.0372569 -0.00676354 -8.91672e-22)
(0.0374422 -0.00677714 3.74457e-22)
(0.0376249 -0.00678561 -7.54859e-22)
(0.0378048 -0.006789 0)
(0.0379816 -0.00678733 0)
(0.038155 -0.0067806 0)
(0.0383247 -0.00676906 1.25817e-22)
(0.0384904 -0.0067523 2.0764e-22)
(0.038652 -0.00672965 -1.87467e-22)
(0.0388086 -0.00670538 -1.23138e-22)
(0.0389607 -0.00667891 1.20959e-22)
(0.0391078 -0.00664957 0)
(0.0392496 -0.00661744 -1.84563e-23)
(0.0393857 -0.00658259 6.07041e-24)
(0.0395158 -0.00654509 0)
(0.0396394 -0.00650494 5.26439e-24)
(0.0397561 -0.00646216 -1.70404e-24)
(0.0398653 -0.00641671 1.4685e-24)
(0.0399662 -0.0063685 -5.66221e-24)
(0.040058 -0.00631741 0)
(0.04014 -0.00626328 -5.08234e-23)
(0.0402113 -0.00620601 5.01316e-23)
(0.0402713 -0.00614551 0)
(0.0403193 -0.00608176 -3.06905e-23)
(0.0403549 -0.00601473 2.49306e-23)
(0.0403776 -0.00594438 9.95639e-23)
(0.0403864 -0.00587052 0)
(0.0403799 -0.0057927 -6.2083e-23)
(0.0403559 -0.00571007 -9.89368e-23)
(0.0403106 -0.00562131 -4.15274e-22)
(0.0402396 -0.00552497 -6.84954e-23)
(0.0401392 -0.00542053 1.74154e-22)
(0.0400099 -0.00531012 0)
(0.0398564 -0.00519818 0)
(0.039676 -0.00508443 2.99182e-22)
(0.0394271 -0.00495063 0)
(0.0390082 -0.00475641 0)
(0.0383146 -0.00447119 -1.0991e-22)
(0.0374385 -0.00416347 -1.92393e-22)
(0.0369342 -0.00406848 -5.45587e-22)
(0.037525 -0.00441088 5.5089e-22)
(0.0388035 -0.00496647 -5.53563e-22)
(0.0388407 -0.00504149 -8.26513e-23)
(0.0361939 -0.00409333 -3.72419e-23)
(0.0311086 -0.00209163 0)
(0.0324022 -0.00519307 0)
(0.0325851 -0.0053321 1.42413e-21)
(0.0327741 -0.00546794 -4.10483e-21)
(0.0329667 -0.00559779 1.36395e-21)
(0.0331633 -0.00572222 0)
(0.0333644 -0.00584206 3.6558e-21)
(0.0335692 -0.00595708 -5.91778e-21)
(0.0337766 -0.00606682 8.24083e-23)
(0.0339856 -0.00617104 5.43354e-21)
(0.0341956 -0.00626962 -1.08028e-21)
(0.0344062 -0.00636251 9.92337e-22)
(0.034617 -0.00644966 9.44799e-22)
(0.0348278 -0.00653099 -2.66364e-21)
(0.0350383 -0.00660644 3.4242e-21)
(0.0352484 -0.00667598 -1.66514e-21)
(0.035458 -0.00673959 7.20488e-22)
(0.0356669 -0.00679728 -2.89942e-21)
(0.035875 -0.00684909 7.33466e-22)
(0.0360821 -0.00689503 -5.90231e-22)
(0.036288 -0.00693517 6.69556e-22)
(0.0364925 -0.00696953 8.15644e-23)
(0.0366953 -0.00699817 3.11256e-21)
(0.0368963 -0.00702114 4.13134e-22)
(0.0370951 -0.0070385 -7.93196e-23)
(0.0372915 -0.00705029 -1.23191e-21)
(0.0374853 -0.00705658 3.82902e-22)
(0.0376762 -0.00705742 -6.21703e-22)
(0.0378639 -0.00705286 8.98212e-22)
(0.0380482 -0.00704294 0)
(0.0382288 -0.00702767 2.06486e-22)
(0.0384054 -0.00700733 -2.08407e-22)
(0.0385778 -0.0069812 2.46491e-23)
(0.0387457 -0.00694931 4.84214e-23)
(0.0389084 -0.00691599 3.06385e-23)
(0.0390664 -0.00687974 -5.4872e-23)
(0.0392189 -0.00684027 4.02078e-23)
(0.0393658 -0.00679766 1.60337e-23)
(0.0395065 -0.00675197 -2.86632e-23)
(0.0396407 -0.00670323 2.03528e-23)
(0.0397679 -0.00665142 -5.96613e-24)
(0.0398877 -0.00659648 0)
(0.0399996 -0.00653833 1.51788e-23)
(0.040103 -0.00647686 -1.49573e-23)
(0.0401975 -0.00641199 -3.75103e-23)
(0.0402826 -0.00634359 1.17798e-22)
(0.0403581 -0.00627162 -9.26806e-23)
(0.0404235 -0.00619597 -8.45984e-23)
(0.0404787 -0.00611653 0)
(0.0405232 -0.00603302 -4.11544e-22)
(0.0405562 -0.005945 3.83556e-22)
(0.0405763 -0.00585171 -1.60732e-22)
(0.0405816 -0.00575205 1.61707e-22)
(0.0405688 -0.00564447 2.30937e-22)
(0.0405343 -0.00552721 3.61334e-22)
(0.040475 -0.00539915 3.25033e-22)
(0.0403911 -0.00526104 0)
(0.0402866 -0.00511582 -4.71635e-22)
(0.0401618 -0.00496393 0)
(0.039989 -0.00479229 8.57817e-23)
(0.0396883 -0.00456703 -2.96963e-22)
(0.0391556 -0.0042517 3.97349e-22)
(0.0383993 -0.00386772 3.06205e-22)
(0.0377641 -0.0035688 -5.67251e-22)
(0.0379379 -0.00358988 -1.43654e-22)
(0.0391493 -0.00395069 1.21336e-22)
(0.0401682 -0.00419104 1.24672e-21)
(0.0391089 -0.0037085 5.09814e-22)
(0.0353775 -0.00230834 -2.6972e-23)
(0.0296885 -0.000118268 2.71298e-23)
(0.0321697 -0.00556062 0)
(0.0323642 -0.0057019 0)
(0.0325637 -0.00583949 -2.83421e-21)
(0.0327654 -0.0059705 4.1845e-21)
(0.0329703 -0.00609552 1.33712e-21)
(0.0331795 -0.00621544 0)
(0.0333928 -0.00633007 0)
(0.0336094 -0.00643899 -1.17134e-21)
(0.0338286 -0.00654199 2.18736e-21)
(0.0340499 -0.00663898 -8.90648e-23)
(0.0342728 -0.00672993 -5.06984e-21)
(0.0344967 -0.00681481 1.00715e-21)
(0.0347211 -0.00689355 -8.73255e-22)
(0.0349456 -0.00696606 1.77629e-21)
(0.0351697 -0.00703229 -8.10343e-22)
(0.0353931 -0.0070922 0)
(0.0356155 -0.0071458 0)
(0.0358367 -0.00719307 4.29224e-23)
(0.0360563 -0.00723406 1.92819e-21)
(0.0362743 -0.0072688 -5.99041e-22)
(0.0364903 -0.00729734 5.28575e-22)
(0.0367042 -0.00731973 -5.14376e-22)
(0.0369157 -0.00733603 -4.32553e-22)
(0.0371246 -0.00734632 4.77852e-22)
(0.0373306 -0.00735066 3.92669e-22)
(0.0375336 -0.00734913 0)
(0.0377332 -0.00734179 0)
(0.0379292 -0.00732872 -3.93772e-22)
(0.0381214 -0.00730993 0)
(0.0383096 -0.00728555 -1.61766e-22)
(0.0384933 -0.00725574 1.63219e-22)
(0.0386724 -0.00721959 6.66379e-23)
(0.0388466 -0.00717834 -4.89134e-23)
(0.0390153 -0.00713523 -3.32649e-23)
(0.0391787 -0.00708873 1.41105e-23)
(0.0393363 -0.00703871 -2.30455e-23)
(0.0394876 -0.00698522 3.75158e-23)
(0.0396325 -0.0069283 0)
(0.0397706 -0.00686796 0)
(0.0399015 -0.00680416 2.08602e-23)
(0.0400251 -0.00673686 0)
(0.0401409 -0.00666603 0)
(0.0402488 -0.00659162 -7.81001e-23)
(0.0403487 -0.00651356 1.09279e-22)
(0.0404404 -0.00643179 -6.33067e-23)
(0.0405238 -0.00634616 9.99796e-23)
(0.0405987 -0.00625642 0)
(0.0406646 -0.00616215 3.95942e-22)
(0.0407208 -0.0060627 -2.75158e-23)
(0.0407661 -0.00595717 0)
(0.0407987 -0.00584427 -5.33903e-22)
(0.0408161 -0.00572236 -3.41877e-23)
(0.0408154 -0.00558959 -5.05548e-22)
(0.0407946 -0.00544454 -3.11922e-22)
(0.0407539 -0.00528717 -5.5418e-22)
(0.0406972 -0.00511916 5.50329e-22)
(0.0406255 -0.00494068 4.7826e-22)
(0.0405193 -0.00474155 0)
(0.0403157 -0.00449302 -5.83445e-22)
(0.0399201 -0.00415789 8.8589e-23)
(0.0393045 -0.00373484 0)
(0.0386877 -0.00332232 0)
(0.0386281 -0.00311957 5.65569e-22)
(0.0396011 -0.00324527 0)
(0.0410273 -0.00346155 0)
(0.0411984 -0.00322093 -7.95692e-22)
(0.0388125 -0.00217633 -4.22264e-22)
(0.0341268 -0.000417958 -6.29724e-22)
(0.0280265 0.00189572 0)
(0.0319292 -0.00595656 0)
(0.0321385 -0.00610014 0)
(0.0323523 -0.00623955 0)
(0.0325675 -0.00637175 1.44264e-21)
(0.0327846 -0.00649734 1.33455e-21)
(0.033005 -0.00661722 -9.65775e-23)
(0.0332287 -0.00673122 -2.56446e-21)
(0.0334551 -0.00683893 1.19739e-21)
(0.033684 -0.00694015 -1.1444e-21)
(0.033915 -0.00703485 -2.17517e-21)
(0.034148 -0.00712303 0)
(0.0343825 -0.00720468 0)
(0.034618 -0.00727978 -4.76532e-23)
(0.0348542 -0.00734826 -2.66005e-21)
(0.0350904 -0.00741009 3.23172e-21)
(0.0353262 -0.00746524 -9.76839e-23)
(0.0355612 -0.00751369 -1.48622e-21)
(0.0357949 -0.00755546 -6.7974e-22)
(0.0360271 -0.00759057 -2.6294e-23)
(0.0362573 -0.00761904 0)
(0.0364853 -0.00764094 -1.04625e-21)
(0.0367108 -0.00765631 0)
(0.0369335 -0.00766523 -8.60941e-22)
(0.0371531 -0.00766777 1.13274e-21)
(0.0373694 -0.00766401 -1.05011e-21)
(0.0375821 -0.00765403 -2.7511e-22)
(0.037791 -0.00763793 3.49671e-22)
(0.0379959 -0.00761578 -3.09564e-22)
(0.0381964 -0.00758761 1.9379e-22)
(0.0383924 -0.00755361 0)
(0.0385835 -0.0075138 7.16901e-23)
(0.0387695 -0.00746727 -2.94999e-23)
(0.0389501 -0.0074164 -3.23976e-23)
(0.039125 -0.00736301 -2.64569e-23)
(0.0392941 -0.00730583 3.85574e-23)
(0.0394571 -0.00724485 -3.79269e-23)
(0.0396138 -0.00718016 -2.31003e-23)
(0.0397638 -0.00711179 4.62923e-23)
(0.0399072 -0.00703981 2.11222e-23)
(0.0400437 -0.00696423 -6.7907e-23)
(0.0401733 -0.00688505 -8.03589e-24)
(0.040296 -0.00680228 0)
(0.0404116 -0.00671586 2.83747e-23)
(0.0405203 -0.00662569 -6.06499e-23)
(0.0406218 -0.00653155 6.40914e-23)
(0.0407159 -0.00643311 0)
(0.0408023 -0.00632984 0)
(0.0408802 -0.00622101 1.8378e-22)
(0.0409486 -0.00610565 -3.23648e-22)
(0.0410061 -0.00598245 -7.14455e-22)
(0.0410509 -0.0058498 1.36817e-21)
(0.041081 -0.00570589 -3.82193e-22)
(0.0410952 -0.00554927 3.46614e-22)
(0.0410945 -0.00537953 3.16042e-22)
(0.0410826 -0.00519746 -7.22536e-22)
(0.0410605 -0.00500252 7.17389e-22)
(0.0410131 -0.0047859 0)
(0.0408897 -0.00452267 -8.43148e-22)
(0.0406082 -0.00417704 8.28666e-23)
(0.0401277 -0.00373629 7.91444e-22)
(0.039596 -0.00326551 0)
(0.039459 -0.00292619 0)
(0.0402359 -0.00286465 0)
(0.0417635 -0.00297823 2.07984e-21)
(0.0427139 -0.0028408 1.17515e-21)
(0.041524 -0.00202156 8.50225e-22)
(0.0378009 -0.000500245 -1.85146e-21)
(0.0323737 0.00148091 -3.33602e-22)
(0.0260734 0.00382597 7.30555e-22)
(0.031679 -0.00638291 0)
(0.0319044 -0.00652879 3.17885e-21)
(0.0321346 -0.00666999 -3.92764e-21)
(0.0323658 -0.0068034 2.1887e-21)
(0.0325987 -0.00692955 -4.31975e-21)
(0.0328341 -0.00704938 -1.36169e-21)
(0.0330719 -0.0071627 -1.29658e-21)
(0.0333116 -0.00726909 0)
(0.033553 -0.00736832 2.33858e-21)
(0.0337958 -0.00746039 2.16911e-21)
(0.03404 -0.00754533 -2.15345e-21)
(0.0342853 -0.00762315 9.8616e-22)
(0.0345316 -0.00769387 -8.75222e-22)
(0.0347785 -0.00775747 9.89788e-22)
(0.0350255 -0.00781393 3.26342e-21)
(0.0352723 -0.00786326 -1.05574e-22)
(0.0355183 -0.00790547 -1.05059e-22)
(0.0357632 -0.00794061 -1.36579e-21)
(0.0360065 -0.0079687 -6.17697e-22)
(0.0362479 -0.00798981 -1.05229e-21)
(0.036487 -0.00800398 1.08813e-21)
(0.0367233 -0.00801131 0)
(0.0369567 -0.00801186 4.13531e-23)
(0.0371867 -0.00800572 0)
(0.0374131 -0.00799299 3.25837e-22)
(0.0376355 -0.00797376 2.80052e-22)
(0.0378537 -0.00794815 -1.17534e-22)
(0.0380675 -0.00791621 0)
(0.0382766 -0.00787802 -4.50908e-23)
(0.0384807 -0.00783385 -5.46499e-23)
(0.0386796 -0.0077834 5.51033e-23)
(0.0388732 -0.00772608 -1.05277e-23)
(0.0390608 -0.00766531 -7.15351e-23)
(0.0392428 -0.00760121 1.5413e-22)
(0.0394188 -0.00753313 -5.3825e-23)
(0.0395886 -0.00746113 0)
(0.0397522 -0.00738534 -5.71024e-23)
(0.0399095 -0.00730585 1.765e-23)
(0.0400604 -0.00722272 9.21025e-23)
(0.040205 -0.007136 -8.22784e-23)
(0.0403432 -0.00704567 1.53118e-23)
(0.0404751 -0.00695167 -6.29053e-23)
(0.0406006 -0.00685386 4.02611e-23)
(0.0407196 -0.006752 0)
(0.0408319 -0.00664571 0)
(0.0409371 -0.00653444 0)
(0.0410346 -0.00641749 2.14623e-22)
(0.0411236 -0.00629392 2.19787e-22)
(0.0412033 -0.00616252 0)
(0.0412724 -0.0060218 4.13473e-22)
(0.0413297 -0.00587013 4.96069e-22)
(0.0413752 -0.00570621 4.69905e-22)
(0.0414107 -0.00552957 0)
(0.0414395 -0.0053404 0)
(0.0414624 -0.00513737 -8.99666e-22)
(0.041466 -0.004912 8.93487e-22)
(0.041408 -0.00464206 0)
(0.0412195 -0.00429428 8.55498e-22)
(0.0408595 -0.00385092 -8.83913e-22)
(0.0404377 -0.00335726 -1.12088e-21)
(0.0403208 -0.00294655 1.09028e-21)
(0.0410012 -0.00276525 -1.06198e-21)
(0.0425271 -0.00278222 0)
(0.0439268 -0.0026689 -1.07607e-21)
(0.0436501 -0.00199793 1.38019e-22)
(0.0408673 -0.00061528 -2.82118e-21)
(0.0360298 0.00124439 -2.6828e-21)
(0.0301081 0.00333702 2.30618e-21)
(0.0236666 0.005622 -7.57497e-22)
(0.0314196 -0.00684185 8.7865e-22)
(0.0316618 -0.00698996 0)
(0.0319091 -0.00713285 7.97722e-22)
(0.0321577 -0.00726734 -3.77927e-21)
(0.0324079 -0.00739393 6.58733e-21)
(0.0326606 -0.00751359 -1.45873e-21)
(0.0329154 -0.00762611 1.3251e-21)
(0.0331716 -0.00773105 -2.46343e-21)
(0.0334288 -0.00782816 1.25142e-21)
(0.0336868 -0.00791743 1.13085e-21)
(0.0339454 -0.0079989 1.05924e-21)
(0.0342045 -0.00807259 -2.95129e-21)
(0.0344638 -0.00813854 1.00516e-21)
(0.0347232 -0.00819676 -2.56321e-21)
(0.0349822 -0.00824725 -7.11819e-22)
(0.0352406 -0.00829007 1.13992e-22)
(0.0354979 -0.00832525 1.45215e-21)
(0.0357539 -0.00835288 0)
(0.0360081 -0.00837303 0)
(0.0362601 -0.00838578 5.06156e-22)
(0.0365097 -0.00839124 4.90223e-22)
(0.0367564 -0.00838949 7.80395e-22)
(0.0369999 -0.00838065 -3.95919e-22)
(0.0372398 -0.00836483 -5.7023e-22)
(0.0374758 -0.00834216 5.71746e-22)
(0.0377076 -0.00831274 -8.98266e-23)
(0.037935 -0.00827672 -6.4189e-23)
(0.0381577 -0.00823415 0)
(0.0383755 -0.0081852 4.58355e-23)
(0.038588 -0.00813012 -8.99459e-24)
(0.0387951 -0.00806832 -4.6411e-23)
(0.0389968 -0.00800003 5.58199e-23)
(0.0391922 -0.00792887 -8.00641e-23)
(0.0393822 -0.00785388 0)
(0.0395662 -0.00777485 5.96327e-23)
(0.0397441 -0.00769192 -6.84273e-23)
(0.0399159 -0.0076052 5.76264e-23)
(0.0400817 -0.00751478 -1.49163e-22)
(0.0402413 -0.00742071 0)
(0.0403949 -0.00732298 -2.43895e-23)
(0.0405424 -0.00722152 2.34254e-23)
(0.0406837 -0.00711619 -4.21726e-23)
(0.0408187 -0.00700675 1.56519e-22)
(0.0409473 -0.00689286 -3.25929e-22)
(0.0410691 -0.00677403 2.18113e-22)
(0.0411837 -0.00664965 2.34939e-22)
(0.0412909 -0.0065189 -1.91472e-22)
(0.0413899 -0.00638073 5.32413e-22)
(0.0414802 -0.00623386 -4.85914e-22)
(0.0415615 -0.00607691 -1.24275e-21)
(0.0416345 -0.00590887 3.39433e-23)
(0.0417018 -0.00572943 -4.75313e-22)
(0.0417667 -0.00553843 0)
(0.0418288 -0.00533367 0)
(0.0418749 -0.00510639 -1.08541e-21)
(0.0418687 -0.0048362 1.59336e-21)
(0.0417534 -0.00449306 -1.10244e-21)
(0.0414965 -0.00405854 0)
(0.0411906 -0.003567 1.27953e-21)
(0.0411491 -0.00313238 2.36448e-21)
(0.0418198 -0.00289379 -1.15361e-21)
(0.04334 -0.0028543 -8.79894e-23)
(0.0449886 -0.0027503 1.29197e-21)
(0.0453507 -0.0021755 -8.47199e-23)
(0.0433679 -0.000906775 -3.13582e-21)
(0.0391573 0.00091399 3.17213e-21)
(0.0335833 0.00297522 1.51413e-21)
(0.0273968 0.00511795 0)
(0.0207816 0.00726527 0)
(0.0311509 -0.00733604 -8.99551e-22)
(0.0314109 -0.00748622 -4.29671e-21)
(0.0316763 -0.00763061 3.38552e-21)
(0.0319431 -0.00776593 0)
(0.0322116 -0.00789269 7.52719e-22)
(0.0324826 -0.00801188 2.80957e-21)
(0.0327558 -0.0081233 -2.10467e-21)
(0.0330303 -0.00822647 3.15725e-21)
(0.0333056 -0.00832116 -2.49507e-21)
(0.0335812 -0.00840732 0)
(0.0338569 -0.008485 -5.46755e-22)
(0.0341326 -0.00855425 0)
(0.0344079 -0.00861508 -8.68987e-22)
(0.0346826 -0.00866752 2.69245e-21)
(0.0349563 -0.00871162 0)
(0.0352287 -0.00874744 0)
(0.0354994 -0.00877505 0)
(0.0357682 -0.00879456 8.75573e-22)
(0.0360347 -0.0088061 -1.17212e-21)
(0.0362986 -0.00880977 -5.15419e-22)
(0.0365596 -0.00880572 0)
(0.0368173 -0.00879409 0)