/*--------------------------------*- C++ -*----------------------------------*\
| =========                 |                                                 |
| \\      /  F ield         | OpenFOAM: The Open Source CFD Toolbox           |
|  \\    /   O peration     | Version:  2312                                  |
|   \\  /    A nd           | Website:  www.openfoam.com                      |
|    \\/     M anipulation  |                                                 |
\*---------------------------------------------------------------------------*/
FoamFile
{
    version     2.0;
    format      ascii;
    arch        "LSB;label=32;scalar=64";
    class       volScalarField;
    location    "1000";
    object      k;
}
// * * * * * * * * * * * * * * * * * * * * * * * * * * * * * * * * * * * * * //

dimensions      [0 2 -2 0 0 0 0];

internalField   nonuniform List<scalar> 
76025
(
4.75714e-06
4.75568e-06
4.75566e-06
4.75602e-06
4.75432e-06
4.75119e-06
4.7529e-06
4.74981e-06
4.74462e-06
4.74821e-06
4.74999e-06
4.74964e-06
4.75024e-06
4.75006e-06
4.74991e-06
4.74754e-06
4.74642e-06
4.74506e-06
4.73759e-06
4.73422e-06
4.72934e-06
4.72968e-06
4.72919e-06
4.72849e-06
4.72599e-06
4.72447e-06
4.72437e-06
4.73089e-06
4.73383e-06
4.73101e-06
4.73159e-06
4.73503e-06
4.74306e-06
4.75214e-06
4.76342e-06
4.77607e-06
4.79117e-06
4.80952e-06
4.83155e-06
4.85425e-06
4.88237e-06
4.91096e-06
4.94799e-06
4.98336e-06
5.02477e-06
5.0616e-06
5.10662e-06
5.14702e-06
5.19163e-06
5.22825e-06
5.271e-06
5.30481e-06
5.34737e-06
5.37427e-06
5.41437e-06
5.43979e-06
5.48039e-06
5.50623e-06
5.55333e-06
5.5805e-06
5.63493e-06
5.66862e-06
5.73894e-06
5.7815e-06
5.86859e-06
5.94866e-06
6.0281e-06
6.16064e-06
6.22563e-06
4.78613e-06
4.78651e-06
4.78589e-06
4.78582e-06
4.78529e-06
4.78493e-06
4.78405e-06
4.78417e-06
4.77941e-06
4.78113e-06
4.7779e-06
4.78246e-06
4.78341e-06
4.77817e-06
4.78132e-06
4.77911e-06
4.77699e-06
4.7825e-06
4.78316e-06
4.7845e-06
4.78412e-06
4.78522e-06
4.78582e-06
4.78204e-06
4.78112e-06
4.78597e-06
4.78868e-06
4.79994e-06
4.7963e-06
4.80605e-06
4.80339e-06
4.8068e-06
4.81535e-06
4.82675e-06
4.84075e-06
4.85676e-06
4.87506e-06
4.8953e-06
4.91768e-06
4.94164e-06
4.96806e-06
4.99579e-06
5.02606e-06
5.05629e-06
5.08942e-06
5.1213e-06
5.15693e-06
5.1884e-06
5.2252e-06
5.25531e-06
5.29343e-06
5.3213e-06
5.36064e-06
5.38612e-06
5.42842e-06
5.4539e-06
5.50209e-06
5.52964e-06
5.58516e-06
5.61738e-06
5.68644e-06
5.72653e-06
5.81325e-06
5.86329e-06
5.97302e-06
6.03205e-06
6.16703e-06
6.23999e-06
6.37428e-06
4.81063e-06
4.80997e-06
4.81405e-06
4.81201e-06
4.81026e-06
4.81309e-06
4.81606e-06
4.81308e-06
4.81479e-06
4.81614e-06
4.81635e-06
4.81459e-06
4.82067e-06
4.82112e-06
4.82e-06
4.81899e-06
4.82539e-06
4.82815e-06
4.82848e-06
4.82788e-06
4.83666e-06
4.83866e-06
4.84127e-06
4.832e-06
4.83943e-06
4.83392e-06
4.83317e-06
4.83692e-06
4.84161e-06
4.84841e-06
4.85649e-06
4.86633e-06
4.87816e-06
4.89187e-06
4.90746e-06
4.9247e-06
4.94369e-06
4.96413e-06
4.98632e-06
5.00964e-06
5.03485e-06
5.06071e-06
5.08872e-06
5.11648e-06
5.14707e-06
5.17602e-06
5.20898e-06
5.23811e-06
5.27345e-06
5.30212e-06
5.3404e-06
5.36815e-06
5.4104e-06
5.43769e-06
5.48489e-06
5.51314e-06
5.56685e-06
5.59773e-06
5.6609e-06
5.69737e-06
5.77295e-06
5.81628e-06
5.90598e-06
5.95732e-06
6.06404e-06
6.12606e-06
6.25656e-06
6.33301e-06
6.50508e-06
4.84353e-06
4.84345e-06
4.84884e-06
4.84939e-06
4.84609e-06
4.84697e-06
4.84914e-06
4.85524e-06
4.85454e-06
4.85746e-06
4.85948e-06
4.85994e-06
4.85703e-06
4.86211e-06
4.85688e-06
4.86171e-06
4.85853e-06
4.85753e-06
4.8596e-06
4.86125e-06
4.86468e-06
4.86711e-06
4.8706e-06
4.87313e-06
4.87725e-06
4.88151e-06
4.88668e-06
4.89311e-06
4.90071e-06
4.90958e-06
4.91982e-06
4.93142e-06
4.94445e-06
4.95888e-06
4.97479e-06
4.99203e-06
5.0108e-06
5.03072e-06
5.0523e-06
5.07465e-06
5.09891e-06
5.12335e-06
5.15022e-06
5.17635e-06
5.20577e-06
5.23306e-06
5.26509e-06
5.29304e-06
5.32792e-06
5.35617e-06
5.39458e-06
5.42297e-06
5.46603e-06
5.49467e-06
5.54381e-06
5.57367e-06
5.63053e-06
5.66363e-06
5.73016e-06
5.76808e-06
5.84696e-06
5.89118e-06
5.98567e-06
6.03921e-06
6.15401e-06
6.21996e-06
6.36008e-06
6.44202e-06
6.62025e-06
4.87894e-06
4.88032e-06
4.88162e-06
4.88737e-06
4.88821e-06
4.88896e-06
4.88785e-06
4.88985e-06
4.89405e-06
4.89858e-06
4.90299e-06
4.90364e-06
4.91039e-06
4.91194e-06
4.91359e-06
4.90735e-06
4.913e-06
4.90886e-06
4.90851e-06
4.91078e-06
4.91465e-06
4.91923e-06
4.92452e-06
4.93025e-06
4.93661e-06
4.94356e-06
4.95118e-06
4.9596e-06
4.96889e-06
4.97913e-06
4.99042e-06
5.00279e-06
5.01634e-06
5.03101e-06
5.04697e-06
5.06402e-06
5.08249e-06
5.10187e-06
5.12293e-06
5.14449e-06
5.16812e-06
5.19162e-06
5.21787e-06
5.24301e-06
5.27197e-06
5.29843e-06
5.33032e-06
5.35781e-06
5.39305e-06
5.42138e-06
5.46079e-06
5.4899e-06
5.53476e-06
5.56478e-06
5.61675e-06
5.64845e-06
5.70925e-06
5.74435e-06
5.81562e-06
5.85614e-06
5.94063e-06
5.98818e-06
6.08904e-06
6.14598e-06
6.26654e-06
6.33622e-06
6.4795e-06
6.56603e-06
6.74426e-06
4.93195e-06
4.93226e-06
4.93213e-06
4.93015e-06
4.93403e-06
4.93059e-06
4.93283e-06
4.93062e-06
4.93309e-06
4.93818e-06
4.94026e-06
4.95028e-06
4.95375e-06
4.95695e-06
4.95872e-06
4.95436e-06
4.9542e-06
4.95669e-06
4.9607e-06
4.96573e-06
4.9716e-06
4.97812e-06
4.98525e-06
4.99295e-06
5.00124e-06
5.01011e-06
5.01959e-06
5.02973e-06
5.04058e-06
5.05219e-06
5.06464e-06
5.07794e-06
5.09223e-06
5.10741e-06
5.12374e-06
5.14092e-06
5.15948e-06
5.17867e-06
5.19963e-06
5.22078e-06
5.24426e-06
5.26722e-06
5.29337e-06
5.31797e-06
5.34698e-06
5.37306e-06
5.4052e-06
5.43271e-06
5.46845e-06
5.49742e-06
5.53763e-06
5.56808e-06
5.61421e-06
5.64613e-06
5.70015e-06
5.7339e-06
5.79772e-06
5.83481e-06
5.9098e-06
5.95243e-06
6.04075e-06
6.09039e-06
6.19536e-06
6.25446e-06
6.37947e-06
6.45222e-06
6.59794e-06
6.69824e-06
6.84961e-06
4.98011e-06
4.98085e-06
4.98246e-06
4.98425e-06
4.98648e-06
4.98999e-06
4.99639e-06
4.99809e-06
4.99628e-06
4.99823e-06
5.0012e-06
5.00751e-06
5.01319e-06
5.01575e-06
5.02524e-06
5.02056e-06
5.02269e-06
5.02123e-06
5.02385e-06
5.02891e-06
5.0354e-06
5.04295e-06
5.05127e-06
5.06031e-06
5.07e-06
5.08032e-06
5.09126e-06
5.10285e-06
5.11511e-06
5.12804e-06
5.14174e-06
5.15614e-06
5.17144e-06
5.18743e-06
5.20451e-06
5.22218e-06
5.24125e-06
5.26065e-06
5.28197e-06
5.30309e-06
5.32688e-06
5.34964e-06
5.37617e-06
5.40048e-06
5.43002e-06
5.45588e-06
5.48879e-06
5.5163e-06
5.55309e-06
5.5825e-06
5.62401e-06
5.6555e-06
5.70317e-06
5.73676e-06
5.79268e-06
5.82846e-06
5.89485e-06
5.93385e-06
6.01231e-06
6.05682e-06
6.14917e-06
6.20125e-06
6.31116e-06
6.37286e-06
6.50417e-06
6.57782e-06
6.73608e-06
6.82432e-06
7.02407e-06
5.03399e-06
5.03649e-06
5.03439e-06
5.03523e-06
5.03723e-06
5.04006e-06
5.04329e-06
5.04522e-06
5.04682e-06
5.04947e-06
5.05174e-06
5.05576e-06
5.05967e-06
5.06331e-06
5.06809e-06
5.07193e-06
5.07662e-06
5.08189e-06
5.08829e-06
5.09564e-06
5.10389e-06
5.11285e-06
5.12251e-06
5.13285e-06
5.14379e-06
5.15543e-06
5.16767e-06
5.18058e-06
5.19414e-06
5.20831e-06
5.22319e-06
5.23867e-06
5.255e-06
5.27188e-06
5.28984e-06
5.30816e-06
5.32797e-06
5.34777e-06
5.36972e-06
5.39103e-06
5.41542e-06
5.43821e-06
5.4654e-06
5.48964e-06
5.51999e-06
5.54577e-06
5.57973e-06
5.60729e-06
5.64543e-06
5.67514e-06
5.71829e-06
5.75051e-06
5.80002e-06
5.83496e-06
5.89278e-06
5.93062e-06
5.99911e-06
6.04056e-06
6.12193e-06
6.16896e-06
6.26526e-06
6.32038e-06
6.43485e-06
6.50013e-06
6.63598e-06
6.71472e-06
6.87595e-06
6.9711e-06
7.18397e-06
5.09979e-06
5.10393e-06
5.10476e-06
5.09977e-06
5.10227e-06
5.09901e-06
5.09881e-06
5.10093e-06
5.10378e-06
5.10712e-06
5.11052e-06
5.11449e-06
5.1189e-06
5.12378e-06
5.12941e-06
5.13564e-06
5.14264e-06
5.15038e-06
5.15891e-06
5.16815e-06
5.17807e-06
5.18861e-06
5.19975e-06
5.21148e-06
5.22377e-06
5.23664e-06
5.2501e-06
5.26412e-06
5.27877e-06
5.29398e-06
5.30988e-06
5.3263e-06
5.34357e-06
5.36125e-06
5.38004e-06
5.399e-06
5.41954e-06
5.4398e-06
5.46243e-06
5.48405e-06
5.50909e-06
5.53211e-06
5.55995e-06
5.58442e-06
5.61547e-06
5.64163e-06
5.67637e-06
5.70455e-06
5.74364e-06
5.77428e-06
5.81861e-06
5.85216e-06
5.90309e-06
5.93995e-06
5.99927e-06
6.03997e-06
6.10995e-06
6.1553e-06
6.2387e-06
6.29007e-06
6.38979e-06
6.44931e-06
6.56819e-06
6.63803e-06
6.77865e-06
6.86332e-06
7.02663e-06
7.13516e-06
7.32719e-06
5.16579e-06
5.16861e-06
5.17074e-06
5.16991e-06
5.17659e-06
5.1715e-06
5.17601e-06
5.17258e-06
5.17277e-06
5.17553e-06
5.17955e-06
5.18431e-06
5.1897e-06
5.19566e-06
5.20234e-06
5.20968e-06
5.21784e-06
5.22672e-06
5.23642e-06
5.24679e-06
5.25788e-06
5.2696e-06
5.28192e-06
5.29481e-06
5.30827e-06
5.32227e-06
5.33683e-06
5.35192e-06
5.36759e-06
5.38377e-06
5.40061e-06
5.4179e-06
5.436e-06
5.45444e-06
5.47398e-06
5.49357e-06
5.51478e-06
5.5356e-06
5.55882e-06
5.58096e-06
5.60654e-06
5.63016e-06
5.6584e-06
5.68376e-06
5.71499e-06
5.74257e-06
5.77715e-06
5.80758e-06
5.84607e-06
5.87996e-06
5.92332e-06
5.96116e-06
6.01097e-06
6.05306e-06
6.11144e-06
6.15827e-06
6.2277e-06
6.28023e-06
6.36363e-06
6.4229e-06
6.52387e-06
6.59065e-06
6.7126e-06
6.78851e-06
6.93369e-06
7.02455e-06
7.19031e-06
7.32019e-06
7.47818e-06
5.23891e-06
5.24243e-06
5.24488e-06
5.25259e-06
5.24829e-06
5.25404e-06
5.25008e-06
5.24769e-06
5.24931e-06
5.25327e-06
5.25849e-06
5.26449e-06
5.27115e-06
5.27826e-06
5.28599e-06
5.29423e-06
5.30316e-06
5.31267e-06
5.32289e-06
5.33379e-06
5.34534e-06
5.35754e-06
5.3704e-06
5.38388e-06
5.39799e-06
5.41268e-06
5.42797e-06
5.44381e-06
5.46025e-06
5.47718e-06
5.49477e-06
5.51279e-06
5.53163e-06
5.55075e-06
5.57098e-06
5.59122e-06
5.61308e-06
5.63457e-06
5.65839e-06
5.68127e-06
5.70741e-06
5.73196e-06
5.76063e-06
5.78735e-06
5.81873e-06
5.84845e-06
5.88268e-06
5.91647e-06
5.95377e-06
5.99274e-06
6.03382e-06
6.0788e-06
6.12524e-06
6.17653e-06
6.23093e-06
6.28859e-06
6.3542e-06
6.41866e-06
6.49876e-06
6.5706e-06
6.66891e-06
6.74754e-06
6.86909e-06
6.95379e-06
7.10391e-06
7.19707e-06
7.38428e-06
7.48924e-06
7.71579e-06
5.32431e-06
5.328e-06
5.32101e-06
5.32934e-06
5.32384e-06
5.32271e-06
5.32449e-06
5.32802e-06
5.33299e-06
5.33894e-06
5.34576e-06
5.35309e-06
5.36102e-06
5.36932e-06
5.37814e-06
5.38735e-06
5.39712e-06
5.4073e-06
5.4181e-06
5.42941e-06
5.44141e-06
5.45394e-06
5.46712e-06
5.4809e-06
5.49531e-06
5.51029e-06
5.52591e-06
5.54209e-06
5.55892e-06
5.57627e-06
5.59434e-06
5.61285e-06
5.63225e-06
5.65191e-06
5.67277e-06
5.69362e-06
5.71619e-06
5.73836e-06
5.76302e-06
5.78668e-06
5.8138e-06
5.83925e-06
5.86911e-06
5.89692e-06
5.92976e-06
5.96085e-06
5.99677e-06
6.03245e-06
6.07149e-06
6.11336e-06
6.15575e-06
6.20543e-06
6.25206e-06
6.31079e-06
6.36368e-06
6.43199e-06
6.49439e-06
6.57218e-06
6.64771e-06
6.73473e-06
6.82731e-06
6.92193e-06
7.03885e-06
7.13771e-06
7.28828e-06
7.39561e-06
7.58289e-06
7.7067e-06
7.94954e-06
5.41183e-06
5.40561e-06
5.40237e-06
5.40412e-06
5.40702e-06
5.41122e-06
5.41642e-06
5.42258e-06
5.4294e-06
5.43692e-06
5.44493e-06
5.45348e-06
5.4624e-06
5.47181e-06
5.48157e-06
5.49179e-06
5.50235e-06
5.51334e-06
5.52477e-06
5.53662e-06
5.54896e-06
5.56178e-06
5.57515e-06
5.58906e-06
5.60357e-06
5.61862e-06
5.63434e-06
5.6506e-06
5.66761e-06
5.68509e-06
5.70346e-06
5.72221e-06
5.74205e-06
5.76208e-06
5.78355e-06
5.80491e-06
5.8283e-06
5.85114e-06
5.87687e-06
5.90133e-06
5.92986e-06
5.95617e-06
5.98798e-06
6.01651e-06
6.05218e-06
6.0836e-06
6.12361e-06
6.15898e-06
6.20371e-06
6.24459e-06
6.29427e-06
6.3428e-06
6.39763e-06
6.45624e-06
6.51682e-06
6.58747e-06
6.65547e-06
6.73879e-06
6.81692e-06
6.91303e-06
7.00454e-06
7.11332e-06
7.22634e-06
7.34211e-06
7.49668e-06
7.60978e-06
7.81995e-06
7.94454e-06
8.21307e-06
5.48926e-06
5.49248e-06
5.49629e-06
5.50116e-06
5.50695e-06
5.51344e-06
5.52065e-06
5.52836e-06
5.53669e-06
5.54541e-06
5.55467e-06
5.56426e-06
5.57435e-06
5.58473e-06
5.5956e-06
5.60677e-06
5.61839e-06
5.63028e-06
5.64257e-06
5.6552e-06
5.66821e-06
5.6816e-06
5.69545e-06
5.70973e-06
5.72458e-06
5.73988e-06
5.75587e-06
5.7723e-06
5.78957e-06
5.80723e-06
5.82594e-06
5.84493e-06
5.86524e-06
5.88564e-06
5.90775e-06
5.92968e-06
5.95392e-06
5.97758e-06
6.00437e-06
6.02996e-06
6.05982e-06
6.08752e-06
6.12107e-06
6.15118e-06
6.18927e-06
6.2222e-06
6.26579e-06
6.30218e-06
6.35227e-06
6.3932e-06
6.45057e-06
6.4978e-06
6.56283e-06
6.61875e-06
6.6915e-06
6.75855e-06
6.83953e-06
6.91931e-06
7.01029e-06
7.10457e-06
7.20739e-06
7.32164e-06
7.43762e-06
7.57793e-06
7.71873e-06
7.87345e-06
8.07085e-06
8.22588e-06
8.46243e-06
5.60199e-06
5.60673e-06
5.61214e-06
5.61837e-06
5.62533e-06
5.63305e-06
5.64133e-06
5.65024e-06
5.65963e-06
5.66953e-06
5.67981e-06
5.69048e-06
5.70153e-06
5.71288e-06
5.72457e-06
5.73657e-06
5.74889e-06
5.76153e-06
5.77449e-06
5.7878e-06
5.80146e-06
5.8155e-06
5.82995e-06
5.84482e-06
5.86019e-06
5.876e-06
5.89247e-06
5.90935e-06
5.92709e-06
5.94519e-06
5.96442e-06
5.98391e-06
6.00485e-06
6.02586e-06
6.04874e-06
6.07151e-06
6.09669e-06
6.12154e-06
6.14938e-06
6.17667e-06
6.2076e-06
6.23768e-06
6.27226e-06
6.30564e-06
6.3446e-06
6.38187e-06
6.42613e-06
6.46803e-06
6.51859e-06
6.56611e-06
6.62394e-06
6.67838e-06
6.74426e-06
6.80724e-06
6.88186e-06
6.95515e-06
7.0397e-06
7.12489e-06
7.22261e-06
7.32056e-06
7.43744e-06
7.55095e-06
7.69085e-06
7.8298e-06
7.99217e-06
8.15939e-06
8.37144e-06
8.51661e-06
8.8476e-06
5.73089e-06
5.73668e-06
5.74299e-06
5.75005e-06
5.75782e-06
5.76628e-06
5.77544e-06
5.78513e-06
5.79549e-06
5.8063e-06
5.81762e-06
5.82931e-06
5.84142e-06
5.85381e-06
5.86658e-06
5.87959e-06
5.89289e-06
5.90651e-06
5.92038e-06
5.9346e-06
5.94912e-06
5.96406e-06
5.97934e-06
5.99512e-06
6.01131e-06
6.02805e-06
6.0453e-06
6.06313e-06
6.08166e-06
6.10074e-06
6.1208e-06
6.14132e-06
6.16317e-06
6.18531e-06
6.20924e-06
6.2333e-06
6.25972e-06
6.28611e-06
6.31534e-06
6.34456e-06
6.37696e-06
6.40956e-06
6.44554e-06
6.48234e-06
6.52238e-06
6.56438e-06
6.60891e-06
6.65745e-06
6.70677e-06
6.76356e-06
6.81788e-06
6.88479e-06
6.94458e-06
7.02328e-06
7.0898e-06
7.18199e-06
7.25715e-06
7.36563e-06
7.45212e-06
7.58044e-06
7.68354e-06
7.83471e-06
7.96062e-06
8.14019e-06
8.28897e-06
8.50966e-06
8.68027e-06
8.93176e-06
9.31238e-06
5.88409e-06
5.89063e-06
5.89769e-06
5.90536e-06
5.9137e-06
5.9226e-06
5.93216e-06
5.94228e-06
5.95299e-06
5.96421e-06
5.97595e-06
5.98809e-06
6.00072e-06
6.01367e-06
6.0271e-06
6.0408e-06
6.05492e-06
6.06929e-06
6.08405e-06
6.09919e-06
6.11468e-06
6.13064e-06
6.14684e-06
6.16372e-06
6.18077e-06
6.19863e-06
6.21674e-06
6.23578e-06
6.25524e-06
6.27565e-06
6.29676e-06
6.31873e-06
6.34177e-06
6.36547e-06
6.39079e-06
6.41654e-06
6.44458e-06
6.47279e-06
6.50397e-06
6.53511e-06
6.56983e-06
6.60448e-06
6.64329e-06
6.68217e-06
6.7257e-06
6.76969e-06
6.81857e-06
6.86889e-06
6.92354e-06
6.9819e-06
7.04258e-06
7.11108e-06
7.17847e-06
7.25889e-06
7.33522e-06
7.4289e-06
7.51785e-06
7.62725e-06
7.73255e-06
7.8619e-06
7.98809e-06
8.14264e-06
8.29302e-06
8.47944e-06
8.66377e-06
8.87647e-06
9.14107e-06
9.45787e-06
9.60156e-06
6.05277e-06
6.06051e-06
6.06868e-06
6.0774e-06
6.08663e-06
6.09641e-06
6.10668e-06
6.11753e-06
6.12886e-06
6.14074e-06
6.15306e-06
6.16589e-06
6.17913e-06
6.19281e-06
6.20692e-06
6.22142e-06
6.23631e-06
6.25152e-06
6.26716e-06
6.28315e-06
6.29953e-06
6.31642e-06
6.33369e-06
6.35167e-06
6.37002e-06
6.38926e-06
6.40895e-06
6.42957e-06
6.45068e-06
6.47285e-06
6.49567e-06
6.5194e-06
6.54421e-06
6.56976e-06
6.59699e-06
6.62477e-06
6.65487e-06
6.68531e-06
6.71871e-06
6.75236e-06
6.78942e-06
6.82701e-06
6.8682e-06
6.91062e-06
6.95652e-06
7.00478e-06
7.05607e-06
7.11135e-06
7.16885e-06
7.23265e-06
7.29724e-06
7.37151e-06
7.44453e-06
7.53156e-06
7.61514e-06
7.71813e-06
7.81415e-06
7.9392e-06
8.04814e-06
8.20198e-06
8.33007e-06
8.51636e-06
8.66981e-06
8.90845e-06
9.08068e-06
9.4464e-06
9.64731e-06
9.72355e-06
9.65914e-06
6.25552e-06
6.26378e-06
6.27241e-06
6.28161e-06
6.29133e-06
6.30156e-06
6.3123e-06
6.32356e-06
6.33533e-06
6.34756e-06
6.36035e-06
6.37354e-06
6.38729e-06
6.40142e-06
6.41607e-06
6.4311e-06
6.44662e-06
6.46254e-06
6.47902e-06
6.49594e-06
6.51344e-06
6.5314e-06
6.55e-06
6.56919e-06
6.58917e-06
6.60969e-06
6.63104e-06
6.65302e-06
6.67599e-06
6.69941e-06
6.72427e-06
6.74943e-06
6.77657e-06
6.80381e-06
6.83366e-06
6.8634e-06
6.89639e-06
6.92904e-06
6.96559e-06
7.00171e-06
7.04214e-06
7.08261e-06
7.12726e-06
7.1733e-06
7.22242e-06
7.2756e-06
7.32953e-06
7.39166e-06
7.45108e-06
7.52402e-06
7.59051e-06
7.67552e-06
7.75283e-06
7.84976e-06
7.94344e-06
8.05409e-06
8.16518e-06
8.30134e-06
8.42055e-06
8.60324e-06
8.73351e-06
8.97657e-06
9.13421e-06
9.46155e-06
9.69496e-06
9.87164e-06
9.85503e-06
9.72388e-06
9.35585e-06
6.48315e-06
6.49231e-06
6.50197e-06
6.5122e-06
6.52299e-06
6.53429e-06
6.54598e-06
6.55821e-06
6.57089e-06
6.58401e-06
6.59761e-06
6.61169e-06
6.62624e-06
6.64135e-06
6.65691e-06
6.67304e-06
6.68961e-06
6.70676e-06
6.72441e-06
6.74262e-06
6.76156e-06
6.78093e-06
6.80121e-06
6.82161e-06
6.84344e-06
6.86509e-06
6.88854e-06
6.91176e-06
6.93717e-06
6.96239e-06
6.99002e-06
7.01759e-06
7.04774e-06
7.07789e-06
7.11067e-06
7.14373e-06
7.17963e-06
7.21561e-06
7.25516e-06
7.29458e-06
7.33851e-06
7.38223e-06
7.43121e-06
7.48051e-06
7.53496e-06
7.59175e-06
7.65189e-06
7.71878e-06
7.7848e-06
7.86495e-06
7.938e-06
8.03285e-06
8.11898e-06
8.22468e-06
8.33446e-06
8.45058e-06
8.58226e-06
8.73217e-06
8.86121e-06
9.09865e-06
9.24642e-06
9.5758e-06
9.81884e-06
9.9464e-06
9.97998e-06
9.94918e-06
9.632e-06
9.22783e-06
9.15803e-06
6.7646e-06
6.77402e-06
6.78392e-06
6.79437e-06
6.80545e-06
6.81704e-06
6.82925e-06
6.84182e-06
6.85499e-06
6.86863e-06
6.8828e-06
6.89748e-06
6.91261e-06
6.92831e-06
6.94439e-06
6.9612e-06
6.97844e-06
6.99634e-06
7.01504e-06
7.03425e-06
7.05419e-06
7.07508e-06
7.09702e-06
7.11965e-06
7.14339e-06
7.16768e-06
7.1934e-06
7.21983e-06
7.24766e-06
7.27624e-06
7.30632e-06
7.33739e-06
7.36961e-06
7.40344e-06
7.43844e-06
7.4754e-06
7.51389e-06
7.5542e-06
7.59709e-06
7.64091e-06
7.68929e-06
7.73706e-06
7.79206e-06
7.84486e-06
7.90721e-06
7.96728e-06
8.03712e-06
8.1081e-06
8.18473e-06
8.27184e-06
8.35504e-06
8.46047e-06
8.55893e-06
8.67356e-06
8.80452e-06
8.92625e-06
9.08526e-06
9.25029e-06
9.42134e-06
9.74986e-06
9.97711e-06
1.01871e-05
1.0163e-05
1.01006e-05
9.86051e-06
9.61565e-06
9.11537e-06
9.75092e-06
1.05911e-05
7.09482e-06
7.10562e-06
7.11663e-06
7.12834e-06
7.14044e-06
7.15325e-06
7.16637e-06
7.18023e-06
7.19464e-06
7.20977e-06
7.22555e-06
7.24178e-06
7.25864e-06
7.27574e-06
7.29378e-06
7.3119e-06
7.33118e-06
7.35059e-06
7.37139e-06
7.3923e-06
7.41471e-06
7.4373e-06
7.46152e-06
7.48622e-06
7.51223e-06
7.53936e-06
7.56811e-06
7.59805e-06
7.62875e-06
7.661e-06
7.69447e-06
7.7296e-06
7.76512e-06
7.80327e-06
7.84128e-06
7.88285e-06
7.92405e-06
7.96964e-06
8.01499e-06
8.065e-06
8.11602e-06
8.17077e-06
8.2294e-06
8.28957e-06
8.35768e-06
8.42497e-06
8.50387e-06
8.58168e-06
8.67071e-06
8.76585e-06
8.86358e-06
8.97802e-06
9.09755e-06
9.21588e-06
9.37822e-06
9.51196e-06
9.68872e-06
9.9258e-06
1.01545e-05
1.04275e-05
1.04394e-05
1.03195e-05
1.02998e-05
9.99848e-06
9.74481e-06
1.03827e-05
1.1171e-05
1.2207e-05
1.5844e-05
7.51111e-06
7.52179e-06
7.53283e-06
7.54456e-06
7.55678e-06
7.56977e-06
7.58303e-06
7.5971e-06
7.6117e-06
7.62694e-06
7.64307e-06
7.65975e-06
7.67734e-06
7.69551e-06
7.71456e-06
7.73416e-06
7.7549e-06
7.77625e-06
7.79914e-06
7.82225e-06
7.84696e-06
7.87235e-06
7.89979e-06
7.928e-06
7.95757e-06
7.98878e-06
8.02071e-06
8.05469e-06
8.08907e-06
8.12558e-06
8.16261e-06
8.20223e-06
8.24165e-06
8.28509e-06
8.3273e-06
8.37553e-06
8.42088e-06
8.47479e-06
8.52382e-06
8.58417e-06
8.63819e-06
8.70535e-06
8.76674e-06
8.8409e-06
8.91269e-06
8.99455e-06
9.07984e-06
9.17182e-06
9.27039e-06
9.38099e-06
9.49113e-06
9.61685e-06
9.76416e-06
9.87628e-06
1.0082e-05
1.02302e-05
1.04185e-05
1.07361e-05
1.07101e-05
1.07766e-05
1.06329e-05
1.03773e-05
1.14506e-05
1.13349e-05
1.18402e-05
1.36484e-05
1.63011e-05
1.98575e-05
3.07918e-05
8.03856e-06
8.05106e-06
8.06397e-06
8.07732e-06
8.09132e-06
8.10585e-06
8.12108e-06
8.13696e-06
8.15373e-06
8.17104e-06
8.18938e-06
8.20815e-06
8.22793e-06
8.24851e-06
8.27011e-06
8.2926e-06
8.31646e-06
8.34116e-06
8.3671e-06
8.39428e-06
8.42291e-06
8.45305e-06
8.48408e-06
8.51686e-06
8.55005e-06
8.58536e-06
8.62124e-06
8.65958e-06
8.69835e-06
8.7393e-06
8.78103e-06
8.82498e-06
8.86912e-06
8.91672e-06
8.96371e-06
9.01637e-06
9.06669e-06
9.12587e-06
9.18013e-06
9.24723e-06
9.30676e-06
9.38263e-06
9.44978e-06
9.53493e-06
9.61244e-06
9.70804e-06
9.79891e-06
9.90725e-06
1.00093e-05
1.01407e-05
1.02468e-05
1.03903e-05
1.05444e-05
1.0644e-05
1.08933e-05
1.10059e-05
1.12195e-05
1.12531e-05
1.14617e-05
1.17089e-05
1.17758e-05
1.44993e-05
1.59331e-05
1.7094e-05
1.89151e-05
2.7974e-05
3.64358e-05
5.86848e-05
9.47635e-05
8.71987e-06
8.73195e-06
8.74457e-06
8.75811e-06
8.7724e-06
8.78755e-06
8.80346e-06
8.82025e-06
8.8379e-06
8.85639e-06
8.87601e-06
8.89639e-06
8.91823e-06
8.9407e-06
8.96502e-06
8.98983e-06
9.0166e-06
9.04355e-06
9.07289e-06
9.10234e-06
9.13433e-06
9.16675e-06
9.20177e-06
9.23747e-06
9.27573e-06
9.31488e-06
9.35658e-06
9.39942e-06
9.44489e-06
9.49169e-06
9.54139e-06
9.59264e-06
9.64718e-06
9.70346e-06
9.7626e-06
9.8255e-06
9.88899e-06
9.95761e-06
1.00267e-05
1.01e-05
1.01754e-05
1.02533e-05
1.03343e-05
1.0418e-05
1.05035e-05
1.05969e-05
1.06871e-05
1.07907e-05
1.08834e-05
1.09973e-05
1.10927e-05
1.12437e-05
1.13609e-05
1.15554e-05
1.17759e-05
1.20542e-05
1.24245e-05
1.3115e-05
1.47683e-05
1.63601e-05
1.84239e-05
2.26056e-05
2.66249e-05
3.41768e-05
4.40483e-05
6.16693e-05
7.36881e-05
6.93427e-05
6.79044e-05
9.67358e-06
9.68936e-06
9.70513e-06
9.72155e-06
9.7386e-06
9.7564e-06
9.77518e-06
9.7947e-06
9.81525e-06
9.83703e-06
9.86e-06
9.8857e-06
9.91248e-06
9.94183e-06
9.97212e-06
1.0005e-05
1.00389e-05
1.00749e-05
1.01119e-05
1.01509e-05
1.01914e-05
1.02335e-05
1.02776e-05
1.03227e-05
1.03698e-05
1.04179e-05
1.04665e-05
1.05153e-05
1.05637e-05
1.06135e-05
1.06607e-05
1.07095e-05
1.07557e-05
1.08054e-05
1.08515e-05
1.09038e-05
1.09503e-05
1.10055e-05
1.10529e-05
1.111e-05
1.11697e-05
1.12344e-05
1.12952e-05
1.13639e-05
1.14261e-05
1.15048e-05
1.1576e-05
1.16731e-05
1.18053e-05
1.19761e-05
1.22836e-05
1.25751e-05
1.30098e-05
1.37976e-05
1.49711e-05
1.62819e-05
1.85554e-05
2.13946e-05
2.37981e-05
2.74444e-05
3.27729e-05
3.88433e-05
4.85438e-05
5.78162e-05
5.22871e-05
4.82027e-05
4.98213e-05
5.10356e-05
4.915e-05
1.1333e-05
1.13432e-05
1.13497e-05
1.13607e-05
1.13704e-05
1.13819e-05
1.13922e-05
1.14085e-05
1.14238e-05
1.14427e-05
1.146e-05
1.14751e-05
1.14925e-05
1.15029e-05
1.1526e-05
1.15388e-05
1.15619e-05
1.15784e-05
1.16135e-05
1.16281e-05
1.1662e-05
1.16788e-05
1.1712e-05
1.17212e-05
1.17667e-05
1.17861e-05
1.17836e-05
1.17194e-05
1.17625e-05
1.17782e-05
1.17344e-05
1.16962e-05
1.16858e-05
1.16999e-05
1.17253e-05
1.17798e-05
1.1819e-05
1.19086e-05
1.19533e-05
1.20974e-05
1.22683e-05
1.24598e-05
1.26564e-05
1.29128e-05
1.32252e-05
1.36693e-05
1.4066e-05
1.50657e-05
1.62511e-05
1.73874e-05
1.85079e-05
1.95728e-05
2.05899e-05
2.14182e-05
2.22499e-05
2.31066e-05
2.4484e-05
2.76452e-05
3.06964e-05
3.80594e-05
4.24369e-05
3.11452e-05
2.70425e-05
2.78638e-05
2.98586e-05
3.29849e-05
3.53773e-05
3.6957e-05
3.45374e-05
1.1741e-05
1.17047e-05
1.17642e-05
1.17238e-05
1.17887e-05
1.17569e-05
1.17696e-05
1.18407e-05
1.17903e-05
1.18662e-05
1.1818e-05
1.19006e-05
1.18679e-05
1.18885e-05
1.19815e-05
1.20162e-05
1.19454e-05
1.20419e-05
1.2025e-05
1.19996e-05
1.21097e-05
1.2065e-05
1.21752e-05
1.20945e-05
1.22955e-05
1.23013e-05
1.23715e-05
1.25561e-05
1.27625e-05
1.30711e-05
1.3389e-05
1.38198e-05
1.4292e-05
1.48747e-05
1.55187e-05
1.62806e-05
1.71128e-05
1.80843e-05
1.91136e-05
2.02892e-05
2.15412e-05
2.29356e-05
2.43367e-05
2.5838e-05
2.72464e-05
2.85788e-05
2.97553e-05
2.97252e-05
2.95296e-05
2.82569e-05
2.70089e-05
2.53248e-05
2.34863e-05
2.17419e-05
1.96409e-05
1.68584e-05
1.16492e-05
8.97206e-06
9.86579e-06
1.15586e-05
1.25877e-05
1.14978e-05
1.2266e-05
1.5948e-05
2.00857e-05
2.43114e-05
2.80119e-05
2.98263e-05
2.95602e-05
4.24189e-05
4.33195e-05
4.42463e-05
4.51916e-05
4.61595e-05
4.71498e-05
4.8155e-05
4.91878e-05
5.02286e-05
5.1294e-05
5.23679e-05
5.34588e-05
5.45614e-05
5.56681e-05
5.67926e-05
5.79105e-05
5.90437e-05
6.01637e-05
6.12966e-05
6.24151e-05
6.35281e-05
6.46456e-05
6.57233e-05
6.68375e-05
6.78591e-05
6.88958e-05
6.97594e-05
7.06691e-05
7.13288e-05
7.20577e-05
7.24912e-05
7.29287e-05
7.31319e-05
7.31691e-05
7.29417e-05
7.25182e-05
7.191e-05
7.13095e-05
6.92646e-05
6.80818e-05
6.60476e-05
6.33173e-05
5.98147e-05
5.5441e-05
5.00479e-05
4.34233e-05
3.53524e-05
2.55842e-05
1.5636e-05
7.02201e-06
2.53544e-06
1.92947e-06
2.53658e-06
3.10469e-06
3.21906e-06
3.20589e-06
2.66152e-06
1.95081e-06
1.77794e-06
1.80242e-06
1.84929e-06
1.74845e-06
1.80444e-06
2.36104e-06
3.14375e-06
4.0662e-06
5.32617e-06
6.3009e-06
7.20894e-06
4.76381e-06
4.76707e-06
4.76545e-06
4.764e-06
4.76193e-06
4.75885e-06
4.75567e-06
4.75322e-06
4.75412e-06
4.75078e-06
4.74496e-06
4.74253e-06
4.74454e-06
4.74641e-06
4.74774e-06
4.74822e-06
4.74782e-06
4.74717e-06
4.74795e-06
4.74793e-06
4.74979e-06
4.75132e-06
4.75227e-06
4.75207e-06
4.75314e-06
4.75195e-06
4.75316e-06
4.75421e-06
4.75918e-06
4.75927e-06
4.759e-06
4.76159e-06
4.76553e-06
4.7659e-06
4.76593e-06
4.766e-06
4.76907e-06
4.76833e-06
4.76624e-06
4.76755e-06
4.76493e-06
4.76524e-06
4.76363e-06
4.7623e-06
4.76437e-06
4.76701e-06
4.76676e-06
4.76663e-06
4.76531e-06
4.76185e-06
4.76031e-06
4.7596e-06
4.75734e-06
4.75885e-06
4.75758e-06
4.75987e-06
4.75824e-06
4.75869e-06
4.75759e-06
4.80522e-06
4.80323e-06
4.79959e-06
4.79621e-06
4.79253e-06
4.78893e-06
4.78566e-06
4.78254e-06
4.77913e-06
4.7734e-06
4.77064e-06
4.77154e-06
4.77418e-06
4.77431e-06
4.77484e-06
4.77285e-06
4.77301e-06
4.77323e-06
4.77312e-06
4.77237e-06
4.7738e-06
4.77503e-06
4.77548e-06
4.77572e-06
4.77589e-06
4.77461e-06
4.77589e-06
4.77713e-06
4.78145e-06
4.78159e-06
4.78184e-06
4.78408e-06
4.78775e-06
4.78838e-06
4.78903e-06
4.78889e-06
4.79147e-06
4.79212e-06
4.79134e-06
4.7917e-06
4.79005e-06
4.78979e-06
4.78752e-06
4.78764e-06
4.78752e-06
4.79212e-06
4.79056e-06
4.78861e-06
4.78733e-06
4.78563e-06
4.78123e-06
4.78311e-06
4.78113e-06
4.78162e-06
4.78134e-06
4.78558e-06
4.78619e-06
4.78765e-06
4.78611e-06
4.83993e-06
4.8368e-06
4.83281e-06
4.82935e-06
4.82577e-06
4.82242e-06
4.81899e-06
4.81526e-06
4.81106e-06
4.80665e-06
4.80455e-06
4.80569e-06
4.80792e-06
4.80547e-06
4.80364e-06
4.80273e-06
4.80223e-06
4.8028e-06
4.80058e-06
4.79978e-06
4.80126e-06
4.80223e-06
4.80262e-06
4.80249e-06
4.80185e-06
4.8006e-06
4.80177e-06
4.80328e-06
4.80708e-06
4.80739e-06
4.80805e-06
4.8098e-06
4.81367e-06
4.81442e-06
4.81512e-06
4.81482e-06
4.81686e-06
4.81915e-06
4.81838e-06
4.81867e-06
4.81774e-06
4.81734e-06
4.81557e-06
4.81561e-06
4.81521e-06
4.81505e-06
4.81842e-06
4.81782e-06
4.81453e-06
4.81461e-06
4.81424e-06
4.80996e-06
4.81116e-06
4.8081e-06
4.80441e-06
4.80806e-06
4.80648e-06
4.80482e-06
4.80897e-06
4.87603e-06
4.87331e-06
4.86994e-06
4.867e-06
4.86382e-06
4.86069e-06
4.85727e-06
4.85369e-06
4.85016e-06
4.84728e-06
4.84563e-06
4.84408e-06
4.84153e-06
4.83851e-06
4.83713e-06
4.83704e-06
4.83587e-06
4.83365e-06
4.83102e-06
4.83097e-06
4.83174e-06
4.83216e-06
4.8323e-06
4.83194e-06
4.83054e-06
4.82938e-06
4.83043e-06
4.83212e-06
4.8355e-06
4.83597e-06
4.83685e-06
4.83851e-06
4.8418e-06
4.84357e-06
4.8445e-06
4.8439e-06
4.84547e-06
4.8476e-06
4.84832e-06
4.8493e-06
4.84821e-06
4.8493e-06
4.84869e-06
4.84977e-06
4.85032e-06
4.85019e-06
4.85298e-06
4.85379e-06
4.8513e-06
4.84614e-06
4.84594e-06
4.84534e-06
4.84301e-06
4.84242e-06
4.84081e-06
4.84089e-06
4.84164e-06
4.84144e-06
4.84272e-06
4.91794e-06
4.91567e-06
4.91265e-06
4.90979e-06
4.90649e-06
4.90305e-06
4.89929e-06
4.89546e-06
4.8917e-06
4.88824e-06
4.88502e-06
4.88157e-06
4.87827e-06
4.87612e-06
4.87525e-06
4.87414e-06
4.8709e-06
4.86724e-06
4.86511e-06
4.86522e-06
4.86525e-06
4.86571e-06
4.86625e-06
4.86485e-06
4.86287e-06
4.86184e-06
4.86283e-06
4.86469e-06
4.86782e-06
4.86844e-06
4.86957e-06
4.87088e-06
4.87447e-06
4.87613e-06
4.87725e-06
4.8767e-06
4.87758e-06
4.88208e-06
4.88164e-06
4.88349e-06
4.88357e-06
4.88301e-06
4.88331e-06
4.88273e-06
4.88213e-06
4.88302e-06
4.88448e-06
4.88688e-06
4.88918e-06
4.88848e-06
4.88897e-06
4.88903e-06
4.88882e-06
4.88609e-06
4.8809e-06
4.88014e-06
4.87804e-06
4.87712e-06
4.87778e-06
4.96328e-06
4.96073e-06
4.95735e-06
4.95394e-06
4.95005e-06
4.94602e-06
4.94174e-06
4.93745e-06
4.93321e-06
4.92919e-06
4.92541e-06
4.92202e-06
4.91945e-06
4.91774e-06
4.91599e-06
4.91286e-06
4.90829e-06
4.90497e-06
4.9039e-06
4.90391e-06
4.90375e-06
4.90381e-06
4.90299e-06
4.90077e-06
4.89832e-06
4.89747e-06
4.89837e-06
4.90035e-06
4.90328e-06
4.90403e-06
4.90535e-06
4.90668e-06
4.90965e-06
4.91232e-06
4.91407e-06
4.91448e-06
4.91366e-06
4.91677e-06
4.92028e-06
4.9206e-06
4.92183e-06
4.92218e-06
4.92196e-06
4.92357e-06
4.92245e-06
4.92204e-06
4.9233e-06
4.92742e-06
4.93234e-06
4.93305e-06
4.93018e-06
4.93216e-06
4.9312e-06
4.93332e-06
4.93307e-06
4.9332e-06
4.93283e-06
4.93261e-06
4.93258e-06
5.00999e-06
5.00689e-06
5.00306e-06
4.99918e-06
4.99496e-06
4.99069e-06
4.98631e-06
4.98204e-06
4.97791e-06
4.97411e-06
4.97071e-06
4.9678e-06
4.9653e-06
4.96267e-06
4.95915e-06
4.95453e-06
4.95003e-06
4.94781e-06
4.94737e-06
4.94716e-06
4.9468e-06
4.94592e-06
4.94383e-06
4.94106e-06
4.93832e-06
4.93771e-06
4.93863e-06
4.94074e-06
4.94357e-06
4.94449e-06
4.94595e-06
4.94725e-06
4.9503e-06
4.95267e-06
4.95449e-06
4.9555e-06
4.95745e-06
4.95695e-06
4.9595e-06
4.96435e-06
4.96653e-06
4.96534e-06
4.96532e-06
4.96438e-06
4.96375e-06
4.96631e-06
4.96733e-06
4.96929e-06
4.97292e-06
4.97526e-06
4.97626e-06
4.97833e-06
4.97835e-06
4.98246e-06
4.98265e-06
4.9832e-06
4.97936e-06
4.98136e-06
4.97993e-06
5.05779e-06
5.05446e-06
5.05061e-06
5.04675e-06
5.0427e-06
5.03869e-06
5.03467e-06
5.03079e-06
5.02707e-06
5.02358e-06
5.02028e-06
5.01707e-06
5.01361e-06
5.00955e-06
5.00484e-06
5.00015e-06
4.99682e-06
4.99568e-06
4.99532e-06
4.9947e-06
4.99362e-06
4.99141e-06
4.98822e-06
4.98506e-06
4.98208e-06
4.98177e-06
4.98265e-06
4.98486e-06
4.9876e-06
4.98865e-06
4.9904e-06
4.99152e-06
4.9944e-06
4.99749e-06