/*--------------------------------*- C++ -*----------------------------------*\
| =========                 |                                                 |
| \\      /  F ield         | OpenFOAM: The Open Source CFD Toolbox           |
|  \\    /   O peration     | Version:  2312                                  |
|   \\  /    A nd           | Website:  www.openfoam.com                      |
|    \\/     M anipulation  |                                                 |
\*---------------------------------------------------------------------------*/
FoamFile
{
    version     2.0;
    format      ascii;
    arch        "LSB;label=32;scalar=64";
    class       volScalarField;
    location    "1000";
    object      nut;
}
// * * * * * * * * * * * * * * * * * * * * * * * * * * * * * * * * * * * * * //

dimensions      [0 2 -1 0 0 0 0];

internalField   nonuniform List<scalar> 
76025
(
5.96404e-05
5.95533e-05
5.99029e-05
6.05365e-05
5.98407e-05
5.91414e-05
5.99495e-05
5.92175e-05
6.00838e-05
5.98822e-05
5.96261e-05
5.91881e-05
5.94297e-05
5.897e-05
5.91665e-05
5.94128e-05
5.91546e-05
5.88369e-05
5.91086e-05
5.87533e-05
5.78135e-05
5.80751e-05
5.79217e-05
5.73236e-05
5.7603e-05
5.66469e-05
5.55494e-05
5.62946e-05
5.47896e-05
5.4675e-05
5.49602e-05
5.30534e-05
5.18816e-05
5.2869e-05
5.227e-05
5.24285e-05
5.00338e-05
4.86563e-05
4.89335e-05
4.85457e-05
4.80114e-05
4.57478e-05
4.45966e-05
4.52925e-05
4.50142e-05
4.46105e-05
4.40746e-05
4.48411e-05
4.52477e-05
4.58125e-05
4.60763e-05
4.63653e-05
4.72563e-05
4.78453e-05
4.8683e-05
4.98724e-05
4.94761e-05
4.87311e-05
4.75525e-05
4.71706e-05
4.63902e-05
4.47787e-05
4.45013e-05
4.36634e-05
4.31959e-05
4.29797e-05
4.09645e-05
4.03319e-05
4.13143e-05
5.60515e-05
5.59018e-05
5.59571e-05
5.61184e-05
5.61739e-05
5.59362e-05
5.60856e-05
5.58607e-05
5.58263e-05
5.59269e-05
5.59141e-05
5.59485e-05
5.60112e-05
5.58138e-05
5.57546e-05
5.58399e-05
5.56075e-05
5.57082e-05
5.56003e-05
5.56686e-05
5.54198e-05
5.53601e-05
5.52024e-05
5.489e-05
5.46803e-05
5.454e-05
5.42879e-05
5.42274e-05
5.37061e-05
5.31797e-05
5.28158e-05
5.2516e-05
5.22443e-05
5.2154e-05
5.18417e-05
5.14699e-05
5.107e-05
5.092e-05
5.09692e-05
5.08124e-05
5.0541e-05
5.04518e-05
5.07526e-05
5.10133e-05
5.09798e-05
5.09659e-05
5.13303e-05
5.16118e-05
5.15889e-05
5.16245e-05
5.1713e-05
5.15866e-05
5.17763e-05
5.18728e-05
5.15319e-05
5.07389e-05
5.03401e-05
4.95012e-05
4.88037e-05
4.75821e-05
4.69838e-05
4.61779e-05
4.56928e-05
4.46413e-05
4.39003e-05
4.26495e-05
4.2293e-05
4.20222e-05
4.13675e-05
5.23932e-05
5.22408e-05
5.21888e-05
5.20745e-05
5.20768e-05
5.21321e-05
5.21786e-05
5.21105e-05
5.20776e-05
5.20698e-05
5.20863e-05
5.20979e-05
5.22122e-05
5.22386e-05
5.21866e-05
5.21607e-05
5.2194e-05
5.22217e-05
5.2209e-05
5.21939e-05
5.22901e-05
5.22812e-05
5.22344e-05
5.20241e-05
5.19972e-05
5.18658e-05
5.17809e-05
5.16457e-05
5.14592e-05
5.1258e-05
5.11205e-05
5.11089e-05
5.10802e-05
5.10042e-05
5.09196e-05
5.08176e-05
5.07369e-05
5.06948e-05
5.06926e-05
5.06819e-05
5.06434e-05
5.06261e-05
5.06702e-05
5.06861e-05
5.06864e-05
5.06589e-05
5.07042e-05
5.06734e-05
5.05901e-05
5.04208e-05
5.03003e-05
4.99884e-05
4.97918e-05
4.94048e-05
4.90512e-05
4.83892e-05
4.79489e-05
4.71608e-05
4.65121e-05
4.5602e-05
4.5067e-05
4.42471e-05
4.36823e-05
4.27434e-05
4.22319e-05
4.12986e-05
4.09458e-05
4.04317e-05
3.94089e-05
4.90604e-05
4.89416e-05
4.89104e-05
4.8795e-05
4.86874e-05
4.86671e-05
4.86722e-05
4.87334e-05
4.87326e-05
4.87726e-05
4.88079e-05
4.88302e-05
4.88263e-05
4.89035e-05
4.88671e-05
4.89266e-05
4.89135e-05
4.89204e-05
4.89696e-05
4.90114e-05
4.90738e-05
4.91157e-05
4.91618e-05
4.91901e-05
4.92316e-05
4.92648e-05
4.92897e-05
4.92992e-05
4.92965e-05
4.93048e-05
4.93418e-05
4.94002e-05
4.9446e-05
4.94801e-05
4.95178e-05
4.95492e-05
4.95782e-05
4.95906e-05
4.9617e-05
4.96489e-05
4.96663e-05
4.96612e-05
4.96794e-05
4.96881e-05
4.96974e-05
4.96402e-05
4.9597e-05
4.94776e-05
4.9352e-05
4.9101e-05
4.8894e-05
4.85386e-05
4.82739e-05
4.78387e-05
4.74977e-05
4.68865e-05
4.64412e-05
4.57192e-05
4.51895e-05
4.43724e-05
4.38605e-05
4.30589e-05
4.25899e-05
4.1763e-05
4.13643e-05
4.05367e-05
4.03202e-05
3.97476e-05
3.88956e-05
4.57991e-05
4.57641e-05
4.57578e-05
4.57381e-05
4.56803e-05
4.5637e-05
4.55841e-05
4.5576e-05
4.56076e-05
4.56591e-05
4.57211e-05
4.57537e-05
4.5847e-05
4.58947e-05
4.59459e-05
4.5923e-05
4.60134e-05
4.60142e-05
4.60546e-05
4.61227e-05
4.62074e-05
4.62991e-05
4.63977e-05
4.64983e-05
4.66007e-05
4.67043e-05
4.68073e-05
4.69089e-05
4.70082e-05
4.71078e-05
4.72134e-05
4.7325e-05
4.74372e-05
4.75467e-05
4.76545e-05
4.77565e-05
4.78587e-05
4.79278e-05
4.79874e-05
4.80439e-05
4.80925e-05
4.8114e-05
4.81418e-05
4.81357e-05
4.8126e-05
4.80478e-05
4.79784e-05
4.78267e-05
4.76884e-05
4.74323e-05
4.72255e-05
4.68791e-05
4.66173e-05
4.61769e-05
4.58529e-05
4.52858e-05
4.48911e-05
4.42328e-05
4.37957e-05
4.30747e-05
4.26604e-05
4.19488e-05
4.15931e-05
4.08771e-05
4.06014e-05
3.99013e-05
3.97504e-05
3.92431e-05
3.80266e-05
4.27786e-05
4.27692e-05
4.27985e-05
4.27635e-05
4.27809e-05
4.27334e-05
4.27239e-05
4.26729e-05
4.26719e-05
4.27077e-05
4.27318e-05
4.28375e-05
4.28948e-05
4.29569e-05
4.30125e-05
4.30197e-05
4.3068e-05
4.31436e-05
4.32361e-05
4.33409e-05
4.34561e-05
4.35793e-05
4.37091e-05
4.38442e-05
4.3984e-05
4.41289e-05
4.42779e-05
4.44288e-05
4.45803e-05
4.47325e-05
4.48875e-05
4.5046e-05
4.52067e-05
4.53649e-05
4.55204e-05
4.56693e-05
4.58182e-05
4.59237e-05
4.60091e-05
4.60913e-05
4.61682e-05
4.62135e-05
4.6259e-05
4.62602e-05
4.62634e-05
4.62001e-05
4.61466e-05
4.60088e-05
4.58913e-05
4.56651e-05
4.54827e-05
4.51702e-05
4.49346e-05
4.45337e-05
4.42534e-05
4.37566e-05
4.34373e-05
4.28669e-05
4.2533e-05
4.1923e-05
4.16143e-05
4.1004e-05
4.07544e-05
4.01475e-05
3.99795e-05
3.93819e-05
3.93122e-05
3.8967e-05
3.75892e-05
3.99189e-05
3.99096e-05
3.99611e-05
3.998e-05
4.00142e-05
4.00627e-05
4.01203e-05
4.01267e-05
4.0102e-05
4.01113e-05
4.01356e-05
4.01965e-05
4.0261e-05
4.03093e-05
4.04215e-05
4.04267e-05
4.0494e-05
4.05397e-05
4.06244e-05
4.07342e-05
4.086e-05
4.09979e-05
4.11451e-05
4.13006e-05
4.14633e-05
4.16324e-05
4.18071e-05
4.1986e-05
4.21683e-05
4.23535e-05
4.2542e-05
4.27326e-05
4.29248e-05
4.31144e-05
4.33023e-05
4.34828e-05
4.36613e-05
4.37964e-05
4.39111e-05
4.40219e-05
4.41303e-05
4.42034e-05
4.42789e-05
4.43049e-05
4.43387e-05
4.43034e-05
4.42839e-05
4.41772e-05
4.40991e-05
4.39149e-05
4.37793e-05
4.35193e-05
4.33381e-05
4.30033e-05
4.27898e-05
4.23792e-05
4.21473e-05
4.16758e-05
4.14459e-05
4.09429e-05
4.07401e-05
4.02331e-05
4.00878e-05
3.95802e-05
3.95163e-05
3.8996e-05
3.9073e-05
3.86644e-05
3.77635e-05
3.7325e-05
3.73201e-05
3.7335e-05
3.7345e-05
3.73825e-05
3.74386e-05
3.74918e-05
3.7526e-05
3.75528e-05
3.75859e-05
3.76165e-05
3.76623e-05
3.77111e-05
3.77631e-05
3.783e-05
3.78971e-05
3.79782e-05
3.80716e-05
3.81811e-05
3.8305e-05
3.84422e-05
3.85905e-05
3.87492e-05
3.89172e-05
3.90935e-05
3.92779e-05
3.94689e-05
3.96662e-05
3.98688e-05
4.00754e-05
4.0286e-05
4.04987e-05
4.07139e-05
4.09272e-05
4.11409e-05
4.13476e-05
4.15498e-05
4.17137e-05
4.18625e-05
4.20027e-05
4.21456e-05
4.22504e-05
4.23621e-05
4.2421e-05
4.24942e-05
4.24962e-05
4.25226e-05
4.246e-05
4.24361e-05
4.23061e-05
4.22339e-05
4.20381e-05
4.19268e-05
4.16674e-05
4.15299e-05
4.12085e-05
4.10605e-05
4.06866e-05
4.05478e-05
4.01428e-05
4.00326e-05
3.96186e-05
3.95593e-05
3.91401e-05
3.91497e-05
3.87228e-05
3.88352e-05
3.8551e-05
3.78268e-05
3.49708e-05
3.49796e-05
3.5014e-05
3.49816e-05
3.5019e-05
3.50325e-05
3.50674e-05
3.51156e-05
3.51682e-05
3.52247e-05
3.5282e-05
3.53429e-05
3.54073e-05
3.54762e-05
3.5553e-05
3.5638e-05
3.57335e-05
3.58405e-05
3.59598e-05
3.60914e-05
3.62349e-05
3.63896e-05
3.65551e-05
3.67308e-05
3.69159e-05
3.71098e-05
3.7312e-05
3.75215e-05
3.77379e-05
3.79598e-05
3.81871e-05
3.84177e-05
3.86524e-05
3.88866e-05
3.91236e-05
3.93551e-05
3.95789e-05
3.977e-05
3.99547e-05
4.01261e-05
4.0305e-05
4.0446e-05
4.05977e-05
4.06975e-05
4.08156e-05
4.08655e-05
4.09431e-05
4.09364e-05
4.09703e-05
4.09044e-05
4.08961e-05
4.07714e-05
4.07278e-05
4.0546e-05
4.04775e-05
4.02417e-05
4.01621e-05
3.98796e-05
3.98086e-05
3.94927e-05
3.94515e-05
3.91187e-05
3.91266e-05
3.87843e-05
3.88576e-05
3.85183e-05
3.86399e-05
3.85856e-05
3.76488e-05
3.27208e-05
3.27285e-05
3.27765e-05
3.2779e-05
3.2845e-05
3.28499e-05
3.29169e-05
3.29339e-05
3.29769e-05
3.30405e-05
3.31154e-05
3.3197e-05
3.3284e-05
3.33756e-05
3.34733e-05
3.35771e-05
3.36891e-05
3.38094e-05
3.39396e-05
3.40796e-05
3.42302e-05
3.43914e-05
3.4563e-05
3.47449e-05
3.4937e-05
3.51389e-05
3.53501e-05
3.55699e-05
3.5798e-05
3.60332e-05
3.62755e-05
3.65225e-05
3.67756e-05
3.70299e-05
3.72893e-05
3.75458e-05
3.77908e-05
3.80101e-05
3.82329e-05
3.84395e-05
3.86557e-05
3.88388e-05
3.90318e-05
3.91808e-05
3.93434e-05
3.94512e-05
3.95751e-05
3.96362e-05
3.97164e-05
3.97279e-05
3.97645e-05
3.97242e-05
3.97232e-05
3.96294e-05
3.96009e-05
3.94545e-05
3.94119e-05
3.92192e-05
3.91812e-05
3.89522e-05
3.89451e-05
3.86901e-05
3.87418e-05
3.84734e-05
3.86121e-05
3.83545e-05
3.85331e-05
3.86738e-05
3.69497e-05
3.06114e-05
3.06294e-05
3.06843e-05
3.07445e-05
3.0748e-05
3.08228e-05
3.08419e-05
3.08708e-05
3.09276e-05
3.1004e-05
3.10935e-05
3.11921e-05
3.12985e-05
3.14108e-05
3.15297e-05
3.16546e-05
3.17864e-05
3.19249e-05
3.20713e-05
3.22258e-05
3.23889e-05
3.25612e-05
3.27432e-05
3.2935e-05
3.3137e-05
3.33489e-05
3.35709e-05
3.38023e-05
3.40433e-05
3.42926e-05
3.45507e-05
3.48153e-05
3.50876e-05
3.53634e-05
3.56463e-05
3.59298e-05
3.61988e-05
3.64474e-05
3.67101e-05
3.69558e-05
3.72106e-05
3.74386e-05
3.76739e-05
3.78744e-05
3.80806e-05
3.8248e-05
3.8414e-05
3.8544e-05
3.86609e-05
3.8751e-05
3.88147e-05
3.88623e-05
3.8876e-05
3.88766e-05
3.88515e-05
3.88012e-05
3.87551e-05
3.86564e-05
3.86113e-05
3.84742e-05
3.84614e-05
3.82957e-05
3.83617e-05
3.81824e-05
3.8393e-05
3.82159e-05
3.86501e-05
3.88044e-05
3.73819e-05
2.86628e-05
2.86857e-05
2.86918e-05
2.8756e-05
2.87589e-05
2.87978e-05
2.88539e-05
2.89203e-05
2.89989e-05
2.90892e-05
2.91906e-05
2.93008e-05
2.94199e-05
2.95462e-05
2.96806e-05
2.98221e-05
2.99716e-05
3.01281e-05
3.02928e-05
3.04651e-05
3.06463e-05
3.08357e-05
3.10345e-05
3.12426e-05
3.14604e-05
3.16881e-05
3.19259e-05
3.21737e-05
3.24318e-05
3.26992e-05
3.29768e-05
3.32622e-05
3.35574e-05
3.38577e-05
3.41675e-05
3.44783e-05
3.4777e-05
3.50588e-05
3.53615e-05
3.56478e-05
3.5944e-05
3.62154e-05
3.64959e-05
3.67427e-05
3.69967e-05
3.72121e-05
3.74266e-05
3.76056e-05
3.77681e-05
3.79087e-05
3.80099e-05
3.8112e-05
3.81486e-05
3.82118e-05
3.81905e-05
3.82134e-05
3.8153e-05
3.81365e-05
3.80651e-05
3.80184e-05
3.79757e-05
3.79137e-05
3.79702e-05
3.79168e-05
3.81733e-05
3.81965e-05
3.87548e-05
3.92826e-05
3.83079e-05
2.68058e-05
2.67832e-05
2.68142e-05
2.68464e-05
2.68964e-05
2.69649e-05
2.70401e-05
2.71212e-05
2.721e-05
2.73087e-05
2.74166e-05
2.75335e-05
2.76587e-05
2.77926e-05
2.79349e-05
2.80862e-05
2.82461e-05
2.84149e-05
2.85926e-05
2.87793e-05
2.89752e-05
2.91805e-05
2.93956e-05
2.96205e-05
2.9856e-05
3.01018e-05
3.03587e-05
3.0626e-05
3.0905e-05
3.1194e-05
3.14951e-05
3.18049e-05
3.21268e-05
3.2455e-05
3.27955e-05
3.31329e-05
3.3466e-05
3.37866e-05
3.41284e-05
3.44555e-05
3.4795e-05
3.51074e-05
3.54349e-05
3.57219e-05
3.60267e-05
3.62777e-05
3.65475e-05
3.67536e-05
3.69762e-05
3.71333e-05
3.72975e-05
3.74071e-05
3.75045e-05
3.7573e-05
3.76017e-05
3.76371e-05
3.76082e-05
3.7618e-05
3.75583e-05
3.75586e-05
3.75127e-05
3.75356e-05
3.75956e-05
3.76747e-05
3.80222e-05
3.82297e-05
3.90011e-05
4.01601e-05
3.92156e-05
2.49817e-05
2.50105e-05
2.50784e-05
2.51286e-05
2.51937e-05
2.52733e-05
2.53579e-05
2.54461e-05
2.55413e-05
2.56445e-05
2.57568e-05
2.58771e-05
2.60062e-05
2.61434e-05
2.629e-05
2.64454e-05
2.66108e-05
2.67856e-05
2.69704e-05
2.71653e-05
2.73705e-05
2.75863e-05
2.78133e-05
2.80513e-05
2.83012e-05
2.85627e-05
2.88369e-05
2.91227e-05
2.94221e-05
2.97326e-05
3.00574e-05
3.03922e-05
3.07417e-05
3.10987e-05
3.14714e-05
3.18362e-05
3.22035e-05
3.25672e-05
3.29483e-05
3.33175e-05
3.36997e-05
3.40561e-05
3.44277e-05
3.47587e-05
3.51094e-05
3.54009e-05
3.57193e-05
3.59583e-05
3.62342e-05
3.64124e-05
3.6637e-05
3.67529e-05
3.6918e-05
3.69775e-05
3.70783e-05
3.7093e-05
3.71342e-05
3.71189e-05
3.71241e-05
3.71073e-05
3.71198e-05
3.71722e-05
3.72721e-05
3.75102e-05
3.79071e-05
3.84363e-05
3.95075e-05
4.07411e-05
4.10786e-05
2.33931e-05
2.3432e-05
2.35082e-05
2.35663e-05
2.36372e-05
2.3722e-05
2.3811e-05
2.39039e-05
2.40028e-05
2.41098e-05
2.42247e-05
2.43476e-05
2.44786e-05
2.46176e-05
2.47653e-05
2.4922e-05
2.50883e-05
2.52645e-05
2.54512e-05
2.56487e-05
2.58576e-05
2.60782e-05
2.63111e-05
2.65566e-05
2.68154e-05
2.70875e-05
2.7374e-05
2.7674e-05
2.79896e-05
2.83184e-05
2.86639e-05
2.90215e-05
2.93964e-05
2.97813e-05
3.01844e-05
3.05776e-05
3.09782e-05
3.13858e-05
3.18066e-05
3.22203e-05
3.26442e-05
3.30507e-05
3.34641e-05
3.385e-05
3.42401e-05
3.45905e-05
3.49434e-05
3.52441e-05
3.55482e-05
3.57885e-05
3.60348e-05
3.62095e-05
3.63914e-05
3.65009e-05
3.66163e-05
3.66673e-05
3.67234e-05
3.67295e-05
3.67568e-05
3.67446e-05
3.68143e-05
3.68584e-05
3.70864e-05
3.73763e-05
3.79477e-05
3.87829e-05
4.00438e-05
4.23456e-05
4.34708e-05
2.1928e-05
2.19726e-05
2.20519e-05
2.21139e-05
2.21878e-05
2.22746e-05
2.23664e-05
2.24617e-05
2.25634e-05
2.26727e-05
2.27901e-05
2.29151e-05
2.30482e-05
2.3189e-05
2.33385e-05
2.34967e-05
2.36643e-05
2.3842e-05
2.403e-05
2.42293e-05
2.44401e-05
2.46637e-05
2.49e-05
2.51505e-05
2.5415e-05
2.56948e-05
2.59901e-05
2.63015e-05
2.66298e-05
2.69745e-05
2.73375e-05
2.77163e-05
2.81143e-05
2.85262e-05
2.89559e-05
2.93815e-05
2.98202e-05
3.02709e-05
3.0736e-05
3.11982e-05
3.16694e-05
3.21303e-05
3.25924e-05
3.30381e-05
3.34743e-05
3.38895e-05
3.42812e-05
3.46527e-05
3.49824e-05
3.53016e-05
3.55543e-05
3.58168e-05
3.5983e-05
3.61865e-05
3.62646e-05
3.64111e-05
3.64098e-05
3.65164e-05
3.64661e-05
3.65797e-05
3.65659e-05
3.67812e-05
3.69638e-05
3.74402e-05
3.80132e-05
3.89567e-05
4.01927e-05
4.26259e-05
4.48273e-05
2.06e-05
2.06477e-05
2.0728e-05
2.07916e-05
2.08662e-05
2.0953e-05
2.10449e-05
2.11404e-05
2.12422e-05
2.13515e-05
2.14688e-05
2.15939e-05
2.1727e-05
2.1868e-05
2.20179e-05
2.21766e-05
2.23452e-05
2.25237e-05
2.27132e-05
2.29143e-05
2.31276e-05
2.33542e-05
2.35939e-05
2.38492e-05
2.41188e-05
2.44058e-05
2.47088e-05
2.50311e-05
2.53711e-05
2.57315e-05
2.61115e-05
2.65118e-05
2.69333e-05
2.73744e-05
2.78292e-05
2.82888e-05
2.87702e-05
2.92631e-05
2.9775e-05
3.02873e-05
3.08127e-05
3.13293e-05
3.18522e-05
3.23561e-05
3.28571e-05
3.33288e-05
3.37868e-05
3.42085e-05
3.46032e-05
3.4963e-05
3.52769e-05
3.55685e-05
3.57897e-05
3.60081e-05
3.61363e-05
3.62798e-05
3.63332e-05
3.64236e-05
3.64496e-05
3.65524e-05
3.66394e-05
3.68408e-05
3.70636e-05
3.73686e-05
3.77504e-05
3.8056e-05
3.91177e-05
4.08025e-05
4.49433e-05
1.9355e-05
1.94059e-05
1.94869e-05
1.95518e-05
1.96265e-05
1.9713e-05
1.98041e-05
1.98992e-05
2.00003e-05
2.01091e-05
2.02256e-05
2.03502e-05
2.04826e-05
2.06234e-05
2.07731e-05
2.0932e-05
2.11008e-05
2.12799e-05
2.14703e-05
2.16725e-05
2.18874e-05
2.21163e-05
2.23594e-05
2.26189e-05
2.28946e-05
2.31891e-05
2.35019e-05
2.38356e-05
2.41895e-05
2.45666e-05
2.49658e-05
2.53887e-05
2.58363e-05
2.63076e-05
2.67935e-05
2.72944e-05
2.78267e-05
2.83727e-05
2.89407e-05
2.95146e-05
3.01029e-05
3.06877e-05
3.12766e-05
3.18524e-05
3.24182e-05
3.2962e-05
3.34797e-05
3.39696e-05
3.44171e-05
3.48364e-05
3.5196e-05
3.55342e-05
3.57951e-05
3.60497e-05
3.62151e-05
3.64029e-05
3.64958e-05
3.66674e-05
3.67176e-05
3.6906e-05
3.69016e-05
3.69742e-05
3.67189e-05
3.64241e-05
3.58434e-05
3.5763e-05
3.64933e-05
3.93486e-05
3.62325e-05
1.82447e-05
1.82964e-05
1.8376e-05
1.84402e-05
1.85136e-05
1.85981e-05
1.86873e-05
1.87805e-05
1.88797e-05
1.89861e-05
1.91007e-05
1.9223e-05
1.93537e-05
1.94927e-05
1.96408e-05
1.97983e-05
1.99662e-05
2.01448e-05
2.03356e-05
2.05388e-05
2.07558e-05
2.0987e-05
2.12342e-05
2.14983e-05
2.1781e-05
2.20826e-05
2.24054e-05
2.27499e-05
2.31186e-05
2.35109e-05
2.39313e-05
2.43768e-05
2.48546e-05
2.53535e-05
2.58745e-05
2.64159e-05
2.69946e-05
2.75904e-05
2.82167e-05
2.88523e-05
2.95112e-05
3.01692e-05
3.08367e-05
3.14936e-05
3.21382e-05
3.27661e-05
3.33536e-05
3.39266e-05
3.44281e-05
3.49271e-05
3.53264e-05
3.57402e-05
3.60464e-05
3.63757e-05
3.66263e-05
3.68929e-05
3.70934e-05
3.73073e-05
3.72879e-05
3.72738e-05
3.66584e-05
3.5977e-05
3.45711e-05
3.33804e-05
3.26544e-05
3.23588e-05
3.65076e-05
3.22132e-05
2.50881e-05
1.71976e-05
1.72497e-05
1.7327e-05
1.73898e-05
1.7461e-05
1.75428e-05
1.76291e-05
1.77194e-05
1.78155e-05
1.79187e-05
1.80298e-05
1.81488e-05
1.8276e-05
1.8412e-05
1.85572e-05
1.87123e-05
1.88779e-05
1.90551e-05
1.92444e-05
1.94468e-05
1.96639e-05
1.98958e-05
2.01452e-05
2.0411e-05
2.06983e-05
2.10039e-05
2.13354e-05
2.16879e-05
2.20708e-05
2.24782e-05
2.292e-05
2.33899e-05
2.3899e-05
2.44321e-05
2.50017e-05
2.56073e-05
2.6252e-05
2.6923e-05
2.7629e-05
2.83509e-05
2.91e-05
2.985e-05
3.06138e-05
3.13609e-05
3.21007e-05
3.28108e-05
3.34857e-05
3.41328e-05
3.47128e-05
3.52906e-05
3.5771e-05
3.62878e-05
3.67044e-05
3.71468e-05
3.75257e-05
3.7801e-05
3.79223e-05
3.77559e-05
3.69784e-05
3.59987e-05
3.40943e-05
3.24137e-05
3.07798e-05
2.94111e-05
3.12731e-05
3.26496e-05
2.53014e-05
2.14138e-05
1.64689e-05
1.6329e-05
1.63813e-05
1.64575e-05
1.65196e-05
1.65891e-05
1.66684e-05
1.67523e-05
1.68395e-05
1.69324e-05
1.7032e-05
1.71391e-05
1.7254e-05
1.73768e-05
1.75082e-05
1.76483e-05
1.77989e-05
1.79598e-05
1.81326e-05
1.83184e-05
1.85174e-05
1.87314e-05
1.8962e-05
1.9211e-05
1.94788e-05
1.97682e-05
2.00794e-05
2.04169e-05
2.07808e-05
2.11752e-05
2.16007e-05
2.20619e-05
2.25596e-05
2.30927e-05
2.36534e-05
2.42501e-05
2.48931e-05
2.55777e-05
2.63046e-05
2.70744e-05
2.7877e-05
2.87193e-05
2.95734e-05
3.04581e-05
3.13227e-05
3.21997e-05
3.30271e-05
3.38435e-05
3.4606e-05
3.53319e-05
3.60423e-05
3.66706e-05
3.73169e-05
3.78126e-05
3.8188e-05
3.83251e-05
3.79485e-05
3.71046e-05
3.55841e-05
3.35038e-05
3.16505e-05
2.97211e-05
2.84035e-05
2.92173e-05
3.16438e-05
2.48229e-05
2.1364e-05
1.61375e-05
1.50534e-05
1.29392e-05
1.54529e-05
1.55057e-05
1.55767e-05
1.5635e-05
1.57003e-05
1.57756e-05
1.58552e-05
1.59391e-05
1.60286e-05
1.61253e-05
1.62297e-05
1.63414e-05
1.64612e-05
1.65887e-05
1.67261e-05
1.68721e-05
1.70301e-05
1.71986e-05
1.73815e-05
1.75768e-05
1.77892e-05
1.80167e-05
1.82645e-05
1.85313e-05
1.88209e-05
1.91351e-05
1.94775e-05
1.98494e-05
2.02525e-05
2.06921e-05
2.11706e-05
2.16942e-05
2.22618e-05
2.28859e-05
2.35642e-05
2.43041e-05
2.5093e-05
2.59434e-05
2.68367e-05
2.77827e-05
2.87609e-05
2.97693e-05
3.07956e-05
3.18153e-05
3.28376e-05
3.38136e-05
3.47808e-05
3.56745e-05
3.65274e-05
3.72812e-05
3.78501e-05
3.81826e-05
3.80848e-05
3.73964e-05
3.62266e-05
3.43372e-05
3.22277e-05
3.0262e-05
2.86783e-05
2.82103e-05
2.9417e-05
2.89748e-05
2.40874e-05
1.99977e-05
1.59124e-05
1.44927e-05
1.28076e-05
1.1562e-05
1.29168e-05
1.49507e-05
1.49974e-05
1.5067e-05
1.51231e-05
1.51844e-05
1.52544e-05
1.53278e-05
1.54051e-05
1.54872e-05
1.55759e-05
1.56722e-05
1.57758e-05
1.58878e-05
1.60079e-05
1.61374e-05
1.62764e-05
1.64268e-05
1.65885e-05
1.67644e-05
1.69528e-05
1.7158e-05
1.73795e-05
1.7622e-05
1.78846e-05
1.81707e-05
1.84835e-05
1.88235e-05
1.91968e-05
1.96029e-05
2.00497e-05
2.05374e-05
2.10672e-05
2.16249e-05
2.22364e-05
2.28994e-05
2.36388e-05
2.44356e-05
2.53274e-05
2.62766e-05
2.73326e-05
2.84353e-05
2.96379e-05
3.08596e-05
3.21371e-05
3.33769e-05
3.45732e-05
3.56357e-05
3.64925e-05
3.70387e-05
3.71737e-05
3.67234e-05
3.56906e-05
3.41471e-05
3.21063e-05
3.03268e-05
2.87248e-05
2.80574e-05
2.9273e-05
3.01413e-05
2.58612e-05
2.15937e-05
1.75906e-05
1.6359e-05
1.33763e-05
1.1629e-05
1.12627e-05
1.09091e-05
1.09745e-05
1.4627e-05
1.41304e-05
1.41949e-05
1.42655e-05
1.43231e-05
1.43872e-05
1.44594e-05
1.45357e-05
1.46152e-05
1.46996e-05
1.47897e-05
1.48868e-05
1.49904e-05
1.51018e-05
1.52214e-05
1.53501e-05
1.54886e-05
1.56387e-05
1.58004e-05
1.59755e-05
1.61653e-05
1.63715e-05
1.65958e-05
1.68389e-05
1.71045e-05
1.73924e-05
1.77088e-05
1.80537e-05
1.84349e-05
1.88529e-05
1.93176e-05
1.98354e-05
2.04223e-05
2.10847e-05
2.18321e-05
2.26553e-05
2.35745e-05
2.45727e-05
2.56817e-05
2.68623e-05
2.8159e-05
2.94924e-05
3.09022e-05
3.22494e-05
3.35322e-05
3.45428e-05
3.52347e-05
3.54063e-05
3.50703e-05
3.41671e-05
3.2938e-05
3.13978e-05
2.99944e-05
2.8958e-05
2.85792e-05
3.02421e-05
2.86935e-05
2.50911e-05
2.14982e-05
1.84161e-05
1.58684e-05
1.33369e-05
1.366e-05
1.26724e-05
1.09673e-05
1.03325e-05
1.31664e-05
1.64235e-05
2.45167e-05
4.33829e-05
1.43268e-05
1.43403e-05
1.43897e-05
1.44296e-05
1.44743e-05
1.45279e-05
1.45865e-05
1.46494e-05
1.47176e-05
1.47921e-05
1.48738e-05
1.49623e-05
1.5059e-05
1.51627e-05
1.52761e-05
1.53976e-05
1.55303e-05
1.56722e-05
1.5828e-05
1.59949e-05
1.61784e-05
1.63763e-05
1.65943e-05
1.68311e-05
1.70928e-05
1.73791e-05
1.76959e-05
1.80429e-05
1.84271e-05
1.88493e-05
1.93039e-05
1.97899e-05
2.03337e-05
2.09492e-05
2.16534e-05
2.24601e-05
2.33711e-05
2.43983e-05
2.55231e-05
2.67311e-05
2.79694e-05
2.91591e-05
3.01874e-05
3.09224e-05
3.12394e-05
3.11082e-05
3.05903e-05
2.99819e-05
2.95846e-05
2.99859e-05
3.03411e-05
2.73537e-05
2.4257e-05
2.13356e-05
1.87468e-05
1.63021e-05
1.43308e-05
1.27864e-05
1.21743e-05
1.13686e-05
1.05906e-05
1.12131e-05
1.1651e-05
1.4425e-05
1.87327e-05
2.74271e-05
3.34138e-05
4.20852e-05
4.42147e-05
1.344e-05
1.35491e-05
1.36345e-05
1.36989e-05
1.37667e-05
1.38409e-05
1.39181e-05
1.39978e-05
1.4082e-05
1.41726e-05
1.42705e-05
1.43784e-05
1.44946e-05
1.4622e-05
1.47591e-05
1.49093e-05
1.50716e-05
1.52489e-05
1.54408e-05
1.56501e-05
1.58782e-05
1.61268e-05
1.63995e-05
1.66982e-05
1.70313e-05
1.74048e-05
1.78235e-05
1.82938e-05
1.88189e-05
1.94156e-05
2.00848e-05
2.08254e-05
2.16137e-05
2.24532e-05
2.33212e-05
2.42285e-05
2.51406e-05
2.60838e-05
2.70155e-05
2.79759e-05
2.89517e-05
2.99615e-05
3.10474e-05
3.09348e-05
2.87399e-05
2.653e-05
2.41086e-05
2.18152e-05
1.95068e-05
1.74242e-05
1.56074e-05
1.3925e-05
1.25061e-05
1.14964e-05
1.08454e-05
1.02749e-05
1.00457e-05
9.98233e-06
9.86745e-06
1.04708e-05
1.24056e-05
1.49636e-05
2.015e-05
2.30238e-05
2.66527e-05
3.82281e-05
4.35726e-05
4.46844e-05
4.26281e-05
1.60314e-05
1.60202e-05
1.60821e-05
1.6146e-05
1.62107e-05
1.62866e-05
1.63648e-05
1.64551e-05
1.65484e-05
1.66531e-05
1.67623e-05
1.68758e-05
1.70005e-05
1.71231e-05
1.72744e-05
1.74217e-05
1.75965e-05
1.77758e-05
1.80004e-05
1.82118e-05
1.84743e-05
1.87313e-05
1.90368e-05
1.93212e-05
1.9679e-05
1.99846e-05
2.02445e-05
2.03665e-05
2.06529e-05
2.08947e-05
2.10635e-05
2.13191e-05
2.17447e-05
2.23928e-05
2.33297e-05
2.26194e-05
2.14879e-05
2.03651e-05
1.91142e-05
1.79743e-05
1.68332e-05
1.56906e-05
1.45411e-05
1.34658e-05
1.24564e-05
1.15837e-05
1.06885e-05
1.02565e-05
9.90429e-06
9.51481e-06
9.09682e-06
8.67923e-06
8.24624e-06
7.84425e-06
7.48949e-06
7.19885e-06
7.86021e-06
8.95653e-06
1.04026e-05
1.43639e-05
1.56334e-05
1.55343e-05
2.05222e-05
3.11287e-05
3.49695e-05
3.64573e-05
3.73048e-05
3.7618e-05
3.48694e-05
9.46831e-06
9.36877e-06
9.34327e-06
9.23858e-06
9.21436e-06
9.11371e-06
9.04632e-06
9.02109e-06
8.90408e-06
8.87847e-06
8.76047e-06
8.73577e-06
8.6266e-06
8.55393e-06
8.53174e-06
8.46679e-06
8.32615e-06
8.30074e-06
8.19558e-06
8.08392e-06
8.06027e-06
7.93267e-06
7.90357e-06
7.75018e-06
7.76597e-06
7.63258e-06
7.52117e-06
7.45094e-06
7.37866e-06
7.33807e-06
7.2871e-06
7.26967e-06
7.25257e-06
7.26505e-06
7.27906e-06
7.31933e-06
7.35771e-06
7.42162e-06
7.47045e-06
7.5406e-06
7.59815e-06
7.6677e-06
7.70164e-06
7.7278e-06
7.68325e-06
7.59842e-06
7.47046e-06
7.06821e-06
6.68471e-06
6.13278e-06
5.66672e-06
5.19636e-06
4.80835e-06
4.53543e-06
4.26487e-06
4.82591e-06
3.88229e-06
3.86062e-06
6.15016e-06
8.3739e-06
9.94089e-06
9.66718e-06
1.04682e-05
1.37602e-05
1.74301e-05
2.08401e-05
2.36428e-05
2.49492e-05
2.52386e-05
4.92551e-06
4.9745e-06
5.02888e-06
5.08562e-06
5.14505e-06
5.20749e-06
5.27224e-06
5.34067e-06
5.41073e-06
5.48432e-06
5.55986e-06
5.6384e-06
5.71957e-06
5.80274e-06
5.88953e-06
5.97763e-06
6.06957e-06
6.16265e-06
6.25985e-06
6.35868e-06
6.46036e-06
6.5662e-06
6.67197e-06
6.78572e-06
6.89515e-06
7.01223e-06
7.11846e-06
7.23687e-06
7.33815e-06
7.45615e-06
7.55441e-06
7.66537e-06
7.76547e-06
7.86319e-06
7.94961e-06
8.03376e-06
8.11904e-06
8.23081e-06
8.20239e-06
8.30619e-06
8.34326e-06
8.33159e-06
8.01899e-06
7.51616e-06
6.87193e-06
6.05048e-06
5.01037e-06
3.70028e-06
2.31315e-06
1.06255e-06
3.90845e-07
3.00303e-07
3.96853e-07
4.87713e-07
5.081e-07
5.08733e-07
4.24669e-07
3.13328e-07
2.8723e-07
2.92641e-07
3.0161e-07
2.86471e-07
2.96977e-07
3.90059e-07
5.20749e-07
6.75115e-07
8.85736e-07
1.04935e-06
1.20249e-06
8.31346e-05
8.29605e-05
8.09149e-05
8.09819e-05
8.05904e-05
8.01542e-05
7.94329e-05
7.98571e-05
7.98508e-05
7.87185e-05
7.89217e-05
7.83476e-05
7.59841e-05
7.45033e-05
7.50419e-05
7.68221e-05
7.50898e-05
7.36482e-05
7.3088e-05
7.29716e-05
7.12952e-05
7.13484e-05
7.10446e-05
6.93002e-05
6.94858e-05
6.90687e-05
6.75587e-05
6.73011e-05
6.74057e-05
6.71339e-05
6.56815e-05
6.54432e-05
6.50814e-05
6.49055e-05
6.37159e-05
6.37266e-05
6.31777e-05
6.28458e-05
6.29113e-05
6.29495e-05
6.2614e-05
6.23515e-05
6.22209e-05
6.19508e-05
6.1146e-05
6.1237e-05
6.20536e-05
6.10277e-05
6.08788e-05
6.1629e-05
6.17682e-05
6.15499e-05
6.22412e-05
6.09123e-05
6.00342e-05
6.04694e-05
5.98067e-05
5.98075e-05
5.99984e-05
7.64207e-05
7.60372e-05
7.55959e-05
7.54098e-05
7.52204e-05
7.4867e-05
7.45174e-05
7.43889e-05
7.40887e-05
7.35121e-05
7.29883e-05
7.19014e-05
7.0812e-05
7.05756e-05
7.12116e-05
7.09622e-05
6.89161e-05
6.81976e-05
6.82285e-05
6.73835e-05
6.66155e-05
6.59755e-05
6.5663e-05
6.44356e-05
6.45398e-05
6.38863e-05
6.31079e-05
6.23645e-05
6.2604e-05
6.20565e-05
6.09691e-05
6.0815e-05
6.05584e-05
6.02245e-05
5.96867e-05
5.94467e-05
5.91953e-05
5.86198e-05
5.84619e-05
5.83407e-05
5.80016e-05
5.80981e-05
5.79109e-05
5.75209e-05
5.74911e-05
5.6922e-05
5.72429e-05
5.70284e-05
5.67826e-05
5.68034e-05
5.6878e-05
5.703e-05
5.71599e-05
5.72467e-05
5.67146e-05
5.6801e-05
5.64876e-05
5.61401e-05
5.61382e-05
7.19654e-05
7.19637e-05
7.16834e-05
7.13691e-05
7.10377e-05
7.06205e-05
7.01636e-05
6.96826e-05
6.91263e-05
6.84503e-05
6.75896e-05
6.67775e-05
6.6429e-05
6.63235e-05
6.63235e-05
6.51942e-05
6.4049e-05
6.37035e-05
6.35124e-05
6.25233e-05
6.1757e-05
6.13256e-05
6.07746e-05
5.99566e-05
5.9914e-05
5.91474e-05
5.87028e-05
5.80157e-05
5.80797e-05
5.74779e-05
5.67307e-05
5.65681e-05
5.62953e-05
5.58298e-05
5.5555e-05
5.53283e-05
5.51108e-05
5.46879e-05
5.444e-05
5.4296e-05
5.40686e-05
5.40344e-05
5.39217e-05
5.36485e-05
5.36543e-05
5.32852e-05
5.31918e-05
5.30994e-05
5.29671e-05
5.28714e-05
5.27932e-05
5.27548e-05
5.27858e-05
5.28943e-05
5.287e-05
5.2864e-05
5.27028e-05
5.24274e-05
5.24032e-05
6.81706e-05
6.81506e-05
6.76958e-05
6.72555e-05
6.67725e-05
6.62467e-05
6.56898e-05
6.5101e-05
6.44597e-05
6.37599e-05
6.30846e-05
6.26385e-05
6.24155e-05
6.20934e-05
6.14766e-05
6.04582e-05
5.98613e-05
5.95899e-05
5.91039e-05
5.8198e-05
5.751e-05
5.71082e-05
5.6502e-05
5.59273e-05
5.57614e-05
5.50212e-05
5.46471e-05
5.41012e-05
5.39887e-05
5.34522e-05
5.28969e-05
5.27263e-05
5.24057e-05
5.19641e-05
5.17151e-05
5.15298e-05
5.13303e-05
5.10031e-05
5.07415e-05
5.05839e-05
5.04212e-05
5.03753e-05
5.0293e-05
5.01373e-05
5.00559e-05
4.98713e-05
4.97007e-05
4.9573e-05
4.94669e-05
4.93339e-05
4.92341e-05
4.91532e-05
4.9091e-05
4.90968e-05
4.91137e-05
4.91151e-05
4.90934e-05
4.89929e-05
4.90359e-05
6.41126e-05
6.39615e-05
6.34021e-05
6.28957e-05
6.23644e-05
6.18216e-05
6.12656e-05
6.06948e-05
6.01161e-05
5.95747e-05
5.91453e-05
5.88304e-05
5.84708e-05
5.78912e-05
5.71136e-05
5.63846e-05
5.59719e-05
5.55964e-05
5.49672e-05
5.4209e-05
5.36568e-05
5.32061e-05
5.26332e-05
5.21842e-05
5.1932e-05
5.12672e-05
5.09166e-05
5.04527e-05
5.02433e-05
4.97697e-05
4.93152e-05
4.91274e-05
4.88222e-05
4.84235e-05
4.81641e-05
4.79857e-05
4.78107e-05
4.75702e-05
4.72904e-05
4.71109e-05
4.69662e-05
4.69004e-05
4.68595e-05
4.67536e-05
4.66455e-05
4.65333e-05
4.63927e-05
4.6272e-05
4.61913e-05
4.61112e-05
4.60436e-05
4.59667e-05
4.58925e-05
4.58096e-05
4.57276e-05
4.57006e-05
4.56704e-05
4.56138e-05
4.57092e-05
5.9913e-05
5.97068e-05
5.91385e-05
5.8643e-05
5.81405e-05
5.76398e-05
5.7139e-05
5.66481e-05
5.61868e-05
5.57791e-05
5.54143e-05
5.5013e-05
5.44778e-05
5.38116e-05
5.31452e-05
5.26282e-05
5.22338e-05
5.17442e-05
5.11012e-05
5.04789e-05
5.00099e-05
4.95369e-05
4.9012e-05
4.86309e-05
4.83206e-05
4.77343e-05
4.74063e-05
4.69954e-05
4.67402e-05
4.63168e-05
4.59233e-05
4.57258e-05
4.5451e-05
4.51058e-05
4.48486e-05
4.46719e-05
4.45047e-05
4.43099e-05
4.40936e-05
4.38873e-05
4.374e-05
4.36578e-05
4.36173e-05
4.3578e-05
4.34963e-05
4.34078e-05
4.33136e-05
4.32349e-05
4.31734e-05
4.30971e-05
4.3005e-05
4.29581e-05
4.2884e-05
4.28367e-05
4.27753e-05
4.27265e-05
4.26851e-05
4.26172e-05
4.26964e-05
5.58934e-05
5.57038e-05
5.51766e-05
5.47309e-05
5.42843e-05
5.38439e-05
5.34104e-05
5.29917e-05
5.25893e-05
5.219e-05
5.17541e-05
5.12383e-05
5.06447e-05
5.00443e-05
4.95241e-05
4.9094e-05
4.86537e-05
4.81094e-05
4.75169e-05
4.69961e-05
4.65615e-05
4.60928e-05
4.56262e-05
4.5282e-05
4.49396e-05
4.44226e-05
4.41138e-05
4.37477e-05
4.34755e-05
4.30966e-05
4.27487e-05
4.25465e-05
4.23085e-05
4.20033e-05
4.17509e-05
4.15718e-05
4.14414e-05
4.12642e-05
4.10819e-05
4.09272e-05
4.0782e-05
4.06607e-05
4.06019e-05
4.05552e-05
4.05071e-05
4.04742e-05
4.04149e-05
4.03517e-05
4.02975e-05
4.02378e-05
4.01778e-05
4.0136e-05
4.00824e-05
4.00622e-05
4.00104e-05
3.99612e-05
3.98806e-05
3.98138e-05
3.98529e-05
5.21843e-05
5.2033e-05
5.15555e-05
5.11596e-05
5.07607e-05
5.03642e-05
4.99666e-05
4.9565e-05
4.91476e-05
4.86968e-05
4.81975e-05
4.76573e-05
4.71143e-05
4.66167e-05
4.61767e-05
4.57475e-05
4.52643e-05
4.47266e-05
4.42058e-05
4.37531e-05
4.33321e-05
4.28816e-05
4.24671e-05
4.21413e-05
4.17866e-05
4.13293e-05
4.10348e-05
4.0707e-05
4.04337e-05
4.00931e-05
3.97841e-05
3.95796e-05
3.93699e-05
3.91122e-05
3.88758e-05