/*--------------------------------*- C++ -*----------------------------------*\
| =========                 |                                                 |
| \\      /  F ield         | OpenFOAM: The Open Source CFD Toolbox           |
|  \\    /   O peration     | Version:  2312                                  |
|   \\  /    A nd           | Website:  www.openfoam.com                      |
|    \\/     M anipulation  |                                                 |
\*---------------------------------------------------------------------------*/
FoamFile
{
    version     2.0;
    format      ascii;
    arch        "LSB;label=32;scalar=64";
    class       volScalarField;
    location    "1000";
    object      omega;
}
// * * * * * * * * * * * * * * * * * * * * * * * * * * * * * * * * * * * * * //

dimensions      [0 0 -1 0 0 0 0];

internalField   nonuniform List<scalar> 
76025
(
0.0286623
0.0286158
0.028608
0.0285876
0.028574
0.0285762
0.0285799
0.0286202
0.0286296
0.0286527
0.0286516
0.028691
0.0287032
0.0286589
0.0285883
0.0286264
0.0286126
0.0286187
0.0286026
0.02867
0.0286802
0.0286511
0.0286959
0.0286384
0.0287
0.0286357
0.0287263
0.0287464
0.0287407
0.0288568
0.0287665
0.0288967
0.0288626
0.0288939
0.02901
0.0291494
0.0293452
0.0295839
0.0298919
0.0301814
0.0305661
0.0309083
0.0314192
0.0318258
0.03234
0.0327451
0.0332799
0.0336992
0.034191
0.0345744
0.0350354
0.035376
0.0358363
0.0360591
0.0364289
0.0366522
0.0370522
0.0373378
0.0378821
0.0382201
0.0389082
0.0393762
0.0403927
0.0410419
0.0424791
0.0436688
0.0451272
0.0476172
0.0489966
0.0289635
0.0289626
0.0289567
0.0289896
0.0289973
0.0290057
0.029002
0.0290053
0.0290073
0.028996
0.0290012
0.0290712
0.0290892
0.0290728
0.0290484
0.0290954
0.0291005
0.0290714
0.0291295
0.0291441
0.0291682
0.0290797
0.0291649
0.0291084
0.0291068
0.0291391
0.029217
0.0293271
0.0294156
0.0295401
0.0297536
0.0298453
0.0298083
0.0298333
0.0299524
0.0301205
0.030336
0.0305723
0.0308439
0.0311159
0.0314333
0.0317358
0.0320921
0.0323984
0.0327731
0.0330777
0.0334698
0.0337361
0.0341324
0.0344095
0.0348338
0.0351064
0.0355621
0.0358248
0.0363081
0.0365876
0.037146
0.037472
0.0381884
0.0386284
0.0396254
0.0402389
0.0416246
0.0424739
0.0443947
0.0455044
0.0481377
0.0494914
0.0523526
0.0293483
0.0294019
0.0293715
0.0294102
0.0294185
0.0294404
0.0294578
0.0295316
0.0295526
0.0295521
0.0295159
0.0295121
0.0295139
0.0295594
0.0295961
0.0296803
0.0297183
0.0297577
0.0297819
0.0297565
0.0297605
0.0297779
0.0298101
0.0298146
0.0299346
0.0299045
0.0299891
0.0299367
0.0299602
0.0300681
0.0302453
0.0304752
0.0307703
0.030902
0.0308899
0.0309664
0.0311141
0.0312952
0.0315251
0.0317551
0.0320376
0.0322917
0.0326169
0.0328776
0.0332406
0.0335006
0.0338986
0.0341552
0.0345876
0.0348465
0.0353165
0.0355814
0.0361056
0.0363881
0.0369935
0.0373345
0.0380754
0.0385116
0.0394629
0.0400331
0.0412714
0.0420023
0.0435877
0.044511
0.0465
0.0476669
0.0501664
0.0516623
0.0553845
0.0298096
0.0298205
0.0298116
0.0298754
0.0298185
0.0298816
0.029851
0.0298893
0.0299533
0.0300048
0.0300437
0.0300562
0.0301442
0.0300696
0.0301416
0.030097
0.03009
0.0301129
0.0301515
0.0302001
0.0302591
0.0303135
0.0303919
0.0304632
0.0305678
0.0306337
0.0307689
0.0308843
0.0310209
0.0311127
0.0310578
0.0310803
0.0311681
0.0312783
0.0314115
0.0315596
0.0317441
0.0319339
0.0321695
0.0323889
0.0326715
0.0329092
0.0332378
0.0334848
0.0338589
0.0341107
0.0345317
0.03479
0.0352602
0.0355313
0.0360616
0.0363545
0.0369639
0.0372935
0.0380098
0.0384042
0.0392694
0.0397564
0.0408222
0.0414315
0.0427643
0.0435324
0.0452146
0.0461988
0.048363
0.049647
0.0524688
0.0541668
0.0583175
0.0303541
0.0303797
0.030415
0.0304413
0.0304665
0.030406
0.03047
0.030429
0.0304185
0.0304709
0.0305051
0.0305556
0.0306365
0.0306805
0.0306911
0.0307874
0.0307182
0.030801
0.0307608
0.0307748
0.0308427
0.0309133
0.0309915
0.031069
0.0311454
0.0312168
0.0313012
0.0313795
0.031465
0.0315531
0.0316452
0.0317497
0.0318748
0.0320119
0.0321735
0.0323411
0.032542
0.0327378
0.0329824
0.0332011
0.0334929
0.0337277
0.0340698
0.0343149
0.0347108
0.0349649
0.0354178
0.0356857
0.0362005
0.0364899
0.0370797
0.0374005
0.0380859
0.0384542
0.0392647
0.039708
0.0406864
0.0412343
0.0424388
0.0431281
0.0446331
0.0455054
0.0474056
0.0485122
0.0509237
0.0523321
0.0553922
0.0572211
0.0615879
0.0310504
0.0309971
0.0310511
0.0309916
0.0310425
0.0310092
0.0310164
0.0310374
0.0310732
0.031121
0.0311853
0.0312659
0.0313708
0.0314421
0.031565
0.0316155
0.0317558
0.0317816
0.0318083
0.0318214
0.0316992
0.0316702
0.0317102
0.031788
0.0318771
0.031968
0.0320633
0.0321622
0.0322687
0.0323826
0.032508
0.0326421
0.0327929
0.0329506
0.0331322
0.0333141
0.0335311
0.0337354
0.0339951
0.0342187
0.0345281
0.0347659
0.0351308
0.0353791
0.0358054
0.0360658
0.0365584
0.0368386
0.0374045
0.0377145
0.0383699
0.038721
0.0394893
0.0399
0.0408131
0.04131
0.0424093
0.0430194
0.044363
0.0451199
0.0467791
0.0477237
0.0497916
0.0509793
0.0535814
0.0550933
0.0584001
0.0603798
0.0651285
0.0319169
0.0319255
0.0319627
0.0319836
0.0319919
0.0319495
0.0319448
0.0319608
0.0319805
0.0320883
0.0320283
0.0321316
0.0320978
0.0321326
0.0322517
0.0323205
0.0324472
0.0325603
0.032644
0.0326639
0.0328353
0.0327328
0.032859
0.0327645
0.0327555
0.0328326
0.0329448
0.0330829
0.0332309
0.0333817
0.0335402
0.033703
0.0338803
0.034061
0.0342653
0.0344662
0.0347037
0.0349236
0.0352036
0.0354405
0.0357722
0.0360217
0.0364137
0.0366731
0.0371345
0.0374075
0.0379452
0.0382425
0.0388651
0.0392001
0.0399251
0.0403105
0.0411635
0.0416171
0.0426314
0.0431786
0.0443951
0.0450639
0.0465417
0.047368
0.0491842
0.0502144
0.0524767
0.0537734
0.0566225
0.0582754
0.0618991
0.0640431
0.06953
0.0326709
0.032764
0.0328369
0.0329239
0.0329942
0.0330111
0.0331159
0.033135
0.0331278
0.0331165
0.0331465
0.0331747
0.0333167
0.0333645
0.0333392
0.0333905
0.0334824
0.0336241
0.0337086
0.0338619
0.0339936
0.0341491
0.0342955
0.0343492
0.0345993
0.0344864
0.0347207
0.0345859
0.0345697
0.0346551
0.034796
0.0349627
0.0351552
0.0353546
0.0355807
0.0358024
0.0360626
0.036303
0.0366064
0.0368633
0.0372207
0.0374893
0.037912
0.0381901
0.0386905
0.0389829
0.0395703
0.0398901
0.0405736
0.0409371
0.0417351
0.0421557
0.0430947
0.0435924
0.0447073
0.045305
0.0466416
0.0473699
0.0489918
0.04989
0.0518842
0.0530057
0.0554877
0.0569031
0.0600275
0.0618361
0.0658008
0.0681682
0.0740279
0.0336264
0.0336949
0.033753
0.0338798
0.0339709
0.0340786
0.0341657
0.0342508
0.0342987
0.0344652
0.0345098
0.0345758
0.0346036
0.0346464
0.03447
0.0345831
0.0345065
0.0345409
0.0346319
0.0347549
0.034871
0.0350067
0.0351235
0.0352303
0.0353553
0.0354618
0.0355904
0.0357197
0.0358678
0.0360335
0.036221
0.0364188
0.0366379
0.0368604
0.03711
0.0373538
0.037637
0.0379004
0.038227
0.0385085
0.0388907
0.0391846
0.0396368
0.0399403
0.0404793
0.0407958
0.0414344
0.0417787
0.0425257
0.042919
0.0437912
0.044249
0.0452769
0.04582
0.0470405
0.047693
0.0491592
0.0499548
0.0517384
0.0527185
0.0549179
0.0561471
0.0588856
0.0604436
0.0638973
0.0658954
0.0702599
0.0729284
0.0788276
0.0348739
0.0349246
0.0348595
0.0349174
0.0350301
0.0351724
0.0353163
0.0354196
0.0355636
0.0356798
0.0358025
0.0359049
0.0360337
0.0361382
0.0361589
0.0363657
0.036419
0.0364919
0.0362629
0.0364974
0.0363557
0.0363399
0.036418
0.0365387
0.0366845
0.0368443
0.0370178
0.0372012
0.0373982
0.0376034
0.0378246
0.0380509
0.0382975
0.038545
0.0388201
0.0390883
0.0393962
0.0396855
0.0400366
0.0403467
0.0407539
0.0410794
0.0415606
0.0418972
0.0424746
0.0428232
0.0435156
0.0438895
0.044708
0.0451334
0.0460906
0.0465898
0.047718
0.0483137
0.0496541
0.0503732
0.0519863
0.0528663
0.0548333
0.055926
0.0583503
0.0597283
0.0627476
0.0645
0.0683349
0.0705679
0.0753796
0.0786542
0.0838996
0.0363085
0.0363858
0.036576
0.0366465
0.0365974
0.0366146
0.0367166
0.0368077
0.0369893
0.0371175
0.0373009
0.0374248
0.0374709
0.0377409
0.0377915
0.0378925
0.0375963
0.0378914
0.0376553
0.0375716
0.0376444
0.0377631
0.0379274
0.0381096
0.0383004
0.0384987
0.0387052
0.03892
0.0391453
0.0393783
0.0396248
0.0398772
0.040148
0.0404216
0.0407206
0.0410163
0.0413483
0.041669
0.0420443
0.0423913
0.0428234
0.043192
0.0437014
0.044086
0.0447007
0.0450975
0.0458448
0.0462617
0.0471585
0.0476244
0.0486791
0.0492284
0.0504729
0.0511315
0.0526129
0.0534142
0.0552006
0.0561862
0.0583709
0.0596006
0.0622792
0.0638932
0.0671376
0.0692897
0.0734161
0.0759983
0.0815512
0.0847836
0.0926195
0.0382491
0.0383635
0.0382806
0.0382643
0.0383345
0.0384017
0.0385527
0.0386556
0.0388432
0.0390597
0.0391979
0.0394257
0.0394862
0.039799
0.0399019
0.0399437
0.0399162
0.040233
0.0403217
0.0404339
0.0400911
0.0403845
0.0401865
0.040161
0.04027
0.040445
0.0406498
0.0408785
0.0411181
0.041375
0.0416404
0.0419217
0.0422137
0.0425205
0.0428422
0.0431753
0.0435313
0.0438956
0.0442951
0.0446937
0.0451484
0.0455789
0.0461104
0.0465672
0.0472087
0.047682
0.0484738
0.0489603
0.0499355
0.0504575
0.0516285
0.0522375
0.0536233
0.0543562
0.056016
0.0569048
0.0589192
0.0600133
0.0624791
0.0638661
0.0668422
0.0687915
0.0721836
0.0750729
0.0791099
0.0827924
0.0884125
0.0923162
0.100735
0.0402065
0.0402879
0.040386
0.0404682
0.0406286
0.0407221
0.0409327
0.0410192
0.0412952
0.0413709
0.041457
0.0414839
0.0417904
0.0418787
0.0419832
0.0416937
0.0419998
0.0418149
0.0417571
0.0418396
0.0419276
0.0420689
0.0422133
0.0423829
0.0425698
0.0427848
0.0430062
0.0432558
0.0435036
0.043784
0.0440573
0.0443682
0.0446698
0.0450126
0.045346
0.0457218
0.0460919
0.0465071
0.0469219
0.0473827
0.0478501
0.0483601
0.0488993
0.0494572
0.0501034
0.0506972
0.0515034
0.0521145
0.0531424
0.0537657
0.0550596
0.0557383
0.057301
0.0581263
0.0599895
0.0609987
0.0632612
0.0645101
0.0672903
0.0688477
0.0722925
0.0743658
0.0784319
0.0815657
0.0861278
0.090798
0.0961904
0.102351
0.110209
0.0431739
0.0433511
0.0434063
0.0433267
0.0433571
0.0434861
0.0436281
0.04387
0.0440493
0.0443537
0.044527
0.044847
0.0449649
0.0453838
0.0454588
0.0455222
0.0449427
0.0451908
0.0448025
0.0446192
0.0446454
0.0447714
0.0449382
0.0451391
0.0453474
0.0455857
0.0458185
0.0460903
0.0463452
0.0466521
0.0469315
0.0472755
0.0475848
0.0479673
0.0483117
0.0487336
0.0491207
0.0495893
0.0500269
0.0505512
0.0510441
0.0516353
0.0521968
0.0528637
0.0535228
0.0542608
0.0550726
0.0558581
0.0569056
0.0577058
0.0590813
0.0598934
0.0616452
0.0625667
0.0646828
0.0658174
0.0683982
0.069807
0.0729873
0.0747557
0.0787378
0.0809952
0.0859812
0.0889683
0.0951811
0.0992671
0.107222
0.112662
0.125629
0.0464067
0.0465633
0.0466189
0.0466681
0.0467909
0.0467673
0.0470838
0.0471269
0.0472429
0.0469349
0.047294
0.0471018
0.0469773
0.0470454
0.0470921
0.0472006
0.0472909
0.0474323
0.0475644
0.0477144
0.047887
0.0480838
0.0482939
0.0485245
0.048759
0.0490193
0.0492738
0.0495662
0.0498411
0.05017
0.0504696
0.050839
0.0511708
0.0515827
0.051954
0.0524097
0.0528327
0.0533384
0.0538236
0.0543883
0.054942
0.0555805
0.0562142
0.0569444
0.0576799
0.0585109
0.0593952
0.0603156
0.0614322
0.062409
0.0638727
0.0648736
0.0667987
0.0678538
0.0702755
0.0715747
0.0745029
0.076125
0.0797703
0.0818198
0.0863587
0.0891283
0.094505
0.0987526
0.104884
0.111356
0.118792
0.128587
0.140362
0.0497344
0.0498557
0.0500801
0.0503571
0.0506239
0.050843
0.0510284
0.0515032
0.0516273
0.0517324
0.0517901
0.0517893
0.0517064
0.0516908
0.051131
0.0514221
0.051154
0.0510795
0.0512335
0.0514369
0.0517162
0.0519757
0.0522621
0.0525377
0.0528252
0.0531023
0.0534027
0.0537018
0.0540274
0.054361
0.0547172
0.055093
0.0554851
0.0559078
0.0563414
0.0568163
0.0573038
0.0578393
0.0583936
0.0589967
0.0596305
0.0603155
0.0610457
0.0618327
0.0626822
0.0635886
0.0646009
0.0656279
0.0668836
0.0680086
0.0696278
0.0708224
0.0729429
0.0742152
0.0769514
0.0784313
0.0818261
0.0836824
0.0879319
0.0902874
0.0956479
0.0986785
0.10559
0.109556
0.118716
0.124344
0.137549
0.146651
0.169891
0.0548395
0.0549653
0.0550656
0.0548645
0.05487
0.0550366
0.0552493
0.0554647
0.0557476
0.0559257
0.056303
0.0564623
0.0569885
0.0571811
0.0572867
0.0572504
0.0571248
0.0576815
0.057821
0.0580072
0.0573736
0.0578722
0.0575112
0.0573787
0.0576021
0.0578442
0.058249
0.0585713
0.0590134
0.0593662
0.0598273
0.0602075
0.0606947
0.0611233
0.0616451
0.0621413
0.0627087
0.0632881
0.0639132
0.0645857
0.0652847
0.0660664
0.0668608
0.0677738
0.0686894
0.0697594
0.0708373
0.0720803
0.0733992
0.0748062
0.0764983
0.0780402
0.0802829
0.0819403
0.0849397
0.0867363
0.0906813
0.0928346
0.0977931
0.100563
0.106888
0.11053
0.118804
0.12394
0.135504
0.143817
0.161411
0.176641
0.213637
0.0601798
0.0601915
0.0602518
0.0603393
0.0605285
0.0607034
0.0610045
0.0612148
0.0615911
0.0618312
0.0622794
0.0624392
0.0631146
0.0632994
0.0635175
0.063007
0.0634805
0.0633022
0.063229
0.0636844
0.0639039
0.0645655
0.0648347
0.0656844
0.0660091
0.0663948
0.0657665
0.0666657
0.0661984
0.0659967
0.0662527
0.0665515
0.0670454
0.067496
0.0680734
0.0686184
0.0692585
0.0698946
0.0706063
0.0713402
0.0721443
0.0729943
0.0739167
0.0749117
0.0759792
0.07716
0.0784088
0.0798178
0.0813138
0.0829801
0.0848384
0.0867746
0.0891681
0.0913703
0.094563
0.0969753
0.101382
0.103959
0.109906
0.113242
0.12087
0.125493
0.13631
0.143505
0.160022
0.173718
0.198765
0.228925
0.266588
0.0664747
0.0666994
0.0670208
0.0673335
0.067727
0.0680539
0.0684977
0.0687923
0.0692817
0.0696274
0.070057
0.0703594
0.0706656
0.0710636
0.0713852
0.0715356
0.0722835
0.0725761
0.0727846
0.072824
0.0727189
0.0736639
0.0738993
0.074246
0.0730266
0.0739387
0.0729947
0.0725093
0.0725737
0.0729046
0.0733592
0.0739344
0.074497
0.0751486
0.0757699
0.0764466
0.0771416
0.0778717
0.0786949
0.0794895
0.0804789
0.081354
0.0825406
0.0835341
0.0849409
0.0861138
0.0877697
0.0891867
0.0911609
0.092862
0.0952886
0.0972979
0.100355
0.102731
0.106641
0.109444
0.114654
0.117855
0.125086
0.129406
0.139363
0.14604
0.161977
0.173371
0.201064
0.221048
0.269945
0.30186
0.37292
0.075604
0.0759083
0.0765163
0.0762876
0.0767756
0.0765303
0.0767738
0.0769805
0.077466
0.0780503
0.0786385
0.079298
0.0799213
0.0804127
0.081023
0.0814312
0.08214
0.0823835
0.0834537
0.0837333
0.0840451
0.0830066
0.0838915
0.0833918
0.0831152
0.0837786
0.0841349
0.0852996
0.0857829
0.0872737
0.087837
0.0884743
0.0873519
0.0887894
0.0880143
0.0874748
0.087634
0.0881557
0.0890007
0.0897943
0.0909712
0.0918692
0.0933331
0.0943542
0.0960953
0.0973474
0.0993371
0.10098
0.103204
0.105387
0.107931
0.110717
0.113841
0.117212
0.12138
0.125318
0.131352
0.135909
0.14541
0.151905
0.167015
0.1784
0.205043
0.224781
0.271979
0.304726
0.38069
0.43093
0.556081
0.0873559
0.0881091
0.0884851
0.0893305
0.0896448
0.0899032
0.0899064
0.0902691
0.0898908
0.0904842
0.0901535
0.0901771
0.0902509
0.0908067
0.091308
0.0919
0.0926459
0.0934139
0.0939165
0.0947244
0.0961148
0.0965635
0.0965896
0.0963669
0.0976844
0.0980687
0.0985583
0.0967276
0.0981668
0.0967543
0.0959131
0.0959032
0.0962947
0.0968237
0.0976001
0.098319
0.0993203
0.100175
0.101372
0.102345
0.103761
0.104869
0.106546
0.107837
0.109814
0.111385
0.113681
0.115688
0.118318
0.120951
0.124
0.127432
0.131198
0.135553
0.140784
0.146283
0.154549
0.162074
0.176719
0.188567
0.215771
0.236875
0.284447
0.319196
0.397235
0.450086
0.564858
0.647756
0.818528
0.100377
0.100579
0.10106
0.101577
0.102411
0.102727
0.104169
0.104744
0.105317
0.105013
0.104659
0.104749
0.104883
0.105377
0.105918
0.107045
0.107752
0.108992
0.109528
0.110837
0.11141
0.112923
0.113346
0.115036
0.11581
0.116258
0.115519
0.114656
0.116413
0.11526
0.11317
0.113524
0.113036
0.113128
0.113767
0.11454
0.115582
0.116608
0.117887
0.119078
0.120622
0.121967
0.123861
0.125387
0.127733
0.129513
0.132403
0.134598
0.138108
0.141013
0.145284
0.149372
0.154852
0.16094
0.16888
0.178575
0.192017
0.208932
0.233478
0.263611
0.306706
0.356154
0.427601
0.499981
0.612402
0.716404
0.872218
1.05578
1.22662
0.121624
0.121879
0.122218
0.12238
0.121586
0.121045
0.121593
0.121955
0.122808
0.12381
0.124152
0.125511
0.126094
0.126739
0.126105
0.127367
0.126981
0.127151
0.127529
0.129311
0.129792
0.131708
0.132419
0.133301
0.132664
0.133623
0.134252
0.131341
0.133314
0.131434
0.130329
0.13045
0.13094
0.131918
0.132856
0.134181
0.135334
0.136898
0.138245
0.140026
0.14165
0.143634
0.145708
0.147879
0.150648
0.153043
0.156782
0.159641
0.164656
0.168619
0.175472
0.181812
0.191915
0.203011
0.219574
0.239934
0.269413
0.305827
0.355331
0.416709
0.492407
0.589933
0.699956
0.847385
1.01816
1.21183
1.49427
1.80942
2.10514
0.143227
0.144319
0.144783
0.146348
0.146924
0.148624
0.149265
0.149834
0.150105
0.149481
0.14912
0.149927
0.150654
0.151648
0.153249
0.154159
0.155772
0.156692
0.158043
0.160306
0.160993
0.161913
0.161836
0.161395
0.163762
0.164374
0.165059
0.160974
0.162907
0.16003
0.158107
0.158305
0.158763
0.160254
0.161288
0.163097
0.164339
0.166369
0.167618
0.169949
0.171376
0.174153
0.176276
0.179691
0.182913
0.187295
0.192254
0.198414
0.206293
0.215939
0.22902
0.24539
0.267628
0.296259
0.334383
0.383568
0.447149
0.523443
0.622376
0.737878
0.882951
1.06144
1.25731
1.55864
1.83064
2.12465
2.21851
2.39367
2.18435
0.175848
0.176616
0.177202
0.177622
0.178336
0.178679
0.179636
0.180044
0.181293
0.181791
0.183425
0.184027
0.186009
0.186656
0.187437
0.185443
0.187364
0.185985
0.185086
0.185629
0.185802
0.186927
0.187319
0.188807
0.189355
0.191245
0.191944
0.194235
0.195093
0.197869
0.198931
0.202282
0.203379
0.207863
0.209834
0.210107
0.215104
0.212442
0.217023
0.215019
0.215986
0.218776
0.223994
0.229753
0.238688
0.248112
0.262424
0.278257
0.301354
0.32865
0.3656
0.411051
0.468355
0.541601
0.628152
0.73943
0.866976
1.0257
1.21306
1.43906
1.73964
2.016
2.28521
2.36928
2.35142
2.24848
1.66139
1.50435
1.53579
0.223101
0.223685
0.224782
0.225272
0.226662
0.227018
0.228703
0.22924
0.231444
0.2326
0.235191
0.235035
0.237157
0.238223
0.23922
0.237466
0.237254
0.23711
0.239043
0.239976
0.242781
0.244029
0.247353
0.248725
0.250227
0.247061
0.250661
0.248046
0.246905
0.247473
0.248995
0.251077
0.253774
0.256878
0.260796
0.265357
0.271076
0.27781
0.286244
0.296321
0.309032
0.324335
0.343792
0.367351
0.397569
0.433651
0.480162
0.535088
0.605186
0.687324
0.787036
0.90306
1.04028
1.20017
1.38041
1.58463
1.8471
2.14325
2.41178
2.62105
2.64178
2.59585
2.40912
1.75715
1.1829
1.14966
1.14341
1.14214
1.153
0.336116
0.337399
0.339006
0.340465
0.342145
0.343732
0.345516
0.347275
0.349173
0.351079
0.353032
0.354625
0.356665
0.358436
0.360687
0.362621
0.365165
0.36744
0.370308
0.372925
0.376163
0.379196
0.3828
0.386419
0.390569
0.395111
0.400111
0.405892
0.412793
0.421527
0.431621
0.443975
0.458228
0.475491
0.495822
0.520781
0.550032
0.584753
0.62536
0.673037
0.728818
0.794093
0.870385
0.958933
1.06172
1.18004
1.316
1.4689
1.64081
1.82741
2.03454
2.25513
2.49688
2.73043
2.97081
3.20977
3.11493
3.0866
2.95085
2.64965
1.77242
1.37861
1.04344
0.895116
0.853847
0.904754
0.948332
0.982428
0.99048
1.24003
1.24933
1.25911
1.26901
1.27938
1.29003
1.30103
1.31256
1.32415
1.33651
1.34902
1.36228
1.37574
1.38983
1.40435
1.41922
1.43469
1.45071
1.46725
1.48438
1.50239
1.52092
1.54047
1.56055
1.58325
1.61169
1.64489
1.68517
1.72965
1.78127
1.83736
1.90103
1.97062
2.04744
2.13196
2.22433
2.32584
2.4367
2.55856
2.69065
2.83506
2.9912
3.15994
3.34351
3.54621
3.76115
3.98307
4.20548
4.41748
4.60751
4.76622
4.87356
4.88448
4.79379
4.60528
3.4933
2.70784
1.87803
1.57394
1.38032
1.26626
1.18936
1.17174
1.15899
1.15236
1.16657
1.18479
1.19548
1.17123
8.442
8.43887
8.43522
8.43094
8.42608
8.42062
8.4145
8.40782
8.40036
8.39235
8.38355
8.37411
8.36391
8.35295
8.34132
8.32876
8.31558
8.3014
8.28662
8.27079
8.25424
8.23685
8.2184
8.19946
8.17913
8.15828
8.13496
8.11155
8.08476
8.05854
8.02801
7.99802
7.96415
7.92834
7.89176
7.85122
7.80696
7.76067
7.71393
7.65589
7.59961
7.53323
7.45913
7.37624
7.28295
7.17683
7.05585
6.91414
6.75962
6.60863
6.48708
6.42507
6.39172
6.36581
6.33548
6.30171
6.26729
6.22609
6.18996
6.15915
6.1314
6.10342
6.07603
6.05303
6.03698
6.02297
6.01327
6.00456
5.99501
0.0284411
0.0284334
0.0284581
0.0284351
0.0284197
0.0283832
0.0283577
0.0283292
0.028308
0.0282847
0.028249
0.0282431
0.0282981
0.0283208
0.0283333
0.0283203
0.0283352
0.0283448
0.0283684
0.0283622
0.028395
0.0284088
0.0284286
0.028433
0.0284485
0.0284379
0.0284681
0.0284857
0.0285483
0.0285406
0.0285414
0.02857
0.0286164
0.0286072
0.0286055
0.0286111
0.0286676
0.0286694
0.0286417
0.0286655
0.0286556
0.0286671
0.0286474
0.0286496
0.0286855
0.0286895
0.0286614
0.0286434
0.0286127
0.0285605
0.0285566
0.028556
0.0285602
0.0285839
0.0285972
0.028622
0.0286513
0.028686
0.0286613
0.0287933
0.0287635
0.0287292
0.0286908
0.028653
0.0286187
0.0285828
0.0285585
0.0285523
0.0285104
0.0284983
0.0285343
0.0285501
0.0285594
0.0285553
0.0285392
0.028564
0.0285739
0.0285812
0.0285841
0.0286219
0.0286381
0.0286526
0.0286641
0.0286705
0.0286623
0.0286976
0.0287211
0.0287798
0.0287756
0.0287888
0.0288076
0.0288732
0.028856
0.0288558
0.0288607
0.0289019
0.0289341
0.0289239
0.0289466
0.0289289
0.028922
0.0289265
0.0289259
0.0289215
0.0289503
0.0289604
0.0289488
0.0289689
0.0289492
0.0289212
0.0289142
0.0289057
0.0288935
0.0288897
0.0288978
0.0289118
0.0289636
0.0289739
0.0291198
0.0290819
0.0290347
0.0289938
0.0289516
0.0289184
0.0288969
0.0288925
0.0288625
0.0288258
0.0288146
0.028843
0.0288578
0.0288366
0.0288156
0.0288383
0.0288511
0.0288596
0.0288685
0.0288822
0.0289104
0.0289254
0.0289382
0.0289524
0.028951
0.0289471
0.0289825
0.0290119
0.0290625
0.0290622
0.0290783
0.0290993
0.0291435
0.0291708
0.0291717
0.0291678
0.0291924
0.0292531
0.0292489
0.0292456
0.0292435
0.0292794
0.0292847
0.0292886
0.0293005
0.0293237
0.0293646
0.0293504
0.0293198
0.0293155
0.0293114
0.0292887
0.0292996
0.0292871
0.02928
0.0292782
0.0293135
0.0293294
0.0293372
0.029477
0.0294356
0.0293896
0.0293508
0.0293065
0.0292732
0.0292365
0.0292088
0.0292036
0.0291867
0.0292051
0.0292059
0.0292127
0.0291832
0.0291804
0.029181
0.0291882
0.0291814
0.0291827
0.0292197
0.0292425
0.0292569
0.0292713
0.0292839
0.0292766
0.0292794
0.0293169
0.0293532
0.0294033
0.0294091
0.0294366
0.0294486
0.0295238
0.0295159
0.0295333
0.0295354
0.0295574
0.0296092
0.0296486
0.0296527
0.0296666
0.0296594
0.029648
0.0296607
0.0296646
0.0296802
0.0297073
0.0297686
0.029783
0.0298389
0.0298507
0.0298335
0.0298305
0.0297864
0.0298023
0.0297681
0.0298073
0.0298193
0.0298233
0.0298766
0.0298244
0.0297583
0.0296961
0.0296649
0.0296486
0.0296209
0.0296286
0.0296391
0.0296321
0.0296547
0.0296155
0.0295884
0.0295659
0.0295599
0.0295737
0.0295833
0.0295974
0.0296141
0.0296402
0.0296602
0.0296729
0.0296861
0.029696
0.0296803
0.0296899
0.0297272
0.0297675
0.0298133
0.029822
0.0298503
0.0298703
0.0299127
0.0299734
0.0299895
0.0299689
0.0299746
0.0300459
0.0301069
0.0300928
0.0300899
0.0301598
0.0301525
0.030155
0.0301726
0.0302267
0.0302193
0.0302296
0.0302368
0.0302473
0.0302885
0.0303531
0.0303586
0.0303922
0.0303481
0.0303328
0.0303041
0.0303074
0.0302949
0.0302963
0.0302538
0.0302138
0.0302419
0.0302335
0.0302348
0.0302104
0.0302251
0.0301858
0.030152
0.0301192
0.0300845
0.0300684
0.0300651
0.0300656
0.03006
0.0300602
0.0300496
0.0300795
0.030103
0.0301226
0.030137
0.0301517
0.0301566
0.0301376
0.0301585
0.0302002
0.0302477
0.0302966
0.0303129
0.0303506
0.030362
0.0304414
0.0304567
0.0304869
0.030531
0.0305154
0.0305352
0.0306156
0.0306844
0.0306627
0.0306719
0.0306675
0.0307003
0.0307501
0.0307686
0.0307475
0.0307652
0.0308411
0.0308731
0.0308926
0.0309328
0.0309931
0.0310367
0.0311166
0.0311317
0.0311358
0.0310459
0.0310647
0.0310321
0.0310012
0.0309696
0.0309498
0.0309149
0.0308852
0.0308412
0.0308039
0.0307618
0.0307269
0.030702
0.0306864
0.0306807
0.0306719
0.0306542
0.0306306
0.0306182
0.0306452
0.030675
0.0306981
0.0307156
0.0307277
0.0307386
0.0307344
0.0307134
0.03074
0.0307813
0.0308319
0.0308793
0.0308977
0.0309419
0.0309625
0.0310081
0.0310877
0.0311329
0.0311175
0.0311536
0.0311762
0.0312388
0.0312702
0.0313649
0.0314171
0.0314074
0.0314141
0.03147
0.0314772
0.0315254
0.0315366
0.0315442
0.0315614
0.0316514
0.0316631
0.031629
0.0316296
0.0316656
0.0317103
0.0317577
0.0317845
0.0318024
0.0318063
0.0317671
0.0317208
0.0316791
0.0316309
0.0315877
0.0315404
0.0315016
0.0314648
0.0314364
0.0314139
0.0313941
0.0313729
0.0313449
0.0313167
0.0313009
0.0313006
0.0313017
0.0313257
0.0313478
0.0313639
0.0313772
0.0313879
0.0313727
0.0313621
0.0314021
0.0314511
0.0315101
0.0315635
0.0315916
0.0316404
0.0316623
0.0317389
0.0317805
0.0318311
0.0319204
0.0319166
0.031896
0.031958
0.032058
0.0320882
0.0321455
0.0321254
0.0321484
0.0321995
0.0322483
0.0322847
0.0323101
0.032396
0.0324272
0.0324714
0.0325616
0.032569
0.0325424
0.0326022
0.0325533
0.0326166
0.0325966
0.0326018
0.0326829
0.032636
0.0325823
0.032535
0.032485
0.0324417
0.032398
0.0323616
0.0323263
0.0322961
0.0322662
0.0322351
0.0322021
0.0321686
0.0321443
0.0321315
0.032125
0.0321444
0.0321684
0.0321874
0.0322006
0.0322142
0.0322048
0.032187
0.0321817
0.032225
0.0322742
0.0323361
0.0323902
0.03242
0.0324873
0.0325041
0.0325624
0.0326501
0.0327209
0.032726
0.0328149
0.0328732
0.0328505
0.0328775
0.033017
0.0330837
0.0332427
0.0332554
0.033255
0.0332034
0.0332475
0.0332577
0.0332582
0.0333542
0.0334808
0.0335603
0.0336292
0.0337438
0.0337764
0.0337647
0.0337587
0.0336238
0.0336644
0.0336966
0.0336458
0.033588
0.0335374
0.0334833
0.0334358
0.0333861
0.0333419
0.0332956
0.0332526
0.033207
0.0331629
0.0331205
0.0330874
0.0330687
0.0330656
0.0330691
0.0330701
0.0330724
0.0330956
0.0331188
0.0331218
0.0331051
0.0330942
0.0331085
0.0331662
0.0332274
0.0333
0.0333622
0.0334051
0.0334648
0.0335195
0.0335697
0.0336562
0.0337051
0.0338405
0.0338401
0.0338875
0.0340243
0.0340183
0.0340505
0.0340586
0.0341637
0.0343257
0.0344452
0.0345987
0.034605
0.0346142
0.0345368
0.0345903
0.0345979
0.0345759
0.0346507
0.0347517
0.0348489
0.0348609
0.0350034
0.0350044
0.0350191
0.034966
0.0349062
0.0348385
0.0347779
0.034713
0.0346547
0.0345936
0.0345377
0.0344804
0.034428
0.0343768
0.0343343
0.0343006
0.0342816
0.0342745
0.0342678
0.0342484
0.0342732
0.034305
0.0343106
0.0343071
0.0342842
0.0342617
0.0342552
0.0342755
0.0343356
0.034398
0.0344755
0.034541
0.0345861
0.034685
0.034696
0.0347883
0.0348615
0.0349851
0.035032
0.0351594
0.0351678
0.0352162
0.035272
0.0353965
0.0355252
0.0355711
0.0356152
0.0356316
0.0357312
0.0358658
0.0359477
0.0361025
0.0361875
0.0362313
0.0363608
0.0363464
0.0363914
0.0363799
0.0363906
0.0363308
0.0363707
0.0363069
0.0363813
0.0363072
0.0362261
0.036154
0.0360781
0.0360113
0.0359423
0.035882
0.0358224
0.0357725
0.035728
0.0356961
0.0356728
0.0356613
0.0356519
0.0356425
0.0356279
0.0356309
0.0356244
0.0356068
0.0355833
0.0355621
0.035555
0.0355661
0.0356126
0.03569
0.0357685
0.0358586
0.0359355
0.035997
0.0360685
0.0361819
0.036197
0.0363351
0.0363572
0.0365348
0.036673
0.0367027
0.0368556
0.0368202
0.0368658
0.0370131
0.0371945
0.0373256
0.0375384
0.0375339
0.0375987
0.0375372
0.0375604
0.037624
0.037667
0.0378108
0.0379028
0.0381601
0.0382314
0.0382567
0.0382211
0.0383916
0.038428
0.0381807
0.0381022
0.0380167
0.0379403
0.0378608
0.0377914
0.037721
0.0376614
0.0376037
0.0375581
0.0375168
0.0374864
0.03746
0.0374389
0.0374172
0.0373941
0.0373674
0.0373454
0.0373124
0.0372792
0.0372518
0.0372285
0.0372237
0.0372398
0.0372895
0.0373702
0.0374522
0.0375534
0.0376365
0.037705
0.0378386
0.037847
0.0379905
0.0380495
0.038264
0.0382465
0.038388
0.0385364
0.0386618
0.0388225
0.0388004
0.0388697
0.0389904
0.0390795
0.0392731
0.0393367
0.0395069
0.0395861
0.0396144
0.0396703
0.0398987
0.039959
0.0400341
0.0399621
0.0400653
0.0400276
0.0400391
0.0400733
0.0401642
0.0402778
0.0401844
0.0400849
0.0399967
0.0399067
0.039829
0.0397516
0.0396862
0.0396231
0.0395705
0.0395198
0.0394772
0.0394332
0.0393927
0.0393473
0.0393008
0.0392513
0.0392042
0.0391605
0.0391296
0.0391045
0.0391013
0.0391212
0.0391661
0.0392477
0.0393509
0.039452
0.0395645
0.0396658
0.0397523
0.0398455
0.0400392
0.0400327
0.0401843
0.0402842
0.0405612
0.0405684
0.0406974
0.0407969
0.0410513
0.041132
0.041163
0.0413099
0.0415636
0.0415045
0.0415307
0.041638
0.0418196
0.0420597
0.0421903
0.0424153
0.0425592
0.042727
0.0427982
0.0429941
0.0430056
0.0432063
0.0432457
0.0432135
0.0429826
0.0428789
0.0427682
0.0426698
0.0425682
0.0424798
0.0423895
0.0423111
0.0422321
0.0421623
0.0420917
0.042026
0.0419575
0.0418905
0.0418199
0.0417534
0.0416902
0.0416389
0.041596
0.0415595
0.0415439
0.0415476
0.0415648
0.0416145
0.0416983
0.0418064
0.0419172
0.0420549
0.0421633
0.0422672
0.0424274
0.0424794
0.0426936
0.0427423
0.0428938
0.0430631
0.0432249
0.0433655
0.0434858
0.0436188
0.0438087
0.0438737
0.0439625
0.0441887
0.044691
0.0447932
0.0447208
0.0446882
0.0447969
0.0448682
0.0450416
0.0451331
0.0452661
0.0453377
0.0454586
0.0455397
0.0457353
0.0458957
0.0460575
0.0461186
0.0459873
0.0458483
0.0457218
0.0455916
0.0454752
0.0453563
0.0452495
0.0451412
0.0450419
0.0449401
0.0448444
0.0447464
0.0446551
0.0445671
0.0444912
0.0444263
0.0443755
0.0443342
0.0443223
0.0443281
0.0443549
0.0444097
0.0445001
0.0446216
0.0447598
0.04489
0.0450308
0.0451746
0.0452995
0.0454422
0.0456788
0.0456872
0.0459425
0.0460635
0.0462351
0.0465479
0.0466125
0.0467035
0.0469402
0.047173
0.0473738
0.0474847
0.0475423
0.047687
0.0479428
0.0481514
0.0482673
0.0484504
0.0485685
0.0486456
0.0487587
0.0489006
0.0492196
0.0493295
0.0496276
0.0497104
0.0496394
0.0495892
0.0501195
0.0499548
0.0497805
0.0496218
0.0494579
0.0493116
0.0491606
0.0490257
0.0488871
0.0487615
0.0486344
0.0485188
0.0484058
0.0483075
0.0482164
0.048143
0.0480804
0.0480325
0.0480068
0.047991
0.0479943
0.0480149
0.0480715
0.0481619
0.0482849
0.0484336
0.0485911
0.0487819
0.048923
0.0490734
0.0492568
0.0494319
0.0496766
0.0496868
0.0499352
0.0501422
0.0502999
0.0506881
0.0509311
0.0508752
0.0509311
0.0511281
0.0513484
0.0517116
0.0523669
0.0525035
0.052389
0.0523699
0.0523985
0.0525363
0.0528764
0.0531569
0.0534765
0.0537604
0.0539963
0.0541741
0.0544073
0.0544292
0.0547396
0.0547616
0.054553
0.054338
0.0541377
0.0539345
0.0537484
0.0535595
0.0533871
0.0532138
0.0530568
0.0529018
0.0527639
0.0526328
0.0525208
0.0524194
0.052341
0.0522758
0.0522391
0.0522161
0.0522275
0.0522547
0.052331
0.0524458
0.0525939
0.0527664
0.052946
0.0531107