/*--------------------------------*- C++ -*----------------------------------*\
| =========                 |                                                 |
| \\      /  F ield         | OpenFOAM: The Open Source CFD Toolbox           |
|  \\    /   O peration     | Version:  2312                                  |
|   \\  /    A nd           | Website:  www.openfoam.com                      |
|    \\/     M anipulation  |                                                 |
\*---------------------------------------------------------------------------*/
FoamFile
{
    version     2.0;
    format      ascii;
    arch        "LSB;label=32;scalar=64";
    class       volScalarField;
    location    "1000";
    object      p;
}
// * * * * * * * * * * * * * * * * * * * * * * * * * * * * * * * * * * * * * //

dimensions      [0 2 -2 0 0 0 0];

internalField   nonuniform List<scalar> 
76025
(
0.00010856
9.80541e-05
8.7316e-05
7.64561e-05
6.57115e-05
5.48103e-05
4.3577e-05
3.27379e-05
2.15764e-05
1.0635e-05
-3.54064e-07
-1.14244e-05
-2.25842e-05
-3.36647e-05
-4.48373e-05
-5.59582e-05
-6.68445e-05
-7.78579e-05
-8.88416e-05
-9.96152e-05
-0.000110244
-0.000121007
-0.000131521
-0.000141788
-0.000152007
-0.000161982
-0.000172093
-0.000182051
-0.000191409
-0.000201052
-0.000210051
-0.000218903
-0.000227921
-0.000236724
-0.000245075
-0.00025301
-0.000260435
-0.000268343
-0.000275822
-0.000282997
-0.000289649
-0.000296026
-0.000302905
-0.000309303
-0.000315243
-0.000320672
-0.000326206
-0.00033157
-0.00033606
-0.000340488
-0.000344903
-0.000348814
-0.00035275
-0.000356848
-0.000360626
-0.000363127
-0.000366509
-0.000369019
-0.000371572
-0.000374134
-0.000376501
-0.000378673
-0.000381351
-0.000384308
-0.00038697
-0.000389043
-0.000392268
-0.000397107
-0.000401661
0.000102983
9.19393e-05
8.07896e-05
6.94693e-05
5.80596e-05
4.65803e-05
3.50957e-05
2.3604e-05
1.20501e-05
4.9104e-07
-1.11109e-05
-2.27369e-05
-3.43745e-05
-4.59965e-05
-5.75316e-05
-6.90016e-05
-8.04789e-05
-9.18605e-05
-0.000103243
-0.000114457
-0.000125634
-0.000136659
-0.000147543
-0.000158249
-0.000168865
-0.000179383
-0.000189746
-0.000199816
-0.000209648
-0.000219308
-0.000228773
-0.000238223
-0.000247417
-0.000256253
-0.000264831
-0.000273094
-0.000281135
-0.000289004
-0.000296623
-0.000304028
-0.00031108
-0.000317941
-0.000324637
-0.00033099
-0.000337061
-0.000342843
-0.000348453
-0.000353773
-0.000358734
-0.000363535
-0.00036819
-0.000372561
-0.000376795
-0.000380907
-0.000384708
-0.000388118
-0.000391605
-0.000394798
-0.000397785
-0.000400659
-0.000403691
-0.0004068
-0.00040984
-0.000413104
-0.000416438
-0.00041992
-0.000423998
-0.000429071
-0.000433887
9.6984e-05
8.54349e-05
7.37604e-05
6.18904e-05
4.99169e-05
3.79441e-05
2.59583e-05
1.39268e-05
1.8554e-06
-1.02586e-05
-2.23922e-05
-3.45215e-05
-4.66353e-05
-5.87116e-05
-7.07214e-05
-8.26961e-05
-9.462e-05
-0.000106477
-0.000118251
-0.000129932
-0.000141496
-0.00015292
-0.000164211
-0.000175359
-0.000186364
-0.000197213
-0.000207846
-0.000218258
-0.000228469
-0.000238474
-0.000248318
-0.000257964
-0.000267317
-0.000276383
-0.000285189
-0.00029373
-0.000302008
-0.000310037
-0.000317839
-0.000325389
-0.000332652
-0.000339661
-0.000346454
-0.000353028
-0.000359353
-0.000365406
-0.000371211
-0.000376773
-0.00038207
-0.000387129
-0.000391989
-0.000396637
-0.000401107
-0.000405424
-0.000409555
-0.000413455
-0.000417232
-0.000420877
-0.000424393
-0.000427881
-0.000431437
-0.000435069
-0.000438773
-0.000442702
-0.000446863
-0.000451313
-0.000456164
-0.00046201
-0.000467555
9.06767e-05
7.85818e-05
6.63511e-05
5.39251e-05
4.14119e-05
2.88851e-05
1.63415e-05
3.76226e-06
-8.85087e-06
-2.14893e-05
-3.41358e-05
-4.67743e-05
-5.93914e-05
-7.19741e-05
-8.45091e-05
-9.69894e-05
-0.000109402
-0.000121735
-0.000133972
-0.000146101
-0.000158104
-0.000169972
-0.000181694
-0.000193254
-0.000204639
-0.000215837
-0.000226835
-0.000237625
-0.000248197
-0.000258547
-0.000268671
-0.000278549
-0.000288165
-0.000297512
-0.000306592
-0.000315404
-0.000323943
-0.000332217
-0.000340232
-0.000347978
-0.000355454
-0.000362681
-0.000369684
-0.000376458
-0.000382975
-0.000389227
-0.000395226
-0.000400983
-0.000406495
-0.000411782
-0.000416876
-0.000421789
-0.000426535
-0.00043113
-0.000435574
-0.000439859
-0.000444029
-0.000448119
-0.000452147
-0.000456171
-0.000460266
-0.000464482
-0.000468849
-0.000473454
-0.000478355
-0.000483662
-0.000489395
-0.000496107
-0.000502463
8.37494e-05
7.10724e-05
5.82626e-05
4.52547e-05
3.21602e-05
1.90505e-05
5.92711e-06
-7.22648e-06
-2.04119e-05
-3.36164e-05
-4.68227e-05
-6.00148e-05
-7.31792e-05
-8.63042e-05
-9.93765e-05
-0.000112382
-0.000125309
-0.000138142
-0.000150868
-0.000163473
-0.000175942
-0.000188261
-0.000200416
-0.000212393
-0.000224179
-0.000235766
-0.000247142
-0.000258293
-0.000269208
-0.000279879
-0.000290299
-0.000300461
-0.000310357
-0.000319977
-0.000329317
-0.000338373
-0.000347144
-0.000355629
-0.000363832
-0.000371757
-0.000379414
-0.000386821
-0.00039399
-0.000400921
-0.000407603
-0.000414034
-0.00042022
-0.000426173
-0.000431902
-0.000437424
-0.000442764
-0.000447937
-0.000452958
-0.000457843
-0.000462606
-0.000467259
-0.000471831
-0.000476357
-0.00048087
-0.000485419
-0.000490067
-0.00049487
-0.00049988
-0.000505174
-0.000510828
-0.000516969
-0.000523602
-0.000531296
-0.000538907
7.60838e-05
6.279e-05
4.93635e-05
3.57338e-05
2.20167e-05
8.28928e-06
-5.4462e-06
-1.92072e-05
-3.29962e-05
-4.67997e-05
-6.05984e-05
-7.43751e-05
-8.81154e-05
-0.000101807
-0.000115435
-0.000128985
-0.000142444
-0.000155795
-0.000169024
-0.000182116
-0.000195057
-0.000207832
-0.000220426
-0.000232826
-0.000245021
-0.000256997
-0.000268743
-0.000280246
-0.000291495
-0.000302483
-0.000313202
-0.000323646
-0.000333806
-0.000343675
-0.000353249
-0.000362525
-0.000371502
-0.00038018
-0.000388565
-0.000396665
-0.000404494
-0.000412068
-0.000419401
-0.000426496
-0.000433349
-0.000439958
-0.000446331
-0.000452479
-0.000458417
-0.000464163
-0.000469737
-0.000475161
-0.000480453
-0.000485631
-0.000490717
-0.000495731
-0.0005007
-0.00050566
-0.000510649
-0.000515714
-0.000520913
-0.000526304
-0.000531949
-0.000537929
-0.000544322
-0.000551268
-0.000558771
-0.000567426
-0.000576168
6.7645e-05
5.37006e-05
3.96211e-05
2.53327e-05
1.09573e-05
-3.42306e-06
-1.78053e-05
-3.22071e-05
-4.66311e-05
-6.10629e-05
-7.54819e-05
-8.98695e-05
-0.000104211
-0.000118491
-0.000132697
-0.000146812
-0.00016082
-0.000174706
-0.000188454
-0.000202049
-0.000215475
-0.000228718
-0.000241762
-0.000254595
-0.000267202
-0.000279571
-0.000291689
-0.000303546
-0.00031513
-0.000326433
-0.000337448
-0.000348167
-0.000358585
-0.000368696
-0.000378496
-0.000387985
-0.000397162
-0.00040603
-0.000414593
-0.000422863
-0.000430854
-0.000438584
-0.00044607
-0.000453316
-0.000460322
-0.00046709
-0.00047363
-0.000479955
-0.000486084
-0.000492036
-0.000497833
-0.0005035
-0.000509057
-0.000514528
-0.000519935
-0.000525305
-0.000530666
-0.000536055
-0.000541513
-0.000547085
-0.000552827
-0.0005588
-0.000565071
-0.000571722
-0.000578833
-0.000586555
-0.000594877
-0.000604414
-0.000613977
5.83467e-05
4.37141e-05
2.8945e-05
1.3962e-05
-1.1076e-06
-1.61768e-05
-3.12415e-05
-4.63198e-05
-6.14141e-05
-7.65087e-05
-9.15815e-05
-0.000106612
-0.000121584
-0.000136483
-0.000151293
-0.000165998
-0.000180581
-0.000195026
-0.000209314
-0.000223431
-0.000237361
-0.000251087
-0.000264595
-0.00027787
-0.000290899
-0.000303666
-0.000316162
-0.000328374
-0.000340292
-0.000351907
-0.000363213
-0.000374201
-0.000384869
-0.00039521
-0.000405225
-0.000414912
-0.000424272
-0.000433309
-0.000442031
-0.000450448
-0.000458577
-0.00046644
-0.000474054
-0.000481427
-0.000488564
-0.00049547
-0.000502157
-0.000508642
-0.000514947
-0.000521092
-0.000527103
-0.000533005
-0.000538822
-0.000544579
-0.000550304
-0.000556024
-0.000561772
-0.000567583
-0.000573499
-0.000579568
-0.000585844
-0.000592388
-0.000599269
-0.000606572
-0.000614381
-0.000622845
-0.000631957
-0.000642292
-0.000652729
4.80581e-05
3.26944e-05
1.71947e-05
1.47632e-06
-1.43275e-05
-3.01248e-05
-4.59107e-05
-6.17041e-05
-7.75069e-05
-9.33021e-05
-0.000109065
-0.000124775
-0.000140412
-0.000155962
-0.000171407
-0.000186731
-0.000201915
-0.000216942
-0.000231794
-0.000246453
-0.000260903
-0.000275127
-0.00028911
-0.000302836
-0.000316291
-0.000329461
-0.000342334
-0.000354899
-0.000367145
-0.000379063
-0.000390648
-0.000401892
-0.000412792
-0.000423346
-0.000433554
-0.000443415
-0.000452933
-0.000462115
-0.000470968
-0.000479506
-0.000487748
-0.000495718
-0.000503435
-0.000510913
-0.000518157
-0.000525179
-0.000531993
-0.00053862
-0.000545081
-0.000551404
-0.000557613
-0.000563737
-0.000569802
-0.000575836
-0.000581869
-0.000587931
-0.000594055
-0.000600279
-0.000606644
-0.000613198
-0.000619994
-0.000627093
-0.000634564
-0.000642495
-0.000650972
-0.000660151
-0.000670044
-0.00068117
-0.000692531
3.66428e-05
2.05013e-05
4.22508e-06
-1.22737e-05
-2.88562e-05
-4.54249e-05
-6.1974e-05
-7.85232e-05
-9.50743e-05
-0.000111609
-0.000128101
-0.000144526
-0.000160864
-0.000177097
-0.00019321
-0.000209182
-0.000224995
-0.00024063
-0.000256066
-0.000271286
-0.000286273
-0.000301009
-0.000315477
-0.000329661
-0.000343547
-0.00035712
-0.000370368
-0.000383279
-0.000395844
-0.000408054
-0.000419903
-0.000431386
-0.0004425
-0.000453244
-0.00046362
-0.000473629
-0.000483279
-0.000492576
-0.000501531
-0.00051016
-0.000518484
-0.000526529
-0.00053432
-0.00054187
-0.000549193
-0.000556302
-0.000563216
-0.000569957
-0.000576552
-0.000583029
-0.000589417
-0.000595745
-0.000602043
-0.00060834
-0.000614669
-0.000621062
-0.000627552
-0.000634177
-0.00064098
-0.000648006
-0.000655307
-0.000662943
-0.00067098
-0.000679506
-0.000688605
-0.000698446
-0.000709051
-0.000721089
-0.000733644
2.39563e-05
6.98729e-06
-1.01143e-05
-2.74422e-05
-4.48513e-05
-6.22381e-05
-7.95957e-05
-9.69444e-05
-0.000114286
-0.000131601
-0.000148861
-0.00016604
-0.000183116
-0.00020007
-0.000216882
-0.000233534
-0.000250005
-0.000266273
-0.000282317
-0.00029812
-0.000313661
-0.000328922
-0.000343886
-0.000358536
-0.000372857
-0.000386833
-0.000400453
-0.000413704
-0.000426577
-0.000439065
-0.000451161
-0.000462861
-0.000474165
-0.000485073
-0.000495587
-0.000505714
-0.00051546
-0.000524837
-0.000533857
-0.000542538
-0.000550904
-0.000558986
-0.000566809
-0.000574395
-0.000581758
-0.000588918
-0.000595897
-0.000602721
-0.000609419
-0.000616024
-0.000622565
-0.000629076
-0.000635588
-0.000642132
-0.000648742
-0.000655451
-0.000662295
-0.000669311
-0.000676539
-0.000684025
-0.000691817
-0.000699972
-0.000708551
-0.000717636
-0.0007273
-0.000737712
-0.000748876
-0.000761613
-0.000774803
9.82702e-06
-8.02234e-06
-2.60016e-05
-4.42107e-05
-6.24978e-05
-8.0753e-05
-9.8968e-05
-0.000117164
-0.000135342
-0.000153483
-0.000171555
-0.000189529
-0.000207381
-0.000225092
-0.00024264
-0.000260005
-0.000277163
-0.000294092
-0.00031077
-0.000327176
-0.000343289
-0.000359091
-0.000374562
-0.000389685
-0.000404443
-0.000418821
-0.000432807
-0.000446388
-0.000459556
-0.000472303
-0.000484623
-0.000496515
-0.000507978
-0.000519016
-0.000529632
-0.000539835
-0.000549636
-0.000559048
-0.000568085
-0.000576769
-0.000585129
-0.000593198
-0.000601006
-0.000608579
-0.000615937
-0.000623104
-0.000630106
-0.000636974
-0.000643741
-0.00065044
-0.000657106
-0.000663773
-0.000670475
-0.000677246
-0.00068412
-0.000691132
-0.000698316
-0.000705711
-0.000713356
-0.000721292
-0.000729565
-0.000738225
-0.000747326
-0.000756936
-0.000767117
-0.000778015
-0.000789613
-0.000802597
-0.000815365
-5.94632e-06
-2.47337e-05
-4.36477e-05
-6.27945e-05
-8.20155e-05
-0.000101194
-0.00012032
-0.000139414
-0.00015848
-0.000177495
-0.000196425
-0.000215239
-0.000233911
-0.000252418
-0.00027074
-0.000288851
-0.000306728
-0.000324347
-0.000341683
-0.000358714
-0.000375418
-0.000391773
-0.000407761
-0.000423361
-0.000438557
-0.000453333
-0.000467676
-0.000481573
-0.000495016
-0.000507998
-0.000520514
-0.000532564
-0.000544149
-0.000555274
-0.000565946
-0.000576176
-0.000585979
-0.00059537
-0.000604366
-0.000612995
-0.000621287
-0.000629283
-0.000637017
-0.00064452
-0.000651817
-0.000658937
-0.000665913
-0.000672778
-0.00067957
-0.000686326
-0.000693081
-0.000699875
-0.000706741
-0.000713716
-0.000720835
-0.000728133
-0.000735647
-0.000743412
-0.000751467
-0.00075985
-0.0007686
-0.000777758
-0.000787367
-0.000797477
-0.00080814
-0.000819476
-0.000831469
-0.000844588
-0.000857838
-2.35962e-05
-4.33846e-05
-6.32956e-05
-8.34424e-05
-0.000103659
-0.00012382
-0.000143914
-0.000163965
-0.000183973
-0.000203914
-0.000223753
-0.000243456
-0.000262993
-0.000282341
-0.000301474
-0.000320369
-0.000338999
-0.000357336
-0.000375356
-0.000393033
-0.000410343
-0.000427265
-0.000443776
-0.000459856
-0.000475487
-0.000490653
-0.000505338
-0.000519532
-0.000533225
-0.00054641
-0.000559086
-0.000571251
-0.00058291
-0.00059407
-0.00060474
-0.000614936
-0.000624676
-0.000633976
-0.000642861
-0.00065136
-0.000659512
-0.000667362
-0.00067495
-0.000682313
-0.000689482
-0.000696494
-0.000703384
-0.000710192
-0.000716959
-0.000723726
-0.000730531
-0.000737416
-0.000744417
-0.000751571
-0.000758916
-0.000766486
-0.00077432
-0.000782451
-0.000790916
-0.000799749
-0.000808983
-0.000818644
-0.000828761
-0.00083937
-0.000850491
-0.000862201
-0.000874428
-0.000887768
-0.000901042
-4.33947e-05
-6.42526e-05
-8.52288e-05
-0.000106443
-0.000127721
-0.000148931
-0.000170058
-0.000191125
-0.000212135
-0.000233061
-0.000253865
-0.00027451
-0.000294963
-0.000315198
-0.000335188
-0.000354906
-0.000374323
-0.000393411
-0.000412141
-0.000430486
-0.000448421
-0.000465919
-0.00048296
-0.00049952
-0.000515579
-0.000531121
-0.00054613
-0.000560594
-0.000574504
-0.000587854
-0.000600642
-0.00061287
-0.000624544
-0.000635673
-0.000646271
-0.000656357
-0.000665953
-0.000675078
-0.000683762
-0.000692042
-0.000699964
-0.000707579
-0.000714933
-0.000722071
-0.000729032
-0.000735857
-0.000742591
-0.000749277
-0.00075596
-0.000762685
-0.000769496
-0.000776432
-0.000783534
-0.000790841
-0.000798391
-0.000806221
-0.000814367
-0.000822864
-0.000831748
-0.000841046
-0.000850781
-0.000860972
-0.000871635
-0.000882769
-0.000894348
-0.000906374
-0.000918742
-0.000931722
-0.000944769
-6.56567e-05
-8.76587e-05
-0.000109774
-0.00013213
-0.000154543
-0.000176871
-0.0001991
-0.000221251
-0.000243328
-0.000265303
-0.000287133
-0.000308777
-0.000330201
-0.000351374
-0.000372268
-0.000392853
-0.000413098
-0.00043297
-0.000452439
-0.000471475
-0.00049005
-0.000508137
-0.00052571
-0.000542746
-0.000559224
-0.000575124
-0.000590431
-0.000605131
-0.000619215
-0.000632679
-0.000645522
-0.000657746
-0.00066936
-0.000680377
-0.000690815
-0.000700697
-0.000710047
-0.000718892
-0.000727266
-0.000735217
-0.000742799
-0.00075007
-0.000757086
-0.000763898
-0.000770554
-0.000777104
-0.000783598
-0.000790087
-0.000796619
-0.000803244
-0.000810006
-0.00081695
-0.000824118
-0.000831549
-0.000839283
-0.000847359
-0.000855814
-0.000864684
-0.000874001
-0.00088379
-0.000894072
-0.000904858
-0.000916132
-0.000927853
-0.000939957
-0.000952376
-0.00096491
-0.000977443
-0.000989111
-9.07539e-05
-0.000113982
-0.000137318
-0.000160896
-0.000184523
-0.00020805
-0.000231456
-0.000254766
-0.000277983
-0.000301076
-0.000324
-0.000346709
-0.000369165
-0.000391335
-0.000413186
-0.000434687
-0.000455802
-0.000476497
-0.000496737
-0.000516491
-0.000535726
-0.000554412
-0.000572523
-0.000590032
-0.000606915
-0.000623151
-0.000638724
-0.00065362
-0.000667829
-0.000681346
-0.000694172
-0.000706312
-0.000717777
-0.000728583
-0.000738753
-0.000748314
-0.000757295
-0.000765727
-0.000773658
-0.000781142
-0.000788246
-0.000795037
-0.000801582
-0.000807941
-0.000814172
-0.000820335
-0.000826487
-0.000832685
-0.000838984
-0.000845437
-0.000852091
-0.000858991
-0.000866182
-0.000873704
-0.000881599
-0.000889907
-0.000898667
-0.000907918
-0.000917693
-0.000928024
-0.000938927
-0.000950389
-0.000962373
-0.000974824
-0.000987631
-0.00100063
-0.00101352
-0.00102621
-0.00103807
-0.000119109
-0.000143652
-0.000168296
-0.000193184
-0.000218113
-0.000242922
-0.000267588
-0.000292138
-0.000316573
-0.00034086
-0.000364951
-0.000388794
-0.000412349
-0.000435576
-0.000458443
-0.000480911
-0.000502943
-0.000524501
-0.000545547
-0.000566043
-0.000585956
-0.000605253
-0.000623901
-0.000641873
-0.000659142
-0.000675685
-0.000691483
-0.000706521
-0.000720789
-0.000734282
-0.000747003
-0.000758957
-0.000770159
-0.000780629
-0.000790395
-0.00079949
-0.000807946
-0.000815806
-0.000823128
-0.000829981
-0.000836443
-0.000842596
-0.000848514
-0.000854273
-0.000859941
-0.000865588
-0.000871281
-0.000877086
-0.000883061
-0.000889262
-0.00089574
-0.000902541
-0.000909709
-0.000917285
-0.000925312
-0.000933833
-0.000942892
-0.000952535
-0.000962809
-0.000973742
-0.000985339
-0.000997595
-0.00101048
-0.0010239
-0.00103767
-0.00105156
-0.00106524
-0.00107848
-0.00109061
-0.000151252
-0.00017721
-0.000203262
-0.000229559
-0.000255889
-0.000282078
-0.000308101
-0.000333982
-0.000359725
-0.000385295
-0.000410639
-0.000435699
-0.00046043
-0.00048479
-0.00050874
-0.000532239
-0.000555246
-0.000577717
-0.00059961
-0.000620885
-0.000641503
-0.000661425
-0.000680618
-0.000699048
-0.000716686
-0.000733505
-0.000749485
-0.000764609
-0.000778864
-0.000792247
-0.000804759
-0.000816408
-0.000827213
-0.000837198
-0.000846397
-0.000854845
-0.000862582
-0.000869666
-0.000876167
-0.000882172
-0.000887774
-0.000893069
-0.000898151
-0.000903106
-0.000908022
-0.000912982
-0.000918062
-0.000923337
-0.000928871
-0.000934723
-0.000940944
-0.000947578
-0.000954667
-0.000962251
-0.000970371
-0.000979078
-0.000988427
-0.000998473
-0.00100927
-0.00102085
-0.00103325
-0.00104649
-0.00106052
-0.00107524
-0.00109045
-0.00110588
-0.00112116
-0.00113567
-0.00114874
-0.000187723
-0.000215199
-0.00024276
-0.000270569
-0.000298401
-0.000326069
-0.000353543
-0.00038085
-0.000407993
-0.000434934
-0.000461614
-0.000487973
-0.000513958
-0.000539522
-0.000564621
-0.000589212
-0.000613246
-0.000636676
-0.000659455
-0.000681535
-0.000702874
-0.000723428
-0.000743158
-0.000762026
-0.000779999
-0.000797046
-0.000813143
-0.00082827
-0.000842414
-0.000855568
-0.000867736
-0.000878928
-0.000889162
-0.000898471
-0.000906892
-0.000914466
-0.000921248
-0.000927311
-0.000932744
-0.000937654
-0.000942154
-0.00094636
-0.000950381
-0.000954327
-0.000958302
-0.000962404
-0.000966724
-0.000971344
-0.000976332
-0.000981748
-0.00098764
-0.000994045
-0.001001
-0.00100854
-0.00101672
-0.00102558
-0.00103518
-0.00104561
-0.00105693
-0.00106923
-0.00108259
-0.00109702
-0.00111255
-0.00112909
-0.0011465
-0.00116453
-0.00118267
-0.00119939
-0.00121442
-0.000229391
-0.000258518
-0.000287726
-0.000317183
-0.000346651
-0.000375932
-0.000404989
-0.000433851
-0.00046252
-0.000490956
-0.000519095
-0.000546869
-0.000574219
-0.000601093
-0.000627443
-0.000653218
-0.000678366
-0.000702833
-0.000726566
-0.000749511
-0.000771618
-0.000792839
-0.000813127
-0.000832439
-0.000850736
-0.00086798
-0.000884143
-0.000899201
-0.000913137
-0.000925944
-0.000937623
-0.000948186
-0.000957657
-0.000966069
-0.000973462
-0.000979884
-0.000985404
-0.000990113
-0.000994124
-0.000997568
-0.00100058
-0.00100331
-0.00100589
-0.00100847
-0.00101117
-0.00101412
-0.00101743
-0.00102119
-0.00102547
-0.00103033
-0.00103579
-0.00104189
-0.00104865
-0.00105609
-0.00106426
-0.00107321
-0.00108302
-0.00109381
-0.0011057
-0.00111879
-0.00113324
-0.00114914
-0.00116661
-0.00118573
-0.00120641
-0.00122823
-0.00125037
-0.00127032
-0.00128815
-0.000276649
-0.000307527
-0.000338473
-0.000369672
-0.000400874
-0.000431862
-0.000462597
-0.000493104
-0.000523389
-0.000553407
-0.000583089
-0.00061236
-0.000641154
-0.000669412
-0.000697079
-0.000724098
-0.00075041
-0.000775955
-0.000800672
-0.000824499
-0.000847379
-0.000869257
-0.000890079
-0.000909793
-0.000928353
-0.000945716
-0.000961844
-0.000976708
-0.000990285
-0.00100256
-0.00101354
-0.00102323
-0.00103165
-0.00103885
-0.00104488
-0.00104979
-0.00105368
-0.00105667
-0.0010589
-0.00106054
-0.00106174
-0.00106269
-0.00106355
-0.00106449
-0.00106569
-0.0010673
-0.00106944
-0.00107224
-0.00107575
-0.00108002
-0.00108505
-0.00109084
-0.00109739
-0.00110471
-0.00111284
-0.00112186
-0.00113187
-0.00114303
-0.00115548
-0.00116943
-0.00118512
-0.00120285
-0.00122283
-0.00124518
-0.00126962
-0.00129535
-0.0013209
-0.00134363
-0.00136122
-0.000331777
-0.000364626
-0.000397554
-0.000430732
-0.000463895
-0.000496817
-0.000529449
-0.000561818
-0.000593927
-0.000625733
-0.000657159
-0.000688123
-0.00071855
-0.000748375
-0.000777535
-0.000805968
-0.000833606
-0.00086038
-0.000886221
-0.000911058
-0.000934823
-0.000957451
-0.000978878
-0.000999044
-0.00101789
-0.00103537
-0.00105144
-0.00106605
-0.00107918
-0.0010908
-0.00110092
-0.00110954
-0.00111667
-0.00112235
-0.00112663
-0.00112957
-0.0011313
-0.00113195
-0.0011317
-0.00113077
-0.00112936
-0.0011277
-0.00112604
-0.00112459
-0.00112358
-0.00112322
-0.00112368
-0.00112509
-0.00112754
-0.00113103
-0.00113553
-0.00114096
-0.00114726
-0.00115443
-0.00116251
-0.00117158
-0.00118176
-0.00119328
-0.00120636
-0.00122131
-0.00123843
-0.00125798
-0.0012801
-0.00130476
-0.00133123
-0.00135796
-0.00138238
-0.00140158
-0.00141026
-0.000392499
-0.000427357
-0.000462247
-0.000497408
-0.00053256
-0.000567448
-0.000602015
-0.000636288
-0.000670269
-0.000703909
-0.000737126
-0.000769827
-0.000801929
-0.000833355
-0.000864037
-0.000893903
-0.000922877
-0.000950881
-0.000977835
-0.00100366
-0.00102827
-0.0010516
-0.00107357
-0.00109409
-0.00111311
-0.00113055
-0.00114637
-0.0011605
-0.0011729
-0.00118356
-0.00119245
-0.00119957
-0.00120496
-0.00120864
-0.00121069
-0.0012112
-0.00121033
-0.00120824
-0.00120517
-0.00120134
-0.00119703
-0.00119254
-0.00118815
-0.00118418
-0.00118091
-0.0011786
-0.00117749
-0.0011777
-0.00117931
-0.00118229
-0.00118651
-0.00119181
-0.00119803
-0.00120513
-0.00121318
-0.00122238
-0.00123297
-0.00124507
-0.00125874
-0.00127414
-0.00129147
-0.00131069
-0.00133169
-0.00135437
-0.0013775
-0.0013989
-0.00141681
-0.00142869
-0.00143196
-0.000469209
-0.000506416
-0.000543764
-0.000581357
-0.000618906
-0.000656156
-0.000693047
-0.000729605
-0.000765834
-0.000801686
-0.000837069
-0.000871881
-0.000906029
-0.000939425
-0.000971991
-0.00100364
-0.0010343
-0.00106386
-0.00109225
-0.00111935
-0.00114509
-0.00116937
-0.0011921
-0.0012132
-0.00123257
-0.00125014
-0.00126581
-0.00127953
-0.00129123
-0.00130087
-0.0013084
-0.00131378
-0.00131702
-0.00131812
-0.00131714
-0.0013142
-0.00130945
-0.00130315
-0.00129555
-0.001287
-0.00127786
-0.00126854
-0.00125947
-0.00125111
-0.0012439
-0.00123826
-0.00123451
-0.00123286
-0.0012333
-0.00123564
-0.00123958
-0.00124478
-0.00125093
-0.00125784
-0.00126565
-0.00127475
-0.00128538
-0.00129714
-0.00130944
-0.00132221
-0.00133572
-0.00134937
-0.00136277
-0.00137726
-0.00139306
-0.00140867
-0.00142367
-0.00143614
-0.00144273
-0.000542716
-0.000582446
-0.000622033
-0.000661923
-0.000701802
-0.000741355
-0.000780496
-0.000819255
-0.000857641
-0.000895604
-0.000933049
-0.000969864
-0.00100594
-0.00104119
-0.00107552
-0.00110884
-0.00114105
-0.00117204
-0.00120172
-0.00122996
-0.00125666
-0.0012817
-0.00130499
-0.00132642
-0.00134589
-0.00136328
-0.0013785
-0.00139144
-0.00140204
-0.00141025
-0.00141603
-0.00141935
-0.00142018
-0.00141854
-0.00141447
-0.00140807
-0.0013995
-0.00138903
-0.00137698
-0.00136377
-0.00134987
-0.00133583
-0.00132226
-0.00130983
-0.00129921
-0.00129103
-0.00128581
-0.0012838
-0.0012849
-0.0012886
-0.00129406
-0.00130032
-0.00130655
-0.00131239
-0.00131818
-0.00132483
-0.00133283
-0.00134084
-0.00134704
-0.00135168
-0.00135671
-0.00136212
-0.00136784
-0.00137674
-0.00138938
-0.0014032
-0.00141539
-0.00142627
-0.00143743
-0.000659876
-0.000701999
-0.000744641
-0.000787587
-0.000830485
-0.000873055
-0.000915209
-0.000956962
-0.000998313
-0.0010392
-0.00107953
-0.00111916
-0.00115799
-0.00119589
-0.00123278
-0.00126853
-0.00130305
-0.0013362
-0.00136787
-0.00139793
-0.00142624
-0.00145268
-0.00147712
-0.00149942
-0.00151947
-0.00153711
-0.00155218
-0.00156448
-0.00157384
-0.00158011
-0.00158319
-0.00158308
-0.00157978
-0.00157331
-0.00156376
-0.00155123
-0.00153593
-0.00151812
-0.00149818
-0.00147655
-0.00145383
-0.00143071
-0.00140807
-0.00138689
-0.00136825
-0.00135322
-0.00134273
-0.00133746
-0.00133754
-0.0013422
-0.00134956
-0.00135689
-0.0013619
-0.00136365
-0.00136281
-0.00136143
-0.00136157
-0.00136215
-0.00136081
-0.0013586
-0.00135908
-0.00136299
-0.00136843
-0.00137382
-0.00137924
-0.00138556
-0.0013935
-0.00140415
-0.00141979
-0.000736713
-0.000782097
-0.000826784
-0.000871983
-0.000917299
-0.000962255
-0.00100674
-0.00105082
-0.00109449
-0.00113767
-0.00118026
-0.00122211
-0.00126309
-0.00130309
-0.001342
-0.00137968
-0.00141603
-0.00145089
-0.00148411
-0.00151555
-0.00154507
-0.00157252
-0.00159774
-0.00162063
-0.00164112
-0.00165917
-0.00167464
-0.00168733
-0.00169696
-0.00170318
-0.00170567
-0.00170424
-0.0016988
-0.00168932
-0.00167581
-0.00165832
-0.00163701
-0.00161207
-0.00158386
-0.00155288
-0.00151989
-0.00148589
-0.00145217
-0.0014203
-0.00139205
-0.00136925
-0.00135355
-0.00134616
-0.00134735
-0.00135589
-0.00136846
-0.00137974
-0.00138582
-0.00138554
-0.00138018
-0.00137312
-0.00136844
-0.00136704
-0.00136718
-0.00136685
-0.00136583
-0.00136525
-0.00136539
-0.0013658
-0.0013667
-0.00136896
-0.00137408
-0.00138382
-0.00139955
-0.000920021
-0.000968793
-0.00101878
-0.00106887
-0.00111853
-0.00116762
-0.00121621
-0.00126434
-0.00131201
-0.00135914
-0.00140559
-0.00145119
-0.00149582
-0.00153932
-0.00158157
-0.00162244
-0.00166177
-0.00169939
-0.00173512
-0.00176877
-0.00180013
-0.00182896
-0.001855
-0.00187794
-0.00189743
-0.00191315
-0.00192499
-0.00193293
-0.00193706
-0.00193745
-0.001934
-0.00192639
-0.00191423
-0.00189716
-0.00187494
-0.00184743
-0.00181466
-0.0017768
-0.00173428
-0.00168774
-0.00163817
-0.00158686
-0.00153547
-0.001486
-0.00144071
-0.00140199
-0.00137206
-0.00135266
-0.00134457
-0.00134712
-0.00135757
-0.00137039
-0.00138054
-0.0013858
-0.00138605
-0.00138255
-0.00137779
-0.00137431
-0.00137223
-0.00137017
-0.00136789
-0.00136569
-0.00136359
-0.00136154
-0.00136008
-0.00136032
-0.00136375
-0.00137165
-0.00138572
0.000405919
0.00040995
0.000414269
0.000418935
0.000423857
0.00042906
0.000434599
0.00044031
0.000446258
0.000452378
0.000458713
0.000465276
0.000471803
0.000478846
0.000485148
0.000491552
0.00049711
0.000502965
0.000508149
0.00051302
0.000517612
0.000520547
0.000522963
0.000524075
0.000524178
0.000523218
0.000520559
0.000516604
0.000511453
0.000504916
0.000496274
0.000486502
0.000475623
0.000463783
0.000450167
0.000435786
0.000420759
0.000404981
0.000388566
0.000371973
0.000355136
0.0003381
0.000321527
0.000305289
0.000288561
0.000272898
0.000257125
0.000242264
0.00022781
0.00021394
0.000200817
0.000188321
0.000176564
0.000165509
0.000155054
0.000144721
0.000135243
0.000126276
0.000117909
0.000410192
0.000414468
0.00041909
0.000423985
0.000429172
0.000434659
0.000440437
0.000446454
0.000452728
0.000459236
0.000465936
0.00047279
0.000479715
0.000486725
0.000493728
0.000500412
0.000506871
0.000513007
0.000518722
0.0005238
0.000528276
0.000531866
0.000534458
0.000535912
0.000536189
0.000535137
0.000532696
0.000528678
0.000523438
0.000516544
0.000507768
0.000497776
0.000486568
0.000473946
0.000460018
0.000445085
0.000429364
0.000412959
0.00039597
0.000378561
0.000360978
0.000343353
0.000325912
0.00030849
0.000291391
0.000274744
0.000258524
0.000242943
0.000227912
0.000213463
0.00019971
0.00018665
0.000174201
0.00016243
0.000151216
0.000140665
0.000130762
0.000121485
0.000112765
0.000414646
0.00041918
0.000424042
0.000429217
0.000434705
0.000440503
0.000446598
0.000452974
0.000459621
0.00046651
0.000473594
0.000480811
0.000488124
0.000495501
0.000502859
0.000510106
0.000517127
0.000523754
0.000529858
0.000535326
0.000540027
0.000543981
0.000546878
0.000548586
0.000549038
0.000548041
0.000545611
0.000541628
0.000536176
0.000529056
0.000520119
0.000509788
0.000498015
0.000484842
0.000470372
0.000454864
0.000438437
0.00042131
0.000403595
0.000385464
0.000367092
0.000348584
0.000330153
0.000311968
0.000294109
0.000276723
0.000259823
0.000243481
0.000227739
0.000212625
0.000198206
0.00018447
0.000171415
0.000159025
0.000147352
0.000136377
0.000126054
0.00011636
0.000107227
0.000418839
0.000423632
0.00042878
0.000434261
0.000440077
0.000446224
0.000452692
0.000459465
0.000466522
0.000473834
0.000481361
0.000489053
0.000496863
0.000504725
0.000512537
0.000520248
0.000527705
0.000534798
0.000541364
0.000547307
0.000552454
0.000556715
0.000559895
0.000561847
0.000562481
0.000561607
0.000559207
0.000555189
0.000549554
0.000542208
0.000533011
0.000522268
0.000509969
0.000496261
0.000481191
0.000465014
0.000447859
0.000429927
0.000411378
0.000392405
0.000373164
0.000353804
0.000334526
0.000315521
0.000296837
0.000278616
0.000260915
0.000243793
0.00022731
0.000211503
0.000196412
0.00018205
0.000168425
0.000155526
0.000143351
0.000131879
0.00012108
0.000110935
0.000101391
0.000422929
0.000428002
0.000433449
0.000439248
0.000445403
0.000451909
0.000458759
0.000465938
0.000473423
0.000481186
0.000489188
0.000497379
0.000505702
0.000514078
0.000522413
0.000530617
0.000538568
0.000546154
0.000553222
0.000559643
0.000565248
0.000569879
0.000573373
0.000575591
0.00057642
0.000575687
0.000573348
0.00056928
0.000563481
0.000555892
0.000546385
0.000535221
0.000522417
0.00050813
0.00049242
0.000475517
0.000457586
0.000438818
0.000419397
0.000399524
0.000379385
0.000359154
0.000339005
0.000319098
0.000299533
0.00028043
0.00026188
0.000243948
0.000226692
0.000210156
0.00019437
0.000179352
0.000165104
0.000151618
0.000138878
0.000126869
0.000115567
0.000104951
9.49703e-05
0.000427005
0.000432379
0.000438145
0.000444279
0.000450789
0.000457672
0.00046492
0.00047252
0.000480451
0.000488683
0.000497175
0.000505876
0.000514723
0.000523636
0.000532523
0.000541278
0.000549782
0.000557903
0.000565494
0.000572404
0.000578464
0.000583506
0.000587357
0.000589872
0.000590916
0.00059033
0.000588058
0.000583952
0.000578
0.000570161