/*--------------------------------*- C++ -*----------------------------------*\
| =========                 |                                                 |
| \\      /  F ield         | OpenFOAM: The Open Source CFD Toolbox           |
|  \\    /   O peration     | Version:  2312                                  |
|   \\  /    A nd           | Website:  www.openfoam.com                      |
|    \\/     M anipulation  |                                                 |
\*---------------------------------------------------------------------------*/
FoamFile
{
    version     2.0;
    format      ascii;
    arch        "LSB;label=32;scalar=64";
    class       surfaceScalarField;
    location    "1000";
    object      phi;
}
// * * * * * * * * * * * * * * * * * * * * * * * * * * * * * * * * * * * * * //

dimensions      [0 3 -1 0 0 0 0];

oriented        oriented;

internalField   nonuniform List<scalar> 
116611
(
0.00126873
0.000434588
-0.00125274
-0.000450582
0.00128459
0.000431074
-0.000446933
0.00130023
0.000427252
-0.000442893
0.00131564
0.000423088
-0.000438493
0.00133087
0.000418591
-0.000433825
0.00134612
0.000413723
-0.000428971
0.0013609
0.000408506
-0.000423283
0.00137582
0.000402977
-0.000417896
0.00139026
0.00039703
-0.000411476
0.00140459
0.000390717
-0.000405046
0.00141861
0.000383948
-0.000397964
0.00143245
0.000376776
-0.000390618
0.00144599
0.000369178
-0.000382715
0.00145924
0.000361116
-0.000374364
0.00147216
0.000352624
-0.00036555
0.00148466
0.000343688
-0.000356182
0.0014969
0.000334194
-0.000346443
0.00150879
0.000324332
-0.00033622
0.0015202
0.000313804
-0.000325208
0.00153122
0.000302911
-0.000313934
0.00154192
0.000291349
-0.000302049
0.0015521
0.000279316
-0.000289498
0.00156177
0.00026668
-0.000276346
0.00157104
0.000253534
-0.000262804
0.00157976
0.000239793
-0.000248519
0.00158815
0.000225467
-0.000233856
0.00159599
0.00021047
-0.000218309
0.00160306
0.000194898
-0.000201964
0.0016099
0.000178754
-0.000185595
0.00161575
0.000162009
-0.000167864
0.00162147
0.000144763
-0.000150482
0.00162666
0.000126627
-0.000131816
0.00163121
0.000107887
-0.00011244
0.00163514
8.85411e-05
-9.24712e-05
0.00163844
6.84513e-05
-7.17494e-05
0.00164099
4.77898e-05
-5.03361e-05
0.00164337
2.64657e-05
-2.88434e-05
0.00164499
4.49124e-06
-6.11538e-06
0.00164611
-1.81773e-05
1.70537e-05
0.00164638
-4.16559e-05
4.13929e-05
0.00164602
-6.56327e-05
6.59858e-05
0.00164556
-9.0283e-05
9.07514e-05
0.0016443
-0.000115646
0.000116902
0.00164231
-0.00014167
0.000143661
0.00163955
-0.000168358
0.000171117
0.00163643
-0.000195584
0.000198703
0.00163279
-0.000223489
0.000227128
0.001628
-0.000252098
0.000256887
0.00162274
-0.000281163
0.000286422
0.00161678
-0.000310768
0.000316727
0.00160991
-0.00034097
0.000347846
0.00160257
-0.000371539
0.000378873
0.00159465
-0.000402605
0.000410526
0.00158579
-0.000434255
0.000443114
0.00157558
-0.000466318
0.000476536
0.0015653
-0.000498427
0.000508705
0.0015538
-0.000531054
0.000542556
0.00154192
-0.000563814
0.000575695
0.0015294
-0.000596655
0.000609169
0.00151628
-0.000629389
0.000642508
0.00150309
-0.000662097
0.000675288
0.00148962
-0.000695141
0.000708615
0.00147559
-0.000727956
0.000741981
0.00146129
-0.000760657
0.000774959
0.00144667
-0.000793035
0.000807659
0.0014322
-0.000825019
0.000839481
0.00141862
-0.000856605
0.000870191
0.00140582
-0.000887688
0.000900489
-0.000920914
0.00139212
0.000934607
0.00125493
0.000418731
-0.00123907
0.00127066
0.000415339
0.00128626
0.000411658
0.00130168
0.000407669
0.00131694
0.000403325
0.001332
0.000398664
0.00134685
0.000393654
0.00136155
0.000388281
0.00137602
0.000382559
0.00139029
0.000376442
0.00140431
0.000369928
0.00141808
0.000363009
0.00143159
0.000355666
0.00144482
0.000347893
0.00145773
0.000339711
0.00147036
0.000331061
0.0014826
0.000321953
0.00149456
0.000312367
0.00150607
0.000302294
0.00151728
0.000291706
0.00152803
0.000280594
0.00153838
0.000268967
0.00154826
0.000256794
0.00155772
0.000244078
0.00156672
0.000230799
0.00157526
0.000216922
0.00158326
0.000202472
0.00159072
0.00018743
0.00159769
0.000171788
0.00160412
0.00015558
0.00161015
0.00013873
0.00161557
0.000121205
0.0016204
0.000103057
0.00162468
8.4264e-05
0.00162833
6.48029e-05
0.00163143
4.46903e-05
0.00163397
2.39239e-05
0.00163594
2.51904e-06
0.00163733
-1.95695e-05
0.00163802
-4.2341e-05
0.00163814
-6.57505e-05
0.00163765
-8.97938e-05
0.00163648
-0.000114475
0.00163464
-0.000139832
0.00163212
-0.000165837
0.00162898
-0.000192448
0.00162515
-0.000219659
0.00162055
-0.0002475
0.0016153
-0.000275906
0.00160935
-0.000304826
0.00160267
-0.000334282
0.00159534
-0.000364216
0.00158735
-0.000394609
0.00157858
-0.000425484
0.00156906
-0.000456797
0.00155902
-0.000488395
0.00154827
-0.000520299
0.00153692
-0.000552466
0.00152503
-0.000584761
0.00151278
-0.000617146
0.00150029
-0.000649597
0.00148733
-0.000682187
0.00147411
-0.000714735
0.00146068
-0.000747227
0.00144722
-0.000779576
0.00143388
-0.000811676
0.00142078
-0.000843507
0.00140798
-0.000874889
-0.000907711
0.00139478
0.00124212
0.000403058
-0.00122645
0.0012577
0.000399763
0.00127317
0.000396186
0.00128852
0.000392319
0.0013037
0.000388144
0.00131872
0.000383651
0.00133355
0.000378825
0.00134818
0.000373651
0.00136261
0.000368123
0.00137683
0.000362226
0.00139081
0.00035595
0.00140453
0.000349283
0.00141799
0.000342211
0.00143116
0.000334722
0.00144406
0.000326812
0.00145665
0.000318468
0.00146893
0.000309676
0.00148087
0.000300423
0.00149247
0.000290697
0.00150369
0.000280482
0.00151452
0.000269766
0.00152495
0.000258537
0.00153496
0.000246783
0.00154454
0.000234495
0.00155368
0.00022166
0.00156234
0.000208265
0.00157051
0.000194299
0.00157819
0.000179752
0.00158536
0.000164618
0.00159205
0.000148891
0.00159823
0.000132553
0.00160384
0.000115592
0.0016089
9.79968e-05
0.0016134
7.97634e-05
0.00161732
6.08841e-05
0.00162066
4.13558e-05
0.0016234
2.11795e-05
0.00162557
3.47105e-07
0.00162714
-2.11345e-05
0.00162806
-4.32677e-05
0.00162836
-6.60454e-05
0.00162802
-8.94564e-05
0.00162705
-0.000113507
0.00162543
-0.000138209
0.00162314
-0.000163543
0.00162018
-0.000189489
0.00161655
-0.000216033
0.00161223
-0.00024318
0.00160723
-0.000270898
0.00160155
-0.000299151
0.0015952
-0.00032793
0.00158819
-0.000357213
0.00158055
-0.000386969
0.00157226
-0.000417191
0.00156331
-0.000447844
0.00155377
-0.000478853
0.00154364
-0.000510177
0.00153297
-0.000541794
0.00152183
-0.000573624
0.00151031
-0.000605618
0.00149845
-0.000637745
0.00148628
-0.000670012
0.00147389
-0.000702344
0.00146134
-0.000734682
0.00144874
-0.00076697
0.00143619
-0.000799134
0.00142385
-0.00083116
0.00141175
-0.000862796
-0.000895783
0.00139983
0.00123025
0.000387483
-0.00121467
0.00124571
0.000384305
0.00126104
0.000380846
0.00127626
0.000377102
0.00129134
0.000373065
0.00130627
0.000368723
0.00132103
0.000364067
0.0013356
0.000359081
0.00134997
0.000353753
0.00136412
0.000348072
0.00137805
0.000342026
0.00139173
0.000335603
0.00140515
0.000328792
0.00141829
0.000321579
0.00143115
0.000313954
0.00144371
0.000305907
0.00145596
0.000297425
0.00146789
0.000288498
0.00147947
0.000279112
0.0014907
0.000269254
0.00150155
0.000258911
0.00151202
0.000248072
0.00152208
0.000236724
0.00153172
0.000224855
0.00154092
0.000212456
0.00154967
0.000199513
0.00155796
0.000186013
0.00156577
0.000171946
0.00157308
0.000157304
0.00157989
0.000142077
0.00158619
0.000126254
0.00159196
0.000109823
0.00159719
9.27704e-05
0.00160186
7.50914e-05
0.00160597
5.67794e-05
0.00160949
3.78281e-05
0.00161244
1.82325e-05
0.0016148
-2.01609e-06
0.00161656
-2.28916e-05
0.0016177
-4.44051e-05
0.00161821
-6.65567e-05
0.0016181
-8.93425e-05
0.00161735
-0.000112762
0.00161596
-0.000136815
0.00161391
-0.000161494
0.0016112
-0.000186785
0.00160785
-0.000212678
0.00160383
-0.000239162
0.00159915
-0.00026622
0.00159383
-0.000293827
0.00158787
-0.000321968
0.00158127
-0.000350622
0.00157407
-0.000379764
0.00156625
-0.000409375
0.00155783
-0.000439425
0.00154885
-0.000469869
0.00153934
-0.000500664
0.00152932
-0.000531781
0.00151887
-0.000563169
0.00150804
-0.000594786
0.00149689
-0.0006266
0.00148547
-0.000658592
0.00147384
-0.000690714
0.00146208
-0.000722917
0.00145026
-0.000755154
0.0014385
-0.000787371
0.00142689
-0.000819553
0.00141547
-0.000851373
-0.000884486
0.00140417
0.0012191
0.000371914
-0.00120353
0.00123452
0.000368882
0.00124979
0.00036557
0.00126492
0.000361972
0.00127991
0.000358083
0.00129473
0.000353896
0.00130939
0.000349404
0.00132388
0.000344596
0.00133817
0.000339461
0.00135226
0.000333988
0.00136612
0.000328165
0.00137974
0.000321979
0.00139311
0.00031542
0.00140622
0.000308474
0.00141904
0.000301131
0.00143157
0.000293379
0.00144379
0.000285206
0.00145568
0.000276601
0.00146725
0.00026755
0.00147846
0.000258042
0.0014893
0.000248064
0.00149977
0.000237605
0.00150984
0.000226653
0.0015195
0.000215195
0.00152874
0.000203219
0.00153754
0.000190715
0.00154588
0.000177668
0.00155376
0.00016407
0.00156115
0.000149909
0.00156805
0.000135175
0.00157445
0.000119857
0.00158033
0.000103942
0.00158568
8.74218e-05
0.00159049
7.02868e-05
0.00159474
5.25298e-05
0.00159842
3.41434e-05
0.00160153
1.5121e-05
0.00160406
-4.547e-06
0.001606
-2.4826e-05
0.00160733
-4.57349e-05
0.00160805
-6.72744e-05
0.00160815
-8.94437e-05
0.00160763
-0.000112241
0.00160648
-0.000135666
0.00160469
-0.000159711
0.00160228
-0.000184369
0.00159923
-0.000209628
0.00159554
-0.000235478
0.00159123
-0.000261905
0.00158629
-0.000288892
0.00158075
-0.00031642
0.0015746
-0.000344472
0.00156786
-0.000373027
0.00156055
-0.000402062
0.00155267
-0.000431552
0.00154427
-0.000461465
0.00153537
-0.000491763
0.001526
-0.000522416
0.00151622
-0.000553387
0.00150608
-0.000584642
0.00149562
-0.000616147
0.00148491
-0.000647878
0.00147399
-0.000679798
0.00146295
-0.00071187
0.00145185
-0.000744055
0.00144079
-0.000776309
0.00142987
-0.000808633
0.00141917
-0.000840677
-0.000874317
0.001409
0.00120847
0.000356306
-0.00119286
0.00122392
0.000353428
0.00123922
0.000350279
0.00125434
0.00034685
0.00126929
0.000343133
0.00128406
0.000339121
0.00129866
0.000334807
0.00131307
0.000330185
0.00132729
0.000325245
0.0013413
0.000319978
0.00135509
0.000314374
0.00136865
0.000308421
0.00138196
0.000302107
0.00139501
0.000295422
0.00140779
0.000288355
0.00142027
0.000280892
0.00143246
0.000273023
0.00144432
0.000264735
0.00145586
0.000256016
0.00146704
0.000246854
0.00147787
0.000237237
0.00148832
0.000227152
0.00149839
0.000216587
0.00150805
0.000205532
0.0015173
0.000193972
0.00152612
0.000181898
0.00153449
0.000169296
0.0015424
0.000156155
0.00154985
0.000142464
0.00155681
0.000128213
0.00156328
0.000113389
0.00156924
9.7982e-05
0.00157468
8.19814e-05
0.00157959
6.53782e-05
0.00158396
4.81633e-05
0.00158777
3.03289e-05
0.00159102
1.18675e-05
0.00159371
-7.23016e-06
0.00159581
-2.69276e-05
0.00159732
-4.72479e-05
0.00159824
-6.81923e-05
0.00159856
-8.97616e-05
0.00159827
-0.000111955
0.00159738
-0.000134771
0.00159587
-0.000158205
0.00159375
-0.000182251
0.00159102
-0.0002069
0.00158769
-0.000232141
0.00158375
-0.000257965
0.00157921
-0.000284355
0.00157409
-0.000311297
0.00156839
-0.000338775
0.00156213
-0.000366768
0.00155533
-0.000395258
0.001548
-0.000424221
0.00154016
-0.00045363
0.00153185
-0.000483455
0.0015231
-0.000513668
0.00151396
-0.000544238
0.00150445
-0.000575137
0.00149464
-0.000606334
0.00148457
-0.000637806
0.00147429
-0.000669523
0.00146388
-0.000701459
0.00145341
-0.000733581
0.00144296
-0.000765863
0.00143264
-0.000798313
0.00142257
-0.000830608
-0.000864728
0.00141298
0.00119833
0.000340675
-0.0011827
0.00121382
0.00033794
0.00122915
0.000334948
0.00124431
0.000331689
0.00125929
0.000328153
0.00127408
0.000324331
0.00128867
0.000320214
0.00130306
0.000315794
0.00131724
0.000311063
0.00133121
0.000306013
0.00134495
0.000300634
0.00135845
0.000294916
0.00137171
0.00028885
0.00138471
0.000282424
0.00139744
0.000275629
0.00140988
0.000268451
0.00142202
0.000260881
0.00143385
0.000252907
0.00144535
0.000244515
0.00145651
0.000235694
0.00146731
0.000226432
0.00147775
0.000216716
0.0014878
0.000206534
0.00149746
0.000195875
0.00150671
0.000184725
0.00151553
0.000173073
0.00152392
0.000160908
0.00153186
0.000148216
0.00153934
0.000134986
0.00154634
0.000121208
0.00155286
0.000106869
0.00155888
9.19589e-05
0.0015644
7.64666e-05
0.0015694
6.03821e-05
0.00157386
4.36961e-05
0.00157779
2.63997e-05
0.00158117
8.48456e-06
0.001584
-1.00544e-05
0.00158626
-2.91873e-05
0.00158795
-4.89352e-05
0.00158906
-6.93024e-05
0.00158958
-9.02898e-05
0.00158953
-0.000111898
0.00158888
-0.000134126
0.00158765
-0.000156971
0.00158582
-0.000180427
0.00158341
-0.000204489
0.00158042
-0.000229147
0.00157685
-0.000254391
0.0015727
-0.000280211
0.001568
-0.000306591
0.00156274
-0.000333519
0.00155695
-0.000360975
0.00155063
-0.000388943
0.00154381
-0.000417402
0.00153651
-0.000446328
0.00152875
-0.000475697
0.00152057
-0.000505484
0.00151199
-0.000535662
0.00150306
-0.000566208
0.00149383
-0.000597095
0.00148432
-0.000628305
0.00147461
-0.000659813
0.00146476
-0.000691603
0.00145483
-0.000723652
0.00144492
-0.000755948
0.00143512
-0.000788513
0.00142557
-0.000821064
-0.000855447
0.00141629
0.00118876
0.000325062
-0.00117314
0.00120425
0.000322453
0.00121959
0.000319603
0.00123478
0.000316501
0.00124979
0.000313138
0.00126462
0.000309502
0.00127925
0.000305584
0.00129367
0.000301374
0.00130787
0.000296862
0.00132184
0.00029204
0.00133558
0.000286898
0.00134907
0.000281426
0.0013623
0.000275615
0.00137527
0.000269455
0.00138797
0.000262935
0.00140037
0.000256045
0.00141248
0.000248774
0.00142428
0.000241111
0.00143575
0.000233044
0.00144688
0.000224561
0.00145766
0.00021565
0.00146808
0.000206299
0.00147812
0.000196495
0.00148777
0.000186226
0.00149701
0.000175481
0.00150584
0.000164246
0.00151424
0.000152509
0.00152219
0.000140259
0.0015297
0.000127483
0.00153674
0.000114169
0.0015433
0.000100306
0.00154938
8.58829e-05
0.00155495
7.08877e-05
0.00156003
5.53102e-05
0.00156458
3.91404e-05
0.00156861
2.23685e-05
0.00157211
4.98565e-06
0.00157506
-1.30073e-05
0.00157747
-3.15915e-05
0.00157932
-5.0784e-05
0.00158061
-7.05913e-05
0.00158133
-9.10156e-05
0.00158149
-0.000112058
0.00158108
-0.000133719
0.00158011
-0.000155995
0.00157857
-0.000178884
0.00157646
-0.000202381
0.00157379
-0.000226478
0.00157056
-0.000251166
0.00156679
-0.000276437
0.00156248
-0.000302278
0.00155763
-0.000328675
0.00155227
-0.000355615
0.00154641
-0.000383079
0.00154006
-0.000411051
0.00153324
-0.00043951
0.00152598
-0.000468434
0.0015183
-0.000497804
0.00151023
-0.000527595
0.00150181
-0.000557789
0.00149308
-0.000588365
0.00148408
-0.000619308
0.00147487
-0.000650601
0.0014655
-0.000682236
0.00145606
-0.000714205
0.00144661
-0.000746499
0.00143727
-0.000779174
0.00142814
-0.000811939
-0.000846743
0.00141944
0.00117989
0.000309486
-0.00116432
0.00119535
0.000306998
0.00121067
0.000304281
0.00122585
0.000301324
0.00124086
0.00029812
0.00125571
0.000294658
0.00127036
0.000290929
0.00128482
0.000286921
0.00129905
0.000282626
0.00131306
0.000278033
0.00132683
0.000273132
0.00134034
0.000267912
0.00135359
0.000262363
0.00136657
0.000256475
0.00137927
0.000250238
0.00139167
0.000243642
0.00140377
0.000236675
0.00141556
0.000229327
0.00142701
0.000221586
0.00143813
0.000213442
0.0014489
0.000204882
0.00145931
0.000195894
0.00146934
0.000186465
0.00147898
0.000176585
0.00148822
0.000166239
0.00149705
0.000155416
0.00150546
0.000144103
0.00151343
0.000132288
0.00152095
0.000119959
0.00152802
0.000107103
0.00153462
9.37075e-05
0.00154074
7.97619e-05
0.00154637
6.52541e-05
0.00155151
5.0173e-05
0.00155614
3.45078e-05
0.00156026
1.82484e-05
0.00156386
1.38414e-06
0.00156693
-1.6075e-05
0.00156946
-3.41251e-05
0.00157146
-5.27784e-05
0.00157291
-7.20428e-05
0.00157381
-9.19215e-05
0.00157417
-0.000112416
0.00157398
-0.000133528
0.00157324
-0.000155256
0.00157196
-0.000177598
0.00157013
-0.00020055
0.00156775
-0.000224106
0.00156485
-0.000248258
0.00156141
-0.000273
0.00155745
-0.000298319
0.00155298
-0.000324204
0.00154801
-0.000350643
0.00154255
-0.000377619
0.00153661
-0.000405118
0.00153023
-0.000433122
0.0015234
-0.000461612
0.00151617
-0.000490572
0.00150856
-0.000519981
0.00150059
-0.000549825
0.00149232
-0.000580088
0.00148377
-0.00061076
0.001475
-0.000641834
0.00146607
-0.000673308
0.00145706
-0.000705188
0.00144803
-0.000737475
0.00143911
-0.000770255
0.00143032
-0.000803148
-0.000838178
0.00142176
0.00117181
0.000293952
-0.00115628
0.00118723
0.000291584
0.00120251
0.000288997
0.00121765
0.000286182
0.00123264
0.00028313
0.00124747
0.000279833
0.00126212
0.000276282
0.00127657
0.000272467
0.00129082
0.000268378
0.00130485
0.000264005
0.00131864
0.000259338
0.00133219
0.000254366
0.00134547
0.000249079
0.00135848
0.000243464
0.00137121
0.000237513
0.00138363
0.000231214
0.00139575
0.000224555
0.00140755
0.000217527
0.00141902
0.000210118
0.00143015
0.000202315
0.00144092
0.000194108
0.00145133
0.000185484
0.00146137
0.000176432
0.00147101
0.000166939
0.00148026
0.000156991
0.0014891
0.000146578
0.00149751
0.000135686
0.0015055
0.000124303
0.00151304
0.000112415
0.00152013
0.000100011
0.00152677
8.70772e-05
0.00153292
7.36022e-05
0.00153861
5.95737e-05
0.0015438
4.498e-05
0.0015485
2.98098e-05
0.00155269
1.40521e-05
0.00155638
-2.30516e-06
0.00155955
-1.92419e-05
0.00156219
-3.67708e-05
0.00156432
-5.48996e-05
0.00156591
-7.36361e-05
0.00156697
-9.29849e-05
0.0015675
-0.000112949
0.0015675
-0.000133529
0.00156697
-0.000154726
0.00156591
-0.000176538
0.00156433
-0.000198962
0.00156222
-0.000221995
0.00155959
-0.000245629
0.00155645
-0.000269858
0.0015528
-0.000294672
0.00154866
-0.000320061
0.00154403
-0.000346014
0.00153893
-0.000372517
0.00153336
-0.000399557
0.00152736
-0.000427118
0.00152093
-0.000455185
0.0015141
-0.000483743
0.0015069
-0.000512777
0.00149935
-0.000542275
0.00149149
-0.000572227
0.00148336
-0.000602628
0.001475
-0.000633476
0.00146647
-0.000664782
0.00145784
-0.000696561
0.0014492
-0.000728832
0.00144065
-0.000761705
0.00143227
-0.000794767
-0.000830535
0.00142463
0.00116456
0.00027845
-0.00114906
0.00117994
0.000276206
0.00119519
0.00027375
0.00121029
0.000271077
0.00122525
0.000268177
0.00124004
0.000265043
0.00125465
0.000261666
0.00126908
0.000258037
0.00128331
0.000254148
0.00129733
0.000249988
0.00131112
0.000245547
0.00132467
0.000240815
0.00133797
0.000235781
0.001351
0.000230435
0.00136375
0.000224765
0.0013762
0.000218761
0.00138834
0.00021241
0.00140017
0.000205702
0.00141166
0.000198624
0.00142281
0.000191165
0.00143361
0.000183313
0.00144404
0.000175056
0.00145409
0.000166381
0.00146375
0.000157276
0.00147302
0.000147728
0.00148187
0.000137724
0.0014903
0.000127252
0.00149831
0.000116298
0.00150587
0.00010485
0.00151299
9.28945e-05
0.00151965
8.04183e-05
0.00152584
6.7409e-05
0.00153156
5.38538e-05
0.0015368
3.97407e-05
0.00154155
2.50576e-05
0.00154581
9.79316e-06
0.00154957
-6.06452e-06
0.00155282
-2.24906e-05
0.00155556
-3.95089e-05
0.00155778
-5.71252e-05
0.0015595
-7.5347e-05
0.00156069
-9.41796e-05
0.00156137
-0.000113626
0.00156153
-0.00013369
0.00156118
-0.000154371
0.00156031
-0.00017567
0.00155893
-0.000197584
0.00155704
-0.000220109
0.00155465
-0.000243241
0.00155177
-0.000266974
0.0015484
-0.0002913
0.00154455
-0.000316209
0.00154022
-0.000341692
0.00153544
-0.000367737
0.00153022
-0.000394332
0.00152457
-0.000421465
0.0015185
-0.000449122
0.00151205
-0.00047729
0.00150523
-0.000505958
0.00149808
-0.000535118
0.00149061
-0.000564761
0.00148287
-0.000594889
0.0014749
-0.000625505
0.00146675
-0.000656628
0.00145847
-0.000688282
0.00145014
-0.000720507
0.00144187
-0.000753428
0.00143378
-0.000786682
-0.000823266
0.00142651
0.00115815
0.000262971
-0.00114267
0.0011735
0.000260851
0.00118872
0.000258529
0.0012038
0.000255999
0.00121872
0.000253253
0.00123348
0.000250284
0.00124807
0.000247082
0.00126246
0.00024364
0.00127666
0.000239949
0.00129065
0.000235999
0.00130442
0.000231781
0.00131795
0.000227284
0.00133123
0.000222499
0.00134425
0.000217415
0.001357
0.000212021
0.00136945
0.000206306
0.0013816
0.000200257
0.00139344
0.000193865
0.00140495
0.000187116
0.00141611
0.000179999
0.00142693
0.000172501
0.00143737
0.000164609
0.00144744
0.000156311
0.00145712
0.000147595
0.0014664
0.000138446
0.00147528
0.000128852
0.00148373
0.0001188
0.00149175
0.000108276
0.00149934
9.72657e-05
0.00150647
8.5757e-05
0.00151316
7.37358e-05
0.00151938
6.1189e-05
0.00152513
4.81034e-05
0.0015304
3.44661e-05
0.00153519
2.02645e-05
0.0015395
5.48638e-06
0.00154331
-9.87477e-06
0.00154662
-2.58019e-05
0.00154943
-4.23183e-05
0.00155174
-5.94323e-05
0.00155354
-7.71507e-05
0.00155484
-9.54793e-05
0.00155564
-0.000114422
0.00155593
-0.000133983
0.00155572
-0.000154164
0.00155502
-0.000174964
0.00155382
-0.000196383
0.00155213
-0.000218418
0.00154995
-0.000241065
0.00154729
-0.000264319
0.00154417
-0.000288173
0.00154058
-0.000312621
0.00153654
-0.000337652
0.00153206
-0.000363257
0.00152715
-0.000389425
0.00152183
-0.000416146
0.00151612
-0.000443409
0.00151003
-0.000471202
0.00150359
-0.000499516
0.00149681
-0.000528343
0.00148973
-0.000557681
0.00148238
-0.000587531
0.00147477
-0.000617903
0.00146696
-0.000648818
0.00145899
-0.00068031
0.00145092
-0.000712432
0.0014428
-0.000745312
0.00143478
-0.000778665
-0.000815642
0.00142716
0.00115258
0.000247501
-0.00113711
0.00116793
0.000245507
0.00118313
0.000243321
0.0011982
0.000240937
0.0012131
0.000238347
0.00122784
0.000235545
0.0012424
0.000232521
0.00125677
0.000229268
0.00127095
0.000225777
0.00128491
0.000222038
0.00129864
0.000218044
0.00131214
0.000213783
0.0013254
0.000209245
0.00133839
0.000204422
0.00135111
0.000199301
0.00136355
0.000193871
0.00137568
0.000188123
0.0013875
0.000182042
0.001399
0.000175619
0.00141016
0.00016884
0.00142097
0.000161693
0.00143141
0.000154164
0.00144148
0.000146242
0.00145116
0.000137912
0.00146045
0.000129162
0.00146932
0.000119977
0.00147778
0.000110343
0.00148581
0.000100247
0.0014934
8.96742e-05
0.00150055
7.8611e-05
0.00150724
6.70432e-05
0.00151347
5.49567e-05
0.00151924
4.23378e-05
0.00152453
2.91727e-05
0.00152935
1.54482e-05
0.00153368
1.15085e-06
0.00153753
-1.37164e-05
0.00154088
-2.91533e-05
0.00154374
-4.51768e-05
0.0015461
-6.17978e-05
0.00154797
-7.90233e-05
0.00154935
-9.68596e-05
0.00155024
-0.000115312
0.00155064
-0.000134384
0.00155056
-0.000154078
0.00154999
-0.000174396
0.00154894
-0.000195336
0.00154742
-0.000216898
0.00154544
-0.000239079
0.00154299
-0.000261873
0.00154009
-0.000285276
0.00153675
-0.000309281
0.00153298
-0.00033388
0.00152879
-0.000359065
0.00152419
-0.000384827
0.0015192
-0.000411155
0.00151383
-0.00043804
0.0015081
-0.000465472
0.00150203
-0.000493442
0.00149563
-0.000521945
0.00148893
-0.000550977
0.00148194
-0.000580541
0.00147468
-0.000610648
0.00146719
-0.000641322
0.00145948
-0.000672601
0.00145159
-0.000704545
0.00144356
-0.000737285
0.00143542
-0.000770527
-0.000806993
0.00142677
0.00114788
0.00023203
-0.0011324
0.00116322
0.000230163
0.00117843
0.000228115
0.00119348
0.000225879
0.00120838
0.000223448
0.00122312
0.000220814
0.00123767
0.00021797
0.00125203
0.000214908
0.00126618
0.00021162
0.00128012
0.000208096
0.00129384
0.000204327
0.00130732
0.000200304
0.00132055
0.000196017
0.00133351
0.000191455
0.00134621
0.000186609
0.00135861
0.000181466
0.00137072
0.000176017
0.00138251
0.000170249
0.00139398
0.00016415
0.00140511
0.000157708
0.00141589
0.000150911
0.00142631
0.000143744
0.00143636
0.000136196
0.00144602
0.000128252
0.00145528
0.000119898
0.00146414
0.00011112
0.00147258
0.000101904
0.00148059
9.22352e-05
0.00148817
8.20987e-05
0.0014953
7.14797e-05
0.00150198
6.03635e-05
0.0015082
4.87352e-05
0.00151396
3.65803e-05
0.00151924
2.38843e-05
0.00152406
1.0633e-05
0.0015284
-3.1879e-06
0.00153225
-1.75665e-05
0.00153562
-3.25199e-05
0.0015385
-4.80597e-05
0.0015409
-6.41972e-05
0.00154281
-8.09406e-05
0.00154425
-9.82967e-05
0.00154521
-0.000116271
0.0015457
-0.000134869
0.00154571
-0.000154093
0.00154526
-0.000173945
0.00154435
-0.000194425
0.00154298
-0.000215533
0.00154117
-0.000237266
0.00153892
-0.000259621
0.00153624
-0.000282593
0.00153313
-0.000306177
0.00152962
-0.000330365
0.00152571
-0.000355151
0.0015214
-0.000380525
0.00151673
-0.00040648
0.00151169
-0.000433005
0.00150631
-0.000460091
0.0015006
-0.000487729
0.00149457
-0.000515913
0.00148823
-0.000544638
0.00148159
-0.000573905
0.00147467
-0.000603722
0.00146745
-0.000634108
0.00145995
-0.000665099
0.00145216
-0.000696758
0.00144412
-0.000729239
0.00143605
-0.000762461
-0.000798791
0.00142785
0.00114406
0.000216551
-0.00112858
0.00115941
0.000214813
0.00117462
0.000212902
0.00118968
0.000210815
0.00120459
0.000208543
0.00121932
0.000206081
0.00123387
0.000203419
0.00124823
0.00020055
0.00126238
0.000197467
0.00127632
0.00019416
0.00129003
0.000190619
0.0013035
0.000186837
0.00131671
0.000182803
0.00132966
0.000178506
0.00134233
0.000173937
0.00135471
0.000169085
0.00136679
0.000163938
0.00137855
0.000158484
0.00138999
0.000152713
0.00140109
0.00014661
0.00141184
0.000140164
0.00142222
0.000133362
0.00143223
0.000126188
0.00144185
0.000118631
0.00145107
0.000110675
0.00145989
0.000102305
0.00146828
9.35069e-05
0.00147625
8.42653e-05
0.00148379
7.45646e-05
0.00149088
6.43893e-05
0.00149752
5.37238e-05
0.0015037
4.25523e-05
0.00150942
3.08594e-05
0.00151468
1.86295e-05
0.00151946
5.84757e-06
0.00152377
-7.49809e-06
0.0015276
-2.13967e-05
0.00153095
-3.58729e-05
0.00153383
-5.09377e-05
0.00153624
-6.66018e-05
0.00153817
-8.28744e-05
0.00153964
-9.97631e-05
0.00154064
-0.000117274
0.00154118
-0.000135413
0.00154128
-0.000154184
0.00154092
-0.000173588
0.00154012
-0.000193627
0.00153889
-0.000214301
0.00153723
-0.000235607
0.00153515
-0.000257544
0.00153266
-0.000280107
0.00152978
-0.00030329
0.0015265
-0.000327089
0.00152285
-0.000351497
0.00151882
-0.000376504
0.00151445
-0.000402104
0.00150973
-0.000428287
0.00150468
-0.000455043
0.00149932
-0.000482362
0.00149364
-0.000510235
0.00148765
-0.000538654
0.00148136
-0.000567612
0.00147475
-0.000597106
0.00146778
-0.000627143
0.00146043
-0.000657747
0.00145264
-0.000688973
0.00144442
-0.000721011
0.00143575
-0.000753794
-0.000789899
0.00142686
0.00114118
0.000201066
-0.0011257
0.00115654
0.000199454
0.00117176
0.000197681
0.00118684
0.000195742
0.00120175
0.00019363
0.00121649
0.000191339
0.00123105
0.00018886
0.00124542
0.000186186
0.00125957
0.000183309
0.00127351
0.00018022
0.00128722
0.000176911
0.00130069
0.000173372
0.0013139
0.000169593
0.00132684
0.000165565
0.0013395
0.000161277
0.00135186
0.000156718
0.00136392
0.000151877
0.00137567
0.000146743
0.00138708
0.000141302
0.00139814
0.000135543
0.00140885
0.000129453
0.0014192
0.000123018
0.00142916
0.000116224
0.00143874
0.000109057
0.00144791
0.000101502
0.00145667
9.35437e-05
0.00146501
8.51666e-05
0.00147292
7.63549e-05
0.00148039
6.70923e-05
0.00148742
5.73625e-05
0.00149399
4.71487e-05
0.00150011
3.64344e-05
0.00150577
2.52029e-05
0.00151096
1.34378e-05
0.00151569
1.12237e-06
0.00151993
-1.17469e-05
0.00152371
-2.51741e-05
0.00152702
-3.91796e-05
0.00152986
-5.37772e-05
0.00153223
-6.89776e-05
0.00153415
-8.47906e-05
0.00153561
-0.000101225
0.00153662
-0.000118287
0.00153719
-0.000135983
0.00153733
-0.000154317
0.00153703
-0.000173293
0.00153632
-0.00019291
0.00153518
-0.00021317
0.00153365
-0.000234071
0.00153172
-0.000255611
0.00152939
-0.000277786
0.0015267
-0.000300592
0.00152363
-0.000324023
0.00152021
-0.000348074
0.00151644
-0.000372737
0.00151234
-0.000398003
0.00150792
-0.000423865
0.00150319
-0.000450311
0.00149815
-0.000477328
0.00149282
-0.000504901
0.00148718
-0.000533013
0.00148121
-0.000561644
0.00147488
-0.000590775
0.00146813
-0.000620399
0.00146093
-0.000650541
0.00145323
-0.000681271
0.00144499
-0.000712774
0.0014362
-0.000745003
-0.000779644
0.00142594
0.00113934
0.000185576
-0.00112385
0.00115471
0.000184089
0.00116994
0.000182452
0.00118502
0.00018066
0.00119994
0.000178707
0.00121469
0.000176586
0.00122926
0.00017429
0.00124364
0.000171811
0.00125781
0.000169142
0.00127175
0.000166273
0.00128547
0.000163196
0.00129894
0.000159903
0.00131215
0.000156383
0.00132509
0.000152626
0.00133774
0.000148622
0.0013501
0.00014436
0.00136215
0.00013983
0.00137387
0.000135019
0.00138526
0.000129914
0.0013963
0.000124504
0.00140698
0.000118775
0.00141728
0.000112713
0.0014272
0.000106304
0.00143673
9.95335e-05
0.00144584
9.23855e-05
0.00145454
8.48445e-05
0.00146281
7.68942e-05
0.00147065
6.85179e-05
0.00147804
5.96985e-05
0.00148499
5.04187e-05
0.00149148
4.06607e-05
0.0014975
3.04068e-05
0.00150307
1.96391e-05
0.00150817
8.33984e-06
0.0015128
-3.50793e-06
0.00151695
-1.59011e-05
0.00152064
-2.88605e-05
0.00152386
-4.24014e-05
0.00152662
-5.65387e-05
0.00152893
-7.12843e-05
0.00153079
-8.66486e-05
0.0015322
-0.000102641
0.00153318
-0.000119269
0.00153374
-0.000136538
0.00153388
-0.000154454
0.0015336
-0.00017302
0.00153293
-0.000192236
0.00153186
-0.000212103
0.00153041
-0.000232621
0.00152859
-0.000253786
0.0015264
-0.000275596
0.00152385
-0.000298047
0.00152096
-0.000321134
0.00151774
-0.000344852
0.0015142
-0.000369195
0.00151035
-0.000394154
0.0015062
-0.000419719
0.00150177
-0.000445876
0.00149705
-0.000472606
0.00149203
-0.000499883
0.00148669
-0.00052768
0.00148102
-0.000555965
0.00147496
-0.00058472
0.00146852
-0.000613957
0.00146171
-0.000643734
0.00145462
-0.000674176
0.00144727
-0.000705423
0.00143988
-0.000737617
-0.000771408
0.00143164
0.00113863
0.000170079
-0.00112314
0.00115401
0.000168717
0.00116924
0.000167215
0.00118433
0.00016557
0.00119927
0.000163775
0.00121403
0.000161824
0.00122861
0.00015971
0.00124299
0.000157427
0.00125717
0.000154965
0.00127112
0.000152317
0.00128485
0.000149474
0.00129832
0.000146428
0.00131154
0.000143168
0.00132448
0.000139685
0.00133713
0.000135969
0.00134948
0.000132009
0.00136152
0.000127793
0.00137323
0.000123309
0.0013846
0.000118547
0.00139561
0.000113491
0.00140625
0.00010813
0.00141652
0.000102448
0.00142639
9.64314e-05
0.00143586
9.00645e-05
0.00144492
8.33316e-05
0.00145354
7.6216e-05
0.00146174
6.87007e-05
0.00146949
6.0768e-05
0.00147679
5.23998e-05
0.00148363
4.35776e-05