/*--------------------------------*- C++ -*----------------------------------*\
| =========                 |                                                 |
| \\      /  F ield         | OpenFOAM: The Open Source CFD Toolbox           |
|  \\    /   O peration     | Version:  2312                                  |
|   \\  /    A nd           | Website:  www.openfoam.com                      |
|    \\/     M anipulation  |                                                 |
\*---------------------------------------------------------------------------*/
FoamFile
{
    version     2.0;
    format      ascii;
    arch        "LSB;label=32;scalar=64";
    class       volVectorField;
    location    "1000";
    object      U;
}
// * * * * * * * * * * * * * * * * * * * * * * * * * * * * * * * * * * * * * //

dimensions      [0 1 -1 0 0 0 0];

internalField   nonuniform List<vector> 
76025
(
(0.0414265 -0.009772 0)
(0.0416793 -0.00974962 2.75887e-22)
(0.0419319 -0.00972093 0)
(0.0421845 -0.00968595 0)
(0.0424348 -0.00964571 -3.82073e-22)
(0.0426946 -0.00958739 -5.91647e-22)
(0.0429531 -0.00953165 9.22393e-22)
(0.043216 -0.00946024 -3.56602e-22)
(0.0434778 -0.00938655 -5.98574e-23)
(0.0437381 -0.00930528 2.98026e-23)
(0.0439982 -0.0092152 2.46659e-23)
(0.0442603 -0.00911403 -8.89422e-23)
(0.0445251 -0.00900657 1.19145e-22)
(0.0447884 -0.00888728 0)
(0.0450525 -0.00875439 -1.20251e-22)
(0.0453109 -0.00862255 0)
(0.0455695 -0.00847099 0)
(0.0458257 -0.00831813 0)
(0.0460802 -0.00814942 -2.03661e-22)
(0.046328 -0.00798073 2.69285e-22)
(0.0465746 -0.00779333 2.98501e-22)
(0.0468206 -0.00759828 9.36208e-22)
(0.0470589 -0.00739511 -6.46743e-22)
(0.0472921 -0.00718015 -1.15e-21)
(0.0475214 -0.0069582 -5.61798e-23)
(0.047746 -0.00673003 -5.05312e-22)
(0.0479696 -0.00648017 1.38823e-21)
(0.0481841 -0.00623038 -1.41767e-21)
(0.0483932 -0.00596351 4.96873e-22)
(0.0485948 -0.00567999 -5.26209e-22)
(0.048788 -0.00540862 -5.60512e-22)
(0.0489802 -0.00512081 1.25163e-21)
(0.0491694 -0.00480954 -1.91866e-21)
(0.049351 -0.00450258 -3.5665e-22)
(0.0495237 -0.00417908 1.79565e-21)
(0.0496861 -0.00385687 1.63673e-23)
(0.0498436 -0.0035157 -3.79758e-22)
(0.0500017 -0.00315714 2.12406e-22)
(0.050154 -0.00280389 1.30481e-23)
(0.050296 -0.00243247 -3.25607e-22)
(0.0504269 -0.00205944 2.18072e-22)
(0.0505554 -0.00166543 -1.09618e-22)
(0.0506862 -0.0012469 2.22788e-22)
(0.0508073 -0.000829048 -4.54795e-22)
(0.0509144 -0.00039805 -4.79719e-22)
(0.0510136 3.88444e-05 9.16161e-22)
(0.051112 0.000499563 9.83633e-22)
(0.0511995 0.000963871 -2.98199e-21)
(0.0512698 0.00144025 1.938e-21)
(0.0513318 0.00192833 -2.96998e-23)
(0.051382 0.00242945 -5.07824e-21)
(0.0514178 0.00295004 -2.00102e-21)
(0.0514445 0.00348801 2.1215e-21)
(0.0514567 0.00404634 0)
(0.051444 0.00461046 -2.06402e-21)
(0.05141 0.00518232 -2.18413e-21)
(0.0513635 0.00577518 6.59138e-23)
(0.0512933 0.00639129 -2.15685e-21)
(0.051201 0.00703751 2.2276e-21)
(0.0510846 0.00771225 -6.56341e-21)
(0.050973 0.00837356 -4.63128e-21)
(0.0508333 0.00908852 -2.30533e-22)
(0.0506725 0.00982841 0)
(0.0504863 0.0105931 1.18816e-20)
(0.0502769 0.0113855 -4.56716e-21)
(0.0500502 0.0121857 2.42086e-21)
(0.0498031 0.0130513 -4.85565e-21)
(0.0495252 0.0139804 5.22374e-21)
(0.0493637 0.0148928 1.03907e-20)
(0.0414533 -0.0102009 2.98471e-22)
(0.0417162 -0.0101777 7.56999e-22)
(0.0419806 -0.0101464 -1.03709e-21)
(0.0422472 -0.0101076 0)
(0.0425134 -0.0100623 8.34677e-22)
(0.0427836 -0.0100074 -1.27272e-22)
(0.0430529 -0.00994469 -5.14075e-22)
(0.0433244 -0.00987298 0)
(0.0435981 -0.00979271 2.71001e-23)
(0.043872 -0.00970445 -3.07856e-23)
(0.0441464 -0.00960778 -3.36109e-25)
(0.0444209 -0.00950194 3.12028e-23)
(0.0446951 -0.00938731 0)
(0.0449695 -0.00926318 0)
(0.0452442 -0.00912801 -3.44359e-22)
(0.045516 -0.00898502 8.16473e-22)
(0.0457875 -0.00883053 2.21866e-22)
(0.0460562 -0.00866776 -7.53036e-22)
(0.0463236 -0.0084941 4.99623e-22)
(0.0465867 -0.00831192 -2.76772e-22)
(0.0468478 -0.00811902 3.775e-22)
(0.0471049 -0.00791616 -6.85466e-22)
(0.0473577 -0.00770316 8.07689e-22)
(0.0476063 -0.0074796 -1.28087e-21)
(0.0478504 -0.0072459 8.72138e-22)
(0.0480898 -0.00700278 1.45502e-21)
(0.0483252 -0.00674897 -9.99032e-22)
(0.0485524 -0.00648596 0)
(0.048774 -0.00621154 0)
(0.0489905 -0.00592607 -6.35387e-22)
(0.0492018 -0.00563064 0)
(0.0494089 -0.00532576 -7.0264e-22)
(0.0496091 -0.00501097 7.24901e-22)
(0.0498005 -0.00468773 -1.11617e-21)
(0.0499849 -0.00435443 2.68316e-23)
(0.0501617 -0.00401064 -3.93911e-22)
(0.050333 -0.00365375 0)
(0.0504984 -0.00328755 -8.96823e-22)
(0.0506572 -0.00291247 6.94401e-22)
(0.0508075 -0.00252762 -5.76098e-22)
(0.050949 -0.00213076 3.54237e-22)
(0.0510834 -0.00172004 -2.43825e-24)
(0.0512102 -0.00130152 1.31533e-22)
(0.0513274 -0.000875743 -1.22476e-22)
(0.0514346 -0.000438842 1.02547e-21)
(0.0515326 1.22713e-05 -5.22829e-22)
(0.0516217 0.000475827 -5.48803e-22)
(0.0516998 0.000947571 1.0139e-21)
(0.0517651 0.00143462 3.16872e-21)
(0.0518189 0.00193734 -1.62503e-23)
(0.0518606 0.00245339 3.19688e-21)
(0.0518888 0.00298562 -1.09725e-21)
(0.0519043 0.00353259 -3.26912e-21)
(0.0519065 0.00409039 2.19449e-21)
(0.0518926 0.00465905 0)
(0.0518604 0.00525132 6.81817e-21)
(0.0518143 0.0058598 4.5392e-23)
(0.0517502 0.00648673 -2.29638e-21)
(0.0516682 0.00713255 -2.40487e-21)
(0.0515706 0.00779886 0)
(0.0514571 0.00849512 2.26272e-21)
(0.0513278 0.00921474 7.17973e-21)
(0.0511803 0.00995409 0)
(0.0510144 0.0107189 -4.91176e-21)
(0.0508302 0.0115137 2.8473e-21)
(0.0506223 0.0123451 -5.21349e-21)
(0.0503987 0.0132181 2.62267e-21)
(0.0501487 0.0141165 -5.28485e-21)
(0.0499382 0.0150369 -5.37545e-21)
(0.0414917 -0.010661 -1.42574e-21)
(0.0417627 -0.0106356 8.69358e-22)
(0.0420366 -0.0106017 -2.17908e-22)
(0.0423144 -0.0105603 7.05818e-22)
(0.0425945 -0.0105109 -8.48685e-22)
(0.0428761 -0.0104533 -4.28417e-22)
(0.0431587 -0.0103869 5.0264e-22)
(0.0434425 -0.0103118 0)
(0.0437277 -0.0102278 2.87989e-23)
(0.044014 -0.0101346 0)
(0.0443008 -0.0100323 6.22319e-23)
(0.0445875 -0.00992066 -6.39518e-23)
(0.0448736 -0.00979961 -6.48849e-22)
(0.0451589 -0.00966905 5.17347e-22)
(0.0454436 -0.0095286 -1.61779e-22)
(0.0457275 -0.00937795 -6.50421e-22)
(0.0460102 -0.0092174 2.29685e-22)
(0.0462912 -0.00904648 2.58243e-22)
(0.0465699 -0.00886573 9.81825e-22)
(0.046846 -0.00867443 -6.51277e-22)
(0.0471188 -0.00847313 -3.9627e-22)
(0.0473879 -0.00826152 8.44537e-22)
(0.0476531 -0.00803954 -3.83826e-22)
(0.0479142 -0.00780692 -4.94806e-22)
(0.0481711 -0.00756379 0)
(0.0484227 -0.00731034 5.60752e-22)
(0.0486686 -0.00704703 5.73887e-22)
(0.0489086 -0.00677325 -5.45332e-22)
(0.0491426 -0.00648861 0)
(0.0493711 -0.00619348 1.33767e-21)
(0.0495941 -0.00588752 -7.28597e-22)
(0.0498105 -0.00557229 -5.29063e-23)
(0.0500193 -0.00524775 0)
(0.0502207 -0.00491313 3.89323e-22)
(0.0504148 -0.00456858 -1.2615e-21)
(0.0506012 -0.00421375 8.62274e-22)
(0.05078 -0.00384881 0)
(0.0509513 -0.00347423 7.14161e-22)
(0.0511152 -0.00308935 -7.33457e-22)
(0.0512708 -0.00269409 -1.20685e-22)
(0.0514173 -0.00228767 0)
(0.0515549 -0.00187021 -2.56343e-22)
(0.0516839 -0.00144209 -1.31414e-22)
(0.0518039 -0.00100275 1.25564e-22)
(0.0519141 -0.000551492 -7.82074e-22)
(0.0520139 -8.7992e-05 -5.53866e-22)
(0.0521032 0.00038736 1.06272e-21)
(0.0521817 0.000874415 -1.11402e-21)
(0.0522483 0.00137456 1.1414e-21)
(0.052303 0.00188794 -1.11411e-21)
(0.0523458 0.00241421 -1.11011e-21)
(0.0523763 0.00295446 2.35661e-21)
(0.0523943 0.00350886 0)
(0.0523996 0.00407735 2.4051e-21)
(0.0523906 0.00466122 3.48522e-23)
(0.0523663 0.0052626 -2.42549e-21)
(0.0523275 0.00588081 -2.44973e-21)
(0.0522735 0.00651733 4.90939e-21)
(0.0522035 0.00717449 -3.27347e-23)
(0.0521177 0.00785477 2.57646e-21)
(0.0520171 0.00855851 -5.21964e-21)
(0.0519022 0.00928397 -2.68126e-21)
(0.0517705 0.0100346 5.74509e-23)
(0.0516215 0.0108133 -2.63346e-21)
(0.0514549 0.0116224 -2.5455e-21)
(0.0512687 0.0124623 -8.37271e-21)
(0.0510695 0.0133395 0)
(0.0508355 0.0142468 -2.90978e-21)
(0.0506469 0.0151954 2.8748e-21)
(0.0415383 -0.0111506 0)
(0.0418202 -0.0111235 2.59429e-22)
(0.0421044 -0.0110873 9.97659e-22)
(0.0423922 -0.0110432 -7.71137e-22)
(0.0426832 -0.0109907 -3.27912e-22)
(0.0429765 -0.0109294 5.61231e-22)
(0.0432716 -0.010859 -7.77546e-23)
(0.0435682 -0.0107795 1.19928e-23)
(0.0438659 -0.0106909 6.83338e-24)
(0.0441644 -0.0105929 -2.47162e-22)
(0.0444632 -0.0104854 2.80505e-22)
(0.0447621 -0.010368 5.30986e-22)
(0.0450607 -0.0102407 -6.07701e-23)
(0.0453585 -0.0101033 -7.40395e-22)
(0.0456553 -0.00995571 6.45435e-22)
(0.0459509 -0.00979767 -2.7603e-22)
(0.046245 -0.00962926 3.11081e-22)
(0.0465372 -0.00945033 3.45943e-22)
(0.0468272 -0.0092609 -1.08549e-21)
(0.0471144 -0.00906089 3.33416e-22)
(0.0473985 -0.00885029 4.0342e-22)
(0.047679 -0.00862901 0)
(0.0479556 -0.00839705 1.06643e-21)
(0.0482278 -0.00815439 -5.16664e-22)
(0.0484952 -0.00790107 -1.15227e-21)
(0.0487576 -0.0076372 -1.25433e-21)
(0.0490144 -0.00736273 2.4804e-21)
(0.0492653 -0.00707755 -1.32532e-21)
(0.0495102 -0.00678168 0)
(0.0497487 -0.0064752 -1.46207e-21)
(0.0499806 -0.00615842 -4.18427e-23)
(0.0502056 -0.0058317 1.55623e-21)
(0.0504231 -0.00549491 -8.49546e-22)
(0.0506332 -0.00514788 2.19128e-21)
(0.0508354 -0.00479072 -4.23061e-22)
(0.0510296 -0.00442344 0)
(0.0512156 -0.00404609 0)
(0.0513936 -0.00365876 2.63484e-22)
(0.0515632 -0.00326054 2.53635e-22)
(0.0517239 -0.00285168 1.36606e-22)
(0.0518753 -0.00243204 -4.32832e-24)
(0.0520174 -0.00200145 1.32678e-22)
(0.0521501 -0.00155987 0)
(0.0522732 -0.00110745 -1.51127e-23)
(0.0523861 -0.000644129 0)
(0.0524884 -0.000169571 5.48936e-22)
(0.0525801 0.000316544 1.23151e-23)
(0.052661 0.000814349 -1.77832e-21)
(0.0527305 0.00132433 0)
(0.0527885 0.00184719 -1.20529e-21)
(0.052835 0.00238336 1.19333e-21)
(0.0528697 0.00293339 -2.37773e-21)
(0.0528922 0.00349782 0)
(0.0529024 0.00407691 -7.48177e-21)
(0.0528994 0.00467124 3.3233e-23)
(0.0528827 0.00528208 2.51592e-21)
(0.0528523 0.00591055 2.54112e-21)
(0.0528079 0.00655765 0)
(0.0527492 0.00722489 0)
(0.0526761 0.00791366 -2.59786e-21)
(0.0525892 0.0086252 5.26156e-21)
(0.0524883 0.0093603 5.33393e-21)
(0.0523723 0.0101208 0)
(0.0522406 0.0109083 -5.75484e-21)
(0.0520933 0.0117254 0)
(0.0519278 0.0125732 8.62837e-21)
(0.0517496 0.0134585 -2.92476e-21)
(0.051536 0.0143735 -3.06979e-21)
(0.0513669 0.0153329 -3.26862e-21)
(0.0415885 -0.0116673 0)
(0.0418853 -0.0116388 0)
(0.0421832 -0.0116007 1.77847e-22)
(0.0424837 -0.0115541 -5.30193e-22)
(0.0427867 -0.0114985 6.24446e-22)
(0.0430918 -0.0114335 -8.78882e-23)
(0.0433989 -0.0113589 0)
(0.0437077 -0.0112747 -1.22394e-23)
(0.0440179 -0.0111809 0)
(0.0443291 -0.0110772 1.97771e-22)
(0.0446407 -0.0109635 1.1411e-22)
(0.0449523 -0.0108396 -2.72125e-22)
(0.0452636 -0.0107053 0)
(0.0455742 -0.0105605 4.95637e-22)
(0.0458837 -0.0104051 -1.5974e-21)
(0.0461917 -0.0102389 1.16441e-21)
(0.0464979 -0.0100619 -1.6709e-21)
(0.0468018 -0.00987405 3.60434e-22)
(0.0471032 -0.00967526 -4.35741e-22)
(0.0474017 -0.00946552 4.22521e-22)
(0.0476968 -0.0092448 4.90049e-22)
(0.0479881 -0.00901308 -1.54169e-21)
(0.0482753 -0.00877036 -1.106e-21)
(0.0485579 -0.00851667 0)
(0.0488355 -0.00825204 1.27714e-21)
(0.0491077 -0.00797651 6.9723e-22)
(0.0493743 -0.00769014 -2.01482e-21)
(0.0496348 -0.00739295 6.99381e-22)
(0.0498888 -0.00708505 -1.55592e-21)
(0.0501361 -0.0067665 2.33135e-21)
(0.0503763 -0.00643747 -8.63931e-22)
(0.0506093 -0.00609811 4.5013e-22)
(0.0508347 -0.00574849 0)
(0.0510521 -0.00538869 -4.5599e-22)
(0.0512613 -0.0050188 -4.74497e-22)
(0.0514622 -0.00463891 0)
(0.0516545 -0.00424909 5.4507e-22)
(0.0518382 -0.0038496 -8.21966e-22)
(0.0520129 -0.00343916 5.51138e-22)
(0.0521784 -0.00301823 -2.83476e-22)
(0.0523344 -0.00258678 -4.86543e-24)
(0.0524808 -0.00214472 -2.22963e-22)
(0.0526175 -0.00169203 7.26848e-23)
(0.0527444 -0.0012287 2.8993e-22)
(0.052861 -0.000754508 9.61716e-24)
(0.0529673 -0.000269128 1.81816e-21)
(0.053063 0.000227771 0)
(0.053148 0.000736438 1.21029e-21)
(0.053222 0.00125728 -1.90661e-23)
(0.053285 0.00179086 -1.25167e-21)
(0.0533367 0.00233759 0)
(0.0533771 0.00289791 -1.30064e-21)
(0.0534058 0.00347235 1.28832e-21)
(0.0534228 0.00406144 2.56795e-21)
(0.0534276 0.0046659 0)
(0.0534199 0.00528675 -5.32794e-21)
(0.0533994 0.00592511 5.41847e-21)
(0.0533661 0.00658197 -5.47863e-21)
(0.0533196 0.00725863 -9.03361e-23)
(0.0532601 0.00795648 0)
(0.0531872 0.00867683 -2.86784e-21)
(0.0531011 0.00942077 2.81188e-21)
(0.053001 0.0101898 3.07996e-21)
(0.0528863 0.0109857 5.79014e-21)
(0.052757 0.011811 -9.19677e-21)
(0.0526107 0.0126666 6.12412e-21)
(0.0524531 0.0135588 -3.07678e-21)
(0.0522613 0.0144823 3.28319e-21)
(0.0521184 0.0154473 9.51532e-21)
(0.0416346 -0.0122121 -9.22942e-22)
(0.0419495 -0.0121825 1.65115e-22)
(0.0422648 -0.0121426 7.24957e-22)
(0.0425818 -0.0120936 0)
(0.0429004 -0.0120351 -9.88815e-23)
(0.0432201 -0.0119665 0)
(0.0435411 -0.0118877 -3.87527e-23)
(0.0438633 -0.0117987 -8.16e-23)
(0.0441868 -0.0116995 2.20558e-22)
(0.0445111 -0.0115898 -1.41901e-22)
(0.0448358 -0.0114695 -1.40425e-22)
(0.0451606 -0.0113384 -2.22871e-22)
(0.0454849 -0.0111966 0)
(0.0458085 -0.0110438 0)
(0.0461309 -0.0108799 2.94186e-22)
(0.0464517 -0.0107049 3.31908e-22)
(0.0467704 -0.0105186 -8.24715e-22)
(0.0470866 -0.0103211 8.23399e-22)
(0.0473999 -0.0101122 9.3939e-22)
(0.0477099 -0.00989201 -1.04839e-21)
(0.0480163 -0.00966049 2.11501e-21)
(0.0483185 -0.00941763 1.73324e-23)
(0.0486162 -0.00916346 -1.25222e-21)
(0.048909 -0.00889803 -6.82566e-22)
(0.0491965 -0.00862138 -1.41216e-21)
(0.0494784 -0.0083336 1.41456e-21)
(0.0497541 -0.00803477 1.55603e-21)
(0.0500235 -0.007725 -1.56022e-21)
(0.050286 -0.00740439 0)
(0.0505414 -0.00707305 0)
(0.0507895 -0.00673112 2.26846e-21)
(0.0510299 -0.00637876 6.45307e-23)
(0.0512623 -0.00601615 -9.64626e-22)
(0.0514864 -0.0056434 -1.03408e-21)
(0.051702 -0.00526064 1.04107e-21)
(0.0519088 -0.00486799 0)
(0.0521068 -0.00446557 -5.51389e-22)
(0.0522959 -0.00405365 -8.98833e-22)
(0.0524757 -0.00363059 5.8935e-22)
(0.052646 -0.00319716 -8.53191e-24)
(0.0528067 -0.00275331 -4.84109e-23)
(0.0529577 -0.00229902 2.27233e-22)
(0.0530989 -0.00183424 1.60781e-22)
(0.0532301 -0.00135887 3.19653e-22)
(0.0533512 -0.000872739 -1.58481e-21)
(0.053462 -0.000375626 9.16897e-24)
(0.0535624 0.000132741 0)
(0.0536523 0.000652646 -1.347e-21)
(0.0537317 0.00118446 3.99193e-21)
(0.0538003 0.00172864 -2.69525e-21)
(0.0538581 0.00228565 -1.36221e-21)
(0.0539051 0.00285602 -4.48299e-23)
(0.0539411 0.00344033 -1.36759e-21)
(0.053966 0.00403924 -5.161e-23)
(0.0539794 0.00465352 2.77397e-21)
(0.0539812 0.00528407 -2.89185e-21)
(0.0539711 0.00593195 -2.88318e-21)
(0.053949 0.00659819 5.77288e-21)
(0.0539147 0.007284 -3.45541e-23)
(0.0538679 0.00799062 2.98108e-21)
(0.0538086 0.00871933 -2.95614e-21)
(0.0537364 0.00947135 2.96021e-21)
(0.0536511 0.0102482 -6.00008e-21)
(0.053552 0.0110515 -3.14762e-21)
(0.0534394 0.0118835 6.10607e-21)
(0.053311 0.012745 -3.3927e-21)
(0.0531729 0.0136425 -1.00034e-20)
(0.053002 0.0145709 -3.24435e-21)
(0.052887 0.0155366 0)
(0.041675 -0.0127875 0)
(0.0420086 -0.0127566 -1.68622e-22)
(0.0423428 -0.0127149 -3.3052e-23)
(0.0426787 -0.0126635 0)
(0.0430159 -0.0126021 0)
(0.0433537 -0.0125299 1.40734e-23)
(0.0436918 -0.012447 -1.7629e-22)
(0.0440304 -0.0123532 3.21287e-22)
(0.0443695 -0.0122485 -1.59706e-22)
(0.0447088 -0.0121327 1.44563e-22)
(0.0450481 -0.0120057 0)
(0.045387 -0.0118673 2.26968e-22)
(0.0457253 -0.0117176 -3.17155e-22)
(0.0460626 -0.0115563 0)
(0.0463984 -0.0113834 0)
(0.0467323 -0.0111989 4.25404e-22)
(0.047064 -0.0110027 8.12227e-23)
(0.0473929 -0.0107948 -9.44376e-22)
(0.0477187 -0.0105751 -1.04523e-21)
(0.0480408 -0.0103437 1.10144e-21)
(0.0483589 -0.0101006 5.80756e-22)
(0.0486725 -0.00984581 2.63031e-21)
(0.0489811 -0.00957937 4.11455e-23)
(0.0492845 -0.00930137 -7.89799e-22)
(0.0495821 -0.00901189 1.4846e-21)
(0.0498736 -0.00871105 -8.00189e-22)
(0.0501587 -0.00839896 1.63541e-21)
(0.0504369 -0.00807575 0)
(0.0507078 -0.00774157 0)
(0.0509713 -0.00739657 0)
(0.051227 -0.00704093 -4.76362e-22)
(0.0514745 -0.00667482 -1.00509e-21)
(0.0517137 -0.00629844 1.04508e-21)
(0.0519443 -0.00591195 1.11621e-21)
(0.052166 -0.00551551 -1.12337e-21)
(0.0523787 -0.00510928 0)
(0.0525823 -0.00469339 6.17836e-22)
(0.0527766 -0.00426803 -3.15819e-22)
(0.0529614 -0.00383158 0)
(0.0531365 -0.00338495 3.22759e-22)
(0.0533019 -0.00292815 -6.10423e-23)
(0.0534575 -0.00246117 4.07333e-23)
(0.0536031 -0.00198396 -1.62163e-22)
(0.0537389 -0.00149644 0)
(0.0538645 -0.000998473 -6.84709e-22)
(0.0539801 -0.000489842 6.77325e-22)
(0.0540855 2.97243e-05 0)
(0.0541807 0.000560542 -4.52895e-23)
(0.0542656 0.001103 1.92546e-23)
(0.0543403 0.00165755 1.38185e-21)
(0.0544047 0.00222472 0)
(0.0544586 0.00280504 -6.50954e-23)
(0.0545021 0.00339916 -1.41771e-21)
(0.054535 0.00400775 -4.44604e-21)
(0.0545571 0.00463158 -9.30253e-23)
(0.0545682 0.00527154 2.91394e-21)
(0.0545681 0.00592861 0)
(0.0545566 0.00660381 0)
(0.0545335 0.00729827 3.13372e-21)
(0.0544985 0.00801312 0)
(0.0544515 0.00874962 0)
(0.0543922 0.00950899 -3.35921e-23)
(0.0543203 0.0102927 -3.18165e-21)
(0.0542356 0.0111021 -6.63055e-21)
(0.0541382 0.0119395 6.65113e-21)
(0.0540266 0.0128057 -2.77037e-22)
(0.0539067 0.0137067 3.23552e-21)
(0.0537566 0.0146373 3.44518e-21)
(0.0536669 0.0156056 0)
(0.0417133 -0.013396 0)
(0.042065 -0.0133636 1.72144e-22)
(0.0424178 -0.0133197 -2.92513e-22)
(0.0427729 -0.0132657 1.27952e-22)
(0.0431296 -0.013201 0)
(0.0434869 -0.0131251 -1.29719e-22)
(0.0438445 -0.0130378 3.81753e-22)
(0.0442022 -0.0129391 9.22981e-23)
(0.0445598 -0.0128287 -8.35216e-22)
(0.0449169 -0.0127067 1.44181e-22)
(0.0452734 -0.0125728 -2.88437e-22)
(0.0456289 -0.0124269 -3.33277e-22)
(0.0459831 -0.0122689 1.06438e-21)
(0.0463357 -0.0120988 -1.56647e-21)
(0.0466863 -0.0119165 8.24895e-22)
(0.0470347 -0.011722 -5.47507e-22)
(0.0473804 -0.0115153 2.07335e-21)
(0.0477229 -0.0112963 -4.84764e-22)
(0.0480618 -0.0110651 6.71892e-22)
(0.0483967 -0.0108216 -5.93022e-22)
(0.0487272 -0.0105661 8.09711e-23)
(0.0490527 -0.0102985 -4.33074e-21)
(0.0493729 -0.0100188 -8.07424e-22)
(0.0496873 -0.00972734 -7.73001e-23)
(0.0499955 -0.00942409 2.51474e-21)
(0.0502971 -0.00910922 -8.44351e-22)
(0.0505917 -0.0087829 1.86881e-21)
(0.050879 -0.0084453 -2.865e-21)
(0.0511586 -0.0080966 0)
(0.0514302 -0.00773701 -1.04883e-21)
(0.0516935 -0.00736673 1.05272e-21)
(0.0519483 -0.00698597 3.71779e-23)
(0.0521942 -0.00659497 -5.93503e-22)
(0.0524312 -0.00619392 -6.13378e-22)
(0.0526589 -0.00578304 1.87699e-21)
(0.0528773 -0.00536251 -1.25187e-21)
(0.0530862 -0.00493253 1.0001e-21)
(0.0532856 -0.00449307 -1.34472e-21)
(0.0534752 -0.00404289 6.72203e-22)
(0.0536549 -0.00358273 -1.67191e-22)
(0.0538248 -0.00311273 0)
(0.0539847 -0.00263287 1.76877e-22)
(0.0541347 -0.00214311 -1.74886e-22)
(0.0542748 -0.00164335 -3.59774e-22)
(0.054405 -0.00113346 1.08106e-21)
(0.0545253 -0.000613211 -7.28894e-22)
(0.0546355 -8.23312e-05 -7.22988e-22)
(0.0547359 0.00045951 0)
(0.0548264 0.00101271 -3.01038e-21)
(0.0549069 0.00157773 2.98414e-21)
(0.0549775 0.00215509 -1.46854e-21)
(0.0550381 0.00274536 1.4552e-21)
(0.0550887 0.00334917 1.53385e-21)
(0.0551292 0.00396724 3.03131e-21)
(0.0551593 0.00460033 3.03758e-21)
(0.055179 0.00524931 0)
(0.0551879 0.00591513 -3.22587e-21)
(0.055186 0.00659875 0)
(0.0551728 0.00730124 9.70391e-23)
(0.0551484 0.00802369 -3.18511e-21)
(0.0551124 0.00876728 3.25531e-21)
(0.0550647 0.00953316 3.25976e-21)
(0.0550051 0.0103227 -3.43665e-21)
(0.0549336 0.0111373 -1.0747e-22)
(0.0548506 0.0119788 2.83847e-23)
(0.054755 0.0128484 1.04831e-20)
(0.0546523 0.0137508 3.64548e-21)
(0.0545245 0.0146844 3.69959e-21)
(0.054453 0.0156468 -3.64589e-21)
(0.0417539 -0.0140407 0)
(0.0421235 -0.0140063 0)
(0.0424946 -0.0139599 -8.85583e-23)
(0.0428683 -0.0139027 1.27356e-22)
(0.0432442 -0.0138345 -5.6357e-23)
(0.0436211 -0.0137543 0)
(0.0439986 -0.0136622 0)
(0.0443763 -0.013558 2.06089e-22)
(0.0447539 -0.0134416 -5.01146e-22)
(0.0451308 -0.0133129 -1.52682e-22)
(0.0455067 -0.0131717 1.5754e-21)
(0.0458811 -0.0130178 -3.46909e-22)
(0.0462536 -0.0128512 4.2735e-22)
(0.0466239 -0.0126718 -8.69163e-22)
(0.0469917 -0.0124797 5.36559e-22)
(0.0473564 -0.0122746 0)
(0.0477178 -0.0120568 0)
(0.0480755 -0.0118261 4.01072e-23)
(0.0484289 -0.0115826 -2.02244e-21)
(0.0487778 -0.0113265 6.85579e-22)
(0.0491217 -0.0110577 -7.98262e-22)
(0.04946 -0.0107764 7.67556e-22)
(0.0497925 -0.0104827 8.4453e-22)
(0.0501186 -0.0101768 -8.03654e-22)
(0.0504379 -0.00985884 -8.87746e-22)
(0.0507501 -0.00952902 0)
(0.0510547 -0.00918752 0)
(0.0513515 -0.00883458 1.54713e-21)
(0.05164 -0.00847043 0)
(0.0519199 -0.00809532 1.13883e-21)
(0.0521911 -0.0077095 -1.14274e-21)
(0.0524531 -0.00731323 -5.8094e-22)
(0.0527059 -0.00690678 6.00681e-22)
(0.0529491 -0.0064904 1.28162e-21)
(0.0531828 -0.00606436 -6.40785e-22)
(0.0534067 -0.00562888 -6.88922e-22)
(0.0536207 -0.00518421 7.14369e-22)
(0.0538249 -0.00473001 0)
(0.054019 -0.00426555 0)
(0.0542031 -0.00379138 1.87887e-22)
(0.0543771 -0.00330771 0)
(0.0545411 -0.00281454 0)
(0.0546952 -0.00231183 -5.70346e-22)
(0.0548393 -0.0017995 7.61063e-22)
(0.0549736 -0.00127739 -3.89703e-22)
(0.0550981 -0.000745296 7.47662e-22)
(0.0552128 -0.000202946 0)
(0.0553178 0.000349996 2.359e-21)
(0.0554132 0.000913939 -2.14132e-23)
(0.055499 0.00148934 0)
(0.0555751 0.00207674 -3.16706e-21)
(0.0556417 0.00267671 -2.20097e-23)
(0.0556986 0.00328993 -3.16248e-21)
(0.0557457 0.0039171 -1.65218e-21)
(0.0557829 0.00455901 -3.28726e-21)
(0.0558101 0.0052165 3.25611e-21)
(0.055827 0.0058905 3.24506e-21)
(0.0558335 0.00658194 0)
(0.0558293 0.00729184 -3.40464e-21)
(0.0558144 0.00802122 3.52981e-23)
(0.0557884 0.00877119 0)
(0.0557514 0.00954283 0)
(0.0557034 0.0103374 3.45206e-21)
(0.0556445 0.0111561 0)
(0.0555756 0.0120008 0)
(0.0554956 0.0128725 -3.62175e-21)
(0.0554109 0.0137751 -3.54177e-21)
(0.0553032 0.0147096 -3.86212e-21)
(0.0552428 0.0156613 0)
(0.0417987 -0.0147251 0)
(0.0421873 -0.0146884 0)
(0.0425772 -0.014639 0)
(0.0429699 -0.0145782 -5.52629e-23)
(0.0433649 -0.0145057 -1.59385e-22)
(0.0437611 -0.0144207 -1.05839e-22)
(0.0441582 -0.0143231 3.19398e-22)
(0.0445558 -0.0142128 -2.0986e-22)
(0.0449535 -0.0140898 3.19937e-22)
(0.0453507 -0.0139537 6.79617e-22)
(0.0457468 -0.0138045 0)
(0.0461412 -0.013642 0)
(0.0465336 -0.0134661 -4.5384e-23)
(0.0469233 -0.0132769 1.58193e-21)
(0.0473099 -0.0130741 -2.36616e-21)
(0.047693 -0.0128579 -9.56766e-23)
(0.0480721 -0.0126282 1.29314e-21)
(0.0484468 -0.0123851 6.80057e-22)
(0.0488166 -0.0121287 -7.60876e-23)
(0.049181 -0.011859 0)
(0.0495397 -0.0115762 1.69807e-21)
(0.0498922 -0.0112804 0)
(0.0502381 -0.0109718 1.86801e-21)
(0.050577 -0.0106506 -2.92343e-21)
(0.0509083 -0.010317 3.04682e-21)
(0.0512319 -0.00997128 1.09936e-21)
(0.0515472 -0.00961364 -1.68587e-21)
(0.0518539 -0.00924439 1.72474e-21)
(0.0521517 -0.00886382 -1.1581e-21)
(0.0524403 -0.00847222 0)
(0.0527195 -0.0080699 -1.27468e-21)
(0.052989 -0.00765718 -7.06003e-22)
(0.0532486 -0.00723437 1.32002e-21)
(0.0534981 -0.00680179 -1.37988e-21)
(0.0537376 -0.00635974 7.1771e-22)
(0.0539668 -0.0059085 -7.22091e-22)
(0.0541857 -0.00544841 -3.65289e-22)
(0.0543945 -0.00497867 3.93111e-22)
(0.0545927 -0.00449925 1.90834e-22)
(0.0547807 -0.0040105 -5.73524e-22)
(0.0549584 -0.00351265 -5.02305e-23)
(0.0551259 -0.00300572 0)
(0.0552834 -0.0024897 1.9346e-22)
(0.055431 -0.00196451 -3.89615e-22)
(0.0555687 -0.00143 3.922e-22)
(0.0556967 -0.00088597 0)
(0.0558151 -0.000332133 0)
(0.0559239 0.000231848 8.4893e-22)
(0.0560233 0.000806396 -1.63088e-21)
(0.0561134 0.00139198 -3.3588e-21)
(0.0561942 0.00198916 6.65724e-21)
(0.0562657 0.00259853 -1.7095e-21)
(0.0563279 0.00322078 1.67115e-21)
(0.0563808 0.00385662 1.66176e-21)
(0.0564242 0.00450685 -3.44622e-21)
(0.056458 0.00517232 3.413e-21)
(0.056482 0.00585393 0)
(0.0564962 0.0065526 -3.56967e-21)
(0.0565003 0.0072693 3.83804e-23)
(0.0564943 0.00800502 3.52848e-21)
(0.0564779 0.00876079 0)
(0.0564514 0.0095376 0)
(0.0564147 0.0103366 0)
(0.0563683 0.0111588 7.54762e-21)
(0.0563132 0.0120058 3.91945e-21)
(0.0562486 0.0128781 3.84032e-21)
(0.056183 0.0137804 -7.63171e-21)
(0.056094 0.0147129 -1.33519e-22)
(0.0560694 0.0156618 4.05422e-21)
(0.0418484 -0.0154527 0)
(0.0422573 -0.0154134 7.26806e-24)
(0.0426674 -0.0153605 1.99764e-23)
(0.0430802 -0.0152957 -2.22945e-22)
(0.0434952 -0.0152184 3.92066e-22)
(0.0439115 -0.015128 2.27583e-22)
(0.0443285 -0.0150243 2.83471e-22)
(0.0447461 -0.0149072 0)
(0.0451639 -0.0147767 -7.18686e-22)
(0.0455812 -0.0146324 -8.04494e-22)
(0.0459975 -0.0144744 8.69576e-22)
(0.0464122 -0.0143024 -5.52078e-22)
(0.0468247 -0.0141164 6.51045e-22)
(0.0472344 -0.0139163 -4.73655e-22)
(0.0476407 -0.0137021 -2.72692e-21)
(0.0480431 -0.0134738 -1.00563e-22)
(0.0484411 -0.0132314 -9.8892e-23)
(0.0488341 -0.0129749 1.56091e-21)
(0.0492215 -0.0127046 8.1159e-22)
(0.049603 -0.0124204 1.83926e-21)
(0.049978 -0.0121226 -1.75012e-21)
(0.050346 -0.0118113 0)
(0.0507066 -0.0114868 8.79321e-23)
(0.0510594 -0.0111493 0)
(0.0514038 -0.010799 -1.07172e-21)
(0.0517397 -0.0104363 -1.11325e-21)
(0.0520664 -0.0100615 5.7719e-22)
(0.0523838 -0.00967487 0)
(0.0526915 -0.00927681 6.63623e-22)
(0.0529893 -0.00886766 1.33806e-21)
(0.0532768 -0.00844781 -1.3419e-21)
(0.0535539 -0.00801762 6.78342e-22)
(0.0538204 -0.00757748 -1.45835e-21)
(0.0540762 -0.00712775 2.93332e-21)
(0.0543213 -0.0066688 -7.53277e-22)
(0.0545556 -0.00620096 0)
(0.0547791 -0.00572467 -4.14039e-22)
(0.054992 -0.00523862 2.29166e-23)
(0.0551939 -0.00474357 6.12044e-22)
(0.0553852 -0.00423968 -5.1207e-22)
(0.0555659 -0.00372716 1.00002e-22)
(0.0557363 -0.0032061 -3.17241e-22)
(0.0558964 -0.00267648 2.07903e-22)
(0.0560466 -0.00213822 0)
(0.0561869 -0.00159119 0)
(0.0563175 -0.00103518 0)
(0.0564386 -0.000469904 8.76012e-22)
(0.0565503 0.000104994 8.79917e-22)
(0.0566529 0.00068995 0)
(0.0567464 0.00128545 1.72574e-21)
(0.0568309 0.00189208 1.80777e-21)
(0.0569065 0.00251045 1.79422e-21)
(0.0569733 0.00314126 0)
(0.0570312 0.00378527 0)
(0.0570801 0.00444328 -3.60795e-21)
(0.0571201 0.00511616 3.57267e-21)
(0.0571509 0.0058048 0)
(0.0571726 0.00651014 3.58676e-21)
(0.0571849 0.00723313 -3.61678e-21)
(0.0571879 0.00797473 -3.79196e-21)
(0.0571813 0.00873587 3.78959e-21)
(0.0571654 0.00951749 -3.75403e-21)
(0.0571402 0.0103205 0)
(0.0571063 0.0111458 -3.80246e-21)
(0.0570648 0.0119946 1.12292e-22)
(0.0570152 0.0128668 -7.95588e-21)
(0.056967 0.0137671 -8.15225e-21)
(0.0568951 0.0146939 8.04313e-21)
(0.0569129 0.0156269 -4.05752e-21)
(0.0419025 -0.0162266 4.42257e-24)
(0.0423335 -0.0161845 0)
(0.0427654 -0.016128 -2.76977e-23)
(0.0431999 -0.0160588 4.08752e-22)
(0.0436366 -0.0159764 -8.72743e-22)
(0.0440743 -0.0158801 2.35621e-22)
(0.0445126 -0.0157696 -2.88425e-22)
(0.0449513 -0.015645 8.16522e-22)
(0.0453899 -0.0155062 -4.11858e-22)
(0.045828 -0.015353 -4.54378e-22)
(0.0462649 -0.0151852 -5.88028e-22)
(0.0466999 -0.0150027 1.8156e-21)
(0.0471327 -0.0148055 -5.51868e-22)
(0.0475624 -0.0145935 2.21247e-21)
(0.0479886 -0.0143667 8.222e-22)
(0.0484105 -0.0141251 1.05647e-22)
(0.0488277 -0.0138688 -1.6582e-21)
(0.0492394 -0.0135978 0)
(0.0496451 -0.0133123 0)
(0.0500443 -0.0130125 -1.04816e-21)
(0.0504363 -0.0126984 -1.0001e-21)
(0.0508206 -0.0123705 -2.22606e-21)
(0.0511967 -0.0120288 1.1343e-21)
(0.0515642 -0.0116737 2.40079e-21)
(0.0519226 -0.0113055 -2.40005e-21)
(0.0522714 -0.0109246 6.58134e-22)
(0.0526103 -0.0105314 6.79258e-22)
(0.0529389 -0.0101262 0)
(0.0532569 -0.00970942 -6.71097e-22)
(0.0535641 -0.00928155 -1.44864e-21)
(0.0538602 -0.00884302 -3.64463e-23)
(0.0541451 -0.00839426 1.49345e-21)
(0.0544185 -0.00793572 -8.0207e-22)
(0.0546805 -0.00746783 0)
(0.0549311 -0.00699103 4.21464e-22)
(0.0551702 -0.00650571 -4.31848e-22)
(0.0553978 -0.00601224 4.16803e-22)
(0.0556142 -0.00550926 -8.64072e-22)
(0.0558192 -0.0049979 0)
(0.0560131 -0.00447832 -1.12144e-22)
(0.0561961 -0.00395071 1.09782e-22)
(0.0563685 -0.00341516 -1.7117e-22)
(0.0565305 -0.00287167 6.65856e-22)
(0.0566824 -0.0023202 -1.33736e-21)
(0.0568244 -0.00176059 8.86295e-22)
(0.0569567 -0.00119264 9.03211e-22)
(0.0570797 -0.00061605 -8.52875e-22)
(0.0571935 -3.04487e-05 1.86093e-21)
(0.0572984 0.00056462 -1.80175e-21)
(0.0573947 0.00116967 -4.553e-21)
(0.0574823 0.0017853 2.39218e-23)
(0.0575616 0.00241218 -1.80301e-21)
(0.0576326 0.00305103 0)
(0.0576953 0.00370264 0)
(0.0577498 0.00436786 -3.77259e-21)
(0.057796 0.00504758 5.61188e-21)
(0.057834 0.00574272 -3.76004e-21)
(0.0578635 0.00645425 0)
(0.0578845 0.00718311 3.92255e-21)
(0.057897 0.00793026 7.72312e-21)
(0.0579007 0.00869656 -3.84026e-21)
(0.0578959 0.00948286 -7.48905e-23)
(0.0578824 0.0102899 3.94799e-21)
(0.0578609 0.0111181 -3.08767e-23)
(0.0578323 0.0119686 -8.13733e-21)
(0.0577967 0.0128405 8.11553e-21)
(0.0577621 0.0137369 4.09375e-21)
(0.057707 0.0146583 0)
(0.0577559 0.0155653 0)
(0.0419606 -0.0170504 -4.50499e-24)
(0.0424154 -0.0170054 3.00987e-22)
(0.042871 -0.016945 -2.37667e-22)
(0.043329 -0.0168711 0)
(0.0437891 -0.0167832 -1.22423e-22)
(0.0442501 -0.0166804 -7.48245e-22)
(0.0447114 -0.0165627 5.19956e-22)
(0.0451729 -0.0164299 -1.24395e-21)
(0.045634 -0.0162821 9.83821e-22)
(0.0460942 -0.0161191 0)
(0.0465528 -0.0159406 2.53903e-22)
(0.0470093 -0.0157466 0)
(0.0474631 -0.0155371 8.52903e-22)
(0.0479135 -0.0153121 -2.31387e-21)
(0.0483599 -0.0150714 0)
(0.0488018 -0.0148153 0)
(0.0492383 -0.0145438 0)
(0.049669 -0.0142569 -1.54539e-21)
(0.0500931 -0.0139549 2.07255e-21)
(0.05051 -0.0136379 1.06229e-21)
(0.0509192 -0.0133062 0)
(0.05132 -0.01296 0)
(0.0517119 -0.0125997 0)
(0.0520943 -0.0122256 -3.31132e-21)
(0.0524667 -0.011838 3.99489e-21)
(0.0528287 -0.0114375 -2.02666e-21)
(0.0531799 -0.0110243 -1.42794e-21)
(0.0535199 -0.0105991 1.48664e-21)
(0.0538483 -0.0101623 -1.4885e-21)
(0.0541649 -0.00971434 8.02934e-22)
(0.0544696 -0.00925581 -1.60772e-21)
(0.054762 -0.00878721 7.68953e-22)
(0.0550422 -0.00830907 1.67308e-21)
(0.05531 -0.0078219 8.83415e-22)
(0.0555656 -0.0073262 -4.25229e-22)
(0.0558089 -0.00682245 4.3556e-22)
(0.0560401 -0.00631066 0)