/*--------------------------------*- C++ -*----------------------------------*\
| =========                 |                                                 |
| \\      /  F ield         | OpenFOAM: The Open Source CFD Toolbox           |
|  \\    /   O peration     | Version:  2312                                  |
|   \\  /    A nd           | Website:  www.openfoam.com                      |
|    \\/     M anipulation  |                                                 |
\*---------------------------------------------------------------------------*/
FoamFile
{
    version     2.0;
    format      ascii;
    arch        "LSB;label=32;scalar=64";
    class       volScalarField;
    location    "1800";
    object      epsilon;
}
// * * * * * * * * * * * * * * * * * * * * * * * * * * * * * * * * * * * * * //

dimensions      [0 2 -3 0 0 0 0];

internalField   nonuniform List<scalar> 
76025
(
0.000246983
0.000246186
0.000245376
0.000244765
0.000244163
0.000243776
0.000243191
0.000242567
0.000241676
0.00024082
0.000240021
0.000239214
0.000238413
0.000237515
0.000236784
0.000235903
0.000235117
0.000234431
0.000233662
0.000233088
0.000232468
0.000231934
0.000231393
0.00023101
0.000230679
0.000230339
0.000230218
0.000230008
0.000229832
0.00022985
0.000229726
0.000229631
0.000229814
0.000229835
0.000230004
0.000230056
0.000230332
0.000230912
0.000231627
0.000232291
0.000233523
0.000234993
0.000237047
0.000238635
0.00024164
0.000246356
0.000246408
0.000249475
0.000249117
0.000249923
0.000251095
0.000253248
0.000255212
0.000258498
0.000262671
0.000264622
0.000271331
0.000274418
0.000275025
0.000278087
0.000287755
0.000296226
0.000316047
0.000329538
0.000360568
0.00038608
0.000434958
0.000492103
0.000558642
0.000249433
0.000248681
0.000247832
0.000247063
0.000246254
0.000245698
0.000245139
0.00024465
0.000244131
0.000243454
0.000242842
0.000242119
0.000241476
0.000240712
0.000240083
0.000239341
0.000238642
0.000237965
0.000237331
0.000236723
0.000236173
0.000235669
0.000235244
0.000234921
0.000234718
0.000234555
0.000234585
0.000234555
0.000234594
0.000234732
0.000234901
0.000235075
0.000235458
0.000235896
0.00023647
0.000237008
0.000237318
0.00023843
0.000238785
0.000240143
0.000241366
0.000242828
0.000244746
0.000245556
0.000249436
0.000251312
0.000253174
0.00025486
0.000253437
0.000253344
0.000255157
0.000257141
0.000260296
0.000263062
0.000265893
0.00026751
0.000271117
0.000272715
0.000280172
0.000286957
0.000302834
0.000313843
0.000338455
0.000355842
0.00039548
0.000424564
0.000492634
0.000542007
0.000700548
0.000251665
0.000251216
0.000250605
0.00024994
0.000249165
0.000248426
0.000247734
0.000247096
0.000246555
0.000246001
0.000245492
0.000244966
0.000244503
0.000243959
0.000243453
0.000242905
0.000242364
0.000241766
0.000241193
0.000240711
0.000240277
0.000239909
0.000239552
0.000239246
0.000239076
0.00023877
0.000238972
0.000238837
0.000239133
0.000239306
0.000239517
0.00023994
0.000240379
0.000240834
0.000241158
0.000242201
0.000242988
0.000244036
0.000245121
0.000246118
0.000247371
0.000248619
0.000250108
0.000251846
0.000252837
0.000256887
0.00025518
0.000258963
0.000258246
0.000259255
0.000262227
0.000264109
0.00027035
0.000272484
0.000271233
0.000272925
0.000279238
0.000284598
0.000297404
0.000305799
0.000324615
0.000337357
0.000365917
0.000386135
0.000431473
0.000465724
0.000544382
0.000606645
0.000795399
0.000253949
0.000253799
0.000253543
0.000253211
0.000252765
0.000252227
0.00025164
0.000251031
0.000250418
0.000249835
0.000249274
0.000248731
0.000248273
0.000247803
0.000247348
0.000246862
0.000246381
0.000245887
0.000245363
0.000244882
0.000244462
0.000244114
0.000243879
0.000243509
0.000243688
0.000243515
0.0002435
0.000243643
0.000243703
0.000244554
0.000244906
0.000244661
0.0002448
0.000245254
0.000245929
0.00024667
0.000247231
0.000248
0.000248847
0.000249856
0.000251765
0.000253358
0.000255391
0.000256228
0.000260347
0.000262153
0.000261148
0.000262567
0.000265611
0.000267253
0.000273346
0.000275521
0.000273821
0.000274467
0.000279641
0.000284634
0.000294301
0.00030144
0.00031613
0.000326256
0.000348204
0.000363425
0.000397413
0.000421374
0.000475911
0.000517918
0.000615998
0.000693778
0.000929858
0.000256902
0.000256732
0.000256593
0.000256466
0.000256298
0.000256064
0.000255731
0.000255367
0.000254921
0.000254476
0.000254006
0.000253514
0.000253053
0.000252597
0.000252166
0.00025173
0.000251306
0.000250897
0.000250491
0.00025012
0.000249761
0.000249548
0.000249139
0.000249417
0.000249295
0.000249165
0.000249854
0.000250094
0.000249826
0.000250892
0.00025122
0.000250974
0.000251188
0.000251454
0.000252009
0.000252659
0.000253541
0.000254999
0.000256651
0.000257487
0.000261156
0.000262821
0.000262899
0.000263199
0.000264439
0.000267261
0.000268935
0.00027472
0.000277116
0.000278095
0.000276737
0.000278064
0.000282402
0.000287391
0.000294803
0.000301992
0.000312725
0.000322859
0.000338423
0.00035313
0.000376558
0.000397463
0.000436502
0.000465529
0.000533661
0.000585524
0.000706772
0.000806743
0.00108463
0.000261318
0.000260987
0.000260746
0.000260602
0.000260482
0.000260469
0.000260326
0.000260136
0.000259924
0.000259645
0.000259355
0.000259062
0.000258747
0.00025842
0.000258057
0.000257692
0.000257313
0.000256915
0.000256574
0.000256213
0.000256362
0.000256095
0.000256508
0.000256178
0.000256128
0.000255937
0.000256539
0.000256675
0.000257957
0.000258541
0.000259261
0.000259804
0.000260526
0.000259638
0.000259841
0.000259703
0.000260321
0.000261393
0.000263281
0.000265027
0.000267678
0.000270672
0.000271966
0.000277507
0.000280141
0.000282386
0.000280898
0.000279293
0.000280453
0.000283133
0.000287415
0.000292204
0.00029864
0.00030513
0.000314189
0.000322978
0.000335821
0.00034824
0.000366498
0.000385006
0.000411704
0.000439504
0.00048347
0.000522932
0.000606253
0.000671168
0.000828017
0.000959887
0.00124926
0.000267398
0.000266967
0.00026658
0.000266292
0.000266072
0.000265871
0.000266081
0.000266143
0.000266177
0.000266251
0.000265993
0.000265583
0.000265256
0.000264901
0.000264686
0.000264196
0.000264454
0.000264567
0.000264626
0.000264214
0.000264816
0.000264183
0.000264865
0.000265031
0.00026478
0.000265907
0.000266293
0.000265692
0.000266753
0.000266757
0.000268969
0.000269881
0.000271059
0.000272043
0.00027326
0.000274346
0.00027388
0.000273376
0.000274345
0.000276656
0.000278535
0.000282994
0.000285646
0.000288753
0.000291471
0.000291365
0.000290534
0.000292098
0.000295465
0.000299724
0.000305341
0.000311338
0.000319211
0.000327134
0.000338136
0.000348764
0.000364357
0.000379295
0.000401499
0.000424067
0.000456183
0.000492042
0.000543605
0.000599327
0.000699833
0.000786933
0.000994983
0.00115067
0.00158974
0.000275086
0.000274692
0.000274282
0.000273944
0.00027365
0.00027337
0.000273638
0.000273822
0.000273926
0.000274163
0.000273702
0.000274205
0.000274314
0.000274083
0.000273768
0.000274405
0.000274538
0.000274744
0.000273949
0.000274638
0.000274322
0.000275279
0.000275635
0.000274984
0.000275501
0.000275906
0.000276546
0.000277467
0.000277487
0.000279192
0.00027952
0.000282522
0.000283716
0.000282856
0.000284216
0.000284717
0.000289205
0.000291089
0.000293255
0.000295165
0.000293688
0.000292325
0.000292893
0.000294733
0.000297404
0.000300643
0.000304625
0.000309119
0.000314514
0.000320336
0.000327498
0.000334947
0.000344635
0.000354277
0.000367784
0.000380578
0.000399913
0.000417691
0.000445759
0.000472652
0.000513784
0.000559014
0.000622879
0.000703317
0.000819712
0.000957375
0.00119787
0.00141692
0.00185263
0.000285079
0.000284741
0.000284193
0.000283781
0.00028346
0.000283097
0.00028302
0.00028329
0.000283039
0.000282942
0.000283797
0.000284102
0.000283592
0.000284092
0.000284174
0.000284508
0.00028489
0.000285045
0.000285491
0.000285953
0.00028623
0.000288075
0.000288822
0.000289705
0.000290226
0.000290993
0.000291507
0.000290142
0.000289468
0.000289839
0.000291337
0.000292918
0.000295786
0.000297081
0.000301985
0.00030398
0.00030643
0.000303269
0.000308912
0.000306376
0.000305867
0.000307244
0.000309787
0.000313067
0.000317039
0.000321525
0.000326767
0.000332492
0.000339243
0.000346427
0.000355258
0.000364384
0.00037631
0.000388124
0.000404814
0.000420479
0.000444666
0.000466295
0.000502479
0.00053484
0.000590578
0.000645506
0.000735076
0.000838015
0.000993622
0.00117871
0.0014766
0.00173637
0.00234484
0.000297978
0.000297985
0.000297385
0.000296506
0.000296466
0.000296436
0.000296358
0.000296007
0.000296576
0.000296662
0.000296572
0.000296777
0.000296806
0.000298094
0.000298519
0.000298495
0.000298518
0.000300212
0.000300717
0.000301424
0.000299857
0.000301651
0.000300862
0.000301035
0.000302997
0.000304639
0.000305138
0.000307052
0.000307631
0.000311697
0.000313243
0.000315122
0.000312389
0.000316996
0.00031499
0.000314357
0.000315544
0.000317078
0.000319419
0.000322027
0.000325089
0.000328662
0.00033275
0.000337308
0.000342487
0.00034818
0.00035473
0.000361836
0.000370217
0.000379093
0.000390062
0.000401353
0.000416207
0.000430889
0.00045176
0.000471423
0.00050198
0.000529531
0.000576471
0.000618151
0.00069397
0.000764574
0.000891182
0.00102342
0.00123249
0.00148303
0.00180707
0.00224594
0.00269707
0.00031307
0.000313172
0.000314032
0.000313773
0.000314118
0.000314109
0.000314322
0.000313405
0.000314267
0.000314499
0.000313272
0.000314137
0.000313966
0.000314446
0.000314523
0.000316469
0.000315948
0.000317395
0.000317547
0.000317391
0.000319868
0.000320619
0.000321788
0.000322434
0.000320731
0.000320079
0.000320218
0.000321256
0.000322251
0.000323819
0.000325146
0.000326852
0.000328326
0.000330323
0.000332338
0.000334705
0.000337411
0.000340525
0.000344016
0.000347884
0.000352188
0.000356973
0.000362272
0.000368087
0.000374611
0.000381763
0.000389952
0.000398842
0.000409336
0.000420471
0.000434252
0.00044846
0.000467226
0.000485856
0.000512458
0.0005379
0.000577412
0.000614277
0.000676373
0.000733875
0.000837331
0.000933205
0.00111116
0.00127498
0.00157536
0.00184224
0.00232656
0.00269698
0.00349055
0.000331896
0.000331696
0.000331948
0.000331692
0.000333115
0.000332908
0.000332656
0.000333189
0.000334033
0.000334456
0.000336148
0.000335066
0.000336291
0.000336076
0.000336049
0.000337099
0.000338959
0.0003402
0.000339547
0.000342809
0.000343979
0.00034537
0.00034231
0.000345696
0.000343261
0.000342261
0.000342643
0.000343803
0.000345354
0.000347236
0.000349337
0.000351696
0.000354286
0.000357164
0.000360327
0.000363828
0.000367672
0.000371878
0.000376491
0.000381533
0.000387075
0.000393192
0.000399923
0.000407308
0.000415555
0.000424625
0.000434969
0.000446266
0.000459558
0.000473803
0.00049136
0.000509705
0.000533875
0.000558328
0.000593207
0.000627544
0.000680507
0.000732168
0.000816799
0.00089974
0.00104041
0.00117728
0.00141286
0.00163311
0.00201325
0.00234578
0.00291716
0.00338597
0.00416395
0.000357211
0.000357466
0.000357951
0.000358169
0.000359213
0.000360683
0.000361158
0.000361704
0.000360219
0.000361187
0.000360694
0.000361448
0.000362405
0.000362515
0.000365767
0.000366656
0.000368156
0.000365881
0.000368914
0.000366955
0.000365934
0.000366317
0.000366763
0.000367919
0.000369116
0.000370576
0.000372368
0.000374481
0.000376884
0.000379568
0.00038253
0.000385781
0.000389338
0.000393224
0.000397457
0.000402089
0.00040711
0.000412568
0.000418519
0.000425003
0.00043211
0.000439945
0.000448555
0.000458027
0.000468585
0.000480268
0.000493541
0.000508209
0.000525357
0.000544113
0.000567018
0.000591665
0.000623756
0.00065752
0.000704954
0.000753816
0.000827499
0.000902529
0.00102098
0.00114083
0.00133317
0.00152355
0.00183054
0.00211732
0.00258668
0.00298544
0.00366386
0.00416906
0.00510678
0.000386581
0.00038695
0.000387542
0.000388195
0.000389096
0.000390881
0.000392517
0.00039431
0.000395917
0.000396236
0.00039961
0.000398624
0.000400425
0.000401597
0.000398324
0.000401643
0.000399076
0.000397605
0.000397806
0.000398478
0.000399504
0.000400924
0.000402624
0.00040462
0.000406878
0.000409404
0.000412206
0.000415293
0.000418676
0.000422365
0.000426379
0.000430736
0.000435467
0.000440591
0.00044616
0.000452191
0.000458715
0.000465795
0.000473509
0.000481917
0.000491138
0.000501315
0.000512518
0.000524903
0.000538721
0.000554151
0.000571669
0.000591343
0.000614262
0.000640013
0.000671165
0.000706039
0.00075059
0.000799894
0.000866959
0.000939746
0.00104457
0.00115561
0.00132148
0.00149229
0.00175098
0.00200651
0.00239716
0.00275533
0.00332232
0.00378287
0.00457173
0.0051157
0.00616459
0.000429374
0.00043061
0.000430841
0.000434087
0.000432482
0.000435299
0.00043387
0.00043356
0.000434215
0.000434641
0.000435582
0.000436322
0.000436807
0.000437717
0.000438226
0.000439292
0.000440303
0.000441515
0.000443072
0.000444941
0.000447094
0.000449529
0.00045224
0.000455231
0.000458509
0.000462086
0.000465977
0.000470198
0.00047477
0.000479715
0.000485059
0.000490839
0.000497083
0.000503843
0.000511158
0.000519064
0.00052763
0.000536944
0.000547117
0.000558242
0.000570493
0.000584069
0.000599094
0.000615831
0.00063462
0.00065584
0.000680066
0.000707756
0.00074008
0.000777397
0.000822213
0.000874146
0.000939068
0.00101385
0.00111142
0.00122145
0.00137083
0.00153339
0.0017607
0.00199721
0.00233348
0.00266473
0.0031436
0.00357854
0.0042395
0.0047615
0.00565915
0.00621578
0.00746336
0.000488411
0.00048652
0.00048521
0.000485301
0.000485422
0.000486107
0.000486841
0.00048777
0.000488969
0.000490225
0.000491592
0.000493055
0.000494549
0.000496193
0.000497955
0.000499923
0.000502102
0.000504519
0.000507202
0.000510163
0.000513411
0.000516958
0.000520815
0.000524998
0.000529526
0.000534418
0.000539701
0.000545401
0.00055155
0.000558183
0.000565347
0.000573078
0.000581448
0.0005905
0.000600293
0.000610919
0.000622488
0.000635133
0.000649026
0.000664322
0.000681298
0.000700246
0.000721419
0.000745251
0.000772285
0.000803194
0.00083881
0.000880108
0.00092854
0.000985311
0.0010532
0.00113303
0.00123041
0.00134433
0.00148684
0.00164964
0.00185854
0.00208755
0.00238903
0.002702
0.00312346
0.00353442
0.00410184
0.00461286
0.00535805
0.00594591
0.00692645
0.0075246
0.00895225
0.000562829
0.000561153
0.000560278
0.000560363
0.000561072
0.000562235
0.000563723
0.000565466
0.000567435
0.000569576
0.000571869
0.000574316
0.000576914
0.000579688
0.000582657
0.000585852
0.000589297
0.000593018
0.000597039
0.00060138
0.000606064
0.000611113
0.000616552
0.000622408
0.000628712
0.000635498
0.000642807
0.000650682
0.000659175
0.000668345
0.000678251
0.000688993
0.000700614
0.000713223
0.000726952
0.000741956
0.000758419
0.000776565
0.000796674
0.000819027
0.00084408
0.000872295
0.000904152
0.000940373
0.000981833
0.0010296
0.00108494
0.00114938
0.00122481
0.00131325
0.00141769
0.00154008
0.00168581
0.00185467
0.00205764
0.00228786
0.00256955
0.00287566
0.00325988
0.00365262
0.00416253
0.00464746
0.0053027
0.00587776
0.00670257
0.0073509
0.00839526
0.00908533
0.0104817
0.000663572
0.000664631
0.000665759
0.000667301
0.000669208
0.000671427
0.000673929
0.000676694
0.00067971
0.000682966
0.000686458
0.000690189
0.000694169
0.000698417
0.000702952
0.000707801
0.000712991
0.000718553
0.000724516
0.000730915
0.000737784
0.000745162
0.000753089
0.000761611
0.000770781
0.000780656
0.000791302
0.000802797
0.000815217
0.000828687
0.000843273
0.000859112
0.000876369
0.000895236
0.000915944
0.000938759
0.000964002
0.000992057
0.00102338
0.00105847
0.00109805
0.00114283
0.00119361
0.00125148
0.00131772
0.00139384
0.00148152
0.00158279
0.00169991
0.00183541
0.00199234
0.00217323
0.00238281
0.0026215
0.00289884
0.00320693
0.00356896
0.00395569
0.0044238
0.00489165
0.00548667
0.00603219
0.00677228
0.00739228
0.00830065
0.00898958
0.0101333
0.0108655
0.0126815
0.000818987
0.000821743
0.000824522
0.000827636
0.000831029
0.000834682
0.000838614
0.000842844
0.00084739
0.000852266
0.00085749
0.000863081
0.000869065
0.00087547
0.000882329
0.00088968
0.000897561
0.00090602
0.000915105
0.00092487
0.000935374
0.000946684
0.000958872
0.000972016
0.000986212
0.00100155
0.00101817
0.00103617
0.00105569
0.00107691
0.00110005
0.00112534
0.00115308
0.00118358
0.00121723
0.00125446
0.00129579
0.00134181
0.00139321
0.00145075
0.00151546
0.00158831
0.00167041
0.00176321
0.00186831
0.00198753
0.00212284
0.00227649
0.00245087
0.00264851
0.00287232
0.0031245
0.00340915
0.00372611
0.00408362
0.00447287
0.00491616
0.0053786
0.00592358
0.00645455
0.00712537
0.00771388
0.00853473
0.00918627
0.0101749
0.0109439
0.0121237
0.0132391
0.0146366
0.00106209
0.0010667
0.0010714
0.00107657
0.0010821
0.00108799
0.00109428
0.00110102
0.00110825
0.00111602
0.00112438
0.00113336
0.00114304
0.00115345
0.00116466
0.00117674
0.00118976
0.0012038
0.00121892
0.00123523
0.00125283
0.0012718
0.0012923
0.0013144
0.00133826
0.00136406
0.00139201
0.00142232
0.00145526
0.00149112
0.00153022
0.00157294
0.0016197
0.00167098
0.00172734
0.00178939
0.00185785
0.00193354
0.00201733
0.00211026
0.00221358
0.00232844
0.00245618
0.00259846
0.00275701
0.00293371
0.00313052
0.00334954
0.00359289
0.00386263
0.00416114
0.00448971
0.00485183
0.00524575
0.00567963
0.00614193
0.00665635
0.0071838
0.00779215
0.00836953
0.00910641
0.00971833
0.0106361
0.0112859
0.0124479
0.0132094
0.0148254
0.0157358
0.0187756
0.00149627
0.00150566
0.00151516
0.00152528
0.00153588
0.00154697
0.00155862
0.00157091
0.00158392
0.00159774
0.00161243
0.00162809
0.00164481
0.00166268
0.00168179
0.00170223
0.00172412
0.00174761
0.00177287
0.00179997
0.00182932
0.00186108
0.00189543
0.00193257
0.00197269
0.00201605
0.00206291
0.00211359
0.00216841
0.00222779
0.00229216
0.00236202
0.00243794
0.00252054
0.00261053
0.0027087
0.00281594
0.00293321
0.00306155
0.00320215
0.00335634
0.00352529
0.00371037
0.00391317
0.00413524
0.0043782
0.0046436
0.00493304
0.005248
0.00558979
0.00596001
0.00635892
0.00678946
0.0072483
0.00774442
0.00826283
0.0088317
0.00940511
0.0100624
0.0106749
0.0114685
0.0121119
0.0131444
0.0138276
0.0152502
0.0161802
0.0182102
0.0198349
0.0231283
0.00238403
0.00240198
0.00242003
0.00243885
0.00245826
0.00247826
0.00249896
0.00252048
0.00254295
0.00256647
0.00259119
0.00261722
0.00264472
0.00267382
0.00270465
0.00273756
0.00277287
0.00281075
0.00285137
0.00289496
0.00294155
0.0029914
0.0030448
0.00310206
0.0031635
0.00322949
0.00330042
0.00337671
0.00345883
0.00354729
0.00364268
0.0037456
0.00385676
0.0039769
0.00410685
0.0042475
0.00439983
0.00456487
0.00474363
0.00493733
0.00514712
0.00537395
0.00561893
0.00588333
0.00616827
0.00647481
0.00680386
0.00715635
0.00753291
0.00793424
0.00836092
0.00881303
0.00929248
0.00979646
0.0103338
0.0108889
0.0114945
0.0121006
0.0127981
0.013453
0.0143154
0.0150469
0.0162542
0.0170986
0.019032
0.0202641
0.0234213
0.0257635
0.032653
0.00419789
0.00422665
0.00425576
0.00428594
0.00431687
0.00434849
0.0043809
0.00441422
0.00444858
0.0044842
0.00452123
0.00455985
0.00460022
0.00464254
0.00468704
0.00473375
0.0047828
0.00483451
0.0048892
0.00494725
0.00500898
0.00507478
0.00514502
0.0052201
0.00530048
0.00538661
0.00547901
0.0055782
0.00568478
0.00579932
0.00592258
0.00605512
0.00619785
0.00635148
0.00651705
0.00669535
0.00688749
0.00709442
0.00731704
0.0075564
0.0078133
0.00808832
0.00838212
0.00869533
0.00902839
0.00938167
0.0097554
0.0101499
0.0105652
0.0110022
0.0114602
0.0119415
0.0124457
0.0129758
0.0135357
0.0141198
0.0147569
0.0154039
0.0161648
0.0169105
0.0179278
0.0188876
0.020429
0.0218172
0.0244701
0.0266514
0.0319094
0.0366289
0.0455312
0.00769376
0.00772875
0.00776313
0.00779791
0.00783316
0.00786849
0.00790402
0.00793975
0.00797626
0.00801428
0.00805357
0.00809425
0.00813646
0.00818042
0.0082264
0.00827469
0.00832558
0.00837941
0.00843652
0.00849729
0.00856214
0.00863145
0.00870569
0.00878538
0.00887097
0.00896305
0.0090621
0.00916866
0.00928337
0.00940671
0.00953999
0.00968279
0.00983722
0.0100031
0.0101827
0.0103752
0.0105837
0.0108078
0.0110489
0.011308
0.0115853
0.0118807
0.0121943
0.0125263
0.012877
0.0132465
0.0136349
0.0140427
0.0144701
0.0149194
0.0153897
0.015887
0.0164085
0.0169682
0.0175594
0.0182027
0.018904
0.0196597
0.0205799
0.0215743
0.0229626
0.024431
0.0267361
0.0290761
0.0332763
0.0373686
0.0462417
0.0527955
0.0680168
0.0135579
0.0135758
0.0135935
0.0136119
0.0136312
0.0136498
0.0136686
0.0136876
0.0137076
0.013729
0.0137506
0.0137729
0.0137961
0.0138206
0.0138468
0.0138751
0.0139057
0.013939
0.0139751
0.0140142
0.0140576
0.0141031
0.0141541
0.0142122
0.0142756
0.0143484
0.014427
0.0145124
0.0146026
0.0147012
0.0148119
0.0149344
0.0150714
0.0152218
0.0153883
0.015569
0.015768
0.0159837
0.0162174
0.0164697
0.0167405
0.0170296
0.0173371
0.0176627
0.018007
0.0183704
0.0187545
0.019161
0.0195926
0.0200534
0.0205466
0.0210804
0.0216579
0.0222974
0.022995
0.0237846
0.0246591
0.0256989
0.0270153
0.0286061
0.0307231
0.0332752
0.036784
0.0412297
0.0478137
0.0562475
0.0686991
0.0799008
0.0997879
0.022786
0.0227779
0.0227705
0.0227648
0.0227596
0.0227547
0.0227506
0.0227473
0.0227445
0.022741
0.0227371
0.0227332
0.0227294
0.022726
0.022723
0.0227202
0.0227172
0.0227129
0.0227015
0.0226888
0.0226693
0.0225698
0.0225319
0.0225354
0.0225262
0.0226266
0.0226593
0.0226719
0.0225733
0.0225164
0.0225128
0.0225484
0.0226062
0.0226863
0.0227883
0.022913
0.0230564
0.0232183
0.0233967
0.0235916
0.0238026
0.0240319
0.0242835
0.024563
0.0248752
0.0252264
0.0256213
0.0260673
0.0265699
0.027134
0.0277684
0.0284784
0.0292786
0.0301712
0.0311714
0.032271
0.033528
0.0351658
0.037339
0.0400146
0.0434643
0.0478699
0.054123
0.063159
0.0755618
0.0921226
0.111397
0.13315
0.159119
0.0355259
0.0354851
0.0354389
0.0353967
0.0353521
0.035309
0.0352668
0.035226
0.035186
0.0351493
0.035114
0.0350795
0.0350456
0.0350119
0.0349785
0.034945
0.0349113
0.034877
0.0348409
0.0348047
0.0347691
0.0347317
0.0346983
0.0346695
0.0346437
0.034625
0.0346072
0.03459
0.0345696
0.034543
0.0344577
0.0344125
0.0341459
0.0339571
0.033904
0.0339314
0.0340092
0.0341239
0.0342741
0.0344632
0.0346917
0.0349757
0.0353269
0.0357571
0.0362687
0.0368694
0.0375516
0.0383246
0.0391693
0.0400945
0.0410667
0.0421029
0.0431785
0.0442797
0.0454222
0.0466178
0.0479345
0.0512529
0.0561275
0.061806
0.0693018
0.0801291
0.0960952
0.117659
0.14562
0.178966
0.212721
0.250933
0.27325
0.0633913
0.0633579
0.0630122
0.0631033
0.0629028
0.0628252
0.062804
0.0628145
0.0627842
0.0629156
0.0629595
0.0629822
0.0629928
0.0629833
0.0629671
0.0629295
0.0628847
0.0628203
0.0627661
0.0626997
0.0626209
0.0625312
0.0624276
0.0623079
0.0621553
0.0620119
0.0618461
0.0616616
0.0614598
0.0612407
0.060998
0.060737
0.0604569
0.0601635
0.0598615
0.0595527
0.0592379
0.0589321
0.0587383
0.0586273
0.0583038
0.0581613
0.0583428
0.0587733
0.0594163
0.0602284
0.0611979
0.0623135
0.0635751
0.0649848
0.0665793
0.0683887
0.0705289
0.0729323
0.0757593
0.0791293
0.0835099
0.0877179
0.0926572
0.101653
0.114899
0.134482
0.160896
0.194213
0.233646
0.273378
0.309998
0.345927
0.355325
0.193777
0.195941
0.196647
0.19641
0.196812
0.197214
0.197829
0.198324
0.198994
0.199372
0.200078
0.200293
0.201075
0.201012
0.201985
0.201679
0.202443
0.201864
0.203648
0.203967
0.204382
0.204627
0.204762
0.204771
0.202762
0.204052
0.202819
0.201636
0.20061
0.199651
0.198686
0.19775
0.196792
0.19584
0.194858
0.193849
0.192774
0.191637
0.190401
0.189041
0.187511
0.185779
0.183826
0.181615
0.179136
0.176332
0.173181
0.169613
0.165592
0.161032
0.155905
0.150124
0.143673
0.136433
0.128429
0.11959
0.11006
0.100171
0.0901534
0.0806139
0.0717919
0.0647761
0.0596503
0.058549
0.0600659
0.0638797
0.0711443
0.0814688
0.0889135
0.000260807
0.000261124
0.00026141
0.000261603
0.000261848
0.000261953
0.000262154
0.000262532
0.000263148
0.000263893
0.000264347
0.000265433
0.000266041
0.000266222
0.000266025
0.0002657
0.000266385
0.000266537
0.000266385
0.000266085
0.000266636
0.000267271
0.000267216
0.000267738
0.000267601
0.00026749
0.000268139
0.000268378
0.000268137
0.000268173
0.00026906
0.000269593
0.000269571
0.000267991
0.000267289
0.000266558
0.000266396
0.000265833
0.000264853
0.000263903
0.000263118
0.000262566
0.00026185
0.000260151
0.000259292
0.000257937
0.000256825
0.000255799
0.000254437
0.00025333
0.000252724
0.000252068
0.000251578
0.000251221
0.000250743
0.000250219
0.000249442
0.000248552
0.000247747
0.000262513
0.000262773
0.000262963
0.000263188
0.000263399
0.000263648
0.000264063
0.000264652
0.000265437
0.000266099
0.000266515
0.000266748
0.000267018
0.000266821
0.000266657
0.000266588
0.000267153
0.000267104
0.000266839
0.000266806
0.000267724
0.000267969
0.000267876
0.000268239
0.000268009
0.00026798
0.000268601
0.00026885
0.000268508
0.000268509
0.000269383
0.000269888
0.000269847
0.00026846
0.000267711
0.000266944
0.000266753
0.00026636
0.000265413
0.000264399
0.000263629
0.000263091
0.000262568
0.00026132
0.000260268
0.000259193
0.000258027
0.000257074
0.000256138
0.000254672
0.000253723
0.000252958
0.000252356
0.000251912
0.000251617
0.000251318
0.000251007
0.000250529
0.000250028
0.000264998
0.00026519
0.000265375
0.000265679
0.00026606
0.000266619
0.000267204
0.000267642
0.000267974
0.00026807
0.000268172
0.000268247
0.000268241
0.000268218
0.000268047
0.000268381
0.000268481
0.000268379
0.000268007
0.000268619
0.000269171
0.000269228
0.000269148
0.000269275
0.000268964
0.000269089
0.000269674
0.000269819
0.000269504
0.000269446
0.000270391
0.000270869
0.000270873
0.000269549
0.000268709
0.000267925
0.000267612
0.000267276
0.000266578
0.000265478
0.000264571
0.000264022
0.000263661
0.00026291
0.000261794
0.000260838
0.000259764
0.000258812
0.000258046
0.000257016
0.00025583
0.0002548
0.000253975
0.00025333
0.000252906
0.00025258
0.000252379
0.000252126
0.000251905
0.00026839
0.000268693
0.000269019
0.000269458
0.000269779
0.000269801
0.000270036
0.000270337
0.000270702
0.00027053
0.000270625
0.000270469
0.000270709
0.000270532
0.000270466
0.000270686
0.000270748
0.000270423
0.000270289
0.000271111
0.000271373
0.00027139
0.000271189
0.000271136
0.000270811
0.000271119
0.000271478
0.000271644
0.000271219
0.000271137
0.000272015
0.0002724
0.000272289
0.000271325
0.00027045
0.000269626
0.000269222
0.000268904
0.000268359
0.000267388
0.000266386
0.000265684
0.000265334
0.000264871
0.000264005
0.000263094
0.000262114
0.000261179
0.000260423
0.000259686
0.000258776
0.000257779
0.000256845
0.000256001
0.000255337
0.000254799
0.000254464
0.000254165
0.00025399
0.000273313
0.000273411
0.000273676
0.000273682
0.00027369
0.000273775
0.000273944
0.000274134
0.000273942
0.000273894
0.000273987
0.000274089
0.000273792
0.000273812
0.000273767
0.000273818
0.000273737
0.000273516
0.000273944
0.000274258
0.000274354
0.000274282
0.000273973
0.00027376
0.000273498
0.000273829
0.00027409
0.000274217
0.00027373
0.000273641
0.000274468
0.000274779
0.000274665
0.000273836
0.000272943
0.000272105
0.000271637
0.000271301
0.000270838
0.000270048
0.000269054
0.000268206
0.000267748
0.000267417
0.00026688
0.000266103
0.000265224
0.000264337
0.00026355
0.000262889
0.000262228
0.000261455
0.000260646
0.000259811
0.000259063
0.000258358
0.000257836
0.000257351
0.000257038
0.000278286
0.000278563
0.000278572
0.000278362
0.000278343
0.000278425
0.000278473
0.000278613
0.000278564
0.000278587
0.000278551
0.000278116
0.000278057
0.000278064
0.000278082
0.000278297
0.000277907
0.00027784
0.000278174
0.000278314
0.000278313
0.000278202
0.000277728
0.000277406
0.000277208
0.000277522
0.000277728
0.000277807
0.000277254
0.000277167
0.000277927
0.000278164
0.000278043
0.000277333
0.000276433
0.000275582
0.000275054
0.000274694
0.000274277
0.000273646
0.000272766
0.000271835
0.000271205
0.000270851
0.0002705
0.000270001
0.000269273
0.00026848
0.000267709
0.000267034
0.000266454
0.000265869
0.000265252
0.000264573
0.000263911
0.000263213
0.000262632
0.000262028
0.000261589
0.000285217
0.00028531
0.000285692
0.000285591
0.000285606
0.00028539
0.000285621
0.000285176
0.000284843
0.000284445
0.000284031
0.000284005
0.000283984
0.000284022
0.000284129
0.000283785
0.000283551
0.000283571
0.000283543
0.000283744
0.000283663
0.000283173
0.000282631
0.000282283
0.000282149
0.000282358
0.00028248
0.000282513
0.000281874
0.000281787
0.000282474
0.000282643
0.000282514
0.000281911
0.000281015
0.000280165
0.000279589
0.000279205
0.000278816
0.000278313
0.000277579
0.000276697
0.000275941
0.000275483
0.000275145
0.000274846
0.000274427
0.000273796
0.000273094
0.000272416
0.000271815
0.000271282
0.000270793
0.000270272
0.000269777
0.000269203
0.000268716
0.000268124
0.000267693
0.00029405
0.000294133
0.000294187
0.000293612
0.000293488
0.000293259
0.000292469
0.000292229
0.000292092
0.000292108
0.00029205
0.00029219
0.000292355
0.00029187
0.000291526
0.000291223
0.000291111
0.000291106
0.000290993
0.000290786
0.000290339
0.000289643
0.000289085
0.000288705
0.000288598
0.000288695
0.000288798
0.000288719
0.000288015
0.00028793
0.000288533
0.000288628
0.000288488
0.000287961
0.000287108
0.000286244
0.000285626
0.000285206
0.000284832
0.000284409
0.000283844
0.000283054
0.000282256
0.00028165
0.000281313
0.000280969
0.000280685
0.000280366
0.000279923
0.000279408
0.000278894
0.000278368
0.000277895
0.000277415
0.000277011
0.000276543
0.000276187
0.000275679
0.000275288
0.000304443
0.000304341
0.000303626
0.000303413
0.000303228
0.00030315
0.000303209
0.000303905
0.000303335
0.000303689
0.000302961
0.000302525
0.000301969
0.000301468
0.000301135
0.000300909
0.000300743
0.000300522
0.000300081
0.000299485
0.000298747
0.000297945
0.00029735
0.000296945
0.000296852
0.000296863
0.000296888
0.000296601
0.00029583
0.000295737
0.000296249
0.000296275
0.000296127
0.000295658
0.000294889
0.000294008
0.000293365
0.000292929
0.000292586
0.000292231
0.000291779
0.000291167
0.000290404
0.00028977
0.000289225
0.000289183
0.000288995
0.000288681
0.000288231
0.000287703
0.000287255
0.000286979
0.000286675
0.000286295
0.000285969
0.000285556
0.000285249
0.000284939
0.000284913
0.000319113
0.000319158
0.000319034
0.000319192
0.000319723
0.000318951
0.000318376
0.000317868
0.000317078
0.000316442
0.000315633
0.000314993
0.000314402
0.000313945
0.000313591
0.000313235
0.000312801
0.000312199
0.000311377
0.00031048
0.000309527
0.00030864
0.000308006
0.000307602
0.000307508
0.000307483
0.000307284
0.000306824
0.000306009
0.000305898
0.000306301