/*--------------------------------*- C++ -*----------------------------------*\
| =========                 |                                                 |
| \\      /  F ield         | OpenFOAM: The Open Source CFD Toolbox           |
|  \\    /   O peration     | Version:  2312                                  |
|   \\  /    A nd           | Website:  www.openfoam.com                      |
|    \\/     M anipulation  |                                                 |
\*---------------------------------------------------------------------------*/
FoamFile
{
    version     2.0;
    format      ascii;
    arch        "LSB;label=32;scalar=64";
    class       volScalarField;
    location    "1800";
    object      k;
}
// * * * * * * * * * * * * * * * * * * * * * * * * * * * * * * * * * * * * * //

dimensions      [0 2 -2 0 0 0 0];

internalField   nonuniform List<scalar> 
76025
(
0.0018994
0.00189548
0.00189147
0.00188882
0.00188624
0.00188504
0.00188301
0.00188126
0.00187816
0.00187552
0.00187278
0.00186993
0.00186687
0.0018629
0.00186053
0.00185731
0.00185535
0.00185325
0.00185128
0.00184935
0.0018476
0.00184597
0.00184396
0.00184296
0.00184109
0.0018409
0.00184161
0.00184141
0.00184101
0.00184172
0.00184241
0.00184231
0.00184466
0.00184533
0.00184767
0.00184976
0.00185203
0.00185851
0.00186328
0.00186837
0.00187534
0.00188185
0.00189401
0.00190266
0.00191554
0.00192416
0.00194134
0.00195556
0.00197093
0.00198667
0.00199632
0.00201219
0.00203132
0.00204173
0.00207458
0.00208922
0.00208723
0.00210065
0.00214011
0.00218073
0.00224521
0.00229541
0.00240809
0.00248364
0.00265658
0.0027745
0.00305114
0.00324672
0.0035913
0.00191487
0.00191176
0.00190791
0.00190439
0.00190063
0.00189805
0.00189534
0.00189334
0.00189133
0.00188928
0.00188746
0.00188529
0.00188346
0.00188082
0.00187888
0.00187633
0.00187438
0.00187243
0.0018709
0.0018694
0.00186806
0.00186703
0.00186589
0.00186599
0.00186534
0.00186522
0.0018654
0.00186845
0.00186964
0.00186864
0.0018691
0.0018706
0.00187302
0.0018759
0.00187865
0.0018822
0.00188702
0.00189126
0.00189762
0.001903
0.00191305
0.00192179
0.00193372
0.00194077
0.00194604
0.00195311
0.00196443
0.00197985
0.00199276
0.00200877
0.00201656
0.00204508
0.00205454
0.00205049
0.00205525
0.00207265
0.00210622
0.00214651
0.00219852
0.0022503
0.00232872
0.00239619
0.00252635
0.00261636
0.00281599
0.00296243
0.00328317
0.00352356
0.00419681
0.00192845
0.00192732
0.00192515
0.00192267
0.00191961
0.00191667
0.00191365
0.00191089
0.00190846
0.00190617
0.0019045
0.00190262
0.00190129
0.00189964
0.0018981
0.0018965
0.0018947
0.00189296
0.00189153
0.00188927
0.00188977
0.00188819
0.00188915
0.00188836
0.00188727
0.00189021
0.00189117
0.00189133
0.00189626
0.00189819
0.00189743
0.00189902
0.00190183
0.00190731
0.00191145
0.00191772
0.00192689
0.00193336
0.00194123
0.00194832
0.00194718
0.00194749
0.00195035
0.00195904
0.00196983
0.0019787
0.001999
0.00201196
0.00202681
0.00203873
0.00203683
0.00203926
0.00205357
0.00207831
0.00210767
0.00214444
0.00218427
0.00223167
0.00228872
0.00235047
0.00243828
0.00251799
0.00265907
0.00276445
0.00299274
0.00315655
0.00352722
0.00380898
0.00456053
0.0019433
0.00194385
0.0019433
0.00194218
0.00194049
0.0019385
0.00193637
0.00193405
0.00193172
0.00192936
0.00192729
0.0019252
0.00192344
0.00192164
0.00192023
0.00191874
0.00191744
0.00191599
0.00191446
0.00191363
0.0019137
0.00191388
0.00191382
0.00191672
0.00191766
0.00191713
0.00192141
0.00192324
0.00192667
0.0019294
0.00193268
0.00193556
0.00193274
0.00193319
0.00193671
0.00194322
0.00194959
0.00196102
0.00196695
0.0019866
0.00199427
0.00200234
0.00198913
0.00200785
0.00199896
0.0019984
0.00200482
0.00201562
0.0020292
0.00204604
0.00206633
0.00209031
0.00211754
0.00214809
0.00218272
0.0022225
0.00226902
0.0023225
0.00238837
0.00246031
0.00255902
0.00265541
0.00281116
0.00294383
0.00320024
0.00339453
0.00384141
0.00417007
0.00503827
0.00196343
0.00196255
0.00196195
0.00196095
0.00196158
0.00196049
0.0019591
0.00195789
0.00195659
0.00195504
0.00195363
0.00195243
0.00195129
0.00194998
0.00194868
0.00194757
0.00194554
0.00194618
0.00194444
0.00194616
0.00194665
0.00194752
0.00194817
0.00194797
0.00194923
0.00194969
0.00195622
0.00195835
0.00195668
0.00195693
0.00195821
0.00196156
0.00196584
0.00197128
0.00197916
0.00198385
0.00200082
0.00200819
0.00201644
0.00200654
0.00202521
0.00201694
0.00201501
0.00202022
0.00202883
0.00204063
0.00205481
0.00207164
0.002091
0.00211313
0.00213739
0.00216499
0.00219532
0.00223055
0.00227012
0.00231647
0.00237033
0.00243221
0.00250891
0.00259203
0.00270692
0.00281942
0.0029996
0.00315848
0.00345291
0.00369665
0.00421736
0.00460467
0.00558251
0.00198933
0.00198814
0.00198668
0.00198759
0.0019882
0.0019884
0.00198855
0.00198864
0.00198772
0.00198875
0.00198734
0.00198505
0.00198333
0.00198186
0.00198043
0.00198105
0.0019797
0.00198187
0.0019823
0.00198363
0.00198455
0.00198592
0.00198716
0.00198526
0.00198654
0.00198959
0.00199132
0.00200048
0.00200349
0.00200116
0.00200144
0.00200537
0.00200928
0.00202176
0.00202931
0.00203795
0.00203167
0.00205019
0.0020433
0.00204152
0.00204568
0.00205305
0.00206278
0.00207472
0.00208893
0.00210536
0.00212381
0.00214443
0.00216707
0.00219234
0.00222022
0.00225192
0.00228716
0.00232807
0.00237402
0.00242815
0.00249032
0.0025632
0.00265119
0.00275027
0.00288139
0.00301767
0.00322473
0.00341905
0.00376901
0.00406359
0.00468901
0.00515102
0.0061683
0.00202404
0.00202176
0.00202141
0.0020215
0.00202157
0.00202223
0.00202247
0.00202123
0.00202031
0.00202359
0.00202446
0.00202556
0.00202556
0.00202382
0.00202675
0.00202799
0.00202827
0.00203064
0.00203179
0.00203106
0.00203019
0.00203536
0.00203163
0.00203561
0.00203248
0.00203274
0.00203538
0.0020402
0.00204385
0.00205263
0.00205614
0.00207148
0.00207739
0.00208519
0.00207779
0.00208699
0.00208209
0.00208391
0.00208863
0.00209617
0.00210629
0.00211793
0.0021321
0.00214767
0.00216537
0.00218511
0.00220672
0.00223074
0.00225702
0.00228647
0.00231884
0.00235589
0.00239687
0.00244481
0.00249823
0.00256196
0.00263407
0.0027206
0.00282211
0.00294159
0.00309203
0.00326166
0.00349821
0.00375305
0.00414907
0.00454658
0.0052453
0.00578924
0.00707719
0.00206998
0.00206758
0.00206699
0.00206686
0.0020665
0.00206548
0.00206475
0.00206768
0.0020675
0.00206859
0.00206823
0.00206829
0.00207326
0.00207382
0.0020715
0.00207067
0.0020712
0.00207419
0.00207855
0.00208197
0.00208435
0.00208931
0.00208947
0.00209948
0.00210183
0.00210537
0.00209867
0.00210425
0.00210012
0.00210119
0.00210354
0.00210874
0.00211329
0.00211974
0.00212513
0.00213259
0.00214025
0.00214979
0.00216056
0.00217301
0.00218708
0.00220271
0.00221976
0.00223847
0.00225892
0.00228154
0.00230635
0.00233408
0.00236459
0.002399
0.00243681
0.00248032
0.0025283
0.00258483
0.00264748
0.00272296
0.00280754
0.0029108
0.00302993
0.00317472
0.0033524
0.00356307
0.00384527
0.00417011
0.00463259
0.00515396
0.00588255
0.00667372
0.00776417
0.00212508
0.00212493
0.00212155
0.00212145
0.00212133
0.00212112
0.0021196
0.00212003
0.00212005
0.00212526
0.00212638
0.0021251
0.00212627
0.00213417
0.00213691
0.0021388
0.00213602
0.00213761
0.00214239
0.00214434
0.00215607
0.00215953
0.00216417
0.00215647
0.00216713
0.0021604
0.00215697
0.00215848
0.00216121
0.00216577
0.0021709
0.00217762
0.00218459
0.00219325
0.00220235
0.00221335
0.00222488
0.00223805
0.00225241
0.00226802
0.00228503
0.00230361
0.00232372
0.00234566
0.00236962
0.00239612
0.00242521
0.00245775
0.00249361
0.00253422
0.00257881
0.00263035
0.00268709
0.0027543
0.00282858
0.00291873
0.0030194
0.00314396
0.00328676
0.00346493
0.00368025
0.00394564
0.00428987
0.00469781
0.00525341
0.00587591
0.0067139
0.00760963
0.00876754
0.00219338
0.0021941
0.00219477
0.00219447
0.00219474
0.00219245
0.00219136
0.0021912
0.00219261
0.00219229
0.00219898
0.00220018
0.00220183
0.00219841
0.00219816
0.00219717
0.00220834
0.00221209
0.00221138
0.00222189
0.00221647
0.00222822
0.00222318
0.00222125
0.00222348
0.00222675
0.00223119
0.00223643
0.00224304
0.00225037
0.00225914
0.0022685
0.00227911
0.00229068
0.0023032
0.00231682
0.00233144
0.0023472
0.00236426
0.00238268
0.00240272
0.00242462
0.00244836
0.00247428
0.00250262
0.00253396
0.00256841
0.00260701
0.00264954
0.00269796
0.00275114
0.00281282
0.00288074
0.00296151
0.00305093
0.00316002
0.00328242
0.00343519
0.00361148
0.00383437
0.00410301
0.00443891
0.00486375
0.00536862
0.00603073
0.00675526
0.00770783
0.00869874
0.00987035
0.00227068
0.00227248
0.00227314
0.0022784
0.00228
0.0022765
0.00228054
0.00228131
0.0022811
0.00228656
0.00228351
0.00229052
0.00228706
0.00228729
0.00229001
0.00229502
0.00230383
0.00230806
0.00232304
0.0023281
0.00233303
0.00232231
0.00233404
0.00232616
0.00232441
0.00232785
0.00233406
0.00234182
0.00235082
0.00236082
0.00237181
0.00238376
0.00239672
0.0024107
0.00242584
0.00244212
0.00245958
0.00247837
0.00249869
0.00252061
0.00254446
0.00257051
0.00259883
0.00262977
0.00266367
0.0027012
0.00274255
0.00278892
0.00284015
0.00289853
0.00296296
0.00303772
0.00312047
0.00321907
0.00332909
0.0034639
0.0036169
0.00380887
0.00403272
0.00431624
0.00465671
0.00508052
0.0056017
0.00621502
0.00698793
0.0078097
0.00888714
0.00989402
0.0112412
0.00237526
0.00238124
0.00238349
0.00238435
0.00238494
0.00239118
0.00239305
0.0023921
0.00239131
0.00240169
0.00239997
0.00239419
0.00240335
0.00240686
0.00240057
0.0023977
0.00239898
0.00240115
0.00240641
0.00241019
0.00241603
0.00242014
0.00242672
0.00243321
0.00244067
0.00244936
0.0024592
0.00247006
0.0024819
0.0024947
0.00250847
0.00252328
0.00253917
0.00255625
0.00257462
0.00259428
0.00261535
0.00263801
0.0026625
0.00268894
0.00271771
0.00274916
0.00278343
0.0028209
0.00286206
0.00290766
0.00295806
0.00301455
0.00307728
0.00314869
0.00322819
0.00332045
0.0034237
0.00354689
0.0036864
0.00385763
0.00405485
0.00430175
0.00459138
0.00495415
0.00538494
0.00591127
0.00653923
0.00726501
0.00814306
0.00905623
0.0102372
0.0112324
0.0127989
0.00250456
0.00250748
0.00250353
0.00250375
0.00250805
0.00252241
0.00252826
0.00253489
0.00253155
0.00252722
0.0025235
0.00251902
0.00251979
0.00251926
0.00251982
0.00252201
0.00252543
0.00253014
0.00253622
0.00254295
0.00255069
0.00255909
0.00256844
0.00257866
0.0025898
0.00260188
0.00261493
0.00262895
0.00264397
0.00266003
0.00267719
0.00269554
0.00271513
0.00273617
0.00275861
0.0027826
0.00280832
0.00283598
0.00286589
0.00289821
0.00293342
0.00297194
0.00301398
0.00306002
0.00311076
0.00316699
0.00322944
0.0032995
0.00337789
0.00346724
0.00356799
0.00368508
0.00381832
0.0039772
0.0041603
0.00438369
0.00464384
0.00496466
0.0053399
0.0057989
0.0063339
0.00697056
0.00770583
0.00854035
0.00950216
0.0105079
0.0117176
0.0127841
0.0143011
0.00267256
0.00266705
0.00267465
0.00267835
0.00268041
0.00267319
0.00266849
0.00266938
0.00267079
0.00267242
0.0026738
0.00267563
0.00267901
0.00268263
0.00268748
0.00269321
0.0026998
0.00270721
0.00271551
0.00272466
0.00273473
0.00274572
0.00275766
0.00277059
0.00278453
0.00279952
0.00281559
0.00283279
0.00285117
0.00287081
0.0028918
0.00291421
0.00293826
0.00296392
0.00299133
0.00302071
0.00305227
0.00308631
0.00312319
0.00316316
0.00320681
0.00325466
0.00330707
0.00336469
0.00342847
0.00349945
0.00357884
0.00366832
0.00376951
0.00388537
0.00401792
0.00417238
0.00435054
0.00456189
0.00480777
0.00510285
0.00544651
0.00585903
0.00633598
0.00690061
0.00754532
0.00828753
0.00912255
0.0100437
0.0110729
0.0121313
0.0133554
0.0144301
0.0159114
0.00284674
0.00284988
0.00285247
0.00285536
0.00285869
0.00286164
0.00286448
0.0028683
0.00287282
0.00287799
0.00288359
0.00288965
0.00289641
0.00290378
0.00291182
0.00292056
0.00293001
0.00294022
0.00295124
0.00296312
0.00297592
0.0029897
0.00300451
0.00302041
0.00303745
0.00305571
0.00307525
0.00309616
0.00311854
0.00314249
0.00316813
0.00319567
0.00322511
0.00325663
0.00329044
0.00332684
0.00336613
0.0034087
0.00345501
0.00350548
0.00356085
0.00362185
0.00368907
0.00376349
0.00384648
0.00393954
0.00404455
0.00416378
0.00429991
0.00445647
0.00463699
0.00484687
0.00509004
0.00537456
0.0057032
0.00608838
0.00653135
0.00704632
0.00763055
0.00829902
0.00904553
0.00987639
0.0107901
0.0117665
0.0128342
0.0139026
0.0151059
0.0161629
0.0174691
0.00309505
0.00310011
0.00310516
0.00311068
0.00311655
0.00312273
0.00312922
0.00313621
0.00314378
0.00315199
0.00316082
0.00317025
0.00318033
0.00319106
0.00320246
0.00321457
0.00322742
0.00324107
0.00325559
0.00327105
0.00328752
0.00330509
0.00332383
0.00334383
0.00336519
0.00338802
0.00341241
0.00343853
0.00346648
0.00349647
0.00352865
0.00356311
0.00360009
0.00363988
0.00368281
0.0037293
0.00377979
0.00383485
0.00389514
0.00396133
0.00403446
0.00411562
0.00420577
0.00430643
0.00441954
0.00454725
0.00469217
0.00485723
0.00504595
0.00526227
0.00551047
0.00579575
0.00612259
0.00649759
0.00692408
0.0074103
0.00795663
0.0085719
0.00925415
0.0100115
0.0108367
0.0117277
0.0126857
0.0136783
0.0147467
0.0157696
0.0169456
0.0178263
0.0192385
0.0034343
0.0034415
0.00344877
0.00345668
0.00346502
0.00347374
0.00348292
0.00349264
0.003503
0.00351404
0.00352582
0.00353836
0.0035517
0.00356586
0.00358087
0.0035968
0.00361368
0.00363159
0.00365062
0.00367084
0.00369237
0.00371529
0.00373973
0.00376581
0.00379365
0.00382342
0.00385527
0.00388939
0.00392603
0.00396525
0.00400734
0.00405262
0.00410148
0.00415438
0.00421184
0.00427448
0.004343
0.00441827
0.00450125
0.004593
0.00469501
0.00480878
0.00493572
0.00507793
0.00523781
0.00541799
0.00562145
0.00585137
0.00611137
0.0064052
0.0067369
0.00711072
0.00753051
0.00800107
0.00852473
0.00910673
0.00974568
0.0104475
0.0112048
0.0120225
0.0128893
0.0138014
0.0147589
0.0157252
0.0167373
0.0176914
0.0187265
0.0195479
0.0206039
0.00390084
0.00391008
0.00391951
0.00392985
0.00394083
0.00395235
0.00396449
0.00397734
0.00399097
0.00400546
0.00402087
0.00403726
0.0040547
0.00407325
0.00409298
0.00411396
0.00413628
0.00416005
0.00418537
0.00421237
0.00424119
0.00427198
0.0043049
0.00434015
0.00437789
0.00441843
0.00446188
0.00450848
0.00455857
0.00461255
0.00467088
0.0047341
0.00480281
0.00487771
0.00495959
0.00504937
0.00514804
0.00525678
0.00537689
0.00550973
0.00565712
0.00582072
0.00600215
0.00620367
0.00642771
0.00667682
0.00695373
0.00726132
0.00760262
0.00798073
0.00839873
0.00885972
0.00936616
0.00992086
0.0105244
0.0111794
0.0118824
0.0126358
0.0134308
0.0142679
0.0151352
0.0160232
0.0169317
0.0178168
0.018731
0.0195443
0.0204382
0.0210209
0.0219269
0.00455788
0.00457036
0.00458294
0.00459657
0.00461097
0.00462608
0.004642
0.00465886
0.00467679
0.00469589
0.00471628
0.00473807
0.00476137
0.0047863
0.004813
0.0048416
0.00487226
0.00490514
0.00494042
0.0049783
0.00501899
0.00506274
0.00510977
0.00516024
0.00521447
0.00527285
0.00533582
0.00540382
0.00547739
0.00555712
0.00564365
0.0057377
0.00584007
0.00595161
0.00607328
0.00620609
0.00635117
0.00650974
0.00668309
0.00687257
0.00707993
0.00730659
0.00755399
0.00782418
0.00811925
0.00844134
0.00879267
0.00917551
0.0095921
0.0100446
0.0105349
0.0110648
0.0116348
0.012246
0.0128969
0.0135877
0.0143128
0.0150723
0.0158559
0.0166612
0.017475
0.0182883
0.0190925
0.0198536
0.0206033
0.0212551
0.0218798
0.022237
0.0226342
0.0055299
0.00554955
0.00556923
0.00559015
0.00561198
0.0056347
0.0056585
0.00568358
0.00571014
0.00573838
0.00576848
0.00580065
0.00583508
0.00587201
0.00591167
0.00595432
0.00600011
0.00604924
0.006102
0.00615871
0.00621972
0.00628539
0.00635608
0.00643222
0.00651423
0.00660256
0.00669769
0.00680016
0.00691052
0.00702936
0.00715731
0.00729506
0.00744335
0.00760293
0.00777467
0.00795945
0.00815824
0.00837211
0.00860215
0.00884958
0.0091159
0.0094022
0.00970976
0.0100403
0.0103955
0.0107771
0.0111865
0.0116253
0.0120946
0.0125956
0.0131284
0.0136934
0.0142894
0.0149158
0.0155688
0.0162473
0.0169433
0.017656
0.0183734
0.0190915
0.0197964
0.0204831
0.0211214
0.0217222
0.022242
0.0226705
0.022906
0.0229731
0.0228967
0.00711381
0.00714854
0.00718354
0.00722026
0.00725817
0.00729725
0.00733777
0.00738
0.00742421
0.00747066
0.00751962
0.00757138
0.00762622
0.00768445
0.00774636
0.0078123
0.00788256
0.00795745
0.00803726
0.00812231
0.00821288
0.00830926
0.00841176
0.00852072
0.0086365
0.00875948
0.00889008
0.00902873
0.00917592
0.00933216
0.009498
0.00967407
0.009861
0.0100595
0.0102704
0.0104944
0.0107326
0.0109858
0.0112551
0.0115415
0.0118464
0.0121705
0.0125148
0.0128807
0.0132691
0.013681
0.014117
0.0145775
0.0150624
0.0155716
0.0161037
0.0166576
0.0172304
0.0178202
0.018422
0.019033
0.0196432
0.020254
0.0208491
0.0214252
0.0219718
0.0224778
0.0229105
0.023296
0.0235151
0.0235273
0.0234632
0.0232582
0.0231721
0.0100334
0.0100958
0.0101572
0.0102195
0.0102821
0.0103448
0.010408
0.0104719
0.0105368
0.010603
0.0106707
0.0107404
0.0108122
0.0108865
0.0109636
0.0110439
0.0111276
0.0112151
0.0113067
0.0114027
0.0115036
0.0116097
0.0117214
0.0118392
0.0119634
0.0120944
0.0122327
0.0123788
0.0125331
0.0126962
0.0128687
0.0130511
0.0132441
0.0134484
0.0136647
0.0138939
0.0141368
0.0143944
0.0146674
0.0149568
0.0152635
0.0155879
0.0159304
0.0162917
0.0166721
0.0170714
0.0174893
0.0179248
0.0183767
0.0188433
0.0193219
0.0198103
0.0203044
0.0208015
0.0212959
0.0217826
0.0222521
0.0227102
0.0231339
0.0235259
0.0238738
0.0241727
0.0242938
0.0242729
0.024148
0.0238389
0.0236281
0.0233728
0.0237077
0.0148526
0.0149253
0.0149955
0.0150648
0.0151325
0.0151984
0.0152628
0.0153258
0.0153878
0.0154491
0.0155101
0.0155711
0.0156325
0.0156946
0.0157577
0.0158221
0.0158883
0.0159568
0.0160279
0.0161023
0.0161802
0.0162623
0.0163489
0.0164405
0.0165376
0.0166406
0.0167499
0.0168662
0.0169897
0.017121
0.0172608
0.0174091
0.0175668
0.0177342
0.0179125
0.018102
0.0183041
0.0185194
0.0187486
0.0189929
0.0192529
0.0195286
0.01982
0.0201268
0.0204481
0.0207826
0.0211288
0.0214846
0.0218476
0.0222149
0.0225833
0.0229499
0.0233114
0.0236635
0.0239999
0.0243128
0.0246032
0.0248745
0.0251108
0.0252462
0.0252404
0.0251618
0.0249157
0.0246122
0.0242075
0.0237797
0.0236228
0.0236668
0.0255984
0.0211843
0.021243
0.0212976
0.0213495
0.0213989
0.0214461
0.02149
0.0215301
0.0215666
0.0216022
0.0216362
0.0216708
0.0217044
0.021737
0.0217688
0.0218
0.0218311
0.0218624
0.0218945
0.0219277
0.0219625
0.0219994
0.0220388
0.0220812
0.022127
0.0221766
0.0222304
0.0222887
0.0223518
0.0224194
0.0224927
0.0225688
0.0226509
0.0227363
0.02283
0.0229257
0.0230325
0.0231432
0.0232631
0.023397
0.023547
0.023713
0.0238939
0.0240882
0.0242938
0.0245081
0.0247289
0.0249525
0.0251767
0.0253959
0.0256129
0.0258233
0.0260249
0.0262034
0.0263446
0.0264803
0.0265012
0.026466
0.0263402
0.0260909
0.0257613
0.0254086
0.0248594
0.0243147
0.0238334
0.0236827
0.02429
0.0256679
0.0293528
0.0282836
0.0283006
0.0283133
0.0283228
0.0283325
0.0283663
0.0283749
0.0283744
0.0283491
0.0283399
0.0283255
0.0283579
0.0283626
0.0283623
0.0283577
0.0283499
0.0283394
0.028327
0.0283135
0.028299
0.0282836
0.0282677
0.0282515
0.0282356
0.0282207
0.0282071
0.0281957
0.0281861
0.0281781
0.028171
0.0281643
0.0281567
0.0281486
0.0281387
0.0281256
0.0280978
0.0280649
0.0279302
0.0278136
0.0277361
0.0277046
0.0277083
0.0277362
0.0277804
0.0278351
0.0278947
0.0279577
0.0280178
0.0280751
0.0281197
0.0281947
0.0282016
0.0281736
0.0280717
0.0278912
0.0276572
0.0273714
0.0270337
0.0266102
0.0261299
0.0253713
0.0246262
0.0240236
0.0236151
0.0236839
0.0247292
0.0274696
0.0306929
0.0355584
0.035231
0.035193
0.0351437
0.0351076
0.0350518
0.0349838
0.0349339
0.034895
0.0348411
0.0347648
0.0346436
0.0345221
0.0344027
0.0342843
0.0341662
0.0340482
0.0339303
0.033812
0.0336947
0.0335764
0.0334571
0.0333378
0.0332171
0.0330963
0.0329764
0.0328565
0.0327379
0.0326186
0.0324984
0.0323755
0.0322511
0.0321218
0.0319896
0.0318522
0.0317135
0.031569
0.0314248
0.0312758
0.0311261
0.0309804
0.030841
0.0307098
0.0305863
0.0304691
0.0303564
0.0302436
0.0301283
0.0300008
0.0298569
0.0296763
0.0294653
0.0292205
0.0289436
0.0286043
0.0282203
0.0277871
0.0272163
0.0263637
0.0253902
0.0244751
0.0238143
0.0233233
0.0232903
0.0241937
0.0267254
0.030639
0.0352839
0.0410408
0.0469144
0.039311
0.0391849
0.0390545
0.0389223
0.0387866
0.0386459
0.0385022
0.0383566
0.0382085
0.0380566
0.0378971
0.0377314
0.0375604
0.0373855
0.0372071
0.037026
0.0368427
0.0366576
0.0364712
0.0362838
0.0360957
0.0359071
0.0357183
0.0355295
0.0353405
0.0351517
0.0349634
0.0347754
0.0345884
0.0344012
0.0342152
0.0340276
0.0338381
0.0336457
0.0334499
0.0332516
0.0330522
0.032854
0.0326582
0.0324701
0.0322871
0.0321046
0.0319205
0.0317295
0.0315278
0.0313037
0.0310546
0.0307584
0.0304157
0.0299952
0.0295029
0.028899
0.0281917
0.0273617
0.0264381
0.0255033
0.0246003
0.023721
0.0230537
0.0228944
0.0231247
0.0247645
0.0280667
0.0327146
0.0388245
0.0455585
0.0527604
0.0598972
0.0643226
0.0389496
0.0387942
0.0386419
0.0384877
0.0383322
0.0381734
0.0380107
0.0378467
0.0376803
0.0375123
0.0373389
0.0371643
0.0369832
0.036801
0.0366121
0.0364211
0.0362265
0.0360275
0.0358255
0.0356189
0.0354091
0.0351965
0.0349777
0.0347577
0.0345301
0.0343006
0.0340639
0.0338208
0.033571
0.033315
0.0330515
0.0327811
0.0325011
0.0322124
0.0319121
0.0316015
0.0312768
0.0309411
0.0305879
0.0302132
0.0298182
0.0293949
0.0289461
0.028457
0.02795
0.0274058
0.0268578
0.0262895
0.0257369
0.025188
0.0246776
0.0242207
0.0238368
0.0235358
0.0232298
0.0231
0.0230963
0.0234493
0.0245728
0.0265914
0.0292943
0.033203
0.0381453
0.0441027
0.0512177
0.057982
0.0647837
0.0703634
0.0729788
0.02903
0.028981
0.0292093
0.0292974
0.0292497
0.0292925
0.0292906
0.0293653
0.0294055
0.0295319
0.0295496
0.0297299
0.0297112
0.0299322
0.0298873
0.030103
0.0301977
0.0302742
0.0302466
0.0302717
0.0303229
0.0304048
0.0304076
0.0306127
0.0306748
0.0307434
0.0306287
0.0305064
0.0304231
0.0303611
0.0303061
0.0302569
0.0302078
0.0301604
0.0301111
0.0300601
0.0300037
0.0299416
0.029871
0.029789
0.0296915
0.0295737
0.0294334
0.0292654
0.0290684
0.0288362
0.028566
0.0282499
0.0278833
0.0274556
0.0269612
0.0263878
0.0257301
0.0249719
0.0241054
0.0231192
0.0220029
0.0207804
0.0194635
0.0181249
0.016783
0.0155854
0.0146003
0.0139954
0.0140728
0.0145979
0.0157149
0.0176382
0.0194675
0.00196687
0.00196815
0.00196802
0.00196799
0.00196797
0.00196746
0.00196587
0.00196528
0.00196737
0.00196765
0.00196841
0.00196883
0.00197089
0.00197182
0.00197195
0.00197026
0.00197295
0.00197406
0.00197358
0.00197214
0.00197584
0.00197934
0.00197848
0.00198066
0.00198191
0.00198288
0.00198664
0.00198805
0.00198779
0.00198713
0.00198903
0.00199093
0.00199155
0.00198634
0.00198423
0.00198116
0.00198043
0.00197812
0.0019729
0.00196889
0.00196433
0.00196311
0.00196079
0.00195399
0.00195066
0.00194443
0.00193981
0.00193604
0.00193031
0.00192475
0.00192115
0.00191818
0.00191724
0.00191649
0.00191527
0.00191341
0.0019103
0.00190645
0.00190285
0.00197756
0.00197738
0.00197746
0.0019767
0.00197621
0.00197673
0.00197682
0.00197698
0.00197687
0.00197729
0.00197879
0.00197868
0.00198005
0.00197978
0.00197905
0.00198
0.00198113
0.00198127
0.00198078
0.0019813
0.00198542
0.00198682
0.00198588
0.00198788
0.00198873
0.0019898
0.00199307
0.00199446
0.00199364
0.00199283
0.00199489
0.0019967
0.00199692
0.00199251
0.00199027
0.00198721
0.00198609
0.00198426
0.00198015
0.00197577
0.00197078
0.00196897
0.00196731
0.00196283
0.00195895
0.00195437
0.00194919
0.00194565
0.00194157
0.00193643
0.00193158
0.00192732
0.00192406
0.00192226
0.00192144
0.00192077
0.00192006
0.00191865
0.00191696
0.00198956
0.00198962
0.00198961
0.00199033
0.00198996
0.00199122
0.00199113
0.0019915
0.00199168
0.00199133
0.00199164
0.00199202
0.00199247
0.00199114
0.00199065
0.00199205
0.00199242
0.0019924
0.00199112
0.00199468
0.00199659
0.00199687
0.00199642
0.00199787
0.00199843
0.00199991
0.00200252
0.00200385
0.00200254
0.00200166
0.0020038
0.00200535
0.00200522
0.00200158
0.00199912
0.00199609
0.00199466
0.00199297
0.0019898
0.00198578
0.00198042
0.00197772
0.00197631
0.00197358
0.0019696
0.00196601
0.00196137
0.00195761
0.00195431
0.00195036
0.00194606
0.00194163
0.00193767
0.0019342
0.00193195
0.00193044
0.0019298
0.00192912
0.00192871
0.00200778
0.00200827
0.00200819
0.00200973
0.00200935
0.00201037
0.00200994
0.00200952
0.00200923
0.00200874
0.00200794
0.0020071
0.00200655
0.00200687
0.00200675
0.0020074
0.00200792
0.0020073
0.00200916
0.00201102
0.00201201
0.00201185
0.00201105
0.00201155
0.00201223
0.002014
0.0020158
0.00201699
0.00201524
0.00201429
0.00201639
0.00201758
0.0020173
0.00201428
0.00201167
0.00200865
0.00200701
0.00200536
0.00200273
0.00199951
0.00199422
0.00199043
0.00198877
0.00198699
0.00198387
0.00198072
0.00197687
0.00197318
0.00197002
0.0019669
0.00196356
0.00195985
0.00195609
0.00195228
0.00194901
0.00194626
0.00194447
0.00194316
0.00194335
0.0020324
0.00203298
0.00203224
0.00203063
0.00203069
0.00202934
0.00202931
0.00202879
0.00202879
0.00202839
0.0020296
0.00202862
0.00202964
0.0020295
0.00202946
0.002029
0.00202818
0.00202767
0.00202965
0.00203054
0.00203077
0.00203054
0.00202914
0.00202924
0.00202997
0.00203147
0.00203291
0.00203397
0.00203185
0.00203087
0.0020328
0.00203363
0.00203327
0.00203074
0.00202807
0.00202505
0.00202324
0.0020216
0.00201928
0.00201665
0.00201215
0.00200769
0.00200526
0.00200374
0.00200159
0.00199895
0.00199581
0.00199252
0.00198951
0.00198675
0.00198417
0.00198138
0.00197847
0.00197524
0.00197207
0.00196885
0.00196637
0.00196376
0.00196329
0.00206229
0.00206329
0.00206134
0.00206075
0.00206071
0.00206295
0.00206165
0.00206289
0.0020615
0.00206044
0.00205999
0.00205904
0.00205847
0.00205772
0.00205679
0.00205552
0.00205457
0.00205401
0.00205497
0.00205603
0.00205582
0.00205465
0.00205296
0.00205279
0.00205305
0.00205446
0.00205556
0.00205622
0.00205366
0.00205268
0.00205434
0.00205481
0.0020544
0.00205229
0.00204962
0.00204663
0.00204471
0.00204312
0.00204108
0.00203885
0.00203565
0.00203073
0.0020275
0.00202585
0.00202414
0.00202223
0.00201987
0.00201714
0.0020143
0.00201164
0.00200928
0.00200713
0.00200498
0.00200265
0.00200025
0.00199747
0.00199507
0.00199227
0.00199039
0.00210296
0.00210353
0.00210332
0.0021039
0.00210571
0.0021039
0.00210219
0.0021006
0.00209878
0.00209717
0.00209584
0.0020944
0.00209309
0.00209161
0.00209003
0.0020887
0.00208816
0.00208813
0.0020882
0.00208783
0.00208634
0.00208392
0.00208213
0.00208162
0.00208173
0.00208276
0.0020836
0.00208404
0.00208114
0.00208013
0.0020815
0.00208161
0.00208114
0.00207932
0.00207681
0.00207382
0.00207177
0.00207018
0.00206836
0.00206639
0.00206406
0.00206035
0.00205606
0.00205368
0.00205237
0.0020507
0.00204888
0.00204704
0.00204509
0.00204296
0.00204087
0.00203879
0.00203705
0.00203523
0.0020336
0.00203154
0.00202979
0.00202721
0.00202533
0.00216255
0.00216119
0.00215852
0.00215685
0.00215442
0.00215205
0.00214952
0.00214714
0.00214487
0.0021427
0.00214072
0.00213865
0.00213657
0.00213441
0.00213257
0.00213139
0.002131
0.00213056
0.00212953
0.00212764
0.00212473
0.00212165
0.00211981
0.00211894
0.00211885
0.00211951
0.00212001
0.00211992
0.00211642
0.00211528
0.00211629
0.00211609
0.00211557
0.00211394
0.00211173
0.00210887
0.00210667
0.00210527
0.00210378
0.00210197
0.0021001
0.00209746
0.0020936
0.00209031
0.00208833
0.00208813
0.00208684
0.0020847
0.00208231
0.00208026
0.00207885
0.00207754
0.002076
0.00207445
0.00207314
0.00207149
0.00207084
0.00207025
0.00207016
0.00222503
0.00222258
0.00221911
0.00221638
0.00221302
0.00220997
0.00220678
0.00220383
0.00220093
0.00219817
0.00219539
0.00219255
0.0021897
0.00218723
0.00218534
0.00218416
0.00218311
0.00218139
0.00217869
0.00217513
0.00217107
0.00216762
0.00216552
0.00216438
0.00216438
0.00216448
0.00216477
0.00216395
0.00216005
0.00215882
0.00215943
0.00215893
0.00215833
0.00215682
0.00215484
0.00215235
0.00214999
0.00214859
0.00214744
0.00214611
0.00214473
0.00214311
0.00214028
0.00213652
0.00213303
0.00213254
0.00213361
0.00213368
0.00213344
0.00213179
0.00212823
0.00212733
0.00212709
0.00212661
0.0021263
0.00212432
0.00212517
0.00212479
0.00212339
0.0022999
0.00229668
0.00229248
0.00228908
0.0022851
0.00228155
0.00227783
0.0022743
0.00227071
0.00226716
0.00226352
0.00226
0.00225673
0.0022541
0.00225197
0.00225005
0.00224758
0.0022442
0.00223984
0.00223494
0.00223028
0.00222673
0.00222445
0.00222318
0.00222306
0.00222282
0.00222207
0.00222014
0.00221564
0.00221416
0.00221429
0.00221353
0.00221286
0.00221149
0.00220976
0.00220768
0.00220568
0.00220432
0.00220336
0.00220242
0.00220161
0.00220053
0.00219905
0.00219688
0.00219374
0.00218973
0.00219084
0.0021909
0.00218995
0.00219001
0.00219167
0.00219215
0.00219202
0.00219046
0.00219212
0.00219236
0.00219009
0.00219056
0.00218957
0.00239284
0.00238915
0.00238427
0.00238034
0.00237566
0.00237136
0.0023667
0.00236216
0.00235748
0.00235285
0.0023483
0.0023441
0.00234034
0.00233711
0.00233393
0.00233031
0.00232579
0.00232033
0.00231417
0.00230816
0.00230303
0.00229905
0.00229621
0.00229461
0.00229409
0.00229324
0.0022916
0.00228884
0.00228409
0.00228243
0.00228207
0.00228103
0.00228025
0.00227896
0.00227742
0.00227571
0.0022741
0.00227298
0.00227227
0.00227188
0.00227118
0.00227139
0.00227062
0.0022696
0.00226845
0.00226642
0.00226564
0.0022655
0.00226351
0.00226705
0.00226817
0.00226897
0.00226893
0.0022679
0.00227098
0.00226896
0.00227156
0.00227192
0.00227049
0.00251003
0.00250532
0.00249917
0.00249411
0.00248816
0.00248259
0.00247667
0.00247096
0.00246522
0.00245973
0.0024545
0.00244969
0.00244514
0.00244065
0.00243558
0.00242966
0.00242285
0.00241555
0.00240829
0.00240187
0.00239641
0.00239196
0.00238888
0.00238719
0.00238612
0.00238428
0.00238128
0.00237714
0.00237168
0.00236958
0.00236863
0.00236735
0.00236652
0.00236538
0.00236413
0.00236286
0.00236174
0.00236095
0.00236063
0.00235977
0.00236178
0.00236009
0.00236227
0.00236272
0.00236085
0.00236284
0.00236328
0.00236012
0.00236003
0.00235981
0.00236058
0.0023638
0.00236571
0.00236556
0.00237
0.00237068
0.00236951
0.00237368
0.00237538
0.00265614
0.00265025
0.00264269
0.00263647
0.00262931
0.00262266
0.00261571
0.00260907
0.0026024
0.00259598
0.00258966
0.0025834
0.00257687
0.00256977
0.00256175
0.00255299
0.0025439
0.002535
0.00252664
0.00251915
0.0025124
0.00250699
0.0025032
0.00250064
0.0024982
0.00249493
0.00249068