/*--------------------------------*- C++ -*----------------------------------*\
| =========                 |                                                 |
| \\      /  F ield         | OpenFOAM: The Open Source CFD Toolbox           |
|  \\    /   O peration     | Version:  2312                                  |
|   \\  /    A nd           | Website:  www.openfoam.com                      |
|    \\/     M anipulation  |                                                 |
\*---------------------------------------------------------------------------*/
FoamFile
{
    version     2.0;
    format      ascii;
    arch        "LSB;label=32;scalar=64";
    class       volScalarField;
    location    "1800";
    object      nut;
}
// * * * * * * * * * * * * * * * * * * * * * * * * * * * * * * * * * * * * * //

dimensions      [0 2 -1 0 0 0 0];

internalField   nonuniform List<scalar> 
76025
(
0.00131464
0.00131346
0.00131223
0.00131182
0.00131147
0.00131188
0.0013122
0.00131313
0.00131363
0.0013146
0.00131513
0.00131554
0.00131565
0.00131502
0.00131572
0.00131607
0.00131768
0.00131854
0.00132007
0.00132057
0.00132159
0.0013223
0.0013225
0.00132326
0.00132247
0.00132415
0.00132586
0.00132679
0.00132723
0.00132814
0.00132985
0.00133026
0.0013326
0.00133343
0.00133584
0.00133857
0.00134024
0.00134626
0.00134899
0.0013525
0.00135541
0.0013563
0.00136198
0.0013653
0.00136664
0.00135258
0.00137655
0.00137962
0.0014034
0.0014213
0.00142845
0.00143891
0.00145511
0.00145138
0.00147466
0.00148451
0.00144506
0.00144724
0.00149879
0.00153909
0.00157664
0.00160081
0.00165134
0.00168467
0.00176158
0.00179447
0.00192628
0.00192786
0.00207784
0.00132302
0.00132272
0.0013219
0.00132114
0.00132024
0.00131964
0.00131887
0.00131873
0.00131873
0.00131953
0.00132031
0.00132121
0.00132215
0.00132264
0.00132336
0.00132386
0.00132499
0.00132599
0.00132735
0.00132864
0.00132983
0.0013312
0.00133198
0.00133395
0.00133417
0.00133493
0.00133501
0.00133956
0.00134104
0.00133882
0.00133851
0.00133967
0.00134095
0.00134258
0.00134325
0.00134528
0.0013504
0.00135015
0.00135724
0.00135723
0.00136465
0.00136885
0.00137504
0.00138051
0.00136643
0.0013661
0.00137182
0.00138422
0.0014102
0.00143348
0.00143436
0.00146383
0.0014595
0.00143846
0.00142977
0.00144529
0.00147263
0.00152054
0.00155267
0.00158821
0.00161166
0.00164653
0.00169718
0.00173133
0.00180459
0.00186035
0.00196927
0.00206159
0.00226278
0.00132996
0.00133077
0.00133101
0.00133112
0.00133101
0.00133088
0.0013304
0.00132999
0.00132953
0.00132932
0.00132974
0.00132996
0.00133062
0.00133127
0.00133189
0.00133263
0.00133308
0.00133393
0.00133507
0.00133455
0.00133767
0.00133748
0.00134083
0.00134143
0.00134083
0.00134673
0.00134697
0.00134796
0.00135332
0.00135509
0.00135281
0.0013527
0.00135422
0.00135946
0.00136353
0.00136659
0.00137522
0.00137852
0.00138362
0.0013881
0.00137945
0.00137296
0.0013688
0.00137149
0.00138121
0.0013717
0.00140936
0.00140683
0.00143165
0.0014429
0.00142388
0.00141711
0.0014039
0.00142666
0.00147402
0.00151646
0.00153773
0.00157496
0.00158519
0.00162598
0.00164832
0.00169146
0.00173908
0.00178123
0.00186822
0.00192548
0.00205685
0.00215241
0.00235336
0.00133837
0.00133992
0.00134051
0.00134072
0.00134075
0.00134086
0.00134104
0.00134106
0.00134112
0.00134096
0.0013411
0.00134111
0.00134113
0.00134116
0.00134165
0.00134221
0.00134301
0.00134367
0.00134439
0.00134586
0.00134827
0.00135046
0.00135166
0.00135783
0.00135816
0.00135838
0.00136453
0.00136633
0.00137088
0.00136998
0.00137266
0.00137812
0.00137334
0.00137144
0.00137266
0.00137776
0.00138364
0.00139557
0.00139925
0.00142159
0.00142173
0.00142424
0.00139433
0.00141605
0.00138134
0.00137105
0.00138518
0.00139258
0.00139523
0.00140978
0.00140582
0.00142728
0.0014738
0.00151306
0.00153334
0.00156185
0.00157444
0.00161047
0.00162398
0.00166979
0.0016926
0.00174619
0.00178967
0.00185097
0.00193679
0.00200236
0.00215597
0.00225584
0.00245691
0.00135053
0.00135022
0.00135011
0.00134941
0.00135116
0.0013509
0.00135075
0.00135099
0.00135156
0.00135178
0.00135234
0.0013533
0.00135417
0.0013548
0.00135531
0.00135611
0.00135557
0.00135867
0.00135844
0.00136285
0.00136551
0.00136789
0.00137106
0.00136924
0.00137169
0.00137305
0.00137845
0.00138013
0.00137925
0.00137375
0.00137375
0.0013798
0.00138464
0.00139085
0.0013989
0.00140193
0.00142106
0.00142336
0.00142584
0.00140729
0.00141345
0.00139305
0.00138997
0.00139558
0.0014009
0.00140228
0.00141299
0.00140598
0.00142
0.00144511
0.00148574
0.00151708
0.00153592
0.00155809
0.00157328
0.00159919
0.00161696
0.00164904
0.00167399
0.00171234
0.0017513
0.00179998
0.00185516
0.00192864
0.0020107
0.00210046
0.00226488
0.0023654
0.00258595
0.00136297
0.00136306
0.00136232
0.00136432
0.00136579
0.00136613
0.00136709
0.00136821
0.00136806
0.00137095
0.00137055
0.00136893
0.00136822
0.00136793
0.00136787
0.00137067
0.00137083
0.00137595
0.00137837
0.00138217
0.00138265
0.00138601
0.00138551
0.00138464
0.00138668
0.00139199
0.00139114
0.00140323
0.00140045
0.00139405
0.00139057
0.00139311
0.00139468
0.00141688
0.00142637
0.0014393
0.00142705
0.00144723
0.00142721
0.00141533
0.00140703
0.00140151
0.0014081
0.00139601
0.00140189
0.00141271
0.00144519
0.00148186
0.00150706
0.00152781
0.00154356
0.00156193
0.00157648
0.00159864
0.00161444
0.00164294
0.00166206
0.00169797
0.00172605
0.00176817
0.00181493
0.00186476
0.00193579
0.00201191
0.00210884
0.00221427
0.00238983
0.00248777
0.00274107
0.00137887
0.00137798
0.0013795
0.00138111
0.00138235
0.0013843
0.00138353
0.00138153
0.00138009
0.00138419
0.00138673
0.00139038
0.0013921
0.00139156
0.00139673
0.00140103
0.00140005
0.00140272
0.001404
0.00140518
0.00140078
0.00141131
0.00140251
0.00140713
0.00140415
0.00139855
0.00140015
0.00140997
0.0014094
0.00142151
0.00141464
0.00143098
0.00143289
0.00143845
0.0014219
0.00142884
0.00142456
0.00142968
0.00143109
0.00142941
0.0014335
0.00142655
0.00143228
0.00143764
0.00144781
0.00147486
0.00150848
0.00153325
0.00155169
0.00156982
0.00158489
0.00160443
0.00161977
0.0016444
0.00166118
0.00169377
0.00171384
0.00175628
0.00178528
0.00183642
0.00188621
0.00194589
0.00202605
0.00211518
0.00221386
0.00236415
0.00248867
0.00262141
0.00283556
0.00140187
0.00140063
0.00140191
0.00140346
0.00140449
0.00140453
0.00140217
0.00140521
0.00140443
0.0014047
0.00140658
0.00140407
0.00141027
0.00141223
0.00141068
0.00140628
0.00140632
0.00140933
0.00141936
0.00142046
0.00142536
0.00142717
0.00142555
0.00144265
0.00144316
0.00144589
0.00143339
0.00143624
0.0014305
0.00142321
0.00142472
0.00141656
0.00141669
0.00142969
0.0014301
0.00143761
0.00142549
0.00142892
0.00143262
0.0014398
0.00146583
0.00149379
0.00151408
0.00153009
0.00154417
0.00155829
0.00157154
0.00158616
0.00159998
0.00161695
0.00163184
0.00165303
0.00166932
0.00169732
0.0017152
0.00175339
0.00177389
0.00182563
0.00185357
0.00191916
0.00196867
0.00204394
0.00213645
0.00222529
0.00235629
0.00249714
0.00259993
0.002829
0.00292848
0.0014257
0.00142718
0.0014254
0.00142733
0.00142879
0.00143033
0.00142868
0.0014279
0.00142919
0.00143671
0.0014339
0.00143062
0.00143478
0.00144292
0.00144621
0.00144707
0.00144137
0.00144273
0.00144693
0.00144723
0.00146169
0.00145699
0.00145947
0.00144469
0.00145639
0.00144353
0.00143642
0.0014452
0.00145223
0.0014565
0.00145589
0.001457
0.00145213
0.00145728
0.00144553
0.00145043
0.00145387
0.00148646
0.0014781
0.00151106
0.00153637
0.00155445
0.00156872
0.00158174
0.001594
0.00160711
0.00161995
0.00163507
0.00164963
0.00166848
0.00168476
0.00170888
0.00172687
0.00175911
0.00177879
0.00182342
0.00184522
0.00190781
0.00193491
0.00202026
0.00206405
0.00217058
0.0022532
0.00237018
0.00249979
0.00263624
0.00274745
0.00300142
0.00295043
0.00145307
0.00145398
0.00145781
0.00146174
0.00146229
0.00145939
0.00145832
0.00145983
0.00145891
0.00145806
0.00146742
0.00146801
0.00147007
0.00145917
0.00145677
0.00145558
0.00147029
0.00146696
0.00146356
0.00147404
0.00147453
0.00148133
0.00147851
0.00147509
0.00146849
0.00146487
0.00146832
0.00146603
0.00147193
0.00146224
0.00146638
0.00146974
0.0014965
0.00148976
0.00151569
0.00153676
0.00155035
0.00156377
0.00157497
0.00158665
0.00159825
0.00160983
0.00162135
0.00163348
0.00164584
0.00165974
0.00167369
0.00169051
0.00170659
0.00172809
0.00174636
0.00177419
0.00179449
0.00183191
0.00185438
0.00190639
0.00193172
0.00200564
0.00203627
0.00214061
0.00218327
0.0023194
0.00238901
0.00253463
0.00265581
0.00276933
0.00295891
0.00303219
0.00325099
0.00148222
0.00148408
0.00148088
0.00148898
0.00148943
0.0014849
0.00148917
0.00149453
0.00149016
0.00149619
0.00149805
0.00150311
0.00149939
0.0014974
0.0015006
0.0014979
0.00151191
0.00151056
0.0015295
0.00153691
0.00153149
0.00151389
0.00152367
0.00151036
0.0015161
0.00152369
0.00153116
0.00153637
0.00154343
0.00154905
0.00155713
0.00156465
0.00157461
0.0015834
0.00159363
0.00160366
0.00161364
0.00162341
0.00163338
0.00164369
0.00165447
0.00166589
0.00167789
0.00169093
0.0017046
0.00172013
0.00173596
0.00175515
0.00177355
0.0017983
0.00181949
0.00185189
0.00187567
0.00191954
0.00194641
0.00200757
0.00203906
0.00212555
0.00216397
0.00228471
0.00233079
0.00248933
0.00254159
0.00272661
0.00278972
0.00297965
0.00305528
0.00326671
0.00325817
0.0015299
0.00153854
0.00154028
0.00154258
0.00153675
0.00154576
0.00154935
0.00154565
0.00154072
0.00155216
0.00154214
0.00153968
0.00154582
0.00155133
0.00154337
0.00153488
0.00152809
0.00152527
0.00153491
0.00152508
0.00152727
0.00152629
0.00154832
0.00154137
0.00156183
0.00157757
0.0015885
0.00159716
0.00160527
0.00161307
0.00162112
0.00162932
0.00163784
0.00164658
0.00165566
0.00166487
0.00167434
0.0016842
0.0016946
0.00170559
0.00171733
0.00172997
0.00174351
0.0017583
0.00177408
0.00179194
0.00181049
0.00183272
0.00185454
0.00188324
0.00190881
0.00194678
0.00197604
0.00202791
0.00206177
0.00213422
0.00217451
0.00227469
0.00232281
0.00245507
0.00250841
0.00267131
0.00272393
0.00290871
0.00296428
0.00314666
0.0032333
0.00335356
0.00354062
0.00158045
0.00158301
0.00157588
0.0015752
0.00157603
0.00158763
0.0015929
0.00159885
0.00160121
0.00159146
0.00158894
0.00158001
0.0015768
0.00157566
0.00156234
0.00156127
0.00155912
0.00157468
0.00156925
0.00158601
0.00160013
0.00160901
0.00161881
0.00162659
0.00163535
0.00164414
0.00165268
0.00166103
0.00166935
0.00167775
0.00168631
0.00169509
0.00170411
0.00171352
0.00172319
0.00173309
0.00174351
0.0017545
0.00176622
0.00177873
0.00179224
0.00180685
0.00182266
0.00183993
0.0018586
0.00187955
0.00190184
0.00192795
0.00195469
0.00198848
0.00202066
0.00206566
0.00210365
0.00216515
0.00220969
0.00229434
0.00234547
0.00245788
0.00251359
0.00265286
0.00270831
0.00287025
0.00291946
0.00310033
0.00314155
0.00332864
0.00337274
0.00352816
0.00360441
0.00166287
0.00165443
0.00166133
0.00166313
0.00166184
0.00164535
0.00163274
0.0016264
0.00162151
0.00162218
0.00161014
0.00161633
0.00161313
0.00161278
0.00163192
0.00162534
0.00164381
0.00165895
0.00166829
0.00167673
0.00168481
0.00169236
0.00169991
0.00170742
0.00171507
0.00172289
0.00173088
0.00173906
0.00174748
0.00175616
0.00176516
0.00177449
0.0017843
0.00179449
0.00180502
0.0018161
0.00182788
0.00184046
0.001854
0.00186859
0.00188445
0.00190171
0.00192053
0.00194113
0.00196372
0.00198891
0.00201643
0.00204804
0.0020819
0.00212284
0.00216479
0.00221912
0.00226948
0.00234153
0.00239956
0.00249377
0.00255588
0.00267351
0.00273408
0.00287187
0.00292629
0.00308072
0.00312448
0.00329502
0.00332141
0.00350134
0.00351134
0.00366335
0.00369621
0.00169865
0.00169751
0.00169968
0.00169039
0.00170063
0.00169311
0.00170206
0.00170782
0.00171062
0.00171511
0.00171807
0.00172237
0.00172852
0.00173371
0.0017413
0.00174752
0.00175481
0.0017622
0.0017692
0.00177598
0.00178273
0.00178954
0.00179648
0.00180361
0.00181098
0.00181863
0.00182658
0.00183488
0.00184358
0.00185271
0.00186231
0.00187253
0.00188323
0.00189445
0.00190632
0.00191905
0.00193274
0.00194755
0.00196364
0.00198114
0.00200031
0.00202134
0.00204448
0.00206997
0.00209824
0.00212979
0.00216487
0.00220463
0.00224845
0.00229922
0.00235359
0.0024187
0.00248307
0.00256422
0.00263391
0.00273131
0.00280069
0.00291417
0.00297625
0.00310365
0.00315578
0.00329447
0.00333322
0.00348201
0.00349679
0.00365334
0.00362897
0.00378258
0.00367999
0.0017652
0.00177785
0.00178847
0.0017945
0.00180082
0.00180542
0.0018102
0.00181484
0.00181914
0.00182397
0.00182909
0.00183457
0.00184067
0.00184698
0.00185362
0.00186031
0.00186707
0.00187388
0.0018807
0.00188759
0.00189458
0.00190175
0.00190913
0.00191679
0.00192476
0.00193309
0.00194184
0.00195107
0.0019608
0.00197117
0.00198219
0.00199383
0.00200613
0.00201928
0.00203347
0.00204886
0.0020656
0.00208388
0.00210391
0.00212591
0.00215018
0.00217702
0.00220671
0.00223962
0.00227624
0.00231697
0.00236225
0.0024126
0.0024679
0.00252939
0.00259483
0.00266822
0.00274197
0.00282644
0.00290203
0.00299588
0.00306569
0.00316781
0.00322621
0.0033385
0.00338377
0.00350229
0.00353098
0.00365039
0.00365281
0.00376413
0.00373116
0.00380084
0.00372094
0.00188601
0.00189957
0.00191059
0.00191907
0.0019259
0.00193161
0.0019367
0.00194153
0.00194628
0.00195122
0.00195644
0.00196199
0.0019679
0.00197413
0.00198065
0.0019874
0.00199438
0.00200156
0.00200896
0.00201662
0.00202457
0.00203286
0.00204152
0.00205061
0.00206018
0.00207029
0.002081
0.00209236
0.0021045
0.0021173
0.0021309
0.00214536
0.00216095
0.00217786
0.00219624
0.00221632
0.00223828
0.0022624
0.00228891
0.00231813
0.00235035
0.00238588
0.00242495
0.00246783
0.00251481
0.00256596
0.00262141
0.00268099
0.00274442
0.00281164
0.00288126
0.00295478
0.00302749
0.0031065
0.00317859
0.0032624
0.00332667
0.00341606
0.00346615
0.00356143
0.00359208
0.00368869
0.00369702
0.00378635
0.0037616
0.00383199
0.00375942
0.00378532
0.0036451
0.00206381
0.0020703
0.00207677
0.00208292
0.0020886
0.0020939
0.00209896
0.00210395
0.002109
0.00211421
0.00211967
0.00212544
0.00213155
0.00213801
0.00214484
0.00215204
0.00215963
0.00216761
0.00217602
0.00218489
0.00219426
0.0022042
0.00221474
0.00222596
0.0022379
0.0022507
0.00226431
0.00227875
0.00229417
0.00231065
0.00232848
0.00234784
0.0023689
0.00239187
0.00241694
0.00244434
0.00247427
0.00250695
0.00254254
0.00258121
0.00262309
0.00266818
0.00271641
0.00276768
0.00282183
0.00287852
0.00293745
0.00299812
0.00306015
0.00312317
0.00318644
0.0032507
0.00331342
0.00337902
0.00343886
0.00350741
0.00356051
0.00363267
0.00366989
0.00374549
0.00375759
0.00383061
0.00380984
0.00386478
0.00380409
0.00382423
0.00371004
0.0036601
0.00341212
0.00228292
0.00228775
0.0022926
0.00229758
0.00230256
0.00230753
0.00231254
0.00231769
0.00232303
0.00232865
0.0023346
0.00234096
0.00234776
0.00235505
0.00236289
0.0023713
0.00238034
0.00239005
0.00240049
0.00241171
0.00242376
0.00243673
0.00245067
0.00246552
0.00248137
0.00249839
0.00251665
0.00253637
0.00255772
0.00258084
0.00260586
0.0026329
0.00266207
0.00269348
0.0027272
0.00276326
0.00280167
0.00284236
0.00288523
0.00293013
0.00297685
0.00302508
0.00307449
0.00312476
0.0031756
0.00322665
0.00327768
0.00332841
0.0033787
0.00342853
0.00347755
0.00352651
0.00357366
0.00362225
0.00366581
0.0037149
0.00375032
0.00380131
0.0038198
0.00387068
0.00385718
0.00390226
0.00384396
0.00386171
0.00375477
0.00371533
0.0035538
0.00336151
0.00315017
0.00259128
0.00259846
0.00260544
0.00261245
0.00261943
0.00262639
0.0026334
0.00264054
0.00264789
0.00265552
0.00266351
0.00267193
0.00268087
0.00269041
0.00270061
0.00271159
0.00272333
0.00273584
0.00274923
0.00276359
0.00277903
0.00279568
0.00281357
0.00283293
0.00285382
0.00287629
0.00290036
0.00292606
0.0029534
0.00298236
0.00301292
0.00304501
0.00307854
0.00311339
0.00314941
0.00318641
0.00322421
0.00326257
0.00330126
0.00334003
0.00337868
0.00341693
0.00345461
0.00349157
0.00352776
0.00356311
0.00359762
0.00363134
0.00366425
0.00369654
0.0037278
0.0037588
0.0037876
0.00381704
0.0038409
0.00386813
0.00388152
0.00390548
0.00389908
0.0039194
0.00387318
0.00388545
0.00377489
0.00376282
0.0035768
0.00350172
0.00318517
0.00301853
0.00251302
0.00304395
0.00305458
0.00306521
0.00307609
0.00308701
0.00309798
0.00310907
0.00312035
0.0031319
0.0031438
0.00315612
0.00316894
0.00318233
0.00319639
0.00321119
0.00322688
0.00324346
0.00326096
0.00327931
0.00329866
0.00331852
0.00333888
0.00335975
0.00338112
0.00340298
0.0034253
0.00344805
0.00347117
0.00349461
0.00351829
0.00354211
0.00356596
0.00358973
0.0036133
0.00363653
0.00365932
0.00368153
0.00370308
0.00372389
0.00374391
0.00376312
0.00378148
0.00379904
0.00381584
0.00383199
0.00384753
0.00386252
0.00387698
0.00389081
0.00390404
0.00391602
0.00392721
0.00393547
0.00394306
0.0039439
0.00394573
0.00393209
0.00392553
0.00388789
0.00387018
0.0037885
0.00375439
0.00359394
0.00353231
0.00326334
0.00307896
0.00272083
0.00245451
0.00208944
0.0038004
0.00381901
0.00383684
0.00385407
0.00387057
0.00388632
0.00390135
0.00391568
0.00392936
0.0039424
0.00395486
0.00396679
0.00397822
0.00398919
0.00399979
0.00400978
0.00401897
0.00402741
0.00403515
0.00404219
0.00404887
0.00405519
0.00406112
0.00406665
0.00407175
0.0040764
0.00408055
0.00408419
0.00408726
0.00408974
0.00409158
0.00409275
0.00409322
0.00409296
0.00409199
0.00409031
0.00408798
0.00408506
0.00408164
0.00407781
0.00407369
0.00406932
0.00406483
0.00406026
0.00405565
0.00405094
0.00404604
0.00404074
0.00403474
0.00402765
0.00401874
0.00400775
0.00399293
0.00397524
0.00394982
0.00392171
0.00387697
0.00383597
0.00376352
0.00370268
0.00358329
0.00349497
0.00326789
0.00310117
0.00275752
0.00252398
0.00214531
0.00190835
0.00154917
0.00472954
0.00474343
0.00475543
0.00476568
0.00477413
0.0047808
0.00478572
0.00478892
0.00479041
0.0047903
0.00478865
0.00478555
0.00478105
0.00477518
0.00476793
0.00475956
0.00475026
0.00474003
0.00472889
0.00471686
0.00470394
0.00469017
0.00467555
0.00466008
0.00464377
0.00462661
0.00460858
0.00458966
0.00456985
0.0045491
0.00452745
0.00450476
0.00448113
0.00445647
0.00443105
0.00440478
0.00437804
0.0043509
0.00432361
0.00429646
0.00426972
0.00424352
0.00421791
0.00419281
0.00416809
0.00414344
0.00411856
0.00409291
0.00406602
0.00403693
0.00400519
0.0039696
0.00392969
0.00388387
0.00382986
0.00376775
0.00369173
0.0036151
0.00351071
0.00339218
0.00319822
0.00301682
0.0027349
0.00249887
0.0021553
0.00190957
0.00157393
0.00137626
0.00129526
0.00524966
0.00525491
0.00525854
0.00526064
0.00526122
0.00526073
0.00525855
0.00525447
0.00524816
0.00524052
0.00523137
0.00522173
0.00521077
0.00519836
0.00518444
0.00516899
0.00515205
0.00513364
0.00511384
0.00509269
0.00507018
0.00504639
0.0050213
0.00499491
0.00496726
0.0049383
0.00490806
0.00487647
0.00484351
0.00480895
0.00477285
0.00473433
0.00469396
0.00465102
0.00460669
0.00455922
0.00451116
0.00446017
0.00440817
0.00435687
0.00430729
0.00425964
0.00421368
0.00416896
0.00412495
0.00408095
0.00403646
0.00399042
0.00394248
0.00389061
0.00383645
0.00377768
0.00371495
0.00364187
0.00355727
0.00346699
0.00334364
0.00320658
0.00303415
0.00283978
0.0026011
0.00237827
0.00208029
0.00182997
0.00153631
0.00135082
0.00114832
0.00112312
0.00114005
0.00531033
0.00530972
0.00530753
0.0053039
0.00530006
0.00530545
0.00530135
0.00529382
0.00527664
0.00526503
0.00525139
0.00525491
0.00524784
0.0052384
0.00522681
0.00521326
0.00519796
0.00518099
0.0051627
0.00514298
0.00512152
0.00509928
0.00507509
0.00504865
0.0050209
0.00499064
0.00495944
0.00492691
0.00489368
0.0048584
0.00481983
0.00477769
0.00473156
0.0046815
0.00462654
0.00456382
0.00449566
0.0043925
0.00429315
0.00420386
0.00412648
0.00405749
0.00399357
0.00393242
0.00387246
0.00381212
0.00375094
0.00368716
0.00362071
0.00354875
0.00348207
0.00339555
0.00329846
0.00318071
0.0030447
0.00289443
0.00273439
0.0025594
0.002359
0.00214813
0.00188565
0.00164028
0.00141208
0.00121734
0.00105583
0.000978498
0.000988546
0.00106113
0.00114038
0.00490257
0.00489374
0.00488164
0.00487283
0.00485845
0.00484066
0.00482774
0.0048177
0.00480343
0.00478313
0.00475065
0.0047182
0.00468641
0.0046549
0.00462348
0.00459218
0.00456102
0.00453015
0.004501
0.00447198
0.00444406
0.00443187
0.00440725
0.00437457
0.00434472
0.00429403
0.00425694
0.00422363
0.00421086
0.00418963
0.00415816
0.0041184
0.00407411
0.00402491
0.00397208
0.00391456
0.00385476
0.00379167
0.00372682
0.0036615
0.00359647
0.00353191
0.00346724
0.00340158
0.0033341
0.00326329
0.00318852
0.00310752
0.00301955
0.0029211
0.00281392
0.00269837
0.00257513
0.00244069
0.00229938
0.00215336
0.00198835
0.00177883
0.00155385
0.00134733
0.00117431
0.00102273
0.000902007
0.000834087
0.000850722
0.000917119
0.00100583
0.0011385
0.0012449
0.00391494
0.00389433
0.00387351
0.0038519
0.00382993
0.00380684
0.0037831
0.00375889
0.00373416
0.00370839
0.00368107
0.00365253
0.00362302
0.00359279
0.00356199
0.00353078
0.00349928
0.00346762
0.00343599
0.00340431
0.00337255
0.003341
0.00330915
0.00327697
0.00324461
0.00321177
0.00317909
0.00314656
0.00311465
0.0030834
0.0030577
0.00302822
0.00301798
0.00300034
0.00297017
0.00293269
0.00289099
0.00284682
0.00280065
0.00275331
0.00270442
0.00265223
0.00259582
0.00253399
0.0024666
0.00239204
0.00231135
0.00222174
0.00212566
0.00201958
0.00190758
0.00178524
0.00165661
0.00152168
0.00138496
0.00125569
0.00113625
0.000988074
0.000852209
0.000763257
0.000694464
0.000688828
0.000737775
0.000818652
0.000931606
0.00104379
0.00117774
0.00128676
0.00136273
0.00215387
0.00213784
0.00213272
0.00211268
0.00210232
0.00208752
0.00207046
0.00205229
0.00203526
0.00201295
0.00199298
0.00197368
0.00195417
0.00193525
0.00191592
0.00189712
0.00187823
0.00185956
0.00184036
0.00182112
0.00180199
0.00178297
0.00176379
0.00174503
0.00172647
0.00170754
0.00168857
0.00166954
0.00165036
0.00163111
0.00161179
0.00159234
0.00157251
0.00155223
0.00153111
0.00150923
0.00148624
0.00146205
0.00143358
0.00140131
0.00137248
0.00133707
0.00129251
0.00124006
0.00118331
0.00112235
0.00106084
0.00099822
0.00093771
0.000878652
0.000823205
0.000772027
0.000725054
0.000683566
0.00064106
0.000606918
0.000574897
0.000564174
0.000586505
0.000626039
0.000672191
0.000737792
0.000813916
0.000901352
0.00101047
0.00110679
0.00121847
0.00128811
0.001349
0.000391412
0.000385784
0.000390479
0.000393312
0.000391232
0.000391576
0.00039031
0.000391323
0.000391076
0.000393696
0.000392778
0.00039716
0.000395114
0.000401141
0.000398013
0.00040439
0.000405403
0.000408629
0.000404311
0.000404348
0.000404893
0.000406596
0.000406403
0.000411888
0.000417658
0.000416874
0.000416284
0.00041539
0.000415236
0.000415533
0.000416039
0.000416651
0.000417325
0.000418037
0.000418772
0.000419526
0.000420284
0.000421029
0.000421765
0.000422472
0.000423135
0.0004237
0.000424147
0.000424424
0.000424524
0.000424412
0.000424074
0.000423464
0.000422565
0.000421301
0.000419627
0.000417442
0.000414715
0.000411366
0.000407197
0.000402247
0.000395887
0.000387976
0.000378183
0.000366761
0.000353107
0.000337494
0.000321628
0.00030109
0.00029674
0.000300233
0.000312411
0.000343683
0.000383616
0.00133497
0.00133509
0.00133345
0.00133243
0.00133116
0.00132994
0.00132677
0.00132407
0.00132377
0.00132041
0.00131916
0.00131433
0.00131407
0.00131442
0.00131556
0.00131491
0.00131512
0.00131586
0.00131596
0.00131552
0.00131774
0.00131926
0.00131839
0.00131871
0.00132107
0.0013229
0.00132471
0.00132541
0.00132625
0.0013252
0.00132336
0.00132326
0.0013242
0.00132504
0.0013257
0.00132522
0.00132506
0.00132476
0.00132266
0.00132203
0.00131983
0.00132097
0.00132146
0.00132088
0.00132073
0.00131921
0.00131863
0.00131878
0.001318
0.00131615
0.00131438
0.00131373
0.00131499
0.00131583
0.00131666
0.00131686
0.00131667
0.00131607
0.00131536
0.00134075
0.0013392
0.00133833
0.00133615
0.00133443
0.00133387
0.0013319
0.00132915
0.00132506
0.00132233
0.00132227
0.00132097
0.00132147
0.00132208
0.00132191
0.00132352
0.00132224
0.00132266
0.00132333
0.00132418
0.00132513
0.00132579
0.00132499
0.00132587
0.00132814
0.00132972
0.00133101
0.00133162
0.00133223
0.00133114
0.00132956
0.00132949
0.00132998
0.00133096
0.00133168
0.0013314
0.00133085
0.00133036
0.00132959
0.0013288
0.00132595
0.00132622
0.00132662
0.00132689
0.001327
0.00132627
0.00132522
0.0013253
0.00132458
0.00132515
0.00132345
0.0013216
0.00132028
0.00132014
0.00132056
0.0013212
0.00132186
0.00132244
0.00132275
0.00134435
0.00134346
0.00134252
0.00134194
0.00133953
0.00133842
0.00133536
0.00133367
0.00133227
0.00133132
0.00133122
0.00133136
0.001332
0.00133033
0.00133052
0.00133073
0.00133074
0.00133121
0.00133135
0.00133306
0.00133288
0.00133297
0.00133277
0.00133408
0.00133637
0.00133773
0.0013383
0.00133937
0.00133919
0.00133829
0.00133647
0.00133617
0.00133599
0.00133767
0.00133856
0.00133841
0.00133806
0.00133747
0.00133671
0.00133683
0.00133418
0.00133332
0.00133324
0.00133335
0.00133364
0.00133365
0.00133286
0.00133263
0.00133208
0.00133203
0.0013323
0.0013316
0.00133049
0.00132911
0.00132824
0.00132787
0.00132804
0.00132845
0.00132904
0.00135179
0.00135092
0.00134917
0.00134905
0.00134693
0.00134819
0.00134644
0.00134438
0.00134218
0.00134238
0.00134084
0.00134048
0.00133857
0.00133987
0.00134003
0.00133982
0.0013402
0.00134099
0.00134414
0.00134254
0.00134257
0.00134226
0.0013422
0.00134312
0.00134565
0.00134649
0.00134711
0.00134788
0.00134765
0.00134678
0.00134523
0.00134492
0.00134509
0.00134583
0.0013467
0.00134676
0.00134658
0.00134596
0.00134514
0.0013457
0.00134362
0.00134205
0.00134159
0.00134153
0.0013417
0.00134207
0.00134186
0.00134165
0.00134124
0.00134078
0.00134093
0.00134104
0.00134075
0.00133994
0.00133892
0.00133797
0.00133726
0.00133704
0.00133822
0.0013602
0.00136048
0.00135818
0.00135599
0.00135604
0.00135381
0.00135294
0.00135131
0.00135226
0.00135196
0.00135312
0.0013513
0.00135413
0.00135385
0.00135401
0.00135314
0.00135246
0.00135286
0.00135339
0.00135302
0.00135286
0.0013529
0.00135256
0.00135375
0.00135603
0.00135639
0.00135702
0.00135781
0.00135738
0.00135652
0.00135501
0.00135458
0.00135465
0.00135538
0.00135624
0.00135636
0.00135628
0.00135575
0.00135495
0.00135539
0.00135434
0.00135259
0.00135163
0.00135125
0.00135107
0.00135144
0.00135166
0.00135174
0.00135167
0.00135131
0.0013512
0.00135139
0.0013516
0.00135153
0.00135108
0.00135035
0.00134968
0.00134864
0.00134963
0.00137547
0.00137543
0.0013728
0.00137304
0.00137308
0.00137566
0.0013737
0.00137465
0.00137304
0.00137152
0.0013711
0.00137198
0.00137151
0.00137048
0.00136915
0.0013664
0.00136705
0.00136663
0.00136627
0.00136699
0.00136672
0.00136572
0.00136579
0.00136715
0.00136847
0.0013688
0.00136925
0.00136975
0.00136906
0.00136819
0.00136664
0.00136611
0.00136616
0.00136685
0.00136773
0.00136795
0.00136801
0.00136767
0.00136701
0.00136717
0.00136729
0.00136534
0.00136417
0.00136372
0.00136319
0.00136314
0.00136363
0.00136396
0.00136404
0.00136388
0.00136365
0.00136372
0.00136396
0.00136429
0.00136444
0.00136426
0.00136399
0.00136329
0.00136301
0.0013955
0.0013958
0.00139366
0.00139492
0.00139725
0.00139589
0.00139251
0.00139256
0.00139178
0.00139158
0.00139185
0.00139007
0.00138843
0.00138629
0.00138367
0.00138359
0.00138401
0.00138387
0.0013841
0.00138263
0.00138105
0.00138023
0.00138051
0.00138153
0.00138233
0.00138268
0.0013832
0.00138361
0.00138289
0.00138198
0.00138043
0.00137976
0.00137977
0.0013803
0.00138136
0.00138156
0.00138167
0.00138146
0.00138095
0.0013808
0.00138134
0.00138076
0.00137879
0.00137788
0.00137782
0.00137707
0.00137673
0.00137743
0.00137834
0.00137889
0.0013791
0.00137901
0.00137914
0.00137933
0.00137965
0.00137979
0.0013799
0.00137944
0.0013791
0.00143137
0.00142917
0.00142538
0.00142596
0.00142335
0.00142133
0.00142183
0.00141985
0.00141751
0.00141457
0.00141223
0.00140883
0.00140528
0.00140478
0.00140402
0.00140392
0.00140395
0.00140339
0.00140257
0.00140109
0.0013994
0.00139871
0.00139898
0.00139967
0.00140006
0.00140047
0.00140063
0.0014009
0.00139969
0.00139859
0.001397
0.00139628
0.00139627
0.00139667
0.00139789
0.00139832
0.00139843
0.00139862
0.00139847
0.00139815
0.00139843
0.00139882
0.00139761
0.00139623
0.00139524
0.00139669
0.00139638
0.00139509
0.00139411
0.00139393
0.0013946
0.00139548
0.00139578
0.0013961
0.00139637
0.00139652
0.00139743
0.00139922
0.00140108
0.00146356
0.00146082
0.0014597
0.00145713
0.0014536
0.00144997
0.00144551
0.00143833
0.00143725
0.00143197
0.00143179
0.00143015
0.00142905
0.00142821
0.00142731
0.00142684
0.00142626
0.00142506
0.00142363
0.0014218
0.00141999
0.00141929
0.00141938
0.00141982
0.00142027
0.00142034
0.00142061
0.0014209
0.00141948
0.00141831
0.00141666
0.00141587
0.00141579
0.00141605
0.00141715
0.00141812
0.0014181
0.00141837
0.00141851
0.00141847
0.00141884
0.00141967
0.00141965
0.00141776
0.0014158
0.00141535
0.00141769
0.00141933
0.00142123
0.00142163
0.0014191
0.00141926
0.00142045
0.00142169
0.00142289
0.00142231
0.00142498
0.00142602
0.00142427
0.00149182
0.00148743
0.00148258
0.00147745
0.00146988
0.00146886
0.00146671
0.0014645
0.00146352
0.00146188
0.00146093
0.00145934
0.00145786
0.00145658
0.00145548
0.00145464
0.00145347
0.00145189
0.00145007
0.00144791
0.00144631
0.00144586
0.00144586
0.00144611
0.0014464
0.00144621
0.00144617
0.00144582
0.0014438
0.00144239
0.00144067
0.00143986
0.00143977
0.00144008
0.00144099
0.00144236
0.00144303
0.00144339
0.00144355
0.00144364
0.00144408
0.0014448
0.00144611
0.00144711
0.00144498
0.00144068
0.00144077
0.00144107
0.00144002
0.00144072
0.00144506
0.00145062
0.00145018
0.00144826
0.00145058
0.00145189
0.00144866
0.00144983
0.00145016
0.0015139
0.00151187
0.00151002
0.00150798
0.00150613
0.00150465
0.001503
0.00150123
0.0014996
0.00149759
0.00149562
0.00149352
0.00149165
0.00149016
0.00148877
0.0014873
0.00148537
0.00148304
0.00148038
0.00147796
0.00147656
0.00147579
0.00147523
0.00147511
0.00147518
0.00147491
0.00147495
0.00147448
0.00147246
0.00147102
0.00146923
0.00146834
0.00146817
0.00146842
0.00146918
0.00147044
0.00147176
0.00147232
0.0014725
0.001473
0.0014732
0.00147461
0.00147513
0.00147613
0.00147836
0.00147899
0.00147763
0.00147535
0.00147327
0.00147725
0.00147951
0.00147848
0.00147858
0.00147708
0.00148159
0.00147921
0.00148424
0.00148462
0.00148347
0.00155841
0.00155686
0.00155471
0.00155282
0.00155074
0.0015486
0.0015464
0.00154412
0.00154181
0.0015394
0.00153711
0.00153499