/*--------------------------------*- C++ -*----------------------------------*\
| =========                 |                                                 |
| \\      /  F ield         | OpenFOAM: The Open Source CFD Toolbox           |
|  \\    /   O peration     | Version:  2312                                  |
|   \\  /    A nd           | Website:  www.openfoam.com                      |
|    \\/     M anipulation  |                                                 |
\*---------------------------------------------------------------------------*/
FoamFile
{
    version     2.0;
    format      ascii;
    arch        "LSB;label=32;scalar=64";
    class       volScalarField;
    location    "1800";
    object      p;
}
// * * * * * * * * * * * * * * * * * * * * * * * * * * * * * * * * * * * * * //

dimensions      [0 2 -2 0 0 0 0];

internalField   nonuniform List<scalar> 
76025
(
0.00870275
0.00263454
-0.00352819
-0.00976074
-0.0159651
-0.0222746
-0.0287526
-0.0350734
-0.0415487
-0.0479524
-0.0543731
-0.0608038
-0.0672521
-0.0736544
-0.0801307
-0.086531
-0.0928237
-0.0991285
-0.105406
-0.111551
-0.117594
-0.123679
-0.12957
-0.135274
-0.140873
-0.146265
-0.151695
-0.156958
-0.161839
-0.166829
-0.17153
-0.17576
-0.179869
-0.183694
-0.187315
-0.19067
-0.193626
-0.196628
-0.199067
-0.201149
-0.20282
-0.204186
-0.205517
-0.206163
-0.206508
-0.2064
-0.206103
-0.20523
-0.203805
-0.202119
-0.200121
-0.197628
-0.194698
-0.191339
-0.18753
-0.182931
-0.178359
-0.173015
-0.167353
-0.161415
-0.155091
-0.147993
-0.140359
-0.132691
-0.124534
-0.115412
-0.106659
-0.0976974
-0.0868654
0.00730604
0.000888439
-0.00556238
-0.0121069
-0.0187228
-0.0254161
-0.032126
-0.0388626
-0.0456385
-0.0524166
-0.059206
-0.0659952
-0.0727876
-0.0795711
-0.086312
-0.0929953
-0.0996772
-0.106277
-0.112875
-0.119358
-0.125799
-0.132108
-0.138275
-0.144285
-0.150186
-0.155967
-0.161612
-0.167022
-0.172238
-0.177276
-0.182086
-0.186719
-0.191093
-0.195149
-0.198991
-0.20254
-0.205806
-0.208774
-0.211362
-0.213636
-0.215532
-0.217109
-0.218349
-0.219117
-0.219527
-0.21955
-0.219212
-0.218386
-0.217118
-0.215509
-0.213526
-0.211084
-0.208191
-0.204851
-0.20103
-0.196688
-0.19201
-0.186827
-0.181225
-0.175239
-0.16887
-0.161917
-0.154439
-0.146667
-0.138488
-0.129752
-0.12084
-0.111648
-0.10147
0.00548415
-0.00126728
-0.00806543
-0.0149784
-0.0219841
-0.0290303
-0.0361089
-0.0432245
-0.0503668
-0.057529
-0.0646982
-0.0718662
-0.0790302
-0.0861746
-0.0932764
-0.100348
-0.107376
-0.114353
-0.121267
-0.128108
-0.134848
-0.141465
-0.147956
-0.154315
-0.16054
-0.166617
-0.172508
-0.178202
-0.183702
-0.18899
-0.194077
-0.19894
-0.203523
-0.20782
-0.211843
-0.215571
-0.218986
-0.222075
-0.224834
-0.227246
-0.229285
-0.23095
-0.232241
-0.233141
-0.233651
-0.23376
-0.233467
-0.232747
-0.231599
-0.230044
-0.228079
-0.225673
-0.222816
-0.219505
-0.215733
-0.211489
-0.20682
-0.201707
-0.196157
-0.19019
-0.183797
-0.176922
-0.169577
-0.161842
-0.153718
-0.145148
-0.136246
-0.127061
-0.117157
0.00341514
-0.00370807
-0.0108912
-0.0181948
-0.0255881
-0.0330322
-0.04051
-0.0480165
-0.0555463
-0.0630952
-0.0706542
-0.0782138
-0.0857637
-0.0932926
-0.100788
-0.108244
-0.115648
-0.122992
-0.130262
-0.137444
-0.144522
-0.151484
-0.158319
-0.165013
-0.171553
-0.177925
-0.184114
-0.190108
-0.195892
-0.201455
-0.206786
-0.211865
-0.21667
-0.221186
-0.225405
-0.229316
-0.232907
-0.236167
-0.239083
-0.241632
-0.2438
-0.245583
-0.246984
-0.247992
-0.248598
-0.248795
-0.248581
-0.247943
-0.246873
-0.245374
-0.243448
-0.241085
-0.238272
-0.235006
-0.231285
-0.227106
-0.222485
-0.217426
-0.211927
-0.205999
-0.199638
-0.192829
-0.185575
-0.177908
-0.169853
-0.161396
-0.152596
-0.143518
-0.133894
0.0011555
-0.00636505
-0.0139485
-0.021659
-0.0294623
-0.037321
-0.0452132
-0.0531321
-0.0610751
-0.0690375
-0.07701
-0.084981
-0.0929389
-0.100873
-0.108773
-0.116627
-0.124427
-0.132158
-0.139809
-0.147366
-0.154816
-0.162143
-0.169335
-0.176376
-0.183253
-0.189953
-0.196462
-0.202764
-0.208844
-0.21469
-0.220287
-0.225619
-0.230671
-0.235424
-0.239868
-0.243991
-0.247782
-0.251226
-0.254307
-0.25701
-0.259323
-0.26124
-0.26276
-0.263877
-0.264582
-0.264869
-0.264733
-0.264167
-0.263163
-0.261724
-0.259847
-0.257529
-0.254761
-0.251541
-0.247867
-0.243741
-0.239169
-0.234157
-0.228707
-0.222825
-0.216511
-0.209766
-0.20259
-0.195007
-0.187032
-0.178687
-0.169992
-0.161065
-0.151591
-0.00135035
-0.00929256
-0.0172996
-0.025441
-0.0336804
-0.0419771
-0.0503084
-0.058667
-0.0670507
-0.0754538
-0.0838661
-0.092275
-0.100669
-0.109036
-0.117365
-0.125646
-0.133866
-0.142013
-0.150072
-0.15803
-0.165873
-0.173586
-0.181154
-0.188563
-0.1958
-0.202849
-0.209696
-0.216324
-0.222719
-0.228865
-0.234748
-0.240353
-0.245664
-0.250665
-0.255344
-0.259685
-0.263678
-0.267307
-0.270558
-0.273418
-0.275876
-0.277926
-0.279565
-0.280789
-0.281592
-0.281968
-0.281911
-0.281417
-0.280481
-0.279102
-0.277279
-0.275009
-0.272287
-0.269113
-0.265485
-0.261407
-0.256884
-0.251921
-0.246523
-0.240694
-0.234439
-0.227761
-0.220665
-0.213171
-0.20529
-0.197058
-0.188475
-0.17969
-0.170324
-0.00416433
-0.0125553
-0.0210145
-0.0296163
-0.038321
-0.0470849
-0.0558842
-0.0647109
-0.0735624
-0.0824328
-0.0913114
-0.100185
-0.109042
-0.117869
-0.126655
-0.135388
-0.144054
-0.15264
-0.161131
-0.169513
-0.177772
-0.185891
-0.193857
-0.201655
-0.209269
-0.216684
-0.223884
-0.230854
-0.237577
-0.244038
-0.250221
-0.256111
-0.261693
-0.266951
-0.271871
-0.276439
-0.280641
-0.284465
-0.287896
-0.290922
-0.293531
-0.295718
-0.29748
-0.298816
-0.29972
-0.300187
-0.300213
-0.299794
-0.298925
-0.297607
-0.295837
-0.293614
-0.290937
-0.287806
-0.284223
-0.280191
-0.275716
-0.270803
-0.265458
-0.259687
-0.253496
-0.246891
-0.23988
-0.232484
-0.22471
-0.216601
-0.208142
-0.199466
-0.190124
-0.00732676
-0.0161952
-0.0251357
-0.0342274
-0.0434271
-0.0526882
-0.0619853
-0.0713096
-0.0806581
-0.0900247
-0.0993983
-0.108766
-0.118113
-0.127426
-0.136695
-0.145904
-0.155042
-0.164092
-0.17304
-0.181871
-0.19057
-0.199121
-0.207508
-0.215716
-0.223729
-0.23153
-0.239103
-0.246431
-0.253499
-0.26029
-0.266788
-0.272979
-0.278845
-0.284372
-0.289544
-0.294348
-0.29877
-0.302797
-0.306415
-0.309612
-0.312378
-0.314707
-0.316597
-0.318048
-0.319056
-0.319615
-0.319723
-0.319376
-0.318572
-0.31731
-0.31559
-0.313413
-0.310779
-0.307689
-0.304149
-0.300161
-0.295733
-0.290871
-0.285582
-0.279872
-0.273751
-0.267225
-0.260309
-0.25302
-0.245372
-0.237407
-0.229103
-0.220584
-0.211284
-0.0108842
-0.0202609
-0.0297132
-0.0393251
-0.0490502
-0.0588387
-0.068664
-0.0785169
-0.0883939
-0.0982885
-0.108189
-0.11808
-0.127948
-0.137779
-0.147559
-0.157275
-0.166911
-0.176454
-0.185887
-0.195194
-0.20436
-0.213368
-0.222201
-0.230843
-0.239277
-0.247486
-0.255452
-0.263159
-0.270591
-0.277731
-0.284561
-0.291067
-0.297231
-0.303038
-0.308473
-0.313521
-0.31817
-0.322407
-0.326219
-0.329593
-0.33252
-0.334996
-0.337019
-0.338587
-0.339698
-0.340349
-0.340536
-0.340258
-0.339515
-0.338305
-0.336632
-0.334496
-0.331901
-0.32885
-0.325349
-0.321403
-0.317021
-0.312208
-0.306976
-0.30133
-0.295283
-0.288845
-0.282034
-0.274864
-0.26736
-0.259558
-0.251453
-0.243186
-0.234402
-0.0148994
-0.0248172
-0.0348143
-0.0449799
-0.0552645
-0.0656147
-0.076002
-0.0864169
-0.0968558
-0.107311
-0.117771
-0.12822
-0.138642
-0.149022
-0.159347
-0.169601
-0.179769
-0.189834
-0.199781
-0.209593
-0.219254
-0.228745
-0.23805
-0.247151
-0.256029
-0.264667
-0.273049
-0.281155
-0.28897
-0.296476
-0.303655
-0.310491
-0.316966
-0.323067
-0.328776
-0.334081
-0.338967
-0.343422
-0.347434
-0.35099
-0.354083
-0.356707
-0.358861
-0.360545
-0.361757
-0.362495
-0.362758
-0.362544
-0.361855
-0.360693
-0.35906
-0.356961
-0.354399
-0.351381
-0.347914
-0.344005
-0.339664
-0.3349
-0.329723
-0.324145
-0.318178
-0.311837
-0.305143
-0.298107
-0.290762
-0.283127
-0.275223
-0.267179
-0.258748
-0.0194443
-0.0299382
-0.0405149
-0.05127
-0.0621501
-0.0730988
-0.0840854
-0.0950988
-0.106136
-0.117189
-0.128244
-0.139285
-0.150296
-0.16126
-0.172162
-0.182988
-0.193721
-0.204343
-0.214837
-0.225185
-0.235371
-0.245375
-0.255179
-0.264765
-0.274113
-0.283206
-0.292025
-0.300553
-0.308771
-0.316661
-0.324205
-0.331388
-0.338191
-0.344598
-0.350595
-0.356166
-0.361299
-0.36598
-0.370196
-0.373938
-0.377197
-0.379967
-0.382251
-0.384047
-0.385356
-0.386176
-0.386507
-0.38635
-0.385708
-0.384584
-0.382984
-0.380912
-0.378375
-0.375382
-0.371941
-0.368063
-0.363758
-0.359038
-0.353917
-0.34841
-0.342531
-0.3363
-0.329735
-0.322853
-0.31568
-0.308229
-0.300511
-0.292626
-0.284277
-0.0245987
-0.035707
-0.0469017
-0.0582855
-0.0698007
-0.0813863
-0.0930105
-0.104661
-0.116334
-0.128022
-0.139711
-0.151382
-0.163019
-0.174603
-0.18612
-0.197552
-0.208884
-0.220096
-0.23117
-0.242088
-0.25283
-0.263378
-0.273711
-0.283812
-0.293659
-0.303235
-0.312519
-0.321493
-0.330137
-0.338434
-0.346364
-0.353911
-0.361057
-0.367785
-0.37408
-0.379927
-0.385313
-0.390225
-0.39465
-0.398579
-0.402003
-0.40492
-0.407329
-0.409233
-0.410632
-0.411526
-0.411916
-0.411806
-0.4112
-0.410103
-0.408523
-0.406466
-0.403942
-0.400962
-0.397536
-0.393679
-0.389403
-0.384724
-0.37966
-0.374228
-0.368447
-0.362337
-0.355918
-0.34921
-0.342233
-0.335009
-0.327521
-0.31986
-0.3111
-0.0304634
-0.0422265
-0.0540798
-0.0661322
-0.0783222
-0.0905858
-0.102889
-0.115219
-0.127572
-0.139937
-0.152302
-0.164645
-0.176947
-0.18919
-0.20136
-0.213437
-0.225404
-0.237241
-0.248931
-0.260453
-0.271786
-0.282911
-0.293807
-0.304454
-0.314831
-0.324918
-0.334694
-0.344139
-0.353235
-0.36196
-0.370296
-0.378225
-0.38573
-0.392793
-0.399398
-0.405531
-0.411178
-0.416326
-0.420962
-0.425078
-0.428668
-0.431726
-0.434256
-0.43626
-0.437739
-0.438695
-0.439132
-0.439055
-0.43847
-0.437384
-0.435807
-0.433749
-0.431221
-0.428238
-0.424814
-0.420966
-0.416711
-0.41207
-0.407063
-0.401711
-0.396036
-0.39006
-0.383804
-0.377289
-0.370536
-0.363571
-0.356389
-0.349143
-0.341456
-0.0371559
-0.0496204
-0.0621769
-0.0749426
-0.0878526
-0.100839
-0.113864
-0.126917
-0.139991
-0.153079
-0.166161
-0.179218
-0.192228
-0.205176
-0.218041
-0.230807
-0.243453
-0.255958
-0.268304
-0.280468
-0.29243
-0.304168
-0.315661
-0.326886
-0.337823
-0.34845
-0.358746
-0.368689
-0.378259
-0.387435
-0.396198
-0.404528
-0.412408
-0.419819
-0.426746
-0.433173
-0.439087
-0.444475
-0.449324
-0.453627
-0.457377
-0.460571
-0.463213
-0.465305
-0.466851
-0.467855
-0.468321
-0.468258
-0.467672
-0.466576
-0.46498
-0.462899
-0.460346
-0.457341
-0.453903
-0.450052
-0.44581
-0.441202
-0.436251
-0.430981
-0.425418
-0.419585
-0.413507
-0.407205
-0.400704
-0.394023
-0.387141
-0.38017
-0.372457
-0.0448054
-0.0580191
-0.0713278
-0.0848573
-0.0985373
-0.112295
-0.126092
-0.139915
-0.153759
-0.167614
-0.181461
-0.195278
-0.209046
-0.222743
-0.236351
-0.249851
-0.26322
-0.276438
-0.289482
-0.302331
-0.314961
-0.327351
-0.339477
-0.351318
-0.362849
-0.374048
-0.384893
-0.395362
-0.405432
-0.415083
-0.424294
-0.433044
-0.441315
-0.449088
-0.456348
-0.463078
-0.469264
-0.474894
-0.479955
-0.48444
-0.488344
-0.491664
-0.494405
-0.49657
-0.498165
-0.499194
-0.499667
-0.499591
-0.498979
-0.497844
-0.496202
-0.494071
-0.49147
-0.488423
-0.484951
-0.481082
-0.476841
-0.472256
-0.467354
-0.462164
-0.456713
-0.451028
-0.445139
-0.439072
-0.432853
-0.426509
-0.420043
-0.413595
-0.406908
-0.0535714
-0.067583
-0.0816938
-0.096039
-0.110543
-0.125127
-0.13975
-0.154397
-0.169064
-0.183738
-0.198401
-0.213031
-0.227604
-0.2421
-0.2565
-0.27078
-0.28492
-0.298896
-0.312684
-0.326261
-0.339604
-0.352688
-0.365489
-0.377982
-0.390144
-0.401951
-0.413379
-0.424404
-0.435003
-0.445154
-0.454835
-0.464026
-0.472705
-0.480855
-0.488458
-0.495498
-0.501961
-0.507833
-0.513103
-0.517764
-0.521811
-0.525243
-0.528064
-0.530281
-0.5319
-0.532928
-0.533376
-0.533257
-0.532586
-0.53138
-0.52966
-0.52745
-0.524772
-0.521656
-0.518128
-0.514219
-0.509959
-0.50538
-0.500511
-0.495388
-0.49004
-0.484503
-0.478806
-0.472987
-0.46707
-0.461099
-0.455072
-0.449106
-0.442879
-0.0636614
-0.0785271
-0.0934953
-0.108711
-0.124093
-0.139558
-0.155062
-0.170589
-0.186133
-0.201682
-0.217216
-0.232712
-0.248145
-0.263493
-0.278736
-0.293849
-0.308809
-0.323593
-0.338174
-0.352528
-0.366629
-0.380451
-0.39397
-0.407158
-0.419991
-0.432444
-0.444489
-0.456104
-0.467262
-0.477941
-0.488118
-0.49777
-0.506876
-0.515416
-0.523373
-0.53073
-0.537472
-0.543584
-0.549057
-0.553883
-0.558059
-0.561583
-0.564461
-0.566703
-0.568315
-0.569309
-0.569699
-0.5695
-0.568732
-0.567418
-0.565583
-0.563254
-0.560463
-0.55724
-0.553619
-0.549636
-0.545324
-0.540719
-0.535858
-0.530778
-0.525516
-0.520112
-0.514602
-0.509032
-0.503429
-0.497859
-0.492316
-0.486938
-0.481284
-0.0753216
-0.0911023
-0.106986
-0.12313
-0.139449
-0.155852
-0.172294
-0.188759
-0.205239
-0.221721
-0.238184
-0.254604
-0.270954
-0.287212
-0.303354
-0.319355
-0.335192
-0.350836
-0.366263
-0.381444
-0.396354
-0.410963
-0.425246
-0.439175
-0.452722
-0.46586
-0.478562
-0.490801
-0.502552
-0.513788
-0.524486
-0.534621
-0.544172
-0.553118
-0.561438
-0.569117
-0.576137
-0.582486
-0.588153
-0.593131
-0.597416
-0.601009
-0.603919
-0.606155
-0.607727
-0.60865
-0.60894
-0.608619
-0.607709
-0.606238
-0.604236
-0.601736
-0.598774
-0.595389
-0.591619
-0.587505
-0.583089
-0.578412
-0.573516
-0.568444
-0.563237
-0.55794
-0.552596
-0.547259
-0.541971
-0.536811
-0.531806
-0.527104
-0.522402
-0.0888641
-0.105626
-0.12249
-0.139627
-0.156945
-0.174349
-0.191793
-0.209258
-0.226736
-0.244214
-0.261669
-0.279074
-0.296403
-0.313632
-0.330733
-0.347683
-0.364454
-0.381018
-0.397346
-0.413411
-0.429183
-0.444632
-0.459731
-0.474448
-0.488755
-0.502623
-0.516022
-0.528924
-0.541301
-0.553125
-0.564371
-0.575012
-0.585026
-0.59439
-0.603083
-0.611088
-0.618387
-0.624966
-0.630816
-0.635929
-0.640303
-0.643939
-0.646848
-0.649041
-0.650531
-0.651334
-0.651471
-0.650966
-0.649848
-0.648148
-0.645903
-0.643153
-0.639939
-0.636307
-0.632305
-0.627982
-0.623386
-0.618568
-0.613574
-0.608453
-0.603251
-0.59802
-0.592811
-0.587678
-0.582675
-0.57789
-0.573385
-0.569304
-0.565564
-0.104646
-0.122461
-0.140374
-0.158572
-0.176959
-0.195434
-0.213948
-0.232482
-0.251028
-0.269571
-0.288086
-0.306546
-0.324922
-0.343188
-0.361316
-0.37928
-0.397051
-0.414597
-0.43189
-0.448899
-0.465591
-0.481937
-0.497903
-0.51346
-0.528576
-0.543218
-0.557355
-0.570958
-0.583996
-0.596439
-0.60826
-0.619432
-0.629928
-0.639726
-0.648803
-0.657139
-0.664717
-0.671522
-0.677543
-0.682774
-0.68721
-0.690855
-0.693721
-0.69582
-0.697167
-0.697781
-0.697686
-0.696911
-0.69549
-0.693461
-0.690867
-0.687755
-0.684176
-0.680185
-0.675839
-0.671197
-0.666318
-0.661259
-0.656076
-0.650825
-0.645562
-0.640343
-0.635218
-0.630238
-0.625465
-0.620989
-0.616846
-0.613193
-0.609954
-0.12328
-0.142224
-0.16126
-0.180593
-0.20012
-0.219739
-0.239398
-0.259076
-0.278764
-0.298444
-0.318093
-0.337679
-0.357173
-0.376547
-0.395771
-0.414816
-0.433652
-0.452245
-0.470565
-0.488578
-0.506251
-0.52355
-0.540441
-0.556891
-0.572865
-0.58833
-0.603251
-0.617597
-0.631333
-0.64443
-0.656856
-0.668582
-0.67958
-0.689824
-0.699291
-0.707958
-0.715806
-0.722818
-0.728983
-0.734292
-0.738741
-0.742335
-0.745086
-0.747006
-0.748115
-0.748434
-0.747992
-0.746824
-0.744971
-0.742479
-0.739398
-0.735786
-0.731703
-0.727213
-0.722385
-0.717286
-0.711986
-0.706555
-0.701064
-0.695581
-0.690164
-0.68487
-0.679741
-0.674838
-0.67021
-0.665917
-0.661938
-0.658532
-0.655361
-0.145432
-0.16558
-0.185807
-0.20634
-0.227073
-0.247899
-0.268765
-0.28965
-0.310542
-0.331422
-0.352264
-0.373036
-0.393707
-0.414247
-0.434626
-0.45481
-0.474768
-0.494466
-0.513869
-0.532941
-0.551647
-0.56995
-0.587815
-0.605205
-0.622083
-0.638412
-0.654155
-0.669278
-0.683745
-0.697522
-0.710575
-0.722872
-0.734384
-0.745082
-0.754939
-0.76393
-0.772033
-0.779231
-0.785508
-0.790854
-0.795264
-0.798742
-0.801301
-0.802955
-0.803722
-0.803629
-0.802711
-0.801008
-0.79857
-0.795453
-0.791722
-0.787446
-0.782696
-0.777549
-0.772079
-0.766368
-0.760494
-0.754547
-0.748606
-0.742747
-0.737034
-0.731529
-0.72629
-0.721368
-0.71675
-0.712474
-0.708484
-0.705185
-0.701831
-0.171665
-0.193086
-0.214576
-0.236373
-0.258375
-0.280477
-0.302623
-0.324789
-0.346961
-0.369117
-0.391229
-0.413265
-0.435192
-0.456977
-0.478589
-0.499992
-0.521152
-0.542031
-0.562593
-0.582801
-0.602614
-0.621996
-0.640907
-0.659307
-0.677157
-0.694416
-0.711044
-0.727003
-0.742253
-0.756756
-0.770475
-0.783374
-0.795419
-0.806577
-0.816816
-0.82611
-0.834435
-0.841766
-0.848088
-0.853387
-0.857656
-0.860899
-0.863127
-0.864356
-0.864608
-0.863916
-0.86232
-0.859871
-0.856625
-0.852654
-0.848034
-0.842853
-0.837202
-0.831178
-0.824872
-0.818377
-0.811777
-0.805162
-0.798608
-0.792201
-0.786045
-0.780229
-0.774801
-0.769769
-0.76512
-0.76088
-0.756921
-0.753657
-0.749815
-0.200433
-0.223194
-0.245995
-0.269116
-0.292459
-0.315915
-0.339424
-0.362956
-0.386495
-0.410018
-0.433495
-0.456891
-0.480171
-0.5033
-0.526242
-0.54896
-0.571416
-0.593571
-0.615385
-0.636816
-0.657824
-0.678368
-0.698405
-0.717892
-0.736784
-0.75504
-0.772614
-0.789464
-0.805547
-0.820823
-0.835252
-0.848797
-0.86142
-0.873083
-0.883748
-0.893385
-0.901966
-0.909462
-0.915851
-0.921118
-0.925254
-0.928262
-0.93015
-0.93093
-0.930626
-0.929269
-0.926901
-0.923574
-0.919353
-0.914314
-0.908549
-0.902163
-0.895283
-0.888046
-0.880587
-0.873032
-0.865483
-0.858025
-0.850752
-0.843763
-0.837165
-0.831043
-0.825471
-0.820501
-0.816091
-0.812167
-0.808539
-0.805441
-0.801723
-0.233607
-0.257798
-0.282068
-0.306661
-0.331491
-0.356455
-0.381486
-0.406546
-0.431614
-0.456669
-0.481682
-0.506617
-0.531436
-0.556099
-0.580566
-0.604798
-0.628752
-0.652387
-0.675657
-0.698518
-0.720926
-0.742837
-0.764205
-0.784983
-0.805121
-0.824569
-0.843278
-0.861198
-0.878279
-0.894474
-0.909738
-0.924026
-0.937295
-0.949504
-0.960613
-0.970582
-0.979372
-0.986948
-0.993278
-0.998337
-1.00211
-1.00459
-1.0058
-1.00575
-1.00446
-1.00198
-0.998364
-0.993683
-0.988019
-0.981462
-0.97412
-0.966104
-0.957549
-0.94862
-0.939514
-0.930461
-0.921664
-0.913262
-0.905324
-0.89787
-0.890958
-0.884731
-0.879291
-0.874628
-0.870638
-0.867212
-0.864177
-0.861482
-0.85851
-0.265006
-0.290766
-0.316481
-0.342541
-0.368867
-0.395337
-0.421871
-0.448432
-0.475004
-0.501565
-0.528081
-0.554511
-0.580812
-0.606945
-0.63287
-0.658543
-0.683923
-0.708965
-0.733621
-0.757847
-0.781594
-0.804813
-0.827454
-0.849466
-0.870797
-0.891397
-0.911218
-0.930209
-0.948321
-0.965498
-0.981683
-0.996816
-1.01085
-1.02373
-1.03543
-1.0459
-1.0551
-1.06299
-1.06952
-1.07467
-1.07841
-1.08075
-1.08167
-1.08121
-1.07937
-1.0762
-1.07176
-1.06613
-1.05939
-1.05167
-1.04308
-1.03376
-1.02383
-1.01341
-1.00272
-0.992068
-0.981814
-0.972159
-0.963187
-0.954945
-0.947505
-0.940979
-0.935445
-0.930922
-0.92734
-0.92449
-0.922004
-0.919359
-0.916028
-0.312156
-0.339534
-0.36722
-0.395241
-0.423528
-0.451993
-0.48056
-0.509182
-0.537834
-0.566488
-0.595106
-0.623643
-0.652056
-0.680299
-0.708328
-0.736099
-0.763565
-0.790677
-0.817387
-0.843642
-0.869388
-0.894571
-0.919132
-0.943011
-0.966147
-0.98848
-1.00994
-1.03048
-1.05002
-1.06853
-1.08594
-1.10219
-1.1172
-1.1309
-1.14323
-1.15415
-1.16359
-1.17148
-1.17775
-1.18235
-1.18526
-1.18645
-1.18593
-1.18369
-1.17977
-1.17421
-1.16707
-1.15843
-1.14845
-1.1373
-1.1252
-1.11241
-1.09915
-1.08559
-1.07184
-1.05819
-1.04505
-1.03283
-1.02177
-1.01201
-1.00358
-0.996571
-0.990939
-0.986524
-0.983023
-0.979939
-0.976702
-0.972604
-0.967167
-0.331123
-0.36014
-0.388886
-0.41816
-0.447804
-0.477595
-0.50744
-0.537317
-0.567213
-0.597106
-0.626962
-0.656735
-0.686375
-0.715835
-0.745069
-0.774032
-0.802673
-0.830942
-0.858788
-0.886158
-0.912996
-0.939249
-0.964858
-0.989762
-1.0139
-1.03723
-1.05968
-1.08118
-1.10165
-1.12102
-1.13927
-1.15633
-1.17217
-1.18673
-1.19996
-1.21184
-1.22234
-1.23139
-1.23883
-1.24454
-1.24847
-1.2506
-1.25094
-1.24947
-1.24622
-1.24121
-1.23448
-1.22609
-1.21611
-1.20467
-1.19195
-1.17824
-1.16387
-1.14917
-1.13442
-1.11989
-1.10601
-1.09316
-1.08157
-1.07129
-1.06219
-1.05405
-1.04661
-1.03959
-1.03272
-1.02581
-1.01866
-1.01097
-1.00182
-0.420323
-0.451948
-0.484342
-0.517185
-0.550304
-0.583612
-0.617014
-0.650439
-0.683866
-0.71729
-0.750689
-0.784016
-0.817212
-0.850222
-0.882993
-0.915473
-0.947609
-0.979346
-1.01062
-1.04137
-1.07154
-1.10104
-1.12982
-1.15781
-1.18492
-1.21109
-1.23623
-1.26028
-1.28318
-1.30482
-1.32509
-1.34387
-1.3611
-1.37668
-1.39052
-1.40247
-1.41239
-1.42024
-1.42607
-1.4299
-1.4317
-1.43138
-1.42885
-1.42403
-1.41686
-1.40727
-1.39526
-1.38086
-1.36418
-1.34537
-1.32466
-1.30234
-1.27875
-1.25434
-1.2296
-1.20505
-1.18123
-1.15862
-1.1376
-1.11844
-1.10127
-1.08606
-1.07263
-1.06073
-1.04999
-1.04012
-1.0308
-1.0219
-1.01427
0.0573968
0.0604187
0.0637521
0.0673667
0.0712422
0.0754176
0.0799557
0.0847714
0.0898612
0.0951904
0.100832
0.106806
0.112916
0.119581
0.125889
0.132526
0.138879
0.145565
0.152037
0.158363
0.164863
0.170478
0.175864
0.180471
0.184583
0.188224
0.190853
0.192617
0.193743
0.193996
0.192937
0.19104
0.188353
0.184988
0.180378
0.175066
0.169229
0.162674
0.155483
0.148064
0.140236
0.132137
0.124055
0.116049
0.107637
0.0996612
0.091511
0.0837221
0.0759867
0.0684925
0.0613451
0.0544572
0.0479264
0.0417183
0.0358152
0.0299498
0.0244689
0.0192099
0.0142143
0.0575121
0.0607114
0.0642353
0.0680334
0.0721336
0.0765417
0.081276
0.0863196
0.0916757
0.0973393
0.103284
0.109518
0.115995
0.122705
0.129606
0.136485
0.143499
0.150447
0.157381
0.164032
0.170547
0.176716
0.182338
0.187337
0.191705
0.195451
0.19837
0.200276
0.201463
0.201681
0.200667
0.198825
0.196061
0.192327
0.187608
0.182055
0.175863
0.16905
0.161595
0.153714
0.145578
0.137172
0.128636
0.11995
0.111292
0.10274
0.0942787
0.0860463
0.0779851
0.0701591
0.0626467
0.055438
0.0484998
0.0418887
0.0355219
0.0294679
0.0237142
0.0182607
0.0130802
0.0578525
0.0612286
0.0649116
0.0689
0.0732088
0.0778454
0.0828111
0.0881074
0.0937393
0.0996987
0.10596
0.112494
0.119291
0.126323
0.133539
0.140902
0.148341
0.15574
0.163028
0.170087
0.176878
0.183366
0.189341
0.194694
0.199375
0.203305
0.206385
0.2085
0.20975
0.20996
0.20905
0.207182
0.204238
0.200271
0.195335
0.189546
0.183005
0.175833
0.168062
0.159833
0.151256
0.142372
0.13331
0.124179
0.11507
0.10606
0.0971694
0.0884727
0.0799981
0.0717713
0.0638415
0.0562091
0.0488795
0.0418556
0.0351677
0.0288105
0.0227607
0.0170224
0.0115647
0.058084
0.0616287
0.065502
0.0696956
0.074228
0.0791066
0.0843346
0.0899125
0.095839
0.102108
0.108703
0.1156
0.122779
0.130201
0.137806
0.145573
0.153398
0.161215
0.168912
0.176413
0.183627
0.190453
0.196772
0.202461
0.207446
0.211618
0.214887
0.217177
0.21851
0.218745
0.217872
0.215931
0.212834
0.208681
0.203509
0.197444
0.190562
0.182987
0.174802
0.166131
0.157063
0.147691
0.138152
0.128561
0.118966
0.109458
0.100084
0.0909036
0.0819628
0.0732873
0.0649102
0.056851
0.049126
0.0417378
0.0346941
0.0279891
0.0216115
0.0155629
0.0098173
0.0580283
0.0617557
0.0658329
0.0702499
0.0750259
0.0801672
0.0856794
0.0915635
0.0978163
0.10443
0.111391
0.118678
0.126263
0.134104
0.142148
0.15034
0.158601
0.166857
0.175007
0.182962
0.190615
0.197841
0.204531
0.210568
0.21586
0.220301
0.223791
0.226247
0.227675
0.227952
0.227074
0.225049
0.221811
0.217465
0.212045
0.205673
0.198433
0.190443
0.181806
0.172648
0.163079
0.153216
0.143178
0.133068
0.122954
0.112922
0.103038
0.0933581
0.0839288
0.0747836
0.0659529
0.0574602
0.0493197
0.0415374
0.0341139
0.0270474
0.0203304
0.0139607
0.00790952
0.0577125
0.0616343
0.0659258
0.0705773
0.0756095
0.0810289
0.0868418
0.0930502
0.0996515
0.106637
0.113991
0.121692
0.129708
0.137998
0.146508
0.155175
0.163921
0.172662
0.181299
0.189727
0.197835
0.205499
0.212598
0.219013
0.224638
0.229367
0.233096
0.23573
0.237264
0.237591
0.236703
0.234592
0.231206
0.226646
0.220956
0.214254
0.206634
0.198215
0.189114
0.179461
0.16938
0.158992
0.148412
0.137744
0.127078
0.116497
0.106074
0.0958659
0.0859222
0.0762814
0.0669742
0.0580227
0.0494406
0.0412353
0.0334085
0.0259584
0.0188766
0.0121602
0.00577987
0.0571248
0.0612544
0.065775
0.0706767
0.0759815
0.081697
0.0878303
0.0943838
0.101355
0.108736
0.11651
0.124653
0.133132
0.141903
0.15091
0.160087
0.169354
0.178618
0.187775
0.196712
0.20531
0.213446
0.22099
0.227815
0.233803
0.238844
0.242828
0.245657
0.247311
0.247695
0.246803
0.244606
0.241062
0.236271
0.230292
0.223239
0.215216
0.206348
0.196761
0.186591
0.175967
0.165015
0.153855
0.142599
0.131346
0.120182
0.109184
0.0984123
0.0879203
0.0777493
0.0679305
0.0584866
0.0494321
0.0407748
0.0325167
0.0246557
0.0171831
0.0100964
0.00336517
0.0562069
0.0605604
0.0653288
0.0705016
0.0761015
0.0821366
0.0886151
0.0955398
0.102909
0.110713
0.118935
0.127552
0.136527
0.145814
0.155354
0.165078
0.1749
0.184724
0.194437
0.203922
0.213053
0.221697
0.22972
0.236986
0.243368
0.248745
0.253004
0.256045
0.257833
0.258284
0.257388
0.255104
0.251398
0.246365
0.240079
0.232655
0.224205
0.214859
0.204753
0.19403
0.182824
0.171269
0.159492
0.147612
0.135733
0.123947
0.112335
0.100963
0.0898858
0.0791479
0.068782
0.0588117
0.0492527
0.0401134
0.0313961
0.0230983
0.0152111
0.00773139
0.000627439
0.0549033
0.0594978
0.0645324
0.0699964
0.0759138
0.0822931
0.0891432
0.0964673
0.104263
0.112522
0.121228
0.130353
0.139861
0.149703
0.159818
0.17013
0.18055
0.190973
0.201286
0.211361
0.221065
0.230258
0.238796
0.246536
0.253341
0.259081
0.263636
0.266905
0.268841
0.269368
0.268469
0.266096
0.26222
0.256935
0.250324
0.242506
0.2336
0.223745
0.213085
0.201768
0.189941
0.177742
0.165308
0.152762
0.140216
0.127768
0.115502
0.10349
0.0917895
0.0804471
0.0694977
0.0589667
0.0488709
0.0392189
0.0300131
0.0212509
0.0129225
0.00502408
-0.00247735
0.0531533
0.0580054
0.0633243
0.0690994
0.0753562
0.0821042
0.0893529
0.0971062
0.105362
0.114112
0.123338
0.133012
0.143096
0.153538
0.164272
0.175218
0.186281
0.197352
0.208311
0.219022
0.229343
0.239128
0.248222
0.256472
0.263731
0.269861
0.274736
0.278251
0.280349
0.280959
0.280058
0.277593
0.273539
0.267987
0.26103
0.252792
0.243402
0.233003
0.221751
0.209802
0.19731
0.184426
0.17129
0.158034
0.144778
0.131624
0.118662
0.105968
0.0936031
0.0816164
0.0700451
0.0589162
0.0482473
0.038048
0.0283207
0.0190622
0.0102622
0.00191642
-0.00600957
0.0508738
0.0560024
0.0616268
0.0677364
0.0743582
0.0815031
0.0891814
0.0973977
0.10615
0.11543
0.125218
0.135485
0.146189
0.157276
0.168677
0.180306
0.192065
0.203836
0.215492
0.22689
0.237879
0.248302
0.257994
0.266794
0.274543
0.281094
0.286314
0.290095
0.292369
0.293071
0.29217
0.289609
0.285366
0.279529
0.272204
0.263519
0.25361
0.242632
0.230748
0.218124
0.204925
0.191308
0.177424
0.163412
0.149397
0.135489
0.121784
0.108361
0.0952869
0.0826122
0.0703769
0.0586095
0.0473288
0.0365446
0.0262591
0.0164695
0.00716482
-0.00165947
-0.0100395
0.0479782
0.0534047
0.0593584
0.0658291
0.0728454
0.080419
0.0885611
0.0972769
0.106565
0.116415
0.126808
0.137713
0.149086
0.160869
0.17299
0.185358
0.197867
0.210395
0.222805
0.234945
0.246655
0.257767
0.268106
0.277498
0.285776
0.292781
0.298375
0.302444
0.304911
0.305713
0.304815
0.302154
0.297709
0.291569
0.28385
0.274687
0.264225
0.252628
0.240069
0.226724
0.212768
0.198369
0.183686
0.168865
0.15404
0.139326
0.124826
0.110624
0.096791
0.0833807
0.0704354
0.0579852
0.04605
0.0346401
0.0237586
0.0134019
0.00355817
-0.00577802
-0.0146437
0.0443673
0.0501143
0.0564228
0.0632826
0.0707241
0.0787599
0.0874022
0.0966566
0.106522
0.116988
0.128034
0.139628
0.151724
0.164261
0.17716
0.190326
0.203648
0.216994
0.230217
0.243159
0.255648
0.267504
0.278541
0.288573
0.297421
0.304918
0.310917
0.315298
0.317976
0.318888
0.317994
0.315228
0.310569
0.304107
0.295967
0.286292
0.275239
0.262979
0.249697
0.235581
0.220816
0.205579
0.19004
0.174355
0.158662
0.143087
0.127736
0.112701
0.0980557
0.0838579
0.0701528
0.0569718
0.0443357
0.0322557
0.0207349
0.00976968
-0.000651968
-0.0105361
-0.0199215
0.039923
0.0460136
0.0527027
0.0599811
0.0678804
0.0764145
0.0855967
0.0954333
0.105923
0.117056
0.12881
0.141151
0.154031
0.167383
0.181125
0.195155
0.209355
0.223583
0.237687
0.251496
0.264827
0.277487
0.289277
0.299999
0.309463
0.317492
0.32393
0.328649
0.331557
0.332591
0.331705
0.328828
0.323942
0.317135
0.308544
0.298322
0.286634
0.273664
0.259609
0.244665
0.229032
0.212897
0.19644
0.179828
0.163207
0.146709
0.130448
0.114521
0.0990063
0.0839666
0.0694488
0.0554857
0.042099
0.0293011
0.0170951
0.0054777
-0.00556392
-0.0160371
-0.0259825
0.0344963
0.0409569
0.0480567
0.0557871
0.0641816
0.0732556
0.083023
0.0934908
0.104658
0.116514
0.129036
0.142186
0.155914
0.170149
0.184803
0.199768
0.214917
0.230102
0.24516
0.259908
0.274149
0.287676
0.300279
0.311747
0.321877
0.330481
0.337394
0.34248
0.345639
0.346807
0.345931
0.342939
0.337809
0.330633
0.321559
0.310749
0.298381
0.284649
0.269762
0.253932
0.237366
0.220268
0.202826
0.185218
0.167601
0.150114
0.132879
0.115996
0.0995503
0.0836076
0.0682179
0.0534172
0.0392275
0.0256616
0.0127231
0.00040708
-0.0113001
-0.0224072
-0.0329554
0.0279275
0.0347873
0.0423305
0.05055
0.0594803
0.0691383
0.079539
0.0906901
0.102591
0.115229
0.128582
0.142609
0.157255
0.172446
0.188089
0.204068
0.220248
0.236472
0.252564
0.268326
0.28355
0.298016
0.311498
0.323772
0.334623
0.34385
0.351277
0.356761
0.360194
0.361507
0.360645
0.357531
0.352141
0.344571
0.334977
0.323537
0.310437
0.295887
0.280107
0.263322
0.245756
0.22762
0.20912
0.190442
0.171756
0.153207
0.134925
0.117017
0.0995722
0.0826617
0.0663375
0.050637
0.0355838
0.0211925
0.00746633
-0.00560014
-0.018021
-0.0298072
-0.0410003
0.0200065
0.0272951
0.0353154
0.0440622
0.0535715
0.0638615
0.0749485
0.0868407
0.0995374
0.113027
0.127282
0.142263
0.157908
0.17414
0.190858
0.20794
0.22524
0.24259
0.2598
0.276661
0.29295
0.308431
0.322865
0.336011
0.347641
0.357541
0.365526
0.371441
0.375173
0.376646
0.375802
0.372558
0.36689
0.358894
0.348741
0.336622
0.322735
0.307304
0.290564
0.272752
0.25411
0.23486
0.21522
0.195391
0.175553
0.155864
0.136457
0.117447
0.0989298
0.0809795
0.0636514
0.0469838
0.0310033
0.0157244
0.00115078
-0.0127226