/*--------------------------------*- C++ -*----------------------------------*\
| =========                 |                                                 |
| \\      /  F ield         | OpenFOAM: The Open Source CFD Toolbox           |
|  \\    /   O peration     | Version:  2312                                  |
|   \\  /    A nd           | Website:  www.openfoam.com                      |
|    \\/     M anipulation  |                                                 |
\*---------------------------------------------------------------------------*/
FoamFile
{
    version     2.0;
    format      ascii;
    arch        "LSB;label=32;scalar=64";
    class       surfaceScalarField;
    location    "1800";
    object      phi;
}
// * * * * * * * * * * * * * * * * * * * * * * * * * * * * * * * * * * * * * //

dimensions      [0 3 -1 0 0 0 0];

oriented        oriented;

internalField   nonuniform List<scalar> 
116611
(
0.0289598
0.0115672
-0.0285537
-0.0119733
0.0293636
0.0114929
-0.0118966
0.0297609
0.0114104
-0.0118077
0.0301534
0.0113194
-0.0117118
0.0305446
0.0112223
-0.0116135
0.0309346
0.0111165
-0.0115065
0.0313171
0.0110039
-0.0113864
0.0317
0.0108838
-0.0112667
0.0320698
0.0107535
-0.0111233
0.0324355
0.010614
-0.0109797
0.0327947
0.0104647
-0.0108239
0.033149
0.0103065
-0.0106608
0.0334937
0.0101383
-0.010483
0.0338277
0.00995916
-0.0102932
0.0341502
0.00976889
-0.0100914
0.0344638
0.00956875
-0.00988231
0.0347701
0.00935558
-0.00966184
0.0350689
0.00913498
-0.00943386
0.0353551
0.00889865
-0.00918484
0.0356302
0.00865403
-0.00892911
0.035895
0.00839435
-0.00865916
0.0361428
0.00812316
-0.00837095
0.0363758
0.00783781
-0.00807077
0.0365967
0.00754161
-0.00776256
0.0368038
0.00723221
-0.00743932
0.0370023
0.00691042
-0.00710893
0.0371835
0.00657273
-0.00675387
0.0373485
0.00622365
-0.00638872
0.0375083
0.00586295
-0.00602275
0.0376457
0.00548877
-0.00562613
0.0377684
0.00510172
-0.00522445
0.03788
0.00469736
-0.00480889
0.0379697
0.00427867
-0.00436835
0.0380465
0.00384986
-0.00392671
0.0381058
0.00340486
-0.00346413
0.0381449
0.00294837
-0.00298754
0.038178
0.0024792
-0.00251228
0.0381816
0.00199389
-0.00199748
0.038172
0.00149581
-0.00148615
0.0381385
0.000980942
-0.000947504
0.0380874
0.000456916
-0.000405787
0.038027
-7.99097e-05
0.000140341
0.037934
-0.000635474
0.000728442
0.0378267
-0.00120062
0.00130794
0.0376927
-0.00177964
0.00191357
0.0375473
-0.00236705
0.00251244
0.037375
-0.00296993
0.00314226
0.0371758
-0.00358292
0.0037821
0.0369609
-0.00420112
0.00441603
0.0367262
-0.00482845
0.00506315
0.036466
-0.00546586
0.00572607
0.0361857
-0.00610869
0.006389
0.0358835
-0.00675828
0.00706045
0.035555
-0.00741499
0.00774354
0.0351899
-0.00807593
0.00844099
0.0348204
-0.00872848
0.00909796
0.0344085
-0.00938782
0.00979975
0.0339814
-0.010039
0.0104661
0.0335309
-0.0106834
0.011134
0.0330587
-0.0113184
0.0117906
0.0325515
-0.0119521
0.0124594
0.0320239
-0.0125699
0.0130974
0.0314771
-0.0131634
0.0137102
0.0309005
-0.0137416
0.0143182
0.030292
-0.014298
0.0149065
0.0296877
-0.0148133
0.0154176
0.0290646
-0.0153013
0.0159245
0.0284049
-0.0157674
0.0164271
-0.0161665
0.0276775
0.0168939
0.0286111
0.0111593
-0.0282032
0.0290146
0.0110894
0.0294131
0.0110118
0.0298061
0.0109264
0.0301959
0.0108325
0.0305808
0.0107317
0.0309619
0.0106228
0.0313395
0.0105061
0.0317114
0.0103816
0.0320773
0.0102481
0.0324366
0.0101054
0.0327895
0.00995356
0.0331358
0.00979208
0.033474
0.00962092
0.0338024
0.00944045
0.0341223
0.0092489
0.034431
0.00904685
0.0347323
0.00883365
0.0350216
0.00860943
0.0353022
0.00837339
0.0355709
0.00812568
0.0358277
0.00786631
0.0360708
0.00759475
0.0363012
0.00731124
0.0365182
0.00701515
0.0367228
0.00670579
0.0369116
0.00638399
0.0370859
0.00604934
0.0372471
0.00570172
0.0373935
0.00534242
0.0375262
0.00496899
0.0376426
0.00458091
0.0377413
0.00418003
0.0378249
0.00376623
0.0378906
0.00333914
0.0379402
0.00289875
0.0379741
0.00244529
0.0379894
0.00197868
0.0379871
0.00149809
0.0379641
0.00100393
0.0379234
0.000497586
0.0378644
-2.08473e-05
0.0377827
-0.000553796
0.0376816
-0.0010995
0.0375588
-0.00165691
0.0374168
-0.00222504
0.0372513
-0.00280439
0.0370626
-0.00339421
0.0368536
-0.00399215
0.0366232
-0.00459807
0.0363696
-0.00521226
0.0360942
-0.00583322
0.0357958
-0.00645989
0.0354722
-0.00709144
0.0351223
-0.00772604
0.0347526
-0.00835876
0.0343555
-0.00899068
0.0339355
-0.00961906
0.0334928
-0.0102407
0.0330294
-0.0108549
0.032539
-0.0114617
0.0320244
-0.0120553
0.0314911
-0.0126301
0.0309352
-0.0131857
0.0303568
-0.0137196
0.0297655
-0.014222
0.0291567
-0.0146925
0.0285246
-0.0151354
-0.0155107
0.0278688
0.0282745
0.0107535
-0.0278687
0.0286772
0.0106867
0.0290764
0.0106126
0.0294712
0.0105315
0.0298608
0.0104429
0.0302457
0.0103467
0.0306258
0.0102428
0.0310011
0.0101308
0.0313717
0.010011
0.0317368
0.00988298
0.0320957
0.00974645
0.0324482
0.00960109
0.0327937
0.00944661
0.0331318
0.0092828
0.0334626
0.00910965
0.0337848
0.00892669
0.034098
0.00873364
0.0344016
0.00853005
0.0346954
0.00831571
0.0349785
0.00809023
0.0352507
0.00785353
0.0355116
0.00760541
0.0357606
0.00734571
0.0359976
0.0070743
0.0362217
0.00679098
0.0364321
0.00649539
0.0366287
0.00618744
0.036811
0.00586702
0.0369787
0.00553404
0.0371326
0.00518852
0.0372716
0.00483
0.0373942
0.0044583
0.0375006
0.00407359
0.0375908
0.00367603
0.0376643
0.00326561
0.0377209
0.0028422
0.0377603
0.0024059
0.0377823
0.00195667
0.037786
0.00149436
0.0377707
0.00101925
0.0377363
0.00053196
0.0376826
3.28925e-05
0.0376086
-0.00047984
0.0375141
-0.00100498
0.0373987
-0.0015415
0.0372625
-0.0020888
0.0371047
-0.00264664
0.036925
-0.00321443
0.0367237
-0.00379094
0.0365011
-0.00437542
0.0362563
-0.00496749
0.0359892
-0.00556613
0.0356993
-0.00616999
0.0353857
-0.00677785
0.0350477
-0.00738799
0.0346869
-0.00799797
0.0343026
-0.00860638
0.0338954
-0.00921189
0.0334664
-0.00981174
0.0330158
-0.0104044
0.0325423
-0.0109881
0.0320466
-0.0115597
0.0315312
-0.0121147
0.0309959
-0.0126504
0.0304406
-0.0131643
0.029869
-0.0136504
0.0292813
-0.0141047
0.0286751
-0.0145292
-0.0148895
0.0280539
0.0279587
0.0103508
-0.027556
0.0283591
0.0102863
0.0287568
0.010215
0.0291511
0.0101372
0.0295412
0.0100528
0.0299267
0.00996121
0.0303072
0.00986229
0.0306824
0.00975569
0.0310521
0.00964124
0.0314163
0.00951879
0.0317746
0.00938816
0.0321266
0.00924912
0.0324718
0.00910142
0.0328098
0.00894478
0.0331404
0.00877901
0.0334632
0.00860393
0.0337776
0.00841922
0.034083
0.00822462
0.0343789
0.0080198
0.0346647
0.00780448
0.0349398
0.00757839
0.0352039
0.00734131
0.0354566
0.0070931
0.0356973
0.00683358
0.0359256
0.0065626
0.0361411
0.00627994
0.0363432
0.00598533
0.0365315
0.00567872
0.0367056
0.00535998
0.0368652
0.00502894
0.0370097
0.00468547
0.0371386
0.00432938
0.0372515
0.00396067
0.0373482
0.00357938
0.0374282
0.00318555
0.0374913
0.00277912
0.0375371
0.00236009
0.0375652
0.00192856
0.0375751
0.00148453
0.0375662
0.00102809
0.0375385
0.000559722
0.0374915
7.98712e-05
0.0374247
-0.000413024
0.0373375
-0.00091779
0.0372297
-0.00143369
0.0371011
-0.00196027
0.0369516
-0.00249713
0.0367808
-0.00304361
0.0365887
-0.00359882
0.0363751
-0.00416187
0.0361396
-0.00473198
0.0358817
-0.00530825
0.0356012
-0.00588944
0.0352977
-0.00647438
0.0349713
-0.00706153
0.0346225
-0.00764919
0.0342516
-0.00823553
0.0338589
-0.00881912
0.0334448
-0.00939767
0.0330098
-0.00996933
0.0325536
-0.010532
0.0320767
-0.0110828
0.0315804
-0.0116183
0.0310655
-0.0121355
0.0305323
-0.0126311
0.0299827
-0.0131008
0.0294181
-0.0135401
0.0288382
-0.0139493
-0.0142985
0.0282472
0.0276635
0.00994925
-0.027262
0.0280623
0.00988754
0.0284581
0.00981916
0.0288508
0.00974454
0.0292399
0.0096636
0.0296251
0.00957609
0.0300056
0.00948173
0.0303811
0.00938021
0.0307511
0.00927124
0.0311154
0.00915457
0.0314735
0.00903
0.0318253
0.00889732
0.0321704
0.00875633
0.0325084
0.00860679
0.0328389
0.00844847
0.0331617
0.00828117
0.0334763
0.00810464
0.0337823
0.00791864
0.0340791
0.00772294
0.0343663
0.00751725
0.0346434
0.00730133
0.0349098
0.00707495
0.0351649
0.00683792
0.0354085
0.00659004
0.03564
0.00633112
0.0358589
0.00606097
0.0360649
0.00577938
0.0362574
0.00548621
0.036436
0.00518136
0.0366003
0.00486464
0.0367499
0.00453594
0.0368842
0.00419507
0.0370028
0.00384208
0.0371053
0.00347689
0.0371913
0.00309954
0.0372604
0.00271001
0.0373122
0.00230828
0.0373463
0.00189444
0.0373623
0.0014685
0.0373599
0.00103051
0.0373388
0.00058082
0.0372987
0.000119999
0.037239
-0.000353359
0.0371595
-0.000838312
0.03706
-0.00133411
0.03694
-0.00184036
0.0367994
-0.0023565
0.0366377
-0.00288189
0.0364547
-0.0034158
0.0362502
-0.0039574
0.0360241
-0.00450581
0.035776
-0.00506021
0.0355061
-0.00561951
0.0352142
-0.00618254
0.0349006
-0.00674783
0.0345653
-0.00731391
0.0342087
-0.00787899
0.0338311
-0.00844153
0.033433
-0.0089995
0.0330145
-0.00955088
0.0325761
-0.0100936
0.0321181
-0.0106248
0.0316415
-0.0111417
0.0311472
-0.0116411
0.0306356
-0.0121196
0.0301085
-0.0125736
0.0295672
-0.0129988
0.029013
-0.0133952
-0.013737
0.0284515
0.0273838
0.00954621
-0.0269808
0.0277831
0.00948823
0.0281787
0.00942352
0.0285707
0.00935255
0.028959
0.00927536
0.0293433
0.00919181
0.0297232
0.00910174
0.0300985
0.00900493
0.0304686
0.00890113
0.0308331
0.00879008
0.0311916
0.00867152
0.0315437
0.00854519
0.0318892
0.0084109
0.0322275
0.00826843
0.0325584
0.00811754
0.0328816
0.00795805
0.0331965
0.0077897
0.0335029
0.00761226
0.0338003
0.00742552
0.0340883
0.00722924
0.0343664
0.0070232
0.0346342
0.00680718
0.0348912
0.00658098
0.0351368
0.00634441
0.0353706
0.00609726
0.0355922
0.00583936
0.0358012
0.00557047
0.0359969
0.00529044
0.0361791
0.00499916
0.0363473
0.00469648
0.0365009
0.00438229
0.0366396
0.00405641
0.0367628
0.0037189
0.0368701
0.00336959
0.0369611
0.00300847
0.0370356
0.00263559
0.037093
0.00225086
0.0371331
0.00185438
0.0371554
0.00144619
0.0371595
0.0010264
0.0371452
0.000595134
0.0371121
0.00015309
0.0370597
-0.00030098
0.0369878
-0.000766432
0.0368962
-0.00124245
0.0367844
-0.00172865
0.0366523
-0.00222439
0.0364995
-0.00272906
0.0363257
-0.00324203
0.0361309
-0.00376261
0.0359151
-0.00428997
0.0356781
-0.00482326
0.03542
-0.00536139
0.0351408
-0.00590328
0.0348404
-0.0064475
0.0345193
-0.00699273
0.0341775
-0.00753725
0.0338155
-0.00807952
0.0334336
-0.00861761
0.0330322
-0.00914948
0.0326118
-0.00967312
0.0321727
-0.0101857
0.0317158
-0.0106848
0.0312418
-0.0111672
0.0307517
-0.0116294
0.0302467
-0.0120687
0.0297283
-0.0124804
0.029198
-0.0128649
-0.0132002
0.0286611
0.0271159
0.00914078
-0.0267105
0.0275173
0.00908678
0.0279147
0.0090262
0.0283077
0.00895946
0.0286965
0.00888657
0.0290809
0.00880742
0.0294608
0.00872188
0.0298359
0.00862984
0.0302059
0.0085311
0.0305705
0.00842547
0.0309293
0.00831274
0.0312819
0.00819264
0.0316278
0.00806494
0.0319668
0.00792947
0.0322983
0.00778598
0.0326221
0.00763425
0.0329378
0.00747405
0.0332449
0.00730514
0.0335431
0.00712731
0.033832
0.00694034
0.0341112
0.00674404
0.0343801
0.00653821
0.0346385
0.00632262
0.0348858
0.0060971
0.0351216
0.00586149
0.0353453
0.0056156
0.0355566
0.00535919
0.035755
0.00509209
0.03594
0.00481416
0.0361112
0.00452526
0.0362682
0.00422532
0.0364104
0.00391415
0.0365376
0.00359175
0.0366492
0.00325797
0.0367449
0.00291278
0.0368243
0.00255617
0.036887
0.00218812
0.0369328
0.00180863
0.0369612
0.0014178
0.0369718
0.00101578
0.0369643
0.000602595
0.0369384
0.000178971
0.0368935
-0.000256089
0.0368293
-0.000702202
0.0367455
-0.00115861
0.0366417
-0.00162492
0.036518
-0.0021006
0.036374
-0.00258509
0.0362097
-0.00307776
0.036025
-0.00357795
0.0358199
-0.00408484
0.0355943
-0.00459763
0.0353481
-0.00511525
0.0350815
-0.00563668
0.0347946
-0.00616057
0.0344876
-0.00668569
0.0341607
-0.00721034
0.0338142
-0.00773309
0.0334486
-0.00825199
0.0330643
-0.00876513
0.0326616
-0.0092705
0.0322412
-0.0097653
0.0318039
-0.0102475
0.0313503
-0.0107135
0.0308814
-0.0111606
0.0303986
-0.011586
0.0299027
-0.0119844
0.0293956
-0.0123577
-0.0126835
0.0288789
0.0268603
0.00873357
-0.0264531
0.0272638
0.00868326
0.0276633
0.00862668
0.0280585
0.00856425
0.0284492
0.00849591
0.0288351
0.00842152
0.0292161
0.00834091
0.029592
0.00825394
0.0299626
0.00816048
0.0303277
0.00806036
0.030687
0.00795346
0.0310401
0.00783955
0.0313866
0.00771839
0.0317263
0.00758979
0.0320587
0.00745358
0.0323834
0.00730955
0.0327
0.00715742
0.0330082
0.00699698
0.0333075
0.00682801
0.0335975
0.00665029
0.0338779
0.00646364
0.0341482
0.00626793
0.034408
0.00606284
0.0346568
0.00584824
0.0348943
0.00562399
0.0351201
0.00538988
0.0353336
0.00514569
0.0355344
0.00489126
0.0357221
0.00462646
0.0358962
0.00435113
0.0360564
0.00406516
0.0362021
0.00376842
0.036333
0.00346083
0.0364488
0.00314224
0.0365489
0.00281263
0.0366332
0.00247193
0.0367011
0.00212023
0.0367522
0.0017575
0.0367862
0.00138378
0.0368027
0.000999255
0.0368014
0.000603951
0.0367819
0.000198467
0.0367437
-0.000217934
0.0366867
-0.000645126
0.0366104
-0.00108238
0.0365148
-0.00152929
0.0363996
-0.00198539
0.0362647
-0.00245019
0.03611
-0.00292307
0.0359355
-0.00340341
0.035741
-0.0038904
0.0355267
-0.00438328
0.0352925
-0.00488103
0.0350385
-0.00538268
0.0347648
-0.00588692
0.0344717
-0.00639261
0.0341595
-0.00689809
0.0338284
-0.00740204
0.0334789
-0.00790246
0.0331114
-0.00839765
0.0327264
-0.0088855
0.0323246
-0.00936343
0.0319066
-0.00982948
0.0314731
-0.0102801
0.0310256
-0.010713
0.0305648
-0.0111252
0.0300918
-0.0115115
0.0296081
-0.011874
-0.0121896
0.0291142
0.0266198
0.0083255
-0.0262117
0.0270245
0.00827848
0.0274257
0.00822554
0.0278228
0.00816713
0.0282155
0.00810317
0.0286036
0.00803349
0.0289866
0.0079579
0.0293643
0.00787623
0.0297365
0.0077883
0.0301029
0.00769393
0.0304634
0.00759299
0.0308176
0.00748535
0.0311651
0.00737081
0.0315058
0.00724916
0.0318392
0.00712018
0.032165
0.00698375
0.0324828
0.00683959
0.0327923
0.00668753
0.0330929
0.00652733
0.0333844
0.00635881
0.0336663
0.00618177
0.0339382
0.00599605
0.0341996
0.0058014
0.0344503
0.00559759
0.0346897
0.00538454
0.0349175
0.00516205
0.0351333
0.00492988
0.0353367
0.0046879
0.0355272
0.00443599
0.0357043
0.00417397
0.0358678
0.00390168
0.0360172
0.00361903
0.0361521
0.00332595
0.0362721
0.00302228
0.0363767
0.00270802
0.0364655
0.0023831
0.0365382
0.00204758
0.0365942
0.00170145
0.0366333
0.00134471
0.0366551
0.000977481
0.0366592
0.0005998
0.0366455
0.000212145
0.0366136
-0.000186054
0.0365634
-0.00059483
0.0364944
-0.00101346
0.0364067
-0.00144153
0.0362999
-0.0018786
0.0361739
-0.00232423
0.0360287
-0.00277784
0.0358641
-0.00323884
0.0356802
-0.00370648
0.035477
-0.00418003
0.0352544
-0.0046585
0.0350128
-0.00514101
0.0347521
-0.00562625
0.0344727
-0.00611321
0.0341748
-0.00660021
0.0338588
-0.00708607
0.0335251
-0.00756876
0.0331743
-0.0080468
0.0328067
-0.00851789
0.0324231
-0.00897986
0.0320242
-0.00943058
0.0316108
-0.00986671
0.0311843
-0.0102865
0.0307452
-0.0106861
0.0302958
-0.0110621
0.0298362
-0.0114143
-0.011726
0.0293726
0.0263971
0.00791706
-0.0259886
0.0268025
0.00787304
0.0272045
0.00782348
0.0276029
0.0077688
0.0279971
0.00770893
0.0283869
0.00764371
0.0287719
0.00757294
0.0291517
0.00749644
0.029526
0.00741401
0.0298944
0.00732545
0.0302568
0.00723061
0.0306128
0.00712932
0.0309622
0.00702144
0.0313046
0.0069068
0.0316396
0.00678513
0.031967
0.00665632
0.0322865
0.00652015
0.0325976
0.00637643
0.0328999
0.00622499
0.0331931
0.00606563
0.0334767
0.00589812
0.0337505
0.00572226
0.034014
0.00553791
0.0342668
0.00534478
0.0345086
0.00514276
0.0347389
0.00493173
0.0349573
0.00471145
0.0351635
0.00448177
0.0353569
0.00424255
0.0355372
0.00399365
0.035704
0.0037349
0.0358568
0.00346618
0.0359953
0.00318746
0.036119
0.00289859
0.0362275
0.00259952
0.0363204
0.00229021
0.0363973
0.00197065
0.036458
0.00164084
0.0365019
0.00130076
0.0365289
0.000950501
0.0365386
0.000590069
0.0365309
0.000219886
0.0365053
-0.000160519
0.0364618
-0.000551278
0.0364
-0.000951688
0.0363198
-0.00136135
0.0362211
-0.00177986
0.0361037
-0.0022068
0.0359675
-0.00264165
0.0358125
-0.00308385
0.0356387
-0.00353268
0.0354461
-0.00398748
0.0352349
-0.00444728
0.0350052
-0.00491127
0.0347571
-0.00537818
0.034491
-0.00584708
0.0342071
-0.00631633
0.0339059
-0.00678486
0.0335877
-0.0072506
0.0332532
-0.00771228
0.0329028
-0.00816745
0.0325373
-0.00861435
0.0321572
-0.00905049
0.0317636
-0.00947313
0.0313574
-0.00988032
0.0309394
-0.0102681
0.0305119
-0.0106346
0.0300752
-0.0109776
-0.011288
0.0296371
0.0261939
0.00750824
-0.0257851
0.0265998
0.00746715
0.0270025
0.00742082
0.0274016
0.00736969
0.0277968
0.00731368
0.0281879
0.00725267
0.0285743
0.00718649
0.0289558
0.00711492
0.029332
0.00703779
0.0297026
0.00695491
0.0300671
0.0068661
0.0304253
0.00677117
0.0307768
0.00666994
0.0311213
0.0065623
0.0314584
0.00644803
0.0317878
0.00632691
0.0321091
0.00619883
0.032422
0.00606349
0.0327263
0.00592069
0.0330216
0.00577035
0.0333075
0.00561222
0.0335837
0.00544611
0.0338497
0.00527191
0.0341051
0.00508936
0.0343495
0.00489832
0.0345826
0.00469866
0.0348039
0.00449018
0.035013
0.00427271
0.0352094
0.00404611
0.0353928
0.00381023
0.0355628
0.00356494
0.0357189
0.00331009
0.0358607
0.00304562
0.0359879
0.00277138
0.0361001
0.0024873
0.036197
0.00219334
0.0362782
0.00188946
0.0363434
0.00157565
0.0363922
0.00125191
0.0364245
0.000918283
0.0364398
0.000574777
0.0364379
0.000221746
0.0364186
-0.000141221
0.0363816
-0.000514318
0.0363268
-0.000896879
0.036254
-0.00128853
0.036163
-0.0016889
0.0360539
-0.00209761
0.0359264
-0.00251417
0.0357806
-0.00293807
0.0356165
-0.00336863
0.0354343
-0.00380525
0.035234
-0.00424698
0.0350158
-0.00469309
0.03478
-0.00514236
0.0345268
-0.00559392
0.0342567
-0.00604617
0.0339699
-0.00649812
0.0336671
-0.00694773
0.0333486
-0.00739382
0.0330151
-0.00783391
0.0326672
-0.00826649
0.0323055
-0.00868882
0.0319311
-0.0090987
0.0315444
-0.00949364
0.0311465
-0.00987013
0.0307382
-0.0102263
0.0303197
-0.0105591
-0.0108663
0.0298981
0.026011
0.00709892
-0.0256017
0.0264174
0.00706074
0.0268207
0.00701758
0.0272205
0.00696993
0.0276165
0.00691767
0.0280084
0.00686069
0.028396
0.00679893
0.0287788
0.00673213
0.0291565
0.0066601
0.0295287
0.00658273
0.029895
0.0064998
0.030255
0.00641113
0.0306085
0.00631649
0.030955
0.00621573
0.0312943
0.00610872
0.0316261
0.00599516
0.03195
0.00587496
0.0322655
0.00574791
0.0325725
0.00561374
0.0328705
0.00547237
0.0331591
0.00532362
0.0334379
0.00516728
0.0337066
0.00500324
0.0339647
0.00483127
0.0342118
0.00465119
0.0344476
0.00446286
0.0346717
0.00426611
0.0348836
0.00406076
0.035083
0.00384667
0.0352696
0.00362371
0.0354428
0.00339171
0.0356023
0.00315056
0.0357478
0.00290014
0.0358788
0.00264034
0.0359951
0.00237107
0.0360961
0.00209225
0.0361818
0.00180385
0.0362516
0.00150582
0.0363053
0.00119817
0.0363427
0.000880924
0.0363634
0.000554064
0.0363672
0.000217898
0.036354
-0.000127953
0.0363234
-0.00048372
0.0362753
-0.000848779
0.0362095
-0.00122279
0.0361261
-0.00160542
0.0360248
-0.00199632
0.0359057
-0.00239505
0.0357687
-0.00280115
0.0356141
-0.00321398
0.0354418
-0.00363298
0.0352521
-0.00405726
0.0350452
-0.00448616
0.0348213
-0.00491847
0.0345808
-0.00535342
0.034324
-0.00578942
0.0340514
-0.00622553
0.0337635
-0.00665977
0.0334606
-0.00709097
0.0331434
-0.00751672
0.0328125
-0.00793559
0.0324685
-0.00834478
0.0321122
-0.00874236
0.031744
-0.00912545
0.0313649
-0.00949105
0.030975
-0.00983647
0.0305739
-0.010158
-0.0104478
0.0301554
0.025849
0.00668876
-0.0254388
0.0262562
0.00665351
0.0266603
0.00661352
0.0270609
0.00656934
0.0274577
0.00652087
0.0278504
0.00646793
0.0282389
0.0064105
0.0286226
0.00634842
0.0290013
0.00628139
0.0293747
0.00620928
0.0297426
0.00613194
0.0301045
0.00604923
0.0304601
0.00596088
0.030809
0.00586681
0.0311509
0.00576687
0.0314853
0.00566076
0.0318119
0.00554834
0.0321303
0.00542951
0.03244
0.00530399
0.0327408
0.00517163
0.0330321
0.00503227
0.0333137
0.0048857
0.0335851
0.0047318
0.0338461
0.00457035
0.0340961
0.00440118
0.0343348
0.00422413
0.0345619
0.00403902
0.0347769
0.00384572
0.0349796
0.00364405
0.0351694
0.00343388
0.035346
0.00321506
0.0355091
0.00298746
0.0356583
0.00275096
0.0357932
0.00250543
0.0359135
0.00225079
0.0360188
0.00198694
0.0361089
0.00171383
0.0361833
0.0014314
0.0362418
0.00113963
0.0362842
0.000838542
0.0363102
0.000528087
0.0363195
0.000208535
0.0363121
-0.00012049
0.0362876
-0.000459228
0.0362459
-0.000807107
0.036187
-0.00116382
0.0361106
-0.00152909
0.0360169
-0.00190261
0.0359058
-0.00228397
0.0357775
-0.00267277
0.0356319
-0.00306841
0.0354693
-0.00347037
0.0352899
-0.00387784
0.0350939
-0.00429017
0.0348816
-0.0047062
0.0346534
-0.00512521
0.0344096
-0.00554561
0.0341506
-0.00596653
0.0338768
-0.00638599
0.0335887
-0.00680288
0.0332868
-0.00721485
0.0329717
-0.00762046
0.0326439
-0.00801697
0.0323041
-0.00840256
0.0319528
-0.00877414
0.0315909
-0.00912915
0.031219
-0.00946461
0.0308383
-0.00977727
-0.0100682
0.0304587
0.0257075
0.00627787
-0.0252966
0.0261156
0.00624546
0.0265206
0.00620852
0.0269222
0.00616768
0.0273202
0.00612288
0.0277143
0.0060739
0.0281041
0.00602066
0.0284894
0.00596309
0.0288698
0.00590097
0.0292451
0.00583407
0.0296148
0.00576224
0.0299786
0.00568541
0.0303361
0.00560332
0.0306871
0.00551584
0.0310311
0.00542286
0.0313677
0.00532413
0.0316966
0.00521947
0.0320174
0.00510874
0.0323296
0.00499174
0.032633
0.00486828
0.0329271
0.00473819
0.0332115
0.00460129
0.0334858
0.00445742
0.0337498
0.0043064
0.0340029
0.00414804
0.0342449
0.00398219
0.0344752
0.00380867
0.0346936
0.00362732
0.0348997
0.003438
0.035093
0.00324054
0.0352733
0.0030348
0.0354401
0.00282065
0.0355931
0.00259795
0.0357319
0.00236658
0.0358563
0.00212643
0.0359658
0.00187741
0.0360602
0.00161944
0.0361392
0.00135244
0.0362024
0.00107639
0.0362497
0.000791261
0.0362808
0.000497002
0.0362955
0.000193841
0.0362936
-0.00011862
0.036275
-0.000440608
0.0362395
-0.000771611
0.036187
-0.00111137
0.0361176
-0.00145966
0.0360312
-0.00181621
0.0359279
-0.00218066
0.0358078
-0.00255264
0.035671
-0.00293162
0.0355177
-0.00331711
0.0353482
-0.00370832
0.0351627
-0.00410464
0.0349614
-0.00450495
0.0347447
-0.00490851
0.0345129
-0.00531382
0.0342664
-0.00572
0.0340055
-0.00612513
0.0337307
-0.0065281
0.0334425
-0.00692665
0.0331414
-0.00731931
0.0328278
-0.00770344
0.0325025
-0.00807723
0.0321659
-0.00843756
0.031819
-0.00878219
0.0314619
-0.00910757
0.031096
-0.00941132
-0.00969043
0.0307183
0.0255885
0.00586563
-0.0251763
0.0259979
0.00583607
0.0264043
0.00580212
0.0268075
0.00576453
0.027207
0.00572331
0.0276027
0.00567827
0.0279941
0.00562924
0.028381
0.00557614
0.0287632
0.00551882
0.0291401
0.0054571
0.0295116
0.00539081
0.0298772
0.00531981
0.0302365
0.00524394
0.0305894
0.00516302
0.0309353
0.00507693
0.031274
0.00498546
0.031605
0.00488843
0.0319281
0.00478569
0.0322428
0.00467705
0.0325487
0.00456235
0.0328455
0.0044414
0.0331328
0.00431403
0.0334101
0.00418008
0.0336771
0.00403937
0.0339335
0.00389171
0.0341787
0.00373695
0.0344124
0.00357492
0.0346343
0.00340544
0.034844
0.00322836
0.035041
0.00304353
0.035225
0.00285078
0.0353957
0.00264998
0.0355526
0.00244099
0.0356955
0.00222368
0.035824
0.00199792
0.0359378
0.00176361
0.0360366
0.00152065
0.0361201
0.00126896
0.036188
0.00100847
0.0362401
0.000739137
0.0362762
0.000460889
0.0362962
0.000173916
0.0362998
-0.000122225
0.0362869
-0.000427725
0.0362574
-0.000742141
0.0362113
-0.00106527
0.0361486
-0.00139692
0.0360692
-0.00173687
0.0359734
-0.00208481
0.0358611
-0.0024404
0.0357327
-0.00280313
0.0355881
-0.00317254
0.0354276
-0.00354789
0.0352516
-0.00392854
0.0350601
-0.00431346
0.0348535
-0.00470189
0.034632
-0.00509241
0.0343962
-0.00548412
0.0341462
-0.00587518
0.0338826
-0.00626448
0.0336058
-0.00664982
0.0333162
-0.00702975
0.0330145
-0.00740173
0.0327012
-0.00776394
0.0323771
-0.00811342
0.032043
-0.00844807
0.0317001
-0.00876474
0.0313506
-0.00906179
-0.00934276
0.0310029
0.0254926
0.00545134
-0.0250783
0.025904
0.00542472
0.0263122
0.00539394
0.026717
0.00535972
0.0271182
0.00532212
0.0275154
0.005281
0.0279085
0.00523619
0.028297
0.00518758
0.0286808
0.00513503
0.0290595
0.00507843
0.0294327
0.00501759
0.0298002
0.00495237
0.0301615
0.00488262
0.0305164
0.00480817
0.0308644
0.00472887
0.0312053
0.00464456
0.0315387
0.00455506
0.0318642
0.00446021
0.0321814
0.00435983
0.03249
0.00425377
0.0327895
0.00414185
0.0330797
0.00402389
0.03336
0.00389974
0.0336301
0.00376922
0.0338897
0.00363215
0.0341383
0.00348837
0.0343755
0.0033377
0.034601
0.00317998
0.0348143
0.00301505
0.0350151
0.00284274
0.0352029
0.00266289
0.0353776
0.00247535
0.0355386
0.00227998
0.0356856
0.00207663
0.0358184
0.00186516
0.0359366
0.00164545
0.0360398
0.00141739
0.0361279
0.00118086
0.0362006
0.000935797
0.0362576
0.000682111
0.0362988
0.000419711
0.036324
0.000148748
0.036333
-0.000131285
0.0363258
-0.000420513
0.0363023
-0.000718569
0.0362623
-0.0010253
0.0362059
-0.00134055
0.0361332
-0.00166413
0.0360441
-0.00199577
0.0359389
-0.00233513
0.0358175
-0.00268178
0.0356802
-0.00303524
0.0355272
-0.00339485
0.0353586
-0.00375997
0.0351748
-0.00412963
0.0349759
-0.00450307
0.0347625
-0.00487895
0.0345347
-0.00525635
0.034293
-0.00563349
0.0340379
-0.0060093
0.0337697
-0.00638162
0.0334889
-0.00674903
0.0331964
-0.00710915
0.0328925
-0.00746011
0.0325783
-0.00779923
0.0322547
-0.0081244
0.0319227
-0.00843275
0.0315831
-0.00872225
-0.00899017
0.0312305
0.0254211
0.00503522
-0.025005
0.0258343
0.00501155
0.0262443
0.00498394
0.0266509
0.00495311
0.0270539
0.00491913
0.027453
0.00488189
0.0278479
0.00484126
0.0282384
0.00479711
0.0286241
0.00474933
0.0290047
0.00469778
0.02938
0.00464231
0.0297496
0.0045828
0.0301131
0.00451908
0.0304703
0.004451
0.0308207
0.00437842
0.0311641
0.00430118
0.0315
0.00421911
0.0318282
0.00413205
0.0321482
0.00403985
0.0324596
0.00394233
0.0327621
0.00383933
0.0330553
0.00373069
0.0333388
0.00361623
0.0336123
0.00349579
0.0338752
0.0033692
0.0341273
0.00323629
0.0343681
0.00309688
0.0345973
0.00295082
0.0348144
0.00279792
0.0350191
0.00263803
0.035211
0.00247098
0.0353898
0.00229659
0.035555
0.00211473
0.0357064
0.00192523
0.0358437
0.00172794
0.0359664
0.00152273
0.0360743
0.00130945
0.0361672
0.001088
0.0362447
0.000858248
0.0363067
0.000620105
0.036353
0.000373457
0.0363833
0.000118421
0.0363976
-0.000145591
0.0363957
-0.000418604
0.0363775
-0.000700327
0.0363428
-0.000990657
0.0362918
-0.00128948
0.0362242
-0.00159662
0.0361403
-0.00191186
0.0360401
-0.0022349
0.0359237
-0.00256536
0.0357912
-0.00290278
0.0356429
-0.00324657
0.0354791
-0.00359611
0.0353
-0.00395052
0.0351059
-0.00430902
0.0348973
-0.00467034
0.0346745
-0.00503356
0.034438
-0.00539697
0.0341882
-0.00575949
0.0339256
-0.00611906
0.0336509
-0.0064743
0.0333648
-0.006823
0.0330679
-0.00716326
0.0327614
-0.00749271
0.0324462
-0.00780917
0.0321235
-0.00811008
0.0317948
-0.00839354
-0.00865421
0.0314588
0.0253737
0.00461728
-0.0249557
0.0257888
0.00459642
0.0262009
0.00457187
0.0266096
0.00454437
0.0270148
0.00451397
0.0274161
0.00448058
0.0278133
0.00444407
0.028206
0.00440434
0.0285941
0.00436126
0.0289772
0.00431472
0.0293549
0.00426457
0.029727
0.00421068
0.0300932
0.00415291
0.0304531
0.00409112
0.0308063
0.00402517
0.0311526
0.00395491
0.0314915
0.00388017
0.0318228
0.00380082
0.0321459
0.00371668
0.0324607
0.0036276
0.0327666
0.00353343
0.0330633
0.00343399
0.0333504
0.00332913
0.0336275
0.00321867
0.0338942
0.00310246
0.0341502
0.00298031
0.034395
0.00285207
0.0346283
0.00271755
0.0348496
0.00257659
0.0350586
0.00242901
0.035255
0.00227464
0.0354382
0.00211332
0.0356081
0.00194488
0.0357642
0.00176916
0.0359061
0.001586
0.0360336
0.00139524
0.0361463
0.00119674
0.0362439
0.000990366
0.0363262
0.000775985
0.0363928
0.000553472
0.0364436
0.000322709
0.0364782
8.37645e-05
0.0364967
-0.000164016
0.0364986
-0.00042055
0.0364839
-0.000685645
0.0364525
-0.000959251
0.0364043
-0.0012413
0.0363394
-0.00153168
0.0362578
-0.00183021
0.0361595
-0.00213665
0.0360448
-0.00245068
0.0359139
-0.00277188
0.0357671
-0.00309973
0.0356046
-0.00343363
0.0354269
-0.00377277
0.0352342
-0.00411638
0.0350271
-0.00446325
0.034806
-0.00481246
0.0345715
-0.00516238
0.0343239
-0.00551196
0.0340641
-0.00585919
0.0337926
-0.00620284
0.0335103
-0.00654073
0.0332181
-0.00687099
0.0329169
-0.00719158
0.0326079
-0.00750011
0.0322922
-0.00779441
0.0319701
-0.00807146
-0.00832417
0.0316401
0.025354
0.00419741
-0.0249341
0.0257712
0.00417921
0.0261855
0.00415758
0.0265966
0.00413328
0.0270042
0.00410635
0.0274081
0.0040767
0.0278079
0.00404423
0.0282034
0.00400882
0.0285943
0.00397035
0.0289803
0.00392872
0.0293611
0.00388379
0.0297364
0.00383543
0.0301058
0.00378352
0.030469
0.00372792
0.0308256
0.0036685
0.0311754
0.00360511
0.031518
0.0035376
0.031853
0.00346584
0.03218
0.00338966
0.0324987
0.00330892
0.0328086
0.00322346
0.0331095
0.00313313
0.0334009
0.00303775
0.0336824
0.00293719
0.0339536
0.00283125
0.0342141
0.00271979
0.0344635
0.00260263
0.0347015
0.00247959
0.0349276
0.00235052
0.0351413
0.00221523
0.0353424
0.00207356
0.0355304
0.00192534
0.0357049
0.00177039
0.0358655
0.00160855
0.0360118
0.00143966
0.0361435
0.00126356
0.0362602
0.00108009
0.0363614
0.000889097
0.036447
0.000690436
0.0365165
0.000483953
0.0365697
0.000269524
0.0366063
4.71332e-05
0.0366262
-0.000183905
0.0366291
-0.000423433
0.0366148
-0.000671385
0.0365834
-0.000927774
0.0365346
-0.00119259
0.0364688
-0.00146579
0.0363858
-0.00174725
0.0362859
-0.00203679
0.0361694
-0.00233415
0.0360365
-0.00263898
0.0358876
-0.0029508
0.035723
-0.00326905
0.0355432
-0.00359298
0.0353486
-0.00392183
0.0351399
-0.00425448
0.0349174
-0.00458999
0.0346818
-0.00492682
0.0344338
-0.00526397
0.0341741
-0.00559944
0.0339034
-0.00593218
0.0336226
-0.00625986
0.0333323
-0.00658075
0.0330337
-0.00689295
0.0327275
-0.00719392
0.0324146
-0.00748157
0.0320955
-0.00775234
-0.00799757
0.0317689
0.0253674
0.00377537
-0.0249454
0.0257869
0.00375973
0.0262036
0.00374087
0.0266173
0.00371961
0.0270276
0.00369599
0.0274344
0.00366993
0.0278373
0.00364133
0.028236
0.00361008
0.0286303
0.00357608
0.0290198
0.00353921
0.0294042
0.00349935
0.0297833
0.00345639
0.0301566
0.00341021
0.0305239
0.00336066
0.0308847
0.00330764
0.0312388
0.003251