/*--------------------------------*- C++ -*----------------------------------*\
| =========                 |                                                 |
| \\      /  F ield         | OpenFOAM: The Open Source CFD Toolbox           |
|  \\    /   O peration     | Version:  2312                                  |
|   \\  /    A nd           | Website:  www.openfoam.com                      |
|    \\/     M anipulation  |                                                 |
\*---------------------------------------------------------------------------*/
FoamFile
{
    version     2.0;
    format      ascii;
    arch        "LSB;label=32;scalar=64";
    class       volVectorField;
    location    "1800";
    object      U;
}
// * * * * * * * * * * * * * * * * * * * * * * * * * * * * * * * * * * * * * //

dimensions      [0 1 -1 0 0 0 0];

internalField   nonuniform List<vector> 
76025
(
(1.00394 -0.163131 0)
(1.00929 -0.162985 -6.03893e-21)
(1.01461 -0.162723 0)
(1.0199 -0.162288 0)
(1.02541 -0.161746 1.69408e-20)
(1.03099 -0.160689 3.89707e-20)
(1.03672 -0.15979 -7.15557e-20)
(1.04253 -0.158446 3.16178e-20)
(1.04819 -0.157071 1.229e-20)
(1.05382 -0.155435 -1.31683e-20)
(1.05948 -0.153581 8.15815e-22)
(1.0652 -0.151433 -4.4683e-20)
(1.07093 -0.149137 5.94447e-20)
(1.07655 -0.146544 0)
(1.08197 -0.143539 -1.75127e-20)
(1.08739 -0.140608 0)
(1.09267 -0.137101 0)
(1.09804 -0.133599 0)
(1.10328 -0.129659 -1.97877e-20)
(1.10839 -0.12571 2.19051e-20)
(1.11336 -0.121314 2.27422e-20)
(1.11817 -0.116756 6.89943e-20)
(1.12272 -0.11191 -4.67616e-20)
(1.12707 -0.106747 -7.528e-20)
(1.13125 -0.101431 -1.51501e-21)
(1.13537 -0.0959066 -2.85632e-20)
(1.13928 -0.0898121 8.18838e-20)
(1.14304 -0.0837053 -8.24954e-20)
(1.14668 -0.0771537 2.79848e-20)
(1.15012 -0.0701062 -2.87489e-20)
(1.1532 -0.0634785 -2.96841e-20)
(1.15615 -0.0564633 6.30642e-20)
(1.15875 -0.048874 -9.55868e-20)
(1.16118 -0.041299 -1.66012e-20)
(1.16333 -0.0332897 8.46929e-20)
(1.1652 -0.0252687 3.19802e-22)
(1.16687 -0.0167697 -1.71832e-20)
(1.16822 -0.00804107 9.25721e-21)
(1.16923 0.000608298 4.87014e-22)
(1.16985 0.00963823 -1.40659e-20)
(1.17007 0.0187901 9.59633e-21)
(1.1701 0.0282808 -4.74173e-21)
(1.16976 0.0380309 9.40022e-21)
(1.16896 0.0478815 -1.87678e-20)
(1.16768 0.0579273 -1.91239e-20)
(1.16605 0.0681382 3.62955e-20)
(1.16408 0.0785458 3.72988e-20)
(1.1615 0.0891163 -1.12036e-19)
(1.15839 0.0998563 7.09846e-20)
(1.15495 0.11074 -2.19876e-21)
(1.15103 0.121786 -1.78043e-19)
(1.14655 0.132994 -6.79322e-20)
(1.14156 0.144279 7.07828e-20)
(1.13598 0.155755 0)
(1.12956 0.167222 -6.46237e-20)
(1.1225 0.178918 -6.74777e-20)
(1.11488 0.190592 1.37664e-21)
(1.10633 0.202537 -6.32062e-20)
(1.09701 0.214735 6.07536e-20)
(1.08693 0.227155 -1.75701e-19)
(1.07651 0.238562 -1.20488e-19)
(1.06444 0.250957 -8.11567e-21)
(1.0515 0.263383 0)
(1.03771 0.275718 2.70284e-19)
(1.0227 0.28786 -9.70965e-20)
(1.00647 0.300287 5.18877e-20)
(0.989634 0.312965 -9.48934e-20)
(0.971641 0.324983 1.00159e-19)
(0.953027 0.337007 1.83392e-19)
(1.00354 -0.172425 -5.69649e-21)
(1.00924 -0.1723 -2.14389e-20)
(1.01495 -0.171997 2.74536e-20)
(1.02065 -0.171521 0)
(1.02637 -0.170865 -4.78354e-20)
(1.03223 -0.169964 -3.95984e-21)
(1.03808 -0.168855 4.24452e-20)
(1.04406 -0.16752 0)
(1.05008 -0.16597 8.43404e-22)
(1.05609 -0.164211 1.34677e-20)
(1.06209 -0.162222 -1.43613e-20)
(1.0681 -0.159988 9.93922e-22)
(1.07409 -0.157519 0)
(1.08009 -0.154795 0)
(1.08605 -0.151786 -3.8716e-20)
(1.09185 -0.148559 9.55095e-20)
(1.09762 -0.145024 2.09064e-20)
(1.10326 -0.141269 -6.50598e-20)
(1.10887 -0.137218 4.31909e-20)
(1.11433 -0.13294 -2.2318e-20)
(1.11972 -0.128368 2.5389e-20)
(1.12496 -0.123542 -4.85977e-20)
(1.13003 -0.118434 5.20904e-20)
(1.1349 -0.113038 -8.02182e-20)
(1.13959 -0.107374 5.39413e-20)
(1.1441 -0.101455 8.48221e-20)
(1.14845 -0.0952523 -5.75011e-20)
(1.15251 -0.0887823 0)
(1.15639 -0.0820129 0)
(1.1601 -0.0749497 -3.27069e-20)
(1.16355 -0.0676976 0)
(1.16678 -0.060177 -3.44851e-20)
(1.16975 -0.0523672 3.4663e-20)
(1.17239 -0.0443001 -5.30412e-20)
(1.17478 -0.0359592 1.00296e-21)
(1.17686 -0.0273789 -1.79767e-20)
(1.17869 -0.0184883 0)
(1.18021 -0.00942787 -3.87474e-20)
(1.18138 -0.000158682 2.98398e-20)
(1.18218 0.00934369 -2.49876e-20)
(1.1826 0.0191111 1.54054e-20)
(1.18268 0.0291596 -1.58001e-22)
(1.18235 0.0392598 5.52429e-21)
(1.18157 0.0495379 -5.14725e-21)
(1.18035 0.0600017 4.15776e-20)
(1.17869 0.0707069 -2.08343e-20)
(1.17658 0.0815391 -2.12758e-20)
(1.17393 0.0924931 3.86832e-20)
(1.17075 0.103692 1.17716e-19)
(1.16709 0.115091 -1.13408e-21)
(1.16291 0.12661 1.13781e-19)
(1.15816 0.138269 -3.76048e-20)
(1.15284 0.150049 -1.09104e-19)
(1.1469 0.161913 7.36372e-20)
(1.14026 0.173818 0)
(1.13287 0.18602 2.11909e-19)
(1.12484 0.198227 -9.02165e-22)
(1.11599 0.210576 -6.82925e-20)
(1.10636 0.223029 -6.86565e-20)
(1.09599 0.235556 0)
(1.08481 0.248103 5.99912e-20)
(1.07261 0.260708 1.82652e-19)
(1.05947 0.27336 0)
(1.04543 0.286043 -1.14163e-19)
(1.03037 0.298705 6.56051e-20)
(1.01408 0.311608 -1.12315e-19)
(0.996857 0.324601 5.51541e-20)
(0.97839 0.337107 -1.02073e-19)
(0.958848 0.350952 -9.69165e-20)
(1.00314 -0.182225 3.19727e-20)
(1.00915 -0.182065 -1.88278e-20)
(1.0152 -0.181728 8.39688e-21)
(1.02132 -0.181217 -3.83925e-20)
(1.02745 -0.180498 4.86277e-20)
(1.03361 -0.179564 4.63974e-20)
(1.03979 -0.178393 -5.86611e-20)
(1.04601 -0.176994 0)
(1.05229 -0.175354 9.35884e-22)
(1.05861 -0.173472 0)
(1.06494 -0.171345 1.65517e-20)
(1.07127 -0.168971 -1.64661e-20)
(1.07758 -0.166343 -9.24362e-20)
(1.08386 -0.163457 7.36547e-20)
(1.09014 -0.160302 -1.92993e-20)
(1.09636 -0.156869 -6.2924e-20)
(1.10251 -0.153168 2.14395e-20)
(1.10858 -0.149188 2.2094e-20)
(1.11455 -0.144941 7.28226e-20)
(1.1204 -0.14041 -4.83382e-20)
(1.12613 -0.135603 -2.63832e-20)
(1.13172 -0.130512 5.39727e-20)
(1.13717 -0.125132 -2.57044e-20)
(1.14246 -0.119454 -2.92489e-20)
(1.14758 -0.113482 0)
(1.15249 -0.107226 3.114e-20)
(1.1572 -0.100698 3.10272e-20)
(1.16167 -0.0938801 -3.02878e-20)
(1.16591 -0.0867698 0)
(1.16992 -0.0793776 6.7834e-20)
(1.1737 -0.0717017 -3.58062e-20)
(1.17721 -0.0637603 -2.01723e-21)
(1.18043 -0.0555577 0)
(1.18334 -0.0470725 1.82228e-20)
(1.18596 -0.038323 -5.72775e-20)
(1.18826 -0.0293099 3.89347e-20)
(1.19023 -0.0200412 0)
(1.19187 -0.0105392 3.05738e-20)
(1.19316 -0.00079505 -3.15777e-20)
(1.19407 0.00917725 -5.20023e-21)
(1.19457 0.019397 0)
(1.19468 0.0298458 -1.11081e-20)
(1.19435 0.0404307 -5.53319e-21)
(1.19357 0.0512054 5.17425e-21)
(1.19232 0.0621728 -3.20863e-20)
(1.1906 0.0733411 -2.22338e-20)
(1.18838 0.0846663 4.1609e-20)
(1.18566 0.0961549 -4.22979e-20)
(1.18238 0.107828 4.2994e-20)
(1.17859 0.119663 -4.14865e-20)
(1.17424 0.131633 -3.97958e-20)
(1.16933 0.14374 8.32472e-20)
(1.1638 0.155975 0)
(1.15763 0.16831 8.06894e-20)
(1.15076 0.180743 2.78723e-21)
(1.14317 0.193318 -7.5287e-20)
(1.13486 0.205988 -7.37011e-20)
(1.12579 0.218766 1.45422e-19)
(1.11594 0.231654 -2.70775e-21)
(1.10531 0.244633 7.22301e-20)
(1.09385 0.257636 -1.41636e-19)
(1.08149 0.270688 -7.22396e-20)
(1.06817 0.28383 -1.18527e-21)
(1.0539 0.297052 -6.45695e-20)
(1.03862 0.310305 -5.86088e-20)
(1.0222 0.323641 -1.87947e-19)
(1.00477 0.337112 0)
(0.985949 0.350227 -5.69208e-20)
(0.966424 0.364859 5.55244e-20)
(1.00293 -0.192662 0)
(1.0092 -0.192476 -7.48545e-21)
(1.01554 -0.192102 -4.61611e-20)
(1.02199 -0.191546 3.74042e-20)
(1.0285 -0.190773 3.55985e-20)
(1.03504 -0.189771 -5.84364e-20)
(1.04161 -0.188528 1.26787e-20)
(1.0482 -0.187044 -1.46637e-20)
(1.0548 -0.18531 -1.47316e-20)
(1.06143 -0.183322 -6.72636e-20)
(1.06807 -0.181072 6.80931e-20)
(1.07472 -0.178557 7.55551e-20)
(1.08135 -0.175773 -1.66582e-20)
(1.08797 -0.172715 -8.15858e-20)
(1.09455 -0.169376 6.38699e-20)
(1.1011 -0.165751 -2.3156e-20)
(1.10759 -0.161842 2.41949e-20)
(1.11401 -0.157643 2.52287e-20)
(1.12033 -0.153156 -7.66733e-20)
(1.12655 -0.148378 2.46062e-20)
(1.13264 -0.143307 2.66691e-20)
(1.13859 -0.137938 0)
(1.14438 -0.132268 6.14841e-20)
(1.15002 -0.126295 -3.02696e-20)
(1.15547 -0.120018 -6.3609e-20)
(1.16073 -0.113442 -6.65053e-20)
(1.16578 -0.106569 1.32289e-19)
(1.1706 -0.099392 -6.85457e-20)
(1.17519 -0.0919172 0)
(1.17952 -0.0841473 -7.23468e-20)
(1.18358 -0.0760908 -1.37637e-21)
(1.18736 -0.0677584 7.46096e-20)
(1.19083 -0.0591457 -3.92755e-20)
(1.19399 -0.0502505 1.00216e-19)
(1.19683 -0.0410801 -1.94674e-20)
(1.19933 -0.0316412 0)
(1.20147 -0.0219396 0)
(1.20326 -0.0119841 1.118e-20)
(1.20466 -0.00178567 1.07876e-20)
(1.20565 0.0086467 5.82278e-21)
(1.20623 0.0193192 -1.85833e-22)
(1.20639 0.0302302 5.72851e-21)
(1.20609 0.0413036 0)
(1.20533 0.0525723 -6.54083e-22)
(1.20408 0.0640356 0)
(1.20233 0.0756826 2.1718e-20)
(1.20006 0.0874992 7.82439e-24)
(1.19727 0.0994816 -6.90943e-20)
(1.19394 0.111633 0)
(1.19005 0.123947 -4.4122e-20)
(1.18558 0.136405 4.3716e-20)
(1.18051 0.148992 -8.36025e-20)
(1.1748 0.161696 0)
(1.16843 0.174513 -2.50004e-19)
(1.16136 0.187443 2.70008e-21)
(1.15358 0.200491 8.13097e-20)
(1.14507 0.213652 7.97811e-20)
(1.13582 0.226906 0)
(1.12579 0.240262 0)
(1.11496 0.253697 -7.26788e-20)
(1.1033 0.267201 1.42479e-19)
(1.09076 0.280765 1.39392e-19)
(1.07728 0.294409 0)
(1.06284 0.308128 -1.42746e-19)
(1.04739 0.321903 0)
(1.03085 0.335757 1.91879e-19)
(1.01324 0.349756 -6.45057e-20)
(0.994254 0.363489 -6.15746e-20)
(0.974578 0.378686 -6.35193e-20)
(1.00286 -0.203778 0)
(1.00943 -0.203588 0)
(1.01606 -0.203193 -1.00832e-20)
(1.02281 -0.202599 4.57396e-20)
(1.02965 -0.201775 -5.78825e-20)
(1.03655 -0.200705 1.26684e-20)
(1.04349 -0.199383 0)
(1.05047 -0.197804 1.48608e-20)
(1.05746 -0.195965 0)
(1.06446 -0.193858 3.63424e-20)
(1.07146 -0.191477 3.57471e-21)
(1.07846 -0.188816 -3.83879e-20)
(1.08544 -0.185869 0)
(1.0924 -0.182632 4.50927e-20)
(1.09932 -0.179102 -1.38383e-19)
(1.1062 -0.175273 9.50304e-20)
(1.11301 -0.171144 -1.25279e-19)
(1.11976 -0.166711 2.59064e-20)
(1.12642 -0.161973 -2.81922e-20)
(1.13297 -0.156928 2.75712e-20)
(1.1394 -0.151573 2.95558e-20)
(1.14569 -0.145906 -9.12747e-20)
(1.15183 -0.139925 -6.30775e-20)
(1.15779 -0.133631 0)
(1.16357 -0.127023 6.80195e-20)
(1.16915 -0.1201 3.54885e-20)
(1.17451 -0.112864 -1.04713e-19)
(1.17964 -0.105317 3.55484e-20)
(1.18452 -0.097459 -7.59565e-20)
(1.18914 -0.0892965 1.13724e-19)
(1.19347 -0.0808341 -4.07027e-20)
(1.19751 -0.0720792 2.08467e-20)
(1.20124 -0.063031 0)
(1.20463 -0.0536931 -2.06253e-20)
(1.20768 -0.04407 -2.10788e-20)
(1.21037 -0.0341697 0)
(1.21269 -0.0240003 2.32707e-20)
(1.21461 -0.0135658 -3.44551e-20)
(1.21613 -0.00287959 2.34375e-20)
(1.21722 0.0080473 -1.20407e-20)
(1.21788 0.0192194 -2.08161e-22)
(1.21809 0.0306365 -9.5678e-21)
(1.21783 0.0422243 3.10741e-21)
(1.21709 0.0539974 1.20662e-20)
(1.21585 0.0659615 6.94443e-22)
(1.21409 0.0781086 7.33668e-20)
(1.21181 0.0904331 0)
(1.20898 0.102928 4.67218e-20)
(1.20557 0.11558 -1.45924e-21)
(1.20158 0.128379 -4.69596e-20)
(1.19699 0.14132 0)
(1.19177 0.154391 -4.55809e-20)
(1.1859 0.167589 4.52175e-20)
(1.17937 0.180902 8.63717e-20)
(1.17215 0.194328 0)
(1.16422 0.207861 -1.69469e-19)
(1.15556 0.221503 1.69582e-19)
(1.14616 0.235239 -1.66639e-19)
(1.13598 0.249074 -2.15025e-21)
(1.12499 0.262993 0)
(1.11318 0.276993 -7.82795e-20)
(1.10048 0.291064 7.46423e-20)
(1.08686 0.305221 8.02539e-20)
(1.07227 0.319452 1.43177e-19)
(1.05667 0.333773 -2.21517e-19)
(1.03998 0.348162 1.41161e-19)
(1.02224 0.362716 -6.93214e-20)
(1.00311 0.377015 7.26446e-20)
(0.983445 0.392862 1.87932e-19)
(1.0027 -0.215593 3.50245e-20)
(1.00969 -0.215409 5.09152e-21)
(1.0167 -0.215002 -4.0705e-20)
(1.02381 -0.214381 0)
(1.031 -0.213513 1.2591e-20)
(1.03825 -0.21238 0)
(1.04556 -0.210977 -3.21717e-20)
(1.05292 -0.209301 -2.55813e-21)
(1.0603 -0.207348 5.28146e-20)
(1.0677 -0.205111 -1.96623e-20)
(1.07509 -0.202586 -1.95533e-20)
(1.08248 -0.199766 -2.20724e-20)
(1.08985 -0.196646 0)
(1.09719 -0.193221 0)
(1.10448 -0.189486 2.40802e-20)
(1.11172 -0.185437 2.51942e-20)
(1.1189 -0.181071 -5.53677e-20)
(1.12599 -0.176387 5.52355e-20)
(1.13298 -0.171379 5.87551e-20)
(1.13987 -0.166048 -6.20166e-20)
(1.14664 -0.160392 1.2426e-19)
(1.15326 -0.154409 2.64047e-22)
(1.15972 -0.148097 -6.83752e-20)
(1.16601 -0.141455 -3.58892e-20)
(1.17211 -0.134486 -7.27633e-20)
(1.178 -0.12719 7.28275e-20)
(1.18366 -0.11957 7.69172e-20)
(1.18907 -0.111628 -7.70977e-20)
(1.19423 -0.103362 0)
(1.19912 -0.0947805 0)
(1.20371 -0.0858845 1.05222e-19)
(1.20799 -0.0766818 2.04893e-21)
(1.21194 -0.0671712 -4.37368e-20)
(1.21555 -0.0573672 -4.54478e-20)
(1.21879 -0.0472685 4.57275e-20)
(1.22165 -0.0368868 0)
(1.22413 -0.0262309 -2.33799e-20)
(1.22619 -0.015305 -3.73125e-20)
(1.22783 -0.00411975 2.49098e-20)
(1.22903 0.00731262 -3.6067e-22)
(1.22978 0.0189852 -2.03254e-21)
(1.23005 0.0309058 9.75355e-21)
(1.22984 0.0430044 6.81613e-21)
(1.22912 0.0552917 1.31942e-20)
(1.22788 0.0677735 -6.46673e-20)
(1.22612 0.0804382 6.72062e-22)
(1.2238 0.0932765 0)
(1.22091 0.10628 -5.23745e-20)
(1.21744 0.119441 1.51106e-19)
(1.21336 0.132754 -1.01126e-19)
(1.20866 0.146209 -4.9123e-20)
(1.20334 0.159795 -1.35582e-21)
(1.19736 0.173503 -4.62531e-20)
(1.19071 0.187325 6.39143e-22)
(1.18337 0.201258 9.36767e-20)
(1.17532 0.215296 -9.47426e-20)
(1.16654 0.229439 -9.00318e-20)
(1.157 0.243679 1.77899e-19)
(1.14669 0.258014 -3.07746e-21)
(1.13556 0.272441 8.53408e-20)
(1.1236 0.28695 -8.48183e-20)
(1.11076 0.301547 8.00949e-20)
(1.097 0.316229 -1.56794e-19)
(1.08227 0.330997 -7.8623e-20)
(1.06653 0.345866 1.51002e-19)
(1.04971 0.360808 -8.02111e-20)
(1.03183 0.375911 -2.25495e-19)
(1.01258 0.390798 -6.63236e-20)
(0.992836 0.407112 0)
(1.00229 -0.228161 0)
(1.00977 -0.22798 1.07781e-20)
(1.01727 -0.227564 -9.09112e-22)
(1.02484 -0.226919 0)
(1.03247 -0.226009 0)
(1.04014 -0.224817 1.60767e-20)
(1.04786 -0.223337 -5.22868e-20)
(1.05561 -0.221563 7.21281e-20)
(1.06339 -0.219493 -3.59153e-20)
(1.0712 -0.217121 1.99004e-20)
(1.07901 -0.214444 0)
(1.08681 -0.211455 2.23236e-20)
(1.09459 -0.208149 -2.50884e-20)
(1.10234 -0.20452 0)
(1.11004 -0.200566 0)
(1.11767 -0.196281 2.82634e-20)
(1.12523 -0.191663 2.54622e-21)
(1.1327 -0.186708 -5.93056e-20)
(1.14007 -0.181416 -6.2231e-20)
(1.14732 -0.175783 6.40441e-20)
(1.15443 -0.169808 3.28262e-20)
(1.16139 -0.163491 1.41082e-19)
(1.16819 -0.156831 1.27133e-21)
(1.1748 -0.149826 -3.942e-20)
(1.18122 -0.142474 7.56651e-20)
(1.18741 -0.134779 -3.93297e-20)
(1.19337 -0.126745 8.01389e-20)
(1.19907 -0.118377 0)
(1.2045 -0.109677 0)
(1.20964 -0.100647 0)
(1.21448 -0.0912921 -2.18279e-20)
(1.21898 -0.0816231 -4.5034e-20)
(1.22315 -0.0716358 4.65971e-20)
(1.22695 -0.061341 4.84014e-20)
(1.23038 -0.0507489 -4.87182e-20)
(1.23341 -0.0398616 0)
(1.23604 -0.0286948 2.57238e-20)
(1.23824 -0.0172576 -1.32393e-20)
(1.24001 -0.00555758 0)
(1.24131 0.00639837 1.35545e-20)
(1.24215 0.0185958 -2.56676e-21)
(1.2425 0.0310487 1.74701e-21)
(1.24234 0.0436916 -6.82152e-21)
(1.24166 0.0565203 0)
(1.24043 0.0695434 -2.77231e-20)
(1.23864 0.0827455 2.74269e-20)
(1.23628 0.0961228 0)
(1.23334 0.109667 -1.44764e-21)
(1.2298 0.123367 1.48331e-21)
(1.22565 0.137213 5.14326e-20)
(1.22087 0.151196 0)
(1.21544 0.165306 -2.97922e-21)
(1.20936 0.179536 -4.96197e-20)
(1.2026 0.193879 -1.52255e-19)
(1.19515 0.208331 -2.6802e-21)
(1.18698 0.222886 9.50618e-20)
(1.17808 0.237544 0)
(1.16842 0.252298 0)
(1.15797 0.267148 9.61573e-20)
(1.14672 0.282093 0)
(1.13462 0.297124 0)
(1.12165 0.312254 -3.43444e-21)
(1.10775 0.327472 -8.68921e-20)
(1.09289 0.342787 -1.71224e-19)
(1.07701 0.358219 1.68466e-19)
(1.06007 0.37372 -1.06885e-20)
(1.04204 0.389396 7.40892e-20)
(1.02268 0.404891 7.73106e-20)
(1.00277 0.421749 0)
(1.00163 -0.241557 0)
(1.00964 -0.241375 -1.09143e-20)
(1.01766 -0.240945 3.91639e-20)
(1.02576 -0.240272 -1.20569e-20)
(1.0339 -0.239319 0)
(1.04207 -0.238066 -5.1408e-20)
(1.05027 -0.236507 9.03519e-20)
(1.05848 -0.234637 2.91156e-21)
(1.06672 -0.232451 -1.03735e-19)
(1.07497 -0.229943 1.99804e-20)
(1.08322 -0.227109 -2.43688e-20)
(1.09146 -0.223944 -2.57148e-20)
(1.09968 -0.220444 7.90745e-20)
(1.10786 -0.216602 -1.09835e-19)
(1.11599 -0.212414 5.61164e-20)
(1.12405 -0.207876 -3.22965e-20)
(1.13202 -0.202987 1.25149e-19)
(1.1399 -0.197746 -3.01272e-20)
(1.14767 -0.192148 3.60759e-20)
(1.15531 -0.186194 -3.35488e-20)
(1.1628 -0.179881 2.53981e-21)
(1.17013 -0.173204 -2.24708e-19)
(1.17728 -0.166171 -3.99591e-20)
(1.18423 -0.158776 -2.38257e-21)
(1.19097 -0.151024 1.23211e-19)
(1.19748 -0.142912 -4.10209e-20)
(1.20375 -0.134448 8.78749e-20)
(1.20974 -0.125632 -1.33987e-19)
(1.21545 -0.116468 0)
(1.22086 -0.106964 -4.73062e-20)
(1.22594 -0.0971213 4.74674e-20)
(1.23068 -0.0869463 1.42949e-21)
(1.23507 -0.07645 -2.5832e-20)
(1.23907 -0.0656428 -2.63794e-20)
(1.24269 -0.05453 7.96057e-20)
(1.2459 -0.0431202 -5.29716e-20)
(1.24868 -0.0314179 4.13531e-20)
(1.25102 -0.0194397 -5.53374e-20)
(1.2529 -0.00719107 2.8024e-20)
(1.2543 0.00531999 -6.96525e-21)
(1.25521 0.0180754 0)
(1.25562 0.0310832 7.4147e-21)
(1.25549 0.04429 -7.38299e-21)
(1.25482 0.0576834 -1.47576e-20)
(1.25358 0.0712679 4.3927e-20)
(1.25178 0.0850355 -2.98803e-20)
(1.24939 0.0989754 -2.88287e-20)
(1.2464 0.113077 0)
(1.2428 0.127331 -1.14996e-19)
(1.23857 0.141726 1.12194e-19)
(1.23371 0.156254 -5.38275e-20)
(1.2282 0.170905 5.35791e-20)
(1.22201 0.185675 5.61085e-20)
(1.21515 0.200553 1.05637e-19)
(1.20758 0.215539 1.02577e-19)
(1.19929 0.230624 0)
(1.19026 0.245811 -1.05592e-19)
(1.18048 0.261092 0)
(1.1699 0.27647 2.35811e-21)
(1.15852 0.291946 -9.42617e-20)
(1.14629 0.30751 9.61422e-20)
(1.13318 0.323186 9.09042e-20)
(1.11916 0.338948 -9.47418e-20)
(1.10416 0.35483 -2.15322e-21)
(1.08817 0.370825 3.31412e-21)
(1.0711 0.386903 2.54541e-19)
(1.05294 0.403191 8.65115e-20)
(1.03349 0.419307 8.08811e-20)
(1.01344 0.436811 -7.88547e-20)
(1.00084 -0.255862 0)
(1.00935 -0.255672 0)
(1.0179 -0.255222 2.94357e-20)
(1.02653 -0.254517 -4.40702e-20)
(1.03522 -0.253516 -1.75354e-20)
(1.04394 -0.252196 0)
(1.05268 -0.250551 0)
(1.06143 -0.248577 2.19691e-20)
(1.07019 -0.246268 -4.67451e-20)
(1.07894 -0.243621 -4.71713e-21)
(1.08769 -0.240624 1.26304e-19)
(1.09641 -0.237274 -2.61352e-20)
(1.10511 -0.233567 2.87038e-20)
(1.11375 -0.229501 -5.76248e-20)
(1.12234 -0.22507 3.19904e-20)
(1.13085 -0.220267 0)
(1.13928 -0.215094 0)
(1.1476 -0.209547 1.28859e-21)
(1.15579 -0.203629 -1.0854e-19)
(1.16385 -0.197331 3.64353e-20)
(1.17175 -0.190657 -4.01058e-20)
(1.17947 -0.183601 3.89608e-20)
(1.18701 -0.176169 4.13352e-20)
(1.19433 -0.168359 -4.00211e-20)
(1.20142 -0.160173 -4.26685e-20)
(1.20828 -0.151614 0)
(1.21487 -0.142688 0)
(1.22117 -0.133398 7.07529e-20)
(1.22718 -0.123749 0)
(1.23286 -0.113746 5.04359e-20)
(1.23821 -0.103396 -5.05759e-20)
(1.2432 -0.0927052 -2.53893e-20)
(1.24782 -0.0816805 2.59479e-20)
(1.25204 -0.0703294 5.45772e-20)
(1.25586 -0.0586602 -2.70179e-20)
(1.25925 -0.0466885 -2.84831e-20)
(1.26218 -0.0344188 2.94835e-20)
(1.26465 -0.0218593 0)
(1.26664 -0.00902951 0)
(1.26812 0.00406396 7.79616e-21)
(1.26909 0.0174072 0)
(1.26952 0.0310033 0)
(1.26941 0.0448052 -2.37611e-20)
(1.26874 0.0587907 3.15972e-20)
(1.2675 0.072966 -1.59562e-20)
(1.26567 0.0873209 2.994e-20)
(1.26324 0.101844 0)
(1.2602 0.116525 9.17931e-20)
(1.25654 0.131353 -1.6678e-21)
(1.25224 0.146317 0)
(1.24728 0.16141 -1.17825e-19)
(1.24167 0.176621 -1.87133e-21)
(1.23538 0.191946 -1.13486e-19)
(1.2284 0.207374 -5.84336e-20)
(1.22071 0.222907 -1.11552e-19)
(1.2123 0.238535 1.10684e-19)
(1.20314 0.254263 1.05608e-19)
(1.19323 0.270082 0)
(1.18252 0.286001 -1.04657e-19)
(1.171 0.302016 3.50765e-21)
(1.15864 0.318126 0)
(1.14541 0.334353 0)
(1.13125 0.350671 9.43821e-20)
(1.11614 0.367128 0)
(1.10002 0.383689 0)
(1.08285 0.400364 -9.16864e-20)
(1.0646 0.417262 -8.36266e-20)
(1.0451 0.434016 -8.95702e-20)
(1.02476 0.451882 0)
(0.999978 -0.271157 0)
(1.00901 -0.270957 0)
(1.01808 -0.27048 0)
(1.02725 -0.269733 -1.75157e-20)
(1.03649 -0.268674 -2.06999e-20)
(1.04577 -0.26728 -3.34194e-21)
(1.05507 -0.265542 4.12147e-20)
(1.06439 -0.263454 -2.21892e-20)
(1.07372 -0.261013 2.53792e-20)
(1.08304 -0.258212 5.20341e-20)
(1.09233 -0.255045 0)
(1.1016 -0.251504 0)
(1.11082 -0.247583 -1.47921e-21)
(1.11999 -0.243278 9.51452e-20)
(1.12909 -0.238591 -1.34946e-19)
(1.1381 -0.233514 -3.10055e-21)
(1.14701 -0.228045 7.07665e-20)
(1.15581 -0.222178 3.64137e-20)
(1.16447 -0.215912 -2.47283e-21)
(1.17298 -0.20925 0)
(1.18132 -0.202191 8.34311e-20)
(1.18947 -0.194734 0)
(1.19742 -0.186878 8.88361e-20)
(1.20514 -0.178635 -1.3703e-19)
(1.21262 -0.169998 1.41211e-19)
(1.21985 -0.160968 4.98437e-20)
(1.22679 -0.151557 -7.57281e-20)
(1.23343 -0.141764 7.69265e-20)
(1.23975 -0.131596 -5.14612e-20)
(1.24574 -0.121057 0)
(1.25137 -0.11016 -5.49159e-20)
(1.25662 -0.0989102 -2.96576e-20)
(1.26148 -0.0873132 5.61934e-20)
(1.26592 -0.0753849 -5.78493e-20)
(1.26993 -0.0631314 2.96277e-20)
(1.27348 -0.0505612 -2.975e-20)
(1.27656 -0.0376864 -1.48193e-20)
(1.27915 -0.0245185 1.59758e-20)
(1.28124 -0.0110705 7.70897e-21)
(1.2828 0.00264504 -2.37173e-20)
(1.28382 0.0166109 -2.09349e-21)
(1.2843 0.0308267 0)
(1.28421 0.0452495 8.0517e-21)
(1.28354 0.0598525 -1.60277e-20)
(1.28229 0.0746414 1.59384e-20)
(1.28042 0.0896069 0)
(1.27795 0.104737 0)
(1.27484 0.12002 3.29317e-20)
(1.2711 0.135444 -6.35866e-20)
(1.26671 0.150999 -1.27699e-19)
(1.26166 0.166675 2.49277e-19)
(1.25593 0.182464 -6.32546e-20)
(1.24952 0.19836 6.09785e-20)
(1.24242 0.214354 5.838e-20)
(1.23459 0.230447 -1.18105e-19)
(1.22605 0.24663 1.17139e-19)
(1.21675 0.26291 0)
(1.2067 0.279277 -1.16526e-19)
(1.19585 0.295746 3.93677e-21)
(1.18421 0.312309 1.0963e-19)
(1.17171 0.328977 0)
(1.15835 0.34576 0)
(1.14407 0.362646 0)
(1.12884 0.379681 2.0344e-19)
(1.11261 0.396812 1.00221e-19)
(1.09532 0.414109 9.19954e-20)
(1.07698 0.431553 -1.85538e-19)
(1.05738 0.449002 -5.85908e-21)
(1.03706 0.467314 9.11022e-20)
(0.999089 -0.28754 0)
(1.00866 -0.287328 -3.19212e-20)
(1.01827 -0.286819 4.0395e-20)
(1.02799 -0.286025 -3.04327e-20)
(1.03779 -0.284899 5.91228e-20)
(1.04764 -0.283418 2.25414e-20)
(1.05753 -0.281574 2.42114e-20)
(1.06743 -0.279362 0)
(1.07735 -0.276776 -5.31042e-20)
(1.08726 -0.27381 -5.59157e-20)
(1.09714 -0.270456 5.75714e-20)
(1.10699 -0.266709 -3.23597e-20)
(1.11679 -0.262561 3.55329e-20)
(1.12653 -0.258005 -2.98703e-20)
(1.13618 -0.253038 -1.45731e-19)
(1.14574 -0.247659 -3.28975e-21)
(1.15518 -0.241863 -3.24128e-21)
(1.16449 -0.235656 7.88821e-20)
(1.17365 -0.229031 4.0447e-20)
(1.18265 -0.221984 8.79159e-20)
(1.19147 -0.214521 -8.48584e-20)
(1.20008 -0.206643 0)
(1.20848 -0.198348 2.98348e-21)
(1.21665 -0.189639 0)
(1.22455 -0.180523 -4.86751e-20)
(1.23217 -0.170996 -4.99614e-20)
(1.23949 -0.161067 2.56153e-20)
(1.2465 -0.15074 0)
(1.25316 -0.140022 2.85454e-20)
(1.25947 -0.12892 5.71179e-20)
(1.26539 -0.117441 -5.71935e-20)
(1.27091 -0.105596 2.86351e-20)
(1.27601 -0.0933928 -6.06022e-20)
(1.28067 -0.080842 1.21394e-19)
(1.28487 -0.0679559 -3.09648e-20)
(1.28859 -0.0547469 0)
(1.29182 -0.0412273 -1.66469e-20)
(1.29454 -0.0274106 9.69328e-22)
(1.29673 -0.0133116 2.48503e-20)
(1.29838 0.00105601 -2.1103e-20)
(1.29947 0.0156745 4.15255e-21)
(1.29999 0.030541 -1.32256e-20)
(1.29992 0.045615 8.72472e-21)
(1.29925 0.0608656 0)
(1.29797 0.0762981 0)
(1.29607 0.0919024 0)
(1.29353 0.107666 3.52053e-20)
(1.29036 0.123575 3.49182e-20)
(1.28652 0.139619 0)
(1.28203 0.155785 6.67736e-20)
(1.27686 0.172066 6.97175e-20)
(1.27101 0.188449 6.70312e-20)
(1.26447 0.204933 0)
(1.25722 0.221506 0)
(1.24926 0.238172 -1.24756e-19)
(1.24057 0.254921 1.23667e-19)
(1.23113 0.271763 0)
(1.22094 0.288689 1.15923e-19)
(1.20995 0.305717 -1.1399e-19)
(1.19817 0.322835 -1.18472e-19)
(1.18554 0.340069 1.12315e-19)
(1.17205 0.357411 -1.10959e-19)
(1.15765 0.374878 0)
(1.1423 0.392484 -1.02673e-19)
(1.12594 0.41021 2.44182e-21)
(1.10853 0.428102 -2.06486e-19)
(1.09002 0.446139 -2.01054e-19)
(1.07022 0.464146 1.92183e-19)
(1.04979 0.483005 -8.99998e-20)
(0.99818 -0.305084 -7.6764e-21)
(1.00832 -0.304856 0)
(1.0185 -0.304315 -8.79523e-21)
(1.02881 -0.303468 5.16748e-20)
(1.03919 -0.302273 -9.68636e-20)
(1.04963 -0.300702 2.24942e-20)
(1.06011 -0.298745 -2.43849e-20)
(1.07061 -0.296399 5.58404e-20)
(1.08113 -0.293653 -2.77828e-20)
(1.09165 -0.290502 -2.93376e-20)
(1.10215 -0.286939 -3.32386e-20)
(1.11261 -0.282958 1.01827e-19)
(1.12302 -0.278557 -3.2243e-20)
(1.13335 -0.273728 1.141e-19)
(1.1436 -0.268465 4.09273e-20)
(1.15374 -0.262771 3.49741e-21)
(1.16375 -0.256635 -8.1847e-20)
(1.17363 -0.250063 0)
(1.18335 -0.243056 0)
(1.19289 -0.235608 -4.79867e-20)
(1.20223 -0.22772 -4.64022e-20)
(1.21135 -0.219393 -1.00212e-19)
(1.22024 -0.210626 5.07322e-20)
(1.22887 -0.201426 1.05758e-19)
(1.23721 -0.191793 -1.05574e-19)
(1.24526 -0.181731 2.83518e-20)
(1.25298 -0.171247 2.90425e-20)
(1.26037 -0.160347 0)
(1.26739 -0.149039 -2.85695e-20)
(1.27403 -0.137331 -6.07347e-20)
(1.28026 -0.125231 -1.15838e-21)
(1.28607 -0.112751 6.20604e-20)
(1.29143 -0.0999018 -3.29377e-20)
(1.29633 -0.0866955 0)
(1.30074 -0.0731451 1.70679e-20)
(1.30466 -0.059264 -1.73582e-20)
(1.30805 -0.0450663 1.66158e-20)
(1.3109 -0.0305669 -3.47996e-20)
(1.31321 -0.0157815 0)
(1.31494 -0.000725452 -4.61341e-21)
(1.31609 0.014582 4.54315e-21)
(1.31665 0.0301352 -7.12146e-21)
(1.31659 0.0458946 2.77169e-20)
(1.31591 0.0618267 -5.5169e-20)
(1.3146 0.0779353 3.65042e-20)
(1.31265 0.0942095 3.63508e-20)
(1.31004 0.110635 -3.39361e-20)
(1.30678 0.127198 7.35982e-20)
(1.30284 0.143887 -7.09194e-20)
(1.29823 0.160687 -1.74494e-19)
(1.29293 0.177592 2.01701e-21)
(1.28695 0.19459 -6.67146e-20)
(1.28026 0.211677 0)
(1.27286 0.228844 0)
(1.26475 0.246096 -1.31408e-19)
(1.2559 0.263421 1.92617e-19)
(1.24632 0.280836 -1.28191e-19)
(1.23597 0.298328 0)
(1.22485 0.315921 1.2699e-19)
(1.21292 0.333604 2.37487e-19)
(1.20016 0.351404 -1.14919e-19)
(1.18653 0.369313 1.18752e-21)
(1.17199 0.387358 1.14388e-19)
(1.15649 0.405536 -4.05113e-21)
(1.13999 0.42386 -2.18284e-19)
(1.1224 0.442338 2.1082e-19)
(1.10373 0.460993 1.01654e-19)
(1.08357 0.479572 0)
(1.0631 0.499314 0)
(0.997211 -0.323912 7.73455e-21)
(1.00797 -0.323665 4.79828e-20)
(1.01878 -0.323084 -3.81455e-20)
(1.02971 -0.322175 0)
(1.04072 -0.320894 -1.14487e-20)
(1.05179 -0.319216 -5.32697e-20)
(1.0629 -0.317125 3.86022e-20)
(1.07403 -0.314622 -7.56914e-20)
(1.08518 -0.311701 6.01003e-20)
(1.09632 -0.308353 0)
(1.10745 -0.304572 1.54954e-20)
(1.11854 -0.300352 0)
(1.12958 -0.295688 4.13572e-20)
(1.14055 -0.290572 -1.16514e-19)
(1.15143 -0.285001 0)
(1.1622 -0.278975 0)
(1.17283 -0.272488 0)
(1.18332 -0.265535 -7.0732e-20)
(1.19363 -0.258119 9.43943e-20)
(1.20374 -0.250238 4.81047e-20)
(1.21364 -0.24189 0)
(1.2233 -0.233079 0)
(1.23271 -0.223804 0)
(1.24184 -0.214069 -1.41668e-19)
(1.25066 -0.203882 1.70541e-19)
(1.25916 -0.193246 -8.61699e-20)
(1.26732 -0.182168 -6.0039e-20)
(1.27511 -0.170656 6.19848e-20)
(1.28252 -0.158718 -6.19753e-20)
(1.28951 -0.146363 3.30411e-20)
(1.29608 -0.133603 -6.58583e-20)
(1.30219 -0.120448 3.15856e-20)
(1.30784 -0.106912 6.78783e-20)
(1.31299 -0.0930075 3.56047e-20)
(1.31763 -0.0787496 -1.70293e-20)
(1.32174 -0.0641532 1.73105e-20)
(1.3253 -0.0492341 0)
(1.3283 -0.034009 -1.11437e-21)
(1.33072 -0.0184949 9.36203e-21)
(1.33254 -0.00270904 5.43079e-23)
(1.33375 0.0133277 -4.79447e-21)
(1.33433 0.0296074 1.20744e-20)
(1.33428 0.04609 -1.97445e-20)
(1.33359 0.0627402 -9.98896e-21)
(1.33223 0.0795603 1.98637e-20)
(1.33022 0.0965375 0)
(1.32753 0.113657 -7.60921e-20)
(1.32416 0.130902 -1.11938e-19)
(1.3201 0.148262 9.50199e-23)
(1.31536 0.165721 1.09857e-19)
(1.30992 0.183271 0)
(1.30378 0.200901 0)
(1.29694 0.218609 -7.33995e-20)
(1.28938 0.236384 1.42356e-19)
(1.2811 0.254233 1.88679e-21)
(1.2721 0.272147 -6.94505e-20)
(1.26235 0.290142 2.67716e-19)
(1.25185 0.308208 -1.31873e-19)
(1.24056 0.32637 -1.25463e-19)
(1.22848 0.344619 -2.56069e-19)
(1.21555 0.362985 -2.82758e-22)
(1.20175 0.381458 -1.21186e-21)
(1.18704 0.400072 3.02805e-21)
(1.17136 0.418819 2.29369e-19)
(1.15467 0.437721 -1.19466e-19)
(1.13687 0.456782 -1.1281e-19)
(1.11795 0.476026 1.13833e-19)
(1.09766 0.495321 1.11686e-19)
(1.0767 0.515385 0)
(0.996185 -0.344084 -3.76674e-20)
(1.0076 -0.343819 1.77878e-20)
(1.01907 -0.343198 0)
(1.03066 -0.34223 -1.25196e-20)
(1.04235 -0.340866 0)
(1.05409 -0.339082 4.34281e-20)
(1.06588 -0.336864 -2.766e-20)
(1.0777 -0.334202 6.45364e-20)
(1.08953 -0.331098 -6.53316e-20)
(1.10136 -0.327546 -1.85138e-20)
(1.11317 -0.323537 9.51684e-20)
(1.12494 -0.319062 -7.656e-20)
(1.13665 -0.314118 0)
(1.14828 -0.308696 -8.78337e-20)
(1.15982 -0.302789 1.7864e-19)
(1.17123 -0.296397 -9.0786e-20)
(1.18251 -0.289519 0)
(1.19362 -0.282148 -1.25524e-19)
(1.20454 -0.274284 1.79078e-19)
(1.21526 -0.265929 -1.04312e-19)
(1.22575 -0.257083 0)
(1.23599 -0.247748 0)
(1.24594 -0.237927 0)
(1.2556 -0.227625 2.87739e-20)
(1.26494 -0.216847 6.16831e-20)
(1.27393 -0.205598 -6.1578e-20)
(1.28256 -0.193888 3.09392e-20)
(1.29079 -0.181723 0)
(1.29861 -0.169113 6.73154e-20)
(1.30599 -0.156069 -1.00286e-19)
(1.31292 -0.142604 0)
(1.31936 -0.128729 7.0739e-20)
(1.3253 -0.11446 -3.48732e-20)
(1.33072 -0.0998115 -3.5474e-20)
(1.3356 -0.0847992 1.91861e-20)
(1.33992 -0.0694403 0)
(1.34366 -0.0537525 0)
(1.34681 -0.0377545 1.88547e-20)
(1.34934 -0.0214651 0)
(1.35124 -0.00490366 -9.98417e-21)
(1.35251 0.0119071 2.44966e-21)
(1.35312 0.0289569 1.02318e-20)
(1.35307 0.046204 -2.6855e-22)
(1.35234 0.0636125 2.04106e-20)
(1.35094 0.0811822 4.1777e-20)
(1.34884 0.0988986 2.08099e-20)
(1.34605 0.116745 -4.22953e-20)
(1.34257 0.134704 -4.08132e-20)
(1.33838 0.152762 -7.8321e-20)
(1.33349 0.170904 7.76181e-20)
(1.32789 0.189123 0)
(1.32159 0.207405 -7.7948e-20)
(1.31457 0.22575 -1.89351e-21)
(1.30684 0.244148 2.24206e-21)
(1.29838 0.262608 -1.44845e-19)
(1.28919 0.281118 0)
(1.27926 0.2997 -7.20095e-20)
(1.26856 0.318342 0)
(1.25708 0.337073 0)
(1.24478 0.355883 1.28373e-19)
(1.23164 0.374805 -7.54436e-21)
(1.21763 0.39383 -1.2644e-19)
(1.20268 0.412995 1.28431e-19)
(1.18677 0.432287 -1.22941e-19)
(1.16981 0.451744 1.12654e-19)
(1.15175 0.471352 -1.18588e-19)
(1.13254 0.491153 -2.32948e-19)
(1.11193 0.511002 -2.24543e-19)