/*--------------------------------*- C++ -*----------------------------------*\
| =========                 |                                                 |
| \\      /  F ield         | OpenFOAM: The Open Source CFD Toolbox           |
|  \\    /   O peration     | Version:  2312                                  |
|   \\  /    A nd           | Website:  www.openfoam.com                      |
|    \\/     M anipulation  |                                                 |
\*---------------------------------------------------------------------------*/
FoamFile
{
    version     2.0;
    format      ascii;
    arch        "LSB;label=32;scalar=64";
    class       volScalarField;
    location    "1800";
    object      k;
}
// * * * * * * * * * * * * * * * * * * * * * * * * * * * * * * * * * * * * * //

dimensions      [0 2 -2 0 0 0 0];

internalField   nonuniform List<scalar> 
76025
(
5.0332e-06
5.03411e-06
5.03406e-06
5.03431e-06
5.03447e-06
5.03793e-06
5.03892e-06
5.04066e-06
5.04157e-06
5.04389e-06
5.04737e-06
5.04924e-06
5.05306e-06
5.05444e-06
5.05745e-06
5.05948e-06
5.06165e-06
5.06986e-06
5.0726e-06
5.0699e-06
5.07066e-06
5.07353e-06
5.0768e-06
5.08213e-06
5.08941e-06
5.09558e-06
5.10831e-06
5.11816e-06
5.13214e-06
5.14474e-06
5.15984e-06
5.17406e-06
5.19647e-06
5.21733e-06
5.24305e-06
5.26876e-06
5.29927e-06
5.337e-06
5.37522e-06
5.41738e-06
5.46145e-06
5.51359e-06
5.57124e-06
5.6313e-06
5.69377e-06
5.76177e-06
5.83288e-06
5.90894e-06
5.98961e-06
6.07466e-06
6.1684e-06
6.26893e-06
6.37978e-06
6.49893e-06
6.65159e-06
6.80892e-06
7.00043e-06
7.22745e-06
7.50556e-06
7.84657e-06
8.24663e-06
8.76249e-06
9.43974e-06
1.02736e-05
1.14371e-05
1.28783e-05
1.47812e-05
1.7148e-05
2.01196e-05
5.12906e-06
5.13314e-06
5.13725e-06
5.14232e-06
5.14615e-06
5.15163e-06
5.15595e-06
5.16066e-06
5.16487e-06
5.16847e-06
5.17231e-06
5.17567e-06
5.18075e-06
5.18444e-06
5.1928e-06
5.19923e-06
5.2088e-06
5.22541e-06
5.22421e-06
5.22649e-06
5.22613e-06
5.22909e-06
5.23448e-06
5.24166e-06
5.25161e-06
5.26248e-06
5.27635e-06
5.29136e-06
5.30793e-06
5.3257e-06
5.34485e-06
5.36433e-06
5.387e-06
5.41128e-06
5.43848e-06
5.46861e-06
5.50148e-06
5.53779e-06
5.5763e-06
5.61791e-06
5.66347e-06
5.71254e-06
5.7652e-06
5.82175e-06
5.88311e-06
5.9496e-06
6.0211e-06
6.09868e-06
6.18427e-06
6.27909e-06
6.38372e-06
6.50191e-06
6.63429e-06
6.78635e-06
6.96044e-06
7.16487e-06
7.40441e-06
7.68593e-06
8.02633e-06
8.42938e-06
8.93585e-06
9.55799e-06
1.03622e-05
1.13745e-05
1.27232e-05
1.43901e-05
1.65912e-05
1.91184e-05
2.24616e-05
5.25747e-06
5.26755e-06
5.27116e-06
5.26982e-06
5.27146e-06
5.27568e-06
5.28002e-06
5.28517e-06
5.29115e-06
5.29745e-06
5.30406e-06
5.3094e-06
5.3156e-06
5.32085e-06
5.33001e-06
5.3398e-06
5.35082e-06
5.36228e-06
5.3708e-06
5.37812e-06
5.38502e-06
5.39257e-06
5.40155e-06
5.41188e-06
5.42431e-06
5.43829e-06
5.45442e-06
5.4722e-06
5.49168e-06
5.51236e-06
5.53453e-06
5.55772e-06
5.58263e-06
5.60943e-06
5.63858e-06
5.67056e-06
5.70558e-06
5.74359e-06
5.78449e-06
5.82859e-06
5.8764e-06
5.92854e-06
5.985e-06
6.04695e-06
6.11443e-06
6.18827e-06
6.26922e-06
6.35849e-06
6.45764e-06
6.56817e-06
6.69181e-06
6.83131e-06
6.98926e-06
7.16973e-06
7.377e-06
7.61854e-06
7.9002e-06
8.23467e-06
8.63612e-06
9.12341e-06
9.73022e-06
1.04815e-05
1.14502e-05
1.26597e-05
1.42276e-05
1.61282e-05
1.85404e-05
2.12785e-05
2.47725e-05
5.40704e-06
5.41277e-06
5.41712e-06
5.42138e-06
5.42583e-06
5.43093e-06
5.4411e-06
5.4502e-06
5.45964e-06
5.46511e-06
5.47196e-06
5.48169e-06
5.49651e-06
5.5185e-06
5.52737e-06
5.52527e-06
5.52956e-06
5.53746e-06
5.54686e-06
5.55686e-06
5.56724e-06
5.5784e-06
5.59054e-06
5.6039e-06
5.61892e-06
5.6354e-06
5.65397e-06
5.67418e-06
5.69624e-06
5.71984e-06
5.74494e-06
5.77154e-06
5.7999e-06
5.83027e-06
5.86293e-06
5.89818e-06
5.93628e-06
5.97758e-06
6.0223e-06
6.07094e-06
6.12396e-06
6.1822e-06
6.24589e-06
6.31622e-06
6.39344e-06
6.47844e-06
6.57223e-06
6.67618e-06
6.79183e-06
6.92121e-06
7.06633e-06
7.23037e-06
7.41641e-06
7.62958e-06
7.87509e-06
8.16185e-06
8.49893e-06
8.90132e-06
9.38719e-06
9.98077e-06
1.07182e-05
1.16332e-05
1.27916e-05
1.42162e-05
1.6008e-05
1.81253e-05
2.07379e-05
2.36287e-05
2.72386e-05
5.5857e-06
5.59135e-06
5.59729e-06
5.60368e-06
5.61016e-06
5.61625e-06
5.62466e-06
5.63304e-06
5.64167e-06
5.65022e-06
5.65991e-06
5.67094e-06
5.68335e-06
5.69588e-06
5.70589e-06
5.71359e-06
5.72136e-06
5.73008e-06
5.74031e-06
5.7531e-06
5.76799e-06
5.78384e-06
5.80025e-06
5.81735e-06
5.83554e-06
5.85544e-06
5.87762e-06
5.90169e-06
5.92739e-06
5.95458e-06
5.98334e-06
6.01404e-06
6.04696e-06
6.08212e-06
6.11973e-06
6.16008e-06
6.20353e-06
6.25056e-06
6.30161e-06
6.35731e-06
6.41822e-06
6.48519e-06
6.55882e-06
6.64016e-06
6.72997e-06
6.82901e-06
6.93853e-06
7.06013e-06
7.19563e-06
7.34746e-06
7.51821e-06
7.71174e-06
7.93205e-06
8.18574e-06
8.47935e-06
8.82444e-06
9.2322e-06
9.72223e-06
1.03149e-05
1.10408e-05
1.19357e-05
1.30373e-05
1.44004e-05
1.60447e-05
1.80493e-05
2.03639e-05
2.31393e-05
2.61394e-05
2.98159e-05
5.79967e-06
5.80556e-06
5.81226e-06
5.8195e-06
5.82742e-06
5.83505e-06
5.84352e-06
5.85206e-06
5.86091e-06
5.87051e-06
5.88153e-06
5.89418e-06
5.90745e-06
5.92076e-06
5.93423e-06
5.94826e-06
5.96614e-06
5.9916e-06
6.03076e-06
6.04602e-06
6.04152e-06
6.04843e-06
6.06368e-06
6.08665e-06
6.11526e-06
6.16542e-06
6.20208e-06
6.22212e-06
6.23713e-06
6.25701e-06
6.28174e-06
6.3112e-06
6.34502e-06
6.38287e-06
6.42464e-06
6.47033e-06
6.52014e-06
6.57445e-06
6.63372e-06
6.69853e-06
6.76957e-06
6.84762e-06
6.93363e-06
7.02848e-06
7.13361e-06
7.24963e-06
7.37811e-06
7.521e-06
7.68062e-06
7.85997e-06
8.0625e-06
8.29305e-06
8.55709e-06
8.86283e-06
9.21906e-06
9.63994e-06
1.01396e-05
1.07416e-05
1.14681e-05
1.2354e-05
1.34305e-05
1.47365e-05
1.63101e-05
1.81683e-05
2.03651e-05
2.28473e-05
2.57429e-05
2.88086e-05
3.25031e-05
6.05557e-06
6.06287e-06
6.07062e-06
6.07902e-06
6.08796e-06
6.09719e-06
6.10666e-06
6.11676e-06
6.12688e-06
6.13848e-06
6.15146e-06
6.16608e-06
6.1829e-06
6.20148e-06
6.22027e-06
6.24384e-06
6.26737e-06
6.293e-06
6.33241e-06
6.38496e-06
6.3895e-06
6.39217e-06
6.39908e-06
6.41308e-06
6.4342e-06
6.46341e-06
6.4943e-06
6.52348e-06
6.55215e-06
6.58234e-06
6.61534e-06
6.65188e-06
6.69231e-06
6.73688e-06
6.78579e-06
6.83925e-06
6.89759e-06
6.96126e-06
7.0308e-06
7.10684e-06
7.19022e-06
7.28174e-06
7.38269e-06
7.49395e-06
7.61765e-06
7.75445e-06
7.90635e-06
8.07584e-06
8.26595e-06
8.48054e-06
8.72426e-06
9.00331e-06
9.32496e-06
9.69943e-06
1.01381e-05
1.06576e-05
1.12749e-05
1.2016e-05
1.29035e-05
1.39726e-05
1.52474e-05
1.67637e-05
1.85409e-05
2.05953e-05
2.29524e-05
2.55657e-05
2.85312e-05
3.16207e-05
3.5254e-05
6.36353e-06
6.37291e-06
6.38246e-06
6.39265e-06
6.40318e-06
6.41423e-06
6.42548e-06
6.43753e-06
6.44994e-06
6.46349e-06
6.47873e-06
6.49511e-06
6.51399e-06
6.53446e-06
6.55564e-06
6.57994e-06
6.60405e-06
6.62919e-06
6.65739e-06
6.68756e-06
6.71251e-06
6.73459e-06
6.75621e-06
6.77986e-06
6.80625e-06
6.83586e-06
6.86799e-06
6.90198e-06
6.93787e-06
6.97616e-06
7.01743e-06
7.06224e-06
7.11104e-06
7.16422e-06
7.22215e-06
7.28517e-06
7.35379e-06
7.42855e-06
7.51017e-06
7.59944e-06
7.69739e-06
7.80511e-06
7.92408e-06
8.05574e-06
8.20222e-06
8.36547e-06
8.54755e-06
8.75175e-06
8.9821e-06
9.24361e-06
9.54241e-06
9.88633e-06
1.02847e-05
1.07498e-05
1.12954e-05
1.19401e-05
1.27024e-05
1.36087e-05
1.46795e-05
1.59468e-05
1.74252e-05
1.91454e-05
2.11079e-05
2.33302e-05
2.58074e-05
2.85089e-05
3.14887e-05
3.45557e-05
3.80288e-05
6.73692e-06
6.74876e-06
6.76077e-06
6.7734e-06
6.78637e-06
6.79983e-06
6.81363e-06
6.82811e-06
6.84321e-06
6.8592e-06
6.87662e-06
6.89517e-06
6.9156e-06
6.93751e-06
6.96057e-06
6.98532e-06
7.01071e-06
7.03699e-06
7.06442e-06
7.09308e-06
7.12279e-06
7.15389e-06
7.18626e-06
7.22093e-06
7.2577e-06
7.29641e-06
7.33685e-06
7.37905e-06
7.42334e-06
7.47027e-06
7.5204e-06
7.57425e-06
7.63225e-06
7.69485e-06
7.76251e-06
7.83578e-06
7.91539e-06
8.00222e-06
8.09727e-06
8.20171e-06
8.31688e-06
8.44435e-06
8.58585e-06
8.74359e-06
8.91982e-06
9.118e-06
9.34044e-06
9.59144e-06
9.87621e-06
1.02012e-05
1.0574e-05
1.10043e-05
1.15033e-05
1.20849e-05
1.27644e-05
1.3561e-05
1.44933e-05
1.55848e-05
1.68522e-05
1.8321e-05
1.99959e-05
2.19007e-05
2.40196e-05
2.63714e-05
2.89214e-05
3.16623e-05
3.45961e-05
3.75757e-05
4.08366e-05
7.19355e-06
7.20814e-06
7.22298e-06
7.2385e-06
7.25446e-06
7.27091e-06
7.28788e-06
7.30551e-06
7.32388e-06
7.34312e-06
7.36353e-06
7.38509e-06
7.40812e-06
7.43254e-06
7.45831e-06
7.48544e-06
7.51372e-06
7.54311e-06
7.57381e-06
7.6059e-06
7.64016e-06
7.67708e-06
7.71692e-06
7.75982e-06
7.80578e-06
7.85484e-06
7.90712e-06
7.96274e-06
8.02158e-06
8.08339e-06
8.14791e-06
8.21506e-06
8.28515e-06
8.35887e-06
8.43722e-06
8.52145e-06
8.61303e-06
8.71351e-06
8.82449e-06
8.9477e-06
9.08492e-06
9.23825e-06
9.40994e-06
9.60281e-06
9.81988e-06
1.00653e-05
1.0343e-05
1.06579e-05
1.10164e-05
1.14263e-05
1.18968e-05
1.24389e-05
1.3065e-05
1.37898e-05
1.46289e-05
1.56e-05
1.67196e-05
1.80064e-05
1.94712e-05
2.11313e-05
2.29823e-05
2.50408e-05
2.72768e-05
2.97102e-05
3.22807e-05
3.50055e-05
3.78276e-05
4.06581e-05
4.36327e-05
7.75932e-06
7.77714e-06
7.79529e-06
7.81422e-06
7.83371e-06
7.85376e-06
7.87446e-06
7.89591e-06
7.91822e-06
7.94148e-06
7.96586e-06
7.99144e-06
8.0184e-06
8.04675e-06
8.0766e-06
8.10787e-06
8.14068e-06
8.17492e-06
8.21087e-06
8.24853e-06
8.28863e-06
8.33113e-06
8.37679e-06
8.4261e-06
8.47937e-06
8.53683e-06
8.59878e-06
8.66539e-06
8.7366e-06
8.81209e-06
8.89144e-06
8.97443e-06
9.06121e-06
9.15246e-06
9.24929e-06
9.35325e-06
9.4662e-06
9.59017e-06
9.72733e-06
9.88001e-06
1.00507e-05
1.02421e-05
1.04574e-05
1.07001e-05
1.09745e-05
1.1285e-05
1.1638e-05
1.20388e-05
1.24947e-05
1.30147e-05
1.3609e-05
1.42891e-05
1.50678e-05
1.5959e-05
1.69769e-05
1.81361e-05
1.94487e-05
2.09271e-05
2.25754e-05
2.44026e-05
2.63957e-05
2.85651e-05
3.08689e-05
3.3328e-05
3.58624e-05
3.85064e-05
4.11551e-05
4.37716e-05
4.64637e-05
8.46987e-06
8.4918e-06
8.51413e-06
8.53737e-06
8.56127e-06
8.58582e-06
8.61115e-06
8.63735e-06
8.66453e-06
8.6928e-06
8.72228e-06
8.75309e-06
8.78537e-06
8.81921e-06
8.85473e-06
8.89195e-06
8.93107e-06
8.97203e-06
9.01533e-06
9.06055e-06
9.10815e-06
9.15848e-06
9.21213e-06
9.26974e-06
9.33187e-06
9.39903e-06
9.47164e-06
9.55004e-06
9.63438e-06
9.72462e-06
9.82068e-06
9.92259e-06
1.00307e-05
1.01458e-05
1.0269e-05
1.04021e-05
1.05472e-05
1.07066e-05
1.0883e-05
1.10793e-05
1.12989e-05
1.15451e-05
1.18221e-05
1.21343e-05
1.24868e-05
1.28855e-05
1.33365e-05
1.3848e-05
1.4427e-05
1.50826e-05
1.58253e-05
1.66661e-05
1.76167e-05
1.86888e-05
1.98933e-05
2.124e-05
2.27357e-05
2.43857e-05
2.61874e-05
2.81424e-05
3.023e-05
3.24569e-05
3.47688e-05
3.71922e-05
3.96271e-05
4.21193e-05
4.45404e-05
4.68729e-05
4.91437e-05
9.37414e-06
9.4017e-06
9.42973e-06
9.4588e-06
9.48864e-06
9.51924e-06
9.55076e-06
9.58332e-06
9.61702e-06
9.65199e-06
9.68836e-06
9.72627e-06
9.76591e-06
9.80736e-06
9.85086e-06
9.89643e-06
9.9445e-06
9.99466e-06
1.00472e-05
1.01024e-05
1.01605e-05
1.02221e-05
1.02877e-05
1.03579e-05
1.04334e-05
1.05148e-05
1.06027e-05
1.06978e-05
1.08004e-05
1.0911e-05
1.10298e-05
1.11574e-05
1.12945e-05
1.14422e-05
1.1602e-05
1.17759e-05
1.19662e-05
1.21758e-05
1.24078e-05
1.26658e-05
1.29535e-05
1.32753e-05
1.3636e-05
1.40406e-05
1.4495e-05
1.50057e-05
1.55796e-05
1.62244e-05
1.69484e-05
1.77607e-05
1.86693e-05
1.96837e-05
2.0813e-05
2.20655e-05
2.34472e-05
2.49627e-05
2.66126e-05
2.8396e-05
3.03045e-05
3.23331e-05
3.44557e-05
3.66766e-05
3.89281e-05
4.12522e-05
4.35107e-05
4.5794e-05
4.79255e-05
4.98417e-05
5.08514e-05
1.05437e-05
1.05794e-05
1.06156e-05
1.0653e-05
1.06914e-05
1.07307e-05
1.07712e-05
1.08129e-05
1.0856e-05
1.09007e-05
1.09471e-05
1.09955e-05
1.1046e-05
1.10988e-05
1.11541e-05
1.12117e-05
1.12719e-05
1.13349e-05
1.14012e-05
1.14709e-05
1.15447e-05
1.1623e-05
1.17065e-05
1.17959e-05
1.18919e-05
1.19953e-05
1.21069e-05
1.22276e-05
1.2358e-05
1.2499e-05
1.26515e-05
1.28164e-05
1.2995e-05
1.31888e-05
1.33998e-05
1.36303e-05
1.38832e-05
1.41615e-05
1.44687e-05
1.48089e-05
1.51864e-05
1.56059e-05
1.60724e-05
1.65917e-05
1.71698e-05
1.7813e-05
1.85284e-05
1.93232e-05
2.02047e-05
2.11802e-05
2.22567e-05
2.34405e-05
2.47366e-05
2.61481e-05
2.76762e-05
2.93205e-05
3.10763e-05
3.2937e-05
3.48907e-05
3.69254e-05
3.90145e-05
4.1156e-05
4.32755e-05
4.54305e-05
4.74246e-05
4.95004e-05
5.09909e-05
5.16425e-05
5.13465e-05
1.20905e-05
1.21384e-05
1.2187e-05
1.22372e-05
1.22886e-05
1.23412e-05
1.23953e-05
1.24512e-05
1.25089e-05
1.25687e-05
1.2631e-05
1.26955e-05
1.27623e-05
1.28319e-05
1.29044e-05
1.29803e-05
1.30597e-05
1.31431e-05
1.32309e-05
1.33235e-05
1.34217e-05
1.3526e-05
1.36373e-05
1.37563e-05
1.38839e-05
1.40213e-05
1.41692e-05
1.43289e-05
1.45014e-05
1.46878e-05
1.48896e-05
1.51081e-05
1.5345e-05
1.56024e-05
1.58824e-05
1.61879e-05
1.65219e-05
1.68877e-05
1.72891e-05
1.77302e-05
1.82155e-05
1.87498e-05
1.93383e-05
1.99865e-05
2.06999e-05
2.14846e-05
2.23464e-05
2.32912e-05
2.43244e-05
2.54509e-05
2.66745e-05
2.79983e-05
2.94226e-05
3.09476e-05
3.25689e-05
3.4282e-05
3.60781e-05
3.79449e-05
3.98711e-05
4.18331e-05
4.38168e-05
4.57928e-05
4.77204e-05
4.96002e-05
5.13118e-05
5.26253e-05
5.25983e-05
5.21817e-05
5.07663e-05
1.41999e-05
1.42677e-05
1.43365e-05
1.44074e-05
1.448e-05
1.45544e-05
1.46306e-05
1.47089e-05
1.47894e-05
1.48725e-05
1.49585e-05
1.50477e-05
1.51404e-05
1.5237e-05
1.53377e-05
1.54431e-05
1.55536e-05
1.56695e-05
1.57916e-05
1.59204e-05
1.60566e-05
1.6201e-05
1.63546e-05
1.65182e-05
1.6693e-05
1.688e-05
1.70805e-05
1.72957e-05
1.75269e-05
1.77755e-05
1.80432e-05
1.83317e-05
1.86429e-05
1.8979e-05
1.93427e-05
1.97366e-05
2.0164e-05
2.06282e-05
2.11331e-05
2.16827e-05
2.22812e-05
2.29332e-05
2.36434e-05
2.44166e-05
2.52574e-05
2.61704e-05
2.716e-05
2.82297e-05
2.93827e-05
3.06207e-05
3.19446e-05
3.3354e-05
3.48451e-05
3.6416e-05
3.80568e-05
3.97615e-05
4.15201e-05
4.33105e-05
4.51311e-05
4.69312e-05
4.87417e-05
5.04516e-05
5.21553e-05
5.3581e-05
5.41295e-05
5.38795e-05
5.29542e-05
5.13948e-05
4.59913e-05
1.71998e-05
1.73006e-05
1.74026e-05
1.75069e-05
1.76133e-05
1.77218e-05
1.7833e-05
1.79471e-05
1.80645e-05
1.81854e-05
1.83104e-05
1.84398e-05
1.85739e-05
1.87132e-05
1.88581e-05
1.90091e-05
1.91667e-05
1.93315e-05
1.95039e-05
1.96848e-05
1.98749e-05
2.00749e-05
2.02857e-05
2.05084e-05
2.0744e-05
2.09937e-05
2.12586e-05
2.154e-05
2.18394e-05
2.21583e-05
2.24984e-05
2.28615e-05
2.32497e-05
2.36653e-05
2.41108e-05
2.45892e-05
2.51036e-05
2.56572e-05
2.62536e-05
2.68966e-05
2.759e-05
2.83375e-05
2.9143e-05
3.001e-05
3.0942e-05
3.19416e-05
3.30113e-05
3.41524e-05
3.53657e-05
3.66498e-05
3.80032e-05
3.94226e-05
4.09003e-05
4.24354e-05
4.4009e-05
4.56206e-05
4.72582e-05
4.88802e-05
5.0518e-05
5.20575e-05
5.36455e-05
5.49957e-05
5.58409e-05
5.57539e-05
5.50498e-05
5.3917e-05
5.07984e-05
4.76255e-05
3.97161e-05
2.16965e-05
2.18508e-05
2.20064e-05
2.21647e-05
2.23251e-05
2.24879e-05
2.26535e-05
2.28223e-05
2.29947e-05
2.3171e-05
2.33515e-05
2.35366e-05
2.37268e-05
2.39224e-05
2.41237e-05
2.43313e-05
2.45455e-05
2.47669e-05
2.4996e-05
2.52334e-05
2.54796e-05
2.57356e-05
2.60019e-05
2.62797e-05
2.65698e-05
2.68734e-05
2.71917e-05
2.75259e-05
2.78776e-05
2.82484e-05
2.864e-05
2.90544e-05
2.94939e-05
2.99607e-05
3.04576e-05
3.09874e-05
3.1553e-05
3.21575e-05
3.2804e-05
3.34956e-05
3.42354e-05
3.50264e-05
3.58711e-05
3.67719e-05
3.77305e-05
3.87481e-05
3.98252e-05
4.09612e-05
4.21543e-05
4.34002e-05
4.46975e-05
4.60377e-05
4.74116e-05
4.88241e-05
5.02345e-05
5.16745e-05
5.3106e-05
5.44558e-05
5.58497e-05
5.70337e-05
5.78692e-05
5.77864e-05
5.72117e-05
5.62134e-05
5.39283e-05
5.12678e-05
4.48476e-05
3.97417e-05
2.72937e-05
2.87748e-05
2.89977e-05
2.92197e-05
2.9442e-05
2.96641e-05
2.9886e-05
3.01083e-05
3.03314e-05
3.05555e-05
3.07812e-05
3.10086e-05
3.12381e-05
3.147e-05
3.17047e-05
3.19426e-05
3.21839e-05
3.2429e-05
3.26786e-05
3.2933e-05
3.31929e-05
3.34589e-05
3.37319e-05
3.40125e-05
3.43019e-05
3.46011e-05
3.49112e-05
3.52337e-05
3.557e-05
3.59218e-05
3.62909e-05
3.66792e-05
3.70889e-05
3.75224e-05
3.79818e-05
3.84698e-05
3.89891e-05
3.95421e-05
4.01314e-05
4.07594e-05
4.14286e-05
4.21412e-05
4.28992e-05
4.37041e-05
4.45571e-05
4.54587e-05
4.64085e-05
4.74058e-05
4.84471e-05
4.95281e-05
5.06426e-05
5.17939e-05
5.29578e-05
5.41389e-05
5.53465e-05
5.6488e-05
5.77192e-05
5.88288e-05
5.98056e-05
6.03217e-05
6.01394e-05
5.95027e-05
5.84136e-05
5.67599e-05
5.38763e-05
4.95235e-05
4.36844e-05
3.4811e-05
2.71488e-05
1.49665e-05
3.95714e-05
3.98297e-05
4.00813e-05
4.0326e-05
4.0564e-05
4.07964e-05
4.1024e-05
4.12479e-05
4.14685e-05
4.16865e-05
4.19022e-05
4.21154e-05
4.23264e-05
4.25356e-05
4.27433e-05
4.295e-05
4.31564e-05
4.3363e-05
4.35707e-05
4.37802e-05
4.39925e-05
4.42083e-05
4.44289e-05
4.46554e-05
4.48891e-05
4.51314e-05
4.53838e-05
4.56481e-05
4.5926e-05
4.62196e-05
4.65309e-05
4.68621e-05
4.72153e-05
4.75904e-05
4.79924e-05
4.84229e-05
4.88826e-05
4.93733e-05
4.98975e-05
5.04577e-05
5.10549e-05
5.16904e-05
5.23656e-05
5.308e-05
5.3834e-05
5.46251e-05
5.54523e-05
5.63039e-05
5.7176e-05
5.80677e-05
5.89914e-05
5.98704e-05
6.08027e-05
6.17236e-05
6.2496e-05
6.32467e-05
6.31982e-05
6.28213e-05
6.19597e-05
6.08031e-05
5.91112e-05
5.64808e-05
5.265e-05
4.70502e-05
4.01127e-05
3.12209e-05
2.25101e-05
1.42995e-05
8.71194e-06
5.42249e-05
5.43894e-05
5.45524e-05
5.47138e-05
5.4872e-05
5.50264e-05
5.51773e-05
5.53246e-05
5.54684e-05
5.56086e-05
5.57405e-05
5.58617e-05
5.5974e-05
5.60789e-05
5.61775e-05
5.62712e-05
5.63611e-05
5.64482e-05
5.65334e-05
5.66178e-05
5.67022e-05
5.67878e-05
5.68758e-05
5.69673e-05
5.70639e-05
5.71671e-05
5.72784e-05
5.73997e-05
5.75328e-05
5.76797e-05
5.78422e-05
5.8022e-05
5.8219e-05
5.84209e-05
5.86599e-05
5.89208e-05
5.91951e-05
5.94928e-05
5.98205e-05
6.01808e-05
6.05702e-05
6.09922e-05
6.14486e-05
6.1936e-05
6.24576e-05
6.30051e-05
6.35756e-05
6.41289e-05
6.46999e-05
6.53118e-05
6.59378e-05
6.6399e-05
6.69097e-05
6.68374e-05
6.64619e-05
6.56332e-05
6.45331e-05
6.3254e-05
6.13829e-05
5.86776e-05
5.4897e-05
4.97164e-05
4.29817e-05
3.50651e-05
2.63701e-05
1.80981e-05
1.14562e-05
7.64784e-06
6.12031e-06
7.1847e-05
7.18171e-05
7.179e-05
7.17641e-05
7.17378e-05
7.17098e-05
7.16799e-05
7.16475e-05
7.16123e-05
7.15738e-05
7.15315e-05
7.14847e-05
7.1433e-05
7.13766e-05
7.13157e-05
7.12506e-05
7.11816e-05
7.11086e-05
7.10315e-05
7.09499e-05
7.08647e-05
7.0777e-05
7.06877e-05
7.05983e-05
7.051e-05
7.04245e-05
7.03433e-05
7.02681e-05
7.02005e-05
7.01423e-05
7.00944e-05
7.00554e-05
7.00119e-05
6.98965e-05
6.99686e-05
6.99863e-05
6.99232e-05
6.99187e-05
6.99657e-05
7.00482e-05
7.01368e-05
7.02688e-05
7.04352e-05
7.06223e-05
7.08524e-05
7.10801e-05
7.1289e-05
7.13713e-05
7.16694e-05
7.15941e-05
7.12909e-05
7.06477e-05
6.96538e-05
6.85431e-05
6.72435e-05
6.56261e-05
6.33901e-05
6.04061e-05
5.63551e-05
5.11561e-05
4.46247e-05
3.69864e-05
2.87737e-05
2.06946e-05
1.35164e-05
8.79459e-06
6.12452e-06
5.11135e-06
5.31654e-06
9.12462e-05
9.10031e-05
9.07593e-05
9.05085e-05
9.02633e-05
9.00095e-05
8.97562e-05
8.94992e-05
8.9239e-05
8.89751e-05
8.87076e-05
8.84362e-05
8.81597e-05
8.78799e-05
8.75952e-05
8.73058e-05
8.70091e-05
8.67033e-05
8.63796e-05
8.6034e-05
8.5677e-05
8.53105e-05
8.49364e-05
8.45565e-05
8.41727e-05
8.37866e-05
8.34001e-05
8.30148e-05
8.26326e-05
8.22553e-05
8.18847e-05
8.15226e-05
8.11691e-05
8.08175e-05
8.04658e-05
8.02633e-05
8.00505e-05
7.97954e-05
7.96001e-05
7.93699e-05
7.90193e-05
7.88941e-05
7.8738e-05
7.85977e-05
7.82884e-05
7.77572e-05
7.70617e-05
7.62263e-05
7.52403e-05
7.41007e-05
7.28667e-05
7.14375e-05
6.97733e-05
6.76034e-05
6.48201e-05
6.12606e-05
5.67726e-05
5.12006e-05
4.46759e-05
3.72571e-05
2.94186e-05
2.18586e-05
1.47789e-05
9.65948e-06
6.46761e-06
4.7236e-06
4.10323e-06
4.30371e-06
5.19125e-06
0.000110422
0.000109948
0.000109474
0.000108999
0.00010852
0.000108038
0.00010755
0.000107057
0.000106559
0.000106054
0.000105543
0.000105025
0.000104498
0.000103963
0.000103419
0.000102863
0.000102284
0.000101687
0.000101071
0.000100438
9.9789e-05
9.91256e-05
9.84498e-05
9.77631e-05
9.70673e-05
9.63638e-05
9.56541e-05
9.49396e-05
9.42215e-05
9.35041e-05
9.27895e-05
9.20793e-05
9.13745e-05
9.06758e-05
8.99789e-05
8.92966e-05
8.8629e-05
8.79439e-05
8.72383e-05
8.65006e-05
8.56789e-05
8.47874e-05
8.38103e-05
8.27215e-05
8.15083e-05
8.02275e-05
7.88593e-05
7.73321e-05
7.5637e-05
7.36651e-05
7.12727e-05
6.83529e-05
6.48055e-05
6.04609e-05
5.53144e-05
4.93595e-05
4.26874e-05
3.55904e-05
2.83162e-05
2.13507e-05
1.49028e-05
9.93421e-06
6.56877e-06
4.57073e-06
3.5199e-06
3.21489e-06
3.39841e-06
4.20884e-06
9.00871e-06
0.000126899
0.000126234
0.000125565
0.00012489
0.000124207
0.000123516
0.000122815
0.000122105
0.000121384
0.000120653
0.00011991
0.000119144
0.000118353
0.000117541
0.00011671
0.000115859
0.00011499
0.000114102
0.000113196
0.000112272
0.000111331
0.000110373
0.000109399
0.000108411
0.000107407
0.00010639
0.000105359
0.000104315
0.000103261
0.000102195
0.000101114
0.000100012
9.88866e-05
9.77311e-05
9.65377e-05
9.53015e-05
9.4001e-05
9.26664e-05
9.12902e-05
8.98613e-05
8.83628e-05
8.67761e-05
8.50837e-05
8.32542e-05
8.12817e-05
7.90498e-05
7.65555e-05
7.36346e-05
7.02856e-05
6.63868e-05
6.18287e-05
5.66957e-05
5.09197e-05
4.46755e-05
3.82296e-05
3.16447e-05
2.52744e-05
1.91803e-05
1.35875e-05
9.35015e-06
6.30631e-06
4.18584e-06
2.94319e-06
2.50497e-06
2.53925e-06
2.69814e-06
3.3889e-06
5.58083e-06
8.94166e-06
0.000137277
0.000136467
0.000135637
0.000134789
0.000133923
0.000133039
0.000132135
0.000131213
0.000130273
0.000129314
0.000128336
0.000127338
0.00012632
0.00012528
0.000124218
0.000123134
0.000122028
0.000120899
0.000119748
0.000118575
0.000117379
0.000116161
0.00011492
0.000113656
0.000112368
0.000111058
0.000109726
0.000108369
0.000106974
0.000105538
0.00010406
0.000102536
0.000100963
9.93328e-05
9.7637e-05
9.58634e-05
9.40009e-05
9.20224e-05
8.99022e-05
8.76119e-05
8.51323e-05
8.24057e-05
7.94254e-05
7.61271e-05
7.25235e-05
6.85013e-05
6.4134e-05
5.92507e-05
5.40394e-05
4.84791e-05
4.26299e-05
3.68887e-05
3.10526e-05
2.56635e-05
2.0461e-05
1.53912e-05
1.10599e-05
7.8055e-06
5.35976e-06
3.57627e-06
2.2791e-06
1.60548e-06
1.61977e-06
1.92776e-06
2.40805e-06
2.8474e-06
3.74543e-06
5.47047e-06
6.77893e-06
0.000133274
0.000132401
0.000131505
0.000130587
0.000129648
0.000128687
0.000127704
0.000126698
0.00012567
0.000124619
0.000123544
0.000122447
0.000121325
0.000120179
0.000119008
0.000117811
0.000116588
0.000115337
0.000114058
0.000112751
0.000111414
0.000110048
0.000108649
0.000107224
0.000105763
0.000104284
0.000102746
0.000101127
9.94206e-05
9.76211e-05
9.57149e-05
9.36861e-05
9.15162e-05
8.91854e-05
8.66686e-05
8.39503e-05
8.09965e-05
7.78096e-05
7.43559e-05
7.06431e-05
6.67105e-05
6.24467e-05
5.82089e-05
5.39124e-05
4.98062e-05
4.5521e-05
4.1023e-05
3.6526e-05
3.18788e-05
2.74624e-05
2.29508e-05
1.89735e-05
1.50071e-05
1.10442e-05
7.84869e-06
5.51129e-06
3.80977e-06
2.47084e-06
1.52353e-06
9.01996e-07
6.27204e-07
8.11317e-07
1.33178e-06
1.82058e-06
2.322e-06
2.84925e-06
3.74842e-06
4.58941e-06
4.6475e-06
0.000104125
0.000103224
0.000102297
0.000101347
0.000100375
9.93782e-05
9.83575e-05
9.73129e-05
9.62445e-05
9.51517e-05
9.40357e-05
9.28944e-05
9.17309e-05
9.05405e-05
8.93285e-05
8.80882e-05
8.68277e-05
8.5535e-05
8.4226e-05
8.28801e-05
8.15193e-05
8.01194e-05
7.87036e-05
7.72539e-05
7.57714e-05
7.42176e-05
7.26229e-05
7.10003e-05
6.9353e-05
6.76707e-05
6.59528e-05
6.41951e-05
6.24006e-05
6.05654e-05
5.86964e-05
5.67855e-05
5.48445e-05
5.28602e-05
5.08275e-05
4.87675e-05
4.65739e-05
4.44069e-05
4.18518e-05
3.89907e-05
3.53979e-05
3.16085e-05
2.75471e-05
2.33388e-05
1.89485e-05
1.4626e-05
1.09272e-05
7.27319e-06
4.62791e-06
2.9325e-06
1.8826e-06
1.15458e-06
6.09363e-07
3.1458e-07
2.22714e-07
2.05077e-07
2.87484e-07
4.91913e-07
8.8068e-07
1.38448e-06
1.90495e-06
2.52619e-06
3.06174e-06
3.19713e-06
2.66934e-06
5.97301e-05
6.03764e-05
6.10271e-05
6.16773e-05
6.23178e-05
6.2952e-05
6.35645e-05
6.41603e-05
6.47375e-05
6.5283e-05
6.58328e-05
6.63355e-05
6.68466e-05
6.73184e-05
6.77685e-05
6.82304e-05
6.86337e-05
6.90408e-05
6.94791e-05
6.97965e-05
7.02369e-05
7.06623e-05
7.10323e-05
7.17163e-05
7.16672e-05
7.15365e-05
7.13129e-05
7.099e-05
7.05573e-05
7.00016e-05
6.93062e-05
6.84516e-05
6.74147e-05
6.61699e-05
6.46869e-05
6.29331e-05
6.08706e-05
5.84592e-05
5.56553e-05
5.24088e-05
4.869e-05
4.44012e-05
3.96003e-05
3.42337e-05
2.8316e-05
2.19998e-05
1.54806e-05
9.20813e-06
4.18799e-06
1.37992e-06
6.53382e-07
6.23194e-07
6.17636e-07
5.5437e-07
4.6499e-07
3.39193e-07
2.11887e-07
1.52547e-07
1.44443e-07
1.84684e-07
2.58012e-07
3.48871e-07
4.23381e-07
4.64845e-07
5.14914e-07
5.53242e-07
5.09763e-07
4.17333e-07
3.44107e-07
4.99213e-06
4.99427e-06
4.99219e-06
4.98986e-06
4.98794e-06
4.98363e-06
4.97945e-06
4.97435e-06
4.9716e-06
4.96864e-06
4.96327e-06
4.96292e-06
4.96751e-06
4.97012e-06
4.9698e-06
4.96297e-06
4.96706e-06
4.96814e-06
4.96821e-06
4.96395e-06
4.97212e-06
4.9811e-06
4.97713e-06
4.9776e-06
4.97578e-06
4.97061e-06
4.97794e-06
4.98381e-06
4.99275e-06
4.99197e-06
4.99322e-06
5.00094e-06
5.00898e-06
5.00723e-06
5.00917e-06
5.00765e-06
5.01311e-06
5.01479e-06
5.01429e-06
5.02243e-06
5.01668e-06
5.02012e-06
5.01916e-06
5.01901e-06
5.02648e-06
5.02292e-06
5.01954e-06
5.01956e-06
5.01865e-06
5.01514e-06
5.01118e-06
5.01023e-06
5.0111e-06
5.01332e-06
5.01926e-06
5.02409e-06
5.02774e-06
5.02932e-06
5.03111e-06
5.09648e-06
5.09403e-06
5.08922e-06
5.08497e-06
5.07999e-06
5.07446e-06
5.06963e-06
5.06515e-06
5.06211e-06
5.05844e-06
5.05475e-06
5.05456e-06
5.05579e-06
5.05666e-06
5.05021e-06
5.04872e-06
5.05221e-06
5.05259e-06
5.0507e-06
5.05065e-06
5.05929e-06
5.06377e-06
5.05922e-06
5.06085e-06
5.05667e-06
5.05362e-06
5.06153e-06
5.06914e-06
5.07486e-06
5.07448e-06
5.07875e-06
5.08582e-06
5.09343e-06
5.0927e-06
5.09681e-06
5.09608e-06
5.09971e-06
5.10419e-06
5.10395e-06
5.11224e-06
5.11204e-06
5.11087e-06
5.11423e-06
5.11276e-06
5.11582e-06
5.12141e-06
5.12327e-06
5.12314e-06
5.12506e-06
5.12467e-06
5.12242e-06
5.11728e-06
5.11328e-06
5.11439e-06
5.11358e-06
5.11494e-06
5.11799e-06
5.12081e-06
5.12465e-06
5.21133e-06
5.2069e-06
5.20069e-06
5.19543e-06
5.18972e-06
5.18457e-06
5.18007e-06
5.17603e-06
5.17247e-06
5.1686e-06
5.16549e-06
5.16353e-06
5.16053e-06
5.15629e-06
5.15115e-06
5.15159e-06
5.15284e-06
5.15208e-06
5.15057e-06
5.15572e-06
5.1617e-06
5.1625e-06
5.15868e-06
5.15984e-06
5.15467e-06
5.15378e-06
5.16199e-06
5.17069e-06
5.1742e-06
5.17455e-06
5.1811e-06
5.18765e-06
5.19499e-06
5.19573e-06
5.20104e-06
5.20174e-06
5.20444e-06
5.20966e-06
5.21023e-06
5.21803e-06
5.22081e-06
5.22414e-06
5.22413e-06
5.22939e-06
5.2288e-06
5.23338e-06
5.23736e-06
5.23858e-06
5.24223e-06
5.2438e-06
5.24559e-06
5.24667e-06
5.24873e-06
5.24718e-06
5.24925e-06
5.24692e-06
5.25037e-06
5.24999e-06
5.25384e-06
5.34478e-06
5.33979e-06
5.33318e-06
5.32769e-06
5.32198e-06
5.31685e-06
5.31188e-06
5.30699e-06
5.30204e-06
5.29688e-06
5.29196e-06
5.2869e-06
5.28132e-06
5.27656e-06
5.27347e-06
5.27306e-06
5.27374e-06
5.27212e-06
5.27332e-06
5.27826e-06
5.28249e-06
5.28118e-06
5.27742e-06
5.27771e-06
5.2721e-06
5.27362e-06
5.28194e-06
5.29104e-06
5.29333e-06
5.29449e-06
5.30259e-06
5.30896e-06
5.3164e-06
5.31872e-06
5.32507e-06
5.32752e-06
5.32997e-06
5.33658e-06
5.33743e-06
5.34476e-06
5.34954e-06
5.35433e-06
5.35546e-06
5.361e-06
5.36351e-06
5.36783e-06
5.373e-06
5.3761e-06
5.38081e-06
5.38443e-06
5.38817e-06
5.39134e-06
5.39419e-06
5.39517e-06
5.39627e-06
5.39658e-06
5.39785e-06
5.39894e-06
5.40225e-06
5.50353e-06
5.49818e-06
5.49101e-06
5.4849e-06
5.47839e-06
5.47207e-06
5.46552e-06
5.45882e-06
5.4519e-06
5.44492e-06
5.43814e-06
5.4317e-06
5.42624e-06
5.42272e-06
5.42088e-06
5.42001e-06
5.41821e-06
5.41732e-06
5.41901e-06
5.42324e-06
5.42515e-06
5.4225e-06
5.41877e-06
5.41817e-06
5.41282e-06
5.41622e-06
5.42472e-06
5.43396e-06
5.43576e-06
5.43778e-06
5.44702e-06
5.45362e-06
5.46142e-06
5.46529e-06
5.4727e-06
5.47721e-06
5.48024e-06
5.4875e-06
5.48973e-06
5.49669e-06
5.50336e-06
5.50955e-06
5.51292e-06
5.51816e-06
5.52287e-06
5.52823e-06
5.5345e-06
5.53973e-06
5.54569e-06
5.55109e-06
5.55643e-06
5.56126e-06
5.56561e-06
5.56888e-06
5.57147e-06
5.57361e-06
5.57587e-06
5.57727e-06
5.58093e-06
5.69173e-06
5.68548e-06
5.67705e-06
5.66954e-06
5.6614e-06
5.65326e-06
5.64484e-06
5.63635e-06
5.62792e-06
5.61984e-06
5.61248e-06
5.60624e-06
5.60158e-06
5.59846e-06
5.59598e-06
5.59346e-06
5.59083e-06
5.59069e-06
5.59145e-06
5.59411e-06
5.59455e-06
5.59147e-06
5.58757e-06
5.58612e-06
5.58192e-06
5.5867e-06
5.59531e-06
5.60466e-06
5.60652e-06
5.60953e-06
5.61973e-06
5.62694e-06
5.63526e-06
5.64071e-06
5.64922e-06
5.65603e-06
5.66042e-06
5.66841e-06
5.67252e-06
5.67958e-06
5.68774e-06
5.69562e-06
5.70151e-06
5.70769e-06
5.71396e-06
5.72051e-06
5.72785e-06
5.73481e-06
5.74229e-06
5.74948e-06
5.75646e-06
5.76294e-06
5.76893e-06
5.77422e-06
5.77888e-06
5.78291e-06
5.78695e-06
5.78943e-06
5.7942e-06
5.91407e-06
5.90647e-06
5.89637e-06
5.88719e-06
5.87735e-06
5.8676e-06
5.85777e-06
5.84819e-06
5.83906e-06
5.83071e-06
5.82343e-06
5.81743e-06
5.81267e-06
5.80868e-06
5.80484e-06
5.80132e-06
5.79901e-06
5.79917e-06
5.79943e-06
5.80015e-06
5.79925e-06
5.79411e-06
5.79015e-06
5.78814e-06
5.7856e-06
5.79149e-06
5.80036e-06
5.80971e-06
5.81207e-06
5.8162e-06
5.82733e-06
5.8355e-06
5.84453e-06
5.85166e-06
5.86142e-06
5.87062e-06
5.8771e-06
5.88624e-06
5.89255e-06
5.90034e-06
5.90979e-06
5.9196e-06
5.92794e-06
5.93606e-06
5.9444e-06
5.95266e-06
5.96135e-06
5.96996e-06
5.9789e-06
5.9878e-06
5.99652e-06
6.00479e-06
6.01253e-06
6.01963e-06
6.02624e-06
6.03205e-06
6.03798e-06
6.04198e-06
6.0485e-06
6.17902e-06
6.17008e-06
6.15839e-06
6.14775e-06
6.13658e-06
6.12568e-06
6.11495e-06
6.10475e-06
6.09523e-06
6.08663e-06
6.07907e-06
6.07253e-06
6.0668e-06
6.06159e-06
6.05691e-06
6.05338e-06
6.05167e-06
6.05161e-06
6.05079e-06
6.04927e-06
6.04487e-06
6.03855e-06
6.03459e-06
6.03244e-06
6.03198e-06
6.03867e-06
6.04794e-06
6.05731e-06
6.06052e-06
6.06594e-06
6.07806e-06
6.08756e-06
6.09759e-06
6.10652e-06
6.11778e-06