/*--------------------------------*- C++ -*----------------------------------*\
| =========                 |                                                 |
| \\      /  F ield         | OpenFOAM: The Open Source CFD Toolbox           |
|  \\    /   O peration     | Version:  2312                                  |
|   \\  /    A nd           | Website:  www.openfoam.com                      |
|    \\/     M anipulation  |                                                 |
\*---------------------------------------------------------------------------*/
FoamFile
{
    version     2.0;
    format      ascii;
    arch        "LSB;label=32;scalar=64";
    class       volScalarField;
    location    "1800";
    object      nut;
}
// * * * * * * * * * * * * * * * * * * * * * * * * * * * * * * * * * * * * * //

dimensions      [0 2 -1 0 0 0 0];

internalField   nonuniform List<scalar> 
76025
(
0.000171092
0.000171123
0.000171157
0.000171272
0.000171293
0.000171403
0.000171457
0.000171534
0.000171603
0.000171738
0.000171814
0.00017188
0.000172021
0.0001721
0.00017221
0.000172296
0.000172372
0.000172651
0.000172761
0.000172747
0.000172784
0.000172886
0.00017295
0.000173101
0.000173144
0.000173259
0.000173728
0.000174062
0.00017441
0.000174705
0.000175015
0.0001753
0.000175722
0.000176126
0.000176618
0.000177113
0.00017769
0.000178387
0.000179094
0.000179864
0.000180664
0.000181587
0.000182595
0.000183637
0.000184714
0.00018588
0.000187082
0.000188371
0.00018972
0.000191158
0.000192724
0.000194398
0.000196208
0.000198106
0.000200601
0.000203036
0.000206011
0.000209454
0.000213687
0.000218697
0.000224579
0.000231826
0.000241341
0.000252678
0.000268217
0.000286611
0.000309721
0.000335859
0.000366011
0.000172715
0.000172799
0.00017288
0.00017302
0.000173136
0.000173197
0.000173358
0.000173429
0.000173629
0.000173715
0.00017389
0.000174034
0.000174192
0.000174298
0.000174525
0.000174695
0.000174902
0.000175367
0.000175272
0.000175168
0.000175199
0.000175333
0.000175475
0.000175643
0.0001757
0.000175885
0.000176231
0.000176629
0.000177044
0.000177471
0.000177708
0.00017793
0.000178344
0.000178852
0.000179409
0.000179983
0.000180614
0.000181338
0.000182098
0.000182896
0.00018374
0.000184625
0.000185557
0.000186543
0.000187602
0.000188742
0.000189961
0.000191278
0.000192716
0.000194301
0.000196025
0.000197962
0.00020008
0.000202508
0.000205221
0.00020836
0.000211987
0.000216147
0.000221141
0.000226865
0.000234049
0.00024261
0.000253617
0.000267062
0.000284388
0.000304749
0.000329654
0.000355512
0.000386059
0.000175003
0.000175316
0.00017538
0.000175266
0.000175251
0.000175286
0.000175335
0.000175379
0.000175519
0.000175581
0.000175753
0.000175754
0.000175905
0.000176037
0.000176433
0.000176788
0.000177087
0.000177364
0.000177541
0.000177576
0.00017771
0.000177592
0.000177844
0.000178108
0.000178423
0.000178741
0.000179143
0.000179521
0.00017995
0.00018035
0.000180702
0.000181044
0.000181407
0.000181741
0.000181948
0.000181869
0.000182485
0.00018376
0.000184846
0.000185843
0.000186809
0.000187789
0.000188805
0.000189892
0.000191057
0.000192319
0.000193688
0.000195185
0.000196823
0.000198634
0.000200622
0.000202844
0.000205306
0.000208092
0.000211218
0.000214819
0.000218938
0.000223743
0.000229457
0.000236215
0.000244629
0.000254712
0.000267617
0.000283055
0.00030224
0.000324056
0.000349182
0.000374851
0.000403204
0.000177424
0.000177579
0.000177764
0.000177888
0.000177985
0.000178072
0.000178321
0.000178494
0.000178668
0.000178672
0.000178749
0.000178928
0.000179313
0.000179961
0.000180206
0.00018009
0.000180153
0.000180307
0.000180475
0.000180638
0.000180737
0.00018081
0.000180901
0.000180983
0.00018124
0.000181306
0.000181698
0.000181673
0.000182099
0.000182986
0.000183727
0.000184306
0.000184833
0.000185365
0.000185908
0.000186486
0.000187158
0.000187927
0.000188755
0.000189639
0.000190585
0.000191606
0.000192711
0.000193917
0.000195228
0.000196657
0.000198213
0.000199918
0.000201782
0.000203843
0.000206108
0.000208641
0.000211448
0.000214637
0.000218219
0.000222372
0.000227146
0.000232788
0.000239501
0.000247555
0.000257485
0.000269402
0.000284257
0.000301517
0.000322149
0.000344564
0.000369223
0.000393507
0.000418655
0.000180182
0.000180327
0.00018061
0.000180791
0.000181016
0.000181092
0.000181096
0.000181257
0.000181568
0.000181785
0.000181995
0.000182208
0.000182458
0.000182678
0.000182815
0.000182886
0.000182947
0.000182996
0.000182991
0.000182911
0.000183303
0.000183756
0.000184088
0.000184366
0.000184672
0.000184951
0.000185332
0.000185725
0.00018615
0.000186556
0.000186799
0.000186684
0.000187236
0.00018843
0.00018945
0.00019037
0.00019125
0.000192134
0.00019305
0.000194021
0.000195066
0.0001962
0.000197435
0.000198786
0.000200261
0.00020187
0.000203625
0.000205549
0.000207657
0.000209989
0.00021256
0.000215443
0.000218653
0.000222322
0.000226468
0.00023132
0.000236922
0.000243626
0.000251575
0.000261187
0.00027282
0.000286639
0.000303249
0.000321875
0.000343251
0.0003653
0.000388551
0.000410363
0.000431237
0.0001835
0.000183634
0.000183719
0.000183927
0.000183976
0.000184145
0.000184465
0.000184725
0.000184979
0.000185174
0.000185312
0.000185313
0.000185586
0.00018605
0.000186382
0.00018664
0.000186957
0.000187439
0.000188248
0.000188163
0.00018731
0.000187249
0.000187815
0.000188463
0.000189154
0.000190361
0.000191055
0.000190853
0.000190714
0.000190832
0.000191413
0.000191986
0.000192668
0.000193457
0.000194298
0.000195174
0.000196083
0.000197037
0.00019805
0.000199136
0.000200311
0.000201586
0.000202976
0.000204493
0.000206153
0.000207964
0.000209942
0.000212114
0.000214502
0.000217151
0.00022009
0.0002234
0.000227119
0.000231396
0.000236275
0.000242027
0.000248699
0.000256725
0.000266162
0.000277535
0.000290899
0.000306476
0.000324345
0.000343653
0.000364845
0.000385403
0.000406332
0.000424429
0.000440022
0.000187538
0.00018766
0.000187802
0.000187969
0.000188132
0.000188311
0.000188528
0.000188726
0.000188894
0.000189051
0.000189157
0.00018935
0.000189393
0.000190012
0.00019049
0.00019121
0.000191798
0.000192359
0.000193268
0.000194511
0.000194263
0.00019401
0.000193938
0.00019407
0.000194373
0.000194854
0.000195323
0.000195648
0.000195957
0.000196346
0.000196854
0.000197458
0.00019815
0.000198922
0.000199766
0.000200677
0.000201655
0.000202705
0.000203837
0.000205059
0.000206385
0.000207824
0.000209393
0.000211102
0.000212977
0.000215026
0.000217271
0.000219744
0.000222478
0.000225528
0.00022894
0.000232808
0.000237196
0.000242273
0.000248112
0.000255011
0.000263018
0.000272598
0.00028368
0.000296826
0.000311684
0.000328572
0.000346885
0.000366001
0.000385837
0.000403759
0.000421439
0.000434339
0.000444048
0.000192285
0.000192438
0.000192595
0.000192765
0.000192943
0.000193127
0.000193325
0.00019353
0.000193714
0.000193937
0.000194145
0.000194404
0.000194713
0.000195134
0.000195606
0.000196136
0.00019667
0.000197142
0.000197632
0.000198154
0.00019853
0.000198837
0.000199147
0.000199496
0.000199888
0.000200326
0.000200789
0.000201257
0.000201747
0.000202284
0.000202887
0.000203565
0.000204322
0.000205159
0.000206076
0.000207073
0.000208154
0.000209324
0.00021059
0.000211962
0.000213453
0.000215075
0.000216845
0.000218782
0.000220911
0.000223254
0.000225837
0.0002287
0.00023189
0.000235474
0.000239518
0.000244132
0.000249407
0.000255524
0.000262583
0.000270873
0.000280422
0.000291656
0.00030433
0.000318969
0.000334766
0.000352205
0.000369876
0.000387795
0.000404885
0.000419164
0.000432504
0.000438646
0.000442687
0.000197809
0.000198003
0.000198201
0.000198409
0.000198623
0.000198843
0.000199067
0.000199299
0.000199529
0.000199776
0.000200037
0.000200326
0.00020066
0.000201044
0.000201457
0.000201908
0.000202326
0.000202744
0.000203118
0.000203439
0.000203739
0.00020417
0.000204317
0.000204715
0.000205353
0.000206128
0.000206946
0.000207753
0.000208536
0.000209308
0.000210094
0.000210914
0.000211783
0.000212715
0.000213717
0.000214799
0.000215969
0.00021724
0.000218624
0.000220136
0.000221792
0.000223612
0.000225615
0.000227829
0.000230278
0.000233005
0.000236036
0.000239425
0.000243231
0.000247536
0.000252426
0.00025802
0.000264433
0.000271836
0.000280333
0.000290162
0.000301288
0.000314024
0.000327922
0.000343424
0.000359277
0.000376226
0.000391974
0.000407613
0.000420413
0.000430332
0.000437801
0.000436165
0.000435261
0.000204313
0.000204537
0.000204765
0.000205004
0.000205252
0.000205511
0.00020578
0.000206059
0.000206344
0.000206642
0.000206953
0.000207285
0.00020764
0.00020803
0.000208437
0.000208875
0.000209303
0.000209725
0.000210126
0.000210495
0.000210862
0.000211332
0.0002118
0.000212375
0.00021309
0.000213933
0.00021487
0.000215865
0.000216888
0.000217917
0.00021894
0.000219953
0.000220964
0.000221991
0.000223057
0.000224187
0.00022541
0.000226752
0.000228239
0.000229895
0.000231742
0.000233806
0.000236113
0.000238694
0.000241584
0.000244828
0.000248474
0.000252577
0.000257212
0.000262468
0.000268444
0.000275259
0.000283023
0.000291874
0.000301876
0.000313166
0.000325603
0.000339336
0.000353716
0.000369104
0.000383847
0.000399071
0.000411514
0.000423756
0.000430708
0.000435862
0.000435356
0.000426521
0.000419531
0.000212092
0.000212347
0.000212605
0.000212872
0.000213149
0.000213439
0.000213743
0.000214063
0.000214399
0.000214751
0.000215118
0.000215505
0.000215909
0.000216337
0.000216784
0.00021725
0.000217731
0.000218215
0.000218699
0.000219174
0.000219656
0.000220172
0.000220733
0.000221368
0.000222099
0.000222939
0.000223887
0.000224932
0.000226055
0.000227233
0.000228441
0.000229661
0.00023089
0.000232134
0.000233415
0.000234761
0.000236207
0.000237787
0.000239538
0.000241494
0.000243687
0.000246151
0.000248924
0.000252045
0.000255561
0.000259522
0.000263996
0.000269041
0.000274735
0.000281167
0.000288429
0.000296615
0.000305797
0.000316039
0.000327322
0.00033964
0.000352728
0.00036656
0.000380324
0.000394345
0.000406623
0.000418806
0.000426554
0.000434322
0.000434046
0.00043413
0.000423491
0.000409717
0.000392073
0.000221481
0.00022178
0.000222082
0.000222392
0.000222709
0.000223038
0.00022338
0.000223741
0.000224121
0.000224522
0.000224943
0.000225385
0.000225848
0.000226333
0.000226839
0.000227363
0.000227908
0.000228469
0.000229049
0.000229635
0.000230235
0.000230857
0.000231516
0.000232229
0.000233015
0.000233893
0.000234872
0.000235959
0.000237148
0.000238426
0.000239777
0.000241185
0.000242644
0.000244158
0.00024574
0.000247418
0.000249224
0.000251196
0.000253376
0.000255804
0.000258524
0.000261579
0.000265016
0.000268885
0.00027324
0.000278141
0.00028365
0.000289838
0.000296764
0.000304491
0.000313075
0.000322551
0.000332916
0.000344128
0.000356054
0.000368543
0.000381214
0.0003939
0.000405699
0.000416947
0.000425354
0.000433237
0.000434967
0.000437343
0.000428774
0.000423323
0.000401593
0.000384547
0.000351084
0.000232872
0.000233234
0.000233598
0.000233972
0.000234353
0.000234742
0.000235145
0.000235563
0.000236001
0.00023646
0.000236942
0.000237448
0.000237979
0.000238534
0.000239115
0.000239718
0.000240348
0.000240998
0.000241668
0.000242359
0.000243076
0.000243826
0.000244617
0.000245463
0.000246379
0.00024738
0.000248482
0.000249693
0.000251017
0.000252453
0.000253994
0.000255637
0.000257379
0.000259228
0.000261198
0.000263315
0.000265613
0.000268129
0.000270909
0.000273997
0.000277443
0.000281296
0.000285608
0.000290431
0.000295819
0.000301824
0.000308495
0.000315878
0.000324001
0.00033288
0.000342491
0.000352786
0.000363662
0.000374967
0.000386458
0.000397868
0.000408751
0.000418847
0.000427249
0.000434322
0.00043756
0.000440049
0.00043459
0.000430995
0.000413332
0.000402014
0.000370007
0.000347969
0.000299683
0.000246811
0.000247257
0.000247707
0.000248169
0.00024864
0.000249121
0.000249613
0.000250122
0.000250649
0.000251198
0.00025177
0.000252369
0.000252996
0.000253653
0.00025434
0.000255053
0.000255793
0.000256562
0.00025736
0.00025819
0.000259059
0.000259973
0.000260943
0.00026198
0.000263098
0.00026431
0.000265631
0.000267072
0.000268643
0.000270349
0.000272195
0.000274186
0.00027633
0.000278639
0.000281133
0.00028384
0.000286792
0.000290029
0.000293593
0.000297529
0.000301884
0.000306704
0.000312033
0.000317911
0.000324373
0.000331446
0.000339142
0.000347457
0.000356362
0.000365798
0.000375666
0.000385825
0.00039608
0.000406189
0.000415839
0.000424702
0.000432322
0.000438388
0.000442079
0.000443721
0.000440775
0.00043696
0.000423501
0.000413743
0.000386527
0.000370084
0.00032722
0.00029619
0.000238179
0.00026413
0.000264692
0.000265261
0.000265847
0.000266444
0.000267055
0.000267681
0.000268326
0.000268993
0.000269684
0.000270404
0.000271149
0.000271924
0.000272731
0.000273572
0.00027445
0.000275367
0.000276324
0.000277325
0.000278374
0.000279478
0.000280645
0.000281886
0.000283213
0.000284639
0.000286179
0.000287848
0.000289658
0.000291622
0.000293754
0.000296064
0.000298565
0.000301272
0.000304201
0.000307377
0.000310824
0.000314573
0.000318658
0.000323111
0.000327968
0.00033326
0.000339015
0.000345252
0.000351982
0.000359204
0.000366898
0.000375025
0.000383519
0.000392286
0.000401197
0.000410084
0.000418744
0.000426921
0.000434342
0.00044066
0.00044554
0.000448556
0.00044936
0.000447304
0.000442506
0.000432808
0.000421912
0.000400442
0.000384395
0.000348631
0.000324446
0.000270279
0.000235636
0.00018133
0.00028616
0.000286896
0.000287645
0.000288415
0.000289204
0.000290012
0.00029084
0.00029169
0.000292565
0.000293468
0.000294403
0.000295374
0.000296384
0.000297436
0.000298535
0.000299685
0.000300889
0.000302152
0.000303478
0.000304875
0.000306348
0.000307907
0.000309564
0.000311329
0.000313216
0.000315239
0.000317413
0.000319752
0.00032227
0.000324982
0.0003279
0.00033104
0.000334416
0.000338044
0.000341943
0.000346131
0.000350627
0.00035545
0.000360614
0.000366133
0.00037201
0.000378243
0.000384815
0.000391699
0.000398846
0.00040619
0.000413641
0.000421084
0.000428374
0.000435338
0.000441771
0.000447444
0.000452077
0.000455408
0.000457076
0.000456783
0.000454174
0.000448826
0.00044037
0.00042845
0.000412017
0.000393437
0.000365283
0.000342585
0.000295643
0.000263002
0.000208584
0.000175174
0.000122629
0.000315186
0.000316202
0.000317233
0.000318291
0.000319371
0.000320477
0.000321613
0.000322782
0.000323987
0.000325232
0.000326522
0.000327859
0.000329249
0.000330695
0.000332203
0.000333776
0.000335421
0.00033714
0.000338942
0.00034083
0.000342812
0.000344896
0.00034709
0.000349405
0.000351849
0.000354435
0.000357173
0.000360073
0.000363146
0.000366403
0.000369852
0.000373502
0.000377362
0.000381438
0.000385738
0.000390265
0.000395021
0.000400004
0.000405207
0.000410612
0.000416197
0.000421926
0.000427749
0.000433602
0.000439403
0.000445051
0.000450425
0.000455381
0.000459755
0.000463351
0.000465963
0.000467355
0.000467243
0.000465426
0.000461486
0.000455262
0.00044642
0.000434422
0.000419348
0.00040012
0.000377668
0.000351524
0.000315788
0.000281924
0.000231349
0.000199466
0.000146499
0.000118831
7.37895e-05
0.000355569
0.000357037
0.000358525
0.000360042
0.000361587
0.00036316
0.000364766
0.000366407
0.000368088
0.000369811
0.000371579
0.000373395
0.000375263
0.000377186
0.000379167
0.000381209
0.000383315
0.000385488
0.000387732
0.00039005
0.000392446
0.000394923
0.000397486
0.00040014
0.00040289
0.000405739
0.000408693
0.000411757
0.000414933
0.000418225
0.000421633
0.000425159
0.0004288
0.000432553
0.00043641
0.000440361
0.00044439
0.000448476
0.00045259
0.000456694
0.000460741
0.000464672
0.000468417
0.000471889
0.00047499
0.000477601
0.000479591
0.000480806
0.000481077
0.000480198
0.000477994
0.00047421
0.000468585
0.000461024
0.000450938
0.00043857
0.000423336
0.000404623
0.000383344
0.00035751
0.000327485
0.000290466
0.000250236
0.000212854
0.000167169
0.000137247
9.20528e-05
7.0859e-05
3.76474e-05
0.000414747
0.000416677
0.000418605
0.000420538
0.000422472
0.000424409
0.000426351
0.0004283
0.000430259
0.000432229
0.000434212
0.00043621
0.000438224
0.000440254
0.000442302
0.000444369
0.000446454
0.000448559
0.000450685
0.000452832
0.000455001
0.000457192
0.000459405
0.000461642
0.000463902
0.000466185
0.00046849
0.000470817
0.000473161
0.00047552
0.000477888
0.000480257
0.000482617
0.000484951
0.000487243
0.00048947
0.000491602
0.000493601
0.000495424
0.000497022
0.000498333
0.000499287
0.000499804
0.000499789
0.000499139
0.00049773
0.000495432
0.000492083
0.000487511
0.000481516
0.000473995
0.000464586
0.00045319
0.000439804
0.000423465
0.000405522
0.000384018
0.000359294
0.000329746
0.000294719
0.000258025
0.000219246
0.000181896
0.000145033
0.000109188
8.0762e-05
5.12444e-05
3.46016e-05
1.55596e-05
0.000494255
0.000496025
0.000497744
0.00049941
0.000501025
0.000502592
0.000504119
0.000505609
0.000507064
0.000508486
0.000509874
0.000511227
0.000512543
0.00051382
0.000515058
0.000516257
0.000517416
0.000518536
0.000519615
0.000520654
0.000521651
0.000522605
0.000523514
0.000524376
0.000525186
0.000525941
0.000526637
0.000527267
0.000527823
0.000528296
0.000528676
0.000528946
0.000529088
0.000529055
0.000528849
0.000528432
0.00052775
0.000526758
0.000525412
0.00052366
0.000521434
0.00051866
0.00051526
0.000511135
0.000506186
0.000500282
0.00049331
0.000485053
0.00047537
0.000464122
0.000451309
0.000436219
0.000419493
0.000400691
0.000378642
0.000354746
0.000324293
0.000291456
0.000256264
0.000220183
0.00018516
0.000149608
0.000117425
8.68013e-05
6.1334e-05
4.00038e-05
2.39091e-05
1.33358e-05
7.0235e-06
0.000578549
0.000579049
0.000579518
0.000579954
0.000580349
0.0005807
0.000581003
0.000581257
0.00058146
0.000581608
0.000581674
0.000581643
0.000581519
0.000581306
0.000581004
0.000580618
0.000580151
0.000579604
0.000578974
0.00057826
0.000577458
0.000576563
0.000575569
0.000574471
0.000573261
0.000571933
0.000570475
0.000568879
0.000567131
0.000565216
0.000563116
0.000560808
0.000558251
0.000555287
0.000552155
0.00054867
0.000544689
0.000540246
0.000535331
0.000529898
0.000523845
0.000517119
0.000509649
0.000501314
0.000492054
0.000481689
0.000470136
0.000456981
0.00044239
0.000426412
0.000408825
0.000388412
0.000366608
0.0003402
0.000310712
0.000279126
0.000245693
0.000212905
0.00018003
0.000147328
0.000117178
8.89101e-05
6.43532e-05
4.39244e-05
2.78129e-05
1.63101e-05
8.91501e-06
5.37411e-06
3.92255e-06
0.000643417
0.000642208
0.000640986
0.000639737
0.00063845
0.000637116
0.00063573
0.000634286
0.000632777
0.000631199
0.000629543
0.000627803
0.000625973
0.000624049
0.000622025
0.000619931
0.000617766
0.000615517
0.000613167
0.000610699
0.000608103
0.000605368
0.000602486
0.000599445
0.000596234
0.000592841
0.000589251
0.000585451
0.000581422
0.000577144
0.00057259
0.000567707
0.000562351
0.000555939
0.000550487
0.000544009
0.000536262
0.000528286
0.000519947
0.000511064
0.000501357
0.000490997
0.000479836
0.000467685
0.000454646
0.000440271
0.000424526
0.000406545
0.000388403
0.000366741
0.000342696
0.000315887
0.000287007
0.000257351
0.000226818
0.000197042
0.000166353
0.000137383
0.00010989
8.43778e-05
6.24552e-05
4.35747e-05
2.86385e-05
1.76009e-05
9.85675e-06
5.7132e-06
3.75783e-06
3.03955e-06
3.07987e-06
0.000670666
0.000668169
0.000665613
0.00066295
0.000660278
0.000657492
0.000654658
0.000651742
0.000648745
0.000645662
0.000642486
0.000639215
0.000635834
0.000632352
0.00062875
0.000625029
0.00062117
0.0006172
0.000613041
0.000608645
0.000604069
0.000599306
0.000594348
0.000589187
0.000583812
0.000578211
0.00057237
0.000566274
0.000559905
0.000553242
0.000546263
0.000538941
0.000531235
0.00052305
0.000514343
0.000505988
0.000496909
0.000486862
0.000476413
0.00046493
0.000451867
0.000439125
0.00042516
0.000410127
0.00039314
0.000373736
0.000352743
0.000329743
0.000305577
0.000279928
0.00025363
0.000226555
0.000199468
0.000171992
0.000144954
0.000119799
9.5579e-05
7.4188e-05
5.53603e-05
3.91886e-05
2.65496e-05
1.6747e-05
9.74693e-06
5.74459e-06
3.67451e-06
2.67329e-06
2.32846e-06
2.44474e-06
2.93288e-06
0.000645103
0.000641693
0.000638219
0.000634673
0.000631052
0.000627345
0.000623552
0.000619667
0.000615686
0.000611603
0.000607414
0.000603113
0.000598691
0.000594144
0.000589464
0.000584636
0.000579626
0.000574435
0.000569057
0.00056348
0.000557698
0.000551706
0.000545496
0.00053906
0.000532387
0.000525464
0.000518278
0.000510812
0.000503044
0.000494964
0.000486549
0.000477769
0.000468585
0.000458956
0.000448808
0.00043816
0.000426955
0.000414968
0.000402131
0.000388331
0.000373284
0.000357047
0.00033956
0.00032065
0.00030061
0.000279119
0.000257413
0.000233874
0.00021071
0.000186544
0.000162447
0.000138922
0.000116327
9.49922e-05
7.58367e-05
5.89889e-05
4.40035e-05
3.18239e-05
2.17327e-05
1.41573e-05
8.51678e-06
5.27359e-06
3.40822e-06
2.39439e-06
1.88368e-06
1.78725e-06
1.98621e-06
2.60642e-06
6.7713e-06
0.000559609
0.000555971
0.000552258
0.000548469
0.000544596
0.000540635
0.000536584
0.000532438
0.000528194
0.000523848
0.000519396
0.000514804
0.000510069
0.00050519
0.000500167
0.000494994
0.000489665
0.000484172
0.000478508
0.000472665
0.000466634
0.000460407
0.000453974
0.000447326
0.00044045
0.000433332
0.000425957
0.000418298
0.000410333
0.000402019
0.0003933
0.000384121
0.000374418
0.000364129
0.000353173
0.000341493
0.00032897
0.000315674
0.000301545
0.000286527
0.000270572
0.000253655
0.000235857
0.000217087
0.000197982
0.000177653
0.000158158
0.000137329
0.000118388
9.94459e-05
8.20238e-05
6.66534e-05
5.24813e-05
4.07202e-05
3.07705e-05
2.24345e-05
1.56162e-05
1.0329e-05
6.61548e-06
4.35437e-06
2.95129e-06
1.99458e-06
1.45818e-06
1.3445e-06
1.59786e-06
2.044e-06
2.9566e-06
5.19088e-06
9.87628e-06
0.000414918
0.000411813
0.000408624
0.000405356
0.000402005
0.000398571
0.000395053
0.00039145
0.00038776
0.000383981
0.000380111
0.000376145
0.000372078
0.000367903
0.000363618
0.000359217
0.000354694
0.000350043
0.00034526
0.000340334
0.000335261
0.000330031
0.000324636
0.000319071
0.000313314
0.000307355
0.000301164
0.000294674
0.00028778
0.000280435
0.000272599
0.00026423
0.000255281
0.000245708
0.000235465
0.000224518
0.000212842
0.000200407
0.000187232
0.000173328
0.00015888
0.000143886
0.00012875
0.000113491
9.87419e-05
8.43077e-05
7.1184e-05
5.87081e-05
4.79771e-05
3.83979e-05
3.01412e-05
2.3614e-05
1.77176e-05
1.35433e-05
9.52468e-06
6.49629e-06
4.51566e-06
3.20155e-06
2.23034e-06
1.54179e-06
1.04938e-06
8.62353e-07
1.17477e-06
2.03362e-06
3.13777e-06
3.74685e-06
4.70893e-06
7.21593e-06
9.47317e-06
0.000231872
0.000229946
0.000227968
0.00022594
0.000223862
0.000221734
0.000219555
0.000217324
0.000215042
0.000212706
0.000210315
0.000207868
0.000205362
0.000202793
0.000200162
0.000197458
0.000194687
0.00019183
0.000188902
0.000185874
0.000182766
0.00017955
0.000176232
0.000172823
0.000169227
0.000165483
0.000161386
0.000156833
0.000151816
0.000146316
0.000140317
0.000133812
0.000126802
0.000119313
0.000111367
0.000103045
9.43976e-05
8.55676e-05
7.6673e-05
6.78338e-05
5.93361e-05
5.10848e-05
4.36478e-05
3.68751e-05
3.10074e-05
2.58414e-05
2.11609e-05
1.7322e-05
1.3818e-05
1.10958e-05
8.60322e-06
6.75679e-06
5.06379e-06
3.62992e-06
2.63762e-06
1.93802e-06
1.42684e-06
9.90752e-07
7.05254e-07
5.24229e-07
4.59421e-07
7.9886e-07
1.88723e-06
3.17036e-06
4.15558e-06
4.78932e-06
6.11505e-06
7.49099e-06
8.01086e-06
7.03877e-05
6.96958e-05
6.89818e-05
6.82488e-05
6.74974e-05
6.67281e-05
6.59418e-05
6.51388e-05
6.43196e-05
6.34838e-05
6.26314e-05
6.17613e-05
6.08754e-05
5.99678e-05
5.90481e-05
5.80967e-05
5.71423e-05
5.61404e-05
5.5147e-05
5.40878e-05
5.30504e-05
5.19267e-05
5.08382e-05
4.96342e-05
4.81777e-05
4.64553e-05
4.45268e-05
4.24385e-05
4.0226e-05
3.792e-05
3.55557e-05
3.31672e-05
3.07871e-05
2.84447e-05
2.61666e-05
2.39728e-05
2.18837e-05
1.99076e-05
1.80525e-05
1.63305e-05
1.4714e-05
1.32501e-05
1.18227e-05
1.04585e-05
9.05421e-06
7.75458e-06
6.51821e-06
5.38605e-06
4.28356e-06
3.30665e-06
2.50134e-06
1.71462e-06
1.1592e-06
8.30081e-07
6.42207e-07
4.9356e-07
3.36059e-07
2.06096e-07
1.51902e-07
1.34065e-07
1.81239e-07
3.22129e-07
7.26186e-07
1.47426e-06
2.12282e-06
2.90793e-06
3.54457e-06
3.70412e-06
3.14679e-06
6.90873e-06
6.98852e-06
7.06956e-06
7.15145e-06
7.23317e-06
7.31515e-06
7.39581e-06
7.47559e-06
7.55444e-06
7.63081e-06
7.70867e-06
7.78256e-06
7.85829e-06
7.93108e-06
8.00234e-06
8.07608e-06
8.14473e-06
8.21435e-06
8.28903e-06
8.35145e-06
8.42736e-06
8.50524e-06
8.5731e-06
8.68636e-06
8.71489e-06
8.7356e-06
8.74681e-06
8.74764e-06
8.73678e-06
8.71254e-06
8.67277e-06
8.61497e-06
8.53609e-06
8.43268e-06
8.30062e-06
8.13527e-06
7.9312e-06
7.68227e-06
7.38162e-06
7.02102e-06
6.59433e-06
6.0853e-06
5.49805e-06
4.82026e-06
4.04815e-06
3.19635e-06
2.28731e-06
1.38342e-06
6.38486e-07
2.12643e-07
1.01386e-07
9.72487e-08
9.69172e-08
8.74767e-08
7.3782e-08
5.41203e-08
3.39923e-08
2.46003e-08
2.34095e-08
3.00737e-08
4.22056e-08
5.73176e-08
6.98543e-08
7.70112e-08
8.56396e-08
9.23565e-08
8.54104e-08
7.0163e-08
5.80349e-08
0.00017053
0.00017059
0.000170498
0.000170388
0.000170337
0.000170225
0.000170141
0.000170032
0.000169913
0.000169818
0.000169652
0.000169553
0.000169632
0.00016965
0.000169626
0.000169453
0.000169452
0.000169423
0.000169401
0.000169305
0.000169402
0.000169553
0.000169469
0.000169456
0.0001694
0.00016927
0.000169347
0.000169418
0.000169569
0.000169546
0.000169536
0.000169645
0.000169769
0.000169756
0.000169799
0.000169791
0.000169912
0.000169979
0.000169996
0.000170178
0.000170088
0.00017019
0.000170217
0.000170244
0.000170431
0.000170392
0.000170405
0.000170487
0.000170505
0.000170486
0.000170478
0.000170498
0.00017051
0.000170597
0.000170767
0.000170913
0.000170983
0.000171031
0.000171086
0.000172407
0.000172282
0.000172172
0.000172062
0.000171945
0.000171816
0.000171709
0.0001716
0.000171503
0.000171406
0.000171301
0.000171237
0.000171245
0.000171257
0.000171043
0.000170972
0.000170981
0.000170967
0.000170901
0.000170835
0.000170969
0.000171042
0.000170941
0.00017095
0.000170845
0.000170758
0.000170841
0.000170944
0.00017104
0.000171024
0.000171064
0.000171162
0.00017128
0.000171277
0.000171362
0.000171361
0.00017145
0.000171568
0.00017158
0.000171777
0.000171824
0.000171763
0.000171884
0.000171851
0.000171978
0.000172107
0.000172206
0.000172292
0.000172449
0.000172524
0.000172559
0.000172445
0.000172317
0.000172365
0.000172263
0.000172289
0.000172416
0.000172512
0.000172623
0.000174322
0.000174214
0.000174083
0.000173965
0.00017384
0.000173725
0.000173623
0.000173524
0.000173432
0.000173337
0.000173256
0.000173205
0.000173095
0.000172932
0.000172779
0.000172771
0.000172754
0.000172719
0.000172613
0.000172675
0.000172769
0.000172777
0.000172682
0.000172683
0.000172559
0.000172508
0.000172597
0.00017272
0.000172779
0.000172775
0.000172853
0.000172942
0.000173051
0.000173073
0.000173169
0.000173199
0.00017327
0.000173389
0.000173423
0.000173593
0.000173648
0.000173759
0.000173785
0.000173924
0.000173866
0.000174033
0.000174171
0.000174157
0.000174277
0.000174354
0.0001745
0.00017469
0.000174827
0.000174833
0.000174857
0.000174795
0.000174906
0.000174858
0.000174894
0.00017657
0.000176463
0.00017633
0.000176214
0.000176094
0.000175981
0.00017587
0.000175755
0.000175637
0.000175513
0.000175389
0.000175259
0.000175103
0.00017497
0.000174881
0.000174848
0.000174861
0.000174775
0.000174723
0.000174789
0.00017485
0.000174813
0.000174717
0.000174707
0.000174568
0.000174563
0.000174652
0.000174783
0.00017482
0.000174828
0.000174932
0.000175017
0.000175127
0.000175171
0.000175287
0.00017533
0.000175399
0.000175547
0.000175581
0.000175744
0.000175836
0.000175909
0.000175972
0.000176127
0.000176189
0.000176256
0.000176341
0.000176467
0.00017662
0.000176732
0.000176761
0.000176869
0.000177029
0.000177149
0.000177161
0.000177188
0.000177228
0.00017726
0.000177379
0.000179202
0.000179092
0.000178953
0.000178828
0.000178694
0.000178561
0.00017842
0.000178272
0.000178118
0.000177959
0.000177803
0.000177652
0.000177521
0.000177433
0.000177385
0.000177371
0.000177296
0.000177221
0.000177188
0.000177236
0.000177252
0.000177189
0.000177094
0.000177069
0.000176933
0.000176948
0.000177047
0.00017718
0.000177208
0.00017723
0.000177352
0.000177439
0.000177554
0.000177619
0.000177752
0.000177825
0.000177895
0.000178037
0.000178113
0.000178255
0.00017841
0.00017851
0.000178584
0.000178707
0.000178825
0.000178925
0.000179035
0.00017906
0.000179262
0.00017943
0.000179547
0.000179662
0.000179776
0.000179874
0.000179913
0.000179883
0.000179941
0.000180028
0.000180067
0.000182248
0.000182124
0.000181965
0.000181818
0.000181657
0.000181494
0.000181322
0.000181147
0.000180971
0.0001808
0.000180643
0.000180509
0.000180404
0.000180329
0.000180263
0.00018019
0.000180094
0.000180071
0.00018002
0.000180044
0.000180043
0.000179966
0.00017987
0.000179825
0.000179709
0.000179745
0.000179848
0.000179982
0.00018001
0.000180047
0.000180183
0.000180278
0.000180398
0.000180485
0.000180634
0.000180744
0.000180829
0.000180974
0.000181079
0.000181224
0.000181383
0.000181536
0.000181657
0.000181778
0.000181912
0.000182032
0.000182191
0.000182191
0.000182356
0.00018255
0.000182729
0.000182885
0.000183022
0.000183127
0.000183205
0.00018327
0.000183314
0.000183333
0.000183404
0.000185757
0.000185613
0.00018543
0.000185257
0.000185073
0.000184887
0.000184697
0.000184511
0.000184332
0.000184166
0.000184021
0.000183898
0.000183796
0.000183703
0.000183607
0.000183513
0.000183439
0.000183426
0.000183403
0.000183389
0.000183349
0.000183219
0.000183125
0.000183065
0.000182974
0.000183032
0.00018314
0.000183271
0.000183304
0.000183358
0.000183507
0.000183615
0.000183743
0.000183853
0.000184016
0.000184165
0.000184279
0.000184432
0.000184564
0.000184726
0.000184892
0.00018507
0.000185234
0.00018539
0.000185562
0.000185702
0.000185899
0.000185976
0.000186102
0.000186272
0.000186462
0.000186648
0.000186817
0.000186959
0.000187081
0.000187183
0.000187276
0.000187331
0.000187429
0.000189839
0.000189677
0.000189474
0.000189283
0.000189083
0.000188886
0.00018869
0.000188502
0.000188325
0.000188163
0.000188018
0.000187889
0.00018777
0.000187655
0.000187547
0.00018746
0.000187415
0.000187427
0.000187378
0.000187292
0.000187188
0.000187048
0.000186954
0.000186884
0.000186833
0.000186904
0.000187017
0.000187145
0.000187189
0.00018726
0.000187422
0.000187547
0.000187687
0.00018782
0.000188
0.000188187