/*--------------------------------*- C++ -*----------------------------------*\
| =========                 |                                                 |
| \\      /  F ield         | OpenFOAM: The Open Source CFD Toolbox           |
|  \\    /   O peration     | Version:  2312                                  |
|   \\  /    A nd           | Website:  www.openfoam.com                      |
|    \\/     M anipulation  |                                                 |
\*---------------------------------------------------------------------------*/
FoamFile
{
    version     2.0;
    format      ascii;
    arch        "LSB;label=32;scalar=64";
    class       volScalarField;
    location    "1800";
    object      omega;
}
// * * * * * * * * * * * * * * * * * * * * * * * * * * * * * * * * * * * * * //

dimensions      [0 0 -1 0 0 0 0];

internalField   nonuniform List<scalar> 
76025
(
0.0294181
0.0294181
0.0294119
0.0293937
0.029391
0.0293923
0.0293889
0.0293858
0.0293793
0.0293697
0.0293769
0.0293766
0.0293747
0.0293692
0.029368
0.029365
0.0293647
0.0293647
0.0293619
0.0293486
0.0293468
0.0293462
0.0293542
0.0293593
0.029394
0.0294102
0.0294041
0.0294043
0.0294258
0.0294481
0.0294823
0.0295154
0.0295721
0.0296227
0.0296859
0.029748
0.0298231
0.0299181
0.0300134
0.0301193
0.03023
0.0303633
0.0305115
0.0306653
0.0308248
0.0309973
0.0311781
0.0313686
0.0315708
0.0317783
0.0320064
0.0322479
0.0325153
0.0328053
0.0331584
0.0335355
0.0339808
0.0345062
0.0351241
0.0358787
0.0367203
0.0377977
0.0391137
0.040659
0.0426414
0.0449332
0.0477243
0.0510571
0.0549698
0.0296967
0.0297058
0.0297158
0.029721
0.0297233
0.0297443
0.0297417
0.0297567
0.0297465
0.0297526
0.0297447
0.0297394
0.0297416
0.0297447
0.0297539
0.0297618
0.0297812
0.0297971
0.0298063
0.029837
0.0298297
0.0298237
0.0298302
0.0298427
0.0298897
0.0299201
0.0299399
0.0299574
0.0299808
0.0300088
0.0300766
0.0301485
0.0302057
0.0302556
0.0303133
0.030384
0.0304598
0.0305385
0.0306225
0.0307164
0.0308233
0.0309412
0.0310697
0.0312085
0.0313595
0.0315223
0.0316966
0.0318839
0.03209
0.0323162
0.0325658
0.0328443
0.0331582
0.0335114
0.0339169
0.034387
0.0349285
0.0355588
0.0362951
0.0371559
0.0381794
0.0393966
0.0408577
0.0425912
0.0447389
0.0472194
0.0503292
0.0537772
0.0581817
0.0300422
0.030046
0.0300557
0.0300675
0.0300795
0.0300975
0.0301139
0.0301356
0.0301456
0.0301709
0.0301791
0.0302093
0.0302186
0.0302258
0.0302098
0.0302045
0.0302158
0.0302331
0.0302512
0.0302863
0.0303023
0.0303649
0.0303723
0.0303853
0.0304015
0.0304255
0.0304473
0.0304822
0.0305179
0.0305647
0.0306279
0.0306982
0.030774
0.030865
0.0309901
0.0311794
0.031266
0.031256
0.0312936
0.031363
0.0314568
0.0315703
0.0316993
0.0318441
0.0320032
0.0321771
0.0323677
0.0325767
0.0328093
0.0330667
0.0333553
0.0336776
0.0340432
0.0344546
0.0349261
0.035465
0.0360842
0.0368042
0.0376373
0.0386234
0.0397754
0.0411503
0.0427858
0.0447251
0.0470739
0.0497697
0.0530967
0.0567653
0.0614391
0.0304752
0.0304808
0.0304736
0.0304763
0.0304848
0.0304986
0.030513
0.0305343
0.0305575
0.0305874
0.0306125
0.0306363
0.0306532
0.030665
0.0306725
0.0306807
0.0306936
0.0307112
0.0307348
0.0307624
0.0308029
0.0308523
0.0309039
0.0309636
0.0310026
0.0310824
0.0311174
0.0312329
0.031281
0.0312584
0.031269
0.0313149
0.0313791
0.0314529
0.0315367
0.0316279
0.031718
0.031808
0.0319053
0.0320131
0.0321325
0.0322651
0.0324106
0.0325717
0.0327486
0.0329429
0.0331575
0.0333947
0.0336592
0.0339536
0.0342846
0.0346545
0.0350744
0.0355465
0.036088
0.0367036
0.0374162
0.0382379
0.0391948
0.0403174
0.0416266
0.0431816
0.0450001
0.0471488
0.0496913
0.0526036
0.0561664
0.0600464
0.0650621
0.0310003
0.0310067
0.030991
0.0309953
0.0309927
0.0310132
0.031059
0.0310778
0.031072
0.031082
0.0310993
0.0311234
0.0311489
0.0311799
0.0312113
0.0312413
0.0312733
0.0313126
0.0313693
0.031453
0.0314671
0.0314758
0.031508
0.0315533
0.0315995
0.0316594
0.0317139
0.0317764
0.0318421
0.0319185
0.0320308
0.032215
0.032296
0.0322779
0.0323026
0.0323586
0.0324368
0.0325323
0.0326424
0.032766
0.0329029
0.033054
0.0332201
0.0334035
0.033606
0.0338287
0.034075
0.0343477
0.0346515
0.0349898
0.0353698
0.0357948
0.0362769
0.0368193
0.0374418
0.0381481
0.0389673
0.0399064
0.0410012
0.0422717
0.0437492
0.0454834
0.0474871
0.0498476
0.0525835
0.0557456
0.0595528
0.0636983
0.0691404
0.0316059
0.0316148
0.0316367
0.0316403
0.0316749
0.0316872
0.0316783
0.0316799
0.0316841
0.0317026
0.0317385
0.0318066
0.0318312
0.0318234
0.0318391
0.0318702
0.0319118
0.0319656
0.0320363
0.0321318
0.032254
0.0323016
0.0322855
0.0322962
0.0323296
0.032388
0.0324623
0.0326017
0.0327041
0.032788
0.0328178
0.0328732
0.0329324
0.0329938
0.0330658
0.0331517
0.0332519
0.0333665
0.0334951
0.0336379
0.0337954
0.0339687
0.0341598
0.0343703
0.0346035
0.0348601
0.0351436
0.0354574
0.0358068
0.0361959
0.0366328
0.0371219
0.0376767
0.0383015
0.0390184
0.0398301
0.0407707
0.0418409
0.043087
0.0445131
0.0461691
0.0480836
0.0502862
0.0528681
0.0558185
0.0592815
0.0633542
0.0678761
0.073867
0.0322899
0.0323077
0.0323245
0.0323406
0.03236
0.0323783
0.0323912
0.0324108
0.0324356
0.0324699
0.0325204
0.0325645
0.0326459
0.0326373
0.032654
0.0326543
0.032677
0.0327148
0.0327649
0.0328257
0.032891
0.0329477
0.0329955
0.0330451
0.0331024
0.0331705
0.033249
0.033343
0.0334366
0.0335241
0.0336053
0.0336876
0.033774
0.0338669
0.0339686
0.0340809
0.034205
0.0343418
0.0344923
0.0346574
0.0348389
0.035038
0.0352576
0.0354992
0.0357675
0.0360629
0.0363894
0.0367512
0.0371539
0.037603
0.0381072
0.0386727
0.0393133
0.0400352
0.0408608
0.0417926
0.0428674
0.0440795
0.0454861
0.0470734
0.0489194
0.0510198
0.0534497
0.0562712
0.0594874
0.0633192
0.0676994
0.0728019
0.0793923
0.0330943
0.0331168
0.0331393
0.0331629
0.0331868
0.0332125
0.0332367
0.0332637
0.0332963
0.0333278
0.0333706
0.0334104
0.0334544
0.033487
0.0335145
0.0335478
0.0335793
0.0336265
0.0336858
0.0337492
0.0338111
0.03387
0.0339258
0.033985
0.0340503
0.0341236
0.034205
0.0342943
0.034389
0.0344869
0.0345878
0.0346928
0.0348031
0.0349204
0.0350461
0.0351817
0.0353286
0.0354884
0.0356625
0.0358528
0.0360613
0.0362902
0.0365425
0.0368208
0.0371291
0.0374706
0.0378484
0.0382674
0.0387342
0.0392554
0.0398401
0.0404959
0.0412368
0.0420697
0.0430166
0.0440799
0.0452975
0.04666
0.0482356
0.0499948
0.052052
0.0543586
0.0570676
0.0601612
0.0637399
0.0680138
0.0728057
0.0787781
0.0859044
0.0340577
0.0340841
0.0341107
0.0341386
0.034167
0.034197
0.0342278
0.0342605
0.0342968
0.0343345
0.0343768
0.0344197
0.0344642
0.0345074
0.0345511
0.0345965
0.0346506
0.0347087
0.0347798
0.0348658
0.0349604
0.035039
0.0351722
0.0352731
0.0353425
0.0353975
0.0354529
0.0355184
0.0355975
0.0356903
0.0357954
0.0359116
0.036038
0.0361745
0.0363214
0.0364797
0.0366506
0.0368358
0.0370374
0.0372574
0.0374985
0.0377634
0.0380552
0.0383779
0.038735
0.0391322
0.0395721
0.0400603
0.0406042
0.0412108
0.0418896
0.042649
0.043502
0.0444564
0.0455331
0.046736
0.0481044
0.0496293
0.051391
0.0533479
0.0556559
0.0582116
0.0612786
0.0646971
0.0687928
0.0735764
0.0790226
0.0861502
0.093821
0.0352084
0.0352413
0.0352746
0.0353091
0.0353441
0.0353796
0.0354159
0.0354535
0.0354935
0.0355354
0.0355807
0.0356277
0.0356778
0.0357282
0.0357821
0.035837
0.0358988
0.0359666
0.0360441
0.0361335
0.036233
0.0363271
0.036435
0.0365383
0.0366314
0.0367164
0.0367996
0.0368875
0.0369849
0.0370939
0.0372153
0.0373492
0.0374954
0.037654
0.0378254
0.0380104
0.0382105
0.0384274
0.0386634
0.0389209
0.0392027
0.0395125
0.0398536
0.0402306
0.0406479
0.0411115
0.0416262
0.0421966
0.0428301
0.0435341
0.0443178
0.0451898
0.0461625
0.0472456
0.0484598
0.0498139
0.0513497
0.0530635
0.0550475
0.0572503
0.0598736
0.0627476
0.066284
0.0701115
0.074948
0.0803133
0.0868889
0.0953248
0.104003
0.0365847
0.0366246
0.0366656
0.0367085
0.0367522
0.0367963
0.0368408
0.0368859
0.0369322
0.0369799
0.0370301
0.0370824
0.0371378
0.0371954
0.0372564
0.0373205
0.0373888
0.0374627
0.0375441
0.0376346
0.0377345
0.0378392
0.0379499
0.0380639
0.0381782
0.0382922
0.0384068
0.0385246
0.0386481
0.03878
0.0389223
0.0390768
0.0392447
0.0394274
0.0396259
0.0398416
0.0400759
0.0403309
0.0406087
0.0409121
0.0412443
0.041609
0.0420104
0.0424532
0.0429427
0.0434839
0.0440841
0.044747
0.0454791
0.0462881
0.047183
0.0481737
0.0492738
0.0504969
0.0518662
0.053398
0.0551381
0.0570906
0.0593584
0.0618815
0.0649144
0.068206
0.072368
0.0767356
0.0826234
0.0886978
0.0971805
0.106834
0.118508
0.0382421
0.0382893
0.0383379
0.0383889
0.0384414
0.0384949
0.0385492
0.0386042
0.03866
0.0387169
0.0387755
0.0388361
0.0388994
0.0389657
0.0390353
0.039109
0.0391871
0.0392702
0.0393599
0.0394563
0.0395603
0.0396716
0.0397905
0.0399164
0.0400483
0.0401852
0.0403268
0.0404733
0.040626
0.0407867
0.0409576
0.0411409
0.0413391
0.0415542
0.0417881
0.0420427
0.0423201
0.0426223
0.0429519
0.0433118
0.0437053
0.0441363
0.0446091
0.0451283
0.045699
0.046327
0.0470175
0.0477784
0.0486143
0.0495339
0.0505479
0.0516696
0.0529163
0.0543076
0.0558715
0.0576325
0.0596402
0.0619083
0.064549
0.0674963
0.0710704
0.074917
0.0799344
0.0850411
0.0924195
0.0994967
0.110909
0.121891
0.139977
0.0402545
0.0403102
0.0403673
0.040427
0.0404887
0.0405519
0.0406165
0.0406826
0.04075
0.0408187
0.0408892
0.0409617
0.0410369
0.0411152
0.0411972
0.0412836
0.0413754
0.041472
0.0415744
0.0416834
0.0417998
0.0419239
0.0420564
0.0421974
0.0423468
0.0425044
0.0426701
0.0428439
0.0430268
0.0432199
0.0434254
0.0436455
0.0438827
0.0441395
0.0444183
0.0447215
0.0450513
0.0454103
0.0458009
0.046226
0.046689
0.0471935
0.0477436
0.048344
0.0489997
0.0497168
0.0505018
0.051363
0.0523097
0.0533548
0.0545103
0.055795
0.0572318
0.0588465
0.060672
0.0627411
0.0651072
0.0677958
0.0709295
0.0744449
0.0787452
0.0833467
0.0895744
0.0957139
0.105268
0.113911
0.129526
0.143236
0.169684
0.0427198
0.0427871
0.0428555
0.0429265
0.0429995
0.0430744
0.0431514
0.0432304
0.0433116
0.0433949
0.0434806
0.0435691
0.0436606
0.0437558
0.043855
0.0439582
0.0440663
0.0441801
0.0443005
0.0444282
0.0445641
0.0447086
0.0448625
0.045026
0.0451996
0.0453835
0.045578
0.0457838
0.0460017
0.046233
0.0464795
0.0467434
0.0470271
0.047333
0.0476635
0.0480212
0.0484085
0.0488277
0.0492816
0.0497731
0.0503054
0.0508824
0.0515088
0.0521898
0.0529321
0.0537434
0.0546333
0.0556132
0.056697
0.0579013
0.059246
0.0607541
0.0624534
0.0643742
0.0665551
0.0690378
0.0718823
0.0751322
0.0789241
0.0832175
0.0885134
0.0941872
0.102185
0.109804
0.122694
0.133755
0.15583
0.174356
0.215579
0.0457747
0.0458586
0.0459435
0.0460311
0.0461207
0.0462123
0.0463063
0.0464031
0.0465028
0.0466055
0.0467118
0.046821
0.0469334
0.0470496
0.0471701
0.0472955
0.0474266
0.0475641
0.047709
0.047862
0.0480242
0.0481961
0.0483786
0.0485721
0.0487773
0.0489946
0.0492247
0.0494684
0.0497265
0.0500005
0.0502917
0.0506023
0.0509342
0.0512896
0.0516709
0.0520808
0.0525216
0.0529964
0.0535082
0.0540607
0.0546585
0.0553069
0.0560123
0.0567825
0.0576271
0.0585573
0.0595864
0.0607301
0.0620066
0.0634373
0.0650465
0.0668625
0.0689181
0.0712517
0.0739094
0.0769448
0.0804316
0.0844422
0.0891364
0.0945369
0.101238
0.108536
0.119169
0.129034
0.147181
0.162201
0.194607
0.221451
0.279966
0.0496223
0.0497311
0.0498411
0.0499537
0.0500684
0.0501854
0.0503047
0.0504263
0.0505508
0.0506784
0.0508096
0.0509446
0.0510838
0.0512277
0.0513766
0.0515312
0.051692
0.0518598
0.0520354
0.0522194
0.0524129
0.0526165
0.0528311
0.0530572
0.0532955
0.0535468
0.0538116
0.0540909
0.0543856
0.054697
0.0550265
0.055376
0.0557476
0.0561436
0.0565669
0.0570206
0.0575083
0.0580342
0.0586031
0.0592208
0.0598941
0.060631
0.061441
0.0623351
0.0633262
0.064429
0.0656607
0.0670406
0.0685911
0.0703378
0.0723103
0.0745434
0.0770779
0.0799634
0.0832615
0.0870467
0.0914189
0.0964972
0.102485
0.109537
0.1183
0.128233
0.142781
0.156402
0.18309
0.204863
0.253875
0.293393
0.375046
0.0545703
0.0547137
0.0548574
0.055003
0.0551498
0.0552982
0.0554485
0.0556012
0.0557567
0.0559153
0.0560772
0.056243
0.0564129
0.0565874
0.0567668
0.0569516
0.0571423
0.0573395
0.0575437
0.0577556
0.057976
0.0582055
0.058445
0.0586953
0.0589571
0.0592313
0.059519
0.0598212
0.0601395
0.0604753
0.0608308
0.0612085
0.0616111
0.0620421
0.0625057
0.0630065
0.0635499
0.0641423
0.0647908
0.0655037
0.0662906
0.0671622
0.068131
0.0692111
0.0704182
0.0717707
0.0732893
0.0749975
0.0769228
0.0790972
0.0815585
0.0843526
0.0875354
0.0911754
0.0953637
0.100207
0.10586
0.112518
0.120468
0.130105
0.142044
0.156449
0.176831
0.197762
0.237951
0.270306
0.346748
0.400783
0.538235
0.0610193
0.0612004
0.0613805
0.0615613
0.0617421
0.0619229
0.0621043
0.0622868
0.0624707
0.0626563
0.062844
0.0630341
0.063227
0.0634232
0.0636229
0.0638266
0.0640349
0.0642482
0.0644672
0.0646926
0.0649252
0.065166
0.0654159
0.0656762
0.0659482
0.0662333
0.0665332
0.06685
0.0671859
0.0675436
0.0679263
0.0683378
0.0687823
0.0692649
0.0697913
0.0703682
0.0710029
0.0717038
0.0724805
0.0733436
0.0743052
0.0753787
0.0765794
0.0779247
0.0794343
0.0811306
0.0830399
0.0851927
0.0876248
0.0903799
0.0935108
0.097083
0.10118
0.105903
0.1114
0.117825
0.125447
0.134584
0.145691
0.159531
0.176708
0.198944
0.228631
0.264094
0.322598
0.373545
0.487195
0.560856
0.724982
0.0693792
0.0695927
0.0698026
0.0700104
0.0702153
0.0704179
0.0706186
0.070818
0.0710166
0.0712149
0.0714133
0.0716124
0.0718126
0.0720146
0.0722188
0.072426
0.0726369
0.0728523
0.0730732
0.0733007
0.073536
0.0737806
0.074036
0.0743041
0.074587
0.074887
0.0752069
0.0755497
0.0759188
0.0763183
0.0767528
0.0772273
0.0777478
0.0783209
0.0789541
0.0796558
0.0804353
0.0813033
0.0822716
0.0833536
0.0845644
0.0859208
0.0874425
0.0891517
0.0910742
0.0932404
0.0956858
0.0984531
0.101594
0.105173
0.109271
0.113989
0.119462
0.125843
0.133395
0.142333
0.153193
0.166453
0.182934
0.204056
0.230609
0.26643
0.312045
0.371475
0.45356
0.540903
0.679313
0.78461
0.961877
0.0800627
0.0802978
0.0805259
0.0807472
0.0809621
0.0811719
0.0813777
0.0815806
0.0817817
0.0819817
0.0821813
0.0823809
0.0825812
0.082783
0.0829873
0.083195
0.0834075
0.0836259
0.0838519
0.084087
0.0843331
0.0845922
0.0848667
0.0851593
0.0854728
0.0858107
0.0861767
0.0865749
0.0870102
0.0874879
0.088014
0.0885953
0.0892391
0.0899535
0.0907488
0.0916352
0.0926245
0.0937305
0.0949684
0.0963559
0.0979126
0.0996615
0.101629
0.103847
0.106352
0.109189
0.112409
0.116078
0.120277
0.125113
0.130712
0.137248
0.144943
0.154043
0.165053
0.178287
0.19488
0.215543
0.24178
0.276148
0.319244
0.377525
0.448373
0.542044
0.654003
0.78045
0.941486
1.07227
1.2404
0.0937258
0.0939289
0.0941342
0.0943416
0.0945499
0.0947589
0.0949691
0.095181
0.095395
0.0956119
0.0958277
0.0960412
0.0962548
0.0964705
0.0966904
0.096916
0.0971489
0.0973909
0.0976441
0.0979105
0.0981928
0.0984938
0.0988166
0.0991649
0.0995426
0.0999542
0.100405
0.1009
0.101445
0.102049
0.102718
0.103461
0.104288
0.105208
0.106238
0.107389
0.108677
0.110122
0.111745
0.113571
0.115626
0.117946
0.12057
0.123547
0.126933
0.1308
0.135228
0.140332
0.146251
0.153166
0.161286
0.17095
0.18251
0.196465
0.213902
0.235138
0.262657
0.297099
0.340959
0.398279
0.468492
0.559176
0.667902
0.798305
0.948124
1.10963
1.28505
1.42309
1.56029
0.111665
0.111828
0.111999
0.112178
0.112362
0.112554
0.112752
0.112958
0.113171
0.113394
0.113625
0.113865
0.114115
0.114377
0.114651
0.114933
0.115224
0.115527
0.115844
0.116178
0.116534
0.116916
0.117327
0.117773
0.118259
0.118792
0.119377
0.120024
0.120739
0.121533
0.122417
0.123401
0.124499
0.125727
0.127103
0.128649
0.13039
0.13235
0.134563
0.137063
0.139894
0.143115
0.14679
0.151004
0.155841
0.161446
0.167926
0.175555
0.184523
0.195217
0.20803
0.223648
0.24269
0.266341
0.296465
0.333056
0.381059
0.439692
0.512834
0.606275
0.714508
0.848805
1.00472
1.17577
1.37128
1.53935
1.6298
1.68161
1.72622
0.136053
0.136198
0.136355
0.136524
0.136705
0.136898
0.137104
0.137323
0.137556
0.137805
0.138069
0.138351
0.138652
0.138973
0.139316
0.139683
0.140073
0.140478
0.140904
0.141353
0.141833
0.142349
0.142907
0.143514
0.144178
0.144907
0.14571
0.146598
0.147583
0.148679
0.1499
0.151264
0.152793
0.154512
0.156444
0.158627
0.161097
0.163897
0.167082
0.170713
0.174873
0.179662
0.185196
0.191642
0.199136
0.208054
0.218464
0.231169
0.246224
0.264713
0.287295
0.31532
0.349796
0.393061
0.447177
0.51136
0.593986
0.690146
0.807002
0.95071
1.10806
1.30523
1.51626
1.68149
1.76013
1.76696
1.7622
1.76039
1.77002
0.171169
0.17134
0.17153
0.17174
0.171968
0.172214
0.17248
0.172766
0.173073
0.173403
0.173758
0.174138
0.174544
0.174979
0.175446
0.175943
0.176466
0.177021
0.177612
0.178246
0.17893
0.179671
0.180477
0.181359
0.182325
0.183388
0.184561
0.18586
0.187303
0.188911
0.19071
0.192728
0.195001
0.19757
0.200484
0.203799
0.207584
0.211929
0.21694
0.222749
0.229527
0.237469
0.24682
0.257981
0.271143
0.287431
0.306354
0.330657
0.358963
0.394894
0.438745
0.492024
0.557098
0.636482
0.729388
0.836758
0.970091
1.11835
1.30293
1.50811
1.74982
1.88377
1.92733
1.90893
1.86863
1.79879
1.711
1.6148
1.33043
0.226763
0.227052
0.227366
0.227707
0.228073
0.228465
0.228884
0.229332
0.22981
0.23032
0.230865
0.231435
0.232034
0.232667
0.233341
0.234062
0.234834
0.235665
0.236561
0.23753
0.238583
0.23973
0.240982
0.242353
0.243858
0.245515
0.247346
0.24938
0.251652
0.254205
0.25709
0.260367
0.264107
0.268397
0.273344
0.279073
0.285743
0.293551
0.302741
0.313623
0.326577
0.342103
0.360742
0.383507
0.410552
0.444967
0.484044
0.536192
0.593687
0.667566
0.753789
0.850606
0.970245
1.09713
1.24241
1.41054
1.61847
1.85694
2.0539
2.1473
2.1368
2.09861
2.01841
1.86313
1.58916
1.32003
1.14621
1.07512
0.905367
0.330854
0.331382
0.331935
0.332521
0.333139
0.333789
0.334475
0.335198
0.335963
0.336771
0.337627
0.338535
0.339499
0.340524
0.341616
0.342784
0.344036
0.345383
0.346835
0.348408
0.350113
0.351969
0.353996
0.356209
0.358644
0.361335
0.36434
0.367757
0.371721
0.376337
0.381732
0.388058
0.395498
0.404272
0.414657
0.426973
0.441647
0.459178
0.480166
0.505468
0.535829
0.572717
0.616898
0.670777
0.734476
0.812515
0.900961
1.00924
1.12636
1.26255
1.41434
1.56215
1.75265
1.89492
2.14821
2.36922
2.44924
2.43803
2.40311
2.31955
2.17186
1.86174
1.3788
0.947946
0.767442
0.759944
0.795388
0.75811
0.715593
0.574774
0.575791
0.576855
0.577973
0.579144
0.580368
0.58165
0.582992
0.584398
0.585873
0.587424
0.589059
0.590785
0.592617
0.594558
0.596639
0.598847
0.601245
0.603797
0.6066
0.609598
0.612909
0.616511
0.620427
0.624976
0.63018
0.63665
0.644805
0.654877
0.667194
0.682134
0.700132
0.721723
0.74749
0.778226
0.814697
0.858035
0.909334
0.96978
1.04141
1.12428
1.22241
1.3336
1.46203
1.60627
1.76155
1.93863
2.10865
2.30706
2.47503
2.6677
2.80806
2.96361
3.04254
2.97567
2.84378
2.67008
2.4939
2.16025
1.72061
1.3652
1.01559
0.705677
0.574249
0.558765
0.594917
0.612982
0.612658
0.58015
1.4793
1.48106
1.48295
1.48497
1.48709
1.4893
1.49158
1.49393
1.49635
1.49883
1.50142
1.50409
1.50686
1.50982
1.51281
1.51623
1.5195
1.52359
1.5273
1.53232
1.53664
1.54293
1.54812
1.55647
1.57275
1.59762
1.63099
1.67302
1.72409
1.78457
1.85491
1.9355
2.02684
2.12924
2.24318
2.36875
2.50618
2.65528
2.81554
2.98629
3.16528
3.35144
3.53995
3.72815
3.90955
4.07611
4.22618
4.33318
4.42354
4.4232
4.36854
4.24187
3.99235
3.53278
2.93145
2.33929
1.81326
1.52637
1.46617
1.52968
1.58621
1.52707
1.21275
0.939103
0.897369
0.868726
0.863785
0.863127
0.848272
8.6456
8.63937
8.63237
8.62445
8.61556
8.6057
8.59468
8.58264
8.56946
8.55519
8.5401
8.52361
8.5065
8.48792
8.46858
8.44845
8.42675
8.4049
8.38205
8.35741
8.3344
8.3081
8.28549
8.2562
8.22353
8.18908
8.15302
8.11533
8.07589
8.03459
7.99124
7.94566
7.89761
7.84684
7.79302
7.73583
7.67484
7.60963
7.53971
7.46456
7.38362
7.29647
7.2026
7.10204
6.99482
6.88278
6.76804
6.65605
6.55925
6.48938
6.44452
6.40824
6.37282
6.33734
6.30222
6.26738
6.23338
6.20101
6.17027
6.14105
6.11323
6.08662
6.06092
6.03607
6.01257
5.99029
5.9684
5.94805
5.92931
0.0292743
0.0292764
0.0292801
0.0292852
0.0292828
0.0292767
0.0292667
0.0292553
0.0292596
0.0292585
0.0292555
0.0292706
0.029284
0.0292963
0.0292986
0.0292881
0.0293126
0.0293239
0.029328
0.0293196
0.0293509
0.0293779
0.029369
0.029374
0.029373
0.0293649
0.0293949
0.0294172
0.0294439
0.0294431
0.0294523
0.0294788
0.0295047
0.0294967
0.0295006
0.029493
0.0295041
0.0295024
0.0294966
0.0295128
0.0294945
0.0294971
0.0294868
0.0294812
0.0294927
0.0294785
0.0294566
0.0294425
0.0294341
0.0294167
0.0293948
0.0293858
0.029389
0.029387
0.0293924
0.0293956
0.0294049
0.0294059
0.029407
0.0295608
0.0295679
0.0295589
0.0295531
0.0295443
0.0295343
0.0295244
0.0295172
0.0295163
0.0295115
0.029508
0.0295179
0.0295238
0.0295268
0.029526
0.0295296
0.0295484
0.0295529
0.0295534
0.0295645
0.0295919
0.0296055
0.0295963
0.0296043
0.029598
0.0295952
0.0296271
0.0296539
0.0296707
0.0296712
0.0296891
0.0297134
0.0297375
0.0297336
0.0297429
0.029739
0.0297446
0.0297502
0.0297467
0.0297609
0.0297516
0.0297554
0.029754
0.0297511
0.0297469
0.0297572
0.0297509
0.0297352
0.0297193
0.0297041
0.029685
0.0296748
0.0296737
0.0296718
0.0296848
0.0296882
0.0296839
0.0296837
0.029687
0.0298948
0.029888
0.0298748
0.0298648
0.0298534
0.0298435
0.0298351
0.0298289
0.0298243
0.0298182
0.0298142
0.0298116
0.0298133
0.0298168
0.0298135
0.0298175
0.0298275
0.0298292
0.0298389
0.0298579
0.0298764
0.0298796
0.0298739
0.0298805
0.0298719
0.0298755
0.0299077
0.0299368
0.029947
0.0299497
0.029974
0.0299965
0.03002
0.0300204
0.0300344
0.0300334
0.0300366
0.0300461
0.0300435
0.0300589
0.0300654
0.0300655
0.0300609
0.030067
0.0300736
0.0300713
0.0300702
0.0300796
0.0300799
0.0300757
0.0300607
0.0300341
0.0300224
0.0300125
0.0300202
0.0300175
0.0300183
0.0300243
0.0300402
0.03027
0.03026
0.0302454
0.0302342
0.0302225
0.0302126
0.0302035
0.0301953
0.0301874
0.0301794
0.0301727
0.0301663
0.0301612
0.0301569
0.0301546
0.0301579
0.0301595
0.0301652
0.0301811
0.030198
0.0302115
0.0302104
0.0302055
0.0302089
0.0302008
0.0302105
0.0302426
0.0302721
0.0302788
0.0302839
0.0303122
0.0303339
0.0303574
0.030363
0.0303792
0.0303857
0.0303877
0.0303998
0.0303987
0.0304121
0.0304235
0.0304381
0.0304336
0.0304384
0.0304417
0.0304547
0.0304694
0.0304652
0.0304654
0.0304666
0.0304829
0.0304821
0.0304707
0.0304555
0.0304597
0.0304569
0.0304571
0.0304578
0.030456
0.0307112
0.0307002
0.0306841
0.0306714
0.0306579
0.0306454
0.0306329
0.0306206
0.0306084
0.0305964
0.0305853
0.0305748
0.0305668
0.030562
0.0305599
0.0305576
0.0305602
0.0305682
0.0305834
0.0305989
0.0306069
0.030603
0.0305983
0.0305991
0.0305924
0.0306091
0.03064
0.0306691
0.0306744
0.030682
0.030713
0.0307351
0.0307593
0.0307697
0.0307883
0.0308012
0.030806
0.0308222
0.0308216
0.0308361
0.0308467
0.0308642
0.0308702
0.0308783
0.0308842
0.0308969
0.030913
0.0309378
0.0309363
0.0309373
0.0309469
0.030954
0.0309585
0.0309599
0.0309676
0.0309847
0.0309871
0.0309801
0.0309936
0.0312307
0.0312176
0.0311985
0.0311826
0.0311653
0.0311485
0.0311315
0.0311148
0.0310985
0.0310832
0.0310694
0.031058
0.0310501
0.0310457
0.0310434
0.031042
0.0310439
0.0310472
0.0310602
0.0310708
0.0310734
0.0310696
0.0310645
0.0310641
0.0310609
0.0310813
0.0311113
0.03114
0.0311457
0.031156
0.031189
0.0312126
0.0312379
0.031253
0.0312745
0.031293
0.0313026
0.0313217
0.0313263
0.0313402
0.0313576
0.0313745
0.0313862
0.0313993
0.0314105
0.0314259
0.0314387
0.0314769
0.0314895
0.0314953
0.0315027
0.0315113
0.0315205
0.0315313
0.0315432
0.031554
0.0315684
0.0315787
0.0315925
0.0318376
0.0318214
0.0317984
0.0317785
0.031757
0.0317362
0.0317155
0.0316956
0.0316769
0.03166
0.0316455
0.031634
0.0316257
0.0316199
0.0316155
0.0316127
0.0316128
0.0316159
0.0316213
0.0316276
0.0316295
0.031624
0.0316186
0.031618
0.0316198
0.0316419
0.0316717
0.0317001
0.0317072
0.0317205
0.0317554
0.0317813
0.0318082
0.031828
0.0318528
0.0318769
0.0318924
0.0319155
0.0319269
0.031941
0.0319635
0.0319858
0.0320025
0.0320193
0.0320345
0.032055
0.0320677
0.0321007
0.0321271
0.0321455
0.0321595
0.0321717
0.0321841
0.0321976
0.032212
0.0322254
0.0322411
0.0322529
0.0322709
0.0325487
0.0325293
0.0325026
0.0324791
0.0324544
0.0324306
0.0324074
0.0323856
0.0323655
0.0323476
0.0323323
0.0323198
0.0323097
0.0323017
0.0322955
0.0322916
0.0322902
0.0322879
0.0322918
0.0322985
0.032293
0.0322834
0.0322784
0.0322791
0.0322853
0.032309
0.032339
0.0323669
0.0323764
0.0323931
0.0324298
0.0324588
0.0324881
0.0325127
0.0325414
0.0325711
0.0325936
0.0326213
0.0326407
0.0326583
0.0326832
0.0327117
0.0327366
0.0327596
0.0327791
0.0328034
0.0328214
0.0328493
0.0328799
0.0329083
0.0329324
0.0329528
0.032971
0.0329883
0.0330056
0.0330217
0.0330392
0.0330517
0.0330724
0.0333896
0.0333678
0.0333379
0.0333115
0.0332842
0.0332581
0.033233
0.0332094
0.0331878
0.0331684
0.0331514
0.0331368
0.0331246
0.0331146
0.0331073
0.0331027
0.0331003
0.0330979
0.0330961
0.0330919
0.0330807
0.0330698
0.0330659
0.0330682
0.0330789
0.0331041
0.0331346
0.0331624
0.033175
0.0331954
0.0332343
0.0332673
0.0332996
0.0333293
0.0333626
0.0333982
0.0334285
0.0334618
0.03349
0.0335145
0.0335426
0.0335756
0.0336086
0.0336406
0.0336681
0.0336975
0.0337226
0.0337505
0.033782
0.0338148
0.0338465
0.0338755
0.033902
0.0339261
0.0339486
0.0339691
0.0339907
0.0340065
0.0340319
0.0343933
0.0343693
0.0343366
0.0343075
0.0342778
0.0342492
0.0342217
0.0341959
0.034172
0.0341502
0.0341307
0.0341137
0.0340992
0.0340873
0.034078
0.0340709
0.0340646
0.0340571
0.0340478
0.0340356
0.0340211
0.0340104
0.0340083
0.0340128
0.0340274
0.0340543
0.0340855
0.0341136
0.0341301
0.0341547
0.0341963
0.034234
0.0342705
0.0343057
0.0343444
0.0343864
0.0344253
0.0344657
0.034503
0.0345367
0.0345712
0.034609
0.0346487
0.0346895
0.0347275
0.034765
0.0347995
0.0348331
0.0348677
0.0349036
0.0349399
0.0349753
0.0350092
0.0350407
0.0350703
0.035097
0.0351242
0.035145
0.0351768
0.0355992
0.035573
0.0355372
0.0355052
0.0354725
0.0354408
0.0354103
0.0353813
0.0353542
0.0353292
0.0353064
0.0352861
0.0352683
0.0352529
0.0352395
0.035227
0.035214
0.0351993
0.0351828
0.0351653
0.0351492
0.0351397
0.0351398
0.0351467
0.0351649
0.0351935
0.0352256
0.0352548
0.0352757
0.0353052
0.0353503
0.0353936
0.0354354
0.0354769
0.035522
0.0355711
0.0356194
0.0356685
0.0357159
0.0357603
0.0358043
0.0358496
0.0358966
0.0359454
0.0359936
0.0360412
0.0360867
0.0361303
0.0361726
0.0362146
0.0362563
0.0362974
0.0363376
0.0363761
0.0364128
0.0364467
0.0364806
0.0365074
0.0365469
0.0370562
0.0370274
0.0369881
0.0369523
0.0369157
0.0368799
0.0368452
0.0368118
0.0367802
0.0367506
0.0367231
0.0366978
0.0366746
0.0366531
0.0366327
0.0366124
0.0365914
0.0365692
0.0365467
0.0365258
0.0365094
0.0365014
0.0365045
0.0365134
0.0365346
0.0365648
0.0365982
0.0366292
0.0366552
0.0366903
0.03674
0.0367898
0.0368383
0.0368873
0.0369401
0.0369974
0.0370559
0.0371154
0.0371743
0.0372311
0.0372869
0.037343
0.0373999
0.037458
0.0375166
0.037575
0.0376323
0.0376879
0.0377415
0.0377935
0.0378441
0.0378933
0.0379411
0.0379872
0.0380317
0.0380735
0.0381151
0.0381491
0.0381974
0.0388272
0.038795
0.0387512
0.0387104
0.0386685
0.0386271
0.0385863
0.0385468
0.0385086
0.0384721
0.0384374
0.0384044
0.038373
0.0383428
0.0383132
0.0382837
0.0382541
0.0382249
0.0381976
0.0381744
0.0381582
0.0381521
0.0381554
0.038168
0.0381918
0.0382237
0.0382588
0.0382925
0.0383243
0.0383659
0.0384214
0.0384792
0.038536
0.0385939
0.0386559
0.038723
0.0387929
0.0388648
0.038937
0.0390081
0.0390782
0.0391482
0.0392184
0.0392891
0.0393601
0.039431
0.0395013
0.0395702
0.0396374
0.0397026
0.0397656
0.0398264
0.0398851
0.0399415
0.039996
0.0400476
0.0400988
0.0401421
0.0402015
0.0409968
0.0409594
0.0409096
0.0408617
0.0408123
0.0407628
0.0407134
0.0406648
0.0406171
0.0405706
0.0405255
0.0404818
0.0404393
0.0403979
0.0403573
0.0403177
0.0402793
0.0402434
0.0402116
0.0401862
0.0401697
0.0401647
0.0401687
0.0401834
0.0402092
0.0402428
0.04028
0.0403173
0.0403557
0.040405
0.0404678
0.0405349
0.0406021
0.0406711
0.0407445
0.0408235
0.0409068
0.0409931
0.0410811
0.041169
0.0412564
0.0413436
0.0414308
0.0415181
0.0416053
0.0416922
0.0417784
0.0418634
0.0419467
0.042028
0.0421068
0.0421831
0.0422567
0.0423276
0.0423959
0.0424612
0.0425254
0.0425817
0.0426558
0.0436883
0.0436426
0.0435837
0.0435252
0.0434646
0.0434029
0.0433407
0.0432785
0.0432169
0.043156
0.0430962
0.0430377
0.0429806
0.0429249
0.0428711
0.0428195
0.0427712
0.0427274
0.04269
0.0426611
0.0426428
0.0426371
0.0426407
0.0426565
0.0426834
0.0427184
0.0427581
0.0427998
0.0428458
0.042904
0.0429761
0.0430545
0.0431348
0.0432177
0.0433055
0.0433994
0.0434989
0.0436027
0.0437096
0.0438179
0.0439265
0.0440353
0.044144
0.0442528
0.0443614
0.0444695
0.0445767
0.0446825
0.0447867
0.0448887
0.0449882
0.0450849
0.0451787
0.0452695
0.0453573
0.0454419
0.0455249
0.0456004
0.045695
0.0471059
0.0470446
0.0469699
0.0468935
0.0468138
0.0467319
0.0466485
0.0465645
0.0464806
0.0463974
0.0463153
0.0462348
0.0461565
0.0460809
0.0460086
0.0459405
0.0458779
0.0458223
0.0457754
0.0457392
0.0457155
0.0457054
0.0457091
0.045722
0.0457482
0.0457838
0.045826
0.0458727
0.0459274
0.0459961
0.0460798
0.0461722
0.0462694
0.0463698
0.0464762
0.0465896
0.0467098
0.0468359
0.0469666
0.0471004
0.047236
0.0473725
0.0475096
0.047647
0.0477843
0.0479212
0.0480572
0.0481919
0.0483248
0.0484555
0.0485837
0.0487091
0.0488314
0.0489506
0.0490667
0.0491797
0.0492907
0.0493951
0.0495193
0.0516194
0.0515268
0.0514224
0.0513126
0.0511971
0.0510772
0.0509543
0.0508297
0.0507046
0.0505802
0.0504575
0.0503376
0.0502215
0.0501103
0.0500052
0.0499074
0.0498184
0.0497398
0.0496734
0.0496208
0.0495835
0.0495626
0.0495588
0.0495672
0.0495894
0.0496233
0.0496669
0.0497189
0.0497832
0.0498646
0.0499632
0.0500735
0.0501922
0.0503167
0.0504483
0.0505883
0.0507369
0.0508933
0.0510565
0.0512249
0.0513972
0.0515722
0.051749
0.051927
0.0521057
0.0522844
0.0524626
0.0526396
0.0528151
0.0529884
0.0531591
0.053327
0.0534918
0.0536533
0.0538118
0.0539675
0.0541206
0.0542685
0.0544345
0.0579028
0.0577323
0.0575603
0.0573921
0.0572143
0.0570271
0.0568327
0.0566334
0.0564318
0.0562302
0.0560314
0.0558361
0.0556462
0.0554637
0.0552908
0.0551295
0.0549819
0.0548499
0.0547356
0.0546407
0.0545666
0.0545143
0.0544845
0.0544773
0.0544864
0.0545102
0.0545492
0.0546032
0.0546765
0.0547725
0.0548904
0.0550252
0.0551741