/*--------------------------------*- C++ -*----------------------------------*\
| =========                 |                                                 |
| \\      /  F ield         | OpenFOAM: The Open Source CFD Toolbox           |
|  \\    /   O peration     | Version:  2312                                  |
|   \\  /    A nd           | Website:  www.openfoam.com                      |
|    \\/     M anipulation  |                                                 |
\*---------------------------------------------------------------------------*/
FoamFile
{
    version     2.0;
    format      ascii;
    arch        "LSB;label=32;scalar=64";
    class       volScalarField;
    location    "1800";
    object      p;
}
// * * * * * * * * * * * * * * * * * * * * * * * * * * * * * * * * * * * * * //

dimensions      [0 2 -2 0 0 0 0];

internalField   nonuniform List<scalar> 
76025
(
6.90369e-05
5.93713e-05
4.96008e-05
3.97569e-05
2.9962e-05
2.01155e-05
9.81448e-06
-1.90355e-07
-1.04096e-05
-2.047e-05
-3.0584e-05
-4.07543e-05
-5.09818e-05
-6.1151e-05
-7.13657e-05
-8.16759e-05
-9.16774e-05
-0.000101885
-0.000111922
-0.000121949
-0.000131764
-0.000141661
-0.000151338
-0.0001608
-0.000170233
-0.000179451
-0.000188585
-0.000197674
-0.000206301
-0.000215034
-0.000223115
-0.000231139
-0.000238962
-0.000246628
-0.000253836
-0.000260754
-0.000267135
-0.000273736
-0.000279909
-0.000285562
-0.000290624
-0.000295404
-0.000300292
-0.000304462
-0.000308034
-0.000311046
-0.000313875
-0.000316185
-0.000317535
-0.000318445
-0.000318926
-0.000318632
-0.000317744
-0.000316226
-0.000313846
-0.000309978
-0.000306029
-0.000300662
-0.000294506
-0.000287386
-0.000278584
-0.000268758
-0.000257403
-0.000244783
-0.000230149
-0.000212746
-0.000194936
-0.000176061
-0.000151952
6.68951e-05
5.6805e-05
4.66517e-05
3.63776e-05
2.60157e-05
1.55581e-05
5.06307e-06
-5.46405e-06
-1.60441e-05
-2.66537e-05
-3.73019e-05
-4.79694e-05
-5.86318e-05
-6.92995e-05
-7.99203e-05
-9.05028e-05
-0.000101074
-0.000111576
-0.000122061
-0.000132411
-0.000142705
-0.000152868
-0.000162897
-0.000172762
-0.000182518
-0.000192145
-0.0002016
-0.000210791
-0.000219761
-0.000228556
-0.000237089
-0.000245512
-0.000253632
-0.000261407
-0.000268894
-0.000276039
-0.000282912
-0.00028953
-0.000295778
-0.000301671
-0.000307105
-0.000312203
-0.000316945
-0.00032116
-0.000324921
-0.000328211
-0.000331071
-0.000333349
-0.000335029
-0.00033621
-0.000336845
-0.000336795
-0.000336081
-0.000334661
-0.000332399
-0.000329211
-0.000325322
-0.000320372
-0.000314408
-0.000307377
-0.000299139
-0.00028969
-0.000278678
-0.000266174
-0.000251921
-0.000235776
-0.000218138
-0.000198695
-0.000176399
6.43433e-05
5.38e-05
4.31663e-05
3.23893e-05
2.15149e-05
1.06009e-05
-3.62682e-07
-1.13859e-05
-2.24583e-05
-3.3573e-05
-4.4706e-05
-5.58373e-05
-6.69641e-05
-7.80728e-05
-8.91415e-05
-0.000100188
-0.000111188
-0.00012213
-0.000132998
-0.000143776
-0.000154447
-0.00016499
-0.0001754
-0.000185662
-0.000195776
-0.000205725
-0.000215464
-0.000224985
-0.000234296
-0.000243389
-0.000252266
-0.000260899
-0.000269227
-0.000277246
-0.000284965
-0.000292367
-0.000299456
-0.000306224
-0.00031266
-0.000318731
-0.000324392
-0.000329654
-0.000334518
-0.000338953
-0.000342931
-0.000346428
-0.00034944
-0.000351934
-0.000353879
-0.000355264
-0.00035607
-0.00035624
-0.000355744
-0.000354542
-0.000352564
-0.00034974
-0.000346085
-0.000341495
-0.000335905
-0.000329262
-0.000321454
-0.000312391
-0.0003019
-0.00028992
-0.000276319
-0.000260985
-0.00024398
-0.00022524
-0.000203917
6.14235e-05
5.03744e-05
3.92239e-05
2.7929e-05
1.65489e-05
5.11731e-06
-6.36838e-06
-1.79068e-05
-2.94851e-05
-4.10902e-05
-5.2708e-05
-6.43264e-05
-7.59362e-05
-8.75254e-05
-9.90813e-05
-0.000110595
-0.000122051
-0.000133436
-0.000144736
-0.000155935
-0.000167017
-0.000177967
-0.000188773
-0.000199418
-0.000209891
-0.000220178
-0.000230261
-0.000240128
-0.000249768
-0.000259169
-0.000268319
-0.000277196
-0.000285781
-0.000294061
-0.000302024
-0.000309664
-0.000316977
-0.000323956
-0.00033059
-0.000336852
-0.000342719
-0.000348183
-0.000353239
-0.000357866
-0.000362036
-0.000365732
-0.000368943
-0.000371646
-0.000373813
-0.000375423
-0.000376457
-0.000376878
-0.000376646
-0.000375722
-0.000374055
-0.000371589
-0.000368293
-0.000364105
-0.00035895
-0.00035276
-0.000345446
-0.000336907
-0.000327023
-0.000315713
-0.000302881
-0.000288466
-0.000272438
-0.000254828
-0.000234999
5.80721e-05
4.64881e-05
3.48002e-05
2.29619e-05
1.10373e-05
-9.40747e-07
-1.29686e-05
-2.50431e-05
-3.71531e-05
-4.9285e-05
-6.14266e-05
-7.35655e-05
-8.56894e-05
-9.77856e-05
-0.00010984
-0.00012184
-0.000133771
-0.00014562
-0.000157372
-0.000169013
-0.000180528
-0.0001919
-0.000203113
-0.000214153
-0.000225005
-0.000235655
-0.000246091
-0.000256298
-0.000266263
-0.000275972
-0.000285412
-0.000294567
-0.000303423
-0.000311963
-0.000320177
-0.000328056
-0.000335599
-0.000342796
-0.000349635
-0.000356099
-0.000362171
-0.00036784
-0.000373094
-0.000377917
-0.000382291
-0.0003862
-0.000389628
-0.000392555
-0.00039496
-0.000396821
-0.000398117
-0.000398815
-0.000398882
-0.000398279
-0.000396964
-0.00039489
-0.000392012
-0.000388276
-0.000383613
-0.000377953
-0.000371216
-0.000363311
-0.000354149
-0.000343656
-0.000331759
-0.000318429
-0.000303603
-0.000287363
-0.000269032
5.42154e-05
4.20636e-05
2.98061e-05
1.73922e-05
4.89096e-06
-7.66078e-06
-2.02593e-05
-3.29017e-05
-4.55769e-05
-5.82704e-05
-7.09681e-05
-8.36561e-05
-9.63207e-05
-0.000108949
-0.000121525
-0.000134035
-0.000146466
-0.000158802
-0.000171028
-0.000183129
-0.00019509
-0.000206895
-0.00021853
-0.000229977
-0.000241223
-0.000252252
-0.000263052
-0.000273605
-0.0002839
-0.000293922
-0.000303659
-0.000313097
-0.000322223
-0.000331023
-0.000339485
-0.000347606
-0.000355379
-0.000362799
-0.000369851
-0.000376525
-0.000382805
-0.000388681
-0.000394141
-0.000399172
-0.00040376
-0.00040789
-0.000411547
-0.000414715
-0.000417375
-0.000419507
-0.00042109
-0.000422096
-0.000422496
-0.000422254
-0.000421334
-0.000419693
-0.000417285
-0.000414057
-0.00040995
-0.000404897
-0.00039883
-0.000391674
-0.000383364
-0.000373839
-0.00036305
-0.000350991
-0.000337581
-0.000322983
-0.000306466
4.97731e-05
3.70192e-05
2.41587e-05
1.11367e-05
-1.97276e-06
-1.51304e-05
-2.83321e-05
-4.15743e-05
-5.48442e-05
-6.81266e-05
-8.14063e-05
-9.46689e-05
-0.0001079
-0.000121085
-0.000134209
-0.000147257
-0.000160212
-0.00017306
-0.000185784
-0.000198368
-0.000210796
-0.000223052
-0.000235121
-0.000246987
-0.000258636
-0.000270054
-0.000281223
-0.00029213
-0.00030276
-0.000313101
-0.00032314
-0.000332866
-0.000342264
-0.000351325
-0.000360037
-0.000368398
-0.000376403
-0.000384046
-0.000391315
-0.0003982
-0.000404691
-0.000410776
-0.000416448
-0.000421694
-0.000426503
-0.000430864
-0.000434763
-0.000438186
-0.000441118
-0.000443541
-0.000445436
-0.000446779
-0.000447545
-0.000447702
-0.000447217
-0.00044605
-0.00044416
-0.000441499
-0.000438015
-0.00043365
-0.000428353
-0.000422064
-0.000414744
-0.000406344
-0.000396844
-0.000386244
-0.000374465
-0.000361726
-0.000347066
4.46618e-05
3.12683e-05
1.77685e-05
4.10207e-06
-9.65123e-06
-2.34494e-05
-3.72874e-05
-5.11608e-05
-6.50557e-05
-7.89563e-05
-9.28463e-05
-0.00010671
-0.000120534
-0.000134301
-0.000147996
-0.000161603
-0.000175105
-0.000188487
-0.00020173
-0.000214818
-0.000227734
-0.000240459
-0.000252979
-0.000265279
-0.000277342
-0.000289154
-0.000300701
-0.000311968
-0.000322939
-0.000333604
-0.00034395
-0.000353966
-0.000363639
-0.000372961
-0.000381921
-0.000390522
-0.000398757
-0.000406622
-0.000414107
-0.000421204
-0.000427905
-0.000434201
-0.000440086
-0.000445551
-0.000450588
-0.000455187
-0.000459338
-0.000463029
-0.000466248
-0.000468981
-0.000471211
-0.000472917
-0.000474078
-0.000474667
-0.000474654
-0.000474004
-0.000472681
-0.000470644
-0.000467852
-0.000464262
-0.000459838
-0.000454537
-0.000448347
-0.00044123
-0.000433203
-0.000424258
-0.00041436
-0.00040372
-0.000391253
3.87911e-05
2.47176e-05
1.05382e-05
-3.81245e-06
-1.82489e-05
-3.27256e-05
-4.7237e-05
-6.1778e-05
-7.63342e-05
-9.0888e-05
-0.000105422
-0.00011992
-0.000134366
-0.000148743
-0.000163035
-0.000177226
-0.000191297
-0.000205232
-0.000219012
-0.000232621
-0.000246039
-0.000259251
-0.000272237
-0.000284982
-0.00029747
-0.000309686
-0.000321617
-0.000333248
-0.000344564
-0.000355555
-0.000366208
-0.000376513
-0.000386459
-0.000396038
-0.000405244
-0.000414079
-0.000422541
-0.000430623
-0.000438319
-0.000445624
-0.000452532
-0.000459037
-0.000465135
-0.00047082
-0.000476086
-0.000480927
-0.000485337
-0.000489306
-0.000492825
-0.000495883
-0.000498467
-0.000500559
-0.000502141
-0.000503191
-0.000503683
-0.00050359
-0.000502882
-0.000501529
-0.000499502
-0.000496772
-0.000493323
-0.00048913
-0.000484205
-0.000478524
-0.000472145
-0.00046505
-0.000457312
-0.000449114
-0.000439765
3.20474e-05
1.7252e-05
2.35185e-06
-1.27242e-05
-2.78845e-05
-4.30803e-05
-5.83053e-05
-7.35532e-05
-8.88086e-05
-0.000104053
-0.000119267
-0.000134433
-0.000149535
-0.000164555
-0.000179474
-0.000194276
-0.000208941
-0.000223451
-0.000237787
-0.000251933
-0.000265869
-0.000279577
-0.000293039
-0.000306239
-0.00031916
-0.000331789
-0.000344111
-0.00035611
-0.000367774
-0.00037909
-0.000390049
-0.000400639
-0.000410853
-0.000420682
-0.000430126
-0.000439188
-0.000447866
-0.000456156
-0.000464054
-0.000471558
-0.000478664
-0.000485371
-0.000491676
-0.000497577
-0.000503071
-0.000508155
-0.000512827
-0.000517079
-0.000520906
-0.0005243
-0.000527251
-0.000529746
-0.000531769
-0.000533305
-0.000534334
-0.000534835
-0.00053479
-0.000534179
-0.000532988
-0.000531204
-0.000528826
-0.000525851
-0.000522313
-0.000518205
-0.000513625
-0.000508557
-0.000503183
-0.000497583
-0.000491493
2.42896e-05
8.72769e-06
-6.93661e-06
-2.27813e-05
-3.87083e-05
-5.4665e-05
-7.0644e-05
-8.66387e-05
-0.000102632
-0.000118604
-0.000134535
-0.000150406
-0.000166198
-0.000181893
-0.00019747
-0.000212911
-0.000228196
-0.000243304
-0.000258219
-0.000272919
-0.000287386
-0.000301602
-0.00031555
-0.000329212
-0.000342572
-0.000355617
-0.000368329
-0.000380696
-0.000392704
-0.000404342
-0.0004156
-0.000426469
-0.000436942
-0.000447014
-0.000456685
-0.000465962
-0.000474843
-0.000483328
-0.000491415
-0.000499104
-0.000506396
-0.000513293
-0.000519794
-0.000525903
-0.000531618
-0.000536941
-0.000541871
-0.000546406
-0.000550543
-0.000554277
-0.000557601
-0.000560509
-0.000562989
-0.000565031
-0.000566624
-0.000567756
-0.000568419
-0.000568606
-0.000568315
-0.000567551
-0.00056633
-0.000564668
-0.000562619
-0.000560204
-0.000557547
-0.000554671
-0.000551806
-0.000549038
-0.000546227
1.5357e-05
-1.0206e-06
-1.74969e-05
-3.41575e-05
-5.08972e-05
-6.76594e-05
-8.4436e-05
-0.000101219
-0.000117991
-0.000134731
-0.000151416
-0.000168027
-0.000184543
-0.000200945
-0.00021721
-0.00023332
-0.000249252
-0.000264985
-0.000280501
-0.000295776
-0.000310792
-0.000325531
-0.000339975
-0.000354105
-0.000367907
-0.000381364
-0.000394463
-0.00040719
-0.000419533
-0.000431482
-0.000443027
-0.000454162
-0.000464879
-0.000475176
-0.000485059
-0.000494532
-0.000503598
-0.000512258
-0.000520514
-0.00052837
-0.00053583
-0.000542898
-0.00054958
-0.00055588
-0.000561802
-0.00056735
-0.000572527
-0.000577335
-0.000581775
-0.000585844
-0.000589543
-0.000592867
-0.000595813
-0.000598378
-0.000600559
-0.000602354
-0.000603764
-0.000604796
-0.000605461
-0.000605779
-0.000605779
-0.000605503
-0.000605021
-0.000604394
-0.000603761
-0.000603235
-0.000603029
-0.000603364
-0.000603755
5.06123e-06
-1.21852e-05
-2.95253e-05
-4.7053e-05
-6.46554e-05
-8.22717e-05
-9.98927e-05
-0.00011751
-0.000135104
-0.000152652
-0.000170131
-0.000187519
-0.000204795
-0.000221936
-0.000238921
-0.000255727
-0.000272331
-0.000288713
-0.00030485
-0.00032072
-0.000336303
-0.000351579
-0.000366529
-0.000381136
-0.000395382
-0.000409252
-0.000422733
-0.000435812
-0.000448478
-0.000460722
-0.000472536
-0.000483913
-0.000494851
-0.000505349
-0.000515416
-0.00052506
-0.000534282
-0.000543088
-0.000551485
-0.000559478
-0.000567076
-0.000574288
-0.000581121
-0.000587586
-0.000593689
-0.000599438
-0.000604841
-0.000609902
-0.000614627
-0.00061902
-0.000623085
-0.000626824
-0.00063024
-0.000633339
-0.000636125
-0.000638606
-0.000640794
-0.000642707
-0.000644367
-0.000645809
-0.000647076
-0.000648234
-0.000649365
-0.000650581
-0.000652032
-0.000653942
-0.000656519
-0.00066024
-0.000664653
-6.82919e-06
-2.50012e-05
-4.32599e-05
-6.17091e-05
-8.02276e-05
-9.87501e-05
-0.000117266
-0.000135765
-0.000154228
-0.000172629
-0.000190945
-0.00020915
-0.000227222
-0.000245138
-0.000262875
-0.000280406
-0.00029771
-0.000314763
-0.000331541
-0.000348022
-0.000364184
-0.000380007
-0.00039547
-0.000410555
-0.000425245
-0.000439524
-0.000453379
-0.000466797
-0.000479769
-0.000492287
-0.000504344
-0.000515937
-0.000527063
-0.000537728
-0.000547944
-0.000557718
-0.000567056
-0.000575967
-0.00058446
-0.000592547
-0.000600241
-0.000607552
-0.000614496
-0.000621084
-0.000627328
-0.000633242
-0.000638836
-0.00064412
-0.000649106
-0.000653801
-0.000658217
-0.000662361
-0.000666245
-0.00066988
-0.00067328
-0.000676462
-0.000679446
-0.00068226
-0.000684938
-0.000687528
-0.000690083
-0.000692694
-0.00069545
-0.000698509
-0.000702034
-0.000706331
-0.000711593
-0.000718592
-0.00072659
-2.06005e-05
-3.97589e-05
-5.89948e-05
-7.84237e-05
-9.79151e-05
-0.000117399
-0.000136862
-0.000156296
-0.000175677
-0.000194978
-0.000214174
-0.000233239
-0.000252149
-0.000270877
-0.000289399
-0.000307687
-0.000325718
-0.000343466
-0.000360906
-0.000378014
-0.000394767
-0.000411143
-0.000427121
-0.000442683
-0.000457809
-0.000472486
-0.000486698
-0.000500435
-0.000513687
-0.000526448
-0.000538712
-0.000550478
-0.000561748
-0.000572532
-0.000582844
-0.000592691
-0.000602086
-0.00061104
-0.000619569
-0.000627688
-0.000635414
-0.000642764
-0.000649758
-0.000656412
-0.000662745
-0.000668773
-0.000674513
-0.000679981
-0.000685192
-0.000690161
-0.000694903
-0.000699435
-0.000703774
-0.000707938
-0.000711949
-0.000715833
-0.000719618
-0.00072334
-0.000727043
-0.000730785
-0.00073463
-0.000738686
-0.000743043
-0.000747905
-0.000753425
-0.000759893
-0.000767461
-0.000776892
-0.000787791
-3.66212e-05
-5.68315e-05
-7.7107e-05
-9.75767e-05
-0.000118101
-0.000138603
-0.000159071
-0.000179492
-0.000199843
-0.000220094
-0.000240218
-0.000260188
-0.000279976
-0.000299554
-0.000318896
-0.000337973
-0.000356758
-0.000375223
-0.000393343
-0.000411091
-0.000428444
-0.000445377
-0.000461868
-0.000477897
-0.000493446
-0.000508499
-0.000523041
-0.000537062
-0.000550553
-0.000563509
-0.000575926
-0.000587804
-0.000599151
-0.000609982
-0.000620312
-0.000630154
-0.000639523
-0.000648437
-0.000656916
-0.000664982
-0.000672658
-0.000679967
-0.000686934
-0.000693582
-0.000699935
-0.000706015
-0.000711845
-0.000717444
-0.000722835
-0.000728037
-0.000733073
-0.000737964
-0.000742734
-0.000747409
-0.000752018
-0.000756593
-0.00076117
-0.000765794
-0.000770516
-0.000775401
-0.000780522
-0.000785997
-0.00079192
-0.000798507
-0.000805849
-0.000814219
-0.000823778
-0.000835231
-0.000848146
-5.53838e-05
-7.67169e-05
-9.80981e-05
-0.000119674
-0.000141293
-0.000162876
-0.000184407
-0.000205873
-0.000227247
-0.000248499
-0.000269599
-0.000290517
-0.000311224
-0.000331689
-0.000351883
-0.000371775
-0.000391337
-0.000410537
-0.000429348
-0.000447742
-0.000465692
-0.000483173
-0.000500161
-0.000516634
-0.000532574
-0.000547962
-0.000562786
-0.000577035
-0.0005907
-0.000603777
-0.000616265
-0.000628168
-0.000639499
-0.000650278
-0.000660524
-0.000670253
-0.000679488
-0.000688251
-0.000696572
-0.000704478
-0.000711999
-0.000719167
-0.000726012
-0.000732564
-0.000738854
-0.000744909
-0.000750758
-0.000756427
-0.000761941
-0.000767328
-0.000772614
-0.000777825
-0.000782994
-0.000788151
-0.000793333
-0.000798577
-0.00080393
-0.00080944
-0.000815166
-0.000821179
-0.00082756
-0.000834424
-0.000841843
-0.000850006
-0.000859002
-0.000869233
-0.000880974
-0.00089514
-0.000911408
-7.7608e-05
-0.000100137
-0.000122689
-0.000145433
-0.000168209
-0.000190929
-0.000213577
-0.000236138
-0.000258582
-0.000280878
-0.000302992
-0.000324892
-0.000346546
-0.000367922
-0.000388987
-0.000409707
-0.00043005
-0.000449984
-0.000469478
-0.000488501
-0.000507025
-0.000525021
-0.000542465
-0.000559333
-0.000575605
-0.000591262
-0.000606292
-0.000620682
-0.000634427
-0.000647523
-0.000659973
-0.000671783
-0.000682977
-0.000693578
-0.000703607
-0.000713089
-0.000722052
-0.000730529
-0.000738555
-0.000746169
-0.000753408
-0.000760313
-0.000766922
-0.000773273
-0.000779402
-0.000785344
-0.000791133
-0.000796799
-0.000802374
-0.000807888
-0.000813371
-0.000818858
-0.000824383
-0.000829985
-0.000835706
-0.000841592
-0.000847695
-0.000854073
-0.000860795
-0.00086793
-0.000875548
-0.000883724
-0.000892542
-0.000902217
-0.000912961
-0.000925279
-0.000939522
-0.000956538
-0.000975719
-0.000104276
-0.000128047
-0.000151807
-0.000175755
-0.000199721
-0.00022361
-0.000247402
-0.000271081
-0.000294614
-0.000317968
-0.000341107
-0.000363995
-0.000386597
-0.000408879
-0.000430803
-0.000452334
-0.000473437
-0.000494075
-0.000514215
-0.000533823
-0.000552869
-0.000571321
-0.000589153
-0.000606339
-0.000622857
-0.000638689
-0.00065382
-0.00066824
-0.000681944
-0.00069493
-0.000707203
-0.000718781
-0.00072969
-0.000739956
-0.000749609
-0.00075868
-0.000767209
-0.000775238
-0.000782812
-0.000789981
-0.000796792
-0.000803296
-0.000809541
-0.000815572
-0.000821434
-0.000827167
-0.000832809
-0.000838394
-0.000843959
-0.000849535
-0.000855158
-0.000860866
-0.000866699
-0.000872701
-0.000878921
-0.000885417
-0.000892254
-0.000899495
-0.000907199
-0.000915424
-0.000924231
-0.000933719
-0.000944047
-0.000955452
-0.000968182
-0.00098261
-0.000999013
-0.00101785
-0.0010386
-0.000136108
-0.000161109
-0.000186064
-0.000211205
-0.000236352
-0.000261403
-0.000286332
-0.000311119
-0.000335731
-0.000360129
-0.000384275
-0.000408131
-0.000431658
-0.000454817
-0.000477569
-0.000499875
-0.000521696
-0.000542991
-0.000563725
-0.00058386
-0.000603362
-0.000622197
-0.000640337
-0.000657753
-0.000674422
-0.000690323
-0.000705443
-0.00071977
-0.000733301
-0.000746035
-0.000757984
-0.000769173
-0.000779632
-0.000789393
-0.000798494
-0.000806977
-0.000814892
-0.000822293
-0.00082924
-0.000835793
-0.000842014
-0.000847966
-0.000853705
-0.000859289
-0.000864768
-0.000870188
-0.000875591
-0.000881015
-0.000886497
-0.000892069
-0.000897767
-0.000903634
-0.000909717
-0.000916071
-0.000922755
-0.000929831
-0.000937368
-0.000945433
-0.000954101
-0.000963461
-0.000973632
-0.000984745
-0.000996912
-0.0010102
-0.00102461
-0.00104014
-0.00105675
-0.00107451
-0.00109315
-0.000172625
-0.000198838
-0.000224966
-0.000251276
-0.000277584
-0.000303781
-0.000329834
-0.00035572
-0.000381403
-0.000406839
-0.000431989
-0.000456809
-0.000481258
-0.000505291
-0.000528865
-0.000551936
-0.000574461
-0.000596397
-0.000617701
-0.000638335
-0.000658258
-0.000677435
-0.000695833
-0.000713419
-0.000730169
-0.00074606
-0.000761076
-0.000775206
-0.000788447
-0.000800801
-0.000812286
-0.000822933
-0.000832778
-0.00084186
-0.000850225
-0.00085793
-0.000865037
-0.000871614
-0.000877737
-0.000883482
-0.000888928
-0.000894153
-0.000899227
-0.000904218
-0.000909186
-0.000914183
-0.000919254
-0.000924441
-0.000929773
-0.000935278
-0.000940994
-0.000946959
-0.000953227
-0.000959859
-0.000966926
-0.000974513
-0.000982725
-0.000991683
-0.00100153
-0.0010124
-0.00102437
-0.00103742
-0.00105138
-0.00106593
-0.00108058
-0.00109472
-0.00110779
-0.00111954
-0.00112987
-0.000212099
-0.000239579
-0.000266928
-0.000294456
-0.000321978
-0.000349375
-0.000376609
-0.000403651
-0.000430463
-0.000457
-0.000483214
-0.00050906
-0.000534488
-0.000559452
-0.000583903
-0.00060779
-0.000631067
-0.000653684
-0.000675597
-0.00069676
-0.000717129
-0.000736664
-0.000755325
-0.000773077
-0.000789891
-0.00080574
-0.000820606
-0.000834477
-0.000847348
-0.000859227
-0.000870136
-0.000880109
-0.000889185
-0.000897412
-0.000904851
-0.00091157
-0.000917645
-0.000923164
-0.000928226
-0.000932932
-0.000937384
-0.000941678
-0.000945903
-0.00095014
-0.00095446
-0.000958924
-0.000963579
-0.000968455
-0.000973572
-0.000978949
-0.000984609
-0.000990584
-0.000996936
-0.00100376
-0.00101118
-0.00101936
-0.00102847
-0.00103868
-0.00105011
-0.00106278
-0.00107657
-0.00109116
-0.00110599
-0.00112017
-0.00113254
-0.00114181
-0.001147
-0.00114794
-0.00114555
-0.000252857
-0.000281743
-0.000310468
-0.000339366
-0.00036825
-0.000396995
-0.000425556
-0.000453902
-0.00048199
-0.00050977
-0.000537191
-0.0005642
-0.000590746
-0.000616774
-0.000642231
-0.00066706
-0.000691209
-0.000714624
-0.000737254
-0.000759046
-0.00077995
-0.000799917
-0.000818904
-0.000836868
-0.000853774
-0.000869589
-0.00088429
-0.000897862
-0.000910299
-0.000921609
-0.000931819
-0.000940963
-0.000949083
-0.000956239
-0.000962507
-0.000967975
-0.000972745
-0.000976932
-0.00098066
-0.000984058
-0.000987256
-0.000990381
-0.000993551
-0.000996867
-0.00100041
-0.00100423
-0.00100835
-0.00101281
-0.00101759
-0.00102273
-0.00102825
-0.00103424
-0.00104077
-0.00104799
-0.00105603
-0.00106507
-0.00107526
-0.0010867
-0.00109939
-0.00111323
-0.00112787
-0.00114265
-0.00115646
-0.00116778
-0.00117497
-0.00117665
-0.00117248
-0.0011636
-0.00115359
-0.000292572
-0.000323127
-0.000353482
-0.000384001
-0.000414496
-0.000444835
-0.00047497
-0.000504864
-0.000534469
-0.000563732
-0.000592595
-0.000621002
-0.000648893
-0.000676211
-0.000702895
-0.000728884
-0.000754118
-0.000778535
-0.000802077
-0.000824681
-0.000846292
-0.000866851
-0.000886306
-0.000904607
-0.000921707
-0.000937567
-0.000952156
-0.000965449
-0.00097744
-0.000988136
-0.000997561
-0.00100575
-0.00101275
-0.00101863
-0.00102349
-0.00102743
-0.00103059
-0.00103312
-0.00103517
-0.00103691
-0.0010385
-0.00104011
-0.0010419
-0.00104398
-0.00104648
-0.00104946
-0.00105296
-0.00105701
-0.00106159
-0.0010667
-0.00107238
-0.00107866
-0.00108564
-0.00109338
-0.00110192
-0.00111135
-0.00112177
-0.00113324
-0.00114572
-0.00115889
-0.00117207
-0.00118435
-0.00119444
-0.00120083
-0.00120225
-0.00119805
-0.00118853
-0.00117668
-0.00116749
-0.00033286
-0.000365226
-0.000397472
-0.000429879
-0.000462257
-0.000494472
-0.000526469
-0.000558205
-0.000589628
-0.000620676
-0.000651287
-0.000681397
-0.000710941
-0.000739851
-0.000768059
-0.000795497
-0.000822094
-0.00084778
-0.000872485
-0.000896139
-0.000918673
-0.00094002
-0.000960115
-0.000978893
-0.000996292
-0.00101226
-0.00102674
-0.00103971
-0.00105114
-0.00106104
-0.00106943
-0.00107635
-0.00108186
-0.00108605
-0.00108901
-0.00109089
-0.00109185
-0.00109208
-0.00109179
-0.0010912
-0.00109054
-0.00109007
-0.00109001
-0.00109058
-0.00109195
-0.00109423
-0.00109747
-0.00110164
-0.00110663
-0.00111225
-0.00111833
-0.00112475
-0.00113154
-0.00113876
-0.0011464
-0.00115445
-0.00116295
-0.00117203
-0.00118151
-0.00119067
-0.0011989
-0.00120628
-0.0012125
-0.00121601
-0.00121543
-0.00121064
-0.00120231
-0.00119278
-0.00118537
-0.000365112
-0.000399991
-0.000434563
-0.000469253
-0.000503896
-0.000538349
-0.000572552
-0.000606461
-0.000640023
-0.000673171
-0.000705839
-0.000737955
-0.000769448
-0.000800244
-0.000830266
-0.000859437
-0.000887678
-0.000914911
-0.000941058
-0.00096604
-0.000989783
-0.00101221
-0.00103325
-0.00105283
-0.00107086
-0.00108726
-0.00110198
-0.00111496
-0.00112616
-0.00113557
-0.00114319
-0.00114903
-0.00115316
-0.00115566
-0.00115664
-0.00115628
-0.00115479
-0.00115242
-0.00114947
-0.00114627
-0.00114319
-0.00114057
-0.00113877
-0.00113806
-0.00113863
-0.00114056
-0.00114377
-0.00114805
-0.00115308
-0.00115852
-0.00116403
-0.00116943
-0.00117468
-0.00117975
-0.00118439
-0.00118811
-0.00119073
-0.00119324
-0.00119676
-0.001201
-0.00120547
-0.0012108
-0.00121664
-0.00122043
-0.00122034
-0.0012169
-0.00121125
-0.00120555
-0.00120295
-0.000416287
-0.000453366
-0.000490664
-0.000528102
-0.000565495
-0.000602704
-0.000639661
-0.000676317
-0.000712606
-0.000748453
-0.000783779
-0.000818502
-0.00085254
-0.000885807
-0.000918215
-0.000949671
-0.000980082
-0.00100935
-0.00103738
-0.00106407
-0.00108932
-0.00111304
-0.0011351
-0.00115535
-0.00117366
-0.00118995
-0.00120416
-0.00121622
-0.00122609
-0.00123376
-0.00123922
-0.00124251
-0.00124369
-0.00124289
-0.00124025
-0.00123598
-0.00123034
-0.00122367
-0.00121633
-0.00120877
-0.00120145
-0.00119486
-0.00118951
-0.00118584
-0.0011842
-0.00118473
-0.0011873
-0.00119142
-0.00119627
-0.00120078
-0.00120402
-0.00120568
-0.00120613
-0.00120585
-0.00120506
-0.00120331
-0.00120025
-0.00119761
-0.00119806
-0.0012016
-0.00120638
-0.00121098
-0.0012147
-0.00121689
-0.00121717
-0.00121507
-0.00121172
-0.00120981
-0.00121033
-0.000435942
-0.000475939
-0.000515288
-0.00055495
-0.000594671
-0.000634157
-0.000673324
-0.000712148
-0.000750572
-0.000788517
-0.000825897
-0.000862624
-0.000898615
-0.000933778
-0.00096802
-0.00100124
-0.00103334
-0.00106422
-0.00109379
-0.00112195
-0.00114866
-0.0011739
-0.0011977
-0.0012199
-0.00124011
-0.00125803
-0.00127357
-0.00128666
-0.00129725
-0.00130526
-0.00131062
-0.0013133
-0.00131328
-0.0013106
-0.00130538
-0.00129782
-0.0012882
-0.00127697
-0.00126468
-0.00125202
-0.0012398
-0.00122889
-0.00122011
-0.00121417
-0.00121145
-0.00121194
-0.00121511
-0.00121987
-0.00122466
-0.00122764
-0.00122725
-0.00122332
-0.00121752
-0.00121187
-0.00120789
-0.00120596
-0.0012051
-0.00120435
-0.0012035
-0.00120343
-0.00120486
-0.00120711
-0.00120857
-0.00120852
-0.00120724
-0.00120559
-0.00120479
-0.00120562
-0.00120769
-0.000557443
-0.000600323
-0.00064388
-0.000687415
-0.000730647
-0.000773547
-0.00081611
-0.000858285
-0.000899994
-0.000941147
-0.000981648
-0.0010214
-0.00106029
-0.00109821
-0.00113506
-0.00117069
-0.00120499
-0.00123779
-0.00126893
-0.00129824
-0.00132547
-0.00135038
-0.00137267
-0.00139229
-0.00140947
-0.00142422
-0.0014364
-0.00144578
-0.00145218
-0.0014554
-0.00145529
-0.00145177
-0.00144478
-0.00143437
-0.00142066
-0.00140392
-0.00138453
-0.00136302
-0.00134012
-0.00131667
-0.00129367
-0.0012722
-0.00125332
-0.001238
-0.00122692
-0.0012204
-0.00121821
-0.00121958
-0.00122319
-0.00122725
-0.00123003
-0.00123033
-0.0012274
-0.00122185
-0.00121536
-0.00121023
-0.0012077
-0.00120668
-0.00120596
-0.00120557
-0.00120552
-0.00120536
-0.00120435
-0.00120226
-0.00119964
-0.00119774
-0.0011977
-0.00119961
-0.00120292
0.000232112
0.000236688
0.000241482
0.000246688
0.000252284
0.000258239
0.000264633
0.000271293
0.000278296
0.000285653
0.000293301
0.000301294
0.00030933
0.000318144
0.000326196
0.000334836
0.00034264
0.000350856
0.000358578
0.00036605
0.000373706
0.000379528
0.000385132
0.000389593
0.000393163
0.000395791
0.000396805
0.000396651
0.000395355
0.000392643
0.000388113
0.000382298
0.000375319
0.00036737
0.00035771
0.000347159
0.000335808
0.000323543
0.000310637
0.000297406
0.000283709
0.000269582
0.00025582
0.000242338
0.000228056
0.000214793
0.000201189
0.000188336
0.000175824
0.000163712
0.000152198
0.000141156
0.000130722
0.000120727
0.000111394
0.000102071
9.34747e-05
8.53559e-05
7.77133e-05
0.000235217
0.000239955
0.000245094
0.000250592
0.000256462
0.000262715
0.000269361
0.000276353
0.000283711
0.000291426
0.000299454
0.000307783
0.000316313
0.000325081
0.000333946
0.000342773
0.000351531
0.000360088
0.000368427
0.000376246
0.000383719
0.000390427
0.0003963
0.00040116
0.000404972
0.00040763
0.000408977
0.000408885
0.000407581
0.000404731
0.000400131
0.000394234
0.000387041
0.000378486
0.000368604
0.000357616
0.000345719
0.000333009
0.000319598
0.000305664
0.000291369
0.000276839
0.000262321
0.000247713
0.000233232
0.000219041
0.000205136
0.000191676
0.000178611
0.000165979
0.000153881
0.000142333
0.000131264
0.000120761
0.000110741
0.000101274
9.23236e-05
8.38749e-05
7.58719e-05
0.000238596
0.000243556
0.000248911
0.000254667
0.000260822
0.000267378
0.00027433
0.000281671
0.000289399
0.0002975
0.000305928
0.000314644
0.000323608
0.000332776
0.000342062
0.000351447
0.000360758
0.000369874
0.000378665
0.000386991
0.000394777
0.000401897
0.000408185
0.000413413
0.000417525
0.000420377
0.000421876
0.000421931
0.000420574
0.000417641
0.000413011
0.00040692
0.000399357
0.000390399
0.000380108
0.000368669
0.000356217
0.000342936
0.000328931
0.000314378
0.000299444
0.00028421
0.000268873
0.000253604
0.000238473
0.000223638
0.000209122
0.000194996
0.000181305
0.000168086
0.000155407
0.000143266
0.000131677
0.000120639
0.000110189
0.000100303
9.0942e-05
8.20915e-05
7.37164e-05
0.000241845
0.000247034
0.000252639
0.000258663
0.00026511
0.000271983
0.00027928
0.000286996
0.000295119
0.000303632
0.000312502
0.00032169
0.000331153
0.000340828
0.000350622
0.000360499
0.000370296
0.000379927
0.000389231
0.000398106
0.000406399
0.000413927
0.000420597
0.000426189
0.000430614
0.00043372
0.000435387
0.000435546
0.00043417
0.000431164
0.00042643
0.000420102
0.000412201
0.000402862
0.000392121
0.00038017
0.000367145
0.000353222
0.000338547
0.000323302
0.000307642
0.000291692
0.000275642
0.000259673
0.000243831
0.000228265
0.000213036
0.000198213
0.000183861
0.000170023
0.00015674
0.000144032
0.000131913
0.000120381
0.000109441
9.90743e-05
8.92644e-05
7.99933e-05
7.12337e-05
0.000244883
0.000250315
0.000256186
0.000262501
0.000269262
0.000276474
0.000284138
0.000292246
0.000300789
0.000309745
0.000319086
0.000328771
0.000338752
0.000348961
0.000359313
0.000369725
0.000380074
0.000390253
0.000400117
0.000409536
0.000418347
0.000426358
0.000433448
0.000439426
0.000444175
0.000447545
0.000449409
0.00044967
0.000448298
0.000445215
0.000440338
0.000433768
0.000425541
0.000415791
0.000404576
0.000392075
0.000378444
0.000363853
0.000348473
0.000332487
0.000316068
0.000299373
0.000282574
0.000265824
0.000249221
0.000232888
0.000216914
0.000201375
0.000186334
0.000171839
0.000157925
0.000144614
0.000131918
0.000119839
0.000108374
9.75113e-05
8.72373e-05
7.75283e-05
6.83559e-05
0.00024773
0.000253418
0.000259569
0.000266191
0.000273285
0.000280858
0.000288909
0.000297434
0.000306421
0.000315849
0.000325687
0.000335895
0.00034642
0.000357194
0.000368133
0.00037914
0.000390096