/*--------------------------------*- C++ -*----------------------------------*\
| =========                 |                                                 |
| \\      /  F ield         | OpenFOAM: The Open Source CFD Toolbox           |
|  \\    /   O peration     | Version:  2312                                  |
|   \\  /    A nd           | Website:  www.openfoam.com                      |
|    \\/     M anipulation  |                                                 |
\*---------------------------------------------------------------------------*/
FoamFile
{
    version     2.0;
    format      ascii;
    arch        "LSB;label=32;scalar=64";
    class       surfaceScalarField;
    location    "1800";
    object      phi;
}
// * * * * * * * * * * * * * * * * * * * * * * * * * * * * * * * * * * * * * //

dimensions      [0 3 -1 0 0 0 0];

oriented        oriented;

internalField   nonuniform List<scalar> 
116611
(
0.00119329
0.000414364
-0.00117754
-0.00043011
0.00120893
0.000410327
-0.000425975
0.00122441
0.000405971
-0.000421445
0.00123971
0.000401278
-0.000416575
0.00125483
0.000396256
-0.000411382
0.00126998
0.000390876
-0.000406023
0.00128468
0.000385125
-0.000399825
0.00129937
0.000379004
-0.000393693
0.00131363
0.000372453
-0.000386712
0.00132773
0.000365489
-0.000379589
0.00134156
0.00035809
-0.000371926
0.00135519
0.000350265
-0.000363893
0.00136849
0.000342008
-0.000355314
0.00138144
0.000333259
-0.000346206
0.00139411
0.000324064
-0.000336737
0.00140627
0.000314366
-0.000326525
0.00141828
0.000304148
-0.000316151
0.00142979
0.000293456
-0.000304965
0.00144096
0.000282156
-0.000293331
0.00145164
0.000270393
-0.000281074
0.00146198
0.000258003
-0.000268343
0.00147176
0.000245074
-0.000254848
0.00148101
0.000231533
-0.000240787
0.00148987
0.000217461
-0.000226324
0.00149821
0.000202779
-0.00021112
0.00150607
0.000187463
-0.000195315
0.00151338
0.000171487
-0.0001788
0.00152001
0.00015492
-0.000161552
0.00152633
0.000137754
-0.000144076
0.00153173
0.000119904
-0.000125301
0.0015368
0.000101492
-0.000106559
0.00154112
8.22288e-05
-8.65551e-05
0.00154488
6.23423e-05
-6.6099e-05
0.0015479
4.18105e-05
-4.48322e-05
0.0015503
2.05532e-05
-2.2954e-05
0.00155189
-1.31378e-06
-2.73274e-07
0.00155308
-2.38673e-05
2.26773e-05
0.00155339
-4.71484e-05
4.68381e-05
0.00155296
-7.11233e-05
7.15553e-05
0.00155158
-9.58973e-05
9.72737e-05
0.00154951
-0.000121216
0.000123291
0.00154685
-0.000147215
0.000149871
0.00154312
-0.000173948
0.000177674
0.00153855
-0.000201287
0.000205858
0.00153303
-0.000229276
0.000234796
0.0015268
-0.000257807
0.000264039
0.00151959
-0.00028699
0.000294204
0.00151124
-0.000316725
0.000325075
0.00150208
-0.000346897
0.000356053
0.00149198
-0.00037755
0.000387646
0.00148079
-0.000408685
0.000419882
0.00146866
-0.000440139
0.000452261
0.00145553
-0.000471932
0.00048507
0.00144119
-0.000504044
0.000518377
0.00142546
-0.000536321
0.000552056
0.00140914
-0.000568455
0.000584773
0.00139127
-0.000600758
0.000618628
0.00137249
-0.000632768
0.000651549
0.00135256
-0.000664472
0.000684402
0.00133131
-0.000695741
0.000716991
0.00130907
-0.000726337
0.000748579
0.0012854
-0.000756305
0.000779974
0.00126058
-0.000784983
0.000809801
0.00123424
-0.000812256
0.000838593
0.00120623
-0.000837525
0.000865535
0.00117733
-0.000859977
0.000888885
0.00114686
-0.000879425
0.000909887
0.00111322
-0.00089548
0.000929128
-0.000906591
0.0010774
0.000942402
0.00117885
0.000398694
-0.00116318
0.00119437
0.000394806
0.00120975
0.000390599
0.00122496
0.000386066
0.00124003
0.000381182
0.00125494
0.000375972
0.00126966
0.000370408
0.00128418
0.000364474
0.00129848
0.000358161
0.00131253
0.000351437
0.00132632
0.000344297
0.00133985
0.000336739
0.00135311
0.000328745
0.00136607
0.000320304
0.00137871
0.000311425
0.00139101
0.000302059
0.00140295
0.000292212
0.00141455
0.000281858
0.00142571
0.000270989
0.00143652
0.000259591
0.00144687
0.000247651
0.00145677
0.000235167
0.00146619
0.000222115
0.00147515
0.000208501
0.00148363
0.000194302
0.0014916
0.000179489
0.00149901
0.00016408
0.00150587
0.000148063
0.00151219
0.000131428
0.00151792
0.000114176
0.00152314
9.62692e-05
0.00152769
7.76852e-05
0.00153157
5.84531e-05
0.00153482
3.85622e-05
0.00153737
1.80024e-05
0.00153927
-3.21261e-06
0.0015405
-2.50973e-05
0.001541
-4.76508e-05
0.00154078
-7.08997e-05
0.00153973
-9.48414e-05
0.00153793
-0.000119419
0.00153535
-0.000144634
0.0015319
-0.0001705
0.00152762
-0.000197006
0.00152246
-0.000224119
0.00151646
-0.000251803
0.00150952
-0.000280051
0.00150163
-0.000308841
0.00149284
-0.000338108
0.00148311
-0.000367816
0.00147237
-0.000397947
0.00146066
-0.000428428
0.00144794
-0.000459207
0.00143413
-0.000490236
0.00141922
-0.000521415
0.00140335
-0.000552585
0.00138632
-0.000583728
0.00136824
-0.000614688
0.00134909
-0.000645324
0.00132887
-0.000675513
0.00130758
-0.000705055
0.00128505
-0.000733767
0.00126132
-0.000761254
0.00123622
-0.000787157
0.00120965
-0.000810957
0.00118165
-0.000831976
0.00115195
-0.000849724
0.00112011
-0.000863648
-0.000872596
0.00108612
0.00116501
0.000383118
-0.00114944
0.00118046
0.000379364
0.00119576
0.000375297
0.00121091
0.000370915
0.00122588
0.000366206
0.00124069
0.000361165
0.00125532
0.000355779
0.00126976
0.000350037
0.00128399
0.000343929
0.00129799
0.000337438
0.00131173
0.000330553
0.00132521
0.00032326
0.00133841
0.000315546
0.00135131
0.000307399
0.00136392
0.000298815
0.00137621
0.000289776
0.00138815
0.000280268
0.00139973
0.000270276
0.00141094
0.000259786
0.00142174
0.000248785
0.00143213
0.000237264
0.00144208
0.000225211
0.00145159
0.000212614
0.00146062
0.000199464
0.00146918
0.000185747
0.00147722
0.000171448
0.00148474
0.000156562
0.00149172
0.000141079
0.00149816
0.000124993
0.00150404
0.000108292
0.00150934
9.09663e-05
0.00151402
7.30052e-05
0.00151808
5.44022e-05
0.00152149
3.51528e-05
0.00152423
1.5256e-05
0.00152631
-5.28848e-06
0.0015277
-2.64858e-05
0.00152838
-4.83386e-05
0.00152834
-7.08544e-05
0.00152752
-9.40261e-05
0.00152594
-0.000117836
0.00152358
-0.000142271
0.00152041
-0.000167332
0.00151641
-0.000193008
0.00151156
-0.000219271
0.00150586
-0.000246098
0.00149927
-0.000273466
0.00149178
-0.000301352
0.00148339
-0.000329709
0.00147407
-0.000358497
0.0014638
-0.000387681
0.00145258
-0.000417207
0.00144039
-0.000447014
0.00142719
-0.000477041
0.00141298
-0.000507204
0.00139778
-0.000537389
0.00138157
-0.000567517
0.00136436
-0.000597471
0.00134614
-0.000627106
0.0013269
-0.000656271
0.0013066
-0.000684762
0.00128516
-0.000712323
0.0012625
-0.000738593
0.00123848
-0.000763141
0.00121298
-0.00078546
0.00118595
-0.000804945
0.00115728
-0.000821046
0.00112679
-0.000833161
-0.000840264
0.00109446
0.00115177
0.00036759
-0.00113624
0.00116716
0.000363974
0.0011824
0.000360053
0.00119749
0.000355826
0.00121241
0.000351286
0.00122716
0.000346422
0.00124171
0.000341224
0.00125607
0.00033568
0.00127022
0.000329779
0.00128414
0.000323513
0.00129783
0.00031687
0.00131125
0.000309836
0.0013244
0.000302398
0.00133726
0.000294542
0.00134981
0.000286258
0.00136205
0.000277537
0.00137396
0.000268361
0.00138552
0.000258718
0.00139671
0.000248596
0.00140751
0.000237983
0.00141791
0.000226868
0.00142788
0.000215237
0.00143741
0.000203081
0.00144649
0.000190389
0.00145509
0.000177146
0.0014632
0.00016334
0.0014708
0.000148962
0.00147787
0.000134006
0.0014844
0.000118464
0.00149037
0.000102323
0.00149576
8.55744e-05
0.00150056
6.82099e-05
0.00150474
5.022e-05
0.00150829
3.16008e-05
0.00151119
1.2352e-05
0.00151343
-7.52907e-06
0.001515
-2.8048e-05
0.00151586
-4.92049e-05
0.00151601
-7.10005e-05
0.00151541
-9.34307e-05
0.00151406
-0.000116486
0.00151195
-0.000140154
0.00150904
-0.000164429
0.00150533
-0.000189297
0.0015008
-0.000214737
0.00149543
-0.000240728
0.00148921
-0.000267245
0.00148212
-0.000294261
0.00147415
-0.000321737
0.00146528
-0.000349635
0.00145552
-0.000377914
0.00144483
-0.000406522
0.00143322
-0.000435402
0.00142066
-0.000464488
0.00140716
-0.000493702
0.00139272
-0.00052295
0.00137734
-0.000552135
0.00136101
-0.000581142
0.00134373
-0.000609821
0.00132545
-0.000637996
0.00130613
-0.000665439
0.00128566
-0.000691854
0.00126394
-0.000716871
0.00124084
-0.000740044
0.00121626
-0.00076088
0.00119015
-0.000778835
0.00116249
-0.000793382
0.0011333
-0.000803973
-0.000809756
0.00110279
0.00113906
0.000352087
-0.00112356
0.00115442
0.000348613
0.00116963
0.000344844
0.00118468
0.000340778
0.00119955
0.000336408
0.00121425
0.000331725
0.00122876
0.000326718
0.00124306
0.000321378
0.00125714
0.000315693
0.001271
0.000309653
0.00128462
0.00030325
0.00129799
0.000296471
0.00131108
0.000289303
0.00132389
0.000281732
0.0013364
0.000273748
0.0013486
0.00026534
0.00136047
0.000256493
0.00137199
0.000247194
0.00138316
0.000237431
0.00139394
0.000227196
0.00140433
0.000216478
0.00141431
0.000205262
0.00142385
0.000193537
0.00143295
0.000181293
0.00144158
0.000168516
0.00144973
0.000155192
0.00145737
0.000141314
0.0014645
0.000126878
0.00147109
0.000111872
0.00147714
9.62803e-05
0.00148262
8.00959e-05
0.00148751
6.33137e-05
0.00149181
4.59259e-05
0.00149548
2.79266e-05
0.00149852
9.31379e-06
0.00150091
-9.91751e-06
0.00150263
-2.9771e-05
0.00150367
-5.02451e-05
0.00150401
-7.13391e-05
0.00150363
-9.30494e-05
0.00150251
-0.000115369
0.00150064
-0.000138288
0.00149801
-0.000161797
0.0014946
-0.000185882
0.00149039
-0.000210526
0.00148536
-0.000235707
0.00147952
-0.0002614
0.00147284
-0.000287579
0.00146531
-0.000314208
0.00145692
-0.00034125
0.00144767
-0.000368662
0.00143755
-0.000396397
0.00142654
-0.000424398
0.00141466
-0.000452599
0.00140188
-0.000480927
0.00138822
-0.00050929
0.00137367
-0.000537584
0.00135821
-0.000565683
0.00134181
-0.000593424
0.00132442
-0.000620606
0.00130595
-0.000646972
0.00128631
-0.000672204
0.00126536
-0.000695926
0.00124302
-0.000717703
0.00121922
-0.000737081
0.00119396
-0.000753572
0.00116728
-0.000766705
0.0011393
-0.000775996
-0.000780677
0.00111022
0.00112686
0.000336599
-0.00111137
0.0011422
0.000333269
0.00115739
0.000329654
0.00117242
0.000325752
0.00118727
0.000321556
0.00120194
0.000317058
0.00121641
0.000312247
0.00123068
0.000307114
0.00124472
0.000301647
0.00125854
0.000295837
0.00127211
0.000289675
0.00128543
0.000283152
0.00129848
0.000276252
0.00131125
0.000268964
0.00132372
0.000261276
0.00133588
0.000253177
0.00134772
0.000244658
0.00135921
0.000235704
0.00137034
0.000226298
0.00138111
0.000216433
0.00139148
0.000206104
0.00140145
0.000195295
0.00141099
0.000183995
0.00142009
0.000172193
0.00142873
0.000159878
0.00143689
0.000147033
0.00144455
0.000133646
0.00145172
0.000119713
0.00145836
0.000105225
0.00146447
9.01718e-05
0.00147003
7.4543e-05
0.00147501
5.83331e-05
0.0014794
4.1535e-05
0.00148318
2.41421e-05
0.00148634
6.15111e-06
0.00148887
-1.24446e-05
0.00149075
-3.16468e-05
0.00149196
-5.1454e-05
0.00149248
-7.18647e-05
0.00149231
-9.28755e-05
0.00149142
-0.00011448
0.0014898
-0.000136671
0.00148744
-0.000159437
0.00148432
-0.000182764
0.00148044
-0.000206638
0.00147577
-0.000231036
0.0014703
-0.000255937
0.00146403
-0.000281312
0.00145696
-0.000307129
0.00144906
-0.000333353
0.00144034
-0.000359943
0.00143079
-0.00038685
0.00142041
-0.00041402
0.0014092
-0.000441388
0.00139715
-0.000468877
0.00138426
-0.000496394
0.0013705
-0.000523823
0.00135584
-0.000551022
0.00134022
-0.000577807
0.00132357
-0.000603954
0.00130578
-0.000629189
0.00128677
-0.000653186
0.00126642
-0.000675582
0.00124469
-0.000695975
0.00122158
-0.000713963
0.00119712
-0.000729114
0.00117143
-0.00074102
0.0011447
-0.000749261
-0.000753143
0.00111716
0.0011152
0.000321128
-0.00109973
0.00113053
0.00031794
0.0011457
0.000314478
0.00116071
0.000310741
0.00117555
0.000306721
0.0011902
0.000302409
0.00120465
0.000297796
0.00121889
0.000292872
0.00123291
0.000287626
0.0012467
0.000282049
0.00126024
0.00027613
0.00127353
0.000269862
0.00128656
0.000263232
0.00129929
0.000256227
0.00131173
0.000248837
0.00132386
0.00024105
0.00133566
0.000232856
0.00134712
0.000224243
0.00135823
0.000215196
0.00136895
0.000205704
0.0013793
0.000195758
0.00138925
0.00018535
0.00139877
0.000174467
0.00140787
0.0001631
0.00141651
0.000151235
0.00142469
0.000138857
0.00143238
0.000125953
0.00143958
0.000112515
0.00144626
9.85386e-05
0.00145242
8.40127e-05
0.00145804
6.89287e-05
0.00146309
5.32789e-05
0.00146757
3.70563e-05
0.00147146
2.02547e-05
0.00147474
2.87036e-06
0.0014774
-1.51048e-05
0.00147942
-3.36711e-05
0.0014808
-5.28274e-05
0.00148151
-7.25725e-05
0.00148153
-9.29032e-05
0.00148087
-0.000113814
0.00147949
-0.000135298
0.0014774
-0.000157344
0.00147458
-0.00017994
0.00147101
-0.000203071
0.00146669
-0.000226717
0.00146161
-0.000250856
0.00145576
-0.000275463
0.00144914
-0.000300508
0.00144174
-0.000325954
0.00143356
-0.000351763
0.0014246
-0.000377886
0.00141484
-0.000404268
0.0014043
-0.00043084
0.00139294
-0.000457519
0.00138075
-0.000484201
0.00136768
-0.000510754
0.00135367
-0.000537019
0.00133866
-0.000562794
0.00132255
-0.000587841
0.00130524
-0.000611883
0.00128667
-0.00063461
0.00126677
-0.000655687
0.00124556
-0.00067476
0.00122307
-0.00069148
0.00119942
-0.000705463
0.00117477
-0.000716366
0.0011493
-0.000723789
-0.000727092
0.00112325
0.00110412
0.000305684
-0.00108867
0.00111942
0.000302633
0.00113458
0.000299321
0.00114957
0.000295746
0.00116439
0.000291901
0.00117903
0.000287775
0.00119346
0.00028336
0.00120769
0.000278645
0.00122169
0.000273621
0.00123547
0.000268278
0.00124899
0.000262605
0.00126226
0.000256594
0.00127525
0.000250235
0.00128797
0.000243516
0.00130038
0.000236424
0.00131248
0.000228951
0.00132425
0.000221083
0.00133568
0.00021281
0.00134676
0.000204118
0.00135747
0.000194996
0.00136779
0.000185434
0.00137772
0.000175422
0.00138724
0.00016495
0.00139633
0.00015401
0.00140498
0.000142585
0.00141317
0.000130664
0.00142089
0.000118235
0.00142812
0.000105288
0.00143484
9.18149e-05
0.00144104
7.78078e-05
0.00144672
6.32576e-05
0.00145184
4.81563e-05
0.0014564
3.2497e-05
0.00146038
1.62733e-05
0.00146377
-5.18846e-07
0.00146655
-1.78881e-05
0.00146871
-3.58338e-05
0.00147024
-5.43557e-05
0.00147112
-7.34531e-05
0.00147134
-9.31232e-05
0.00147089
-0.000113361
0.00146975
-0.000134161
0.00146792
-0.000155513
0.00146539
-0.000177405
0.00146214
-0.000199822
0.00145817
-0.000222748
0.00145348
-0.000246162
0.00144805
-0.000270038
0.00144189
-0.000294347
0.00143499
-0.000319054
0.00142735
-0.000344119
0.00141895
-0.000369491
0.00140979
-0.000395108
0.00139985
-0.000420896
0.00138908
-0.000446758
0.00137746
-0.000472577
0.00136491
-0.000498206
0.00135136
-0.000523471
0.00133673
-0.000548163
0.00132094
-0.000572048
0.00130392
-0.00059486
0.00128563
-0.000616324
0.00126608
-0.000636143
0.00124534
-0.000654014
0.0012235
-0.000669637
0.00120071
-0.000682675
0.00117718
-0.000692834
0.00115308
-0.000699692
-0.000702599
0.00112859
0.00109367
0.000290271
-0.00107826
0.00110895
0.000287356
0.00112408
0.000284191
0.00113905
0.000280775
0.00115385
0.000277101
0.00116846
0.00027316
0.00118288
0.000268941
0.00119709
0.000264435
0.00121108
0.000259633
0.00122483
0.000254523
0.00123834
0.000249097
0.00125159
0.000243345
0.00126457
0.000237258
0.00127726
0.000230823
0.00128965
0.000224031
0.00130174
0.000216869
0.00131349
0.000209327
0.00132491
0.000201393
0.00133597
0.000193054
0.00134667
0.0001843
0.00135698
0.00017512
0.0013669
0.000165502
0.00137642
0.000155437
0.00138551
0.000144917
0.00139416
0.000133929
0.00140237
0.00012246
0.0014101
0.000110499
0.00141736
9.80348e-05
0.00142411
8.5059e-05
0.00143036
7.15626e-05
0.00143608
5.75369e-05
0.00144126
4.2974e-05
0.00144589
2.78667e-05
0.00144996
1.22088e-05
0.00145344
-4.00484e-06
0.00145634
-2.07822e-05
0.00145862
-3.81229e-05
0.0014603
-5.60278e-05
0.00146134
-7.44966e-05
0.00146174
-9.35274e-05
0.0014615
-0.000113116
0.0014606
-0.000133257
0.00145902
-0.000153941
0.00145678
-0.000175158
0.00145385
-0.000196895
0.00145023
-0.000219134
0.00144593
-0.000241854
0.00144092
-0.000265033
0.00143521
-0.000288638
0.00142879
-0.000312633
0.00142165
-0.000336973
0.00141376
-0.000361601
0.0014051
-0.000386447
0.00139562
-0.000411424
0.00138529
-0.000436424
0.00137403
-0.000461316
0.00136177
-0.000485947
0.00134844
-0.000510138
0.00133396
-0.000533687
0.00131829
-0.000556378
0.00130141
-0.000577974
0.00128332
-0.000598238
0.00126409
-0.000616914
0.00124383
-0.000633752
0.00122268
-0.000648489
0.00120085
-0.000660836
0.00117856
-0.000670545
0.00115607
-0.000677204
-0.000680365
0.00113383
0.0010839
0.000274893
-0.00106853
0.00109915
0.000272111
0.00111425
0.000269092
0.00112919
0.000265834
0.00114396
0.000262329
0.00115855
0.000258569
0.00117295
0.000254545
0.00118714
0.000250246
0.00120111
0.000245663
0.00121484
0.000240787
0.00122833
0.000235607
0.00124157
0.000230113
0.00125453
0.000224297
0.0012672
0.000218146
0.00127958
0.000211651
0.00129165
0.0002048
0.0013034
0.000197582
0.0013148
0.000189986
0.00132586
0.000181999
0.00133655
0.00017361
0.00134686
0.000164809
0.00135678
0.000155584
0.00136629
0.000145926
0.00137538
0.000135825
0.00138404
0.000125271
0.00139225
0.00011425
0.0014
0.000102751
0.00140727
9.07639e-05
0.00141405
7.82783e-05
0.00142033
6.5285e-05
0.00142609
5.17752e-05
0.00143132
3.77408e-05
0.00143601
2.31742e-05
0.00144015
8.06952e-06
0.00144373
-7.58035e-06
0.00144673
-2.37814e-05
0.00144914
-4.05346e-05
0.00145095
-5.78416e-05
0.00145216
-7.57026e-05
0.00145275
-9.41164e-05
0.00145271
-0.00011308
0.00145204
-0.000132588
0.00145073
-0.000152632
0.00144878
-0.000173203
0.00144617
-0.000194286
0.0014429
-0.000215866
0.00143897
-0.000237919
0.00143435
-0.00026042
0.00142905
-0.000283335
0.00142304
-0.000306621
0.00141629
-0.000330225
0.00140877
-0.000354082
0.00140044
-0.000378112
0.00139123
-0.000402217
0.00138109
-0.000426281
0.00136994
-0.000450171
0.00135773
-0.000473732
0.00134439
-0.000496799
0.00132989
-0.000519187
0.00131422
-0.000540708
0.0012974
-0.000561157
0.0012795
-0.000580339
0.00126062
-0.000598033
0.0012409
-0.000614037
0.00122053
-0.000628116
0.00119973
-0.000640037
0.00117876
-0.000649571
0.00115791
-0.000656362
-0.000660212
0.00113776
0.00107486
0.000259546
-0.00105951
0.00109007
0.000256899
0.00110514
0.000254024
0.00112005
0.000250922
0.0011348
0.000247586
0.00114936
0.000244007
0.00116373
0.000240175
0.00117789
0.000236082
0.00119184
0.000231718
0.00120555
0.000227073
0.00121902
0.000222137
0.00123223
0.000216901
0.00124518
0.000211354
0.00125784
0.000205486
0.0012702
0.000199287
0.00128226
0.000192746
0.00129399
0.000185851
0.00130538
0.00017859
0.00131643
0.000170953
0.00132711
0.000162929
0.00133741
0.000154505
0.00134732
0.000145672
0.00135683
0.000136419
0.00136592
0.000126736
0.00137458
0.000116611
0.0013828
0.000106034
0.00139055
9.49926e-05
0.00139784
8.34761e-05
0.00140465
7.1474e-05
0.00141096
5.89764e-05
0.00141676
4.5974e-05
0.00142204
3.2458e-05
0.00142679
1.84208e-05
0.00143101
3.85613e-06
0.00143467
-1.12446e-05
0.00143777
-2.68857e-05
0.00144031
-4.30693e-05
0.00144227
-5.97977e-05
0.00144363
-7.70718e-05
0.00144441
-9.48907e-05
0.00144458
-0.000113252
0.00144414
-0.00013215
0.00144309
-0.000151577
0.00144141
-0.000171522
0.00143909
-0.000191971
0.00143613
-0.000212904
0.00143251
-0.000234297
0.00142821
-0.000256116
0.00142319
-0.000278324
0.00141744
-0.000300869
0.00141091
-0.000323691
0.00140354
-0.000346717
0.00139529
-0.00036986
0.00138609
-0.000393017
0.00137588
-0.000416075
0.00136462
-0.000438903
0.00135225
-0.000461362
0.00133875
-0.000483304
0.00132413
-0.000504569
0.00130843
-0.000525
0.00129169
-0.000544423
0.00127403
-0.00056268
0.00125558
-0.000579578
0.0012365
-0.000594961
0.001217
-0.000608615
0.00119733
-0.000620364
0.00117774
-0.000629983
0.00115859
-0.000637209
-0.000641924
0.0011403
0.00106658
0.000244228
-0.00105126
0.00108177
0.000241715
0.00109681
0.000238985
0.00111169
0.00023604
0.0011264
0.000232872
0.00114094
0.000229472
0.00115528
0.000225833
0.00116942
0.000221944
0.00118334
0.000217798
0.00119703
0.000213383
0.00121047
0.00020869
0.00122366
0.00020371
0.00123659
0.000198432
0.00124923
0.000192846
0.00126157
0.000186942
0.00127361
0.000180708
0.00128532
0.000174135
0.00129671
0.00016721
0.00130774
0.000159921
0.00131841
0.000152259
0.0013287
0.000144212
0.0013386
0.000135768
0.00134811
0.000126917
0.00135719
0.000117648
0.00136586
0.00010795
0.00137408
9.78123e-05
0.00138185
8.72227e-05
0.00138915
7.61704e-05
0.00139598
6.46445e-05
0.00140232
5.26345e-05
0.00140817
4.01305e-05
0.0014135
2.71233e-05
0.00141832
1.36047e-05
0.00142261
-4.3238e-07
0.00142636
-1.49972e-05
0.00142957
-3.00931e-05
0.00143222
-4.57231e-05
0.00143431
-6.189e-05
0.00143584
-7.85946e-05
0.00143678
-9.58359e-05
0.00143714
-0.000113611
0.0014369
-0.000131913
0.00143606
-0.000150733
0.00143459
-0.000170057
0.00143249
-0.000189868
0.00142973
-0.000210142
0.00142628
-0.000230849
0.00142212
-0.000251951
0.00141719
-0.000273403
0.00141147
-0.000295147
0.0014049
-0.000317119
0.00139743
-0.000339243
0.001389
-0.00036143
0.00137956
-0.000383583
0.00136908
-0.000405596
0.00135753
-0.000427353
0.0013449
-0.000448732
0.0013312
-0.000469606
0.00131648
-0.000489841
0.00130078
-0.000509307
0.00128422
-0.000527855
0.0012669
-0.000545363
0.00124898
-0.000561659
0.00123065
-0.000576634
0.00121213
-0.000590089
0.00119367
-0.000601911
0.00117558
-0.000611887
0.00115822
-0.000619851
-0.000625754
0.00114205
0.00105912
0.000228932
-0.00104382
0.00107428
0.000226554
0.00108929
0.00022397
0.00110415
0.000221182
0.00111884
0.000218182
0.00113335
0.000214963
0.00114767
0.000211516
0.00116178
0.000207832
0.00117567
0.000203902
0.00118934
0.000199717
0.00120276
0.000195266
0.00121593
0.000190541
0.00122883
0.000185531
0.00124145
0.000180226
0.00125378
0.000174616
0.0012658
0.00016869
0.0012775
0.000162436
0.00128886
0.000155845
0.00129988
0.000148904
0.00131054
0.000141602
0.00132082
0.000133928
0.00133072
0.000125871
0.00134021
0.000117419
0.0013493
0.000108562
0.00135796
9.92871e-05
0.00136619
8.9584e-05
0.00137397
7.9441e-05
0.0013813
6.88467e-05
0.00138815
5.779e-05
0.00139453
4.626e-05
0.00140041
3.42461e-05
0.0014058
2.17388e-05
0.00141067
8.72927e-06
0.00141503
-4.79052e-06
0.00141886
-1.88293e-05
0.00142216
-3.33901e-05
0.00142491
-4.84766e-05
0.00142711
-6.40908e-05
0.00142875
-8.02328e-05
0.00142981
-9.69004e-05
0.00143029
-0.000114088
0.00143017
-0.000131788
0.00142942
-0.000149987
0.00142803
-0.000168668
0.00142598
-0.00018781
0.00142322
-0.000207383
0.00141972
-0.000227353
0.00141545
-0.000247679
0.00141036
-0.00026831
0.0014044
-0.000289189
0.00139753
-0.00031025
0.00138971
-0.000331421
0.0013809
-0.00035262
0.00137107
-0.000373758
0.00136022
-0.000394743
0.00134834
-0.000415475
0.00133546
-0.000435849
0.00132161
-0.000455759
0.00130686
-0.000475092
0.0012913
-0.000493741
0.00127502
-0.000511579
0.00125817
-0.000528516
0.00124091
-0.000544399
0.00122344
-0.000559164
0.00120599
-0.000572639
0.00118886
-0.000584775
0.00117238
-0.000595408
0.00115703
-0.000604505
-0.000612071
0.00114335
0.00105253
0.000213652
-0.00103725
0.00106768
0.000211409
0.00108268
0.000208972
0.00109752
0.000206342
0.00111219
0.000203512
0.00112668
0.000200473
0.00114097
0.000197219
0.00115507
0.00019374
0.00116894
0.000190026
0.00118259
0.00018607
0.00119599
0.000181862
0.00120914
0.000177391
0.00122203
0.000172648
0.00123463
0.000167624
0.00124694
0.000162307
0.00125894
0.000156687
0.00127063
0.000150752
0.00128198
0.000144493
0.00129298
0.000137898
0.00130363
0.000130955
0.00131391
0.000123652
0.0013238
0.00011598
0.00133329
0.000107925
0.00134238
9.94757e-05
0.00135104
9.06216e-05
0.00135928
8.13504e-05
0.00136707
7.16505e-05
0.0013744
6.15104e-05
0.00138128
5.09186e-05
0.00138767
3.98639e-05
0.00139358
2.83357e-05
0.001399
1.6324e-05
0.00140391
3.82013e-06
0.0014083
-9.1854e-06
0.00141217
-2.26988e-05
0.0014155
-3.67234e-05
0.00141829
-5.12621e-05
0.00142051
-6.63156e-05
0.00142216
-8.18822e-05
0.00142322
-9.79575e-05
0.00142367
-0.000114534
0.00142348
-0.000131599
0.00142263
-0.000149138
0.00142109
-0.00016713
0.00141883
-0.00018555
0.00141581
-0.000204366
0.001412
-0.000223542
0.00140736
-0.000243036
0.00140185
-0.000262798
0.00139543
-0.000282773
0.00138808
-0.000302901
0.00137978
-0.000323116
0.0013705
-0.000343345
0.00136026
-0.000363513
0.00134905
-0.000383539
0.00133691
-0.000403336
0.00132388
-0.000422817
0.00131001
-0.000441893
0.00129539
-0.000460467
0.0012801
-0.000478452
0.00126426
-0.000495743
0.00124802
-0.000512276
0.00123155
-0.00052792
0.00121504
-0.000542663
0.00119878
-0.000556371
0.00118309
-0.000569091
0.00116847
-0.000580784
0.0011556
-0.000591633
-0.000601924
0.00114545
0.00104694
0.000198378
-0.00103167
0.00106208
0.000196272
0.00107707
0.000193982
0.0010919
0.000191511
0.00110656
0.00018885
0.00112104
0.000185994
0.00113533
0.000182932
0.00114941
0.000179658
0.00116327
0.000176162
0.00117691
0.000172435
0.0011903
0.000168468
0.00120344
0.000164252
0.00121632
0.000159776
0.00122891
0.000155032
0.00124121
0.000150007
0.0012532
0.000144693
0.00126487
0.000139078
0.00127622
0.000133151
0.00128721
0.000126901
0.00129785
0.000120316
0.00130812
0.000113385
0.001318
0.000106096
0.00132749
9.84379e-05
0.00133657
9.03982e-05
0.00134522
8.19654e-05
0.00135345
7.31274e-05
0.00136123
6.38726e-05
0.00136855
5.41892e-05
0.0013754
4.40657e-05
0.00138177
3.34908e-05
0.00138765
2.2454e-05
0.00139303
1.09455e-05
0.0013979
-1.04333e-06
0.00140223
-1.35216e-05
0.00140603
-2.64931e-05
0.00140926
-3.99609e-05
0.00141193
-5.39267e-05
0.001414
-6.83896e-05
0.00141547
-8.33462e-05
0.0014163
-9.87898e-05
0.00141648
-0.000114711
0.00141597
-0.000131095
0.00141476
-0.000147925
0.00141281
-0.000165179
0.00141009
-0.00018283
0.00140657
-0.000200848
0.00140222
-0.000219197
0.00139702
-0.000237836
0.00139095
-0.00025672
0.00138397
-0.0002758
0.0013761
-0.000295022
0.00136731
-0.000314328
0.00135762
-0.000333654
0.00134704
-0.000352935
0.0013356
-0.000372102
0.00132335
-0.000391081
0.00131033
-0.000409798
0.00129661
-0.000428175
0.00128228
-0.000446135
0.00126743
-0.000463605
0.00125219
-0.000480503
0.0012367
-0.00049679
0.00122115
-0.000512367
0.00120577
-0.000527286
0.00119089
-0.000541484
0.00117696
-0.000555161
0.00116466
-0.000568491
0.00115495
-0.000581914
-0.000596675
0.0011497
0.00104252
0.0001831
-0.00102724
0.00105766
0.000181131
0.00107265
0.00017899
0.00108749
0.000176678
0.00110215
0.000174189
0.00111663
0.000171514
0.00113091
0.000168647
0.00114499
0.000165578
0.00115885
0.0001623
0.00117249
0.000158803
0.00118588
0.000155079
0.00119901
0.000151118
0.00121188
0.000146911
0.00122446
0.000142447
0.00123675
0.000137718
0.00124873
0.000132711
0.00126039
0.000127418
0.00127172
0.000121826
0.00128269
0.000115925
0.00129331
0.000109702
0.00130354
0.000103148
0.00131339
9.62493e-05
0.00132283
8.89949e-05
0.00133186
8.13727e-05
0.00134045
7.3371e-05
0.0013486
6.49777e-05
0.00135629
5.6181e-05
0.00136351
4.69692e-05
0.00137025
3.73309e-05
0.00137648
2.72552e-05
0.00138221
1.67316e-05
0.0013874
5.75088e-06
0.00139205
-5.69553e-06
0.00139615
-1.76146e-05
0.00139966
-3.00097e-05
0.00140259
-4.28835e-05
0.0014049
-5.62367e-05
0.00140657
-7.00677e-05
0.0014076
-8.4372e-05
0.00140795
-9.91421e-05
0.00140761
-0.000114367
0.00140655
-0.000130034
0.00140475
-0.000146123
0.00140218
-0.000162615
0.00139883
-0.000179482
0.00139468
-0.000196697
0.00138971
-0.000214226
0.00138391
-0.000232033
0.00137727
-0.000250076
0.00136978
-0.000268313
0.00136145
-0.000286694
0.00135229
-0.00030517
0.00134233
-0.000323687
0.00133158
-0.000342187
0.00132009
-0.00036061
0.0013079
-0.000378895
0.00129508
-0.000396976
0.00128169
-0.000414791
0.00126784
-0.000432277
0.00125361
-0.000449377
0.00123914
-0.000466038
0.0012246
-0.000482249
0.00121021
-0.000497977
0.00119629
-0.00051336
0.00118328
-0.000528474
0.00117184
-0.000543719
0.00116286
-0.000559516
0.00115734
-0.000576395
-0.000595653
0.00115632
0.00103949
0.000167813
-0.0010242
0.00105463
0.000165985
0.00106963
0.000163995
0.00108446
0.000161844
0.00109912
0.000159528
0.0011136
0.000157038
0.00112788
0.000154367
0.00114195
0.000151507
0.0011558
0.00014845
0.00116941
0.000145187
0.00118278
0.000141709
0.00119589
0.000138009
0.00120873
0.000134075
0.00122128
0.000129899
0.00123352
0.000125471
0.00124545
0.000120781
0.00125705
0.000115819
0.00126831
0.000110572
0.0012792
0.000105032
0.00128972
9.91855e-05
0.00129984
9.30222e-05
0.00130956
8.65303e-05
0.00131886
7.96981e-05
0.00132772
7.25137e-05
0.00133612
6.49652e-05
0.00134406
5.70408e-05
0.00135151
4.87286e-05
0.00135846
4.00169e-05
0.0013649
3.08945e-05
0.0013708
2.13503e-05
0.00137616
1.13743e-05
0.00138096
9.57316e-07
0.00138517
-9.90938e-06
0.00138879
-2.12311e-05
0.00139179
-3.30121e-05
0.00139416
-4.52553e-05
0.00139588
-5.79617e-05
0.00139695
-7.11296e-05
0.00139733
-8.47547e-05
0.00139702
-9.88301e-05
0.001396
-0.000113345
0.00139425
-0.000128287
0.00139176
-0.000143638
0.00138853
-0.000159379
0.00138453
-0.000175486
0.00137977
-0.000191931
0.00137422
-0.000208686
0.00136791
-0.000225715
0.00136081
-0.000242984
0.00135295
-0.000260453
0.00134434
-0.000278081
0.00133499
-0.000295823
0.00132494
-0.000313632
0.00131421
-0.000331461
0.00130286
-0.000349258
0.00129094
-0.00036697
0.00127851
-0.000384546
0.00126565
-0.000401936
0.00125247
-0.000419095
0.00123908
-0.000435989
0.00122565
-0.000452612
0.00121241
-0.000469004
0.00119968
-0.000485249
0.00118793
-0.000501609
0.00117782
-0.000518361
0.00117015
-0.00053605
0.00116585
-0.000555217
0.00116529
-0.000575839
-0.000598245
0.00116788
0.00103781
0.000152554
-0.00102255
0.00105292
0.000150871
0.00106788
0.000149037
0.00108267
0.000147054
0.00109728
0.000144915
0.0011117
0.000142616
0.00112592
0.000140148
0.00113993
0.000137503
0.0011537
0.000134675
0.00116723
0.000131654
0.00118051
0.000128433
0.00119352
0.000125003
0.00120624
0.000121355
0.00121866
0.00011748
0.00123076
0.000113368
0.00124253
0.00010901
0.00125395
0.000104395
0.00126501
9.95132e-05
0.00127569
9.43535e-05
0.00128597
8.89049e-05
0.00129584
8.31562e-05
0.00130527
7.70959e-05
0.00131426
7.07123e-05
0.00132278
6.39935e-05
0.00133082
5.69276e-05
0.00133835
4.95027e-05
0.00134538
4.17066e-05
0.00135187
3.35274e-05
0.00135781
2.49537e-05
0.00136318