/*--------------------------------*- C++ -*----------------------------------*\
| =========                 |                                                 |
| \\      /  F ield         | OpenFOAM: The Open Source CFD Toolbox           |
|  \\    /   O peration     | Version:  2312                                  |
|   \\  /    A nd           | Website:  www.openfoam.com                      |
|    \\/     M anipulation  |                                                 |
\*---------------------------------------------------------------------------*/
FoamFile
{
    version     2.0;
    format      ascii;
    arch        "LSB;label=32;scalar=64";
    class       volVectorField;
    location    "1800";
    object      U;
}
// * * * * * * * * * * * * * * * * * * * * * * * * * * * * * * * * * * * * * //

dimensions      [0 1 -1 0 0 0 0];

internalField   nonuniform List<vector> 
76025
(
(0.0391699 -0.00896728 0)
(0.0393923 -0.00898604 7.70976e-23)
(0.039616 -0.00899917 0)
(0.0398421 -0.00900684 0)
(0.0400685 -0.00901082 -1.39139e-23)
(0.0403041 -0.00900037 1.14973e-22)
(0.0405383 -0.00899071 -2.95861e-22)
(0.0407764 -0.00896929 1.56133e-22)
(0.0410112 -0.00894503 9.91222e-23)
(0.0412453 -0.00891402 -1.24213e-22)
(0.0414817 -0.00887521 1.70842e-23)
(0.0417209 -0.00882664 -5.32652e-22)
(0.0419615 -0.00877371 7.07336e-22)
(0.0422 -0.00871085 0)
(0.0424395 -0.00863573 -2.48869e-22)
(0.0426743 -0.00856162 0)
(0.0429107 -0.00846967 0)
(0.0431448 -0.00837947 0)
(0.043378 -0.00827347 -3.2379e-22)
(0.0436075 -0.00816702 3.77649e-22)
(0.0438353 -0.0080461 4.01669e-22)
(0.0440606 -0.00791998 1.2464e-21)
(0.0442795 -0.00778481 -8.51034e-22)
(0.0444964 -0.00763857 -1.4214e-21)
(0.0447104 -0.00748743 -4.5782e-23)
(0.0449203 -0.00733132 -5.7434e-22)
(0.0451279 -0.0071575 1.61388e-21)
(0.0453283 -0.00697993 -1.64662e-21)
(0.0455281 -0.00678965 5.66321e-22)
(0.0457212 -0.00658799 -5.88785e-22)
(0.0459043 -0.00639666 -6.15418e-22)
(0.0460841 -0.00619133 1.33472e-21)
(0.0462599 -0.005967 -2.02008e-21)
(0.0464292 -0.0057441 -3.64803e-22)
(0.0465914 -0.00550643 1.83762e-21)
(0.0467458 -0.0052678 1.08274e-23)
(0.0468952 -0.00501621 -3.72025e-22)
(0.0470394 -0.00475126 1.96908e-22)
(0.0471765 -0.0044892 1.00241e-23)
(0.0473001 -0.00421503 -2.93949e-22)
(0.0474133 -0.00393619 1.96165e-22)
(0.0475223 -0.00364386 -9.65357e-23)
(0.0476224 -0.00333507 1.92264e-22)
(0.0477094 -0.00302656 -3.90081e-22)
(0.0477822 -0.00270729 -4.01066e-22)
(0.0478454 -0.00238352 7.63971e-22)
(0.0478977 -0.00204337 7.90935e-22)
(0.0479338 -0.00169822 -2.39645e-21)
(0.0479537 -0.00134513 1.53485e-21)
(0.0479617 -0.000984655 -3.91632e-23)
(0.0479535 -0.000614418 -3.89226e-21)
(0.0479267 -0.000231927 -1.4922e-21)
(0.0478832 0.000160058 1.55308e-21)
(0.0478187 0.000561817 0)
(0.0477243 0.000971195 -1.43889e-21)
(0.0476099 0.001389 -1.49554e-21)
(0.0474711 0.0018195 3.04347e-23)
(0.0472994 0.00226654 -1.40481e-21)
(0.0470954 0.0027299 1.34865e-21)
(0.046859 0.00320378 -3.86915e-21)
(0.0465954 0.00367086 -2.61449e-21)
(0.0462773 0.00416729 -1.78015e-22)
(0.0459112 0.00468042 0)
(0.0454915 0.00520465 5.55301e-21)
(0.0450004 0.00574012 -1.90317e-21)
(0.0444317 0.00629924 9.99441e-22)
(0.0437808 0.00688787 -1.67153e-21)
(0.043022 0.00747631 1.68095e-21)
(0.0421236 0.00803363 2.76762e-21)
(0.0391408 -0.00936501 9.4975e-23)
(0.0393723 -0.00938391 1.68386e-22)
(0.0396057 -0.00939626 -2.47186e-22)
(0.0398419 -0.00940237 0)
(0.0400798 -0.00940251 -6.7961e-23)
(0.0403227 -0.00939441 -1.06511e-22)
(0.0405667 -0.00938023 1.75897e-22)
(0.0408132 -0.00935834 0)
(0.0410609 -0.00932957 1.77218e-23)
(0.0413088 -0.00929367 1.27916e-22)
(0.0415573 -0.00925031 -1.53834e-22)
(0.0418067 -0.00919864 2.14691e-23)
(0.0420564 -0.00913949 0)
(0.0423066 -0.00907206 0)
(0.0425571 -0.00899538 -5.90427e-22)
(0.0428054 -0.00891221 1.43955e-21)
(0.0430535 -0.00881901 3.36229e-22)
(0.0432995 -0.00871906 -1.08627e-21)
(0.043544 -0.0086097 7.24024e-22)
(0.0437857 -0.0084929 -3.8735e-22)
(0.0440255 -0.00836678 4.68092e-22)
(0.0442621 -0.00823239 -8.82951e-22)
(0.0444947 -0.00808926 9.85604e-22)
(0.0447239 -0.00793669 -1.5356e-21)
(0.0449495 -0.00777579 1.04098e-21)
(0.0451712 -0.00760695 1.68352e-21)
(0.0453887 -0.00742848 -1.14588e-21)
(0.0456 -0.007242 0)
(0.0458068 -0.0070459 0)
(0.0460088 -0.00684127 -6.83075e-22)
(0.0462058 -0.00662811 0)
(0.0463975 -0.00640699 -7.36261e-22)
(0.0465819 -0.00617666 7.50659e-22)
(0.0467587 -0.00593891 -1.15029e-21)
(0.0469282 -0.00569212 2.21388e-23)
(0.0470906 -0.00543672 -3.96976e-22)
(0.0472465 -0.0051709 0)
(0.0473948 -0.00489813 -8.37938e-22)
(0.0475349 -0.00461856 6.3578e-22)
(0.0476651 -0.00433102 -5.24376e-22)
(0.0477851 -0.00403331 3.18539e-22)
(0.0478961 -0.00372573 -2.98755e-24)
(0.0479968 -0.00341226 1.14673e-22)
(0.0480858 -0.00309126 -1.0688e-22)
(0.0481628 -0.00276089 8.74616e-22)
(0.0482278 -0.00241984 -4.40737e-22)
(0.0482803 -0.00207052 -4.54512e-22)
(0.0483182 -0.00171389 8.34091e-22)
(0.0483409 -0.00134573 2.55763e-21)
(0.0483487 -0.000966579 -2.00743e-23)
(0.04834 -0.000578354 2.49928e-21)
(0.0483129 -0.000179607 -8.31789e-22)
(0.048267 0.000229193 -2.42341e-21)
(0.0482004 0.000647004 1.62778e-21)
(0.04811 0.0010742 0)
(0.0479938 0.00151828 4.72384e-21)
(0.0478533 0.00197158 -1.45398e-23)
(0.0476828 0.00243826 -1.52127e-21)
(0.0474819 0.00291765 -1.52531e-21)
(0.0472487 0.00340991 0)
(0.0469776 0.00392031 1.31108e-21)
(0.0466648 0.00444379 3.93729e-21)
(0.046302 0.00498292 0)
(0.0458818 0.00553922 -2.34421e-21)
(0.0453895 0.00611573 1.32249e-21)
(0.044808 0.00672112 -2.14343e-21)
(0.0441316 0.00734778 1.01823e-21)
(0.0433395 0.00798323 -1.73105e-21)
(0.0424031 0.00865164 -1.50055e-21)
(0.0391114 -0.00978417 -4.06457e-22)
(0.0393536 -0.00980242 2.56375e-22)
(0.0395981 -0.00981405 -3.10412e-23)
(0.0398458 -0.00981917 -1.72363e-23)
(0.0400958 -0.00981723 4.32764e-23)
(0.040348 -0.00980791 2.40749e-22)
(0.0406024 -0.00979116 -3.2339e-22)
(0.0408591 -0.00976686 0)
(0.0411177 -0.00973483 1.96123e-23)
(0.0413777 -0.00969494 0)
(0.0416383 -0.00964709 1.97431e-22)
(0.0418991 -0.00959113 -2.02722e-22)
(0.04216 -0.00952693 -1.27614e-21)
(0.0424208 -0.00945434 1.0209e-21)
(0.0426815 -0.009373 -2.84224e-22)
(0.0429417 -0.00928305 -9.87746e-22)
(0.0432009 -0.00918442 3.38107e-22)
(0.0434586 -0.00907706 3.65352e-22)
(0.0437142 -0.00896115 1.26494e-21)
(0.0439676 -0.00883627 -8.42496e-22)
(0.0442183 -0.00870255 -4.79709e-22)
(0.0444659 -0.00855981 1.00566e-21)
(0.0447102 -0.008408 -4.7222e-22)
(0.0449508 -0.00824692 -5.63151e-22)
(0.0451874 -0.00807686 0)
(0.0454194 -0.00789796 6.18217e-22)
(0.0456465 -0.00771022 6.28678e-22)
(0.0458683 -0.00751335 -6.0634e-22)
(0.046085 -0.0073072 0)
(0.0462963 -0.00709216 1.41204e-21)
(0.0465021 -0.00686791 -7.54465e-22)
(0.0467014 -0.00663541 -4.41325e-23)
(0.0468934 -0.00639438 0)
(0.047078 -0.00614458 3.95169e-22)
(0.0472552 -0.00588592 -1.25757e-21)
(0.0474249 -0.00561817 8.52342e-22)
(0.0475864 -0.00534179 0)
(0.0477397 -0.00505724 6.58337e-22)
(0.0478842 -0.00476444 -6.67381e-22)
(0.0480191 -0.00446336 -1.08815e-22)
(0.0481437 -0.00415318 0)
(0.0482581 -0.00383411 -2.2589e-22)
(0.0483619 -0.00350664 -1.13889e-22)
(0.0484543 -0.00317018 1.07743e-22)
(0.0485345 -0.00282447 -6.68211e-22)
(0.0486019 -0.00246937 -4.66133e-22)
(0.0486562 -0.00210519 8.82721e-22)
(0.0486962 -0.00173155 -9.0545e-22)
(0.0487211 -0.00134764 9.21279e-22)
(0.0487303 -0.000953614 -8.91542e-22)
(0.0487228 -0.00054968 -8.63933e-22)
(0.0486974 -0.000135115 1.80888e-21)
(0.0486529 0.000290295 0)
(0.0485877 0.00072667 1.77054e-21)
(0.0484997 0.0011748 5.50045e-23)
(0.0483872 0.00163632 -1.66915e-21)
(0.0482495 0.00211039 -1.63233e-21)
(0.0480837 0.0025986 3.21029e-21)
(0.0478876 0.0031019 -5.71079e-23)
(0.0476582 0.00362099 1.57934e-21)
(0.0473912 0.00415685 -3.06575e-21)
(0.0470808 0.00470988 -1.55093e-21)
(0.0467176 0.00528298 -3.3564e-23)
(0.046291 0.00587784 -1.32242e-21)
(0.0457871 0.00649628 -1.15538e-21)
(0.0451909 0.00714087 -3.61188e-21)
(0.0444901 0.00781108 0)
(0.0436644 0.00850117 -9.75573e-22)
(0.0427104 0.00923366 9.18398e-22)
(0.0390803 -0.0102261 0)
(0.0393351 -0.0102441 5.97628e-23)
(0.039592 -0.010255 7.24231e-23)
(0.0398519 -0.0102591 -4.10844e-23)
(0.0401143 -0.0102556 1.67707e-22)
(0.0403787 -0.0102443 -2.65848e-22)
(0.040645 -0.0102251 8.35931e-23)
(0.0409131 -0.0101979 -1.32386e-22)
(0.0411829 -0.0101626 -1.40981e-22)
(0.0414541 -0.0101189 -7.80548e-22)
(0.0417263 -0.0100668 8.03244e-22)
(0.0419989 -0.010006 1.01377e-21)
(0.0422717 -0.00993653 -1.92069e-22)
(0.042544 -0.00985825 -1.18689e-21)
(0.042816 -0.00977092 9.63523e-22)
(0.0430874 -0.00967447 -3.70677e-22)
(0.0433576 -0.00956896 4.00169e-22)
(0.0436263 -0.00945438 4.29563e-22)
(0.0438931 -0.00933073 -1.33617e-21)
(0.0441574 -0.00919788 4.23507e-22)
(0.044419 -0.00905574 4.81672e-22)
(0.0446775 -0.00890422 0)
(0.0449324 -0.00874326 1.17598e-21)
(0.0451835 -0.00857281 -5.75397e-22)
(0.0454303 -0.00839304 -1.25026e-21)
(0.0456723 -0.00820409 -1.3344e-21)
(0.0459094 -0.00800588 2.64869e-21)
(0.0461412 -0.00779821 -1.39356e-21)
(0.0463673 -0.00758114 0)
(0.0465873 -0.00735488 -1.50274e-21)
(0.0468008 -0.00711956 -3.34477e-23)
(0.0470076 -0.00687541 1.57643e-21)
(0.0472072 -0.00662236 -8.43364e-22)
(0.0473993 -0.00636035 2.16165e-21)
(0.0475836 -0.00608939 -4.19849e-22)
(0.0477597 -0.00580945 0)
(0.0479273 -0.00552072 0)
(0.0480861 -0.00522323 2.38448e-22)
(0.0482356 -0.0049171 2.27695e-22)
(0.0483752 -0.00460234 1.20996e-22)
(0.0485044 -0.00427867 -3.80193e-24)
(0.048623 -0.00394598 1.15846e-22)
(0.0487306 -0.00360434 0)
(0.0488264 -0.00325372 -1.26534e-23)
(0.04891 -0.00289391 0)
(0.0489807 -0.00252464 4.54761e-22)
(0.0490379 -0.00214577 3.79367e-24)
(0.049081 -0.0017571 -1.4517e-21)
(0.0491089 -0.00135825 0)
(0.0491211 -0.000948892 -9.43715e-22)
(0.0491166 -0.0005288 9.33862e-22)
(0.0490943 -9.75687e-05 -1.80647e-21)
(0.049053 0.000345203 0)
(0.0489913 0.000799919 -5.45106e-21)
(0.0489077 0.00126725 5.14516e-23)
(0.0488005 0.00174829 1.77403e-21)
(0.0486682 0.00224362 1.73935e-21)
(0.0485085 0.00275419 0)
(0.0483186 0.00328113 0)
(0.0480948 0.00382564 -1.567e-21)
(0.0478315 0.00438914 3.03619e-21)
(0.0475213 0.00497321 2.9279e-21)
(0.047154 0.00557999 0)
(0.0467175 0.00621153 -2.89708e-21)
(0.0461981 0.00686956 0)
(0.0455815 0.00755562 3.61981e-21)
(0.0448556 0.00827035 -1.19676e-21)
(0.0440035 0.00900979 -1.07819e-21)
(0.0430272 0.00980053 -1.09039e-21)
(0.0390455 -0.0106917 0)
(0.0393143 -0.0107096 0)
(0.0395851 -0.01072 2.66321e-24)
(0.0398586 -0.010723 1.42126e-22)
(0.0401344 -0.010718 -2.02275e-22)
(0.0404122 -0.0107047 7.27691e-23)
(0.0406918 -0.010683 0)
(0.0409729 -0.0106527 1.33028e-22)
(0.0412554 -0.0106138 0)
(0.0415389 -0.0105661 4.40608e-22)
(0.0418233 -0.0105093 8.80422e-23)
(0.0421082 -0.0104433 -5.01083e-22)
(0.0423932 -0.0103682 0)
(0.0426778 -0.0102838 6.84461e-22)
(0.0429619 -0.01019 -2.14582e-21)
(0.0432449 -0.0100867 1.51801e-21)
(0.0435266 -0.00997399 -2.07344e-21)
(0.0438066 -0.00985177 4.34621e-22)
(0.0440846 -0.0097199 -4.97251e-22)
(0.0443602 -0.0095783 4.90343e-22)
(0.0446328 -0.00942707 5.46107e-22)
(0.0449021 -0.0092662 -1.69313e-21)
(0.0451676 -0.0090956 -1.19499e-21)
(0.0454289 -0.00891525 0)
(0.0456857 -0.00872524 1.33672e-21)
(0.0459377 -0.0085257 7.16544e-22)
(0.0461843 -0.00831638 -2.08931e-21)
(0.0464252 -0.00809729 7.193e-22)
(0.04666 -0.00786866 -1.56449e-21)
(0.0468883 -0.00763074 2.34698e-21)
(0.0471099 -0.00738348 -8.52778e-22)
(0.0473244 -0.00712688 4.40708e-22)
(0.0475315 -0.00686115 0)
(0.0477306 -0.00658639 -4.42658e-22)
(0.0479215 -0.00630251 -4.56135e-22)
(0.0481039 -0.00600961 0)
(0.0482773 -0.00570783 4.9777e-22)
(0.0484415 -0.00539716 -7.30532e-22)
(0.0485962 -0.00507765 4.87808e-22)
(0.0487407 -0.00474927 -2.48059e-22)
(0.0488747 -0.0044119 -4.21063e-24)
(0.0489977 -0.00406543 -1.91542e-22)
(0.0491095 -0.00370984 6.23237e-23)
(0.0492094 -0.00334505 2.45004e-22)
(0.0492969 -0.00297085 1.13996e-23)
(0.0493714 -0.002587 1.50717e-21)
(0.0494324 -0.0021933 0)
(0.0494792 -0.00178949 9.75394e-22)
(0.049511 -0.00137523 -2.51506e-23)
(0.0495271 -0.000950135 -9.88936e-22)
(0.0495267 -0.000513844 0)
(0.0495087 -6.59308e-05 -9.77754e-22)
(0.0494721 0.000394136 9.66951e-22)
(0.0494157 0.000866949 1.86196e-21)
(0.049338 0.00135328 0)
(0.0492374 0.00185409 -3.66682e-21)
(0.0491121 0.00237035 3.65861e-21)
(0.0489594 0.00290319 -3.58714e-21)
(0.0487757 0.003454 -5.15026e-23)
(0.048556 0.00402439 0)
(0.0482936 0.00461608 -1.64783e-21)
(0.0479794 0.00523108 1.54256e-21)
(0.0476025 0.00587137 1.64901e-21)
(0.0471506 0.00653901 2.84655e-21)
(0.0466109 0.00723546 -4.33607e-21)
(0.0459709 0.00796175 2.68471e-21)
(0.0452205 0.008719 -1.29397e-21)
(0.0443453 0.00950364 1.36133e-21)
(0.0433544 0.0103432 3.22667e-21)
(0.0390057 -0.0111828 -1.69512e-22)
(0.0392898 -0.0112006 1.28582e-22)
(0.0395757 -0.0112104 2.67798e-23)
(0.0398643 -0.0112124 0)
(0.040155 -0.0112058 6.07797e-23)
(0.0404475 -0.0111904 0)
(0.0407416 -0.011166 -3.02082e-22)
(0.041037 -0.0111325 -6.52655e-23)
(0.0413336 -0.0110898 5.78804e-22)
(0.0416309 -0.0110377 -2.45898e-22)
(0.0419289 -0.010976 -2.50229e-22)
(0.0422273 -0.0109046 -3.11511e-22)
(0.0425254 -0.0108236 0)
(0.0428231 -0.0107329 0)
(0.0431199 -0.0106323 3.74859e-22)
(0.0434156 -0.0105218 4.05725e-22)
(0.0437097 -0.0104012 -9.38461e-22)
(0.0440017 -0.0102708 9.38032e-22)
(0.0442911 -0.0101306 1.0339e-21)
(0.044578 -0.00998006 -1.12516e-21)
(0.044862 -0.00981912 2.27232e-21)
(0.0451424 -0.00964801 1.6804e-23)
(0.0454187 -0.0094668 -1.29286e-21)
(0.0456905 -0.00927544 -6.92827e-22)
(0.0459575 -0.00907401 -1.42536e-21)
(0.0462189 -0.00886283 1.42756e-21)
(0.0464744 -0.00864196 1.54258e-21)
(0.046724 -0.00841105 -1.54975e-21)
(0.0469675 -0.00817018 0)
(0.0472043 -0.00791975 0)
(0.047434 -0.00765992 2.19224e-21)
(0.0476561 -0.00739064 5.0837e-23)
(0.0478704 -0.00711195 -9.2153e-22)
(0.0480764 -0.00682396 -9.72833e-22)
(0.0482738 -0.00652672 9.78499e-22)
(0.0484623 -0.00622041 0)
(0.0486416 -0.00590511 -4.955e-22)
(0.0488113 -0.00558079 -7.8233e-22)
(0.0489712 -0.00524747 5.13e-22)
(0.0491207 -0.00490513 -7.05778e-24)
(0.0492595 -0.00455372 -4.11272e-23)
(0.0493872 -0.00419313 1.93312e-22)
(0.0495034 -0.00382329 1.35472e-22)
(0.0496076 -0.00344407 2.65515e-22)
(0.0496993 -0.00305529 -1.30877e-21)
(0.0497781 -0.00265671 1.08975e-23)
(0.0498434 -0.00224808 0)
(0.0498945 -0.0018291 -1.08054e-21)
(0.0499309 -0.0013994 3.14644e-21)
(0.0499518 -0.000958553 -2.10948e-21)
(0.0499564 -0.000506117 -1.03654e-21)
(0.049944 -4.15669e-05 -3.10485e-23)
(0.0499134 0.000435728 -9.88776e-22)
(0.0498636 0.000926493 -1.0509e-24)
(0.049793 0.00143162 1.98634e-21)
(0.0496998 0.00195216 -2.01652e-21)
(0.0495816 0.00248936 -1.92008e-21)
(0.0494349 0.0030446 3.77137e-21)
(0.049255 0.00361954 -6.11029e-23)
(0.0490356 0.00421606 1.78929e-21)
(0.0487685 0.00483607 -1.75301e-21)
(0.0484441 0.00548169 1.63215e-21)
(0.0480512 0.00615468 -3.1437e-21)
(0.0475787 0.006857 -1.55366e-21)
(0.0470156 0.00758979 2.91912e-21)
(0.0463514 0.00835409 -1.5561e-21)
(0.0455788 0.00915144 -4.26247e-21)
(0.0446854 0.00997838 -1.18746e-21)
(0.0436825 0.0108643 0)
(0.038961 -0.0117016 0)
(0.0392612 -0.0117192 -1.27484e-24)
(0.0395632 -0.0117283 -1.90527e-23)
(0.039868 -0.011729 0)
(0.0401749 -0.0117207 0)
(0.0404833 -0.011703 1.3784e-22)
(0.0407932 -0.0116757 -5.24805e-22)
(0.0411042 -0.0116387 7.71417e-22)
(0.0414162 -0.011592 -3.90742e-22)
(0.0417287 -0.0115354 2.46413e-22)
(0.0420415 -0.0114686 0)
(0.0423545 -0.0113917 3.1217e-22)
(0.0426671 -0.0113044 -3.78856e-22)
(0.0429789 -0.0112069 0)
(0.0432896 -0.0110989 0)
(0.0435986 -0.0109806 4.71719e-22)
(0.0439059 -0.0108516 6.53896e-23)
(0.0442108 -0.010712 -1.01447e-21)
(0.0445128 -0.0105621 -1.10034e-21)
(0.0448114 -0.0104018 1.14292e-21)
(0.0451066 -0.0102309 5.98623e-22)
(0.0453981 -0.0100493 2.6403e-21)
(0.0456852 -0.00985704 3.3052e-23)
(0.0459676 -0.00965416 -7.67276e-22)
(0.0462449 -0.00944076 1.46203e-21)
(0.0465163 -0.0092171 -7.78446e-22)
(0.0467816 -0.00898351 1.58577e-21)
(0.0470405 -0.00874003 0)
(0.0472927 -0.00848655 0)
(0.0475377 -0.00822318 0)
(0.0477753 -0.00795004 -4.50641e-22)
(0.048005 -0.00766725 -9.41008e-22)
(0.0482264 -0.00737493 9.73865e-22)
(0.0484393 -0.00707321 1.02636e-21)
(0.0486433 -0.00676213 -1.03199e-21)
(0.0488381 -0.00644195 0)
(0.0490233 -0.00611267 5.39732e-22)
(0.0491987 -0.00577428 -2.7188e-22)
(0.0493638 -0.00542679 0)
(0.0495184 -0.00507019 2.7365e-22)
(0.0496621 -0.00470443 -5.13005e-23)
(0.0497945 -0.00432943 3.4229e-23)
(0.0499153 -0.00394508 -1.34687e-22)
(0.050024 -0.00355126 0)
(0.0501203 -0.00314775 -5.5675e-22)
(0.0502036 -0.00273433 5.50938e-22)
(0.0502736 -0.00231071 0)
(0.0503296 -0.00187654 -3.20878e-23)
(0.0503712 -0.00143142 2.4541e-23)
(0.0503977 -0.00097489 1.06338e-21)
(0.0504084 -0.000506411 0)
(0.0504025 -2.53623e-05 -5.90857e-23)
(0.0503789 0.000469001 -1.03727e-21)
(0.0503363 0.000977549 -3.19354e-21)
(0.050273 0.00150134 -6.27053e-23)
(0.0501865 0.00204162 1.99204e-21)
(0.0500733 0.00259985 0)
(0.0499291 0.00317766 0)
(0.0497477 0.00377691 1.99307e-21)
(0.049522 0.00439954 0)
(0.0492429 0.00504748 0)
(0.0489012 0.0057227 -7.1996e-23)
(0.0484867 0.00642674 -1.72463e-21)
(0.04799 0.00716144 -3.37071e-21)
(0.0474025 0.00792776 3.28024e-21)
(0.0467163 0.00872722 -2.57639e-22)
(0.0459258 0.0095616 1.38649e-21)
(0.04502 0.0104278 1.47279e-21)
(0.0440113 0.0113562 0)
(0.0389125 -0.0122507 0)
(0.0392294 -0.0122679 1.27509e-24)
(0.0395483 -0.012276 1.55764e-22)
(0.0398701 -0.0122752 -3.07308e-23)
(0.0401939 -0.0122649 0)
(0.0405194 -0.0122445 -4.7394e-22)
(0.0408462 -0.012214 9.14755e-22)
(0.041174 -0.0121733 7.17291e-23)
(0.0415025 -0.0121223 -1.26677e-21)
(0.0418314 -0.0120607 2.38316e-22)
(0.0421604 -0.0119885 -3.44755e-22)
(0.0424891 -0.0119055 -3.80417e-22)
(0.0428171 -0.0118116 1.20582e-21)
(0.0431441 -0.0117067 -1.72161e-21)
(0.0434695 -0.0115908 8.94468e-22)
(0.0437931 -0.0114638 -5.52245e-22)
(0.0441143 -0.0113258 2.12901e-21)
(0.0444328 -0.0111767 -5.08712e-22)
(0.0447481 -0.0110165 6.53723e-22)
(0.0450597 -0.0108454 -5.91359e-22)
(0.0453673 -0.0106633 6.48663e-23)
(0.0456706 -0.0104702 -4.19273e-21)
(0.0459692 -0.0102662 -7.69993e-22)
(0.0462626 -0.0100512 -6.17241e-23)
(0.0465505 -0.00982559 2.38254e-21)
(0.0468323 -0.00958942 -8.01158e-22)
(0.0471077 -0.0093429 1.74493e-21)
(0.0473761 -0.00908609 -2.66846e-21)
(0.0476373 -0.00881903 0)
(0.047891 -0.00854188 -9.6392e-22)
(0.0481366 -0.00825478 9.67528e-22)
(0.048374 -0.00795789 3.00218e-23)
(0.0486028 -0.00765135 -5.36074e-22)
(0.0488226 -0.00733528 -5.5092e-22)
(0.0490332 -0.00700978 1.67473e-21)
(0.0492341 -0.00667514 -1.09993e-21)
(0.0494252 -0.00633133 8.54492e-22)
(0.0496061 -0.00597834 -1.13061e-21)
(0.0497765 -0.00561621 5.6464e-22)
(0.0499361 -0.00524493 -1.39431e-22)
(0.0500847 -0.00486447 0)
(0.0502218 -0.00447475 1.45262e-22)
(0.0503472 -0.00407567 -1.43788e-22)
(0.0504606 -0.00366707 -2.91325e-22)
(0.0505616 -0.00324875 8.70787e-22)
(0.0506499 -0.00282045 -5.89791e-22)
(0.050725 -0.00238185 -5.75432e-22)
(0.0507866 -0.00193257 0)
(0.050834 -0.00147217 -2.3303e-21)
(0.0508669 -0.0010001 2.28158e-21)
(0.0508843 -0.000515744 -1.10078e-21)
(0.0508854 -1.835e-05 1.08968e-21)
(0.0508688 0.000492971 1.14131e-21)
(0.0508327 0.00101927 2.16874e-21)
(0.0507748 0.00156179 2.11095e-21)
(0.0506915 0.00212196 0)
(0.0505784 0.00270144 -2.16373e-21)
(0.0504301 0.00330196 0)
(0.0502396 0.00392541 5.66611e-23)
(0.0499993 0.0045736 -1.89676e-21)
(0.0497006 0.00524831 1.91574e-21)
(0.0493355 0.00595123 1.7975e-21)
(0.0488956 0.00668374 -1.87198e-21)
(0.048374 0.00744769 -5.36233e-23)
(0.0477643 0.00824402 7.16755e-23)
(0.0470607 0.00907527 4.94105e-21)
(0.0462593 0.00994323 1.70269e-21)
(0.0453498 0.0108472 1.5937e-21)
(0.0443437 0.0118169 -1.53644e-21)
(0.0388614 -0.0128329 0)
(0.0391957 -0.0128493 0)
(0.0395322 -0.0128562 1.68807e-22)
(0.0398717 -0.0128537 -2.59362e-22)
(0.0402133 -0.0128409 -1.5485e-22)
(0.0405566 -0.0128176 0)
(0.0409012 -0.0127835 0)
(0.0412467 -0.0127387 2.68681e-22)
(0.0415928 -0.0126828 -6.1373e-22)
(0.0419392 -0.0126158 -1.10355e-22)
(0.0422853 -0.0125375 1.78941e-21)
(0.0426308 -0.0124478 -3.78997e-22)
(0.0429754 -0.0123465 4.48799e-22)
(0.0433187 -0.0122337 -9.02773e-22)
(0.04366 -0.0121093 5.2833e-22)
(0.0439991 -0.0119733 0)
(0.0443355 -0.0118256 0)
(0.0446687 -0.0116663 3.19088e-23)
(0.0449982 -0.0114955 -1.92711e-21)
(0.0453237 -0.0113132 6.55991e-22)
(0.0456448 -0.0111194 -7.41334e-22)
(0.0459609 -0.0109143 7.22809e-22)
(0.0462717 -0.0106978 7.85175e-22)
(0.0465771 -0.0104699 -7.53211e-22)
(0.0468764 -0.010231 -8.2022e-22)
(0.0471691 -0.00998127 0)
(0.0474547 -0.00972085 0)
(0.047733 -0.00944989 1.4004e-21)
(0.0480035 -0.00916849 0)
(0.0482659 -0.00887681 1.01765e-21)
(0.0485198 -0.00857501 -1.02103e-21)
(0.048765 -0.00826327 -5.17278e-22)
(0.049001 -0.00794177 5.31982e-22)
(0.0492277 -0.00761065 1.12577e-21)
(0.0494447 -0.00727007 -5.59719e-22)
(0.0496518 -0.00692032 -5.86928e-22)
(0.0498485 -0.00656135 5.97938e-22)
(0.0500348 -0.00619323 0)
(0.0502104 -0.00581599 0)
(0.050375 -0.00542966 1.53933e-22)
(0.0505284 -0.00503419 0)
(0.0506703 -0.00462953 0)
(0.0508006 -0.00421556 -4.59279e-22)
(0.0509189 -0.00379211 6.11718e-22)
(0.0510251 -0.00335896 -3.10869e-22)
(0.0511188 -0.00291583 5.88705e-22)
(0.0511996 -0.00246235 0)
(0.0512672 -0.00199811 1.82289e-21)
(0.051321 -0.00152255 -2.64764e-23)
(0.0513604 -0.00103507 0)
(0.0513843 -0.000534897 -2.3614e-21)
(0.0513913 -2.11417e-05 -3.06902e-23)
(0.0513796 0.000507257 -2.2804e-21)
(0.0513467 0.00105152 -1.17573e-21)
(0.0512891 0.00161307 -2.25528e-21)
(0.0512025 0.00219344 2.21536e-21)
(0.0510816 0.00279431 2.11617e-21)
(0.0509204 0.00341735 0)
(0.0507118 0.00406429 -2.08722e-21)
(0.050449 0.00473666 6.36601e-23)
(0.0501248 0.00543602 0)
(0.0497329 0.00616379 0)
(0.049267 0.00692136 1.83842e-21)
(0.0487229 0.00771066 0)
(0.0480956 0.00853293 0)
(0.047382 0.0093919 -1.80987e-21)
(0.0465788 0.0102892 -1.6384e-21)
(0.0456781 0.0112288 -1.85512e-21)
(0.0446869 0.0122383 0)
(0.0388086 -0.0134509 0)
(0.0391613 -0.0134665 0)
(0.0395162 -0.0134719 0)
(0.0398742 -0.0134672 -1.44691e-22)
(0.0402345 -0.0134517 -2.21579e-22)
(0.0405964 -0.013425 -7.85114e-23)
(0.0409596 -0.0133869 4.5199e-22)
(0.0413238 -0.0133373 -2.67474e-22)
(0.0416884 -0.0132761 3.42469e-22)
(0.0420531 -0.0132031 7.23885e-22)
(0.0424174 -0.0131181 0)
(0.0427808 -0.0130211 0)
(0.043143 -0.0129119 -3.5173e-23)
(0.0435036 -0.0127905 1.51944e-21)
(0.0438619 -0.0126569 -2.23197e-21)
(0.0442176 -0.012511 -7.41105e-23)
(0.0445701 -0.012353 1.205e-21)
(0.044919 -0.0121828 6.3265e-22)
(0.0452639 -0.0120006 -5.31798e-23)
(0.0456042 -0.0118064 0)
(0.0459395 -0.0116002 1.53012e-21)
(0.0462693 -0.0113821 0)
(0.0465933 -0.0111524 1.66814e-21)
(0.0469111 -0.0109109 -2.60255e-21)
(0.0472222 -0.0106579 2.69705e-21)
(0.0475262 -0.0103936 9.64185e-22)
(0.0478225 -0.0101183 -1.47723e-21)
(0.0481109 -0.00983213 1.50784e-21)
(0.0483909 -0.00953536 -1.01208e-21)
(0.0486622 -0.00922817 0)
(0.0489245 -0.00891077 -1.10177e-21)
(0.0491775 -0.00858336 -6.03379e-22)
(0.0494208 -0.00824615 1.13581e-21)
(0.0496544 -0.00789929 -1.18015e-21)
(0.0498778 -0.00754302 6.06722e-22)
(0.0500909 -0.00717757 -6.01283e-22)
(0.0502935 -0.00680296 -2.979e-22)
(0.0504853 -0.00641928 3.17519e-22)
(0.0506662 -0.00602659 1.53038e-22)
(0.050836 -0.00562491 -4.61657e-22)
(0.0509946 -0.00521424 -4.02731e-23)
(0.0511417 -0.00479449 0)
(0.0512772 -0.00436555 1.53263e-22)
(0.051401 -0.00392723 -3.06713e-22)
(0.0515127 -0.00347928 3.06539e-22)
(0.0516121 -0.00302136 0)
(0.0516988 -0.00255306 0)
(0.0517723 -0.00207386 6.44241e-22)
(0.0518318 -0.00158312 -1.23579e-21)
(0.0518763 -0.00108009 -2.50191e-21)
(0.0519041 -0.000563854 4.88927e-21)
(0.0519134 -3.3372e-05 -1.24126e-21)
(0.0519014 0.000512563 1.1935e-21)
(0.0518647 0.00107528 1.14924e-21)
(0.0517993 0.00165624 -2.33043e-21)
(0.0517002 0.00225693 2.28673e-21)
(0.0515619 0.0028789 0)
(0.0513787 0.00352355 -2.27446e-21)
(0.0511444 0.00419236 6.77386e-23)
(0.0508537 0.00488652 2.1207e-21)
(0.050501 0.00560747 0)
(0.0500823 0.00635642 0)
(0.0495933 0.00713499 0)
(0.0490317 0.00794523 4.02329e-21)
(0.0483939 0.00878899 2.02609e-21)
(0.0476789 0.00967082 1.86868e-21)
(0.0468836 0.0105923 -3.82943e-21)
(0.0460033 0.0115616 -1.6468e-22)
(0.045053 0.0125994 2.01182e-21)
(0.0387547 -0.014108 0)
(0.0391269 -0.0141225 -1.95425e-22)
(0.0395014 -0.0141261 2.61711e-22)
(0.039879 -0.0141191 -3.01642e-22)
(0.040259 -0.0141005 5.73398e-22)
(0.0406406 -0.01407 2.58177e-22)
(0.0410234 -0.0140273 2.99315e-22)
(0.0414071 -0.0139725 0)
(0.0417912 -0.0139053 -7.20985e-22)
(0.0421752 -0.0138256 -7.94717e-22)
(0.0425586 -0.0137333 8.35846e-22)
(0.042941 -0.0136283 -5.01866e-22)
(0.0433217 -0.0135104 5.77799e-22)
(0.0437005 -0.0133797 -4.52834e-22)
(0.0440767 -0.0132361 -2.42134e-21)
(0.0444499 -0.0130796 -7.66641e-23)
(0.0448195 -0.0129104 -7.57223e-23)
(0.0451851 -0.0127284 1.37241e-21)
(0.045546 -0.0125338 7.14811e-22)
(0.0459019 -0.0123266 1.59228e-21)
(0.0462522 -0.012107 -1.5323e-21)
(0.0465964 -0.011875 0)
(0.0469342 -0.0116308 6.25697e-23)
(0.047265 -0.0113746 0)
(0.0475885 -0.0111064 -9.22186e-22)
(0.0479042 -0.0108267 -9.54847e-22)
(0.0482118 -0.0105356 4.93468e-22)
(0.0485107 -0.0102334 0)
(0.0488006 -0.00992033 5.59109e-22)
(0.0490811 -0.00959675 1.1271e-21)
(0.0493521 -0.00926287 -1.12966e-21)
(0.0496132 -0.00891896 5.70054e-22)
(0.0498641 -0.00856526 -1.21644e-21)
(0.0501047 -0.00820197 2.44272e-21)
(0.0503349 -0.0078294 -6.2022e-22)
(0.0505543 -0.00744773 0)
(0.0507628 -0.00705702 -3.28199e-22)
(0.0509605 -0.00665739 1.80801e-23)
(0.051147 -0.00624892 4.82209e-22)
(0.0513223 -0.00583165 -4.03571e-22)
(0.0514862 -0.00540556 7.85667e-23)
(0.0516388 -0.00497056 -2.47805e-22)
(0.0517797 -0.00452653 1.6223e-22)
(0.0519088 -0.00407322 0)
(0.0520258 -0.00361034 0)
(0.0521303 -0.00313748 0)
(0.0522216 -0.00265411 6.65391e-22)
(0.0522989 -0.00215961 6.6198e-22)
(0.0523609 -0.00165323 0)
(0.052406 -0.00113405 1.26862e-21)
(0.0524319 -0.00060107 1.32225e-21)
(0.0524361 -5.3137e-05 1.28014e-21)
(0.0524152 0.000510984 0)
(0.0523653 0.00109259 0)
(0.052282 0.001693 -2.39676e-21)
(0.0521605 0.0023135 2.35128e-21)
(0.0519961 0.00295536 0)
(0.051784 0.00361968 2.21369e-21)
(0.0515197 0.00430768 -2.17584e-21)
(0.0511993 0.00502033 -2.27321e-21)
(0.0508193 0.00575905 2.17301e-21)
(0.0503774 0.00652498 -2.14474e-21)
(0.0498709 0.00732013 0)
(0.0492991 0.00814663 -2.04253e-21)
(0.0486593 0.00900725 7.17017e-23)
(0.0479523 0.00990673 -4.32518e-21)
(0.0471748 0.0108479 -4.39224e-21)
(0.0463254 0.0118401 4.31082e-21)
(0.0454197 0.0129021 -2.08682e-21)
(0.0387002 -0.0148078 -3.87685e-23)
(0.0390933 -0.014821 0)
(0.0394886 -0.0148226 -6.61684e-23)
(0.0398872 -0.0148128 5.08774e-22)
(0.0402881 -0.0147907 -1.01535e-21)
(0.0406906 -0.0147559 2.49196e-22)
(0.0410942 -0.0147082 -2.96024e-22)
(0.0414987 -0.0146476 7.55344e-22)
(0.0419033 -0.0145738 -3.76631e-22)
(0.0423077 -0.0144868 -4.1693e-22)
(0.0427113 -0.0143864 -5.0552e-22)
(0.0431136 -0.0142726 1.57699e-21)
(0.043514 -0.0141452 -4.90957e-22)
(0.043912 -0.0140043 1.86763e-21)
(0.0443071 -0.0138499 6.92784e-22)
(0.0446987 -0.0136819 7.90088e-23)
(0.0450863 -0.0135005 -1.39315e-21)
(0.0454693 -0.0133056 0)
(0.0458472 -0.0130975 0)
(0.0462195 -0.0128763 -8.62455e-22)
(0.0465855 -0.0126421 -8.3531e-22)
(0.0469449 -0.0123951 -1.83893e-21)
(0.0472971 -0.0121354 9.33573e-22)
(0.0476417 -0.0118633 1.97841e-21)
(0.0479783 -0.0115789 -1.97956e-21)
(0.0483064 -0.0112826 5.38689e-22)
(0.0486256 -0.0109747 5.55402e-22)
(0.0489356 -0.0106554 0)
(0.0492359 -0.0103252 -5.51263e-22)
(0.0495263 -0.00998433 -1.1822e-21)
(0.0498064 -0.00963309 -2.78022e-23)
(0.050076 -0.00927183 1.21473e-21)
(0.0503349 -0.00890084 -6.48841e-22)
(0.050583 -0.00852036 0)
(0.0508201 -0.00813079 3.35299e-22)
(0.051046 -0.00773224 -3.3807e-22)
(0.0512608 -0.00732485 3.21506e-22)
(0.0514642 -0.00690875 -6.6603e-22)
(0.0516563 -0.00648404 0)
(0.051837 -0.00605075 -8.62987e-23)
(0.0520061 -0.00560884 8.41779e-23)
(0.0521634 -0.00515821 -1.30636e-22)
(0.0523088 -0.00469866 5.05992e-22)
(0.0524418 -0.0042299 -1.01069e-21)
(0.0525619 -0.00375153 6.67797e-22)
(0.0526683 -0.00326305 6.71611e-22)
(0.05276 -0.00276383 -6.27129e-22)
(0.0528357 -0.00225312 1.36284e-21)
(0.0528934 -0.00173008 -1.30793e-21)
(0.052931 -0.00119375 -3.24261e-21)
(0.0529459 -0.000643089 2.90289e-23)
(0.0529349 -7.70034e-05 -1.24144e-21)
(0.0528946 0.000505622 0)
(0.0528211 0.00110589 0)
(0.0527107 0.00172487 -2.45664e-21)
(0.0525594 0.00236357 3.59081e-21)
(0.0523636 0.00302297 -2.37945e-21)
(0.0521199 0.00370396 0)
(0.0518254 0.0044076 2.39295e-21)
(0.0514779 0.00513479 4.53213e-21)
(0.0510752 0.00588705 -2.20814e-21)
(0.0506164 0.00666554 -3.83743e-24)
(0.0501 0.00747274 2.26486e-21)
(0.0495266 0.00831077 -7.55084e-23)
(0.0488942 0.00918343 -4.59752e-21)
(0.0482053 0.0100952 4.57791e-21)
(0.0474569 0.0110515 2.31181e-21)
(0.0466507 0.0120606 0)
(0.0458028 0.0131395 0)
(0.0386457 -0.0155544 3.81181e-23)
(0.0390612 -0.0155661 3.9504e-22)
(0.0394789 -0.0155653 -3.16238e-22)
(0.0399 -0.0155524 0)
(0.0403233 -0.0155264 -1.23946e-22)
(0.0407481 -0.0154868 -6.64106e-22)
(0.0411739 -0.0154335 4.73571e-22)
(0.0416004 -0.0153665 -1.04584e-21)
(0.042027 -0.0152855 8.33142e-22)
(0.0424531 -0.0151905 0)
(0.0428781 -0.0150813 2.22233e-22)
(0.0433015 -0.0149578 0)
(0.0437228 -0.0148201 6.73367e-22)
(0.0441412 -0.0146681 -1.86812e-21)
(0.0445563 -0.0145018 0)
(0.0449674 -0.0143212 0)
(0.045374 -0.0141265 0)
(0.0457755 -0.0139178 -1.22763e-21)
(0.0461713 -0.0136951 1.64549e-21)
(0.0465608 -0.0134587 8.48149e-22)
(0.0469435 -0.0132088 0)
(0.0473189 -0.0129455 0)
(0.0476864 -0.0126691 0)
(0.0480456 -0.0123799 -2.61565e-21)
(0.048396 -0.0120781 3.16065e-21)
(0.0487372 -0.011764 -1.60548e-21)
(0.0490688 -0.0114381 -1.12826e-21)
(0.0493904 -0.0111007 1.1735e-21)
(0.0497016 -0.0107522 -1.17458e-21)
(0.0500022 -0.0103929 6.30759e-22)
(0.0502919 -0.0100233 -1.26399e-21)
(0.0505703 -0.00964363 6.05298e-22)
(0.0508375 -0.00925437 1.31018e-21)