/*--------------------------------*- C++ -*----------------------------------*\
| =========                 |                                                 |
| \\      /  F ield         | OpenFOAM: The Open Source CFD Toolbox           |
|  \\    /   O peration     | Version:  2312                                  |
|   \\  /    A nd           | Website:  www.openfoam.com                      |
|    \\/     M anipulation  |                                                 |
\*---------------------------------------------------------------------------*/
FoamFile
{
    version     2.0;
    format      ascii;
    arch        "LSB;label=32;scalar=64";
    class       volScalarField;
    location    "900";
    object      epsilon;
}
// * * * * * * * * * * * * * * * * * * * * * * * * * * * * * * * * * * * * * //

dimensions      [0 2 -3 0 0 0 0];

internalField   nonuniform List<scalar> 
76025
(
0.000250227
0.000249751
0.000249233
0.000248939
0.00024837
0.000247816
0.0002472
0.000246289
0.000245605
0.000244956
0.000244518
0.000244095
0.000243739
0.00024336
0.000243156
0.000242742
0.000242427
0.000241971
0.000241587
0.000241064
0.000240544
0.000239905
0.000239278
0.000237974
0.000236374
0.000235584
0.000234881
0.000235535
0.000236784
0.000235558
0.000236257
0.000236352
0.000236133
0.000235615
0.000235044
0.00023438
0.000233736
0.000233072
0.000232302
0.000231657
0.000230883
0.000230231
0.000229514
0.00022894
0.0002283
0.000227771
0.000228248
0.000229195
0.000231732
0.000233875
0.000238412
0.000241702
0.000248584
0.000252851
0.000262229
0.000267746
0.000278736
0.000287949
0.000304387
0.000320836
0.000343574
0.00036892
0.000411355
0.000456322
0.00054382
0.00064625
0.000829482
0.00120249
0.00174008
0.000252143
0.00025168
0.000251004
0.000250351
0.000249361
0.000249056
0.000249152
0.000248952
0.000248416
0.000247685
0.000246981
0.00024629
0.000245838
0.00024521
0.000244567
0.000244041
0.000243563
0.000243318
0.000242269
0.000242463
0.00024182
0.000241502
0.000241906
0.000241851
0.000241262
0.000240805
0.000240124
0.000239785
0.000239591
0.000239147
0.000238832
0.000238427
0.000237956
0.000237431
0.000236917
0.000236362
0.000235867
0.000235256
0.00023482
0.000234258
0.000233573
0.000232686
0.000232657
0.000232328
0.000232982
0.000234063
0.000236029
0.000238083
0.000241058
0.000244185
0.000248244
0.000252657
0.000258054
0.000264219
0.000271891
0.000280821
0.000292487
0.000307113
0.000324722
0.000348003
0.000374202
0.000414498
0.000460142
0.000525936
0.000634958
0.000769793
0.00105226
0.00158252
0.00228495
0.000254254
0.000253737
0.000253443
0.000252406
0.000251628
0.000251298
0.000250543
0.000250547
0.000250257
0.000250335
0.000250289
0.000249538
0.00024883
0.000247876
0.000247054
0.000246021
0.000245343
0.000244985
0.000244691
0.000243867
0.000243447
0.000242953
0.000242716
0.000242421
0.000243378
0.00024252
0.000243075
0.000243162
0.000242916
0.000242491
0.000242096
0.000241582
0.000241191
0.000240713
0.000240296
0.000239746
0.000239314
0.000238663
0.000238292
0.000237232
0.000237175
0.000237341
0.00023814
0.00023907
0.000240679
0.000242274
0.000244704
0.000247037
0.000250565
0.000253879
0.000258917
0.000263675
0.000270934
0.000278055
0.000288599
0.000299445
0.000314739
0.000331096
0.000353107
0.000378728
0.000412411
0.000457577
0.00051552
0.00060498
0.000748202
0.000940766
0.00135173
0.00198486
0.00281461
0.000256205
0.000255555
0.000255319
0.000255251
0.000254803
0.000254385
0.000253377
0.00025285
0.000252507
0.000252606
0.000251837
0.000251633
0.000251865
0.00025164
0.000250935
0.00025034
0.000249447
0.000248763
0.000247692
0.000247336
0.000246675
0.0002464
0.000246184
0.000245599
0.00024568
0.000244611
0.000244356
0.000244051
0.000245128
0.000244238
0.000244667
0.000244982
0.000244833
0.000244338
0.000243466
0.000242306
0.000242468
0.000242684
0.000243058
0.000243449
0.000244154
0.000244963
0.000246174
0.000247538
0.000249405
0.000251507
0.000254266
0.000257392
0.00026139
0.000265951
0.000271691
0.000278324
0.000286559
0.000296173
0.000307939
0.000321783
0.000338686
0.000359254
0.00038484
0.000417631
0.000459491
0.000519342
0.000598169
0.000725195
0.000920283
0.0011973
0.00175896
0.00248947
0.00353303
0.000258965
0.000258334
0.000258344
0.0002582
0.000258087
0.000257258
0.000256919
0.000256804
0.000256596
0.000256242
0.000255644
0.000254703
0.000254405
0.000254445
0.000254319
0.000253913
0.00025334
0.000252311
0.000251474
0.000251147
0.000249986
0.000249571
0.000249836
0.000249609
0.000249698
0.00024835
0.00024796
0.000248126
0.000247294
0.000247841
0.000246961
0.000246654
0.000247061
0.000247435
0.000247807
0.000248135
0.000248626
0.000249164
0.000249905
0.000250715
0.000251835
0.000253107
0.000254785
0.000256703
0.00025916
0.000261978
0.000265515
0.000269578
0.000274611
0.000280399
0.000287524
0.000295735
0.000305781
0.000317426
0.000331621
0.00034841
0.000369202
0.00039462
0.000426945
0.000468318
0.000524196
0.000604039
0.000713924
0.000896321
0.00115741
0.00155404
0.00226404
0.00309855
0.00434077
0.000263539
0.00026273
0.000262176
0.000261608
0.000261161
0.000260975
0.000260261
0.000260283
0.000259591
0.000259397
0.000259408
0.00025856
0.000258894
0.000258376
0.000258655
0.000258462
0.000257912
0.000257154
0.0002564
0.000255755
0.000254984
0.000254811
0.000253887
0.000253785
0.000252822
0.00025238
0.000251968
0.00025219
0.000252546
0.000252881
0.000253285
0.000253541
0.000253978
0.000254506
0.000255146
0.00025584
0.000256659
0.000257583
0.000258686
0.000259944
0.000261497
0.000263327
0.000265562
0.000268193
0.000271372
0.000275102
0.000279568
0.000284805
0.000291038
0.000298364
0.000307046
0.000317291
0.000329398
0.000343851
0.000361043
0.000382121
0.000407779
0.000440229
0.000481781
0.000536922
0.00061477
0.000725096
0.000887026
0.00114177
0.00149506
0.00203387
0.00288676
0.0038203
0.0052609
0.000268991
0.000268956
0.000268626
0.000267945
0.000267474
0.000267075
0.000266546
0.000265914
0.0002655
0.000264767
0.00026447
0.000264198
0.000263477
0.000263236
0.00026336
0.000263613
0.000263362
0.000262829
0.000262201
0.000261313
0.000260789
0.00026072
0.000260564
0.000259434
0.000259591
0.000260171
0.00026044
0.000260797
0.000261177
0.000261581
0.000262081
0.000262602
0.000263233
0.000263952
0.000264816
0.000265796
0.00026693
0.000268236
0.000269765
0.00027152
0.000273628
0.000276104
0.000279059
0.000282513
0.00028661
0.000291386
0.000297033
0.000303619
0.000311401
0.000320492
0.000331244
0.000343849
0.000358865
0.000376727
0.000398393
0.000424997
0.000458148
0.000500975
0.000557319
0.000635061
0.000746453
0.000905058
0.00114013
0.00148592
0.00195306
0.00264471
0.00362365
0.00466603
0.0063056
0.000275216
0.0002749
0.000274929
0.000274746
0.000274214
0.000273846
0.000272805
0.000272429
0.000272419
0.000271475
0.000271259
0.000271128
0.000270294
0.000270747
0.00027008
0.000270327
0.000270044
0.000269527
0.000268636
0.000268108
0.000267982
0.000268058
0.000268362
0.000268649
0.000269062
0.000269635
0.000270276
0.000270935
0.00027162
0.000272325
0.00027309
0.00027389
0.000274806
0.000275835
0.000277028
0.000278384
0.00027993
0.000281714
0.000283775
0.000286131
0.00028891
0.000292154
0.000295964
0.000300401
0.000305602
0.000311656
0.000318754
0.00032703
0.000336739
0.000348103
0.000361484
0.000377299
0.000396195
0.000418977
0.000446992
0.000481942
0.000526779
0.000586108
0.000666671
0.000780297
0.000942589
0.00117132
0.00150149
0.00195422
0.00255367
0.00339515
0.00449249
0.00563934
0.00751138
0.000284468
0.000284051
0.000283807
0.000283446
0.00028314
0.000282863
0.0002824
0.000281962
0.000281595
0.000281213
0.000280493
0.000280216
0.000279081
0.000279198
0.000279344
0.000279618
0.00027965
0.000279814
0.000279759
0.000279809
0.000279959
0.0002802
0.000280563
0.000281019
0.000281578
0.000282231
0.000282977
0.000283791
0.000284671
0.000285618
0.000286644
0.000287751
0.000289009
0.000290427
0.000292052
0.000293894
0.000295984
0.000298376
0.000301123
0.00030424
0.000307873
0.000312088
0.000317002
0.000322699
0.000329339
0.000337045
0.000346041
0.000356507
0.00036877
0.000383144
0.00040016
0.000420442
0.000444976
0.000475047
0.000512811
0.000561078
0.000624973
0.00071137
0.000831019
0.000999505
0.00123408
0.0015564
0.00199804
0.00257088
0.00331054
0.00429497
0.00549768
0.00676131
0.0087654
0.000294197
0.000294031
0.000293223
0.000292885
0.000291987
0.000291728
0.000291744
0.000291117
0.000290621
0.000290533
0.000290427
0.000290569
0.000290673
0.00029098
0.00029138
0.000291881
0.00029235
0.000292874
0.000293401
0.000293949
0.00029453
0.000295143
0.000295804
0.000296515
0.000297297
0.000298146
0.000299083
0.000300102
0.000301219
0.000302444
0.000303782
0.000305268
0.000306956
0.000308868
0.000311046
0.000313511
0.000316299
0.000319474
0.000323102
0.000327206
0.000331946
0.000337426
0.000343775
0.00035112
0.000359637
0.000369512
0.000381008
0.000394411
0.000410158
0.000428768
0.000451018
0.000477972
0.000511154
0.000552882
0.000606574
0.000677185
0.000772611
0.000902675
0.00108215
0.00132772
0.00165694
0.00209132
0.00265483
0.00335564
0.00423603
0.00535371
0.00665625
0.00802105
0.0103972
0.000307739
0.000307888
0.000308151
0.000307439
0.000307386
0.000306956
0.000306557
0.000305517
0.000305827
0.000306334
0.000306717
0.000307086
0.000307475
0.000307949
0.000308501
0.000309134
0.000309813
0.000310545
0.000311322
0.000312144
0.000313009
0.000313919
0.000314879
0.000315893
0.000316978
0.000318137
0.000319398
0.000320758
0.000322254
0.000323889
0.000325682
0.000327695
0.00032997
0.000332541
0.000335454
0.00033874
0.000342444
0.000346647
0.000351433
0.000356836
0.000363031
0.000370172
0.000378414
0.000387932
0.000398954
0.000411751
0.000426693
0.000444239
0.000465065
0.000490034
0.00052045
0.000558139
0.000605715
0.00066719
0.000747928
0.000855906
0.00100161
0.00119762
0.00146019
0.00180424
0.00224591
0.00280321
0.00349319
0.00432466
0.00534128
0.00658534
0.00797913
0.00950945
0.0123548
0.000322789
0.000322956
0.000323193
0.000323405
0.000323768
0.000324084
0.000324565
0.000324904
0.000325425
0.000326086
0.00032679
0.000327521
0.000328287
0.000329107
0.000329985
0.000330921
0.000331908
0.000332944
0.000334029
0.000335164
0.000336352
0.0003376
0.000338913
0.000340305
0.000341787
0.000343373
0.000345089
0.00034694
0.000348976
0.000351184
0.00035363
0.000356373
0.000359454
0.000362928
0.000366841
0.000371238
0.000376183
0.000381769
0.000388107
0.000395258
0.000403403
0.000412778
0.000423591
0.000436105
0.000450659
0.000467685
0.00048779
0.00051175
0.000540731
0.000576242
0.000620584
0.000676863
0.000749494
0.000844725
0.000970269
0.00113692
0.00135625
0.00164187
0.00200795
0.0024661
0.00303034
0.0037139
0.00453106
0.0054919
0.0066411
0.00800984
0.00950895
0.011317
0.0147641
0.000344426
0.000345234
0.000346042
0.000346758
0.000347449
0.000348132
0.000348896
0.000349706
0.000350601
0.000351586
0.000352641
0.00035375
0.000354908
0.000356115
0.000357372
0.00035868
0.00036004
0.000361453
0.000362923
0.000364455
0.000366061
0.000367747
0.00036953
0.000371423
0.000373443
0.000375616
0.000377958
0.0003805
0.000383277
0.000386294
0.000389657
0.000393414
0.000397611
0.000402326
0.000407609
0.000413522
0.000420166
0.000427648
0.000436127
0.000445722
0.000456635
0.000469239
0.000483863
0.000500943
0.00052105
0.000544942
0.000573683
0.000608668
0.000651951
0.000706165
0.000775182
0.000863893
0.0009789
0.00112854
0.00132214
0.0015716
0.00188705
0.00228119
0.00276354
0.00334358
0.00403293
0.00484125
0.00578535
0.00687402
0.0081617
0.00966865
0.0113414
0.0135871
0.0176237
0.000379374
0.000379762
0.000380337
0.000380989
0.000381691
0.000382448
0.000383286
0.000384213
0.000385244
0.000386381
0.00038762
0.000388951
0.000390365
0.000391858
0.000393427
0.000395074
0.000396801
0.000398612
0.000400516
0.00040252
0.000404639
0.000406884
0.00040928
0.000411837
0.00041459
0.000417554
0.000420765
0.000424263
0.000428059
0.000432239
0.000436891
0.000442074
0.000447851
0.000454326
0.00046157
0.000469675
0.0004788
0.0004891
0.000500806
0.000514165
0.000529457
0.000547252
0.000568172
0.000592986
0.000622736
0.000658791
0.000703064
0.000757989
0.000827018
0.000914309
0.00102562
0.00116747
0.00134808
0.00157645
0.00186163
0.00221439
0.00264142
0.00315421
0.00375672
0.00445982
0.00527191
0.00620311
0.00727832
0.00850001
0.00995949
0.0116474
0.0136768
0.0165933
0.022008
0.00042172
0.000422662
0.000423691
0.000424769
0.000425889
0.00042706
0.000428289
0.000429588
0.000430969
0.000432445
0.000434019
0.000435695
0.000437472
0.000439353
0.00044134
0.000443439
0.000445658
0.000448007
0.000450499
0.000453148
0.000455972
0.000458993
0.00046223
0.000465717
0.000469482
0.000473552
0.000477991
0.000482804
0.000488087
0.000493944
0.000500457
0.000507715
0.000515818
0.000524916
0.000535126
0.000546612
0.000559635
0.000574476
0.000591502
0.000611215
0.000634154
0.000661176
0.000693519
0.000732584
0.000780255
0.000838886
0.00091165
0.00100229
0.00111583
0.00125767
0.00143489
0.00165433
0.00192428
0.00225235
0.00264571
0.00311296
0.00365702
0.00428995
0.00500984
0.00583481
0.00676682
0.00782678
0.00905027
0.0104335
0.0121514
0.0141338
0.0168603
0.0209653
0.0278982
0.00047566
0.000477268
0.00047897
0.000480726
0.000482538
0.000484414
0.000486355
0.000488362
0.000490447
0.000492621
0.000494894
0.000497276
0.000499775
0.000502401
0.000505165
0.00050808
0.000511163
0.000514432
0.000517906
0.00052161
0.000525571
0.000529815
0.000534383
0.000539309
0.000544637
0.000550435
0.000556725
0.000563625
0.000571272
0.00057977
0.000589249
0.000599854
0.000611771
0.000625241
0.000640498
0.000657879
0.000677845
0.000700962
0.00072792
0.00075964
0.000797282
0.000842207
0.000896465
0.000962534
0.00104339
0.00114248
0.00126418
0.00141309
0.00159515
0.0018157
0.00208192
0.00239903
0.00277444
0.00321295
0.00372018
0.00430282
0.00496131
0.00571113
0.00654401
0.00749413
0.00855019
0.00976769
0.0111844
0.012814
0.0149778
0.0174902
0.0216977
0.0270071
0.0405097
0.000549138
0.000551542
0.000554094
0.000556743
0.00055949
0.000562346
0.000565305
0.000568363
0.00057153
0.000574814
0.000578227
0.000581781
0.00058549
0.00058937
0.00059344
0.000597724
0.000602247
0.00060704
0.000612139
0.00061758
0.000623407
0.000629675
0.000636427
0.000643746
0.0006517
0.000660347
0.000669891
0.000680483
0.000692286
0.000705494
0.000720355
0.000737146
0.000756246
0.000778104
0.000803215
0.000832271
0.000866139
0.000905868
0.000952748
0.00100833
0.00107453
0.00115363
0.00124821
0.00136152
0.00149767
0.00166053
0.0018549
0.00208509
0.00235681
0.00267388
0.00304295
0.00346641
0.00395161
0.00449983
0.00511782
0.00581025
0.00657855
0.00744336
0.0083916
0.00948468
0.010691
0.0121449
0.0138512
0.0159436
0.0188898
0.022576
0.0292094
0.0373546
0.0613618
0.000652159
0.000655612
0.000659305
0.000663178
0.000667236
0.000671491
0.00067594
0.000680579
0.000685419
0.000690474
0.000695759
0.000701291
0.00070709
0.000713182
0.000719595
0.000726363
0.000733529
0.000741138
0.000749247
0.000757924
0.000767237
0.000777291
0.000788192
0.000800017
0.000813034
0.000827468
0.000843548
0.000861554
0.00088182
0.00090475
0.000930834
0.00096064
0.0009949
0.00103443
0.00108017
0.00113331
0.00119528
0.00126768
0.0013524
0.00145159
0.00156768
0.00170337
0.0018617
0.00204583
0.00225917
0.0025056
0.00278988
0.00311492
0.00348594
0.00390448
0.00437757
0.00490397
0.00549399
0.0061439
0.00686721
0.00766341
0.00854382
0.00953068
0.0106189
0.011903
0.0133433
0.0152
0.0174045
0.0204433
0.0248542
0.0311033
0.0418097
0.0568257
0.0814082
0.000805855
0.000811151
0.000816827
0.000822812
0.000829116
0.000835761
0.000842747
0.000850079
0.000857775
0.000865861
0.000874366
0.000883323
0.000892771
0.00090276
0.000913351
0.000924614
0.000936637
0.000949524
0.000963389
0.000978401
0.000994674
0.00101246
0.00103213
0.00105396
0.00107829
0.0011055
0.00113607
0.00117052
0.00120947
0.00125364
0.00130385
0.00136104
0.00142633
0.00150088
0.00158603
0.00168335
0.00179459
0.00192164
0.00206656
0.00223159
0.00241911
0.00263161
0.00287176
0.00314213
0.00344566
0.00378472
0.00416249
0.00458154
0.00504788
0.00556049
0.0061292
0.00674792
0.00743512
0.00817811
0.00900779
0.00990906
0.010925
0.0120623
0.0133697
0.0149512
0.016843
0.0193974
0.0226272
0.0276651
0.035115
0.046751
0.0638034
0.0835332
0.101539
0.00104093
0.0010493
0.00105838
0.00106807
0.00107842
0.00108947
0.00110124
0.00111378
0.00112713
0.00114136
0.00115655
0.00117279
0.00119016
0.00120879
0.00122881
0.0012504
0.00127372
0.00129893
0.0013265
0.00135675
0.00138998
0.00142656
0.00146691
0.00151153
0.00156097
0.00161586
0.00167689
0.00174484
0.00182058
0.00190506
0.00199934
0.00210455
0.00222198
0.00235286
0.0024986
0.00266079
0.00284105
0.00304107
0.00326263
0.00350756
0.00377774
0.00407508
0.00440156
0.00475911
0.00514998
0.0055758
0.00603998
0.00654251
0.00709089
0.00768351
0.00833706
0.00903756
0.00982044
0.0106567
0.0116126
0.0126419
0.0138638
0.0152315
0.0169542
0.0190577
0.0218821
0.0257158
0.0315128
0.0407616
0.0550996
0.074279
0.095622
0.109709
0.116326
0.00145374
0.00146948
0.00148656
0.00150491
0.00152461
0.00154576
0.00156843
0.00159269
0.00161866
0.00164646
0.00167629
0.00170826
0.00174268
0.00177984
0.00181999
0.0018633
0.00191033
0.00196149
0.00201716
0.00207778
0.00214384
0.00221585
0.00229439
0.00238009
0.00247361
0.00257569
0.00268709
0.00280866
0.00294128
0.00308587
0.00324341
0.00341494
0.00360149
0.00380406
0.00402378
0.00426182
0.00451937
0.00479764
0.00509787
0.00542139
0.00576953
0.0061438
0.0065457
0.00697705
0.00743985
0.0079361
0.00846946
0.00904108
0.00965867
0.0103203
0.0110556
0.0118381
0.0127346
0.0136915
0.0148317
0.016073
0.0176643
0.0194774
0.0220175
0.0251719
0.0299409
0.0369924
0.048995
0.0672942
0.0908469
0.113031
0.124997
0.126404
0.124943
0.00228582
0.00231515
0.00234692
0.00238109
0.00241779
0.0024572
0.00249945
0.0025447
0.00259315
0.00264494
0.00270078
0.00276122
0.0028265
0.00289691
0.00297279
0.00305454
0.00314232
0.00323652
0.00333761
0.0034461
0.00356252
0.00368742
0.00382137
0.00396497
0.00411882
0.00428352
0.00445973
0.00464805
0.00484912
0.00506355
0.00529196
0.005535
0.00579318
0.00606701
0.00635719
0.00666445
0.00698956
0.00733337
0.00769685
0.00808113
0.0084874
0.0089174
0.0093727
0.00985628
0.0103701
0.010919
0.0115058
0.0121373
0.012819
0.0135565
0.0143909
0.0152871
0.01636
0.0175391
0.0190038
0.0207151
0.0229936
0.0258264
0.0299354
0.0357507
0.0452246
0.061306
0.0849095
0.11497
0.135495
0.144695
0.144234
0.137535
0.128082
0.00397918
0.00402848
0.00408237
0.0041406
0.00420335
0.00427084
0.00434323
0.00442074
0.00450366
0.00459234
0.00468675
0.00478701
0.00489366
0.0050072
0.00512813
0.00525691
0.00539398
0.0055397
0.00569448
0.00585868
0.00603267
0.00621679
0.00641137
0.00661671
0.00683309
0.00706077
0.00730006
0.00755107
0.00781412
0.00808929
0.0083768
0.00867675
0.00898938
0.0093149
0.00965353
0.0100059
0.0103726
0.0107545
0.0111531
0.0115701
0.0120071
0.0124674
0.0129534
0.0134711
0.0140221
0.0146196
0.0152571
0.0159645
0.0167257
0.0175963
0.018597
0.0197357
0.0211546
0.022859
0.0249438
0.0277911
0.0313555
0.036813
0.0444928
0.0582893
0.0794378
0.112614
0.14438
0.165497
0.166318
0.162615
0.152725
0.136842
0.120793
0.00728485
0.00735677
0.0074328
0.00751312
0.00759836
0.00768909
0.00778577
0.00788881
0.00799871
0.00811586
0.00824072
0.00837366
0.00851511
0.00866542
0.00882493
0.00899381
0.00917221
0.00936028
0.00955813
0.00976582
0.00998343
0.0102109
0.0104482
0.0106952
0.0109521
0.0112185
0.0114947
0.0117798
0.0120747
0.0123784
0.0126911
0.0130124
0.0133428
0.0136826
0.0140319
0.0143931
0.0147662
0.0151533
0.0155591
0.0159859
0.016436
0.0169167
0.0174317
0.0179913
0.018596
0.019281
0.0200024
0.0208729
0.0217855
0.0230031
0.0243457
0.0261248
0.0282978
0.0312199
0.034575
0.040137
0.047064
0.0595784
0.0779496
0.110196
0.149325
0.178922
0.189024
0.186959
0.180655
0.16583
0.14488
0.121847
0.102742
0.0128803
0.0129483
0.0130217
0.0131005
0.013185
0.013276
0.0133745
0.0134802
0.013594
0.0137154
0.0138461
0.0139867
0.0141379
0.0142992
0.0144711
0.0146519
0.0148421
0.0150417
0.0152506
0.0154688
0.015696
0.0159306
0.0161732
0.0164236
0.0166829
0.0169496
0.0172242
0.0175048
0.0177937
0.0180894
0.0183932
0.0187039
0.0190258
0.0193571
0.0196983
0.0200535
0.0204242
0.0208129
0.0212286
0.0216774
0.0221645
0.0226998
0.0232985
0.0239628
0.0247164
0.0256018
0.0265264
0.0278159
0.0291345
0.0313037
0.0334105
0.0368338
0.0407438
0.0462504
0.0534281
0.0661472
0.0839938
0.112718
0.156076
0.193117
0.210249
0.212365
0.20865
0.197374
0.17267
0.144548
0.118695
0.0967607
0.0800038
0.0215161
0.0215533
0.021598
0.0216511
0.0217123
0.0217819
0.0218602
0.0219466
0.0220421
0.0221458
0.0222599
0.0223835
0.0225173
0.0226601
0.0228124
0.0229712
0.0231381
0.0233117
0.0234937
0.0236817
0.0238782
0.0240799
0.0242865
0.0244974
0.0247148
0.024936
0.0251633
0.0253939
0.0256293
0.0258721
0.0261221
0.0263829
0.0266574
0.0269533
0.0272732
0.0276262
0.0280242
0.0284709
0.0289725
0.0295491
0.0302027
0.0309546
0.0318432
0.0327877
0.0340309
0.0353145
0.0369114
0.0392958
0.0421517
0.0465363
0.050937
0.0584403
0.0671023
0.0793308
0.0996477
0.129378
0.171599
0.206146
0.228248
0.234046
0.233221
0.224946
0.199252
0.16455
0.131502
0.104681
0.08408
0.0705684
0.0621453
0.0336133
0.0336614
0.0337117
0.033766
0.0338236
0.0338878
0.0339571
0.034033
0.0341141
0.0342047
0.0342974
0.0343941
0.0344968
0.0346061
0.0347211
0.0348429
0.0349755
0.0351125
0.0352616
0.0354143
0.0355745
0.0357452
0.0359146
0.0360959
0.0362665
0.0364586
0.0366531
0.0368526
0.0370702
0.037329
0.0376035
0.0379425
0.0383136
0.0387754
0.0393012
0.039926
0.0406432
0.0414866
0.0424171
0.0434862
0.0446516
0.0460211
0.0475815
0.0491798
0.0516766
0.0535252
0.0578175
0.0648483
0.0733458
0.0827216
0.0948482
0.111256
0.130685
0.160552
0.193517
0.217101
0.234808
0.248695
0.249879
0.242177
0.21353
0.173564
0.132957
0.0992654
0.0776698
0.0676014
0.0629945
0.0590299
0.0568919
0.0600392
0.0599455
0.0599777
0.0601627
0.0602849
0.0604214
0.0605809
0.0607468
0.0608747
0.0611084
0.0608524
0.0609764
0.0611074
0.0612359
0.0613351
0.0614643
0.0615875
0.0617175
0.0618298
0.0619472
0.0620085
0.0621066
0.0620907
0.0623345
0.0616706
0.0621009
0.0613544
0.0610635
0.0614349
0.0619469
0.0624284
0.0631519
0.0639126
0.0649502
0.0661262
0.0675356
0.0691728
0.0712355
0.0736039
0.0760849
0.0791194
0.0820743
0.085842
0.0906829
0.0954503
0.102988
0.109512
0.115233
0.123292
0.13462
0.149245
0.16847
0.190817
0.215425
0.23701
0.244
0.239319
0.218469
0.181024
0.137055
0.0955239
0.0654743
0.0489257
0.0446157
0.0479475
0.05252
0.0579605
0.0632899
0.0687297
0.187376
0.188862
0.191422
0.191307
0.191331
0.191441
0.191674
0.191928
0.192103
0.192685
0.19349
0.19405
0.194036
0.194485
0.194186
0.19572
0.195461
0.196547
0.196187
0.196621
0.196645
0.196309
0.196004
0.194841
0.195025
0.193774
0.193476
0.192926
0.191972
0.191134
0.190012
0.188956
0.187574
0.185915
0.184827
0.180817
0.178855
0.179527
0.178699
0.17639
0.172368
0.166077
0.160242
0.153898
0.146326
0.137218
0.126444
0.114219
0.100783
0.0869603
0.0736009
0.0626901
0.0547732
0.0532984
0.0553192
0.0580055
0.0582277
0.0523975
0.0408967
0.0301319
0.0245473
0.0230673
0.0299105
0.040117
0.0532363
0.0687284
0.0872695
0.109953
0.139169
0.000255463
0.000255919
0.000256628
0.000256875
0.000257552
0.000258114
0.000259362
0.000260386
0.0002613
0.000262007
0.000262649
0.000263032
0.000264892
0.00026582
0.000266393
0.000266473
0.000267461
0.000267768
0.00026751
0.000267099
0.000266985
0.000267828
0.000268058
0.000268379
0.000268589
0.000268512
0.000268653
0.000268156
0.000267831
0.000268519
0.00026916
0.0002696
0.00026938
0.000268059
0.000267379
0.000266441
0.000266193
0.000265753
0.000264977
0.000264507
0.000264168
0.000263724
0.000262894
0.000261222
0.000260103
0.000259142
0.000258026
0.000256502
0.000255658
0.000255151
0.000254932
0.00025461
0.00025392
0.000253531
0.000252824
0.000252122
0.000251507
0.000250975
0.000250654
0.000257096
0.000257668
0.000258282
0.000258892
0.00025989
0.000260662
0.000261327
0.000261894
0.000262578
0.000263342
0.000264122
0.000265482
0.000266624
0.000267097
0.000267376
0.000267929
0.000268715
0.00026879
0.000268215
0.00026807
0.000268063
0.000268651
0.000268647
0.000269146
0.000269186
0.000269104
0.000269189
0.000268715
0.000268327
0.00026891
0.000269546
0.000269981
0.000269737
0.000268462
0.000267803
0.000266877
0.000266509
0.000266158
0.000265418
0.00026484
0.00026446
0.000264149
0.000263605
0.000262377
0.000261105
0.000260097
0.000259321
0.000257982
0.000256674
0.000255877
0.000255487
0.000255286
0.000254991
0.000254755
0.000254497
0.000254017
0.000253624
0.000253073
0.000252603
0.000260461
0.000260961
0.000261461
0.000261969
0.000262492
0.000262906
0.000263474
0.000264153
0.000265068
0.00026618
0.000267547
0.000268471
0.000268856
0.000268955
0.000269224
0.000270088
0.000270383
0.000270013
0.000269552
0.000269595
0.000269889
0.00027019
0.00027018
0.000270504
0.000270472
0.000270474
0.000270356
0.000269858
0.000269501
0.000269985
0.000270628
0.000271074
0.000270782
0.000269489
0.000268806
0.000267856
0.00026733
0.000266957
0.000266397
0.000265709
0.000265248
0.000265026
0.000264683
0.000263963
0.000262807
0.00026163
0.000260886
0.000259852
0.000258838
0.000257549
0.000256788
0.000256429
0.000256174
0.00025599
0.000255714
0.00025552
0.000255317
0.000255045
0.000254744
0.000263877
0.000264312
0.000264824
0.000265243
0.000265766
0.000266383
0.000267238
0.000268137
0.000269229
0.000270311
0.00027107
0.000271439
0.000271548
0.00027171
0.000272563
0.000272899
0.0002728
0.000272027
0.000271867
0.000271851
0.000272135
0.000272426
0.000272466
0.000272707
0.000272532
0.000272441
0.000272335
0.000271788
0.000271422
0.000271723
0.000272328
0.000272635
0.000272371
0.000271252
0.000270561
0.000269648
0.00026894
0.000268553
0.000268087
0.000267413
0.000266833
0.000266565
0.000266298
0.000265878
0.000265139
0.000264027
0.000263232
0.000262364
0.000261455
0.000260554
0.000259442
0.000258799
0.000258136
0.000257807
0.000257336
0.000257132
0.000256695
0.000256584
0.000256392
0.000269432
0.000269638
0.00026977
0.000269982
0.000270733
0.000271467
0.0002723
0.000273279
0.00027441
0.000275184
0.000275546
0.000275571
0.000275437
0.000275879
0.00027635
0.000276447
0.00027558
0.00027522
0.000275125
0.00027526
0.000275466
0.000275335
0.000275463
0.000275607
0.00027544
0.000275423
0.000275076
0.000274464
0.000274123
0.000274297
0.000274823
0.000275076
0.000274783
0.00027376
0.000273061
0.000272192
0.000271398
0.000270921
0.000270495
0.000269895
0.00026927
0.000268886
0.000268628
0.000268325
0.000267846
0.000267088
0.000266277
0.000265609
0.000264768
0.000264059
0.000263179
0.000262472
0.000261681
0.000261137
0.000260468
0.000260047
0.000259729
0.000259484
0.000259062
0.000276125
0.000276229
0.000276274
0.00027643
0.000277589
0.000278595
0.000279528
0.000280568
0.000280969
0.000280929
0.000280696
0.000280654
0.000280614
0.000281189
0.000281594
0.000280611
0.000279883
0.000279606
0.000279681
0.000279605
0.000279757
0.000279818
0.00027969
0.000279814
0.000279473
0.000279318
0.000278853
0.000278219
0.000277833
0.000277901
0.000278331
0.000278513
0.00027819
0.000277246
0.000276525
0.000275699
0.000274838
0.000274248
0.000273809
0.000273301
0.000272675
0.000272177
0.000271851
0.000271574
0.000271244
0.000270785
0.000270169
0.000269639
0.000269046
0.000268537
0.000267894
0.000267335
0.000266792
0.000266357
0.00026579
0.000265338
0.000264889
0.000264544
0.00026417
0.000284753
0.000284977
0.000284865
0.000285739
0.000286184
0.00028629
0.000287201
0.00028767
0.000287404
0.000287618
0.000287751
0.000287841
0.000288146
0.000288125
0.000286736
0.000285918
0.000285641
0.000285723
0.000285762
0.000285664
0.000285787
0.000285116
0.000284979
0.00028494
0.000284677
0.00028435
0.000283823
0.000283096
0.000282638
0.000282633
0.000282941
0.000283038
0.000282685
0.000281811
0.00028106
0.000280283
0.000279397
0.000278714
0.000278217
0.000277757
0.000277217
0.000276672
0.000276266
0.000275961
0.000275668
0.000275327
0.0002749
0.000274475
0.000273962
0.000273437
0.000272861
0.000272574
0.000271858
0.000270969
0.000270693
0.000270634
0.000270575
0.000269907
0.000269633
0.000295524
0.000295916
0.000296512
0.000296943
0.000297202
0.000297635
0.000298136
0.000297434
0.000297019
0.000296793
0.000296306
0.00029617
0.000295802
0.000294771
0.000293922
0.000293378
0.000293333
0.000293512
0.000293198
0.000292961
0.000292327
0.000292156
0.000292297
0.000292051
0.000291405
0.000291075
0.000290306
0.000289555
0.000288987
0.000288887
0.000289061
0.000289055
0.000288663
0.000287846
0.000287035
0.000286276
0.000285404
0.000284622
0.000284034
0.000283549
0.000283068
0.000282554
0.000282088
0.000281715
0.000281375
0.000281061
0.000280705
0.000280353
0.000280027
0.000279548
0.000279255
0.000278726
0.000278431
0.000277943
0.000277569
0.000277166
0.000276993
0.000276611
0.000276137
0.000309116
0.000309026
0.000308951
0.000308248
0.000308186
0.000307727
0.000307411
0.00030708
0.000306975
0.000306856
0.000306475
0.000305858
0.000305232
0.000304127
0.000303546
0.000303574
0.000303555
0.000303625
0.000302374
0.000302049
0.000302134
0.000301577
0.000301147
0.000300643
0.00030004
0.000299423
0.000298601
0.000297721
0.00029704
0.000296824
0.000296866
0.000296738
0.000296308
0.000295515
0.000294678
0.000293891
0.000293076
0.000292269
0.000291594
0.000291046
0.000290551
0.000290093
0.000289617
0.000289191
0.000288819
0.000288514
0.000288073
0.000287788
0.000287236
0.000287048
0.000286565
0.000286476
0.000285984
0.000285835
0.000285816
0.000285608
0.000285453
0.000285226
0.000284906
0.00032609
0.000325736
0.000325412
0.000325369
0.000324967
0.000323879
0.000323349
0.000322747
0.000321447
0.000320446
0.000319284
0.000318281
0.000317177
0.000316991
0.000316997
0.00031645
0.000316796
0.00031526
0.000314946
0.000314722
0.00031367
0.000312905
0.000312461
0.000311847
0.000311016
0.000310401
0.00030929
0.000308328
0.000307492
0.000307133
0.00030701
0.000306737
0.000306243
0.000305427
0.000304545
0.000303698
0.00030287
0.00030206
0.00030131
0.000300675
0.000300075
0.000299616
0.000299037
0.000298712
0.000298184
0.000297959
0.000297589
0.000297173
0.000296955
0.000296724
0.000296122
0.000295777
0.00029556
0.000295308
0.000295198