/*--------------------------------*- C++ -*----------------------------------*\
| =========                 |                                                 |
| \\      /  F ield         | OpenFOAM: The Open Source CFD Toolbox           |
|  \\    /   O peration     | Version:  2312                                  |
|   \\  /    A nd           | Website:  www.openfoam.com                      |
|    \\/     M anipulation  |                                                 |
\*---------------------------------------------------------------------------*/
FoamFile
{
    version     2.0;
    format      ascii;
    arch        "LSB;label=32;scalar=64";
    class       volScalarField;
    location    "900";
    object      k;
}
// * * * * * * * * * * * * * * * * * * * * * * * * * * * * * * * * * * * * * //

dimensions      [0 2 -2 0 0 0 0];

internalField   nonuniform List<scalar> 
76025
(
0.00191088
0.00190935
0.00190697
0.00190585
0.00190186
0.00190101
0.0019013
0.00189969
0.00189688
0.00189458
0.00189288
0.00189163
0.00188974
0.00188803
0.00188609
0.00188415
0.00188302
0.00188087
0.0018786
0.00187704
0.00187394
0.00187235
0.00186956
0.00186479
0.00186456
0.00186126
0.00186272
0.00186384
0.00186338
0.00186307
0.00186185
0.0018615
0.00185703
0.00185522
0.00185303
0.0018511
0.00185242
0.00184945
0.00185113
0.00184748
0.00184624
0.00184559
0.00184831
0.00185542
0.00186208
0.00187153
0.00188058
0.00189295
0.00190699
0.00192616
0.00194747
0.00197555
0.00200613
0.00204361
0.00208378
0.00212785
0.00217918
0.00224317
0.00231365
0.00242115
0.00252991
0.0026963
0.00289416
0.00317932
0.00355575
0.00414691
0.00494103
0.00652579
0.00861862
0.00192804
0.00192482
0.00192173
0.0019184
0.00191427
0.00191258
0.0019115
0.00191041
0.0019093
0.00190761
0.0019058
0.00190297
0.00189839
0.00189721
0.00189798
0.00189691
0.00189499
0.00189249
0.00189011
0.00188704
0.00188175
0.00188003
0.00188053
0.00187958
0.00187797
0.00187598
0.00187485
0.00186957
0.00186766
0.00186735
0.00186607
0.00186426
0.00186137
0.00185946
0.00186052
0.00186293
0.00186608
0.00186967
0.00187349
0.00187747
0.00188163
0.0018863
0.00189166
0.00189804
0.00190575
0.00191529
0.00192688
0.00194142
0.00195882
0.00197983
0.00200397
0.00203248
0.00206417
0.00210205
0.00214442
0.0021972
0.00225985
0.0023372
0.00243659
0.00255701
0.00271101
0.00290477
0.00315653
0.00349057
0.00398434
0.00473002
0.00584974
0.0078422
0.0103126
0.0019432
0.00194113
0.00193956
0.00193685
0.00193394
0.00193074
0.00192802
0.00192597
0.00192324
0.00192132
0.00191884
0.00191579
0.00191401
0.00190961
0.00190834
0.00190759
0.00190889
0.00190746
0.00190538
0.00190169
0.00189888
0.00189692
0.00189417
0.00189074
0.00188882
0.00188782
0.00188769
0.00188333
0.00188072
0.00188056
0.0018815
0.00188314
0.0018859
0.00188847
0.00189154
0.00189516
0.00189885
0.0019027
0.00190673
0.00191114
0.00191601
0.0019218
0.00192859
0.00193696
0.00194703
0.0019593
0.00197391
0.00199144
0.00201188
0.00203591
0.00206354
0.00209594
0.00213348
0.00217831
0.00223095
0.00229542
0.00237088
0.00246608
0.00257812
0.0027209
0.00289514
0.00312277
0.00343112
0.00386163
0.00452532
0.00548334
0.00693991
0.00917103
0.0116817
0.00196004
0.00195689
0.00195581
0.00195602
0.00195509
0.00195259
0.00194964
0.00194677
0.00194427
0.00193945
0.00193689
0.0019356
0.0019308
0.00192906
0.00193048
0.0019302
0.00192899
0.00192709
0.0019245
0.00192047
0.00191775
0.00191501
0.00191373
0.00190815
0.00190875
0.0019105
0.00191184
0.0019138
0.00191434
0.00191572
0.00191786
0.00191998
0.00192236
0.0019251
0.00192814
0.00193161
0.00193535
0.00193957
0.00194432
0.00194978
0.00195605
0.00196366
0.00197261
0.00198344
0.00199615
0.00201131
0.00202897
0.0020498
0.00207392
0.00210211
0.00213482
0.00217317
0.0022182
0.00227144
0.0023349
0.00241029
0.0025013
0.0026116
0.0027466
0.00291626
0.00312972
0.00342161
0.00382481
0.00440558
0.00527654
0.00648706
0.00826652
0.0106374
0.0132921
0.00197662
0.00197565
0.00197506
0.00197604
0.00197566
0.00197446
0.00197211
0.00196936
0.00196532
0.00196422
0.00195975
0.00195701
0.00195536
0.00195609
0.00195187
0.00195071
0.00194977
0.00195141
0.00195083
0.00194856
0.00194543
0.00193994
0.00194037
0.00194025
0.00194056
0.00194174
0.00194334
0.00194555
0.0019479
0.00195043
0.00195305
0.00195586
0.00195887
0.00196225
0.001966
0.00197027
0.00197505
0.00198051
0.00198679
0.00199399
0.00200229
0.0020121
0.0020236
0.00203711
0.00205288
0.00207132
0.00209273
0.00211768
0.00214657
0.00218025
0.00221942
0.00226539
0.00231937
0.00238335
0.00245924
0.00254983
0.00265907
0.00279168
0.00295603
0.00316367
0.00343763
0.00382048
0.0043568
0.0051322
0.00623981
0.00771325
0.00974
0.0121921
0.0148229
0.00199914
0.0019986
0.00199843
0.00199806
0.00199805
0.00199874
0.00199802
0.00199642
0.0019951
0.0019913
0.001988
0.0019861
0.00198387
0.0019828
0.00198314
0.00198371
0.00198271
0.0019811
0.00197819
0.00197435
0.00197352
0.0019729
0.00197385
0.00197559
0.00197767
0.00197998
0.00198253
0.00198528
0.00198817
0.00199128
0.00199448
0.00199797
0.0020018
0.00200614
0.00201103
0.00201659
0.00202286
0.00202999
0.00203817
0.0020475
0.00205813
0.00207054
0.00208494
0.00210169
0.00212108
0.00214357
0.00216955
0.00219965
0.00223451
0.00227505
0.00232234
0.00237781
0.0024431
0.00252034
0.00261195
0.00272157
0.00285401
0.00301677
0.00322201
0.00349018
0.00385711
0.00437361
0.00509307
0.00610224
0.0074507
0.00915741
0.0113549
0.0137947
0.0163943
0.00202894
0.0020259
0.00202531
0.00202543
0.00202426
0.00202494
0.00202459
0.0020244
0.00202389
0.00202326
0.00202338
0.00202019
0.00202064
0.00201631
0.00201706
0.00201822
0.00201883
0.00202029
0.00201609
0.00201773
0.00201878
0.00201968
0.002021
0.00202288
0.00202516
0.00202771
0.00203053
0.00203364
0.00203701
0.00204071
0.00204464
0.00204907
0.00205402
0.00205965
0.00206601
0.0020732
0.0020813
0.00209044
0.00210088
0.00211271
0.00212609
0.00214156
0.00215941
0.00218001
0.00220374
0.00223111
0.00226264
0.00229909
0.00234132
0.0023905
0.00244795
0.00251536
0.0025947
0.00268851
0.00280013
0.00293472
0.00309966
0.00330713
0.00357687
0.00394002
0.00444318
0.00513808
0.00607728
0.00732443
0.00888431
0.010772
0.013046
0.0154317
0.017919
0.0020648
0.00206264
0.00205852
0.00205745
0.00205761
0.00205551
0.00205567
0.00205393
0.00205315
0.00205406
0.00205519
0.00205562
0.00205684
0.00205752
0.00205897
0.00206089
0.00206306
0.00206532
0.00206714
0.00206925
0.00207141
0.00207368
0.00207612
0.00207879
0.00208173
0.00208492
0.0020884
0.00209217
0.0020963
0.00210084
0.00210578
0.00211139
0.00211769
0.00212484
0.00213293
0.00214203
0.00215228
0.00216382
0.00217691
0.00219175
0.00220844
0.00222761
0.00224962
0.00227492
0.00230396
0.00233737
0.00237585
0.00242036
0.002472
0.00253216
0.00260247
0.00268497
0.00278223
0.00289789
0.00303714
0.0032082
0.00342293
0.00370104
0.00407102
0.00457344
0.00525705
0.00616348
0.00733343
0.00879113
0.0105181
0.0125179
0.0147967
0.0170764
0.019425
0.00211751
0.00211432
0.0021142
0.00211252
0.00211117
0.00210929
0.00210813
0.00210343
0.0021048
0.0021074
0.00211017
0.00211251
0.00211478
0.00211688
0.00211913
0.00212157
0.00212426
0.00212706
0.00212992
0.00213288
0.00213595
0.00213915
0.00214252
0.00214611
0.00214992
0.00215403
0.00215846
0.00216326
0.00216851
0.00217423
0.00218053
0.00218767
0.00219568
0.00220472
0.00221494
0.0022264
0.00223928
0.00225377
0.00227015
0.00228867
0.00230946
0.00233318
0.00236034
0.00239147
0.00242716
0.00246821
0.00251554
0.00257031
0.00263391
0.00270808
0.00279494
0.00289736
0.00301928
0.00316649
0.00334765
0.00357555
0.00386892
0.00425555
0.00477055
0.00545644
0.00635055
0.00747765
0.00885529
0.010475
0.012312
0.0143526
0.0165727
0.0186974
0.0208601
0.00217238
0.00217273
0.0021735
0.00217383
0.00217436
0.00217454
0.00217566
0.00217584
0.0021768
0.0021786
0.002181
0.00218359
0.0021863
0.00218907
0.002192
0.00219511
0.00219844
0.00220194
0.0022056
0.0022094
0.00221336
0.0022175
0.00222186
0.00222648
0.00223139
0.00223668
0.00224234
0.00224851
0.00225523
0.00226253
0.00227067
0.00227982
0.00229007
0.00230161
0.00231461
0.00232914
0.00234544
0.00236374
0.00238432
0.00240756
0.00243359
0.00246308
0.00249679
0.00253537
0.00257963
0.00263055
0.00268935
0.00275752
0.00283694
0.00293001
0.00303997
0.00317134
0.00333063
0.00352721
0.0037747
0.00409184
0.00450458
0.00504503
0.00574766
0.00664424
0.00775244
0.00907716
0.0106141
0.012337
0.0142221
0.0162358
0.0183454
0.020266
0.0223382
0.00223107
0.00223213
0.00223406
0.0022364
0.00223916
0.00224205
0.0022453
0.0022486
0.00225192
0.00225547
0.00225932
0.00226337
0.00226756
0.00227185
0.00227625
0.00228079
0.00228549
0.00229034
0.00229535
0.00230052
0.00230589
0.00231146
0.00231731
0.00232347
0.00233
0.00233698
0.00234446
0.00235259
0.00236134
0.00237093
0.00238159
0.00239349
0.00240676
0.00242161
0.00243824
0.00245675
0.00247742
0.00250057
0.00252649
0.00255569
0.00258841
0.00262535
0.00266756
0.00271593
0.00277155
0.00283575
0.0029102
0.00299704
0.00309906
0.00322008
0.00336531
0.0035422
0.00376104
0.0040361
0.00438649
0.00483602
0.00541325
0.00614621
0.00705818
0.00816207
0.00945584
0.0109293
0.0125641
0.0143284
0.0161991
0.0181265
0.0200766
0.021772
0.0238446
0.00233977
0.00233953
0.00234004
0.00234128
0.00234322
0.00234573
0.00234875
0.00235214
0.00235583
0.00235981
0.0023641
0.00236868
0.00237352
0.0023786
0.00238391
0.00238947
0.00239528
0.00240134
0.00240768
0.0024143
0.00242124
0.00242852
0.00243619
0.0024443
0.00245294
0.00246214
0.00247203
0.0024827
0.00249417
0.00250682
0.00252079
0.00253628
0.00255346
0.00257257
0.00259387
0.00261749
0.00264381
0.00267326
0.00270621
0.00274332
0.0027851
0.00283222
0.00288617
0.00294822
0.00301992
0.00310322
0.00320065
0.00331559
0.00345255
0.00361776
0.00381959
0.00406944
0.00438206
0.00477618
0.00527377
0.00589823
0.00667187
0.00760975
0.00871867
0.00999371
0.0114203
0.0129801
0.0146485
0.0163942
0.0181914
0.0199831
0.0217275
0.0232399
0.0255119
0.00247094
0.00247259
0.00247439
0.00247644
0.00247889
0.00248178
0.00248506
0.00248869
0.00249263
0.00249687
0.00250143
0.00250632
0.00251156
0.00251713
0.00252307
0.00252938
0.0025361
0.00254324
0.00255082
0.00255888
0.00256744
0.00257657
0.00258627
0.00259665
0.00260773
0.00261961
0.00263243
0.00264616
0.00266114
0.00267764
0.00269584
0.00271597
0.00273825
0.00276303
0.00279059
0.00282119
0.00285532
0.00289356
0.00293646
0.00298482
0.00303957
0.00310156
0.00317264
0.00325497
0.00335094
0.00346369
0.00359735
0.00375741
0.00395109
0.00418792
0.00447989
0.00484202
0.00529159
0.00584761
0.00652844
0.00734912
0.00831893
0.00943786
0.0106992
0.0120872
0.0135824
0.0151637
0.0168044
0.0184755
0.0201481
0.0217655
0.0232791
0.0247531
0.0268697
0.00262534
0.00262917
0.00263316
0.00263725
0.00264153
0.00264607
0.00265085
0.00265587
0.00266113
0.00266663
0.00267242
0.00267851
0.00268494
0.00269174
0.00269895
0.0027066
0.00271474
0.00272341
0.00273267
0.00274257
0.00275317
0.00276453
0.00277671
0.0027898
0.00280386
0.00281906
0.00283539
0.00285316
0.0028727
0.00289424
0.00291805
0.00294442
0.00297369
0.00300632
0.00304267
0.00308318
0.00312854
0.00317953
0.00323705
0.00330218
0.00337644
0.00346147
0.00355945
0.00367416
0.00380958
0.00397082
0.00416435
0.00439847
0.00468327
0.00503103
0.00545553
0.00597192
0.00659473
0.00733686
0.00820694
0.00920803
0.010337
0.0115835
0.0129339
0.0143681
0.0158667
0.017408
0.0189655
0.0205138
0.0220238
0.0234403
0.0247679
0.0262297
0.0286487
0.00281662
0.00282223
0.00282818
0.00283433
0.00284071
0.00284737
0.00285429
0.00286146
0.00286889
0.00287661
0.00288464
0.00289301
0.00290176
0.00291093
0.00292055
0.00293068
0.00294138
0.00295272
0.00296476
0.00297759
0.00299128
0.00300596
0.00302171
0.00303865
0.00305695
0.00307666
0.00309811
0.0031217
0.0031477
0.00317643
0.00320827
0.00324364
0.00328304
0.00332714
0.00337646
0.00343175
0.00349409
0.0035647
0.00364509
0.00373711
0.00384315
0.00396628
0.00411003
0.00427931
0.00448091
0.00472218
0.00501174
0.00535968
0.00577698
0.00627542
0.00686605
0.00755898
0.00836103
0.00927581
0.0103018
0.011433
0.0126593
0.0139656
0.0153366
0.0167517
0.018193
0.0196397
0.0210678
0.0224574
0.0237829
0.0249981
0.0262129
0.0278244
0.0306227
0.00306313
0.0030708
0.00307897
0.00308748
0.00309635
0.0031056
0.00311524
0.00312523
0.00313559
0.00314635
0.00315755
0.0031692
0.00318136
0.00319405
0.00320734
0.00322129
0.00323597
0.00325145
0.00326783
0.00328523
0.00330377
0.00332358
0.00334484
0.00336772
0.00339234
0.00341922
0.00344874
0.00348125
0.00351716
0.00355695
0.00360122
0.00365061
0.00370594
0.00376824
0.00383848
0.00391801
0.00400865
0.0041125
0.00423211
0.00437061
0.00453177
0.00472018
0.00494129
0.00520119
0.00550693
0.00586767
0.00629202
0.00678867
0.00736574
0.00803041
0.00878741
0.00963965
0.010586
0.011623
0.012743
0.013936
0.0151891
0.0164865
0.0178135
0.01915
0.0204812
0.0217889
0.0230543
0.0242665
0.0254043
0.0264492
0.0277152
0.0296858
0.0339907
0.003387
0.00339712
0.00340798
0.0034194
0.0034314
0.003444
0.0034572
0.00347099
0.00348537
0.00350039
0.00351608
0.00353248
0.00354964
0.00356762
0.00358648
0.00360629
0.00362715
0.00364917
0.00367248
0.00369722
0.00372359
0.00375181
0.003782
0.00381469
0.00385041
0.00388959
0.00393273
0.00398041
0.00403334
0.00409234
0.0041584
0.00423265
0.00431653
0.00441172
0.00451996
0.00464359
0.00478543
0.00494868
0.00513703
0.00535471
0.00560647
0.00589757
0.00623369
0.00662081
0.00706498
0.00757196
0.00814672
0.00879484
0.00952055
0.0103248
0.0112066
0.0121637
0.0131903
0.0142797
0.0154218
0.0166058
0.0178184
0.0190439
0.0202692
0.0214756
0.0226544
0.0237924
0.0248782
0.0259095
0.0268764
0.0278697
0.0295358
0.032488
0.0388801
0.00382807
0.00384193
0.00385685
0.00387262
0.00388925
0.00390682
0.00392528
0.00394466
0.00396497
0.00398628
0.00400864
0.00403212
0.0040568
0.00408277
0.00411014
0.00413904
0.00416963
0.00420208
0.00423665
0.00427355
0.00431301
0.00435586
0.00440257
0.00445372
0.00450994
0.00457201
0.00464079
0.00471733
0.00480281
0.00489861
0.00500632
0.00512773
0.00526503
0.00542048
0.00559656
0.0057963
0.00602303
0.00628031
0.00657195
0.00690197
0.00727448
0.00769363
0.00816339
0.00868748
0.00926906
0.00991063
0.0106135
0.0113783
0.0122034
0.0130865
0.0140249
0.0150151
0.0160486
0.0171186
0.0182139
0.0193245
0.0204356
0.0215332
0.0226066
0.0236412
0.0246394
0.0255918
0.0264933
0.0273568
0.0282591
0.0296214
0.0324866
0.0373776
0.0444558
0.00444108
0.00446015
0.00448085
0.00450296
0.00452653
0.00455165
0.00457834
0.00460661
0.00463656
0.00466829
0.00470191
0.00473756
0.00477538
0.00481556
0.00485829
0.00490388
0.00495252
0.00500468
0.00506123
0.00512267
0.00518959
0.00526268
0.00534276
0.00543072
0.0055276
0.00563454
0.00575283
0.0058839
0.00602932
0.00619082
0.00637029
0.00656978
0.0067916
0.00703793
0.00731116
0.00761401
0.00794922
0.00831953
0.00872762
0.0091761
0.00966737
0.0102035
0.0107862
0.0114166
0.0120952
0.0128217
0.0135948
0.0144128
0.0152718
0.0161682
0.0170951
0.018047
0.019017
0.0200021
0.0209897
0.0219693
0.0229225
0.0238414
0.0247205
0.0255552
0.0263598
0.0271172
0.0278553
0.0286889
0.0300594
0.0329092
0.0379381
0.0442553
0.0505695
0.00534411
0.00537289
0.00540424
0.00543798
0.00547425
0.00551325
0.00555506
0.0055998
0.00564766
0.00569887
0.0057537
0.00581233
0.00587511
0.00594287
0.00601604
0.0060951
0.00618055
0.00627296
0.00637299
0.00648137
0.00659891
0.00672647
0.00686503
0.00701563
0.00717938
0.00735748
0.00755122
0.00776196
0.00799117
0.00824035
0.0085111
0.00880507
0.00912401
0.00946936
0.00984275
0.010246
0.0106806
0.011148
0.0116494
0.0121859
0.012758
0.0133662
0.0140101
0.0146891
0.0154021
0.0161471
0.0169214
0.0177226
0.0185453
0.0193855
0.0202366
0.0210917
0.0219362
0.0227827
0.0236092
0.0243998
0.0251357
0.0258314
0.026485
0.0271117
0.0277167
0.0283169
0.0291455
0.0306953
0.0340738
0.0395374
0.046258
0.0514833
0.0547256
0.00677168
0.00681945
0.0068717
0.00692821
0.00698925
0.00705542
0.00712691
0.00720395
0.00728684
0.0073759
0.00747143
0.00757373
0.00768311
0.00779998
0.00792483
0.00805819
0.00820057
0.00835258
0.00851486
0.00868811
0.00887308
0.00907056
0.0092814
0.00950647
0.00974672
0.0100031
0.0102766
0.0105683
0.0108791
0.0112101
0.0115623
0.0119365
0.0123337
0.0127544
0.0131992
0.0136687
0.0141632
0.0146829
0.0152277
0.0157974
0.0163913
0.0170085
0.0176479
0.0183079
0.0189864
0.0196812
0.0203888
0.0211073
0.0218288
0.0225508
0.023268
0.0239627
0.0246222
0.0253049
0.0259075
0.026423
0.0268726
0.0273212
0.027744
0.0281994
0.0286934
0.0296312
0.0316706
0.0359789
0.0425563
0.0495136
0.0537076
0.0555996
0.0564554
0.0093463
0.00942344
0.00950624
0.00959442
0.00968824
0.00978804
0.00989406
0.0100066
0.010126
0.0102528
0.0103871
0.0105296
0.0106805
0.0108403
0.0110097
0.011189
0.011379
0.0115802
0.0117931
0.0120184
0.0122568
0.0125087
0.0127749
0.0130557
0.0133519
0.0136638
0.013992
0.0143368
0.0146987
0.0150778
0.0154742
0.0158881
0.0163191
0.0167668
0.0172309
0.017711
0.0182064
0.0187164
0.0192401
0.0197766
0.0203248
0.0208832
0.0214503
0.0220241
0.0226025
0.0231839
0.0237631
0.0243406
0.0249012
0.0254446
0.0259647
0.0264011
0.0268489
0.0271425
0.0273167
0.0275203
0.0277791
0.0281103
0.0284333
0.0290253
0.0302647
0.0332434
0.0389532
0.0472264
0.0539574
0.0564483
0.0575012
0.0574105
0.0567268
0.0136513
0.0137352
0.0138241
0.0139178
0.0140167
0.0141213
0.0142321
0.0143493
0.0144736
0.0146056
0.0147459
0.0148951
0.0150539
0.0152229
0.0154027
0.015594
0.0157972
0.0160127
0.016241
0.0164822
0.0167368
0.0170049
0.0172866
0.0175819
0.0178909
0.0182134
0.0185494
0.0188982
0.0192597
0.0196332
0.0200181
0.0204132
0.0208176
0.0212302
0.0216499
0.0220748
0.0225037
0.0229346
0.0233683
0.0238043
0.0242406
0.0246762
0.0251092
0.0255364
0.0259569
0.026372
0.0267628
0.0271459
0.0274957
0.027694
0.027852
0.0278889
0.0278483
0.0279386
0.0277855
0.0279404
0.0281915
0.028623
0.0294895
0.0315921
0.0358465
0.0439708
0.052909
0.0582279
0.0603337
0.0608069
0.0598903
0.0582569
0.0557533
0.0196125
0.0196693
0.0197304
0.0197956
0.0198655
0.0199405
0.0200212
0.020108
0.0202014
0.0203019
0.0204103
0.0205273
0.0206538
0.0207907
0.0209385
0.0210976
0.0212682
0.0214505
0.0216445
0.0218506
0.0220684
0.0222976
0.0225379
0.0227888
0.02305
0.0233207
0.0236008
0.0238882
0.0241836
0.0244845
0.0247896
0.0250955
0.0254031
0.0257091
0.026016
0.02631
0.0265938
0.0268657
0.0271456
0.0274286
0.0277051
0.027974
0.0282247
0.0284539
0.0286681
0.0288735
0.0289745
0.0291142
0.0290302
0.0291056
0.0288243
0.0287627
0.0285962
0.0282196
0.0281707
0.0284374
0.0291565
0.0308411
0.0341889
0.0407977
0.0506115
0.0581457
0.062214
0.0633033
0.0630972
0.0620368
0.0592435
0.0550847
0.0513451
0.0264849
0.0264931
0.0265034
0.0265142
0.0265278
0.0265439
0.0265623
0.0265853
0.0266119
0.0266434
0.0266794
0.0267224
0.0267753
0.026841
0.026915
0.0269995
0.0270891
0.0271866
0.0272934
0.0274143
0.0275396
0.0276713
0.0278106
0.0279563
0.0281052
0.028259
0.0284198
0.0285815
0.0287493
0.028917
0.0290854
0.0292392
0.0293986
0.0295489
0.02973
0.0296874
0.0296895
0.0297057
0.029887
0.0300691
0.0302335
0.0301319
0.0301987
0.0302619
0.0301079
0.030049
0.0300482
0.0299082
0.0297479
0.029529
0.0291676
0.0290098
0.0284876
0.0285096
0.0290597
0.0306588
0.0337302
0.0391136
0.0481851
0.0567345
0.0621751
0.0647565
0.0653321
0.0646781
0.0620498
0.0574929
0.0529357
0.048693
0.0457464
0.0332922
0.0332158
0.0331625
0.0330717
0.0330287
0.0329611
0.0328627
0.0328138
0.0327289
0.0326878
0.0325866
0.0325105
0.0324619
0.0324796
0.0324082
0.0324209
0.0323166
0.0322447
0.0322149
0.0322743
0.0321745
0.0321521
0.0321695
0.0321595
0.0320451
0.0319852
0.0319379
0.0319093
0.0318498
0.0318582
0.0318831
0.0317585
0.0317234
0.0317705
0.0318088
0.031595
0.0315233
0.031586
0.0313376
0.0312307
0.0311295
0.0311981
0.030864
0.030731
0.0308111
0.0306864
0.0304379
0.0299353
0.029485
0.0290667
0.0285097
0.0286282
0.0293974
0.0309555
0.0343623
0.039616
0.0472921
0.0549164
0.0603328
0.064397
0.0663045
0.0661398
0.0633767
0.0576928
0.0519386
0.0471316
0.0439337
0.0421684
0.0422053
0.0374233
0.0373154
0.0372072
0.0370943
0.0369809
0.0368663
0.0367413
0.0366047
0.0364674
0.0363332
0.0361962
0.0360595
0.0359285
0.0358056
0.0356889
0.0355563
0.0353929
0.0352529
0.0350032
0.0349221
0.0346724
0.0345925
0.0345481
0.0344434
0.0343327
0.0341816
0.0340464
0.0338897
0.0337242
0.0335492
0.0333363
0.0331341
0.0329386
0.0327611
0.0326309
0.0322354
0.0320621
0.0321132
0.0316366
0.0316394
0.0311151
0.0308786
0.0308941
0.0307052
0.0303011
0.0296688
0.0293336
0.0285692
0.028473
0.0289171
0.0302703
0.0326197
0.0359015
0.0410675
0.0469949
0.0516606
0.0564222
0.0616318
0.0642244
0.0640357
0.0609614
0.0546945
0.0469626
0.0407182
0.0368105
0.0353836
0.035841
0.037656
0.0405952
0.0372054
0.0371025
0.037011
0.0369193
0.0368253
0.0367254
0.0366157
0.036494
0.0363641
0.036222
0.0360829
0.0359414
0.0357844
0.0356145
0.0354359
0.0352516
0.0350795
0.0349025
0.0347282
0.0345591
0.0343531
0.0341603
0.0339399
0.0336962
0.0334428
0.0331774
0.0329098
0.0326672
0.0323529
0.032089
0.0316772
0.0313662
0.0308251
0.0304686
0.0297931
0.029426
0.0286092
0.0282869
0.0279572
0.0282266
0.0286908
0.0281656
0.028347
0.0285713
0.0280954
0.0281421
0.0285793
0.0295943
0.0310651
0.0331691
0.035857
0.0393056
0.0433617
0.0477596
0.0521111
0.0548175
0.0549408
0.0529696
0.0478818
0.0407803
0.0324855
0.0246393
0.0199682
0.0187052
0.0206732
0.0240674
0.028179
0.0329546
0.0384721
0.0278575
0.0279873
0.0282813
0.0283013
0.0283268
0.0283581
0.0284203
0.0285116
0.0285461
0.0286263
0.0287356
0.0288577
0.0288774
0.0289522
0.0289648
0.0290882
0.0290917
0.0291163
0.0291381
0.0292545
0.029399
0.0293596
0.0293827
0.029343
0.0293193
0.0292853
0.0293188
0.0293413
0.0293094
0.0292769
0.0292127
0.0291535
0.0290601
0.028966
0.0287713
0.02864
0.0282298
0.0280376
0.0279453
0.0279699
0.0277818
0.0272889
0.0267035
0.0260478
0.0252603
0.0243052
0.0231436
0.0217742
0.0201909
0.0184575
0.0166486
0.0149913
0.0136929
0.0130728
0.0132641
0.0137602
0.0140199
0.013652
0.0121347
0.00989942
0.00821944
0.00737554
0.00790095
0.00965074
0.011887
0.0143694
0.0170678
0.0200229
0.0233623
0.00195817
0.00195828
0.00195759
0.00195828
0.00195911
0.00195988
0.00196064
0.00196121
0.00196347
0.00196458
0.00196488
0.00196729
0.00197102
0.00197409
0.00197464
0.00197412
0.00197552
0.00197728
0.00197743
0.00197719
0.00197817
0.00198058
0.0019807
0.00198409
0.00198483
0.00198602
0.00198776
0.00198753
0.00198651
0.00198853
0.00198934
0.00199107
0.00199062
0.0019863
0.00198399
0.00198024
0.0019797
0.00197821
0.00197486
0.00197298
0.00196967
0.00196826
0.00196489
0.00195639
0.00195333
0.00194903
0.00194491
0.00193888
0.0019327
0.00193305
0.00193426
0.00193361
0.0019332
0.00193035
0.00192726
0.00192235
0.00191847
0.00191533
0.0019132
0.0019699
0.00196928
0.00197043
0.00196962
0.00197021
0.00197164
0.00197163
0.00197365
0.001975
0.00197529
0.00197643
0.00197952
0.00198302
0.0019841
0.00198374
0.00198392
0.0019864
0.00198711
0.00198619
0.00198626
0.00198648
0.00198817
0.00198925
0.0019918
0.00199205
0.00199337
0.00199467
0.00199469
0.00199314
0.00199445
0.00199524
0.00199697
0.00199629
0.00199225
0.00199003
0.00198636
0.00198502
0.00198375
0.00198135
0.00197877
0.00197569
0.00197437
0.00197198
0.00196584
0.00196083
0.00195717
0.0019538
0.00194994
0.00194228
0.00193811
0.00193839
0.00193914
0.00193898
0.00193842
0.00193786
0.00193557
0.00193353
0.00192946
0.00192966
0.00198499
0.00198401
0.00198604
0.00198613
0.00198643
0.00198815
0.0019887
0.00198994
0.00199103
0.00199051
0.00199152
0.00199632
0.00199801
0.00199789
0.00199707
0.00199729
0.00199876
0.00199801
0.00199718
0.00199734
0.00199836
0.00200016
0.00200069
0.00200258
0.00200258
0.00200401
0.00200491
0.00200452
0.00200295
0.00200336
0.00200431
0.00200576
0.00200486
0.00200108
0.00199881
0.00199528
0.00199333
0.00199197
0.00199013
0.00198796
0.00198459
0.00198305
0.00198121
0.00197766
0.00197183
0.00196764
0.00196466
0.00196192
0.00195785
0.00195056
0.00194642
0.00194628
0.00194802
0.00194834
0.00194923
0.00194737
0.00194752
0.00194529
0.00194433
0.00200718
0.00200757
0.00200969
0.00200958
0.00200969
0.0020082
0.00200817
0.0020091
0.00200921
0.00201208
0.00201585
0.00201707
0.00201504
0.00201468
0.00201421
0.00201519
0.0020169
0.00201431
0.00201385
0.00201434
0.00201413
0.00201489
0.00201591
0.00201719
0.00201716
0.00201849
0.00201871
0.00201849
0.00201637
0.00201624
0.00201711
0.0020182
0.00201722
0.00201374
0.0020114
0.00200808
0.00200562
0.00200401
0.00200242
0.00200057
0.00199757
0.0019955
0.00199389
0.00199162
0.00198747
0.00198292
0.00197931
0.00197641
0.00197373
0.00196954
0.00196441
0.00195815
0.00195824
0.00195956
0.00196083
0.00196134
0.00196188
0.00196071
0.00196021
0.00203808
0.002038
0.00203732
0.00203689
0.00203602
0.0020345
0.00203651
0.00203706
0.00203851
0.00204012
0.00204018
0.00203827
0.00203802
0.00203866
0.00203888
0.00203894
0.00203583
0.00203404
0.00203377
0.00203447
0.00203447
0.00203517
0.00203559
0.00203629
0.00203579
0.00203704
0.00203738
0.00203627
0.00203369
0.00203309
0.00203373
0.00203443
0.00203337
0.00203011
0.00202765
0.00202459
0.00202167
0.00201968
0.00201811
0.0020165
0.00201433
0.00201196
0.00201038
0.00200865
0.00200607
0.00200217
0.00199894
0.00199613
0.00199393
0.00199092
0.00198791
0.00198282
0.00197964
0.00197643
0.00197585
0.00197435
0.00197537
0.00197541
0.00197692
0.00207199
0.00207073
0.00207195
0.00207138
0.00206961
0.0020705
0.0020719
0.00207132
0.00207345
0.0020731
0.00207282
0.00207145
0.00207072
0.00206801
0.00206742
0.00206481
0.0020619
0.00206111
0.00206162
0.00206199
0.0020611
0.00206051
0.00206127
0.00206049
0.00206131
0.0020615
0.00206044
0.00205952
0.00205626
0.00205525
0.00205555
0.00205584
0.00205472
0.00205165
0.00204907
0.00204624
0.00204322
0.00204069
0.00203891
0.00203732
0.00203566
0.00203364
0.0020319
0.00203022
0.00202835
0.00202593
0.00202322
0.00202039
0.00201851
0.00201664
0.00201482
0.002012
0.00200904
0.00200648
0.00200477
0.00200255
0.00199948
0.00199953
0.00200025
0.00211846
0.00212093
0.00211924
0.00212063
0.00211959
0.0021191
0.00211586
0.00211505
0.00211248
0.00211156
0.00210996
0.00210734
0.00210604
0.00210288
0.00209943
0.00209591
0.00209493
0.00209615
0.00209583
0.00209405
0.00209242
0.00209339
0.00209208
0.00209262
0.00209059
0.00209131
0.00209033
0.00208841
0.00208462
0.00208317
0.00208304
0.00208285
0.00208156
0.00207857
0.00207573
0.00207292
0.00207003
0.0020672
0.00206504
0.0020633
0.00206165
0.00206005
0.00205812
0.00205681
0.00205497
0.00205326
0.00205092
0.0020493
0.00204717
0.00204511
0.00204293
0.00204076
0.00203942
0.00203748
0.00203498
0.00203323
0.00203243
0.00203103
0.00202987
0.00217202
0.00217075
0.00216854
0.00216764
0.00216589
0.00216442
0.00216206
0.00216113
0.00215948
0.00215813
0.0021551
0.00215056
0.00214645
0.00214198
0.00214136
0.0021411
0.00214082
0.00213806
0.00213762
0.00213627
0.00213729
0.00213362
0.00213196
0.00213004
0.00213088
0.00213013
0.00212766
0.00212528
0.00212086
0.00211896
0.00211832
0.00211761
0.00211613
0.00211313
0.00211012
0.00210725
0.00210441
0.0021016
0.00209906
0.00209704
0.00209506
0.00209374
0.00209152
0.0020902
0.00208815
0.00208701
0.00208498
0.00208422
0.0020815
0.00208043
0.00207802
0.00207652
0.0020758
0.00207286
0.00207198
0.00206868
0.00206803
0.00206822
0.00206582
0.00223991
0.00223599
0.0022318
0.00222841
0.00222487
0.00222205
0.00221822
0.00221471
0.00221236
0.00220975
0.00220692
0.00220377
0.00220236
0.00220188
0.00219566
0.00219426
0.00219318
0.00219213
0.0021913
0.00219003
0.00218447
0.00218106
0.00217994
0.0021812
0.00217802
0.00217661
0.00217417
0.0021708
0.00216576
0.00216331
0.00216204
0.00216069
0.00215885
0.00215567
0.0021524
0.0021493
0.00214635
0.00214348
0.00214076
0.00213845
0.00213627
0.00213486
0.00213285
0.00213164
0.00212986
0.00212917
0.002127
0.00212607
0.0021249
0.00212411
0.00212372
0.00212136
0.00211984
0.00211879
0.00211822
0.00211724
0.00211485
0.00211575
0.0021163
0.0023099
0.00230518
0.00230021
0.00229683
0.002295
0.00229582
0.00229276
0.00229466
0.00228755
0.00228129
0.0022768
0.00227374
0.00227129
0.00226772
0.00226271
0.00226492
0.00226484
0.00225823
0.00225529
0.00225179
0.00224721
0.0022457
0.00224576
0.00224
0.00223812
0.00223668
0.00223267
0.00222846
0.00222272
0.00221966
0.00221766
0.00221562
0.00221338
0.00220995
0.00220647
0.00220317
0.00220006
0.00219705
0.0021941
0.00219142
0.00218893
0.00218701
0.00218499
0.00218345
0.00218163
0.00218054
0.00217903
0.00217836
0.00217615
0.00217546
0.00217474
0.00217438
0.00217408
0.00217229
0.00217179
0.00217199
0.00217044
0.0021708
0.00217154
0.0024097
0.00240131
0.00239834
0.00239362
0.00238904
0.00238612
0.00238281
0.00238126
0.00237617
0.00237061
0.00236487
0.00235815
0.00235415
0.00235342
0.00235472
0.00234962
0.00234213
0.00233735
0.00233469
0.00233237
0.00232596
0.00232216
0.00231809
0.00231571
0.00231353
0.00230946
0.00230479
0.00229961
0.00229306
0.00228922
0.00228631
0.00228339
0.00228052
0.00227662
0.00227274
0.00226908
0.00226567
0.00226241
0.00225925
0.0022563
0.00225359
0.00225164
0.00224973
0.00224827
0.00224795
0.00224606
0.00224578
0.00224345
0.00224352
0.00224099
0.00224096
0.00223797
0.00223709
0.00223629
0.00223599
0.00223564
0.00223267
0.0022318
0.00223048
0.00253257
0.0025261
0.00252116
0.00251624
0.00251053
0.00250639
0.00249941
0.00249296
0.00248391
0.00247698
0.00247227
0.00247315
0.00247174
0.00246611
0.00245994
0.0024532
0.00244931
0.00244554
0.0024415
0.00242993
0.00242411
0.00242003
0.00241957
0.00241258
0.00240774
0.00240288
0.00239678
0.00239024
0.00238272
0.00237793
0.00237399
0.0023701
0.00236653
0.00236217
0.00235793
0.00235395
0.00235023
0.00234659
0.00234303
0.00233974
0.00233702
0.00233458
0.00233282
0.00233259
0.0023325
0.00233242
0.00233266
0.00233281
0.00233305
0.00233319
0.00233392
0.00233426
0.00233481
0.00233575
0.00233651
0.00233767
0.00233818
0.00233942
0.00233978
0.00266923
0.00266257
0.00265717
0.00264997
0.00264419
0.00263755
0.00263226
0.00263162
0.00263511
0.00263237
0.00262216
0.00261991
0.00261456
0.00260184
0.00259503
0.00258957
0.00258384
0.00257476
0.00256382
0.00255091
0.002548
0.00254372
0.00253792
0.00252908
0.00252484
0.00251787
0.00251051
0.00250262
0.00249404
0.00248805
0.00248276
0.0024776
0.00247298
0.00246792
0.00246303