/*--------------------------------*- C++ -*----------------------------------*\
| =========                 |                                                 |
| \\      /  F ield         | OpenFOAM: The Open Source CFD Toolbox           |
|  \\    /   O peration     | Version:  2312                                  |
|   \\  /    A nd           | Website:  www.openfoam.com                      |
|    \\/     M anipulation  |                                                 |
\*---------------------------------------------------------------------------*/
FoamFile
{
    version     2.0;
    format      ascii;
    arch        "LSB;label=32;scalar=64";
    class       volScalarField;
    location    "900";
    object      nut;
}
// * * * * * * * * * * * * * * * * * * * * * * * * * * * * * * * * * * * * * //

dimensions      [0 2 -1 0 0 0 0];

internalField   nonuniform List<scalar> 
76025
(
0.00131333
0.00131374
0.00131318
0.00131319
0.0013107
0.00131244
0.00131612
0.00131875
0.00131852
0.0013188
0.00131881
0.00131933
0.00131862
0.00131829
0.00131668
0.00131622
0.00131635
0.00131582
0.00131473
0.0013154
0.00131389
0.00131516
0.00131468
0.00131514
0.00132371
0.00132347
0.00132951
0.00132741
0.00131975
0.00132618
0.00132052
0.00131951
0.00131439
0.00131471
0.0013148
0.00131577
0.00132128
0.0013208
0.00132759
0.00132604
0.0013287
0.00133153
0.00133963
0.00135333
0.00136689
0.001384
0.0013945
0.00140707
0.00141238
0.00142772
0.00143171
0.00145324
0.0014571
0.00148653
0.00149027
0.00152196
0.00153333
0.00157272
0.00158275
0.00164437
0.00167661
0.00177356
0.00183261
0.00199361
0.00209243
0.00239493
0.00264893
0.00318733
0.00384192
0.00132687
0.00132488
0.00132419
0.00132304
0.00132258
0.00132185
0.00131986
0.00131941
0.00132072
0.00132228
0.00132354
0.00132331
0.00131936
0.0013211
0.00132565
0.001327
0.00132692
0.00132475
0.00132715
0.00132177
0.00131787
0.0013172
0.00131569
0.00131467
0.00131563
0.00131533
0.00131747
0.00131191
0.00131029
0.00131229
0.00131222
0.0013119
0.00131042
0.00131062
0.00131497
0.00132148
0.00132873
0.00133732
0.00134527
0.00135424
0.00136423
0.00137624
0.00138424
0.00139556
0.00140299
0.00141052
0.00141575
0.00142479
0.00143255
0.0014447
0.00145595
0.00147152
0.00148601
0.0015051
0.00152218
0.00154723
0.00157143
0.0016008
0.00164549
0.00169092
0.00176767
0.00183208
0.00194882
0.00208498
0.00225015
0.00261574
0.00292678
0.0034976
0.0041889
0.00133662
0.00133649
0.00133588
0.00133763
0.00133773
0.00133507
0.00133532
0.00133246
0.00133022
0.00132715
0.00132397
0.00132374
0.00132504
0.00132402
0.00132667
0.00133119
0.00133669
0.00133663
0.00133532
0.00133466
0.00133301
0.00133296
0.0013304
0.0013272
0.00131929
0.00132257
0.00131935
0.00131281
0.00131049
0.00131256
0.00131601
0.00132113
0.00132715
0.00133341
0.00134007
0.00134829
0.001356
0.00136521
0.00137313
0.00138565
0.00139305
0.00140051
0.00140569
0.00141241
0.00141758
0.00142606
0.00143303
0.00144482
0.00145387
0.00146937
0.00148015
0.00149945
0.00151202
0.00153587
0.00155213
0.00158361
0.00160735
0.00165312
0.00169411
0.0017593
0.00182916
0.00191804
0.00205527
0.00221841
0.00246333
0.00287641
0.00320671
0.00381372
0.0043635
0.00134954
0.00134862
0.00134838
0.00134902
0.00135011
0.00134888
0.00135016
0.001349
0.00134736
0.00134016
0.00134071
0.00134
0.00133214
0.00133092
0.00133664
0.00133942
0.00134253
0.00134358
0.00134575
0.00134206
0.00134184
0.00133951
0.00133888
0.00133426
0.00133467
0.00134294
0.00134624
0.00135068
0.00134551
0.00135237
0.001353
0.00135427
0.00135845
0.00136508
0.0013743
0.00138585
0.00139029
0.00139511
0.0013998
0.00140542
0.00141039
0.00141668
0.00142261
0.00143034
0.00143788
0.00144761
0.00145716
0.00146916
0.00148094
0.00149538
0.0015097
0.00152714
0.00154536
0.00156783
0.00159336
0.00162486
0.00166256
0.00170865
0.00176422
0.00183275
0.00191856
0.00202885
0.0022011
0.00240876
0.00272283
0.00316326
0.00349649
0.00409082
0.0045007
0.00135784
0.00135982
0.00135895
0.00136106
0.00136114
0.00136387
0.00136242
0.00135923
0.00135475
0.0013551
0.0013521
0.0013533
0.0013526
0.0013534
0.00134823
0.00134878
0.00135054
0.00135832
0.00136203
0.00136064
0.00136257
0.00135714
0.00135631
0.00135736
0.00135732
0.00136635
0.00137075
0.00137295
0.0013809
0.00138143
0.00139009
0.00139582
0.00139782
0.00140052
0.00140377
0.00140801
0.00141206
0.0014168
0.00142159
0.00142728
0.00143278
0.00143959
0.0014465
0.00145493
0.00146353
0.00147391
0.0014845
0.00149719
0.00151014
0.00152573
0.00154186
0.00156179
0.00158334
0.00161056
0.00164135
0.00167947
0.0017236
0.00177744
0.001842
0.00192346
0.00202893
0.00217477
0.00239291
0.00264476
0.0030276
0.00344551
0.00377118
0.00431761
0.00455554
0.00136485
0.0013683
0.00137097
0.00137344
0.00137577
0.0013777
0.00138048
0.00137817
0.00138001
0.00137579
0.00137118
0.00137305
0.00136818
0.00136946
0.00136845
0.00137025
0.0013718
0.00137361
0.0013736
0.00137173
0.00137472
0.00137479
0.00138112
0.00138411
0.00139231
0.00139801
0.00140389
0.00140656
0.00140867
0.00141121
0.00141349
0.00141701
0.00142001
0.00142321
0.00142656
0.00143057
0.00143489
0.00143983
0.00144528
0.00145148
0.00145788
0.00146526
0.00147321
0.00148229
0.00149208
0.00150322
0.00151528
0.00152898
0.00154403
0.00156126
0.00158085
0.00160375
0.00163081
0.00166262
0.00170064
0.00174454
0.00179775
0.00186058
0.00193931
0.00204186
0.00217798
0.00237425
0.00263188
0.00293522
0.00334177
0.00371077
0.00401974
0.00448299
0.00459797
0.00137735
0.0013734
0.00137429
0.00137795
0.00137877
0.00138176
0.00138402
0.00138706
0.00138852
0.0013915
0.00139323
0.00139027
0.00139469
0.00138999
0.00139036
0.00139063
0.0013928
0.00139765
0.00139518
0.00140219
0.00140647
0.00140811
0.00141079
0.00141956
0.0014219
0.00142231
0.00142481
0.00142721
0.00142986
0.00143285
0.00143563
0.00143899
0.00144249
0.00144645
0.00145065
0.00145538
0.00146054
0.00146623
0.00147251
0.00147952
0.00148677
0.00149496
0.00150389
0.00151399
0.00152501
0.0015375
0.0015512
0.00156685
0.00158433
0.00160473
0.00162817
0.00165606
0.00168844
0.00172679
0.00177128
0.00182385
0.0018874
0.00196485
0.00206607
0.00220001
0.00238028
0.00262524
0.00291546
0.00324935
0.00363726
0.0039487
0.00422718
0.0045933
0.00458295
0.0013942
0.00139288
0.00138718
0.00138665
0.00138957
0.00138859
0.00139411
0.00139367
0.00139267
0.00139874
0.0014014
0.00140267
0.00140867
0.00140724
0.0014127
0.00141404
0.00141851
0.00142435
0.00143159
0.00143733
0.00144102
0.00144377
0.00144552
0.00144771
0.00144957
0.00145093
0.00145231
0.00145402
0.00145609
0.00145862
0.00146138
0.00146488
0.00146873
0.00147315
0.00147799
0.00148338
0.00148933
0.00149581
0.00150297
0.00151098
0.00151932
0.00152865
0.00153894
0.0015505
0.00156328
0.00157769
0.00159377
0.00161219
0.00163322
0.00165774
0.00168626
0.00171963
0.00175841
0.00180391
0.00185726
0.00192207
0.00200175
0.00210335
0.00223737
0.00241251
0.00263879
0.00291891
0.00322354
0.00355926
0.00389901
0.00415383
0.00438618
0.00465378
0.00452112
0.00141859
0.00141641
0.00141746
0.00141702
0.00141673
0.0014156
0.00141636
0.00141224
0.00141592
0.00142136
0.00142876
0.00143334
0.00144227
0.00144452
0.00144683
0.00144875
0.00145226
0.00145524
0.00145943
0.00146324
0.00146666
0.0014698
0.00147253
0.00147506
0.00147737
0.00147959
0.00148177
0.00148409
0.0014867
0.00148959
0.00149288
0.00149689
0.0015013
0.00150631
0.00151184
0.00151795
0.00152472
0.00153214
0.0015403
0.00154951
0.00155917
0.00156986
0.00158172
0.00159505
0.00160989
0.00162674
0.0016458
0.00166781
0.00169313
0.00172268
0.00175693
0.00179697
0.0018438
0.0018996
0.00196683
0.00205071
0.00215557
0.00229117
0.00246472
0.00268087
0.00294118
0.00323335
0.0035322
0.00384125
0.004121
0.00431663
0.00449623
0.00465346
0.00446791
0.0014437
0.00144497
0.00144998
0.0014521
0.00145728
0.00145882
0.00146024
0.00146363
0.00146741
0.00147028
0.00147406
0.00147685
0.00147998
0.00148217
0.0014841
0.00148576
0.00148788
0.00148996
0.00149223
0.00149458
0.00149698
0.00149947
0.001502
0.00150464
0.00150731
0.00151015
0.00151306
0.00151623
0.00151965
0.0015233
0.00152752
0.00153237
0.00153768
0.0015436
0.00155015
0.00155732
0.00156528
0.00157401
0.00158356
0.00159432
0.00160571
0.00161816
0.00163205
0.00164767
0.0016653
0.00168542
0.00170845
0.00173513
0.001766
0.00180202
0.00184411
0.00189377
0.00195319
0.00202522
0.00211409
0.00222522
0.00236369
0.00253769
0.00274751
0.00299245
0.00326447
0.00354586
0.00381921
0.00408209
0.00429745
0.00443136
0.0045506
0.00460835
0.00431942
0.00145575
0.00145643
0.0014577
0.00146413
0.00146801
0.00147387
0.00148006
0.00148946
0.00149235
0.00149459
0.00149782
0.0015014
0.00150505
0.00150842
0.00151157
0.00151449
0.0015174
0.00152026
0.00152311
0.00152595
0.00152884
0.00153179
0.00153485
0.00153807
0.00154143
0.00154504
0.0015488
0.00155295
0.00155726
0.001562
0.00156741
0.00157339
0.00157992
0.0015871
0.00159501
0.0016036
0.00161307
0.00162343
0.00163469
0.00164736
0.00166098
0.00167576
0.0016924
0.00171129
0.00173287
0.0017577
0.00178637
0.00181975
0.00185861
0.00190436
0.00195846
0.00202323
0.00210179
0.00219744
0.00231535
0.0024592
0.00263307
0.00283883
0.00307056
0.00332314
0.00358303
0.00383506
0.00406707
0.00427252
0.0044216
0.00449048
0.0045464
0.00448627
0.00414177
0.00152641
0.0015253
0.00152485
0.00152546
0.00152628
0.00152806
0.00152972
0.00153255
0.0015349
0.00153696
0.00153924
0.00154176
0.00154445
0.0015472
0.00154999
0.00155282
0.00155574
0.00155876
0.00156191
0.0015652
0.00156864
0.00157225
0.00157607
0.0015801
0.00158438
0.00158892
0.00159375
0.00159896
0.00160435
0.00161047
0.00161721
0.00162455
0.00163251
0.00164118
0.00165067
0.00166096
0.00167226
0.0016847
0.0016983
0.00171362
0.00173056
0.00174896
0.00176986
0.00179379
0.00182132
0.00185316
0.00189011
0.00193333
0.001984
0.00204418
0.0021158
0.00220196
0.00230585
0.00243046
0.00257984
0.00275396
0.0029539
0.00317428
0.00340715
0.00364489
0.0038735
0.00408292
0.00426216
0.00440452
0.00448472
0.00448689
0.00446816
0.00429518
0.00396755
0.00159541
0.0015938
0.00159239
0.00159174
0.00159172
0.0015923
0.00159302
0.00159397
0.00159494
0.00159589
0.00159694
0.00159816
0.0015996
0.00160127
0.00160317
0.00160533
0.00160777
0.00161051
0.00161357
0.00161696
0.00162066
0.00162471
0.00162908
0.0016338
0.00163886
0.00164427
0.0016501
0.00165623
0.0016629
0.00167044
0.0016786
0.00168749
0.00169719
0.00170779
0.00171946
0.00173225
0.00174635
0.00176207
0.00177942
0.00179893
0.00182094
0.00184506
0.00187224
0.00190348
0.00193953
0.0019814
0.00203019
0.00208757
0.00215507
0.00223528
0.0023301
0.00244251
0.0025744
0.00272699
0.00290124
0.00309294
0.0033006
0.00351422
0.00372802
0.00393261
0.00411693
0.00427459
0.00439295
0.00446912
0.00447643
0.00440974
0.0043004
0.00405858
0.00368699
0.0016351
0.00163821
0.0016407
0.00164298
0.00164529
0.00164768
0.00165003
0.00165228
0.00165439
0.00165635
0.00165823
0.0016601
0.00166204
0.00166411
0.00166635
0.00166883
0.00167157
0.00167463
0.00167803
0.00168179
0.00168594
0.00169049
0.00169544
0.00170084
0.00170662
0.00171293
0.00171961
0.00172688
0.00173509
0.00174416
0.0017541
0.00176501
0.00177705
0.00179038
0.00180516
0.00182156
0.0018398
0.00186024
0.00188309
0.00190872
0.00193789
0.00197049
0.00200691
0.00204887
0.00209745
0.00215404
0.00221995
0.00229711
0.00238685
0.00249151
0.00261175
0.00274932
0.0029035
0.00307314
0.0032562
0.00344605
0.0036408
0.00382855
0.00400765
0.00416607
0.00429782
0.00439671
0.00444775
0.00445569
0.00438317
0.00424559
0.00403681
0.00373161
0.00335638
0.00169306
0.00169604
0.00169906
0.00170212
0.0017053
0.0017086
0.00171199
0.0017154
0.0017188
0.00172216
0.0017255
0.00172886
0.00173227
0.00173577
0.0017394
0.0017432
0.00174721
0.00175146
0.00175601
0.00176088
0.00176612
0.00177175
0.00177783
0.00178435
0.00179143
0.00179901
0.00180725
0.00181658
0.00182697
0.00183841
0.00185105
0.00186504
0.00188061
0.00189799
0.00191738
0.00193908
0.00196339
0.00199075
0.00202164
0.00205646
0.00209615
0.00214137
0.00219217
0.00224974
0.002316
0.00239235
0.00247965
0.00257944
0.00269182
0.00281813
0.00295691
0.00310847
0.0032696
0.00343803
0.00361016
0.00377912
0.00394397
0.00409177
0.00422549
0.00432846
0.00440218
0.00443536
0.00441386
0.00435046
0.00418935
0.00397923
0.0036678
0.00332347
0.0030252
0.00177532
0.00177821
0.00178133
0.00178465
0.00178818
0.00179192
0.00179586
0.00179996
0.00180422
0.00180861
0.00181313
0.00181779
0.0018226
0.00182758
0.00183274
0.00183811
0.0018437
0.00184956
0.00185571
0.00186221
0.0018691
0.00187642
0.00188426
0.00189268
0.00190167
0.00191158
0.00192275
0.00193518
0.00194887
0.00196401
0.00198081
0.00199953
0.00202047
0.00204396
0.00207034
0.00210004
0.00213358
0.0021715
0.00221448
0.00226318
0.00231829
0.0023809
0.00245126
0.00252948
0.00261585
0.00271222
0.00281848
0.00293523
0.00306108
0.00319649
0.00333811
0.00348601
0.00363522
0.00378424
0.00392848
0.00406222
0.00418516
0.00428331
0.00436412
0.00440411
0.00441548
0.00437442
0.00427696
0.00413593
0.00387798
0.00359976
0.00318614
0.00293672
0.00256686
0.00188015
0.00188315
0.00188649
0.00189012
0.00189405
0.0018983
0.00190287
0.00190775
0.00191294
0.00191844
0.00192425
0.00193038
0.00193684
0.00194362
0.00195075
0.00195823
0.00196607
0.0019743
0.00198295
0.00199205
0.00200168
0.00201191
0.00202272
0.00203445
0.00204743
0.00206195
0.00207791
0.00209547
0.00211489
0.00213644
0.00216047
0.00218732
0.00221743
0.00225123
0.00228918
0.00233177
0.00237956
0.00243308
0.00249281
0.00255925
0.0026327
0.00271345
0.00280184
0.00289762
0.0029995
0.00310751
0.00322023
0.00333868
0.00346133
0.00358812
0.00371445
0.00384146
0.00396256
0.00407837
0.0041824
0.00427137
0.00434358
0.00438514
0.00440627
0.00437633
0.00432044
0.00419492
0.00402153
0.00378944
0.00344158
0.00309642
0.00268793
0.00254299
0.00221717
0.00202231
0.00202626
0.00203059
0.00203527
0.00204031
0.00204573
0.00205152
0.0020577
0.00206427
0.00207124
0.00207863
0.00208647
0.00209476
0.00210355
0.00211284
0.00212269
0.00213315
0.00214424
0.00215607
0.00216867
0.0021821
0.00219688
0.00221322
0.00223146
0.00225152
0.00227355
0.00229783
0.00232463
0.00235425
0.00238704
0.0024233
0.00246339
0.00250763
0.00255633
0.00260972
0.00266805
0.00273151
0.00280023
0.00287425
0.00295355
0.003038
0.00312749
0.00322162
0.00332017
0.00342266
0.00352804
0.00363394
0.00374068
0.0038449
0.00394755
0.00404398
0.00413764
0.00421919
0.00429274
0.00434776
0.00438569
0.00439913
0.0043786
0.00433148
0.00422596
0.00409484
0.00387792
0.00362955
0.00329474
0.00289174
0.00253892
0.00227181
0.00221269
0.0021849
0.00220274
0.00220719
0.00221225
0.00221788
0.00222412
0.00223099
0.00223852
0.00224671
0.0022556
0.00226522
0.00227561
0.00228682
0.00229889
0.00231187
0.0023258
0.00234079
0.0023568
0.00237405
0.00239306
0.0024139
0.00243684
0.00246196
0.00248909
0.00251845
0.00255024
0.00258463
0.00262181
0.00266192
0.0027051
0.00275148
0.00280113
0.00285412
0.00291049
0.00297021
0.00303322
0.00309952
0.00316903
0.00324166
0.00331731
0.00339583
0.003477
0.00356058
0.00364614
0.00373332
0.00382116
0.00390931
0.00399611
0.00408063
0.00415829
0.0042311
0.00429125
0.00434391
0.00437765
0.00440294
0.00440188
0.00438373
0.00432857
0.00424107
0.00411371
0.00393121
0.00371285
0.00341182
0.00308622
0.00267755
0.00231584
0.00208491
0.00203025
0.00211015
0.00226667
0.0024693
0.00247604
0.00248354
0.00249183
0.00250096
0.00251099
0.00252195
0.00253389
0.00254687
0.00256093
0.00257615
0.00259253
0.00261017
0.00262956
0.00265081
0.00267396
0.00269913
0.00272647
0.00275563
0.00278662
0.00281954
0.00285449
0.00289151
0.00293061
0.00297181
0.00301507
0.00306036
0.00310764
0.00315685
0.00320793
0.00326083
0.00331549
0.00337189
0.00342995
0.00348962
0.00355088
0.00361369
0.00367796
0.00374354
0.00381023
0.00387773
0.00394566
0.00401344
0.00408047
0.00414568
0.00420848
0.00426659
0.00432067
0.00436525
0.00440185
0.00442084
0.00443009
0.00440995
0.00438356
0.00431991
0.0042384
0.0041015
0.00394272
0.00372363
0.00347126
0.00315963
0.00280629
0.00242605
0.00208034
0.00189642
0.00189406
0.002014
0.00217437
0.00231712
0.00283889
0.00284825
0.00285884
0.00287061
0.00288367
0.00289832
0.00291461
0.00293259
0.00295234
0.00297386
0.00299711
0.00302209
0.00304859
0.00307644
0.00310566
0.00313642
0.00316826
0.00320109
0.00323487
0.00326959
0.00330521
0.00334172
0.0033791
0.00341734
0.00345643
0.00349639
0.00353721
0.00357893
0.00362156
0.00366511
0.00370961
0.00375506
0.00380145
0.0038487
0.00389675
0.00394548
0.00399472
0.00404425
0.00409376
0.00414286
0.00419108
0.00423778
0.00428227
0.00432362
0.00436077
0.00439275
0.00441742
0.00443494
0.00444
0.00443481
0.00440735
0.00436547
0.00428463
0.00420924
0.00407289
0.00390941
0.0036793
0.00344913
0.0031464
0.00284319
0.00247482
0.00213613
0.00184249
0.00173125
0.00179415
0.00195206
0.0020769
0.00220103
0.00229584
0.00343938
0.0034521
0.00346546
0.0034794
0.00349392
0.00350908
0.0035249
0.00354144
0.00355872
0.00357691
0.00359539
0.00361379
0.00363224
0.00365084
0.00366968
0.00368878
0.00370852
0.00372901
0.00375027
0.00377234
0.00379523
0.00381897
0.00384357
0.00386905
0.00389542
0.00392269
0.00395088
0.00397997
0.00400994
0.00404075
0.00407233
0.00410457
0.0041373
0.0041703
0.00420333
0.00423607
0.00426817
0.00429914
0.00432856
0.00435588
0.00438047
0.00440149
0.00441818
0.00442921
0.00443376
0.00443028
0.00441704
0.00439323
0.00435341
0.00429819
0.0042162
0.00410357
0.00396565
0.00378036
0.00353393
0.00329051
0.00302046
0.00275365
0.00243059
0.00212085
0.00182281
0.00162238
0.00160832
0.00174593
0.00193384
0.00198195
0.00206314
0.00215681
0.00226117
0.004215
0.00421472
0.00421312
0.00421037
0.00420667
0.00420225
0.00419725
0.00419188
0.00418631
0.00418068
0.00417553
0.00417122
0.00416778
0.00416525
0.00416371
0.00416321
0.00416385
0.00416569
0.0041688
0.00417324
0.00417904
0.00418622
0.00419478
0.00420469
0.00421592
0.00422839
0.00424203
0.00425671
0.0042723
0.0042886
0.00430535
0.00432221
0.00433886
0.00435485
0.00436985
0.00438308
0.00439402
0.00440183
0.00440655
0.00440775
0.00440443
0.00439567
0.00438049
0.00435671
0.0043245
0.00428147
0.00422505
0.00415427
0.00406809
0.00392277
0.00375416
0.00354692
0.0032994
0.00307322
0.00278558
0.00252815
0.00228121
0.00200296
0.00175909
0.00154103
0.00145583
0.00154518
0.001745
0.0018438
0.0019698
0.00204639
0.00211372
0.00223212
0.00231601
0.00475213
0.00473296
0.00471369
0.00469417
0.00467434
0.00465416
0.00463364
0.00461283
0.00459181
0.00457069
0.00454964
0.00452888
0.00450871
0.00448941
0.00447117
0.00445416
0.00443846
0.00442414
0.0044113
0.00440008
0.00439041
0.00438223
0.00437551
0.00437015
0.00436605
0.00436306
0.00436115
0.00435985
0.00435924
0.00435874
0.00435794
0.00435592
0.00435278
0.00434757
0.00434117
0.00432842
0.00431059
0.00428677
0.0042624
0.00423558
0.00420304
0.00416327
0.00411304
0.00405009
0.00397758
0.00389145
0.0037774
0.00365484
0.00348157
0.00331443
0.00307141
0.00285003
0.00260079
0.00229568
0.00206575
0.00181334
0.00162564
0.00143686
0.00134958
0.0013594
0.00154386
0.00170065
0.0018429
0.00192907
0.00198341
0.00208871
0.00218029
0.00224125
0.00230937
0.00490131
0.00487859
0.00485489
0.0048296
0.00480359
0.00477643
0.00474784
0.00471879
0.00468864
0.00465817
0.00462664
0.00459494
0.00456382
0.00453448
0.00450536
0.00447773
0.00444975
0.00442237
0.00439611
0.0043726
0.00434879
0.00432583
0.00430396
0.00428286
0.00426132
0.00424032
0.00422032
0.00420006
0.00418053
0.00416029
0.00413938
0.00411379
0.0040884
0.00405959
0.00403835
0.00395548
0.00388423
0.00381584
0.0037869
0.00375385
0.00371159
0.00359976
0.00352283
0.00343952
0.0033008
0.0031742
0.00306339
0.00289422
0.00273367
0.00250694
0.00229172
0.0020563
0.00179264
0.00158164
0.00142251
0.00127891
0.00121908
0.00122154
0.00133885
0.00150009
0.00165479
0.00177716
0.0018411
0.00190751
0.0020068
0.00205807
0.00212475
0.00220534
0.00235421
0.00463624
0.00460699
0.00458274
0.00454648
0.00452189
0.00448901
0.00444624
0.00441559
0.00437374
0.00434232
0.00429335
0.00424973
0.00421184
0.00418988
0.00414363
0.0041182
0.00406223
0.00401407
0.00397562
0.00395862
0.0039018
0.00386374
0.00383501
0.00379962
0.00373947
0.00369244
0.00364827
0.00360869
0.0035622
0.00353063
0.00350232
0.00344065
0.0033977
0.00337038
0.00333888
0.00325206
0.00319134
0.00315377
0.00305062
0.00297072
0.00288762
0.00282993
0.00269234
0.0025923
0.00251064
0.00239984
0.00225898
0.0020524
0.00185622
0.00163396
0.00143613
0.00126217
0.00115911
0.00108712
0.00106645
0.00109175
0.00117302
0.00131665
0.0014353
0.00159468
0.00169653
0.00175021
0.00181426
0.0018205
0.00184625
0.00190984
0.00206607
0.00226781
0.0025797
0.00374987
0.00372295
0.00369587
0.00366756
0.00363896
0.00360959
0.00357783
0.00354337
0.00350847
0.00347347
0.00343801
0.0034025
0.00336776
0.0033342
0.00330154
0.00326558
0.00322337
0.00318544
0.00312721
0.0030993
0.00304138
0.00301292
0.00299102
0.002958
0.00292517
0.00288422
0.00284626
0.00280486
0.00276122
0.00271369
0.00265981
0.00260416
0.00254858
0.00249116
0.00243834
0.00234235
0.00227634
0.00223719
0.00212363
0.00207181
0.00195141
0.00186466
0.00180533
0.00172536
0.00159906
0.00148008
0.00133941
0.00113277
0.000994799
0.000909772
0.000869454
0.000860752
0.000887649
0.000945416
0.00102712
0.00110637
0.0012202
0.00137463
0.00148563
0.00152389
0.00156637
0.00155121
0.00149292
0.00150322
0.00157012
0.00166683
0.00183528
0.00216192
0.002607
0.00207501
0.00206677
0.00205549
0.00203903
0.00202454
0.00200903
0.00199178
0.00197316
0.00195502
0.00193235
0.00192561
0.00190664
0.00188598
0.00186419
0.00184255
0.00181961
0.00179828
0.00177643
0.00175554
0.00173518
0.00171286
0.00169102
0.00166969
0.00163937
0.00163219
0.00159526
0.00158872
0.00157284
0.0015334
0.00149601
0.00144662
0.0014021
0.00133803
0.00128637
0.0012081
0.00115391
0.00106493
0.00101092
0.000955714
0.000942454
0.000936365
0.000869911
0.000842476
0.000810173
0.000744281
0.000692102
0.000671251
0.00068404
0.000704452
0.000735529
0.000775338
0.00082533
0.000886825
0.000952946
0.00103119
0.00110839
0.00113515
0.00115586
0.00113985
0.00109206
0.000994282
0.0008345
0.00073347
0.000705796
0.000802216
0.000992603
0.001233
0.00154433
0.00193817
0.000372746
0.000373268
0.000376055
0.000376811
0.000377443
0.000378062
0.000379261
0.000381195
0.00038177
0.000382761
0.000384081
0.000386237
0.000386793
0.0003879
0.000388834
0.000389082
0.000389692
0.000388193
0.000389489
0.000391739
0.000395573
0.000395188
0.000396426
0.000397716
0.000396696
0.000398334
0.00039986
0.000401616
0.000402735
0.000403603
0.000404209
0.000404821
0.000405196
0.000406168
0.000403085
0.000408272
0.000401013
0.00039409
0.000393312
0.000399163
0.000403001
0.000403557
0.0004005
0.000396782
0.000392463
0.000387464
0.000381246
0.000373585
0.000364057
0.000352587
0.000338932
0.000322642
0.00030808
0.000288579
0.000286234
0.000293779
0.000303812
0.000320127
0.00032405
0.000292708
0.000247699
0.000212244
0.000187836
0.000208947
0.000238881
0.000270385
0.000300424
0.000328162
0.000352965
0.00135088
0.00134862
0.00134394
0.0013436
0.0013412
0.00133933
0.00133392
0.00132945
0.00132786
0.00132577
0.00132293
0.00132426
0.00131994
0.00131944
0.00131733
0.00131625
0.00131324
0.00131407
0.00131554
0.00131724
0.00131911
0.00131817
0.0013172
0.00132013
0.00132009
0.00132204
0.00132366
0.00132582
0.00132605
0.00132536
0.00132327
0.00132342
0.0013239
0.00132465
0.00132493
0.00132457
0.00132509
0.00132528
0.00132468
0.00132449
0.00132175
0.00132208
0.00132171
0.00131869
0.00132022
0.0013193
0.00131941
0.00131903
0.00131496
0.00131805
0.00132083
0.00132162
0.00132464
0.00132277
0.00132222
0.00131916
0.00131705
0.00131552
0.00131429
0.00135843
0.00135455
0.00135292
0.00134862
0.00134425
0.0013422
0.00133878
0.00133862
0.00133697
0.00133347
0.00133107
0.0013284
0.00132738
0.00132648
0.00132462
0.00132212
0.00132155
0.00132212
0.00132374
0.00132455
0.00132487
0.00132423
0.00132568
0.00132662
0.00132676
0.00132892
0.00133023
0.00133261
0.00133246
0.00133132
0.00132923
0.00132938
0.00132968
0.00133059
0.00133091
0.0013306
0.00133065
0.00133069
0.00133117
0.00133061
0.00132838
0.00132816
0.00132767
0.00132559
0.00132527
0.00132546
0.00132485
0.00132647
0.00132278
0.0013212
0.0013236
0.00132567
0.00132699
0.00132744
0.00132802
0.00132739
0.00132664
0.00132393
0.00132667
0.0013615
0.00135755
0.00135773
0.00135521
0.00135293
0.00135313
0.00135096
0.00134918
0.00134598
0.00133967
0.00133417
0.00133599
0.00133634
0.00133569
0.00133326
0.00132929
0.0013298
0.00133062
0.00133178
0.00133178
0.0013317
0.00133261
0.00133336
0.00133428
0.00133444
0.00133634
0.00133812
0.00134007
0.00133975
0.00133789
0.00133598
0.00133571
0.00133596
0.00133731
0.00133767
0.00133767
0.00133768
0.00133772
0.00133805
0.0013386
0.00133639
0.00133543
0.00133468
0.00133352
0.00133151
0.00133183
0.00133157
0.00133315
0.00133283
0.00132954
0.00132783
0.00132949
0.0013332
0.00133459
0.00133725
0.00133571
0.00133698
0.00133535
0.00133561
0.00137409
0.00137235
0.0013726
0.00137028
0.00136773
0.00136254
0.00135815
0.00135485
0.00134949
0.00134794
0.0013492
0.00134901
0.00134574
0.00134446
0.00133963
0.00133929
0.00134205
0.0013424
0.00134258
0.00134331
0.00134164
0.00134121
0.00134237
0.00134289
0.00134371
0.00134594
0.00134676
0.00134916
0.00134816
0.00134648
0.00134466
0.00134459
0.00134458
0.00134548
0.00134578
0.00134589
0.00134612
0.0013459
0.00134611
0.00134699
0.00134588
0.00134445
0.00134362
0.00134268
0.00134081
0.0013403
0.00133946
0.00133996
0.00134097
0.00133991
0.00133864
0.00133344
0.00133699
0.00134049
0.00134469
0.00134645
0.00134949
0.00134846
0.00134878
0.00138751
0.00138634
0.00138474
0.00138306
0.00137805
0.00137227
0.00137079
0.00136661
0.00136291
0.00136123
0.00135953
0.00135685
0.00135717
0.00135586
0.00135383
0.00135344
0.00135356
0.00135295
0.00135306
0.00135333
0.00135231
0.00135388
0.00135381
0.00135404
0.0013542
0.00135594
0.00135811
0.00135965
0.0013579
0.00135623
0.00135449
0.00135417
0.0013542
0.00135491
0.0013551
0.00135532
0.00135536
0.00135508
0.00135511
0.00135596
0.00135617
0.00135492
0.00135409
0.00135329
0.00135223
0.0013508
0.00135054
0.00135013
0.00135144
0.00135098
0.00135141
0.00134812
0.00134786
0.00134628
0.00134896
0.00134908
0.00135213
0.00135346
0.00135774
0.00139931
0.00139708
0.00139849
0.00139694
0.00138872
0.0013849
0.00138215
0.00137626
0.00137712
0.00137685
0.00137761
0.00137601
0.00137524
0.00136884
0.00136609
0.00136741
0.0013671
0.00136741
0.00136771
0.00136858
0.00136666
0.00136557
0.00136721
0.00136557
0.00136833
0.00136934
0.00137021
0.0013721
0.00136967
0.00136799
0.00136627
0.00136576
0.00136586
0.00136641
0.00136653
0.00136684
0.00136709
0.00136663
0.00136645
0.00136684
0.00136775
0.00136754
0.00136684
0.00136597
0.00136512
0.00136417
0.00136361
0.00136249
0.00136294
0.001363
0.0013638
0.00136283
0.00136159
0.00136035
0.00136092
0.00136022
0.00135836
0.00136019
0.0013631
0.00141846
0.00142065
0.00141894
0.00141646
0.00141287
0.00141169
0.00140291
0.00139955
0.00139744
0.0013952
0.00139243
0.00138854
0.00138536
0.0013813
0.00138345
0.00138275
0.00138281
0.00138402
0.00138341
0.00138153
0.00137879
0.00138332
0.00138225
0.00138315
0.00138174
0.00138429
0.00138556
0.00138656
0.00138378
0.00138188
0.0013802
0.00137947
0.00137949
0.00137979
0.0013797
0.00137979
0.00138031
0.0013799
0.00137949
0.00137944
0.00137992
0.00138049
0.00137993
0.0013797
0.00137869
0.00137811
0.0013771
0.00137706
0.00137676
0.00137663
0.0013766
0.00137512
0.00137693
0.00137883
0.00137685
0.00137478
0.001374
0.00137551
0.00137533
0.00143674
0.00143315
0.00142736
0.00142411
0.00142058
0.00141658
0.00141111
0.00141323
0.00141305
0.00141235
0.00141071
0.00140542
0.00140179
0.00140084
0.00140407
0.00140634
0.00140619
0.00140171
0.00140263
0.00140199
0.00140637
0.00140237
0.00139951
0.00139816
0.00140237
0.00140298
0.00140344
0.00140393
0.00140084
0.00139881
0.00139713
0.00139622
0.00139616
0.00139616
0.00139612
0.00139602
0.00139651
0.00139661
0.00139612
0.00139582
0.00139555
0.00139633
0.00139567
0.00139575
0.0013947
0.00139474
0.00139378
0.00139452
0.0013925
0.00139345
0.00139168
0.00139231
0.00139282
0.00139132
0.00139201
0.0013896
0.00138959
0.00139177
0.00139092
0.00146077
0.00145609
0.00145099
0.00144988
0.00144557
0.00144406
0.00144056
0.00143756
0.001435
0.00143216
0.00143028
0.00142907
0.00143018
0.00143475
0.00142938
0.00142742
0.00142611
0.00142443
0.00142922
0.0014291
0.00142146
0.00141965
0.0014202
0.00142424
0.00142294
0.00142402
0.00142475
0.00142453
0.00142117
0.001419
0.00141713
0.00141597
0.00141562
0.00141523
0.00141495
0.00141466
0.0014147
0.00141481
0.00141449
0.0014141
0.00141362
0.00141398
0.00141365
0.00141412
0.00141358
0.00141415
0.00141343
0.0014136
0.00141476
0.00141462
0.00141648
0.00141378
0.00141419
0.00141352
0.00141286
0.00141258
0.00141016
0.00141248
0.0014148
0.00147263
0.0014682
0.00146333
0.00145923
0.00145871
0.00146465
0.00146315
0.00146831
0.00146512
0.00146167
0.00146122
0.00146188
0.00146381
0.00146007
0.0014536
0.00145895
0.00145726
0.00145583
0.00145349
0.00145001
0.00144896
0.00145055
0.00145269
0.00144809
0.00144953
0.00145053
0.00145053
0.00144957
0.00144603
0.00144373
0.00144171
0.00144034
0.00143976
0.00143913
0.00143875
0.00143845
0.00143832
0.00143823
0.00143795
0.00143747
0.00143706
0.00143674
0.00143687
0.0014364
0.00143655
0.00143619
0.00143598
0.00143712
0.00143526
0.00143546
0.00143742
0.00143863
0.00143929
0.00143814
0.00143802
0.00143812
0.00143842
0.00143955
0.00143992
0.0015203
0.00151352
0.00151265
0.00150784
0.00150406
0.00150389
0.00150362
0.00150647
0.0015065
0.001505
0.00150259
0.00149696
0.00149324
0.00149147
0.00149666
0.00148962
0.00148921
0.00148593
0.00148527
0.00148631
0.00148369
0.00148072
0.00147968
0.00148045
0.00148134
0.00148136
0.00148083
0.00147942
0.00147571
0.00147318
0.00147084
0.00146907
0.001468
0.00146697
0.00146626
0.00146571
0.00146529
0.0014649
0.00146448
0.00146383
0.00146364
0.00146308
0.00146369
0.00146314
0.00146557
0.00146419
0.00146611
0.00146343
0.00146554
0.00146318
0.00146413
0.0014606
0.00146152
0.00146047
0.00146174
0.00146177
0.00145823
0.0014564
0.00145582
0.00157888
0.00157502
0.00157163
0.00156961
0.00156592
0.00156255
0.00155028
0.00154438
0.00153696
0.00153893
0.00154039
0.0015448
0.00154368
0.00153483
0.00153479