/*--------------------------------*- C++ -*----------------------------------*\
| =========                 |                                                 |
| \\      /  F ield         | OpenFOAM: The Open Source CFD Toolbox           |
|  \\    /   O peration     | Version:  2312                                  |
|   \\  /    A nd           | Website:  www.openfoam.com                      |
|    \\/     M anipulation  |                                                 |
\*---------------------------------------------------------------------------*/
FoamFile
{
    version     2.0;
    format      ascii;
    arch        "LSB;label=32;scalar=64";
    class       volScalarField;
    location    "900";
    object      p;
}
// * * * * * * * * * * * * * * * * * * * * * * * * * * * * * * * * * * * * * //

dimensions      [0 2 -2 0 0 0 0];

internalField   nonuniform List<scalar> 
76025
(
0.113623
0.109706
0.105718
0.101753
0.0977224
0.0936654
0.0894242
0.0853082
0.0811032
0.0769234
0.0726729
0.0683928
0.064103
0.0598377
0.0555563
0.0512746
0.0470686
0.0428176
0.0386276
0.0345576
0.0305211
0.0263998
0.0223909
0.0185047
0.0146834
0.0109869
0.00730805
0.0036799
0.000296109
-0.00315078
-0.00633654
-0.00938236
-0.0123034
-0.0149798
-0.0175051
-0.019861
-0.0220618
-0.0242342
-0.0260641
-0.0276703
-0.0290125
-0.0301733
-0.0312062
-0.0318042
-0.0321352
-0.0322701
-0.0321714
-0.0316809
-0.030802
-0.029696
-0.0282776
-0.0264925
-0.0243065
-0.0216369
-0.0185007
-0.014988
-0.0110412
-0.00666096
-0.00180998
0.00359908
0.00974172
0.0162339
0.0235583
0.0315435
0.0400696
0.0488225
0.0582297
0.0695016
0.0804417
0.115131
0.110956
0.106771
0.102579
0.0983289
0.09399
0.0896349
0.085261
0.0808323
0.0763782
0.0718949
0.0674199
0.0629497
0.0584732
0.0540014
0.0495626
0.0451125
0.0407269
0.036343
0.0320482
0.0277371
0.02351
0.0193782
0.0153386
0.0113666
0.00747942
0.0036787
4.09619e-05
-0.00348737
-0.00691413
-0.0101771
-0.0133534
-0.0163338
-0.0190735
-0.0217065
-0.0241653
-0.0264845
-0.0285623
-0.0303522
-0.0319507
-0.0333058
-0.034463
-0.03534
-0.0358731
-0.0361665
-0.036205
-0.0359625
-0.0353421
-0.034383
-0.0331152
-0.0315101
-0.0295169
-0.0270931
-0.0242022
-0.0208382
-0.0170311
-0.0127553
-0.00795753
-0.00263319
0.00328375
0.00990588
0.0171308
0.0250715
0.033739
0.0430778
0.0530507
0.0636111
0.0754409
0.0866792
0.116705
0.112297
0.107872
0.103429
0.098923
0.0943612
0.0897551
0.0851095
0.0804341
0.0757351
0.0710269
0.0663186
0.0616076
0.0568989
0.0522051
0.0475203
0.0428633
0.0382412
0.0336602
0.0291208
0.0246433
0.0202512
0.0159421
0.0117168
0.00758116
0.00354611
-0.000364806
-0.00415049
-0.00781868
-0.0113496
-0.0147391
-0.0179717
-0.021016
-0.0238789
-0.0265765
-0.0290777
-0.0313608
-0.0334054
-0.0352189
-0.0368116
-0.0381601
-0.0392502
-0.0400601
-0.0405799
-0.0408178
-0.0407559
-0.0403774
-0.0396548
-0.0385859
-0.0371599
-0.0353591
-0.0331527
-0.0305059
-0.0273911
-0.0237898
-0.0196899
-0.0150659
-0.00988073
-0.00410147
0.00232503
0.00946144
0.0173207
0.0259416
0.0353612
0.0455663
0.0565623
0.0682338
0.0810083
0.0930758
0.118145
0.113475
0.10878
0.104069
0.0993006
0.094467
0.089583
0.0846672
0.0797321
0.0747815
0.0698195
0.0648497
0.0598779
0.0549121
0.0499628
0.045037
0.0401464
0.0352975
0.0304995
0.0257602
0.0210928
0.0165047
0.0120032
0.00759741
0.00329716
-0.000888762
-0.00495103
-0.00888239
-0.0126721
-0.0163087
-0.0197826
-0.0230832
-0.0262033
-0.0291343
-0.0318641
-0.0343762
-0.0366614
-0.0387187
-0.040543
-0.0421233
-0.0434442
-0.0444909
-0.0452525
-0.0457165
-0.0458732
-0.045714
-0.0452277
-0.0443963
-0.0432018
-0.0416275
-0.0396555
-0.03726
-0.0344095
-0.031075
-0.0272295
-0.0228478
-0.0179009
-0.0123505
-0.00615196
0.000746222
0.00839976
0.0168479
0.0261285
0.0362872
0.0473338
0.0593015
0.0720315
0.0859009
0.0993025
0.119442
0.114488
0.109506
0.10451
0.0994593
0.0943398
0.089172
0.0839768
0.0787641
0.0735372
0.068299
0.0630558
0.0578163
0.0525898
0.0473857
0.0422136
0.0370821
0.0320001
0.0269763
0.0220203
0.0171412
0.0123487
0.00765325
0.00306485
-0.00140724
-0.00575403
-0.00996547
-0.0140304
-0.017939
-0.0216826
-0.0252522
-0.0286389
-0.0318325
-0.0348218
-0.0375952
-0.0401406
-0.0424522
-0.0445255
-0.0463517
-0.0479191
-0.0492143
-0.0502238
-0.0509359
-0.0513397
-0.051426
-0.0511853
-0.0506041
-0.0496648
-0.0483483
-0.046636
-0.0445069
-0.0419356
-0.0388929
-0.0353483
-0.0312705
-0.0266272
-0.0213816
-0.0154908
-0.00890477
-0.00156907
0.0065741
0.0155783
0.0254935
0.0363681
0.0482278
0.0611189
0.0748925
0.089966
0.104884
0.120642
0.115385
0.110103
0.104807
0.0994547
0.0940337
0.0885648
0.0830697
0.0775588
0.0720362
0.0665065
0.0609767
0.0554559
0.0499535
0.0444791
0.0390424
0.0336527
0.0283195
0.0230524
0.0178616
0.0127574
0.00775032
0.00285048
-0.00193189
-0.00658648
-0.011103
-0.0154709
-0.0196801
-0.0237211
-0.0275845
-0.0312605
-0.034739
-0.0380094
-0.0410626
-0.043887
-0.0464701
-0.048806
-0.05089
-0.0527143
-0.0542674
-0.0555363
-0.0565081
-0.0571715
-0.0575168
-0.0575345
-0.0572132
-0.0565391
-0.0554954
-0.0540631
-0.0522218
-0.0499489
-0.0472186
-0.0440017
-0.0402659
-0.0359764
-0.0310951
-0.0255795
-0.0193813
-0.0124454
-0.0047114
0.00388469
0.0134056
0.0239096
0.035452
0.0480727
0.0618282
0.076607
0.0928832
0.109357
0.121706
0.116129
0.110527
0.104912
0.0992398
0.0934972
0.0877065
0.0818906
0.0760613
0.0702237
0.0643832
0.0585466
0.0527232
0.0469235
0.0411579
0.0354369
0.0297706
0.024169
0.0186432
0.0132042
0.00786232
0.00262822
-0.00248713
-0.0074729
-0.0123183
-0.0170126
-0.0215453
-0.0259061
-0.0300847
-0.0340706
-0.0378536
-0.0414237
-0.0447713
-0.0478877
-0.0507605
-0.0533778
-0.0557353
-0.0578292
-0.0596518
-0.0611916
-0.0624357
-0.0633716
-0.0639888
-0.0642781
-0.0642297
-0.0638325
-0.0630727
-0.0619335
-0.0603957
-0.0584382
-0.0560373
-0.0531669
-0.0497969
-0.0458934
-0.0414185
-0.0363298
-0.0305794
-0.0241132
-0.0168702
-0.00878437
0.000214374
0.0101956
0.0212251
0.0333689
0.0466803
0.0612257
0.0769405
0.0943307
0.11226
0.122584
0.116664
0.110719
0.104763
0.0987489
0.0926633
0.0865303
0.080374
0.0742071
0.0680357
0.0618647
0.0557014
0.049556
0.0434404
0.0373661
0.0313443
0.0253858
0.0195015
0.013703
0.00800138
0.00240788
-0.00306559
-0.00840736
-0.0136062
-0.0186509
-0.0235305
-0.028234
-0.0327506
-0.0370697
-0.0411807
-0.0450734
-0.0487382
-0.0521655
-0.0553463
-0.0582683
-0.0609212
-0.0633023
-0.0654078
-0.0672296
-0.0687564
-0.0699753
-0.070875
-0.0714462
-0.0716802
-0.0715683
-0.0710994
-0.07026
-0.0690336
-0.0674009
-0.0653407
-0.0628293
-0.0598399
-0.0563415
-0.0522987
-0.0476707
-0.0424112
-0.0364675
-0.0297802
-0.0222832
-0.0139053
-0.00457156
0.00579387
0.017266
0.0299255
0.0438389
0.059088
0.0756449
0.0940339
0.113414
0.12325
0.116961
0.110648
0.104326
0.0979441
0.0914914
0.0849924
0.0784729
0.0719471
0.065421
0.058899
0.0523891
0.045903
0.0394535
0.0330531
0.0267137
0.0204468
0.0142641
0.00817741
0.00219868
-0.00365973
-0.00938529
-0.0149657
-0.020389
-0.0256434
-0.0307173
-0.0355994
-0.0402785
-0.0447437
-0.0489845
-0.0529908
-0.0567527
-0.0602609
-0.0635063
-0.0664768
-0.0691642
-0.0715672
-0.0736818
-0.0754999
-0.0770102
-0.0782013
-0.0790631
-0.0795876
-0.0797676
-0.079595
-0.0790594
-0.0781477
-0.0768439
-0.0751293
-0.0729831
-0.0703814
-0.0672974
-0.0636992
-0.05955
-0.0548068
-0.0494201
-0.0433334
-0.0364828
-0.028799
-0.0202066
-0.0106264
2.52093e-05
0.0118359
0.0249041
0.0393112
0.0551667
0.0724717
0.0918233
0.112189
0.123671
0.116988
0.110284
0.10357
0.0967954
0.0899495
0.0830585
0.0761503
0.0692397
0.0623325
0.0554343
0.0485544
0.0417056
0.0349011
0.0281541
0.0214772
0.0148828
0.00838347
0.001992
-0.00427892
-0.0104163
-0.0164069
-0.022238
-0.0278966
-0.0333705
-0.0386474
-0.0437154
-0.0485631
-0.0531793
-0.0575533
-0.061675
-0.0655345
-0.0691231
-0.0724313
-0.0754477
-0.0781668
-0.0805884
-0.0827085
-0.0845191
-0.0860098
-0.0871703
-0.0879926
-0.0884701
-0.0885968
-0.0883659
-0.087768
-0.0867909
-0.0854197
-0.0836369
-0.0814221
-0.0787523
-0.0756005
-0.0719349
-0.0677173
-0.0629034
-0.0574416
-0.0512731
-0.044332
-0.0365467
-0.0278386
-0.0181232
-0.0073061
0.00471619
0.01806
0.032826
0.0491637
0.0671228
0.0874723
0.108959
0.123777
0.116676
0.109554
0.102425
0.0952343
0.0879712
0.0806636
0.0733411
0.0660192
0.0587051
0.0514058
0.0441317
0.0368959
0.0297129
0.0225964
0.0155602
0.00861756
0.00178203
-0.00493272
-0.0115129
-0.0179447
-0.0242144
-0.0303083
-0.0362131
-0.0419156
-0.0474033
-0.0526636
-0.0576847
-0.0624553
-0.0669645
-0.0712022
-0.0751588
-0.0788259
-0.0821943
-0.0852534
-0.0880003
-0.0904361
-0.0925567
-0.0943545
-0.0958202
-0.0969456
-0.0977244
-0.0981523
-0.0982248
-0.0979365
-0.0972796
-0.0962436
-0.094815
-0.0929778
-0.0907134
-0.0879994
-0.0848098
-0.081113
-0.0768709
-0.0720389
-0.0665653
-0.060391
-0.0534505
-0.0456704
-0.036968
-0.0272507
-0.0164109
-0.00432864
0.00912789
0.0240845
0.0407287
0.0592029
0.0803655
0.102598
0.1235
0.11595
0.108381
0.100807
0.0931717
0.0854637
0.0777125
0.0699494
0.0621912
0.0544459
0.0467212
0.0390282
0.0313814
0.0237961
0.0162873
0.00886983
0.00155806
-0.00563345
-0.01269
-0.0195968
-0.0263391
-0.0329023
-0.039272
-0.0454342
-0.051375
-0.0570813
-0.06254
-0.0677391
-0.0726669
-0.0773124
-0.0816656
-0.0857172
-0.0894594
-0.0928831
-0.0959793
-0.0987479
-0.10119
-0.103303
-0.10508
-0.106512
-0.107595
-0.108323
-0.108696
-0.108711
-0.108365
-0.107652
-0.106562
-0.105086
-0.103208
-0.100913
-0.0981809
-0.0949864
-0.0912997
-0.0870846
-0.0822981
-0.0768906
-0.0708049
-0.0639758
-0.0563274
-0.0477712
-0.0382047
-0.0275065
-0.0155423
-0.00216472
0.0127817
0.0295099
0.0482588
0.0697987
0.0933688
0.12279
0.114757
0.106707
0.0986542
0.0905405
0.0823543
0.0741272
0.065892
0.0576671
0.0494611
0.0412824
0.0331432
0.0250589
0.0170459
0.00912052
0.00129849
-0.00640454
-0.0139728
-0.0213905
-0.0286419
-0.0357112
-0.0425828
-0.0492416
-0.0556725
-0.0618611
-0.0677935
-0.0734563
-0.0788369
-0.0839234
-0.0887049
-0.0931714
-0.0973141
-0.101125
-0.104597
-0.107722
-0.110502
-0.112941
-0.115035
-0.116778
-0.118165
-0.119194
-0.119863
-0.120173
-0.120124
-0.119716
-0.118945
-0.117806
-0.11629
-0.114386
-0.112081
-0.109358
-0.106195
-0.102567
-0.0984401
-0.093776
-0.0885281
-0.0826413
-0.0760498
-0.0686743
-0.0604205
-0.0511758
-0.0408071
-0.0291681
-0.0160888
-0.00138058
0.0152173
0.0340082
0.0554599
0.0780491
0.12157
0.113021
0.104458
0.0958919
0.0872646
0.0785648
0.0698261
0.0610838
0.0523574
0.0436568
0.0349913
0.026374
0.0178214
0.00935132
0.000981324
-0.00727165
-0.0153908
-0.023359
-0.0311595
-0.0387753
-0.0461894
-0.0533855
-0.0603471
-0.0670585
-0.0735044
-0.0796701
-0.0855416
-0.0911058
-0.0963511
-0.101266
-0.105842
-0.110069
-0.11394
-0.117449
-0.12059
-0.12337
-0.12579
-0.127849
-0.129542
-0.130868
-0.131827
-0.132422
-0.132656
-0.132533
-0.132056
-0.131224
-0.130036
-0.128486
-0.126569
-0.124276
-0.121594
-0.118507
-0.114994
-0.111027
-0.106573
-0.101589
-0.0960204
-0.0898016
-0.0828504
-0.0750683
-0.0663352
-0.0565103
-0.0454346
-0.0329115
-0.0187201
-0.00251329
0.016098
0.0376051
0.0608995
0.119722
0.110621
0.101508
0.0923945
0.0832186
0.0739697
0.0646842
0.0553993
0.0461363
0.0369062
0.0277194
0.0185903
0.00953666
0.000577802
-0.00826727
-0.0169802
-0.0255427
-0.0339365
-0.0421435
-0.0501453
-0.0579239
-0.0654613
-0.0727405
-0.0797445
-0.0864571
-0.0928628
-0.0989471
-0.104696
-0.110099
-0.115143
-0.11982
-0.124121
-0.128041
-0.131571
-0.134713
-0.137474
-0.139855
-0.141857
-0.143479
-0.144722
-0.14559
-0.14609
-0.14623
-0.146017
-0.145458
-0.144557
-0.143316
-0.141738
-0.139822
-0.137564
-0.134959
-0.131997
-0.128663
-0.124934
-0.120782
-0.116167
-0.111038
-0.10533
-0.0989604
-0.0918309
-0.0838169
-0.0747733
-0.0645256
-0.0528607
-0.0395319
-0.0241593
-0.00645744
0.0139416
0.0366254
0.11712
0.107427
0.0977248
0.0880238
0.0782607
0.0684245
0.0585539
0.0486885
0.0388514
0.0290546
0.0193101
0.00963333
4.38636e-05
-0.00943743
-0.0187901
-0.027994
-0.0370293
-0.0458763
-0.0545154
-0.0629268
-0.0710907
-0.078988
-0.0866002
-0.0939093
-0.100898
-0.10755
-0.11385
-0.119785
-0.125341
-0.130507
-0.135275
-0.139637
-0.143588
-0.147121
-0.150242
-0.152959
-0.155275
-0.157192
-0.158713
-0.159843
-0.160591
-0.160969
-0.160988
-0.160662
-0.160003
-0.159021
-0.157725
-0.156122
-0.154221
-0.152024
-0.149533
-0.146744
-0.143649
-0.14023
-0.136465
-0.132317
-0.127743
-0.122682
-0.117056
-0.110769
-0.103694
-0.0956839
-0.0865526
-0.0760862
-0.0640171
-0.0499997
-0.0338659
-0.0154593
0.00389864
0.113608
0.103279
0.0929432
0.0826119
0.0722187
0.0617528
0.0512551
0.0407679
0.0303157
0.0199122
0.00957056
-0.000692119
-0.0108546
-0.0208943
-0.0307891
-0.0405169
-0.0500564
-0.0593862
-0.0684848
-0.0773304
-0.085902
-0.0941789
-0.102141
-0.109768
-0.117043
-0.123947
-0.130466
-0.136583
-0.142287
-0.147566
-0.152411
-0.156816
-0.160775
-0.164287
-0.167357
-0.169998
-0.172212
-0.174007
-0.175387
-0.176365
-0.176955
-0.177175
-0.177042
-0.176576
-0.175795
-0.174716
-0.173355
-0.171729
-0.169852
-0.167734
-0.165383
-0.162802
-0.15999
-0.156938
-0.153629
-0.150037
-0.146126
-0.141843
-0.137121
-0.131865
-0.125956
-0.119249
-0.111574
-0.102731
-0.09245
-0.0804345
-0.0664881
-0.0505053
-0.033226
0.109017
0.0980023
0.0869849
0.0759757
0.0649049
0.0537619
0.04259
0.0314339
0.0203204
0.00926462
-0.00171881
-0.0126108
-0.0233884
-0.0340272
-0.0445029
-0.0547918
-0.0648707
-0.0747159
-0.084304
-0.0936112
-0.102615
-0.111292
-0.11962
-0.12758
-0.135151
-0.142313
-0.149051
-0.155348
-0.161191
-0.166568
-0.171472
-0.175896
-0.179835
-0.183291
-0.186274
-0.188796
-0.190865
-0.192489
-0.193682
-0.19446
-0.194845
-0.194863
-0.194537
-0.193894
-0.192959
-0.191756
-0.19031
-0.188645
-0.186782
-0.184739
-0.182533
-0.180175
-0.177671
-0.175023
-0.172224
-0.16926
-0.166107
-0.162724
-0.159054
-0.155017
-0.150513
-0.145439
-0.139679
-0.133054
-0.125286
-0.116053
-0.105083
-0.0921743
-0.0778888
0.103089
0.0913372
0.0795861
0.0678476
0.0560484
0.0441775
0.0322809
0.0204061
0.00858169
-0.0031754
-0.0148487
-0.0264172
-0.0378562
-0.0491389
-0.060239
-0.0711305
-0.0817878
-0.092185
-0.102296
-0.112096
-0.121558
-0.130659
-0.139374
-0.147681
-0.155557
-0.162982
-0.169938
-0.176407
-0.182376
-0.187834
-0.192771
-0.197183
-0.201066
-0.204424
-0.207274
-0.209627
-0.211494
-0.21289
-0.213835
-0.214352
-0.214472
-0.214225
-0.213645
-0.212765
-0.211618
-0.21024
-0.208661
-0.206915
-0.205029
-0.203033
-0.200951
-0.198804
-0.19661
-0.194382
-0.192128
-0.189845
-0.187525
-0.185141
-0.182661
-0.180044
-0.177258
-0.174284
-0.171054
-0.167348
-0.162823
-0.157087
-0.14971
-0.140284
-0.129168
0.0955501
0.0830034
0.0704618
0.0579369
0.0453515
0.0326947
0.0200152
0.00736337
-0.00523011
-0.0177459
-0.0301653
-0.0424648
-0.0546171
-0.0665933
-0.0783645
-0.0899025
-0.101179
-0.112166
-0.122834
-0.133157
-0.143105
-0.152653
-0.161773
-0.170439
-0.178629
-0.18632
-0.193491
-0.200125
-0.206205
-0.211722
-0.216665
-0.22103
-0.224815
-0.22803
-0.230691
-0.232812
-0.234407
-0.235499
-0.236113
-0.236282
-0.236044
-0.235439
-0.23451
-0.2333
-0.231852
-0.230211
-0.228418
-0.226516
-0.224542
-0.222534
-0.220528
-0.218554
-0.216644
-0.214823
-0.213114
-0.211527
-0.210078
-0.208772
-0.207639
-0.206731
-0.206109
-0.205792
-0.205632
-0.205323
-0.204475
-0.20266
-0.199216
-0.193413
-0.185222
0.0858965
0.0724888
0.0590906
0.0457161
0.0322829
0.0187798
0.00525807
-0.00822937
-0.0216492
-0.0349796
-0.0481992
-0.0612821
-0.0741986
-0.0869174
-0.0994074
-0.111638
-0.123577
-0.135195
-0.14646
-0.157341
-0.167808
-0.177829
-0.187376
-0.196421
-0.204936
-0.212898
-0.220283
-0.227071
-0.233245
-0.238791
-0.243701
-0.247969
-0.251594
-0.254589
-0.256973
-0.25876
-0.259972
-0.260638
-0.260794
-0.260483
-0.259752
-0.258652
-0.257238
-0.255565
-0.253687
-0.251661
-0.249538
-0.24737
-0.245207
-0.243094
-0.241075
-0.239191
-0.237485
-0.235992
-0.234753
-0.233809
-0.233222
-0.233095
-0.233551
-0.234728
-0.236652
-0.239238
-0.242228
-0.24535
-0.248232
-0.250188
-0.250205
-0.247504
-0.241717
0.0736852
0.0593621
0.0450534
0.0307777
0.016447
0.00204869
-0.0123639
-0.0267357
-0.0410311
-0.0552258
-0.0692956
-0.0832118
-0.0969417
-0.110451
-0.123707
-0.136674
-0.149319
-0.161608
-0.173506
-0.184979
-0.195993
-0.206514
-0.216508
-0.225944
-0.234793
-0.243024
-0.250612
-0.257534
-0.263771
-0.269307
-0.274131
-0.278239
-0.281633
-0.284327
-0.286339
-0.287687
-0.288398
-0.288509
-0.288066
-0.287122
-0.285737
-0.283977
-0.281909
-0.279603
-0.27713
-0.274559
-0.271955
-0.26938
-0.266892
-0.264539
-0.262366
-0.260419
-0.258746
-0.257403
-0.256468
-0.256063
-0.256341
-0.257513
-0.259716
-0.263009
-0.267311
-0.272495
-0.278374
-0.284539
-0.290292
-0.294759
-0.29704
-0.296501
-0.292335
0.0580079
0.0427087
0.0274096
0.0121628
-0.00312896
-0.0184852
-0.0338525
-0.0491734
-0.0644093
-0.0795325
-0.0945157
-0.109327
-0.123931
-0.13829
-0.152367
-0.166126
-0.17953
-0.19254
-0.20512
-0.21723
-0.228833
-0.239889
-0.250362
-0.260215
-0.269412
-0.27792
-0.285708
-0.292749
-0.299017
-0.304493
-0.309163
-0.313017
-0.31606
-0.318306
-0.319773
-0.320485
-0.320476
-0.319797
-0.318504
-0.316667
-0.314365
-0.311679
-0.308698
-0.305511
-0.30221
-0.29888
-0.295602
-0.292449
-0.289478
-0.286733
-0.284249
-0.282076
-0.280274
-0.278941
-0.278199
-0.278238
-0.279252
-0.281428
-0.284859
-0.289593
-0.295679
-0.3029
-0.310693
-0.318281
-0.325124
-0.330679
-0.334289
-0.335301
-0.332642
0.040271
0.0238721
0.00750565
-0.00878831
-0.0251185
-0.041509
-0.0579063
-0.0742503
-0.0904992
-0.106622
-0.122589
-0.138363
-0.153906
-0.169176
-0.184133
-0.198735
-0.212945
-0.226722
-0.240024
-0.252807
-0.265028
-0.276644
-0.28761
-0.297887
-0.307432
-0.316206
-0.324172
-0.331296
-0.337545
-0.3429
-0.347349
-0.350886
-0.353513
-0.355241
-0.356087
-0.356073
-0.355242
-0.353651
-0.35137
-0.348481
-0.34508
-0.341273
-0.337168
-0.332883
-0.328532
-0.324222
-0.320055
-0.316127
-0.31252
-0.309307
-0.30654
-0.304257
-0.302489
-0.301263
-0.300607
-0.30064
-0.301582
-0.303727
-0.307462
-0.312929
-0.319793
-0.32724
-0.334698
-0.341975
-0.348842
-0.354848
-0.359335
-0.361472
-0.360277
0.0173476
-0.000247317
-0.0178631
-0.0353745
-0.0529075
-0.0705024
-0.0881052
-0.105651
-0.123093
-0.140398
-0.157534
-0.174458
-0.191128
-0.207497
-0.223517
-0.239143
-0.254334
-0.269047
-0.283235
-0.296849
-0.30984
-0.322157
-0.333753
-0.344579
-0.354589
-0.363737
-0.371977
-0.37926
-0.385545
-0.390786
-0.39495
-0.398015
-0.399973
-0.400827
-0.400602
-0.399341
-0.397099
-0.393955
-0.390003
-0.385356
-0.380136
-0.374481
-0.368539
-0.362463
-0.356407
-0.350521
-0.344955
-0.339846
-0.335321
-0.331489
-0.32842
-0.326087
-0.324384
-0.323104
-0.322049
-0.321361
-0.321557
-0.323217
-0.326636
-0.331392
-0.336739
-0.342398
-0.348433
-0.354825
-0.361323
-0.367502
-0.372635
-0.375659
-0.375531
-0.00283323
-0.0217631
-0.0405624
-0.0592674
-0.0780062
-0.0968022
-0.115597
-0.134322
-0.152928
-0.171379
-0.189635
-0.207653
-0.225387
-0.242788
-0.25981
-0.276407
-0.292531
-0.30813
-0.32315
-0.337535
-0.351227
-0.364166
-0.376297
-0.387568
-0.397928
-0.407324
-0.415709
-0.423046
-0.429303
-0.434445
-0.438429
-0.441223
-0.442801
-0.443141
-0.442239
-0.440126
-0.436851
-0.432492
-0.42716
-0.420991
-0.414142
-0.40679
-0.399135
-0.391387
-0.383745
-0.376379
-0.369418
-0.362938
-0.356995
-0.351677
-0.347143
-0.343606
-0.341196
-0.339728
-0.338796
-0.338289
-0.338408
-0.339224
-0.34071
-0.342842
-0.345591
-0.349111
-0.353648
-0.359296
-0.365761
-0.372297
-0.377832
-0.381063
-0.381041
-0.0382099
-0.0586565
-0.0792944
-0.0997714
-0.120237
-0.140769
-0.161317
-0.181802
-0.202164
-0.222355
-0.242334
-0.262058
-0.281481
-0.300552
-0.319217
-0.337424
-0.355114
-0.372227
-0.388699
-0.404466
-0.419465
-0.433622
-0.446876
-0.459158
-0.470393
-0.480498
-0.489381
-0.496927
-0.503036
-0.507657
-0.510774
-0.51238
-0.512466
-0.511015
-0.508024
-0.503523
-0.497578
-0.490291
-0.481806
-0.472304
-0.462005
-0.451148
-0.439984
-0.428782
-0.417804
-0.407255
-0.397301
-0.388072
-0.379635
-0.372052
-0.365474
-0.360276
-0.356944
-0.355457
-0.354975
-0.354402
-0.35326
-0.351666
-0.350133
-0.349183
-0.349263
-0.351001
-0.354902
-0.360789
-0.367764
-0.374551
-0.379738
-0.382059
-0.380961
-0.0491669
-0.0707099
-0.0919802
-0.113397
-0.134975
-0.156617
-0.178246
-0.199793
-0.221198
-0.242417
-0.263413
-0.284142
-0.304546
-0.324565
-0.344139
-0.363215
-0.381736
-0.399636
-0.416852
-0.433308
-0.448929
-0.463654
-0.477421
-0.490166
-0.501847
-0.51247
-0.522078
-0.530604
-0.537828
-0.543505
-0.547459
-0.549612
-0.549929
-0.548385
-0.544966
-0.539663
-0.532496
-0.523531
-0.512883
-0.500733
-0.487376
-0.473208
-0.458718
-0.444508
-0.431228
-0.41952
-0.409936
-0.402647
-0.397325
-0.393216
-0.389445
-0.385397
-0.381188
-0.377263
-0.373605
-0.369704
-0.365213
-0.360394
-0.356041
-0.353102
-0.352372
-0.354326
-0.35885
-0.365194
-0.372071
-0.377865
-0.381073
-0.380747
-0.376734
-0.115087
-0.139442
-0.16395
-0.188254
-0.212555
-0.23702
-0.261583
-0.286091
-0.310436
-0.334564
-0.358443
-0.382027
-0.405259
-0.428075
-0.450406
-0.472183
-0.493333
-0.513778
-0.533439
-0.552227
-0.570048
-0.586806
-0.602389
-0.61667
-0.629501
-0.640702
-0.650064
-0.657513
-0.663124
-0.666952
-0.66892
-0.668837
-0.666522
-0.661856
-0.654772
-0.645253
-0.633331
-0.619079
-0.602626
-0.584208
-0.564177
-0.543029
-0.521438
-0.500178
-0.48005
-0.461789
-0.445867
-0.432482
-0.421585
-0.412867
-0.405821
-0.399874
-0.394581
-0.389589
-0.384632
-0.379501
-0.374003
-0.368308
-0.363139
-0.359554
-0.358593
-0.360732
-0.36553
-0.371726
-0.377616
-0.381536
-0.382438
-0.380287
-0.375145
-0.0358919
-0.0307753
-0.0253032
-0.0195532
-0.0134405
-0.00689195
0.000137034
0.00752123
0.0151977
0.023283
0.0318395
0.0408185
0.0500164
0.0599382
0.0696179
0.0797612
0.089755
0.10021
0.110525
0.120644
0.131285
0.14113
0.150706
0.159673
0.168175
0.17616
0.183167
0.189398
0.19507
0.19958
0.202945
0.205431
0.207173
0.208145
0.207902
0.206899
0.205289
0.202831
0.19974
0.196324
0.192241
0.187927
0.1836
0.179186
0.174222
0.169504
0.164559
0.159809
0.155016
0.150369
0.145913
0.141608
0.137585
0.133705
0.130056
0.126406
0.123061
0.119872
0.116924
-0.0391267
-0.0337964
-0.0280921
-0.0220256
-0.0155644
-0.00869607
-0.0013916
0.00633111
0.0144607
0.0230064
0.0319486
0.0413006
0.0510199
0.0611075
0.0714748
0.0819748
0.092739
0.103556
0.114467
0.12514
0.135882
0.146344
0.156326
0.165762
0.174592
0.182837
0.190266
0.196719
0.202477
0.207173
0.210624
0.213221
0.214925
0.215697
0.215437
0.214296
0.212453
0.20989
0.206612
0.202829
0.198637
0.194142
0.189409
0.184385
0.179284
0.174143
0.16901
0.163963
0.158943
0.154046
0.149336
0.144805
0.140432
0.1363
0.132326
0.128595
0.125098
0.121798
0.118695
-0.0426891
-0.0370909
-0.0311218
-0.0247496
-0.0179619
-0.010743
-0.00309092
0.0049972
0.0135307
0.0225096
0.0319093
0.0417068
0.051892
0.0624309
0.0732664
0.0843742
0.0956834
0.107085
0.118486
0.129756
0.140904
0.151807
0.162274
0.172174
0.181451
0.190027
0.197755
0.204537
0.210456
0.215265
0.21893
0.2216
0.223226
0.22386
0.223488
0.222216
0.220145
0.217374
0.213912
0.209927
0.20549
0.200647
0.195508
0.190157
0.184723
0.179265
0.173801
0.168398
0.163094
0.157929
0.152944
0.148137
0.143517
0.139101
0.134924
0.130984
0.127267
0.123766
0.12048
-0.0465048
-0.0406337
-0.0343703
-0.0276875
-0.0205691
-0.0129998
-0.00497381
0.00351302
0.0124654
0.021882
0.0317491
0.0420453
0.0527498
0.0638177
0.0751911
0.086844
0.0986844
0.110644
0.122596
0.134466
0.146166
0.157557
0.16851
0.178892
0.188624
0.197583
0.20564
0.212732
0.218854
0.223816
0.227646
0.230374
0.231974
0.232538
0.232052
0.230629
0.228348
0.225319
0.221596
0.217315
0.212543
0.207351
0.201871
0.196205
0.190413
0.184586
0.178761
0.173002
0.167363
0.161877
0.156572
0.151465
0.146576
0.141912
0.137485
0.133295
0.129339
0.125616
0.122135
-0.0506784
-0.0445145
-0.0379359
-0.0309175
-0.0234433
-0.0154979
-0.00707142
0.00184224
0.0112446
0.0211316
0.0314918
0.0423072
0.0535501
0.0651754
0.0771285
0.0893542
0.101777
0.114318
0.126868
0.139337
0.151614
0.16355
0.175024
0.185907
0.196096
0.205461
0.213878
0.221273
0.227621
0.232761
0.236721
0.239505
0.241104
0.241609
0.24101
0.239421
0.236922
0.233619
0.229592
0.224962
0.219824
0.214276
0.208434
0.202392
0.196218
0.190001
0.183802
0.17768
0.171684
0.165849
0.160207
0.15478
0.149587
0.144638
0.139939
0.135493
0.131302
0.12736
0.123673
-0.0552992
-0.0488234
-0.0419098
-0.0345326
-0.0266758
-0.0183245
-0.00946742
-9.71453e-05
0.0097878
0.0201818
0.0310717
0.0424379
0.0542507
0.0664675
0.0790343
0.0918853
0.104943
0.118116
0.131301
0.144393
0.157272
0.169794
0.181826
0.193235
0.203901
0.213694
0.222492
0.230204
0.236793
0.242121
0.24621
0.249047
0.25064
0.251071
0.250348
0.248576
0.245841
0.242251
0.237902
0.232915
0.2274
0.221465
0.215222
0.208768
0.202187
0.195563
0.188968
0.182457
0.176081
0.169879
0.163883
0.15812
0.152606
0.147355
0.142372
0.13766
0.133218
0.129041
0.125132
-0.0604134
-0.053607
-0.0463386
-0.0385814
-0.0303188
-0.0215349
-0.0122178
-0.00236016
0.00803935
0.018975
0.030433
0.0423915
0.0548184
0.0676695
0.0808888
0.0944071
0.108142
0.121996
0.13586
0.149619
0.163142
0.176288
0.188917
0.200885
0.212062
0.222312
0.231511
0.239562
0.246409
0.251939
0.256159
0.259049
0.260627
0.260973
0.260107
0.258135
0.255145
0.251252
0.246563
0.241203
0.235291
0.228942
0.22227
0.215379
0.208363
0.201306
0.194283
0.187354
0.18057
0.173976
0.167605
0.161483
0.155628
0.150054
0.144765
0.139765
0.135053
0.130621
0.126474
-0.06607
-0.0589102
-0.051263
-0.0431004
-0.034405
-0.0251605
-0.0153544
-0.00497869
0.00596823
0.0174804
0.029544
0.042135
0.0552182
0.0687463
0.0826609
0.0968895
0.111345
0.125926
0.140515
0.154988
0.169206
0.183022
0.196287
0.208853
0.220577
0.231318
0.240948
0.249359
0.256487
0.26223
0.266588
0.269532
0.271091
0.271344
0.270323
0.268132
0.264869
0.26065
0.255597
0.249838
0.243502
0.236709
0.229579
0.222223
0.214739
0.207216
0.199732
0.192353
0.185133
0.178117
0.171342
0.164834
0.158612
0.152689
0.14707
0.141759
0.136754
0.132048
0.127648
-0.0723388
-0.0648004
-0.056748
-0.0481525
-0.0389944
-0.0292572
-0.0189286
-0.00800017
0.00353037
0.015657
0.0283649
0.0416284
0.0554102
0.069661
0.0843191
0.0993079
0.114535
0.12989
0.145253
0.160489
0.17545
0.189983
0.20393
0.217135
0.229446
0.240714
0.250803
0.259601
0.267031
0.273003
0.277504
0.280505
0.282045
0.2822
0.281011
0.278584
0.275025
0.270459
0.265014
0.258827
0.252033
0.244762
0.23714
0.229282
0.221295
0.213271
0.205293
0.19743
0.189742
0.182275
0.175067
0.168145
0.161529
0.155232
0.149262
0.143618
0.138301
0.133304
0.128631
-0.0793001
-0.0713581
-0.0628739
-0.0538177
-0.044168
-0.0339064
-0.0230195
-0.011499
0.000656378
0.0134402
0.0268364
0.0408186
0.0553486
0.0703747
0.0858305
0.101634
0.117685
0.13387
0.150059
0.166107
0.181864
0.197165
0.211843
0.225733
0.238671
0.250501
0.261082
0.270292
0.278048
0.284265
0.288918
0.291981
0.2935
0.293549
0.292178
0.289497
0.285622
0.280682
0.274815
0.268167
0.260881
0.253095
0.244942
0.236544
0.228015
0.219452
0.210944
0.202564
0.194374
0.186422
0.17875
0.171385
0.164348
0.157653
0.151308
0.145311
0.139663
0.134355
0.129391
-0.087072
-0.0786998
-0.0697542
-0.0602044
-0.0500277
-0.0392045
-0.0277202
-0.0155656
-0.00273918
0.0107514
0.0248889
0.0396456
0.0549804
0.0708382
0.0871488
0.103824
0.120758
0.13783
0.154901
0.171822
0.188433
0.204557
0.220018
0.23464
0.24825
0.260682
0.271788
0.281441
0.289546
0.296024
0.300839
0.30397
0.305465
0.305399
0.303832
0.300879
0.296662
0.29132
0.285
0.277855
0.270039
0.261699
0.252975
0.243998
0.234886
0.225745
0.216668
0.207732
0.199001
0.190529
0.182357
0.174516
0.167027
0.159904
0.153154
0.146778
0.140773
0.135132
0.129857
-0.0957743
-0.0869399
-0.0774979
-0.0674163
-0.0566713
-0.0452416
-0.0331123
-0.0202749
-0.00672743
0.00752202
0.0224554
0.0380421
0.0542385
0.0709863
0.0882107
0.105819
0.123699
0.141722
0.159743
0.177605
0.195132
0.212139
0.228438
0.243845
0.258175
0.271253
0.282922
0.293048
0.30153
0.308286
0.313275
0.316477
0.317945
0.317755
0.315977
0.31273
0.308146
0.302371
0.295564
0.287886
0.2795
0.270564
0.261227
0.251626
0.241889
0.232128
0.222439
0.212905
0.203594
0.194563
0.185855
0.177501
0.169525
0.16194
0.154754
0.147967
0.141577
0.135576
0.129967
-0.105506
-0.0961708
-0.0861934
-0.07554
-0.0641853
-0.0521069
-0.0392885
-0.025721
-0.011403
0.00365695
0.0194393
0.0359124
0.0530305
0.0707326
0.0889385
0.10755
0.126449
0.145498
0.164543
0.183413
0.201921
0.219875
0.237077
0.253328
0.268432
0.282203
0.294476
0.30511
0.313996
0.321051
0.326227
0.329505
0.330943
0.330619
0.328614
0.32505
0.320071
0.313831
0.306499
0.298248
0.28925
0.279674
0.269676
0.259406
0.248997
0.238568
0.228221
0.218045
0.208112
0.198481
0.189197
0.180294
0.171795
0.163716
0.156063
0.148837
0.142034
0.135646
0.129676
-0.116433
-0.106562
-0.0960105
-0.0847444
-0.0727366
-0.0599636
-0.0464086
-0.032061
-0.0169185
-0.00098874
0.015708
0.0331385
0.0512541
0.0699887
0.0892549
0.108949
0.128946
0.149097
0.169239
0.189188
0.208752
0.227727
0.245901
0.263059
0.278994
0.293512
0.306435
0.317614
0.326936
0.334313
0.339689
0.343049
0.344454
0.343987
0.341736
0.337832
0.332428
0.325688
0.317792
0.308924
0.299268
0.289001
0.278294
0.267303
0.25617
0.245022
0.233968
0.223101
0.212498
0.202221
0.192318
0.182825
0.173766
0.165156
0.157003
0.149307
0.142062
0.135261
0.128904
-0.128769
-0.118325
-0.107158
-0.0952344
-0.0825228
-0.0689998
-0.0546464
-0.0394512
-0.0234121
-0.00653725
0.0111524
0.0296201
0.0488128
0.0686588
0.0890654
0.109922
0.131095
0.152429
0.173747
0.194861
0.215567
0.235642
0.254859
0.272993
0.289826
0.305147
0.31877
0.330539
0.34033
0.348053
0.353646
0.357094
0.358464
0.357843
0.355328
0.351059
0.345196
0.337918
0.329416
0.319884
0.309519
0.29851
0.287038
0.27527
0.263358
0.251435
0.239618
0.228007
0.216681
0.205709
0.195139
0.185009
0.175346
0.166165
0.157473
0.14927
0.14155
0.134304
0.127533
-0.14272
-0.131649
-0.119811
-0.107169
-0.0936905
-0.0793513
-0.0641315
-0.048019
-0.0310115
-0.0131172
0.00564061
0.0252204
0.0455655
0.0666008
0.08823
0.110335
0.132773
0.155381
0.177974
0.200349
0.222284
0.243543
0.263887
0.283077
0.300877
0.317065
0.331444
0.343847
0.354145
0.362243
0.368071
0.371616
0.372948
0.372162
0.369364
0.364701
0.358345
0.350488