/*--------------------------------*- C++ -*----------------------------------*\
| =========                 |                                                 |
| \\      /  F ield         | OpenFOAM: The Open Source CFD Toolbox           |
|  \\    /   O peration     | Version:  2312                                  |
|   \\  /    A nd           | Website:  www.openfoam.com                      |
|    \\/     M anipulation  |                                                 |
\*---------------------------------------------------------------------------*/
FoamFile
{
    version     2.0;
    format      ascii;
    arch        "LSB;label=32;scalar=64";
    class       surfaceScalarField;
    location    "900";
    object      phi;
}
// * * * * * * * * * * * * * * * * * * * * * * * * * * * * * * * * * * * * * //

dimensions      [0 3 -1 0 0 0 0];

oriented        oriented;

internalField   nonuniform List<scalar> 
116611
(
0.0264084
0.0111328
-0.0260058
-0.0115354
0.0268084
0.0110329
-0.0114329
0.0272043
0.0109248
-0.0113207
0.0275961
0.0108078
-0.0111995
0.027982
0.010682
-0.011068
0.0283667
0.0105453
-0.01093
0.0287413
0.0103997
-0.0107743
0.0291145
0.010244
-0.0106173
0.0294784
0.0100768
-0.0104407
0.0298372
0.0098992
-0.010258
0.030188
0.00970949
-0.0100603
0.0305329
0.00950851
-0.00985341
0.0308697
0.0092955
-0.00963229
0.0311996
0.00906993
-0.00939985
0.0315211
0.00883183
-0.00915337
0.0318328
0.00858208
-0.00889377
0.032138
0.00831676
-0.00862192
0.032433
0.00804044
-0.00833544
0.0327171
0.00774668
-0.00803077
0.0329909
0.00744191
-0.00771573
0.0332565
0.00711874
-0.00738436
0.0335082
0.00678176
-0.00703344
0.0337481
0.00642887
-0.00666882
0.0339772
0.00606125
-0.00629036
0.0341921
0.00567692
-0.00589176
0.0343961
0.00527611
-0.00548016
0.0345848
0.00485608
-0.00504475
0.0347557
0.00442098
-0.00459185
0.0349181
0.00396741
-0.0041298
0.0350605
0.00349461
-0.00363704
0.0351837
0.00300485
-0.00312802
0.03529
0.00249308
-0.00259942
0.0353761
0.00196211
-0.00204818
0.0354465
0.00141588
-0.00148629
0.0354966
0.000846551
-0.00089671
0.035526
0.000260255
-0.000289568
0.0355397
-0.00035061
0.000336834
0.0355226
-0.000984656
0.00100176
0.0354863
-0.00163639
0.00167275
0.0354251
-0.00231146
0.00237264
0.0353414
-0.00300577
0.0030895
0.0352343
-0.00372453
0.00383156
0.0350907
-0.00446722
0.00461087
0.034927
-0.00522594
0.00538964
0.0347341
-0.00600863
0.00620149
0.0345149
-0.0068122
0.00703143
0.0342586
-0.00764138
0.00789763
0.0339754
-0.0084875
0.00877071
0.0336639
-0.00935444
0.00966596
0.0333203
-0.0102438
0.0105874
0.0329433
-0.0111556
0.0115327
0.0325294
-0.0120891
0.0125029
0.0320765
-0.0130426
0.0134955
0.0315852
-0.0140141
0.0145054
0.0310537
-0.0150028
0.0155342
0.0304847
-0.0160071
0.0165761
0.0298673
-0.0170306
0.0176481
0.0292059
-0.0180677
0.0187291
0.028493
-0.0191217
0.0198346
0.0277184
-0.0201935
0.020968
0.026886
-0.0212758
0.0221082
0.0259854
-0.022365
0.0232657
0.02503
-0.0234567
0.0244121
0.0240019
-0.0245615
0.0255896
0.0229085
-0.0256838
0.0267772
0.0217696
-0.026835
0.0279738
0.0205256
-0.0280543
0.0292983
0.0191614
-0.0293261
0.0306904
-0.0305341
0.0177806
0.031915
0.0260073
0.0107307
-0.0256052
0.0264054
0.0106348
0.0267997
0.0105305
0.0271898
0.0104177
0.0275764
0.0102955
0.0279572
0.0101645
0.028333
0.0100239
0.0287037
0.00987338
0.0290678
0.00971268
0.0294258
0.00954115
0.0297766
0.00935866
0.0301202
0.00916495
0.0304562
0.00895946
0.0307843
0.00874184
0.0311037
0.00851248
0.0314156
0.00827014
0.0317173
0.00801512
0.032011
0.00774667
0.032293
0.0074647
0.0325667
0.00716827
0.0328281
0.00685731
0.0330781
0.00653179
0.0333158
0.00619119
0.0335416
0.00583535
0.0337548
0.00546372
0.0339555
0.00507545
0.0341408
0.00467083
0.0343122
0.00424957
0.0344688
0.00381075
0.0346086
0.00335482
0.034733
0.00288049
0.0348389
0.00238719
0.0349253
0.00187567
0.0349952
0.00134596
0.0350448
0.000796953
0.0350761
0.000229013
0.0350859
-0.000360403
0.035072
-0.000970785
0.0350369
-0.00160135
0.0349781
-0.00225261
0.0348968
-0.00292449
0.03479
-0.00361767
0.034655
-0.00433223
0.0344958
-0.00506676
0.0343094
-0.0058222
0.0340957
-0.0065985
0.0338506
-0.00739632
0.0335769
-0.00821381
0.0332736
-0.00905107
0.0329384
-0.00990866
0.0325694
-0.0107866
0.0321644
-0.0116841
0.0317219
-0.0126
0.0312406
-0.0135328
0.0307193
-0.0144814
0.0301569
-0.0154447
0.0295491
-0.0164228
0.0288953
-0.017414
0.0281913
-0.0184176
0.027431
-0.0194332
0.0266116
-0.0204565
0.0257309
-0.0214843
0.0247904
-0.0225162
0.0237867
-0.0235578
0.0227215
-0.0246186
0.0216011
-0.0257146
0.0204033
-0.0268565
0.0191141
-0.028037
-0.0291828
0.0177628
0.0256166
0.0103296
-0.0252155
0.0260137
0.0102377
0.0264069
0.0101373
0.0267959
0.0100286
0.0271804
0.00991109
0.0275601
0.00978471
0.0279349
0.00964917
0.0283042
0.00950407
0.0286677
0.00934918
0.0290248
0.00918407
0.029375
0.00900841
0.0297181
0.00882186
0.0300535
0.00862409
0.0303806
0.0084147
0.0306996
0.00819349
0.0310098
0.00795999
0.0313109
0.00771397
0.0316026
0.007455
0.0318845
0.00718282
0.0321558
0.00689695
0.0324159
0.00659723
0.0326644
0.00628322
0.0329011
0.00595456
0.0331254
0.00561097
0.0333371
0.0052521
0.033535
0.00487749
0.033719
0.00448689
0.0338886
0.00407991
0.0340431
0.00365627
0.0341823
0.00321565
0.0343051
0.0027576
0.0344105
0.00228186
0.034498
0.00178818
0.0345675
0.00127644
0.034618
0.000746452
0.0346488
0.000198199
0.0346589
-0.000370509
0.0346475
-0.000959401
0.0346143
-0.00156813
0.0345584
-0.0021967
0.0344792
-0.0028453
0.0343756
-0.00351406
0.0342465
-0.00420317
0.034092
-0.00491223
0.0339109
-0.00564114
0.0337024
-0.00638999
0.0334649
-0.0071588
0.0331981
-0.007947
0.0329011
-0.0087541
0.0325725
-0.00958005
0.0322104
-0.0104245
0.0318132
-0.0112869
0.0313792
-0.012166
0.0309068
-0.0130605
0.0303947
-0.0139693
0.0298411
-0.0148911
0.0292434
-0.0158251
0.0285993
-0.0167699
0.0279058
-0.0177241
0.0271587
-0.0186861
0.0263551
-0.0196529
0.0254934
-0.0206226
0.0245742
-0.021597
0.0235981
-0.0225818
0.022567
-0.0235875
0.0214775
-0.0246251
0.0203123
-0.0256913
0.019054
-0.0267787
-0.0278218
0.0176929
0.0252384
0.00992901
-0.0248378
0.0256351
0.00984095
0.0260277
0.0097448
0.0264158
0.00964046
0.0267992
0.00952767
0.0271778
0.00940615
0.0275512
0.00927571
0.0279192
0.00913609
0.0282814
0.00898697
0.0286374
0.00882807
0.0289868
0.00865903
0.0293291
0.00847953
0.029664
0.00828927
0.0299908
0.0080879
0.0303092
0.00787506
0.0306188
0.00765041
0.0309192
0.00741356
0.03121
0.00716422
0.0314907
0.00690205
0.0317609
0.00662674
0.0320202
0.00633798
0.032268
0.00603542
0.0325038
0.0057187
0.0327273
0.00538748
0.032938
0.00504148
0.0331351
0.00468031
0.0333184
0.00430363
0.0334872
0.00391112
0.033641
0.0035025
0.0337792
0.00307744
0.0339011
0.00263565
0.0340062
0.0021768
0.0340937
0.00170063
0.0341632
0.00120699
0.0342139
0.000695745
0.0342452
0.000166897
0.0342565
-0.000381822
0.034247
-0.000949841
0.0342158
-0.00153699
0.0341624
-0.00214332
0.0340861
-0.00276895
0.033986
-0.00341397
0.0338612
-0.0040784
0.0337111
-0.00476208
0.0335348
-0.00546486
0.0333315
-0.00618666
0.0331
-0.0069273
0.0328393
-0.00768639
0.0325487
-0.00846341
0.0322266
-0.009258
0.0318717
-0.0100696
0.0314822
-0.0108974
0.0310566
-0.0117404
0.0305935
-0.0125973
0.0300911
-0.0134669
0.0295478
-0.0143478
0.0289615
-0.0152387
0.0283297
-0.0161382
0.0276497
-0.0170442
0.0269185
-0.0179549
0.0261339
-0.0188683
0.0252956
-0.0197842
0.0244046
-0.020706
0.0234619
-0.021639
0.0224665
-0.0225921
0.0214094
-0.0235679
0.0202725
-0.0245544
0.0190379
-0.025544
-0.0264754
0.0176916
0.0248741
0.00952953
-0.0244746
0.02527
0.009445
0.025662
0.00935284
0.0260496
0.00925288
0.0264324
0.00914482
0.0268102
0.00902836
0.0271827
0.00890323
0.0275496
0.00876918
0.0279106
0.00862594
0.0282655
0.00847324
0.0286137
0.00831078
0.028955
0.00813825
0.0292889
0.00795537
0.029615
0.00776183
0.0299328
0.00755728
0.0302418
0.00734137
0.0305416
0.00711374
0.0308318
0.00687405
0.0311119
0.00662196
0.0313815
0.00635716
0.0316401
0.00607933
0.0318873
0.00578818
0.0321227
0.00548336
0.0323456
0.00516452
0.0325558
0.00483136
0.0327525
0.00448356
0.0329354
0.00412078
0.0331038
0.00374272
0.0332572
0.00334908
0.0333951
0.00293956
0.0335168
0.00251386
0.0336219
0.00207172
0.0337097
0.00161289
0.0337795
0.00113715
0.0338309
0.000644393
0.0338632
0.000134599
0.0338758
-0.000394412
0.0338678
-0.000941926
0.0338387
-0.00150788
0.0337877
-0.00209234
0.0337142
-0.00269539
0.0336173
-0.00331705
0.0334962
-0.0039573
0.0333501
-0.00461603
0.0331783
-0.00529307
0.0329799
-0.00598822
0.0327538
-0.00670119
0.032499
-0.00743159
0.0322145
-0.00817891
0.031899
-0.00894257
0.0315513
-0.00972188
0.0311699
-0.010516
0.0307533
-0.0113238
0.0303
-0.012144
0.0298085
-0.0129754
0.0292771
-0.0138165
0.028704
-0.0146656
0.0280867
-0.0155209
0.0274232
-0.0163806
0.0267114
-0.017243
0.0259503
-0.0181072
0.0251405
-0.0189744
0.024283
-0.0198485
0.0233771
-0.0207331
0.0224177
-0.0216328
0.0213909
-0.0225412
0.0202783
-0.0234418
0.0190621
-0.0243279
-0.0251354
0.0177221
0.0245258
0.00913188
-0.0241282
0.0249202
0.0090506
0.025311
0.00896211
0.0256976
0.00886624
0.0260797
0.00876271
0.0264569
0.00865119
0.0268287
0.00853139
0.0271949
0.00840299
0.0275551
0.00826573
0.027909
0.00811934
0.0282563
0.00796353
0.0285965
0.00779801
0.0289294
0.00762251
0.0292544
0.00743675
0.0295713
0.0072404
0.0298796
0.00703312
0.0301787
0.00681459
0.0304683
0.00658446
0.0307479
0.00634237
0.031017
0.00608803
0.0312752
0.00582112
0.0315221
0.00554134
0.031757
0.00524839
0.0319797
0.00494192
0.0321894
0.0046216
0.0323858
0.00428714
0.0325684
0.00393823
0.0327366
0.00357454
0.0328899
0.00319579
0.0330277
0.0028017
0.0331496
0.00239198
0.0332549
0.0019664
0.0333431
0.00152471
0.0334136
0.00106666
0.0334658
0.000592189
0.0334992
0.000101199
0.0335131
-0.000408314
0.0335068
-0.000935633
0.0334797
-0.00148073
0.033431
-0.00204365
0.03336
-0.00262447
0.0332662
-0.00322316
0.0331485
-0.00383968
0.0330064
-0.00447389
0.0328389
-0.0051256
0.0326453
-0.00579455
0.0324245
-0.00648039
0.0321755
-0.00718267
0.0318975
-0.00790084
0.0315891
-0.00863423
0.0312493
-0.00938205
0.0308767
-0.0101434
0.03047
-0.0109171
0.0300278
-0.0117019
0.0295487
-0.0124963
0.0290311
-0.0132988
0.0284732
-0.0141077
0.0278732
-0.014921
0.0272297
-0.0157371
0.0265416
-0.016555
0.0258091
-0.0173747
0.0250331
-0.0181984
0.0242128
-0.0190282
0.0233446
-0.0198649
0.0224192
-0.0207074
0.0214201
-0.0215421
0.02033
-0.0223516
0.0191332
-0.0231311
-0.023816
0.0178137
0.0241955
0.00873622
-0.0237999
0.024588
0.00865814
0.0249769
0.00857317
0.025362
0.00848117
0.0257428
0.0083819
0.0261189
0.00827508
0.0264899
0.00816041
0.0268553
0.00803758
0.0272148
0.00790627
0.0275679
0.0077662
0.0279144
0.00761708
0.0282538
0.0074586
0.0285858
0.00729051
0.02891
0.00711252
0.029226
0.00692435
0.0295335
0.00672567
0.0298319
0.00651617
0.0301208
0.00629552
0.0303998
0.00606339
0.0306684
0.00581946
0.0309261
0.00556344
0.0311724
0.00529501
0.0314069
0.00501388
0.0316291
0.00471971
0.0318385
0.00441219
0.0320347
0.00409101
0.032217
0.00375588
0.0323851
0.00340648
0.0325383
0.00304254
0.0326762
0.00266378
0.0327983
0.00226993
0.0329039
0.00186076
0.0329926
0.00143603
0.0330638
0.000995494
0.0331168
0.000539133
0.0331513
6.67044e-05
0.0331666
-0.00042356
0.0331619
-0.00093098
0.0331367
-0.00145553
0.0330903
-0.00199726
0.0330221
-0.0025562
0.0329312
-0.00313232
0.0328171
-0.00372554
0.0326789
-0.00433569
0.0325159
-0.00496256
0.0323271
-0.00560584
0.0321119
-0.00626514
0.0318692
-0.00693997
0.0315981
-0.00762973
0.0312976
-0.00833369
0.0309665
-0.009051
0.0306038
-0.00978068
0.0302083
-0.0105215
0.0297787
-0.0112723
0.0293136
-0.0120313
0.0288118
-0.012797
0.0282717
-0.0135676
0.0276924
-0.0143416
0.027073
-0.0151178
0.0264137
-0.0158957
0.0257149
-0.0166759
0.0249761
-0.0174596
0.0241942
-0.0182463
0.0233622
-0.019033
0.022468
-0.0198131
0.0214948
-0.0205688
0.0204277
-0.0212846
0.019255
-0.0219584
-0.0225288
0.0179678
0.0238841
0.00834215
-0.0234901
0.0242749
0.00826741
0.024662
0.00818604
0.0250452
0.00809793
0.0254243
0.00800287
0.0257987
0.0079006
0.0261683
0.00779085
0.0265325
0.00767336
0.026891
0.00754782
0.0272432
0.00741393
0.0275889
0.00727141
0.0279276
0.00711994
0.0282589
0.00695923
0.0285824
0.00678902
0.0288977
0.00660903
0.0292044
0.00641897
0.029502
0.00621851
0.0297902
0.00600734
0.0300685
0.00578515
0.0303363
0.00555161
0.0305933
0.00530643
0.030839
0.0050493
0.031073
0.00477992
0.0312947
0.00449799
0.0315037
0.00420318
0.0316995
0.00389521
0.0318816
0.00357376
0.0320495
0.00323857
0.0322027
0.00288934
0.0323407
0.00252579
0.032463
0.00214769
0.0325689
0.00175478
0.0326581
0.00134685
0.03273
0.000923645
0.0327839
0.000485193
0.0328195
3.10871e-05
0.0328361
-0.00044018
0.0328332
-0.000927986
0.0328099
-0.0014323
0.0327658
-0.00195318
0.0327003
-0.00249062
0.0326125
-0.00304458
0.0325019
-0.00361495
0.0323678
-0.00420156
0.0322094
-0.00480415
0.0320259
-0.0054224
0.0318167
-0.00605588
0.0315808
-0.00670406
0.0313174
-0.00736631
0.0310255
-0.00804187
0.0307044
-0.00872983
0.0303528
-0.00942915
0.0299699
-0.0101386
0.0295545
-0.0108568
0.0291055
-0.0115823
0.0286219
-0.0123134
0.0281029
-0.0130487
0.0275482
-0.0137869
0.0269578
-0.0145273
0.0263318
-0.0152697
0.0256699
-0.016014
0.0249695
-0.0167591
0.0242246
-0.0175014
0.023426
-0.0182344
0.0225603
-0.0189474
0.0216128
-0.0196213
0.0205728
-0.0202446
0.0194321
-0.0208177
-0.021274
0.0181773
0.0235915
0.00794893
-0.0231982
0.0239811
0.00787781
0.0243668
0.00780026
0.0247486
0.0077162
0.025126
0.00762545
0.0254988
0.00752778
0.0258667
0.00742294
0.0262294
0.00731069
0.0265864
0.00719078
0.0269374
0.00706294
0.0272819
0.00692689
0.0276195
0.00678232
0.0279498
0.00662894
0.0282724
0.00646647
0.0285868
0.00629463
0.0288926
0.00611313
0.0291894
0.00592168
0.0294768
0.00571996
0.0297543
0.00550767
0.0300214
0.00528448
0.0302778
0.0050501
0.0305228
0.00480423
0.0307562
0.00454656
0.0309774
0.0042768
0.0311859
0.00399465
0.0313813
0.0036998
0.0315631
0.00339197
0.0317308
0.00307088
0.0318839
0.00273624
0.0320219
0.0023878
0.0321443
0.0020253
0.0322506
0.00164851
0.0323402
0.00125721
0.0324127
0.000851153
0.0324675
0.000430401
0.0325042
-5.61792e-06
0.0325222
-0.000458153
0.0325208
-0.000926637
0.0324996
-0.00141105
0.0324578
-0.00191144
0.032395
-0.0024278
0.0323105
-0.00296006
0.0322037
-0.00350812
0.0320739
-0.00407177
0.0319205
-0.00465075
0.0317428
-0.00524471
0.0315401
-0.00585321
0.0313117
-0.00647569
0.0310569
-0.00711148
0.0307748
-0.0077598
0.0304647
-0.00841972
0.0301257
-0.00909014
0.0297569
-0.00976984
0.0293576
-0.0104575
0.0289271
-0.0111517
0.0284648
-0.0118511
0.0279707
-0.0125546
0.0274449
-0.0132611
0.0268875
-0.0139699
0.0262978
-0.01468
0.0256736
-0.0153898
0.02501
-0.0160956
0.0242993
-0.0167907
0.023531
-0.0174661
0.0226924
-0.0181087
0.021772
-0.0187009
0.0207649
-0.0192374
0.0196693
-0.0197221
-0.0201036
0.0184989
0.0233165
0.0075561
-0.0229237
0.0237056
0.00748869
0.0240907
0.00741514
0.0244716
0.00733534
0.024848
0.00724909
0.0252196
0.00715618
0.0255861
0.0070564
0.0259473
0.00694951
0.0263028
0.00683529
0.0266522
0.0067135
0.0269952
0.00658387
0.0273314
0.00644612
0.0276604
0.00629998
0.0279817
0.00614515
0.028295
0.00598138
0.0285997
0.00580838
0.0288956
0.00562585
0.029182
0.00543351
0.0294586
0.00523103
0.029725
0.00501813
0.0299806
0.00479449
0.030225
0.00455982
0.0304578
0.00431381
0.0306784
0.00405618
0.0308864
0.00378661
0.0310814
0.00350483
0.0312628
0.00321054
0.0314302
0.00290347
0.0315831
0.00258333
0.031721
0.00224988
0.0318435
0.00190286
0.03195
0.00154203
0.03204
0.00116718
0.0321131
0.00077808
0.0321687
0.000374807
0.0322064
-4.33887e-05
0.0322258
-0.000477478
0.0322261
-0.000926962
0.0322069
-0.00139184
0.0321676
-0.00187216
0.0321077
-0.0023679
0.0320266
-0.00287901
0.0319239
-0.00340534
0.0317988
-0.00394671
0.0316509
-0.00450284
0.0314795
-0.00507336
0.0312841
-0.00565781
0.0310641
-0.00625563
0.0308187
-0.00686614
0.0305475
-0.00748853
0.0302496
-0.00812187
0.0299246
-0.0087651
0.0295718
-0.0094171
0.029191
-0.0100767
0.0287819
-0.0107426
0.0283445
-0.0114138
0.0278791
-0.0120891
0.0273855
-0.0127675
0.0268631
-0.0134475
0.0263099
-0.0141267
0.0257216
-0.0148016
0.025092
-0.0154659
0.0244122
-0.016111
0.0236721
-0.016726
0.0228607
-0.0172974
0.0219711
-0.0178113
0.0210027
-0.018269
0.0199579
-0.0186774
-0.0189911
0.0188455
0.0230596
0.00716354
-0.022667
0.0234485
0.0070998
0.0238333
0.00703025
0.0242139
0.00695477
0.0245898
0.00687316
0.0249608
0.00678519
0.0253266
0.00669065
0.0256868
0.00658931
0.0260412
0.00648093
0.0263894
0.00636529
0.0267311
0.00624216
0.0270659
0.00611127
0.0273935
0.00597237
0.0277135
0.00582518
0.0280254
0.00566945
0.0283289
0.00550489
0.0286235
0.00533124
0.0289088
0.0051482
0.0291844
0.00495548
0.0294497
0.00475278
0.0297044
0.0045398
0.029948
0.00431626
0.03018
0.00408184
0.0303999
0.00383626
0.0306073
0.00357921
0.0308017
0.00331042
0.0309827
0.00302958
0.0311497
0.00273643
0.0313023
0.0024307
0.0314401
0.00211211
0.0315625
0.00178042
0.0316692
0.0014354
0.0317595
0.00107682
0.0318331
0.000704469
0.0318895
0.000318433
0.0319284
-8.22234e-05
0.0319491
-0.000498179
0.0319511
-0.000929016
0.031934
-0.00137476
0.0318973
-0.00183547
0.0318406
-0.00231112
0.0317632
-0.00280165
0.0316648
-0.00330693
0.0315448
-0.00382676
0.0314029
-0.00436086
0.0312384
-0.00490886
0.0310509
-0.0054703
0.0308399
-0.00604463
0.0306049
-0.00663117
0.0303455
-0.00722915
0.0300613
-0.0078377
0.0297521
-0.00845588
0.0294177
-0.0090827
0.0290582
-0.00971712
0.0286736
-0.0103581
0.0282643
-0.0110044
0.0278299
-0.0116548
0.0273697
-0.0123074
0.0268818
-0.0129596
0.0263627
-0.0136077
0.0258072
-0.014246
0.025208
-0.0148667
0.0245566
-0.0154596
0.0238441
-0.0160135
0.0230633
-0.0165166
0.022212
-0.0169599
0.0212934
-0.0173504
0.020313
-0.017697
-0.0179581
0.01928
0.0228219
0.00677138
-0.0224297
0.0232104
0.00671126
0.023595
0.00664566
0.0239753
0.00657447
0.024351
0.00649748
0.0247217
0.00641447
0.0250872
0.00632521
0.025447
0.00622948
0.0258009
0.00612705
0.0261485
0.00601769
0.0264895
0.00590117
0.0268235
0.00577726
0.0271501
0.0056457
0.0274691
0.00550623
0.02778
0.00535859
0.0280823
0.00520253
0.0283758
0.00503777
0.02866
0.00486404
0.0289344
0.00468105
0.0291986
0.00448852
0.0294523
0.00428617
0.0296948
0.00407369
0.0299259
0.0038508
0.0301449
0.0036172
0.0303516
0.0033726
0.0305453
0.0031167
0.0307256
0.00284924
0.0308921
0.00256991
0.0310444
0.00227845
0.0311819
0.0019746
0.0313042
0.0016581
0.0314109
0.00132872
0.0315015
0.000986223
0.0315755
0.000630398
0.0316326
0.000261335
0.0316725
-0.000122086
0.0316946
-0.000520238
0.0316984
-0.000932812
0.0316835
-0.00135987
0.0316495
-0.00180145
0.0315959
-0.00225757
0.0315224
-0.00272817
0.0314286
-0.0032131
0.031314
-0.0037122
0.0311784
-0.00422517
0.0310212
-0.00475168
0.0308422
-0.00529129
0.030641
-0.00584348
0.0304175
-0.00640764
0.0301714
-0.00698309
0.0299028
-0.00756906
0.0296116
-0.00816473
0.0292981
-0.00876919
0.0289624
-0.00938144
0.0286046
-0.0100003
0.0282245
-0.0106243
0.0278211
-0.0112514
0.0273928
-0.011879
0.0269365
-0.0125033
0.026448
-0.0131191
0.0259213
-0.0137193
0.0253495
-0.0142949
0.0247254
-0.0148355
0.0240429
-0.015331
0.0232996
-0.0157733
0.0224993
-0.0161596
0.02165
-0.0165011
0.0207572
-0.0168043
-0.0169908
0.0197899
0.0226045
0.00637962
-0.0222128
0.0229927
0.00632313
0.0233769
0.00626145
0.0237569
0.00619449
0.0241323
0.00612206
0.0245028
0.00604396
0.024868
0.00595996
0.0252277
0.00586983
0.0255814
0.00577336
0.0259287
0.00567031
0.0262694
0.00556047
0.0266031
0.0054436
0.0269294
0.00531945
0.0272478
0.00518777
0.0275581
0.00504831
0.0278598
0.00490082
0.0281526
0.00474502
0.0284359
0.00458066
0.0287095
0.00440746
0.0289729
0.00422514
0.0292257
0.00403342
0.0294673
0.00383201
0.0296975
0.00362063
0.0299157
0.00339899
0.0301215
0.00316679
0.0303145
0.00292374
0.0304942
0.00266957
0.0306601
0.00240398
0.0308118
0.00212671
0.0309489
0.00183748
0.031071
0.00153602
0.0311776
0.00122211
0.0312684
0.000895494
0.0313428
0.000555979
0.0314005
0.000203603
0.0314413
-0.000162893
0.0314647
-0.000543582
0.0314701
-0.000938296
0.0314574
-0.00134712
0.0314261
-0.00177012
0.0313758
-0.00220731
0.0313063
-0.00265865
0.0312172
-0.00312403
0.0311083
-0.00360328
0.0309793
-0.00409618
0.0308301
-0.00460242
0.0306604
-0.00512163
0.0304703
-0.00565334
0.0302597
-0.00619705
0.0300287
-0.00675214
0.0297776
-0.00731793
0.0295065
-0.0078936
0.0292155
-0.00847822
0.0289046
-0.00907058
0.0285735
-0.00966918
0.0282213
-0.010272
0.0278463
-0.0108764
0.0274461
-0.0114789
0.0270173
-0.0120744
0.026555
-0.0126568
0.0260538
-0.0132181
0.0255079
-0.013749
0.0249125
-0.0142401
0.024266
-0.0146845
0.0235718
-0.0150792
0.0228403
-0.0154281
0.0220833
-0.0157441
0.0213071
-0.0160281
-0.0162005
0.0205168
0.0224087
0.00598797
-0.0220171
0.0227967
0.00593514
0.0231808
0.00587741
0.0235605
0.00581471
0.0239357
0.00574685
0.0243061
0.00567365
0.0246711
0.00559488
0.0250306
0.00551034
0.0253842
0.00541981
0.0257314
0.00532307
0.026072
0.00521991
0.0264055
0.00511008
0.0267316
0.00499336
0.0270498
0.00486951
0.0273599
0.00473827
0.0276613
0.00459939
0.0279537
0.00445262
0.0282367
0.00429769
0.0285098
0.00413433
0.0287727
0.00396226
0.0290249
0.00378123
0.029266
0.00359093
0.0294955
0.00339109
0.0297131
0.00318141
0.0299183
0.00296162
0.0301106
0.00273141
0.0302896
0.0024905
0.030455
0.00223861
0.0306063
0.00197544
0.030743
0.00170073
0.0308648
0.00141421
0.0309713
0.00111562
0.0310621
0.000804701
0.0311368
0.000481283
0.0311951
0.000145304
0.0312368
-0.000204558
0.0312613
-0.000568133
0.0312685
-0.000945406
0.0312578
-0.00133649
0.0312292
-0.00174148
0.0311823
-0.00216042
0.0311169
-0.00259329
0.031033
-0.00304005
0.0309302
-0.00350056
0.0308087
-0.00397465
0.0306683
-0.00446208
0.0305092
-0.00496253
0.0303315
-0.00547562
0.0301353
-0.00600085
0.0299208
-0.00653766
0.0296882
-0.0070853
0.0294375
-0.00764288
0.0291685
-0.00820925
0.0288809
-0.00878293
0.0285737
-0.00936202
0.0282457
-0.00994396
0.0278947
-0.0105255
0.027518
-0.0111021
0.027112
-0.0116684
0.0266723
-0.0122171
0.0261945
-0.0127404
0.0256754
-0.0132299
0.0251142
-0.013679
0.0245155
-0.0140858
0.0238893
-0.014453
0.0232498
-0.0147885
0.0226026
-0.0150969
0.021928
-0.0153534
-0.015429
0.0211565
0.0222359
0.00559627
-0.0218442
0.022624
0.00554708
0.0230081
0.00549332
0.0233879
0.00543489
0.0237631
0.00537162
0.0241334
0.00530333
0.0244985
0.00522981
0.024858
0.00515087
0.0252115
0.00506628
0.0255587
0.00497585
0.0258993
0.00487936
0.0262328
0.0047766
0.0265588
0.00466732
0.026877
0.0045513
0.027187
0.0044283
0.0274883
0.00429806
0.0277806
0.00416033
0.0280634
0.00401487
0.0283364
0.00386139
0.028599
0.00369963
0.0288509
0.00352932
0.0290917
0.00335018
0.0293208
0.00316191
0.029538
0.00296424
0.0297428
0.00275687
0.0299347
0.00253951
0.0301133
0.00231186
0.0302783
0.00207364
0.0304292
0.00182454
0.0305656
0.00156428
0.0306872
0.00129259
0.0307937
0.0010092
0.0308845
0.000713817
0.0309595
0.00040629
0.0310184
8.6398e-05
0.031061
-0.000247099
0.0310868
-0.000593945
0.0310956
-0.000954247
0.0310873
-0.00132816
0.0310616
-0.00171582
0.0310185
-0.0021173
0.0309579
-0.00253266
0.0308797
-0.00296187
0.030784
-0.00340487
0.0306709
-0.00386152
0.0305404
-0.00433162
0.0303928
-0.00481489
0.0302281
-0.00531094
0.0300465
-0.00581926
0.0298481
-0.00633921
0.0296327
-0.00686995
0.0294002
-0.0074104
0.0291502
-0.0079592
0.0288818
-0.00851456
0.028594
-0.0090742
0.0282851
-0.00963507
0.027953
-0.0101934
0.0275949
-0.010744
0.0272076
-0.0112811
0.026788
-0.0117976
0.0263342
-0.0122866
0.0258471
-0.0127428
0.0253322
-0.0131641
0.0248012
-0.0135548
0.0242697
-0.0139214
0.0237497
-0.0142686
0.0232323
-0.0145795
0.0226701
-0.0147913
-0.0147421
0.0219833
0.0220881
0.0052044
-0.0216962
0.0224763
0.00515883
0.0228606
0.00510901
0.0232407
0.00505484
0.0236161
0.00499616
0.0239867
0.00493278
0.024352
0.00486451
0.0247117
0.00479116
0.0250654
0.00471253
0.0254129
0.00462842
0.0257536
0.00453863
0.0260873
0.00444294
0.0264135
0.00434112
0.0267318
0.00423296
0.0270419
0.00411821
0.0273433
0.00399663
0.0276357
0.00386799
0.0279185
0.00373201
0.0281915
0.00358845
0.0284541
0.00343703
0.0287059
0.00327749
0.0289465
0.00310953
0.0291756
0.00293288
0.0293926
0.00274724
0.0295971
0.00255232
0.0297888
0.00234782
0.0299672
0.00213343
0.030132
0.00190886
0.0302828
0.00167379
0.0304191
0.00142794
0.0305407
0.00117099
0.0306473
0.000902655
0.0307384
0.000622633
0.030814
0.000330769
0.0308738
2.66132e-05
0.0309175
-0.000290834
0.0309449
-0.000621399
0.030956
-0.000965271
0.0309505
-0.00132265
0.0309284
-0.00169372
0.0308897
-0.0020786
0.0308344
-0.00247737
0.0307626
-0.00289006
0.0306743
-0.00331662
0.0305697
-0.00375694
0.0304489
-0.00421082
0.030312
-0.00467795
0.030159
-0.00515792
0.0299899
-0.00565015
0.0298046
-0.00615391
0.0296028
-0.00666822
0.0293843
-0.00719185
0.0291483
-0.0077232
0.0288939
-0.00826021
0.02862
-0.00880025
0.0283248
-0.00933989
0.0280064
-0.00987491
0.0276624
-0.0104001
0.0272912
-0.0109099
0.0268922
-0.0113985
0.0264679
-0.0118623
0.0260255
-0.0123004
0.0255784
-0.012717
0.0251438
-0.0131201
0.0247354
-0.0135131
0.0243479
-0.013881
0.0239352
-0.0141668
0.0234016
-0.0142577
-0.01398
0.0226394
0.0219675
0.00481211
-0.0215752
0.0223562
0.00477015
0.0227409
0.00472425
0.0231215
0.00467433
0.0234974
0.00462021
0.0238684
0.00456174
0.0242342
0.00449872
0.0245944
0.00443097
0.0249487
0.00435829
0.0252966
0.00428051
0.0256378
0.00419742
0.0259719
0.00410881
0.0262986
0.00401448
0.0266173
0.00391419
0.0269278
0.00380772
0.0272296
0.00369484
0.0275223
0.0035753
0.0278055
0.00344885
0.0280787
0.00331523
0.0283415
0.00317419
0.0285936
0.00302543
0.0288344
0.00286869
0.0290636
0.00270368
0.0292808
0.00253009
0.0294855
0.00234762
0.0296773
0.00215598
0.0298559
0.00195484
0.0300209
0.00174388
0.0301719
0.00152279
0.0303086
0.00129125
0.0304306
0.00104892
0.0305378
0.000795498
0.0306298
0.000530648
0.0307064
0.000254198
0.0307675
-3.45455e-05
0.030813
-0.000336272
0.0308425
-0.000650962
0.0308561
-0.000978868
0.0308537
-0.00132024
0.0308352
-0.00167527
0.0308008
-0.00204413
0.0307503
-0.00242693
0.030684
-0.00282371
0.0306018
-0.00323444
0.0305039
-0.00365901
0.0303902
-0.00409719
0.0302609
-0.00454865
0.0301159
-0.00501291
0.0299551
-0.00548934
0.0297783
-0.00597709
0.0295851
-0.00647506
0.0293752
-0.00698186
0.0291476
-0.00749567
0.0289016
-0.0080142
0.0286359
-0.00853453
0.0283491
-0.00905306
0.0280398
-0.00956563
0.0277074
-0.0100677
0.027353
-0.0105554
0.0269808
-0.0110264
0.0266004
-0.0114819
0.0262269
-0.0119269
0.0258792
-0.0123693
0.0255719
-0.0128128
0.0252993
-0.0132405
0.0250142
-0.0135959
0.024617
-0.0137696
0.0239788
-0.0136195
-0.0130034
0.0230022
0.0218769
0.00441904
-0.0214838
0.0222663
0.00438067
0.0226519
0.0043387
0.0230332
0.00429301
0.02341
0.00424345
0.0237818
0.00418987
0.0241485
0.00413208
0.0245095
0.00406992
0.0248646
0.00400319
0.0252134
0.00393173
0.0255555
0.00385533
0.0258905
0.00377381
0.026218
0.00368696
0.0265377
0.00359455
0.026849
0.00349637
0.0271517
0.00339219
0.0274452
0.00328176
0.0277292
0.00316485
0.0280032
0.00304118
0.0282669
0.00291051
0.0285198
0.00277255
0.0287615
0.00262702
0.0289915
0.00247364
0.0292095
0.00231209
0.0294151
0.00214208
0.0296077
0.00196328
0.0297872
0.00177537
0.0299531
0.00157802
0.030105
0.00137087
0.0302426
0.0011536
0.0303657
0.000925854
0.0304739
0.000687276
0.0305671
0.000437537
0.0306449
0.000176396
0.0307073
-9.70223e-05
0.0307542
-0.000383118
0.0307853
-0.000682046
0.0308005
-0.000994113
0.0307999
-0.0013196
0.0307834
-0.00165875
0.030751
-0.00201176
0.0307028
-0.00237876
0.0306389
-0.00275981
0.0305593
-0.00315488
0.0304642
-0.00356385
0.0303535
-0.00398648
0.0302272
-0.00442237
0.0300853
-0.00487101
0.0299276
-0.00533166
0.0297539
-0.00580338
0.0295638
-0.00628492
0.0293567
-0.00677475
0.0291318
-0.00727084
0.0288884
-0.00777078
0.0286255
-0.00827163
0.0283426
-0.00877018
0.0280403
-0.00926328
0.0277212
-0.00974863
0.0273919
-0.0102261
0.027064
-0.0106985
0.0267551
-0.0111729
0.0264851
-0.0116569
0.0262681
-0.0121523
0.0260948
-0.0126395
0.0259122
-0.0130579
0.0256151
-0.0132988
0.0250712
-0.0132257
0.0241767
-0.0127249
-0.0117422
0.0229155
0.0218203
0.00402468
-0.021426
0.0222111
0.00398989
0.022598
0.0039518
0.0229807
0.00391031
0.0233589
0.00386529
0.0237322
0.00381657
0.0241003
0.00376399
0.0244628
0.00370738
0.0248194
0.00364658
0.0251697
0.0035814
0.0255134
0.00351168
0.02585
0.00343721
0.0261791
0.00335781
0.0265004
0.00327326
0.0268135
0.00318334
0.0271178
0.00308783
0.0274131
0.0029865
0.0276988
0.0028791
0.0279746
0.00276538
0.02824
0.00264509
0.0284947
0.00251794
0.028738
0.00238367
0.0289697
0.00224196
0.0291892
0.00209253
0.0293963
0.00193506
0.0295903
0.00176921
0.0297711
0.00159465
0.029938
0.00141103
0.0300909
0.001218
0.0302293
0.00101519
0.030353
0.000802225
0.0304615
0.00057872
0.0305547
0.000344332
0.0306324
9.87096e-05
0.0306945
-0.000159094
0.0307407
-0.000429305
0.0307709
-0.000712235
0.030785
-0.00100824
0.030783
-0.00131765
0.030765
-0.00164074
0.030731
-0.00197775
0.0306811
-0.00232882
0.0306153
-0.00269403
0.0305338
-0.00307336
0.0304366
-0.00346666
0.0303238
-0.00387366
0.0301953
-0.00429392
0.0300511
-0.00472685
0.0298911
-0.0051716
0.0297148
-0.00562712
0.0295219
-0.00609204
0.0293119
-0.00656469
0.029084
-0.00704299
0.0288381
-0.0075248
0.0285742
-0.00800781
0.0282944
-0.00849038
0.0280032
-0.008972
0.0277093
-0.00945478
0.027427
-0.00994381
0.0271756
-0.0104472
0.0269751
-0.0109724
0.0268359
-0.0115177
0.0267407
-0.0120571
0.0266253
-0.0125241
0.026375
-0.0128076
0.0258558
-0.0127796
0.0249729
-0.0123428
0.0237119
-0.011464
-0.0101677
0.0221374
0.0218044
0.00362832
-0.021408
0.0221972
0.00359703
0.0225863
0.00356276
0.0229712
0.00352541
0.0233516
0.00348484
0.0237273
0.00344092
0.0240978
0.00339348
0.0244628
0.00334237
0.0248219
0.00328743
0.0251749
0.0032285
0.0255211
0.0031654
0.0258604
0.00309796
0.0261922
0.00302598
0.0265162
0.00294927
0.0268319
0.00286762
0.0271389
0.00278083
0.0274368
0.00268865
0.027725
0.00259086
0.0280032
0.00248721
0.0282708
0.00237744
0.0285275
0.00226128
0.0287727
0.00213846
0.029006