/*--------------------------------*- C++ -*----------------------------------*\
| =========                 |                                                 |
| \\      /  F ield         | OpenFOAM: The Open Source CFD Toolbox           |
|  \\    /   O peration     | Version:  2312                                  |
|   \\  /    A nd           | Website:  www.openfoam.com                      |
|    \\/     M anipulation  |                                                 |
\*---------------------------------------------------------------------------*/
FoamFile
{
    version     2.0;
    format      ascii;
    arch        "LSB;label=32;scalar=64";
    class       volVectorField;
    location    "900";
    object      U;
}
// * * * * * * * * * * * * * * * * * * * * * * * * * * * * * * * * * * * * * //

dimensions      [0 1 -1 0 0 0 0];

internalField   nonuniform List<vector> 
76025
(
(0.936202 -0.127023 0)
(0.940121 -0.128607 1.15086e-20)
(0.944138 -0.130106 0)
(0.9482 -0.13151 0)
(0.952251 -0.132803 -1.88535e-20)
(0.956418 -0.133903 -3.36294e-20)
(0.960568 -0.135 5.64748e-20)
(0.964805 -0.135868 -2.33677e-20)
(0.968979 -0.136702 -6.66245e-21)
(0.973198 -0.137379 5.98365e-21)
(0.977388 -0.137937 2.17663e-22)
(0.98162 -0.138325 1.30982e-20)
(0.985875 -0.138646 -1.7704e-20)
(0.990122 -0.138765 0)
(0.994421 -0.138708 2.64058e-21)
(0.998641 -0.138668 0)
(1.00289 -0.138317 0)
(1.00713 -0.138001 0)
(1.01133 -0.137448 5.74718e-22)
(1.01545 -0.136916 5.71907e-22)
(1.01955 -0.136124 1.19998e-21)
(1.02368 -0.135244 4.93423e-21)
(1.02773 -0.13417 -3.69373e-21)
(1.03172 -0.132956 -9.07496e-21)
(1.03564 -0.131697 -1.12047e-21)
(1.03949 -0.130358 -5.3398e-21)
(1.04333 -0.128695 1.37302e-20)
(1.04701 -0.127029 -1.41741e-20)
(1.05063 -0.125195 5.15805e-21)
(1.05422 -0.123048 -5.64004e-21)
(1.05754 -0.121244 -6.27248e-21)
(1.06065 -0.119355 1.48433e-20)
(1.06365 -0.117068 -2.28365e-20)
(1.06651 -0.114866 -4.25931e-21)
(1.06925 -0.112428 2.18939e-20)
(1.07179 -0.110085 1.91272e-22)
(1.07421 -0.10771 -4.43636e-21)
(1.07643 -0.105215 2.49664e-21)
(1.07836 -0.10278 2.42081e-22)
(1.08008 -0.10022 -3.57175e-21)
(1.08159 -0.0977382 2.3941e-21)
(1.08294 -0.0953347 -1.13844e-21)
(1.08395 -0.092816 2.24711e-21)
(1.08462 -0.0903504 -4.448e-21)
(1.08509 -0.0878938 -4.57181e-21)
(1.08536 -0.0856176 8.28245e-21)
(1.08529 -0.0834205 8.57499e-21)
(1.08485 -0.081231 -2.55654e-20)
(1.0842 -0.0791868 1.50688e-20)
(1.08335 -0.0773672 -1.23742e-21)
(1.08223 -0.0757297 -3.59131e-20)
(1.08079 -0.0743396 -1.23787e-20)
(1.07895 -0.0732468 1.29755e-20)
(1.07673 -0.072438 0)
(1.07404 -0.071829 -8.66889e-21)
(1.07109 -0.0715286 -8.79559e-21)
(1.06769 -0.0716832 -1.36892e-23)
(1.0638 -0.072288 -5.47722e-21)
(1.05952 -0.073569 1.6956e-21)
(1.05459 -0.0756709 -1.48242e-21)
(1.04885 -0.0785278 1.77815e-21)
(1.04234 -0.0821202 -2.69274e-21)
(1.03511 -0.086652 0)
(1.02738 -0.0924673 -4.94657e-20)
(1.01884 -0.0997313 2.77587e-20)
(1.01062 -0.108105 -1.4067e-20)
(1.00337 -0.119942 3.87616e-20)
(0.99558 -0.134947 -4.31747e-20)
(0.98484 -0.150668 -1.01506e-19)
(0.933569 -0.134348 1.25988e-20)
(0.937749 -0.135986 3.435e-20)
(0.941985 -0.137515 -4.58969e-20)
(0.946277 -0.138916 0)
(0.950589 -0.140216 4.6999e-20)
(0.955003 -0.141366 -2.75319e-21)
(0.959416 -0.142399 -3.42428e-20)
(0.963864 -0.143297 0)
(0.968335 -0.144061 1.53793e-22)
(0.972813 -0.144699 -6.13647e-21)
(0.977305 -0.145198 5.44177e-21)
(0.981792 -0.145552 2.66677e-22)
(0.986262 -0.145777 0)
(0.990731 -0.145859 0)
(0.99521 -0.145765 3.76921e-21)
(0.999646 -0.145572 -1.04345e-20)
(1.0041 -0.145192 -9.27775e-22)
(1.00851 -0.14471 5.66412e-22)
(1.0129 -0.144049 -3.33041e-22)
(1.01722 -0.143294 -5.84973e-22)
(1.02153 -0.142373 2.42212e-21)
(1.02576 -0.14132 -3.65887e-21)
(1.02992 -0.140119 6.21821e-21)
(1.03402 -0.138774 -1.05948e-20)
(1.03805 -0.137295 7.50393e-21)
(1.042 -0.135706 1.42846e-20)
(1.04588 -0.133966 -1.00049e-20)
(1.04963 -0.132115 0)
(1.05328 -0.130145 0)
(1.05683 -0.128054 -7.5647e-21)
(1.06021 -0.125905 0)
(1.06347 -0.123643 -8.73993e-21)
(1.06655 -0.121252 8.98882e-21)
(1.06945 -0.118759 -1.40188e-20)
(1.07221 -0.116176 5.22921e-22)
(1.0748 -0.113513 -4.92109e-21)
(1.07722 -0.110808 0)
(1.0794 -0.108133 -1.07843e-20)
(1.08133 -0.105411 8.19659e-21)
(1.08305 -0.102657 -6.65731e-21)
(1.08455 -0.0998875 4.04032e-21)
(1.08584 -0.0971179 -7.01296e-24)
(1.08684 -0.0944298 1.4159e-21)
(1.08755 -0.0917156 -1.31414e-21)
(1.08804 -0.0890504 1.05722e-20)
(1.08827 -0.086437 -5.26326e-21)
(1.08822 -0.0839537 -5.40353e-21)
(1.08785 -0.0815295 9.0244e-21)
(1.08721 -0.0792016 2.71833e-20)
(1.08629 -0.0770256 -5.98128e-22)
(1.08506 -0.0750422 2.41989e-20)
(1.08347 -0.0732876 -7.39917e-21)
(1.08148 -0.0717738 -1.95349e-20)
(1.07906 -0.0704995 1.33868e-20)
(1.0762 -0.0695078 0)
(1.07289 -0.068816 2.87191e-20)
(1.06911 -0.0685524 -1.69314e-21)
(1.06479 -0.0687312 -7.12615e-21)
(1.05992 -0.0694578 -5.13389e-21)
(1.05441 -0.0708827 0)
(1.04812 -0.0730543 -2.96963e-22)
(1.04105 -0.0760887 -8.37463e-21)
(1.03316 -0.0799431 0)
(1.02465 -0.0849555 1.83053e-20)
(1.01571 -0.0914446 -1.08451e-20)
(1.00703 -0.0996472 3.00383e-20)
(0.998662 -0.110275 -1.64453e-20)
(0.99069 -0.123173 4.41667e-20)
(0.981324 -0.137273 5.07155e-20)
(0.930766 -0.14208 -6.2916e-20)
(0.935215 -0.143752 3.79566e-20)
(0.939713 -0.145311 -1.14046e-20)
(0.94426 -0.146732 4.09363e-20)
(0.948849 -0.148022 -5.05015e-20)
(0.953489 -0.149179 -3.46357e-20)
(0.958172 -0.150193 4.26545e-20)
(0.962888 -0.151065 0)
(0.967634 -0.151791 2.08085e-22)
(0.972396 -0.152371 0)
(0.977163 -0.152805 -5.00796e-21)
(0.981927 -0.15309 4.55878e-21)
(0.986681 -0.153222 1.6601e-20)
(0.991416 -0.153205 -1.31169e-20)
(0.996133 -0.153031 2.37005e-21)
(1.00083 -0.152702 3.78071e-21)
(1.0055 -0.15222 -1.18483e-21)
(1.01013 -0.151581 -2.36992e-22)
(1.01473 -0.150794 3.27504e-21)
(1.01928 -0.149849 -2.20491e-21)
(1.02376 -0.148757 -2.53066e-21)
(1.02818 -0.147518 6.40134e-21)
(1.03251 -0.146129 -2.46615e-21)
(1.03677 -0.144588 -4.65318e-21)
(1.04094 -0.142903 0)
(1.04502 -0.141081 6.02842e-21)
(1.04898 -0.139131 6.35108e-21)
(1.05284 -0.137046 -5.76591e-21)
(1.05657 -0.134829 0)
(1.06018 -0.132496 1.63201e-20)
(1.06366 -0.130042 -9.28786e-21)
(1.06698 -0.127478 -1.06379e-21)
(1.07012 -0.124813 0)
(1.07309 -0.122032 4.97639e-21)
(1.07589 -0.119157 -1.64914e-20)
(1.07851 -0.116183 1.13872e-20)
(1.08091 -0.113205 0)
(1.08308 -0.11022 8.87308e-21)
(1.08502 -0.107192 -9.09869e-21)
(1.08674 -0.104135 -1.43559e-21)
(1.08823 -0.101065 0)
(1.08947 -0.0980092 -3.00301e-21)
(1.09044 -0.094983 -1.48624e-21)
(1.09114 -0.09196 1.31145e-21)
(1.09158 -0.0889739 -8.3865e-21)
(1.09174 -0.0860507 -5.93864e-21)
(1.09161 -0.0832216 1.04702e-20)
(1.09117 -0.0804716 -1.0516e-20)
(1.09041 -0.0778215 1.07433e-20)
(1.08934 -0.0753134 -9.96612e-21)
(1.08792 -0.0729796 -8.8041e-21)
(1.08611 -0.0708449 1.85993e-20)
(1.08389 -0.0689243 0)
(1.08121 -0.0672386 1.59935e-20)
(1.07805 -0.0658144 1.80251e-21)
(1.07439 -0.064694 -1.11914e-20)
(1.0702 -0.0639502 -9.15753e-21)
(1.06542 -0.0636385 1.62229e-20)
(1.06002 -0.0638463 -1.87864e-21)
(1.05392 -0.0646772 4.85554e-21)
(1.04704 -0.0661918 -4.84086e-21)
(1.03931 -0.0684571 -2.19132e-21)
(1.03082 -0.0716277 -2.99776e-21)
(1.02179 -0.0759354 5.51064e-21)
(1.0125 -0.0816946 9.94388e-21)
(1.00346 -0.0891536 3.69673e-20)
(0.994433 -0.0988286 0)
(0.985458 -0.110599 2.25694e-20)
(0.974463 -0.124066 -2.15103e-20)
(0.927797 -0.15028 0)
(0.932559 -0.151977 1.24251e-20)
(0.937369 -0.153555 5.64656e-20)
(0.942215 -0.154987 -4.46032e-20)
(0.947098 -0.156273 -2.81173e-20)
(0.952021 -0.157415 4.68639e-20)
(0.956984 -0.158406 -8.30233e-21)
(0.961979 -0.159242 7.27956e-21)
(0.966999 -0.159921 6.6837e-21)
(0.972038 -0.160443 2.13787e-20)
(0.977085 -0.160806 -2.0965e-20)
(0.982135 -0.161007 -1.48558e-20)
(0.987181 -0.161043 5.49855e-21)
(0.992209 -0.160914 1.00082e-20)
(0.997212 -0.16062 -5.63234e-21)
(1.00218 -0.160159 6.20125e-22)
(1.00711 -0.159536 1.83071e-22)
(1.01199 -0.158747 9.78865e-22)
(1.01682 -0.157796 -4.6638e-21)
(1.02159 -0.156682 1.0309e-21)
(1.02629 -0.155406 2.56505e-21)
(1.03091 -0.153968 0)
(1.03545 -0.152372 1.03448e-20)
(1.03989 -0.150619 -4.82687e-21)
(1.04423 -0.148713 -1.23581e-20)
(1.04847 -0.146662 -1.44808e-20)
(1.05258 -0.144467 2.83507e-20)
(1.05657 -0.142131 -1.58997e-20)
(1.06042 -0.139661 0)
(1.06413 -0.137062 -1.85769e-20)
(1.06768 -0.134341 -8.06532e-22)
(1.07106 -0.131508 2.02604e-20)
(1.07427 -0.128565 -1.14019e-20)
(1.0773 -0.125514 2.97049e-20)
(1.08013 -0.122367 -5.61437e-21)
(1.08276 -0.119123 0)
(1.08517 -0.115867 0)
(1.08736 -0.112578 3.48358e-21)
(1.08931 -0.10925 3.18375e-21)
(1.09103 -0.105893 1.75702e-21)
(1.0925 -0.102524 -5.48572e-23)
(1.09371 -0.0991549 1.58959e-21)
(1.09465 -0.0957988 0)
(1.09532 -0.0924614 -3.11383e-22)
(1.0957 -0.0891603 0)
(1.09579 -0.0859132 5.64329e-21)
(1.09557 -0.0827363 -8.88721e-23)
(1.09503 -0.079639 -1.85671e-20)
(1.09415 -0.0766389 0)
(1.09292 -0.073763 -1.08528e-20)
(1.09131 -0.0710359 1.07276e-20)
(1.0893 -0.0684811 -1.88358e-20)
(1.08684 -0.0661188 0)
(1.0839 -0.063974 -5.12593e-20)
(1.08045 -0.0620752 1.72346e-21)
(1.07646 -0.0604642 1.50583e-20)
(1.07189 -0.0591929 1.31117e-20)
(1.06671 -0.0583211 0)
(1.06084 -0.0579149 0)
(1.05422 -0.0580575 -4.92052e-21)
(1.04681 -0.0588229 4.9038e-21)
(1.03858 -0.0603181 -4.43171e-22)
(1.02969 -0.0627049 0)
(1.02035 -0.0661971 8.15181e-21)
(1.01085 -0.0711116 0)
(1.00143 -0.0776653 -3.88922e-20)
(0.991544 -0.0861805 1.32792e-20)
(0.98109 -0.096684 2.07694e-20)
(0.968344 -0.108736 2.18485e-20)
(0.924692 -0.159018 0)
(0.929767 -0.160736 0)
(0.934905 -0.162328 1.18065e-20)
(0.940081 -0.163763 -4.1886e-20)
(0.945291 -0.165042 5.15742e-20)
(0.950536 -0.166165 -9.1432e-21)
(0.955811 -0.167128 0)
(0.96111 -0.167923 -7.39239e-21)
(0.966427 -0.168549 0)
(0.97176 -0.169004 -1.01579e-20)
(0.9771 -0.169288 2.10584e-21)
(0.982441 -0.169398 8.37708e-21)
(0.987776 -0.169331 0)
(0.993095 -0.169087 -3.22283e-21)
(0.998388 -0.168665 7.07371e-21)
(1.00364 -0.168066 -1.98484e-21)
(1.00885 -0.167291 -2.15543e-21)
(1.01401 -0.166341 8.23168e-22)
(1.01909 -0.165214 -2.5358e-21)
(1.02411 -0.163915 2.58065e-21)
(1.02905 -0.162442 4.09836e-21)
(1.0339 -0.160797 -1.33163e-20)
(1.03865 -0.158983 -1.07111e-20)
(1.0433 -0.157005 0)
(1.04784 -0.154865 1.44396e-20)
(1.05225 -0.152569 8.5434e-21)
(1.05653 -0.15012 -2.3825e-20)
(1.06067 -0.147523 8.54277e-21)
(1.06465 -0.144785 -2.01885e-20)
(1.06848 -0.141912 3.02442e-20)
(1.07213 -0.13891 -1.18115e-20)
(1.07561 -0.135785 6.25034e-21)
(1.0789 -0.132543 0)
(1.08199 -0.129193 -6.25224e-21)
(1.08487 -0.125738 -6.55606e-21)
(1.08755 -0.122177 0)
(1.08999 -0.1186 7.65168e-21)
(1.09219 -0.114981 -1.09349e-20)
(1.09415 -0.111323 7.32266e-21)
(1.09586 -0.107637 -3.71702e-21)
(1.09731 -0.103934 -6.61664e-23)
(1.09849 -0.100226 -2.8604e-21)
(1.09939 -0.096525 9.128e-22)
(1.1 -0.0928427 3.45856e-21)
(1.10031 -0.0891909 3.77116e-22)
(1.10031 -0.0855838 2.10568e-20)
(1.09999 -0.0820367 0)
(1.09933 -0.0785641 1.26892e-20)
(1.09831 -0.0751814 -8.53718e-22)
(1.09691 -0.0719081 -1.25823e-20)
(1.09511 -0.0687646 0)
(1.09288 -0.0657721 -1.10341e-20)
(1.09019 -0.0629509 1.09147e-20)
(1.087 -0.0603249 1.86875e-20)
(1.08327 -0.0579214 0)
(1.07899 -0.0557767 -3.12248e-20)
(1.07409 -0.0539346 2.94634e-20)
(1.06854 -0.0524471 -2.54641e-20)
(1.06227 -0.0513727 -2.94172e-22)
(1.05524 -0.0507829 0)
(1.04742 -0.0507624 -4.41602e-21)
(1.03887 -0.0514335 1.58579e-21)
(1.02978 -0.0529721 1.31699e-21)
(1.02031 -0.0555778 -8.1638e-21)
(1.01064 -0.0595345 1.75982e-20)
(1.00067 -0.0649872 -1.90921e-20)
(0.989654 -0.0721831 1.10826e-20)
(0.977386 -0.0813167 -1.15833e-20)
(0.962516 -0.0915745 -6.06941e-20)
(0.92152 -0.168363 -5.36769e-20)
(0.926894 -0.170099 3.6202e-21)
(0.932346 -0.171698 4.97775e-20)
(0.937851 -0.173131 0)
(0.943399 -0.174396 -1.00854e-20)
(0.948987 -0.175495 0)
(0.954605 -0.176421 1.52472e-20)
(0.960239 -0.17717 -1.84864e-21)
(0.965887 -0.177735 -1.92523e-20)
(0.971542 -0.178117 5.01367e-21)
(0.9772 -0.178312 4.48584e-21)
(0.982853 -0.178322 3.08611e-21)
(0.988493 -0.178141 0)
(0.994113 -0.17777 0)
(0.999703 -0.177209 -8.92151e-22)
(1.00525 -0.176456 -1.34891e-23)
(1.01075 -0.175514 -3.28144e-21)
(1.01619 -0.174384 3.27864e-21)
(1.02156 -0.173067 5.96624e-21)
(1.02685 -0.171564 -8.49314e-21)
(1.03204 -0.169878 1.77696e-20)
(1.03714 -0.168008 6.96418e-22)
(1.04213 -0.16596 -1.28835e-20)
(1.04701 -0.163736 -7.723e-21)
(1.05175 -0.16134 -1.67117e-20)
(1.05636 -0.158777 1.67699e-20)
(1.06082 -0.156052 1.98173e-20)
(1.06512 -0.153171 -1.99131e-20)
(1.06926 -0.150139 0)
(1.07322 -0.146964 0)
(1.077 -0.143651 3.13956e-20)
(1.08058 -0.140209 1.28161e-21)
(1.08396 -0.136644 -1.36704e-20)
(1.08713 -0.132966 -1.48928e-20)
(1.09008 -0.129178 1.50536e-20)
(1.0928 -0.125284 0)
(1.09527 -0.12137 -7.70018e-21)
(1.09749 -0.117411 -1.2482e-20)
(1.09946 -0.113411 8.10244e-21)
(1.10116 -0.109379 -1.89657e-22)
(1.10258 -0.105327 -6.37989e-22)
(1.10373 -0.101267 2.96646e-21)
(1.10458 -0.0972086 2.12354e-21)
(1.10512 -0.0931644 4.00556e-21)
(1.10535 -0.0891454 -1.93974e-20)
(1.10526 -0.0851647 3.67838e-22)
(1.10483 -0.0812356 0)
(1.10404 -0.0773713 -1.55953e-20)
(1.10288 -0.0735852 4.31191e-20)
(1.10132 -0.0698931 -2.87428e-20)
(1.09934 -0.0663118 -1.31406e-20)
(1.09692 -0.0628594 -5.13264e-22)
(1.09402 -0.0595544 -1.07611e-20)
(1.09061 -0.0564185 1.28003e-21)
(1.08666 -0.0534764 2.18393e-20)
(1.08211 -0.0507585 -2.0905e-20)
(1.07695 -0.0483011 -1.66358e-20)
(1.0711 -0.0461475 3.09775e-20)
(1.06453 -0.0443505 -2.31422e-21)
(1.05721 -0.0429793 9.75054e-21)
(1.04917 -0.0421275 -9.6125e-21)
(1.04053 -0.0419297 4.35377e-21)
(1.03141 -0.0425507 -2.8633e-21)
(1.0219 -0.044163 1.96557e-21)
(1.01195 -0.0470045 -6.28796e-21)
(1.00117 -0.0511461 5.3783e-21)
(0.988751 -0.0568127 2.95394e-20)
(0.974438 -0.0643462 1.85345e-20)
(0.957221 -0.0725151 0)
(0.918339 -0.178362 0)
(0.924019 -0.180112 -1.32319e-20)
(0.929784 -0.181713 -4.92832e-23)
(0.93561 -0.183136 0)
(0.941492 -0.18438 0)
(0.947425 -0.185445 -8.88248e-21)
(0.953396 -0.186325 2.27321e-20)
(0.959387 -0.187012 -2.76948e-20)
(0.965389 -0.187506 1.31804e-20)
(0.971395 -0.187802 -5.08592e-21)
(0.977397 -0.1879 0)
(0.983388 -0.187796 -3.12885e-21)
(0.989359 -0.18749 1.55351e-21)
(0.995304 -0.18698 0)
(1.00121 -0.186265 0)
(1.00707 -0.185345 1.58553e-21)
(1.01288 -0.184223 1.90094e-21)
(1.01862 -0.182898 -4.92351e-21)
(1.02428 -0.181374 -7.73343e-21)
(1.02985 -0.179651 8.64883e-21)
(1.03532 -0.177731 5.21805e-21)
(1.04068 -0.175616 2.72991e-20)
(1.04592 -0.173309 9.41085e-22)
(1.05103 -0.170815 -9.71922e-21)
(1.05599 -0.168139 1.75677e-20)
(1.06081 -0.165287 -1.01789e-20)
(1.06546 -0.162262 2.09697e-20)
(1.06994 -0.159073 0)
(1.07424 -0.155725 0)
(1.07835 -0.152227 0)
(1.08226 -0.148585 -6.68601e-21)
(1.08596 -0.144807 -1.43709e-20)
(1.08944 -0.140902 1.52511e-20)
(1.09269 -0.136879 1.65436e-20)
(1.0957 -0.132742 -1.67148e-20)
(1.09847 -0.128499 0)
(1.10097 -0.124231 9.00417e-21)
(1.10322 -0.119914 -4.5901e-21)
(1.10519 -0.115551 0)
(1.10688 -0.111154 4.53389e-21)
(1.10828 -0.106732 -8.37825e-22)
(1.10938 -0.102297 5.60307e-22)
(1.11018 -0.0978607 -2.13958e-21)
(1.11066 -0.0934336 0)
(1.11082 -0.0890268 -8.72523e-21)
(1.11063 -0.0846515 8.62082e-21)
(1.11009 -0.0803191 0)
(1.10918 -0.0760413 -6.21106e-22)
(1.10789 -0.0718297 8.73371e-22)
(1.10619 -0.0676972 1.4801e-20)
(1.10406 -0.0636573 0)
(1.10147 -0.0597248 -1.54799e-21)
(1.09841 -0.0559149 -1.29612e-20)
(1.09482 -0.0522453 -3.89916e-20)
(1.09068 -0.0487357 -9.53485e-22)
(1.08595 -0.0454099 2.10869e-20)
(1.08058 -0.0422973 0)
(1.07453 -0.0394352 0)
(1.0678 -0.036875 1.80082e-20)
(1.06038 -0.034687 0)
(1.05234 -0.0329691 0)
(1.04379 -0.0318506 -3.0636e-21)
(1.03474 -0.0314653 -7.04689e-21)
(1.02512 -0.0319554 -5.4937e-21)
(1.01469 -0.0334976 2.37528e-21)
(1.00284 -0.0361131 -6.69605e-21)
(0.988809 -0.0400395 -8.42061e-21)
(0.972342 -0.0457602 -8.84298e-21)
(0.952968 -0.0515308 0)
(0.915162 -0.189075 0)
(0.921178 -0.190838 1.3437e-20)
(0.927279 -0.192437 -3.58624e-20)
(0.933442 -0.193845 1.23052e-20)
(0.939663 -0.195058 0)
(0.94594 -0.196079 2.57453e-20)
(0.952261 -0.1969 -3.90498e-20)
(0.958612 -0.197515 2.14237e-21)
(0.964979 -0.197922 2.80468e-20)
(0.971352 -0.198119 -5.82058e-21)
(0.97772 -0.198104 3.08322e-21)
(0.984073 -0.197875 1.97949e-21)
(0.990401 -0.19743 -3.03532e-21)
(0.996696 -0.196767 8.2168e-22)
(1.00295 -0.195884 6.33073e-22)
(1.00914 -0.194781 -3.28704e-21)
(1.01527 -0.19346 1.15165e-20)
(1.02133 -0.191922 -2.36307e-21)
(1.02729 -0.190169 6.33221e-21)
(1.03316 -0.188204 -4.47465e-21)
(1.03891 -0.186028 1.91346e-21)
(1.04454 -0.183646 -4.66947e-20)
(1.05004 -0.18106 -9.97872e-21)
(1.05539 -0.178275 -1.79542e-21)
(1.06059 -0.175297 3.14694e-20)
(1.06562 -0.172132 -1.08089e-20)
(1.07048 -0.168787 2.54796e-20)
(1.07515 -0.165268 -3.95679e-20)
(1.07962 -0.161582 0)
(1.08388 -0.157737 -1.52471e-20)
(1.08793 -0.153743 1.53479e-20)
(1.09175 -0.149606 8.19111e-22)
(1.09533 -0.145337 -9.08784e-21)
(1.09867 -0.140945 -9.4805e-21)
(1.10175 -0.136432 2.89162e-20)
(1.10458 -0.131817 -1.91663e-20)
(1.10712 -0.12717 1.50645e-20)
(1.10938 -0.12247 -1.97702e-20)
(1.11136 -0.117721 9.85164e-21)
(1.11304 -0.112936 -2.38368e-21)
(1.11442 -0.108124 0)
(1.11548 -0.103296 2.48652e-21)
(1.11623 -0.0984641 -2.45608e-21)
(1.11665 -0.0936376 -4.88162e-21)
(1.11672 -0.0888266 1.44547e-20)
(1.11645 -0.084041 -1.00054e-20)
(1.11582 -0.0792905 -9.36222e-21)
(1.11481 -0.0745846 0)
(1.1134 -0.0699329 -3.63662e-20)
(1.11158 -0.0653452 3.45678e-20)
(1.10933 -0.0608316 -1.58043e-20)
(1.10663 -0.0564026 1.57801e-20)
(1.10344 -0.0520693 1.68543e-20)
(1.09973 -0.0478438 2.88172e-20)
(1.09547 -0.0437403 2.609e-20)
(1.09062 -0.0397769 0)
(1.08516 -0.035978 -2.57872e-20)
(1.07906 -0.0323783 0)
(1.07234 -0.0290284 5.51694e-22)
(1.06503 -0.0259964 -1.527e-20)
(1.05718 -0.0233727 1.57227e-20)
(1.0488 -0.0212621 1.01985e-20)
(1.0398 -0.0197579 -1.08796e-20)
(1.02993 -0.0189703 -2.07985e-22)
(1.01876 -0.0190179 3.16912e-21)
(1.00562 -0.0199026 -1.86132e-21)
(0.989877 -0.0219034 -1.24678e-21)
(0.97135 -0.0255948 -8.82705e-21)
(0.949962 -0.028727 8.81705e-21)
(0.911946 -0.200572 0)
(0.918348 -0.202347 0)
(0.924827 -0.203943 -2.35582e-20)
(0.931363 -0.205332 3.46217e-20)
(0.937953 -0.206511 9.77278e-21)
(0.944597 -0.20748 0)
(0.951284 -0.208236 0)
(0.958001 -0.20877 -6.07392e-21)
(0.964738 -0.20908 9.14945e-21)
(0.971484 -0.209164 -2.87683e-21)
(0.978228 -0.209019 -1.44032e-20)
(0.984956 -0.208645 2.47949e-21)
(0.991656 -0.208039 1.68801e-22)
(0.998317 -0.207201 -4.77929e-23)
(1.00493 -0.206127 2.17502e-21)
(1.01148 -0.204819 0)
(1.01795 -0.203277 0)
(1.02434 -0.201502 9.92144e-22)
(1.03063 -0.199498 -1.75449e-20)
(1.0368 -0.197267 6.49108e-21)
(1.04286 -0.194812 -8.73082e-21)
(1.04878 -0.192138 8.48104e-21)
(1.05455 -0.189248 1.0338e-20)
(1.06016 -0.186148 -9.36182e-21)
(1.0656 -0.182844 -1.13563e-20)
(1.07086 -0.179342 0)
(1.07593 -0.175649 0)
(1.0808 -0.171773 2.19348e-20)
(1.08545 -0.167723 0)
(1.08987 -0.163506 1.70051e-20)
(1.09406 -0.159132 -1.71112e-20)
(1.098 -0.15461 -8.74563e-21)
(1.10169 -0.14995 9.14681e-21)
(1.10512 -0.145163 2.00152e-20)
(1.10828 -0.140251 -9.91859e-21)
(1.11115 -0.135239 -1.0809e-20)
(1.11373 -0.130191 1.11588e-20)
(1.11602 -0.125087 0)
(1.118 -0.119933 0)
(1.11967 -0.11474 2.86236e-21)
(1.12103 -0.109519 0)
(1.12206 -0.104282 0)
(1.12276 -0.0990372 -8.25661e-21)
(1.12312 -0.093795 1.09778e-20)
(1.12313 -0.0885643 -5.55717e-21)
(1.12278 -0.0833536 1.00196e-20)
(1.12207 -0.0781708 0)
(1.12098 -0.0730235 3.06371e-20)
(1.11949 -0.0679186 -1.00354e-21)
(1.11759 -0.0628627 0)
(1.11526 -0.0578618 -3.73093e-20)
(1.11248 -0.0529219 -1.22034e-21)
(1.10922 -0.0480488 -3.3907e-20)
(1.10546 -0.0432495 -1.74724e-20)
(1.10116 -0.0385332 -3.06259e-20)
(1.09631 -0.0339138 3.02345e-20)
(1.0909 -0.0294124 2.57987e-20)
(1.08492 -0.025061 0)
(1.07841 -0.0209047 -2.21085e-20)
(1.07138 -0.0169995 2.78215e-21)
(1.06381 -0.0134137 0)
(1.0556 -0.0102155 0)
(1.04651 -0.00745948 1.07746e-20)
(1.03616 -0.00522674 0)
(1.02404 -0.0035913 0)
(1.00947 -0.00257017 -5.80258e-21)
(0.992063 -0.00250153 2.16926e-21)
(0.971842 -0.00391654 -2.77877e-22)
(0.94893 -0.004542 0)
(0.908641 -0.212901 0)
(0.91548 -0.214684 0)
(0.922393 -0.216275 0)
(0.929354 -0.217642 1.08995e-20)
(0.93636 -0.218782 8.36103e-21)
(0.943414 -0.219697 -2.47264e-21)
(0.950503 -0.220379 -1.55608e-20)
(0.957617 -0.220824 6.13653e-21)
(0.964746 -0.221025 -4.30194e-21)
(0.971879 -0.22098 -6.71511e-21)
(0.979008 -0.22069 0)
(0.98612 -0.220153 0)
(0.993202 -0.219367 -1.13631e-21)
(1.00024 -0.218331 3.74616e-21)
(1.00722 -0.217045 -1.1907e-20)
(1.01414 -0.215508 -2.3428e-21)
(1.02097 -0.213722 8.81389e-21)
(1.02771 -0.211689 5.57314e-21)
(1.03434 -0.20941 -1.25157e-21)
(1.04084 -0.20689 0)
(1.04722 -0.204131 1.90016e-20)
(1.05344 -0.201139 0)
(1.0595 -0.197919 2.32818e-20)
(1.06539 -0.194475 -3.81932e-20)
(1.07109 -0.190816 4.08359e-20)
(1.07659 -0.186948 1.55437e-20)
(1.08188 -0.182879 -2.43958e-20)
(1.08695 -0.178617 2.53416e-20)
(1.09178 -0.174173 -1.71449e-20)
(1.09637 -0.169554 0)
(1.10071 -0.164772 -1.98037e-20)
(1.10479 -0.159837 -1.14093e-20)
(1.10859 -0.154759 2.08224e-20)
(1.1121 -0.149551 -2.20833e-20)
(1.11534 -0.144214 1.15689e-20)
(1.11827 -0.138781 -1.15842e-20)
(1.12089 -0.133308 -5.66751e-21)
(1.12319 -0.127777 6.23694e-21)
(1.12518 -0.122195 2.89501e-21)
(1.12685 -0.116574 -8.82423e-21)
(1.12819 -0.110925 -7.83035e-22)
(1.12919 -0.105259 0)
(1.12984 -0.0995846 2.84476e-21)
(1.13016 -0.0939114 -5.64268e-21)
(1.13012 -0.0882474 5.5817e-21)
(1.12972 -0.0825995 0)
(1.12895 -0.0769738 0)
(1.1278 -0.0713755 1.14768e-20)
(1.12626 -0.0658083 -2.18489e-20)
(1.12432 -0.060275 -4.32792e-20)
(1.12196 -0.0547776 8.24825e-20)
(1.11916 -0.0493171 -2.0866e-20)
(1.1159 -0.0438951 1.94665e-20)
(1.11216 -0.038514 1.74899e-20)
(1.10794 -0.0331793 -3.44869e-20)
(1.10324 -0.0279013 3.39735e-20)
(1.09804 -0.0226958 0)
(1.09237 -0.0175873 -3.12276e-20)
(1.08622 -0.0126054 3.09785e-21)
(1.07954 -0.0077835 2.52496e-20)
(1.07223 -0.00315852 0)
(1.06406 0.00124045 0)
(1.05469 0.00538926 0)
(1.04365 0.00923131 2.9095e-20)
(1.03042 0.012718 1.12286e-20)
(1.01441 0.0157857 3.59595e-21)
(0.995506 0.018041 -1.05884e-20)
(0.973827 0.0189024 -5.58511e-21)
(0.950175 0.0206989 2.71532e-21)
(0.905223 -0.226156 0)
(0.912534 -0.227946 2.61393e-20)
(0.919922 -0.229526 -3.20278e-20)
(0.92736 -0.230865 1.48119e-20)
(0.934839 -0.231958 -2.96365e-20)
(0.942357 -0.232809 -7.85669e-21)
(0.949904 -0.233407 -6.43835e-21)
(0.957464 -0.233748 0)
(0.965029 -0.233826 8.00467e-21)
(0.972591 -0.23364 4.8633e-21)
(0.980141 -0.23319 -4.06827e-21)
(0.987666 -0.232473 -4.21301e-22)
(0.995153 -0.231489 2.96231e-21)
(1.00259 -0.230238 5.50694e-22)
(1.00996 -0.228717 -1.61499e-20)
(1.01726 -0.226929 -2.50267e-21)
(1.02447 -0.224874 -2.47081e-21)
(1.03157 -0.222555 1.36706e-20)
(1.03855 -0.219975 7.99583e-21)
(1.0454 -0.217137 2.08151e-20)
(1.0521 -0.214046 -1.92891e-20)
(1.05864 -0.210706 0)
(1.065 -0.207124 1.635e-21)
(1.07117 -0.203306 0)
(1.07714 -0.19926 -1.46198e-20)
(1.08289 -0.194994 -1.56577e-20)
(1.08841 -0.190517 8.33783e-21)
(1.0937 -0.185838 0)
(1.09872 -0.180968 1.03094e-20)
(1.10349 -0.175916 2.09781e-20)
(1.10798 -0.170695 -2.10909e-20)
(1.11219 -0.165316 1.07227e-20)
(1.1161 -0.15979 -2.37103e-20)
(1.11972 -0.154131 4.77725e-20)
(1.12302 -0.14834 -1.23884e-20)
(1.12601 -0.14246 0)
(1.12867 -0.136535 -6.77848e-21)
(1.131 -0.130552 5.72767e-22)
(1.13301 -0.124519 9.72255e-21)
(1.13467 -0.118448 -8.15511e-21)
(1.13599 -0.112352 1.55679e-21)
(1.13697 -0.106239 -4.97868e-21)
(1.13759 -0.10012 3.23503e-21)
(1.13787 -0.0940029 0)
(1.13779 -0.0878941 0)
(1.13736 -0.0817992 0)
(1.13655 -0.0757222 1.29774e-20)
(1.13538 -0.0696655 1.27557e-20)
(1.13382 -0.0636296 0)
(1.13188 -0.0576141 2.35807e-20)
(1.12953 -0.0516168 2.50189e-20)
(1.12678 -0.0456352 2.31386e-20)
(1.12362 -0.0396671 0)
(1.12003 -0.033711 0)
(1.11604 -0.027768 -3.84458e-20)
(1.11163 -0.0218414 3.77764e-20)
(1.10681 -0.0159364 0)
(1.10155 -0.0100612 3.07945e-20)
(1.09581 -0.00422153 -2.84776e-20)
(1.08945 0.00157721 -3.0529e-20)
(1.08227 0.00733191 2.48321e-20)
(1.07397 0.0130473 -2.43524e-20)
(1.06412 0.0187223 0)
(1.05225 0.0243181 -1.63281e-20)
(1.03787 0.0297928 1.23896e-21)
(1.02057 0.0350204 -3.19231e-20)
(1.00058 0.0396105 -2.46721e-20)
(0.977897 0.0428219 1.63347e-20)
(0.954142 0.0477776 -2.7777e-21)
(0.901713 -0.240432 7.42949e-21)
(0.90952 -0.242223 0)
(0.91741 -0.243787 6.12908e-21)
(0.925354 -0.24509 -2.52498e-20)
(0.933342 -0.246128 4.1504e-20)
(0.941369 -0.246903 -8.83474e-21)
(0.94942 -0.247406 6.49529e-21)
(0.957481 -0.247631 -8.08829e-21)
(0.965539 -0.247575 4.35758e-21)
(0.973584 -0.247234 2.30124e-21)
(0.981606 -0.246609 -3.45011e-23)
(0.989593 -0.245696 3.62011e-21)
(0.997532 -0.244495 -2.98484e-22)
(1.00541 -0.243006 1.29266e-20)
(1.01321 -0.241229 7.10152e-21)
(1.02092 -0.239165 2.66947e-21)
(1.02853 -0.236816 -1.39142e-20)
(1.03602 -0.234183 0)
(1.04337 -0.231272 0)
(1.05058 -0.228085 -1.22888e-20)
(1.05763 -0.224629 -1.18776e-20)
(1.0645 -0.220909 -2.89293e-20)
(1.07118 -0.216932 1.47187e-20)
(1.07765 -0.212705 3.35802e-20)
(1.08389 -0.208237 -3.36223e-20)
(1.08991 -0.203537 9.77457e-21)
(1.09567 -0.198616 1.03395e-20)
(1.10117 -0.193483 0)
(1.1064 -0.18815 -1.0356e-20)
(1.11135 -0.18263 -2.31973e-20)
(1.116 -0.176934 -8.65396e-22)
(1.12034 -0.171076 2.43115e-20)
(1.12437 -0.165068 -1.3467e-20)
(1.12808 -0.158926 0)
(1.13147 -0.152648 7.20234e-21)
(1.13451 -0.146292 -7.33733e-21)
(1.13721 -0.139888 6.77314e-21)
(1.13957 -0.133426 -1.42487e-20)
(1.14158 -0.126918 0)
(1.14324 -0.120376 -1.86611e-21)
(1.14455 -0.113812 1.78737e-21)
(1.14551 -0.107236 -2.78989e-21)
(1.14612 -0.100658 1.06116e-20)
(1.14637 -0.0940834 -2.10529e-20)
(1.14626 -0.0875194 1.38838e-20)
(1.14581 -0.0809695 1.37094e-20)
(1.14499 -0.0744355 -1.2362e-20)
(1.14382 -0.0679174 2.76682e-20)
(1.14229 -0.0614131 -2.61576e-20)
(1.1404 -0.0549193 -6.30256e-20)
(1.13815 -0.0484308 1.25725e-21)
(1.13554 -0.0419416 -2.29904e-20)
(1.13259 -0.0354454 0)
(1.12929 -0.0289349 0)
(1.12565 -0.0224027 -4.24129e-20)
(1.12165 -0.0158392 6.02424e-20)
(1.11727 -0.00923295 -3.95321e-20)
(1.11244 -0.00256943 0)
(1.10704 0.00417222 3.6998e-20)
(1.10087 0.0110149 6.1559e-20)
(1.09366 0.0179872 -2.75114e-20)
(1.08504 0.025121 1.73126e-21)
(1.07457 0.0324316 2.67759e-20)
(1.06183 0.0398889 -3.84479e-21)
(1.04646 0.0474401 -4.36831e-20)
(1.0283 0.0549058 3.79723e-20)
(1.00791 0.0619608 1.4814e-20)
(0.985087 0.0676505 0)
(0.962911 0.0776098 0)
(0.898155 -0.255791 -7.47738e-21)
(0.906489 -0.257577 -3.19851e-20)
(0.91491 -0.259116 2.51755e-20)
(0.923389 -0.260377 0)
(0.931914 -0.261351 4.46756e-21)
(0.94048 -0.262042 1.26751e-20)
(0.94907 -0.262441 -1.00344e-20)
(0.957668 -0.26254 8.24538e-21)
(0.96626 -0.262336 -6.44257e-21)
(0.974833 -0.261826 0)
(0.983376 -0.261009 -5.32418e-22)
(0.991874 -0.259882 0)
(1.00031 -0.258446 5.53099e-21)
(1.00868 -0.2567 -1.27103e-20)
(1.01695 -0.254644 0)
(1.02513 -0.252279 0)
(1.03318 -0.249609 0)
(1.0411 -0.246636 -1.67105e-20)
(1.04887 -0.243363 2.23658e-20)
(1.05647 -0.239797 1.23575e-20)
(1.06389 -0.235943 0)
(1.07112 -0.231808 0)
(1.07813 -0.2274 0)
(1.08492 -0.222727 -4.73783e-20)
(1.09147 -0.217799 5.77777e-20)
(1.09775 -0.212627 -2.98801e-20)
(1.10377 -0.207221 -2.18689e-20)
(1.10951 -0.201595 2.34432e-20)
(1.11494 -0.195761 -2.3518e-20)
(1.12007 -0.189732 1.3192e-20)
(1.12489 -0.183522 -2.65944e-20)
(1.12937 -0.177146 1.24768e-20)
(1.13352 -0.17062 2.82341e-20)
(1.13733 -0.163957 1.52533e-20)
(1.14079 -0.157161 -7.19682e-21)
(1.14389 -0.150296 7.31246e-21)
(1.14663 -0.143382 0)
(1.14901 -0.136413 -6.68304e-22)
(1.15103 -0.129404 3.89966e-21)
(1.15269 -0.122367 3.29079e-23)
(1.15399 -0.115315 -1.94049e-21)
(1.15493 -0.108259 4.79675e-21)
(1.15552 -0.101206 -7.83275e-21)
(1.15575 -0.0941636 -3.97647e-21)
(1.15563 -0.0871369 7.87395e-21)
(1.15518 -0.0801284 0)
(1.15438 -0.0731382 -2.94023e-20)
(1.15326 -0.0661647 -4.25718e-20)
(1.15181 -0.0592035 1.99942e-22)
(1.15005 -0.0522485 4.09619e-20)
(1.14799 -0.045291 0)
(1.14564 -0.0383203 0)
(1.14301 -0.0313228 -2.65764e-20)
(1.14008 -0.0242815 4.98232e-20)
(1.13686 -0.0171757 1.03851e-21)
(1.1333 -0.00997862 -2.30389e-20)
(1.12932 -0.00265923 8.56374e-20)
(1.12482 0.00482111 -4.13791e-20)
(1.11961 0.0125084 -3.63755e-20)
(1.11346 0.020453 -7.55208e-20)
(1.10604 0.0287117 -2.99641e-22)
(1.09698 0.0373362 -1.48391e-21)
(1.08586 0.0463513 2.20597e-21)
(1.07239 0.0557241 5.56658e-20)
(1.05644 0.06538 -3.31567e-20)
(1.03817 0.0751229 -2.75853e-20)
(1.01838 0.0847112 2.91715e-20)
(0.996998 0.0935043 2.83132e-20)
(0.976209 0.106875 0)
(0.89454 -0.272358 2.78452e-20)
(0.90345 -0.274132 -1.48232e-20)
(0.912448 -0.275641 0)
(0.921503 -0.276849 4.71919e-21)
(0.930605 -0.27775 0)
(0.939747 -0.278344 -8.21113e-21)
(0.948913 -0.278624 6.41477e-21)
(0.958084 -0.278581 -5.0919e-21)
(0.967246 -0.278211 4.573e-21)
(0.976385 -0.277513 -3.77236e-22)
(0.985487 -0.276484 5.58752e-21)
(0.994537 -0.275123 -4.99263e-21)
(1.00352 -0.273429 0)
(1.01241 -0.2714 -1.42907e-20)
(1.02121 -0.269039 3.15333e-20)
(1.02989 -0.266347 -1.72378e-20)
(1.03843 -0.263327 0)
(1.04682 -0.259981 -3.17608e-20)
(1.05505 -0.256316 4.74717e-20)
(1.06309 -0.252336 -2.88053e-20)
(1.07092 -0.248049 0)
(1.07854 -0.243461 0)
(1.08593 -0.238583 0)
(1.09306 -0.233424 9.6962e-21)
(1.09993 -0.227996 2.23245e-20)
(1.10651 -0.222309 -2.23491e-20)
(1.1128 -0.216377 1.15074e-20)
(1.11879 -0.210214 0)
(1.12445 -0.203835 2.70106e-20)
(1.12978 -0.197254 -4.0288e-20)
(1.13476 -0.190489 0)
(1.13939 -0.183554 2.98364e-20)
(1.14366 -0.176468 -1.47302e-20)
(1.14757 -0.169245 -1.52114e-20)
(1.15111 -0.161893 8.56208e-21)
(1.15426 -0.154485 0)
(1.15704 -0.147027 0)
(1.15944 -0.139521 8.02919e-21)
(1.16147 -0.131983 0)
(1.16313 -0.124428 -4.20412e-21)
(1.16441 -0.116867 1.00462e-21)
(1.16534 -0.109313 4.1816e-21)
(1.16591 -0.101775 -1.52596e-22)
(1.16615 -0.0942577 8.23318e-21)
(1.16605 -0.0867672 1.69465e-20)
(1.16563 -0.079305 8.37358e-21)