/*--------------------------------*- C++ -*----------------------------------*\
| =========                 |                                                 |
| \\      /  F ield         | OpenFOAM: The Open Source CFD Toolbox           |
|  \\    /   O peration     | Version:  2312                                  |
|   \\  /    A nd           | Website:  www.openfoam.com                      |
|    \\/     M anipulation  |                                                 |
\*---------------------------------------------------------------------------*/
FoamFile
{
    version     2.0;
    format      ascii;
    arch        "LSB;label=32;scalar=64";
    class       volScalarField;
    location    "1300";
    object      nut;
}
// * * * * * * * * * * * * * * * * * * * * * * * * * * * * * * * * * * * * * //

dimensions      [0 2 -1 0 0 0 0];

internalField   nonuniform List<scalar> 
76025
(
6.24584e-06
6.24017e-06
6.23635e-06
6.23606e-06
6.24373e-06
6.2495e-06
6.25742e-06
6.26309e-06
6.26403e-06
6.26449e-06
6.26822e-06
6.27251e-06
6.27505e-06
6.26906e-06
6.26409e-06
6.26082e-06
6.26055e-06
6.26027e-06
6.25855e-06
6.25509e-06
6.25076e-06
6.25085e-06
6.25276e-06
6.25652e-06
6.26164e-06
6.2671e-06
6.27532e-06
6.28191e-06
6.28865e-06
6.2965e-06
6.30365e-06
6.30763e-06
6.31406e-06
6.31748e-06
6.32193e-06
6.32415e-06
6.32749e-06
6.33496e-06
6.341e-06
6.34665e-06
6.35158e-06
6.35756e-06
6.36745e-06
6.37438e-06
6.38e-06
6.3835e-06
6.38645e-06
6.38466e-06
6.37712e-06
6.36238e-06
6.34045e-06
6.31224e-06
6.27751e-06
6.23914e-06
6.19977e-06
6.16106e-06
6.12538e-06
6.09269e-06
6.05807e-06
6.03641e-06
6.01547e-06
5.99627e-06
5.98483e-06
5.97861e-06
5.97168e-06
5.96152e-06
5.94185e-06
5.91521e-06
5.91131e-06
6.25042e-06
6.24273e-06
6.23419e-06
6.22733e-06
6.22495e-06
6.22478e-06
6.2321e-06
6.24145e-06
6.24868e-06
6.25252e-06
6.25563e-06
6.25931e-06
6.26358e-06
6.26555e-06
6.26413e-06
6.26096e-06
6.25332e-06
6.24736e-06
6.24203e-06
6.23763e-06
6.23295e-06
6.22903e-06
6.22623e-06
6.22445e-06
6.2239e-06
6.22333e-06
6.22812e-06
6.23427e-06
6.24026e-06
6.24659e-06
6.25297e-06
6.2585e-06
6.26395e-06
6.26856e-06
6.27255e-06
6.27564e-06
6.27773e-06
6.27958e-06
6.28093e-06
6.28149e-06
6.28084e-06
6.279e-06
6.27585e-06
6.27061e-06
6.26279e-06
6.25186e-06
6.23792e-06
6.22172e-06
6.2001e-06
6.17135e-06
6.14184e-06
6.1135e-06
6.0867e-06
6.06741e-06
6.05318e-06
6.04182e-06
6.03255e-06
6.02507e-06
6.01868e-06
6.01273e-06
6.00657e-06
5.99964e-06
5.9917e-06
5.98231e-06
5.9699e-06
5.95138e-06
5.92519e-06
5.90703e-06
5.9109e-06
6.23939e-06
6.24131e-06
6.23852e-06
6.2311e-06
6.22146e-06
6.21444e-06
6.21184e-06
6.21603e-06
6.22325e-06
6.23073e-06
6.23711e-06
6.24245e-06
6.24734e-06
6.25201e-06
6.25544e-06
6.25671e-06
6.2548e-06
6.25089e-06
6.24602e-06
6.24075e-06
6.23517e-06
6.22938e-06
6.22316e-06
6.21568e-06
6.20718e-06
6.20005e-06
6.19486e-06
6.1916e-06
6.18971e-06
6.18878e-06
6.18846e-06
6.18843e-06
6.1884e-06
6.18815e-06
6.18747e-06
6.18618e-06
6.18409e-06
6.18103e-06
6.17695e-06
6.17175e-06
6.16524e-06
6.15733e-06
6.1481e-06
6.13758e-06
6.12573e-06
6.11278e-06
6.09903e-06
6.08518e-06
6.07163e-06
6.05852e-06
6.04536e-06
6.03737e-06
6.03208e-06
6.02783e-06
6.02416e-06
6.02078e-06
6.01734e-06
6.0134e-06
6.00847e-06
6.00207e-06
5.99386e-06
5.98386e-06
5.97208e-06
5.95772e-06
5.93894e-06
5.91472e-06
5.88772e-06
5.87432e-06
5.87597e-06
6.21099e-06
6.22076e-06
6.22658e-06
6.22737e-06
6.22331e-06
6.21613e-06
6.20785e-06
6.20233e-06
6.20155e-06
6.2048e-06
6.21035e-06
6.21659e-06
6.22276e-06
6.22872e-06
6.23439e-06
6.23927e-06
6.24271e-06
6.24422e-06
6.2438e-06
6.24165e-06
6.23808e-06
6.23343e-06
6.22788e-06
6.22141e-06
6.21421e-06
6.20682e-06
6.19948e-06
6.19227e-06
6.18449e-06
6.17538e-06
6.16525e-06
6.1566e-06
6.14911e-06
6.1424e-06
6.13615e-06
6.1301e-06
6.12406e-06
6.11785e-06
6.11133e-06
6.10439e-06
6.09705e-06
6.08922e-06
6.0811e-06
6.07289e-06
6.06452e-06
6.05899e-06
6.05514e-06
6.0521e-06
6.04937e-06
6.04664e-06
6.0438e-06
6.04082e-06
6.03759e-06
6.034e-06
6.02989e-06
6.02505e-06
6.01914e-06
6.01176e-06
6.0026e-06
5.99148e-06
5.97846e-06
5.96365e-06
5.94669e-06
5.9264e-06
5.90192e-06
5.8747e-06
5.8498e-06
5.84005e-06
5.83434e-06
6.17902e-06
6.18489e-06
6.19141e-06
6.19821e-06
6.20262e-06
6.20324e-06
6.20011e-06
6.19463e-06
6.18904e-06
6.18552e-06
6.18497e-06
6.18725e-06
6.19144e-06
6.19665e-06
6.20245e-06
6.20844e-06
6.2142e-06
6.21929e-06
6.22328e-06
6.22581e-06
6.22674e-06
6.22612e-06
6.2241e-06
6.22082e-06
6.21644e-06
6.21123e-06
6.2054e-06
6.19902e-06
6.19199e-06
6.18423e-06
6.17593e-06
6.16753e-06
6.15932e-06
6.15141e-06
6.14386e-06
6.13663e-06
6.12977e-06
6.12336e-06
6.11719e-06
6.11121e-06
6.10581e-06
6.10091e-06
6.0959e-06
6.09069e-06
6.08543e-06
6.08027e-06
6.07524e-06
6.07032e-06
6.06541e-06
6.06037e-06
6.05506e-06
6.04932e-06
6.04301e-06
6.03596e-06
6.028e-06
6.01885e-06
6.00822e-06
5.99584e-06
5.9816e-06
5.96561e-06
5.94805e-06
5.92872e-06
5.9068e-06
5.88152e-06
5.85378e-06
5.82695e-06
5.80547e-06
5.79541e-06
5.77563e-06
6.15624e-06
6.15589e-06
6.15781e-06
6.16135e-06
6.16526e-06
6.16831e-06
6.17044e-06
6.17071e-06
6.16874e-06
6.16543e-06
6.16216e-06
6.16013e-06
6.15984e-06
6.16144e-06
6.16467e-06
6.16897e-06
6.17402e-06
6.17958e-06
6.18517e-06
6.1903e-06
6.19464e-06
6.19791e-06
6.19995e-06
6.20069e-06
6.20014e-06
6.19842e-06
6.19572e-06
6.19219e-06
6.18793e-06
6.18296e-06
6.17736e-06
6.17126e-06
6.16482e-06
6.1582e-06
6.15151e-06
6.14482e-06
6.13826e-06
6.13196e-06
6.12582e-06
6.11978e-06
6.11416e-06
6.10882e-06
6.1033e-06
6.09757e-06
6.09167e-06
6.0856e-06
6.07927e-06
6.07262e-06
6.06556e-06
6.05801e-06
6.04984e-06
6.04091e-06
6.03108e-06
6.02024e-06
6.00819e-06
5.99473e-06
5.97963e-06
5.96285e-06
5.94453e-06
5.92489e-06
5.90385e-06
5.88072e-06
5.85473e-06
5.82645e-06
5.79856e-06
5.77407e-06
5.75341e-06
5.73553e-06
5.69518e-06
6.1391e-06
6.13472e-06
6.132e-06
6.13104e-06
6.13145e-06
6.13259e-06
6.1339e-06
6.13469e-06
6.13442e-06
6.13316e-06
6.13135e-06
6.12929e-06
6.12746e-06
6.12638e-06
6.1263e-06
6.12728e-06
6.12951e-06
6.13292e-06
6.13706e-06
6.14166e-06
6.1465e-06
6.15122e-06
6.15541e-06
6.15881e-06
6.16131e-06
6.16283e-06
6.16336e-06
6.16294e-06
6.16163e-06
6.15948e-06
6.15656e-06
6.15295e-06
6.14875e-06
6.14407e-06
6.139e-06
6.1336e-06
6.12802e-06
6.12238e-06
6.11659e-06
6.11063e-06
6.10477e-06
6.09892e-06
6.09264e-06
6.08591e-06
6.07876e-06
6.07117e-06
6.06307e-06
6.05439e-06
6.04506e-06
6.03498e-06
6.02403e-06
6.01209e-06
5.99908e-06
5.9849e-06
5.9694e-06
5.95246e-06
5.93402e-06
5.91422e-06
5.8933e-06
5.87127e-06
5.84753e-06
5.82124e-06
5.7926e-06
5.7638e-06
5.73769e-06
5.71396e-06
5.68803e-06
5.65445e-06
5.59189e-06
6.12564e-06
6.1193e-06
6.11297e-06
6.10802e-06
6.10446e-06
6.10211e-06
6.10067e-06
6.09973e-06
6.09881e-06
6.0976e-06
6.09593e-06
6.09377e-06
6.09127e-06
6.08877e-06
6.08677e-06
6.08554e-06
6.08516e-06
6.08556e-06
6.08671e-06
6.08879e-06
6.09174e-06
6.09516e-06
6.09871e-06
6.10225e-06
6.10562e-06
6.10853e-06
6.11077e-06
6.11228e-06
6.11305e-06
6.11308e-06
6.11234e-06
6.11085e-06
6.10862e-06
6.10574e-06
6.10226e-06
6.09824e-06
6.09378e-06
6.089e-06
6.08378e-06
6.07811e-06
6.07229e-06
6.06619e-06
6.05939e-06
6.05188e-06
6.04372e-06
6.03489e-06
6.02533e-06
6.01499e-06
6.0038e-06
5.99168e-06
5.97854e-06
5.9643e-06
5.94891e-06
5.93234e-06
5.91449e-06
5.89534e-06
5.87495e-06
5.85353e-06
5.83113e-06
5.80725e-06
5.78101e-06
5.75232e-06
5.72282e-06
5.69524e-06
5.66982e-06
5.64109e-06
5.60267e-06
5.54967e-06
5.47227e-06
6.10403e-06
6.10065e-06
6.09383e-06
6.08725e-06
6.08132e-06
6.0762e-06
6.0719e-06
6.06835e-06
6.06534e-06
6.06264e-06
6.06003e-06
6.05733e-06
6.05441e-06
6.05127e-06
6.04799e-06
6.04472e-06
6.04164e-06
6.03915e-06
6.03761e-06
6.03698e-06
6.03704e-06
6.03764e-06
6.03888e-06
6.0407e-06
6.04278e-06
6.0448e-06
6.04666e-06
6.04832e-06
6.04962e-06
6.05038e-06
6.05054e-06
6.05008e-06
6.04901e-06
6.04731e-06
6.04495e-06
6.04192e-06
6.03831e-06
6.03422e-06
6.02949e-06
6.02418e-06
6.01855e-06
6.01242e-06
6.00534e-06
5.99739e-06
5.98862e-06
5.97901e-06
5.96853e-06
5.95714e-06
5.94478e-06
5.93137e-06
5.91688e-06
5.90127e-06
5.88454e-06
5.86667e-06
5.84761e-06
5.82739e-06
5.80608e-06
5.78374e-06
5.75996e-06
5.73392e-06
5.70528e-06
5.67529e-06
5.64632e-06
5.61905e-06
5.58911e-06
5.54811e-06
5.49326e-06
5.42467e-06
5.3472e-06
6.07189e-06
6.07089e-06
6.06645e-06
6.06113e-06
6.05542e-06
6.04965e-06
6.04406e-06
6.03879e-06
6.0339e-06
6.02936e-06
6.02513e-06
6.02108e-06
6.0171e-06
6.01311e-06
6.00904e-06
6.00485e-06
6.00056e-06
5.99624e-06
5.99202e-06
5.98806e-06
5.98474e-06
5.98242e-06
5.98099e-06
5.98011e-06
5.97962e-06
5.97954e-06
5.97982e-06
5.98018e-06
5.98037e-06
5.98034e-06
5.98009e-06
5.97951e-06
5.97844e-06
5.97684e-06
5.97469e-06
5.97198e-06
5.96875e-06
5.96495e-06
5.9604e-06
5.95523e-06
5.94972e-06
5.94358e-06
5.93639e-06
5.92823e-06
5.91915e-06
5.90914e-06
5.8982e-06
5.88629e-06
5.87337e-06
5.85937e-06
5.84426e-06
5.82805e-06
5.81072e-06
5.79221e-06
5.77249e-06
5.75157e-06
5.72939e-06
5.70566e-06
5.67969e-06
5.65103e-06
5.6205e-06
5.59019e-06
5.5609e-06
5.52924e-06
5.48752e-06
5.42999e-06
5.36183e-06
5.28971e-06
5.22192e-06
6.03147e-06
6.03076e-06
6.02867e-06
6.02551e-06
6.02149e-06
6.0168e-06
6.01168e-06
6.00629e-06
6.00081e-06
5.99533e-06
5.98993e-06
5.98463e-06
5.97942e-06
5.97428e-06
5.96915e-06
5.964e-06
5.95878e-06
5.95346e-06
5.94805e-06
5.94256e-06
5.93705e-06
5.93169e-06
5.92666e-06
5.92238e-06
5.91909e-06
5.91655e-06
5.91439e-06
5.91252e-06
5.91097e-06
5.90956e-06
5.90804e-06
5.90629e-06
5.90433e-06
5.90211e-06
5.89948e-06
5.89635e-06
5.8928e-06
5.88878e-06
5.88401e-06
5.8787e-06
5.87313e-06
5.86688e-06
5.85951e-06
5.85114e-06
5.84183e-06
5.83156e-06
5.82032e-06
5.8081e-06
5.79483e-06
5.78045e-06
5.76492e-06
5.74818e-06
5.73017e-06
5.71081e-06
5.69005e-06
5.66781e-06
5.6438e-06
5.61752e-06
5.58853e-06
5.55736e-06
5.52561e-06
5.49416e-06
5.46015e-06
5.41715e-06
5.35938e-06
5.28855e-06
5.21744e-06
5.15431e-06
5.10534e-06
5.98447e-06
5.98394e-06
5.98279e-06
5.98094e-06
5.97836e-06
5.97507e-06
5.97112e-06
5.96661e-06
5.96165e-06
5.95633e-06
5.95076e-06
5.945e-06
5.93913e-06
5.93318e-06
5.92716e-06
5.92108e-06
5.91492e-06
5.90868e-06
5.90233e-06
5.89585e-06
5.88923e-06
5.8825e-06
5.87567e-06
5.86885e-06
5.86222e-06
5.8561e-06
5.85093e-06
5.84665e-06
5.84284e-06
5.83934e-06
5.83614e-06
5.83309e-06
5.82993e-06
5.82656e-06
5.82297e-06
5.81912e-06
5.81495e-06
5.81026e-06
5.80488e-06
5.79921e-06
5.79333e-06
5.78664e-06
5.77881e-06
5.77002e-06
5.76028e-06
5.74953e-06
5.73773e-06
5.72486e-06
5.71084e-06
5.6956e-06
5.67905e-06
5.66108e-06
5.64159e-06
5.62049e-06
5.59769e-06
5.57295e-06
5.54589e-06
5.5162e-06
5.48419e-06
5.45095e-06
5.41708e-06
5.38035e-06
5.33516e-06
5.27682e-06
5.20607e-06
5.13231e-06
5.07158e-06
5.02484e-06
4.98819e-06
5.93663e-06
5.93477e-06
5.93283e-06
5.93069e-06
5.92824e-06
5.9254e-06
5.92209e-06
5.91829e-06
5.91401e-06
5.90926e-06
5.90409e-06
5.89855e-06
5.89268e-06
5.88653e-06
5.88014e-06
5.87355e-06
5.86677e-06
5.85981e-06
5.85269e-06
5.84539e-06
5.83791e-06
5.83024e-06
5.82238e-06
5.81432e-06
5.8061e-06
5.79778e-06
5.78953e-06
5.78165e-06
5.77467e-06
5.76868e-06
5.76324e-06
5.75815e-06
5.7534e-06
5.74879e-06
5.74401e-06
5.73908e-06
5.73403e-06
5.72849e-06
5.72229e-06
5.716e-06
5.70952e-06
5.70201e-06
5.69327e-06
5.68354e-06
5.67281e-06
5.66097e-06
5.64794e-06
5.63367e-06
5.61807e-06
5.60106e-06
5.58252e-06
5.56236e-06
5.54047e-06
5.5167e-06
5.49085e-06
5.46265e-06
5.43191e-06
5.39884e-06
5.36399e-06
5.32749e-06
5.28749e-06
5.23965e-06
5.17995e-06
5.10971e-06
5.03625e-06
4.97239e-06
4.92982e-06
4.89195e-06
4.8585e-06
5.88431e-06
5.88135e-06
5.87835e-06
5.8753e-06
5.87217e-06
5.86888e-06
5.86536e-06
5.86156e-06
5.85742e-06
5.85292e-06
5.84804e-06
5.84276e-06
5.8371e-06
5.83107e-06
5.82469e-06
5.81798e-06
5.81096e-06
5.80365e-06
5.79606e-06
5.78821e-06
5.78009e-06
5.77171e-06
5.76306e-06
5.75414e-06
5.74495e-06
5.73548e-06
5.72575e-06
5.71582e-06
5.70584e-06
5.69611e-06
5.68719e-06
5.67935e-06
5.67215e-06
5.66529e-06
5.65876e-06
5.65244e-06
5.64602e-06
5.63908e-06
5.63179e-06
5.62471e-06
5.61721e-06
5.60829e-06
5.59796e-06
5.5865e-06
5.57394e-06
5.56019e-06
5.54515e-06
5.52871e-06
5.51077e-06
5.49123e-06
5.46998e-06
5.44689e-06
5.42188e-06
5.39474e-06
5.36519e-06
5.3331e-06
5.29867e-06
5.26203e-06
5.22266e-06
5.17879e-06
5.12752e-06
5.06638e-06
4.99641e-06
4.92451e-06
4.85997e-06
4.81191e-06
4.77954e-06
4.73044e-06
4.66478e-06
5.82457e-06
5.82091e-06
5.81708e-06
5.81316e-06
5.80915e-06
5.80504e-06
5.80081e-06
5.79642e-06
5.79183e-06
5.78701e-06
5.78191e-06
5.77651e-06
5.77078e-06
5.7647e-06
5.75827e-06
5.75148e-06
5.74433e-06
5.73682e-06
5.72896e-06
5.72075e-06
5.7122e-06
5.70329e-06
5.69405e-06
5.68445e-06
5.6745e-06
5.66418e-06
5.65349e-06
5.64243e-06
5.631e-06
5.61924e-06
5.60726e-06
5.59529e-06
5.58388e-06
5.57359e-06
5.5641e-06
5.55502e-06
5.54623e-06
5.53728e-06
5.52838e-06
5.51988e-06
5.51044e-06
5.49907e-06
5.48638e-06
5.47265e-06
5.45771e-06
5.4414e-06
5.42368e-06
5.40446e-06
5.38366e-06
5.36113e-06
5.3367e-06
5.31019e-06
5.28146e-06
5.25032e-06
5.21662e-06
5.18035e-06
5.1414e-06
5.0988e-06
5.05075e-06
4.99551e-06
4.93252e-06
4.86341e-06
4.79307e-06
4.72914e-06
4.67569e-06
4.63275e-06
4.58337e-06
4.48703e-06
4.36983e-06
5.75423e-06
5.75013e-06
5.74577e-06
5.74121e-06
5.73649e-06
5.73161e-06
5.72658e-06
5.7214e-06
5.71605e-06
5.71051e-06
5.70477e-06
5.69879e-06
5.69255e-06
5.68602e-06
5.67919e-06
5.67203e-06
5.66452e-06
5.65665e-06
5.64841e-06
5.63979e-06
5.63078e-06
5.62137e-06
5.61155e-06
5.60131e-06
5.59065e-06
5.57955e-06
5.56801e-06
5.55599e-06
5.5435e-06
5.53051e-06
5.51702e-06
5.50304e-06
5.4886e-06
5.47386e-06
5.45917e-06
5.44539e-06
5.43266e-06
5.4201e-06
5.40844e-06
5.39721e-06
5.38433e-06
5.36952e-06
5.35364e-06
5.33661e-06
5.31843e-06
5.29909e-06
5.27835e-06
5.25595e-06
5.23174e-06
5.20563e-06
5.17746e-06
5.14697e-06
5.1139e-06
5.07812e-06
5.03948e-06
4.9975e-06
4.95103e-06
4.89855e-06
4.83936e-06
4.77458e-06
4.70658e-06
4.63826e-06
4.57342e-06
4.51451e-06
4.45571e-06
4.38787e-06
4.28269e-06
4.11203e-06
3.89459e-06
5.66971e-06
5.66525e-06
5.66048e-06
5.65545e-06
5.65018e-06
5.6447e-06
5.63899e-06
5.63308e-06
5.62695e-06
5.62061e-06
5.61405e-06
5.60725e-06
5.60021e-06
5.59291e-06
5.58532e-06
5.57742e-06
5.5692e-06
5.56064e-06
5.55171e-06
5.54239e-06
5.53267e-06
5.52253e-06
5.51195e-06
5.50091e-06
5.48939e-06
5.47737e-06
5.46484e-06
5.45177e-06
5.43814e-06
5.42392e-06
5.40909e-06
5.39361e-06
5.37746e-06
5.36062e-06
5.34308e-06
5.32486e-06
5.30605e-06
5.28692e-06
5.26904e-06
5.25147e-06
5.23241e-06
5.21255e-06
5.19229e-06
5.17154e-06
5.1501e-06
5.12733e-06
5.10292e-06
5.07686e-06
5.0489e-06
5.01863e-06
4.98584e-06
4.95037e-06
4.91196e-06
4.87022e-06
4.82444e-06
4.77353e-06
4.71661e-06
4.65411e-06
4.588e-06
4.52088e-06
4.45401e-06
4.38632e-06
4.3162e-06
4.23916e-06
4.1423e-06
4.01289e-06
3.8237e-06
3.57186e-06
3.29674e-06
5.56686e-06
5.56188e-06
5.55661e-06
5.55106e-06
5.54527e-06
5.53921e-06
5.53289e-06
5.52631e-06
5.51947e-06
5.51236e-06
5.50498e-06
5.49732e-06
5.48938e-06
5.48115e-06
5.47261e-06
5.46375e-06
5.45455e-06
5.44499e-06
5.43506e-06
5.42472e-06
5.41396e-06
5.40276e-06
5.39109e-06
5.37893e-06
5.36624e-06
5.353e-06
5.33919e-06
5.32478e-06
5.30972e-06
5.29399e-06
5.27754e-06
5.26035e-06
5.24236e-06
5.22353e-06
5.20381e-06
5.18315e-06
5.16149e-06
5.13878e-06
5.11505e-06
5.09017e-06
5.06398e-06
5.03656e-06
5.00839e-06
4.98055e-06
4.95281e-06
4.92415e-06
4.89427e-06
4.86284e-06
4.82916e-06
4.79295e-06
4.75403e-06
4.71197e-06
4.66612e-06
4.61569e-06
4.55993e-06
4.49891e-06
4.43418e-06
4.36767e-06
4.30011e-06
4.23084e-06
4.15658e-06
4.07009e-06
3.96516e-06
3.83731e-06
3.67537e-06
3.46587e-06
3.20743e-06
2.91037e-06
2.59286e-06
5.44008e-06
5.43434e-06
5.42832e-06
5.42206e-06
5.41554e-06
5.40877e-06
5.40172e-06
5.39439e-06
5.38677e-06
5.37884e-06
5.3706e-06
5.36203e-06
5.35314e-06
5.3439e-06
5.3343e-06
5.32433e-06
5.31398e-06
5.30323e-06
5.29206e-06
5.28044e-06
5.26835e-06
5.25577e-06
5.24268e-06
5.22903e-06
5.2148e-06
5.19996e-06
5.18448e-06
5.1683e-06
5.15139e-06
5.13372e-06
5.11522e-06
5.09585e-06
5.07555e-06
5.05427e-06
5.03194e-06
5.00848e-06
4.98382e-06
4.95789e-06
4.93059e-06
4.9018e-06
4.87137e-06
4.83919e-06
4.80514e-06
4.76912e-06
4.731e-06
4.69095e-06
4.64981e-06
4.60843e-06
4.56562e-06
4.52052e-06
4.47264e-06
4.42104e-06
4.36489e-06
4.30411e-06
4.23968e-06
4.17326e-06
4.1056e-06
4.03495e-06
3.95686e-06
3.86584e-06
3.75611e-06
3.62222e-06
3.45725e-06
3.25963e-06
3.05106e-06
2.80154e-06
2.49153e-06
2.20425e-06
1.96451e-06
5.28101e-06
5.27426e-06
5.26725e-06
5.25999e-06
5.25248e-06
5.24472e-06
5.23668e-06
5.22835e-06
5.21972e-06
5.21076e-06
5.20146e-06
5.1918e-06
5.18177e-06
5.17135e-06
5.16053e-06
5.14928e-06
5.13758e-06
5.12542e-06
5.11278e-06
5.09963e-06
5.08593e-06
5.07168e-06
5.05682e-06
5.04133e-06
5.02518e-06
5.00832e-06
4.99071e-06
4.97231e-06
4.95306e-06
4.93291e-06
4.9118e-06
4.88968e-06
4.86646e-06
4.84208e-06
4.81645e-06
4.78948e-06
4.76109e-06
4.73117e-06
4.69959e-06
4.66622e-06
4.63089e-06
4.59344e-06
4.5537e-06
4.51149e-06
4.46661e-06
4.41886e-06
4.36801e-06
4.31383e-06
4.25609e-06
4.19509e-06
4.13226e-06
4.06699e-06
3.99962e-06
3.93183e-06
3.86281e-06
3.7897e-06
3.70792e-06
3.61048e-06
3.49376e-06
3.35604e-06
3.19015e-06
2.99447e-06
2.79122e-06
2.58158e-06
2.34228e-06
2.07937e-06
1.82094e-06
1.67445e-06
1.62141e-06
5.07663e-06
5.06867e-06
5.06043e-06
5.05193e-06
5.04316e-06
5.03411e-06
5.02477e-06
5.01512e-06
5.00515e-06
4.99482e-06
4.98413e-06
4.97305e-06
4.96156e-06
4.94963e-06
4.93725e-06
4.9244e-06
4.91103e-06
4.89713e-06
4.88268e-06
4.86763e-06
4.85196e-06
4.83562e-06
4.8186e-06
4.80083e-06
4.78229e-06
4.76291e-06
4.74265e-06
4.72146e-06
4.69926e-06
4.676e-06
4.65161e-06
4.626e-06
4.59909e-06
4.57079e-06
4.54099e-06
4.5096e-06
4.47649e-06
4.44152e-06
4.40456e-06
4.36546e-06
4.32401e-06
4.28001e-06
4.23327e-06
4.18356e-06
4.13064e-06
4.07425e-06
4.01408e-06
3.94984e-06
3.88128e-06
3.80848e-06
3.73064e-06
3.64821e-06
3.56942e-06
3.48836e-06
3.39712e-06
3.2917e-06
3.17039e-06
3.025e-06
2.85267e-06
2.66888e-06
2.48364e-06
2.2935e-06
2.09047e-06
1.88328e-06
1.68723e-06
1.5255e-06
1.43345e-06
1.53457e-06
1.72922e-06
4.8066e-06
4.79721e-06
4.78753e-06
4.77753e-06
4.76724e-06
4.75662e-06
4.74568e-06
4.73438e-06
4.72272e-06
4.71067e-06
4.6982e-06
4.6853e-06
4.67194e-06
4.65809e-06
4.64372e-06
4.62881e-06
4.61333e-06
4.59723e-06
4.58049e-06
4.56306e-06
4.54491e-06
4.526e-06
4.50626e-06
4.48567e-06
4.46415e-06
4.44165e-06
4.41811e-06
4.39346e-06
4.36762e-06
4.34052e-06
4.31205e-06
4.28214e-06
4.25067e-06
4.21753e-06
4.18259e-06
4.14574e-06
4.10681e-06
4.06564e-06
4.02213e-06
3.97601e-06
3.92705e-06
3.87506e-06
3.81978e-06
3.761e-06
3.69842e-06
3.63173e-06
3.56062e-06
3.48481e-06
3.40396e-06
3.31744e-06
3.2239e-06
3.12377e-06
3.02073e-06
2.90472e-06
2.76735e-06
2.61186e-06
2.44824e-06
2.28336e-06
2.12627e-06
1.96131e-06
1.78895e-06
1.62162e-06
1.47852e-06
1.37307e-06
1.32186e-06
1.36654e-06
1.53332e-06
1.94031e-06
2.37736e-06
4.43898e-06
4.4279e-06
4.41648e-06
4.40472e-06
4.39261e-06
4.38012e-06
4.36726e-06
4.35398e-06
4.34028e-06
4.32613e-06
4.3115e-06
4.29638e-06
4.28072e-06
4.2645e-06
4.24769e-06
4.23025e-06
4.21215e-06
4.19334e-06
4.17379e-06
4.15345e-06
4.13226e-06
4.11018e-06
4.08715e-06
4.0631e-06
4.03798e-06
4.01171e-06
3.98421e-06
3.9554e-06
3.92519e-06
3.89348e-06
3.86016e-06
3.82513e-06
3.78825e-06
3.74939e-06
3.70842e-06
3.66515e-06
3.61941e-06
3.57117e-06
3.52012e-06
3.46602e-06
3.40862e-06
3.34768e-06
3.28297e-06
3.21417e-06
3.14081e-06
3.06238e-06
2.9785e-06
2.88871e-06
2.79187e-06
2.68607e-06
2.56977e-06
2.44269e-06
2.30656e-06
2.16251e-06
2.01146e-06
1.86407e-06
1.73072e-06
1.59385e-06
1.46188e-06
1.34594e-06
1.25052e-06
1.19046e-06
1.20446e-06
1.29237e-06
1.46796e-06
1.76548e-06
2.25516e-06
3.06486e-06
3.7662e-06
3.92425e-06
3.91118e-06
3.89779e-06
3.88401e-06
3.86984e-06
3.85525e-06
3.84023e-06
3.82474e-06
3.80877e-06
3.79229e-06
3.77527e-06
3.75768e-06
3.73949e-06
3.72066e-06
3.70116e-06
3.68095e-06
3.65999e-06
3.63823e-06
3.61563e-06
3.59212e-06
3.56767e-06
3.5422e-06
3.51565e-06
3.48796e-06
3.45905e-06
3.42883e-06
3.39722e-06
3.36413e-06
3.32945e-06
3.29308e-06
3.25489e-06
3.21477e-06
3.17257e-06
3.12816e-06
3.08137e-06
3.03202e-06
2.98008e-06
2.92521e-06
2.86712e-06
2.80554e-06
2.74019e-06
2.67082e-06
2.59696e-06
2.51799e-06
2.43321e-06
2.34225e-06
2.24482e-06
2.14017e-06
2.02745e-06
1.90723e-06
1.78187e-06
1.6537e-06
1.53006e-06
1.42162e-06
1.31685e-06
1.22412e-06
1.14574e-06
1.07943e-06
1.0375e-06
1.05248e-06
1.12313e-06
1.26053e-06
1.4803e-06
1.80079e-06
2.25016e-06
2.88213e-06
3.77906e-06
4.98296e-06
5.87887e-06
3.19339e-06
3.1785e-06
3.16331e-06
3.14774e-06
3.13176e-06
3.11534e-06
3.09847e-06
3.08112e-06
3.06325e-06
3.04485e-06
3.02588e-06
3.00632e-06
2.98612e-06
2.96526e-06
2.9437e-06
2.92139e-06
2.89829e-06
2.87437e-06
2.84957e-06
2.82383e-06
2.79711e-06
2.76934e-06
2.74046e-06
2.7104e-06
2.67909e-06
2.64645e-06
2.61238e-06
2.57681e-06
2.53964e-06
2.50077e-06
2.46008e-06
2.41746e-06
2.3728e-06
2.32597e-06
2.27684e-06
2.22527e-06
2.17088e-06
2.11333e-06
2.05226e-06
1.98737e-06
1.9186e-06
1.84575e-06
1.76815e-06
1.6854e-06
1.59784e-06
1.50726e-06
1.41567e-06
1.32234e-06
1.22607e-06
1.13428e-06
1.06271e-06
1.00431e-06
9.49751e-07
9.003e-07
8.71325e-07
8.79352e-07
9.21835e-07
1.00298e-06
1.13098e-06
1.31779e-06
1.57776e-06
1.92674e-06
2.37953e-06
2.95152e-06
3.67144e-06
4.5898e-06
5.74022e-06
7.01138e-06
7.78567e-06
2.19413e-06
2.17927e-06
2.1642e-06
2.14882e-06
2.13311e-06
2.11705e-06
2.1006e-06
2.08375e-06
2.06648e-06
2.04877e-06
2.03058e-06
2.0119e-06
1.9927e-06
1.97295e-06
1.95263e-06
1.93171e-06
1.91014e-06
1.88791e-06
1.86497e-06
1.84128e-06
1.8168e-06
1.79148e-06
1.76529e-06
1.73818e-06
1.71008e-06
1.68095e-06
1.65073e-06
1.61937e-06
1.5868e-06
1.55297e-06
1.51779e-06
1.4812e-06
1.44331e-06
1.40376e-06
1.3619e-06
1.31765e-06
1.27101e-06
1.22197e-06
1.17068e-06
1.11768e-06
1.06346e-06
1.00796e-06
9.52178e-07
8.98763e-07
8.49039e-07
8.04448e-07
7.66831e-07
7.36886e-07
7.12854e-07
6.96692e-07
7.04309e-07
7.3448e-07
7.84428e-07
8.57352e-07
9.57534e-07
1.09069e-06
1.26337e-06
1.48248e-06
1.75479e-06
2.08652e-06
2.48364e-06
2.95154e-06
3.49267e-06
4.11135e-06
4.82888e-06
5.66699e-06
6.56832e-06
7.34429e-06
7.73011e-06
1.04389e-06
1.03386e-06
1.02381e-06
1.01368e-06
1.00346e-06
9.93149e-07
9.82737e-07
9.72214e-07
9.61569e-07
9.5079e-07
9.39863e-07
9.28773e-07
9.17507e-07
9.06048e-07
8.94383e-07
8.82495e-07
8.70369e-07
8.5799e-07
8.4534e-07
8.32402e-07
8.19158e-07
8.0559e-07
7.91682e-07
7.77411e-07
7.62754e-07
7.47706e-07
7.32254e-07
7.16372e-07
7.00054e-07
6.83295e-07
6.66089e-07
6.48475e-07
6.30503e-07
6.12458e-07
5.94853e-07
5.7798e-07
5.62042e-07
5.47154e-07
5.33903e-07
5.23474e-07
5.15074e-07
5.05996e-07
5.02204e-07
5.17868e-07
5.42206e-07
5.74092e-07
6.14372e-07
6.64438e-07
7.25774e-07
7.99638e-07
8.87497e-07
9.90961e-07
1.11122e-06
1.2492e-06
1.40549e-06
1.58037e-06
1.7735e-06
1.98398e-06
2.21069e-06
2.45336e-06
2.7137e-06
2.9954e-06
3.29568e-06
3.60657e-06
3.92203e-06
4.21776e-06
4.39562e-06
4.3494e-06
4.25447e-06
2.3147e-07
2.31963e-07
2.3335e-07
2.35914e-07
2.39506e-07
2.43873e-07
2.48795e-07
2.54107e-07
2.59689e-07
2.65456e-07
2.71342e-07
2.77299e-07
2.83291e-07
2.89289e-07
2.9527e-07
3.01218e-07
3.0712e-07
3.12967e-07
3.18752e-07
3.24471e-07
3.30124e-07
3.35718e-07
3.41242e-07
3.46696e-07
3.52156e-07
3.57584e-07
3.62756e-07
3.68341e-07
3.74969e-07
3.82799e-07
3.91954e-07
4.02563e-07
4.14744e-07
4.2864e-07
4.44411e-07
4.62234e-07
4.82285e-07
5.04714e-07
5.29667e-07
5.57328e-07
5.87816e-07
6.20963e-07
6.56549e-07
6.94651e-07
7.34939e-07
7.76819e-07
8.19488e-07
8.61978e-07
9.032e-07
9.42009e-07
9.77314e-07
1.00825e-06
1.03429e-06
1.0554e-06
1.07192e-06
1.0843e-06
1.09286e-06
1.09828e-06
1.10128e-06
1.10427e-06
1.11261e-06
1.12982e-06
1.14577e-06
1.14203e-06
1.09726e-06
9.8003e-07
7.71083e-07
5.1719e-07
3.29346e-07
1.24171e-07
1.28945e-07
1.3391e-07
1.39118e-07
1.44594e-07
1.50351e-07
1.56391e-07
1.62708e-07
1.69294e-07
1.76133e-07
1.8321e-07
1.90506e-07
1.98e-07
2.05669e-07
2.13489e-07
2.21433e-07
2.29474e-07
2.37582e-07
2.45724e-07
2.53868e-07
2.61979e-07
2.70015e-07
2.77935e-07
2.85702e-07
2.93241e-07
3.00497e-07
3.07559e-07
3.13803e-07
3.18745e-07
3.22401e-07
3.24817e-07
3.2599e-07
3.25892e-07
3.24477e-07
3.21686e-07
3.17449e-07
3.1169e-07
3.04335e-07
2.9532e-07
2.84604e-07
2.72182e-07
2.58088e-07
2.42412e-07
2.25322e-07
2.07051e-07
1.87903e-07
1.68252e-07
1.48529e-07
1.29199e-07
1.10725e-07
9.35268e-08
7.79543e-08
6.42461e-08
5.24945e-08
4.26138e-08
3.43572e-08
2.74445e-08
2.16965e-08
1.67588e-08
1.26523e-08
8.99707e-09
6.65692e-09
4.56345e-09
3.91732e-09
3.79507e-09
3.37627e-09
2.50872e-09
1.6517e-09
1.75071e-09
6.36646e-06
6.36439e-06
6.36406e-06
6.36553e-06
6.36895e-06
6.37432e-06
6.3783e-06
6.37519e-06
6.36725e-06
6.36049e-06
6.35187e-06
6.34223e-06
6.33356e-06
6.32933e-06
6.33373e-06
6.33257e-06
6.31081e-06
6.28884e-06
6.28131e-06
6.28537e-06
6.27424e-06
6.25113e-06
6.26629e-06
6.27247e-06
6.28286e-06
6.28209e-06
6.27113e-06
6.26245e-06
6.23974e-06
6.24278e-06
6.24119e-06
6.24229e-06
6.23122e-06
6.22718e-06
6.22872e-06
6.22699e-06
6.22232e-06
6.21919e-06
6.2203e-06
6.22235e-06
6.23042e-06
6.23432e-06
6.2319e-06
6.2365e-06
6.23735e-06
6.23867e-06
6.24376e-06
6.25057e-06
6.24133e-06
6.23125e-06
6.23149e-06
6.23609e-06
6.24571e-06
6.25239e-06
6.25982e-06
6.26736e-06
6.26541e-06
6.25752e-06
6.25098e-06
6.35538e-06
6.35697e-06
6.36112e-06
6.36562e-06
6.3669e-06
6.36477e-06
6.35815e-06
6.34743e-06
6.33963e-06
6.33338e-06
6.32808e-06
6.32605e-06
6.32889e-06
6.32957e-06
6.32484e-06
6.30555e-06
6.28551e-06
6.27623e-06
6.27834e-06
6.26926e-06
6.25445e-06
6.2473e-06
6.26671e-06
6.27491e-06
6.28397e-06
6.27635e-06
6.26007e-06
6.24903e-06
6.23023e-06
6.23332e-06
6.23168e-06
6.23242e-06
6.22219e-06
6.21789e-06
6.21886e-06
6.21733e-06
6.21312e-06
6.20997e-06
6.21002e-06
6.21125e-06
6.21726e-06
6.22257e-06
6.22216e-06
6.2234e-06
6.22512e-06
6.22618e-06
6.22885e-06
6.24012e-06
6.24289e-06
6.23244e-06
6.225e-06
6.22278e-06
6.22534e-06
6.22909e-06
6.23354e-06
6.241e-06
6.24981e-06
6.25346e-06
6.25299e-06
6.34621e-06
6.34662e-06
6.34857e-06
6.34621e-06
6.34084e-06
6.3329e-06
6.32599e-06
6.32e-06
6.31716e-06
6.31748e-06
6.32174e-06
6.32625e-06
6.32646e-06
6.31861e-06
6.301e-06
6.27884e-06
6.27004e-06
6.26966e-06
6.26213e-06
6.24976e-06
6.24115e-06
6.24837e-06
6.27046e-06
6.27915e-06
6.28394e-06
6.27009e-06
6.24712e-06
6.23485e-06
6.22063e-06
6.22587e-06
6.22142e-06
6.22149e-06
6.21219e-06
6.20773e-06
6.20816e-06
6.20685e-06
6.20299e-06
6.19979e-06
6.19912e-06
6.19957e-06
6.2035e-06
6.20906e-06
6.21078e-06
6.2108e-06
6.21163e-06
6.21256e-06
6.21376e-06
6.2243e-06
6.23563e-06
6.23648e-06
6.22587e-06
6.21677e-06
6.21184e-06
6.21062e-06
6.2115e-06
6.2143e-06
6.21982e-06
6.22529e-06
6.2327e-06
6.32098e-06
6.31706e-06
6.31567e-06
6.31234e-06
6.30846e-06
6.30515e-06
6.30385e-06
6.30534e-06
6.31043e-06
6.31827e-06
6.32186e-06
6.31963e-06
6.30915e-06
6.29101e-06
6.27041e-06
6.25836e-06
6.25524e-06
6.25198e-06
6.24163e-06
6.2332e-06
6.23595e-06
6.25554e-06
6.27467e-06
6.28224e-06
6.28039e-06
6.2583e-06
6.23246e-06
6.22024e-06
6.21038e-06
6.21564e-06
6.21014e-06
6.20946e-06
6.20099e-06
6.19646e-06
6.19639e-06
6.19524e-06
6.19173e-06
6.18847e-06
6.18724e-06
6.18707e-06
6.18924e-06
6.19401e-06
6.19721e-06
6.19765e-06
6.19758e-06
6.19788e-06
6.19833e-06
6.20339e-06
6.21651e-06
6.22782e-06
6.22861e-06
6.2186e-06
6.20835e-06
6.20119e-06
6.19692e-06
6.19503e-06
6.19532e-06
6.19724e-06
6.20085e-06
6.29171e-06
6.2883e-06
6.28818e-06
6.28819e-06
6.28922e-06
6.29201e-06
6.29722e-06
6.30494e-06
6.31146e-06
6.31209e-06
6.30545e-06
6.29167e-06
6.27301e-06
6.25681e-06
6.24481e-06
6.23942e-06
6.23626e-06
6.23018e-06
6.22253e-06
6.22257e-06
6.2366e-06
6.26296e-06
6.27807e-06
6.28204e-06
6.27064e-06
6.23888e-06
6.21633e-06
6.20515e-06
6.19889e-06
6.20308e-06
6.19752e-06
6.19613e-06
6.18839e-06
6.18385e-06
6.18333e-06
6.18227e-06
6.17911e-06
6.17581e-06
6.17413e-06
6.17346e-06
6.17429e-06
6.1777e-06
6.18139e-06
6.18286e-06
6.18269e-06
6.1823e-06
6.18205e-06
6.1837e-06
6.19077e-06
6.20262e-06
6.21371e-06
6.21535e-06
6.20752e-06
6.19774e-06
6.18973e-06
6.18367e-06
6.17949e-06
6.17703e-06
6.17622e-06
6.26857e-06
6.2679e-06
6.27065e-06
6.27421e-06
6.27888e-06
6.2848e-06
6.29113e-06
6.29371e-06
6.29016e-06
6.27991e-06
6.26508e-06
6.25021e-06
6.23687e-06
6.22756e-06
6.2218e-06
6.21835e-06
6.21425e-06
6.20935e-06
6.20854e-06
6.21842e-06
6.24073e-06
6.26838e-06
6.27803e-06
6.27321e-06
6.24811e-06
6.21752e-06
6.1988e-06
6.18931e-06
6.18573e-06
6.18859e-06
6.18332e-06
6.1813e-06
6.17419e-06
6.16967e-06
6.16876e-06
6.16773e-06
6.16488e-06
6.1616e-06
6.15954e-06
6.15845e-06
6.15831e-06
6.16025e-06
6.16352e-06
6.16579e-06
6.16619e-06
6.16557e-06
6.16472e-06
6.16458e-06
6.16713e-06
6.1737e-06
6.18297e-06
6.19099e-06
6.19268e-06
6.18764e-06
6.18068e-06
6.17386e-06
6.16777e-06
6.16263e-06
6.15871e-06
6.24826e-06
6.24789e-06
6.25136e-06
6.25477e-06
6.25792e-06
6.25984e-06
6.25889e-06
6.25376e-06
6.24495e-06
6.23381e-06
6.22244e-06
6.21296e-06
6.20598e-06
6.20145e-06
6.19832e-06
6.19553e-06
6.19293e-06
6.19314e-06
6.20063e-06
6.218e-06
6.24239e-06
6.26362e-06
6.26479e-06
6.24889e-06
6.22101e-06
6.19512e-06
6.17981e-06
6.17233e-06
6.17058e-06
6.17221e-06
6.16729e-06
6.16473e-06
6.15815e-06
6.15369e-06
6.15243e-06
6.15138e-06
6.1488e-06
6.14559e-06
6.14322e-06
6.14176e-06
6.14093e-06
6.14155e-06
6.14382e-06
6.14624e-06
6.14735e-06
6.14706e-06
6.14597e-06
6.14487e-06
6.14491e-06
6.14737e-06
6.15251e-06
6.15875e-06
6.163e-06
6.16359e-06
6.1613e-06
6.15728e-06
6.15249e-06
6.14744e-06
6.14282e-06
6.22018e-06
6.21801e-06
6.21967e-06
6.22034e-06
6.21979e-06
6.21751e-06
6.21309e-06
6.20665e-06
6.1991e-06
6.19166e-06
6.18542e-06
6.1809e-06
6.17789e-06
6.17584e-06
6.17431e-06
6.1736e-06
6.17525e-06
6.18195e-06
6.19571e-06
6.21536e-06
6.23504e-06
6.24528e-06
6.23838e-06
6.21839e-06
6.1926e-06
6.17148e-06
6.15923e-06
6.15375e-06
6.15315e-06
6.15375e-06
6.14913e-06
6.14613e-06
6.14e-06
6.13562e-06