/*--------------------------------*- C++ -*----------------------------------*\
| =========                 |                                                 |
| \\      /  F ield         | OpenFOAM: The Open Source CFD Toolbox           |
|  \\    /   O peration     | Version:  2312                                  |
|   \\  /    A nd           | Website:  www.openfoam.com                      |
|    \\/     M anipulation  |                                                 |
\*---------------------------------------------------------------------------*/
FoamFile
{
    version     2.0;
    format      ascii;
    arch        "LSB;label=32;scalar=64";
    class       volScalarField;
    location    "1300";
    object      nuTilda;
}
// * * * * * * * * * * * * * * * * * * * * * * * * * * * * * * * * * * * * * //

dimensions      [0 2 -1 0 0 0 0];

internalField   nonuniform List<scalar> 
76025
(
4.03284e-05
4.03181e-05
4.03111e-05
4.03106e-05
4.03246e-05
4.03351e-05
4.03496e-05
4.03599e-05
4.03616e-05
4.03625e-05
4.03692e-05
4.03771e-05
4.03817e-05
4.03708e-05
4.03617e-05
4.03558e-05
4.03553e-05
4.03548e-05
4.03516e-05
4.03453e-05
4.03374e-05
4.03376e-05
4.03411e-05
4.03479e-05
4.03573e-05
4.03672e-05
4.03822e-05
4.03942e-05
4.04064e-05
4.04207e-05
4.04337e-05
4.04409e-05
4.04526e-05
4.04588e-05
4.04669e-05
4.04709e-05
4.04769e-05
4.04905e-05
4.05014e-05
4.05116e-05
4.05205e-05
4.05313e-05
4.05492e-05
4.05617e-05
4.05718e-05
4.05781e-05
4.05834e-05
4.05802e-05
4.05666e-05
4.054e-05
4.05004e-05
4.04493e-05
4.03862e-05
4.03162e-05
4.02441e-05
4.01729e-05
4.01071e-05
4.00465e-05
3.99822e-05
3.99418e-05
3.99027e-05
3.98668e-05
3.98454e-05
3.98337e-05
3.98207e-05
3.98016e-05
3.97646e-05
3.97143e-05
3.97069e-05
4.03368e-05
4.03227e-05
4.03071e-05
4.02946e-05
4.02902e-05
4.02899e-05
4.03033e-05
4.03204e-05
4.03336e-05
4.03406e-05
4.03463e-05
4.0353e-05
4.03608e-05
4.03644e-05
4.03618e-05
4.0356e-05
4.03421e-05
4.03312e-05
4.03214e-05
4.03134e-05
4.03049e-05
4.02977e-05
4.02926e-05
4.02893e-05
4.02883e-05
4.02873e-05
4.0296e-05
4.03073e-05
4.03182e-05
4.03298e-05
4.03414e-05
4.03515e-05
4.03615e-05
4.03699e-05
4.03771e-05
4.03828e-05
4.03866e-05
4.03899e-05
4.03924e-05
4.03934e-05
4.03922e-05
4.03889e-05
4.03831e-05
4.03736e-05
4.03593e-05
4.03394e-05
4.03139e-05
4.02843e-05
4.02447e-05
4.01919e-05
4.01375e-05
4.00851e-05
4.00354e-05
3.99996e-05
3.99731e-05
3.99519e-05
3.99346e-05
3.99207e-05
3.99087e-05
3.98976e-05
3.98861e-05
3.98731e-05
3.98582e-05
3.98406e-05
3.98173e-05
3.97825e-05
3.97331e-05
3.96988e-05
3.97061e-05
4.03166e-05
4.03201e-05
4.0315e-05
4.03015e-05
4.02838e-05
4.0271e-05
4.02662e-05
4.02739e-05
4.02871e-05
4.03008e-05
4.03125e-05
4.03222e-05
4.03312e-05
4.03397e-05
4.03459e-05
4.03483e-05
4.03448e-05
4.03376e-05
4.03287e-05
4.03191e-05
4.03089e-05
4.02983e-05
4.0287e-05
4.02733e-05
4.02577e-05
4.02446e-05
4.02351e-05
4.02291e-05
4.02256e-05
4.02239e-05
4.02233e-05
4.02233e-05
4.02232e-05
4.02228e-05
4.02215e-05
4.02191e-05
4.02153e-05
4.02097e-05
4.02022e-05
4.01926e-05
4.01806e-05
4.0166e-05
4.0149e-05
4.01296e-05
4.01077e-05
4.00838e-05
4.00583e-05
4.00326e-05
4.00074e-05
3.9983e-05
3.99585e-05
3.99436e-05
3.99338e-05
3.99258e-05
3.9919e-05
3.99127e-05
3.99062e-05
3.98989e-05
3.98896e-05
3.98777e-05
3.98623e-05
3.98435e-05
3.98214e-05
3.97944e-05
3.97591e-05
3.97134e-05
3.96623e-05
3.96369e-05
3.964e-05
4.02647e-05
4.02825e-05
4.02932e-05
4.02947e-05
4.02872e-05
4.02741e-05
4.02589e-05
4.02488e-05
4.02474e-05
4.02533e-05
4.02635e-05
4.02749e-05
4.02862e-05
4.02971e-05
4.03075e-05
4.03164e-05
4.03227e-05
4.03255e-05
4.03247e-05
4.03208e-05
4.03142e-05
4.03057e-05
4.02956e-05
4.02838e-05
4.02706e-05
4.0257e-05
4.02435e-05
4.02303e-05
4.0216e-05
4.01993e-05
4.01806e-05
4.01647e-05
4.01509e-05
4.01385e-05
4.0127e-05
4.01158e-05
4.01046e-05
4.00931e-05
4.00811e-05
4.00682e-05
4.00546e-05
4.00401e-05
4.0025e-05
4.00098e-05
3.99942e-05
3.99839e-05
3.99768e-05
3.99711e-05
3.9966e-05
3.99609e-05
3.99556e-05
3.99501e-05
3.99441e-05
3.99373e-05
3.99297e-05
3.99206e-05
3.99096e-05
3.98958e-05
3.98787e-05
3.98578e-05
3.98334e-05
3.98056e-05
3.97737e-05
3.97354e-05
3.96891e-05
3.96376e-05
3.95903e-05
3.95717e-05
3.95608e-05
4.0206e-05
4.02168e-05
4.02287e-05
4.02412e-05
4.02493e-05
4.02504e-05
4.02447e-05
4.02347e-05
4.02244e-05
4.02179e-05
4.02169e-05
4.02211e-05
4.02288e-05
4.02383e-05
4.0249e-05
4.026e-05
4.02705e-05
4.02799e-05
4.02872e-05
4.02918e-05
4.02935e-05
4.02924e-05
4.02887e-05
4.02827e-05
4.02746e-05
4.02651e-05
4.02544e-05
4.02427e-05
4.02298e-05
4.02156e-05
4.02003e-05
4.01848e-05
4.01697e-05
4.01551e-05
4.01412e-05
4.01279e-05
4.01152e-05
4.01033e-05
4.00919e-05
4.00809e-05
4.00709e-05
4.00618e-05
4.00525e-05
4.00428e-05
4.00331e-05
4.00235e-05
4.00142e-05
4.0005e-05
3.99959e-05
3.99865e-05
3.99766e-05
3.99659e-05
3.99541e-05
3.9941e-05
3.99261e-05
3.99091e-05
3.98892e-05
3.9866e-05
3.98393e-05
3.98093e-05
3.97762e-05
3.97398e-05
3.96984e-05
3.96505e-05
3.95978e-05
3.95467e-05
3.95057e-05
3.94865e-05
3.94486e-05
4.0164e-05
4.01634e-05
4.01669e-05
4.01734e-05
4.01807e-05
4.01863e-05
4.01902e-05
4.01907e-05
4.01871e-05
4.0181e-05
4.01749e-05
4.01712e-05
4.01707e-05
4.01736e-05
4.01796e-05
4.01875e-05
4.01968e-05
4.0207e-05
4.02173e-05
4.02267e-05
4.02347e-05
4.02407e-05
4.02444e-05
4.02458e-05
4.02448e-05
4.02416e-05
4.02366e-05
4.02302e-05
4.02223e-05
4.02132e-05
4.02029e-05
4.01917e-05
4.01798e-05
4.01676e-05
4.01553e-05
4.0143e-05
4.01309e-05
4.01192e-05
4.01079e-05
4.00967e-05
4.00863e-05
4.00764e-05
4.00662e-05
4.00556e-05
4.00447e-05
4.00334e-05
4.00216e-05
4.00093e-05
3.99961e-05
3.99821e-05
3.99669e-05
3.99502e-05
3.99319e-05
3.99116e-05
3.98891e-05
3.98639e-05
3.98356e-05
3.98041e-05
3.97696e-05
3.97326e-05
3.96928e-05
3.9649e-05
3.95996e-05
3.95458e-05
3.94925e-05
3.94456e-05
3.94059e-05
3.93715e-05
3.92936e-05
4.01324e-05
4.01243e-05
4.01193e-05
4.01175e-05
4.01183e-05
4.01204e-05
4.01228e-05
4.01243e-05
4.01238e-05
4.01215e-05
4.01181e-05
4.01143e-05
4.01109e-05
4.01089e-05
4.01088e-05
4.01106e-05
4.01147e-05
4.0121e-05
4.01287e-05
4.01371e-05
4.01461e-05
4.01548e-05
4.01625e-05
4.01688e-05
4.01734e-05
4.01762e-05
4.01772e-05
4.01764e-05
4.0174e-05
4.017e-05
4.01646e-05
4.0158e-05
4.01502e-05
4.01416e-05
4.01322e-05
4.01223e-05
4.0112e-05
4.01015e-05
4.00908e-05
4.00798e-05
4.00689e-05
4.00581e-05
4.00464e-05
4.0034e-05
4.00207e-05
4.00066e-05
3.99915e-05
3.99754e-05
3.9958e-05
3.99392e-05
3.99187e-05
3.98964e-05
3.98721e-05
3.98455e-05
3.98164e-05
3.97845e-05
3.97498e-05
3.97124e-05
3.96728e-05
3.96311e-05
3.95859e-05
3.95358e-05
3.94811e-05
3.94259e-05
3.93756e-05
3.93299e-05
3.92797e-05
3.92146e-05
3.90925e-05
4.01076e-05
4.00958e-05
4.00841e-05
4.0075e-05
4.00684e-05
4.0064e-05
4.00613e-05
4.00596e-05
4.00579e-05
4.00557e-05
4.00526e-05
4.00485e-05
4.00439e-05
4.00393e-05
4.00356e-05
4.00333e-05
4.00326e-05
4.00333e-05
4.00355e-05
4.00393e-05
4.00448e-05
4.00511e-05
4.00577e-05
4.00643e-05
4.00705e-05
4.00759e-05
4.008e-05
4.00828e-05
4.00843e-05
4.00843e-05
4.0083e-05
4.00802e-05
4.00761e-05
4.00707e-05
4.00643e-05
4.00568e-05
4.00486e-05
4.00397e-05
4.003e-05
4.00195e-05
4.00087e-05
3.99973e-05
3.99847e-05
3.99707e-05
3.99555e-05
3.9939e-05
3.99212e-05
3.99018e-05
3.98809e-05
3.98582e-05
3.98336e-05
3.98068e-05
3.97779e-05
3.97466e-05
3.97129e-05
3.96767e-05
3.96381e-05
3.95974e-05
3.95547e-05
3.95091e-05
3.94589e-05
3.94038e-05
3.9347e-05
3.92937e-05
3.92444e-05
3.91886e-05
3.91136e-05
3.90097e-05
3.88567e-05
4.00676e-05
4.00613e-05
4.00487e-05
4.00364e-05
4.00254e-05
4.00159e-05
4.00079e-05
4.00013e-05
3.99957e-05
3.99907e-05
3.99859e-05
3.99808e-05
3.99754e-05
3.99696e-05
3.99634e-05
3.99573e-05
3.99516e-05
3.9947e-05
3.99441e-05
3.99429e-05
3.9943e-05
3.99441e-05
3.99465e-05
3.99499e-05
3.99537e-05
3.99575e-05
3.9961e-05
3.99641e-05
3.99665e-05
3.99679e-05
3.99682e-05
3.99673e-05
3.99653e-05
3.99622e-05
3.99578e-05
3.99521e-05
3.99454e-05
3.99378e-05
3.99289e-05
3.9919e-05
3.99085e-05
3.9897e-05
3.98838e-05
3.98689e-05
3.98525e-05
3.98344e-05
3.98148e-05
3.97933e-05
3.97701e-05
3.97448e-05
3.97174e-05
3.96879e-05
3.96562e-05
3.96223e-05
3.95861e-05
3.95476e-05
3.95069e-05
3.94641e-05
3.94185e-05
3.93684e-05
3.93131e-05
3.9255e-05
3.91988e-05
3.91456e-05
3.90871e-05
3.90066e-05
3.88983e-05
3.8762e-05
3.86066e-05
4.00079e-05
4.00061e-05
3.99978e-05
3.99879e-05
3.99773e-05
3.99665e-05
3.99561e-05
3.99463e-05
3.99372e-05
3.99287e-05
3.99208e-05
3.99132e-05
3.99058e-05
3.98983e-05
3.98907e-05
3.98829e-05
3.98748e-05
3.98667e-05
3.98588e-05
3.98514e-05
3.98452e-05
3.98408e-05
3.98382e-05
3.98365e-05
3.98356e-05
3.98354e-05
3.9836e-05
3.98366e-05
3.9837e-05
3.98369e-05
3.98365e-05
3.98354e-05
3.98334e-05
3.98304e-05
3.98263e-05
3.98212e-05
3.98152e-05
3.9808e-05
3.97995e-05
3.97897e-05
3.97794e-05
3.97678e-05
3.97543e-05
3.97389e-05
3.97217e-05
3.97028e-05
3.96821e-05
3.96596e-05
3.9635e-05
3.96085e-05
3.95797e-05
3.95488e-05
3.95157e-05
3.94803e-05
3.94425e-05
3.94023e-05
3.93596e-05
3.93138e-05
3.92636e-05
3.92079e-05
3.91484e-05
3.90892e-05
3.90317e-05
3.89694e-05
3.8887e-05
3.87726e-05
3.86361e-05
3.84904e-05
3.83524e-05
3.99326e-05
3.99313e-05
3.99274e-05
3.99215e-05
3.9914e-05
3.99052e-05
3.98956e-05
3.98856e-05
3.98753e-05
3.9865e-05
3.98549e-05
3.9845e-05
3.98352e-05
3.98256e-05
3.98159e-05
3.98062e-05
3.97964e-05
3.97864e-05
3.97762e-05
3.97659e-05
3.97555e-05
3.97454e-05
3.97359e-05
3.97278e-05
3.97216e-05
3.97168e-05
3.97127e-05
3.97092e-05
3.97063e-05
3.97036e-05
3.97007e-05
3.96974e-05
3.96937e-05
3.96895e-05
3.96845e-05
3.96786e-05
3.96719e-05
3.96643e-05
3.96552e-05
3.96452e-05
3.96346e-05
3.96227e-05
3.96087e-05
3.95928e-05
3.95751e-05
3.95555e-05
3.95341e-05
3.95107e-05
3.94853e-05
3.94578e-05
3.9428e-05
3.93958e-05
3.93611e-05
3.93238e-05
3.92836e-05
3.92405e-05
3.91939e-05
3.91426e-05
3.90859e-05
3.90248e-05
3.89623e-05
3.89001e-05
3.88327e-05
3.8747e-05
3.86312e-05
3.84881e-05
3.83432e-05
3.82136e-05
3.81123e-05
3.98447e-05
3.98437e-05
3.98415e-05
3.98381e-05
3.98332e-05
3.9827e-05
3.98196e-05
3.98112e-05
3.98018e-05
3.97918e-05
3.97813e-05
3.97705e-05
3.97594e-05
3.97482e-05
3.97368e-05
3.97254e-05
3.97137e-05
3.97019e-05
3.96899e-05
3.96777e-05
3.96651e-05
3.96524e-05
3.96394e-05
3.96265e-05
3.96139e-05
3.96022e-05
3.95924e-05
3.95843e-05
3.9577e-05
3.95703e-05
3.95643e-05
3.95584e-05
3.95524e-05
3.9546e-05
3.95391e-05
3.95318e-05
3.95238e-05
3.95149e-05
3.95046e-05
3.94937e-05
3.94825e-05
3.94697e-05
3.94547e-05
3.94378e-05
3.94191e-05
3.93984e-05
3.93757e-05
3.93509e-05
3.93238e-05
3.92944e-05
3.92623e-05
3.92274e-05
3.91895e-05
3.91484e-05
3.91039e-05
3.90554e-05
3.90022e-05
3.89437e-05
3.88804e-05
3.88143e-05
3.87468e-05
3.86733e-05
3.85824e-05
3.84643e-05
3.832e-05
3.81681e-05
3.80421e-05
3.79444e-05
3.78674e-05
3.97547e-05
3.97512e-05
3.97475e-05
3.97435e-05
3.97389e-05
3.97335e-05
3.97273e-05
3.97201e-05
3.9712e-05
3.9703e-05
3.96933e-05
3.96828e-05
3.96717e-05
3.966e-05
3.96479e-05
3.96354e-05
3.96225e-05
3.96093e-05
3.95958e-05
3.95819e-05
3.95676e-05
3.9553e-05
3.9538e-05
3.95226e-05
3.95069e-05
3.9491e-05
3.94752e-05
3.94601e-05
3.94467e-05
3.94352e-05
3.94248e-05
3.9415e-05
3.94059e-05
3.9397e-05
3.93878e-05
3.93783e-05
3.93686e-05
3.93579e-05
3.93459e-05
3.93338e-05
3.93213e-05
3.93068e-05
3.92899e-05
3.9271e-05
3.92502e-05
3.92272e-05
3.92019e-05
3.91741e-05
3.91437e-05
3.91104e-05
3.90742e-05
3.90346e-05
3.89915e-05
3.89447e-05
3.88936e-05
3.88376e-05
3.87764e-05
3.87104e-05
3.86404e-05
3.85669e-05
3.84859e-05
3.83886e-05
3.82664e-05
3.81213e-05
3.79683e-05
3.78341e-05
3.7744e-05
3.76635e-05
3.7592e-05
3.96558e-05
3.96502e-05
3.96445e-05
3.96387e-05
3.96328e-05
3.96265e-05
3.96198e-05
3.96126e-05
3.96048e-05
3.95962e-05
3.95869e-05
3.95769e-05
3.95661e-05
3.95546e-05
3.95424e-05
3.95296e-05
3.95162e-05
3.95022e-05
3.94877e-05
3.94727e-05
3.94571e-05
3.9441e-05
3.94244e-05
3.94073e-05
3.93896e-05
3.93714e-05
3.93526e-05
3.93335e-05
3.93142e-05
3.92954e-05
3.92781e-05
3.92629e-05
3.92489e-05
3.92356e-05
3.92229e-05
3.92107e-05
3.91982e-05
3.91846e-05
3.91705e-05
3.91567e-05
3.9142e-05
3.91246e-05
3.91044e-05
3.9082e-05
3.90573e-05
3.90303e-05
3.90008e-05
3.89684e-05
3.8933e-05
3.88943e-05
3.88522e-05
3.88063e-05
3.87564e-05
3.87021e-05
3.86428e-05
3.85782e-05
3.85086e-05
3.84342e-05
3.83539e-05
3.8264e-05
3.81582e-05
3.80312e-05
3.78847e-05
3.77327e-05
3.75951e-05
3.74919e-05
3.74219e-05
3.73153e-05
3.71716e-05
3.95422e-05
3.95352e-05
3.95279e-05
3.95204e-05
3.95127e-05
3.95049e-05
3.94968e-05
3.94884e-05
3.94796e-05
3.94704e-05
3.94606e-05
3.94502e-05
3.94392e-05
3.94276e-05
3.94152e-05
3.94022e-05
3.93884e-05
3.9374e-05
3.93588e-05
3.9343e-05
3.93265e-05
3.93093e-05
3.92914e-05
3.92728e-05
3.92535e-05
3.92335e-05
3.92127e-05
3.91912e-05
3.91689e-05
3.9146e-05
3.91226e-05
3.90992e-05
3.90768e-05
3.90567e-05
3.9038e-05
3.90202e-05
3.90029e-05
3.89853e-05
3.89677e-05
3.89509e-05
3.89323e-05
3.89098e-05
3.88847e-05
3.88575e-05
3.88278e-05
3.87953e-05
3.876e-05
3.87216e-05
3.86799e-05
3.86347e-05
3.85855e-05
3.85319e-05
3.84737e-05
3.84104e-05
3.83416e-05
3.82672e-05
3.81869e-05
3.80987e-05
3.79986e-05
3.78828e-05
3.77498e-05
3.76025e-05
3.74512e-05
3.73125e-05
3.71955e-05
3.7101e-05
3.69915e-05
3.67757e-05
3.65091e-05
3.94075e-05
3.93996e-05
3.93912e-05
3.93824e-05
3.93733e-05
3.93639e-05
3.93542e-05
3.93442e-05
3.93339e-05
3.93232e-05
3.93121e-05
3.93005e-05
3.92885e-05
3.92758e-05
3.92626e-05
3.92487e-05
3.92341e-05
3.92188e-05
3.92028e-05
3.9186e-05
3.91685e-05
3.91501e-05
3.9131e-05
3.9111e-05
3.90901e-05
3.90683e-05
3.90457e-05
3.90221e-05
3.89975e-05
3.89719e-05
3.89453e-05
3.89177e-05
3.88891e-05
3.88599e-05
3.88307e-05
3.88033e-05
3.87779e-05
3.87529e-05
3.87296e-05
3.87071e-05
3.86813e-05
3.86516e-05
3.86196e-05
3.85853e-05
3.85486e-05
3.85095e-05
3.84674e-05
3.84218e-05
3.83725e-05
3.83191e-05
3.82612e-05
3.81984e-05
3.813e-05
3.80557e-05
3.79751e-05
3.7887e-05
3.7789e-05
3.76775e-05
3.75509e-05
3.74112e-05
3.72632e-05
3.71131e-05
3.69693e-05
3.68376e-05
3.67049e-05
3.65504e-05
3.63078e-05
3.59057e-05
3.53771e-05
3.92442e-05
3.92355e-05
3.92263e-05
3.92165e-05
3.92063e-05
3.91956e-05
3.91845e-05
3.9173e-05
3.9161e-05
3.91486e-05
3.91358e-05
3.91226e-05
3.91088e-05
3.90945e-05
3.90796e-05
3.90642e-05
3.9048e-05
3.90312e-05
3.90137e-05
3.89953e-05
3.89762e-05
3.89562e-05
3.89353e-05
3.89135e-05
3.88907e-05
3.88668e-05
3.8842e-05
3.8816e-05
3.87888e-05
3.87605e-05
3.87308e-05
3.86999e-05
3.86675e-05
3.86337e-05
3.85983e-05
3.85616e-05
3.85236e-05
3.84848e-05
3.84485e-05
3.84127e-05
3.83738e-05
3.83332e-05
3.82917e-05
3.82491e-05
3.82049e-05
3.81578e-05
3.81073e-05
3.80531e-05
3.79948e-05
3.79314e-05
3.78625e-05
3.77876e-05
3.77061e-05
3.7617e-05
3.75189e-05
3.74089e-05
3.72851e-05
3.71481e-05
3.70018e-05
3.68519e-05
3.67011e-05
3.65469e-05
3.63855e-05
3.62063e-05
3.59778e-05
3.56671e-05
3.52006e-05
3.45552e-05
3.38145e-05
3.90434e-05
3.90337e-05
3.90233e-05
3.90124e-05
3.9001e-05
3.89891e-05
3.89766e-05
3.89637e-05
3.89501e-05
3.89361e-05
3.89215e-05
3.89064e-05
3.88907e-05
3.88743e-05
3.88574e-05
3.88398e-05
3.88215e-05
3.88025e-05
3.87827e-05
3.87621e-05
3.87406e-05
3.87182e-05
3.86948e-05
3.86704e-05
3.8645e-05
3.86183e-05
3.85905e-05
3.85614e-05
3.8531e-05
3.84991e-05
3.84658e-05
3.84308e-05
3.83941e-05
3.83557e-05
3.83153e-05
3.82729e-05
3.82284e-05
3.81815e-05
3.81324e-05
3.80808e-05
3.80262e-05
3.7969e-05
3.79099e-05
3.78513e-05
3.77927e-05
3.7732e-05
3.76684e-05
3.76013e-05
3.7529e-05
3.74509e-05
3.73666e-05
3.7275e-05
3.71745e-05
3.70632e-05
3.69393e-05
3.68025e-05
3.66561e-05
3.65041e-05
3.63483e-05
3.61868e-05
3.60117e-05
3.58052e-05
3.55508e-05
3.52346e-05
3.4824e-05
3.42745e-05
3.35651e-05
3.27003e-05
3.17067e-05
3.87927e-05
3.87813e-05
3.87693e-05
3.87568e-05
3.87438e-05
3.87302e-05
3.87161e-05
3.87014e-05
3.86862e-05
3.86703e-05
3.86537e-05
3.86365e-05
3.86186e-05
3.86e-05
3.85806e-05
3.85605e-05
3.85396e-05
3.85179e-05
3.84952e-05
3.84716e-05
3.84471e-05
3.84215e-05
3.83948e-05
3.83669e-05
3.83378e-05
3.83074e-05
3.82756e-05
3.82424e-05
3.82075e-05
3.8171e-05
3.81328e-05
3.80926e-05
3.80504e-05
3.8006e-05
3.79593e-05
3.79101e-05
3.78582e-05
3.78035e-05
3.77456e-05
3.76844e-05
3.76195e-05
3.75506e-05
3.74773e-05
3.73994e-05
3.73165e-05
3.7229e-05
3.71386e-05
3.70471e-05
3.6952e-05
3.68511e-05
3.67432e-05
3.66262e-05
3.64978e-05
3.63575e-05
3.62075e-05
3.60512e-05
3.58903e-05
3.57205e-05
3.55304e-05
3.53058e-05
3.50302e-05
3.46866e-05
3.42515e-05
3.37114e-05
3.3117e-05
3.23684e-05
3.13722e-05
3.03696e-05
2.94612e-05
3.84728e-05
3.84591e-05
3.84448e-05
3.84301e-05
3.84148e-05
3.8399e-05
3.83826e-05
3.83656e-05
3.83479e-05
3.83296e-05
3.83105e-05
3.82907e-05
3.82701e-05
3.82487e-05
3.82264e-05
3.82032e-05
3.8179e-05
3.81539e-05
3.81277e-05
3.81004e-05
3.8072e-05
3.80423e-05
3.80113e-05
3.79789e-05
3.79451e-05
3.79097e-05
3.78727e-05
3.78339e-05
3.77933e-05
3.77506e-05
3.77057e-05
3.76586e-05
3.7609e-05
3.75568e-05
3.75016e-05
3.74434e-05
3.73819e-05
3.73169e-05
3.72479e-05
3.71747e-05
3.70968e-05
3.70139e-05
3.69254e-05
3.68308e-05
3.67296e-05
3.66212e-05
3.65049e-05
3.63801e-05
3.62459e-05
3.61028e-05
3.5954e-05
3.57977e-05
3.56348e-05
3.5469e-05
3.52982e-05
3.51151e-05
3.49075e-05
3.46561e-05
3.43489e-05
3.39775e-05
3.35163e-05
3.29509e-05
3.23365e-05
3.16699e-05
3.08619e-05
2.99055e-05
2.88795e-05
2.82517e-05
2.8015e-05
3.80526e-05
3.8036e-05
3.80188e-05
3.80011e-05
3.79828e-05
3.79638e-05
3.79443e-05
3.7924e-05
3.79031e-05
3.78814e-05
3.78589e-05
3.78355e-05
3.78112e-05
3.7786e-05
3.77598e-05
3.77325e-05
3.77041e-05
3.76745e-05
3.76437e-05
3.76115e-05
3.75779e-05
3.75429e-05
3.75063e-05
3.7468e-05
3.74279e-05
3.73859e-05
3.73419e-05
3.72957e-05
3.72472e-05
3.71962e-05
3.71426e-05
3.7086e-05
3.70264e-05
3.69635e-05
3.6897e-05
3.68265e-05
3.67519e-05
3.66727e-05
3.65886e-05
3.64991e-05
3.64036e-05
3.63016e-05
3.61925e-05
3.60756e-05
3.59501e-05
3.58152e-05
3.56699e-05
3.55132e-05
3.53441e-05
3.51624e-05
3.49655e-05
3.4754e-05
3.45488e-05
3.43346e-05
3.40894e-05
3.38005e-05
3.34603e-05
3.30408e-05
3.25254e-05
3.19519e-05
3.13458e-05
3.06903e-05
2.99475e-05
2.91359e-05
2.8308e-05
2.75725e-05
2.7129e-05
2.76152e-05
2.84908e-05
3.74804e-05
3.74602e-05
3.74392e-05
3.74176e-05
3.73953e-05
3.73723e-05
3.73485e-05
3.73239e-05
3.72985e-05
3.72721e-05
3.72449e-05
3.72166e-05
3.71873e-05
3.71568e-05
3.71252e-05
3.70923e-05
3.7058e-05
3.70223e-05
3.69851e-05
3.69463e-05
3.69057e-05
3.68634e-05
3.6819e-05
3.67726e-05
3.6724e-05
3.6673e-05
3.66195e-05
3.65632e-05
3.6504e-05
3.64417e-05
3.63759e-05
3.63065e-05
3.62332e-05
3.61556e-05
3.60733e-05
3.5986e-05
3.58932e-05
3.57945e-05
3.56895e-05
3.55773e-05
3.54573e-05
3.53287e-05
3.51908e-05
3.50426e-05
3.48832e-05
3.47113e-05
3.45257e-05
3.43251e-05
3.41079e-05
3.38716e-05
3.36114e-05
3.33272e-05
3.30282e-05
3.26833e-05
3.22624e-05
3.17685e-05
3.12264e-05
3.06543e-05
3.0082e-05
2.94485e-05
2.87455e-05
2.80159e-05
2.73486e-05
2.68269e-05
2.65633e-05
2.67937e-05
2.76093e-05
2.93653e-05
3.09838e-05
3.6667e-05
3.66418e-05
3.66158e-05
3.6589e-05
3.65613e-05
3.65327e-05
3.65032e-05
3.64727e-05
3.64411e-05
3.64085e-05
3.63747e-05
3.63396e-05
3.63032e-05
3.62655e-05
3.62262e-05
3.61854e-05
3.61429e-05
3.60986e-05
3.60525e-05
3.60043e-05
3.59539e-05
3.59013e-05
3.58462e-05
3.57884e-05
3.57278e-05
3.56642e-05
3.55973e-05
3.55269e-05
3.54527e-05
3.53744e-05
3.52917e-05
3.52042e-05
3.51115e-05
3.50132e-05
3.49088e-05
3.47977e-05
3.46793e-05
3.45534e-05
3.44189e-05
3.42749e-05
3.41205e-05
3.39547e-05
3.37763e-05
3.35841e-05
3.3376e-05
3.31499e-05
3.29037e-05
3.26349e-05
3.23386e-05
3.20066e-05
3.16313e-05
3.12076e-05
3.07365e-05
3.02166e-05
2.96449e-05
2.90575e-05
2.84973e-05
2.78898e-05
2.72681e-05
2.66882e-05
2.61837e-05
2.58518e-05
2.59302e-05
2.64082e-05
2.72975e-05
2.86461e-05
3.05537e-05
3.31571e-05
3.50558e-05
3.54503e-05
3.54181e-05
3.5385e-05
3.53509e-05
3.53157e-05
3.52794e-05
3.52419e-05
3.52032e-05
3.51631e-05
3.51217e-05
3.50787e-05
3.50342e-05
3.4988e-05
3.49401e-05
3.48902e-05
3.48384e-05
3.47844e-05
3.47282e-05
3.46695e-05
3.46082e-05
3.45442e-05
3.44772e-05
3.44071e-05
3.43335e-05
3.42563e-05
3.41751e-05
3.40897e-05
3.39996e-05
3.39047e-05
3.38043e-05
3.36982e-05
3.35858e-05
3.34665e-05
3.33398e-05
3.3205e-05
3.30613e-05
3.29084e-05
3.27449e-05
3.25694e-05
3.23808e-05
3.21775e-05
3.1958e-05
3.17201e-05
3.14604e-05
3.11754e-05
3.08618e-05
3.05165e-05
3.01339e-05
2.97068e-05
2.92328e-05
2.87156e-05
2.81597e-05
2.7594e-05
2.70705e-05
2.65371e-05
2.60392e-05
2.55969e-05
2.52055e-05
2.4949e-05
2.50414e-05
2.54653e-05
2.62378e-05
2.73572e-05
2.87953e-05
3.05357e-05
3.2615e-05
3.50883e-05
3.78564e-05
3.96455e-05
3.35255e-05
3.34833e-05
3.34402e-05
3.33958e-05
3.33501e-05
3.3303e-05
3.32544e-05
3.32043e-05
3.31525e-05
3.30989e-05
3.30434e-05
3.29859e-05
3.29263e-05
3.28644e-05
3.28002e-05
3.27334e-05
3.26639e-05
3.25915e-05
3.2516e-05
3.24371e-05
3.23548e-05
3.22686e-05
3.21784e-05
3.20838e-05
3.19844e-05
3.188e-05
3.17701e-05
3.16544e-05
3.15322e-05
3.14031e-05
3.12664e-05
3.11217e-05
3.09681e-05
3.08048e-05
3.06311e-05
3.0446e-05
3.02475e-05
3.00336e-05
2.98022e-05
2.9551e-05
2.92785e-05
2.89822e-05
2.86575e-05
2.83e-05
2.7908e-05
2.74861e-05
2.7041e-05
2.65658e-05
2.605e-05
2.55304e-05
2.51041e-05
2.47406e-05
2.4387e-05
2.40537e-05
2.38522e-05
2.39085e-05
2.42005e-05
2.47321e-05
2.55112e-05
2.65421e-05
2.7816e-05
2.93111e-05
3.09913e-05
3.28235e-05
3.48139e-05
3.70058e-05
3.93805e-05
4.16768e-05
4.29519e-05
3.03327e-05
3.02783e-05
3.02228e-05
3.0166e-05
3.01076e-05
3.00475e-05
2.99858e-05
2.99221e-05
2.98565e-05
2.97888e-05
2.97189e-05
2.96466e-05
2.95719e-05
2.94944e-05
2.94142e-05
2.93309e-05
2.92445e-05
2.91546e-05
2.90611e-05
2.89638e-05
2.88622e-05
2.87562e-05
2.86453e-05
2.85294e-05
2.84079e-05
2.82804e-05
2.81465e-05
2.80057e-05
2.78575e-05
2.77012e-05
2.75361e-05
2.73615e-05
2.71774e-05
2.69816e-05
2.67701e-05
2.65413e-05
2.62942e-05
2.60274e-05
2.57399e-05
2.54333e-05
2.51086e-05
2.47637e-05
2.44031e-05
2.40432e-05
2.3694e-05
2.3368e-05
2.30827e-05
2.28483e-05
2.26551e-05
2.25224e-05
2.25852e-05
2.28291e-05
2.32174e-05
2.37533e-05
2.44384e-05
2.52731e-05
2.62531e-05
2.73677e-05
2.86006e-05
2.99326e-05
3.13458e-05
3.28236e-05
3.4346e-05
3.59041e-05
3.75284e-05
3.92389e-05
4.09082e-05
4.2235e-05
4.2863e-05
2.49886e-05
2.49263e-05
2.48636e-05
2.47999e-05
2.47352e-05
2.46694e-05
2.46025e-05
2.45343e-05
2.44648e-05
2.43939e-05
2.43214e-05
2.42472e-05
2.41712e-05
2.40931e-05
2.4013e-05
2.39305e-05
2.38455e-05
2.37579e-05
2.36674e-05
2.35738e-05
2.3477e-05
2.33765e-05
2.32723e-05
2.3164e-05
2.30512e-05
2.29338e-05
2.28114e-05
2.26836e-05
2.25502e-05
2.24108e-05
2.22651e-05
2.21131e-05
2.19548e-05
2.17925e-05
2.16309e-05
2.14726e-05
2.132e-05
2.11745e-05
2.10426e-05
2.09371e-05
2.0851e-05
2.07568e-05
2.07171e-05
2.08798e-05
2.11255e-05
2.14356e-05
2.18099e-05
2.2251e-05
2.27595e-05
2.33321e-05
2.39653e-05
2.46554e-05
2.53952e-05
2.61764e-05
2.69903e-05
2.7828e-05
2.86802e-05
2.95377e-05
3.03931e-05
3.12437e-05
3.20942e-05
3.29537e-05
3.38115e-05
3.46459e-05
3.54449e-05
3.61561e-05
3.65682e-05
3.64622e-05
3.62421e-05
1.70237e-05
1.70328e-05
1.70585e-05
1.71057e-05
1.71711e-05
1.72497e-05
1.7337e-05
1.74298e-05
1.75258e-05
1.76234e-05
1.77214e-05
1.7819e-05
1.79156e-05
1.80109e-05
1.81044e-05
1.8196e-05
1.82856e-05
1.83732e-05
1.84586e-05
1.85419e-05
1.86232e-05
1.87027e-05
1.87802e-05
1.88558e-05
1.89307e-05
1.90042e-05
1.90736e-05
1.91476e-05
1.92345e-05
1.93356e-05
1.94519e-05
1.95843e-05
1.97331e-05
1.9899e-05
2.00826e-05
2.02844e-05
2.05047e-05
2.07434e-05
2.09999e-05
2.12742e-05
2.15653e-05
2.18694e-05
2.21831e-05
2.25055e-05
2.28328e-05
2.31594e-05
2.34794e-05
2.37862e-05
2.40736e-05
2.43357e-05
2.45674e-05
2.47656e-05
2.4929e-05
2.50593e-05
2.516e-05
2.52348e-05
2.52861e-05
2.53184e-05
2.53363e-05
2.5354e-05
2.54034e-05
2.55044e-05
2.55971e-05
2.55754e-05
2.53123e-05
2.4585e-05
2.31155e-05
2.08728e-05
1.86121e-05
1.45505e-05
1.46893e-05
1.48297e-05
1.49728e-05
1.51191e-05
1.52684e-05
1.54207e-05
1.55753e-05
1.57318e-05
1.58897e-05
1.60483e-05
1.62071e-05
1.63656e-05
1.65233e-05
1.66796e-05
1.68342e-05
1.69865e-05
1.71361e-05
1.72827e-05
1.74257e-05
1.75647e-05
1.76994e-05
1.78293e-05
1.79541e-05
1.80728e-05
1.8185e-05
1.82922e-05
1.83856e-05
1.84585e-05
1.85119e-05
1.85469e-05
1.85639e-05
1.85624e-05
1.8542e-05
1.85015e-05
1.84394e-05
1.83541e-05
1.82435e-05
1.81052e-05
1.79366e-05
1.77353e-05
1.74984e-05
1.72235e-05
1.69083e-05
1.65512e-05
1.61509e-05
1.57074e-05
1.52216e-05
1.46966e-05
1.4137e-05
1.35497e-05
1.29437e-05
1.23303e-05
1.17209e-05
1.11237e-05
1.05391e-05
9.96224e-06
9.39274e-06
8.80464e-06
8.20641e-06
7.53527e-06
6.9882e-06
6.35836e-06
6.12013e-06
6.07179e-06
5.89678e-06
5.47465e-06
4.93132e-06
5.00363e-06
4.05474e-05
4.05437e-05
4.05431e-05
4.05457e-05
4.05519e-05
4.05616e-05
4.05688e-05
4.05632e-05
4.05488e-05
4.05366e-05
4.0521e-05
4.05036e-05
4.04879e-05
4.04803e-05
4.04882e-05
4.04861e-05
4.04467e-05
4.04068e-05
4.03931e-05
4.04005e-05
4.03802e-05
4.03381e-05
4.03657e-05
4.0377e-05
4.03959e-05
4.03945e-05
4.03746e-05
4.03587e-05
4.03173e-05
4.03228e-05
4.03199e-05
4.03219e-05
4.03017e-05
4.02943e-05
4.02971e-05
4.0294e-05
4.02854e-05
4.02797e-05
4.02817e-05
4.02855e-05
4.03002e-05
4.03074e-05
4.03029e-05
4.03114e-05
4.03129e-05
4.03153e-05
4.03246e-05
4.03371e-05
4.03202e-05
4.03017e-05
4.03022e-05
4.03106e-05
4.03282e-05
4.03404e-05
4.03539e-05
4.03677e-05
4.03641e-05
4.03497e-05
4.03378e-05
4.05274e-05
4.05303e-05
4.05378e-05
4.05459e-05
4.05482e-05
4.05443e-05
4.05324e-05
4.0513e-05
4.04989e-05
4.04876e-05
4.0478e-05
4.04743e-05
4.04795e-05
4.04807e-05
4.04721e-05
4.04371e-05
4.04007e-05
4.03838e-05
4.03877e-05
4.03711e-05
4.03441e-05
4.03311e-05
4.03665e-05
4.03814e-05
4.03979e-05
4.03841e-05
4.03544e-05
4.03342e-05
4.02999e-05
4.03055e-05
4.03025e-05
4.03039e-05
4.02852e-05
4.02773e-05
4.02791e-05
4.02763e-05
4.02686e-05
4.02628e-05
4.02629e-05
4.02651e-05
4.02761e-05
4.02859e-05
4.02851e-05
4.02874e-05
4.02905e-05
4.02925e-05
4.02974e-05
4.0318e-05
4.0323e-05
4.03039e-05
4.02903e-05
4.02862e-05
4.02909e-05
4.02978e-05
4.03059e-05
4.03196e-05
4.03357e-05
4.03423e-05
4.03415e-05
4.05108e-05
4.05116e-05
4.05151e-05
4.05108e-05
4.05011e-05
4.04867e-05
4.04742e-05
4.04634e-05
4.04582e-05
4.04588e-05
4.04665e-05
4.04747e-05
4.04751e-05
4.04608e-05
4.04289e-05
4.03886e-05
4.03726e-05
4.03719e-05
4.03581e-05
4.03356e-05
4.03199e-05
4.0333e-05
4.03733e-05
4.03891e-05
4.03979e-05
4.03727e-05
4.03307e-05
4.03083e-05
4.02823e-05
4.02919e-05
4.02838e-05
4.02839e-05
4.02669e-05
4.02587e-05
4.02595e-05
4.02571e-05
4.025e-05
4.02441e-05
4.02429e-05
4.02437e-05
4.02509e-05
4.02611e-05
4.02643e-05
4.02643e-05
4.02658e-05
4.02675e-05
4.02697e-05
4.0289e-05
4.03098e-05
4.03113e-05
4.02919e-05
4.02752e-05
4.02662e-05
4.0264e-05
4.02656e-05
4.02707e-05
4.02808e-05
4.02908e-05
4.03044e-05
4.04651e-05
4.0458e-05
4.04555e-05
4.04495e-05
4.04424e-05
4.04364e-05
4.04341e-05
4.04368e-05
4.0446e-05
4.04602e-05
4.04667e-05
4.04627e-05
4.04437e-05
4.04107e-05
4.03732e-05
4.03513e-05
4.03456e-05
4.03396e-05
4.03207e-05
4.03053e-05
4.03103e-05
4.03461e-05
4.0381e-05
4.03948e-05
4.03914e-05
4.03512e-05
4.0304e-05
4.02816e-05
4.02635e-05
4.02732e-05
4.02631e-05
4.02618e-05
4.02463e-05
4.0238e-05
4.02379e-05
4.02358e-05
4.02293e-05
4.02233e-05
4.02211e-05
4.02208e-05
4.02248e-05
4.02335e-05
4.02394e-05
4.02402e-05
4.02401e-05
4.02406e-05
4.02414e-05
4.02507e-05
4.02748e-05
4.02955e-05
4.02969e-05
4.02786e-05
4.02598e-05
4.02467e-05
4.02389e-05
4.02354e-05
4.02359e-05
4.02394e-05
4.02461e-05
4.0412e-05
4.04058e-05
4.04056e-05
4.04056e-05
4.04075e-05
4.04125e-05
4.0422e-05
4.0436e-05
4.04479e-05
4.0449e-05
4.0437e-05
4.04119e-05
4.0378e-05
4.03484e-05
4.03265e-05
4.03167e-05
4.03109e-05
4.02998e-05
4.02858e-05
4.02859e-05
4.03115e-05
4.03597e-05
4.03872e-05
4.03944e-05
4.03736e-05
4.03157e-05
4.02744e-05
4.0254e-05
4.02425e-05
4.02502e-05
4.024e-05
4.02374e-05
4.02232e-05
4.02148e-05
4.02139e-05
4.02119e-05
4.02061e-05
4.02001e-05
4.0197e-05
4.01957e-05
4.01973e-05
4.02035e-05
4.02103e-05
4.0213e-05
4.02127e-05
4.0212e-05
4.02115e-05
4.02146e-05
4.02276e-05
4.02493e-05
4.02696e-05
4.02726e-05
4.02583e-05
4.02404e-05
4.02256e-05
4.02145e-05
4.02068e-05
4.02023e-05
4.02008e-05
4.03699e-05
4.03687e-05
4.03737e-05
4.03802e-05
4.03887e-05
4.03994e-05
4.04109e-05
4.04156e-05
4.04092e-05
4.03905e-05
4.03635e-05
4.03364e-05
4.0312e-05
4.0295e-05
4.02845e-05
4.02781e-05
4.02706e-05
4.02616e-05
4.02602e-05
4.02783e-05
4.03191e-05
4.03695e-05
4.03871e-05
4.03783e-05
4.03326e-05
4.02766e-05
4.02423e-05
4.02249e-05
4.02183e-05
4.02235e-05
4.02139e-05
4.02102e-05
4.01971e-05
4.01888e-05
4.01871e-05
4.01852e-05
4.018e-05
4.01739e-05
4.01701e-05
4.01681e-05
4.01679e-05
4.01714e-05
4.01775e-05
4.01816e-05
4.01824e-05
4.01812e-05
4.01797e-05
4.01794e-05
4.01841e-05
4.01962e-05
4.02132e-05
4.0228e-05
4.02311e-05
4.02218e-05
4.0209e-05
4.01965e-05
4.01853e-05
4.01758e-05
4.01686e-05
4.03328e-05
4.03322e-05
4.03385e-05
4.03447e-05
4.03505e-05
4.0354e-05
4.03522e-05
4.03429e-05
4.03268e-05
4.03064e-05
4.02856e-05
4.02683e-05
4.02555e-05
4.02472e-05
4.02414e-05
4.02363e-05
4.02315e-05
4.02319e-05
4.02457e-05
4.02775e-05
4.03221e-05
4.03609e-05
4.0363e-05
4.0334e-05
4.0283e-05
4.02356e-05
4.02074e-05
4.01937e-05
4.01904e-05
4.01934e-05
4.01844e-05
4.01797e-05
4.01676e-05
4.01593e-05
4.0157e-05
4.01551e-05
4.01503e-05
4.01444e-05
4.014e-05
4.01373e-05
4.01358e-05
4.01369e-05
4.01411e-05
4.01456e-05
4.01477e-05
4.01471e-05
4.01451e-05
4.01431e-05
4.01431e-05
4.01477e-05
4.01572e-05
4.01687e-05
4.01765e-05
4.01776e-05
4.01734e-05
4.0166e-05
4.01571e-05
4.01478e-05
4.01393e-05
4.02815e-05
4.02775e-05
4.02806e-05
4.02818e-05
4.02808e-05
4.02766e-05
4.02685e-05
4.02567e-05
4.02428e-05
4.02292e-05
4.02177e-05
4.02094e-05
4.02039e-05
4.02001e-05
4.01973e-05
4.0196e-05
4.0199e-05
4.02113e-05
4.02366e-05
4.02727e-05
4.03087e-05
4.03274e-05
4.03148e-05
4.02782e-05
4.02309e-05
4.01921e-05
4.01696e-05
4.01595e-05
4.01583e-05
4.01594e-05