/*--------------------------------*- C++ -*----------------------------------*\
| =========                 |                                                 |
| \\      /  F ield         | OpenFOAM: The Open Source CFD Toolbox           |
|  \\    /   O peration     | Version:  2312                                  |
|   \\  /    A nd           | Website:  www.openfoam.com                      |
|    \\/     M anipulation  |                                                 |
\*---------------------------------------------------------------------------*/
FoamFile
{
    version     2.0;
    format      ascii;
    arch        "LSB;label=32;scalar=64";
    class       volScalarField;
    location    "1300";
    object      p;
}
// * * * * * * * * * * * * * * * * * * * * * * * * * * * * * * * * * * * * * //

dimensions      [0 2 -2 0 0 0 0];

internalField   nonuniform List<scalar> 
76025
(
8.41183e-05
7.54114e-05
6.65819e-05
5.76349e-05
4.86481e-05
3.94934e-05
3.00598e-05
2.08375e-05
1.13403e-05
1.80451e-06
-7.80579e-06
-1.74667e-05
-2.71521e-05
-3.67607e-05
-4.65475e-05
-5.62735e-05
-6.59295e-05
-7.57161e-05
-8.54788e-05
-9.51067e-05
-0.00010465
-0.000114426
-0.00012398
-0.000133277
-0.000142463
-0.000151412
-0.000160483
-0.000169456
-0.000177875
-0.000186718
-0.000195404
-0.000203249
-0.000210828
-0.000218093
-0.00022523
-0.000232245
-0.000238804
-0.000245498
-0.0002514
-0.00025683
-0.000261828
-0.000266491
-0.000271186
-0.000274974
-0.000278424
-0.000281417
-0.000284249
-0.000286247
-0.000287605
-0.00028883
-0.000289718
-0.000289995
-0.000289712
-0.000288865
-0.000287443
-0.000284945
-0.000282665
-0.000279366
-0.000275674
-0.00027185
-0.000267519
-0.000262093
-0.000255799
-0.000249739
-0.000243095
-0.000234849
-0.000227442
-0.000219603
-0.000208164
8.52849e-05
7.61115e-05
6.69074e-05
5.75448e-05
4.80157e-05
3.83101e-05
2.85372e-05
1.86854e-05
8.71627e-06
-1.31657e-06
-1.13967e-05
-2.15023e-05
-3.16497e-05
-4.18378e-05
-5.20406e-05
-6.22298e-05
-7.24978e-05
-8.27046e-05
-9.29777e-05
-0.000103161
-0.000113379
-0.000123481
-0.000133427
-0.000143189
-0.000152858
-0.000162448
-0.000171941
-0.000181194
-0.00019029
-0.000199231
-0.000207901
-0.000216361
-0.000224528
-0.000232363
-0.000240063
-0.000247463
-0.000254561
-0.000261272
-0.000267471
-0.000273336
-0.000278818
-0.000283995
-0.000288785
-0.00029299
-0.000296821
-0.000300231
-0.000303243
-0.000305611
-0.000307473
-0.00030902
-0.000310188
-0.000310808
-0.000310855
-0.000310339
-0.000309223
-0.000307462
-0.000305356
-0.000302633
-0.000299431
-0.000295795
-0.000291696
-0.000286811
-0.000281197
-0.000275272
-0.000268848
-0.00026159
-0.000254241
-0.000246296
-0.000236749
8.58244e-05
7.6212e-05
6.65594e-05
5.6711e-05
4.6647e-05
3.64356e-05
2.61157e-05
1.5697e-05
5.20217e-06
-5.35431e-06
-1.59587e-05
-2.66124e-05
-3.73284e-05
-4.80917e-05
-5.88636e-05
-6.96587e-05
-8.0448e-05
-9.12241e-05
-0.000101985
-0.000112725
-0.000123397
-0.000133957
-0.000144401
-0.00015473
-0.000164949
-0.000175049
-0.000184978
-0.000194724
-0.000204293
-0.000213638
-0.000222778
-0.000231699
-0.000240328
-0.000248666
-0.000256726
-0.000264463
-0.000271846
-0.000278855
-0.000285492
-0.000291763
-0.000297642
-0.000303117
-0.000308175
-0.000312784
-0.000316961
-0.000320691
-0.000323973
-0.00032676
-0.00032907
-0.00033095
-0.000332396
-0.000333339
-0.000333743
-0.0003336
-0.000332904
-0.000331639
-0.000329885
-0.000327612
-0.000324825
-0.000321555
-0.000317762
-0.000313344
-0.000308309
-0.000302796
-0.000296807
-0.000290134
-0.000283072
-0.000275436
-0.000266679
8.60934e-05
7.59724e-05
6.57863e-05
5.53901e-05
4.4772e-05
3.39847e-05
2.30872e-05
1.21131e-05
1.07486e-06
-1.00318e-05
-2.12084e-05
-3.24522e-05
-4.37534e-05
-5.50929e-05
-6.64461e-05
-7.78004e-05
-8.9141e-05
-0.000100463
-0.000111755
-0.000123
-0.000134174
-0.000145258
-0.000156243
-0.00016711
-0.000177843
-0.000188428
-0.000198846
-0.000209082
-0.000219114
-0.000228927
-0.000238508
-0.000247834
-0.000256879
-0.000265626
-0.000274061
-0.000282168
-0.00028993
-0.000297335
-0.000304364
-0.000310995
-0.000317218
-0.000323029
-0.000328431
-0.000333408
-0.000337947
-0.000342043
-0.000345696
-0.000348886
-0.000351603
-0.000353859
-0.000355656
-0.000356966
-0.000357758
-0.000358017
-0.000357739
-0.000356924
-0.000355599
-0.000353768
-0.000351425
-0.000348576
-0.000345204
-0.000341269
-0.000336768
-0.000331768
-0.000326248
-0.000320125
-0.000313575
-0.00030642
-0.000298302
8.63159e-05
7.56419e-05
6.48943e-05
5.39264e-05
4.27306e-05
3.1357e-05
1.98745e-05
8.32193e-06
-3.29748e-06
-1.49931e-05
-2.67666e-05
-3.86074e-05
-5.04969e-05
-6.24158e-05
-7.43468e-05
-8.62759e-05
-9.81943e-05
-0.000110091
-0.000121952
-0.00013376
-0.000145498
-0.000157146
-0.000168687
-0.000180101
-0.000191371
-0.000202483
-0.000213419
-0.000224161
-0.00023469
-0.000244992
-0.000255048
-0.000264838
-0.000274345
-0.00028355
-0.000292437
-0.000300987
-0.000309182
-0.000317004
-0.000324433
-0.000331458
-0.000338075
-0.000344278
-0.000350067
-0.000355432
-0.000360361
-0.000364846
-0.000368882
-0.000372458
-0.000375566
-0.000378207
-0.000380379
-0.000382067
-0.000383251
-0.00038392
-0.00038407
-0.000383702
-0.000382827
-0.000381449
-0.000379568
-0.000377182
-0.000374284
-0.000370858
-0.000366906
-0.000362466
-0.000357469
-0.000351952
-0.000345979
-0.000339456
-0.000332269
8.64413e-05
7.51847e-05
6.38533e-05
5.22916e-05
4.04931e-05
2.85102e-05
1.64137e-05
4.24341e-06
-7.99755e-06
-2.03176e-05
-3.27163e-05
-4.51806e-05
-5.76917e-05
-7.02311e-05
-8.27836e-05
-9.53362e-05
-0.000107877
-0.000120392
-0.000132865
-0.000145279
-0.000157616
-0.000169856
-0.00018198
-0.000193971
-0.00020581
-0.000217481
-0.000228966
-0.000240248
-0.000251308
-0.00026213
-0.000272692
-0.000282975
-0.000292965
-0.000302644
-0.000311992
-0.000320989
-0.000329614
-0.000337854
-0.000345696
-0.000353133
-0.000360157
-0.000366762
-0.000372947
-0.000378705
-0.000384027
-0.000388904
-0.000393332
-0.000397305
-0.000400816
-0.000403861
-0.000406436
-0.000408531
-0.000410134
-0.000411235
-0.000411833
-0.000411927
-0.000411524
-0.000410628
-0.000409241
-0.00040736
-0.000404986
-0.000402113
-0.000398756
-0.000394912
-0.000390497
-0.000385645
-0.000380265
-0.000374439
-0.000368081
8.63625e-05
7.44925e-05
6.25443e-05
5.03534e-05
3.79145e-05
2.52833e-05
1.25331e-05
-2.93854e-07
-1.3193e-05
-2.61723e-05
-3.92315e-05
-5.23578e-05
-6.55319e-05
-7.87347e-05
-9.19496e-05
-0.000105162
-0.000118357
-0.00013152
-0.000144633
-0.000157679
-0.000170639
-0.000183495
-0.000196227
-0.000208819
-0.00022125
-0.000233504
-0.000245561
-0.000257404
-0.000269014
-0.000280371
-0.000291454
-0.000302247
-0.000312737
-0.000322906
-0.00033273
-0.00034219
-0.000351269
-0.000359955
-0.000368237
-0.000376108
-0.000383558
-0.000390581
-0.00039718
-0.000403349
-0.000409081
-0.00041437
-0.00041921
-0.000423597
-0.000427526
-0.000430991
-0.000433987
-0.000436509
-0.000438548
-0.000440099
-0.000441161
-0.000441736
-0.000441827
-0.00044144
-0.000440578
-0.000439242
-0.000437437
-0.000435169
-0.000432451
-0.00042924
-0.000425502
-0.000421377
-0.00041664
-0.00041157
-0.000405785
8.60358e-05
7.35179e-05
6.09156e-05
4.80566e-05
3.49375e-05
2.16179e-05
8.17524e-06
-5.34557e-06
-1.89392e-05
-3.26141e-05
-4.63705e-05
-6.01952e-05
-7.40678e-05
-8.79674e-05
-0.000101876
-0.000115776
-0.000129654
-0.000143493
-0.000157275
-0.000170983
-0.000184597
-0.000198099
-0.000211469
-0.00022469
-0.000237741
-0.000250604
-0.000263259
-0.000275687
-0.000287869
-0.000299785
-0.000311416
-0.000322746
-0.000333761
-0.000344441
-0.000354763
-0.000364708
-0.00037426
-0.000383409
-0.000392146
-0.000400463
-0.000408351
-0.000415807
-0.000422835
-0.00042943
-0.000435587
-0.000441301
-0.000446568
-0.000451383
-0.000455743
-0.000459644
-0.000463081
-0.00046605
-0.000468547
-0.000470571
-0.00047212
-0.000473198
-0.000473811
-0.000473962
-0.000473659
-0.00047291
-0.000471722
-0.000470109
-0.00046807
-0.000465552
-0.000462614
-0.000459304
-0.000455411
-0.000451254
-0.000445898
8.54304e-05
7.22274e-05
5.89331e-05
4.53674e-05
3.15291e-05
1.7482e-05
3.3075e-06
-1.09467e-05
-2.52744e-05
-3.96843e-05
-5.41767e-05
-6.87377e-05
-8.33456e-05
-9.79779e-05
-0.000112615
-0.00012724
-0.000141837
-0.000156388
-0.000170876
-0.000185282
-0.000199587
-0.00021377
-0.000227813
-0.000241695
-0.000255396
-0.000268896
-0.000282176
-0.000295216
-0.000307997
-0.000320496
-0.000332698
-0.000344586
-0.000356145
-0.000367354
-0.000378189
-0.000388634
-0.000398675
-0.000408304
-0.000417513
-0.000426293
-0.000434637
-0.000442543
-0.000450015
-0.000457053
-0.00046365
-0.000469804
-0.000475512
-0.000480771
-0.000485579
-0.000489932
-0.000493829
-0.000497266
-0.000500242
-0.000502758
-0.000504817
-0.000506423
-0.000507582
-0.000508304
-0.000508596
-0.000508473
-0.000507947
-0.000507032
-0.000505705
-0.000503971
-0.00050193
-0.000499552
-0.000496789
-0.000493827
-0.000489851
8.44825e-05
7.05542e-05
5.6528e-05
4.22151e-05
2.76169e-05
1.28008e-05
-2.14761e-06
-1.71778e-05
-3.22824e-05
-4.74701e-05
-6.27409e-05
-7.80801e-05
-9.34649e-05
-0.000108871
-0.000124279
-0.000139669
-0.000155024
-0.000170328
-0.000185561
-0.000200704
-0.000215735
-0.000230634
-0.000245381
-0.000259955
-0.000274335
-0.000288501
-0.000302433
-0.00031611
-0.000329513
-0.00034262
-0.000355414
-0.000367881
-0.000380004
-0.000391759
-0.000403126
-0.000414089
-0.000424639
-0.000434766
-0.000444463
-0.000453721
-0.000462535
-0.000470903
-0.000478835
-0.000486327
-0.000493378
-0.000499986
-0.000506149
-0.000511867
-0.000517137
-0.00052196
-0.000526333
-0.000530256
-0.000533732
-0.000536763
-0.000539354
-0.000541512
-0.000543246
-0.000544568
-0.000545493
-0.000546034
-0.000546208
-0.000546019
-0.000545459
-0.000544609
-0.000543507
-0.00054218
-0.00054068
-0.000539168
-0.000536834
8.31076e-05
6.84109e-05
5.36099e-05
3.85064e-05
2.31043e-05
7.47489e-06
-8.29214e-06
-2.41432e-05
-4.00696e-05
-5.60798e-05
-7.21735e-05
-8.83355e-05
-0.000104541
-0.000120765
-0.000136986
-0.000153183
-0.000169339
-0.000185435
-0.000201452
-0.000217367
-0.000233161
-0.000248811
-0.000264296
-0.000279595
-0.000294685
-0.000309547
-0.000324159
-0.000338501
-0.000352552
-0.00036629
-0.000379702
-0.000392771
-0.000405476
-0.000417797
-0.000429714
-0.000441214
-0.000452287
-0.000462927
-0.000473124
-0.000482873
-0.000492167
-0.000501011
-0.000509414
-0.000517374
-0.000524892
-0.000531967
-0.0005386
-0.00054479
-0.000550538
-0.000555844
-0.00056071
-0.000565138
-0.000569132
-0.000572698
-0.000575843
-0.000578578
-0.000580916
-0.00058287
-0.000584458
-0.000585696
-0.000586598
-0.000587172
-0.000587465
-0.000587561
-0.000587438
-0.000587272
-0.000586988
-0.000586809
-0.000586191
8.12168e-05
6.5705e-05
5.00827e-05
3.41416e-05
1.78882e-05
1.39809e-06
-1.52348e-05
-3.19538e-05
-4.87489e-05
-6.56283e-05
-8.25915e-05
-9.96223e-05
-0.000116695
-0.000133782
-0.00015086
-0.000167909
-0.000184908
-0.000201839
-0.00021868
-0.000235409
-0.000252003
-0.000268442
-0.000284701
-0.000300759
-0.000316593
-0.000332183
-0.000347505
-0.00036254
-0.000377265
-0.000391661
-0.000405713
-0.000419404
-0.000432711
-0.000445615
-0.000458098
-0.000470149
-0.000481761
-0.000492926
-0.000503637
-0.000513887
-0.000523675
-0.000533006
-0.000541892
-0.000550332
-0.000558328
-0.000565882
-0.000572995
-0.00057967
-0.000585907
-0.000591711
-0.000597084
-0.000602032
-0.000606562
-0.000610682
-0.000614404
-0.000617741
-0.000620708
-0.000623322
-0.000625599
-0.000627557
-0.000629217
-0.000630621
-0.000631838
-0.000632893
-0.000633855
-0.000634941
-0.000635872
-0.000637031
-0.000637066
7.87094e-05
6.23322e-05
4.58383e-05
2.90088e-05
1.18529e-05
-5.54921e-06
-2.30991e-05
-4.07366e-05
-5.84505e-05
-7.62487e-05
-9.41308e-05
-0.00011208
-0.000130068
-0.000148067
-0.00016605
-0.000183997
-0.000201885
-0.000219695
-0.000237404
-0.000254989
-0.000272426
-0.000289692
-0.000306764
-0.000323617
-0.00034023
-0.00035658
-0.000372644
-0.000388399
-0.000403825
-0.000418904
-0.00043362
-0.000447953
-0.00046188
-0.000475383
-0.000488449
-0.000501067
-0.000513231
-0.000524933
-0.000536167
-0.000546929
-0.000557218
-0.000567046
-0.000576423
-0.000585352
-0.000593834
-0.000601875
-0.000609477
-0.000616645
-0.000623382
-0.000629694
-0.000635587
-0.00064107
-0.000646152
-0.000650845
-0.000655164
-0.000659124
-0.000662742
-0.000666034
-0.000669021
-0.00067173
-0.000674203
-0.000676498
-0.000678639
-0.000680691
-0.000682811
-0.000685116
-0.00068737
-0.000690322
-0.000694132
7.54639e-05
5.81674e-05
4.07484e-05
2.2976e-05
4.86258e-06
-1.35068e-05
-3.20286e-05
-5.06391e-05
-6.93257e-05
-8.80962e-05
-0.00010695
-0.000125869
-0.000144825
-0.000163786
-0.000182725
-0.000201619
-0.000220445
-0.000239181
-0.000257804
-0.000276289
-0.000294611
-0.000312746
-0.000330668
-0.000348354
-0.00036578
-0.000382922
-0.000399757
-0.000416262
-0.000432415
-0.000448202
-0.000463602
-0.000478595
-0.00049316
-0.000507279
-0.000520942
-0.00053414
-0.000546866
-0.000559115
-0.00057088
-0.00058216
-0.000592958
-0.000603289
-0.000613164
-0.000622587
-0.000631563
-0.000640097
-0.000648195
-0.000655863
-0.000663108
-0.000669937
-0.000676361
-0.00068239
-0.000688038
-0.00069332
-0.000698252
-0.000702851
-0.000707133
-0.000711121
-0.000714846
-0.000718353
-0.000721688
-0.000724874
-0.000727947
-0.000731059
-0.000734272
-0.00073764
-0.000741003
-0.00074562
-0.000750452
7.1332e-05
5.30591e-05
3.46576e-05
1.58841e-05
-3.24595e-06
-2.26421e-05
-4.21953e-05
-6.1838e-05
-8.15557e-05
-0.000101356
-0.000121238
-0.000141184
-0.000161162
-0.000181141
-0.00020109
-0.000220983
-0.000240798
-0.000260511
-0.000280096
-0.000299528
-0.00031878
-0.000337827
-0.000356642
-0.0003752
-0.000393475
-0.000411445
-0.000429083
-0.000446367
-0.000463277
-0.000479795
-0.000495901
-0.000511572
-0.00052679
-0.000541539
-0.000555811
-0.000569598
-0.000582894
-0.000595694
-0.000607993
-0.000619793
-0.000631101
-0.000641938
-0.000652313
-0.000662231
-0.0006717
-0.000680728
-0.000689323
-0.000697493
-0.000705248
-0.0007126
-0.000719561
-0.000726145
-0.000732369
-0.00073825
-0.000743803
-0.000749047
-0.000754007
-0.000758717
-0.000763223
-0.00076756
-0.000771752
-0.000775831
-0.000779898
-0.000784052
-0.000788266
-0.000792666
-0.000797195
-0.000802959
-0.000808611
6.61415e-05
4.68315e-05
2.7387e-05
7.55094e-06
-1.26581e-05
-3.31439e-05
-5.37917e-05
-7.4529e-05
-9.53397e-05
-0.000116231
-0.000137202
-0.000158234
-0.000179294
-0.000200347
-0.000221361
-0.00024231
-0.000263167
-0.000283907
-0.000304505
-0.000324931
-0.00034516
-0.000365161
-0.000384909
-0.000404377
-0.000423538
-0.000442367
-0.000460838
-0.000478928
-0.000496619
-0.00051389
-0.000530719
-0.000547084
-0.000562968
-0.00057836
-0.00059325
-0.000607633
-0.000621503
-0.000634856
-0.000647691
-0.000660011
-0.000671832
-0.000683174
-0.000694047
-0.00070446
-0.000714421
-0.000723942
-0.000733033
-0.000741706
-0.000749973
-0.00075785
-0.000765352
-0.000772497
-0.000779302
-0.000785785
-0.000791965
-0.000797869
-0.000803532
-0.000808996
-0.000814289
-0.00081944
-0.000824491
-0.00082951
-0.000834573
-0.000839709
-0.000844937
-0.00085049
-0.000856336
-0.000863475
-0.000871563
5.96766e-05
3.92632e-05
1.87097e-05
-2.25597e-06
-2.3612e-05
-4.52563e-05
-6.70674e-05
-8.8968e-05
-0.00011094
-0.000132989
-0.000155116
-0.000177299
-0.000199505
-0.000221696
-0.000243839
-0.000265903
-0.000287862
-0.000309688
-0.000331353
-0.000352828
-0.000374084
-0.00039509
-0.000415818
-0.00043624
-0.000456327
-0.000476053
-0.000495391
-0.000514319
-0.000532817
-0.000550862
-0.00056843
-0.000585502
-0.000602063
-0.000618102
-0.000633614
-0.000648592
-0.000663031
-0.000676929
-0.000690289
-0.00070312
-0.000715443
-0.000727278
-0.000738637
-0.00074953
-0.00075997
-0.000769971
-0.000779546
-0.000788711
-0.000797483
-0.000805881
-0.000813923
-0.00082163
-0.000829021
-0.000836118
-0.000842946
-0.000849541
-0.000855931
-0.000862132
-0.000868187
-0.000874157
-0.000880091
-0.000886048
-0.000892084
-0.000898242
-0.000904622
-0.000911433
-0.000918607
-0.000927388
-0.000937018
5.17085e-05
3.01226e-05
8.39173e-06
-1.37726e-05
-3.63459e-05
-5.92195e-05
-8.22651e-05
-0.0001054
-0.000128602
-0.000151879
-0.000175229
-0.000198631
-0.00022205
-0.000245444
-0.000268778
-0.000292019
-0.000315137
-0.000338105
-0.000360892
-0.000383466
-0.000405796
-0.00042785
-0.000449598
-0.000471009
-0.000492055
-0.000512708
-0.00053294
-0.00055273
-0.000572054
-0.000590889
-0.000609211
-0.000627001
-0.000644248
-0.000660942
-0.000677077
-0.000692649
-0.000707653
-0.00072209
-0.000735968
-0.000749302
-0.000762119
-0.000774437
-0.000786269
-0.00079763
-0.000808536
-0.000819004
-0.000829051
-0.000838698
-0.000847965
-0.000856877
-0.000865457
-0.000873732
-0.000881727
-0.000889469
-0.000896989
-0.000904296
-0.000911388
-0.000918317
-0.000925161
-0.000931951
-0.000938743
-0.000945658
-0.000952756
-0.000960109
-0.000967823
-0.00097605
-0.000984719
-0.000995051
-0.00100597
4.18943e-05
1.90575e-05
-3.92986e-06
-2.73726e-05
-5.12436e-05
-7.54281e-05
-9.97898e-05
-0.00012424
-0.000148754
-0.000173337
-0.00019799
-0.00022269
-0.000247398
-0.000272072
-0.000296672
-0.000321163
-0.000345515
-0.000369694
-0.00039367
-0.000417409
-0.000440876
-0.000464039
-0.000486863
-0.000509318
-0.00053137
-0.000552989
-0.000574151
-0.00059483
-0.000615
-0.000634636
-0.000653716
-0.000672224
-0.000690151
-0.000707487
-0.000724227
-0.000740368
-0.000755909
-0.000770854
-0.000785217
-0.000799022
-0.000812297
-0.000825059
-0.000837325
-0.000849114
-0.000860448
-0.000871345
-0.000881828
-0.000891921
-0.000901651
-0.00091105
-0.000920152
-0.000928992
-0.000937604
-0.000946017
-0.000954227
-0.00096222
-0.000970048
-0.000977781
-0.000985409
-0.00099299
-0.00100072
-0.00100875
-0.00101711
-0.00102589
-0.00103517
-0.0010451
-0.00105553
-0.00106727
-0.00107916
2.99838e-05
5.81877e-06
-1.84991e-05
-4.3296e-05
-6.85426e-05
-9.41169e-05
-0.000119874
-0.000145718
-0.000171621
-0.000197588
-0.000223618
-0.000249689
-0.000275759
-0.000301782
-0.000327716
-0.000353522
-0.000379167
-0.000404615
-0.000429834
-0.000454785
-0.000479434
-0.000503744
-0.00052768
-0.000551209
-0.000574297
-0.000596914
-0.000619032
-0.000640624
-0.00066166
-0.000682116
-0.00070197
-0.000721209
-0.000739823
-0.000757803
-0.000775144
-0.000791844
-0.000807907
-0.000823341
-0.000838169
-0.000852421
-0.000866124
-0.000879297
-0.000891962
-0.000904144
-0.000915865
-0.00092715
-0.000938026
-0.000948524
-0.00095868
-0.000968533
-0.000978129
-0.000987511
-0.000996716
-0.00100574
-0.00101459
-0.00102333
-0.00103201
-0.00104054
-0.00104896
-0.00105752
-0.00106646
-0.00107583
-0.0010857
-0.00109618
-0.00110733
-0.00111919
-0.00113144
-0.00114434
-0.00115692
1.533e-05
-1.02573e-05
-3.60055e-05
-6.22547e-05
-8.89748e-05
-0.000116038
-0.000143291
-0.000170629
-0.000198022
-0.000225472
-0.00025298
-0.000280521
-0.000308052
-0.000335524
-0.00036289
-0.000390108
-0.000417141
-0.000443952
-0.000470503
-0.000496756
-0.00052267
-0.000548205
-0.000573322
-0.000597982
-0.000622151
-0.000645798
-0.000668892
-0.000691401
-0.000713298
-0.000734558
-0.000755163
-0.0007751
-0.000794359
-0.000812934
-0.00083082
-0.00084802
-0.000864539
-0.000880395
-0.000895616
-0.000910236
-0.000924278
-0.000937771
-0.000950743
-0.000963224
-0.000975243
-0.000986825
-0.000998005
-0.00100882
-0.00101933
-0.00102957
-0.00103959
-0.00104944
-0.00105914
-0.0010687
-0.00107824
-0.00108779
-0.00109725
-0.00110662
-0.00111614
-0.00112605
-0.00113647
-0.00114745
-0.00115911
-0.00117152
-0.00118459
-0.00119814
-0.00121163
-0.00122497
-0.0012372
-2.14298e-06
-2.92352e-05
-5.64832e-05
-8.42604e-05
-0.000112535
-0.00014117
-0.000170001
-0.000198914
-0.000227874
-0.000256884
-0.000285942
-0.000315025
-0.000344086
-0.000373073
-0.000401933
-0.000430622
-0.000459099
-0.000487323
-0.000515254
-0.000542851
-0.000570072
-0.000596876
-0.000623219
-0.000649062
-0.000674367
-0.000699097
-0.000723216
-0.000746689
-0.000769485
-0.000791582
-0.000812961
-0.000833608
-0.000853515
-0.000872677
-0.000891092
-0.000908769
-0.000925722
-0.000941978
-0.000957573
-0.000972534
-0.000986886
-0.00100066
-0.0010139
-0.00102664
-0.0010389
-0.00105073
-0.00106214
-0.00107319
-0.00108394
-0.00109448
-0.00110485
-0.00111508
-0.00112523
-0.00113542
-0.00114569
-0.00115595
-0.00116626
-0.00117685
-0.00118789
-0.00119941
-0.00121148
-0.00122422
-0.0012377
-0.00125181
-0.00126621
-0.00128046
-0.00129379
-0.00130587
-0.00131485
-2.38727e-05
-5.25957e-05
-8.1492e-05
-0.000110934
-0.000140895
-0.000171237
-0.000201785
-0.000232417
-0.000263088
-0.000293801
-0.000324554
-0.000355322
-0.000386057
-0.0004167
-0.000447195
-0.000477491
-0.000507543
-0.000537305
-0.00056673
-0.000595772
-0.000624382
-0.000652513
-0.000680122
-0.000707169
-0.000733615
-0.000759419
-0.000784542
-0.000808949
-0.000832608
-0.000855497
-0.000877595
-0.000898885
-0.000919358
-0.000939009
-0.000957841
-0.000975869
-0.00099312
-0.00100964
-0.00102546
-0.00104063
-0.00105517
-0.00106912
-0.00108251
-0.00109538
-0.00110777
-0.00111971
-0.00113123
-0.00114238
-0.00115322
-0.0011639
-0.0011745
-0.00118509
-0.00119579
-0.00120665
-0.00121761
-0.00122873
-0.00124029
-0.00125245
-0.0012651
-0.00127818
-0.00129175
-0.00130586
-0.00132043
-0.00133513
-0.00134943
-0.00136273
-0.0013742
-0.00138336
-0.00138831
-4.90633e-05
-7.94678e-05
-0.000110021
-0.000141162
-0.000172861
-0.000204964
-0.000237281
-0.000269679
-0.000302111
-0.000334576
-0.000367074
-0.000399579
-0.000432038
-0.000464389
-0.000496572
-0.000528533
-0.000560224
-0.000591596
-0.000622599
-0.000653181
-0.000683285
-0.000712854
-0.000741837
-0.000770183
-0.000797847
-0.000824783
-0.00085095
-0.000876313
-0.000900843
-0.000924515
-0.000947308
-0.000969207
-0.000990199
-0.00101028
-0.00102945
-0.00104774
-0.00106518
-0.00108183
-0.00109773
-0.00111296
-0.0011276
-0.00114171
-0.00115532
-0.00116841
-0.00118098
-0.00119306
-0.00120476
-0.00121615
-0.00122726
-0.00123816
-0.0012491
-0.00126021
-0.00127155
-0.0012831
-0.00129487
-0.0013071
-0.00131996
-0.00133336
-0.00134708
-0.00136096
-0.00137497
-0.00138899
-0.00140277
-0.00141595
-0.00142807
-0.00143859
-0.00144691
-0.00145249
-0.00145458
-8.15885e-05
-0.000113922
-0.000146446
-0.000179548
-0.00021322
-0.000247321
-0.000281652
-0.000316059
-0.000350485
-0.00038493
-0.000419396
-0.000453856
-0.00048825
-0.000522509
-0.000556559
-0.000590338
-0.000623792
-0.000656873
-0.000689531
-0.000721714
-0.000753367
-0.000784435
-0.000814856
-0.000844571
-0.000873521
-0.00090165
-0.000928909
-0.000955254
-0.00098065
-0.00100507
-0.00102848
-0.00105088
-0.00107224
-0.00109257
-0.00111187
-0.00113015
-0.00114743
-0.00116373
-0.00117913
-0.00119373
-0.00120771
-0.00122128
-0.00123458
-0.00124761
-0.00126018
-0.00127218
-0.00128379
-0.00129538
-0.00130694
-0.00131829
-0.00132976
-0.00134157
-0.00135357
-0.00136574
-0.00137818
-0.00139097
-0.00140406
-0.00141729
-0.00143037
-0.00144303
-0.00145503
-0.00146619
-0.0014764
-0.00148555
-0.00149343
-0.00149983
-0.00150446
-0.00150685
-0.0015068
-0.000116412
-0.00015055
-0.000184804
-0.000219728
-0.000255312
-0.000291377
-0.00032769
-0.000364083
-0.000400486
-0.000436897
-0.000473323
-0.00050974
-0.000546098
-0.000582325
-0.000618339
-0.000654062
-0.000689417
-0.000724333
-0.000758748
-0.000792605
-0.000825847
-0.000858418
-0.00089026
-0.000921315
-0.000951525
-0.000980839
-0.00100921
-0.00103659
-0.00106293
-0.00108821
-0.0011124
-0.00113548
-0.00115745
-0.0011783
-0.00119806
-0.00121674
-0.00123432
-0.00125079
-0.00126615
-0.00128047
-0.00129389
-0.00130672
-0.00131937
-0.00133213
-0.00134484
-0.00135703
-0.00136862
-0.00138022
-0.00139224
-0.00140444
-0.00141664
-0.00142893
-0.00144136
-0.00145374
-0.00146582
-0.00147743
-0.00148844
-0.00149869
-0.00150795
-0.001516
-0.00152272
-0.00152813
-0.0015324
-0.00153576
-0.00153842
-0.00154047
-0.00154189
-0.00154232
-0.00154145
-0.000168013
-0.000204423
-0.000241094
-0.000278368
-0.000316273
-0.000354695
-0.000393409
-0.000432225
-0.000471053
-0.000509872
-0.000548672
-0.000587418
-0.000626045
-0.000664485
-0.000702676
-0.000740563
-0.00077807
-0.000815107
-0.000851584
-0.000887418
-0.000922525
-0.000956827
-0.000990245
-0.00102271
-0.00105414
-0.00108448
-0.00111366
-0.00114162
-0.0011683
-0.00119371
-0.00121782
-0.00124063
-0.00126215
-0.00128244
-0.00130154
-0.00131951
-0.00133638
-0.00135217
-0.00136687
-0.00138052
-0.00139317
-0.00140498
-0.00141633
-0.00142781
-0.00143957
-0.00145129
-0.00146267
-0.00147392
-0.00148528
-0.0014967
-0.00150795
-0.0015188
-0.00152902
-0.00153834
-0.0015465
-0.00155328
-0.00155857
-0.00156233
-0.00156462
-0.00156558
-0.00156539
-0.00156429
-0.00156262
-0.00156086
-0.00155944
-0.00155857
-0.00155824
-0.00155803
-0.00155782
-0.00021051
-0.000248886
-0.000287273
-0.000326562
-0.000366638
-0.000407192
-0.000447975
-0.000488847
-0.000529764
-0.000570723
-0.000611718
-0.000652706
-0.000693587
-0.000734238
-0.000774563
-0.000814505
-0.000854024
-0.000893069
-0.000931565
-0.000969417
-0.00100653
-0.0010428
-0.00107816
-0.00111254
-0.00114588
-0.00117816
-0.00120929
-0.00123917
-0.00126766
-0.00129468
-0.00132016
-0.00134406
-0.0013664
-0.00138717
-0.00140644
-0.00142428
-0.00144079
-0.00145599
-0.00146997
-0.00148292
-0.00149498
-0.00150618
-0.00151657
-0.00152633
-0.00153558
-0.00154442
-0.00155281
-0.00156066
-0.00156789
-0.0015744
-0.00158005
-0.0015847
-0.00158824
-0.00159062
-0.00159186
-0.001592
-0.00159107
-0.00158909
-0.00158613
-0.00158242
-0.00157817
-0.00157353
-0.00156883
-0.00156466
-0.00156156
-0.00155974
-0.00155887
-0.00155828
-0.0015582
-0.000299706
-0.00034041
-0.000381987
-0.000424476
-0.000467709
-0.00051144
-0.00055538
-0.000599338
-0.000643269
-0.000687198
-0.000731122
-0.00077498
-0.000818686
-0.000862141
-0.000905218
-0.000947791
-0.000989759
-0.00103105
-0.00107158
-0.00111126
-0.00114995
-0.00118752
-0.00122383
-0.00125872
-0.00129206
-0.00132375
-0.00135373
-0.00138203
-0.00140867
-0.00143359
-0.00145672
-0.00147801
-0.00149739
-0.00151481
-0.00153024
-0.00154369
-0.00155519
-0.00156477
-0.00157255
-0.00157874
-0.00158356
-0.00158722
-0.00158991
-0.00159183
-0.00159324
-0.00159433
-0.00159527
-0.00159615
-0.00159702
-0.00159788
-0.00159869
-0.00159936
-0.00159977
-0.0015998
-0.00159934
-0.0015983
-0.00159662
-0.00159426
-0.0015912
-0.00158746
-0.00158305
-0.00157819
-0.00157319
-0.00156847
-0.00156437
-0.00156118
-0.00155887
-0.00155718
-0.00155587
3.02062e-05
3.49783e-05
4.04206e-05
4.63183e-05
5.26504e-05
5.95363e-05
6.71561e-05
7.53289e-05
8.39138e-05
9.29698e-05
0.0001027
0.000113093
0.000123757
0.000135371
0.000146545
0.000158578
0.000170286
0.000182659
0.000194889
0.000206972
0.000219621
0.000231084
0.000242338
0.000252392
0.000262029
0.000271238
0.000278969
0.000285376
0.000291155
0.000295597
0.000298058
0.000299301
0.000299591
0.000298918
0.000296163
0.000292134
0.000287252
0.000281
0.00027349
0.000265578
0.000256793
0.000247552
0.000237912
0.000228286
0.000217994
0.000208076
0.000197712
0.000187768
0.000177624
0.000167653
0.000158067
0.000148709
0.000139784
0.000131205
0.000123041
0.000114857
0.000107069
9.94816e-05
9.21487e-05
2.94931e-05
3.45083e-05
4.01187e-05
4.62149e-05
5.28701e-05
6.00941e-05
6.79427e-05
7.63852e-05
8.5391e-05
9.49804e-05
0.000105133
0.00011588
0.000127143
0.000138848
0.000151012
0.00016332
0.000176053
0.00018882
0.000201802
0.00021449
0.000227164
0.000239582
0.000251192
0.000261976
0.000272099
0.000281578
0.00028986
0.000296643
0.00030254
0.000307126
0.000309761
0.000311311
0.000311629
0.000310565
0.000307787
0.000303532
0.000298246
0.00029185
0.000284116
0.000275608
0.000266663
0.000257073
0.000246903
0.000236379
0.000225731
0.000215092
0.000204313
0.000193728
0.000183196
0.000172842
0.000162812
0.000153077
0.000143617
0.000134524
0.000125683
0.000117188
0.000109014
0.000101177
9.36476e-05
2.92997e-05
3.45453e-05
4.03354e-05
4.66607e-05
5.35713e-05
6.10877e-05
6.92168e-05
7.79634e-05
8.73411e-05
9.73451e-05
0.00010794
0.000119096
0.000130809
0.000143027
0.000155681
0.000168728
0.000182057
0.000195534
0.00020905
0.000222403
0.000235548
0.000248437
0.000260693
0.000272184
0.000282926
0.000292754
0.000301381
0.000308648
0.000314778
0.000319444
0.000322473
0.000324202
0.000324449
0.000323159
0.000320223
0.000315796
0.000310119
0.000303356
0.000295417
0.000286608
0.000277115
0.000266935
0.000256166
0.000245062
0.000233825
0.000222552
0.000211223
0.000200014
0.000188968
0.000178116
0.000167545
0.000157256
0.000147264
0.000137591
0.000128285
0.000119344
0.00011074
0.000102504
9.45982e-05
2.89832e-05
3.44446e-05
4.04852e-05
4.70796e-05
5.42812e-05
6.21082e-05
7.05728e-05
7.96813e-05
8.94424e-05
9.98558e-05
0.000110905
0.000122563
0.000134811
0.000147594
0.000160828
0.000174473
0.000188381
0.000202492
0.000216625
0.00023067
0.000244493
0.00025794
0.000270823
0.000282963
0.00029428
0.000304557
0.000313589
0.000321289
0.000327697
0.00033253
0.000335835
0.000337675
0.000337915
0.000336522
0.000333433
0.000328809
0.000322795
0.000315589
0.000307239
0.000297947
0.000287825
0.000277015
0.000265685
0.00025404
0.000242195
0.000230279
0.000218337
0.00020649
0.000194824
0.00018337
0.000172182
0.000161298
0.000150754
0.000140565
0.000130754
0.000121322
0.000112263
0.000103603
9.53037e-05
2.80793e-05
3.37692e-05
4.00764e-05
4.69694e-05
5.45005e-05
6.26833e-05
7.1535e-05
8.1064e-05
9.12747e-05
0.000102164
0.000113722
0.000125929
0.000138755
0.000152145
0.000166022
0.000180303
0.000194878
0.000209659
0.000224493
0.00023925
0.00025378
0.000267896
0.000281431
0.000294208
0.000306092
0.00031688
0.000326383
0.000334495
0.000341202
0.000346266
0.00034976
0.000351682
0.000351939
0.000350477
0.000347238
0.000342386
0.000336035
0.000328372
0.00031951
0.000309632
0.000298885
0.000287461
0.000275535
0.000263271
0.000250785
0.000238203
0.000225615
0.00021312
0.000200803
0.000188715
0.000176908
0.000165429
0.000154314
0.000143586
0.000133257
0.000123336
0.000113821
0.00010473
9.60132e-05
2.66375e-05
3.25611e-05
3.9136e-05
4.63305e-05
5.41989e-05
6.27545e-05
7.20158e-05
8.19935e-05
9.26916e-05
0.000104106
0.000116224
0.000129024
0.000142473
0.000156519
0.000171087
0.000186084
0.000201407
0.000216942
0.000232541
0.000248056
0.00026333
0.000278181
0.000292425
0.000305877
0.000318374