/*--------------------------------*- C++ -*----------------------------------*\
| =========                 |                                                 |
| \\      /  F ield         | OpenFOAM: The Open Source CFD Toolbox           |
|  \\    /   O peration     | Version:  2312                                  |
|   \\  /    A nd           | Website:  www.openfoam.com                      |
|    \\/     M anipulation  |                                                 |
\*---------------------------------------------------------------------------*/
FoamFile
{
    version     2.0;
    format      ascii;
    arch        "LSB;label=32;scalar=64";
    class       surfaceScalarField;
    location    "1300";
    object      phi;
}
// * * * * * * * * * * * * * * * * * * * * * * * * * * * * * * * * * * * * * //

dimensions      [0 3 -1 0 0 0 0];

oriented        oriented;

internalField   nonuniform List<scalar> 
116611
(
0.0010326
0.000448269
-0.00101677
-0.000464101
0.00104842
0.000445432
-0.000461253
0.00106395
0.00044223
-0.000457758
0.00107938
0.000438679
-0.00045411
0.00109489
0.000434978
-0.000450488
0.00111041
0.000430966
-0.000446484
0.00112572
0.000426729
-0.000442033
0.00114104
0.000422232
-0.000437559
0.00115578
0.000417302
-0.00043204
0.00117033
0.000411978
-0.000426526
0.0011847
0.000406295
-0.000420669
0.00119893
0.00040029
-0.000414519
0.00121272
0.000393903
-0.000407688
0.00122594
0.000387068
-0.000400292
0.00123863
0.000379735
-0.00039242
0.00125103
0.000372034
-0.000384443
0.00126326
0.000363816
-0.000376047
0.00127535
0.000355388
-0.000367475
0.00128695
0.000346345
-0.000357945
0.00129805
0.000336978
-0.000348078
0.00130876
0.000327033
-0.000337745
0.00131869
0.000316626
-0.000326554
0.00132794
0.000305624
-0.00031487
0.00133668
0.000294217
-0.00030296
0.00134492
0.000282318
-0.000290554
0.00135288
0.000269969
-0.00027793
0.00136023
0.000256997
-0.000264353
0.00136697
0.000243616
-0.000250356
0.0013738
0.000229852
-0.000236679
0.00137984
0.000215577
-0.000221613
0.00138516
0.000200805
-0.000206124
0.00139017
0.000185413
-0.000190423
0.00139437
0.00016949
-0.000173691
0.00139812
0.000153223
-0.000156976
0.00140135
0.00013635
-0.000139584
0.00140378
0.000119087
-0.000121517
0.00140623
0.000101393
-0.000103844
0.00140744
8.30446e-05
-8.42462e-05
0.00140822
6.42654e-05
-6.50499e-05
0.00140824
4.48891e-05
-4.49059e-05
0.00140764
2.52301e-05
-2.46296e-05
0.00140694
5.15034e-06
-4.44983e-06
0.00140501
-1.57659e-05
1.76873e-05
0.00140264
-3.69738e-05
3.9347e-05
0.0013994
-5.86896e-05
6.19303e-05
0.00139595
-8.06384e-05
8.40861e-05
0.00139153
-0.000103225
0.000107651
0.00138608
-0.000126092
0.000131539
0.00138022
-0.000149004
0.000154858
0.00137368
-0.000172215
0.000178764
0.00136622
-0.000195783
0.000203242
0.00135805
-0.000219464
0.00022763
0.00134906
-0.000243306
0.000252297
0.00133902
-0.000267316
0.000277357
0.00132743
-0.000291328
0.00030292
0.00131592
-0.000314739
0.000326249
0.00130266
-0.00033836
0.000351622
0.00128898
-0.000361419
0.000375093
0.0012747
-0.000384052
0.000398332
0.00125983
-0.000406101
0.00042097
0.00124346
-0.000428092
0.000444466
0.00122672
-0.000449177
0.000465918
0.00120953
-0.000469065
0.000486251
0.00119134
-0.000488223
0.000506417
0.00117193
-0.000506298
0.00052571
0.00115313
-0.000522562
0.000541356
0.00113428
-0.000538031
0.000556885
0.0011147
-0.000553049
0.000572622
-0.000563588
0.00109133
0.000586966
0.00101816
0.00043221
-0.0010021
0.00103401
0.000429587
0.00104962
0.000426622
0.00106498
0.000423318
0.00108027
0.000419681
0.00109544
0.000415799
0.00111055
0.000411624
0.0011256
0.000407173
0.00114047
0.000402441
0.00115508
0.000397367
0.00116943
0.000391937
0.00118358
0.000386149
0.00119749
0.000379991
0.00121109
0.000373465
0.00122425
0.00036658
0.00123704
0.00035924
0.00124937
0.000351483
0.00126147
0.000343286
0.00127315
0.000334669
0.00128454
0.000325592
0.00129549
0.000316076
0.00130601
0.000306116
0.00131595
0.000295684
0.00132537
0.000284797
0.00133425
0.000273431
0.00134268
0.000261545
0.00135048
0.000249192
0.00135775
0.000236351
0.00136459
0.000223011
0.0013709
0.000209262
0.00137672
0.00019499
0.00138198
0.000180151
0.00138662
0.000164851
0.00139076
0.000149083
0.00139427
0.000132839
0.00139724
0.000116115
0.00139972
9.8917e-05
0.00140152
8.12423e-05
0.00140272
6.30682e-05
0.0014032
4.44085e-05
0.0014031
2.53308e-05
0.00140238
5.86555e-06
0.00140085
-1.42284e-05
0.00139866
-3.47897e-05
0.00139573
-5.57579e-05
0.00139217
-7.70816e-05
0.00138774
-9.87961e-05
0.0013825
-0.000120847
0.0013766
-0.000143104
0.00136997
-0.000165585
0.0013625
-0.000188317
0.00135425
-0.000211213
0.00134517
-0.000234225
0.00133516
-0.000257306
0.0013242
-0.000280367
0.00131264
-0.000303182
0.00130012
-0.000325836
0.00128689
-0.000348187
0.00127294
-0.000370107
0.00125841
-0.000391568
0.00124295
-0.000412632
0.00122678
-0.000433009
0.00121014
-0.000452429
0.00119282
-0.000470904
0.00117489
-0.000488361
0.00115694
-0.000504611
0.00113867
-0.000519763
0.00111953
-0.000533907
-0.000543616
0.00109956
0.0010036
0.000416115
-0.00098751
0.00101954
0.00041365
0.00103529
0.00041087
0.00105082
0.000407787
0.00106612
0.000404382
0.00108125
0.00040067
0.00109622
0.000396654
0.00111106
0.000392334
0.00112578
0.000387728
0.00114032
0.000382821
0.00115466
0.000377598
0.00116877
0.000372037
0.00118264
0.000366124
0.00119625
0.000359854
0.0012096
0.00035323
0.00122261
0.000346229
0.00123526
0.000338833
0.00124753
0.000331017
0.00125943
0.000322775
0.00127092
0.000314095
0.00128202
0.00030498
0.00129271
0.000295427
0.00130296
0.000285429
0.00131277
0.000274986
0.00132211
0.000264092
0.00133093
0.00025273
0.00133922
0.000240897
0.00134698
0.000228589
0.00135419
0.000215804
0.00136091
0.000202547
0.0013671
0.000188801
0.00137269
0.000174555
0.00137772
0.000159826
0.00138217
0.000144628
0.00138604
0.000128965
0.00138933
0.000112829
0.00139202
9.62245e-05
0.00139412
7.91497e-05
0.00139558
6.16064e-05
0.00139639
4.36005e-05
0.00139654
2.51746e-05
0.00139603
6.37531e-06
0.00139482
-1.30115e-05
0.00139288
-3.28591e-05
0.00139023
-5.30983e-05
0.00138684
-7.37006e-05
0.0013827
-9.4652e-05
0.00137778
-0.000115924
0.00137212
-0.000137442
0.00136571
-0.000159178
0.00135852
-0.000181124
0.00135054
-0.000203234
0.00134176
-0.000225446
0.00133216
-0.000247705
0.00132172
-0.000269931
0.00131055
-0.000292012
0.00129861
-0.000313897
0.00128594
-0.000335517
0.00127261
-0.000356771
0.00125863
-0.000377596
0.00124395
-0.000397952
0.00122863
-0.00041768
0.00121276
-0.00043656
0.00119636
-0.000454507
0.0011795
-0.000471501
0.00116242
-0.000487528
0.00114499
-0.000502338
0.00112679
-0.000515705
-0.00052477
0.00110794
0.000989721
0.00040021
-0.000973816
0.00100558
0.000397794
0.00102134
0.000395111
0.00103695
0.000392174
0.00105237
0.000388963
0.00106758
0.000385457
0.00108258
0.00038165
0.00109739
0.000377533
0.001112
0.000373109
0.00112645
0.00036838
0.0011407
0.000363342
0.00115475
0.000357987
0.00116857
0.000352304
0.00118214
0.000346279
0.00119547
0.000339906
0.00120852
0.00033318
0.00122127
0.000326084
0.00123368
0.000318604
0.00124573
0.000310725
0.00125739
0.000302434
0.00126865
0.000293721
0.0012795
0.000284579
0.00128992
0.000275004
0.00129991
0.000264994
0.00130946
0.000254546
0.00131854
0.000243652
0.00132713
0.000232305
0.00133522
0.0002205
0.00134279
0.000208235
0.00134983
0.000195503
0.00135633
0.0001823
0.00136226
0.000168623
0.00136762
0.000154471
0.00137239
0.000139855
0.00137658
0.000124777
0.00138017
0.000109236
0.00138316
9.32348e-05
0.00138553
7.67775e-05
0.00138727
5.98741e-05
0.00138834
4.25214e-05
0.00138876
2.47576e-05
0.00138851
6.6265e-06
0.00138757
-1.20676e-05
0.00138591
-3.12024e-05
0.00138353
-5.07229e-05
0.00138043
-7.06014e-05
0.0013766
-9.08132e-05
0.001372
-0.000111329
0.00136666
-0.000132102
0.00136058
-0.000153098
0.00135374
-0.000174288
0.00134614
-0.000195633
0.00133777
-0.000217078
0.00132863
-0.000238565
0.00131873
-0.000260027
0.0013081
-0.000281382
0.00129676
-0.00030256
0.00128474
-0.000323496
0.00127208
-0.000344107
0.0012588
-0.000364321
0.00124491
-0.000384059
0.00123041
-0.000403184
0.00121538
-0.000421531
0.00119991
-0.000439036
0.00118409
-0.000455679
0.00116798
-0.000471419
0.0011514
-0.000485757
0.00113402
-0.000498329
-0.000506913
0.00111617
0.00097681
0.000384485
-0.000961085
0.000992494
0.00038211
0.00100812
0.000379482
0.00102367
0.000376628
0.00103909
0.000373539
0.00105436
0.000370195
0.00106943
0.000366577
0.00108429
0.000362671
0.00109894
0.000358464
0.00111337
0.00035395
0.00112758
0.000349126
0.00114158
0.000343989
0.00115535
0.000338533
0.00116888
0.00033275
0.00118216
0.000326631
0.00119517
0.000320169
0.0012079
0.000313353
0.00122033
0.000306174
0.00123243
0.000298621
0.00124419
0.000290681
0.00125556
0.000282344
0.00126654
0.000273599
0.00127711
0.000264439
0.00128725
0.000254858
0.00129694
0.00024485
0.00130619
0.00023441
0.00131496
0.000223532
0.00132325
0.000212212
0.00133104
0.000200445
0.00133831
0.000188228
0.00134506
0.000175556
0.00135125
0.000162427
0.00135688
0.00014884
0.00136194
0.000134798
0.00136641
0.000120304
0.00137029
0.000105358
0.00137356
8.99637e-05
0.00137621
7.41283e-05
0.00137822
5.78609e-05
0.00137959
4.11553e-05
0.0013803
2.40486e-05
0.00138034
6.58408e-06
0.0013797
-1.14247e-05
0.00137836
-2.98595e-05
0.0013763
-4.86717e-05
0.00137354
-6.78343e-05
0.00137005
-8.73214e-05
0.00136582
-0.000107104
0.00136087
-0.000127148
0.00135519
-0.000147417
0.00134878
-0.000167877
0.00134163
-0.000188487
0.00133375
-0.000209201
0.00132515
-0.00022996
0.00131583
-0.000250705
0.00130581
-0.000271367
0.00129513
-0.000291877
0.0012838
-0.000312169
0.00127186
-0.00033217
0.00125934
-0.0003518
0.00124625
-0.000370962
0.00123259
-0.000389531
0.00121846
-0.000407398
0.00120395
-0.000424529
0.00118913
-0.000440853
0.00117393
-0.000456216
0.00115815
-0.000469981
0.00114177
-0.00048195
-0.000490922
0.00112578
0.000964673
0.000368765
-0.000948953
0.000980283
0.000366499
0.000995802
0.000363964
0.00101123
0.000361197
0.00102657
0.000358206
0.00104178
0.000354981
0.00105685
0.000351511
0.00107174
0.000347779
0.00108643
0.000343772
0.0011009
0.000339476
0.00111515
0.000334881
0.00112916
0.00032998
0.00114292
0.000324767
0.00115644
0.000319234
0.0011697
0.000313375
0.00118268
0.000307183
0.00119539
0.000300649
0.00120779
0.000293765
0.00121989
0.000286523
0.00123166
0.000278913
0.00124308
0.000270926
0.00125413
0.000262553
0.00126478
0.000253785
0.00127502
0.000244615
0.00128484
0.000235035
0.00129421
0.000225038
0.00130312
0.000214619
0.00131156
0.000203773
0.00131951
0.000192494
0.00132696
0.00018078
0.00133389
0.000168627
0.00134028
0.000156032
0.00134613
0.000142994
0.00135141
0.000129515
0.00135612
0.000115595
0.00136024
0.000101237
0.00136376
8.64437e-05
0.00136667
7.12217e-05
0.00136895
5.55796e-05
0.00137059
3.95105e-05
0.00137159
2.30523e-05
0.00137193
6.24323e-06
0.0013716
-1.10953e-05
0.00137059
-2.88472e-05
0.00136889
-4.69678e-05
0.00136648
-6.54322e-05
0.00136338
-8.42159e-05
0.00135957
-0.000103291
0.00135504
-0.000122628
0.00134982
-0.000142191
0.00134389
-0.000161945
0.00133725
-0.000181851
0.00132991
-0.000201864
0.00132189
-0.000221932
0.00131318
-0.000241998
0.00130381
-0.000262
0.00129381
-0.000281876
0.0012832
-0.00030156
0.00127201
-0.00032098
0.00126026
-0.00034005
0.00124797
-0.000358668
0.00123517
-0.000376734
0.00122196
-0.000394185
0.00120841
-0.000410977
0.0011945
-0.000426946
0.00118012
-0.000441834
0.00116514
-0.000455003
0.00114982
-0.000466632
-0.000476187
0.00113509
0.000952994
0.000352923
-0.000937152
0.000968673
0.00035082
0.000984205
0.000348432
0.000999602
0.0003458
0.00101487
0.000342935
0.00103002
0.000339837
0.00104502
0.000336502
0.00105988
0.000332922
0.00107457
0.000329087
0.00108906
0.000324985
0.00110333
0.000320605
0.00111738
0.000315936
0.00113118
0.000310967
0.00114472
0.000305691
0.001158
0.000300099
0.001171
0.000294184
0.0011837
0.000287939
0.00119611
0.000281355
0.00120821
0.000274426
0.00121998
0.000267142
0.00123141
0.000259497
0.00124248
0.000251483
0.00125318
0.00024309
0.00126348
0.000234313
0.00127337
0.000225144
0.00128283
0.000215575
0.00129185
0.000205601
0.00130041
0.000195215
0.00130849
0.000184413
0.00131608
0.000173191
0.00132316
0.000161544
0.00132972
0.000149471
0.00133575
0.000136969
0.00134122
0.000124039
0.00134613
0.000110682
0.00135047
9.68997e-05
0.00135422
8.26936e-05
0.00135737
6.80718e-05
0.00135991
5.3041e-05
0.00136183
3.75942e-05
0.00136311
2.17704e-05
0.00136375
5.5989e-06
0.00136375
-1.10876e-05
0.00136307
-2.81758e-05
0.00136173
-4.56249e-05
0.00135971
-6.34122e-05
0.00135701
-8.15145e-05
0.00135362
-9.99061e-05
0.00134955
-0.000118558
0.0013448
-0.000137438
0.00133937
-0.000156512
0.00133326
-0.000175742
0.00132648
-0.000195085
0.00131904
-0.000214494
0.00131096
-0.000233915
0.00130225
-0.000253293
0.00129294
-0.000272566
0.00128305
-0.000291672
0.00127261
-0.000310534
0.00126162
-0.000329067
0.00125013
-0.000347179
0.0012382
-0.000364801
0.0012259
-0.000381885
0.00121325
-0.000398329
0.00120017
-0.000413866
0.00118657
-0.000428232
0.0011725
-0.000440935
0.00115852
-0.000452653
-0.000463014
0.00114535
0.000941648
0.000336955
-0.00092568
0.000957453
0.000335015
0.000973089
0.000332796
0.000988557
0.000330333
0.00100386
0.000327632
0.001019
0.000324694
0.00103399
0.000321517
0.00104881
0.000318097
0.00106347
0.000314432
0.00107794
0.000310512
0.00109221
0.000306331
0.00110627
0.000301877
0.0011201
0.000297142
0.00113367
0.000292115
0.00114699
0.000286787
0.00116002
0.00028115
0.00117276
0.000275196
0.0011852
0.000268915
0.00119733
0.000262301
0.00120912
0.000255346
0.00122058
0.000248043
0.00123168
0.000240384
0.00124241
0.000232361
0.00125275
0.000223969
0.0012627
0.0002152
0.00127222
0.000206047
0.00128132
0.000196504
0.00128997
0.000186566
0.00129816
0.000176227
0.00130586
0.000165483
0.00131308
0.000154329
0.00131979
0.000142764
0.00132597
0.000130785
0.00133162
0.000118391
0.00133672
0.000105583
0.00134126
9.23616e-05
0.00134522
7.87292e-05
0.0013486
6.46929e-05
0.00135138
5.02578e-05
0.00135356
3.54172e-05
0.00135512
2.0212e-05
0.00135606
4.65712e-06
0.00135637
-1.13971e-05
0.00135604
-2.78425e-05
0.00135505
-4.46416e-05
0.00135341
-6.17739e-05
0.00135112
-7.92178e-05
0.00134816
-9.69492e-05
0.00134454
-0.000114941
0.00134027
-0.000133163
0.00133534
-0.000151584
0.00132976
-0.000170166
0.00132355
-0.000188869
0.0013167
-0.000207648
0.00130924
-0.000226456
0.00130119
-0.000245238
0.00129256
-0.000263936
0.00128337
-0.000282486
0.00127365
-0.000300813
0.00126342
-0.000318839
0.00125274
-0.000336494
0.00124166
-0.000353727
0.00123024
-0.000370457
0.00121841
-0.000386502
0.0012061
-0.000401559
0.00119336
-0.000415487
0.00118046
-0.000428034
0.00116818
-0.000440378
-0.000451984
0.00115715
0.000930725
0.000320922
-0.000914692
0.000946623
0.000319118
0.000962366
0.000317052
0.000977942
0.000314757
0.000993341
0.000312234
0.00100856
0.000309477
0.00102359
0.000306482
0.00103844
0.000303247
0.00105311
0.000299768
0.00106758
0.000296041
0.00108185
0.000292059
0.00109591
0.000287818
0.00110974
0.000283308
0.00112334
0.000278521
0.00113668
0.000273449
0.00114974
0.000268082
0.00116253
0.000262413
0.00117501
0.000256432
0.00118718
0.000250132
0.00119902
0.000243504
0.00121052
0.000236541
0.00122167
0.000229236
0.00123245
0.000221581
0.00124285
0.00021357
0.00125285
0.000205196
0.00126245
0.000196453
0.00127162
0.000187334
0.00128035
0.000177834
0.00128863
0.000167947
0.00129644
0.00015767
0.00130377
0.000146998
0.00131061
0.000135928
0.00131694
0.000124458
0.00132274
0.000112586
0.00132801
0.000100313
0.00133274
8.7638e-05
0.0013369
7.4564e-05
0.0013405
6.10976e-05
0.00134351
4.72412e-05
0.00134594
3.29896e-05
0.00134777
1.83858e-05
0.001349
3.42576e-06
0.00134962
-1.20173e-05
0.00134962
-2.78407e-05
0.00134899
-4.40116e-05
0.00134772
-6.05114e-05
0.00134583
-7.73201e-05
0.00134329
-9.44153e-05
0.00134012
-0.000111772
0.00133632
-0.000129362
0.00133189
-0.000147154
0.00132684
-0.000165114
0.00132118
-0.000183205
0.00131491
-0.000201383
0.00130806
-0.000219603
0.00130063
-0.000237814
0.00129266
-0.00025596
0.00128415
-0.000273977
0.00127513
-0.000291798
0.00126565
-0.000309359
0.00125577
-0.000326609
0.00124552
-0.000343477
0.00123489
-0.000359827
0.00122382
-0.000375429
0.00121232
-0.000390066
0.00120065
-0.00040381
0.00118923
-0.000416622
0.00117873
-0.000429872
-0.000441755
0.0011685
0.000920391
0.000304882
-0.000904351
0.00093632
0.000303188
0.000952122
0.000301251
0.000967777
0.000299103
0.000983267
0.000296743
0.00099858
0.000294164
0.0010137
0.000291358
0.00102863
0.000288319
0.00104336
0.000285042
0.00105788
0.000281522
0.00107218
0.000277754
0.00108627
0.000273733
0.00110012
0.000269452
0.00111374
0.000264905
0.0011271
0.000260085
0.0011402
0.000254984
0.00115302
0.000249594
0.00116554
0.000243907
0.00117776
0.000237915
0.00118965
0.00023161
0.00120121
0.000224984
0.00121242
0.000218029
0.00122326
0.000210738
0.00123373
0.000203105
0.0012438
0.000195122
0.00125347
0.000186783
0.00126272
0.000178082
0.00127154
0.000169014
0.00127992
0.000159572
0.00128783
0.000149753
0.00129528
0.000139553
0.00130224
0.000128967
0.0013087
0.000117994
0.00131466
0.000106632
0.00132009
9.48797e-05
0.00132499
8.27377e-05
0.00132935
7.02074e-05
0.00133315
5.72952e-05
0.00133639
4.40007e-05
0.00133906
3.0321e-05
0.00134114
1.63017e-05
0.00134265
1.91514e-06
0.00134357
-1.29373e-05
0.00134389
-2.81593e-05
0.0013436
-4.37236e-05
0.0013427
-5.96132e-05
0.00134119
-7.58096e-05
0.00133907
-9.22921e-05
0.00133634
-0.000109037
0.00133299
-0.000126018
0.00132905
-0.000143207
0.0013245
-0.00016057
0.00131937
-0.000178072
0.00131366
-0.000195672
0.00130738
-0.000213329
0.00130056
-0.000230993
0.00129321
-0.000248609
0.00128536
-0.000266122
0.00127703
-0.000283476
0.0012683
-0.00030062
0.00125918
-0.000317494
0.00124969
-0.000333987
0.00123979
-0.000349923
0.00122948
-0.000365121
0.00121897
-0.000379558
0.00120864
-0.000393475
0.00119889
-0.000406876
0.00119
-0.00042098
-0.000432044
0.00118029
0.000910776
0.000288863
-0.000894756
0.000926698
0.000287267
0.000942509
0.000285439
0.000958194
0.000283417
0.000973735
0.000281202
0.000989116
0.000278784
0.00100432
0.000276155
0.00101933
0.000273307
0.00103414
0.000270232
0.00104874
0.000266925
0.00106312
0.000263378
0.00107726
0.000259587
0.00109117
0.000255544
0.00110483
0.000251244
0.00111824
0.00024668
0.00113138
0.000241846
0.00114424
0.000236735
0.0011568
0.000231339
0.00116907
0.000225651
0.00118101
0.000219664
0.00119263
0.000213369
0.0012039
0.000206759
0.00121481
0.000199828
0.00122535
0.000192567
0.0012355
0.00018497
0.00124525
0.000177031
0.00125459
0.000168742
0.0012635
0.000160099
0.00127198
0.000151096
0.00128001
0.000141728
0.00128757
0.00013199
0.00129466
0.00012188
0.00130125
0.000111394
0.00130736
0.000100531
0.00131295
8.9288e-05
0.00131802
7.76658e-05
0.00132256
6.56657e-05
0.00132656
5.32931e-05
0.00133002
4.05448e-05
0.00133292
2.74214e-05
0.00133525
1.39698e-05
0.00133703
1.35873e-07
0.00133824
-1.41453e-05
0.00133886
-2.87857e-05
0.0013389
-4.37638e-05
0.00133836
-5.90641e-05
0.00133722
-7.46697e-05
0.00133548
-9.05612e-05
0.00133316
-0.000106717
0.00133026
-0.000123112
0.00132677
-0.000139718
0.00132271
-0.000156507
0.00131808
-0.000173443
0.00131289
-0.00019049
0.00130717
-0.000207607
0.00130093
-0.000224748
0.00129418
-0.000241865
0.00128697
-0.00025891
0.00127933
-0.000275839
0.00127131
-0.000292596
0.0012629
-0.00030909
0.0012541
-0.000325185
0.00124492
-0.000340743
0.00123553
-0.000355727
0.00122627
-0.000370301
0.00121748
-0.000384681
0.00120928
-0.000398675
0.00120111
-0.000412818
-0.000421995
0.00119107
0.000901942
0.000272859
-0.000885939
0.000917848
0.000271361
0.000933648
0.000269639
0.000949331
0.000267734
0.000964885
0.000265648
0.000980293
0.000263376
0.00099554
0.000260908
0.00101061
0.000258236
0.00102549
0.000255354
0.00104016
0.000252252
0.00105462
0.000248924
0.00106884
0.000245362
0.00108282
0.00024156
0.00109656
0.000237511
0.00111003
0.000233208
0.00112323
0.000228646
0.00113615
0.000223816
0.00114877
0.000218713
0.0011611
0.00021333
0.0011731
0.000207659
0.00118478
0.000201693
0.00119611
0.000195425
0.00120709
0.000188848
0.0012177
0.000181956
0.00122793
0.00017474
0.00123777
0.000167194
0.0012472
0.000159312
0.00125621
0.000151088
0.00126479
0.000142517
0.00127292
0.000133592
0.0012806
0.00012431
0.00128782
0.000114667
0.00129455
0.000104659
0.0013008
9.42841e-05
0.00130655
8.35403e-05
0.00131179
7.24265e-05
0.00131651
6.09443e-05
0.0013207
4.90977e-05
0.00132437
3.6881e-05
0.00132749
2.43004e-05
0.00133006
1.13995e-05
0.0013321
-1.902e-06
0.00133358
-1.56284e-05
0.0013345
-2.97052e-05
0.00133485
-4.41157e-05
0.00133463
-5.88461e-05
0.00133384
-7.38808e-05
0.00133248
-8.92017e-05
0.00133056
-0.000104789
0.00132806
-0.000120618
0.00132501
-0.000136666
0.00132141
-0.000152902
0.00131726
-0.000169296
0.00131258
-0.000185814
0.00130739
-0.000202417
0.00130171
-0.000219064
0.00129556
-0.000235715
0.00128898
-0.00025233
0.001282
-0.00026886
0.00127463
-0.000285228
0.00126687
-0.000301329
0.00125875
-0.000317063
0.00125042
-0.000332409
0.00124217
-0.000347483
0.00123435
-0.000362474
0.00122699
-0.000377323
0.0012198
-0.000391487
0.00121171
-0.000404733
-0.000412105
0.00120182
0.000893903
0.000256856
-0.000877899
0.000909804
0.00025546
0.000925597
0.000253846
0.000941274
0.000252057
0.000956824
0.000250098
0.000972236
0.000247964
0.000987497
0.000245647
0.00100259
0.00024314
0.00101751
0.000240437
0.00103223
0.000237529
0.00104675
0.000234409
0.00106104
0.00023107
0.0010751
0.000227503
0.00108891
0.000223703
0.00110245
0.00021966
0.00111573
0.000215369
0.00112872
0.000210823
0.00114142
0.000206015
0.00115381
0.000200937
0.00116589
0.000195583
0.00117764
0.000189946
0.00118904
0.000184019
0.0012001
0.000177795
0.00121078
0.000171267
0.00122109
0.000164429
0.00123102
0.000157272
0.00124054
0.000149792
0.00124964
0.000141982
0.00125832
0.000133836
0.00126657
0.000125349
0.00127436
0.000116515
0.0012817
0.000107331
0.00128856
9.77927e-05
0.00129495
8.78972e-05
0.00130085
7.76422e-05
0.00130625
6.70261e-05
0.00131114
5.60506e-05
0.00131552
4.47173e-05
0.00131939
3.30188e-05
0.00132272
2.09696e-05
0.00132551
8.60196e-06
0.0013278
-4.18603e-06
0.00132954
-1.7372e-05
0.00133074
-3.09021e-05
0.00133139
-4.47631e-05
0.00133148
-5.89423e-05
0.00133103
-7.34255e-05
0.00133002
-8.8196e-05
0.00132847
-0.000103235
0.00132637
-0.000118522
0.00132374
-0.000134032
0.00132058
-0.00014974
0.0013169
-0.000165617
0.00131271
-0.00018163
0.00130804
-0.000197746
0.00130291
-0.00021393
0.00129734
-0.000230146
0.00129136
-0.000246351
0.00128498
-0.000262481
0.00127821
-0.000278456
0.00127108
-0.000294205
0.00126375
-0.000309727
0.00125646
-0.00032512
0.00124949
-0.000340514
0.0012429
-0.00035588
0.00123632
-0.000370747
0.00122916
-0.000384327
0.0012205
-0.000396076
-0.000401912
0.00121031
0.000886657
0.000240838
-0.00087064
0.00090257
0.000239547
0.000918371
0.000238044
0.000934053
0.000236375
0.000949606
0.000234545
0.000965021
0.000232549
0.000980288
0.00023038
0.000995394
0.000228034
0.00101033
0.000225503
0.00102508
0.00022278
0.00103963
0.00021986
0.00105396
0.000216733
0.00106807
0.000213394
0.00108194
0.000209834
0.00109556
0.000206045
0.0011089
0.000202022
0.00112197
0.000197756
0.00113475
0.000193239
0.00114722
0.000188466
0.00115937
0.000183429
0.0011712
0.00017812
0.00118268
0.000172533
0.00119382
0.000166661
0.00120459
0.000160497
0.00121498
0.000154033
0.00122499
0.000147264
0.0012346
0.000140182
0.0012438
0.000132781
0.00125258
0.000125056
0.00126093
0.000117
0.00126884
0.000108609
0.00127629
9.9877e-05
0.00128328
9.08006e-05
0.0012898
8.13763e-05
0.00129585
7.1601e-05
0.0013014
6.1473e-05
0.00130646
5.09936e-05
0.00131101
4.01613e-05
0.00131506
2.89691e-05
0.00131859
1.744e-05
0.00132161
5.58506e-06
0.00132412
-6.70261e-06
0.00132611
-1.93626e-05
0.00132758
-3.23624e-05
0.0013285
-4.56912e-05
0.0013289
-5.93376e-05
0.00132876
-7.32886e-05
0.00132809
-8.75289e-05
0.0013269
-0.000102041
0.00132519
-0.000116806
0.00132296
-0.000131802
0.00132022
-0.000147005
0.00131699
-0.000162388
0.00131328
-0.000177922
0.00130912
-0.000193578
0.00130451
-0.000209324
0.00129948
-0.000225121
0.00129405
-0.000240917
0.00128822
-0.000256653
0.00128205
-0.000272283
0.00127566
-0.000287819
0.00126928
-0.000303345
0.00126311
-0.000318944
0.00125714
-0.000334544
0.00125102
-0.000349766
0.00124414
-0.000363864
0.00123604
-0.000376229
0.00122648
-0.000386516
-0.000391739
0.00121631
0.00088022
0.0002248
-0.000864182
0.000896154
0.000223614
0.000911975
0.000222223
0.000927676
0.000220675
0.000943246
0.000218975
0.000958676
0.000217119
0.000973956
0.000215101
0.000989075
0.000212914
0.00100402
0.000210555
0.00101879
0.000208015
0.00103336
0.000205289
0.00104772
0.000202369
0.00106187
0.00019925
0.00107578
0.000195923
0.00108944
0.000192382
0.00110284
0.000188619
0.00111597
0.000184627
0.00112881
0.000180398
0.00114136
0.000175925
0.00115358
0.0001712
0.00116549
0.000166217
0.00117705
0.000160968
0.00118827
0.000155445
0.00119912
0.000149642
0.00120961
0.000143551
0.0012197
0.000137166
0.00122941
0.00013048
0.0012387
0.000123486
0.00124758
0.000116178
0.00125603
0.000108549
0.00126404
0.000100595
0.00127161
9.23102e-05
0.00127872
8.36894e-05
0.00128537
7.47292e-05
0.00129154
6.54257e-05
0.00129724
5.57773e-05
0.00130245
4.57841e-05
0.00130717
3.54412e-05
0.00131139
2.47456e-05
0.00131511
1.37255e-05
0.00131833
2.35775e-06
0.00132107
-9.4363e-06
0.00132329
-2.15853e-05
0.001325
-3.40715e-05
0.00132619
-4.68857e-05
0.00132687
-6.00179e-05
0.00132704
-7.3456e-05
0.0013267
-8.71862e-05
0.00132585
-0.000101193
0.0013245
-0.000115457
0.00132266
-0.000129961
0.00132033
-0.00014468
0.00131754
-0.000159592
0.00131429
-0.00017467
0.00131059
-0.000189886
0.00130648
-0.000205206
0.00130195
-0.000220591
0.00129702
-0.000235995
0.00129177
-0.000251396
0.0012863
-0.000266811
0.00128078
-0.000282303
0.00127535
-0.000297911
0.00126992
-0.000313517
0.00126413
-0.000328752
0.0012574
-0.000343039
0.00124932
-0.000355784
0.00124023
-0.000367141
0.00123084
-0.000377128
-0.000387737
0.00122684
0.000874626
0.000208742
-0.000858567
0.000890583
0.000207657
0.000906429
0.000206376
0.000922157
0.000204948
0.000937754
0.000203378
0.00095321
0.000201662
0.000968516
0.000199795
0.00098366
0.00019777
0.000998632
0.000195582
0.00101342
0.000193225
0.00102802
0.000190693
0.00104241
0.00018798
0.00105658
0.000185078
0.00107052
0.000181981
0.00108422
0.000178683
0.00109766
0.000175175
0.00111084
0.000171452
0.00112373
0.000167504
0.00113633
0.000163326
0.00114862
0.00015891
0.00116059
0.000154247
0.00117223
0.000149331
0.00118352
0.000144155
0.00119445
0.00013871
0.00120501
0.000132989
0.00121519
0.000126985
0.00122498
0.000120692
0.00123437
0.000114101
0.00124334
0.000107206
0.00125189
0.000100001
0.00126
9.24796e-05
0.00126768
8.46361e-05
0.0012749
7.64654e-05
0.00128167
6.79629e-05
0.00128797
5.91242e-05
0.0012938
4.99475e-05
0.00129915
4.0431e-05
0.00130402
3.05674e-05
0.00130841
2.03606e-05
0.0013123
9.83611e-06
0.00131572
-1.06777e-06
0.00131866
-1.2374e-05
0.0013211
-2.40261e-05
0.00132305
-3.60139e-05
0.00132449
-4.83299e-05
0.00132544
-6.09651e-05
0.00132589
-7.39086e-05
0.00132585
-8.71477e-05
0.00132533
-0.000100668
0.00132432
-0.000114453
0.00132284
-0.000128484
0.00132091
-0.000142741
0.00131852
-0.000157202
0.00131569
-0.000171842
0.00131243
-0.000186632
0.00130877
-0.000201542
0.00130472
-0.000216544
0.00130035
-0.000231625
0.00129576
-0.000246804
0.00129107
-0.000262116
0.00128631
-0.00027755
0.00128135
-0.000292947
0.00127578
-0.000307949
0.00126912
-0.000322088
0.00126111
-0.000335035
0.00125221
-0.000346886
0.00124381
-0.000358733
0.00123777
-0.00037109
-0.000388261
0.00123829
0.000869927
0.000192662
-0.000853847
0.000885907
0.000191677
0.00090178
0.000190504
0.000917535
0.000189193
0.000933162
0.000187751
0.00094865
0.000186174
0.000963989
0.000184456
0.000979167
0.000182592
0.000994173
0.000180576
0.001009
0.000178402
0.00102363
0.000176064
0.00103805
0.000173556
0.00105226
0.000170872
0.00106623
0.000168005
0.00107997
0.000164947
0.00109345
0.000161693
0.00110667
0.000158236
0.0011196
0.000154567
0.00113225
0.000150681
0.00114459
0.000146568
0.00115661
0.000142223
0.00116831
0.000137637
0.00117966
0.000132802
0.00119066
0.000127712
0.00120129
0.000122358
0.00121154
0.000116732
0.00122141
0.000110827
0.00123087
0.000104636
0.00123993
9.81517e-05
0.00124856
9.13666e-05
0.00125677
8.42741e-05
0.00126453
7.6868e-05
0.00127186
6.91425e-05
0.00127873
6.10921e-05
0.00128514
5.27121e-05
0.00129109
4.40002e-05
0.00129657
3.49515e-05
0.00130158
2.55585e-05
0.0013061
1.58344e-05
0.00131015
5.785e-06
0.00131375
-4.66818e-06
0.00131687
-1.54954e-05
0.00131951
-2.6665e-05
0.00132167
-3.81706e-05
0.00132335
-5.00056e-05
0.00132454
-6.21618e-05
0.00132526
-7.46294e-05
0.00132551
-8.73966e-05
0.00132529
-0.00010045
0.00132462
-0.000113774
0.00132349
-0.000127353
0.00132191
-0.000141166
0.0013199
-0.000155192
0.00131747
-0.00016941
0.00131463
-0.000183797
0.00131143
-0.000198338
0.00130791
-0.000213027
0.00130416
-0.00022787
0.00130022
-0.000242866
0.00129606
-0.000257957
0.00129146
-0.000272953
0.00128605
-0.000287529
0.00127943
-0.000301337
0.00127161
-0.000314265
0.00126325
-0.000326678
0.00125593
-0.000339559
0.00125174
-0.000354545
0.00125295
-0.000372305
-0.000397141
0.00126184
0.000866168
0.000176554
-0.000850061
0.000882176
0.00017567
0.000898076
0.000174603
0.00091386
0.000173408
0.000929519
0.000172092
0.000945041
0.000170652
0.000960415
0.000169082
0.000975631
0.000167377
0.000990676
0.000165531
0.00100554
0.000163538
0.00102021
0.000161394
0.00103468
0.000159091
0.00104893
0.000156623
0.00106295
0.000153985
0.00107672
0.000151168
0.00109025
0.000148168
0.00110351
0.000144975
0.00111649
0.000141585
0.00112918
0.000137989
0.00114157
0.00013418
0.00115365
0.00013015
0.00116539
0.000125891
0.0011768
0.000121397
0.00118785
0.000116658
0.00119854
0.000111668
0.00120886
0.000106417
0.00121878
0.000100899
0.00122831
9.5105e-05
0.00123744
8.90274e-05
0.00124615
8.26587e-05
0.00125443
7.59915e-05
0.00126228