/*--------------------------------*- C++ -*----------------------------------*\
| =========                 |                                                 |
| \\      /  F ield         | OpenFOAM: The Open Source CFD Toolbox           |
|  \\    /   O peration     | Version:  2312                                  |
|   \\  /    A nd           | Website:  www.openfoam.com                      |
|    \\/     M anipulation  |                                                 |
\*---------------------------------------------------------------------------*/
FoamFile
{
    version     2.0;
    format      ascii;
    arch        "LSB;label=32;scalar=64";
    class       volVectorField;
    location    "1300";
    object      U;
}
// * * * * * * * * * * * * * * * * * * * * * * * * * * * * * * * * * * * * * //

dimensions      [0 1 -1 0 0 0 0];

internalField   nonuniform List<vector> 
76025
(
(0.0370688 -0.00450392 0)
(0.0372491 -0.00452594 -3.95544e-22)
(0.0374282 -0.00454708 0)
(0.0376041 -0.00456145 0)
(0.0378019 -0.00457499 1.04929e-21)
(0.037998 -0.00456401 2.36822e-21)
(0.0382065 -0.00456681 -4.30106e-21)
(0.0384196 -0.00454867 1.88778e-21)
(0.0386223 -0.00453196 7.16703e-22)
(0.0388231 -0.00450438 -7.62358e-22)
(0.0390271 -0.00446994 3.20049e-23)
(0.0392357 -0.00442411 -2.58128e-21)
(0.0394456 -0.0043738 3.4203e-21)
(0.0396473 -0.00431321 0)
(0.0398315 -0.00423363 -9.89003e-22)
(0.0400238 -0.00416289 0)
(0.0402079 -0.00406456 0)
(0.040407 -0.00396984 0)
(0.0405997 -0.00385746 -1.12204e-21)
(0.0407881 -0.00374739 1.22059e-21)
(0.0409691 -0.00361855 1.26685e-21)
(0.0411424 -0.00348601 3.87483e-21)
(0.0413039 -0.00334223 -2.61925e-21)
(0.0414548 -0.00318503 -4.20981e-21)
(0.0415986 -0.00302304 -8.59754e-23)
(0.0417461 -0.0028551 -1.59241e-21)
(0.0418826 -0.00265936 4.58987e-21)
(0.0420218 -0.00246846 -4.63677e-21)
(0.042159 -0.00225602 1.58245e-21)
(0.0422939 -0.00202011 -1.62845e-21)
(0.0424171 -0.00180612 -1.68518e-21)
(0.0425365 -0.00157948 3.57269e-21)
(0.0426395 -0.00132596 -5.43051e-21)
(0.0427422 -0.00107622 -9.52733e-22)
(0.042836 -0.000803516 4.82715e-21)
(0.0429238 -0.000532061 2.07041e-23)
(0.0430082 -0.000237975 -9.92568e-22)
(0.0430817 6.40409e-05 5.32992e-22)
(0.0431434 0.000364038 2.32707e-23)
(0.0431931 0.000682123 -8.22352e-22)
(0.0432315 0.00100648 5.60941e-22)
(0.0432681 0.00134463 -2.82526e-22)
(0.0432959 0.00169449 5.62401e-22)
(0.0433083 0.00204774 -1.12298e-21)
(0.0433054 0.00241538 -1.14589e-21)
(0.0432949 0.0027915 2.19027e-21)
(0.0432773 0.00318025 2.26351e-21)
(0.0432368 0.00358136 -6.79223e-21)
(0.0431762 0.00399454 4.35696e-21)
(0.043107 0.00441689 -9.68152e-23)
(0.0430213 0.00485044 -1.10149e-20)
(0.0429137 0.00529687 -4.26601e-21)
(0.0427859 0.00575105 4.44446e-21)
(0.0426324 0.00622031 0)
(0.0424394 0.006698 -4.1677e-21)
(0.042218 0.00718932 -4.35115e-21)
(0.0419744 0.00768737 9.86116e-23)
(0.0416903 0.0082029 -4.18096e-21)
(0.041376 0.00873797 4.14303e-21)
(0.0410294 0.00930549 -1.21328e-20)
(0.040678 0.00981383 -8.41615e-21)
(0.0402501 0.0103843 -4.60442e-22)
(0.0397883 0.0109673 0)
(0.0392917 0.0115555 2.01858e-20)
(0.0387401 0.0121501 -7.57393e-21)
(0.0381381 0.0127506 4.02365e-21)
(0.0375202 0.0133776 -7.77052e-21)
(0.0368621 0.0139934 8.25219e-21)
(0.0361899 0.0146536 1.60668e-20)
(0.0369907 -0.00481264 -3.71962e-22)
(0.0371855 -0.00483862 -1.34524e-21)
(0.0373796 -0.00485948 1.73609e-21)
(0.0375722 -0.00487496 0)
(0.0377666 -0.00488381 -2.87376e-21)
(0.0379707 -0.00488384 -2.08805e-22)
(0.0381757 -0.00487636 2.50402e-21)
(0.0383904 -0.00486115 0)
(0.0386085 -0.0048387 3.32185e-23)
(0.0388261 -0.0048091 7.78878e-22)
(0.0390424 -0.00477119 -8.25066e-22)
(0.0392599 -0.00472469 4.00227e-23)
(0.0394783 -0.00466963 0)
(0.0396985 -0.00460532 0)
(0.0399161 -0.00453062 -2.15803e-21)
(0.0401248 -0.00444821 5.3158e-21)
(0.040333 -0.00435438 1.15356e-21)
(0.0405362 -0.00425242 -3.59815e-21)
(0.0407415 -0.00413943 2.39208e-21)
(0.0409422 -0.00401848 -1.24224e-21)
(0.0411429 -0.00388612 1.39443e-21)
(0.041339 -0.00374494 -2.68352e-21)
(0.0415283 -0.00359325 2.87615e-21)
(0.04171 -0.00343053 -4.41994e-21)
(0.0418837 -0.00325764 2.97777e-21)
(0.042051 -0.00307523 4.69704e-21)
(0.0422148 -0.00288169 -3.17848e-21)
(0.0423668 -0.00267778 0)
(0.0425149 -0.00246149 0)
(0.0426604 -0.00223344 -1.80799e-21)
(0.0427973 -0.00199937 0)
(0.0429273 -0.00175443 -1.91504e-21)
(0.0430517 -0.00149664 1.94191e-21)
(0.0431656 -0.00122803 -2.969e-21)
(0.0432739 -0.000946636 4.70245e-23)
(0.043373 -0.000655456 -1.02066e-21)
(0.043466 -0.00035036 0)
(0.0435512 -3.8724e-05 -2.2099e-21)
(0.0436243 0.000282464 1.70582e-21)
(0.0436862 0.000615168 -1.43764e-21)
(0.043737 0.00096072 8.90192e-22)
(0.0437788 0.00132177 -9.87015e-24)
(0.0438074 0.00168373 3.24261e-22)
(0.0438209 0.00205496 -3.01442e-22)
(0.0438203 0.00243747 2.4484e-21)
(0.0438064 0.00283382 -1.22887e-21)
(0.0437778 0.00323821 -1.25977e-21)
(0.0437297 0.00365064 2.32462e-21)
(0.0436626 0.00407904 7.10702e-21)
(0.0435797 0.00452082 -4.99906e-23)
(0.0434784 0.0049725 6.96121e-21)
(0.0433551 0.00543541 -2.32508e-21)
(0.043209 0.00590846 -6.81553e-21)
(0.0430379 0.0063904 4.5791e-21)
(0.0428385 0.00688007 0)
(0.042609 0.00739063 1.35686e-20)
(0.0423547 0.00790874 -2.1982e-24)
(0.0420677 0.00844189 -4.4632e-21)
(0.0417491 0.00898882 -4.55707e-21)
(0.041402 0.0095461 0)
(0.0410227 0.0101114 4.15727e-21)
(0.0405998 0.0106908 1.28511e-20)
(0.040138 0.0112828 0)
(0.0396387 0.0118855 -8.41313e-21)
(0.0390962 0.0124976 4.80272e-21)
(0.0385043 0.013129 -8.60886e-21)
(0.0378843 0.0137767 4.30648e-21)
(0.0372188 0.0144032 -8.36254e-21)
(0.0364694 0.0151129 -8.36322e-21)
(0.0368923 -0.00513307 2.04174e-21)
(0.0371044 -0.00515878 -1.20066e-21)
(0.0373153 -0.00517978 5.03249e-22)
(0.0375277 -0.00519589 -2.28004e-21)
(0.0377386 -0.00520459 2.87179e-21)
(0.0379515 -0.00520601 2.69229e-21)
(0.0381659 -0.00519845 -3.38808e-21)
(0.0383839 -0.00518283 0)
(0.0386069 -0.00515846 3.81812e-23)
(0.0388336 -0.00512564 0)
(0.039062 -0.00508413 9.21657e-22)
(0.0392912 -0.00503401 -9.27662e-22)
(0.0395206 -0.004975 -5.13263e-21)
(0.0397507 -0.00490656 4.09014e-21)
(0.0399821 -0.00482845 -1.07473e-21)
(0.0402116 -0.0047399 -3.47717e-21)
(0.040439 -0.00464198 1.1741e-21)
(0.0406623 -0.00453388 1.22159e-21)
(0.0408823 -0.00441632 3.98765e-21)
(0.0410988 -0.00428842 -2.65047e-21)
(0.0413119 -0.00415029 -1.43712e-21)
(0.0415213 -0.00400161 2.95719e-21)
(0.0417266 -0.00384218 -1.41614e-21)
(0.0419276 -0.0036713 -1.59376e-21)
(0.0421236 -0.00348904 0)
(0.0423129 -0.00329577 1.69957e-21)
(0.0424955 -0.00309228 1.71605e-21)
(0.0426704 -0.00287748 -1.67282e-21)
(0.0428376 -0.00265123 0)
(0.0429979 -0.00241421 3.74303e-21)
(0.0431515 -0.00216598 -1.97099e-21)
(0.0432972 -0.00190672 -9.34718e-23)
(0.0434341 -0.00163644 0)
(0.0435621 -0.00135395 1.02123e-21)
(0.0436815 -0.0010601 -3.21524e-21)
(0.0437919 -0.000754908 2.18479e-21)
(0.0438926 -0.000438364 0)
(0.0439835 -0.000111462 1.73696e-21)
(0.0440638 0.000227102 -1.79271e-21)
(0.0441326 0.000576887 -2.98595e-22)
(0.0441892 0.000939357 0)
(0.044234 0.00131501 -6.43073e-22)
(0.0442646 0.0016947 -3.22112e-22)
(0.0442805 0.00208398 3.05172e-22)
(0.0442813 0.00248407 -1.87891e-21)
(0.0442662 0.00289522 -1.30059e-21)
(0.0442348 0.00331606 2.46871e-21)
(0.0441851 0.0037478 -2.52249e-21)
(0.0441163 0.00419251 2.56092e-21)
(0.0440288 0.00464897 -2.4834e-21)
(0.0439216 0.00511578 -2.41658e-21)
(0.0437927 0.0055934 5.05021e-21)
(0.0436405 0.00608183 0)
(0.0434637 0.00658102 4.99179e-21)
(0.04326 0.00709185 1.26312e-22)
(0.043028 0.00761676 -4.81437e-21)
(0.0427685 0.00815314 -4.77499e-21)
(0.0424792 0.00870248 9.49385e-21)
(0.0421591 0.00926489 -1.24145e-22)
(0.0418078 0.00984047 4.82648e-21)
(0.0414243 0.0104257 -9.60772e-21)
(0.0410038 0.0110226 -4.92115e-21)
(0.0405432 0.0116344 -1.0502e-23)
(0.040042 0.01226 -4.6233e-21)
(0.0394999 0.0128989 -4.35786e-21)
(0.0389159 0.013548 -1.40729e-20)
(0.0383002 0.0142131 0)
(0.037619 0.0148695 -4.59464e-21)
(0.0368637 0.0156232 4.61199e-21)
(0.0367975 -0.00547586 0)
(0.0370183 -0.00550118 -4.60631e-22)
(0.0372422 -0.00552161 -2.73479e-21)
(0.0374705 -0.00553705 2.20315e-21)
(0.0377001 -0.00554536 2.04131e-21)
(0.0379298 -0.00554588 -3.35005e-21)
(0.0381598 -0.00553788 7.27579e-22)
(0.0383903 -0.00552123 -8.19384e-22)
(0.0386224 -0.00549558 -8.3341e-22)
(0.0388571 -0.00546072 -3.74627e-21)
(0.0390944 -0.00541649 3.77143e-21)
(0.0393336 -0.00536282 4.17449e-21)
(0.0395741 -0.00529963 -9.17054e-22)
(0.039815 -0.00522671 -4.48411e-21)
(0.0400565 -0.00514377 3.49419e-21)
(0.0402982 -0.00505042 -1.25788e-21)
(0.0405391 -0.00494684 1.31219e-21)
(0.0407781 -0.00483282 1.36654e-21)
(0.0410143 -0.00470851 -4.18368e-21)
(0.0412468 -0.00457371 1.34831e-21)
(0.0414752 -0.00442829 1.45908e-21)
(0.0416993 -0.00427189 0)
(0.0419189 -0.00410424 3.33009e-21)
(0.0421339 -0.0039251 -1.63854e-21)
(0.042344 -0.00373439 -3.46812e-21)
(0.0425485 -0.00353224 -3.63104e-21)
(0.0427467 -0.00331863 7.22037e-21)
(0.0429383 -0.00309331 -3.74734e-21)
(0.0431225 -0.00285638 0)
(0.043299 -0.00260785 -3.96952e-21)
(0.0434674 -0.00234783 -6.93716e-23)
(0.0436271 -0.00207666 4.1216e-21)
(0.0437773 -0.001794 -2.17549e-21)
(0.043918 -0.00149949 5.55588e-21)
(0.0440489 -0.00119325 -1.08612e-21)
(0.0441697 -0.000875333 0)
(0.0442799 -0.000545842 0)
(0.0443792 -0.000204667 6.28236e-22)
(0.0444668 0.00014823 6.14563e-22)
(0.0445419 0.000512252 3.30392e-22)
(0.0446037 0.000888373 -1.05866e-23)
(0.0446527 0.00127761 3.31155e-22)
(0.0446866 0.00167248 0)
(0.0447056 0.00207711 -3.22817e-23)
(0.0447085 0.00249273 0)
(0.0446949 0.00291961 1.28118e-21)
(0.0446639 0.00335773 9.50988e-24)
(0.0446145 0.00380722 -4.05336e-21)
(0.0445456 0.00426858 0)
(0.0444568 0.00474168 -2.64161e-21)
(0.0443474 0.00522604 2.6164e-21)
(0.044216 0.00572165 -5.09197e-21)
(0.0440613 0.00622854 0)
(0.0438819 0.0067468 -1.54971e-20)
(0.0436764 0.00727674 1.21625e-22)
(0.0434437 0.00781929 5.11086e-21)
(0.0431832 0.0083744 5.07352e-21)
(0.0428937 0.00894224 0)
(0.0425739 0.00952309 0)
(0.042223 0.0101167 -4.86832e-21)
(0.0418397 0.0107222 9.69039e-21)
(0.0414204 0.0113407 9.64826e-21)
(0.0409616 0.0119737 0)
(0.0404629 0.0126207 -1.01287e-20)
(0.0399266 0.0132811 0)
(0.0393511 0.0139512 1.44365e-20)
(0.0387355 0.0146414 -4.90827e-21)
(0.0380413 0.0153281 -4.90524e-21)
(0.0372755 0.0161116 -5.20385e-21)
(0.0367155 -0.0058429 0)
(0.0369415 -0.00586947 0)
(0.0371726 -0.00589035 -5.77511e-22)
(0.0374109 -0.00590557 2.61381e-21)
(0.0376537 -0.00591326 -3.29029e-21)
(0.037899 -0.00591265 7.21518e-22)
(0.0381456 -0.00590337 0)
(0.0383926 -0.00588509 8.34647e-22)
(0.0386399 -0.00585756 0)
(0.0388879 -0.00582054 2.00115e-21)
(0.0391369 -0.00577375 1.75503e-22)
(0.0393872 -0.00571694 -2.10353e-21)
(0.0396386 -0.00564993 0)
(0.0398906 -0.0055726 2.45472e-21)
(0.0401428 -0.00548478 -7.51988e-21)
(0.040395 -0.00538628 5.17317e-21)
(0.0406466 -0.00527697 -6.79505e-21)
(0.0408974 -0.00515673 1.39362e-21)
(0.0411463 -0.00502545 -1.51489e-21)
(0.0413927 -0.00488306 1.49881e-21)
(0.0416356 -0.00472944 1.60834e-21)
(0.0418744 -0.00456441 -4.92248e-21)
(0.0421085 -0.0043878 -3.40959e-21)
(0.0423376 -0.00419948 0)
(0.0425611 -0.00399934 3.68737e-21)
(0.0427788 -0.0037873 1.93963e-21)
(0.0429903 -0.0035633 -5.69285e-21)
(0.043195 -0.00332727 1.94259e-21)
(0.0433923 -0.00307919 -4.14243e-21)
(0.0435819 -0.00281908 6.21271e-21)
(0.0437631 -0.00254702 -2.21653e-21)
(0.0439353 -0.00226307 1.13864e-21)
(0.0440979 -0.00196712 0)
(0.0442505 -0.00165905 -1.1446e-21)
(0.0443926 -0.00133882 -1.1745e-21)
(0.0445239 -0.00100648 0)
(0.0446439 -0.000662137 1.29583e-21)
(0.0447518 -0.00030576 -1.93954e-21)
(0.0448471 6.26392e-05 1.31918e-21)
(0.044929 0.000442504 -6.81773e-22)
(0.0449971 0.000834895 -1.17008e-23)
(0.0450515 0.00124104 -5.46373e-22)
(0.04509 0.00165334 1.7759e-22)
(0.0451128 0.00207555 6.96187e-22)
(0.045119 0.00250882 2.96616e-23)
(0.0451078 0.00295334 4.24868e-21)
(0.0450786 0.00340908 0)
(0.0450306 0.00387604 2.74799e-21)
(0.0449629 0.00435445 -6.37104e-23)
(0.0448748 0.00484438 -2.78304e-21)
(0.0447657 0.00534571 0)
(0.0446344 0.00585837 -2.76961e-21)
(0.0444799 0.0063825 2.74618e-21)
(0.044301 0.00691829 5.3403e-21)
(0.0440966 0.0074661 0)
(0.0438654 0.00802644 -1.07054e-20)
(0.0436067 0.00859959 1.07806e-20)
(0.0433193 0.00918566 -1.07274e-20)
(0.0430021 0.00978482 -1.46335e-22)
(0.0426541 0.0103971 0)
(0.0422732 0.0110226 -5.29033e-21)
(0.0418564 0.0116621 5.12444e-21)
(0.0414013 0.0123164 5.54833e-21)
(0.0409084 0.0129848 1.02012e-20)
(0.0403795 0.0136672 -1.59811e-20)
(0.0398095 0.0143606 1.04442e-20)
(0.0391899 0.0150775 -5.22808e-21)
(0.0384849 0.0157954 5.54513e-21)
(0.0377276 0.0166059 1.54127e-20)
(0.0366354 -0.00623443 2.04543e-21)
(0.0368724 -0.00626298 2.67368e-22)
(0.0371126 -0.00628518 -2.31019e-21)
(0.0373596 -0.00630105 0)
(0.0376122 -0.00630863 7.11179e-22)
(0.0378692 -0.00630721 0)
(0.0381293 -0.0062965 -1.77315e-21)
(0.0383916 -0.00627627 -1.35393e-22)
(0.038655 -0.00624634 2.88316e-21)
(0.0389191 -0.00620652 -1.06294e-21)
(0.0391836 -0.00615657 -1.07098e-21)
(0.0394483 -0.0060962 -1.18716e-21)
(0.0397132 -0.00602514 0)
(0.0399782 -0.00594319 0)
(0.0402429 -0.00585016 1.30623e-21)
(0.0405071 -0.0057459 1.36457e-21)
(0.0407705 -0.00563027 -2.97779e-21)
(0.0410326 -0.00550315 2.96794e-21)
(0.0412932 -0.00536442 3.155e-21)
(0.0415514 -0.00521395 -3.33259e-21)
(0.0418067 -0.00505165 6.69428e-21)
(0.0420584 -0.0048774 3.77394e-23)
(0.0423057 -0.0046911 -3.65322e-21)
(0.0425481 -0.00449264 -1.92018e-21)
(0.0427849 -0.00428194 -3.92303e-21)
(0.0430156 -0.00405893 3.92569e-21)
(0.0432397 -0.00382356 4.16064e-21)
(0.0434568 -0.00357578 -4.16824e-21)
(0.0436662 -0.00331557 0)
(0.0438674 -0.00304293 0)
(0.04406 -0.00275787 5.74028e-21)
(0.0442433 -0.00246042 1.07926e-22)
(0.0444168 -0.00215057 -2.39438e-21)
(0.0445798 -0.0018283 -2.50665e-21)
(0.0447319 -0.00149361 2.52266e-21)
(0.0448726 -0.00114656 0)
(0.0450012 -0.000787274 -1.30749e-21)
(0.0451172 -0.000415701 -2.08482e-21)
(0.04522 -3.17958e-05 1.39493e-21)
(0.0453088 0.000363846 -1.73352e-23)
(0.0453833 0.000772251 -1.15705e-22)
(0.0454434 0.00119448 5.56538e-22)
(0.045487 0.00162298 3.86632e-22)
(0.0455145 0.00206162 7.56453e-22)
(0.045525 0.00251145 -3.72368e-21)
(0.0455178 0.00297262 2.86443e-23)
(0.0454922 0.00344517 0)
(0.0454475 0.00392916 -3.05282e-21)
(0.045383 0.00442471 8.91181e-21)
(0.0452978 0.00493191 -5.97554e-21)
(0.0451913 0.00545076 -2.94823e-21)
(0.0450626 0.00598127 -8.2492e-23)
(0.0449106 0.00652357 -2.84877e-21)
(0.0447342 0.00707785 -1.71731e-23)
(0.0445325 0.00764441 5.76801e-21)
(0.0443045 0.00822359 -5.90083e-21)
(0.0440491 0.00881568 -5.72441e-21)
(0.0437654 0.00942088 1.13881e-20)
(0.0434522 0.0100394 -1.41485e-22)
(0.0431081 0.0106716 5.64527e-21)
(0.0427307 0.0113179 -5.62331e-21)
(0.0423176 0.011979 5.45804e-21)
(0.0418678 0.0126549 -1.08792e-20)
(0.0413827 0.0133451 -5.56734e-21)
(0.0408604 0.0140502 1.08292e-20)
(0.0402914 0.0147687 -5.86732e-21)
(0.0396642 0.0155139 -1.6985e-20)
(0.0389524 0.0162606 -5.26136e-21)
(0.038215 0.0170887 0)
(0.0365425 -0.00665204 0)
(0.0367979 -0.00668248 5.97951e-22)
(0.0370538 -0.00670619 -3.38732e-23)
(0.0373144 -0.00672309 0)
(0.0375792 -0.00673101 0)
(0.0378479 -0.00672919 8.7061e-22)
(0.0381203 -0.00671732 -2.8379e-21)
(0.0383957 -0.00669521 3.91561e-21)
(0.0386734 -0.00666272 -1.96264e-21)
(0.0389529 -0.00661976 1.08205e-21)
(0.0392334 -0.00656613 0)
(0.0395142 -0.0065016 1.20784e-21)
(0.0397949 -0.00642591 -1.33575e-21)
(0.0400752 -0.00633881 0)
(0.0403547 -0.00624009 0)
(0.0406331 -0.00612959 1.5221e-21)
(0.0409102 -0.00600715 1.37818e-22)
(0.0411855 -0.00587264 -3.16752e-21)
(0.0414586 -0.00572595 -3.34582e-21)
(0.0417291 -0.00556695 3.42003e-21)
(0.0419966 -0.00539556 1.76388e-21)
(0.0422603 -0.00521166 7.54511e-21)
(0.0425198 -0.00501517 6.94266e-23)
(0.0427744 -0.00480601 -2.1039e-21)
(0.0430235 -0.00458412 4.05064e-21)
(0.0432665 -0.00434946 -2.12643e-21)
(0.0435027 -0.00410201 4.30423e-21)
(0.0437316 -0.00384173 0)
(0.0439526 -0.00356863 0)
(0.0441651 -0.00328271 0)
(0.0443686 -0.002984 -1.1903e-21)
(0.0445624 -0.00267252 -2.46782e-21)
(0.0447459 -0.0023483 2.54015e-21)
(0.0449187 -0.00201136 2.65796e-21)
(0.0450802 -0.00166172 -2.67375e-21)
(0.0452297 -0.00129945 0)
(0.0453667 -0.000924641 1.42851e-21)
(0.0454906 -0.000537225 -7.31181e-22)
(0.0456008 -0.000137196 0)
(0.0456967 0.000274792 7.61901e-22)
(0.0457777 0.000699815 -1.45567e-22)
(0.0458439 0.00113872 9.90748e-23)
(0.0458932 0.00158413 -3.88956e-22)
(0.0459261 0.00203996 0)
(0.0459416 0.00250717 -1.59424e-21)
(0.0459391 0.00298588 1.57648e-21)
(0.045918 0.00347611 0)
(0.0458774 0.0039779 -8.50656e-23)
(0.0458168 0.00449132 6.41967e-23)
(0.0457355 0.00501644 3.05124e-21)
(0.0456325 0.0055533 0)
(0.0455073 0.00610197 -1.55206e-22)
(0.0453587 0.00666261 -3.01288e-21)
(0.045186 0.00723542 -9.31229e-21)
(0.0449881 0.00782067 -1.70317e-22)
(0.0447642 0.00841869 5.94325e-21)
(0.0445132 0.00902978 0)
(0.044234 0.00965422 0)
(0.0439255 0.0102924 6.17712e-21)
(0.0435857 0.0109447 0)
(0.0432124 0.011612 0)
(0.0428045 0.0122944 -1.6468e-22)
(0.042362 0.0129918 -5.93056e-21)
(0.0418847 0.013704 -1.19919e-20)
(0.0413659 0.0144329 1.19755e-20)
(0.040794 0.0151781 -6.45963e-22)
(0.0401599 0.0159529 5.58927e-21)
(0.0394535 0.016726 5.90639e-21)
(0.0387512 0.0175802 0)
(0.0364317 -0.00709859 0)
(0.0367085 -0.0071306 -6.09905e-22)
(0.0369848 -0.00715562 2.14881e-21)
(0.0372645 -0.00717348 -6.67873e-22)
(0.0375468 -0.00718184 0)
(0.0378314 -0.00717981 -2.78413e-21)
(0.0381185 -0.00716703 4.87484e-21)
(0.0384081 -0.00714325 1.54703e-22)
(0.0387001 -0.00710836 -5.56592e-21)
(0.0389942 -0.00706226 1.0783e-21)
(0.0392898 -0.0070048 -1.29016e-21)
(0.0395864 -0.0069358 -1.36011e-21)
(0.0398833 -0.00685504 4.21843e-21)
(0.0401798 -0.0067623 -5.83891e-21)
(0.0404754 -0.00665739 2.97942e-21)
(0.0407697 -0.00654013 -1.70632e-21)
(0.0410622 -0.00641038 6.64333e-21)
(0.0413525 -0.00626798 -1.60879e-21)
(0.0416401 -0.00611281 1.90854e-21)
(0.0419246 -0.00594476 -1.76686e-21)
(0.0422054 -0.00576373 1.40731e-22)
(0.0424822 -0.00556963 -1.19586e-20)
(0.0427544 -0.00536238 -2.14662e-21)
(0.0430214 -0.00514193 -1.35036e-22)
(0.0432827 -0.00490824 6.5607e-21)
(0.0435377 -0.00466128 -2.20298e-21)
(0.0437857 -0.00440105 4.70815e-21)
(0.0440261 -0.00412755 -7.16373e-21)
(0.0442584 -0.0038408 0)
(0.0444819 -0.00354082 -2.55146e-21)
(0.044696 -0.00322766 2.55886e-21)
(0.0449001 -0.00290136 6.5172e-23)
(0.0450936 -0.00256197 -1.39691e-21)
(0.045276 -0.00220954 -1.43196e-21)
(0.0454465 -0.00184413 4.35481e-21)
(0.0456048 -0.00146581 -2.90539e-21)
(0.04575 -0.0010747 2.28267e-21)
(0.0458818 -0.000670734 -3.073e-21)
(0.0459994 -0.000253976 1.5614e-21)
(0.0461023 0.0001749 -3.93074e-22)
(0.0461898 0.000617087 0)
(0.0462622 0.001073 4.23164e-22)
(0.0463174 0.00153569 -4.18092e-22)
(0.0463559 0.00200904 -8.43807e-22)
(0.0463768 0.00249393 2.51824e-21)
(0.0463794 0.00299043 -1.70137e-21)
(0.0463631 0.00349857 -1.66188e-21)
(0.0463272 0.00401838 0)
(0.0462711 0.0045499 -6.73041e-21)
(0.0461941 0.00509321 6.61121e-21)
(0.0460954 0.00564839 -3.20781e-21)
(0.0459744 0.00621555 3.18709e-21)
(0.0458301 0.00679487 3.3403e-21)
(0.0456617 0.00738654 6.42424e-21)
(0.0454684 0.00799084 6.32359e-21)
(0.0452491 0.00860807 0)
(0.0450028 0.00923856 -6.59874e-21)
(0.0447285 0.00988267 0)
(0.0444245 0.0105409 1.63437e-22)
(0.0440892 0.0112139 -6.17814e-21)
(0.043721 0.0119022 6.32626e-21)
(0.0433197 0.0126057 6.14598e-21)
(0.0428852 0.0133245 -6.46237e-21)
(0.0424135 0.0140596 -1.61764e-22)
(0.0418943 0.0148138 1.64784e-22)
(0.0413193 0.0155872 1.86208e-20)
(0.0406867 0.0163905 6.43162e-21)
(0.0400075 0.01719 6.24323e-21)
(0.0393682 0.0180812 -6.22575e-21)
(0.0363065 -0.00757729 0)
(0.0366038 -0.00761059 0)
(0.0369014 -0.0076366 1.58319e-21)
(0.0372027 -0.00765513 -2.3725e-21)
(0.037506 -0.00766369 -9.27844e-22)
(0.0378107 -0.00766131 0)
(0.0381167 -0.00764757 0)
(0.0384241 -0.00762216 1.15818e-21)
(0.038733 -0.00758492 -2.48225e-21)
(0.0390434 -0.00753572 -2.31515e-22)
(0.0393552 -0.00747443 6.69643e-21)
(0.0396679 -0.00740085 -1.37224e-21)
(0.039981 -0.00731479 1.53012e-21)
(0.0402939 -0.00721606 -3.04411e-21)
(0.0406061 -0.00710451 1.67813e-21)
(0.0409169 -0.00697997 0)
(0.0412258 -0.00684231 0)
(0.0415323 -0.00669139 7.21883e-23)
(0.0418358 -0.00652709 -5.72173e-21)
(0.0421358 -0.00634931 1.93757e-21)
(0.0424317 -0.00615794 -2.11037e-21)
(0.042723 -0.00595292 2.07378e-21)
(0.0430093 -0.0057342 2.20844e-21)
(0.0432899 -0.00550172 -2.1316e-21)
(0.0435643 -0.00525548 -2.27724e-21)
(0.0438319 -0.00499545 0)
(0.0440922 -0.00472167 0)
(0.0443445 -0.00443415 3.78448e-21)
(0.0445882 -0.00413293 0)
(0.0448228 -0.00381807 2.71198e-21)
(0.0450476 -0.00348964 -2.71885e-21)
(0.045262 -0.0031477 -1.37701e-21)
(0.0454654 -0.00279234 1.41161e-21)
(0.0456572 -0.00242364 2.96617e-21)
(0.0458368 -0.00204168 -1.48153e-21)
(0.0460037 -0.00164658 -1.5668e-21)
(0.0461572 -0.00123845 1.61612e-21)
(0.0462967 -0.000817241 0)
(0.0464217 -0.000383101 0)
(0.0465316 6.33345e-05 4.36673e-22)
(0.0466258 0.000523397 0)
(0.0467043 0.000996842 0)
(0.0467656 0.00147739 -1.34722e-21)
(0.0468098 0.00196885 1.79108e-21)
(0.0468362 0.002472 -9.07835e-22)
(0.046844 0.00298686 1.7249e-21)
(0.0468328 0.00351345 0)
(0.0468018 0.00405179 5.33212e-21)
(0.0467504 0.00460192 -7.16492e-23)
(0.046678 0.00516391 0)
(0.0465839 0.00573787 -6.97285e-21)
(0.0464673 0.00632391 -8.25422e-23)
(0.0463276 0.00692222 -6.82306e-21)
(0.0461637 0.00753302 -3.5343e-21)
(0.0459749 0.00815657 -6.87064e-21)
(0.0457603 0.0087932 6.82237e-21)
(0.0455187 0.00944327 6.63689e-21)
(0.0452489 0.0101073 0)
(0.0449494 0.0107858 -6.75721e-21)
(0.0446189 0.0114794 1.64696e-22)
(0.044257 0.0121882 0)
(0.0438634 0.0129126 0)
(0.0434354 0.0136532 6.49219e-21)
(0.0429659 0.0144123 0)
(0.0424449 0.0151925 0)
(0.041874 0.0159938 -6.64432e-21)
(0.0412581 0.0168224 -6.25939e-21)
(0.0406306 0.0176501 -6.78739e-21)
(0.040028 0.0185413 0)
(0.0361733 -0.00809117 0)
(0.0364895 -0.00812557 0)
(0.036807 -0.0081523 0)
(0.0371294 -0.00817118 -9.17292e-22)
(0.0374545 -0.00817958 -1.08685e-21)
(0.0377812 -0.00817648 -1.78975e-22)
(0.0381089 -0.00816144 2.17388e-21)
(0.0384374 -0.00813411 -1.17909e-21)
(0.0387666 -0.00809428 1.32586e-21)
(0.0390965 -0.00804181 2.73719e-21)
(0.039427 -0.00797651 0)
(0.0397578 -0.00789817 0)
(0.0400886 -0.0078066 -8.12582e-23)
(0.0404191 -0.0077016 4.98097e-21)
(0.0407485 -0.00758303 -7.08476e-21)
(0.0410766 -0.00745075 -1.68134e-22)
(0.0414026 -0.00730464 3.71365e-21)
(0.0417261 -0.00714459 1.92411e-21)
(0.0420463 -0.00697049 -1.06758e-22)
(0.0423628 -0.00678226 0)
(0.0426749 -0.00657983 4.3946e-21)
(0.042982 -0.00636313 0)
(0.0432836 -0.00613214 4.68759e-21)
(0.043579 -0.00588683 -7.25766e-21)
(0.0438677 -0.00562721 7.45066e-21)
(0.0441491 -0.00535329 2.62768e-21)
(0.0444225 -0.00506511 -4.01855e-21)
(0.0446875 -0.00476272 4.0886e-21)
(0.0449434 -0.00444618 -2.74223e-21)
(0.0451897 -0.00411558 0)
(0.0454256 -0.00377102 -2.95575e-21)
(0.0456506 -0.00341259 -1.60205e-21)
(0.0458642 -0.0030404 3.03847e-21)
(0.0460657 -0.00265457 -3.148e-21)
(0.0462546 -0.00225522 1.62394e-21)
(0.0464301 -0.00184248 -1.63258e-21)
(0.0465919 -0.00141649 -8.22485e-22)
(0.0467393 -0.000977206 8.84141e-22)
(0.0468717 -0.000524899 4.35352e-22)
(0.0469886 -6.01261e-05 -1.33434e-21)
(0.0470895 0.000418594 -1.18078e-22)
(0.0471742 0.000910109 0)
(0.0472415 0.00140909 4.57042e-22)
(0.0472915 0.00191923 -9.13244e-22)
(0.0473234 0.00244114 9.12007e-22)
(0.0473365 0.00297485 0)
(0.0473302 0.00352033 0)
(0.0473041 0.00407762 1.9146e-21)
(0.0472574 0.00464675 -3.69087e-21)
(0.0471896 0.0052278 -7.49286e-21)
(0.0471 0.00582086 1.47306e-20)
(0.0469879 0.00642608 -3.75639e-21)
(0.0468524 0.00704366 3.64675e-21)
(0.0466929 0.00767382 3.55296e-21)
(0.0465084 0.00831683 -7.26775e-21)
(0.0462981 0.00897305 7.21635e-21)
(0.0460607 0.00964292 0)
(0.0457951 0.010327 -7.36491e-21)
(0.0455003 0.0110257 1.86072e-22)
(0.0451757 0.0117395 7.11461e-21)
(0.044821 0.0124686 0)
(0.0444342 0.0132138 0)
(0.0440099 0.0139771 0)
(0.0435406 0.014761 1.42761e-20)
(0.0430233 0.0155671 7.22439e-21)
(0.0424704 0.016394 6.82727e-21)
(0.0418904 0.0172464 -1.3803e-20)
(0.0413232 0.0180959 -3.83758e-22)
(0.0407251 0.0190347 7.13873e-21)
(0.0360363 -0.00864326 0)
(0.0363709 -0.00867867 -1.67462e-21)
(0.0367075 -0.00870593 2.1089e-21)
(0.0370499 -0.0087249 -1.58091e-21)
(0.0373961 -0.00873279 3.08093e-21)
(0.0377445 -0.00872857 1.1687e-21)
(0.0380946 -0.00871178 1.25569e-21)
(0.0384456 -0.00868206 0)
(0.0387971 -0.00863919 -2.77636e-21)
(0.039149 -0.008583 -2.94894e-21)
(0.0395009 -0.00851328 3.00798e-21)
(0.0398525 -0.0084298 -1.67976e-21)
(0.0402036 -0.00833233 1.84936e-21)
(0.0405536 -0.00822068 -1.56539e-21)
(0.0409022 -0.00809468 -7.5964e-21)
(0.0412489 -0.0079542 -1.792e-22)
(0.0415933 -0.00779914 -1.77426e-22)
(0.0419347 -0.00762939 4.13366e-21)
(0.0422727 -0.00744487 2.13396e-21)
(0.0426065 -0.00724551 4.61893e-21)
(0.0429357 -0.00703128 -4.47975e-21)
(0.0432595 -0.00680213 0)
(0.0435773 -0.00655806 1.30927e-22)
(0.0438885 -0.00629907 0)
(0.0441925 -0.00602519 -2.58571e-21)
(0.0444886 -0.00573647 -2.66023e-21)
(0.0447763 -0.00543297 1.36732e-21)
(0.0450549 -0.00511477 0)
(0.0453239 -0.00478197 1.51765e-21)
(0.0455825 -0.00443468 3.06698e-21)
(0.0458303 -0.00407303 -3.0725e-21)
(0.0460666 -0.00369715 1.55349e-21)
(0.0462909 -0.00330719 -3.29347e-21)
(0.0465025 -0.0029033 6.61872e-21)
(0.0467009 -0.00248562 -1.69189e-21)
(0.0468855 -0.00205435 0)
(0.0470557 -0.00160963 -9.16571e-22)
(0.0472111 -0.00115143 4.59643e-23)
(0.0473511 -0.000680183 1.39477e-21)
(0.047475 -0.000196311 -1.18655e-21)
(0.0475826 0.000301825 2.35774e-22)
(0.0476735 0.000811949 -7.5017e-22)
(0.0477468 0.00132998 4.91064e-22)
(0.0478025 0.00185942 0)
(0.0478397 0.00240072 0)
(0.0478579 0.00295384 0)
(0.0478565 0.00351878 2.01628e-21)
(0.0478351 0.00409553 2.01186e-21)
(0.0477929 0.00468414 0)
(0.0477294 0.00528466 3.89672e-21)
(0.0476439 0.00589722 4.07346e-21)
(0.0475358 0.00652197 3.97811e-21)
(0.0474043 0.00715909 0)
(0.0472486 0.00780883 0)
(0.0470681 0.00847148 -7.6838e-21)
(0.0468616 0.00914745 7.62911e-21)
(0.0466283 0.00983719 0)
(0.0463673 0.0105412 7.39717e-21)
(0.0460781 0.0112598 -7.3693e-21)
(0.0457602 0.0119933 -7.73469e-21)
(0.045412 0.0127426 7.51127e-21)
(0.0450296 0.0135094 -7.47825e-21)
(0.044607 0.0142959 0)
(0.0441419 0.0151042 -7.25493e-21)
(0.0436421 0.0159337 1.94557e-22)
(0.0431245 0.0167838 -1.50188e-20)
(0.042591 0.0176582 -1.49758e-20)
(0.0420631 0.0185337 1.45252e-20)
(0.0414057 0.0195001 -7.14538e-21)
(0.0358967 -0.00923683 -3.95081e-22)
(0.0362506 -0.00927318 0)
(0.0366066 -0.00930087 -4.60693e-22)
(0.036969 -0.00931973 2.69128e-21)
(0.0373358 -0.00932686 -5.04958e-21)
(0.0377056 -0.00932116 1.15615e-21)
(0.0380776 -0.00930219 -1.27866e-21)
(0.038451 -0.00926959 2.90961e-21)
(0.0388255 -0.00922313 -1.43237e-21)
(0.0392003 -0.00916264 -1.5379e-21)
(0.0395752 -0.00908791 -1.71778e-21)
(0.0399496 -0.00899868 5.31476e-21)
(0.0403229 -0.00889473 -1.68711e-21)
(0.0406948 -0.00877582 5.92983e-21)
(0.0410647 -0.0086418 2.15037e-21)
(0.0414321 -0.00849252 1.9101e-22)
(0.0417967 -0.00832788 -4.26e-21)
(0.0421577 -0.00814777 0)
(0.0425148 -0.00795214 0)
(0.0428673 -0.00774093 -2.49388e-21)
(0.0432146 -0.00751411 -2.44245e-21)
(0.0435561 -0.00727168 -5.26275e-21)
(0.0438911 -0.00701366 2.64778e-21)
(0.044219 -0.00674007 5.58204e-21)
(0.0445391 -0.00645098 -5.57225e-21)
(0.0448509 -0.00614648 1.4946e-21)
(0.0451536 -0.00582665 1.53536e-21)
(0.0454466 -0.00549161 0)
(0.0457293 -0.0051415 -1.5344e-21)
(0.0460011 -0.00477647 -3.26361e-21)
(0.0462614 -0.00439668 -7.37444e-23)
(0.0465096 -0.00400231 3.34875e-21)
(0.0467451 -0.00359355 -1.77932e-21)
(0.0469673 -0.00317057 0)
(0.0471756 -0.00273358 9.30648e-22)
(0.0473696 -0.00228281 -9.51315e-22)
(0.0475486 -0.00181839 9.2375e-22)
(0.0477121 -0.00134038 -1.93694e-21)
(0.0478598 -0.000849318 0)
(0.0479908 -0.000345453 -2.58937e-22)
(0.0481051 0.000172955 2.57816e-22)
(0.0482021 0.000702306 -4.03305e-22)
(0.0482814 0.00124009 1.56496e-21)
(0.0483426 0.00178952 -3.12787e-21)
(0.048385 0.00235081 2.06992e-21)
(0.048408 0.0029239 2.08606e-21)
(0.0484112 0.00350878 -1.96009e-21)
(0.048394 0.00410544 4.25864e-21)
(0.0483559 0.00471392 -4.1144e-21)
(0.0482963 0.00533428 -1.02629e-20)
(0.0482145 0.00596665 8.76469e-23)
(0.0481101 0.00661117 -3.99411e-21)
(0.0479822 0.00726805 0)
(0.0478303 0.00793753 0)
(0.0476535 0.00861996 -8.12005e-21)
(0.047451 0.00931573 1.20051e-20)
(0.0472221 0.0100252 -8.03422e-21)
(0.0469663 0.0107488 0)
(0.0466832 0.0114869 8.20421e-21)
(0.0463713 0.0122402 1.57299e-20)
(0.0460276 0.0130101 -7.71873e-21)
(0.0456476 0.0137989 -1.2653e-23)
(0.0452303 0.0146081 7.88356e-21)
(0.0447817 0.0154378 -2.12318e-22)
(0.0443163 0.0162871 -1.56823e-20)
(0.0438436 0.0171575 1.54226e-20)
(0.0433472 0.0180537 7.58956e-21)
(0.0428167 0.0189594 0)
(0.04208 0.019991 0)
(0.0357532 -0.0098754 4.02892e-22)
(0.0361283 -0.00991266 2.4601e-21)
(0.0365053 -0.00994068 -1.95447e-21)
(0.036889 -0.0099593 0)
(0.0372771 -0.00996545 -5.95855e-22)
(0.0376685 -0.00995798 -2.75984e-21)
(0.0380626 -0.00993645 1.99951e-21)
(0.0384585 -0.00990051 -3.92291e-21)
(0.0388558 -0.00984993 3.11252e-21)
(0.0392539 -0.00978454 0)
(0.0396522 -0.00970413 8.2085e-22)
(0.0400501 -0.00960845 0)
(0.040447 -0.00949726 2.13675e-21)
(0.0408421 -0.00937034 -6.04681e-21)
(0.041235 -0.00922752 0)
(0.0416249 -0.00906864 0)
(0.0420115 -0.0088936 0)
(0.042394 -0.00870232 -3.69746e-21)
(0.0427719 -0.00849473 4.92047e-21)
(0.0431446 -0.00827078 2.5282e-21)
(0.0435116 -0.00803048 0)
(0.043872 -0.00777383 0)
(0.0442254 -0.00750089 0)
(0.0445711 -0.00721171 -7.47222e-21)
(0.0449083 -0.0069064 9.01398e-21)
(0.0452366 -0.00658505 -4.57149e-21)
(0.0455551 -0.00624783 -3.19121e-21)
(0.0458633 -0.00589487 3.31121e-21)
(0.0461604 -0.00552635 -3.31111e-21)
(0.046446 -0.00514248 1.76549e-21)
(0.0467194 -0.00474346 -3.55629e-21)
(0.0469799 -0.00432951 1.71208e-21)
(0.047227 -0.00390085 3.68804e-21)