/*--------------------------------*- C++ -*----------------------------------*\
| =========                 |                                                 |
| \\      /  F ield         | OpenFOAM: The Open Source CFD Toolbox           |
|  \\    /   O peration     | Version:  2312                                  |
|   \\  /    A nd           | Website:  www.openfoam.com                      |
|    \\/     M anipulation  |                                                 |
\*---------------------------------------------------------------------------*/
FoamFile
{
    version     2.0;
    format      ascii;
    arch        "LSB;label=32;scalar=64";
    class       volScalarField;
    location    "1100";
    object      nut;
}
// * * * * * * * * * * * * * * * * * * * * * * * * * * * * * * * * * * * * * //

dimensions      [0 2 -1 0 0 0 0];

internalField   nonuniform List<scalar> 
76025
(
6.14365e-06
6.14503e-06
6.14461e-06
6.1425e-06
6.14494e-06
6.14736e-06
6.15562e-06
6.16497e-06
6.17287e-06
6.1796e-06
6.18541e-06
6.19003e-06
6.19352e-06
6.19433e-06
6.1934e-06
6.19239e-06
6.19125e-06
6.19067e-06
6.18867e-06
6.18756e-06
6.1842e-06
6.18132e-06
6.17894e-06
6.17935e-06
6.18473e-06
6.18977e-06
6.19989e-06
6.21006e-06
6.22111e-06
6.23383e-06
6.24785e-06
6.25939e-06
6.27316e-06
6.28425e-06
6.29573e-06
6.30496e-06
6.31398e-06
6.3261e-06
6.33684e-06
6.34685e-06
6.35542e-06
6.36349e-06
6.37384e-06
6.381e-06
6.3865e-06
6.38928e-06
6.39142e-06
6.38935e-06
6.38321e-06
6.3731e-06
6.35986e-06
6.34517e-06
6.32899e-06
6.31293e-06
6.29883e-06
6.28539e-06
6.27582e-06
6.26717e-06
6.26567e-06
6.27181e-06
6.28771e-06
6.31036e-06
6.33916e-06
6.37083e-06
6.40274e-06
6.435e-06
6.46584e-06
6.48867e-06
6.50564e-06
6.11736e-06
6.12838e-06
6.13606e-06
6.13957e-06
6.14156e-06
6.14165e-06
6.14349e-06
6.14776e-06
6.15397e-06
6.16102e-06
6.16828e-06
6.17534e-06
6.18213e-06
6.18832e-06
6.19254e-06
6.19562e-06
6.19704e-06
6.19789e-06
6.19774e-06
6.19722e-06
6.19563e-06
6.19318e-06
6.19023e-06
6.18398e-06
6.17852e-06
6.17436e-06
6.17204e-06
6.17148e-06
6.17246e-06
6.17451e-06
6.17866e-06
6.18599e-06
6.19475e-06
6.20361e-06
6.21225e-06
6.22031e-06
6.22748e-06
6.23394e-06
6.23957e-06
6.24413e-06
6.24738e-06
6.24918e-06
6.24957e-06
6.24841e-06
6.2456e-06
6.24072e-06
6.23233e-06
6.22375e-06
6.21588e-06
6.20935e-06
6.20476e-06
6.20643e-06
6.21148e-06
6.22e-06
6.23173e-06
6.24636e-06
6.26379e-06
6.28377e-06
6.30594e-06
6.32994e-06
6.35524e-06
6.38075e-06
6.40567e-06
6.42912e-06
6.45049e-06
6.4691e-06
6.48456e-06
6.49604e-06
6.50743e-06
6.07429e-06
6.0848e-06
6.09877e-06
6.11225e-06
6.12275e-06
6.12993e-06
6.13455e-06
6.13807e-06
6.14182e-06
6.14638e-06
6.15183e-06
6.15799e-06
6.16462e-06
6.17164e-06
6.17858e-06
6.18503e-06
6.19059e-06
6.19512e-06
6.19864e-06
6.20121e-06
6.20291e-06
6.20376e-06
6.2039e-06
6.20273e-06
6.20038e-06
6.19723e-06
6.19369e-06
6.19e-06
6.18664e-06
6.18235e-06
6.17633e-06
6.17154e-06
6.16829e-06
6.16635e-06
6.16535e-06
6.16501e-06
6.16502e-06
6.16514e-06
6.1652e-06
6.16521e-06
6.16547e-06
6.16604e-06
6.16697e-06
6.16834e-06
6.17021e-06
6.17277e-06
6.17804e-06
6.18551e-06
6.19468e-06
6.20525e-06
6.21725e-06
6.2307e-06
6.24554e-06
6.26168e-06
6.27902e-06
6.29738e-06
6.31649e-06
6.33606e-06
6.3557e-06
6.37502e-06
6.39356e-06
6.41087e-06
6.42653e-06
6.4402e-06
6.45159e-06
6.46047e-06
6.4669e-06
6.47032e-06
6.47214e-06
6.04178e-06
6.04606e-06
6.05398e-06
6.06419e-06
6.0756e-06
6.08999e-06
6.10349e-06
6.11429e-06
6.12272e-06
6.1296e-06
6.1357e-06
6.14157e-06
6.14753e-06
6.15375e-06
6.16034e-06
6.1672e-06
6.17415e-06
6.1809e-06
6.18724e-06
6.19298e-06
6.19805e-06
6.20242e-06
6.20608e-06
6.20907e-06
6.21129e-06
6.21271e-06
6.21336e-06
6.21332e-06
6.2128e-06
6.21181e-06
6.21012e-06
6.20799e-06
6.20578e-06
6.20377e-06
6.20217e-06
6.20111e-06
6.20065e-06
6.20086e-06
6.20178e-06
6.20346e-06
6.20583e-06
6.20892e-06
6.21279e-06
6.21748e-06
6.22305e-06
6.22953e-06
6.23701e-06
6.24552e-06
6.25504e-06
6.26553e-06
6.27693e-06
6.28916e-06
6.30209e-06
6.31556e-06
6.32937e-06
6.34331e-06
6.35712e-06
6.37051e-06
6.38322e-06
6.39495e-06
6.40545e-06
6.41448e-06
6.42185e-06
6.42745e-06
6.43119e-06
6.43305e-06
6.4332e-06
6.43098e-06
6.42828e-06
6.02482e-06
6.02271e-06
6.02288e-06
6.02564e-06
6.03126e-06
6.04006e-06
6.05055e-06
6.06233e-06
6.07689e-06
6.09096e-06
6.10311e-06
6.11352e-06
6.1226e-06
6.13075e-06
6.13834e-06
6.14567e-06
6.15293e-06
6.16021e-06
6.16746e-06
6.17462e-06
6.18156e-06
6.18819e-06
6.19443e-06
6.20024e-06
6.20559e-06
6.21046e-06
6.21481e-06
6.21865e-06
6.22198e-06
6.2249e-06
6.22744e-06
6.2296e-06
6.23144e-06
6.23306e-06
6.2346e-06
6.23618e-06
6.23794e-06
6.23999e-06
6.24241e-06
6.24528e-06
6.24864e-06
6.25251e-06
6.25694e-06
6.26195e-06
6.26756e-06
6.27378e-06
6.28059e-06
6.28796e-06
6.29585e-06
6.3042e-06
6.3129e-06
6.32186e-06
6.33094e-06
6.33999e-06
6.34885e-06
6.35734e-06
6.36528e-06
6.37251e-06
6.37885e-06
6.38418e-06
6.38836e-06
6.39132e-06
6.393e-06
6.39339e-06
6.39249e-06
6.39027e-06
6.38693e-06
6.3815e-06
6.37676e-06
6.02672e-06
6.02087e-06
6.01466e-06
6.00984e-06
6.00718e-06
6.00712e-06
6.00974e-06
6.01529e-06
6.02366e-06
6.03361e-06
6.04526e-06
6.05977e-06
6.07459e-06
6.08814e-06
6.10029e-06
6.11123e-06
6.12121e-06
6.13047e-06
6.13922e-06
6.14762e-06
6.15575e-06
6.16365e-06
6.17132e-06
6.17873e-06
6.18588e-06
6.19273e-06
6.19928e-06
6.2055e-06
6.21138e-06
6.21694e-06
6.2222e-06
6.22717e-06
6.23187e-06
6.23633e-06
6.24059e-06
6.24469e-06
6.24869e-06
6.25265e-06
6.25662e-06
6.26069e-06
6.26491e-06
6.26932e-06
6.27395e-06
6.2788e-06
6.28388e-06
6.28918e-06
6.29467e-06
6.30031e-06
6.30605e-06
6.31183e-06
6.31757e-06
6.32319e-06
6.32858e-06
6.33365e-06
6.3383e-06
6.34242e-06
6.34591e-06
6.34871e-06
6.35073e-06
6.35193e-06
6.35227e-06
6.35174e-06
6.35031e-06
6.34797e-06
6.34467e-06
6.3403e-06
6.33489e-06
6.32733e-06
6.31951e-06
6.01949e-06
6.02222e-06
6.02036e-06
6.01398e-06
6.00658e-06
5.99976e-06
5.99446e-06
5.99127e-06
5.9905e-06
5.9923e-06
5.99688e-06
6.00406e-06
6.01314e-06
6.02435e-06
6.03849e-06
6.05355e-06
6.06794e-06
6.08134e-06
6.09373e-06
6.10522e-06
6.11592e-06
6.12597e-06
6.13549e-06
6.14456e-06
6.15323e-06
6.16155e-06
6.16955e-06
6.17723e-06
6.18461e-06
6.1917e-06
6.1985e-06
6.20502e-06
6.21128e-06
6.21728e-06
6.22302e-06
6.22854e-06
6.23382e-06
6.2389e-06
6.24378e-06
6.24854e-06
6.25321e-06
6.25783e-06
6.2624e-06
6.26691e-06
6.27136e-06
6.27574e-06
6.28001e-06
6.28415e-06
6.28812e-06
6.29188e-06
6.29538e-06
6.29857e-06
6.30139e-06
6.3038e-06
6.30574e-06
6.30719e-06
6.3081e-06
6.30844e-06
6.3082e-06
6.30735e-06
6.30588e-06
6.30376e-06
6.3009e-06
6.29719e-06
6.29245e-06
6.28635e-06
6.27873e-06
6.26806e-06
6.25571e-06
5.98581e-06
5.99803e-06
6.00689e-06
6.01164e-06
6.01231e-06
6.00932e-06
6.0026e-06
5.99467e-06
5.98705e-06
5.98071e-06
5.97619e-06
5.97386e-06
5.97393e-06
5.97656e-06
5.98181e-06
5.98962e-06
5.99995e-06
6.01313e-06
6.02757e-06
6.04197e-06
6.05583e-06
6.06898e-06
6.08138e-06
6.09305e-06
6.10405e-06
6.11443e-06
6.12426e-06
6.13359e-06
6.14245e-06
6.15089e-06
6.15893e-06
6.16659e-06
6.17389e-06
6.18083e-06
6.18744e-06
6.19372e-06
6.19966e-06
6.20528e-06
6.21057e-06
6.2156e-06
6.2204e-06
6.22499e-06
6.22936e-06
6.23352e-06
6.23744e-06
6.24112e-06
6.24455e-06
6.24771e-06
6.25057e-06
6.25312e-06
6.25533e-06
6.2572e-06
6.2587e-06
6.25981e-06
6.26053e-06
6.26084e-06
6.26073e-06
6.26018e-06
6.25917e-06
6.25763e-06
6.25548e-06
6.25257e-06
6.24869e-06
6.24353e-06
6.23668e-06
6.22754e-06
6.21576e-06
6.19911e-06
6.18026e-06
5.93632e-06
5.9498e-06
5.96379e-06
5.97709e-06
5.98831e-06
5.99652e-06
6.00112e-06
6.00208e-06
5.99979e-06
5.99474e-06
5.98737e-06
5.9791e-06
5.97129e-06
5.96468e-06
5.9599e-06
5.95751e-06
5.95786e-06
5.96126e-06
5.96766e-06
5.97701e-06
5.98872e-06
6.00158e-06
6.01477e-06
6.02783e-06
6.04051e-06
6.05269e-06
6.0643e-06
6.07534e-06
6.0858e-06
6.09571e-06
6.10508e-06
6.11393e-06
6.12229e-06
6.13017e-06
6.13758e-06
6.14454e-06
6.15104e-06
6.1571e-06
6.16273e-06
6.16801e-06
6.17299e-06
6.17766e-06
6.18204e-06
6.18611e-06
6.18989e-06
6.19336e-06
6.19653e-06
6.19939e-06
6.20194e-06
6.20418e-06
6.20611e-06
6.20772e-06
6.20901e-06
6.20997e-06
6.21059e-06
6.21084e-06
6.21067e-06
6.21001e-06
6.20874e-06
6.20669e-06
6.20362e-06
6.1992e-06
6.193e-06
6.18449e-06
6.173e-06
6.15772e-06
6.13806e-06
6.11165e-06
6.0818e-06
5.88722e-06
5.89495e-06
5.90419e-06
5.91554e-06
5.92949e-06
5.94502e-06
5.95961e-06
5.97197e-06
5.98147e-06
5.98776e-06
5.99077e-06
5.9907e-06
5.988e-06
5.98324e-06
5.97707e-06
5.97028e-06
5.96383e-06
5.95872e-06
5.95576e-06
5.95543e-06
5.95786e-06
5.96279e-06
5.96974e-06
5.97816e-06
5.98756e-06
5.99752e-06
6.00773e-06
6.01797e-06
6.02807e-06
6.03791e-06
6.04743e-06
6.05656e-06
6.06528e-06
6.07355e-06
6.08137e-06
6.08872e-06
6.0956e-06
6.10199e-06
6.10794e-06
6.11357e-06
6.11889e-06
6.12391e-06
6.12863e-06
6.13306e-06
6.13718e-06
6.14101e-06
6.14455e-06
6.1478e-06
6.15076e-06
6.15342e-06
6.15577e-06
6.1578e-06
6.15948e-06
6.16076e-06
6.16157e-06
6.16181e-06
6.16134e-06
6.15994e-06
6.15735e-06
6.15323e-06
6.14715e-06
6.13858e-06
6.12688e-06
6.11134e-06
6.09115e-06
6.06539e-06
6.03339e-06
5.99321e-06
5.94705e-06
5.84759e-06
5.84935e-06
5.85297e-06
5.85843e-06
5.86603e-06
5.8758e-06
5.88791e-06
5.90257e-06
5.91894e-06
5.93475e-06
5.94873e-06
5.96029e-06
5.96916e-06
5.97523e-06
5.97856e-06
5.97944e-06
5.97835e-06
5.97594e-06
5.97295e-06
5.97008e-06
5.9679e-06
5.96681e-06
5.96703e-06
5.96861e-06
5.97149e-06
5.97553e-06
5.98053e-06
5.9863e-06
5.99265e-06
5.99939e-06
6.00638e-06
6.01347e-06
6.02056e-06
6.02756e-06
6.03438e-06
6.04097e-06
6.04728e-06
6.05327e-06
6.059e-06
6.06457e-06
6.06995e-06
6.07513e-06
6.0801e-06
6.08484e-06
6.08933e-06
6.09356e-06
6.0975e-06
6.10115e-06
6.10446e-06
6.1074e-06
6.1099e-06
6.11191e-06
6.1133e-06
6.11395e-06
6.11367e-06
6.11225e-06
6.10938e-06
6.10472e-06
6.09784e-06
6.08822e-06
6.0753e-06
6.05841e-06
6.03683e-06
6.0098e-06
5.97654e-06
5.93619e-06
5.88827e-06
5.83094e-06
5.76538e-06
5.81187e-06
5.81064e-06
5.81036e-06
5.81102e-06
5.81286e-06
5.81634e-06
5.82186e-06
5.82958e-06
5.8394e-06
5.85137e-06
5.86556e-06
5.88184e-06
5.89861e-06
5.91438e-06
5.92832e-06
5.94006e-06
5.94948e-06
5.95666e-06
5.96184e-06
5.96537e-06
5.96767e-06
5.96918e-06
5.97028e-06
5.9713e-06
5.9725e-06
5.97403e-06
5.97601e-06
5.97848e-06
5.98145e-06
5.98487e-06
5.9887e-06
5.99285e-06
5.99727e-06
6.00187e-06
6.00657e-06
6.0113e-06
6.01601e-06
6.02064e-06
6.02525e-06
6.02986e-06
6.03441e-06
6.03886e-06
6.04318e-06
6.04731e-06
6.05121e-06
6.0548e-06
6.05803e-06
6.06083e-06
6.06309e-06
6.0647e-06
6.06553e-06
6.0654e-06
6.06411e-06
6.06141e-06
6.05699e-06
6.05051e-06
6.04155e-06
6.02964e-06
6.01427e-06
5.99486e-06
5.9708e-06
5.94144e-06
5.90612e-06
5.8642e-06
5.81503e-06
5.75791e-06
5.69261e-06
5.61738e-06
5.53045e-06
5.77466e-06
5.77252e-06
5.77057e-06
5.76898e-06
5.76784e-06
5.7673e-06
5.76755e-06
5.76895e-06
5.77189e-06
5.77677e-06
5.78366e-06
5.79252e-06
5.80322e-06
5.81581e-06
5.83032e-06
5.84647e-06
5.86303e-06
5.87879e-06
5.89313e-06
5.90579e-06
5.91676e-06
5.92613e-06
5.93406e-06
5.94077e-06
5.94648e-06
5.95142e-06
5.95577e-06
5.95971e-06
5.96338e-06
5.96689e-06
5.97032e-06
5.9737e-06
5.97708e-06
5.98044e-06
5.9838e-06
5.98711e-06
5.99037e-06
5.99354e-06
5.99666e-06
5.9997e-06
6.00262e-06
6.00534e-06
6.00782e-06
6.00995e-06
6.01166e-06
6.01283e-06
6.01335e-06
6.01306e-06
6.01181e-06
6.0094e-06
6.00561e-06
6.00018e-06
5.99281e-06
5.98317e-06
5.97088e-06
5.95554e-06
5.93668e-06
5.91384e-06
5.88651e-06
5.85417e-06
5.81629e-06
5.77235e-06
5.72183e-06
5.66422e-06
5.59901e-06
5.52561e-06
5.4438e-06
5.35172e-06
5.24923e-06
5.73258e-06
5.73029e-06
5.72785e-06
5.72544e-06
5.72312e-06
5.72091e-06
5.71889e-06
5.71718e-06
5.71597e-06
5.71547e-06
5.71591e-06
5.7176e-06
5.72086e-06
5.72588e-06
5.73265e-06
5.74102e-06
5.75086e-06
5.7622e-06
5.77504e-06
5.78938e-06
5.8047e-06
5.82005e-06
5.8347e-06
5.84828e-06
5.86066e-06
5.87183e-06
5.88184e-06
5.89078e-06
5.89876e-06
5.90587e-06
5.9122e-06
5.91784e-06
5.92286e-06
5.92733e-06
5.93128e-06
5.93473e-06
5.93769e-06
5.94018e-06
5.94224e-06
5.94383e-06
5.9449e-06
5.94539e-06
5.94521e-06
5.94426e-06
5.94242e-06
5.93955e-06
5.93548e-06
5.93003e-06
5.92298e-06
5.91411e-06
5.90313e-06
5.88978e-06
5.87371e-06
5.85461e-06
5.83209e-06
5.80578e-06
5.77527e-06
5.74017e-06
5.70006e-06
5.65452e-06
5.60314e-06
5.54549e-06
5.48113e-06
5.40957e-06
5.3303e-06
5.24265e-06
5.14612e-06
5.03924e-06
4.91782e-06
5.68284e-06
5.68054e-06
5.67803e-06
5.67539e-06
5.67267e-06
5.66992e-06
5.66714e-06
5.66433e-06
5.66153e-06
5.65881e-06
5.65627e-06
5.65406e-06
5.65236e-06
5.65135e-06
5.65118e-06
5.65206e-06
5.65419e-06
5.65772e-06
5.66261e-06
5.66872e-06
5.67589e-06
5.68404e-06
5.69326e-06
5.70358e-06
5.71506e-06
5.72753e-06
5.74038e-06
5.75297e-06
5.76488e-06
5.77586e-06
5.78582e-06
5.7947e-06
5.80252e-06
5.80927e-06
5.81496e-06
5.81959e-06
5.82315e-06
5.82569e-06
5.82726e-06
5.8278e-06
5.82726e-06
5.82555e-06
5.82257e-06
5.81822e-06
5.81235e-06
5.80483e-06
5.79548e-06
5.78412e-06
5.77053e-06
5.75449e-06
5.73576e-06
5.71407e-06
5.68914e-06
5.6607e-06
5.62842e-06
5.59199e-06
5.5511e-06
5.50539e-06
5.45452e-06
5.39811e-06
5.33575e-06
5.26698e-06
5.19129e-06
5.10807e-06
5.0166e-06
4.91583e-06
4.80505e-06
4.68066e-06
4.54685e-06
5.62206e-06
5.61987e-06
5.61745e-06
5.61483e-06
5.61204e-06
5.60911e-06
5.60606e-06
5.6029e-06
5.59962e-06
5.59623e-06
5.59273e-06
5.58913e-06
5.58548e-06
5.58187e-06
5.57837e-06
5.57511e-06
5.57221e-06
5.5698e-06
5.56794e-06
5.56673e-06
5.56625e-06
5.56662e-06
5.56787e-06
5.56994e-06
5.57268e-06
5.57594e-06
5.57963e-06
5.58373e-06
5.58834e-06
5.5935e-06
5.59928e-06
5.60564e-06
5.61223e-06
5.61856e-06
5.62417e-06
5.62873e-06
5.63205e-06
5.6342e-06
5.63515e-06
5.63473e-06
5.63283e-06
5.62932e-06
5.62405e-06
5.61689e-06
5.60773e-06
5.59642e-06
5.5828e-06
5.56667e-06
5.54787e-06
5.52621e-06
5.50148e-06
5.47346e-06
5.4419e-06
5.40655e-06
5.36713e-06
5.32334e-06
5.27486e-06
5.22134e-06
5.16239e-06
5.09753e-06
5.02625e-06
4.94794e-06
4.86189e-06
4.76715e-06
4.66249e-06
4.54606e-06
4.41589e-06
4.2681e-06
4.09626e-06
5.54628e-06
5.54429e-06
5.54203e-06
5.53953e-06
5.53681e-06
5.53387e-06
5.53074e-06
5.52742e-06
5.52393e-06
5.52026e-06
5.51641e-06
5.51237e-06
5.50813e-06
5.50369e-06
5.49906e-06
5.49426e-06
5.48932e-06
5.4843e-06
5.47925e-06
5.47422e-06
5.46927e-06
5.46447e-06
5.45987e-06
5.45547e-06
5.45128e-06
5.44728e-06
5.44351e-06
5.43997e-06
5.43663e-06
5.43338e-06
5.43003e-06
5.42642e-06
5.42241e-06
5.4179e-06
5.41287e-06
5.40733e-06
5.40143e-06
5.39595e-06
5.39147e-06
5.38735e-06
5.38261e-06
5.37657e-06
5.36888e-06
5.35934e-06
5.34773e-06
5.3338e-06
5.31728e-06
5.29799e-06
5.27579e-06
5.25049e-06
5.22186e-06
5.18963e-06
5.15351e-06
5.11322e-06
5.06846e-06
5.01886e-06
4.96405e-06
4.90355e-06
4.83685e-06
4.76334e-06
4.6823e-06
4.59281e-06
4.49363e-06
4.38294e-06
4.25835e-06
4.11669e-06
3.95447e-06
3.76812e-06
3.54913e-06
5.45119e-06
5.44929e-06
5.4471e-06
5.44465e-06
5.44196e-06
5.43902e-06
5.43583e-06
5.4324e-06
5.42874e-06
5.42484e-06
5.4207e-06
5.41633e-06
5.41171e-06
5.40684e-06
5.40171e-06
5.39629e-06
5.39059e-06
5.38459e-06
5.3783e-06
5.37173e-06
5.36487e-06
5.35774e-06
5.35036e-06
5.34275e-06
5.33492e-06
5.32686e-06
5.31856e-06
5.31003e-06
5.30124e-06
5.29215e-06
5.28268e-06
5.27279e-06
5.26239e-06
5.25143e-06
5.23985e-06
5.22752e-06
5.21432e-06
5.19996e-06
5.18421e-06
5.167e-06
5.1488e-06
5.13052e-06
5.11301e-06
5.09601e-06
5.07831e-06
5.05889e-06
5.03726e-06
5.01324e-06
4.98659e-06
4.95681e-06
4.92336e-06
4.88586e-06
4.84402e-06
4.79749e-06
4.74583e-06
4.6886e-06
4.62528e-06
4.55527e-06
4.47782e-06
4.39194e-06
4.2964e-06
4.18935e-06
4.0683e-06
3.93002e-06
3.77114e-06
3.5885e-06
3.38008e-06
3.1469e-06
2.89628e-06
5.33165e-06
5.32949e-06
5.32707e-06
5.3244e-06
5.3215e-06
5.31835e-06
5.31493e-06
5.31126e-06
5.3073e-06
5.30307e-06
5.29855e-06
5.29375e-06
5.28865e-06
5.28325e-06
5.27753e-06
5.27149e-06
5.26511e-06
5.25836e-06
5.25125e-06
5.24373e-06
5.23581e-06
5.22745e-06
5.21865e-06
5.20938e-06
5.19965e-06
5.18941e-06
5.17866e-06
5.16736e-06
5.1555e-06
5.14304e-06
5.12995e-06
5.11616e-06
5.10162e-06
5.08625e-06
5.06999e-06
5.05278e-06
5.03449e-06
5.01498e-06
4.99411e-06
4.97174e-06
4.94776e-06
4.92206e-06
4.89434e-06
4.86416e-06
4.83149e-06
4.79719e-06
4.76265e-06
4.72812e-06
4.69204e-06
4.65276e-06
4.6095e-06
4.56212e-06
4.51034e-06
4.45343e-06
4.39075e-06
4.3217e-06
4.24545e-06
4.16089e-06
4.06649e-06
3.9602e-06
3.8397e-06
3.70177e-06
3.54344e-06
3.36172e-06
3.15667e-06
2.93151e-06
2.68985e-06
2.44987e-06
2.23057e-06
5.18031e-06
5.17744e-06
5.17435e-06
5.17104e-06
5.16752e-06
5.16376e-06
5.15975e-06
5.15548e-06
5.15092e-06
5.14607e-06
5.1409e-06
5.1354e-06
5.12957e-06
5.12338e-06
5.11682e-06
5.10989e-06
5.10255e-06
5.09479e-06
5.0866e-06
5.07794e-06
5.0688e-06
5.05913e-06
5.04892e-06
5.03813e-06
5.02673e-06
5.01468e-06
5.00194e-06
4.98847e-06
4.97423e-06
4.95916e-06
4.9432e-06
4.92631e-06
4.9084e-06
4.88939e-06
4.8692e-06
4.84776e-06
4.82495e-06
4.80065e-06
4.77471e-06
4.74698e-06
4.7173e-06
4.68549e-06
4.65136e-06
4.61465e-06
4.57507e-06
4.5324e-06
4.48638e-06
4.43655e-06
4.38221e-06
4.32337e-06
4.26134e-06
4.19745e-06
4.13008e-06
4.05741e-06
3.97863e-06
3.89224e-06
3.79609e-06
3.68776e-06
3.56454e-06
3.42321e-06
3.26219e-06
3.08048e-06
2.87968e-06
2.66089e-06
2.43877e-06
2.22254e-06
2.02973e-06
1.86925e-06
1.77955e-06
4.98542e-06
4.9814e-06
4.97718e-06
4.97276e-06
4.96814e-06
4.96329e-06
4.95819e-06
4.95284e-06
4.94719e-06
4.94124e-06
4.93496e-06
4.92833e-06
4.92133e-06
4.91393e-06
4.90612e-06
4.89787e-06
4.88915e-06
4.87994e-06
4.87022e-06
4.85996e-06
4.84911e-06
4.83766e-06
4.82555e-06
4.81275e-06
4.79922e-06
4.7849e-06
4.76973e-06
4.75367e-06
4.73665e-06
4.71859e-06
4.69943e-06
4.67906e-06
4.65741e-06
4.63437e-06
4.60985e-06
4.58374e-06
4.55591e-06
4.52622e-06
4.49449e-06
4.46054e-06
4.42417e-06
4.38514e-06
4.34321e-06
4.2981e-06
4.24951e-06
4.1971e-06
4.14052e-06
4.07936e-06
4.01313e-06
3.94124e-06
3.86312e-06
3.77778e-06
3.68383e-06
3.5838e-06
3.47873e-06
3.36323e-06
3.23336e-06
3.08713e-06
2.92314e-06
2.73882e-06
2.54486e-06
2.3454e-06
2.14879e-06
1.96812e-06
1.8074e-06
1.67939e-06
1.60529e-06
1.61331e-06
1.81124e-06
4.72772e-06
4.72216e-06
4.7164e-06
4.71043e-06
4.70424e-06
4.69781e-06
4.69113e-06
4.68416e-06
4.67689e-06
4.6693e-06
4.66135e-06
4.65302e-06
4.64428e-06
4.63511e-06
4.62547e-06
4.61534e-06
4.60467e-06
4.59345e-06
4.58162e-06
4.56916e-06
4.55602e-06
4.54215e-06
4.52751e-06
4.51204e-06
4.4957e-06
4.47841e-06
4.4601e-06
4.44071e-06
4.42014e-06
4.39831e-06
4.37513e-06
4.35047e-06
4.32422e-06
4.29625e-06
4.26646e-06
4.23469e-06
4.20076e-06
4.16448e-06
4.12565e-06
4.08402e-06
4.03936e-06
3.99138e-06
3.93977e-06
3.88419e-06
3.82427e-06
3.75957e-06
3.68959e-06
3.61377e-06
3.53141e-06
3.44168e-06
3.34361e-06
3.23608e-06
3.11798e-06
2.98815e-06
2.84549e-06
2.6904e-06
2.52422e-06
2.35144e-06
2.1753e-06
2.00157e-06
1.8417e-06
1.69639e-06
1.57439e-06
1.4883e-06
1.45529e-06
1.50199e-06
1.70552e-06
2.18393e-06
3.27751e-06
4.37568e-06
4.36823e-06
4.36056e-06
4.35263e-06
4.34445e-06
4.33598e-06
4.32722e-06
4.31813e-06
4.3087e-06
4.29889e-06
4.28868e-06
4.27804e-06
4.26694e-06
4.25535e-06
4.24322e-06
4.23053e-06
4.21723e-06
4.20328e-06
4.18864e-06
4.17325e-06
4.15707e-06
4.14003e-06
4.12208e-06
4.10316e-06
4.08318e-06
4.06208e-06
4.03976e-06
4.01613e-06
3.99108e-06
3.96452e-06
3.9363e-06
3.90629e-06
3.87435e-06
3.84037e-06
3.80417e-06
3.76558e-06
3.72438e-06
3.68032e-06
3.63314e-06
3.58254e-06
3.5282e-06
3.46974e-06
3.40675e-06
3.33874e-06
3.26518e-06
3.18542e-06
3.09874e-06
3.00431e-06
2.90128e-06
2.78876e-06
2.66618e-06
2.53334e-06
2.39083e-06
2.24069e-06
2.08607e-06
1.93109e-06
1.77956e-06
1.64559e-06
1.52448e-06
1.42342e-06
1.3511e-06
1.31838e-06
1.33882e-06
1.46029e-06
1.73619e-06
2.29592e-06
3.41555e-06
5.70456e-06
1.03277e-05
3.87946e-06
3.86987e-06
3.86e-06
3.84984e-06
3.83936e-06
3.82854e-06
3.81736e-06
3.8058e-06
3.79384e-06
3.78144e-06
3.76858e-06
3.75522e-06
3.74133e-06
3.72688e-06
3.71183e-06
3.69613e-06
3.67974e-06
3.66261e-06
3.64469e-06
3.62593e-06
3.60625e-06
3.58561e-06
3.56392e-06
3.54111e-06
3.51709e-06
3.49178e-06
3.46507e-06
3.43685e-06
3.40701e-06
3.3754e-06
3.3419e-06
3.30633e-06
3.26855e-06
3.22838e-06
3.18558e-06
3.1399e-06
3.09106e-06
3.03876e-06
2.98266e-06
2.92238e-06
2.85747e-06
2.78744e-06
2.71177e-06
2.62987e-06
2.54113e-06
2.44499e-06
2.34108e-06
2.22929e-06
2.10999e-06
1.98414e-06
1.85509e-06
1.72572e-06
1.5995e-06
1.4854e-06
1.38176e-06
1.29367e-06
1.22571e-06
1.18354e-06
1.16997e-06
1.20914e-06
1.31953e-06
1.53752e-06
1.93092e-06
2.63246e-06
3.91292e-06
6.32297e-06
1.08417e-05
1.88249e-05
3.08875e-05
3.1683e-06
3.1566e-06
3.14462e-06
3.1323e-06
3.11962e-06
3.10656e-06
3.09309e-06
3.07919e-06
3.06484e-06
3.05001e-06
3.03467e-06
3.0188e-06
3.00235e-06
2.98529e-06
2.96758e-06
2.94918e-06
2.93004e-06
2.91012e-06
2.88936e-06
2.86771e-06
2.8451e-06
2.82146e-06
2.79672e-06
2.7708e-06
2.74362e-06
2.71507e-06
2.68506e-06
2.65348e-06
2.62021e-06
2.5851e-06
2.54802e-06
2.50879e-06
2.46722e-06
2.42303e-06
2.37596e-06
2.32571e-06
2.27195e-06
2.21435e-06
2.15254e-06
2.08618e-06
2.01498e-06
1.93872e-06
1.85734e-06
1.77104e-06
1.68007e-06
1.58572e-06
1.48957e-06
1.39367e-06
1.30048e-06
1.213e-06
1.14234e-06
1.08504e-06
1.04317e-06
1.01437e-06
1.0102e-06
1.04084e-06
1.11822e-06
1.25389e-06
1.47074e-06
1.80998e-06
2.34452e-06
3.20986e-06
4.65605e-06
7.13078e-06
1.14238e-05
1.86173e-05
2.90769e-05
4.11089e-05
5.05659e-05
2.18697e-06
2.17474e-06
2.16231e-06
2.14959e-06
2.13657e-06
2.12321e-06
2.10951e-06
2.09543e-06
2.08096e-06
2.06607e-06
2.05075e-06
2.03497e-06
2.0187e-06
2.00192e-06
1.98458e-06
1.96667e-06
1.94815e-06
1.92897e-06
1.9091e-06
1.88849e-06
1.86711e-06
1.84488e-06
1.82177e-06
1.79771e-06
1.77265e-06
1.74651e-06
1.71921e-06
1.6907e-06
1.66086e-06
1.62962e-06
1.59668e-06
1.56164e-06
1.52432e-06
1.4846e-06
1.44242e-06
1.39776e-06
1.35066e-06
1.30124e-06
1.24973e-06
1.19657e-06
1.14243e-06
1.08801e-06
1.03425e-06
9.82981e-07
9.36012e-07
8.95491e-07
8.63212e-07
8.41001e-07
8.30799e-07
8.35101e-07
8.62114e-07
9.17885e-07
1.00367e-06
1.12615e-06
1.29575e-06
1.52584e-06
1.83822e-06
2.26927e-06
2.87975e-06
3.77428e-06
5.12854e-06
7.25533e-06
1.07215e-05
1.61363e-05
2.38136e-05
3.32203e-05
3.97757e-05
3.87118e-05
3.284e-05
1.0528e-06
1.04503e-06
1.03721e-06
1.0293e-06
1.02128e-06
1.01313e-06
1.00486e-06
9.96433e-07
9.87856e-07
9.79114e-07
9.70196e-07
9.61091e-07
9.51786e-07
9.4227e-07
9.32529e-07
9.2255e-07
9.12317e-07
9.01817e-07
8.91034e-07
8.79949e-07
8.68545e-07
8.56805e-07
8.44707e-07
8.32234e-07
8.19369e-07
8.06103e-07
7.9242e-07
7.78304e-07
7.63751e-07
7.4883e-07
7.33734e-07
7.18737e-07
7.04028e-07
6.89811e-07
6.76322e-07
6.63846e-07
6.52729e-07
6.43383e-07
6.36304e-07
6.32079e-07
6.31393e-07
6.35038e-07
6.44105e-07
6.70062e-07
7.07999e-07
7.60279e-07
8.26742e-07
9.09022e-07
1.00923e-06
1.12929e-06
1.27125e-06
1.43752e-06
1.63046e-06
1.85179e-06
2.10739e-06
2.4149e-06
2.81888e-06
3.41186e-06
4.29902e-06
5.45775e-06
6.98453e-06
9.32405e-06
1.31604e-05
1.7145e-05
1.91531e-05
1.93967e-05
1.7556e-05
1.39414e-05
1.14805e-05
3.2183e-07
3.28715e-07
3.35495e-07
3.42244e-07
3.48995e-07
3.55757e-07
3.62532e-07
3.69319e-07
3.76116e-07
3.82923e-07
3.89739e-07
3.96566e-07
4.03404e-07
4.10258e-07
4.1713e-07
4.24025e-07
4.30951e-07
4.37915e-07
4.44926e-07
4.51994e-07
4.59132e-07
4.66356e-07
4.73681e-07
4.81135e-07
4.8891e-07
4.97588e-07
5.07373e-07
5.1851e-07
5.31191e-07
5.45558e-07
5.6179e-07
5.80085e-07
6.00673e-07
6.23811e-07
6.49781e-07
6.78878e-07
7.11403e-07
7.47639e-07
7.87821e-07
8.32094e-07
8.80446e-07
9.32622e-07
9.8803e-07
1.04575e-06
1.10397e-06
1.16032e-06
1.21172e-06
1.25453e-06
1.28514e-06
1.301e-06
1.30245e-06
1.29325e-06
1.26938e-06
1.24263e-06
1.23114e-06
1.26182e-06
1.41111e-06
1.83198e-06
2.33432e-06
2.16052e-06
1.83287e-06
1.62794e-06
1.71027e-06
2.23638e-06
2.5841e-06
2.80465e-06
2.83887e-06
2.7978e-06
3.30332e-06
2.74177e-07
2.83336e-07
2.92748e-07
3.02438e-07
3.12397e-07
3.22606e-07
3.33043e-07
3.43685e-07
3.54509e-07
3.65492e-07
3.7661e-07
3.87836e-07
3.99143e-07
4.10503e-07
4.21884e-07
4.33254e-07
4.44576e-07
4.55812e-07
4.6692e-07
4.77853e-07
4.88561e-07
4.98986e-07
5.09064e-07
5.18711e-07
5.27631e-07
5.35095e-07
5.40953e-07
5.45068e-07
5.47378e-07
5.47842e-07
5.46391e-07
5.42926e-07
5.37315e-07
5.29391e-07
5.18961e-07
5.05812e-07
4.89725e-07
4.70492e-07
4.4793e-07
4.21912e-07
3.92403e-07
3.59498e-07
3.23478e-07
2.84852e-07
2.444e-07
2.032e-07
1.62614e-07
1.24236e-07
8.97871e-08
6.09641e-08
3.9026e-08
2.40577e-08
1.62571e-08
1.31664e-08
1.17727e-08
1.0666e-08
1.30695e-08
3.26046e-08
7.83682e-08
8.61732e-08
7.75921e-08
7.55875e-08
8.37223e-08
9.79447e-08
1.02088e-07
9.73178e-08
8.48664e-08
6.50575e-08
6.6345e-08
6.11456e-06
6.10041e-06
6.08924e-06
6.07953e-06
6.07193e-06
6.06794e-06
6.06901e-06
6.0734e-06
6.07491e-06
6.07901e-06
6.08331e-06
6.0865e-06
6.08426e-06
6.07643e-06
6.07133e-06
6.07735e-06
6.0799e-06
6.07726e-06
6.08372e-06
6.09042e-06
6.08951e-06
6.06347e-06
6.05495e-06
6.05305e-06
6.05103e-06
6.05596e-06
6.05559e-06
6.05623e-06
6.06373e-06
6.07246e-06
6.07386e-06
6.06679e-06
6.05813e-06
6.05514e-06
6.05477e-06
6.07008e-06
6.07973e-06
6.07286e-06
6.06284e-06
6.06804e-06
6.07557e-06
6.07605e-06
6.07312e-06
6.08001e-06
6.08896e-06
6.09476e-06
6.09909e-06
6.10253e-06
6.10238e-06
6.0953e-06
6.08693e-06
6.08576e-06
6.09052e-06
6.0941e-06
6.10194e-06
6.11441e-06
6.12597e-06
6.13421e-06
6.13988e-06
6.08078e-06
6.07323e-06
6.06873e-06
6.06657e-06
6.06701e-06
6.06918e-06
6.07143e-06
6.07135e-06
6.07213e-06
6.07467e-06
6.07575e-06
6.07374e-06
6.06845e-06
6.0641e-06
6.06558e-06
6.07005e-06
6.06995e-06
6.06992e-06
6.07598e-06
6.07917e-06
6.07049e-06
6.04839e-06
6.04226e-06
6.04045e-06
6.03986e-06
6.04522e-06
6.04477e-06
6.04555e-06
6.05169e-06
6.05974e-06
6.06203e-06
6.0565e-06
6.04801e-06
6.04313e-06
6.04065e-06
6.05158e-06
6.06438e-06
6.0639e-06
6.0549e-06
6.05348e-06
6.05797e-06
6.06077e-06
6.05907e-06
6.05995e-06
6.06555e-06
6.07244e-06
6.07875e-06
6.08368e-06
6.08723e-06
6.08675e-06
6.08197e-06
6.07724e-06
6.07546e-06
6.07502e-06
6.07585e-06
6.08004e-06
6.08707e-06
6.09495e-06
6.10536e-06
6.06698e-06
6.06652e-06
6.06761e-06
6.06939e-06
6.07025e-06
6.06809e-06
6.06549e-06
6.06429e-06
6.06415e-06
6.06396e-06
6.06184e-06
6.05817e-06
6.05504e-06
6.05528e-06
6.05845e-06
6.06001e-06
6.05923e-06
6.06122e-06
6.06558e-06
6.06383e-06
6.05064e-06
6.03296e-06
6.02852e-06
6.02724e-06
6.0281e-06
6.03342e-06
6.033e-06
6.03366e-06
6.03881e-06
6.04618e-06
6.04906e-06
6.04502e-06
6.03727e-06
6.03109e-06
6.02681e-06
6.03322e-06
6.04611e-06
6.0513e-06
6.04601e-06
6.04133e-06
6.04183e-06
6.04389e-06
6.04374e-06
6.04261e-06
6.04418e-06
6.04887e-06
6.05513e-06
6.06098e-06
6.06602e-06
6.06979e-06
6.07081e-06
6.06857e-06
6.06482e-06
6.06135e-06
6.05887e-06
6.05792e-06
6.05888e-06
6.0616e-06
6.06652e-06
6.07408e-06
6.0743e-06
6.07163e-06
6.06689e-06
6.06072e-06
6.05645e-06
6.05355e-06
6.05201e-06
6.05072e-06
6.04886e-06
6.04643e-06
6.04466e-06
6.04476e-06
6.04665e-06
6.04819e-06
6.04784e-06
6.0479e-06
6.05042e-06
6.05166e-06
6.04523e-06
6.03054e-06
6.01694e-06
6.01379e-06
6.01322e-06
6.01548e-06
6.02053e-06
6.02018e-06
6.02057e-06
6.025e-06
6.03169e-06
6.03495e-06
6.03224e-06
6.02548e-06
6.01869e-06
6.01298e-06
6.01533e-06
6.02617e-06
6.03488e-06
6.03441e-06
6.02981e-06
6.02734e-06
6.02724e-06
6.02708e-06
6.02574e-06
6.02491e-06
6.02651e-06
6.0307e-06
6.03603e-06
6.04119e-06
6.04608e-06
6.05035e-06
6.05359e-06
6.05412e-06
6.05189e-06
6.04837e-06
6.04486e-06
6.04212e-06
6.04057e-06
6.04035e-06
6.07228e-06
6.06532e-06
6.05626e-06
6.04859e-06
6.04335e-06
6.03989e-06
6.03783e-06
6.03635e-06
6.03502e-06
6.03375e-06
6.03307e-06
6.03337e-06
6.03436e-06
6.03509e-06
6.0348e-06
6.03427e-06
6.03519e-06
6.03652e-06
6.03399e-06
6.02425e-06
6.01019e-06
6.00005e-06
5.998e-06
5.99828e-06
6.00176e-06
6.00644e-06
6.00614e-06
6.00627e-06
6.01005e-06
6.0161e-06
6.01959e-06
6.018e-06
6.01235e-06
6.00554e-06
5.99888e-06
5.99786e-06
6.00546e-06
6.01527e-06
6.01912e-06
6.01692e-06
6.01351e-06
6.0114e-06
6.01017e-06
6.00856e-06
6.00666e-06
6.00585e-06
6.00726e-06
6.01069e-06
6.01492e-06
6.0192e-06
6.0237e-06
6.02855e-06
6.03349e-06
6.03801e-06
6.03945e-06
6.03772e-06
6.03445e-06
6.03093e-06
6.02783e-06
6.04582e-06
6.03831e-06
6.0318e-06
6.02704e-06
6.02412e-06
6.02234e-06
6.02133e-06
6.02068e-06
6.0203e-06
6.02024e-06
6.02051e-06
6.02081e-06
6.02066e-06
6.01994e-06
6.01919e-06
6.01924e-06
6.01991e-06
6.01881e-06
6.01285e-06
6.0016e-06
5.98935e-06
5.98207e-06
5.98104e-06
5.98235e-06
5.98668e-06
5.99095e-06
5.99069e-06
5.9906e-06
5.99378e-06
5.99923e-06
6.00282e-06
6.00216e-06
5.99761e-06
5.99121e-06
5.98413e-06
5.98053e-06
5.9845e-06
5.99335e-06
6e-06
6.00111e-06
5.99874e-06
5.99579e-06
5.99338e-06
5.99113e-06
5.98862e-06
5.98636e-06
5.98538e-06
5.98632e-06
5.98874e-06
5.99178e-06
5.99506e-06
5.99889e-06
6.0038e-06
6.0095e-06
6.01618e-06
6.02281e-06
6.0269e-06
6.02771e-06
6.02799e-06
6.01684e-06
6.01263e-06
6.00951e-06
6.00756e-06
6.00651e-06
6.00602e-06
6.00584e-06
6.00578e-06
6.00576e-06
6.00563e-06
6.0052e-06
6.0043e-06
6.00308e-06
6.00205e-06
6.00168e-06
6.00177e-06
6.00095e-06
5.99706e-06
5.98879e-06
5.97761e-06
5.96771e-06
5.96278e-06
5.96274e-06
5.96515e-06
5.97e-06
5.97384e-06
5.9736e-06
5.97332e-06
5.97596e-06
5.98084e-06
5.98444e-06
5.98452e-06
5.98103e-06
5.97531e-06
5.96828e-06
5.96295e-06
5.9635e-06
5.96997e-06
5.9775e-06
5.98152e-06
5.98143e-06
5.97909e-06
5.97621e-06
5.97334e-06
5.97034e-06
5.96726e-06
5.96468e-06
5.96338e-06
5.96361e-06
5.96492e-06
5.96676e-06
5.96898e-06
5.97184e-06
5.97584e-06
5.98123e-06
5.98791e-06
5.99687e-06
6.00536e-06
6.01307e-06
5.99393e-06
5.99228e-06
5.99104e-06
5.99034e-06
5.98994e-06
5.98963e-06
5.98927e-06
5.98872e-06
5.9879e-06
5.98675e-06
5.98527e-06
5.98371e-06
5.98245e-06
5.98179e-06
5.9815e-06
5.98061e-06
5.97768e-06
5.97152e-06
5.96234e-06
5.95236e-06
5.94489e-06
5.94193e-06
5.9429e-06
5.94633e-06
5.9514e-06
5.95483e-06
5.95462e-06
5.95418e-06
5.95632e-06
5.96067e-06
5.96419e-06
5.96485e-06
5.96231e-06
5.95743e-06