/*--------------------------------*- C++ -*----------------------------------*\
| =========                 |                                                 |
| \\      /  F ield         | OpenFOAM: The Open Source CFD Toolbox           |
|  \\    /   O peration     | Version:  2312                                  |
|   \\  /    A nd           | Website:  www.openfoam.com                      |
|    \\/     M anipulation  |                                                 |
\*---------------------------------------------------------------------------*/
FoamFile
{
    version     2.0;
    format      ascii;
    arch        "LSB;label=32;scalar=64";
    class       volScalarField;
    location    "1100";
    object      nuTilda;
}
// * * * * * * * * * * * * * * * * * * * * * * * * * * * * * * * * * * * * * //

dimensions      [0 2 -1 0 0 0 0];

internalField   nonuniform List<scalar> 
76025
(
4.01408e-05
4.01434e-05
4.01426e-05
4.01387e-05
4.01432e-05
4.01477e-05
4.01629e-05
4.01801e-05
4.01947e-05
4.0207e-05
4.02177e-05
4.02262e-05
4.02326e-05
4.02341e-05
4.02324e-05
4.02305e-05
4.02284e-05
4.02274e-05
4.02237e-05
4.02217e-05
4.02155e-05
4.02102e-05
4.02058e-05
4.02066e-05
4.02165e-05
4.02257e-05
4.02443e-05
4.02629e-05
4.02832e-05
4.03065e-05
4.03321e-05
4.03531e-05
4.03782e-05
4.03984e-05
4.04193e-05
4.04361e-05
4.04524e-05
4.04744e-05
4.04939e-05
4.0512e-05
4.05275e-05
4.0542e-05
4.05607e-05
4.05736e-05
4.05835e-05
4.05885e-05
4.05924e-05
4.05887e-05
4.05776e-05
4.05594e-05
4.05355e-05
4.05089e-05
4.04797e-05
4.04505e-05
4.04249e-05
4.04005e-05
4.03831e-05
4.03673e-05
4.03646e-05
4.03758e-05
4.04047e-05
4.04459e-05
4.04981e-05
4.05553e-05
4.06128e-05
4.06707e-05
4.07259e-05
4.07667e-05
4.07969e-05
4.00922e-05
4.01126e-05
4.01268e-05
4.01333e-05
4.0137e-05
4.01371e-05
4.01405e-05
4.01484e-05
4.01599e-05
4.01728e-05
4.01862e-05
4.01992e-05
4.02117e-05
4.02231e-05
4.02308e-05
4.02365e-05
4.02391e-05
4.02406e-05
4.02404e-05
4.02394e-05
4.02365e-05
4.0232e-05
4.02266e-05
4.02151e-05
4.0205e-05
4.01974e-05
4.01931e-05
4.01921e-05
4.01939e-05
4.01977e-05
4.02053e-05
4.02188e-05
4.02349e-05
4.02511e-05
4.0267e-05
4.02817e-05
4.02948e-05
4.03067e-05
4.0317e-05
4.03253e-05
4.03312e-05
4.03345e-05
4.03352e-05
4.03331e-05
4.0328e-05
4.03191e-05
4.03037e-05
4.0288e-05
4.02736e-05
4.02617e-05
4.02532e-05
4.02563e-05
4.02656e-05
4.02812e-05
4.03026e-05
4.03294e-05
4.03612e-05
4.03976e-05
4.04378e-05
4.04814e-05
4.05271e-05
4.05732e-05
4.0618e-05
4.06601e-05
4.06984e-05
4.07317e-05
4.07593e-05
4.07798e-05
4.08001e-05
4.00124e-05
4.00319e-05
4.00578e-05
4.00828e-05
4.01022e-05
4.01155e-05
4.0124e-05
4.01305e-05
4.01374e-05
4.01459e-05
4.01559e-05
4.01673e-05
4.01795e-05
4.01924e-05
4.02052e-05
4.0217e-05
4.02272e-05
4.02355e-05
4.0242e-05
4.02467e-05
4.02498e-05
4.02514e-05
4.02516e-05
4.02495e-05
4.02452e-05
4.02394e-05
4.02329e-05
4.02261e-05
4.022e-05
4.02121e-05
4.0201e-05
4.01922e-05
4.01862e-05
4.01827e-05
4.01808e-05
4.01802e-05
4.01802e-05
4.01804e-05
4.01805e-05
4.01806e-05
4.0181e-05
4.01821e-05
4.01838e-05
4.01863e-05
4.01898e-05
4.01945e-05
4.02042e-05
4.02179e-05
4.02347e-05
4.02541e-05
4.02761e-05
4.03007e-05
4.03279e-05
4.03573e-05
4.03889e-05
4.04223e-05
4.0457e-05
4.04924e-05
4.0528e-05
4.05628e-05
4.05962e-05
4.06274e-05
4.06555e-05
4.068e-05
4.07004e-05
4.07163e-05
4.07278e-05
4.07339e-05
4.07372e-05
3.99519e-05
3.99598e-05
3.99746e-05
3.99936e-05
4.00148e-05
4.00415e-05
4.00666e-05
4.00866e-05
4.01022e-05
4.01149e-05
4.01261e-05
4.0137e-05
4.0148e-05
4.01594e-05
4.01716e-05
4.01842e-05
4.0197e-05
4.02094e-05
4.02211e-05
4.02316e-05
4.02409e-05
4.02489e-05
4.02557e-05
4.02611e-05
4.02652e-05
4.02678e-05
4.0269e-05
4.02689e-05
4.0268e-05
4.02662e-05
4.02631e-05
4.02592e-05
4.02551e-05
4.02514e-05
4.02485e-05
4.02465e-05
4.02457e-05
4.02461e-05
4.02478e-05
4.02509e-05
4.02552e-05
4.02609e-05
4.02679e-05
4.02765e-05
4.02867e-05
4.02986e-05
4.03123e-05
4.03278e-05
4.03452e-05
4.03643e-05
4.03851e-05
4.04074e-05
4.04309e-05
4.04553e-05
4.04803e-05
4.05056e-05
4.05305e-05
4.05547e-05
4.05776e-05
4.05988e-05
4.06176e-05
4.06339e-05
4.06471e-05
4.06571e-05
4.06639e-05
4.06672e-05
4.06675e-05
4.06635e-05
4.06586e-05
3.99202e-05
3.99163e-05
3.99166e-05
3.99217e-05
3.99322e-05
3.99487e-05
3.99682e-05
3.99901e-05
4.00172e-05
4.00433e-05
4.00659e-05
4.00851e-05
4.01019e-05
4.0117e-05
4.0131e-05
4.01445e-05
4.01579e-05
4.01713e-05
4.01847e-05
4.01979e-05
4.02106e-05
4.02228e-05
4.02343e-05
4.02449e-05
4.02548e-05
4.02637e-05
4.02717e-05
4.02787e-05
4.02848e-05
4.02901e-05
4.02948e-05
4.02987e-05
4.03021e-05
4.03051e-05
4.03079e-05
4.03108e-05
4.0314e-05
4.03177e-05
4.03222e-05
4.03274e-05
4.03335e-05
4.03406e-05
4.03487e-05
4.03578e-05
4.0368e-05
4.03794e-05
4.03918e-05
4.04052e-05
4.04195e-05
4.04347e-05
4.04505e-05
4.04667e-05
4.04832e-05
4.04996e-05
4.05156e-05
4.05309e-05
4.05453e-05
4.05583e-05
4.05698e-05
4.05793e-05
4.05869e-05
4.05922e-05
4.05952e-05
4.05959e-05
4.05943e-05
4.05903e-05
4.05843e-05
4.05745e-05
4.0566e-05
3.99238e-05
3.99128e-05
3.99012e-05
3.98922e-05
3.98872e-05
3.98871e-05
3.9892e-05
3.99024e-05
3.9918e-05
3.99366e-05
3.99583e-05
3.99854e-05
4.00129e-05
4.00381e-05
4.00606e-05
4.00809e-05
4.00994e-05
4.01165e-05
4.01326e-05
4.01481e-05
4.01631e-05
4.01777e-05
4.01918e-05
4.02054e-05
4.02186e-05
4.02312e-05
4.02432e-05
4.02546e-05
4.02654e-05
4.02756e-05
4.02852e-05
4.02943e-05
4.03029e-05
4.0311e-05
4.03188e-05
4.03263e-05
4.03336e-05
4.03408e-05
4.03481e-05
4.03555e-05
4.03632e-05
4.03713e-05
4.03797e-05
4.03885e-05
4.03978e-05
4.04074e-05
4.04174e-05
4.04276e-05
4.0438e-05
4.04485e-05
4.0459e-05
4.04691e-05
4.04789e-05
4.04881e-05
4.04965e-05
4.0504e-05
4.05103e-05
4.05153e-05
4.0519e-05
4.05212e-05
4.05218e-05
4.05208e-05
4.05182e-05
4.0514e-05
4.0508e-05
4.05001e-05
4.04903e-05
4.04766e-05
4.04625e-05
3.99102e-05
3.99153e-05
3.99119e-05
3.98999e-05
3.98861e-05
3.98733e-05
3.98634e-05
3.98574e-05
3.9856e-05
3.98594e-05
3.98679e-05
3.98814e-05
3.98984e-05
3.99193e-05
3.99457e-05
3.99738e-05
4.00006e-05
4.00255e-05
4.00485e-05
4.00698e-05
4.00896e-05
4.01082e-05
4.01258e-05
4.01425e-05
4.01585e-05
4.01738e-05
4.01885e-05
4.02027e-05
4.02162e-05
4.02293e-05
4.02417e-05
4.02537e-05
4.02652e-05
4.02762e-05
4.02867e-05
4.02968e-05
4.03065e-05
4.03157e-05
4.03247e-05
4.03333e-05
4.03419e-05
4.03503e-05
4.03586e-05
4.03669e-05
4.0375e-05
4.03829e-05
4.03907e-05
4.03983e-05
4.04055e-05
4.04123e-05
4.04187e-05
4.04245e-05
4.04296e-05
4.0434e-05
4.04375e-05
4.04401e-05
4.04418e-05
4.04424e-05
4.0442e-05
4.04404e-05
4.04378e-05
4.04339e-05
4.04287e-05
4.0422e-05
4.04134e-05
4.04023e-05
4.03884e-05
4.03689e-05
4.03464e-05
3.98472e-05
3.98701e-05
3.98867e-05
3.98956e-05
3.98968e-05
3.98912e-05
3.98787e-05
3.98638e-05
3.98495e-05
3.98376e-05
3.98291e-05
3.98248e-05
3.98249e-05
3.98298e-05
3.98397e-05
3.98543e-05
3.98737e-05
3.98984e-05
3.99253e-05
3.99522e-05
3.9978e-05
4.00025e-05
4.00255e-05
4.00472e-05
4.00676e-05
4.00868e-05
4.0105e-05
4.01222e-05
4.01386e-05
4.01542e-05
4.0169e-05
4.01831e-05
4.01965e-05
4.02093e-05
4.02214e-05
4.0233e-05
4.02439e-05
4.02542e-05
4.02639e-05
4.02731e-05
4.02819e-05
4.02903e-05
4.02983e-05
4.03059e-05
4.03131e-05
4.03198e-05
4.03261e-05
4.03318e-05
4.0337e-05
4.03417e-05
4.03457e-05
4.03491e-05
4.03519e-05
4.03539e-05
4.03552e-05
4.03558e-05
4.03556e-05
4.03546e-05
4.03527e-05
4.03499e-05
4.0346e-05
4.03407e-05
4.03336e-05
4.03242e-05
4.03117e-05
4.0295e-05
4.02734e-05
4.02429e-05
4.02083e-05
3.97541e-05
3.97795e-05
3.98059e-05
3.98308e-05
3.98519e-05
3.98673e-05
3.98759e-05
3.98777e-05
3.98734e-05
3.98639e-05
3.98501e-05
3.98346e-05
3.98199e-05
3.98075e-05
3.97985e-05
3.9794e-05
3.97947e-05
3.98011e-05
3.98131e-05
3.98307e-05
3.98527e-05
3.98768e-05
3.99014e-05
3.99258e-05
3.99495e-05
3.99722e-05
3.99938e-05
4.00143e-05
4.00338e-05
4.00521e-05
4.00695e-05
4.00859e-05
4.01014e-05
4.01159e-05
4.01296e-05
4.01425e-05
4.01545e-05
4.01656e-05
4.0176e-05
4.01857e-05
4.01949e-05
4.02035e-05
4.02115e-05
4.0219e-05
4.02259e-05
4.02323e-05
4.02381e-05
4.02434e-05
4.02481e-05
4.02522e-05
4.02557e-05
4.02587e-05
4.0261e-05
4.02628e-05
4.02639e-05
4.02644e-05
4.02641e-05
4.02629e-05
4.02605e-05
4.02568e-05
4.02511e-05
4.0243e-05
4.02317e-05
4.0216e-05
4.01949e-05
4.01668e-05
4.01305e-05
4.00817e-05
4.00263e-05
3.96613e-05
3.9676e-05
3.96935e-05
3.97149e-05
3.97413e-05
3.97705e-05
3.9798e-05
3.98212e-05
3.9839e-05
3.98509e-05
3.98565e-05
3.98564e-05
3.98513e-05
3.98424e-05
3.98308e-05
3.9818e-05
3.98059e-05
3.97963e-05
3.97907e-05
3.97901e-05
3.97947e-05
3.9804e-05
3.9817e-05
3.98328e-05
3.98505e-05
3.98691e-05
3.98883e-05
3.99074e-05
3.99263e-05
3.99446e-05
3.99624e-05
3.99794e-05
3.99956e-05
4.0011e-05
4.00255e-05
4.00392e-05
4.00519e-05
4.00638e-05
4.00748e-05
4.00852e-05
4.00951e-05
4.01044e-05
4.01131e-05
4.01213e-05
4.01289e-05
4.0136e-05
4.01425e-05
4.01485e-05
4.01539e-05
4.01588e-05
4.01632e-05
4.01669e-05
4.017e-05
4.01724e-05
4.01739e-05
4.01743e-05
4.01734e-05
4.01708e-05
4.01661e-05
4.01585e-05
4.01473e-05
4.01315e-05
4.01099e-05
4.00811e-05
4.00437e-05
3.99958e-05
3.99362e-05
3.98611e-05
3.97743e-05
3.95861e-05
3.95894e-05
3.95963e-05
3.96067e-05
3.96211e-05
3.96397e-05
3.96626e-05
3.96904e-05
3.97213e-05
3.97512e-05
3.97775e-05
3.97993e-05
3.98159e-05
3.98273e-05
3.98336e-05
3.98352e-05
3.98332e-05
3.98287e-05
3.98231e-05
3.98177e-05
3.98136e-05
3.98115e-05
3.98119e-05
3.98149e-05
3.98203e-05
3.98279e-05
3.98373e-05
3.98481e-05
3.986e-05
3.98727e-05
3.98857e-05
3.9899e-05
3.99123e-05
3.99253e-05
3.99381e-05
3.99503e-05
3.99621e-05
3.99733e-05
3.99839e-05
3.99943e-05
4.00043e-05
4.00139e-05
4.00232e-05
4.0032e-05
4.00403e-05
4.00481e-05
4.00555e-05
4.00622e-05
4.00684e-05
4.00738e-05
4.00784e-05
4.00822e-05
4.00847e-05
4.00859e-05
4.00854e-05
4.00828e-05
4.00775e-05
4.00688e-05
4.00561e-05
4.00383e-05
4.00143e-05
3.99828e-05
3.99426e-05
3.98921e-05
3.98298e-05
3.97539e-05
3.96633e-05
3.95543e-05
3.94289e-05
3.95179e-05
3.95156e-05
3.95151e-05
3.95163e-05
3.95198e-05
3.95265e-05
3.9537e-05
3.95517e-05
3.95705e-05
3.95932e-05
3.96202e-05
3.96511e-05
3.96829e-05
3.97127e-05
3.9739e-05
3.97612e-05
3.97789e-05
3.97924e-05
3.98022e-05
3.98088e-05
3.98131e-05
3.9816e-05
3.9818e-05
3.982e-05
3.98222e-05
3.98251e-05
3.98288e-05
3.98334e-05
3.9839e-05
3.98454e-05
3.98526e-05
3.98604e-05
3.98687e-05
3.98773e-05
3.98861e-05
3.98949e-05
3.99038e-05
3.99124e-05
3.9921e-05
3.99296e-05
3.99381e-05
3.99464e-05
3.99545e-05
3.99622e-05
3.99694e-05
3.99761e-05
3.99821e-05
3.99873e-05
3.99915e-05
3.99945e-05
3.99961e-05
3.99959e-05
3.99935e-05
3.99884e-05
3.99802e-05
3.99681e-05
3.99514e-05
3.99292e-05
3.99005e-05
3.98642e-05
3.9819e-05
3.97638e-05
3.96971e-05
3.96176e-05
3.9524e-05
3.94145e-05
3.92886e-05
3.91423e-05
3.89718e-05
3.94467e-05
3.94426e-05
3.94389e-05
3.94358e-05
3.94336e-05
3.94326e-05
3.94331e-05
3.94357e-05
3.94414e-05
3.94507e-05
3.9464e-05
3.94809e-05
3.95014e-05
3.95255e-05
3.95531e-05
3.95839e-05
3.96154e-05
3.96453e-05
3.96725e-05
3.96965e-05
3.97172e-05
3.97349e-05
3.97499e-05
3.97625e-05
3.97733e-05
3.97826e-05
3.97908e-05
3.97982e-05
3.98051e-05
3.98117e-05
3.98181e-05
3.98245e-05
3.98308e-05
3.98371e-05
3.98434e-05
3.98496e-05
3.98557e-05
3.98617e-05
3.98675e-05
3.98732e-05
3.98787e-05
3.98838e-05
3.98884e-05
3.98924e-05
3.98956e-05
3.98978e-05
3.98988e-05
3.98982e-05
3.98959e-05
3.98914e-05
3.98843e-05
3.98741e-05
3.98603e-05
3.98422e-05
3.98192e-05
3.97903e-05
3.97548e-05
3.97117e-05
3.966e-05
3.95986e-05
3.95264e-05
3.94423e-05
3.93451e-05
3.92335e-05
3.91064e-05
3.89623e-05
3.88001e-05
3.86157e-05
3.84081e-05
3.93658e-05
3.93614e-05
3.93567e-05
3.9352e-05
3.93475e-05
3.93433e-05
3.93394e-05
3.93361e-05
3.93338e-05
3.93328e-05
3.93336e-05
3.93369e-05
3.93432e-05
3.93529e-05
3.93659e-05
3.9382e-05
3.9401e-05
3.94228e-05
3.94474e-05
3.94749e-05
3.95042e-05
3.95336e-05
3.95615e-05
3.95874e-05
3.96109e-05
3.96321e-05
3.96511e-05
3.96681e-05
3.96832e-05
3.96966e-05
3.97086e-05
3.97193e-05
3.97287e-05
3.97372e-05
3.97446e-05
3.97511e-05
3.97567e-05
3.97614e-05
3.97653e-05
3.97683e-05
3.97703e-05
3.97712e-05
3.97709e-05
3.97691e-05
3.97656e-05
3.97602e-05
3.97525e-05
3.97423e-05
3.9729e-05
3.97122e-05
3.96915e-05
3.96662e-05
3.96357e-05
3.95994e-05
3.95565e-05
3.95063e-05
3.94479e-05
3.93804e-05
3.9303e-05
3.92147e-05
3.91145e-05
3.90014e-05
3.88743e-05
3.87318e-05
3.85726e-05
3.83947e-05
3.81967e-05
3.79746e-05
3.77185e-05
3.92697e-05
3.92652e-05
3.92603e-05
3.92552e-05
3.92499e-05
3.92446e-05
3.92392e-05
3.92338e-05
3.92283e-05
3.9223e-05
3.92181e-05
3.92138e-05
3.92105e-05
3.92085e-05
3.92082e-05
3.92099e-05
3.92141e-05
3.92209e-05
3.92304e-05
3.92423e-05
3.92562e-05
3.9272e-05
3.92898e-05
3.93098e-05
3.9332e-05
3.93561e-05
3.93808e-05
3.9405e-05
3.94279e-05
3.9449e-05
3.94681e-05
3.94851e-05
3.95001e-05
3.9513e-05
3.95238e-05
3.95327e-05
3.95395e-05
3.95443e-05
3.95473e-05
3.95484e-05
3.95473e-05
3.95441e-05
3.95384e-05
3.95301e-05
3.95189e-05
3.95045e-05
3.94866e-05
3.94648e-05
3.94388e-05
3.9408e-05
3.93719e-05
3.93301e-05
3.92819e-05
3.92267e-05
3.91639e-05
3.90927e-05
3.90125e-05
3.89223e-05
3.88214e-05
3.87089e-05
3.85836e-05
3.84443e-05
3.82896e-05
3.81179e-05
3.79271e-05
3.77143e-05
3.74771e-05
3.72064e-05
3.69101e-05
3.91515e-05
3.91472e-05
3.91425e-05
3.91374e-05
3.91319e-05
3.91262e-05
3.91202e-05
3.91141e-05
3.91076e-05
3.9101e-05
3.90942e-05
3.90871e-05
3.908e-05
3.90729e-05
3.9066e-05
3.90596e-05
3.90539e-05
3.90492e-05
3.90456e-05
3.90432e-05
3.90422e-05
3.9043e-05
3.90454e-05
3.90495e-05
3.90549e-05
3.90613e-05
3.90685e-05
3.90765e-05
3.90856e-05
3.90957e-05
3.9107e-05
3.91194e-05
3.91323e-05
3.91447e-05
3.91556e-05
3.91645e-05
3.9171e-05
3.91752e-05
3.9177e-05
3.91762e-05
3.91725e-05
3.91656e-05
3.91554e-05
3.91414e-05
3.91235e-05
3.91014e-05
3.90747e-05
3.90431e-05
3.90061e-05
3.89634e-05
3.89146e-05
3.88591e-05
3.87963e-05
3.87258e-05
3.86467e-05
3.85585e-05
3.84603e-05
3.83512e-05
3.82302e-05
3.80961e-05
3.79474e-05
3.77824e-05
3.75992e-05
3.73951e-05
3.71665e-05
3.69083e-05
3.66144e-05
3.62739e-05
3.5868e-05
3.9003e-05
3.89991e-05
3.89946e-05
3.89897e-05
3.89843e-05
3.89786e-05
3.89724e-05
3.89658e-05
3.89589e-05
3.89517e-05
3.89441e-05
3.89361e-05
3.89277e-05
3.8919e-05
3.89098e-05
3.89003e-05
3.88905e-05
3.88806e-05
3.88706e-05
3.88606e-05
3.88508e-05
3.88412e-05
3.88321e-05
3.88233e-05
3.8815e-05
3.88071e-05
3.87995e-05
3.87925e-05
3.87858e-05
3.87793e-05
3.87727e-05
3.87655e-05
3.87575e-05
3.87485e-05
3.87384e-05
3.87273e-05
3.87155e-05
3.87046e-05
3.86956e-05
3.86873e-05
3.86778e-05
3.86657e-05
3.86503e-05
3.86311e-05
3.86077e-05
3.85796e-05
3.85463e-05
3.85072e-05
3.84622e-05
3.84107e-05
3.83523e-05
3.82862e-05
3.82119e-05
3.81286e-05
3.80356e-05
3.79319e-05
3.78165e-05
3.76882e-05
3.75455e-05
3.73868e-05
3.721e-05
3.70125e-05
3.67906e-05
3.65392e-05
3.62511e-05
3.59168e-05
3.55246e-05
3.50606e-05
3.44955e-05
3.88148e-05
3.8811e-05
3.88067e-05
3.88018e-05
3.87964e-05
3.87906e-05
3.87842e-05
3.87774e-05
3.87701e-05
3.87623e-05
3.87541e-05
3.87453e-05
3.87361e-05
3.87264e-05
3.87161e-05
3.87052e-05
3.86938e-05
3.86818e-05
3.86692e-05
3.8656e-05
3.86422e-05
3.86279e-05
3.8613e-05
3.85977e-05
3.85819e-05
3.85656e-05
3.85489e-05
3.85316e-05
3.85138e-05
3.84954e-05
3.84762e-05
3.84561e-05
3.84349e-05
3.84126e-05
3.8389e-05
3.83639e-05
3.83369e-05
3.83074e-05
3.82751e-05
3.82397e-05
3.82022e-05
3.81644e-05
3.81282e-05
3.80929e-05
3.80561e-05
3.80156e-05
3.79704e-05
3.79201e-05
3.7864e-05
3.78012e-05
3.77303e-05
3.76505e-05
3.75609e-05
3.74607e-05
3.73488e-05
3.72239e-05
3.70845e-05
3.69289e-05
3.67549e-05
3.65598e-05
3.63397e-05
3.60892e-05
3.58009e-05
3.54645e-05
3.50683e-05
3.45988e-05
3.40431e-05
3.33934e-05
3.26578e-05
3.85753e-05
3.85709e-05
3.85661e-05
3.85607e-05
3.85548e-05
3.85484e-05
3.85415e-05
3.85341e-05
3.85261e-05
3.85175e-05
3.85084e-05
3.84986e-05
3.84883e-05
3.84773e-05
3.84657e-05
3.84535e-05
3.84405e-05
3.84268e-05
3.84123e-05
3.83969e-05
3.83808e-05
3.83637e-05
3.83457e-05
3.83267e-05
3.83068e-05
3.82858e-05
3.82637e-05
3.82405e-05
3.8216e-05
3.81903e-05
3.81633e-05
3.81347e-05
3.81046e-05
3.80726e-05
3.80388e-05
3.80029e-05
3.79646e-05
3.79237e-05
3.78799e-05
3.78327e-05
3.7782e-05
3.77276e-05
3.76686e-05
3.76041e-05
3.7534e-05
3.74601e-05
3.73853e-05
3.73102e-05
3.72314e-05
3.71451e-05
3.70495e-05
3.69442e-05
3.68282e-05
3.66998e-05
3.6557e-05
3.63983e-05
3.6221e-05
3.60219e-05
3.57966e-05
3.55386e-05
3.52406e-05
3.48918e-05
3.44805e-05
3.39931e-05
3.34213e-05
3.27637e-05
3.20187e-05
3.12319e-05
3.04651e-05
3.82671e-05
3.82612e-05
3.82548e-05
3.8248e-05
3.82408e-05
3.8233e-05
3.82248e-05
3.8216e-05
3.82066e-05
3.81966e-05
3.81859e-05
3.81745e-05
3.81625e-05
3.81497e-05
3.81361e-05
3.81217e-05
3.81065e-05
3.80904e-05
3.80733e-05
3.80553e-05
3.80363e-05
3.80161e-05
3.79948e-05
3.79722e-05
3.79484e-05
3.79231e-05
3.78963e-05
3.7868e-05
3.7838e-05
3.78061e-05
3.77724e-05
3.77366e-05
3.76985e-05
3.7658e-05
3.76149e-05
3.7569e-05
3.75199e-05
3.74676e-05
3.74115e-05
3.73513e-05
3.72866e-05
3.7217e-05
3.7142e-05
3.70609e-05
3.6973e-05
3.68777e-05
3.67743e-05
3.66614e-05
3.65375e-05
3.64021e-05
3.62581e-05
3.61083e-05
3.59488e-05
3.57747e-05
3.55837e-05
3.53713e-05
3.51312e-05
3.48559e-05
3.4536e-05
3.41599e-05
3.37185e-05
3.32025e-05
3.26076e-05
3.19263e-05
3.11943e-05
3.04361e-05
2.97156e-05
2.90787e-05
2.87058e-05
3.78616e-05
3.78531e-05
3.78442e-05
3.78349e-05
3.78251e-05
3.78149e-05
3.78041e-05
3.77928e-05
3.77808e-05
3.77682e-05
3.77549e-05
3.77409e-05
3.7726e-05
3.77103e-05
3.76936e-05
3.76761e-05
3.76575e-05
3.76378e-05
3.76171e-05
3.75951e-05
3.75718e-05
3.75473e-05
3.75212e-05
3.74937e-05
3.74645e-05
3.74335e-05
3.74007e-05
3.73659e-05
3.73288e-05
3.72895e-05
3.72476e-05
3.72029e-05
3.71554e-05
3.71045e-05
3.70503e-05
3.69923e-05
3.69303e-05
3.68639e-05
3.67925e-05
3.67159e-05
3.66333e-05
3.65442e-05
3.64479e-05
3.63436e-05
3.62305e-05
3.61075e-05
3.59736e-05
3.58275e-05
3.56676e-05
3.54921e-05
3.5299e-05
3.5085e-05
3.48458e-05
3.45865e-05
3.43089e-05
3.39972e-05
3.3638e-05
3.32217e-05
3.27386e-05
3.21732e-05
3.15494e-05
3.08728e-05
3.01659e-05
2.94754e-05
2.8823e-05
2.82735e-05
2.79419e-05
2.79783e-05
2.8839e-05
3.73094e-05
3.72973e-05
3.72847e-05
3.72716e-05
3.72581e-05
3.7244e-05
3.72294e-05
3.72141e-05
3.71982e-05
3.71815e-05
3.7164e-05
3.71457e-05
3.71264e-05
3.71062e-05
3.70849e-05
3.70625e-05
3.70388e-05
3.70139e-05
3.69876e-05
3.69599e-05
3.69305e-05
3.68995e-05
3.68667e-05
3.6832e-05
3.67953e-05
3.67563e-05
3.67149e-05
3.66709e-05
3.66241e-05
3.65743e-05
3.65213e-05
3.64646e-05
3.64041e-05
3.63393e-05
3.62701e-05
3.61958e-05
3.61161e-05
3.60305e-05
3.59382e-05
3.58387e-05
3.57311e-05
3.56147e-05
3.54885e-05
3.53514e-05
3.5202e-05
3.5039e-05
3.48606e-05
3.46647e-05
3.44488e-05
3.42097e-05
3.39435e-05
3.36456e-05
3.33106e-05
3.29323e-05
3.25035e-05
3.20204e-05
3.14811e-05
3.08939e-05
3.02637e-05
2.96065e-05
2.89655e-05
2.83482e-05
2.78004e-05
2.73956e-05
2.7236e-05
2.74611e-05
2.8388e-05
3.02954e-05
3.37612e-05
3.65225e-05
3.65054e-05
3.64878e-05
3.64696e-05
3.64508e-05
3.64312e-05
3.6411e-05
3.639e-05
3.63682e-05
3.63454e-05
3.63218e-05
3.6297e-05
3.62712e-05
3.62441e-05
3.62158e-05
3.61861e-05
3.61549e-05
3.61221e-05
3.60875e-05
3.60512e-05
3.60129e-05
3.59724e-05
3.59297e-05
3.58845e-05
3.58367e-05
3.57859e-05
3.57321e-05
3.56749e-05
3.5614e-05
3.55492e-05
3.548e-05
3.54061e-05
3.53269e-05
3.52423e-05
3.51516e-05
3.50542e-05
3.49495e-05
3.48367e-05
3.4715e-05
3.45832e-05
3.44403e-05
3.42849e-05
3.41155e-05
3.39302e-05
3.37269e-05
3.35029e-05
3.32552e-05
3.298e-05
3.26729e-05
3.23289e-05
3.19433e-05
3.15113e-05
3.10303e-05
3.05017e-05
2.99309e-05
2.93285e-05
2.87059e-05
2.81236e-05
2.75677e-05
2.70794e-05
2.67147e-05
2.65451e-05
2.66514e-05
2.72603e-05
2.85208e-05
3.06989e-05
3.41392e-05
3.93117e-05
4.66764e-05
3.53396e-05
3.53158e-05
3.52913e-05
3.52659e-05
3.52398e-05
3.52127e-05
3.51847e-05
3.51557e-05
3.51256e-05
3.50943e-05
3.50618e-05
3.5028e-05
3.49927e-05
3.49559e-05
3.49175e-05
3.48773e-05
3.48353e-05
3.47912e-05
3.47449e-05
3.46963e-05
3.46451e-05
3.45912e-05
3.45344e-05
3.44744e-05
3.44109e-05
3.43437e-05
3.42724e-05
3.41967e-05
3.41162e-05
3.40304e-05
3.39388e-05
3.3841e-05
3.37363e-05
3.3624e-05
3.35034e-05
3.33734e-05
3.3233e-05
3.30811e-05
3.2916e-05
3.27364e-05
3.254e-05
3.23248e-05
3.20881e-05
3.18267e-05
3.15371e-05
3.12154e-05
3.08577e-05
3.04605e-05
3.00211e-05
2.95384e-05
2.90206e-05
2.84757e-05
2.79155e-05
2.73817e-05
2.6871e-05
2.64151e-05
2.6048e-05
2.58128e-05
2.57359e-05
2.59563e-05
2.65511e-05
2.7629e-05
2.93278e-05
3.1835e-05
3.54224e-05
4.04687e-05
4.73633e-05
5.63934e-05
6.72445e-05
3.34544e-05
3.34211e-05
3.33869e-05
3.33517e-05
3.33153e-05
3.32777e-05
3.32389e-05
3.31987e-05
3.31571e-05
3.31139e-05
3.30691e-05
3.30226e-05
3.29742e-05
3.29238e-05
3.28713e-05
3.28166e-05
3.27594e-05
3.26995e-05
3.26369e-05
3.25712e-05
3.25023e-05
3.24298e-05
3.23535e-05
3.22731e-05
3.21882e-05
3.20985e-05
3.20034e-05
3.19026e-05
3.17955e-05
3.16814e-05
3.15598e-05
3.14298e-05
3.12905e-05
3.11407e-05
3.0979e-05
3.08039e-05
3.06137e-05
3.04064e-05
3.01798e-05
2.99313e-05
2.96586e-05
2.93589e-05
2.90299e-05
2.86697e-05
2.82765e-05
2.78525e-05
2.74017e-05
2.6931e-05
2.64511e-05
2.59777e-05
2.55772e-05
2.52392e-05
2.49841e-05
2.48042e-05
2.4778e-05
2.49696e-05
2.54365e-05
2.62019e-05
2.7311e-05
2.88338e-05
3.08697e-05
3.35719e-05
3.71523e-05
4.18788e-05
4.81197e-05
5.61854e-05
6.57275e-05
7.54139e-05
8.26369e-05
3.03065e-05
3.02617e-05
3.02159e-05
3.01688e-05
3.01204e-05
3.00706e-05
3.00193e-05
2.99663e-05
2.99115e-05
2.9855e-05
2.97964e-05
2.97358e-05
2.9673e-05
2.96078e-05
2.95401e-05
2.94697e-05
2.93964e-05
2.932e-05
2.92403e-05
2.9157e-05
2.90699e-05
2.89786e-05
2.88829e-05
2.87824e-05
2.86766e-05
2.85651e-05
2.84475e-05
2.83232e-05
2.81916e-05
2.8052e-05
2.79027e-05
2.77415e-05
2.75669e-05
2.73779e-05
2.71731e-05
2.69516e-05
2.67124e-05
2.64551e-05
2.61793e-05
2.58861e-05
2.55778e-05
2.52571e-05
2.49288e-05
2.46041e-05
2.42957e-05
2.40206e-05
2.3795e-05
2.36361e-05
2.35622e-05
2.35934e-05
2.37872e-05
2.41737e-05
2.47365e-05
2.5483e-05
2.64261e-05
2.75741e-05
2.89511e-05
3.06041e-05
3.26078e-05
3.50762e-05
3.81603e-05
4.20873e-05
4.72042e-05
5.36132e-05
6.11281e-05
6.91613e-05
7.43765e-05
7.35438e-05
6.88514e-05
2.50434e-05
2.49956e-05
2.49472e-05
2.48979e-05
2.48477e-05
2.47965e-05
2.47441e-05
2.46904e-05
2.46355e-05
2.45791e-05
2.45212e-05
2.44617e-05
2.44005e-05
2.43374e-05
2.42724e-05
2.42053e-05
2.41359e-05
2.40641e-05
2.39898e-05
2.39127e-05
2.38327e-05
2.37495e-05
2.36628e-05
2.35726e-05
2.34785e-05
2.33803e-05
2.32779e-05
2.31708e-05
2.30589e-05
2.29426e-05
2.28232e-05
2.27028e-05
2.25829e-05
2.24653e-05
2.23521e-05
2.22459e-05
2.215e-05
2.20685e-05
2.20062e-05
2.19688e-05
2.19627e-05
2.1995e-05
2.20749e-05
2.2299e-05
2.26155e-05
2.3032e-05
2.35326e-05
2.41135e-05
2.47718e-05
2.55013e-05
2.62955e-05
2.7149e-05
2.80558e-05
2.90071e-05
3.00113e-05
3.11129e-05
3.24219e-05
3.41293e-05
3.63457e-05
3.88279e-05
4.16311e-05
4.52773e-05
5.02601e-05
5.46798e-05
5.672e-05
5.69608e-05
5.51059e-05
5.11742e-05
4.81922e-05
1.85036e-05
1.86031e-05
1.86995e-05
1.87942e-05
1.88875e-05
1.89796e-05
1.90706e-05
1.91605e-05
1.92494e-05
1.93372e-05
1.9424e-05
1.95098e-05
1.95946e-05
1.96787e-05
1.97619e-05
1.98443e-05
1.99262e-05
2.00076e-05
2.00885e-05
2.01692e-05
2.02497e-05
2.03302e-05
2.0411e-05
2.04923e-05
2.05761e-05
2.06684e-05
2.07712e-05
2.08863e-05
2.10153e-05
2.11588e-05
2.13175e-05
2.14925e-05
2.16847e-05
2.1895e-05
2.21244e-05
2.23737e-05
2.26432e-05
2.29332e-05
2.32431e-05
2.35716e-05
2.39162e-05
2.4273e-05
2.46366e-05
2.5e-05
2.53523e-05
2.56808e-05
2.59706e-05
2.62054e-05
2.63697e-05
2.64538e-05
2.64615e-05
2.64128e-05
2.62855e-05
2.61407e-05
2.60778e-05
2.62448e-05
2.70183e-05
2.89253e-05
3.08341e-05
3.02092e-05
2.8929e-05
2.80444e-05
2.84087e-05
3.04861e-05
3.16782e-05
3.2378e-05
3.24832e-05
3.23569e-05
3.38327e-05
1.77681e-05
1.79164e-05
1.80651e-05
1.82146e-05
1.83647e-05
1.85149e-05
1.86648e-05
1.88142e-05
1.89627e-05
1.911e-05
1.92558e-05
1.93998e-05
1.95419e-05
1.96816e-05
1.98188e-05
1.99532e-05
2.00845e-05
2.02123e-05
2.03365e-05
2.04566e-05
2.05723e-05
2.06832e-05
2.07888e-05
2.08884e-05
2.09793e-05
2.10546e-05
2.11131e-05
2.11539e-05
2.11767e-05
2.11813e-05
2.1167e-05
2.11327e-05
2.10768e-05
2.09972e-05
2.0891e-05
2.07549e-05
2.05848e-05
2.0376e-05
2.01229e-05
1.98192e-05
1.94576e-05
1.903e-05
1.85275e-05
1.79406e-05
1.72591e-05
1.6473e-05
1.5573e-05
1.45525e-05
1.34115e-05
1.21691e-05
1.08811e-05
9.63892e-06
8.73789e-06
8.28863e-06
8.05974e-06
7.86306e-06
8.27333e-06
1.04017e-05
1.2961e-05
1.32738e-05
1.29286e-05
1.28439e-05
1.31779e-05
1.37078e-05
1.38513e-05
1.36857e-05
1.32229e-05
1.23692e-05
1.24302e-05
4.00871e-05
4.00609e-05
4.00401e-05
4.00221e-05
4.0008e-05
4.00006e-05
4.00026e-05
4.00107e-05
4.00135e-05
4.00211e-05
4.00291e-05
4.00351e-05
4.00309e-05
4.00164e-05
4.00069e-05
4.00181e-05
4.00228e-05
4.00179e-05
4.00299e-05
4.00423e-05
4.00406e-05
3.99923e-05
3.99764e-05
3.99729e-05
3.99691e-05
3.99783e-05
3.99776e-05
3.99788e-05
3.99928e-05
4.0009e-05
4.00116e-05
3.99984e-05
3.99823e-05
3.99767e-05
3.99761e-05
4.00046e-05
4.00225e-05
4.00097e-05
3.99911e-05
4.00008e-05
4.00148e-05
4.00157e-05
4.00102e-05
4.0023e-05
4.00396e-05
4.00504e-05
4.00584e-05
4.00648e-05
4.00645e-05
4.00514e-05
4.00358e-05
4.00337e-05
4.00425e-05
4.00492e-05
4.00637e-05
4.00868e-05
4.01082e-05
4.01234e-05
4.01339e-05
4.00244e-05
4.00104e-05
4.00021e-05
3.9998e-05
3.99989e-05
4.00029e-05
4.00071e-05
4.00069e-05
4.00084e-05
4.00131e-05
4.00151e-05
4.00114e-05
4.00015e-05
3.99934e-05
3.99962e-05
4.00045e-05
4.00043e-05
4.00043e-05
4.00155e-05
4.00214e-05
4.00053e-05
3.99642e-05
3.99528e-05
3.99494e-05
3.99483e-05
3.99583e-05
3.99574e-05
3.99589e-05
3.99703e-05
3.99853e-05
3.99896e-05
3.99793e-05
3.99635e-05
3.99544e-05
3.99498e-05
3.99701e-05
3.99939e-05
3.99931e-05
3.99763e-05
3.99737e-05
3.9982e-05
3.99872e-05
3.99841e-05
3.99857e-05
3.99961e-05
4.00089e-05
4.00207e-05
4.00298e-05
4.00364e-05
4.00355e-05
4.00267e-05
4.00179e-05
4.00146e-05
4.00137e-05
4.00153e-05
4.00231e-05
4.00361e-05
4.00507e-05
4.007e-05
3.99988e-05
3.99979e-05
4e-05
4.00033e-05
4.00049e-05
4.00009e-05
3.9996e-05
3.99938e-05
3.99935e-05
3.99932e-05
3.99892e-05
3.99824e-05
3.99766e-05
3.9977e-05
3.99829e-05
3.99858e-05
3.99844e-05
3.99881e-05
3.99962e-05
3.99929e-05
3.99684e-05
3.99354e-05
3.99271e-05
3.99247e-05
3.99263e-05
3.99363e-05
3.99355e-05
3.99367e-05
3.99463e-05
3.99601e-05
3.99654e-05
3.99579e-05
3.99435e-05
3.99319e-05
3.99239e-05
3.99359e-05
3.99599e-05
3.99696e-05
3.99597e-05
3.9951e-05
3.99519e-05
3.99558e-05
3.99555e-05
3.99534e-05
3.99563e-05
3.99651e-05
3.99767e-05
3.99876e-05
3.9997e-05
4.0004e-05
4.00059e-05
4.00017e-05
3.99948e-05
3.99883e-05
3.99837e-05
3.99819e-05
3.99837e-05
3.99888e-05
3.99979e-05
4.0012e-05
4.00124e-05
4.00074e-05
3.99986e-05
3.99871e-05
3.99792e-05
3.99738e-05
3.99709e-05
3.99685e-05
3.99651e-05
3.99605e-05
3.99572e-05
3.99574e-05
3.99609e-05
3.99638e-05
3.99632e-05
3.99633e-05
3.9968e-05
3.99703e-05
3.99583e-05
3.99309e-05
3.99055e-05
3.98996e-05
3.98985e-05
3.99028e-05
3.99122e-05
3.99115e-05
3.99123e-05
3.99205e-05
3.9933e-05
3.99391e-05
3.99341e-05
3.99214e-05
3.99088e-05
3.98981e-05
3.99025e-05
3.99227e-05
3.9939e-05
3.99381e-05
3.99295e-05
3.99249e-05
3.99247e-05
3.99244e-05
3.99219e-05
3.99204e-05
3.99234e-05
3.99312e-05
3.99411e-05
3.99508e-05
3.99599e-05
3.99678e-05
3.99739e-05
3.99749e-05
3.99707e-05
3.99642e-05
3.99576e-05
3.99525e-05
3.99496e-05
3.99492e-05
4.00087e-05
3.99957e-05
3.99788e-05
3.99646e-05
3.99548e-05
3.99483e-05
3.99445e-05
3.99417e-05
3.99393e-05
3.99369e-05
3.99356e-05
3.99362e-05
3.9938e-05
3.99394e-05
3.99388e-05
3.99379e-05
3.99396e-05
3.99421e-05
3.99373e-05
3.99192e-05
3.98929e-05
3.98739e-05
3.987e-05
3.98706e-05
3.98771e-05
3.98858e-05
3.98853e-05
3.98855e-05
3.98926e-05
3.99039e-05
3.99104e-05
3.99075e-05
3.98969e-05
3.98842e-05
3.98717e-05
3.98698e-05
3.9884e-05
3.99024e-05
3.99096e-05
3.99055e-05
3.98991e-05
3.98951e-05
3.98928e-05
3.98898e-05
3.98863e-05
3.98847e-05
3.98874e-05
3.98938e-05
3.99017e-05
3.99097e-05
3.99181e-05
3.99272e-05
3.99364e-05
3.99448e-05
3.99475e-05
3.99443e-05
3.99382e-05
3.99316e-05
3.99258e-05
3.99594e-05
3.99454e-05
3.99332e-05
3.99244e-05
3.99189e-05
3.99156e-05
3.99137e-05
3.99125e-05
3.99118e-05
3.99117e-05
3.99122e-05
3.99127e-05
3.99124e-05
3.99111e-05
3.99097e-05
3.99098e-05
3.9911e-05
3.9909e-05
3.98978e-05
3.98768e-05
3.98538e-05
3.98402e-05
3.98382e-05
3.98407e-05
3.98488e-05
3.98568e-05
3.98563e-05
3.98562e-05
3.98621e-05
3.98723e-05
3.98791e-05
3.98778e-05
3.98693e-05
3.98573e-05
3.9844e-05
3.98373e-05
3.98447e-05
3.98613e-05
3.98738e-05
3.98759e-05
3.98714e-05
3.98659e-05
3.98614e-05
3.98572e-05
3.98525e-05
3.98482e-05
3.98464e-05
3.98481e-05
3.98527e-05
3.98584e-05
3.98645e-05
3.98717e-05
3.98809e-05
3.98916e-05
3.99041e-05
3.99165e-05
3.99241e-05
3.99256e-05
3.99261e-05
3.99053e-05
3.98974e-05
3.98916e-05
3.98879e-05
3.9886e-05
3.98851e-05
3.98847e-05
3.98846e-05
3.98846e-05
3.98843e-05
3.98835e-05
3.98818e-05
3.98796e-05
3.98776e-05
3.98769e-05
3.98771e-05
3.98756e-05
3.98683e-05
3.98528e-05
3.98318e-05
3.98132e-05
3.9804e-05
3.98039e-05
3.98084e-05
3.98175e-05
3.98247e-05
3.98243e-05
3.98238e-05
3.98287e-05
3.98379e-05
3.98446e-05
3.98448e-05
3.98382e-05
3.98275e-05
3.98143e-05
3.98043e-05
3.98053e-05
3.98175e-05
3.98316e-05
3.98392e-05
3.9839e-05
3.98346e-05
3.98292e-05
3.98238e-05
3.98182e-05
3.98124e-05
3.98075e-05
3.98051e-05
3.98055e-05
3.9808e-05
3.98114e-05
3.98156e-05
3.9821e-05
3.98285e-05
3.98386e-05
3.98511e-05
3.98679e-05
3.98838e-05
3.98982e-05
3.98624e-05
3.98593e-05
3.9857e-05
3.98557e-05
3.98549e-05
3.98544e-05
3.98537e-05
3.98527e-05
3.98511e-05
3.9849e-05
3.98462e-05
3.98433e-05
3.98409e-05
3.98397e-05
3.98391e-05
3.98374e-05
3.98319e-05
3.98204e-05
3.98031e-05
3.97844e-05
3.97703e-05
3.97647e-05
3.97665e-05
3.9773e-05
3.97825e-05
3.9789e-05
3.97886e-05
3.97878e-05
3.97918e-05
3.98e-05
3.98066e-05