/*--------------------------------*- C++ -*----------------------------------*\
| =========                 |                                                 |
| \\      /  F ield         | OpenFOAM: The Open Source CFD Toolbox           |
|  \\    /   O peration     | Version:  2312                                  |
|   \\  /    A nd           | Website:  www.openfoam.com                      |
|    \\/     M anipulation  |                                                 |
\*---------------------------------------------------------------------------*/
FoamFile
{
    version     2.0;
    format      ascii;
    arch        "LSB;label=32;scalar=64";
    class       volScalarField;
    location    "1100";
    object      p;
}
// * * * * * * * * * * * * * * * * * * * * * * * * * * * * * * * * * * * * * //

dimensions      [0 2 -2 0 0 0 0];

internalField   nonuniform List<scalar> 
76025
(
-0.00018098
-0.000193291
-0.000205867
-0.000218699
-0.000231394
-0.000244296
-0.000257451
-0.000270223
-0.000283379
-0.000296421
-0.000309446
-0.000322466
-0.00033554
-0.000348542
-0.000361788
-0.000374871
-0.000387744
-0.000400661
-0.000413644
-0.000426441
-0.000439045
-0.000451803
-0.000464298
-0.000476468
-0.000488502
-0.00050019
-0.000512178
-0.000524053
-0.00053509
-0.000546648
-0.000557679
-0.000568026
-0.000578561
-0.000588891
-0.000598883
-0.000608487
-0.000617374
-0.000626707
-0.000635476
-0.000643848
-0.00065169
-0.000659137
-0.000667078
-0.000674528
-0.000681566
-0.000688085
-0.000694665
-0.000700953
-0.000706205
-0.000711305
-0.000716308
-0.000720813
-0.00072529
-0.000729815
-0.000733933
-0.000736674
-0.000740167
-0.000742669
-0.000745067
-0.000747482
-0.000749774
-0.000751341
-0.000753117
-0.00075512
-0.000756587
-0.000757044
-0.000758306
-0.000760568
-0.000761916
-0.000187756
-0.000200705
-0.000213754
-0.000227053
-0.000240484
-0.000254005
-0.000267519
-0.000281092
-0.00029473
-0.00030837
-0.000322018
-0.000335679
-0.00034938
-0.000363084
-0.000376701
-0.000390212
-0.000403754
-0.000417166
-0.000430635
-0.000443936
-0.000457193
-0.000470264
-0.000483161
-0.000495828
-0.000508372
-0.00052083
-0.000533168
-0.000545173
-0.000556908
-0.00056843
-0.000579673
-0.00059084
-0.000601782
-0.000612333
-0.000622642
-0.000632556
-0.000642154
-0.000651478
-0.000660456
-0.000669182
-0.000677517
-0.000685592
-0.000693453
-0.00070091
-0.000708066
-0.000714894
-0.000721513
-0.000727744
-0.000733496
-0.000739027
-0.00074437
-0.000749386
-0.000754194
-0.000758784
-0.000762946
-0.000766592
-0.000770213
-0.000773426
-0.000776333
-0.000778985
-0.000781662
-0.000784185
-0.000786363
-0.000788523
-0.000790475
-0.000792179
-0.000794161
-0.000796466
-0.000798137
-0.000195555
-0.000209068
-0.000222693
-0.000236606
-0.000250692
-0.000264796
-0.000278914
-0.000293084
-0.000307296
-0.000321546
-0.000335818
-0.000350101
-0.000364383
-0.000378635
-0.000392802
-0.000406921
-0.000420982
-0.000434978
-0.000448897
-0.000462724
-0.000476418
-0.000489946
-0.000503319
-0.000516534
-0.000529596
-0.000542498
-0.000555158
-0.000567561
-0.000579725
-0.000591628
-0.00060334
-0.000614852
-0.000626042
-0.000636894
-0.00064743
-0.000657634
-0.000667508
-0.000677059
-0.000686321
-0.000695268
-0.000703854
-0.000712092
-0.000720027
-0.000727689
-0.000735088
-0.000742206
-0.000749046
-0.000755586
-0.000761786
-0.000767682
-0.000773311
-0.000778651
-0.00078372
-0.00078853
-0.000793039
-0.000797204
-0.000801128
-0.000804794
-0.000808198
-0.000811425
-0.00081456
-0.000817556
-0.00082035
-0.000823081
-0.000825743
-0.000828293
-0.000830849
-0.000833722
-0.000836035
-0.000203794
-0.000217913
-0.00023216
-0.000246708
-0.000261417
-0.000276159
-0.000290909
-0.000305684
-0.000320496
-0.000335345
-0.000350217
-0.000365091
-0.000379947
-0.000394765
-0.000409525
-0.000424225
-0.000438854
-0.000453403
-0.000467856
-0.000482194
-0.000496393
-0.000510442
-0.000524331
-0.000538046
-0.000551568
-0.00056488
-0.000577966
-0.000590813
-0.00060341
-0.000615752
-0.000627842
-0.000639657
-0.000651163
-0.000662347
-0.000673207
-0.000683743
-0.000693953
-0.000703838
-0.000713398
-0.000722612
-0.00073147
-0.000739989
-0.000748208
-0.000756158
-0.00076384
-0.000771245
-0.000778363
-0.000785182
-0.000791679
-0.000797863
-0.000803766
-0.000809396
-0.00081476
-0.000819865
-0.000824705
-0.000829266
-0.000833586
-0.000837693
-0.000841595
-0.000845333
-0.000848955
-0.000852476
-0.00085588
-0.000859223
-0.000862526
-0.000865813
-0.000869102
-0.000872673
-0.000875608
-0.000212591
-0.000227355
-0.000242244
-0.00025744
-0.000272797
-0.000288191
-0.00030359
-0.000319008
-0.000334463
-0.000349953
-0.00036546
-0.00038096
-0.000396432
-0.00041186
-0.000427234
-0.000442539
-0.000457767
-0.000472903
-0.00048793
-0.000502829
-0.000517583
-0.000532177
-0.000546593
-0.000560814
-0.000574826
-0.000588615
-0.00060217
-0.000615474
-0.000628515
-0.000641282
-0.000653764
-0.000665949
-0.000677824
-0.000689374
-0.000700594
-0.000711477
-0.000722018
-0.000732212
-0.000742055
-0.00075154
-0.00076067
-0.000769459
-0.000777933
-0.000786119
-0.000794031
-0.000801666
-0.000809014
-0.000816067
-0.000822819
-0.000829277
-0.000835461
-0.000841382
-0.000847049
-0.00085247
-0.000857652
-0.0008626
-0.000867335
-0.000871884
-0.000876266
-0.000880512
-0.000884659
-0.000888734
-0.000892747
-0.000896737
-0.000900724
-0.000904774
-0.000908858
-0.000913282
-0.000917324
-0.00022217
-0.000237616
-0.000253181
-0.000269064
-0.000285113
-0.000301198
-0.000317284
-0.000333387
-0.000349525
-0.000365693
-0.000381872
-0.000398037
-0.000414168
-0.000430249
-0.00044627
-0.000462215
-0.00047807
-0.000493818
-0.000509443
-0.000524925
-0.000540248
-0.000555394
-0.000570347
-0.00058509
-0.00059961
-0.000613892
-0.000627922
-0.000641684
-0.000655164
-0.000668351
-0.000681232
-0.000693797
-0.000706035
-0.000717936
-0.000729488
-0.000740685
-0.000751523
-0.000761999
-0.00077211
-0.000781854
-0.000791236
-0.000800269
-0.000808975
-0.00081739
-0.000825532
-0.000833401
-0.000840992
-0.000848298
-0.000855319
-0.00086206
-0.000868534
-0.000874754
-0.000880733
-0.000886483
-0.000892018
-0.00089735
-0.000902501
-0.000907495
-0.000912358
-0.000917118
-0.00092181
-0.000926462
-0.000931102
-0.000935763
-0.000940463
-0.000945295
-0.000950193
-0.000955505
-0.000960521
-0.000232631
-0.000248792
-0.000265077
-0.000281691
-0.000298477
-0.000315296
-0.000332111
-0.000348938
-0.000365793
-0.000382672
-0.000399555
-0.000416417
-0.000433238
-0.000450001
-0.000466692
-0.000483296
-0.000499797
-0.000516176
-0.000532414
-0.000548495
-0.000564401
-0.000580114
-0.000595617
-0.000610894
-0.000625931
-0.00064071
-0.000655216
-0.000669436
-0.000683354
-0.000696958
-0.000710236
-0.000723179
-0.000735777
-0.000748019
-0.000759896
-0.000771403
-0.000782536
-0.000793294
-0.000803676
-0.00081368
-0.000823312
-0.000832587
-0.000841531
-0.00085018
-0.000858555
-0.000866661
-0.000874491
-0.000882043
-0.000889318
-0.000896324
-0.000903073
-0.000909582
-0.000915867
-0.000921944
-0.000927831
-0.000933548
-0.000939116
-0.000944561
-0.00094991
-0.000955194
-0.000960446
-0.000965699
-0.000970988
-0.000976341
-0.00098179
-0.00098743
-0.000993162
-0.000999392
-0.0010052
-0.00024404
-0.000260958
-0.000278003
-0.00029539
-0.000312954
-0.000330546
-0.000348128
-0.000365715
-0.000383323
-0.000400949
-0.000418572
-0.000436166
-0.000453708
-0.00047118
-0.000488568
-0.000505856
-0.000523026
-0.00054006
-0.000556938
-0.000573642
-0.000590153
-0.000606453
-0.000622526
-0.000638353
-0.000653917
-0.000669204
-0.000684196
-0.00069888
-0.000713241
-0.000727267
-0.000740946
-0.000754269
-0.000767226
-0.000779808
-0.000792006
-0.000803817
-0.000815239
-0.00082627
-0.000836911
-0.000847162
-0.000857029
-0.000866533
-0.000875701
-0.000884569
-0.000893163
-0.000901487
-0.000909539
-0.00091732
-0.000924834
-0.000932093
-0.000939111
-0.000945906
-0.000952498
-0.000958907
-0.000965153
-0.00097126
-0.000977251
-0.000983154
-0.000988999
-0.000994818
-0.00100065
-0.00100652
-0.00101247
-0.00101854
-0.00102478
-0.00103126
-0.00103789
-0.0010451
-0.0010519
-0.000256513
-0.000274233
-0.00029208
-0.000310282
-0.000328664
-0.000347071
-0.000365461
-0.000383849
-0.000402252
-0.000420666
-0.000439069
-0.000457433
-0.000475733
-0.000493951
-0.000512071
-0.000530076
-0.000547948
-0.000565667
-0.000583213
-0.000600566
-0.000617706
-0.000634615
-0.000651274
-0.000667665
-0.000683771
-0.000699575
-0.000715062
-0.000730216
-0.000745023
-0.000759471
-0.000773549
-0.000787247
-0.000800556
-0.000813467
-0.000825974
-0.000838075
-0.000849769
-0.000861057
-0.000871938
-0.000882416
-0.000892502
-0.000902215
-0.000911588
-0.00092066
-0.000929455
-0.000937981
-0.000946241
-0.000954238
-0.00096198
-0.000969482
-0.000976761
-0.000983837
-0.000990732
-0.00099747
-0.00100407
-0.00101057
-0.00101699
-0.00102335
-0.0010297
-0.00103606
-0.00104247
-0.00104898
-0.00105562
-0.00106243
-0.00106949
-0.00107685
-0.00108447
-0.00109273
-0.00110079
-0.000270195
-0.000288765
-0.000307461
-0.000326523
-0.000345769
-0.000365036
-0.000384278
-0.000403511
-0.000422753
-0.000441999
-0.000461225
-0.000480401
-0.000499501
-0.000518505
-0.000537395
-0.000556153
-0.000574761
-0.000593196
-0.000611438
-0.000629465
-0.000647257
-0.000664794
-0.000682056
-0.000699025
-0.000715684
-0.000732014
-0.000748
-0.000763627
-0.00077888
-0.000793747
-0.000808217
-0.000822282
-0.000835931
-0.000849158
-0.000861959
-0.000874332
-0.00088628
-0.000897802
-0.000908902
-0.000919585
-0.000929865
-0.000939766
-0.000949322
-0.000958574
-0.00096755
-0.000976258
-0.000984706
-0.000992899
-0.00100085
-0.00100858
-0.00101611
-0.00102345
-0.00103064
-0.0010377
-0.00104466
-0.00105155
-0.00105839
-0.00106522
-0.00107207
-0.00107898
-0.00108599
-0.00109314
-0.00110048
-0.00110806
-0.00111594
-0.0011242
-0.00113284
-0.00114232
-0.00115197
-0.000285241
-0.000304712
-0.000324307
-0.00034428
-0.00036444
-0.000384615
-0.000404758
-0.000424884
-0.00044501
-0.000465133
-0.000485226
-0.000505258
-0.0005252
-0.00054503
-0.000564729
-0.000584278
-0.000603656
-0.00062284
-0.000641808
-0.000660536
-0.000679004
-0.00069719
-0.000715074
-0.000732637
-0.00074986
-0.000766726
-0.000783217
-0.000799318
-0.000815016
-0.000830297
-0.000845152
-0.000859571
-0.000873547
-0.000887073
-0.000900147
-0.000912771
-0.000924947
-0.000936678
-0.000947968
-0.000958827
-0.000969272
-0.000979331
-0.000989042
-0.000998448
-0.00100758
-0.00101644
-0.00102505
-0.00103341
-0.00104155
-0.00104949
-0.00105724
-0.00106485
-0.00107232
-0.00107969
-0.001087
-0.00109427
-0.00110153
-0.00110882
-0.00111618
-0.00112364
-0.00113125
-0.00113905
-0.0011471
-0.00115547
-0.00116418
-0.00117335
-0.00118294
-0.00119349
-0.00120422
-0.000301824
-0.000322251
-0.0003428
-0.000363738
-0.000384867
-0.000406004
-0.000427099
-0.000448167
-0.000469227
-0.000490274
-0.000511281
-0.000532213
-0.000553041
-0.000573739
-0.000594288
-0.000614666
-0.000634851
-0.000654819
-0.000674544
-0.000694004
-0.000713174
-0.000732033
-0.000750559
-0.000768732
-0.000786532
-0.000803941
-0.000820942
-0.000837519
-0.000853657
-0.000869345
-0.000884573
-0.000899332
-0.000913615
-0.000927417
-0.000940741
-0.000953587
-0.00096596
-0.000977865
-0.000989311
-0.00100031
-0.00101088
-0.00102106
-0.00103089
-0.00104041
-0.00104966
-0.00105864
-0.00106738
-0.00107588
-0.00108418
-0.0010923
-0.00110026
-0.0011081
-0.00111584
-0.00112351
-0.00113115
-0.00113879
-0.00114647
-0.00115422
-0.00116208
-0.00117009
-0.0011783
-0.00118677
-0.00119555
-0.00120469
-0.00121426
-0.00122437
-0.00123491
-0.00124639
-0.00125729
-0.000320148
-0.00034159
-0.000363152
-0.000385115
-0.000407272
-0.000429429
-0.000451532
-0.000473598
-0.000495645
-0.000517668
-0.000539638
-0.00056152
-0.000583279
-0.00060489
-0.00062633
-0.000647577
-0.000668607
-0.000689394
-0.00070991
-0.00073013
-0.00075003
-0.000769585
-0.000788772
-0.000807571
-0.00082596
-0.00084392
-0.000861434
-0.000878484
-0.000895057
-0.000911141
-0.000926727
-0.000941805
-0.000956371
-0.000970423
-0.000983963
-0.000996995
-0.00100953
-0.00102157
-0.00103312
-0.00104422
-0.00105487
-0.00106513
-0.00107502
-0.00108461
-0.00109393
-0.00110299
-0.00111181
-0.00112042
-0.00112884
-0.0011371
-0.00114524
-0.00115329
-0.00116127
-0.00116923
-0.00117719
-0.00118519
-0.00119327
-0.00120147
-0.00120982
-0.00121838
-0.0012272
-0.00123633
-0.00124582
-0.00125576
-0.00126623
-0.00127731
-0.00128897
-0.00130166
-0.00131472
-0.000340451
-0.000362972
-0.000385611
-0.000408664
-0.000431911
-0.000455152
-0.000478326
-0.000501449
-0.000524541
-0.000547596
-0.000570585
-0.000593467
-0.000616208
-0.000638779
-0.000661156
-0.000683314
-0.000705228
-0.000726868
-0.000748208
-0.000769218
-0.000789873
-0.000810145
-0.000830012
-0.00084945
-0.000868437
-0.000886952
-0.000904977
-0.000922495
-0.000939492
-0.000955957
-0.000971878
-0.00098725
-0.00100207
-0.00101633
-0.00103005
-0.00104322
-0.00105586
-0.00106798
-0.0010796
-0.00109073
-0.0011014
-0.00111167
-0.00112158
-0.00113118
-0.00114051
-0.00114959
-0.00115844
-0.00116711
-0.00117561
-0.00118399
-0.00119227
-0.00120049
-0.0012087
-0.00121691
-0.00122518
-0.00123353
-0.001242
-0.00125063
-0.00125947
-0.00126857
-0.00127798
-0.00128776
-0.00129798
-0.00130872
-0.00132007
-0.00133214
-0.00134489
-0.00135913
-0.00137341
-0.000363008
-0.000386678
-0.000410462
-0.000434674
-0.000459083
-0.000483475
-0.000507786
-0.000532033
-0.000556234
-0.000580383
-0.00060445
-0.000628391
-0.000652168
-0.000675752
-0.000699114
-0.000722229
-0.000745068
-0.000767602
-0.0007898
-0.00081163
-0.000833066
-0.000854078
-0.000874641
-0.00089473
-0.000914321
-0.000933393
-0.000951926
-0.000969902
-0.000987307
-0.00100413
-0.00102036
-0.00103599
-0.00105102
-0.00106545
-0.00107929
-0.00109254
-0.00110523
-0.00111736
-0.00112897
-0.00114006
-0.00115069
-0.0011609
-0.00117075
-0.00118029
-0.00118955
-0.00119858
-0.00120741
-0.00121607
-0.0012246
-0.00123304
-0.00124142
-0.00124979
-0.00125819
-0.00126664
-0.00127518
-0.00128386
-0.00129271
-0.00130177
-0.00131109
-0.00132072
-0.00133071
-0.00134113
-0.00135206
-0.00136359
-0.0013758
-0.00138884
-0.0014027
-0.00141806
-0.00143378
-0.000388136
-0.000413029
-0.000438034
-0.00046348
-0.000489125
-0.000514742
-0.000540263
-0.000565703
-0.000591082
-0.000616393
-0.000641602
-0.000666665
-0.00069154
-0.000716192
-0.000740594
-0.000764715
-0.000788527
-0.000811996
-0.000835088
-0.000857772
-0.000880015
-0.000901788
-0.000923062
-0.000943812
-0.00096401
-0.000983635
-0.00100267
-0.00102108
-0.00103887
-0.00105602
-0.00107252
-0.00108836
-0.00110355
-0.00111808
-0.00113198
-0.00114525
-0.0011579
-0.00116997
-0.00118147
-0.00119244
-0.00120293
-0.00121298
-0.00122268
-0.00123207
-0.00124119
-0.00125009
-0.00125881
-0.0012674
-0.00127589
-0.00128434
-0.00129278
-0.00130126
-0.00130981
-0.00131847
-0.00132727
-0.00133626
-0.00134547
-0.00135495
-0.00136474
-0.00137488
-0.00138544
-0.00139649
-0.00140812
-0.00142041
-0.00143346
-0.00144746
-0.00146248
-0.00147898
-0.00149633
-0.00041621
-0.000442409
-0.000468716
-0.000495478
-0.000522442
-0.000549365
-0.000576175
-0.000602886
-0.000629517
-0.000656063
-0.000682487
-0.000708741
-0.00073478
-0.000760566
-0.000786067
-0.000811252
-0.000836089
-0.00086054
-0.000884571
-0.000908145
-0.000931228
-0.000953787
-0.000975792
-0.000997214
-0.00101802
-0.0010382
-0.00105771
-0.00107655
-0.00109469
-0.00111213
-0.00112885
-0.00114484
-0.00116012
-0.00117469
-0.00118856
-0.00120175
-0.00121428
-0.00122617
-0.00123746
-0.00124819
-0.00125842
-0.0012682
-0.00127763
-0.00128675
-0.00129561
-0.00130428
-0.0013128
-0.00132123
-0.00132962
-0.00133801
-0.00134645
-0.00135499
-0.00136365
-0.00137249
-0.00138153
-0.00139081
-0.00140037
-0.00141025
-0.00142049
-0.00143114
-0.00144226
-0.00145392
-0.0014662
-0.0014792
-0.00149305
-0.00150796
-0.00152402
-0.00154187
-0.00156101
-0.000447654
-0.000475246
-0.000502942
-0.000531108
-0.000559478
-0.000587794
-0.000615978
-0.000644041
-0.000672006
-0.000699866
-0.000727581
-0.0007551
-0.000782373
-0.00080936
-0.000836025
-0.000862333
-0.000888249
-0.000913733
-0.000938746
-0.000963248
-0.000987202
-0.00101057
-0.00103332
-0.00105543
-0.00107685
-0.00109756
-0.00111754
-0.00113677
-0.00115523
-0.0011729
-0.00118978
-0.00120586
-0.00122115
-0.00123566
-0.0012494
-0.00126239
-0.00127467
-0.00128625
-0.00129719
-0.00130754
-0.00131737
-0.00132674
-0.00133575
-0.00134447
-0.00135295
-0.00136127
-0.00136948
-0.00137765
-0.00138585
-0.00139411
-0.0014025
-0.00141105
-0.00141979
-0.00142878
-0.00143802
-0.00144757
-0.00145745
-0.00146771
-0.0014784
-0.00148955
-0.00150121
-0.00151345
-0.00152635
-0.00154
-0.00155455
-0.0015702
-0.0015871
-0.00160596
-0.00162627
-0.000483
-0.000512084
-0.000541268
-0.000570937
-0.000600811
-0.000630618
-0.00066027
-0.00068978
-0.00071917
-0.000748433
-0.000777527
-0.000806397
-0.000834988
-0.000863255
-0.000891159
-0.000918662
-0.000945724
-0.000972302
-0.000998353
-0.00102383
-0.0010487
-0.00107291
-0.00109644
-0.00111924
-0.00114127
-0.00116252
-0.00118295
-0.00120254
-0.00122126
-0.00123911
-0.00125608
-0.00127216
-0.00128736
-0.0013017
-0.00131518
-0.00132784
-0.0013397
-0.00135082
-0.00136124
-0.00137103
-0.00138027
-0.00138904
-0.00139745
-0.00140557
-0.00141349
-0.00142128
-0.00142904
-0.00143682
-0.00144471
-0.00145275
-0.001461
-0.0014695
-0.00147829
-0.00148738
-0.00149681
-0.00150659
-0.00151678
-0.00152742
-0.00153853
-0.00155015
-0.00156234
-0.00157514
-0.0015886
-0.00160282
-0.00161791
-0.00163409
-0.00165147
-0.00167079
-0.00169154
-0.000522786
-0.000553463
-0.000584234
-0.000615507
-0.000646986
-0.000678383
-0.000709601
-0.000740653
-0.000771561
-0.000802317
-0.000832877
-0.000863182
-0.000893172
-0.000922797
-0.000952013
-0.000980777
-0.00100905
-0.00103677
-0.00106391
-0.00109041
-0.00111622
-0.00114131
-0.00116562
-0.00118912
-0.00121176
-0.00123353
-0.00125437
-0.00127428
-0.00129321
-0.00131117
-0.00132813
-0.0013441
-0.00135909
-0.0013731
-0.00138616
-0.0013983
-0.00140957
-0.00142001
-0.00142969
-0.00143869
-0.00144711
-0.00145506
-0.00146265
-0.00146998
-0.00147714
-0.00148425
-0.00149139
-0.00149866
-0.00150613
-0.00151387
-0.00152193
-0.00153033
-0.00153912
-0.0015483
-0.00155789
-0.00156792
-0.00157843
-0.00158941
-0.00160092
-0.00161301
-0.00162572
-0.00163904
-0.00165301
-0.0016677
-0.00168322
-0.00169975
-0.00171733
-0.00173663
-0.00175694
-0.000567852
-0.000600246
-0.000632731
-0.000665736
-0.000698948
-0.000732062
-0.000764973
-0.000797691
-0.00083024
-0.00086261
-0.000894757
-0.000926614
-0.000958117
-0.000989209
-0.00101984
-0.00104997
-0.00107954
-0.00110851
-0.00113681
-0.0011644
-0.00119122
-0.00121723
-0.00124236
-0.00126658
-0.00128985
-0.00131212
-0.00133336
-0.00135354
-0.00137263
-0.00139062
-0.00140749
-0.00142323
-0.00143786
-0.00145139
-0.00146385
-0.00147528
-0.00148572
-0.00149523
-0.00150389
-0.00151181
-0.0015191
-0.00152591
-0.00153235
-0.00153855
-0.00154465
-0.00155077
-0.00155704
-0.00156357
-0.00157045
-0.00157774
-0.00158548
-0.00159372
-0.00160244
-0.00161166
-0.00162141
-0.00163167
-0.00164244
-0.00165374
-0.00166565
-0.00167821
-0.00169139
-0.00170521
-0.00171969
-0.0017349
-0.00175089
-0.00176782
-0.00178576
-0.00180515
-0.0018257
-0.000618684
-0.000652897
-0.000687192
-0.000722025
-0.000757069
-0.000791999
-0.000826698
-0.000861174
-0.000895454
-0.000929527
-0.000963345
-0.000996838
-0.00102993
-0.00106257
-0.00109469
-0.00112625
-0.00115719
-0.00118744
-0.00121696
-0.00124568
-0.00127355
-0.00130049
-0.00132646
-0.00135141
-0.00137527
-0.00139802
-0.00141959
-0.00143996
-0.0014591
-0.00147698
-0.00149359
-0.00150892
-0.00152298
-0.00153578
-0.00154736
-0.00155775
-0.00156703
-0.00157526
-0.00158256
-0.00158905
-0.00159488
-0.00160021
-0.0016052
-0.00161002
-0.00161482
-0.00161978
-0.00162504
-0.00163073
-0.00163697
-0.00164381
-0.00165129
-0.00165939
-0.00166812
-0.00167745
-0.00168736
-0.0016978
-0.00170882
-0.00172046
-0.00173277
-0.00174578
-0.00175949
-0.00177398
-0.00178926
-0.00180533
-0.00182215
-0.00183981
-0.00185829
-0.00187802
-0.00189929
-0.000677161
-0.000713391
-0.000749714
-0.00078659
-0.000823679
-0.000860635
-0.000897332
-0.000933775
-0.000969989
-0.00100597
-0.00104165
-0.00107697
-0.00111185
-0.00114622
-0.00118001
-0.00121316
-0.00124562
-0.00127733
-0.0013082
-0.00133818
-0.00136719
-0.00139518
-0.00142208
-0.00144782
-0.00147235
-0.00149561
-0.00151754
-0.00153812
-0.00155728
-0.001575
-0.00159127
-0.00160607
-0.0016194
-0.00163127
-0.00164173
-0.0016508
-0.00165856
-0.00166509
-0.00167052
-0.00167499
-0.0016787
-0.00168183
-0.00168461
-0.00168727
-0.00169005
-0.00169317
-0.00169684
-0.00170122
-0.00170644
-0.00171258
-0.00171965
-0.00172757
-0.00173629
-0.00174572
-0.00175576
-0.00176641
-0.00177774
-0.0017898
-0.00180265
-0.00181638
-0.00183109
-0.00184684
-0.00186357
-0.00188109
-0.00189904
-0.00191706
-0.00193454
-0.00195169
-0.00196746
-0.000741983
-0.000780251
-0.000818579
-0.000857498
-0.000896647
-0.000935652
-0.000974373
-0.00101281
-0.00105099
-0.00108891
-0.0011265
-0.00116369
-0.00120039
-0.00123652
-0.00127202
-0.00130681
-0.00134083
-0.001374
-0.00140625
-0.0014375
-0.00146766
-0.00149666
-0.00152443
-0.0015509
-0.00157599
-0.00159965
-0.0016218
-0.0016424
-0.00166139
-0.00167873
-0.00169439
-0.00170834
-0.00172059
-0.00173116
-0.00174007
-0.00174739
-0.00175319
-0.00175761
-0.0017608
-0.00176293
-0.00176421
-0.00176486
-0.00176515
-0.00176536
-0.00176584
-0.00176691
-0.00176888
-0.00177197
-0.00177629
-0.00178192
-0.00178886
-0.00179697
-0.00180607
-0.00181595
-0.0018265
-0.00183774
-0.00184977
-0.0018627
-0.0018767
-0.00189187
-0.00190825
-0.00192571
-0.00194399
-0.0019625
-0.00198009
-0.00199541
-0.00200718
-0.00201442
-0.00201585
-0.000821214
-0.000861907
-0.000902739
-0.000944154
-0.000985785
-0.00102725
-0.00106839
-0.00110921
-0.00114974
-0.00118997
-0.00122984
-0.00126926
-0.00130814
-0.00134638
-0.00138391
-0.00142066
-0.00145656
-0.00149151
-0.00152545
-0.00155826
-0.00158987
-0.00162018
-0.0016491
-0.00167654
-0.00170241
-0.00172664
-0.00174915
-0.00176987
-0.00178873
-0.00180567
-0.00182065
-0.00183362
-0.00184457
-0.00185347
-0.00186034
-0.00186522
-0.00186821
-0.00186946
-0.00186916
-0.00186755
-0.00186491
-0.00186154
-0.00185779
-0.001854
-0.00185059
-0.00184803
-0.00184689
-0.00184761
-0.00185034
-0.00185507
-0.00186178
-0.00187025
-0.00188001
-0.00189065
-0.00190192
-0.00191381
-0.00192653
-0.00194042
-0.00195573
-0.00197225
-0.00198939
-0.00200653
-0.0020232
-0.00203859
-0.00205066
-0.00205773
-0.00205953
-0.00205533
-0.00204492
-0.000899598
-0.000942699
-0.000985749
-0.00102947
-0.00107346
-0.00111728
-0.00116075
-0.00120386
-0.00124663
-0.00128908
-0.00133113
-0.00137271
-0.00141369
-0.00145398
-0.00149349
-0.00153213
-0.00156981
-0.00160644
-0.00164194
-0.00167619
-0.00170911
-0.00174058
-0.0017705
-0.00179877
-0.00182528
-0.00184994
-0.00187264
-0.00189329
-0.00191181
-0.00192813
-0.00194222
-0.00195402
-0.00196351
-0.00197063
-0.00197539
-0.0019778
-0.00197796
-0.001976
-0.00197214
-0.00196664
-0.00195989
-0.00195231
-0.00194439
-0.00193665
-0.00192958
-0.00192375
-0.00191991
-0.00191886
-0.00192104
-0.00192643
-0.00193473
-0.0019454
-0.00195751
-0.00197
-0.00198214
-0.0019938
-0.00200542
-0.0020178
-0.00203141
-0.0020453
-0.00205773
-0.00206782
-0.00207617
-0.00208349
-0.00208804
-0.00208824
-0.00208474
-0.00207837
-0.00206933
-0.00101756
-0.00106305
-0.00110899
-0.00115565
-0.00120259
-0.00124939
-0.00129584
-0.00134192
-0.00138764
-0.001433
-0.00147792
-0.00152232
-0.00156608
-0.00160908
-0.00165123
-0.00169243
-0.00173258
-0.00177155
-0.00180924
-0.00184552
-0.00188028
-0.0019134
-0.00194475
-0.00197422
-0.00200169
-0.00202702
-0.00205009
-0.00207071
-0.00208871
-0.00210398
-0.00211641
-0.00212598
-0.00213265
-0.00213639
-0.00213718
-0.00213505
-0.00213009
-0.00212242
-0.00211228
-0.00209996
-0.00208586
-0.00207051
-0.00205459
-0.00203889
-0.0020242
-0.00201139
-0.0020015
-0.0019957
-0.00199492
-0.00199958
-0.00200936
-0.00202295
-0.00203793
-0.00205155
-0.00206194
-0.00206845
-0.00207184
-0.00207403
-0.00207724
-0.00208135
-0.00208483
-0.0020872
-0.00208995
-0.0020943
-0.00209855
-0.00210026
-0.00209882
-0.00209637
-0.00209559
-0.00110162
-0.00115056
-0.00119897
-0.00124823
-0.00129786
-0.00134727
-0.00139626
-0.00144488
-0.00149315
-0.00154105
-0.00158851
-0.00163541
-0.00168161
-0.00172701
-0.0017715
-0.00181498
-0.00185736
-0.00189851
-0.00193827
-0.00197652
-0.0020131
-0.00204788
-0.00208072
-0.00211149
-0.0021401
-0.00216649
-0.00219058
-0.00221226
-0.00223133
-0.00224745
-0.00226033
-0.00226975
-0.00227557
-0.0022777
-0.00227614
-0.00227084
-0.00226183
-0.00224917
-0.00223303
-0.00221374
-0.00219174
-0.00216763
-0.00214225
-0.00211671
-0.00209232
-0.00207061
-0.00205319
-0.00204167
-0.00203735
-0.00204086
-0.0020517
-0.00206757
-0.0020838
-0.00209593
-0.00210175
-0.00210121
-0.00209599
-0.00208945
-0.00208552
-0.00208545
-0.00208814
-0.00209135
-0.00209388
-0.00209605
-0.00209844
-0.002101
-0.00210414
-0.00210891
-0.00211691
-0.00128529
-0.00133676
-0.00138979
-0.0014436
-0.00149737
-0.00155075
-0.00160364
-0.00165609
-0.00170813
-0.00175976
-0.00181087
-0.00186133
-0.00191099
-0.00195974
-0.00200745
-0.002054
-0.00209926
-0.00214309
-0.00218533
-0.00222582
-0.00226435
-0.00230072
-0.00233473
-0.00236612
-0.00239463
-0.00241993
-0.0024418
-0.0024601
-0.00247485
-0.00248613
-0.00249393
-0.00249801
-0.00249808
-0.00249382
-0.00248497
-0.00247132
-0.00245274
-0.00242922
-0.00240089
-0.00236808
-0.00233129
-0.00229132
-0.00224924
-0.00220647
-0.00216476
-0.00212613
-0.00209273
-0.00206667
-0.00204973
-0.00204302
-0.0020465
-0.00205834
-0.00207391
-0.00208808
-0.00209791
-0.0021026
-0.00210248
-0.00209908
-0.00209498
-0.00209278
-0.00209234
-0.00209209
-0.00209162
-0.00209157
-0.00209273
-0.0020956
-0.00210064
-0.00210832
-0.00211878
0.000252286
0.000254627
0.000257325
0.000260356
0.00026352
0.000266862
0.000270474
0.000274292
0.000278283
0.000282305
0.000286494
0.000290881
0.000295249
0.000300002
0.000303924
0.000307797
0.000310955
0.000314358
0.000317061
0.000319378
0.000321232
0.000321759
0.000321649
0.000319973
0.000317363
0.000313924
0.000308835
0.000302323
0.00029453
0.000285757
0.00027443
0.000261943
0.000248294
0.000233844
0.000217522
0.000200384
0.000182789
0.000164487
0.00014532
0.000126017
0.000106694
8.7225e-05
6.79261e-05
4.91519e-05
3.00987e-05
1.21438e-05
-5.87569e-06
-2.29781e-05
-3.97796e-05
-5.59047e-05
-7.11666e-05
-8.57531e-05
-9.95866e-05
-0.000112598
-0.000124944
-0.000137103
-0.000148471
-0.000159336
-0.000169658
0.00025794
0.000260514
0.000263433
0.000266562
0.000269932
0.000273528
0.000277342
0.000281349
0.000285547
0.000289926
0.00029443
0.000299037
0.000303708
0.000308383
0.000312993
0.000317109
0.000321045
0.000324628
0.00032777
0.000330186
0.000331964
0.000332999
0.000332962
0.000331719
0.000329331
0.000325732
0.000320853
0.000314328
0.000306543
0.00029725
0.000285832
0.000273137
0.00025923
0.000243842
0.000227164
0.000209436
0.000191041
0.000172032
0.000152337
0.000132227
0.000112136
9.19624e-05
7.19176e-05
5.19793e-05
3.24252e-05
1.33953e-05
-5.23011e-06
-2.31488e-05
-4.04914e-05
-5.71856e-05
-7.30898e-05
-8.82415e-05
-0.000102722
-0.0001165
-0.000129726
-0.000142275
-0.000154188
-0.000165411
-0.000176013
0.000264174
0.000266963
0.000270042
0.000273361
0.000276941
0.000280768
0.000284827
0.000289105
0.000293594
0.000298267
0.00030307
0.000307946
0.000312882
0.00031783
0.000322696
0.000327366
0.000331797
0.000335788
0.00033921
0.000341928
0.000343859
0.000345147
0.00034537
0.000344412
0.000342202
0.000338591
0.000333685
0.000327221
0.000319249
0.000309648
0.00029809
0.000285065
0.000270564
0.000254569
0.000237319
0.000219014
0.000199837
0.00018001
0.000159601
0.000138763
0.000117728
9.65982e-05
7.55417e-05
5.47859e-05
3.44073e-05
1.45277e-05
-4.83371e-06
-2.35637e-05
-4.16386e-05
-5.9047e-05
-7.57087e-05
-9.16336e-05
-0.000106839
-0.000121352
-0.000135124
-0.000148163
-0.000160527
-0.000172199
-0.000183275
0.000270217
0.000273191
0.000276484
0.000280037
0.000283871
0.000287973
0.000292333
0.000296932
0.000301748
0.000306754
0.000311913
0.000317175
0.000322505
0.000327835
0.000333061
0.000338142
0.000342935
0.000347316
0.000351119
0.00035425
0.000356575
0.000358081
0.000358529
0.000357773
0.000355709
0.000352175
0.000347264
0.000340764
0.000332608
0.00032272
0.000310876
0.000297396
0.00028232
0.000265763
0.000247877
0.000228887
0.00020893
0.000188214
0.000166908
0.000145173
0.000123163
0.000101081
7.91128e-05
5.74721e-05
3.62079e-05
1.54373e-05
-4.77019e-06
-2.43409e-05
-4.32235e-05
-6.13999e-05
-7.88267e-05
-9.54824e-05
-0.000111358
-0.000126464
-0.000140802
-0.00015439
-0.000167268
-0.000179433
-0.000190979
0.000276062
0.000279234
0.000282748
0.000286542
0.000290639
0.000295028
0.000299698
0.000304631
0.000309805
0.000315189
0.000320747
0.000326432
0.000332191
0.000337948
0.000343614
0.000349112
0.00035432
0.000359122
0.000363367
0.00036693
0.000369669
0.000371473
0.000372163
0.000371608
0.000369693
0.000366272
0.000361391
0.00035482
0.000346478
0.000336297
0.000324084
0.000310112
0.000294478
0.000277317
0.000258748
0.000238991
0.000218206
0.000196586
0.000174322
0.000151615
0.000128643
0.000105622
8.27261e-05
6.01233e-05
3.79123e-05
1.62042e-05
-4.90877e-06
-2.53558e-05
-4.50814e-05
-6.40514e-05
-8.2233e-05
-9.96032e-05
-0.000116156
-0.0001319
-0.000146853
-0.00016103
-0.000174463
-0.000187156
-0.000199199
0.000281908
0.000285296
0.000289042
0.000293084
0.00029745
0.000302127
0.000307109
0.000312381
0.000317919
0.000323693
0.000329663
0.000335779
0.000341981
0.000348192
0.00035433
0.000360297
0.000365977
0.000371244
0.000375951
0.000379949
0.000383092
0.000385242
0.000386224
0.000385909
0.00038417
0.000380874
0.00037603
0.00036939
0.000360861
0.000350382
0.000337785
0.000323318
0.000307103
0.000289283
0.000269979
0.000249399
0.000227732
0.000205181
0.00018195
0.000158254
0.000134298
0.000110284
8.63841e-05
6.27578e-05
3.95389e-05
1.68447e-05
-5.22573e-06
-2.65967e-05
-4.72095e-05
-6.70221e-05
-8.60049e-05
-0.000104141
-0.000121427
-0.000137871
-0.000153491
-0.000168301
-0.000182335
-0.000195594
-0.00020817
0.00028772
0.000291348
0.000295352
0.00029967
0.00030433