/*--------------------------------*- C++ -*----------------------------------*\
| =========                 |                                                 |
| \\      /  F ield         | OpenFOAM: The Open Source CFD Toolbox           |
|  \\    /   O peration     | Version:  2312                                  |
|   \\  /    A nd           | Website:  www.openfoam.com                      |
|    \\/     M anipulation  |                                                 |
\*---------------------------------------------------------------------------*/
FoamFile
{
    version     2.0;
    format      ascii;
    arch        "LSB;label=32;scalar=64";
    class       surfaceScalarField;
    location    "1100";
    object      phi;
}
// * * * * * * * * * * * * * * * * * * * * * * * * * * * * * * * * * * * * * //

dimensions      [0 3 -1 0 0 0 0];

oriented        oriented;

internalField   nonuniform List<scalar> 
116611
(
0.00129922
0.000432268
-0.0012832
-0.000448288
0.00131514
0.000429149
-0.000445076
0.00133073
0.000425696
-0.000441278
0.00134599
0.000421874
-0.000437136
0.00136113
0.000417752
-0.000432896
0.00137623
0.000413229
-0.00042833
0.00139102
0.000408444
-0.000423231
0.00140605
0.000403375
-0.000418406
0.00142059
0.000397945
-0.000412486
0.00143502
0.000392161
-0.000406584
0.00144917
0.000385975
-0.000400125
0.00146318
0.000379423
-0.000393432
0.00147686
0.000372472
-0.000386155
0.00149016
0.00036508
-0.000378383
0.00150295
0.000357237
-0.000370028
0.00151538
0.000349017
-0.000361445
0.00152748
0.000340217
-0.000352313
0.00153933
0.000331165
-0.000343015
0.00155063
0.00032142
-0.000332721
0.00156149
0.000311373
-0.000322239
0.00157202
0.000300679
-0.000311206
0.00158195
0.00028956
-0.000299484
0.00159126
0.000277836
-0.000287147
0.00160009
0.00026566
-0.000274492
0.00160834
0.000252939
-0.000261186
0.00161639
0.000239699
-0.000247752
0.00162384
0.000225776
-0.000233223
0.00163044
0.000211362
-0.000217969
0.0016371
0.000196458
-0.000203114
0.00164268
0.000181018
-0.000186603
0.00164812
0.000165169
-0.0001706
0.00165329
0.000148494
-0.000153674
0.0016577
0.000131203
-0.000135611
0.00166158
0.000113451
-0.00011733
0.00166488
9.49802e-05
-9.82794e-05
0.00166744
7.60682e-05
-7.86265e-05
0.00167002
5.65737e-05
-5.91586e-05
0.00167174
3.6496e-05
-3.82068e-05
0.00167303
1.57935e-05
-1.70837e-05
0.0016735
-5.6909e-06
5.21254e-06
0.00167337
-2.75644e-05
2.76966e-05
0.00167331
-5.00134e-05
5.0075e-05
0.00167244
-7.31549e-05
7.40266e-05
0.00167087
-9.68635e-05
9.84299e-05
0.00166856
-0.000121163
0.000123479
0.00166597
-0.000145853
0.000148439
0.0016629
-0.000171175
0.000174245
0.00165861
-0.000197137
0.000201428
0.00165398
-0.000223367
0.00022799
0.00164876
-0.00025001
0.000255231
0.00164272
-0.000277154
0.000283202
0.00163633
-0.000304549
0.000310934
0.00162943
-0.00033239
0.000339295
0.00162162
-0.000360742
0.000368549
0.00161235
-0.000389392
0.000398656
0.00160318
-0.000417871
0.000427042
0.00159261
-0.000446835
0.000457413
0.00158168
-0.000475744
0.000486674
0.00157007
-0.000504612
0.000516213
0.00155787
-0.000533142
0.00054535
0.00154514
-0.000561647
0.000574377
0.00153214
-0.000590312
0.000603308
0.00151846
-0.000618414
0.000632092
0.0015042
-0.000646249
0.000660516
0.00148924
-0.00067355
0.000688503
0.00147431
-0.000700063
0.000715
0.00145977
-0.000726024
0.000740563
0.00144543
-0.000751376
0.000765718
-0.000777272
0.00142977
0.000792926
0.0012853
0.000416363
-0.0012694
0.00130111
0.000413336
0.00131677
0.000410036
0.00133221
0.000406441
0.00134747
0.000402493
0.00136244
0.000398251
0.00137722
0.000393663
0.00139187
0.00038873
0.00140633
0.00038348
0.00142062
0.000377871
0.0014347
0.000371902
0.00144856
0.000365562
0.0014622
0.00035883
0.00147558
0.000351705
0.00148859
0.000344222
0.00150131
0.000336292
0.00151359
0.000327942
0.00152562
0.000319137
0.00153716
0.000309882
0.00154839
0.000300141
0.00155915
0.000289913
0.00156951
0.000279206
0.00157935
0.000267991
0.00158873
0.000256279
0.00159763
0.000244047
0.00160608
0.000231245
0.00161393
0.000217925
0.00162123
0.000204059
0.00162805
0.00018964
0.00163433
0.000174742
0.00164024
0.000159259
0.0016456
0.000143133
0.00165035
0.000126452
0.0016546
0.000109197
0.00165823
9.13508e-05
0.00166137
7.29327e-05
0.001664
5.39372e-05
0.00166611
3.43911e-05
0.00166769
1.42118e-05
0.0016686
-6.60295e-06
0.00166901
-2.79708e-05
0.00166888
-4.98873e-05
0.00166809
-7.23658e-05
0.00166667
-9.54405e-05
0.00166458
-0.000119074
0.00166194
-0.000143213
0.00165863
-0.000167865
0.00165455
-0.00019306
0.00164989
-0.000218698
0.0016446
-0.000244728
0.00163863
-0.000271184
0.00163209
-0.000298009
0.0016249
-0.000325199
0.00161692
-0.000352763
0.00160817
-0.00038064
0.00159895
-0.000408649
0.00158894
-0.000436826
0.0015783
-0.000465108
0.00156704
-0.000493345
0.00155538
-0.000521486
0.00154328
-0.000549551
0.00153054
-0.00057757
0.0015174
-0.000605267
0.0015038
-0.000632656
0.0014899
-0.000659647
0.00147591
-0.000686072
0.00146178
-0.0007119
0.00144753
-0.000737126
-0.000762476
0.00143274
0.0012726
0.000400835
-0.00125708
0.00128811
0.000397831
0.00130358
0.000394568
0.00131896
0.000391058
0.00133418
0.000387273
0.00134923
0.000383202
0.00136407
0.000378823
0.00137869
0.000374111
0.0013931
0.000369064
0.00140731
0.000363669
0.00142129
0.00035792
0.00143504
0.00035181
0.00144854
0.000345327
0.00146179
0.000338463
0.00147479
0.000331218
0.0014875
0.000323578
0.00149991
0.000315532
0.00151199
0.000307062
0.00152371
0.000298156
0.00153506
0.000288793
0.00154601
0.000278966
0.00155655
0.000268663
0.00156667
0.000257873
0.00157636
0.000246589
0.0015856
0.000234804
0.00159435
0.000222503
0.00160259
0.000209678
0.00161033
0.000196321
0.00161754
0.000182429
0.00162428
0.000168001
0.00163053
0.000153015
0.0016362
0.000137456
0.00164133
0.000121323
0.00164591
0.000104618
0.00164993
8.73362e-05
0.00165338
6.94766e-05
0.00165628
5.1043e-05
0.00165864
3.20309e-05
0.00166043
1.24196e-05
0.00166162
-7.794e-06
0.00166222
-2.857e-05
0.00166223
-4.98956e-05
0.00166164
-7.17783e-05
0.00166043
-9.42291e-05
0.00165858
-0.000117224
0.0016561
-0.000140737
0.00165299
-0.000164755
0.00164921
-0.000189279
0.00164478
-0.000214262
0.00163971
-0.00023966
0.00163399
-0.000265469
0.00162765
-0.000291664
0.00162067
-0.000318219
0.00161302
-0.000345116
0.00160469
-0.000372308
0.00159574
-0.000399703
0.00158617
-0.000427253
0.00157599
-0.000454924
0.00156527
-0.000482627
0.00155408
-0.000510299
0.00154244
-0.000537908
0.00153031
-0.000565437
0.0015178
-0.000592763
0.00150496
-0.000619809
0.00149181
-0.000646506
0.00147849
-0.000672746
0.00146506
-0.000698468
0.00145152
-0.000723587
-0.000748718
0.00143776
0.00126125
0.000385514
-0.00124592
0.00127648
0.000382592
0.00129166
0.000379392
0.00130678
0.000375939
0.00132181
0.000372237
0.00133674
0.000368273
0.00135153
0.000364036
0.00136614
0.000359505
0.00138054
0.00035466
0.00139472
0.000349486
0.00140867
0.000343972
0.00142238
0.000338106
0.00143582
0.000331879
0.00144901
0.000325281
0.00146192
0.000318303
0.00147456
0.000310939
0.00148691
0.00030318
0.00149896
0.000295014
0.00151069
0.000286429
0.00152207
0.000277413
0.00153308
0.000267951
0.00154371
0.000258031
0.00155394
0.000247644
0.00156375
0.000236777
0.00157313
0.000225424
0.00158206
0.000213574
0.00159053
0.000201213
0.00159851
0.000188335
0.00160601
0.000174933
0.00161301
0.000160999
0.0016195
0.000146524
0.00162546
0.000131495
0.00163088
0.000115903
0.00163576
9.97459e-05
0.00164007
8.3021e-05
0.00164382
6.57242e-05
0.00164701
4.78531e-05
0.00164964
2.94042e-05
0.00165169
1.0372e-05
0.00165314
-9.24829e-06
0.001654
-2.94249e-05
0.00165426
-5.0155e-05
0.00165391
-7.14347e-05
0.00165295
-9.3262e-05
0.00165135
-0.000115624
0.00164911
-0.000138505
0.00164624
-0.000161888
0.00164273
-0.000185759
0.00163856
-0.000210094
0.00163376
-0.000234861
0.00162833
-0.000260041
0.00162228
-0.000285612
0.00161561
-0.000311546
0.0016083
-0.000337814
0.00160037
-0.000364376
0.00159184
-0.000391173
0.00158274
-0.000418152
0.00157309
-0.00044527
0.00156293
-0.000472466
0.00155231
-0.000499681
0.00154127
-0.000526871
0.00152983
-0.000553993
0.00151803
-0.000580967
0.00150594
-0.000607714
0.00149359
-0.000634162
0.00148108
-0.000660229
0.00146845
-0.00068584
0.00145568
-0.000710816
-0.000735686
0.00144264
0.00125058
0.000370096
-0.00123516
0.00126582
0.000367356
0.0012809
0.000364313
0.00129584
0.000360994
0.00131067
0.000357407
0.00132539
0.000353555
0.00133999
0.000349434
0.00135446
0.000345038
0.00136876
0.000340354
0.00138288
0.000335368
0.00139679
0.000330065
0.00141046
0.000324431
0.00142389
0.000318454
0.00143705
0.000312121
0.00144993
0.00030542
0.00146253
0.000298343
0.00147483
0.00029088
0.00148682
0.000283019
0.0014985
0.000274752
0.00150985
0.000266066
0.00152085
0.000256952
0.00153148
0.000247398
0.00154173
0.000237392
0.00155158
0.000226926
0.00156102
0.000215987
0.00157003
0.000204564
0.00157859
0.000192648
0.0015867
0.00018023
0.00159433
0.000167299
0.00160148
0.000153849
0.00160814
0.000139869
0.00161428
0.00012535
0.0016199
0.000110282
0.00162499
9.46602e-05
0.00162953
7.84799e-05
0.00163352
6.17363e-05
0.00163695
4.44253e-05
0.00163981
2.65434e-05
0.00164209
8.08649e-06
0.00164379
-1.09476e-05
0.0016449
-3.05297e-05
0.0016454
-5.06613e-05
0.0016453
-7.13356e-05
0.00164459
-9.25475e-05
0.00164325
-0.000114288
0.00164129
-0.000136545
0.00163871
-0.000159302
0.00163549
-0.000182546
0.00163165
-0.000206255
0.0016272
-0.000230406
0.00162213
-0.000254976
0.00161646
-0.000279942
0.0016102
-0.000305278
0.00160333
-0.000330953
0.00159589
-0.00035693
0.00158788
-0.000383164
0.00157934
-0.000409607
0.00157028
-0.000436215
0.00156075
-0.000462936
0.00155079
-0.000489719
0.00154043
-0.000516513
0.0015297
-0.000543268
0.00151865
-0.000569918
0.00150733
-0.000596392
0.00149579
-0.000622617
0.00148408
-0.000648518
0.00147226
-0.000674022
0.00146038
-0.000698933
-0.000723978
0.00144867
0.00124002
0.000354471
-0.00122439
0.00125544
0.000351936
0.00127065
0.000349103
0.00128566
0.000345987
0.00130047
0.000342592
0.00131511
0.000338916
0.00132959
0.000334959
0.0013439
0.000330721
0.00135806
0.000326198
0.00137204
0.000321383
0.00138584
0.000316268
0.00139943
0.000310841
0.00141279
0.00030509
0.00142591
0.000299003
0.00143877
0.000292567
0.00145134
0.00028577
0.00146362
0.000278602
0.00147559
0.000271049
0.00148724
0.000263102
0.00149855
0.00025475
0.00150952
0.000245981
0.00152013
0.000236786
0.00153037
0.000227154
0.00154023
0.000217074
0.00154968
0.000206536
0.00155871
0.000195529
0.00156732
0.000184044
0.00157548
0.000172069
0.00158318
0.000159596
0.00159041
0.000146615
0.00159716
0.000133117
0.00160342
0.000119093
0.00160917
0.000104533
0.0016144
8.94318e-05
0.0016191
7.37821e-05
0.00162325
5.75787e-05
0.00162686
4.08164e-05
0.00162992
2.34907e-05
0.0016324
5.59777e-06
0.00163432
-1.28617e-05
0.00163565
-3.18617e-05
0.00163639
-5.14053e-05
0.00163655
-7.14864e-05
0.0016361
-9.20997e-05
0.00163505
-0.000113237
0.00163339
-0.000134888
0.00163113
-0.00015704
0.00162826
-0.000179679
0.00162479
-0.000202785
0.00162073
-0.00022634
0.00161607
-0.000250321
0.00161084
-0.000274706
0.00160503
-0.000299469
0.00159865
-0.00032458
0.00159173
-0.000350007
0.00158428
-0.000375709
0.00157631
-0.000401646
0.00156787
-0.000427774
0.00155899
-0.000454048
0.00154969
-0.000480418
0.00154001
-0.000506836
0.00152999
-0.000533249
0.00151967
-0.000559598
0.0015091
-0.000585817
0.00149831
-0.000611833
0.00148737
-0.000637576
0.00147632
-0.000662974
0.00146523
-0.000687839
-0.000712962
0.00145421
0.00122955
0.000338748
-0.00121383
0.00124512
0.00033637
0.0012605
0.000333719
0.00127568
0.000330807
0.00129065
0.000327627
0.00130539
0.000324171
0.00131992
0.000320432
0.00133423
0.000316406
0.00134834
0.00031209
0.00136225
0.000307479
0.00137595
0.000302568
0.00138944
0.000297351
0.00140271
0.000291821
0.00141574
0.000285967
0.00142853
0.000279781
0.00144105
0.00027325
0.00145329
0.000266363
0.00146523
0.000259109
0.00147685
0.000251475
0.00148815
0.000243451
0.00149911
0.000235025
0.00150971
0.000226186
0.00151994
0.000216922
0.00152979
0.000207224
0.00153924
0.000197081
0.00154829
0.000186483
0.00155692
0.000175418
0.00156511
0.000163878
0.00157285
0.000151851
0.00158014
0.000139329
0.00158696
0.000126301
0.00159329
0.000112759
0.00159913
9.86941e-05
0.00160446
8.40981e-05
0.00160928
6.89639e-05
0.00161357
5.32854e-05
0.00161733
3.70564e-05
0.00162055
2.02721e-05
0.00162322
2.92793e-06
0.00162533
-1.49718e-05
0.00162688
-3.34066e-05
0.00162785
-5.23787e-05
0.00162825
-7.1884e-05
0.00162807
-9.19173e-05
0.0016273
-0.000112472
0.00162595
-0.000133538
0.00162402
-0.000155106
0.0016215
-0.000177161
0.0016184
-0.000199688
0.00161473
-0.000222669
0.00161049
-0.000246084
0.0016057
-0.000269911
0.00160036
-0.000294126
0.00159448
-0.000318701
0.00158807
-0.000343605
0.00158117
-0.000368804
0.00157378
-0.00039426
0.00156594
-0.000419934
0.00155768
-0.000445782
0.00154902
-0.000471759
0.00154
-0.000497818
0.00153066
-0.000523908
0.00152103
-0.000549973
0.00151117
-0.00057595
0.00150111
-0.000601771
0.00149089
-0.000627364
0.00148058
-0.000652658
0.0014702
-0.000677458
-0.000702443
0.00145968
0.00121956
0.000323063
-0.00120388
0.00123514
0.000320796
0.00125058
0.000318279
0.00126586
0.000315526
0.00128096
0.000312529
0.00129585
0.000309277
0.00131052
0.00030576
0.00132496
0.000301966
0.00133917
0.000297887
0.00135313
0.000293517
0.00136685
0.000288847
0.00138033
0.000283873
0.00139356
0.000278587
0.00140655
0.000272983
0.00141928
0.000267052
0.00143174
0.000260788
0.00144392
0.000254178
0.00145582
0.000247215
0.0014674
0.000239886
0.00147867
0.000232181
0.00148961
0.000224089
0.0015002
0.000215598
0.00151042
0.000206697
0.00152027
0.000197375
0.00152973
0.00018762
0.00153879
0.000177423
0.00154744
0.000166773
0.00155566
0.000155659
0.00156344
0.00014407
0.00157077
0.000131997
0.00157764
0.00011943
0.00158404
0.00010636
0.00158996
9.27775e-05
0.00159538
7.8674e-05
0.0016003
6.40419e-05
0.00160472
4.88739e-05
0.00160861
3.31639e-05
0.00161197
1.69059e-05
0.00161481
9.49678e-08
0.0016171
-1.72608e-05
0.00161884
-3.51471e-05
0.00162002
-5.35655e-05
0.00162065
-7.25133e-05
0.00162072
-9.19862e-05
0.00162023
-0.000111978
0.00161917
-0.000132481
0.00161755
-0.000153486
0.00161537
-0.000174981
0.00161263
-0.000196952
0.00160935
-0.000219382
0.00160552
-0.000242254
0.00160115
-0.000265546
0.00159626
-0.000289236
0.00159086
-0.000313299
0.00158496
-0.000337706
0.00157858
-0.000362425
0.00157175
-0.000387423
0.00156447
-0.000412662
0.0015568
-0.000438103
0.00154874
-0.000463705
0.00154034
-0.000489421
0.00153164
-0.000515203
0.00152266
-0.000540999
0.00151346
-0.000566749
0.00150408
-0.000592389
0.00149456
-0.000617844
0.00148496
-0.000643055
0.00147528
-0.000667776
-0.000692904
0.00146574
0.00121037
0.000307467
-0.00119478
0.00122587
0.000305299
0.00124126
0.000302892
0.00125652
0.000300264
0.00127163
0.000297412
0.00128659
0.000294326
0.00130135
0.000290997
0.0013159
0.000287412
0.00133023
0.00028356
0.00134432
0.000279431
0.00135815
0.000275015
0.00137172
0.000270302
0.00138502
0.000265284
0.00139805
0.000259953
0.0014108
0.000254301
0.00142327
0.000248321
0.00143544
0.000242003
0.00144732
0.000235339
0.00145889
0.000228319
0.00147013
0.000220934
0.00148105
0.000213173
0.00149162
0.000205026
0.00150184
0.000196481
0.00151168
0.000187529
0.00152115
0.000178157
0.00153022
0.000168354
0.00153888
0.00015811
0.00154712
0.000147415
0.00155494
0.000136256
0.00156231
0.000124624
0.00156923
0.000112509
0.00157569
9.99013e-05
0.00158168
8.67906e-05
0.00158718
7.31684e-05
0.0015922
5.90262e-05
0.00159672
4.43564e-05
0.00160073
2.91518e-05
0.00160423
1.3406e-05
0.00160721
-2.88687e-06
0.00160966
-1.97137e-05
0.00161158
-3.70681e-05
0.00161297
-5.495e-05
0.00161381
-7.33585e-05
0.00161412
-9.22898e-05
0.00161388
-0.000111739
0.0016131
-0.0001317
0.00161177
-0.000152164
0.00160991
-0.00017312
0.00160752
-0.000194557
0.00160459
-0.000216458
0.00160115
-0.000238808
0.00159719
-0.000261587
0.00159273
-0.000284775
0.00158777
-0.000308347
0.00158235
-0.000332277
0.00157646
-0.000356538
0.00157013
-0.000381096
0.00156339
-0.00040592
0.00155626
-0.000430971
0.00154876
-0.000456211
0.00154094
-0.000481599
0.00153283
-0.000507087
0.00152446
-0.000532629
0.00151587
-0.000558168
0.00150713
-0.000583647
0.00149828
-0.00060899
0.00148939
-0.000634167
0.00148043
-0.000658814
-0.000683959
0.00147148
0.00120208
0.000291947
-0.00118656
0.0012175
0.000289884
0.0012328
0.000287588
0.00124799
0.000285079
0.00126304
0.000282358
0.00127795
0.000279416
0.0012927
0.000276247
0.00130727
0.00027284
0.00132165
0.000269186
0.00133581
0.000265273
0.00134973
0.000261091
0.0013634
0.000256629
0.00137681
0.000251876
0.00138994
0.000246823
0.00140278
0.000241459
0.00141533
0.000235776
0.00142757
0.000229764
0.00143949
0.000223413
0.0014511
0.000216716
0.00146237
0.000209661
0.0014733
0.00020224
0.00148389
0.000194441
0.00149411
0.000186256
0.00150397
0.000177673
0.00151344
0.000168681
0.00152253
0.00015927
0.00153121
0.000149429
0.00153948
0.000139146
0.00154732
0.000128412
0.00155473
0.000117214
0.0015617
0.000105543
0.00156821
9.3389e-05
0.00157426
8.0741e-05
0.00157984
6.759e-05
0.00158494
5.3927e-05
0.00158955
3.97435e-05
0.00159367
2.5032e-05
0.00159729
9.78541e-06
0.00160041
-6.00338e-06
0.00160301
-2.23152e-05
0.00160509
-3.91528e-05
0.00160666
-5.65149e-05
0.0016077
-7.44013e-05
0.00160822
-9.28093e-05
0.00160822
-0.000111735
0.00160769
-0.000131173
0.00160664
-0.000151116
0.00160507
-0.000171554
0.00160299
-0.000192476
0.0016004
-0.000213869
0.00159731
-0.000235718
0.00159373
-0.000258004
0.00158966
-0.000280708
0.00158513
-0.000303809
0.00158013
-0.000327282
0.0015747
-0.000351102
0.00156884
-0.000375239
0.00156258
-0.000399662
0.00155595
-0.000424339
0.00154897
-0.000449233
0.00154168
-0.000474306
0.00153411
-0.000499517
0.0015263
-0.00052482
0.0015183
-0.000550166
0.00151015
-0.000575503
0.00150193
-0.000600767
0.00149371
-0.000625943
0.00148557
-0.000650684
-0.000676261
0.00147788
0.00119467
0.00027647
-0.00117919
0.00121003
0.00027452
0.00122528
0.000272343
0.0012404
0.000269961
0.00125538
0.000267375
0.00127022
0.000264577
0.0012849
0.000261562
0.00129942
0.000258321
0.00131376
0.000254847
0.00132791
0.000251129
0.00134184
0.000247158
0.00135554
0.000242924
0.001369
0.000238417
0.0013822
0.000233625
0.00139512
0.000228538
0.00140775
0.000223146
0.00142008
0.000217438
0.00143209
0.000211404
0.00144377
0.000205033
0.00145512
0.000198316
0.00146611
0.000191241
0.00147676
0.000183799
0.00148703
0.00017598
0.00149693
0.000167772
0.00150645
0.000159165
0.00151557
0.000150148
0.00152429
0.00014071
0.0015326
0.00013084
0.00154048
0.000120527
0.00154794
0.000109761
0.00155495
9.85297e-05
0.00156152
8.68234e-05
0.00156763
7.46315e-05
0.00157327
6.1944e-05
0.00157845
4.87514e-05
0.00158315
3.50447e-05
0.00158736
2.08156e-05
0.00159109
6.05642e-06
0.00159433
-9.23876e-06
0.00159706
-2.50489e-05
0.00159929
-4.13835e-05
0.00160102
-5.82408e-05
0.00160224
-7.56209e-05
0.00160295
-9.35222e-05
0.00160316
-0.000111942
0.00160286
-0.000130874
0.00160206
-0.000150314
0.00160076
-0.000170253
0.00159896
-0.00019068
0.00159667
-0.000211584
0.00159391
-0.000232949
0.00159066
-0.00025476
0.00158695
-0.000277
0.00158279
-0.000299647
0.00157819
-0.000322681
0.00157317
-0.000346077
0.00156774
-0.000369808
0.00156192
-0.000393849
0.00155575
-0.000418167
0.00154925
-0.000442731
0.00154245
-0.000467507
0.00153539
-0.000492457
0.00152811
-0.000517541
0.00152066
-0.000542716
0.00151309
-0.000567931
0.00150546
-0.000593137
0.00149783
-0.000618313
0.00149034
-0.000643199
-0.000669411
0.00148349
0.00118808
0.00026101
-0.00117262
0.00120342
0.000259179
0.00121864
0.000257127
0.00123372
0.000254879
0.00124866
0.000252435
0.00126345
0.000249788
0.00127808
0.000246933
0.00129254
0.000243861
0.00130682
0.000240566
0.00132091
0.000237039
0.00133479
0.000233271
0.00134847
0.000229253
0.00136191
0.000224975
0.0013751
0.000220429
0.00138804
0.000215603
0.0014007
0.000210486
0.00141307
0.000205069
0.00142513
0.00019934
0.00143688
0.000193288
0.00144829
0.000186903
0.00145936
0.000180173
0.00147007
0.000173087
0.00148041
0.000165634
0.00149038
0.000157803
0.00149996
0.000149583
0.00150915
0.000140963
0.00151793
0.000131931
0.00152629
0.000122475
0.00153423
0.000112586
0.00154174
0.00010225
0.00154882
9.14579e-05
0.00155544
8.01975e-05
0.00156161
6.84583e-05
0.00156733
5.62299e-05
0.00157258
4.35021e-05
0.00157736
3.02653e-05
0.00158166
1.65106e-05
0.00158549
2.22964e-06
0.00158883
-1.25788e-05
0.00159168
-2.78998e-05
0.00159404
-4.37429e-05
0.00159591
-6.01081e-05
0.00159728
-7.69959e-05
0.00159816
-9.44052e-05
0.00159856
-0.000112334
0.00159846
-0.000130778
0.00159788
-0.000149732
0.00159681
-0.000169188
0.00159527
-0.000189138
0.00159326
-0.000209569
0.00159078
-0.000230469
0.00158784
-0.000251824
0.00158446
-0.000273617
0.00158064
-0.000295829
0.0015764
-0.00031844
0.00157175
-0.00034143
0.00156672
-0.000364775
0.00156132
-0.000388449
0.00155558
-0.000412427
0.00154953
-0.00043668
0.0015432
-0.000461179
0.00153663
-0.00048589
0.00152987
-0.000510778
0.00152296
-0.000535806
0.00151596
-0.000560928
0.00150892
-0.000586096
0.00150186
-0.000611258
0.0014948
-0.000636134
-0.000662159
0.00148755
0.00118226
0.000245544
-0.0011668
0.00119761
0.000243836
0.00121282
0.000241914
0.00122789
0.000239805
0.00124282
0.000237508
0.00125759
0.000235019
0.00127219
0.00023233
0.00128662
0.000229434
0.00130086
0.000226324
0.00131491
0.000222992
0.00132875
0.00021943
0.00134237
0.000215628
0.00135577
0.000211579
0.00136893
0.000207273
0.00138183
0.0002027
0.00139447
0.00019785
0.00140682
0.000192712
0.00141888
0.000187277
0.00143064
0.000181534
0.00144207
0.00017547
0.00145317
0.000169075
0.00146392
0.000162338
0.00147431
0.000155246
0.00148432
0.000147787
0.00149395
0.000139951
0.00150319
0.000131725
0.00151203
0.000123097
0.00152045
0.000114055
0.00152844
0.000104588
0.00153601
9.46824e-05
0.00154314
8.43276e-05
0.00154983
7.35117e-05
0.00155606
6.22231e-05
0.00156184
5.04508e-05
0.00156716
3.81841e-05
0.00157201
2.54126e-05
0.0015764
1.21267e-05
0.00158031
-1.68269e-06
0.00158374
-1.60104e-05
0.00158669
-3.0852e-05
0.00158916
-4.62139e-05
0.00159115
-6.20984e-05
0.00159267
-7.85063e-05
0.0015937
-9.54372e-05
0.00159425
-0.00011289
0.00159434
-0.00013086
0.00159395
-0.000149345
0.0015931
-0.000168336
0.00159178
-0.000187825
0.00159002
-0.000207803
0.0015878
-0.000228256
0.00158515
-0.000249173
0.00158207
-0.000270537
0.00157858
-0.000292333
0.00157468
-0.000314542
0.00157039
-0.000337145
0.00156574
-0.000360122
0.00156074
-0.000383451
0.00155542
-0.000407109
0.00154981
-0.000431071
0.00154395
-0.000455312
0.00153786
-0.000479806
0.00153161
-0.000504522
0.00152523
-0.000529429
0.00151879
-0.000554487
0.00151235
-0.000579659
0.001506
-0.0006049
0.00149975
-0.000629893
-0.000656132
0.00149373
0.00117721
0.000230057
-0.00116172
0.00119257
0.000228476
0.00120779
0.000226687
0.00122288
0.00022472
0.00123781
0.000222574
0.00125259
0.000220245
0.00126719
0.000217726
0.00128161
0.000215011
0.00129584
0.000212092
0.00130988
0.000208961
0.0013237
0.000205609
0.00133729
0.00020203
0.00135066
0.000198213
0.00136378
0.00019415
0.00137665
0.000189832
0.00138925
0.000185248
0.00140157
0.00018039
0.00141361
0.000175246
0.00142533
0.000169805
0.00143675
0.000164058
0.00144783
0.000157992
0.00145857
0.000151596
0.00146896
0.000144858
0.00147898
0.000137766
0.00148862
0.000130307
0.00149788
0.00012247
0.00150673
0.000114242
0.00151518
0.000105609
0.00152321
9.65601e-05
0.00153081
8.70817e-05
0.00153798
7.71615e-05
0.0015447
6.67869e-05
0.00155098
5.59457e-05
0.0015568
4.4626e-05
0.00156217
3.28161e-05
0.00156708
2.05051e-05
0.00157152
7.68248e-06
0.0015755
-5.66127e-06
0.00157901
-1.95152e-05
0.00158204
-3.38861e-05
0.0015846
-4.87771e-05
0.0015867
-6.41923e-05
0.00158832
-8.01329e-05
0.00158949
-9.65993e-05
0.00159019
-0.00011359
0.00159043
-0.000131104
0.00159022
-0.000149136
0.00158956
-0.000167679
0.00158847
-0.000186727
0.00158693
-0.00020627
0.00158497
-0.000226297
0.0015826
-0.000246795
0.00157981
-0.000267752
0.00157663
-0.000289152
0.00157307
-0.000310979
0.00156914
-0.000333216
0.00156486
-0.000355845
0.00156026
-0.000378848
0.00155535
-0.000402204
0.00155018
-0.000425894
0.00154476
-0.000449897
0.00153914
-0.000474191
0.00153338
-0.000498752
0.00152751
-0.000523559
0.0015216
-0.000548579
0.00151573
-0.000573793
0.00150998
-0.000599146
0.00150466
-0.000624575
-0.000650725
0.00149925
0.00117292
0.000214545
-0.00115741
0.00118831
0.000213089
0.00120356
0.000211435
0.00121867
0.000209611
0.00123362
0.000207618
0.00124842
0.000205452
0.00126304
0.000203107
0.00127747
0.000200574
0.00129172
0.000197849
0.00130575
0.000194922
0.00131958
0.000191786
0.00133318
0.000188432
0.00134654
0.000184852
0.00135965
0.000181038
0.0013725
0.000176979
0.00138509
0.000172666
0.00139739
0.00016809
0.00140939
0.000163239
0.00142109
0.000158104
0.00143248
0.000152674
0.00144353
0.000146937
0.00145425
0.000140882
0.00146461
0.000134496
0.00147461
0.000127768
0.00148423
0.000120684
0.00149347
0.000113233
0.00150231
0.0001054
0.00151074
9.71737e-05
0.00151876
8.85395e-05
0.00152636
7.94844e-05
0.00153353
6.99949e-05
0.00154026
6.00578e-05
0.00154654
4.96598e-05
0.00155238
3.87881e-05
0.00155777
2.74301e-05
0.0015627
1.55738e-05
0.00156717
3.20761e-06
0.00157119
-9.67546e-06
0.00157474
-2.30655e-05
0.00157783
-3.6975e-05
0.00158046
-5.14068e-05
0.00158263
-6.63653e-05
0.00158435
-8.18527e-05
0.00158562
-9.78698e-05
0.00158645
-0.000114416
0.00158683
-0.00013149
0.00158678
-0.000149088
0.00158631
-0.000167204
0.00158541
-0.000185831
0.0015841
-0.00020496
0.00158239
-0.000224581
0.00158027
-0.000244682
0.00157777
-0.000265252
0.0015749
-0.000286277
0.00157166
-0.000307742
0.00156808
-0.000329633
0.00156417
-0.000351933
0.00155995
-0.000374626
0.00155544
-0.000397697
0.00155067
-0.000421129
0.00154568
-0.000444906
0.00154051
-0.000469013
0.00153519
-0.000493434
0.00152978
-0.000518155
0.00152436
-0.000543156
0.00151898
-0.00056841
0.00151375
-0.000593914
0.00150856
-0.000619384
-0.000646271
0.0015041
0.00116948
0.000199015
-0.00115395
0.00118488
0.000197682
0.00120016
0.000196159
0.00121529
0.000194477
0.00123027
0.000192637
0.00124509
0.000190633
0.00125974
0.000188461
0.0012742
0.000186113
0.00128846
0.000183583
0.00130252
0.000180862
0.00131637
0.000177943
0.00132998
0.000174818
0.00134335
0.000171479
0.00135648
0.000167916
0.00136933
0.00016412
0.00138192
0.000160082
0.00139422
0.000155792
0.00140622
0.00015124
0.00141791
0.000146415
0.00142927
0.000141306
0.00144031
0.000135901
0.001451
0.00013019
0.00146134
0.000124159
0.00147131
0.000117797
0.0014809
0.000111091
0.00149011
0.000104026
0.00149892
9.65904e-05
0.00150732
8.87697e-05
0.00151531
8.055e-05
0.00152288
7.19171e-05
0.00153002
6.28569e-05
0.00153672
5.3355e-05
0.00154298
4.33973e-05
0.0015488
3.297e-05
0.00155417
2.20594e-05
0.00155909
1.06522e-05
0.00156357
-1.26422e-06
0.00156758
-1.36911e-05
0.00157114
-2.66284e-05
0.00157426
-4.00867e-05
0.00157692
-5.40713e-05
0.00157914
-6.85868e-05
0.00158092
-8.3636e-05
0.00158228
-9.92206e-05
0.0015832
-0.000115341
0.0015837
-0.000131994
0.00158379
-0.000149178
0.00158348
-0.000166887
0.00158276
-0.000185115
0.00158165
-0.000203852
0.00158016
-0.000223089
0.00157829
-0.000242816
0.00157606
-0.00026302
0.00157348
-0.00028369
0.00157055
-0.000304813
0.00156729
-0.000326374
0.00156372
-0.00034836
0.00155985
-0.000370759
0.00155571
-0.000393556
0.00155132
-0.00041674
0.00154671
-0.0004403
0.00154193
-0.000464227
0.001537
-0.000488512
0.001532
-0.000513148
0.00152696
-0.000538125
0.00152197
-0.000563417
0.00151712
-0.000589061
0.00151237
-0.00061463
-0.000642002
0.0015081
0.00116699
0.000183482
-0.00115145
0.0011824
0.000182267
0.00119769
0.000180871
0.00121284
0.000179326
0.00122784
0.000177635
0.00124268
0.000175792
0.00125735
0.000173792
0.00127184
0.000171627
0.00128613
0.000169291
0.00130021
0.000166777
0.00131408
0.000164077
0.00132772
0.000161182
0.00134111
0.000158084
0.00135426
0.000154774
0.00136713
0.000151244
0.00137973
0.000147484
0.00139204
0.000143484
0.00140404
0.000139233
0.00141574
0.000134722
0.0014271
0.000129939
0.00143813
0.000124872
0.00144881
0.000119509
0.00145913
0.000113839
0.00146908
0.000107848
0.00147865
0.000101523
0.00148783
9.48497e-05
0.0014966
8.78149e-05
0.00150497
8.04039e-05
0.00151292
7.26019e-05
0.00152044
6.4394e-05
0.00152753
5.57649e-05
0.00153419
4.66995e-05
0.0015404
3.71825e-05
0.00154617
2.71988e-05
0.0015515
1.67335e-05
0.00155638
5.77223e-06
0.00156081
-5.69776e-06
0.00156479
-1.76737e-05
0.00156833
-3.01668e-05
0.00157143
-4.31843e-05
0.00157409
-5.67337e-05
0.00157633
-7.08202e-05
0.00157814
-8.54471e-05
0.00157953
-0.000100617
0.00158052
-0.000116329
0.00158111
-0.000132583
0.00158131
-0.000149375
0.00158112
-0.000166699
0.00158055
-0.000184549
0.00157962
-0.000202917
0.00157832
-0.000221793
0.00157667
-0.000241166
0.00157468
-0.000261026
0.00157235
-0.000281361
0.0015697
-0.000302159
0.00156673
-0.000323407
0.00156346
-0.000345095
0.00155992
-0.000367211
0.0015561
-0.000389744
0.00155205
-0.000412685
0.00154778
-0.000436028
0.00154332
-0.000459765
0.0015387
-0.00048389
0.00153395
-0.0005084
0.00152912
-0.000533296
0.00152428
-0.000558578
0.00151956
-0.000584335
0.00151523
-0.000610308
-0.000638419
0.00151165
0.00116558
0.000167956
-0.00115005
0.00118099
0.000166856
0.00119628
0.000165582
0.00121144
0.000164171
0.00122645
0.000162625
0.0012413
0.000160939
0.00125598
0.000159107
0.00127049
0.000157123
0.0012848
0.000154979
0.00129891
0.00015267
0.0013128
0.000150187
0.00132646
0.000147522
0.00133987
0.000144666
0.00135304
0.000141611
0.00136593
0.000138349
0.00137855
0.000134868
0.00139087
0.000131161
0.00140289
0.000127215
0.00141459
0.000123022
0.00142596
0.000118568
0.00143699
0.000113843
0.00144766
0.000108835
0.00145797
0.00010353
0.0014679
9.79157e-05
0.00147745
9.19779e-05
0.0014866
8.57026e-05
0.00149534
7.90749e-05
0.00150366
7.20797e-05
0.00151156
6.47014e-05
0.00151903
5.6924e-05
0.00152606
4.87313e-05
0.00153266
4.01068e-05
0.00153881
3.10339e-05