/*--------------------------------*- C++ -*----------------------------------*\
| =========                 |                                                 |
| \\      /  F ield         | OpenFOAM: The Open Source CFD Toolbox           |
|  \\    /   O peration     | Version:  2312                                  |
|   \\  /    A nd           | Website:  www.openfoam.com                      |
|    \\/     M anipulation  |                                                 |
\*---------------------------------------------------------------------------*/
FoamFile
{
    version     2.0;
    format      ascii;
    arch        "LSB;label=32;scalar=64";
    class       volVectorField;
    location    "1100";
    object      U;
}
// * * * * * * * * * * * * * * * * * * * * * * * * * * * * * * * * * * * * * //

dimensions      [0 1 -1 0 0 0 0];

internalField   nonuniform List<vector> 
76025
(
(0.0419777 -0.0104695 0)
(0.0422558 -0.010424 -9.97581e-22)
(0.0425304 -0.0103727 0)
(0.0427994 -0.0103137 0)
(0.0430726 -0.0102523 2.1912e-21)
(0.0433478 -0.0101623 4.60226e-21)
(0.0436302 -0.0100828 -8.18723e-21)
(0.0439184 -0.00998181 3.54471e-21)
(0.0442062 -0.00988019 1.2649e-21)
(0.0444927 -0.0097686 -1.3029e-21)
(0.0447799 -0.00964736 4.37135e-23)
(0.0450688 -0.00951334 -4.1168e-21)
(0.0453609 -0.00937223 5.47775e-21)
(0.0456509 -0.0092181 0)
(0.0459316 -0.00904375 -1.49552e-21)
(0.0462112 -0.00887501 0)
(0.0464839 -0.0086798 0)
(0.0467587 -0.00848468 0)
(0.0470298 -0.00826855 -1.59768e-21)
(0.0472931 -0.0080538 1.69834e-21)
(0.0475519 -0.0078176 1.73919e-21)
(0.0478071 -0.00757333 5.25898e-21)
(0.0480516 -0.00731904 -3.5424e-21)
(0.0482863 -0.00705126 -5.57282e-21)
(0.0485123 -0.00677636 -7.70628e-23)
(0.0487366 -0.00649477 -2.0345e-21)
(0.0489563 -0.0061844 5.92577e-21)
(0.0491687 -0.00587766 -5.97404e-21)
(0.049375 -0.00554828 2.02716e-21)
(0.0495742 -0.00519762 -2.07373e-21)
(0.0497633 -0.0048624 -2.12759e-21)
(0.0499544 -0.00450994 4.44849e-21)
(0.0501366 -0.00412999 -6.75022e-21)
(0.0503129 -0.00375736 -1.17759e-21)
(0.0504785 -0.00336212 5.94122e-21)
(0.0506339 -0.00296893 2.24453e-23)
(0.0507847 -0.00255102 -1.22254e-21)
(0.0509318 -0.00211506 6.46071e-22)
(0.0510709 -0.00168894 1.99472e-23)
(0.0511987 -0.00124133 -1.00155e-21)
(0.0513125 -0.000791612 6.67346e-22)
(0.0514232 -0.00031908 -3.3081e-22)
(0.0515341 0.000180735 6.60626e-22)
(0.0516334 0.000681453 -1.32444e-21)
(0.0517148 0.00120081 -1.35103e-21)
(0.0517854 0.00172792 2.61789e-21)
(0.0518523 0.00227728 2.69693e-21)
(0.0519043 0.00283184 -8.09054e-21)
(0.0519336 0.00340185 5.28181e-21)
(0.0519525 0.00398463 -5.26483e-23)
(0.0519574 0.00458204 -1.3383e-20)
(0.0519459 0.00519894 -5.27273e-21)
(0.0519228 0.00583196 5.42889e-21)
(0.0518805 0.00648826 0)
(0.0518064 0.00715007 -5.27227e-21)
(0.0517039 0.00782065 -5.43182e-21)
(0.0515835 0.00850745 9.47172e-23)
(0.0514295 0.00921788 -5.32654e-21)
(0.0512457 0.00995715 5.37696e-21)
(0.0510235 0.0107339 -1.58795e-20)
(0.0508063 0.0114689 -1.09056e-20)
(0.0505385 0.0122663 -3.53052e-22)
(0.0502375 0.0130846 0)
(0.0499008 0.0139179 2.7078e-20)
(0.0495232 0.0147687 -1.04761e-20)
(0.0491127 0.015618 5.42293e-21)
(0.0486704 0.0165144 -1.0739e-20)
(0.0481736 0.0174546 1.11914e-20)
(0.0477653 0.0183878 2.21031e-20)
(0.0420028 -0.0109181 -1.01323e-21)
(0.042293 -0.0108712 -3.21586e-21)
(0.0425841 -0.010816 4.20429e-21)
(0.0428759 -0.0107534 0)
(0.0431657 -0.010684 -5.83887e-21)
(0.043459 -0.0106031 -1.84737e-22)
(0.0437481 -0.0105127 4.83732e-21)
(0.0440412 -0.0104119 0)
(0.0443376 -0.0103017 4.89308e-23)
(0.0446354 -0.0101822 1.3264e-21)
(0.0449343 -0.0100529 -1.365e-21)
(0.045234 -0.00991336 5.4169e-23)
(0.045534 -0.00976362 0)
(0.0458356 -0.00960324 0)
(0.0461372 -0.00942985 -3.1865e-21)
(0.0464326 -0.00924716 7.89398e-21)
(0.0467276 -0.00905063 1.66229e-21)
(0.0470171 -0.00884469 -5.09063e-21)
(0.0473055 -0.00862576 3.38302e-21)
(0.0475877 -0.00839698 -1.7236e-21)
(0.0478672 -0.00815536 1.8713e-21)
(0.0481412 -0.00790248 -3.63709e-21)
(0.048409 -0.00763759 3.8065e-21)
(0.0486702 -0.0073602 -5.8121e-21)
(0.0489242 -0.00707075 3.90024e-21)
(0.0491715 -0.00677032 6.05315e-21)
(0.0494142 -0.0064572 -4.08457e-21)
(0.0496447 -0.00613358 0)
(0.0498682 -0.00579592 0)
(0.0500857 -0.00544516 -2.24505e-21)
(0.0502957 -0.00508399 0)
(0.0505 -0.00471163 -2.34761e-21)
(0.0506974 -0.00432697 2.37922e-21)
(0.0508835 -0.00393218 -3.62399e-21)
(0.0510616 -0.00352457 4.128e-23)
(0.0512303 -0.00310496 -1.24322e-21)
(0.051392 -0.00266968 0)
(0.0515465 -0.00222384 -2.65737e-21)
(0.0516923 -0.00176827 2.04502e-21)
(0.0518282 -0.00130098 -1.72663e-21)
(0.0519533 -0.000819331 1.04455e-21)
(0.0520693 -0.000320916 -1.42276e-23)
(0.0521752 0.000186305 3.72652e-22)
(0.0522684 0.000701262 -3.46757e-22)
(0.052348 0.00122806 2.81962e-21)
(0.052415 0.00176978 -1.41583e-21)
(0.05247 0.00232446 -1.44521e-21)
(0.0525101 0.00288735 2.7452e-21)
(0.0525327 0.00346745 8.37158e-21)
(0.0525405 0.00406532 -2.8139e-23)
(0.0525329 0.00467817 8.30727e-21)
(0.0525077 0.00530858 -2.79607e-21)
(0.0524654 0.00595417 -8.3013e-21)
(0.0524038 0.00661063 5.53703e-21)
(0.0523192 0.00727698 0)
(0.0522093 0.00796759 1.67263e-20)
(0.0520783 0.00867351 5.17743e-23)
(0.0519204 0.00939764 -5.54796e-21)
(0.0517347 0.0101393 -5.66871e-21)
(0.0515241 0.0108975 0)
(0.0512884 0.0116795 5.38878e-21)
(0.0510221 0.0124816 1.66145e-20)
(0.0507238 0.013298 0)
(0.0503938 0.014132 -1.10961e-20)
(0.0500306 0.0149864 6.07988e-21)
(0.0496274 0.0158684 -1.13725e-20)
(0.0491912 0.0167815 5.68565e-21)
(0.0487123 0.0176994 -1.12887e-20)
(0.0482477 0.0186508 -1.13313e-20)
(0.0420573 -0.0113958 5.32049e-21)
(0.0423501 -0.0113451 -3.15733e-21)
(0.042647 -0.0112858 1.15505e-21)
(0.0429505 -0.0112194 -4.79832e-21)
(0.043257 -0.0111444 6.00846e-21)
(0.0435651 -0.0110603 5.12991e-21)
(0.0438729 -0.0109658 -6.42558e-21)
(0.0441806 -0.0108615 0)
(0.0444889 -0.010747 5.2118e-23)
(0.0447982 -0.0106221 0)
(0.0451082 -0.0104865 1.49366e-21)
(0.0454186 -0.0103401 -1.47934e-21)
(0.0457288 -0.010183 -7.86729e-21)
(0.0460384 -0.0100149 6.26762e-21)
(0.0463483 -0.00983551 -1.60268e-21)
(0.0466575 -0.00964406 -5.03749e-21)
(0.0469655 -0.00944116 1.70076e-21)
(0.047271 -0.0092261 1.7268e-21)
(0.0475734 -0.00899976 5.48126e-21)
(0.0478721 -0.00876129 -3.64271e-21)
(0.0481664 -0.0085111 -1.92234e-21)
(0.0484557 -0.00824883 3.90471e-21)
(0.0487398 -0.00797439 -1.89471e-21)
(0.0490186 -0.00768727 -2.05681e-21)
(0.0492918 -0.0073875 0)
(0.0495582 -0.00707533 2.14956e-21)
(0.0498169 -0.0067517 2.15996e-21)
(0.0500674 -0.00641569 -2.12483e-21)
(0.0503098 -0.00606677 0)
(0.0505445 -0.00570548 4.60904e-21)
(0.0507722 -0.00533136 -2.39546e-21)
(0.0509913 -0.00494594 -8.17596e-23)
(0.0512008 -0.00454965 0)
(0.0514006 -0.00414122 1.23682e-21)
(0.0515909 -0.00372102 -3.85349e-21)
(0.0517715 -0.00328851 2.60941e-21)
(0.0519423 -0.0028439 0)
(0.0521036 -0.00238784 2.0607e-21)
(0.0522554 -0.00192042 -2.11333e-21)
(0.0523971 -0.00144213 -3.54655e-22)
(0.0525272 -0.000951045 0)
(0.0526458 -0.000447526 -7.22998e-22)
(0.052753 6.75494e-05 -3.6329e-22)
(0.0528482 0.000595002 3.51327e-22)
(0.0529303 0.00113601 -2.14079e-21)
(0.0529988 0.0016913 -1.46744e-21)
(0.0530534 0.0022602 2.84468e-21)
(0.0530931 0.00284253 -2.90199e-21)
(0.0531163 0.00344034 2.92847e-21)
(0.053123 0.00405357 -2.87013e-21)
(0.053113 0.00468114 -2.84139e-21)
(0.0530855 0.00532353 5.85971e-21)
(0.0530397 0.00598016 0)
(0.0529747 0.00665064 5.86042e-21)
(0.0528879 0.00733637 6.41238e-23)
(0.0527778 0.00803968 -5.80644e-21)
(0.0526447 0.0087588 -5.80492e-21)
(0.0524872 0.00949485 1.15669e-20)
(0.0523039 0.0102493 -6.15237e-23)
(0.0520942 0.0110244 5.89618e-21)
(0.0518585 0.011819 -1.18197e-20)
(0.0515956 0.0126303 -5.99617e-21)
(0.0513019 0.0134615 5.72586e-23)
(0.0509764 0.0143141 -5.83842e-21)
(0.0506182 0.0151892 -5.66478e-21)
(0.0502233 0.0160858 -1.79417e-20)
(0.0497986 0.0170084 0)
(0.0493233 0.0179421 -6.02186e-21)
(0.0488655 0.0189278 5.98074e-21)
(0.0421378 -0.0119029 0)
(0.0424358 -0.01185 -1.13038e-21)
(0.0427367 -0.0117875 -6.05651e-21)
(0.0430447 -0.0117174 4.85123e-21)
(0.0433587 -0.0116384 3.9756e-21)
(0.0436767 -0.0115494 -6.55662e-21)
(0.0439977 -0.0114501 1.34511e-21)
(0.0443203 -0.0113407 -1.44161e-21)
(0.0446436 -0.011221 -1.43009e-21)
(0.0449671 -0.0110907 -6.1004e-21)
(0.0452905 -0.0109495 6.13134e-21)
(0.0456135 -0.0107971 6.44644e-21)
(0.0459359 -0.0106332 -1.5108e-21)
(0.0462573 -0.0104578 -6.69422e-21)
(0.0465777 -0.0102706 5.13654e-21)
(0.0468971 -0.0100713 -1.79547e-21)
(0.0472151 -0.00986005 1.83994e-21)
(0.0475315 -0.00963652 1.88456e-21)
(0.0478454 -0.00940086 -5.69074e-21)
(0.0481562 -0.00915293 1.85242e-21)
(0.0484631 -0.00889275 1.94681e-21)
(0.0487655 -0.00862012 0)
(0.049063 -0.00833498 4.26403e-21)
(0.049355 -0.00803726 -2.10957e-21)
(0.049641 -0.00772694 -4.3721e-21)
(0.0499206 -0.00740414 -4.51319e-21)
(0.0501931 -0.00706882 8.99685e-21)
(0.0504582 -0.00672074 -4.6189e-21)
(0.0507154 -0.0063599 0)
(0.0509645 -0.00598634 -4.81801e-21)
(0.0512052 -0.0056004 -6.09287e-23)
(0.0514368 -0.00520266 4.96074e-21)
(0.0516588 -0.00479302 -2.58465e-21)
(0.0518708 -0.00437115 6.57383e-21)
(0.0520726 -0.00393713 -1.29556e-21)
(0.052264 -0.00349091 0)
(0.0524449 -0.00303257 0)
(0.0526152 -0.00256211 7.27185e-22)
(0.0527746 -0.00207988 7.19603e-22)
(0.0529228 -0.00158616 3.8041e-22)
(0.0530586 -0.0010796 -1.19054e-23)
(0.0531822 -0.000560107 3.68756e-22)
(0.0532933 -2.75897e-05 0)
(0.0533914 0.000517854 -2.39041e-23)
(0.0534756 0.0010763 0)
(0.0535454 0.00164794 1.45859e-21)
(0.0536003 0.00223282 1.62607e-23)
(0.0536397 0.00283087 -4.53045e-21)
(0.0536626 0.00344247 0)
(0.0536686 0.0040681 -3.00744e-21)
(0.0536575 0.00470787 2.9767e-21)
(0.0536288 0.00536203 -5.89282e-21)
(0.0535815 0.00603079 0)
(0.0535148 0.00671427 -1.79883e-20)
(0.0534272 0.00741287 6.10831e-23)
(0.0533176 0.0081276 5.96709e-21)
(0.0531854 0.00885912 5.96844e-21)
(0.0530299 0.00960804 0)
(0.0528499 0.0103754 0)
(0.0526448 0.0111618 -5.93166e-21)
(0.0524142 0.0119675 1.18899e-20)
(0.0521569 0.0127924 1.19221e-20)
(0.0518707 0.0136378 0)
(0.0515541 0.0145045 -1.24139e-20)
(0.0512064 0.0153934 0)
(0.0508239 0.0163041 1.83083e-20)
(0.0504112 0.0172427 -6.16225e-21)
(0.0499454 0.0181934 -6.27496e-21)
(0.0494966 0.0192019 -6.5436e-21)
(0.0422183 -0.0124362 0)
(0.0425334 -0.0123824 0)
(0.0428472 -0.0123181 -1.28711e-21)
(0.0431648 -0.0122454 5.33895e-21)
(0.0434866 -0.0121629 -6.6871e-21)
(0.0438121 -0.0120698 1.37364e-21)
(0.0441412 -0.0119657 0)
(0.0444737 -0.0118508 1.46306e-21)
(0.0448088 -0.0117251 0)
(0.0451454 -0.0115883 3.21651e-21)
(0.0454826 -0.0114403 1.69792e-22)
(0.0458197 -0.0112807 -3.29226e-21)
(0.0461561 -0.0111094 0)
(0.0464914 -0.010926 3.57731e-21)
(0.046825 -0.0107305 -1.08533e-20)
(0.0471568 -0.0105226 7.34233e-21)
(0.0474865 -0.0103022 -9.46067e-21)
(0.0478139 -0.0100692 1.93042e-21)
(0.0481385 -0.0098236 -2.0307e-21)
(0.0484599 -0.00956526 1.9996e-21)
(0.0487776 -0.00929415 2.08885e-21)
(0.049091 -0.00901021 -6.38182e-21)
(0.0493995 -0.00871339 -4.35577e-21)
(0.0497026 -0.00840372 0)
(0.0499996 -0.00808116 4.58681e-21)
(0.0502902 -0.00774575 2.36821e-21)
(0.0505738 -0.00739746 -7.01749e-21)
(0.05085 -0.00703629 2.37544e-21)
(0.0511182 -0.00666228 -4.97813e-21)
(0.051378 -0.0062755 7.47085e-21)
(0.051629 -0.00587613 -2.61869e-21)
(0.0518708 -0.00546438 1.33632e-21)
(0.0521029 -0.00504027 0)
(0.0523247 -0.00460381 -1.34493e-21)
(0.0525361 -0.00415504 -1.37344e-21)
(0.0527365 -0.00369404 0)
(0.0529258 -0.00322092 1.48239e-21)
(0.0531037 -0.0027358 -2.23045e-21)
(0.0532697 -0.00223891 1.51204e-21)
(0.053424 -0.00173042 -7.77866e-22)
(0.0535653 -0.00120915 -1.27524e-23)
(0.0536938 -0.000675291 -5.9069e-22)
(0.0538088 -0.000128825 1.93191e-22)
(0.0539102 0.000430127 7.64979e-22)
(0.0539973 0.00100165 1.67259e-23)
(0.0540696 0.00158596 4.65274e-21)
(0.0541267 0.00218326 0)
(0.0541681 0.0027937 3.05807e-21)
(0.0541931 0.00341764 -3.36303e-23)
(0.0542014 0.00405559 -3.08753e-21)
(0.0541925 0.00470781 0)
(0.0541658 0.00537453 -3.11801e-21)
(0.0541207 0.00605597 3.08783e-21)
(0.0540565 0.0067524 6.11548e-21)
(0.0539721 0.00746425 0)
(0.0538666 0.00819229 -1.237e-20)
(0.0537393 0.00893723 1.24464e-20)
(0.0535895 0.00969965 -1.24638e-20)
(0.0534162 0.0104803 -1.31488e-22)
(0.0532188 0.0112799 0)
(0.0529964 0.0120992 -6.30498e-21)
(0.0527479 0.0129385 6.18807e-21)
(0.0524716 0.0137986 6.56095e-21)
(0.0521658 0.0146805 1.24763e-20)
(0.0518297 0.0155854 -1.9375e-20)
(0.0514592 0.0165128 1.28162e-20)
(0.0510591 0.0174684 -6.40887e-21)
(0.0506055 0.0184384 6.69433e-21)
(0.0501758 0.0194685 1.93036e-20)
(0.0422774 -0.0129952 5.04673e-21)
(0.0426173 -0.0129407 2.30608e-22)
(0.0429538 -0.0128751 -5.26954e-21)
(0.0432913 -0.0128004 0)
(0.0436299 -0.0127152 1.40237e-21)
(0.0439693 -0.0126185 0)
(0.0443102 -0.0125101 -3.11052e-21)
(0.0446532 -0.0123901 -1.1319e-22)
(0.0449985 -0.0122584 4.84622e-21)
(0.0453459 -0.012115 -1.70623e-21)
(0.0456947 -0.0119596 -1.68438e-21)
(0.0460443 -0.0117922 -1.80286e-21)
(0.0463939 -0.0116125 0)
(0.0467427 -0.0114203 0)
(0.0470902 -0.0112156 1.87015e-21)
(0.0474358 -0.0109981 1.91656e-21)
(0.0477789 -0.0107677 -4.05418e-21)
(0.0481191 -0.0105243 4.04436e-21)
(0.0484559 -0.0102679 4.1952e-21)
(0.0487889 -0.00999837 -4.33656e-21)
(0.0491178 -0.00971565 8.67719e-21)
(0.0494419 -0.0094197 1.19643e-23)
(0.0497609 -0.00911053 -4.61259e-21)
(0.0500742 -0.00878813 -2.38187e-21)
(0.0503813 -0.0084525 -4.81532e-21)
(0.0506818 -0.00810369 4.82035e-21)
(0.050975 -0.00774176 5.01252e-21)
(0.0512606 -0.00736676 -5.02279e-21)
(0.0515379 -0.00697878 0)
(0.0518066 -0.00657792 0)
(0.0520662 -0.00616429 6.7267e-21)
(0.0523163 -0.00573806 9.13028e-23)
(0.0525563 -0.00529936 -2.77927e-21)
(0.0527859 -0.0048483 -2.87744e-21)
(0.0530046 -0.00438497 2.895e-21)
(0.0532121 -0.00390952 0)
(0.053408 -0.00342209 -1.49377e-21)
(0.0535921 -0.00292282 -2.34925e-21)
(0.0537639 -0.00241185 1.57417e-21)
(0.0539235 -0.00188926 -1.33727e-23)
(0.0540699 -0.00135395 -1.26809e-22)
(0.0542029 -0.000806199 5.97579e-22)
(0.0543222 -0.000245931 4.09949e-22)
(0.0544275 0.000326883 8.10572e-22)
(0.0545184 0.000912365 -4.00886e-21)
(0.0545945 0.00151069 1.59678e-23)
(0.0546552 0.00212204 0)
(0.0547001 0.00274661 -3.27204e-21)
(0.0547288 0.00338468 9.67708e-21)
(0.0547408 0.00403655 -6.47201e-21)
(0.0547357 0.00470249 -3.23389e-21)
(0.054713 0.00538274 -6.67198e-23)
(0.0546721 0.0060776 -3.19915e-21)
(0.0546124 0.00678746 -6.31795e-23)
(0.0545331 0.0075128 6.41089e-21)
(0.0544334 0.00825426 -6.54979e-21)
(0.0543126 0.00901254 -6.48751e-21)
(0.0541701 0.00978834 1.29301e-20)
(0.0540048 0.0105824 -6.63328e-23)
(0.0538161 0.0113955 6.52585e-21)
(0.0536029 0.0122284 -6.47554e-21)
(0.0533641 0.0130818 6.42819e-21)
(0.0530982 0.0139565 -1.29033e-20)
(0.0528036 0.0148534 -6.62459e-21)
(0.0524791 0.0157739 1.29416e-20)
(0.0521207 0.0167172 -6.93334e-21)
(0.0517334 0.0176897 -2.0394e-20)
(0.0512919 0.0186766 -6.5642e-21)
(0.0508793 0.0197237 0)
(0.0423177 -0.0135824 0)
(0.0426805 -0.0135268 1.39139e-21)
(0.0430412 -0.0134597 -6.08347e-23)
(0.0434032 -0.013383 0)
(0.0437655 -0.0132953 0)
(0.0441269 -0.0131955 1.59982e-21)
(0.0444876 -0.0130831 -4.94079e-21)
(0.0448481 -0.0129584 6.65981e-21)
(0.0452088 -0.0128212 -3.29778e-21)
(0.04557 -0.0126714 1.7296e-21)
(0.0459317 -0.012509 0)
(0.0462938 -0.0123337 1.82717e-21)
(0.0466557 -0.0121454 -1.95573e-21)
(0.0470172 -0.0119441 0)
(0.0473776 -0.0117297 0)
(0.0477362 -0.0115019 2.0715e-21)
(0.0480926 -0.0112608 1.09677e-22)
(0.0484459 -0.0110063 -4.26289e-21)
(0.0487957 -0.0107383 -4.37911e-21)
(0.0491415 -0.0104568 4.46016e-21)
(0.0494825 -0.0101616 2.26196e-21)
(0.0498184 -0.00985292 9.47514e-21)
(0.0501486 -0.00953062 5.52528e-23)
(0.0504727 -0.00919475 -2.549e-21)
(0.0507902 -0.00884535 4.9593e-21)
(0.0511005 -0.00848249 -2.55119e-21)
(0.0514032 -0.00810626 5.16384e-21)
(0.0516978 -0.00771675 0)
(0.0519839 -0.00731407 0)
(0.0522609 -0.00689836 0)
(0.0525284 -0.00646977 -1.38354e-21)
(0.052786 -0.00602846 -2.84075e-21)
(0.0530332 -0.00557461 2.90594e-21)
(0.0532696 -0.00510836 3.0056e-21)
(0.0534948 -0.00462986 -3.02297e-21)
(0.0537085 -0.00413927 0)
(0.0539103 -0.00363673 1.59334e-21)
(0.0541 -0.00312242 -8.11131e-22)
(0.0542772 -0.00259645 0)
(0.0544417 -0.00205879 8.38482e-22)
(0.0545928 -0.00150849 -1.568e-22)
(0.0547304 -0.000945814 1.04066e-22)
(0.0548541 -0.000370703 -4.11785e-22)
(0.0549635 0.000216883 0)
(0.0550584 0.000817027 -1.68072e-21)
(0.0551385 0.00142984 1.66234e-21)
(0.0552032 0.00205546 0)
(0.0552522 0.00269408 -6.76115e-23)
(0.055285 0.00334592 3.37412e-23)
(0.0553014 0.00401128 3.28671e-21)
(0.0553009 0.00469047 0)
(0.055283 0.00538382 -1.02672e-22)
(0.0552472 0.00609174 -3.28639e-21)
(0.055193 0.00681468 -1.00975e-20)
(0.0551197 0.00755317 -1.38037e-22)
(0.0550266 0.00830784 6.58405e-21)
(0.054913 0.0090794 0)
(0.0547782 0.00986855 0)
(0.0546213 0.0106761 6.82305e-21)
(0.0544414 0.0115027 0)
(0.0542376 0.0123494 0)
(0.0540087 0.0132168 -7.22328e-23)
(0.0537533 0.0141059 -6.76335e-21)
(0.0534697 0.0150176 -1.38259e-20)
(0.0531568 0.0159534 1.38182e-20)
(0.0528104 0.0169126 -4.7031e-22)
(0.0524354 0.0179019 6.677e-21)
(0.0520049 0.0189045 6.97056e-21)
(0.0516071 0.0199751 0)
(0.042354 -0.0142023 0)
(0.042735 -0.0141448 -1.41323e-21)
(0.0431157 -0.0140755 4.52462e-21)
(0.0434996 -0.0139962 -1.44895e-21)
(0.0438853 -0.0139056 0)
(0.0442708 -0.0138022 -5.00189e-21)
(0.0446554 -0.0136858 8.51547e-21)
(0.0450391 -0.0135563 1.25789e-22)
(0.0454216 -0.0134137 -9.037e-21)
(0.0458029 -0.0132578 1.76187e-21)
(0.046183 -0.0130885 -1.96312e-21)
(0.0465619 -0.0129055 -2.01577e-21)
(0.0469395 -0.0127089 6.0852e-21)
(0.0473156 -0.0124984 -8.29312e-21)
(0.0476899 -0.012274 4.18983e-21)
(0.0480621 -0.0120357 -2.27667e-21)
(0.0484317 -0.0117835 8.90335e-21)
(0.0487982 -0.0115172 -2.16968e-21)
(0.049161 -0.0112369 2.42828e-21)
(0.0495195 -0.0109426 -2.31945e-21)
(0.0498731 -0.0106342 1.07986e-22)
(0.0502213 -0.0103119 -1.48768e-20)
(0.0505634 -0.0099755 -2.58556e-21)
(0.050899 -0.00962522 -1.02669e-22)
(0.0512275 -0.0092611 7.89854e-21)
(0.0515483 -0.00888324 -2.63304e-21)
(0.051861 -0.00849174 5.51828e-21)
(0.0521651 -0.00808675 -8.37048e-21)
(0.0524602 -0.00766841 0)
(0.0527456 -0.00723688 -2.91704e-21)
(0.0530212 -0.00679235 2.92618e-21)
(0.0532863 -0.00633501 5.5452e-23)
(0.0535406 -0.00586506 -1.55972e-21)
(0.0537837 -0.00538268 -1.58891e-21)
(0.0540152 -0.00488809 4.8181e-21)
(0.0542348 -0.00438145 -3.21879e-21)
(0.0544422 -0.00386297 2.5019e-21)
(0.0546371 -0.00333282 -3.36727e-21)
(0.0548193 -0.00279118 1.70739e-21)
(0.0549885 -0.00223784 -4.27741e-22)
(0.0551441 -0.00167208 0)
(0.0552858 -0.00109411 4.3661e-22)
(0.0554135 -0.000503906 -4.31684e-22)
(0.0555269 9.85526e-05 -8.71944e-22)
(0.0556257 0.000713344 2.60506e-21)
(0.0557097 0.00134057 -1.74352e-21)
(0.0557783 0.00198039 -1.72296e-21)
(0.0558314 0.00263299 0)
(0.0558685 0.00329864 -6.99193e-21)
(0.0558893 0.00397763 6.91648e-21)
(0.0558935 0.00467033 -3.40234e-21)
(0.0558806 0.00537711 3.37135e-21)
(0.0558501 0.00609841 3.47767e-21)
(0.0558015 0.00683471 6.84715e-21)
(0.0557342 0.00758656 6.81611e-21)
(0.0556477 0.00835458 0)
(0.0555411 0.00913947 -7.04326e-21)
(0.0554138 0.00994195 0)
(0.0552649 0.0107628 1.43058e-22)
(0.0550936 0.0116028 -6.86591e-21)
(0.0548989 0.0124629 6.95875e-21)
(0.0546795 0.013344 6.91335e-21)
(0.0544343 0.0142471 -7.16825e-21)
(0.0541614 0.015173 -1.58529e-22)
(0.0538599 0.0161235 6.97966e-23)
(0.0535254 0.0170981 2.14098e-20)
(0.0531627 0.0181034 7.35366e-21)
(0.0527451 0.0191248 7.34487e-21)
(0.0523622 0.020215 -7.2811e-21)
(0.0423971 -0.0148592 0)
(0.0427945 -0.0147991 0)
(0.0431921 -0.0147267 3.25094e-21)
(0.0435942 -0.014644 -4.83744e-21)
(0.0439994 -0.0145496 -1.7456e-21)
(0.0444061 -0.0144419 0)
(0.0448131 -0.0143207 0)
(0.0452199 -0.0141859 1.91436e-21)
(0.045626 -0.0140374 -3.91299e-21)
(0.0460308 -0.013875 -2.19976e-22)
(0.0464337 -0.0136984 1.01161e-20)
(0.0468344 -0.0135076 -2.06568e-21)
(0.0472325 -0.0133023 2.15172e-21)
(0.0476278 -0.0130825 -4.32216e-21)
(0.0480201 -0.0128481 2.29741e-21)
(0.0484091 -0.012599 0)
(0.0487946 -0.0123353 0)
(0.0491761 -0.0120569 5.30268e-23)
(0.0495532 -0.0117638 -7.36196e-21)
(0.0499254 -0.0114561 2.45663e-21)
(0.0502923 -0.0111338 -2.61561e-21)
(0.0506532 -0.0107969 2.5592e-21)
(0.0510077 -0.0104457 2.65859e-21)
(0.0513551 -0.0100801 -2.60301e-21)
(0.051695 -0.00970029 -2.71372e-21)
(0.0520268 -0.00930644 0)
(0.0523499 -0.00889868 0)
(0.0526639 -0.0084772 4.36363e-21)
(0.0529682 -0.00804218 0)
(0.0532625 -0.00759384 3.05687e-21)
(0.0535463 -0.00713239 -3.06563e-21)
(0.0538191 -0.00665808 -1.54414e-21)
(0.0540806 -0.00617113 1.57249e-21)
(0.0543304 -0.00567178 3.26282e-21)
(0.0545682 -0.00516028 -1.6311e-21)
(0.0547936 -0.00463685 -1.70095e-21)
(0.0550064 -0.00410172 1.74241e-21)
(0.0552064 -0.00355511 0)
(0.0553933 -0.00299721 0)
(0.0555668 -0.00242763 4.59181e-22)
(0.0557265 -0.00184589 0)
(0.0558722 -0.00125214 0)
(0.0560037 -0.000646416 -1.36248e-21)
(0.0561207 -2.86749e-05 1.80935e-21)
(0.0562232 0.000601154 -9.13652e-22)
(0.0563107 0.00124318 1.768e-21)
(0.0563831 0.00189755 0)
(0.05644 0.00256448 5.42627e-21)
(0.0564811 0.00324423 -3.71563e-23)
(0.056506 0.00393712 0)
(0.0565146 0.00464351 -7.16471e-21)
(0.0565063 0.0053638 -3.93224e-23)
(0.0564808 0.00609846 -7.08912e-21)
(0.0564375 0.006848 -3.63702e-21)
(0.056376 0.00761299 -7.20107e-21)
(0.0562955 0.00839406 7.13556e-21)
(0.0561955 0.00919192 7.07256e-21)
(0.0560753 0.0100073 0)
(0.055934 0.0108411 -7.24602e-21)
(0.0557707 0.011694 7.01732e-23)
(0.0555846 0.012567 0)
(0.0553743 0.0134611 0)
(0.0551388 0.0143774 7.19244e-21)
(0.0548764 0.0153169 0)
(0.0545862 0.0162813 0)
(0.0542639 0.0172706 -7.38802e-21)
(0.0539149 0.0182907 -7.18805e-21)
(0.053512 0.0193323 -7.69743e-21)
(0.0531364 0.0204252 0)
(0.0424492 -0.0155565 0)
(0.0428643 -0.0154935 0)
(0.0432792 -0.0154175 0)
(0.0436986 -0.0153308 -1.7979e-21)
(0.0441217 -0.0152317 -1.92525e-21)
(0.0445468 -0.0151188 -1.42898e-22)
(0.0449731 -0.0149918 3.78578e-21)
(0.0454004 -0.0148508 -1.94121e-21)
(0.0458279 -0.0146954 2.09317e-21)
(0.0462549 -0.0145256 4.20321e-21)
(0.0466806 -0.0143411 0)
(0.0471043 -0.0141416 0)
(0.0475252 -0.0139271 -6.00346e-23)
(0.0479427 -0.0136973 6.95387e-21)
(0.0483565 -0.0134523 -9.57372e-21)
(0.0487661 -0.013192 -1.2686e-22)
(0.0491711 -0.0129162 4.90635e-21)
(0.049571 -0.0126252 2.48518e-21)
(0.0499655 -0.0123188 -1.14196e-22)
(0.0503541 -0.0119971 0)
(0.0507364 -0.0116603 5.40398e-21)
(0.0511119 -0.0113083 0)
(0.0514801 -0.0109414 5.61646e-21)
(0.0518406 -0.0105598 -8.57181e-21)
(0.0521927 -0.0101635 8.74384e-21)
(0.0525361 -0.00975275 3.02881e-21)
(0.0528702 -0.00932781 -4.58486e-21)
(0.0531945 -0.00888889 4.63698e-21)
(0.0535086 -0.00843624 -3.10161e-21)
(0.053812 -0.00797011 0)
(0.0541042 -0.00749078 -3.25967e-21)
(0.0543849 -0.00699853 -1.72507e-21)
(0.0546537 -0.00649365 3.32774e-21)
(0.0549102 -0.00597643 -3.41148e-21)
(0.0551542 -0.00544715 1.74481e-21)
(0.0553853 -0.00490609 -1.75437e-21)
(0.0556034 -0.0043535 -8.82741e-22)
(0.0558081 -0.00378965 9.31415e-22)
(0.0559995 -0.00321478 4.62156e-22)
(0.0561772 -0.00262823 -1.3915e-21)
(0.0563407 -0.00202987 -1.1897e-22)
(0.0564899 -0.00141978 0)
(0.0566248 -0.00079802 4.59084e-22)
(0.0567451 -0.000164557 -9.17362e-22)
(0.0568508 0.000480679 9.16584e-22)
(0.0569415 0.00113779 0)
(0.0570171 0.00180695 0)
(0.0570773 0.00248835 1.90331e-21)
(0.0571219 0.00318228 -3.69421e-21)
(0.0571505 0.00388906 -7.49499e-21)
(0.0571629 0.00460909 1.48318e-20)
(0.0571588 0.00534279 -3.76158e-21)
(0.0571377 0.00609065 3.68784e-21)
(0.0570992 0.00685322 3.65088e-21)
(0.0570428 0.00763108 -7.45274e-21)
(0.0569678 0.00842489 7.38471e-21)
(0.0568738 0.00923535 0)
(0.0567599 0.0100632 -7.55906e-21)
(0.0566255 0.0109094 7.54329e-23)
(0.0564697 0.0117747 7.43628e-21)
(0.0562915 0.01266 0)
(0.0560899 0.0135665 0)
(0.0558639 0.0144952 0)
(0.0556117 0.0154473 1.5383e-20)
(0.055333 0.0164248 7.88302e-21)
(0.0550232 0.0174271 7.69592e-21)
(0.0546903 0.0184622 -1.53486e-20)
(0.0543018 0.019517 -2.64725e-22)
(0.0539629 0.0206423 8.03871e-21)
(0.0425079 -0.0162969 0)
(0.0429431 -0.016231 -3.56273e-21)
(0.0433775 -0.0161513 4.46026e-21)
(0.0438161 -0.0160601 -2.94823e-21)
(0.0442581 -0.0159559 5.76549e-21)
(0.044702 -0.0158372 2.04434e-21)
(0.0451471 -0.0157038 2.10608e-21)
(0.0455934 -0.0155555 0)
(0.0460403 -0.0153923 -4.34938e-21)
(0.0464874 -0.0152141 -4.42488e-21)
(0.0469337 -0.0150205 4.50602e-21)
(0.0473785 -0.0148113 -2.40626e-21)
(0.0478211 -0.0145865 2.52728e-21)
(0.0482606 -0.0143458 -2.26945e-21)
(0.0486963 -0.0140892 -1.01881e-20)
(0.0491277 -0.0138166 -1.32603e-22)
(0.0495539 -0.013528 -1.3031e-22)
(0.0499745 -0.0132235 5.3055e-21)
(0.0503889 -0.0129029 2.68122e-21)
(0.0507965 -0.0125665 5.65048e-21)
(0.0511968 -0.0122143 -5.51068e-21)
(0.0515894 -0.0118465 0)
(0.0519737 -0.0114631 1.29265e-22)
(0.0523492 -0.0110645 0)
(0.0527155 -0.0106509 -3.00314e-21)
(0.0530721 -0.0102224 -3.05665e-21)
(0.0534184 -0.00977933 1.55516e-21)
(0.0537542 -0.00932202 0)
(0.0540788 -0.00885076 1.67624e-21)
(0.0543919 -0.00836586 3.36124e-21)
(0.0546932 -0.00786766 -3.36911e-21)
(0.0549821 -0.0073565 1.6924e-21)
(0.0552585 -0.00683272 -3.52878e-21)
(0.0555219 -0.00629668 7.08617e-21)
(0.0557721 -0.0057487 -1.80152e-21)
(0.0560089 -0.00518912 0)
(0.0562321 -0.00461825 -9.55003e-22)
(0.0564415 -0.00403639 3.43583e-23)
(0.056637 -0.00344384 1.45187e-21)
(0.0568184 -0.00283959 -1.21015e-21)
(0.0569853 -0.00222398 2.37084e-22)
(0.0571376 -0.00159701 -7.32994e-22)
(0.0572754 -0.000958745 4.81338e-22)
(0.0573984 -0.000309167 0)
(0.0575067 0.000351787 0)
(0.0576 0.00102423 0)
(0.0576782 0.00170831 1.95672e-21)
(0.057741 0.00240427 1.95423e-21)
(0.0577884 0.0031124 0)
(0.05782 0.00383304 3.82434e-21)
(0.0578356 0.00456661 3.93711e-21)
(0.0578349 0.00531355 3.89483e-21)
(0.0578175 0.00607439 0)
(0.057783 0.00684968 0)
(0.0577309 0.00764004 -7.70914e-21)
(0.0576608 0.00844614 7.63865e-21)
(0.057572 0.0092687 0)
(0.0574639 0.0101085 7.58397e-21)
(0.0573358 0.0109664 -7.5996e-21)
(0.057187 0.0118433 -7.85492e-21)
(0.0570165 0.0127402 7.8067e-21)
(0.0568235 0.0136582 -7.7425e-21)
(0.0566071 0.0145986 0)
(0.0563657 0.0155625 -7.74695e-21)
(0.0560991 0.016552 1.81498e-22)
(0.0558024 0.0175664 -1.60185e-20)
(0.0554859 0.0186155 -1.62807e-20)
(0.05511 0.019679 1.60403e-20)
(0.0548179 0.0208225 -8.04482e-21)
(0.0425707 -0.0170833 -9.20606e-22)
(0.0430282 -0.0170144 0)
(0.0434844 -0.0169308 -9.39966e-22)
(0.0439447 -0.0168351 5.0414e-21)
(0.044408 -0.0167255 -9.18733e-21)
(0.0448728 -0.0166007 2.09498e-21)
(0.0453385 -0.0164602 -2.13468e-21)
(0.045805 -0.0163042 4.57794e-21)
(0.0462719 -0.0161324 -2.28979e-21)
(0.0467387 -0.0159448 -2.31772e-21)
(0.0472049 -0.0157411 -2.49911e-21)
(0.0476697 -0.0155212 7.50045e-21)
(0.0481324 -0.0152849 -2.41463e-21)
(0.0485922 -0.0150321 7.97931e-21)
(0.0490485 -0.0147626 2.75199e-21)
(0.0495005 -0.0144766 1.38581e-22)
(0.0499474 -0.0141739 -5.50541e-21)
(0.0503885 -0.0138546 0)
(0.050823 -0.0135187 0)
(0.0512504 -0.0131664 -3.02823e-21)
(0.0516698 -0.0127977 -2.94604e-21)
(0.0520807 -0.0124127 -6.19332e-21)
(0.0524826 -0.0120118 3.12784e-21)
(0.0528748 -0.0115952 6.40918e-21)
(0.0532568 -0.011163 -6.40387e-21)
(0.0536281 -0.0107157 1.67992e-21)
(0.0539883 -0.0102534 1.70723e-21)
(0.0543367 -0.00977662 0)
(0.0546731 -0.00928566 -1.68986e-21)
(0.0549971 -0.00878092 -3.52746e-21)
(0.0553081 -0.00826278 -4.75037e-23)
(0.055606 -0.00773166 3.59161e-21)
(0.0558904 -0.00718797 -1.87391e-21)
(0.0561611 -0.00663212 0)
(0.0564178 -0.00606451 9.66226e-22)
(0.0566603 -0.00548552 -9.8137e-22)
(0.0568886 -0.00489553 9.60599e-22)
(0.0571024 -0.00429487 -1.98962e-21)
(0.0573019 -0.00368377 0)
(0.0574866 -0.00306121 -2.56432e-22)
(0.0576564 -0.00242776 2.51568e-22)
(0.0578113 -0.00178343 -3.85178e-22)
(0.0579514 -0.00112827 1.50582e-21)
(0.0580765 -0.000462275 -3.00683e-21)
(0.0581867 0.000214604 1.98962e-21)
(0.0582819 0.000902485 2.00436e-21)
(0.0583619 0.00160154 -1.92e-21)
(0.0584267 0.00231202 4.06092e-21)
(0.0584761 0.00303423 -3.95793e-21)
(0.0585099 0.00376854 -9.91783e-21)
(0.058528 0.0045154 4.18535e-23)
(0.05853 0.00527527 -3.90648e-21)
(0.0585156 0.0060487 0)
(0.0584845 0.00683628 0)
(0.0584363 0.00763864 -7.97056e-21)
(0.0583705 0.00845649 1.18454e-20)
(0.0582866 0.00929055 -7.90542e-21)
(0.0581841 0.0101416 0)
(0.0580622 0.0110106 8.09721e-21)
(0.0579204 0.0118985 1.59206e-20)
(0.057758 0.0128063 -7.90063e-21)
(0.0575742 0.013735 -1.01061e-22)
(0.0573681 0.0146862 8.03822e-21)
(0.0571385 0.0156611 -6.81818e-23)
(0.0568852 0.0166619 -1.63748e-20)
(0.0566036 0.0176881 1.63026e-20)
(0.0563028 0.0187497 8.18562e-21)
(0.0559404 0.019823 0)
(0.0556799 0.0209955 0)
(0.042635 -0.0179183 9.33581e-22)
(0.0431171 -0.0178464 5.09721e-21)
(0.0435974 -0.017759 -4.0368e-21)
(0.0440816 -0.0176586 0)
(0.0445686 -0.0175435 -1.07228e-21)
(0.0450568 -0.0174122 -4.62009e-21)
(0.0455456 -0.0172643 3.38521e-21)
(0.0460346 -0.0171 -6.11665e-21)
(0.0465237 -0.0169191 4.84905e-21)
(0.0470122 -0.0167215 0)
(0.0474996 -0.0165069 1.19802e-21)
(0.0479852 -0.0162753 0)
(0.0484684 -0.0160265 2.85903e-21)
(0.0489485 -0.0157603 -8.19508e-21)
(0.0494248 -0.0154769 0)
(0.0498966 -0.015176 0)
(0.0503631 -0.0148579 0)
(0.0508236 -0.0145224 -4.55378e-21)
(0.0512774 -0.0141698 6.0787e-21)
(0.0517236 -0.0138 3.05985e-21)
(0.0521616 -0.0134133 0)
(0.0525906 -0.0130099 0)
(0.0530099 -0.01259 0)
(0.0534188 -0.0121539 -8.48238e-21)
(0.0538168 -0.0117018 1.01943e-20)
(0.0542033 -0.0112342 -5.12893e-21)
(0.0545777 -0.0107514 -3.521e-21)
(0.0549395 -0.0102538 3.59722e-21)
(0.0552882 -0.0097418 -3.60002e-21)
(0.0556235 -0.00921594 1.88105e-21)
(0.0559449 -0.00867665 -3.75896e-21)
(0.0562521 -0.00812439 1.83144e-21)
(0.0565449 -0.00755966 3.85096e-21)
(0.056823 -0.00698292 1.99281e-21)
(0.0570863 -0.00639466 -9.72237e-22)
(0.0573345 -0.00579533 9.87184e-22)
(0.0575677 -0.00518534 0)
(0.0577858 -0.00456512 -3.84811e-23)
(0.0579888 -0.00393459 5.25668e-22)
(0.0581765 -0.00329318 2.68118e-24)