/*--------------------------------*- C++ -*----------------------------------*\
| =========                 |                                                 |
| \\      /  F ield         | OpenFOAM: The Open Source CFD Toolbox           |
|  \\    /   O peration     | Version:  2312                                  |
|   \\  /    A nd           | Website:  www.openfoam.com                      |
|    \\/     M anipulation  |                                                 |
\*---------------------------------------------------------------------------*/
FoamFile
{
    version     2.0;
    format      ascii;
    arch        "LSB;label=32;scalar=64";
    class       volScalarField;
    location    "1700";
    object      nut;
}
// * * * * * * * * * * * * * * * * * * * * * * * * * * * * * * * * * * * * * //

dimensions      [0 2 -1 0 0 0 0];

internalField   nonuniform List<scalar> 
76025
(
6.38393e-06
6.38876e-06
6.3914e-06
6.39417e-06
6.40005e-06
6.40608e-06
6.41557e-06
6.4252e-06
6.43359e-06
6.44157e-06
6.45011e-06
6.45858e-06
6.46604e-06
6.47164e-06
6.4755e-06
6.48032e-06
6.48427e-06
6.48853e-06
6.49122e-06
6.49297e-06
6.49024e-06
6.48608e-06
6.48593e-06
6.48937e-06
6.49499e-06
6.50191e-06
6.51175e-06
6.52114e-06
6.5321e-06
6.54479e-06
6.55909e-06
6.5706e-06
6.58234e-06
6.5902e-06
6.59571e-06
6.5966e-06
6.59515e-06
6.59194e-06
6.58524e-06
6.57502e-06
6.56228e-06
6.54768e-06
6.53062e-06
6.5138e-06
6.49235e-06
6.47276e-06
6.46089e-06
6.45003e-06
6.43959e-06
6.42874e-06
6.41711e-06
6.4042e-06
6.38978e-06
6.37437e-06
6.35766e-06
6.33695e-06
6.31087e-06
6.27585e-06
6.22828e-06
6.16405e-06
6.08328e-06
5.97623e-06
5.83731e-06
5.65519e-06
5.41759e-06
5.13793e-06
4.99819e-06
5.73709e-06
1.11276e-05
6.35588e-06
6.36949e-06
6.37997e-06
6.38741e-06
6.39382e-06
6.39817e-06
6.40348e-06
6.41009e-06
6.4175e-06
6.42493e-06
6.4325e-06
6.44028e-06
6.44824e-06
6.45609e-06
6.4623e-06
6.46807e-06
6.47278e-06
6.47721e-06
6.48104e-06
6.48466e-06
6.48698e-06
6.48762e-06
6.4874e-06
6.48705e-06
6.48275e-06
6.47812e-06
6.47425e-06
6.47087e-06
6.46787e-06
6.46502e-06
6.46227e-06
6.45994e-06
6.45799e-06
6.45624e-06
6.45475e-06
6.45332e-06
6.45572e-06
6.45918e-06
6.46309e-06
6.46674e-06
6.46957e-06
6.47119e-06
6.47112e-06
6.46901e-06
6.4645e-06
6.45759e-06
6.44828e-06
6.43684e-06
6.42368e-06
6.40938e-06
6.3945e-06
6.3794e-06
6.36387e-06
6.34693e-06
6.32665e-06
6.30073e-06
6.26622e-06
6.22016e-06
6.1595e-06
6.08133e-06
5.98132e-06
5.85392e-06
5.68993e-06
5.47646e-06
5.20483e-06
4.92229e-06
4.97728e-06
6.75303e-06
1.69174e-05
6.31175e-06
6.32451e-06
6.33942e-06
6.35386e-06
6.36674e-06
6.37749e-06
6.38621e-06
6.39379e-06
6.40096e-06
6.40801e-06
6.41497e-06
6.42193e-06
6.42893e-06
6.43608e-06
6.44312e-06
6.4498e-06
6.45594e-06
6.46151e-06
6.46653e-06
6.4711e-06
6.47527e-06
6.47885e-06
6.48175e-06
6.48408e-06
6.48542e-06
6.48584e-06
6.48567e-06
6.48523e-06
6.48479e-06
6.48457e-06
6.48449e-06
6.48436e-06
6.48421e-06
6.48401e-06
6.48374e-06
6.48329e-06
6.48261e-06
6.48146e-06
6.47956e-06
6.4766e-06
6.47228e-06
6.46634e-06
6.45865e-06
6.44917e-06
6.43807e-06
6.42567e-06
6.41244e-06
6.39889e-06
6.38546e-06
6.37236e-06
6.35937e-06
6.34574e-06
6.33011e-06
6.31057e-06
6.28484e-06
6.25044e-06
6.20492e-06
6.14589e-06
6.07084e-06
5.97663e-06
5.8586e-06
5.7092e-06
5.51698e-06
5.26865e-06
4.96808e-06
4.73206e-06
5.19782e-06
9.02479e-06
2.72357e-05
6.28553e-06
6.28868e-06
6.29498e-06
6.30382e-06
6.31432e-06
6.32833e-06
6.34244e-06
6.35536e-06
6.36686e-06
6.37713e-06
6.38642e-06
6.39492e-06
6.40283e-06
6.4103e-06
6.41751e-06
6.42446e-06
6.43111e-06
6.4374e-06
6.44325e-06
6.44865e-06
6.45362e-06
6.45819e-06
6.4623e-06
6.46595e-06
6.46918e-06
6.47192e-06
6.47414e-06
6.47584e-06
6.47712e-06
6.47796e-06
6.47828e-06
6.47806e-06
6.4773e-06
6.47592e-06
6.47385e-06
6.47097e-06
6.46715e-06
6.46228e-06
6.45624e-06
6.44897e-06
6.44048e-06
6.43086e-06
6.4203e-06
6.40908e-06
6.39756e-06
6.38608e-06
6.37492e-06
6.36415e-06
6.35356e-06
6.34254e-06
6.33004e-06
6.31462e-06
6.2945e-06
6.2677e-06
6.23223e-06
6.18617e-06
6.12764e-06
6.05466e-06
5.96463e-06
5.85366e-06
5.71548e-06
5.54038e-06
5.31528e-06
5.03069e-06
4.71882e-06
4.6242e-06
5.91285e-06
1.37811e-05
4.38561e-05
6.29702e-06
6.28929e-06
6.28371e-06
6.28093e-06
6.28097e-06
6.28429e-06
6.29028e-06
6.2994e-06
6.31118e-06
6.32364e-06
6.33577e-06
6.34718e-06
6.35776e-06
6.3675e-06
6.37648e-06
6.38479e-06
6.39252e-06
6.39971e-06
6.40637e-06
6.4125e-06
6.41812e-06
6.42322e-06
6.42781e-06
6.43188e-06
6.43543e-06
6.43847e-06
6.44096e-06
6.44287e-06
6.44418e-06
6.44481e-06
6.44461e-06
6.44359e-06
6.44171e-06
6.43893e-06
6.43522e-06
6.43056e-06
6.42492e-06
6.41837e-06
6.41097e-06
6.40287e-06
6.39427e-06
6.38539e-06
6.37648e-06
6.36774e-06
6.35931e-06
6.35115e-06
6.343e-06
6.33434e-06
6.32434e-06
6.31185e-06
6.29551e-06
6.27378e-06
6.24509e-06
6.20789e-06
6.1607e-06
6.10208e-06
6.03039e-06
5.94343e-06
5.83789e-06
5.70847e-06
5.54695e-06
5.34169e-06
5.08016e-06
4.76477e-06
4.48389e-06
4.71067e-06
7.67176e-06
2.31545e-05
6.64152e-05
6.31231e-06
6.30934e-06
6.30412e-06
6.29779e-06
6.29101e-06
6.28406e-06
6.27843e-06
6.27539e-06
6.2757e-06
6.27978e-06
6.28674e-06
6.29531e-06
6.30459e-06
6.31402e-06
6.32327e-06
6.33215e-06
6.34054e-06
6.3484e-06
6.35569e-06
6.3624e-06
6.36852e-06
6.37404e-06
6.37896e-06
6.38326e-06
6.38694e-06
6.38998e-06
6.39239e-06
6.39414e-06
6.39519e-06
6.39545e-06
6.39483e-06
6.39339e-06
6.39113e-06
6.3881e-06
6.38435e-06
6.37994e-06
6.37499e-06
6.36962e-06
6.36399e-06
6.35825e-06
6.35254e-06
6.34693e-06
6.34143e-06
6.3359e-06
6.33007e-06
6.32343e-06
6.31531e-06
6.30481e-06
6.29089e-06
6.27237e-06
6.24804e-06
6.2167e-06
6.1772e-06
6.12841e-06
6.06919e-06
5.99813e-06
5.91332e-06
5.81185e-06
5.68913e-06
5.53813e-06
5.34874e-06
5.10862e-06
4.81036e-06
4.4831e-06
4.31874e-06
5.21671e-06
1.16282e-05
3.93883e-05
9.2109e-05
6.29712e-06
6.30487e-06
6.30895e-06
6.30991e-06
6.30831e-06
6.30464e-06
6.29964e-06
6.29413e-06
6.28898e-06
6.28504e-06
6.2828e-06
6.28239e-06
6.28367e-06
6.28637e-06
6.29016e-06
6.29473e-06
6.29977e-06
6.30505e-06
6.31038e-06
6.31559e-06
6.32057e-06
6.32523e-06
6.3295e-06
6.33331e-06
6.33664e-06
6.33944e-06
6.34168e-06
6.34339e-06
6.34447e-06
6.34488e-06
6.34467e-06
6.34393e-06
6.34272e-06
6.34109e-06
6.33911e-06
6.33686e-06
6.33443e-06
6.33186e-06
6.3292e-06
6.32641e-06
6.32341e-06
6.31999e-06
6.31584e-06
6.31053e-06
6.30348e-06
6.294e-06
6.2813e-06
6.26451e-06
6.24273e-06
6.21505e-06
6.1806e-06
6.1385e-06
6.08788e-06
6.02777e-06
5.95693e-06
5.87359e-06
5.77512e-06
5.65744e-06
5.51438e-06
5.3372e-06
5.11468e-06
4.83671e-06
4.50975e-06
4.21516e-06
4.33292e-06
6.64313e-06
1.99808e-05
6.24538e-05
0.000117255
6.2397e-06
6.25787e-06
6.27275e-06
6.28444e-06
6.29306e-06
6.2988e-06
6.30194e-06
6.30289e-06
6.30213e-06
6.30021e-06
6.29771e-06
6.29513e-06
6.29286e-06
6.29114e-06
6.2901e-06
6.28978e-06
6.29013e-06
6.29107e-06
6.29248e-06
6.29426e-06
6.29628e-06
6.29844e-06
6.30062e-06
6.30276e-06
6.30477e-06
6.3066e-06
6.30819e-06
6.30954e-06
6.31058e-06
6.31131e-06
6.31179e-06
6.31207e-06
6.31215e-06
6.31205e-06
6.31174e-06
6.3112e-06
6.31038e-06
6.30915e-06
6.30736e-06
6.30477e-06
6.30109e-06
6.29593e-06
6.28883e-06
6.27926e-06
6.26663e-06
6.25031e-06
6.22966e-06
6.20401e-06
6.17269e-06
6.13505e-06
6.0904e-06
6.03799e-06
5.97694e-06
5.90606e-06
5.82368e-06
5.72732e-06
5.61323e-06
5.4759e-06
5.30764e-06
5.09858e-06
4.83848e-06
4.52515e-06
4.19446e-06
4.02378e-06
4.75521e-06
1.01319e-05
3.55485e-05
8.91085e-05
0.000138659
6.16881e-06
6.18824e-06
6.20673e-06
6.22399e-06
6.23966e-06
6.25341e-06
6.26503e-06
6.27447e-06
6.28178e-06
6.28714e-06
6.29079e-06
6.29303e-06
6.29419e-06
6.29459e-06
6.2945e-06
6.29415e-06
6.29372e-06
6.29334e-06
6.29308e-06
6.29298e-06
6.29307e-06
6.29332e-06
6.29371e-06
6.2942e-06
6.29477e-06
6.29537e-06
6.29598e-06
6.29653e-06
6.297e-06
6.29735e-06
6.29755e-06
6.29759e-06
6.29739e-06
6.29686e-06
6.29589e-06
6.29431e-06
6.29194e-06
6.28854e-06
6.28383e-06
6.2775e-06
6.26918e-06
6.25848e-06
6.24497e-06
6.2282e-06
6.2077e-06
6.18299e-06
6.15357e-06
6.11891e-06
6.07847e-06
6.03163e-06
5.9777e-06
5.9158e-06
5.84474e-06
5.76288e-06
5.6678e-06
5.55597e-06
5.42233e-06
5.26004e-06
5.06045e-06
4.81419e-06
4.51604e-06
4.18222e-06
3.90476e-06
4.03932e-06
6.12769e-06
1.80961e-05
5.9025e-05
0.00011513
0.000154183
6.10761e-06
6.12144e-06
6.13559e-06
6.15085e-06
6.16675e-06
6.18261e-06
6.19785e-06
6.21207e-06
6.22499e-06
6.23645e-06
6.24639e-06
6.25481e-06
6.2618e-06
6.26748e-06
6.272e-06
6.27553e-06
6.27824e-06
6.28028e-06
6.2818e-06
6.28292e-06
6.28372e-06
6.28429e-06
6.28468e-06
6.28491e-06
6.28501e-06
6.28498e-06
6.28482e-06
6.28447e-06
6.28384e-06
6.28287e-06
6.2815e-06
6.27965e-06
6.27721e-06
6.27401e-06
6.26988e-06
6.26463e-06
6.25802e-06
6.2498e-06
6.23971e-06
6.22744e-06
6.2127e-06
6.19516e-06
6.17447e-06
6.15027e-06
6.12216e-06
6.08972e-06
6.05247e-06
6.0099e-06
5.96141e-06
5.90629e-06
5.84362e-06
5.77219e-06
5.69034e-06
5.59565e-06
5.48472e-06
5.35279e-06
5.19369e-06
4.99989e-06
4.76318e-06
4.4777e-06
4.15077e-06
3.83585e-06
3.72951e-06
4.55737e-06
9.81446e-06
3.41289e-05
8.71092e-05
0.000137185
0.000163458
6.06279e-06
6.06806e-06
6.0732e-06
6.07998e-06
6.08977e-06
6.10217e-06
6.11602e-06
6.13039e-06
6.14468e-06
6.15846e-06
6.17146e-06
6.1835e-06
6.19448e-06
6.20432e-06
6.21303e-06
6.22063e-06
6.22716e-06
6.2327e-06
6.23731e-06
6.24109e-06
6.2441e-06
6.24642e-06
6.24809e-06
6.24918e-06
6.24971e-06
6.2497e-06
6.24914e-06
6.248e-06
6.24609e-06
6.24341e-06
6.23988e-06
6.23543e-06
6.22991e-06
6.2232e-06
6.21512e-06
6.2055e-06
6.19415e-06
6.18087e-06
6.16543e-06
6.14759e-06
6.12708e-06
6.10362e-06
6.07687e-06
6.04647e-06
6.01201e-06
5.97302e-06
5.92898e-06
5.87925e-06
5.82311e-06
5.75958e-06
5.68741e-06
5.60487e-06
5.50951e-06
5.39799e-06
5.26577e-06
5.10719e-06
4.9157e-06
4.68446e-06
4.40798e-06
4.08952e-06
3.76331e-06
3.55501e-06
3.8704e-06
6.36814e-06
1.90064e-05
5.96666e-05
0.000115023
0.000153321
0.000168065
6.02699e-06
6.02767e-06
6.02745e-06
6.02763e-06
6.029e-06
6.03221e-06
6.03804e-06
6.04665e-06
6.05726e-06
6.06897e-06
6.0811e-06
6.09318e-06
6.1049e-06
6.11602e-06
6.12639e-06
6.13591e-06
6.14452e-06
6.15218e-06
6.15887e-06
6.1646e-06
6.16936e-06
6.17317e-06
6.17605e-06
6.178e-06
6.17902e-06
6.17913e-06
6.17828e-06
6.17636e-06
6.17331e-06
6.16911e-06
6.16371e-06
6.15702e-06
6.14893e-06
6.13934e-06
6.1281e-06
6.11507e-06
6.10009e-06
6.08298e-06
6.06351e-06
6.04144e-06
6.01649e-06
5.98833e-06
5.95659e-06
5.92086e-06
5.88066e-06
5.83545e-06
5.78457e-06
5.72724e-06
5.66245e-06
5.58887e-06
5.50467e-06
5.40736e-06
5.29357e-06
5.15897e-06
4.99835e-06
4.80599e-06
4.57636e-06
4.30518e-06
3.99378e-06
3.66626e-06
3.4125e-06
3.50389e-06
4.86422e-06
1.1725e-05
3.86534e-05
9.09383e-05
0.000139005
0.000163216
0.00017095
5.99102e-06
5.98994e-06
5.98732e-06
5.98442e-06
5.98168e-06
5.97944e-06
5.97814e-06
5.97841e-06
5.98092e-06
5.98587e-06
5.99279e-06
6.00101e-06
6.00995e-06
6.01914e-06
6.02824e-06
6.037e-06
6.04524e-06
6.05282e-06
6.05963e-06
6.06558e-06
6.07061e-06
6.07468e-06
6.07774e-06
6.07975e-06
6.08067e-06
6.08047e-06
6.07906e-06
6.07634e-06
6.07231e-06
6.06693e-06
6.06015e-06
6.05187e-06
6.04198e-06
6.03037e-06
6.01691e-06
6.00143e-06
5.98374e-06
5.96362e-06
5.94082e-06
5.91505e-06
5.88597e-06
5.85322e-06
5.81638e-06
5.77495e-06
5.72838e-06
5.67598e-06
5.61693e-06
5.55013e-06
5.47417e-06
5.38709e-06
5.2863e-06
5.16841e-06
5.02926e-06
4.86411e-06
4.6681e-06
4.43677e-06
4.16723e-06
3.861e-06
3.53589e-06
3.26299e-06
3.24944e-06
4.1283e-06
8.45799e-06
2.61572e-05
7.00016e-05
0.000122142
0.000156727
0.000167934
0.000172592
5.9472e-06
5.94558e-06
5.94217e-06
5.93822e-06
5.93404e-06
5.92972e-06
5.92542e-06
5.92138e-06
5.91803e-06
5.91597e-06
5.9158e-06
5.91769e-06
5.92127e-06
5.92604e-06
5.93151e-06
5.9373e-06
5.9431e-06
5.94865e-06
5.95375e-06
5.95827e-06
5.96206e-06
5.96502e-06
5.96706e-06
5.96809e-06
5.96805e-06
5.96682e-06
5.96431e-06
5.96044e-06
5.9552e-06
5.9485e-06
5.94026e-06
5.93035e-06
5.91864e-06
5.90497e-06
5.88914e-06
5.87097e-06
5.8502e-06
5.82658e-06
5.79982e-06
5.76957e-06
5.73548e-06
5.69711e-06
5.65395e-06
5.60543e-06
5.5508e-06
5.48917e-06
5.41936e-06
5.33979e-06
5.24838e-06
5.14239e-06
5.01845e-06
4.87261e-06
4.70068e-06
4.49865e-06
4.26319e-06
3.99236e-06
3.68888e-06
3.36893e-06
3.0913e-06
3.03322e-06
3.70166e-06
6.96694e-06
2.00233e-05
5.59364e-05
0.000106937
0.000148704
0.000167512
0.000169917
0.000172341
5.8889e-06
5.88727e-06
5.88403e-06
5.88008e-06
5.87568e-06
5.87089e-06
5.86575e-06
5.86032e-06
5.85468e-06
5.84907e-06
5.84382e-06
5.83943e-06
5.83652e-06
5.83538e-06
5.8358e-06
5.83732e-06
5.83949e-06
5.84191e-06
5.84429e-06
5.84638e-06
5.84797e-06
5.84891e-06
5.84905e-06
5.84825e-06
5.84644e-06
5.84343e-06
5.83907e-06
5.8333e-06
5.82606e-06
5.81725e-06
5.80672e-06
5.79429e-06
5.77978e-06
5.76298e-06
5.74368e-06
5.72162e-06
5.69654e-06
5.66815e-06
5.6361e-06
5.60002e-06
5.55945e-06
5.51386e-06
5.4626e-06
5.40487e-06
5.33966e-06
5.26564e-06
5.18107e-06
5.08369e-06
4.97067e-06
4.83869e-06
4.68419e-06
4.50363e-06
4.29388e-06
4.05265e-06
3.77912e-06
3.47663e-06
3.16333e-06
2.89485e-06
2.82964e-06
3.43418e-06
6.34635e-06
1.76672e-05
4.9247e-05
9.74377e-05
0.000141923
0.000167764
0.000172337
0.000171256
0.000170441
5.81288e-06
5.81051e-06
5.80754e-06
5.80398e-06
5.79985e-06
5.79518e-06
5.79e-06
5.78431e-06
5.77813e-06
5.77148e-06
5.76443e-06
5.75709e-06
5.74969e-06
5.7425e-06
5.73594e-06
5.7306e-06
5.72682e-06
5.72435e-06
5.72271e-06
5.7214e-06
5.72003e-06
5.71828e-06
5.71591e-06
5.71273e-06
5.70851e-06
5.703e-06
5.69605e-06
5.68761e-06
5.67755e-06
5.66569e-06
5.65183e-06
5.63578e-06
5.61732e-06
5.59622e-06
5.57225e-06
5.54512e-06
5.51453e-06
5.48012e-06
5.44147e-06
5.39809e-06
5.34937e-06
5.29459e-06
5.23284e-06
5.16294e-06
5.08338e-06
4.99221e-06
4.88704e-06
4.76504e-06
4.62319e-06
4.45849e-06
4.26819e-06
4.05004e-06
3.80241e-06
3.52582e-06
3.22549e-06
2.92124e-06
2.67436e-06
2.6417e-06
3.28083e-06
6.28697e-06
1.77283e-05
4.86736e-05
9.53056e-05
0.000139836
0.000169468
0.000178705
0.000173485
0.000170834
0.000167067
5.72315e-06
5.71956e-06
5.71559e-06
5.71126e-06
5.70651e-06
5.70131e-06
5.69563e-06
5.68945e-06
5.68273e-06
5.67546e-06
5.66762e-06
5.6592e-06
5.65021e-06
5.64068e-06
5.63068e-06
5.6203e-06
5.60973e-06
5.59918e-06
5.58913e-06
5.58023e-06
5.57262e-06
5.56586e-06
5.55929e-06
5.55241e-06
5.54458e-06
5.53535e-06
5.52467e-06
5.51245e-06
5.49853e-06
5.48268e-06
5.46464e-06
5.44417e-06
5.42102e-06
5.39491e-06
5.36552e-06
5.33246e-06
5.29534e-06
5.2537e-06
5.20697e-06
5.15447e-06
5.09533e-06
5.02849e-06
4.95256e-06
4.86582e-06
4.76616e-06
4.6512e-06
4.51841e-06
4.36533e-06
4.18976e-06
3.98974e-06
3.76363e-06
3.51058e-06
3.23194e-06
2.93717e-06
2.65113e-06
2.44026e-06
2.47989e-06
3.2753e-06
6.76234e-06
1.98003e-05
5.29666e-05
9.98874e-05
0.000143828
0.000174412
0.000186876
0.00018341
0.000175004
0.000169619
0.00016305
5.6148e-06
5.61037e-06
5.60541e-06
5.60001e-06
5.59417e-06
5.58789e-06
5.58113e-06
5.57386e-06
5.56606e-06
5.55769e-06
5.54872e-06
5.53911e-06
5.52883e-06
5.51784e-06
5.50612e-06
5.49363e-06
5.48036e-06
5.46629e-06
5.45144e-06
5.43584e-06
5.41951e-06
5.40251e-06
5.38507e-06
5.36761e-06
5.35037e-06
5.33372e-06
5.31734e-06
5.30035e-06
5.28195e-06
5.2616e-06
5.23887e-06
5.21342e-06
5.18487e-06
5.15282e-06
5.11682e-06
5.07643e-06
5.0311e-06
4.98021e-06
4.92291e-06
4.85816e-06
4.78464e-06
4.70074e-06
4.6046e-06
4.49422e-06
4.36761e-06
4.22288e-06
4.05839e-06
3.87273e-06
3.66447e-06
3.4323e-06
3.176e-06
2.8999e-06
2.61736e-06
2.36512e-06
2.21739e-06
2.37087e-06
3.45258e-06
7.88848e-06
2.38972e-05
6.10021e-05
0.00010913
0.000152525
0.000182838
0.000196764
0.000195625
0.000184862
0.00017565
0.00016837
0.000159396
5.48236e-06
5.47679e-06
5.47066e-06
5.46402e-06
5.45688e-06
5.44923e-06
5.44105e-06
5.43231e-06
5.42299e-06
5.41303e-06
5.40242e-06
5.3911e-06
5.37904e-06
5.36618e-06
5.35247e-06
5.33786e-06
5.32229e-06
5.3057e-06
5.28801e-06
5.26915e-06
5.24905e-06
5.22762e-06
5.20478e-06
5.18046e-06
5.15452e-06
5.12685e-06
5.09755e-06
5.06724e-06
5.03713e-06
5.00699e-06
4.97561e-06
4.94185e-06
4.90489e-06
4.8641e-06
4.81879e-06
4.76819e-06
4.71141e-06
4.64735e-06
4.57467e-06
4.49175e-06
4.39696e-06
4.28875e-06
4.16578e-06
4.02689e-06
3.87101e-06
3.69703e-06
3.50384e-06
3.29022e-06
3.05531e-06
2.80092e-06
2.53524e-06
2.28173e-06
2.08347e-06
2.042e-06
2.3852e-06
3.93276e-06
9.91422e-06
3.00311e-05
7.12481e-05
0.000120126
0.000162623
0.000192307
0.000207273
0.000208721
0.00019899
0.000184473
0.000176268
0.000168333
0.000157831
5.31688e-06
5.30978e-06
5.30209e-06
5.29385e-06
5.28506e-06
5.2757e-06
5.26573e-06
5.25512e-06
5.24384e-06
5.23185e-06
5.21909e-06
5.20552e-06
5.19108e-06
5.17572e-06
5.15937e-06
5.14196e-06
5.12341e-06
5.10364e-06
5.08254e-06
5.06002e-06
5.03596e-06
5.01024e-06
4.9827e-06
4.95325e-06
4.92169e-06
4.88783e-06
4.85147e-06
4.81236e-06
4.77028e-06
4.72498e-06
4.67664e-06
4.62646e-06
4.57476e-06
4.51993e-06
4.46004e-06
4.39332e-06
4.31817e-06
4.23305e-06
4.13651e-06
4.02745e-06
3.90569e-06
3.77093e-06
3.6225e-06
3.45936e-06
3.28003e-06
3.08292e-06
2.86779e-06
2.63614e-06
2.39354e-06
2.15598e-06
1.95373e-06
1.85221e-06
1.95755e-06
2.61565e-06
4.92996e-06
1.31684e-05
3.77497e-05
8.1532e-05
0.000129536
0.000170169
0.000199057
0.000215473
0.000220163
0.000213956
0.000199733
0.000185412
0.000178228
0.000170735
0.000159856
5.10385e-06
5.09491e-06
5.08533e-06
5.07512e-06
5.06428e-06
5.05278e-06
5.04058e-06
5.02765e-06
5.01392e-06
4.99935e-06
4.98389e-06
4.96747e-06
4.95002e-06
4.93147e-06
4.91173e-06
4.89072e-06
4.86834e-06
4.84447e-06
4.819e-06
4.79178e-06
4.76268e-06
4.73151e-06
4.69813e-06
4.66232e-06
4.62387e-06
4.58252e-06
4.538e-06
4.48999e-06
4.43814e-06
4.38206e-06
4.32132e-06
4.25542e-06
4.18376e-06
4.1056e-06
4.01992e-06
3.92574e-06
3.82207e-06
3.70776e-06
3.58315e-06
3.45047e-06
3.30997e-06
3.15836e-06
2.99268e-06
2.81138e-06
2.61442e-06
2.40399e-06
2.1875e-06
1.97759e-06
1.79422e-06
1.6855e-06
1.71785e-06
2.08525e-06
3.23615e-06
6.74433e-06
1.77996e-05
4.57772e-05
8.92698e-05
0.000134167
0.000171807
0.000199892
0.000218315
0.000226946
0.000225546
0.000214849
0.000199067
0.000187481
0.000182065
0.000176057
0.00016588
4.82098e-06
4.80989e-06
4.79804e-06
4.78546e-06
4.77213e-06
4.75801e-06
4.74306e-06
4.72722e-06
4.71043e-06
4.69264e-06
4.67376e-06
4.65372e-06
4.63244e-06
4.60981e-06
4.58574e-06
4.56011e-06
4.53278e-06
4.50363e-06
4.47248e-06
4.43917e-06
4.40349e-06
4.36531e-06
4.32442e-06
4.28055e-06
4.23343e-06
4.18271e-06
4.12803e-06
4.06897e-06
4.00509e-06
3.93584e-06
3.86061e-06
3.77859e-06
3.68886e-06
3.5904e-06
3.48189e-06
3.36257e-06
3.2333e-06
3.09455e-06
2.95259e-06
2.80498e-06
2.64754e-06
2.47785e-06
2.29701e-06
2.10914e-06
1.92153e-06
1.74417e-06
1.59919e-06
1.5162e-06
1.54018e-06
1.8059e-06
2.56616e-06
4.51443e-06
9.67293e-06
2.32816e-05
5.19431e-05
9.1818e-05
0.000131592
0.000165682
0.000193227
0.00021389
0.00022673
0.00023079
0.000225599
0.000212553
0.000196378
0.000190244
0.00018757
0.000183732
0.000175153
4.43525e-06
4.42158e-06
4.40704e-06
4.39163e-06
4.37532e-06
4.35806e-06
4.3398e-06
4.32047e-06
4.3e-06
4.27831e-06
4.25531e-06
4.23091e-06
4.20498e-06
4.17743e-06
4.1481e-06
4.11687e-06
4.08356e-06
4.04801e-06
4.01e-06
3.96933e-06
3.92579e-06
3.87915e-06
3.82907e-06
3.77524e-06
3.7173e-06
3.65485e-06
3.58743e-06
3.51451e-06
3.43545e-06
3.3495e-06
3.25574e-06
3.15299e-06
3.04062e-06
2.9189e-06
2.78861e-06
2.65035e-06
2.51453e-06
2.37364e-06
2.22634e-06
2.07204e-06
1.91331e-06
1.75603e-06
1.60515e-06
1.47536e-06
1.3808e-06
1.33516e-06
1.40068e-06
1.64898e-06
2.26126e-06
3.65241e-06
6.74405e-06
1.35163e-05
2.77939e-05
5.32877e-05
8.66686e-05
0.000120488
0.00015146
0.000178799
0.000201489
0.000218145
0.0002275
0.00022867
0.000221646
0.000208278
0.000193973
0.000193265
0.000193677
0.000192233
0.000185789
3.89675e-06
3.88005e-06
3.86233e-06
3.84359e-06
3.82379e-06
3.80286e-06
3.78075e-06
3.75738e-06
3.73264e-06
3.70645e-06
3.6787e-06
3.64927e-06
3.61804e-06
3.58484e-06
3.54954e-06
3.51195e-06
3.47188e-06
3.42912e-06
3.38342e-06
3.33462e-06
3.28249e-06
3.2267e-06
3.16685e-06
3.10251e-06
3.03319e-06
2.95831e-06
2.87724e-06
2.78927e-06
2.69367e-06
2.58973e-06
2.47705e-06
2.35724e-06
2.23176e-06
2.1093e-06
1.98687e-06
1.86256e-06
1.73595e-06
1.60979e-06
1.48616e-06
1.3721e-06
1.27638e-06
1.20809e-06
1.16657e-06
1.19478e-06
1.31509e-06
1.58785e-06
2.1495e-06
3.29023e-06
5.55956e-06
9.77603e-06
1.68194e-05
2.81618e-05
4.63402e-05
7.15782e-05
0.000100365
0.000129364
0.000156586
0.000180596
0.000200105
0.000213941
0.000221085
0.000220881
0.000213676
0.000201957
0.000193517
0.000195506
0.000198305
0.000198896
0.000194656
3.14124e-06
3.12174e-06
3.10115e-06
3.07944e-06
3.05657e-06
3.03248e-06
3.00709e-06
2.98031e-06
2.95205e-06
2.92221e-06
2.89067e-06
2.85731e-06
2.82199e-06
2.78456e-06
2.74486e-06
2.70272e-06
2.65793e-06
2.61028e-06
2.55952e-06
2.5053e-06
2.44717e-06
2.38471e-06
2.31751e-06
2.24513e-06
2.16718e-06
2.08333e-06
1.99335e-06
1.89724e-06
1.79626e-06
1.69177e-06
1.58833e-06
1.49318e-06
1.40054e-06
1.30895e-06
1.22043e-06
1.14126e-06
1.07531e-06
1.02601e-06
9.88573e-07
9.87427e-07
1.02962e-06
1.1289e-06
1.30809e-06
1.61733e-06
2.15603e-06
3.11854e-06
4.85484e-06
7.83171e-06
1.21255e-05
1.68412e-05
2.1415e-05
2.90509e-05
4.54154e-05
7.03281e-05
9.84332e-05
0.000125544
0.000150078
0.000171267
0.000188268
0.000200138
0.000205996
0.000205261
0.000198105
0.000186687
0.000186549
0.00019259
0.00019743
0.000199393
0.000196753
2.12539e-06
2.1058e-06
2.08522e-06
2.06362e-06
2.04098e-06
2.01724e-06
1.99234e-06
1.96621e-06
1.93879e-06
1.90998e-06
1.8797e-06
1.84786e-06
1.81435e-06
1.77906e-06
1.74187e-06
1.70266e-06
1.66138e-06
1.61736e-06
1.57027e-06
1.51996e-06
1.46638e-06
1.40959e-06
1.34974e-06
1.28716e-06
1.22231e-06
1.15592e-06
1.08888e-06
1.02227e-06
9.65654e-07
9.16796e-07
8.74035e-07
8.3218e-07
7.99022e-07
7.76203e-07
7.6616e-07
7.87224e-07
8.3193e-07
9.02591e-07
1.00557e-06
1.15085e-06
1.35541e-06
1.65326e-06
2.10839e-06
2.83537e-06
4.03983e-06
5.92111e-06
8.36187e-06
1.07649e-05
1.13929e-05
9.65628e-06
9.1887e-06
1.47302e-05
3.04275e-05
5.43376e-05
8.12884e-05
0.000106549
0.000128743
0.0001475
0.000162311
0.000172478
0.000177199
0.000175514
0.000166702
0.000160569
0.000163932
0.000176338
0.000184017
0.000187354
0.0001859
9.91688e-07
9.79183e-07
9.66206e-07
9.52793e-07
9.3894e-07
9.2462e-07
9.09802e-07
8.94448e-07
8.78523e-07
8.61987e-07
8.44804e-07
8.26943e-07
8.08388e-07
7.89125e-07
7.69141e-07
7.48378e-07
7.26846e-07
7.05005e-07
6.83183e-07
6.61674e-07
6.40798e-07
6.20917e-07
6.0243e-07
5.8577e-07
5.71399e-07
5.60094e-07
5.52404e-07
5.48862e-07
5.6032e-07
5.8202e-07
6.13968e-07
6.5524e-07
7.05815e-07
7.66217e-07
8.36853e-07
9.18238e-07
1.0106e-06
1.11575e-06
1.24061e-06
1.40349e-06
1.64386e-06
2.01958e-06
2.54874e-06
3.29607e-06
4.35428e-06
5.1682e-06
4.58508e-06
3.2723e-06
2.29246e-06
1.93121e-06
2.17846e-06
3.90507e-06
9.12737e-06
2.13483e-05
4.25026e-05
6.49156e-05
8.46365e-05
0.000100626
0.000112103
0.000118615
0.000120059
0.000119753
0.000117964
0.000117543
0.000121966
0.000131044
0.000143932
0.000150941
0.000151608
2.61307e-07
2.66246e-07
2.71927e-07
2.77926e-07
2.84065e-07
2.90253e-07
2.96432e-07
3.02558e-07
3.08599e-07
3.14526e-07
3.20312e-07
3.26149e-07
3.32618e-07
3.39954e-07
3.48306e-07
3.57832e-07
3.68654e-07
3.80878e-07
3.94611e-07
4.09957e-07
4.27005e-07
4.45813e-07
4.66386e-07
4.88649e-07
5.12403e-07
5.37292e-07
5.62746e-07
5.8794e-07
6.119e-07
6.33117e-07
6.49917e-07
6.6059e-07
6.63653e-07
6.584e-07
6.45287e-07
6.25249e-07
6.01843e-07
5.8341e-07
5.79293e-07
6.12975e-07
7.3044e-07
9.00612e-07
9.29293e-07
8.41381e-07
7.00009e-07
6.40074e-07
5.51735e-07
4.54652e-07
3.77865e-07
3.1291e-07
3.00955e-07
3.9498e-07
7.1115e-07
1.81995e-06
4.42664e-06
9.15358e-06
1.59403e-05
2.40564e-05
3.21344e-05
3.86785e-05
4.32099e-05
4.64744e-05
4.88266e-05
5.10906e-05
5.43974e-05
5.87138e-05
6.36428e-05
6.55973e-05
6.34856e-05
1.71242e-07
1.76961e-07
1.82821e-07
1.88796e-07
1.94838e-07
2.00903e-07
2.06946e-07
2.12919e-07
2.18766e-07
2.24427e-07
2.29838e-07
2.3473e-07
2.38558e-07
2.41169e-07
2.42519e-07
2.4259e-07
2.4135e-07
2.3875e-07
2.34725e-07
2.29195e-07
2.22076e-07
2.13292e-07
2.02787e-07
1.90538e-07
1.76581e-07
1.61024e-07
1.44074e-07
1.2605e-07
1.07398e-07
8.86796e-08
7.05611e-08
5.37693e-08
3.90318e-08
2.6965e-08
1.78702e-08
1.18921e-08
8.82366e-09
7.08037e-09
5.36123e-09
4.11624e-09
5.35291e-09
9.63318e-09
1.35814e-08
1.52717e-08
1.57427e-08
1.58634e-08
1.30003e-08
8.96978e-09
6.68091e-09
5.8586e-09
5.48111e-09
6.78101e-09
1.19649e-08
2.53333e-08
4.78297e-08
6.86321e-08
7.38831e-08
1.12668e-07
1.8702e-07
2.8387e-07
3.8776e-07
4.90664e-07
5.82592e-07
6.75568e-07
7.82145e-07
8.68695e-07
9.23111e-07
8.90039e-07
7.27861e-07
6.21323e-06
6.20427e-06
6.19756e-06
6.19222e-06
6.18992e-06
6.19297e-06
6.20061e-06
6.20485e-06
6.19886e-06
6.19314e-06
6.18807e-06
6.18686e-06
6.18877e-06
6.19838e-06
6.20434e-06
6.19871e-06
6.19588e-06
6.19554e-06
6.19361e-06
6.19754e-06
6.18407e-06
6.15037e-06
6.14223e-06
6.14654e-06
6.15168e-06
6.15806e-06
6.17337e-06
6.18392e-06
6.18515e-06
6.18368e-06
6.19284e-06
6.19046e-06
6.19024e-06
6.17381e-06
6.17792e-06
6.19535e-06
6.20866e-06
6.20823e-06
6.20381e-06
6.19969e-06
6.20226e-06
6.20911e-06
6.22613e-06
6.24609e-06
6.25634e-06
6.27061e-06
6.28955e-06
6.30394e-06
6.30813e-06
6.29785e-06
6.2892e-06
6.29159e-06
6.30384e-06
6.31517e-06
6.32916e-06
6.34679e-06
6.36029e-06
6.3696e-06
6.37674e-06
6.19059e-06
6.18732e-06
6.18692e-06
6.18939e-06
6.19503e-06
6.20123e-06
6.19961e-06
6.1917e-06
6.18236e-06
6.17931e-06
6.1794e-06
6.18442e-06
6.19429e-06
6.19908e-06
6.19522e-06
6.18847e-06
6.18932e-06
6.18836e-06
6.19149e-06
6.18432e-06
6.16535e-06
6.13895e-06
6.13471e-06
6.13913e-06
6.14416e-06
6.15175e-06
6.16617e-06
6.17566e-06
6.17685e-06
6.1757e-06
6.18448e-06
6.18267e-06
6.18271e-06
6.16784e-06
6.16818e-06
6.18243e-06
6.20106e-06
6.21026e-06
6.20522e-06
6.19495e-06
6.19243e-06
6.19625e-06
6.20746e-06
6.22352e-06
6.23688e-06
6.24949e-06
6.26957e-06
6.29052e-06
6.30628e-06
6.31009e-06
6.30513e-06
6.29633e-06
6.29311e-06
6.29421e-06
6.29866e-06
6.30735e-06
6.31833e-06
6.3291e-06
6.34173e-06
6.18309e-06
6.18598e-06
6.19125e-06
6.19603e-06
6.19584e-06
6.19028e-06
6.17969e-06
6.17295e-06
6.16987e-06
6.17248e-06
6.17987e-06
6.19159e-06
6.19675e-06
6.1923e-06
6.18208e-06
6.18096e-06
6.18627e-06
6.18538e-06
6.18176e-06
6.16673e-06
6.14657e-06
6.12802e-06
6.12643e-06
6.13081e-06
6.13598e-06
6.14453e-06
6.15792e-06
6.16644e-06
6.16771e-06
6.16692e-06
6.17488e-06
6.17377e-06
6.17366e-06
6.16239e-06
6.15902e-06
6.16863e-06
6.19048e-06
6.20865e-06
6.20974e-06
6.19601e-06
6.18606e-06
6.18436e-06
6.19037e-06
6.20201e-06
6.21507e-06
6.22662e-06
6.24337e-06
6.26587e-06
6.28812e-06
6.30444e-06
6.31219e-06
6.31145e-06
6.30562e-06
6.2973e-06
6.29144e-06
6.28949e-06
6.29117e-06
6.29539e-06
6.30182e-06
6.18881e-06
6.19e-06
6.19004e-06
6.18546e-06
6.17669e-06
6.16708e-06
6.16204e-06
6.16169e-06
6.16611e-06
6.17552e-06
6.18818e-06
6.19341e-06
6.1884e-06
6.1767e-06
6.17157e-06
6.17649e-06
6.18197e-06
6.17632e-06
6.16541e-06
6.14734e-06
6.12922e-06
6.11692e-06
6.11711e-06
6.12143e-06
6.12695e-06
6.13614e-06
6.14847e-06
6.15616e-06
6.15752e-06
6.15704e-06
6.16411e-06
6.16431e-06
6.16437e-06
6.15722e-06
6.1506e-06
6.15486e-06
6.17355e-06
6.20061e-06
6.21115e-06
6.20245e-06
6.18686e-06
6.17759e-06
6.17632e-06
6.18232e-06
6.19254e-06
6.20326e-06
6.21538e-06
6.23139e-06
6.2551e-06
6.27864e-06
6.29743e-06
6.30932e-06
6.31422e-06
6.31299e-06
6.30816e-06
6.29932e-06
6.29201e-06
6.28731e-06
6.28524e-06
6.18046e-06
6.17509e-06
6.16832e-06
6.15952e-06
6.15421e-06
6.15183e-06
6.1541e-06
6.16049e-06
6.17087e-06
6.1832e-06
6.18752e-06
6.18141e-06
6.16899e-06
6.16173e-06
6.16299e-06
6.16906e-06
6.1696e-06
6.15998e-06
6.14501e-06
6.12746e-06
6.11278e-06
6.10516e-06
6.10652e-06
6.11087e-06
6.11683e-06
6.12633e-06
6.13764e-06
6.14461e-06
6.14605e-06
6.14586e-06
6.15207e-06
6.15368e-06
6.15426e-06
6.15017e-06
6.14247e-06
6.14183e-06
6.1549e-06
6.18096e-06
6.20405e-06
6.20572e-06
6.19248e-06
6.17716e-06
6.16785e-06
6.16653e-06
6.17146e-06
6.17959e-06
6.18896e-06
6.1997e-06
6.21498e-06
6.23653e-06
6.26023e-06
6.28139e-06
6.29765e-06
6.30826e-06
6.31368e-06
6.314e-06
6.31102e-06
6.30544e-06
6.30107e-06
6.15533e-06
6.14727e-06
6.14349e-06
6.14112e-06
6.14219e-06
6.14646e-06
6.15391e-06
6.16403e-06
6.17411e-06
6.17665e-06
6.16956e-06
6.15759e-06
6.14986e-06
6.14881e-06
6.15266e-06
6.1557e-06
6.15128e-06
6.13874e-06
6.12282e-06
6.10751e-06
6.09655e-06
6.09232e-06
6.09447e-06
6.09894e-06
6.10534e-06
6.11491e-06
6.12524e-06
6.13158e-06
6.13311e-06
6.13316e-06
6.1386e-06
6.14131e-06
6.14263e-06
6.14075e-06
6.13383e-06
6.12962e-06
6.13656e-06
6.15734e-06
6.18276e-06
6.1971e-06
6.19388e-06
6.18006e-06
6.166e-06
6.15719e-06
6.15495e-06
6.15794e-06
6.1639e-06
6.17127e-06
6.18054e-06
6.19344e-06
6.20983e-06
6.23075e-06
6.25258e-06
6.27211e-06
6.28784e-06
6.29931e-06
6.30678e-06
6.31029e-06
6.31202e-06
6.13136e-06
6.12665e-06
6.12779e-06
6.13071e-06
6.13581e-06
6.14272e-06
6.15079e-06
6.15711e-06
6.1576e-06
6.15116e-06
6.14231e-06
6.13505e-06
6.13304e-06
6.13522e-06
6.13808e-06
6.13686e-06
6.12847e-06
6.1146e-06
6.09972e-06
6.08739e-06
6.07985e-06
6.07803e-06
6.08073e-06
6.08541e-06
6.09219e-06
6.10161e-06
6.11104e-06
6.11684e-06
6.11844e-06
6.11872e-06
6.12348e-06
6.12692e-06
6.12904e-06
6.12892e-06
6.12369e-06
6.11765e-06
6.11919e-06
6.13321e-06
6.15572e-06
6.17547e-06
6.18306e-06
6.17823e-06
6.16645e-06
6.15409e-06
6.14545e-06
6.14186e-06
6.14254e-06
6.14595e-06
6.1511e-06
6.15811e-06
6.16728e-06
6.17942e-06
6.19415e-06
6.21066e-06
6.22975e-06
6.2479e-06
6.26378e-06
6.27641e-06
6.28699e-06
6.11316e-06
6.11125e-06
6.11488e-06
6.11938e-06
6.12451e-06
6.12936e-06
6.13226e-06
6.13189e-06
6.12818e-06
6.12219e-06
6.11698e-06
6.1148e-06
6.11595e-06
6.11816e-06
6.11814e-06
6.11302e-06
6.10225e-06
6.08861e-06
6.07593e-06
6.06672e-06
6.06204e-06
6.06192e-06
6.06505e-06
6.06999e-06
6.07706e-06
6.08617e-06
6.09477e-06
6.1001e-06
6.10177e-06
6.10223e-06
6.1064e-06
6.11027e-06
6.11318e-06
6.11442e-06