/*--------------------------------*- C++ -*----------------------------------*\
| =========                 |                                                 |
| \\      /  F ield         | OpenFOAM: The Open Source CFD Toolbox           |
|  \\    /   O peration     | Version:  2312                                  |
|   \\  /    A nd           | Website:  www.openfoam.com                      |
|    \\/     M anipulation  |                                                 |
\*---------------------------------------------------------------------------*/
FoamFile
{
    version     2.0;
    format      ascii;
    arch        "LSB;label=32;scalar=64";
    class       volScalarField;
    location    "1700";
    object      nuTilda;
}
// * * * * * * * * * * * * * * * * * * * * * * * * * * * * * * * * * * * * * //

dimensions      [0 2 -1 0 0 0 0];

internalField   nonuniform List<scalar> 
76025
(
4.05789e-05
4.05876e-05
4.05924e-05
4.05973e-05
4.06079e-05
4.06188e-05
4.06358e-05
4.06531e-05
4.06682e-05
4.06825e-05
4.06978e-05
4.07129e-05
4.07263e-05
4.07363e-05
4.07431e-05
4.07518e-05
4.07588e-05
4.07664e-05
4.07712e-05
4.07743e-05
4.07695e-05
4.0762e-05
4.07618e-05
4.07679e-05
4.07779e-05
4.07903e-05
4.08078e-05
4.08245e-05
4.0844e-05
4.08665e-05
4.08918e-05
4.09122e-05
4.0933e-05
4.09469e-05
4.09566e-05
4.09582e-05
4.09556e-05
4.095e-05
4.09381e-05
4.092e-05
4.08975e-05
4.08716e-05
4.08413e-05
4.08114e-05
4.07732e-05
4.07383e-05
4.0717e-05
4.06976e-05
4.06789e-05
4.06595e-05
4.06386e-05
4.06154e-05
4.05894e-05
4.05617e-05
4.05315e-05
4.04941e-05
4.04468e-05
4.03831e-05
4.02963e-05
4.01784e-05
4.00291e-05
3.98292e-05
3.95665e-05
3.9216e-05
3.87479e-05
3.81797e-05
3.78885e-05
3.93745e-05
4.77374e-05
4.05283e-05
4.05529e-05
4.05718e-05
4.05852e-05
4.05967e-05
4.06045e-05
4.06141e-05
4.0626e-05
4.06393e-05
4.06526e-05
4.06662e-05
4.06802e-05
4.06944e-05
4.07085e-05
4.07196e-05
4.07299e-05
4.07383e-05
4.07462e-05
4.0753e-05
4.07595e-05
4.07636e-05
4.07648e-05
4.07644e-05
4.07638e-05
4.07561e-05
4.07478e-05
4.07409e-05
4.07349e-05
4.07295e-05
4.07244e-05
4.07195e-05
4.07153e-05
4.07119e-05
4.07087e-05
4.07061e-05
4.07035e-05
4.07078e-05
4.0714e-05
4.0721e-05
4.07275e-05
4.07326e-05
4.07355e-05
4.07353e-05
4.07316e-05
4.07235e-05
4.07111e-05
4.06945e-05
4.0674e-05
4.06504e-05
4.06247e-05
4.05979e-05
4.05707e-05
4.05427e-05
4.05121e-05
4.04754e-05
4.04284e-05
4.03656e-05
4.02814e-05
4.017e-05
4.00255e-05
3.98388e-05
3.95981e-05
3.92834e-05
3.8865e-05
3.83174e-05
3.7728e-05
3.78444e-05
4.12324e-05
5.44417e-05
4.04484e-05
4.04715e-05
4.04985e-05
4.05246e-05
4.05479e-05
4.05673e-05
4.0583e-05
4.05967e-05
4.06096e-05
4.06222e-05
4.06348e-05
4.06472e-05
4.06598e-05
4.06726e-05
4.06852e-05
4.06972e-05
4.07082e-05
4.07182e-05
4.07271e-05
4.07353e-05
4.07427e-05
4.07491e-05
4.07543e-05
4.07585e-05
4.07609e-05
4.07616e-05
4.07613e-05
4.07605e-05
4.07597e-05
4.07593e-05
4.07592e-05
4.0759e-05
4.07587e-05
4.07584e-05
4.07579e-05
4.07571e-05
4.07559e-05
4.07538e-05
4.07504e-05
4.07451e-05
4.07374e-05
4.07268e-05
4.0713e-05
4.06961e-05
4.06762e-05
4.0654e-05
4.06302e-05
4.06058e-05
4.05817e-05
4.0558e-05
4.05346e-05
4.051e-05
4.04817e-05
4.04463e-05
4.03995e-05
4.03368e-05
4.02535e-05
4.01449e-05
4.0006e-05
3.983e-05
3.9607e-05
3.93207e-05
3.89452e-05
3.84477e-05
3.7825e-05
3.73188e-05
3.8303e-05
4.48436e-05
6.4154e-05
4.04008e-05
4.04065e-05
4.04179e-05
4.0434e-05
4.04531e-05
4.04785e-05
4.0504e-05
4.05273e-05
4.05481e-05
4.05667e-05
4.05834e-05
4.05987e-05
4.06129e-05
4.06264e-05
4.06393e-05
4.06518e-05
4.06637e-05
4.0675e-05
4.06855e-05
4.06951e-05
4.0704e-05
4.07122e-05
4.07196e-05
4.07261e-05
4.07319e-05
4.07368e-05
4.07407e-05
4.07438e-05
4.0746e-05
4.07476e-05
4.07481e-05
4.07477e-05
4.07464e-05
4.07439e-05
4.07402e-05
4.07351e-05
4.07282e-05
4.07195e-05
4.07087e-05
4.06957e-05
4.06805e-05
4.06633e-05
4.06443e-05
4.06242e-05
4.06034e-05
4.05828e-05
4.05627e-05
4.05432e-05
4.05241e-05
4.05042e-05
4.04816e-05
4.04536e-05
4.04171e-05
4.03683e-05
4.03035e-05
4.02191e-05
4.01113e-05
3.99759e-05
3.98074e-05
3.95976e-05
3.93328e-05
3.89914e-05
3.85422e-05
3.79567e-05
3.729e-05
3.70821e-05
3.97098e-05
5.09888e-05
7.75334e-05
4.04217e-05
4.04076e-05
4.03975e-05
4.03924e-05
4.03925e-05
4.03985e-05
4.04094e-05
4.0426e-05
4.04474e-05
4.047e-05
4.04919e-05
4.05126e-05
4.05317e-05
4.05493e-05
4.05655e-05
4.05805e-05
4.05944e-05
4.06073e-05
4.06193e-05
4.06303e-05
4.06404e-05
4.06496e-05
4.06578e-05
4.06651e-05
4.06715e-05
4.06769e-05
4.06814e-05
4.06848e-05
4.06871e-05
4.06883e-05
4.06879e-05
4.06861e-05
4.06827e-05
4.06777e-05
4.06711e-05
4.06627e-05
4.06526e-05
4.06408e-05
4.06276e-05
4.0613e-05
4.05975e-05
4.05815e-05
4.05655e-05
4.05497e-05
4.05345e-05
4.05197e-05
4.0505e-05
4.04893e-05
4.04712e-05
4.04486e-05
4.04189e-05
4.03794e-05
4.0327e-05
4.0259e-05
4.01723e-05
4.0064e-05
3.99306e-05
3.97675e-05
3.95676e-05
3.93193e-05
3.90043e-05
3.85956e-05
3.80599e-05
3.73899e-05
3.67686e-05
3.72722e-05
4.27692e-05
6.05274e-05
9.45437e-05
4.04494e-05
4.0444e-05
4.04346e-05
4.04231e-05
4.04107e-05
4.03981e-05
4.03878e-05
4.03823e-05
4.03829e-05
4.03903e-05
4.0403e-05
4.04185e-05
4.04354e-05
4.04525e-05
4.04693e-05
4.04854e-05
4.05006e-05
4.05148e-05
4.0528e-05
4.05401e-05
4.05511e-05
4.05611e-05
4.05699e-05
4.05777e-05
4.05843e-05
4.05898e-05
4.05941e-05
4.05973e-05
4.05992e-05
4.05996e-05
4.05985e-05
4.05959e-05
4.05919e-05
4.05864e-05
4.05797e-05
4.05717e-05
4.05628e-05
4.05531e-05
4.0543e-05
4.05326e-05
4.05223e-05
4.05121e-05
4.05022e-05
4.04922e-05
4.04816e-05
4.04696e-05
4.04549e-05
4.04358e-05
4.04105e-05
4.03768e-05
4.03324e-05
4.02751e-05
4.02026e-05
4.01127e-05
4.00029e-05
3.98703e-05
3.97107e-05
3.95179e-05
3.92819e-05
3.89869e-05
3.86098e-05
3.81191e-05
3.74885e-05
3.67669e-05
3.63914e-05
3.83417e-05
4.83804e-05
7.40738e-05
0.000114228
4.04218e-05
4.04359e-05
4.04433e-05
4.04451e-05
4.04422e-05
4.04355e-05
4.04264e-05
4.04164e-05
4.0407e-05
4.03999e-05
4.03958e-05
4.0395e-05
4.03974e-05
4.04023e-05
4.04092e-05
4.04175e-05
4.04267e-05
4.04362e-05
4.04459e-05
4.04554e-05
4.04644e-05
4.04728e-05
4.04806e-05
4.04875e-05
4.04935e-05
4.04986e-05
4.05026e-05
4.05057e-05
4.05077e-05
4.05084e-05
4.0508e-05
4.05067e-05
4.05045e-05
4.05015e-05
4.0498e-05
4.04939e-05
4.04895e-05
4.04849e-05
4.048e-05
4.0475e-05
4.04695e-05
4.04633e-05
4.04558e-05
4.04462e-05
4.04334e-05
4.04162e-05
4.03931e-05
4.03625e-05
4.03227e-05
4.02721e-05
4.02089e-05
4.01313e-05
4.00376e-05
3.99257e-05
3.97929e-05
3.96355e-05
3.94476e-05
3.92204e-05
3.89401e-05
3.85865e-05
3.81316e-05
3.75452e-05
3.68269e-05
3.615e-05
3.64242e-05
4.10402e-05
5.7533e-05
9.15679e-05
0.000134502
4.03172e-05
4.03504e-05
4.03775e-05
4.03988e-05
4.04145e-05
4.04249e-05
4.04306e-05
4.04323e-05
4.04309e-05
4.04274e-05
4.04229e-05
4.04182e-05
4.04141e-05
4.0411e-05
4.04091e-05
4.04085e-05
4.04091e-05
4.04108e-05
4.04134e-05
4.04166e-05
4.04203e-05
4.04242e-05
4.04282e-05
4.04321e-05
4.04357e-05
4.0439e-05
4.04419e-05
4.04444e-05
4.04463e-05
4.04476e-05
4.04485e-05
4.0449e-05
4.04491e-05
4.04489e-05
4.04484e-05
4.04474e-05
4.04459e-05
4.04437e-05
4.04404e-05
4.04357e-05
4.04291e-05
4.04197e-05
4.04068e-05
4.03893e-05
4.03663e-05
4.03366e-05
4.02988e-05
4.02519e-05
4.01943e-05
4.01249e-05
4.00423e-05
3.99448e-05
3.98305e-05
3.9697e-05
3.95405e-05
3.93557e-05
3.91342e-05
3.88639e-05
3.85268e-05
3.80982e-05
3.7549e-05
3.68615e-05
3.61013e-05
3.56935e-05
3.73692e-05
4.64096e-05
7.10388e-05
0.000111881
0.000152619
4.01872e-05
4.02229e-05
4.02568e-05
4.02885e-05
4.03171e-05
4.03422e-05
4.03634e-05
4.03806e-05
4.03939e-05
4.04037e-05
4.04103e-05
4.04144e-05
4.04165e-05
4.04172e-05
4.04171e-05
4.04164e-05
4.04157e-05
4.0415e-05
4.04145e-05
4.04143e-05
4.04145e-05
4.04149e-05
4.04156e-05
4.04165e-05
4.04176e-05
4.04187e-05
4.04198e-05
4.04208e-05
4.04216e-05
4.04222e-05
4.04226e-05
4.04227e-05
4.04223e-05
4.04214e-05
4.04196e-05
4.04167e-05
4.04124e-05
4.04062e-05
4.03977e-05
4.03861e-05
4.0371e-05
4.03515e-05
4.03268e-05
4.02962e-05
4.02586e-05
4.02133e-05
4.01591e-05
4.00951e-05
4.00201e-05
3.99329e-05
3.9832e-05
3.97154e-05
3.95806e-05
3.94241e-05
3.92405e-05
3.9022e-05
3.87573e-05
3.84302e-05
3.80189e-05
3.74968e-05
3.6841e-05
3.60724e-05
3.54023e-05
3.57311e-05
4.01113e-05
5.56588e-05
8.8996e-05
0.000132746
0.000166202
4.00742e-05
4.00998e-05
4.01259e-05
4.01541e-05
4.01834e-05
4.02126e-05
4.02406e-05
4.02666e-05
4.02903e-05
4.03113e-05
4.03294e-05
4.03448e-05
4.03575e-05
4.03679e-05
4.03761e-05
4.03826e-05
4.03875e-05
4.03912e-05
4.0394e-05
4.0396e-05
4.03975e-05
4.03985e-05
4.03992e-05
4.03996e-05
4.03998e-05
4.03998e-05
4.03995e-05
4.03988e-05
4.03977e-05
4.03959e-05
4.03934e-05
4.03901e-05
4.03856e-05
4.03798e-05
4.03723e-05
4.03627e-05
4.03506e-05
4.03357e-05
4.03172e-05
4.02948e-05
4.02678e-05
4.02356e-05
4.01976e-05
4.0153e-05
4.01011e-05
4.0041e-05
3.99718e-05
3.98923e-05
3.98014e-05
3.96974e-05
3.95785e-05
3.9442e-05
3.92842e-05
3.90999e-05
3.88814e-05
3.86179e-05
3.82946e-05
3.7892e-05
3.73865e-05
3.67547e-05
3.59979e-05
3.5231e-05
3.49626e-05
3.69336e-05
4.59711e-05
6.98979e-05
0.000110326
0.000151348
0.000174473
3.9991e-05
4.00008e-05
4.00104e-05
4.0023e-05
4.00411e-05
4.00641e-05
4.00898e-05
4.01163e-05
4.01427e-05
4.01681e-05
4.01921e-05
4.02142e-05
4.02344e-05
4.02524e-05
4.02684e-05
4.02823e-05
4.02943e-05
4.03044e-05
4.03128e-05
4.03197e-05
4.03252e-05
4.03295e-05
4.03325e-05
4.03345e-05
4.03355e-05
4.03355e-05
4.03344e-05
4.03324e-05
4.03289e-05
4.0324e-05
4.03175e-05
4.03094e-05
4.02993e-05
4.0287e-05
4.02722e-05
4.02546e-05
4.02338e-05
4.02094e-05
4.0181e-05
4.01481e-05
4.01102e-05
4.00668e-05
4.00172e-05
3.99606e-05
3.98963e-05
3.98232e-05
3.97403e-05
3.96462e-05
3.95394e-05
3.94178e-05
3.92785e-05
3.91179e-05
3.89305e-05
3.87086e-05
3.84418e-05
3.81161e-05
3.7714e-05
3.72148e-05
3.65964e-05
3.58519e-05
3.50485e-05
3.4511e-05
3.53171e-05
4.05504e-05
5.65743e-05
8.94771e-05
0.000132658
0.00016544
0.00017862
3.99243e-05
3.99255e-05
3.99251e-05
3.99255e-05
3.9928e-05
3.9934e-05
3.99449e-05
3.99609e-05
3.99807e-05
4.00025e-05
4.0025e-05
4.00475e-05
4.00692e-05
4.00898e-05
4.01089e-05
4.01265e-05
4.01424e-05
4.01566e-05
4.01689e-05
4.01794e-05
4.01882e-05
4.01952e-05
4.02005e-05
4.02041e-05
4.0206e-05
4.02062e-05
4.02046e-05
4.02011e-05
4.01955e-05
4.01877e-05
4.01778e-05
4.01655e-05
4.01506e-05
4.01329e-05
4.01121e-05
4.0088e-05
4.00603e-05
4.00285e-05
3.99923e-05
3.99512e-05
3.99046e-05
3.98519e-05
3.97923e-05
3.9725e-05
3.96489e-05
3.95629e-05
3.94657e-05
3.93555e-05
3.92301e-05
3.90866e-05
3.89209e-05
3.87274e-05
3.84983e-05
3.82232e-05
3.78888e-05
3.74791e-05
3.69759e-05
3.636e-05
3.56206e-05
3.48006e-05
3.4131e-05
3.43759e-05
3.76042e-05
4.85029e-05
7.3498e-05
0.000113311
0.000152919
0.000174256
0.000181229
3.9857e-05
3.98549e-05
3.985e-05
3.98446e-05
3.98395e-05
3.98352e-05
3.98328e-05
3.98333e-05
3.9838e-05
3.98473e-05
3.98603e-05
3.98757e-05
3.98924e-05
3.99096e-05
3.99266e-05
3.9943e-05
3.99583e-05
3.99724e-05
3.99851e-05
3.99962e-05
4.00055e-05
4.00131e-05
4.00188e-05
4.00225e-05
4.00242e-05
4.00239e-05
4.00212e-05
4.00162e-05
4.00087e-05
3.99987e-05
3.99861e-05
3.99707e-05
3.99522e-05
3.99306e-05
3.99054e-05
3.98765e-05
3.98433e-05
3.98055e-05
3.97626e-05
3.9714e-05
3.9659e-05
3.95968e-05
3.95265e-05
3.94473e-05
3.93577e-05
3.92564e-05
3.91415e-05
3.90106e-05
3.88605e-05
3.86868e-05
3.84835e-05
3.82426e-05
3.79537e-05
3.7604e-05
3.71789e-05
3.66619e-05
3.6037e-05
3.52937e-05
3.44606e-05
3.37208e-05
3.3683e-05
3.59445e-05
4.39986e-05
6.32158e-05
9.72457e-05
0.000138571
0.000168461
0.000178501
0.000182718
3.97746e-05
3.97716e-05
3.97651e-05
3.97577e-05
3.97498e-05
3.97417e-05
3.97336e-05
3.9726e-05
3.97196e-05
3.97157e-05
3.97154e-05
3.9719e-05
3.97257e-05
3.97347e-05
3.97451e-05
3.9756e-05
3.97669e-05
3.97774e-05
3.9787e-05
3.97955e-05
3.98026e-05
3.98082e-05
3.9812e-05
3.98139e-05
3.98139e-05
3.98115e-05
3.98068e-05
3.97996e-05
3.97897e-05
3.97771e-05
3.97616e-05
3.97429e-05
3.97208e-05
3.96949e-05
3.9665e-05
3.96305e-05
3.9591e-05
3.9546e-05
3.94949e-05
3.94369e-05
3.93714e-05
3.92973e-05
3.92136e-05
3.9119e-05
3.90119e-05
3.88902e-05
3.87514e-05
3.85917e-05
3.84064e-05
3.8189e-05
3.7931e-05
3.76222e-05
3.72503e-05
3.68019e-05
3.62624e-05
3.56171e-05
3.48587e-05
3.40127e-05
3.32337e-05
3.30648e-05
3.48915e-05
4.16011e-05
5.75744e-05
8.66786e-05
0.000126048
0.00016137
0.000178121
0.000180294
0.000182491
3.96645e-05
3.96614e-05
3.96553e-05
3.96478e-05
3.96394e-05
3.96303e-05
3.96206e-05
3.96103e-05
3.95995e-05
3.95889e-05
3.95789e-05
3.95705e-05
3.9565e-05
3.95628e-05
3.95636e-05
3.95665e-05
3.95706e-05
3.95752e-05
3.95798e-05
3.95837e-05
3.95868e-05
3.95886e-05
3.95888e-05
3.95873e-05
3.95839e-05
3.95781e-05
3.95698e-05
3.95588e-05
3.9545e-05
3.95282e-05
3.95081e-05
3.94843e-05
3.94565e-05
3.94243e-05
3.93872e-05
3.93447e-05
3.92962e-05
3.92412e-05
3.91788e-05
3.91084e-05
3.90289e-05
3.89391e-05
3.88375e-05
3.87224e-05
3.85915e-05
3.84416e-05
3.82687e-05
3.80673e-05
3.78305e-05
3.75495e-05
3.72142e-05
3.68131e-05
3.63338e-05
3.57632e-05
3.50884e-05
3.43033e-05
3.34402e-05
3.26535e-05
3.24549e-05
3.41895e-05
4.05111e-05
5.52203e-05
8.16398e-05
0.000118432
0.000155446
0.000178349
0.000182487
0.000181507
0.000180768
3.95199e-05
3.95153e-05
3.95097e-05
3.95029e-05
3.9495e-05
3.9486e-05
3.94761e-05
3.94652e-05
3.94534e-05
3.94406e-05
3.94271e-05
3.9413e-05
3.93987e-05
3.93849e-05
3.93723e-05
3.9362e-05
3.93547e-05
3.93499e-05
3.93468e-05
3.93442e-05
3.93416e-05
3.93382e-05
3.93336e-05
3.93275e-05
3.93193e-05
3.93087e-05
3.92952e-05
3.92789e-05
3.92594e-05
3.92364e-05
3.92095e-05
3.91782e-05
3.91422e-05
3.9101e-05
3.9054e-05
3.90007e-05
3.89404e-05
3.88723e-05
3.87955e-05
3.87088e-05
3.8611e-05
3.85004e-05
3.83747e-05
3.82313e-05
3.80666e-05
3.78759e-05
3.7653e-05
3.73905e-05
3.70798e-05
3.67112e-05
3.62741e-05
3.57569e-05
3.51471e-05
3.4434e-05
3.36159e-05
3.27329e-05
3.19693e-05
3.18648e-05
3.37704e-05
4.04034e-05
5.52831e-05
8.12056e-05
0.000116744
0.000153637
0.000179888
0.000188287
0.000183529
0.000181124
0.00017772
3.93476e-05
3.93407e-05
3.9333e-05
3.93246e-05
3.93155e-05
3.93054e-05
3.92944e-05
3.92825e-05
3.92694e-05
3.92554e-05
3.92401e-05
3.92238e-05
3.92063e-05
3.91878e-05
3.91683e-05
3.9148e-05
3.91274e-05
3.91068e-05
3.90871e-05
3.90697e-05
3.90547e-05
3.90415e-05
3.90286e-05
3.9015e-05
3.89996e-05
3.89815e-05
3.89604e-05
3.89363e-05
3.89088e-05
3.88774e-05
3.88416e-05
3.88009e-05
3.87547e-05
3.87025e-05
3.86435e-05
3.85769e-05
3.85019e-05
3.84173e-05
3.83218e-05
3.82139e-05
3.80915e-05
3.7952e-05
3.77922e-05
3.76076e-05
3.7393e-05
3.71417e-05
3.68463e-05
3.64988e-05
3.60902e-05
3.56108e-05
3.50493e-05
3.43936e-05
3.3634e-05
3.27807e-05
3.18951e-05
3.11993e-05
3.13331e-05
3.3755e-05
4.12486e-05
5.7357e-05
8.44464e-05
0.000120381
0.000157104
0.000184372
0.000195788
0.000192598
0.000184911
0.000180025
0.000174107
3.91373e-05
3.91286e-05
3.9119e-05
3.91084e-05
3.9097e-05
3.90847e-05
3.90714e-05
3.90572e-05
3.90419e-05
3.90254e-05
3.90078e-05
3.89889e-05
3.89686e-05
3.89469e-05
3.89238e-05
3.88991e-05
3.88728e-05
3.88448e-05
3.88153e-05
3.87843e-05
3.87517e-05
3.87177e-05
3.86828e-05
3.86477e-05
3.8613e-05
3.85795e-05
3.85464e-05
3.8512e-05
3.84747e-05
3.84333e-05
3.8387e-05
3.8335e-05
3.82765e-05
3.82105e-05
3.81361e-05
3.80522e-05
3.79575e-05
3.78506e-05
3.77294e-05
3.75912e-05
3.7433e-05
3.72504e-05
3.70387e-05
3.67919e-05
3.6504e-05
3.61681e-05
3.57771e-05
3.53229e-05
3.4796e-05
3.41844e-05
3.34762e-05
3.26687e-05
3.17862e-05
3.09415e-05
3.04174e-05
3.09614e-05
3.42389e-05
4.31153e-05
6.12039e-05
9.04788e-05
0.000127829
0.000164736
0.000192073
0.000204945
0.000203886
0.000193933
0.000185499
0.000178895
0.000170838
3.88767e-05
3.88657e-05
3.88535e-05
3.88403e-05
3.88261e-05
3.88109e-05
3.87946e-05
3.87772e-05
3.87586e-05
3.87387e-05
3.87175e-05
3.86948e-05
3.86707e-05
3.86448e-05
3.86173e-05
3.85878e-05
3.85564e-05
3.85229e-05
3.8487e-05
3.84487e-05
3.84078e-05
3.8364e-05
3.83173e-05
3.82674e-05
3.8214e-05
3.81568e-05
3.80961e-05
3.8033e-05
3.79701e-05
3.79069e-05
3.78409e-05
3.77695e-05
3.7691e-05
3.7604e-05
3.75067e-05
3.73974e-05
3.72738e-05
3.71332e-05
3.69721e-05
3.67864e-05
3.65712e-05
3.63219e-05
3.60335e-05
3.5701e-05
3.53186e-05
3.48796e-05
3.43757e-05
3.37964e-05
3.31294e-05
3.23665e-05
3.15176e-05
3.06485e-05
2.9921e-05
2.97628e-05
3.10109e-05
3.54713e-05
4.61098e-05
6.65304e-05
9.81872e-05
0.000136888
0.000173724
0.000200807
0.000214763
0.000216121
0.000207017
0.000193575
0.000186062
0.000178862
0.000169443
3.85455e-05
3.85311e-05
3.85155e-05
3.84988e-05
3.8481e-05
3.8462e-05
3.84417e-05
3.84202e-05
3.83972e-05
3.83727e-05
3.83466e-05
3.83188e-05
3.82892e-05
3.82577e-05
3.8224e-05
3.81881e-05
3.81497e-05
3.81087e-05
3.80649e-05
3.8018e-05
3.79677e-05
3.79138e-05
3.78558e-05
3.77936e-05
3.77267e-05
3.76547e-05
3.75769e-05
3.74928e-05
3.74019e-05
3.73034e-05
3.71976e-05
3.70871e-05
3.69723e-05
3.68497e-05
3.67147e-05
3.65629e-05
3.63901e-05
3.6192e-05
3.59641e-05
3.57023e-05
3.54046e-05
3.50677e-05
3.46874e-05
3.42571e-05
3.37682e-05
3.32095e-05
3.25715e-05
3.18469e-05
3.10397e-05
3.01925e-05
2.94185e-05
2.90088e-05
2.94336e-05
3.17807e-05
3.77443e-05
5.02697e-05
7.27869e-05
0.00010602
0.000144805
0.000180522
0.00020708
0.000222477
0.000226908
0.000221046
0.00020771
0.000194439
0.000187851
0.000181034
0.000171249
3.81092e-05
3.80906e-05
3.80707e-05
3.80494e-05
3.80269e-05
3.80029e-05
3.79774e-05
3.79503e-05
3.79215e-05
3.78909e-05
3.78583e-05
3.78237e-05
3.77868e-05
3.77475e-05
3.77056e-05
3.76608e-05
3.7613e-05
3.75619e-05
3.75071e-05
3.74484e-05
3.73854e-05
3.73176e-05
3.72447e-05
3.71662e-05
3.70813e-05
3.69896e-05
3.68902e-05
3.67824e-05
3.66651e-05
3.65372e-05
3.63974e-05
3.62443e-05
3.6076e-05
3.58903e-05
3.56841e-05
3.5454e-05
3.51965e-05
3.49071e-05
3.45848e-05
3.42333e-05
3.3851e-05
3.34261e-05
3.29457e-05
3.23988e-05
3.17768e-05
3.10755e-05
3.03085e-05
2.95127e-05
2.87677e-05
2.83004e-05
2.84416e-05
2.99278e-05
3.36458e-05
4.12172e-05
5.53562e-05
7.90036e-05
0.000112007
0.000148755
0.000182006
0.000207859
0.00022516
0.00023334
0.00023201
0.000221888
0.00020709
0.000196345
0.000191364
0.00018587
0.000176651
3.75114e-05
3.74875e-05
3.74619e-05
3.74348e-05
3.74059e-05
3.73753e-05
3.73428e-05
3.73083e-05
3.72716e-05
3.72327e-05
3.71913e-05
3.71472e-05
3.71003e-05
3.70502e-05
3.69968e-05
3.69397e-05
3.68786e-05
3.68131e-05
3.67429e-05
3.66674e-05
3.65862e-05
3.64987e-05
3.64045e-05
3.63029e-05
3.61928e-05
3.60735e-05
3.59439e-05
3.58025e-05
3.56481e-05
3.54789e-05
3.52928e-05
3.50871e-05
3.48587e-05
3.46038e-05
3.43173e-05
3.39954e-05
3.36378e-05
3.32431e-05
3.28267e-05
3.23791e-05
3.18836e-05
3.13263e-05
3.07028e-05
3.00179e-05
2.92902e-05
2.85551e-05
2.79142e-05
2.75286e-05
2.76415e-05
2.88167e-05
3.16195e-05
3.68374e-05
4.57729e-05
6.06437e-05
8.36757e-05
0.000114
0.000146554
0.000176472
0.00020166
0.000220984
0.000233134
0.000236995
0.00023206
0.000219725
0.000204586
0.000198898
0.000196428
0.000192894
0.000185047
3.66585e-05
3.66274e-05
3.65943e-05
3.6559e-05
3.65217e-05
3.64821e-05
3.644e-05
3.63954e-05
3.6348e-05
3.62976e-05
3.6244e-05
3.61869e-05
3.61261e-05
3.60611e-05
3.59916e-05
3.59173e-05
3.58376e-05
3.5752e-05
3.566e-05
3.55609e-05
3.54541e-05
3.53388e-05
3.5214e-05
3.50786e-05
3.49315e-05
3.47711e-05
3.4596e-05
3.4404e-05
3.41929e-05
3.39596e-05
3.37006e-05
3.34108e-05
3.30865e-05
3.27259e-05
3.23285e-05
3.18925e-05
3.14489e-05
3.0971e-05
3.04499e-05
2.98777e-05
2.92572e-05
2.86059e-05
2.79413e-05
2.73333e-05
2.68661e-05
2.66325e-05
2.69662e-05
2.81387e-05
3.05755e-05
3.47648e-05
4.12167e-05
5.06801e-05
6.46347e-05
8.46881e-05
0.000109984
0.000137189
0.000163796
0.000188373
0.000209348
0.000224999
0.000233866
0.000234978
0.000228312
0.000215706
0.000202352
0.000201695
0.000202077
0.000200739
0.000194786
3.53825e-05
3.53411e-05
3.5297e-05
3.52503e-05
3.52008e-05
3.51483e-05
3.50926e-05
3.50334e-05
3.49706e-05
3.49038e-05
3.48326e-05
3.47567e-05
3.46758e-05
3.45892e-05
3.44966e-05
3.43973e-05
3.42906e-05
3.41759e-05
3.40522e-05
3.39188e-05
3.3775e-05
3.36193e-05
3.34502e-05
3.32661e-05
3.30648e-05
3.28438e-05
3.26002e-05
3.23305e-05
3.20308e-05
3.16965e-05
3.13236e-05
3.09141e-05
3.04694e-05
3.00185e-05
2.95491e-05
2.90513e-05
2.85198e-05
2.79623e-05
2.73853e-05
2.6822e-05
2.6323e-05
2.59504e-05
2.57165e-05
2.58761e-05
2.65279e-05
2.78623e-05
3.01685e-05
3.37964e-05
3.90291e-05
4.59174e-05
5.43388e-05
6.49497e-05
7.94329e-05
9.84368e-05
0.000120762
0.000144659
0.000168335
0.000190017
0.000208057
0.000221032
0.00022778
0.000227587
0.000220782
0.000209786
0.000201929
0.000203775
0.000206379
0.00020693
0.000202986
3.33772e-05
3.33214e-05
3.32622e-05
3.31994e-05
3.3133e-05
3.30627e-05
3.29882e-05
3.29091e-05
3.28251e-05
3.27359e-05
3.26408e-05
3.25396e-05
3.24315e-05
3.23159e-05
3.21922e-05
3.20594e-05
3.19168e-05
3.17633e-05
3.15977e-05
3.14182e-05
3.12228e-05
3.10092e-05
3.07751e-05
3.05176e-05
3.02338e-05
2.99205e-05
2.95744e-05
2.91924e-05
2.87762e-05
2.83279e-05
2.78645e-05
2.7419e-05
2.69655e-05
2.64957e-05
2.60188e-05
2.5571e-05
2.51806e-05
2.48773e-05
2.46401e-05
2.46327e-05
2.48999e-05
2.5499e-05
2.64912e-05
2.79965e-05
3.01927e-05
3.33122e-05
3.75841e-05
4.30252e-05
4.90042e-05
5.43617e-05
5.89086e-05
6.57055e-05
7.87274e-05
9.74922e-05
0.000119223
0.000141428
0.000162578
0.000181517
0.000197072
0.000208088
0.000213565
0.000212876
0.000206194
0.000195614
0.000195487
0.000201069
0.000205564
0.000207393
0.000204935
3.00787e-05
3.00053e-05
2.99277e-05
2.98456e-05
2.97589e-05
2.96673e-05
2.95704e-05
2.94679e-05
2.93592e-05
2.92438e-05
2.91213e-05
2.89909e-05
2.8852e-05
2.87037e-05
2.85452e-05
2.83756e-05
2.81939e-05
2.79967e-05
2.77814e-05
2.75464e-05
2.72899e-05
2.70107e-05
2.67077e-05
2.63805e-05
2.60292e-05
2.56555e-05
2.52623e-05
2.48539e-05
2.44916e-05
2.41663e-05
2.38713e-05
2.35722e-05
2.33275e-05
2.31547e-05
2.30775e-05
2.32386e-05
2.35704e-05
2.40695e-05
2.47486e-05
2.56264e-05
2.67368e-05
2.81578e-05
3.00151e-05
3.24725e-05
3.57323e-05
3.97254e-05
4.38521e-05
4.72618e-05
4.80801e-05
4.57495e-05
4.50821e-05
5.20714e-05
6.68617e-05
8.54776e-05
0.000105832
0.000125734
0.000144133
0.000160313
0.000173445
0.000182615
0.000186911
0.000185375
0.000177391
0.000171886
0.000174899
0.000186126
0.000193156
0.000196229
0.000194889
2.46601e-05
2.45795e-05
2.44952e-05
2.44071e-05
2.43153e-05
2.42193e-05
2.41188e-05
2.40134e-05
2.39027e-05
2.37863e-05
2.36635e-05
2.3534e-05
2.33973e-05
2.3253e-05
2.31005e-05
2.2939e-05
2.27681e-05
2.25909e-05
2.24099e-05
2.22273e-05
2.20458e-05
2.1869e-05
2.17009e-05
2.15461e-05
2.141e-05
2.13011e-05
2.12261e-05
2.11914e-05
2.13033e-05
2.15108e-05
2.18063e-05
2.21718e-05
2.25976e-05
2.3078e-05
2.36061e-05
2.41761e-05
2.47804e-05
2.54219e-05
2.61297e-05
2.69803e-05
2.81158e-05
2.96764e-05
3.15622e-05
3.38126e-05
3.64734e-05
3.82422e-05
3.69953e-05
3.37467e-05
3.06866e-05
2.9329e-05
3.02753e-05
3.5403e-05
4.49932e-05
5.88455e-05
7.6492e-05
9.34163e-05
0.000108411
0.000120971
0.000130257
0.00013563
0.000136832
0.000136577
0.00013509
0.00013474
0.000138424
0.000146088
0.000157194
0.000163338
0.000163927
1.75533e-05
1.76367e-05
1.77311e-05
1.78292e-05
1.7928e-05
1.8026e-05
1.81224e-05
1.82165e-05
1.83079e-05
1.83963e-05
1.84814e-05
1.85662e-05
1.86588e-05
1.87622e-05
1.8878e-05
1.90076e-05
1.91518e-05
1.93109e-05
1.94853e-05
1.9675e-05
1.98797e-05
2.00987e-05
2.03306e-05
2.05732e-05
2.08234e-05
2.10766e-05
2.13268e-05
2.15664e-05
2.17875e-05
2.1978e-05
2.21256e-05
2.22179e-05
2.22442e-05
2.21991e-05
2.20852e-05
2.19079e-05
2.16955e-05
2.15239e-05
2.1485e-05
2.17972e-05
2.27969e-05
2.40559e-05
2.42507e-05
2.36389e-05
2.25498e-05
2.20395e-05
2.12196e-05
2.01993e-05
1.92721e-05
1.83723e-05
1.8192e-05
1.94899e-05
2.26412e-05
2.88754e-05
3.66389e-05
4.50312e-05
5.34023e-05
6.13478e-05
6.82739e-05
7.35177e-05
7.70368e-05
7.95351e-05
8.13215e-05
8.30328e-05
8.55225e-05
8.87625e-05
9.24604e-05
9.39286e-05
9.23424e-05
1.57772e-05
1.59085e-05
1.60397e-05
1.61703e-05
1.62993e-05
1.64258e-05
1.65491e-05
1.66684e-05
1.67828e-05
1.68914e-05
1.69933e-05
1.70839e-05
1.71539e-05
1.72011e-05
1.72254e-05
1.72267e-05
1.72044e-05
1.71574e-05
1.70838e-05
1.69813e-05
1.68465e-05
1.66757e-05
1.64645e-05
1.62078e-05
1.58998e-05
1.55345e-05
1.51053e-05
1.46056e-05
1.4029e-05
1.33697e-05
1.26239e-05
1.17916e-05
1.08815e-05
9.91835e-06
8.94733e-06
8.08013e-06
7.49866e-06
7.09686e-06
6.61985e-06
6.19642e-06
6.61727e-06
7.66519e-06
8.35328e-06
8.60218e-06
8.66784e-06
8.68443e-06
8.26234e-06
7.52954e-06
6.9945e-06
6.7684e-06
6.65657e-06
7.02057e-06
8.09248e-06
9.76447e-06
1.14505e-05
1.25364e-05
1.27706e-05
1.4199e-05
1.61318e-05
1.79249e-05
1.93989e-05
2.05948e-05
2.15162e-05
2.23457e-05
2.32001e-05
2.38337e-05
2.42091e-05
2.39829e-05
2.27763e-05
4.02688e-05
4.02523e-05
4.024e-05
4.02302e-05
4.0226e-05
4.02316e-05
4.02456e-05
4.02534e-05
4.02424e-05
4.02319e-05
4.02226e-05
4.02204e-05
4.02239e-05
4.02415e-05
4.02525e-05
4.02421e-05
4.02369e-05
4.02363e-05
4.02328e-05
4.024e-05
4.02152e-05
4.01532e-05
4.01382e-05
4.01461e-05
4.01556e-05
4.01674e-05
4.01956e-05
4.0215e-05
4.02172e-05
4.02145e-05
4.02314e-05
4.0227e-05
4.02266e-05
4.01964e-05
4.02039e-05
4.0236e-05
4.02604e-05
4.02596e-05
4.02515e-05
4.02439e-05
4.02486e-05
4.02612e-05
4.02924e-05
4.03289e-05
4.03476e-05
4.03736e-05
4.04081e-05
4.04342e-05
4.04418e-05
4.04232e-05
4.04074e-05
4.04118e-05
4.0434e-05
4.04546e-05
4.048e-05
4.05119e-05
4.05363e-05
4.05531e-05
4.05659e-05
4.02272e-05
4.02212e-05
4.02205e-05
4.0225e-05
4.02354e-05
4.02468e-05
4.02438e-05
4.02293e-05
4.02121e-05
4.02065e-05
4.02067e-05
4.02159e-05
4.0234e-05
4.02428e-05
4.02357e-05
4.02233e-05
4.02249e-05
4.02231e-05
4.02289e-05
4.02157e-05
4.01808e-05
4.01321e-05
4.01243e-05
4.01325e-05
4.01418e-05
4.01558e-05
4.01823e-05
4.01998e-05
4.0202e-05
4.01999e-05
4.0216e-05
4.02127e-05
4.02127e-05
4.01854e-05
4.0186e-05
4.02122e-05
4.02464e-05
4.02633e-05
4.02541e-05
4.02352e-05
4.02306e-05
4.02376e-05
4.02582e-05
4.02876e-05
4.0312e-05
4.03351e-05
4.03717e-05
4.04098e-05
4.04385e-05
4.04454e-05
4.04364e-05
4.04204e-05
4.04145e-05
4.04165e-05
4.04246e-05
4.04404e-05
4.04603e-05
4.04798e-05
4.05027e-05
4.02134e-05
4.02188e-05
4.02284e-05
4.02372e-05
4.02369e-05
4.02267e-05
4.02072e-05
4.01948e-05
4.01891e-05
4.01939e-05
4.02075e-05
4.02291e-05
4.02385e-05
4.02304e-05
4.02116e-05
4.02095e-05
4.02193e-05
4.02177e-05
4.0211e-05
4.01834e-05
4.01462e-05
4.0112e-05
4.0109e-05
4.01171e-05
4.01267e-05
4.01424e-05
4.01671e-05
4.01828e-05
4.01852e-05
4.01837e-05
4.01983e-05
4.01963e-05
4.01961e-05
4.01754e-05
4.01692e-05
4.01869e-05
4.0227e-05
4.02604e-05
4.02624e-05
4.02372e-05
4.02189e-05
4.02158e-05
4.02268e-05
4.02482e-05
4.02721e-05
4.02933e-05
4.03239e-05
4.0365e-05
4.04055e-05
4.04351e-05
4.04492e-05
4.04479e-05
4.04373e-05
4.04222e-05
4.04115e-05
4.0408e-05
4.0411e-05
4.04187e-05
4.04304e-05
4.0224e-05
4.02261e-05
4.02262e-05
4.02178e-05
4.02017e-05
4.0184e-05
4.01747e-05
4.01741e-05
4.01822e-05
4.01995e-05
4.02228e-05
4.02324e-05
4.02232e-05
4.02017e-05
4.01923e-05
4.02013e-05
4.02114e-05
4.0201e-05
4.01809e-05
4.01476e-05
4.01142e-05
4.00914e-05
4.00918e-05
4.00998e-05
4.011e-05
4.0127e-05
4.01497e-05
4.01639e-05
4.01664e-05
4.01655e-05
4.01785e-05
4.01789e-05
4.0179e-05
4.01658e-05
4.01536e-05
4.01615e-05
4.01959e-05
4.02456e-05
4.02649e-05
4.0249e-05
4.02204e-05
4.02033e-05
4.0201e-05
4.0212e-05
4.02308e-05
4.02505e-05
4.02727e-05
4.0302e-05
4.03453e-05
4.03882e-05
4.04224e-05
4.0444e-05
4.04529e-05
4.04506e-05
4.04419e-05
4.04258e-05
4.04125e-05
4.0404e-05
4.04002e-05
4.02086e-05
4.01988e-05
4.01863e-05
4.01701e-05
4.01603e-05
4.01559e-05
4.01601e-05
4.01719e-05
4.0191e-05
4.02136e-05
4.02216e-05
4.02104e-05
4.01875e-05
4.01741e-05
4.01765e-05
4.01876e-05
4.01886e-05
4.01709e-05
4.01433e-05
4.01109e-05
4.00838e-05
4.00697e-05
4.00722e-05
4.00802e-05
4.00913e-05
4.01088e-05
4.01297e-05
4.01426e-05
4.01453e-05
4.01449e-05
4.01564e-05
4.01593e-05
4.01604e-05
4.01528e-05
4.01387e-05
4.01375e-05
4.01616e-05
4.02095e-05
4.02519e-05
4.0255e-05
4.02307e-05
4.02025e-05
4.01854e-05
4.0183e-05
4.01921e-05
4.0207e-05
4.02242e-05
4.02439e-05
4.0272e-05
4.03114e-05
4.03547e-05
4.03932e-05
4.04228e-05
4.04421e-05
4.04519e-05
4.04525e-05
4.04471e-05
4.04369e-05
4.0429e-05
4.01624e-05
4.01475e-05
4.01405e-05
4.01362e-05
4.01381e-05
4.0146e-05
4.01597e-05
4.01784e-05
4.01969e-05
4.02016e-05
4.01886e-05
4.01665e-05
4.01523e-05
4.01503e-05
4.01574e-05
4.0163e-05
4.01549e-05
4.01318e-05
4.01023e-05
4.0074e-05
4.00537e-05
4.00459e-05
4.00498e-05
4.00581e-05
4.007e-05
4.00877e-05
4.01068e-05
4.01185e-05
4.01214e-05
4.01215e-05
4.01315e-05
4.01365e-05
4.01389e-05
4.01355e-05
4.01227e-05
4.01149e-05
4.01277e-05
4.01661e-05
4.02128e-05
4.02392e-05
4.02333e-05
4.02079e-05
4.0182e-05
4.01658e-05
4.01617e-05
4.01672e-05
4.01781e-05
4.01917e-05
4.02088e-05
4.02325e-05
4.02625e-05
4.03008e-05
4.03407e-05
4.03763e-05
4.0405e-05
4.04258e-05
4.04394e-05
4.04458e-05
4.04489e-05
4.01181e-05
4.01094e-05
4.01115e-05
4.01169e-05
4.01264e-05
4.01391e-05
4.0154e-05
4.01656e-05
4.01665e-05
4.01547e-05
4.01384e-05
4.01249e-05
4.01212e-05
4.01253e-05
4.01305e-05
4.01283e-05
4.01128e-05
4.00871e-05
4.00596e-05
4.00367e-05
4.00227e-05
4.00193e-05
4.00244e-05
4.0033e-05
4.00456e-05
4.00631e-05
4.00805e-05
4.00913e-05
4.00942e-05
4.00948e-05
4.01036e-05
4.01099e-05
4.01138e-05
4.01136e-05
4.01039e-05
4.00928e-05
4.00956e-05
4.01215e-05
4.01631e-05
4.01994e-05
4.02134e-05
4.02045e-05
4.01828e-05
4.01601e-05
4.01441e-05
4.01375e-05
4.01388e-05
4.01451e-05
4.01546e-05
4.01675e-05
4.01844e-05
4.02067e-05
4.02338e-05
4.0264e-05
4.0299e-05
4.03322e-05
4.03612e-05
4.03842e-05
4.04034e-05
4.00845e-05
4.00809e-05
4.00877e-05
4.0096e-05
4.01055e-05
4.01144e-05
4.01198e-05
4.01191e-05
4.01123e-05
4.01012e-05
4.00915e-05
4.00875e-05
4.00896e-05
4.00937e-05
4.00937e-05
4.00842e-05
4.00643e-05
4.0039e-05
4.00154e-05
3.99983e-05
3.99896e-05
3.99894e-05
3.99952e-05
4.00044e-05
4.00175e-05
4.00344e-05
4.00504e-05
4.00603e-05
4.00634e-05
4.00642e-05
4.00719e-05
4.00791e-05
4.00845e-05
4.00868e-05