/*--------------------------------*- C++ -*----------------------------------*\
| =========                 |                                                 |
| \\      /  F ield         | OpenFOAM: The Open Source CFD Toolbox           |
|  \\    /   O peration     | Version:  2312                                  |
|   \\  /    A nd           | Website:  www.openfoam.com                      |
|    \\/     M anipulation  |                                                 |
\*---------------------------------------------------------------------------*/
FoamFile
{
    version     2.0;
    format      ascii;
    arch        "LSB;label=32;scalar=64";
    class       volScalarField;
    location    "1700";
    object      p;
}
// * * * * * * * * * * * * * * * * * * * * * * * * * * * * * * * * * * * * * //

dimensions      [0 2 -2 0 0 0 0];

internalField   nonuniform List<scalar> 
76025
(
0.000118362
0.000112916
0.00010715
0.000101522
9.58761e-05
9.01579e-05
8.39978e-05
7.82244e-05
7.22587e-05
6.63944e-05
6.03293e-05
5.40753e-05
4.76523e-05
4.1178e-05
3.46262e-05
2.81033e-05
2.16521e-05
1.50323e-05
8.38385e-06
1.96607e-06
-4.4782e-06
-1.12224e-05
-1.79845e-05
-2.47495e-05
-3.15842e-05
-3.8385e-05
-4.53998e-05
-5.25701e-05
-5.93243e-05
-6.65316e-05
-7.3173e-05
-8.02267e-05
-8.77419e-05
-9.50369e-05
-0.000101976
-0.000108561
-0.000115099
-0.000121952
-0.000128961
-0.00013591
-0.000142494
-0.000148993
-0.000155852
-0.000163051
-0.000169479
-0.000176002
-0.000182546
-0.000189735
-0.00019626
-0.000202859
-0.000209477
-0.000215975
-0.000222926
-0.000230336
-0.000237797
-0.000245687
-0.00025416
-0.000263708
-0.000274101
-0.000285229
-0.000297912
-0.000313607
-0.000333177
-0.000355609
-0.000382836
-0.000418171
-0.000459718
-0.000511252
-0.000582184
0.000120403
0.000114533
0.000108537
0.00010261
9.66746e-05
9.06248e-05
8.45646e-05
7.84918e-05
7.22989e-05
6.60001e-05
5.95623e-05
5.30609e-05
4.65215e-05
3.99577e-05
3.33789e-05
2.68172e-05
2.01193e-05
1.3457e-05
6.71146e-06
6.74753e-08
-6.74095e-06
-1.35633e-05
-2.04149e-05
-2.73154e-05
-3.43077e-05
-4.13756e-05
-4.84687e-05
-5.54245e-05
-6.23928e-05
-6.94181e-05
-7.64372e-05
-8.37305e-05
-9.09461e-05
-9.79037e-05
-0.000104832
-0.000111659
-0.000118574
-0.000125401
-0.00013218
-0.000138984
-0.000145626
-0.000152286
-0.000158874
-0.000165406
-0.000171829
-0.000178252
-0.000184708
-0.000191195
-0.000197549
-0.000203845
-0.000210108
-0.000216323
-0.000222651
-0.000229142
-0.000235776
-0.000242818
-0.000250371
-0.000258566
-0.000267495
-0.000277406
-0.000288985
-0.0003034
-0.000321001
-0.000342323
-0.000368881
-0.000402779
-0.00044481
-0.000497511
-0.000566802
0.000123156
0.000117019
0.00011075
0.000104537
9.83379e-05
9.21294e-05
8.58547e-05
7.94793e-05
7.30096e-05
6.64456e-05
5.98179e-05
5.31596e-05
4.64775e-05
3.9775e-05
3.30502e-05
2.62506e-05
1.93994e-05
1.25133e-05
5.60898e-06
-1.32983e-06
-8.30293e-06
-1.52919e-05
-2.23182e-05
-2.93913e-05
-3.65032e-05
-4.36352e-05
-5.07393e-05
-5.78384e-05
-6.49858e-05
-7.21776e-05
-7.94285e-05
-8.66824e-05
-9.38274e-05
-0.000100867
-0.000107858
-0.000114778
-0.000121629
-0.000128387
-0.000135103
-0.000141791
-0.000148387
-0.000154897
-0.000161326
-0.000167724
-0.000174067
-0.000180313
-0.000186471
-0.000192562
-0.000198559
-0.000204417
-0.000210161
-0.000215818
-0.000221453
-0.000227144
-0.000232936
-0.000238917
-0.000245192
-0.000251951
-0.000259394
-0.000267847
-0.000277876
-0.000290251
-0.000305743
-0.000325277
-0.00035024
-0.00038247
-0.000424031
-0.000477181
-0.00054676
0.000125858
0.000119445
0.00011289
0.000106404
9.99553e-05
9.34826e-05
8.69284e-05
8.02749e-05
7.354e-05
6.67441e-05
5.99042e-05
5.30277e-05
4.61141e-05
3.91586e-05
3.2159e-05
2.51124e-05
1.80321e-05
1.09252e-05
3.80006e-06
-3.34418e-06
-1.05048e-05
-1.76868e-05
-2.48922e-05
-3.21177e-05
-3.93567e-05
-4.66064e-05
-5.38687e-05
-6.11532e-05
-6.84622e-05
-7.57951e-05
-8.3132e-05
-9.04105e-05
-9.75937e-05
-0.000104672
-0.000111648
-0.000118524
-0.000125308
-0.000132015
-0.00013866
-0.000145243
-0.000151744
-0.000158153
-0.000164474
-0.000170706
-0.000176826
-0.000182811
-0.000188667
-0.000194398
-0.000199984
-0.000205392
-0.000210624
-0.000215694
-0.000220623
-0.000225453
-0.000230224
-0.000235004
-0.000239903
-0.000245092
-0.000250783
-0.000257312
-0.000265201
-0.000275177
-0.000288106
-0.000305065
-0.000327549
-0.000357481
-0.000397519
-0.000449948
-0.000519763
0.000128092
0.000121369
0.000114502
0.000107715
0.000100975
9.42133e-05
8.7376e-05
8.04467e-05
7.34402e-05
6.63796e-05
5.92791e-05
5.21423e-05
4.49686e-05
3.7758e-05
3.0514e-05
2.3244e-05
1.59539e-05
8.6493e-06
1.33373e-06
-5.9903e-06
-1.33229e-05
-2.06646e-05
-2.80136e-05
-3.5369e-05
-4.27309e-05
-5.01008e-05
-5.7479e-05
-6.48628e-05
-7.225e-05
-7.9642e-05
-8.701e-05
-9.42991e-05
-0.000101477
-0.000108533
-0.000115469
-0.000122302
-0.000129046
-0.000135713
-0.000142306
-0.000148821
-0.000155244
-0.000161557
-0.000167747
-0.000173805
-0.000179715
-0.000185465
-0.000191041
-0.000196433
-0.000201616
-0.000206561
-0.000211248
-0.000215667
-0.000219817
-0.000223711
-0.000227373
-0.000230848
-0.000234218
-0.000237618
-0.00024126
-0.00024547
-0.000250743
-0.00025777
-0.000267465
-0.000281021
-0.000300084
-0.000326774
-0.00036429
-0.000415187
-0.00048519
0.000129987
0.000122929
0.000115731
0.000108626
0.000101581
9.45226e-05
8.73969e-05
8.01843e-05
7.28987e-05
6.55644e-05
5.8197e-05
5.08015e-05
4.33786e-05
3.59306e-05
2.84624e-05
2.09802e-05
1.34888e-05
5.99231e-06
-1.50645e-06
-9.00549e-06
-1.65035e-05
-2.39995e-05
-3.14927e-05
-3.89831e-05
-4.6471e-05
-5.39562e-05
-6.14377e-05
-6.89151e-05
-7.63898e-05
-8.38598e-05
-9.12822e-05
-9.86031e-05
-0.000105794
-0.000112848
-0.000119777
-0.000126596
-0.000133319
-0.000139953
-0.000146497
-0.00015294
-0.000159267
-0.00016546
-0.000171504
-0.000177384
-0.000183086
-0.00018859
-0.000193877
-0.000198922
-0.000203697
-0.000208163
-0.000212283
-0.000216024
-0.000219359
-0.00022227
-0.000224747
-0.000226801
-0.000228476
-0.00022987
-0.00023116
-0.000232639
-0.000234763
-0.0002382
-0.000243886
-0.000253098
-0.000267644
-0.000289949
-0.000323856
-0.00037237
-0.000441573
0.000131582
0.000124168
0.000116619
0.00010918
0.000101814
9.44465e-05
8.70185e-05
7.95093e-05
7.19331e-05
6.43157e-05
5.66743e-05
4.90149e-05
4.13385e-05
3.36474e-05
2.59462e-05
1.82408e-05
1.05362e-05
2.83617e-06
-4.85637e-06
-1.25392e-05
-2.02106e-05
-2.78691e-05
-3.5514e-05
-4.31448e-05
-5.07613e-05
-5.83635e-05
-6.5952e-05
-7.35282e-05
-8.10936e-05
-8.86358e-05
-9.6099e-05
-0.000103434
-0.000110619
-0.000117656
-0.000124558
-0.000131343
-0.000138022
-0.000144601
-0.000151074
-0.000157431
-0.000163654
-0.000169726
-0.000175629
-0.000181344
-0.00018685
-0.000192124
-0.000197137
-0.000201858
-0.000206245
-0.000210247
-0.000213807
-0.000216868
-0.000219373
-0.000221266
-0.000222499
-0.000223037
-0.000222872
-0.000222048
-0.000220684
-0.000219013
-0.000217435
-0.000216576
-0.000217369
-0.00022115
-0.000229925
-0.000246554
-0.000275725
-0.000321001
-0.000388507
0.000132775
0.000124984
0.000117064
0.00010927
0.000101563
9.38648e-05
8.61148e-05
7.82904e-05
7.04065e-05
6.24905e-05
5.45609e-05
4.66244e-05
3.86825e-05
3.0737e-05
2.27928e-05
1.48557e-05
6.9313e-06
-9.76263e-07
-8.86387e-06
-1.67291e-05
-2.45701e-05
-3.23853e-05
-4.01737e-05
-4.7935e-05
-5.56692e-05
-6.33772e-05
-7.10606e-05
-7.87204e-05
-8.63576e-05
-9.39452e-05
-0.000101423
-0.00010875
-0.000115914
-0.000122923
-0.000129793
-0.00013654
-0.000143177
-0.000149704
-0.000156115
-0.000162396
-0.000168529
-0.000174494
-0.000180269
-0.000185833
-0.00019116
-0.000196222
-0.000200984
-0.000205405
-0.000209431
-0.000212994
-0.000216019
-0.000218419
-0.000220105
-0.000220979
-0.000220942
-0.000219903
-0.000217786
-0.000214558
-0.000210253
-0.000205019
-0.000199167
-0.000193249
-0.00018816
-0.000185289
-0.000186892
-0.000196466
-0.000219778
-0.00026095
-0.000325834
0.000133466
0.000125277
0.000116965
0.000108796
0.000100728
9.26795e-05
8.45883e-05
7.64309e-05
6.82232e-05
5.99942e-05
5.1764e-05
4.35402e-05
3.53242e-05
2.71182e-05
1.8927e-05
1.0757e-05
2.614e-06
-5.49746e-06
-1.35743e-05
-2.16141e-05
-2.96154e-05
-3.75767e-05
-4.54974e-05
-5.33776e-05
-6.1218e-05
-6.90201e-05
-7.67859e-05
-8.45169e-05
-9.22104e-05
-9.98237e-05
-0.0001073
-0.000114609
-0.000121747
-0.000128725
-0.000135562
-0.000142273
-0.000148867
-0.000155343
-0.000161693
-0.000167901
-0.000173947
-0.00017981
-0.000185467
-0.000190893
-0.000196062
-0.00020094
-0.000205486
-0.000209649
-0.000213362
-0.000216541
-0.000219086
-0.000220883
-0.000221803
-0.000221701
-0.00022042
-0.000217796
-0.000213668
-0.000207901
-0.000200418
-0.000191239
-0.000180547
-0.000168771
-0.000156736
-0.000145878
-0.000138825
-0.000140033
-0.000156526
-0.000192762
-0.000254007
0.000133575
0.000124967
0.000116241
0.000107676
9.92276e-05
9.08113e-05
8.23622e-05
7.38565e-05
6.53112e-05
5.6757e-05
4.82157e-05
3.96958e-05
3.11989e-05
2.27275e-05
1.42867e-05
5.88306e-06
-2.47721e-06
-1.07896e-05
-1.90511e-05
-2.72597e-05
-3.54142e-05
-4.35137e-05
-5.1558e-05
-5.95477e-05
-6.74842e-05
-7.53695e-05
-8.32061e-05
-9.09964e-05
-9.87281e-05
-0.000106347
-0.000113805
-0.000121083
-0.000128184
-0.000135123
-0.000141919
-0.000148587
-0.000155135
-0.000161558
-0.000167846
-0.000173983
-0.000179949
-0.000185722
-0.000191278
-0.000196594
-0.000201638
-0.000206374
-0.000210755
-0.000214721
-0.000218192
-0.000221066
-0.000223222
-0.000224515
-0.000224773
-0.000223799
-0.000221367
-0.000217227
-0.000211112
-0.000202761
-0.000191945
-0.00017851
-0.000162455
-0.000144031
-0.000123946
-0.000103722
-8.65917e-05
-7.8369e-05
-8.74396e-05
-0.000118467
-0.000177056
0.000133007
0.000123953
0.000114791
0.000105809
9.69599e-05
8.81573e-05
7.93337e-05
7.04647e-05
6.15681e-05
5.26767e-05
4.3814e-05
3.49893e-05
2.6205e-05
1.74636e-05
8.77044e-06
1.32519e-07
-8.44384e-06
-1.69541e-05
-2.53953e-05
-3.37661e-05
-4.20653e-05
-5.02928e-05
-5.8449e-05
-6.65351e-05
-7.45532e-05
-8.25064e-05
-9.03975e-05
-9.82287e-05
-0.000105972
-0.000113571
-0.000120991
-0.000128221
-0.000135271
-0.000142161
-0.000148909
-0.00015553
-0.000162026
-0.000168395
-0.000174624
-0.000180696
-0.000186591
-0.00019229
-0.000197769
-0.000203004
-0.000207964
-0.000212609
-0.000216889
-0.000220736
-0.00022406
-0.000226744
-0.000228643
-0.000229582
-0.000229347
-0.000227683
-0.000224287
-0.000218808
-0.000210856
-0.000200007
-0.000185838
-0.000167967
-0.000146137
-0.000120349
-9.11667e-05
-6.03027e-05
-3.19638e-05
-1.3667e-05
-1.52041e-05
-4.16649e-05
-0.000100934
0.000131644
0.000122117
0.000112491
0.000103068
9.37977e-05
8.45894e-05
7.53738e-05
6.61257e-05
5.68639e-05
4.76233e-05
3.84293e-05
2.92926e-05
2.02157e-05
1.12017e-05
2.25595e-06
-6.61418e-06
-1.54022e-05
-2.41034e-05
-3.27153e-05
-4.12367e-05
-4.96672e-05
-5.80073e-05
-6.62582e-05
-7.44223e-05
-8.25027e-05
-9.05036e-05
-9.84289e-05
-0.000106275
-0.000114
-0.000121554
-0.000128913
-0.000136079
-0.000143067
-0.000149897
-0.000156589
-0.000163155
-0.000169597
-0.000175908
-0.000182078
-0.000188089
-0.000193925
-0.000199566
-0.000204992
-0.000210181
-0.000215103
-0.000219719
-0.000223977
-0.000227804
-0.000231103
-0.000233746
-0.000235569
-0.000236367
-0.000235886
-0.000233812
-0.000229759
-0.000223267
-0.000213795
-0.000200728
-0.000183399
-0.000161129
-0.000133321
-9.9655e-05
-6.05492e-05
-1.81273e-05
2.1989e-05
5.03627e-05
5.57166e-05
3.25504e-05
-2.79856e-05
0.00012935
0.000119318
0.0001092
9.93119e-05
8.95969e-05
7.99621e-05
7.03358e-05
6.0692e-05
5.10509e-05
4.14497e-05
3.19159e-05
2.24612e-05
1.3089e-05
3.80236e-06
-5.393e-06
-1.44896e-05
-2.34807e-05
-3.23617e-05
-4.11304e-05
-4.97863e-05
-5.83297e-05
-6.67623e-05
-7.50864e-05
-8.33057e-05
-9.14249e-05
-9.94492e-05
-0.000107384
-0.000115213
-0.000122886
-0.000130367
-0.000137644
-0.000144726
-0.000151636
-0.000158393
-0.000165018
-0.000171519
-0.000177897
-0.000184146
-0.000190254
-0.000196207
-0.000201991
-0.000207591
-0.00021299
-0.000218171
-0.000223107
-0.000227764
-0.000232091
-0.000236016
-0.000239439
-0.000242227
-0.000244203
-0.000245142
-0.000244754
-0.000242669
-0.00023842
-0.000231427
-0.000220985
-0.000206254
-0.000186271
-0.000159984
-0.000126367
-8.47115e-05
-3.53485e-05
1.88609e-05
7.05453e-05
0.000108143
0.000119058
9.78316e-05
3.65052e-05
0.000125969
0.000115399
0.00010476
9.43774e-05
8.41932e-05
7.41095e-05
6.4053e-05
5.39967e-05
4.39623e-05
3.39895e-05
2.41082e-05
1.43316e-05
4.66357e-06
-4.8928e-06
-1.43315e-05
-2.36448e-05
-3.2826e-05
-4.18708e-05
-5.07774e-05
-5.9546e-05
-6.81783e-05
-7.66771e-05
-8.50465e-05
-9.32916e-05
-0.000101419
-0.000109436
-0.000117345
-0.000125114
-0.000132698
-0.000140073
-0.000147241
-0.000154219
-0.000161031
-0.0001677
-0.000174241
-0.000180664
-0.000186967
-0.000193145
-0.000199187
-0.000205083
-0.000210822
-0.000216395
-0.000221793
-0.000227004
-0.000232008
-0.00023678
-0.000241274
-0.000245428
-0.000249146
-0.000252298
-0.000254709
-0.000256143
-0.000256286
-0.000254726
-0.000250922
-0.00024418
-0.000233621
-0.000218159
-0.000196485
-0.000167096
-0.000128442
-7.9376e-05
-2.02664e-05
4.49793e-05
0.000107002
0.000152124
0.000167293
0.000147408
8.57173e-05
0.000121314
0.000110172
9.89768e-05
8.80712e-05
7.73908e-05
6.68347e-05
5.63271e-05
4.58407e-05
3.53987e-05
2.50437e-05
1.48082e-05
4.70697e-06
-5.25561e-06
-1.50762e-05
-2.47486e-05
-3.42652e-05
-4.36192e-05
-5.28066e-05
-6.18264e-05
-7.068e-05
-7.93706e-05
-8.79026e-05
-9.62822e-05
-0.000104517
-0.000112615
-0.000120586
-0.000128423
-0.000136082
-0.000143533
-0.000150765
-0.000157792
-0.000164638
-0.000171327
-0.000177883
-0.000184321
-0.000190647
-0.000196859
-0.000202952
-0.000208918
-0.000214751
-0.000220447
-0.000226003
-0.000231419
-0.000236691
-0.000241813
-0.000246769
-0.00025153
-0.000256046
-0.000260241
-0.000264002
-0.000267169
-0.000269517
-0.000270731
-0.00027038
-0.000267874
-0.000262426
-0.000253
-0.000238252
-0.000216489
-0.000185671
-0.000143617
-8.86867e-05
-2.14369e-05
5.2895e-05
0.000122859
0.000173443
0.000192534
0.000175102
0.00011563
0.00011517
0.000103415
9.16296e-05
8.01687e-05
6.89641e-05
5.79109e-05
4.69314e-05
3.59978e-05
2.51351e-05
1.43892e-05
3.7955e-06
-6.62952e-06
-1.68807e-05
-2.69546e-05
-3.68448e-05
-4.65438e-05
-5.60449e-05
-6.53446e-05
-7.44428e-05
-8.33425e-05
-9.20488e-05
-0.000100568
-0.00010891
-0.000117084
-0.000125102
-0.000132972
-0.000140671
-0.000148163
-0.00015543
-0.000162479
-0.000169331
-0.000176014
-0.000182555
-0.000188976
-0.000195288
-0.000201496
-0.000207599
-0.00021359
-0.000219468
-0.000225229
-0.000230877
-0.000236417
-0.000241861
-0.000247215
-0.00025249
-0.000257687
-0.000262798
-0.000267801
-0.00027265
-0.000277267
-0.000281532
-0.00028526
-0.000288173
-0.000289863
-0.000289745
-0.000286989
-0.00028044
-0.000268506
-0.000249057
-0.000219388
-0.000176509
-0.000118259
-4.56217e-05
3.46636e-05
0.000109573
0.000164114
0.000186939
0.000171748
0.000111645
0.000107268
9.48583e-05
8.24411e-05
7.03889e-05
5.86282e-05
4.70501e-05
3.5575e-05
2.41747e-05
1.28765e-05
1.7297e-06
-9.22683e-06
-1.99747e-05
-3.05078e-05
-4.08223e-05
-5.09121e-05
-6.07694e-05
-7.03878e-05
-7.97647e-05
-8.89012e-05
-9.78022e-05
-0.000106475
-0.00011493
-0.00012318
-0.000131237
-0.000139116
-0.000146817
-0.000154307
-0.000161563
-0.000168588
-0.000175399
-0.000182026
-0.000188501
-0.000194852
-0.000201097
-0.000207246
-0.000213301
-0.000219261
-0.000225123
-0.000230885
-0.000236551
-0.000242132
-0.000247643
-0.000253104
-0.000258541
-0.000263979
-0.000269444
-0.000274958
-0.000280534
-0.000286175
-0.000291864
-0.000297551
-0.000303136
-0.000308437
-0.000313144
-0.000316759
-0.000318489
-0.000317106
-0.000310749
-0.000296707
-0.000271367
-0.00023081
-0.000172545
-9.81427e-05
-1.5501e-05
6.17147e-05
0.000118793
0.00014358
0.000129417
7.32166e-05
9.73164e-05
8.42072e-05
7.11185e-05
5.84402e-05
4.60938e-05
3.39666e-05
2.19769e-05
1.00965e-05
-1.64494e-06
-1.31939e-05
-2.45078e-05
-3.55658e-05
-4.63606e-05
-5.68882e-05
-6.71422e-05
-7.71149e-05
-8.68003e-05
-9.61965e-05
-0.000105307
-0.000114138
-0.0001227
-0.000131009
-0.000139079
-0.00014693
-0.000154577
-0.000162006
-0.000169195
-0.000176141
-0.00018286
-0.000189384
-0.000195747
-0.000201983
-0.000208116
-0.000214162
-0.000220126
-0.000226009
-0.000231807
-0.000237518
-0.000243144
-0.000248694
-0.000254184
-0.00025964
-0.000265096
-0.00027059
-0.00027617
-0.000281888
-0.000287801
-0.000293971
-0.000300468
-0.000307363
-0.000314728
-0.000322612
-0.000331016
-0.000339834
-0.000348747
-0.000357059
-0.000363435
-0.000365558
-0.000359866
-0.000341759
-0.000306611
-0.000251701
-0.000179049
-9.74037e-05
-2.11101e-05
3.43865e-05
5.67296e-05
4.16103e-05
-9.32948e-06
8.48818e-05
7.10143e-05
5.71975e-05
4.38421e-05
3.08645e-05
1.8148e-05
5.60895e-06
-6.78058e-06
-1.89881e-05
-3.09552e-05
-4.26349e-05
-5.40033e-05
-6.50519e-05
-7.57758e-05
-8.61686e-05
-9.62228e-05
-0.000105933
-0.000115298
-0.000124323
-0.00013302
-0.000141403
-0.00014949
-0.000157305
-0.000164868
-0.000172185
-0.000179237
-0.000186021
-0.000192555
-0.000198872
-0.000205014
-0.000211023
-0.000216932
-0.000222765
-0.000228534
-0.000234241
-0.000239884
-0.000245458
-0.000250959
-0.000256391
-0.000261767
-0.00026711
-0.000272452
-0.000277837
-0.000283319
-0.000288963
-0.000294846
-0.000301063
-0.000307735
-0.000315019
-0.000323121
-0.000332293
-0.000342824
-0.000354998
-0.000368999
-0.000384723
-0.000401465
-0.000417515
-0.000429844
-0.00043412
-0.000424986
-0.00039707
-0.000347587
-0.000279577
-0.000203158
-0.000134099
-8.8783e-05
-7.57242e-05
-9.36728e-05
-0.000140058
6.97014e-05
5.50335e-05
4.04561e-05
2.63983e-05
1.27716e-05
-5.44462e-07
-1.36354e-05
-2.65289e-05
-3.9189e-05
-5.15518e-05
-6.35649e-05
-7.52007e-05
-8.64486e-05
-9.73027e-05
-0.000107756
-0.000117801
-0.000127432
-0.000136649
-0.000145462
-0.000153883
-0.000161933
-0.000169638
-0.000177028
-0.000184129
-0.00019094
-0.000197464
-0.00020372
-0.000209749
-0.000215599
-0.000221319
-0.000226953
-0.000232532
-0.000238074
-0.000243583
-0.000249055
-0.000254479
-0.000259844
-0.000265145
-0.000270383
-0.000275572
-0.000280739
-0.000285924
-0.000291176
-0.000296558
-0.000302146
-0.000308037
-0.000314362
-0.000321309
-0.000329152
-0.000338271
-0.000349171
-0.000362455
-0.000378755
-0.000398525
-0.000421693
-0.000447226
-0.000472911
-0.000495254
-0.000509133
-0.000508086
-0.000486589
-0.000443385
-0.000383517
-0.000318773
-0.000266244
-0.000240618
-0.000243663
-0.000267606
-0.000311632
5.0698e-05
3.51245e-05
1.96741e-05
4.81037e-06
-9.55959e-06
-2.35609e-05
-3.72805e-05
-5.07453e-05
-6.39151e-05
-7.67195e-05
-8.91e-05
-0.000101024
-0.00011248
-0.000123458
-0.000133954
-0.000143957
-0.000153465
-0.000162479
-0.000171011
-0.000179081
-0.000186716
-0.000193948
-0.000200808
-0.000207308
-0.000213456
-0.000219279
-0.000224825
-0.000230156
-0.00023534
-0.000240437
-0.000245497
-0.000250553
-0.00025562
-0.000260698
-0.000265774
-0.00027083
-0.000275847
-0.000280815
-0.000285731
-0.000290609
-0.000295479
-0.000300381
-0.000305363
-0.000310486
-0.000315817
-0.000321456
-0.000327557
-0.000334372
-0.000342299
-0.000351916
-0.000364004
-0.000379498
-0.000399315
-0.000424008
-0.000453378
-0.00048626
-0.000520137
-0.000550307
-0.000570083
-0.00057308
-0.000556075
-0.000520521
-0.00047307
-0.000426766
-0.000398359
-0.00039816
-0.000421375
-0.000455107
-0.000498245
2.86679e-05
1.21809e-05
-4.11535e-06
-1.97547e-05
-3.4834e-05
-4.948e-05
-6.37801e-05
-7.77598e-05
-9.13734e-05
-0.000104542
-0.000117199
-0.000129304
-0.000140841
-0.000151799
-0.000162169
-0.00017194
-0.000181109
-0.000189678
-0.000197662
-0.000205087
-0.000211989
-0.000218419
-0.000224414
-0.000230001
-0.000235221
-0.000240138
-0.000244832
-0.000249388
-0.000253889
-0.000258404
-0.000262983
-0.000267651
-0.000272411
-0.000277246
-0.000282122
-0.000287
-0.000291843
-0.000296626
-0.000301344
-0.000306014
-0.000310675
-0.000315373
-0.000320149
-0.000325037
-0.000330061
-0.000335274
-0.000340805
-0.000346936
-0.00035417
-0.00036324
-0.00037515
-0.000391083
-0.000412236
-0.000439596
-0.000473474
-0.000512252
-0.000551232
-0.000583591
-0.000603179
-0.000606615
-0.000593684
-0.000567332
-0.000535127
-0.000510661
-0.000508249
-0.000533118
-0.000575927
-0.00061959
-0.000659962
-7.88667e-07
-1.8387e-05
-3.57908e-05
-5.24381e-05
-6.8429e-05
-8.39007e-05
-9.89436e-05
-0.000113582
-0.000127767
-0.000141409
-0.000154435
-0.000166797
-0.000178473
-0.00018945
-0.000199716
-0.00020926
-0.000218077
-0.000226172
-0.000233565
-0.000240285
-0.000246369
-0.000251853
-0.000256771
-0.000261174
-0.000265142
-0.000268779
-0.000272204
-0.000275539
-0.000278894
-0.000282362
-0.000286007
-0.000289859
-0.000293915
-0.00029814
-0.000302473
-0.000306845
-0.000311192
-0.000315476
-0.000319699
-0.000323906
-0.00032817
-0.000332557
-0.000337087
-0.000341714
-0.000346343
-0.000350885
-0.000355329
-0.00035992
-0.000365243
-0.000372035
-0.000381431
-0.00039517
-0.00041561
-0.000444911
-0.000482522
-0.000523564
-0.000560981
-0.000589238
-0.000605451
-0.000608719
-0.000599871
-0.000582413
-0.000565156
-0.000560949
-0.00058045
-0.000624975
-0.000683091
-0.000735659
-0.000775556
-3.05789e-05
-4.93049e-05
-6.76663e-05
-8.52023e-05
-0.000102012
-0.000118218
-0.000133902
-0.000149085
-0.000163708
-0.000177669
-0.000190881
-0.000203286
-0.000214853
-0.000225562
-0.000235395
-0.000244334
-0.000252371
-0.00025951
-0.000265776
-0.000271219
-0.000275898
-0.000279867
-0.000283193
-0.00028598
-0.000288358
-0.000290483
-0.000292519
-0.000294629
-0.00029696
-0.00029963
-0.000302715
-0.000306242
-0.000310179
-0.000314438
-0.000318887
-0.000323376
-0.000327773
-0.000332007
-0.000336106
-0.000340193
-0.000344438
-0.00034896
-0.000353721
-0.000358519
-0.000363067
-0.000367017
-0.000369958
-0.000372032
-0.000374202
-0.000377229
-0.000382707
-0.00039428
-0.000415294
-0.000446345
-0.000483202
-0.00051961
-0.000550718
-0.00057364
-0.000586767
-0.00058959
-0.000583419
-0.000572947
-0.000567448
-0.000577911
-0.000611586
-0.000667877
-0.000735766
-0.000796681
-0.00083999
-7.82458e-05
-9.82366e-05
-0.000118021
-0.000136816
-0.000154729
-0.000171926
-0.000188502
-0.000204472
-0.000219768
-0.000234274
-0.000247883
-0.000260523
-0.000272152
-0.00028274
-0.000292262
-0.000300693
-0.000308013
-0.000314212
-0.000319295
-0.000323285
-0.000326225
-0.000328191
-0.0003293
-0.000329713
-0.000329626
-0.000329264
-0.000328865
-0.000328668
-0.000328899
-0.000329743
-0.000331324
-0.000333684
-0.000336757
-0.000340362
-0.000344218
-0.000347991
-0.000351399
-0.000354327
-0.000356927
-0.000359607
-0.000362851
-0.000366902
-0.000371448
-0.000375856
-0.000379628
-0.000382213
-0.000382286
-0.000379826
-0.000377838
-0.000378164
-0.000382582
-0.000395382
-0.000416961
-0.000444768
-0.000475342
-0.000505029
-0.000530361
-0.000548749
-0.000558738
-0.00056023
-0.000555051
-0.000548569
-0.00054961
-0.000567149
-0.000606291
-0.000666182
-0.000737666
-0.000804171
-0.000852917
-0.00011568
-0.000137368
-0.000158324
-0.000178218
-0.000197154
-0.00021523
-0.000232528
-0.000249071
-0.00026479
-0.000279556
-0.000293242
-0.000305756
-0.000317034
-0.000327033
-0.000335718
-0.000343067
-0.00034907
-0.000353723
-0.000357036
-0.000359028
-0.000359752
-0.00035932
-0.0003579
-0.00035572
-0.000353055
-0.000350225
-0.000347583
-0.000345497
-0.000344323
-0.000344366
-0.000345833
-0.000348776
-0.000353035
-0.0003582
-0.000363615
-0.000368475
-0.000372087
-0.000374215
-0.000375299
-0.000376398
-0.000378713
-0.00038267
-0.000386965
-0.000389764
-0.000390889
-0.000391105
-0.000388606
-0.000382822
-0.000379303
-0.000381415
-0.000388406
-0.000400031
-0.000417041
-0.00043907
-0.000463808
-0.000487905
-0.000508076
-0.000521804
-0.000527813
-0.000526349
-0.000519627
-0.000513102
-0.000514713
-0.000532144
-0.000570073
-0.000628108
-0.000699004
-0.000768567
-0.000823657
-0.000193288
-0.000216434
-0.000239497
-0.000261284
-0.000281845
-0.00030136
-0.000319932
-0.000337573
-0.000354197
-0.00036966
-0.00038382
-0.000396556
-0.000407752
-0.000417282
-0.000425043
-0.00043098
-0.000435044
-0.000437191
-0.000437426
-0.000435814
-0.000432479
-0.000427606
-0.000421438
-0.000414279
-0.000406496
-0.000398527
-0.000390873
-0.000384096
-0.000378796
-0.000375576
-0.000374963
-0.000377287
-0.000382518
-0.000390081
-0.000398708
-0.000406504
-0.000411525
-0.000412795
-0.000410858
-0.000407647
-0.000405759
-0.000406821
-0.000408791
-0.00040815
-0.000405144
-0.000402676
-0.000401138
-0.000399508
-0.000397882
-0.000397767
-0.000400835
-0.000407968
-0.000419627
-0.000435466
-0.000453868
-0.00047192
-0.000486172
-0.000493746
-0.00049342
-0.000485753
-0.000473249
-0.000461181
-0.000457039
-0.000468964
-0.000502308
-0.000557054
-0.000627197
-0.000700248
-0.000762803
-0.000241834
-0.000266643
-0.000290146
-0.000312678
-0.000334278
-0.000354844
-0.000374375
-0.000392853
-0.000410154
-0.000426113
-0.000440619
-0.00045368
-0.000465265
-0.000475182
-0.00048318
-0.000488991
-0.000492393
-0.000493248
-0.000491472
-0.000487035
-0.000479973
-0.000470404
-0.000458543
-0.000444738
-0.000429491
-0.000413481
-0.00039758
-0.000382839
-0.000370449
-0.000361647
-0.000357586
-0.000359096
-0.000366361
-0.000378547
-0.000393442
-0.000407458
-0.000416812
-0.000419845
-0.000417365
-0.000411932
-0.000407222
-0.000406231
-0.000408217
-0.000410508
-0.000411257
-0.000410862
-0.000410681
-0.000411093
-0.000411628
-0.000412339
-0.000413728
-0.000416435
-0.000421491
-0.000429714
-0.000440743
-0.000452344
-0.000460792
-0.000462162
-0.000454395
-0.000438096
-0.00041624
-0.000394729
-0.000382032
-0.000387163
-0.000415039
-0.000465996
-0.000535839
-0.000613158
-0.000683827
-0.000365375
-0.000393497
-0.000420814
-0.00044598
-0.000469268
-0.000491193
-0.000511943
-0.000531383
-0.000549208
-0.000565059
-0.000578581
-0.000589425
-0.000597424
-0.000602664
-0.000605278
-0.000605333
-0.000602812
-0.000597628
-0.000589651
-0.000578758
-0.000564874
-0.000548026
-0.000528391
-0.000506339
-0.000482471
-0.000457638
-0.000432942
-0.000409699
-0.000389368
-0.000373421
-0.000363155
-0.000359475
-0.000362621
-0.00037186
-0.000385194
-0.000399332
-0.000410823
-0.000417875
-0.000420411
-0.000419196
-0.000415691
-0.000411943
-0.000409529
-0.000408281
-0.000407679
-0.000408136
-0.000409969
-0.000412437
-0.000414413
-0.00041577
-0.000416899
-0.000418214
-0.000420404
-0.000424234
-0.000429712
-0.000435422
-0.000438581
-0.000435708
-0.000423576
-0.000400918
-0.000371181
-0.000343053
-0.000326932
-0.000326668
-0.000344972
-0.000389059
-0.000457808
-0.000537221
-0.000612837
-1.61721e-05
-7.2607e-06
1.96123e-06
1.1442e-05
2.141e-05
3.19893e-05
4.3111e-05
5.45132e-05
6.61454e-05
7.83489e-05
9.11033e-05
0.000104158
0.000117311
0.000131438
0.000145037
0.00015886
0.000172124
0.000185989
0.000199242
0.000212161
0.000225614
0.000237409
0.00024826
0.000258468
0.000267803
0.000275816
0.00028203
0.000287094
0.000291141
0.00029319
0.000293778
0.000293446
0.000292064
0.00028938
0.000285047
0.000279951
0.000274056
0.000267174
0.000259848
0.000252332
0.000243702
0.000234711
0.000226415
0.000218324
0.000209248
0.000200869
0.000192282
0.000184393
0.000176698
0.000169442
0.000162546
0.000155961
0.000150002
0.000144423
0.000139256
0.000134151
0.000129783
0.000125765
0.000122295
-1.76389e-05
-8.38703e-06
1.24784e-06
1.12972e-05
2.18068e-05
3.28027e-05
4.42962e-05
5.62381e-05
6.86078e-05
8.14592e-05
9.47219e-05
0.00010831
0.000122204
0.000136505
0.000150913
0.000165318
0.00017971
0.000194027
0.000208053
0.000221556
0.000235036
0.000247443
0.000258941
0.00026966
0.000279209
0.000287362
0.000293998
0.000299025
0.00030297
0.000305093
0.00030564
0.00030517
0.000303551
0.000300472
0.000296112
0.000290747
0.000284495
0.000277318
0.000269494
0.000261213
0.000252238
0.000243048
0.000234054
0.000224853
0.000215736
0.000206746
0.000198037
0.000189768
0.000181727
0.000174035
0.000166777
0.00015993
0.000153457
0.000147502
0.000141904
0.000136867
0.000132408
0.000128396
0.000124815
-1.99626e-05
-1.02746e-05
-1.69891e-07
1.04285e-05
2.15044e-05
3.30754e-05
4.513e-05
5.7661e-05
7.06753e-05
8.41745e-05
9.8095e-05
0.000112364
0.000126951
0.00014183
0.000156896
0.000172125
0.000187368
0.00020242
0.000217096
0.000231352
0.000245197
0.000258237
0.000270348
0.000281459
0.000291326
0.000299766
0.00030667
0.000311916
0.000315768
0.000317918
0.000318517
0.000317882
0.000315839
0.000312429
0.000307781
0.000302081
0.000295385
0.00028783
0.000279531
0.000270738
0.000261472
0.000251838
0.000242132
0.00023248
0.000222925
0.000213574
0.000204465
0.000195663
0.000187204
0.000179151
0.000171559
0.000164408
0.000157699
0.000151446
0.000145731
0.00014055
0.00013587
0.000131629
0.000127831
-2.2702e-05
-1.25554e-05
-1.95662e-06
9.16922e-06
2.08019e-05
3.29541e-05
4.56183e-05
5.87909e-05
7.24709e-05
8.66459e-05
0.000101275
0.000116302
0.000131675
0.000147319
0.000163141
0.00017911
0.000195072
0.000210863
0.000226298
0.00024134
0.000255825
0.000269482
0.000282175
0.000293736
0.000304006
0.000312823
0.000320017
0.000325478
0.000329339
0.000331515
0.000332073
0.000331252
0.000328894
0.000325196
0.000320194
0.000314075
0.000306919
0.000298886
0.000290092
0.000280768
0.000271032
0.000260957
0.000250758
0.000240638
0.00023059
0.000220733
0.000211129
0.000201843
0.000192948
0.000184497
0.00017653
0.000169054
0.000162083
0.000155617
0.000149673
0.000144231
0.000139278
0.000134769
0.000130756
-2.55642e-05
-1.49247e-05
-3.81141e-06
7.85267e-06
2.00491e-05
3.27921e-05
4.608e-05
5.99108e-05
7.42762e-05
8.91564e-05
0.000104516
0.000120308
0.00013647
0.000152914
0.000169549
0.000186292
0.000203015
0.000219575
0.000235807
0.000251614
0.000266796
0.000281109
0.000294407
0.000306489
0.000317217
0.000326433
0.000333944
0.000339612
0.000343542
0.000345722
0.000346195
0.000345194
0.000342597
0.000338591
0.000333218
0.00032665
0.000319008
0.000310454
0.000301131
0.000291238
0.000280938
0.000270346
0.000259625
0.00024893
0.000238323
0.000227906
0.000217771
0.000207994
0.000198638
0.000189751
0.00018137
0.000173511
0.000166183
0.000159389
0.000153127
0.000147387
0.000142171
0.000137432
0.000133224
-2.86866e-05
-1.75186e-05
-5.85252e-06
6.39128e-06
1.91942e-05
3.25721e-05
4.65248e-05
6.10498e-05
7.6135e-05
9.17571e-05
0.00010788