/*--------------------------------*- C++ -*----------------------------------*\
| =========                 |                                                 |
| \\      /  F ield         | OpenFOAM: The Open Source CFD Toolbox           |
|  \\    /   O peration     | Version:  2312                                  |
|   \\  /    A nd           | Website:  www.openfoam.com                      |
|    \\/     M anipulation  |                                                 |
\*---------------------------------------------------------------------------*/
FoamFile
{
    version     2.0;
    format      ascii;
    arch        "LSB;label=32;scalar=64";
    class       surfaceScalarField;
    location    "1700";
    object      phi;
}
// * * * * * * * * * * * * * * * * * * * * * * * * * * * * * * * * * * * * * //

dimensions      [0 3 -1 0 0 0 0];

oriented        oriented;

internalField   nonuniform List<scalar> 
116611
(
0.00115697
0.000401816
-0.00114103
-0.000417754
0.00117274
0.000396321
-0.000412091
0.00118852
0.000390512
-0.000406295
0.00120426
0.000384358
-0.0004001
0.00121975
0.000377739
-0.000393221
0.00123534
0.000370624
-0.000386221
0.00125004
0.000363026
-0.000377722
0.00126482
0.000354917
-0.000369698
0.00127936
0.000346301
-0.000360846
0.00129382
0.000337236
-0.000351696
0.00130793
0.000327562
-0.00034167
0.00132176
0.000317329
-0.000331155
0.00133524
0.000306505
-0.000319988
0.00134871
0.000295064
-0.000308529
0.00136197
0.000283071
-0.000296332
0.00137478
0.000270537
-0.000283347
0.00138744
0.000257193
-0.000269852
0.00139958
0.000243309
-0.000255456
0.00141128
0.000228576
-0.000240272
0.00142268
0.000213383
-0.000224785
0.00143393
0.000197229
-0.000208483
0.00144479
0.000180446
-0.000191306
0.00145535
0.000162921
-0.00017348
0.00146556
0.000144616
-0.000154825
0.00147521
0.000125501
-0.000135153
0.0014844
0.000105508
-0.000114699
0.00149312
8.45819e-05
-9.32979e-05
0.00150093
6.29583e-05
-7.07677e-05
0.00150837
4.03164e-05
-4.77571e-05
0.00151449
1.67222e-05
-2.28381e-05
0.00152023
-7.50269e-06
1.76328e-06
0.0015251
-3.28957e-05
2.80239e-05
0.00152902
-5.92055e-05
5.52816e-05
0.00153224
-8.633e-05
8.31091e-05
0.00153444
-0.000114724
0.000112522
0.0015359
-0.000143987
0.000142526
0.00153636
-0.000174601
0.000174145
0.00153609
-0.000206133
0.0002064
0.00153507
-0.000238699
0.000239723
0.00153321
-0.000272576
0.000274441
0.00153059
-0.000307543
0.000310163
0.00152718
-0.000343907
0.000347312
0.00152331
-0.000381372
0.00038524
0.00151829
-0.000420178
0.000425203
0.00151289
-0.000460254
0.000465647
0.00150635
-0.000501779
0.000508321
0.00149916
-0.000544735
0.000551924
0.00149065
-0.000589193
0.000597708
0.00148116
-0.000635181
0.000644672
0.00147029
-0.000682739
0.000693603
0.00145813
-0.000731935
0.000744101
0.00144471
-0.000782816
0.000796238
0.00142994
-0.000835488
0.000850255
0.00141387
-0.000890117
0.000906184
0.00139683
-0.000946794
0.000963835
0.00137796
-0.00100602
0.00102489
0.00135818
-0.00106765
0.00108743
0.00133674
-0.00113222
0.00115366
0.00131358
-0.00119988
0.00122304
0.00128918
-0.00127066
0.00129505
0.00126389
-0.00134465
0.00136995
0.00123779
-0.00142319
0.00144929
0.00121015
-0.00150676
0.00153439
0.00118207
-0.00159535
0.00162343
0.00115461
-0.00168971
0.00171717
0.00112537
-0.00179223
0.00182146
0.00109743
-0.00190156
0.00192951
0.0010719
-0.0020138
0.00203932
-0.00211669
0.00103626
0.00215234
0.00114044
0.00038589
-0.00112452
0.00115616
0.000380608
0.00117172
0.000374947
0.00118719
0.000368887
0.00120256
0.000362371
0.00121776
0.000355428
0.00123273
0.000348052
0.00124746
0.000340185
0.00126194
0.000331824
0.00127624
0.000322934
0.00129029
0.000313514
0.00130406
0.000303558
0.00131753
0.000293039
0.00133067
0.000281923
0.0013435
0.000270237
0.00135612
0.000257916
0.00136834
0.000244975
0.00138027
0.000231377
0.00139172
0.000217131
0.00140291
0.000202188
0.00141361
0.000186527
0.0014239
0.000170156
0.00143378
0.000153048
0.00144322
0.000135173
0.00145221
0.00011651
0.0014607
9.70158e-05
0.00146858
7.67083e-05
0.00147596
5.55776e-05
0.00148271
3.35619e-05
0.00148877
1.0667e-05
0.00149436
-1.30935e-05
0.00149922
-3.77543e-05
0.00150336
-6.33516e-05
0.00150694
-8.99113e-05
0.00150975
-0.000117529
0.00151194
-0.000146177
0.00151325
-0.000175917
0.00151382
-0.000206699
0.00151368
-0.000238563
0.00151271
-0.000271604
0.00151099
-0.000305816
0.00150832
-0.000341241
0.00150479
-0.000377843
0.00150032
-0.000415703
0.00149493
-0.000454871
0.00148852
-0.000495368
0.00148103
-0.000537243
0.00147237
-0.000580537
0.00146253
-0.000625336
0.00145145
-0.000671658
0.0014391
-0.000719582
0.00142547
-0.000769187
0.00141055
-0.000820573
0.00139433
-0.000873897
0.00137685
-0.000929312
0.0013579
-0.00098707
0.00133755
-0.0010473
0.00131563
-0.0011103
0.00129206
-0.00117631
0.00126696
-0.00124557
0.00124075
-0.00131844
0.00121318
-0.00139561
0.00118418
-0.00147776
0.00115429
-0.00156545
0.00112418
-0.0016596
0.00109371
-0.00176176
0.00106326
-0.00187111
0.00102953
-0.00198007
-0.00206692
0.000979752
0.00112379
0.00036979
-0.00110769
0.00113966
0.000364734
0.00115531
0.000359299
0.00117075
0.000353442
0.00118598
0.000347145
0.00120101
0.0003404
0.00121586
0.0003332
0.00123051
0.000325536
0.00124494
0.000317395
0.00125912
0.000308753
0.00127304
0.000299594
0.00128669
0.000289904
0.00130006
0.000279669
0.00131312
0.000268869
0.00132587
0.000257488
0.00133828
0.0002455
0.00135036
0.000232898
0.00136208
0.000219658
0.00137344
0.000205771
0.00138441
0.000191213
0.00139496
0.000175974
0.00140509
0.000160027
0.00141479
0.000143355
0.00142402
0.000125936
0.00143279
0.000107749
0.00144103
8.87742e-05
0.00144874
6.89932e-05
0.00145593
4.83857e-05
0.00146256
2.69352e-05
0.00146862
4.6089e-06
0.00147408
-1.85566e-05
0.00147893
-4.2598e-05
0.00148315
-6.7575e-05
0.00148675
-9.35146e-05
0.00148967
-0.000120446
0.00149188
-0.000148391
0.00149333
-0.000177368
0.00149404
-0.0002074
0.00149398
-0.000238506
0.0014931
-0.000270725
0.00149137
-0.000304084
0.00148873
-0.000338602
0.00148518
-0.0003743
0.0014807
-0.000411216
0.00147521
-0.000449386
0.00146868
-0.000488841
0.00146107
-0.00052963
0.00145234
-0.000571802
0.00144242
-0.00061542
0.00143129
-0.000660532
0.00141892
-0.00070721
0.00140527
-0.000755539
0.00139032
-0.000805619
0.00137401
-0.000857585
0.00135628
-0.00091159
0.00133704
-0.000967821
0.00131621
-0.00102648
0.00129373
-0.00108781
0.00126953
-0.00115211
0.00124365
-0.00121969
0.00121619
-0.00129098
0.00118715
-0.00136658
0.0011566
-0.00144721
0.00112487
-0.00153371
0.0010925
-0.00162723
0.00105969
-0.00172895
0.00102517
-0.0018366
0.000981739
-0.00193663
-0.00200009
0.000914909
0.00110705
0.000353728
-0.00109099
0.00112296
0.000348821
0.00113869
0.000343574
0.0011542
0.000337929
0.00116949
0.000331861
0.00118453
0.000325351
0.00119935
0.000318386
0.00121393
0.000310956
0.00122827
0.000303052
0.00124236
0.00029466
0.00125619
0.000285764
0.00126975
0.000276348
0.00128302
0.000266396
0.001296
0.000255894
0.00130866
0.000244824
0.00132099
0.00023317
0.00133298
0.000220914
0.0013446
0.000208037
0.00135585
0.000194524
0.0013667
0.000180358
0.00137715
0.000165522
0.00138718
0.000149995
0.00139678
0.000133761
0.00140592
0.000116798
0.00141458
9.90866e-05
0.00142275
8.06062e-05
0.00143041
6.13359e-05
0.00143753
4.12581e-05
0.00144411
2.03575e-05
0.00145012
-1.39555e-06
0.00145552
-2.39637e-05
0.00146033
-4.74067e-05
0.00146452
-7.17634e-05
0.00146806
-9.70576e-05
0.00147093
-0.000123312
0.00147309
-0.000150552
0.00147452
-0.000178798
0.00147519
-0.000208073
0.00147508
-0.000238397
0.00147416
-0.000269798
0.00147238
-0.000302303
0.00146971
-0.000335934
0.00146612
-0.000370714
0.00146158
-0.000406674
0.00145604
-0.000443849
0.00144948
-0.000482276
0.00144185
-0.000521996
0.0014331
-0.000563059
0.0014232
-0.000605516
0.00141209
-0.000649426
0.00139973
-0.000694852
0.00138607
-0.000741875
0.00137104
-0.00079059
0.00135457
-0.000841116
0.00133658
-0.000893598
0.00131697
-0.00094821
0.00129565
-0.00100516
0.00127253
-0.00106469
0.00124754
-0.00112712
0.00122065
-0.0011928
0.00119187
-0.0012622
0.0011612
-0.00133592
0.00112874
-0.00141475
0.00109478
-0.00149975
0.00105979
-0.00159225
0.00102361
-0.00169276
0.00098258
-0.00179557
0.000924563
-0.00187862
-0.00191091
0.000835384
0.00109121
0.000338015
-0.00107549
0.00110686
0.000333172
0.0011224
0.000328027
0.00113781
0.000322522
0.00115305
0.000316626
0.00116808
0.000310318
0.00118289
0.000303579
0.00119745
0.00029639
0.00121177
0.000288738
0.00122582
0.000280606
0.0012396
0.000271981
0.0012531
0.000262847
0.00126631
0.00025319
0.00127921
0.000242993
0.00129179
0.000232242
0.00130404
0.00022092
0.00131594
0.000209011
0.00132749
0.000196497
0.00133865
0.000183362
0.00134942
0.000169588
0.00135978
0.000155157
0.00136972
0.000140053
0.00137923
0.000124256
0.00138828
0.000107747
0.00139686
9.05075e-05
0.00140495
7.25174e-05
0.00141253
5.3758e-05
0.00141957
3.42109e-05
0.00142607
1.38567e-05
0.001432
-7.31679e-06
0.00143733
-2.92989e-05
0.00144207
-5.21428e-05
0.00144618
-7.58776e-05
0.00144965
-0.000100526
0.00145245
-0.000126111
0.00145455
-0.000152653
0.00145592
-0.000180174
0.00145655
-0.000208696
0.00145639
-0.000238239
0.00145542
-0.000268827
0.0014536
-0.000300486
0.00145091
-0.000333238
0.0014473
-0.000367109
0.00144275
-0.000402127
0.00143723
-0.000438325
0.00143069
-0.000475739
0.0014231
-0.000514406
0.00141441
-0.000554367
0.00140456
-0.000595672
0.00139351
-0.00063837
0.00138118
-0.000682521
0.0013675
-0.000728196
0.00135239
-0.000775481
0.00133576
-0.000824485
0.0013175
-0.000875343
0.00129751
-0.00092822
0.00127567
-0.000983319
0.00125187
-0.00104089
0.00122601
-0.00110125
0.00119798
-0.00116478
0.00116774
-0.00123196
0.00113527
-0.00130344
0.00110065
-0.00138014
0.00106421
-0.00146331
0.00102621
-0.00155425
0.000985308
-0.00165186
0.000934113
-0.00174438
0.000855882
-0.00180039
-0.00179623
0.000741206
0.0010768
0.000322675
-0.00106146
0.00109207
0.000317897
0.00110727
0.000312831
0.00112237
0.000307424
0.00113735
0.00030165
0.00115217
0.000295491
0.00116682
0.000288928
0.00118127
0.000281942
0.00119549
0.000274515
0.00120947
0.000266629
0.00122319
0.000258266
0.00123662
0.000249412
0.00124976
0.000240048
0.0012626
0.000230159
0.00127511
0.00021973
0.00128729
0.000208744
0.00129911
0.000197184
0.00131058
0.000185034
0.00132166
0.000172277
0.00133235
0.000158896
0.00134264
0.000144873
0.0013525
0.000130192
0.00136192
0.000114833
0.00137089
9.87794e-05
0.00137938
8.20119e-05
0.00138739
6.4512e-05
0.00139489
4.62613e-05
0.00140186
2.72418e-05
0.00140828
7.42803e-06
0.00141413
-1.31667e-05
0.0014194
-3.45661e-05
0.00142407
-5.68107e-05
0.00142812
-7.99251e-05
0.00143152
-0.000103931
0.00143426
-0.000128848
0.0014363
-0.000154697
0.00143763
-0.000181499
0.00143821
-0.000209274
0.00143801
-0.000238045
0.00143702
-0.000267833
0.00143519
-0.000298661
0.00143251
-0.000330554
0.00142894
-0.000363536
0.00142444
-0.000397633
0.00141899
-0.000432875
0.00141254
-0.00046929
0.00140505
-0.000506912
0.00139646
-0.000545775
0.0013867
-0.000585919
0.00137572
-0.000627386
0.00136343
-0.000670228
0.00134974
-0.000714507
0.00133455
-0.000760298
0.00131777
-0.0008077
0.00129926
-0.000856835
0.0012789
-0.000907858
0.00125654
-0.000960963
0.00123204
-0.00101639
0.00120525
-0.00107446
0.001176
-0.00113553
0.00114419
-0.00120015
0.00110978
-0.00126902
0.00107287
-0.00134324
0.00103373
-0.00142416
0.000992064
-0.00151258
0.000944185
-0.00160398
0.000877519
-0.00167771
0.00077316
-0.00169603
-0.00165571
0.000632635
0.00106354
0.000307532
-0.0010484
0.00107857
0.000302873
0.00109347
0.000297924
0.00110826
0.000292637
0.00112292
0.00028699
0.00113744
0.000280969
0.00115181
0.000274561
0.001166
0.000267749
0.00118
0.000260517
0.00119378
0.000252847
0.00120733
0.000244722
0.00122061
0.000236125
0.00123362
0.000227038
0.00124634
0.000217444
0.00125874
0.000207327
0.00127082
0.000196669
0.00128255
0.000185453
0.00129392
0.000173663
0.00130491
0.000161282
0.00131552
0.000148292
0.00132571
0.000134676
0.00133549
0.000120416
0.00134483
0.000105495
0.00135371
8.98958e-05
0.00136212
7.35994e-05
0.00137005
5.65879e-05
0.00137747
3.8843e-05
0.00138436
2.0348e-05
0.00139071
1.07681e-06
0.00139649
-1.89458e-05
0.00140169
-3.97657e-05
0.00140629
-6.14136e-05
0.00141028
-8.39116e-05
0.00141363
-0.00010728
0.00141632
-0.000131537
0.00141832
-0.000156704
0.00141962
-0.000182799
0.0014202
-0.000209845
0.00142001
-0.000237861
0.00141905
-0.000266869
0.00141728
-0.00029689
0.00141467
-0.000327946
0.00141119
-0.000360059
0.00140681
-0.000393251
0.00140148
-0.000427546
0.00139516
-0.000462969
0.00138779
-0.000499545
0.00137932
-0.000537301
0.00136967
-0.000576268
0.00135876
-0.000616482
0.00134652
-0.000657983
0.00133283
-0.000700823
0.0013176
-0.000745067
0.0013007
-0.000790797
0.00128199
-0.00083812
0.0012613
-0.000887174
0.00123847
-0.000938133
0.0012133
-0.000991222
0.00118557
-0.00104673
0.00115508
-0.00110504
0.00112166
-0.00116672
0.00108527
-0.00123264
0.00104605
-0.00130401
0.00100398
-0.0013821
0.000957466
-0.00146606
0.000898878
-0.00154539
0.000810012
-0.00158884
0.000675633
-0.00156165
-0.00149406
0.000513991
0.0010509
0.000292447
-0.00103582
0.00106583
0.000287943
0.0010806
0.000283153
0.00109521
0.000278026
0.00110966
0.000272542
0.00112394
0.000266688
0.00113805
0.000260453
0.00115198
0.000253823
0.00116571
0.000246785
0.00117923
0.000239324
0.00119253
0.000231423
0.00120559
0.000223068
0.00121838
0.000214241
0.0012309
0.000204925
0.00124312
0.000195104
0.00125503
0.000184761
0.00126661
0.000173877
0.00127784
0.000162436
0.0012887
0.00015042
0.00129918
0.000137813
0.00130926
0.000124596
0.00131892
0.000110753
0.00132815
9.62645e-05
0.00133693
8.11141e-05
0.00134525
6.52837e-05
0.00135308
4.87555e-05
0.00136041
3.15114e-05
0.00136723
1.35332e-05
0.0013735
-5.19216e-06
0.00137921
-2.46564e-05
0.00138435
-4.49066e-05
0.0013889
-6.59678e-05
0.00139285
-8.78603e-05
0.00139617
-0.000110603
0.00139885
-0.000134215
0.00140086
-0.000158715
0.00140219
-0.000184122
0.0014028
-0.000210456
0.00140267
-0.000237736
0.00140178
-0.000265981
0.0014001
-0.00029521
0.0013976
-0.000325443
0.00139424
-0.000356697
0.00138998
-0.000388992
0.00138478
-0.000422345
0.00137859
-0.000456776
0.00137135
-0.000492303
0.00136299
-0.000528947
0.00135345
-0.000566731
0.00134265
-0.000605679
0.00133049
-0.000645822
0.00131686
-0.000687198
0.00130165
-0.000729855
0.00128471
-0.000773857
0.00126588
-0.000819288
0.00124497
-0.000866259
0.00122175
-0.000914915
0.00119597
-0.000965447
0.00116737
-0.00101812
0.00113568
-0.00107335
0.00110073
-0.00113178
0.00106252
-0.00119443
0.00102107
-0.00126256
0.000975617
-0.00133665
0.000921984
-0.00141243
0.000846948
-0.00147036
0.000729098
-0.00147099
0.000565496
-0.00139805
-0.0013215
0.000392936
0.00103863
0.000277396
-0.00102358
0.00105352
0.000273052
0.00106824
0.000268435
0.00108278
0.000263489
0.00109713
0.000258193
0.00111128
0.000252533
0.00112524
0.000246497
0.00113899
0.000240074
0.00115252
0.00023325
0.00116583
0.000226013
0.00117891
0.000218346
0.00119174
0.000210237
0.00120431
0.00020167
0.00121661
0.000192629
0.00122861
0.000183097
0.00124032
0.00017306
0.00125169
0.000162498
0.00126273
0.000151396
0.00127342
0.000139736
0.00128373
0.000127501
0.00129365
0.000114674
0.00130317
0.000101236
0.00131226
8.71709e-05
0.00132092
7.24602e-05
0.00132911
5.70863e-05
0.00133684
4.10316e-05
0.00134407
2.42789e-05
0.0013508
6.80486e-06
0.00135699
-1.13812e-05
0.00136263
-3.03028e-05
0.00136772
-4.99967e-05
0.00137224
-7.04849e-05
0.00137617
-9.17861e-05
0.00137948
-0.000113918
0.00138217
-0.000136899
0.0013842
-0.000160747
0.00138556
-0.00018548
0.00138622
-0.000211116
0.00138615
-0.000237673
0.00138534
-0.000265167
0.00138374
-0.000293615
0.00138134
-0.000323034
0.00137808
-0.000353439
0.00137393
-0.000384843
0.00136884
-0.000417262
0.00136278
-0.000450709
0.00135567
-0.000485196
0.00134746
-0.000520736
0.00133807
-0.000557343
0.00132742
-0.00059503
0.00131541
-0.000633814
0.00130193
-0.000673717
0.00128684
-0.000714766
0.00126999
-0.000756999
0.00125117
-0.000800471
0.00123016
-0.000845253
0.00120669
-0.000891446
0.00118045
-0.000939206
0.00115112
-0.000988791
0.00111843
-0.00104066
0.00108227
-0.00109561
0.00104258
-0.00115474
0.000998947
-0.00121892
0.00094891
-0.00128661
0.00088396
-0.00134748
0.000784858
-0.00137125
0.00063378
-0.00131991
0.000447838
-0.0012121
-0.00115332
0.000279652
0.00102678
0.00026242
-0.00101181
0.00104161
0.000258227
0.00105627
0.000253777
0.00107075
0.00024901
0.00108503
0.000243905
0.00109912
0.000238448
0.00111299
0.000232625
0.00112664
0.000226424
0.00114006
0.000219831
0.00115324
0.000212834
0.00116617
0.000205418
0.00117883
0.000197569
0.00119123
0.000189273
0.00120335
0.000180514
0.00121517
0.000171278
0.00122668
0.000161548
0.00123787
0.000151309
0.00124872
0.000140544
0.00125922
0.000129235
0.00126935
0.000117367
0.0012791
0.000104922
0.00128846
9.18823e-05
0.0012974
7.82309e-05
0.00130591
6.39502e-05
0.00131397
4.90228e-05
0.00132157
3.34309e-05
0.00132869
1.71579e-05
0.00133532
1.80926e-07
0.00134142
-1.74826e-05
0.00134699
-3.58762e-05
0.00135202
-5.50272e-05
0.00135649
-7.49551e-05
0.00136038
-9.56775e-05
0.00136368
-0.000117211
0.00136635
-0.000139574
0.00136839
-0.000162782
0.00136976
-0.000186852
0.00137044
-0.000211802
0.00137042
-0.000237646
0.00136965
-0.000264401
0.00136812
-0.000292081
0.00136578
-0.000320699
0.00136261
-0.000350268
0.00135857
-0.000380799
0.00135361
-0.000412302
0.00134768
-0.000444785
0.00134074
-0.000478254
0.00133272
-0.000512714
0.00132354
-0.000548168
0.00131313
-0.000584616
0.00130138
-0.000622061
0.00128816
-0.000660501
0.00127334
-0.000699941
0.00125672
-0.000740384
0.00123809
-0.000781844
0.00121718
-0.00082434
0.00119366
-0.000867926
0.00116718
-0.000912729
0.00113744
-0.000959044
0.00110422
-0.00100745
0.00106743
-0.00105883
0.00102674
-0.00111406
0.000980493
-0.00117267
0.000922994
-0.00122911
0.000839774
-0.00126426
0.00070869
-0.00124017
0.00052552
-0.00113674
0.000329974
-0.00101656
-0.00100268
0.000179338
0.00101555
0.000247559
-0.00100069
0.00103027
0.000243511
0.00104483
0.00023922
0.00105921
0.000234627
0.00107341
0.000229708
0.00108741
0.000224449
0.0011012
0.000218838
0.00111476
0.00021286
0.00112809
0.000206504
0.00114117
0.000199753
0.00115399
0.000192595
0.00116654
0.000185016
0.00117882
0.000177
0.0011908
0.000168533
0.00120247
0.0001596
0.00121384
0.000150186
0.00122487
0.000140274
0.00123557
0.000129849
0.00124591
0.000118894
0.00125588
0.000107392
0.00126548
9.53278e-05
0.00127468
8.2683e-05
0.00128347
6.9441e-05
0.00129183
5.55847e-05
0.00129976
4.10968e-05
0.00130723
2.59602e-05
0.00131423
1.01559e-05
0.00132074
-6.32363e-06
0.00132673
-2.34816e-05
0.00133222
-4.13587e-05
0.00133717
-5.99773e-05
0.00134157
-7.93553e-05
0.0013454
-9.95093e-05
0.00134864
-0.000120456
0.00135128
-0.000142211
0.00135329
-0.00016479
0.00135465
-0.000188211
0.00135533
-0.000212487
0.00135532
-0.000237634
0.00135459
-0.000263666
0.0013531
-0.000290596
0.00135084
-0.000318434
0.00134776
-0.000347192
0.00134384
-0.000376876
0.00133903
-0.000407493
0.00133329
-0.000439045
0.00132657
-0.000471532
0.0013188
-0.00050495
0.00130993
-0.000539291
0.00129985
-0.000574542
0.00128848
-0.000610685
0.00127567
-0.000647698
0.00126128
-0.00068555
0.0012451
-0.000724205
0.00122688
-0.000763619
0.0012063
-0.000803759
0.00118302
-0.000844646
0.00115672
-0.000886432
0.00112719
-0.00092951
0.00109429
-0.000974553
0.00105775
-0.00102228
0.00101623
-0.00107254
0.000965444
-0.00112189
0.000894606
-0.00115827
0.000783596
-0.00115325
0.0006156
-0.00107217
0.000408295
-0.00092944
0.000218714
-0.000826978
-0.00087695
9.29832e-05
0.00100513
0.000232838
-0.000990409
0.00101971
0.000228933
0.00103413
0.000224798
0.00104838
0.000220374
0.00106245
0.000215637
0.00107633
0.000210574
0.00109
0.00020517
0.00110344
0.000199413
0.00111666
0.00019329
0.00112962
0.000186786
0.00114233
0.000179886
0.00115477
0.000172578
0.00116692
0.000164845
0.00117878
0.000156674
0.00119034
0.000148049
0.00120157
0.000138954
0.00121247
0.000129373
0.00122302
0.000119292
0.00123323
0.000108693
0.00124306
9.75604e-05
0.00125251
8.58775e-05
0.00126156
7.36275e-05
0.00127021
6.07937e-05
0.00127844
4.73594e-05
0.00128623
3.33074e-05
0.00129356
1.86217e-05
0.00130044
3.28142e-06
0.00130682
-1.27052e-05
0.00131271
-2.93678e-05
0.00131808
-4.67368e-05
0.00132294
-6.48317e-05
0.00132725
-8.36692e-05
0.00133101
-0.000103265
0.00133419
-0.000123636
0.00133677
-0.000144796
0.00133874
-0.000166761
0.00134008
-0.000189547
0.00134076
-0.000213168
0.00134076
-0.000237638
0.00134007
-0.000262969
0.00133864
-0.000289173
0.00133647
-0.000316259
0.00133351
-0.000344236
0.00132975
-0.000373108
0.00132513
-0.000402877
0.00131963
-0.000433541
0.00131319
-0.000465093
0.00130576
-0.000497521
0.00129727
-0.000530806
0.00128765
-0.00056492
0.00127679
-0.000599826
0.00126457
-0.00063547
0.0012508
-0.000671781
0.00123526
-0.000708671
0.00121769
-0.000746044
0.00119777
-0.00078384
0.00117523
-0.000822109
0.0011499
-0.000861105
0.0011217
-0.00090131
0.00109038
-0.00094323
0.00105475
-0.000986652
0.00101114
-0.00102893
0.000950772
-0.00106152
0.000856765
-0.00106426
0.000708479
-0.00100497
0.000505358
-0.000869053
0.000287921
-0.000712004
0.00011764
-0.000656696
-0.000772067
1.27566e-05
0.000995631
0.000218264
-0.000981057
0.00101006
0.000214502
0.00102433
0.000210526
0.00103844
0.000206272
0.00105236
0.000201717
0.00106608
0.000196848
0.0010796
0.000191651
0.0010929
0.000186114
0.00110597
0.000180222
0.00111879
0.000173963
0.00113136
0.000167321
0.00114365
0.000160283
0.00115566
0.000152833
0.00116738
0.000144957
0.00117879
0.000136639
0.00118988
0.000127865
0.00120064
0.000118617
0.00121105
0.00010888
0.0012211
9.86384e-05
0.00123079
8.78751e-05
0.00124009
7.6574e-05
0.001249
6.47183e-05
0.0012575
5.22917e-05
0.00126559
3.92774e-05
0.00127323
2.56588e-05
0.00128044
1.14189e-05
0.00128717
-3.45423e-06
0.00129343
-1.89601e-05
0.0012992
-3.51362e-05
0.00130446
-5.20059e-05
0.00130922
-6.95866e-05
0.00131344
-8.78943e-05
0.00131712
-0.000106944
0.00132024
-0.000126752
0.00132278
-0.000147332
0.00132472
-0.0001687
0.00132604
-0.00019087
0.00132673
-0.000213856
0.00132676
-0.000237671
0.00132612
-0.000262326
0.00132478
-0.000287833
0.00132272
-0.000314199
0.00131991
-0.00034143
0.00131633
-0.000369528
0.00131195
-0.000398494
0.00130673
-0.000428321
0.00130063
-0.000458997
0.00129361
-0.000490502
0.00128561
-0.000522807
0.00127656
-0.000555868
0.00126635
-0.00058962
0.00125486
-0.000623974
0.00124189
-0.000658813
0.00122723
-0.000694008
0.00121064
-0.000729457
0.00119195
-0.000765155
0.00117112
-0.00080127
0.00114815
-0.000838144
0.0011229
-0.000876055
0.00109422
-0.000914545
0.00105862
-0.000951054
0.00100819
-0.000978506
0.000928274
-0.0009816
0.000798747
-0.000934737
0.000609059
-0.000815277
0.000381264
-0.000641258
0.000169972
-0.000500712
2.39801e-05
-0.000510704
-0.000678793
-6.92935e-05
0.000987117
0.00020383
-0.000972683
0.0010014
0.000200216
0.00101553
0.000196402
0.00102948
0.000192322
0.00104324
0.000187953
0.00105681
0.000183281
0.00107017
0.000178293
0.0010833
0.000172977
0.00109621
0.000167319
0.00110886
0.000161305
0.00112126
0.000154922
0.00113339
0.000148154
0.00114524
0.000140988
0.00115679
0.000133407
0.00116803
0.000125397
0.00117895
0.000116943
0.00118954
0.000108027
0.00119979
9.86349e-05
0.00120967
8.87495e-05
0.00121919
7.83547e-05
0.00122833
6.74339e-05
0.00123708
5.59707e-05
0.00124543
4.39485e-05
0.00125335
3.13509e-05
0.00126085
1.81618e-05
0.00126791
4.36219e-06
0.0012745
-1.00452e-05
0.00128062
-2.50832e-05
0.00128627
-4.07829e-05
0.00129142
-5.71636e-05
0.00129608
-7.42413e-05
0.00130022
-9.20315e-05
0.00130382
-0.000110549
0.00130688
-0.000129809
0.00130937
-0.000149826
0.00131129
-0.000170614
0.0013126
-0.000192187
0.00131331
-0.00021456
0.00131338
-0.000237743
0.0013128
-0.00026175
0.00131156
-0.000286588
0.00130963
-0.000312266
0.00130698
-0.000338789
0.00130362
-0.000366159
0.00129949
-0.000394373
0.0012946
-0.000423422
0.00128889
-0.000453293
0.00128235
-0.000483957
0.00127491
-0.000515373
0.00126652
-0.000547474
0.00125706
-0.000580166
0.00124642
-0.000613327
0.00123443
-0.000646821
0.00122097
-0.000680549
0.00120602
-0.000714506
0.0011897
-0.000748842
0.00117224
-0.000783811
0.00115358
-0.000819476
0.00113256
-0.000855032
0.00110561
-0.000887599
0.00106499
-0.000910431
0.000997052
-0.000910572
0.000883106
-0.000867654
0.000709217
-0.000760848
0.000484836
-0.000590896
0.000250448
-0.00040687
5.99842e-05
-0.000310248
-6.39651e-05
-0.000386755
-0.000581517
-0.000161242
0.000979597
0.000189522
-0.000965289
0.000993751
0.000186062
0.00100774
0.000182416
0.00102154
0.000178516
0.00103516
0.000174338
0.00104857
0.000169868
0.00106177
0.000165095
0.00107474
0.000160005
0.00108748
0.000154585
0.00109996
0.000148821
0.00111218
0.000142699
0.00112413
0.000136205
0.0011358
0.000129324
0.00114716
0.000122041
0.00115822
0.000114341
0.00116895
0.000106207
0.00117936
9.76246e-05
0.00118942
8.85767e-05
0.00119912
7.90471e-05
0.00120845
6.90194e-05
0.00121741
5.8477e-05
0.00122598
4.74034e-05
0.00123414
3.57822e-05
0.0012419
2.35969e-05
0.00124923
1.08307e-05
0.00125612
-2.52863e-06
0.00126256
-1.64821e-05
0.00126854
-3.10642e-05
0.00127405
-4.62982e-05
0.00127909
-6.22012e-05
0.00128364
-7.87884e-05
0.00128768
-9.60746e-05
0.00129121
-0.000114074
0.0012942
-0.000132802
0.00129665
-0.000152273
0.00129853
-0.0001725
0.00129984
-0.000193497
0.00130056
-0.000215278
0.00130067
-0.000237855
0.00130016
-0.000261238
0.00129901
-0.000285439
0.00129721
-0.000310464
0.00129474
-0.00033632
0.00129159
-0.000363009
0.00128775
-0.000390528
0.00128319
-0.000418868
0.00127791
-0.000448011
0.00127187
-0.000477918
0.00126503
-0.000508531
0.00125732
-0.000539762
0.00124865
-0.000571503
0.00123898
-0.000603648
0.0012283
-0.000636145
0.0012168
-0.00066905
0.00120485
-0.000702555
0.00119288
-0.000736873
0.00118093
-0.000771864
0.00116775
-0.000806292
0.00114942
-0.000836708
0.00111788
-0.000856057
0.00105972
-0.000852273
0.000957425
-0.000808273
0.000797104
-0.000707332
0.000582467
-0.000546211
0.000342472
-0.000350901
0.000122681
-0.000187079
-3.77114e-05
-0.000149855
-0.000147141
-0.000277325
-0.000484443
-0.000244215
0.000973067
0.000175326
-0.00095887
0.000987102
0.000172027
0.00100096
0.000168555
0.00101464
0.000164842
0.00102811
0.000160862
0.00104138
0.000156601
0.00105443
0.000152049
0.00106724
0.000147191
0.00107981
0.000142015
0.00109212
0.000136507
0.00110417
0.000130653
0.00111593
0.000124438
0.00112741
0.000117848
0.00113858
0.000110867
0.00114945
0.000103479
0.00115998
9.567e-05
0.00117019
8.74225e-05
0.00118004
7.87205e-05
0.00118954
6.95473e-05
0.00119867
5.98865e-05
0.00120743
4.97213e-05
0.0012158
3.90351e-05
0.00122377
2.78112e-05
0.00123133
1.60336e-05
0.00123848
3.68447e-06
0.00124519
-9.23649e-06
0.00125146
-2.27511e-05
0.00125728
-3.68887e-05
0.00126265
-5.16681e-05
0.00126755
-6.71051e-05
0.00127198
-8.32144e-05
0.00127592
-0.00010001
0.00127935
-0.000117507
0.00128227
-0.00013572
0.00128466
-0.000154661
0.0012865
-0.000174346
0.00128779
-0.000194788
0.00128851
-0.000216
0.00128865
-0.000237994
0.0012882
-0.000260783
0.00128713
-0.000284376
0.00128546
-0.000308785
0.00128315
-0.000334016
0.00128022
-0.000360073
0.00127664
-0.000386955
0.00127242
-0.000414648
0.00126754
-0.000443124
0.00126195
-0.000472335
0.00125563
-0.000502213
0.00124856
-0.000532688
0.00124078
-0.000563719
0.00123248
-0.000595348
0.00122407
-0.000627743
0.0012162
-0.000661179
0.00120949
-0.000695842
0.00120397
-0.000731351
0.00119806
-0.000765954
0.00118722
-0.000795457
0.00116267
-0.000812152
0.00111078
-0.00080417
0.00101513
-0.000756617
0.0008637
-0.000656848
0.000659472
-0.000503105
0.000424917
-0.000311656
0.000195869
-0.000121853
9.75176e-06
-9.62005e-07
-0.000122969
-1.71346e-05
-0.000227969
-0.000172325
-0.000387636
-0.000324776
0.000967555
0.00016123
-0.000953459
0.000981483
0.000158099
0.000995229
0.000154809
0.00100878
0.000151289
0.00102213
0.000147515
0.00103526
0.000143472
0.00104816
0.000139148
0.00106082
0.000134531
0.00107323
0.000129607
0.00108537
0.000124362
0.00109724
0.000118783
0.00110883
0.000112854
0.00112011
0.000106561
0.00113109
9.98882e-05
0.00114175
9.28199e-05
0.00115208
8.53399e-05
0.00116207
7.74319e-05
0.00117171
6.90791e-05
0.001181
6.02648e-05
0.00118991
5.09721e-05
0.00119845
4.11841e-05
0.0012066
3.0884e-05
0.00121435
2.00552e-05
0.00122171
8.68034e-06
0.00122864
-3.2498e-06
0.00123515
-1.57426e-05
0.00124123
-2.88299e-05
0.00124687
-4.25336e-05
0.00125207
-5.68701e-05
0.00125682
-7.18542e-05
0.00126111
-8.75002e-05
0.00126492
-0.000103822
0.00126824
-0.000120833
0.00127107
-0.000138547
0.00127339
-0.000156979
0.00127518
-0.000176141
0.00127644
-0.000196047
0.00127715
-0.000216712
0.00127731
-0.000238147
0.00127689
-0.000260368
0.0012759
-0.000283385
0.00127433
-0.000307211
0.00127217
-0.000331854
0.00126941
-0.000357317
0.00126605
-0.000383594
0.00126206
-0.000410663
0.00125744
-0.000438495
0.00125216
-0.000467057
0.00124629
-0.000496344
0.00124002
-0.000526417
0.00123375
-0.000557451
0.00122816
-0.000589755
0.00122409
-0.000623677
0.00122223
-0.000659319
0.00122235
-0.000695959
0.00122219
-0.00073119
0.00121617
-0.000759944
0.00119446
-0.000773742
0.00114312
-0.000760811
0.00104729
-0.000708339
0.000898567
-0.000607896
0.000702669
-0.000460949
0.000479738
-0.000280174
0.000257721
-8.96387e-05
6.43354e-05
7.15327e-05
-8.2859e-05
0.000146232
-0.000195286
9.52924e-05
-0.000299288
-6.83228e-05
-0.000284436
-0.000402487
0.000963119
0.000147229
-0.000949118
0.000976947
0.000144271
0.000990586
0.000141171
0.00100402
0.000137853
0.00101725
0.000134292
0.00103024
0.000130474
0.001043
0.000126388
0.00105551
0.00012202
0.00106776
0.000117357
0.00107974
0.000112385
0.00109143
0.000107089
0.00110283
0.000101456
0.00111393
9.54683e-05
0.0011247
8.91118e-05
0.00113515
8.23701e-05
0.00114527
7.52264e-05
0.00115503
6.76641e-05
0.00116445
5.96659e-05
0.0011735
5.12147e-05
0.00118218
4.22932e-05
0.00119048
3.2884e-05
0.00119839
2.29701e-05
0.00120591
1.25339e-05
0.00121303
1.55925e-06
0.00121974
-9.95429e-06