/*--------------------------------*- C++ -*----------------------------------*\
| =========                 |                                                 |
| \\      /  F ield         | OpenFOAM: The Open Source CFD Toolbox           |
|  \\    /   O peration     | Version:  2312                                  |
|   \\  /    A nd           | Website:  www.openfoam.com                      |
|    \\/     M anipulation  |                                                 |
\*---------------------------------------------------------------------------*/
FoamFile
{
    version     2.0;
    format      ascii;
    arch        "LSB;label=32;scalar=64";
    class       volVectorField;
    location    "1700";
    object      U;
}
// * * * * * * * * * * * * * * * * * * * * * * * * * * * * * * * * * * * * * //

dimensions      [0 1 -1 0 0 0 0];

internalField   nonuniform List<vector> 
76025
(
(0.0379758 -0.00867535 0)
(0.0381483 -0.00876501 1.07412e-21)
(0.0383305 -0.00884998 0)
(0.0385249 -0.00893497 0)
(0.0387063 -0.00901058 -2.01989e-21)
(0.0389092 -0.0090921 -3.95001e-21)
(0.039095 -0.00916431 6.85931e-21)
(0.0392808 -0.00923484 -2.92089e-21)
(0.0394718 -0.0093036 -9.57356e-22)
(0.0396692 -0.00937098 9.41724e-22)
(0.0398664 -0.00943429 -1.93873e-23)
(0.040066 -0.00949332 2.66473e-21)
(0.0402646 -0.00955207 -3.57037e-21)
(0.0404655 -0.0096038 0)
(0.040686 -0.00965857 8.63758e-22)
(0.0408922 -0.00970975 0)
(0.0411116 -0.00975792 0)
(0.041325 -0.00980536 0)
(0.0415431 -0.00984773 7.93244e-22)
(0.0417559 -0.00989527 -7.94785e-22)
(0.0419771 -0.00993486 -7.81371e-22)
(0.042209 -0.00996996 -2.25788e-21)
(0.0424446 -0.0100021 1.51113e-21)
(0.0426849 -0.0100346 2.19267e-21)
(0.0429283 -0.0100655 -3.40327e-23)
(0.0431663 -0.010101 6.81696e-22)
(0.0434162 -0.0101209 -2.09218e-21)
(0.04366 -0.010144 2.0652e-21)
(0.0439017 -0.0101647 -6.66894e-22)
(0.0441418 -0.0101719 6.57504e-22)
(0.0443734 -0.0101762 6.4258e-22)
(0.044603 -0.0101868 -1.21637e-21)
(0.0448346 -0.0101761 1.77148e-21)
(0.0450599 -0.0101822 2.61028e-22)
(0.0452807 -0.0101785 -1.34282e-21)
(0.0454959 -0.0101867 8.19238e-24)
(0.0457088 -0.0101951 2.40797e-22)
(0.0459235 -0.0101812 -1.17621e-22)
(0.0461428 -0.0101777 -2.80744e-24)
(0.0463658 -0.0101713 1.55877e-22)
(0.0465915 -0.0101782 -1.01915e-22)
(0.0468216 -0.0101882 4.70024e-23)
(0.0470661 -0.0101863 -8.96804e-23)
(0.0473201 -0.0101977 1.69596e-22)
(0.0475833 -0.010204 1.63052e-22)
(0.0478577 -0.0102302 -3.06599e-22)
(0.0481434 -0.0102523 -2.97156e-22)
(0.0484399 -0.0102839 8.73748e-22)
(0.0487418 -0.0103199 -5.35286e-22)
(0.0490491 -0.0103662 2.55014e-23)
(0.0493634 -0.0104247 1.28238e-21)
(0.0496852 -0.0104909 4.70287e-22)
(0.0500169 -0.0105645 -5.05285e-22)
(0.0503622 -0.0106522 0)
(0.0507338 -0.010756 4.22251e-22)
(0.0511255 -0.0108901 4.75735e-22)
(0.0515449 -0.0110442 -3.4499e-23)
(0.0520044 -0.0112324 4.16142e-22)
(0.0525003 -0.0114635 -3.90696e-22)
(0.0530349 -0.0117227 1.02677e-21)
(0.0536173 -0.0119771 8.43136e-22)
(0.0543141 -0.0123221 2.8399e-22)
(0.0551002 -0.0126942 0)
(0.0559829 -0.0131045 -1.05474e-21)
(0.0570114 -0.0135267 -1.12757e-22)
(0.0582166 -0.0140071 -7.31671e-23)
(0.0595534 -0.0145078 -4.74118e-22)
(0.0611782 -0.0148389 4.36951e-22)
(0.0625439 -0.0151389 2.44577e-21)
(0.037879 -0.00902157 1.14408e-21)
(0.0380648 -0.0091144 3.32183e-21)
(0.038253 -0.00920244 -4.39469e-21)
(0.0384446 -0.00928479 0)
(0.0386375 -0.00936634 5.24708e-21)
(0.0388361 -0.00944212 -5.04457e-23)
(0.0390388 -0.00951732 -4.11364e-21)
(0.0392391 -0.00958838 0)
(0.0394408 -0.00965592 -2.27484e-23)
(0.0396442 -0.00972114 -9.62162e-22)
(0.0398512 -0.00978396 9.45861e-22)
(0.0400599 -0.00984321 -2.06583e-23)
(0.0402692 -0.00989995 0)
(0.0404781 -0.00995428 0)
(0.040689 -0.0100024 1.75307e-21)
(0.0409026 -0.0100522 -4.42585e-21)
(0.0411186 -0.010096 -8.7211e-22)
(0.0413361 -0.0101402 2.5367e-21)
(0.0415549 -0.0101784 -1.6825e-21)
(0.0417741 -0.0102161 8.11277e-22)
(0.041996 -0.0102499 -7.9675e-22)
(0.0422189 -0.0102806 1.60067e-21)
(0.0424433 -0.0103086 -1.53982e-21)
(0.0426697 -0.0103343 2.30283e-21)
(0.0428985 -0.0103573 -1.52182e-21)
(0.0431295 -0.010379 -2.19199e-21)
(0.0433608 -0.0103959 1.47127e-21)
(0.0435921 -0.0104119 0)
(0.0438241 -0.0104252 0)
(0.0440548 -0.0104368 6.98148e-22)
(0.0442869 -0.010444 0)
(0.044523 -0.0104476 6.47129e-22)
(0.0447587 -0.0104504 -6.03405e-22)
(0.0449947 -0.0104526 8.87422e-22)
(0.0452323 -0.0104553 -6.09825e-24)
(0.0454726 -0.0104558 2.63186e-22)
(0.045715 -0.0104553 0)
(0.0459581 -0.0104533 4.80096e-22)
(0.0462044 -0.0104527 -3.47438e-22)
(0.046455 -0.0104547 2.75838e-22)
(0.0467097 -0.010458 -1.58095e-22)
(0.0469682 -0.0104621 3.0653e-24)
(0.04723 -0.0104665 -5.01488e-23)
(0.0474963 -0.0104765 4.63138e-23)
(0.0477677 -0.0104878 -3.51321e-22)
(0.0480447 -0.0105033 1.7182e-22)
(0.0483261 -0.0105214 1.66876e-22)
(0.0486119 -0.0105467 -3.01167e-22)
(0.0489019 -0.0105795 -8.9551e-22)
(0.049197 -0.0106208 1.21976e-23)
(0.0494986 -0.0106715 -8.35173e-22)
(0.0498083 -0.0107336 2.74899e-22)
(0.0501295 -0.01081 7.83741e-22)
(0.0504663 -0.0109047 -5.3141e-22)
(0.0508221 -0.0110188 0)
(0.0512023 -0.0111614 -1.56455e-21)
(0.0516075 -0.0113292 -4.8337e-24)
(0.0520456 -0.0115334 5.09851e-22)
(0.0525197 -0.0117765 5.62879e-22)
(0.0530357 -0.0120576 0)
(0.0536142 -0.0123817 -3.7068e-22)
(0.0542699 -0.0127473 -1.28743e-21)
(0.055017 -0.0131733 0)
(0.0558731 -0.0136533 6.20457e-22)
(0.0568704 -0.0141838 -6.7849e-22)
(0.0580706 -0.0147758 4.21697e-22)
(0.0594508 -0.0154081 -1.46998e-22)
(0.0609979 -0.0158761 -4.45628e-22)
(0.0619137 -0.016335 -1.04561e-21)
(0.037744 -0.00938982 -5.87186e-21)
(0.0379481 -0.00948636 3.50556e-21)
(0.0381534 -0.00957806 -1.15832e-21)
(0.0383568 -0.00966332 4.46977e-21)
(0.0385607 -0.00974512 -5.56508e-21)
(0.038765 -0.00982312 -4.31944e-21)
(0.0389723 -0.0098982 5.38137e-21)
(0.0391825 -0.00996962 0)
(0.0393948 -0.0100376 -2.41295e-23)
(0.0396084 -0.0101022 0)
(0.0398232 -0.0101639 -1.00763e-21)
(0.0400392 -0.0102226 9.67793e-22)
(0.0402565 -0.0102779 4.79133e-21)
(0.0404748 -0.0103303 -3.81404e-21)
(0.0406934 -0.0103792 9.19005e-22)
(0.0409137 -0.0104252 2.71395e-21)
(0.0411351 -0.0104681 -9.23814e-22)
(0.0413578 -0.0105079 -8.72418e-22)
(0.0415818 -0.0105446 -2.59093e-21)
(0.0418075 -0.0105777 1.72022e-21)
(0.0420342 -0.0106079 8.44136e-22)
(0.0422616 -0.0106353 -1.62666e-21)
(0.04249 -0.0106598 8.1891e-22)
(0.0427197 -0.0106817 8.00578e-22)
(0.0429504 -0.0107012 0)
(0.043182 -0.0107184 -7.73025e-22)
(0.0434139 -0.0107337 -7.28789e-22)
(0.0436467 -0.0107465 7.54347e-22)
(0.043881 -0.0107569 0)
(0.044116 -0.0107654 -1.43162e-21)
(0.0443535 -0.0107696 6.96294e-22)
(0.0445932 -0.010771 1.14908e-23)
(0.0448341 -0.0107711 0)
(0.045077 -0.0107691 -2.97885e-22)
(0.0453222 -0.0107664 8.50758e-22)
(0.0455693 -0.0107627 -5.56196e-22)
(0.0458178 -0.0107597 0)
(0.0460677 -0.0107568 -3.70113e-22)
(0.0463202 -0.0107537 3.62958e-22)
(0.0465758 -0.0107517 5.63003e-23)
(0.0468337 -0.0107509 0)
(0.0470937 -0.010752 1.04194e-22)
(0.0473562 -0.0107547 4.93133e-23)
(0.0476221 -0.0107594 -4.58741e-23)
(0.0478914 -0.0107665 2.73686e-22)
(0.0481639 -0.0107777 1.80491e-22)
(0.0484396 -0.0107945 -3.34194e-22)
(0.0487195 -0.0108179 3.28984e-22)
(0.0490041 -0.0108491 -3.31404e-22)
(0.0492939 -0.0108895 3.15192e-22)
(0.0495904 -0.010941 2.97093e-22)
(0.0498955 -0.0110056 -6.30177e-22)
(0.0502116 -0.0110856 0)
(0.0505412 -0.0111839 -6.28643e-22)
(0.0508872 -0.0113044 -2.59928e-23)
(0.0512526 -0.0114526 6.10947e-22)
(0.0516405 -0.0116326 6.19679e-22)
(0.0520564 -0.0118503 -1.23777e-21)
(0.0525061 -0.0121106 4.50212e-23)
(0.0529982 -0.0124176 -7.00713e-22)
(0.0535452 -0.0127748 1.43168e-21)
(0.0541661 -0.013194 8.08857e-22)
(0.0548786 -0.0136825 7.25557e-24)
(0.055706 -0.0142419 6.09598e-22)
(0.0566828 -0.0148782 3.72048e-22)
(0.0578675 -0.0155844 1.70176e-21)
(0.0592132 -0.0163403 0)
(0.0605889 -0.0168992 -3.9154e-25)
(0.0608383 -0.017403 3.79246e-25)
(0.0375807 -0.00977696 0)
(0.0377997 -0.00987481 1.20417e-21)
(0.0380218 -0.00996823 5.94035e-21)
(0.0382422 -0.0100557 -4.72989e-21)
(0.0384619 -0.0101388 -3.45065e-21)
(0.0386813 -0.0102182 5.71633e-21)
(0.0389011 -0.0102939 -1.10218e-21)
(0.039122 -0.0103659 1.10732e-21)
(0.0393442 -0.010434 1.06377e-21)
(0.0395676 -0.0104985 4.19425e-21)
(0.039792 -0.0105593 -4.2042e-21)
(0.0400174 -0.0106165 -4.04408e-21)
(0.0402439 -0.0106702 1.06052e-21)
(0.0404715 -0.0107202 3.9321e-21)
(0.0407002 -0.0107667 -2.92218e-21)
(0.0409299 -0.0108097 9.56694e-22)
(0.0411602 -0.0108495 -9.39308e-22)
(0.0413913 -0.0108858 -9.22274e-22)
(0.0416231 -0.0109188 2.66767e-21)
(0.0418558 -0.0109485 -8.92332e-22)
(0.0420892 -0.0109751 -8.58659e-22)
(0.0423235 -0.0109986 0)
(0.0425587 -0.011019 -1.66585e-21)
(0.0427947 -0.0110367 8.46347e-22)
(0.0430314 -0.0110517 1.59318e-21)
(0.0432688 -0.0110642 1.54517e-21)
(0.043507 -0.0110742 -3.13296e-21)
(0.0437461 -0.0110816 1.5298e-21)
(0.0439864 -0.0110864 0)
(0.0442268 -0.0110892 1.47717e-21)
(0.0444694 -0.0110882 -4.24568e-24)
(0.0447133 -0.011085 -1.35549e-21)
(0.0449583 -0.0110804 6.37027e-22)
(0.0452047 -0.0110749 -1.54596e-21)
(0.0454525 -0.011069 3.00486e-22)
(0.0457015 -0.0110631 0)
(0.0459519 -0.0110574 0)
(0.0462039 -0.0110517 -1.30206e-22)
(0.0464578 -0.0110461 -1.21996e-22)
(0.0467137 -0.0110413 -5.96041e-23)
(0.0469716 -0.0110376 1.78419e-24)
(0.0472313 -0.0110353 -5.34292e-23)
(0.0474932 -0.0110344 0)
(0.0477575 -0.0110356 2.86901e-24)
(0.0480243 -0.0110401 0)
(0.0482939 -0.0110489 -1.78296e-22)
(0.0485668 -0.0110628 2.32967e-24)
(0.0488436 -0.0110831 5.34915e-22)
(0.0491249 -0.0111112 0)
(0.0494112 -0.0111489 3.37746e-22)
(0.0497036 -0.0111979 -3.32405e-22)
(0.0500035 -0.0112606 6.3926e-22)
(0.0503121 -0.0113397 0)
(0.0506315 -0.0114388 2.00967e-21)
(0.0509635 -0.0115621 -2.27842e-23)
(0.0513109 -0.0117147 -6.74403e-22)
(0.0516769 -0.0119018 -6.92509e-22)
(0.0520661 -0.0121297 0)
(0.052485 -0.0124053 0)
(0.0529422 -0.0127356 7.13796e-22)
(0.0534504 -0.0131288 -1.45942e-21)
(0.0540259 -0.0135941 -1.47993e-21)
(0.0546886 -0.0141422 0)
(0.0554686 -0.0147822 1.89997e-21)
(0.0564049 -0.0155256 0)
(0.0575528 -0.0163564 -1.92588e-21)
(0.0587981 -0.0172311 6.81434e-22)
(0.059778 -0.0178285 3.29065e-22)
(0.0590463 -0.0183632 4.35665e-22)
(0.0374307 -0.0101868 0)
(0.037654 -0.0102837 0)
(0.0378839 -0.0103763 1.26522e-21)
(0.0381149 -0.0104632 -4.87972e-21)
(0.0383472 -0.0105459 6.07108e-21)
(0.0385806 -0.010625 -1.17085e-21)
(0.0388149 -0.0107005 0)
(0.0390497 -0.0107722 -1.12887e-21)
(0.0392849 -0.0108399 0)
(0.0395207 -0.0109037 -2.18112e-21)
(0.0397569 -0.0109634 1.27597e-23)
(0.0399938 -0.0110191 2.13483e-21)
(0.0402311 -0.0110709 0)
(0.0404691 -0.0111188 -2.02201e-21)
(0.0407078 -0.0111629 6.00636e-21)
(0.040947 -0.0112032 -3.91247e-21)
(0.0411866 -0.0112399 4.81331e-21)
(0.0414267 -0.011273 -9.73095e-22)
(0.0416672 -0.0113026 9.37016e-22)
(0.041908 -0.0113289 -9.04697e-22)
(0.0421492 -0.0113518 -8.69094e-22)
(0.0423909 -0.0113715 2.664e-21)
(0.042633 -0.0113882 1.72655e-21)
(0.0428755 -0.011402 0)
(0.0431185 -0.011413 -1.64515e-21)
(0.043362 -0.0114213 -7.71063e-22)
(0.0436059 -0.0114272 2.42425e-21)
(0.0438502 -0.0114307 -7.83252e-22)
(0.044095 -0.011432 1.5304e-21)
(0.0443397 -0.0114313 -2.29068e-21)
(0.0445862 -0.0114272 7.29695e-22)
(0.0448335 -0.0114211 -3.48734e-22)
(0.0450816 -0.0114138 0)
(0.0453307 -0.0114054 3.14109e-22)
(0.0455808 -0.0113964 3.00468e-22)
(0.045832 -0.0113869 0)
(0.0460846 -0.0113769 -2.79519e-22)
(0.0463385 -0.0113666 3.93537e-22)
(0.0465938 -0.0113564 -2.57583e-22)
(0.0468506 -0.0113466 1.216e-22)
(0.047109 -0.0113376 1.87478e-24)
(0.047369 -0.01133 8.42403e-23)
(0.0476308 -0.0113242 -2.72386e-23)
(0.0478946 -0.0113209 -1.02488e-22)
(0.0481608 -0.011321 -3.99709e-24)
(0.0484298 -0.0113253 -5.85003e-22)
(0.0487018 -0.0113348 0)
(0.0489775 -0.0113509 -3.63034e-22)
(0.0492571 -0.011375 6.30387e-24)
(0.049541 -0.0114087 3.58537e-22)
(0.0498298 -0.011454 0)
(0.050124 -0.0115133 3.61835e-22)
(0.0504245 -0.0115895 -3.56301e-22)
(0.0507322 -0.0116863 -7.05334e-22)
(0.0510485 -0.0118082 0)
(0.0513755 -0.0119607 1.53333e-21)
(0.051716 -0.0121501 -1.61208e-21)
(0.0520743 -0.012384 1.68378e-21)
(0.0524565 -0.0126707 8.41621e-23)
(0.0528708 -0.0130195 0)
(0.0533287 -0.0134412 1.00658e-21)
(0.0538463 -0.0139481 -9.26215e-22)
(0.0544464 -0.0145551 -1.30921e-21)
(0.0551653 -0.0152767 -1.94413e-21)
(0.0560465 -0.0161275 3.5809e-21)
(0.0571208 -0.0170765 -2.11062e-21)
(0.0581319 -0.0180278 1.01432e-21)
(0.0583866 -0.0185919 -1.35122e-21)
(0.0563456 -0.0191417 -1.46724e-21)
(0.0373104 -0.0106243 -5.37947e-21)
(0.0375347 -0.0107201 7.01669e-23)
(0.0377667 -0.0108112 5.2845e-21)
(0.0380014 -0.0108962 0)
(0.0382391 -0.0109769 -1.24316e-21)
(0.03848 -0.011054 0)
(0.0387235 -0.0111276 2.40375e-21)
(0.0389689 -0.0111975 -3.52516e-23)
(0.0392156 -0.0112634 -3.52476e-21)
(0.0394632 -0.0113254 1.15411e-21)
(0.0397114 -0.0113832 1.11024e-21)
(0.03996 -0.0114369 1.10993e-21)
(0.0402089 -0.0114865 0)
(0.0404581 -0.0115321 0)
(0.0407074 -0.0115736 -1.02871e-21)
(0.0409568 -0.0116112 -1.0093e-21)
(0.0412063 -0.0116449 1.97808e-21)
(0.0414559 -0.0116748 -1.97924e-21)
(0.0417055 -0.011701 -1.92233e-21)
(0.0419551 -0.0117237 1.86663e-21)
(0.0422047 -0.0117428 -3.68847e-21)
(0.0424544 -0.0117587 5.39002e-23)
(0.042704 -0.0117713 1.81622e-21)
(0.0429537 -0.0117809 8.80832e-22)
(0.0432034 -0.0117876 1.69711e-21)
(0.0434532 -0.0117916 -1.70775e-21)
(0.043703 -0.011793 -1.63498e-21)
(0.0439529 -0.011792 1.64812e-21)
(0.0442028 -0.0117888 0)
(0.044453 -0.0117828 0)
(0.0447041 -0.0117737 -1.83861e-21)
(0.0449556 -0.0117626 1.4704e-23)
(0.0452074 -0.0117501 6.8658e-22)
(0.0454598 -0.0117365 6.39747e-22)
(0.0457129 -0.011722 -6.28794e-22)
(0.0459668 -0.0117069 0)
(0.0462215 -0.0116915 2.82256e-22)
(0.0464772 -0.0116761 4.0571e-22)
(0.046734 -0.011661 -2.64246e-22)
(0.0469921 -0.0116465 9.52753e-25)
(0.0472516 -0.0116332 1.83966e-23)
(0.0475127 -0.0116215 -8.63725e-23)
(0.0477757 -0.0116118 -5.60989e-23)
(0.0480408 -0.0116047 -1.06632e-22)
(0.0483084 -0.0116009 5.17615e-22)
(0.0485787 -0.0116012 -3.93266e-24)
(0.0488519 -0.0116066 0)
(0.0491281 -0.0116181 3.92784e-22)
(0.0494073 -0.0116371 -1.14713e-21)
(0.0496895 -0.0116652 7.63691e-22)
(0.0499745 -0.0117044 3.83581e-22)
(0.0502625 -0.0117572 1.25065e-23)
(0.0505535 -0.0118267 3.94085e-22)
(0.0508479 -0.0119169 3.47099e-23)
(0.0511465 -0.0120327 -8.02964e-22)
(0.0514507 -0.0121802 8.88549e-22)
(0.0517626 -0.0123666 9.33333e-22)
(0.0520857 -0.0126005 -1.91e-21)
(0.052425 -0.0128918 1.93711e-23)
(0.0527876 -0.0132521 -1.12716e-21)
(0.0531843 -0.0136951 1.11026e-21)
(0.0536315 -0.0142372 -1.13945e-21)
(0.0541559 -0.0148981 2.39723e-21)
(0.0548002 -0.0156976 1.41244e-21)
(0.0556044 -0.016649 -2.49017e-21)
(0.0565306 -0.0176897 1.81688e-21)
(0.0570751 -0.0186438 4.51096e-21)
(0.0561702 -0.0190994 8.24238e-22)
(0.0525894 -0.0196937 0)
(0.0372059 -0.011089 0)
(0.0374371 -0.0111847 -1.40429e-21)
(0.0376746 -0.0112749 3.04607e-23)
(0.0379136 -0.0113583 0)
(0.0381555 -0.0114368 0)
(0.0384008 -0.0115114 -1.2975e-21)
(0.0386495 -0.0115821 3.77242e-21)
(0.038901 -0.0116489 -4.93962e-21)
(0.0391549 -0.0117117 2.41735e-21)
(0.0394107 -0.0117704 -1.17579e-21)
(0.0396678 -0.011825 0)
(0.0399258 -0.0118753 -1.13059e-21)
(0.0401846 -0.0119215 1.12791e-21)
(0.0404437 -0.0119635 0)
(0.0407031 -0.0120014 0)
(0.0409626 -0.0120352 -1.02534e-21)
(0.041222 -0.012065 4.10809e-23)
(0.0414812 -0.0120909 2.04672e-21)
(0.0417402 -0.0121129 1.95152e-21)
(0.0419989 -0.0121311 -1.96908e-21)
(0.0422572 -0.0121458 -9.48524e-22)
(0.0425152 -0.012157 -3.72558e-21)
(0.0427728 -0.0121648 2.20936e-23)
(0.04303 -0.0121695 8.85669e-22)
(0.0432869 -0.0121712 -1.7908e-21)
(0.0435434 -0.0121701 8.41345e-22)
(0.0437996 -0.0121662 -1.72586e-21)
(0.0440556 -0.0121599 0)
(0.0443107 -0.0121515 0)
(0.0445666 -0.0121395 0)
(0.0448224 -0.012125 3.75367e-22)
(0.0450782 -0.0121088 7.08871e-22)
(0.0453339 -0.0120914 -7.00497e-22)
(0.0455898 -0.012073 -6.53142e-22)
(0.0458461 -0.012054 6.42137e-22)
(0.046103 -0.0120345 0)
(0.0463606 -0.0120149 -2.86909e-22)
(0.0466192 -0.0119953 1.43819e-22)
(0.0468789 -0.0119762 0)
(0.04714 -0.0119577 -1.28018e-22)
(0.0474028 -0.0119403 2.28675e-23)
(0.0476673 -0.0119244 -1.49835e-23)
(0.0479339 -0.0119103 5.67284e-23)
(0.0482026 -0.0118985 0)
(0.0484736 -0.0118897 2.13729e-22)
(0.0487469 -0.0118846 -2.10416e-22)
(0.0490224 -0.011884 0)
(0.0492998 -0.0118888 6.07011e-24)
(0.0495789 -0.0119004 -4.73068e-24)
(0.0498591 -0.0119203 -3.90916e-22)
(0.0501401 -0.0119505 0)
(0.0504213 -0.0119935 1.44311e-23)
(0.0507023 -0.0120526 4.03557e-22)
(0.0509828 -0.0121319 1.31178e-21)
(0.0512629 -0.0122366 4.56427e-23)
(0.051543 -0.0123732 -9.03354e-22)
(0.0518241 -0.0125497 0)
(0.0521083 -0.0127756 0)
(0.0523989 -0.0130626 -1.19422e-21)
(0.0527016 -0.0134246 0)
(0.0530263 -0.0138788 0)
(0.0533917 -0.0144464 2.55337e-23)
(0.0538299 -0.0151529 1.50301e-21)
(0.0543868 -0.0160212 3.5776e-21)
(0.0550753 -0.0170522 -3.66871e-21)
(0.0557103 -0.0181253 7.41377e-22)
(0.0554156 -0.0189709 -1.4616e-21)
(0.0528845 -0.0192583 -1.77516e-21)
(0.0477906 -0.0199764 0)
(0.037098 -0.011578 0)
(0.0373425 -0.0116746 1.43085e-21)
(0.0375919 -0.0117648 -4.21491e-21)
(0.0378412 -0.0118474 1.39314e-21)
(0.0380919 -0.0119244 0)
(0.0383449 -0.0119968 3.97098e-21)
(0.0386004 -0.0120648 -6.52818e-21)
(0.0388585 -0.0121285 4.07181e-23)
(0.0391188 -0.0121877 6.26932e-21)
(0.039381 -0.0122424 -1.24082e-21)
(0.0396449 -0.0122927 1.21605e-21)
(0.0399101 -0.0123386 1.19111e-21)
(0.0401764 -0.0123801 -3.44225e-21)
(0.0404435 -0.0124173 4.53674e-21)
(0.0407111 -0.0124503 -2.24397e-21)
(0.0409789 -0.0124791 1.07518e-21)
(0.0412467 -0.0125037 -4.26726e-21)
(0.0415144 -0.0125244 1.06054e-21)
(0.0417818 -0.0125411 -1.00922e-21)
(0.0420487 -0.012554 1.05404e-21)
(0.0423151 -0.0125632 4.4471e-23)
(0.042581 -0.0125689 5.7863e-21)
(0.0428461 -0.0125712 8.95056e-22)
(0.0431106 -0.0125704 -4.52403e-23)
(0.0433745 -0.0125665 -2.75417e-21)
(0.0436376 -0.0125598 8.86908e-22)
(0.0439001 -0.0125504 -1.72616e-21)
(0.0441621 -0.0125385 2.60103e-21)
(0.0444228 -0.0125244 0)
(0.0446841 -0.0125067 7.92346e-22)
(0.044945 -0.012487 -7.78825e-22)
(0.0452056 -0.0124658 -3.1405e-24)
(0.0454659 -0.0124436 3.53172e-22)
(0.0457264 -0.0124205 3.38192e-22)
(0.0459872 -0.0123967 -9.61043e-22)
(0.0462486 -0.0123726 6.26658e-22)
(0.0465108 -0.0123483 -4.41029e-22)
(0.0467741 -0.0123242 5.68058e-22)
(0.0470386 -0.0123004 -2.75855e-22)
(0.0473046 -0.0122773 6.50496e-23)
(0.0475722 -0.0122552 0)
(0.0478416 -0.0122344 -6.0022e-23)
(0.0481128 -0.0122152 5.9083e-23)
(0.0483859 -0.0121981 1.12636e-22)
(0.0486608 -0.0121835 -3.30246e-22)
(0.0489372 -0.0121719 2.1747e-22)
(0.049215 -0.0121641 2.11255e-22)
(0.0494936 -0.0121609 0)
(0.0497725 -0.0121634 8.29523e-22)
(0.050051 -0.012173 -8.25488e-22)
(0.0503282 -0.0121916 4.1395e-22)
(0.0506032 -0.0122217 -4.00729e-22)
(0.0508749 -0.0122664 -4.18439e-22)
(0.0511423 -0.0123299 -8.81001e-22)
(0.0514044 -0.0124176 -9.24463e-22)
(0.0516603 -0.0125362 0)
(0.0519094 -0.0126943 1.10123e-21)
(0.0521517 -0.0129024 0)
(0.0523885 -0.0131737 -1.19849e-22)
(0.0526238 -0.0135249 1.3444e-21)
(0.0528683 -0.0139773 -1.45182e-21)
(0.0531447 -0.0145577 -1.58947e-21)
(0.0534905 -0.0152966 1.96722e-21)
(0.0539413 -0.0162138 2.37679e-22)
(0.0544344 -0.0172774 -7.31506e-23)
(0.0545148 -0.0182791 -6.69763e-21)
(0.0528681 -0.0188799 -2.53668e-21)
(0.048379 -0.0189984 -2.24096e-21)
(0.0422003 -0.0199661 2.2146e-21)
(0.0369785 -0.0120912 0)
(0.0372388 -0.0121887 0)
(0.0375037 -0.0122792 -2.92699e-21)
(0.0377678 -0.0123615 4.33713e-21)
(0.0380322 -0.0124375 1.42808e-21)
(0.0382979 -0.0125084 0)
(0.038565 -0.0125742 0)
(0.0388336 -0.012635 -1.34069e-21)
(0.0391035 -0.0126909 2.58041e-21)
(0.0393746 -0.0127418 -2.35173e-23)
(0.0396468 -0.0127877 -6.22741e-21)
(0.03992 -0.0128288 1.2534e-21)
(0.0401939 -0.0128653 -1.16483e-21)
(0.0404685 -0.0128971 2.36472e-21)
(0.0407435 -0.0129244 -1.15407e-21)
(0.0410188 -0.0129474 0)
(0.041294 -0.012966 0)
(0.041569 -0.0129806 2.24481e-23)
(0.0418437 -0.0129911 3.19192e-21)
(0.0421179 -0.0129977 -1.02679e-21)
(0.0423914 -0.0130007 1.01636e-21)
(0.0426643 -0.0130001 -9.85739e-22)
(0.0429363 -0.0129961 -9.43275e-22)
(0.0432075 -0.012989 9.71267e-22)
(0.0434778 -0.0129788 9.28077e-22)
(0.0437473 -0.0129659 0)
(0.0440159 -0.0129504 0)
(0.0442836 -0.0129325 -1.3157e-21)
(0.0445505 -0.0129119 0)
(0.0448175 -0.0128883 -8.0395e-22)
(0.0450839 -0.0128629 7.90465e-22)
(0.0453498 -0.0128363 3.71727e-22)
(0.0456156 -0.0128088 -3.55966e-22)
(0.0458814 -0.0127805 -6.8388e-22)
(0.0461476 -0.0127517 3.26626e-22)
(0.0464143 -0.0127226 3.09868e-22)
(0.0466819 -0.0126934 -3.05612e-22)
(0.0469505 -0.0126644 0)
(0.0472203 -0.0126358 0)
(0.0474915 -0.0126078 -6.6541e-23)
(0.0477641 -0.0125807 0)
(0.0480382 -0.0125545 0)
(0.0483139 -0.0125297 1.77868e-22)
(0.0485911 -0.0125065 -2.32036e-22)
(0.0488696 -0.0124851 1.12431e-22)
(0.0491491 -0.012466 -2.18424e-22)
(0.0494293 -0.0124497 0)
(0.0497096 -0.0124368 -6.39008e-22)
(0.0499892 -0.0124283 6.86536e-25)
(0.0502671 -0.0124254 0)
(0.0505422 -0.0124297 8.51253e-22)
(0.0508129 -0.0124435 -9.13162e-24)
(0.0510775 -0.0124696 8.84549e-22)
(0.051334 -0.0125121 4.71253e-22)
(0.0515799 -0.0125761 1.03176e-21)
(0.0518129 -0.0126685 -1.01915e-21)
(0.05203 -0.0127981 -1.12048e-21)
(0.0522288 -0.0129763 0)
(0.0524082 -0.0132179 1.46542e-21)
(0.0525718 -0.0135429 2.81561e-23)
(0.0527332 -0.0139775 0)
(0.0529212 -0.0145539 0)
(0.0531707 -0.0153032 -2.02095e-21)
(0.0534738 -0.0162291 0)
(0.0536034 -0.0172379 0)
(0.052692 -0.0180175 2.71483e-21)
(0.0491343 -0.0182511 2.41185e-21)
(0.0427055 -0.0182993 3.09015e-21)
(0.0362877 -0.019729 0)
(0.0368501 -0.0126314 0)
(0.0371259 -0.0127292 0)
(0.0374067 -0.0128196 0)
(0.0376867 -0.0129011 1.51391e-21)
(0.0379668 -0.012976 1.45923e-21)
(0.0382479 -0.0130452 -4.54597e-23)
(0.0385298 -0.0131089 -2.83588e-21)
(0.0388124 -0.0131671 1.36456e-21)
(0.0390956 -0.0132198 -1.35685e-21)
(0.0393792 -0.013267 -2.63385e-21)
(0.0396631 -0.0133088 0)
(0.0399471 -0.0133452 0)
(0.0402312 -0.0133765 -2.34759e-23)
(0.0405154 -0.0134028 -3.65228e-21)
(0.0407994 -0.0134243 4.69884e-21)
(0.0410832 -0.0134411 -4.84943e-23)
(0.0413666 -0.0134533 -2.28579e-21)
(0.0416495 -0.0134612 -1.10051e-21)
(0.0419317 -0.0134649 1.04322e-23)
(0.0422132 -0.0134647 0)
(0.0424938 -0.0134606 -2.07438e-21)
(0.0427735 -0.013453 0)
(0.0430522 -0.013442 -1.9883e-21)
(0.0433299 -0.0134278 2.8935e-21)
(0.0436065 -0.0134107 -2.8891e-21)
(0.0438821 -0.0133908 -9.366e-22)
(0.0441568 -0.0133684 1.36178e-21)
(0.0444299 -0.013344 -1.3473e-21)
(0.044703 -0.0133162 8.74537e-22)
(0.0449755 -0.0132861 0)
(0.0452473 -0.0132546 7.7845e-22)
(0.0455186 -0.013222 3.57656e-22)
(0.0457897 -0.0131887 -7.33149e-22)
(0.0460607 -0.0131548 6.92164e-22)
(0.046332 -0.0131205 -3.27303e-22)
(0.0466038 -0.013086 3.22087e-22)
(0.0468763 -0.0130515 1.5196e-22)
(0.0471497 -0.0130172 -1.45883e-22)
(0.0474242 -0.0129832 -6.83593e-23)
(0.0476999 -0.0129497 2.03359e-22)
(0.0479769 -0.0129168 1.61661e-23)
(0.0482552 -0.0128846 0)
(0.048535 -0.0128534 -6.02611e-23)
(0.0488161 -0.0128232 1.16841e-22)
(0.0490984 -0.0127942 -1.13655e-22)
(0.0493815 -0.0127667 0)
(0.0496651 -0.0127409 0)
(0.0499485 -0.0127173 -2.16987e-22)
(0.0502307 -0.0126965 4.25982e-22)
(0.0505106 -0.0126793 8.59952e-22)
(0.0507864 -0.012667 -1.73291e-21)
(0.0510562 -0.0126612 4.46656e-22)
(0.0513173 -0.0126646 -4.47827e-22)
(0.0515665 -0.0126804 -4.78119e-22)
(0.0517999 -0.0127135 1.06455e-21)
(0.0520128 -0.0127704 -1.05243e-21)
(0.0521996 -0.0128598 0)
(0.0523551 -0.0129938 1.32812e-21)
(0.0524773 -0.0131895 8.33032e-23)
(0.0525722 -0.0134706 -1.55883e-21)
(0.0526593 -0.0138681 0)
(0.0527684 -0.0144163 0)
(0.0529066 -0.0151377 0)
(0.0529561 -0.0159975 -5.74837e-21)
(0.0523937 -0.0168108 -3.47863e-21)
(0.0498754 -0.0171884 -3.29342e-21)
(0.0440136 -0.0170199 6.61671e-21)
(0.0361501 -0.0172321 3.52974e-22)
(0.0305565 -0.0194671 -3.68812e-21)
(0.0367191 -0.0132029 0)
(0.0370098 -0.0133002 3.23286e-21)
(0.0373061 -0.0133896 -4.01299e-21)
(0.0376015 -0.0134696 2.33109e-21)
(0.0378973 -0.0135425 -4.60336e-21)
(0.0381939 -0.0136094 -1.50098e-21)
(0.0384914 -0.0136703 -1.4672e-21)
(0.0387894 -0.0137253 0)
(0.0390876 -0.0137744 2.78169e-21)
(0.0393857 -0.0138175 2.67519e-21)
(0.0396835 -0.0138548 -2.68406e-21)
(0.0399808 -0.0138863 1.3072e-21)
(0.0402776 -0.0139122 -1.25261e-21)
(0.0405738 -0.0139328 1.28586e-21)
(0.0408691 -0.0139481 4.86937e-21)
(0.0411636 -0.0139584 -5.134e-23)
(0.0414571 -0.0139639 -5.13477e-23)
(0.0417494 -0.0139647 -2.29587e-21)
(0.0420406 -0.0139612 -1.10524e-21)
(0.0423305 -0.0139536 -2.14577e-21)
(0.0426191 -0.013942 2.14283e-21)
(0.0429063 -0.0139268 0)
(0.0431922 -0.0139081 -5.40843e-24)
(0.0434767 -0.0138863 0)
(0.0437598 -0.0138616 9.71006e-22)
(0.0440416 -0.0138342 9.50764e-22)
(0.0443221 -0.0138044 -4.65564e-22)
(0.044601 -0.0137723 0)
(0.0448797 -0.013737 -4.35173e-22)
(0.0451574 -0.0137 -8.20769e-22)
(0.0454342 -0.0136618 8.07516e-22)
(0.0457103 -0.0136227 -3.80658e-22)
(0.0459861 -0.0135831 7.20017e-22)
(0.0462617 -0.013543 -1.40247e-21)
(0.0465374 -0.0135026 3.39283e-22)
(0.0468135 -0.0134621 0)
(0.0470902 -0.0134217 1.53183e-22)
(0.0473677 -0.0133814 3.63864e-25)
(0.0476462 -0.0133415 -2.09997e-22)
(0.0479259 -0.0133019 1.70783e-22)
(0.048207 -0.0132628 -3.30662e-23)
(0.0484896 -0.0132243 9.3584e-23)
(0.0487737 -0.0131864 -6.13468e-23)
(0.0490594 -0.013149 0)
(0.0493464 -0.0131123 0)
(0.0496347 -0.0130761 0)
(0.0499237 -0.0130405 -2.17023e-22)
(0.0502126 -0.0130056 -2.13658e-22)
(0.0505005 -0.0129716 0)
(0.0507857 -0.0129387 -4.2056e-22)
(0.0510663 -0.0129076 -4.19402e-22)
(0.0513397 -0.0128794 -4.36116e-22)
(0.0516023 -0.0128558 0)
(0.0518496 -0.0128393 0)
(0.0520756 -0.0128338 1.07407e-21)
(0.0522728 -0.0128448 -1.06273e-21)
(0.0524331 -0.012881 0)
(0.0525504 -0.0129553 -1.35187e-21)
(0.0526253 -0.0130875 1.51833e-21)
(0.0526701 -0.013305 1.75477e-21)
(0.0527071 -0.0136406 -2.17407e-21)
(0.0527454 -0.0141226 2.15926e-21)
(0.0527074 -0.0147471 0)
(0.0522581 -0.0154136 2.95017e-21)
(0.0504428 -0.0158386 -2.95672e-22)
(0.0456553 -0.0156618 7.56136e-21)
(0.0375194 -0.0152203 8.2234e-21)
(0.0292109 -0.0159566 -8.5382e-21)
(0.0255082 -0.0193 4.12569e-21)
(0.0365914 -0.0138105 8.71952e-22)
(0.0368971 -0.0139065 0)
(0.0372087 -0.013994 8.17841e-22)
(0.0375195 -0.0140716 -3.99734e-21)
(0.0378305 -0.0141415 7.07102e-21)
(0.0381425 -0.014205 -1.57827e-21)
(0.0384552 -0.0142621 1.49311e-21)
(0.0387684 -0.0143129 -2.91168e-21)
(0.0390817 -0.0143574 1.47233e-21)
(0.0393947 -0.0143955 1.39251e-21)
(0.0397071 -0.0144273 1.37641e-21)
(0.0400186 -0.014453 -3.97607e-21)
(0.0403291 -0.0144728 1.32707e-21)
(0.0406384 -0.0144868 -3.80508e-21)
(0.0409464 -0.0144953 -1.1857e-21)
(0.0412529 -0.0144984 5.43225e-23)
(0.0415578 -0.0144965 2.40564e-21)
(0.0418609 -0.0144897 0)
(0.0421622 -0.0144783 0)
(0.0424617 -0.0144626 1.11194e-21)
(0.0427593 -0.0144429 1.08154e-21)
(0.0430549 -0.0144195 2.0935e-21)
(0.0433486 -0.0143926 -1.06577e-21)
(0.0436405 -0.0143626 -2.0001e-21)
(0.0439305 -0.0143296 2.00933e-21)
(0.0442188 -0.0142941 -4.84667e-22)
(0.0445051 -0.0142563 -4.73979e-22)
(0.0447902 -0.0142157 0)
(0.0450742 -0.0141725 4.37564e-22)
(0.0453568 -0.014128 8.25849e-22)
(0.0456383 -0.0140826 -2.24759e-23)
(0.0459189 -0.0140365 -7.77893e-22)
(0.0461989 -0.01399 3.66302e-22)
(0.0464787 -0.0139432 0)
(0.0467584 -0.0138963 -1.6766e-22)
(0.0470385 -0.0138494 1.60422e-22)
(0.0473191 -0.0138027 -1.54426e-22)
(0.0476007 -0.0137563 2.95061e-22)
(0.0478833 -0.0137103 0)
(0.0481674 -0.0136648 3.38191e-23)
(0.0484531 -0.0136196 -3.26517e-23)
(0.0487406 -0.0135749 4.63807e-23)
(0.0490302 -0.0135305 -1.81957e-22)
(0.0493218 -0.0134862 3.52329e-22)
(0.0496155 -0.0134418 -2.30223e-22)
(0.0499109 -0.0133971 -2.2155e-22)
(0.0502078 -0.0133518 2.23177e-22)
(0.0505053 -0.0133054 -4.2325e-22)
(0.0508023 -0.0132576 4.22898e-22)
(0.0510971 -0.0132082 1.0625e-21)
(0.0513875 -0.0131569 1.059e-23)
(0.0516702 -0.0131039 4.41512e-22)
(0.0519406 -0.0130497 0)
(0.0521923 -0.0129953 0)
(0.052417 -0.0129432 1.05416e-21)
(0.0526053 -0.0128979 -1.67049e-21)
(0.052749 -0.0128679 1.14463e-21)
(0.0528458 -0.0128677 0)
(0.0529037 -0.0129192 -1.51478e-21)
(0.0529392 -0.0130503 -3.73682e-21)
(0.0529568 -0.0132875 2.14159e-21)
(0.0528905 -0.013637 4.07012e-22)
(0.0524819 -0.0140456 -2.6745e-21)
(0.0510451 -0.0143287 -1.75085e-22)
(0.047206 -0.0141519 7.67592e-21)
(0.0397364 -0.0133987 -8.35031e-21)
(0.0299378 -0.0129991 -4.6563e-21)
(0.0224505 -0.0146832 0)
(0.0211995 -0.0192983 0)
(0.0364706 -0.0144586 -8.87496e-22)
(0.0367922 -0.0145527 -4.35716e-21)
(0.0371198 -0.0146376 3.44792e-21)
(0.0374464 -0.0147118 0)
(0.0377731 -0.0147778 8.07872e-22)
(0.0381006 -0.0148369 3.15065e-21)
(0.0384288 -0.0148891 -2.35164e-21)
(0.0387572 -0.0149345 3.76103e-21)
(0.0390855 -0.0149732 -2.98465e-21)
(0.0394132 -0.015005 0)
(0.0397401 -0.0150302 -6.92767e-22)
(0.0400658 -0.0150489 0)
(0.0403901 -0.0150613 -1.31695e-21)
(0.0407127 -0.0150676 3.94584e-21)
(0.0410336 -0.0150681 0)
(0.0413524 -0.015063 0)
(0.0416691 -0.0150526 0)
(0.0419834 -0.0150371 1.75086e-21)
(0.0422954 -0.0150169 -2.34603e-21)
(0.0426048 -0.0149923 -1.12912e-21)
(0.0429118 -0.0149636 0)
(0.0432162 -0.0149311 0)
(0.0435182 -0.0148951 0)
(0.0438177 -0.014856 2.54649e-21)
(0.0441148 -0.0148141 -3.03335e-21)
(0.0444097 -0.0147697 1.48937e-21)
(0.0447019 -0.0147232 9.5826e-22)
(0.044993 -0.0146735 -9.05741e-22)
(0.0452823 -0.014622 8.91556e-22)
(0.0455699 -0.0145695 -4.18992e-22)
(0.0458561 -0.0145163 7.92574e-22)
(0.0461412 -0.0144628 -3.97123e-22)
(0.0464256 -0.014409 -7.35267e-22)
(0.0467096 -0.0143553 -3.5048e-22)
(0.0469936 -0.0143017 1.68883e-22)
(0.0472779 -0.0142484 -1.61642e-22)
(0.047563 -0.0141955 0)
(0.047849 -0.0141431 -1.58812e-24)
(0.0481365 -0.0140912 -6.9821e-23)
(0.0484257 -0.0140398 1.00552e-24)
(0.0487169 -0.0139889 3.25637e-23)
(0.0490106 -0.0139383 -7.78506e-23)
(0.0493069 -0.0138878 1.21023e-22)
(0.049606 -0.0138371 5.7721e-23)
(0.049908 -0.0137856 -1.11563e-22)