/*--------------------------------*- C++ -*----------------------------------*\
| =========                 |                                                 |
| \\      /  F ield         | OpenFOAM: The Open Source CFD Toolbox           |
|  \\    /   O peration     | Version:  2312                                  |
|   \\  /    A nd           | Website:  www.openfoam.com                      |
|    \\/     M anipulation  |                                                 |
\*---------------------------------------------------------------------------*/
FoamFile
{
    version     2.0;
    format      ascii;
    arch        "LSB;label=32;scalar=64";
    class       volScalarField;
    location    "600";
    object      k;
}
// * * * * * * * * * * * * * * * * * * * * * * * * * * * * * * * * * * * * * //

dimensions      [0 2 -2 0 0 0 0];

internalField   nonuniform List<scalar> 
76025
(
5.03334e-06
5.03411e-06
5.04105e-06
5.04308e-06
5.04418e-06
5.04439e-06
5.05014e-06
5.05172e-06
5.04931e-06
5.05606e-06
5.05828e-06
5.06255e-06
5.06284e-06
5.06436e-06
5.06193e-06
5.06206e-06
5.06609e-06
5.07411e-06
5.07791e-06
5.08432e-06
5.08615e-06
5.09729e-06
5.08957e-06
5.10083e-06
5.09395e-06
5.09149e-06
5.09883e-06
5.10721e-06
5.12129e-06
5.13471e-06
5.15126e-06
5.16716e-06
5.19159e-06
5.21505e-06
5.2436e-06
5.27253e-06
5.30649e-06
5.34874e-06
5.39157e-06
5.43885e-06
5.48829e-06
5.54676e-06
5.61179e-06
5.67975e-06
5.75087e-06
5.82762e-06
5.90875e-06
5.99508e-06
6.08625e-06
6.18146e-06
6.2846e-06
6.39607e-06
6.51906e-06
6.64295e-06
6.80136e-06
6.96192e-06
7.15828e-06
7.3912e-06
7.67419e-06
8.01728e-06
8.41904e-06
8.93065e-06
9.60229e-06
1.04189e-05
1.15705e-05
1.29775e-05
1.48659e-05
1.7172e-05
2.00784e-05
5.14018e-06
5.14124e-06
5.14485e-06
5.14794e-06
5.15047e-06
5.15254e-06
5.15627e-06
5.16134e-06
5.16559e-06
5.17013e-06
5.17378e-06
5.17827e-06
5.18241e-06
5.18608e-06
5.19089e-06
5.19496e-06
5.20169e-06
5.20845e-06
5.21763e-06
5.22787e-06
5.23834e-06
5.25154e-06
5.25632e-06
5.28757e-06
5.30028e-06
5.31433e-06
5.32614e-06
5.31846e-06
5.32138e-06
5.33267e-06
5.35022e-06
5.37142e-06
5.39768e-06
5.42633e-06
5.45773e-06
5.49153e-06
5.52744e-06
5.56655e-06
5.60778e-06
5.65247e-06
5.70171e-06
5.7554e-06
5.81339e-06
5.87605e-06
5.94425e-06
6.01834e-06
6.09783e-06
6.1835e-06
6.27728e-06
6.3804e-06
6.49319e-06
6.61945e-06
6.7594e-06
6.91842e-06
7.09921e-06
7.30982e-06
7.55496e-06
7.84e-06
8.18249e-06
8.5858e-06
9.09001e-06
9.70604e-06
1.05022e-05
1.15e-05
1.2837e-05
1.4473e-05
1.66566e-05
1.91093e-05
2.24059e-05
5.27194e-06
5.27547e-06
5.27362e-06
5.27729e-06
5.28557e-06
5.2996e-06
5.3038e-06
5.30014e-06
5.30191e-06
5.30657e-06
5.31285e-06
5.31956e-06
5.32667e-06
5.33338e-06
5.34111e-06
5.34877e-06
5.35697e-06
5.36606e-06
5.37576e-06
5.38653e-06
5.39825e-06
5.41066e-06
5.42169e-06
5.43672e-06
5.44964e-06
5.46293e-06
5.47664e-06
5.4901e-06
5.50575e-06
5.52409e-06
5.54575e-06
5.57028e-06
5.59802e-06
5.62858e-06
5.66166e-06
5.69715e-06
5.73513e-06
5.77588e-06
5.81964e-06
5.867e-06
5.91877e-06
5.97557e-06
6.03759e-06
6.10555e-06
6.17987e-06
6.26101e-06
6.34957e-06
6.44658e-06
6.5536e-06
6.67202e-06
6.80358e-06
6.95086e-06
7.1165e-06
7.30407e-06
7.51813e-06
7.76524e-06
8.05167e-06
8.38888e-06
8.79184e-06
9.27776e-06
9.88089e-06
1.06248e-05
1.15836e-05
1.27778e-05
1.43303e-05
1.61979e-05
1.85884e-05
2.12536e-05
2.47274e-05
5.42678e-06
5.42666e-06
5.42823e-06
5.43352e-06
5.44047e-06
5.44886e-06
5.45986e-06
5.47544e-06
5.47163e-06
5.48008e-06
5.47729e-06
5.48114e-06
5.48823e-06
5.49595e-06
5.5042e-06
5.51309e-06
5.52395e-06
5.53672e-06
5.54959e-06
5.56222e-06
5.57478e-06
5.58756e-06
5.60101e-06
5.61668e-06
5.63384e-06
5.65182e-06
5.67085e-06
5.69084e-06
5.71231e-06
5.73549e-06
5.76081e-06
5.78842e-06
5.81858e-06
5.8514e-06
5.88689e-06
5.92521e-06
5.96663e-06
6.01145e-06
6.05999e-06
6.11291e-06
6.17092e-06
6.23465e-06
6.30467e-06
6.38145e-06
6.46581e-06
6.55816e-06
6.65946e-06
6.77098e-06
6.89424e-06
7.03122e-06
7.18393e-06
7.35533e-06
7.54851e-06
7.76809e-06
8.01935e-06
8.31033e-06
8.6505e-06
9.05344e-06
9.53822e-06
1.01275e-05
1.08587e-05
1.17644e-05
1.29114e-05
1.43207e-05
1.60949e-05
1.81815e-05
2.07709e-05
2.35967e-05
2.72018e-05
5.6099e-06
5.61547e-06
5.62122e-06
5.6263e-06
5.63312e-06
5.64479e-06
5.65598e-06
5.66825e-06
5.6729e-06
5.69276e-06
5.69689e-06
5.69052e-06
5.6908e-06
5.70211e-06
5.72286e-06
5.75503e-06
5.76714e-06
5.76226e-06
5.76715e-06
5.78082e-06
5.8016e-06
5.83272e-06
5.87972e-06
5.89972e-06
5.89516e-06
5.90152e-06
5.91569e-06
5.93482e-06
5.95743e-06
5.98282e-06
6.01103e-06
6.04181e-06
6.07531e-06
6.11167e-06
6.15103e-06
6.19374e-06
6.24036e-06
6.29099e-06
6.34605e-06
6.40669e-06
6.47328e-06
6.54649e-06
6.6271e-06
6.71532e-06
6.81246e-06
6.91885e-06
7.03571e-06
7.16463e-06
7.3074e-06
7.4664e-06
7.64413e-06
7.84427e-06
8.07069e-06
8.32948e-06
8.62719e-06
8.97447e-06
9.38297e-06
9.87093e-06
1.046e-05
1.11793e-05
1.20666e-05
1.31579e-05
1.4509e-05
1.61376e-05
1.81228e-05
2.04091e-05
2.3161e-05
2.61069e-05
2.97995e-05
5.82497e-06
5.83318e-06
5.84182e-06
5.85084e-06
5.86062e-06
5.87033e-06
5.88086e-06
5.90277e-06
5.91995e-06
5.93226e-06
5.96051e-06
5.96805e-06
5.95942e-06
5.95907e-06
5.96969e-06
5.98765e-06
6.00977e-06
6.03881e-06
6.05524e-06
6.06937e-06
6.09266e-06
6.12125e-06
6.15681e-06
6.19566e-06
6.21537e-06
6.27505e-06
6.2984e-06
6.28602e-06
6.28209e-06
6.2961e-06
6.3226e-06
6.35538e-06
6.39091e-06
6.4299e-06
6.47302e-06
6.52077e-06
6.57347e-06
6.63145e-06
6.6951e-06
6.76485e-06
6.84136e-06
6.92519e-06
7.01727e-06
7.1183e-06
7.2298e-06
7.35245e-06
7.48761e-06
7.63717e-06
7.80334e-06
7.989e-06
8.19746e-06
8.43332e-06
8.7018e-06
9.01067e-06
9.36861e-06
9.78909e-06
1.02867e-05
1.0884e-05
1.16048e-05
1.24822e-05
1.35502e-05
1.48444e-05
1.64053e-05
1.82464e-05
2.04227e-05
2.28808e-05
2.57552e-05
2.87847e-05
3.2518e-05
6.08045e-06
6.09037e-06
6.10086e-06
6.11232e-06
6.1245e-06
6.13695e-06
6.14903e-06
6.16542e-06
6.18074e-06
6.1942e-06
6.2081e-06
6.2194e-06
6.22889e-06
6.23967e-06
6.25343e-06
6.27051e-06
6.29139e-06
6.31522e-06
6.33744e-06
6.35967e-06
6.38637e-06
6.41384e-06
6.44716e-06
6.48236e-06
6.5174e-06
6.55181e-06
6.59674e-06
6.64254e-06
6.69337e-06
6.72929e-06
6.8222e-06
6.86092e-06
6.8437e-06
6.85118e-06
6.87969e-06
6.92315e-06
6.97773e-06
7.04139e-06
7.1131e-06
7.19267e-06
7.28034e-06
7.37676e-06
7.48276e-06
7.59951e-06
7.72836e-06
7.871e-06
8.0287e-06
8.20389e-06
8.39943e-06
8.61903e-06
8.86709e-06
9.14952e-06
9.47332e-06
9.84835e-06
1.02858e-05
1.08022e-05
1.14147e-05
1.21489e-05
1.30289e-05
1.4088e-05
1.5353e-05
1.68553e-05
1.86187e-05
2.0654e-05
2.29925e-05
2.55876e-05
2.85393e-05
3.16194e-05
3.53132e-05
6.39158e-06
6.40285e-06
6.41447e-06
6.42697e-06
6.44003e-06
6.45297e-06
6.46523e-06
6.47769e-06
6.49037e-06
6.50487e-06
6.52149e-06
6.53821e-06
6.55505e-06
6.57212e-06
6.59038e-06
6.60972e-06
6.63135e-06
6.65495e-06
6.68018e-06
6.70722e-06
6.73723e-06
6.76936e-06
6.8037e-06
6.83996e-06
6.87756e-06
6.91619e-06
6.954e-06
6.99744e-06
7.04187e-06
7.0845e-06
7.1313e-06
7.17605e-06
7.21859e-06
7.26611e-06
7.32064e-06
7.38338e-06
7.45312e-06
7.52983e-06
7.61353e-06
7.70537e-06
7.80627e-06
7.91745e-06
8.04007e-06
8.1759e-06
8.32635e-06
8.49426e-06
8.68098e-06
8.88961e-06
9.12395e-06
9.38874e-06
9.68982e-06
1.00347e-05
1.04326e-05
1.08953e-05
1.14369e-05
1.20756e-05
1.28308e-05
1.37281e-05
1.47895e-05
1.60445e-05
1.75108e-05
1.92138e-05
2.11616e-05
2.33638e-05
2.58288e-05
2.85205e-05
3.15028e-05
3.45943e-05
3.8148e-05
6.7715e-06
6.78509e-06
6.79917e-06
6.81403e-06
6.82989e-06
6.84782e-06
6.87006e-06
6.90053e-06
6.94559e-06
6.96263e-06
6.95714e-06
6.96111e-06
6.97153e-06
6.98676e-06
7.00494e-06
7.02582e-06
7.04904e-06
7.07432e-06
7.10286e-06
7.13311e-06
7.16828e-06
7.20569e-06
7.24614e-06
7.2911e-06
7.33971e-06
7.39086e-06
7.44209e-06
7.49267e-06
7.54493e-06
7.59532e-06
7.64947e-06
7.70708e-06
7.76633e-06
7.83748e-06
7.91009e-06
7.9935e-06
8.07525e-06
8.15559e-06
8.23981e-06
8.33601e-06
8.44635e-06
8.57198e-06
8.71393e-06
8.8736e-06
9.0528e-06
9.2541e-06
9.48031e-06
9.73464e-06
1.00219e-05
1.03483e-05
1.07211e-05
1.11497e-05
1.16452e-05
1.22215e-05
1.28941e-05
1.36822e-05
1.46046e-05
1.56845e-05
1.69393e-05
1.83923e-05
2.00517e-05
2.19369e-05
2.40418e-05
2.63762e-05
2.89266e-05
3.16689e-05
3.46342e-05
3.7673e-05
4.10344e-05
7.23708e-06
7.25366e-06
7.27115e-06
7.29083e-06
7.31248e-06
7.33565e-06
7.36035e-06
7.38659e-06
7.41291e-06
7.43377e-06
7.44909e-06
7.46367e-06
7.47964e-06
7.498e-06
7.51913e-06
7.54277e-06
7.56962e-06
7.59852e-06
7.63196e-06
7.66697e-06
7.70829e-06
7.7521e-06
7.80093e-06
7.85584e-06
7.91445e-06
7.98079e-06
8.05309e-06
8.12293e-06
8.21212e-06
8.285e-06
8.37663e-06
8.48721e-06
8.56226e-06
8.72981e-06
8.82368e-06
9.03838e-06
9.1194e-06
9.09185e-06
9.08303e-06
9.14125e-06
9.2444e-06
9.38129e-06
9.54654e-06
9.73819e-06
9.9569e-06
1.02044e-05
1.0485e-05
1.08018e-05
1.11609e-05
1.15698e-05
1.20374e-05
1.25747e-05
1.31942e-05
1.39105e-05
1.47395e-05
1.56988e-05
1.68048e-05
1.80759e-05
1.95237e-05
2.11644e-05
2.29976e-05
2.50366e-05
2.72635e-05
2.96885e-05
3.22776e-05
3.50211e-05
3.79161e-05
4.08288e-05
4.39391e-05
7.81309e-06
7.83331e-06
7.85424e-06
7.87741e-06
7.90288e-06
7.93018e-06
7.95853e-06
7.98703e-06
8.01464e-06
8.04018e-06
8.06383e-06
8.08649e-06
8.10958e-06
8.13404e-06
8.16032e-06
8.18971e-06
8.22133e-06
8.25748e-06
8.29612e-06
8.34169e-06
8.38887e-06
8.44631e-06
8.50227e-06
8.57427e-06
8.64174e-06
8.72894e-06
8.81335e-06
8.90553e-06
9.02135e-06
9.11917e-06
9.24623e-06
9.37747e-06
9.46604e-06
9.6831e-06
9.78648e-06
9.87735e-06
9.82558e-06
9.84245e-06
9.91673e-06
1.00346e-05
1.0188e-05
1.03726e-05
1.0587e-05
1.08318e-05
1.11089e-05
1.14221e-05
1.1776e-05
1.21768e-05
1.26308e-05
1.31467e-05
1.37347e-05
1.44064e-05
1.51748e-05
1.60537e-05
1.70573e-05
1.82002e-05
1.94945e-05
2.09527e-05
2.25803e-05
2.43864e-05
2.63632e-05
2.85186e-05
3.08246e-05
3.32917e-05
3.58676e-05
3.85585e-05
4.1324e-05
4.40357e-05
4.69517e-05
8.53763e-06
8.56167e-06
8.58655e-06
8.61336e-06
8.64221e-06
8.67292e-06
8.70501e-06
8.7377e-06
8.77031e-06
8.80222e-06
8.83352e-06
8.8644e-06
8.89556e-06
8.92782e-06
8.96144e-06
8.99785e-06
9.03647e-06
9.07937e-06
9.12536e-06
9.17737e-06
9.2322e-06
9.29467e-06
9.35942e-06
9.4332e-06
9.50843e-06
9.59186e-06
9.67745e-06
9.76513e-06
9.86116e-06
9.95131e-06
1.00505e-05
1.01496e-05
1.02471e-05
1.03545e-05
1.04617e-05
1.05765e-05
1.06984e-05
1.08386e-05
1.10022e-05
1.11925e-05
1.14112e-05
1.166e-05
1.19412e-05
1.22576e-05
1.26132e-05
1.3013e-05
1.34631e-05
1.39705e-05
1.45442e-05
1.51919e-05
1.59243e-05
1.67525e-05
1.76884e-05
1.87434e-05
1.99288e-05
2.12545e-05
2.2728e-05
2.43554e-05
2.61364e-05
2.80737e-05
3.0153e-05
3.23777e-05
3.47113e-05
3.71645e-05
3.96703e-05
4.2249e-05
4.48137e-05
4.72876e-05
4.99559e-05
9.46162e-06
9.49121e-06
9.52153e-06
9.55351e-06
9.58718e-06
9.62254e-06
9.65945e-06
9.69752e-06
9.73637e-06
9.77556e-06
9.81508e-06
9.85496e-06
9.89543e-06
9.93699e-06
9.97994e-06
1.00252e-05
1.00731e-05
1.01244e-05
1.0179e-05
1.02385e-05
1.03022e-05
1.03717e-05
1.04457e-05
1.05257e-05
1.061e-05
1.06994e-05
1.07928e-05
1.08897e-05
1.09917e-05
1.10969e-05
1.12082e-05
1.13259e-05
1.14513e-05
1.15872e-05
1.17352e-05
1.18991e-05
1.20804e-05
1.22829e-05
1.25105e-05
1.27676e-05
1.30572e-05
1.33823e-05
1.3746e-05
1.41525e-05
1.46069e-05
1.51149e-05
1.56836e-05
1.63205e-05
1.70342e-05
1.78333e-05
1.87274e-05
1.97247e-05
2.08347e-05
2.20658e-05
2.34249e-05
2.49171e-05
2.65447e-05
2.83083e-05
3.02022e-05
3.22235e-05
3.43528e-05
3.65901e-05
3.88912e-05
4.12673e-05
4.36426e-05
4.60358e-05
4.83374e-05
5.05618e-05
5.25577e-05
1.06585e-05
1.06965e-05
1.07352e-05
1.07754e-05
1.08171e-05
1.08602e-05
1.0905e-05
1.09513e-05
1.09989e-05
1.10478e-05
1.10978e-05
1.1149e-05
1.12015e-05
1.12556e-05
1.13115e-05
1.13695e-05
1.14298e-05
1.14935e-05
1.15609e-05
1.16329e-05
1.17099e-05
1.17925e-05
1.1881e-05
1.19756e-05
1.20762e-05
1.2183e-05
1.22961e-05
1.24157e-05
1.25427e-05
1.26777e-05
1.28222e-05
1.29779e-05
1.31467e-05
1.3331e-05
1.35334e-05
1.37566e-05
1.40037e-05
1.42777e-05
1.45821e-05
1.49201e-05
1.52957e-05
1.57127e-05
1.61759e-05
1.66903e-05
1.72617e-05
1.78962e-05
1.86007e-05
1.93823e-05
2.02484e-05
2.12064e-05
2.22634e-05
2.34259e-05
2.46995e-05
2.60883e-05
2.75947e-05
2.92187e-05
3.09581e-05
3.28089e-05
3.47604e-05
3.68065e-05
3.89217e-05
4.11069e-05
4.33064e-05
4.55391e-05
4.77158e-05
4.98371e-05
5.18786e-05
5.35262e-05
5.40118e-05
1.22436e-05
1.22947e-05
1.23465e-05
1.23998e-05
1.24545e-05
1.25107e-05
1.25687e-05
1.26285e-05
1.26903e-05
1.2754e-05
1.28199e-05
1.28874e-05
1.29567e-05
1.3028e-05
1.31017e-05
1.31781e-05
1.32578e-05
1.33413e-05
1.34294e-05
1.35227e-05
1.36219e-05
1.37276e-05
1.38405e-05
1.39609e-05
1.40895e-05
1.42266e-05
1.43729e-05
1.45291e-05
1.46964e-05
1.48761e-05
1.50697e-05
1.52792e-05
1.55067e-05
1.57547e-05
1.60259e-05
1.63232e-05
1.66498e-05
1.70088e-05
1.74039e-05
1.78388e-05
1.83174e-05
1.88442e-05
1.94239e-05
2.00617e-05
2.07632e-05
2.1534e-05
2.23802e-05
2.33075e-05
2.43217e-05
2.54278e-05
2.66303e-05
2.79324e-05
2.93363e-05
3.08417e-05
3.24478e-05
3.41499e-05
3.59416e-05
3.78161e-05
3.97566e-05
4.17587e-05
4.37849e-05
4.58497e-05
4.78671e-05
4.98984e-05
5.17754e-05
5.36096e-05
5.48057e-05
5.50417e-05
5.45072e-05
1.4409e-05
1.44812e-05
1.45542e-05
1.4629e-05
1.47055e-05
1.47838e-05
1.48638e-05
1.49458e-05
1.50299e-05
1.51162e-05
1.52051e-05
1.52968e-05
1.53913e-05
1.5489e-05
1.55903e-05
1.56955e-05
1.58053e-05
1.59202e-05
1.60409e-05
1.61683e-05
1.63029e-05
1.64458e-05
1.65975e-05
1.67588e-05
1.69305e-05
1.71136e-05
1.73088e-05
1.75175e-05
1.77409e-05
1.79806e-05
1.82383e-05
1.85163e-05
1.88166e-05
1.91418e-05
1.94947e-05
1.98782e-05
2.02955e-05
2.07498e-05
2.12448e-05
2.17842e-05
2.2372e-05
2.30124e-05
2.37097e-05
2.44686e-05
2.52938e-05
2.61899e-05
2.71614e-05
2.82123e-05
2.9346e-05
3.05651e-05
3.1871e-05
3.32639e-05
3.47427e-05
3.63032e-05
3.79424e-05
3.9651e-05
4.14201e-05
4.3244e-05
4.50937e-05
4.6978e-05
4.88298e-05
5.07099e-05
5.24539e-05
5.42436e-05
5.56744e-05
5.63818e-05
5.60718e-05
5.54295e-05
5.29178e-05
1.74911e-05
1.75978e-05
1.77051e-05
1.78143e-05
1.7925e-05
1.80374e-05
1.81521e-05
1.82692e-05
1.83891e-05
1.85121e-05
1.86385e-05
1.87686e-05
1.89026e-05
1.90411e-05
1.91843e-05
1.93328e-05
1.94873e-05
1.96482e-05
1.98164e-05
1.99925e-05
2.01775e-05
2.0372e-05
2.0577e-05
2.07933e-05
2.10217e-05
2.12635e-05
2.15195e-05
2.17912e-05
2.20799e-05
2.23873e-05
2.27153e-05
2.3066e-05
2.34415e-05
2.38444e-05
2.42774e-05
2.47434e-05
2.52454e-05
2.57867e-05
2.63708e-05
2.70011e-05
2.76812e-05
2.84148e-05
2.92057e-05
3.00573e-05
3.09733e-05
3.19567e-05
3.30102e-05
3.41358e-05
3.53345e-05
3.66067e-05
3.79506e-05
3.93642e-05
4.08435e-05
4.23804e-05
4.39735e-05
4.56041e-05
4.72688e-05
4.89624e-05
5.06312e-05
5.23263e-05
5.3907e-05
5.55608e-05
5.69393e-05
5.7949e-05
5.78212e-05
5.73393e-05
5.58784e-05
5.3988e-05
4.90906e-05
2.21041e-05
2.22653e-05
2.2427e-05
2.25903e-05
2.27549e-05
2.2921e-05
2.3089e-05
2.32593e-05
2.34323e-05
2.36083e-05
2.37876e-05
2.39706e-05
2.41576e-05
2.43491e-05
2.45454e-05
2.4747e-05
2.49546e-05
2.51685e-05
2.53896e-05
2.56184e-05
2.58558e-05
2.61025e-05
2.63593e-05
2.66271e-05
2.69068e-05
2.71995e-05
2.75064e-05
2.78287e-05
2.8168e-05
2.85259e-05
2.89043e-05
2.93054e-05
2.97314e-05
3.01848e-05
3.06684e-05
3.11849e-05
3.17373e-05
3.23286e-05
3.2962e-05
3.36404e-05
3.43669e-05
3.51445e-05
3.59759e-05
3.68636e-05
3.78097e-05
3.88159e-05
3.98828e-05
4.10109e-05
4.21989e-05
4.34448e-05
4.47438e-05
4.6094e-05
4.74864e-05
4.89109e-05
5.03738e-05
5.18316e-05
5.33162e-05
5.47981e-05
5.61835e-05
5.76373e-05
5.88491e-05
5.98418e-05
5.98017e-05
5.93886e-05
5.82529e-05
5.67323e-05
5.28022e-05
4.90694e-05
3.97322e-05
2.93361e-05
2.95664e-05
2.97945e-05
3.00215e-05
3.0247e-05
3.04711e-05
3.06943e-05
3.0917e-05
3.11397e-05
3.13626e-05
3.15862e-05
3.18109e-05
3.20369e-05
3.22646e-05
3.24945e-05
3.2727e-05
3.29627e-05
3.3202e-05
3.34457e-05
3.36945e-05
3.39491e-05
3.42104e-05
3.44794e-05
3.47569e-05
3.50441e-05
3.53421e-05
3.56522e-05
3.5976e-05
3.6315e-05
3.66711e-05
3.70465e-05
3.74431e-05
3.78632e-05
3.83093e-05
3.87843e-05
3.92906e-05
3.98308e-05
4.04077e-05
4.10237e-05
4.16815e-05
4.23833e-05
4.31313e-05
4.39274e-05
4.4773e-05
4.56689e-05
4.66152e-05
4.7611e-05
4.86555e-05
4.97443e-05
5.08733e-05
5.20354e-05
5.32335e-05
5.44431e-05
5.56677e-05
5.69202e-05
5.80983e-05
5.93713e-05
6.05287e-05
6.15312e-05
6.21812e-05
6.20871e-05
6.15577e-05
6.04833e-05
5.90603e-05
5.58959e-05
5.25505e-05
4.50752e-05
3.8772e-05
2.59204e-05
4.03054e-05
4.05752e-05
4.08339e-05
4.10839e-05
4.13258e-05
4.15604e-05
4.17891e-05
4.20126e-05
4.22317e-05
4.24471e-05
4.26585e-05
4.28663e-05
4.30707e-05
4.32721e-05
4.34711e-05
4.36682e-05
4.38644e-05
4.40602e-05
4.42567e-05
4.44548e-05
4.46554e-05
4.48596e-05
4.50685e-05
4.52833e-05
4.55053e-05
4.57359e-05
4.59766e-05
4.62292e-05
4.64953e-05
4.6777e-05
4.70765e-05
4.73956e-05
4.77343e-05
4.80981e-05
4.84889e-05
4.89075e-05
4.93562e-05
4.98377e-05
5.03537e-05
5.09067e-05
5.14986e-05
5.2131e-05
5.2805e-05
5.35213e-05
5.42782e-05
5.50757e-05
5.59108e-05
5.67827e-05
5.76775e-05
5.85939e-05
5.95279e-05
6.04928e-05
6.14115e-05
6.23797e-05
6.33419e-05
6.41332e-05
6.49964e-05
6.50039e-05
6.46711e-05
6.38877e-05
6.28303e-05
6.11458e-05
5.87211e-05
5.48239e-05
4.93508e-05
4.21462e-05
3.27226e-05
2.3458e-05
1.33434e-05
5.5111e-05
5.52862e-05
5.54588e-05
5.56289e-05
5.57949e-05
5.59565e-05
5.61138e-05
5.62668e-05
5.64155e-05
5.65585e-05
5.66879e-05
5.68056e-05
5.69136e-05
5.70133e-05
5.7106e-05
5.71933e-05
5.72761e-05
5.73558e-05
5.74335e-05
5.75102e-05
5.75869e-05
5.76646e-05
5.77446e-05
5.78281e-05
5.79164e-05
5.80113e-05
5.81142e-05
5.82269e-05
5.83514e-05
5.84894e-05
5.86425e-05
5.88109e-05
5.89828e-05
5.9192e-05
5.94235e-05
5.96684e-05
5.99374e-05
6.0235e-05
6.05612e-05
6.09206e-05
6.13157e-05
6.1747e-05
6.22141e-05
6.27166e-05
6.32478e-05
6.38125e-05
6.44023e-05
6.50153e-05
6.56049e-05
6.62182e-05
6.68646e-05
6.7526e-05
6.80182e-05
6.86028e-05
6.85642e-05
6.82301e-05
6.74607e-05
6.64072e-05
6.51667e-05
6.33655e-05
6.07525e-05
5.69889e-05
5.18225e-05
4.49019e-05
3.6591e-05
2.72209e-05
1.78307e-05
1.11135e-05
7.24663e-06
7.28656e-05
7.28404e-05
7.28192e-05
7.28003e-05
7.27816e-05
7.27617e-05
7.27401e-05
7.27161e-05
7.26894e-05
7.2659e-05
7.26241e-05
7.2584e-05
7.25384e-05
7.24876e-05
7.24314e-05
7.23713e-05
7.23055e-05
7.22364e-05
7.21628e-05
7.20852e-05
7.20029e-05
7.19169e-05
7.18285e-05
7.17391e-05
7.16503e-05
7.15637e-05
7.14809e-05
7.14036e-05
7.13335e-05
7.12715e-05
7.12162e-05
7.11548e-05
7.10208e-05
7.10894e-05
7.10997e-05
7.10257e-05
7.10117e-05
7.10353e-05
7.10775e-05
7.11653e-05
7.12951e-05
7.14565e-05
7.16481e-05
7.18646e-05
7.20884e-05
7.23604e-05
7.26281e-05
7.2872e-05
7.29739e-05
7.33184e-05
7.32704e-05
7.29917e-05
7.23882e-05
7.14332e-05
7.03462e-05
6.90735e-05
6.75008e-05
6.53287e-05
6.23746e-05
5.838e-05
5.30799e-05
4.64563e-05
3.83562e-05
2.97071e-05
2.05415e-05
1.30258e-05
8.34803e-06
5.91479e-06
5.29168e-06
9.24145e-05
9.218e-05
9.19441e-05
9.17048e-05
9.14678e-05
9.12253e-05
9.09837e-05
9.07366e-05
9.04898e-05
9.02369e-05
8.99822e-05
8.97229e-05
8.9458e-05
8.9195e-05
8.89116e-05
8.86534e-05
8.83413e-05
8.80593e-05
8.77395e-05
8.74223e-05
8.70689e-05
8.67058e-05
8.63351e-05
8.59585e-05
8.55779e-05
8.51953e-05
8.48124e-05
8.44311e-05
8.40531e-05
8.36802e-05
8.33142e-05
8.29567e-05
8.25833e-05
8.23823e-05
8.21891e-05
8.19597e-05
8.17208e-05
8.1446e-05
8.10909e-05
8.09315e-05
8.08103e-05
8.06537e-05
8.05309e-05
8.03851e-05
8.02325e-05
7.99321e-05
7.94153e-05
7.87323e-05
7.79111e-05
7.69468e-05
7.58253e-05
7.46116e-05
7.32101e-05
7.15788e-05
6.94608e-05
6.67078e-05
6.31844e-05
5.86717e-05
5.30425e-05
4.63284e-05
3.8535e-05
3.02791e-05
2.18684e-05
1.42515e-05
9.27564e-06
6.25166e-06
4.75604e-06
4.56693e-06
4.8811e-06
0.000111762
0.000111301
0.000110839
0.000110378
0.000109913
0.000109445
0.000108972
0.000108494
0.000108012
0.000107523
0.000107028
0.000106526
0.000106016
0.000105497
0.000104969
0.000104425
0.000103856
0.000103271
0.000102667
0.000102049
0.000101415
0.000100765
0.000100103
9.94309e-05
9.87494e-05
9.80606e-05
9.73662e-05
9.66679e-05
9.59669e-05
9.52658e-05
9.45678e-05
9.38751e-05
9.31843e-05
9.25142e-05
9.18629e-05
9.12224e-05
9.05915e-05
8.99644e-05
8.93098e-05
8.86337e-05
8.79305e-05
8.71608e-05
8.63126e-05
8.53712e-05
8.43138e-05
8.31225e-05
8.18656e-05
8.05203e-05
7.90223e-05
7.73486e-05
7.54129e-05
7.30431e-05
7.01705e-05
6.66211e-05
6.23073e-05
5.70914e-05
5.10439e-05
4.41812e-05
3.67307e-05
2.90919e-05
2.14852e-05
1.45791e-05
9.72586e-06
6.37974e-06
4.6014e-06
4.08675e-06
3.99004e-06
4.2315e-06
5.22863e-06
0.000128396
0.000127746
0.000127091
0.000126432
0.000125765
0.00012509
0.000124407
0.000123714
0.000123012
0.0001223
0.000121574
0.000120822
0.000120048
0.000119254
0.000118441
0.00011761
0.00011676
0.000115893
0.000115009
0.000114107
0.00011319
0.000112257
0.00011131
0.000110349
0.000109374
0.000108387
0.000107387
0.000106377
0.000105356
0.000104328
0.00010329
0.000102237
0.000101165
0.00010007
9.89494e-05
9.77937e-05
9.65972e-05
9.53384e-05
9.40399e-05
9.26998e-05
9.13059e-05
8.98446e-05
8.82941e-05
8.66384e-05
8.48427e-05
8.29026e-05
8.07047e-05
7.82319e-05
7.53486e-05
7.20087e-05
6.8136e-05
6.3567e-05
5.84081e-05
5.25446e-05
4.61773e-05
3.94983e-05
3.26522e-05
2.59832e-05
1.94358e-05
1.36103e-05
9.3828e-06
6.26715e-06
4.292e-06
3.13842e-06
3.2012e-06
3.30992e-06
3.70028e-06
5.04843e-06
7.01765e-06
0.000138887
0.000138087
0.000137268
0.000136433
0.000135582
0.000134714
0.000133828
0.000132925
0.000132006
0.000131069
0.000130115
0.000129142
0.000128149
0.000127136
0.000126103
0.000125049
0.000123974
0.000122879
0.000121763
0.000120627
0.000119469
0.000118291
0.000117092
0.000115872
0.00011463
0.000113367
0.000112083
0.00011078
0.000109447
0.000108077
0.000106668
0.00010522
0.000103729
0.000102189
0.000100595
9.89355e-05
9.71998e-05
9.53762e-05
9.34355e-05
9.13552e-05
8.91001e-05
8.66563e-05
8.39645e-05
8.1013e-05
7.77476e-05
7.41565e-05
7.01646e-05
6.57734e-05
6.09139e-05
5.56231e-05
5.00408e-05
4.40579e-05
3.81878e-05
3.21468e-05
2.65252e-05
2.11681e-05
1.58984e-05
1.14488e-05
8.05933e-06
5.51351e-06
3.69068e-06
2.39967e-06
2.06677e-06
2.26872e-06
3.03954e-06
3.61321e-06
3.99929e-06
4.9996e-06
6.51344e-06
0.000134806
0.000133954
0.000133078
0.000132182
0.000131265
0.000130328
0.00012937
0.000128391
0.00012739
0.000126369
0.000125327
0.000124262
0.000123175
0.000122066
0.000120934
0.000119778
0.000118598
0.000117393
0.000116162
0.000114905
0.00011362
0.000112306
0.000110964
0.000109592
0.000108195
0.000106766
0.000105317
0.000103792
0.000102192
0.000100511
9.8739e-05
9.68616e-05
9.48638e-05
9.27258e-05
9.04295e-05
8.79478e-05
8.52657e-05
8.2351e-05
7.91966e-05
7.57866e-05
7.21007e-05
6.81977e-05
6.39795e-05
5.97424e-05
5.55156e-05
5.13433e-05
4.70429e-05
4.24578e-05
3.79109e-05
3.31562e-05
2.8629e-05
2.40332e-05
1.98372e-05
1.58505e-05
1.18912e-05
8.4495e-06
5.92474e-06
4.03419e-06
2.57956e-06
1.56923e-06
1.00363e-06
9.82244e-07
1.54772e-06
2.04096e-06
2.58946e-06
3.18991e-06
3.76532e-06
4.67378e-06
5.14889e-06
0.000105505
0.000104629
0.000103727
0.000102805
0.000101861
0.000100894
9.99046e-05
9.88931e-05
9.78575e-05
9.68035e-05
9.5723e-05
9.46194e-05
9.3488e-05
9.23381e-05
9.11648e-05
8.99736e-05
8.87541e-05
8.75175e-05
8.62448e-05
8.49585e-05
8.36328e-05
8.22955e-05
8.09041e-05
7.95128e-05
7.80759e-05
7.66096e-05
7.50755e-05
7.35205e-05
7.19452e-05
7.03412e-05
6.87043e-05
6.7032e-05
6.53222e-05
6.35744e-05
6.17887e-05
5.99639e-05
5.81054e-05
5.61979e-05
5.42703e-05
5.22548e-05
5.02441e-05
4.80622e-05
4.59035e-05
4.33478e-05
4.04149e-05
3.68192e-05
3.29893e-05
2.88782e-05
2.4523e-05
2.00799e-05
1.56589e-05
1.18261e-05
8.27195e-06
5.21417e-06
3.26045e-06
2.03288e-06
1.18368e-06
5.88011e-07
3.49339e-07
2.78861e-07
2.85415e-07
4.32133e-07
7.45696e-07
1.30268e-06
1.90751e-06
2.53367e-06
3.20611e-06
3.60607e-06
3.57034e-06
6.23347e-05
6.30449e-05
6.38139e-05
6.44238e-05
6.5445e-05
6.59974e-05
6.68373e-05
6.72775e-05
6.80155e-05
6.8935e-05
6.95065e-05
6.98166e-05
6.98358e-05
7.01702e-05
7.06806e-05
7.12369e-05
7.19855e-05
7.24867e-05
7.27831e-05
7.35288e-05
7.40263e-05
7.42852e-05
7.41023e-05
7.46368e-05
7.44001e-05
7.40616e-05
7.37526e-05
7.34257e-05
7.30408e-05
7.25661e-05
7.19769e-05
7.12486e-05
7.03602e-05
6.92847e-05
6.79979e-05
6.64661e-05
6.46576e-05
6.25304e-05
6.00433e-05
5.71469e-05
5.37896e-05
4.9925e-05
4.54909e-05
4.04591e-05
3.4814e-05
2.85637e-05
2.18407e-05
1.48954e-05
8.39321e-06
3.49492e-06
1.11409e-06
7.56056e-07
7.87912e-07
7.62938e-07
6.65935e-07
5.5023e-07
3.81683e-07
2.39026e-07
1.8253e-07
1.71852e-07
2.0204e-07
2.67504e-07
3.5268e-07
4.22342e-07
4.73342e-07
5.43404e-07
5.92343e-07
5.33222e-07
4.6404e-07
4.96773e-06
4.97055e-06
4.96832e-06
4.96602e-06
4.96394e-06
4.95957e-06
4.95538e-06
4.95055e-06
4.94819e-06
4.94554e-06
4.94012e-06
4.93976e-06
4.9452e-06
4.9481e-06
4.94801e-06
4.94296e-06
4.94793e-06
4.94984e-06
4.95023e-06
4.94745e-06
4.95611e-06
4.96549e-06
4.96325e-06
4.96431e-06
4.96381e-06
4.95986e-06
4.9677e-06
4.97397e-06
4.98419e-06
4.98435e-06
4.98612e-06
4.99473e-06
5.00401e-06
5.00347e-06
5.00638e-06
5.00569e-06
5.0125e-06
5.01514e-06
5.01489e-06
5.02438e-06
5.01928e-06
5.02283e-06
5.0208e-06
5.0219e-06
5.03065e-06
5.02694e-06
5.02537e-06
5.02596e-06
5.02517e-06
5.02079e-06
5.01722e-06
5.01874e-06
5.01983e-06
5.01928e-06
5.0229e-06
5.02606e-06
5.02857e-06
5.02918e-06
5.03005e-06
5.0725e-06
5.06989e-06
5.0647e-06
5.06016e-06
5.05491e-06
5.04925e-06
5.04435e-06
5.03984e-06
5.03647e-06
5.03172e-06
5.0275e-06
5.02868e-06
5.03101e-06
5.03158e-06
5.02802e-06
5.02685e-06
5.03094e-06
5.03135e-06
5.03159e-06
5.03173e-06
5.04172e-06
5.04685e-06
5.04405e-06
5.04632e-06
5.04374e-06
5.04161e-06
5.05019e-06
5.05848e-06
5.06557e-06
5.06634e-06
5.07126e-06
5.07916e-06
5.08835e-06
5.08857e-06
5.09428e-06
5.09402e-06
5.09896e-06
5.10519e-06
5.10505e-06
5.1132e-06
5.11523e-06
5.11449e-06
5.11879e-06
5.11702e-06
5.12037e-06
5.12577e-06
5.12835e-06
5.12962e-06
5.13361e-06
5.13301e-06
5.12843e-06
5.12208e-06
5.12333e-06
5.12264e-06
5.12414e-06
5.13027e-06
5.13196e-06
5.13936e-06
5.14154e-06
5.18635e-06
5.18163e-06
5.17498e-06
5.16938e-06
5.16341e-06
5.15809e-06
5.15347e-06
5.14928e-06
5.14545e-06
5.14127e-06
5.13834e-06
5.13719e-06
5.1344e-06
5.13076e-06
5.12668e-06
5.12738e-06
5.12944e-06
5.12955e-06
5.12895e-06
5.13556e-06
5.14234e-06
5.14394e-06
5.14213e-06
5.14408e-06
5.1405e-06
5.14044e-06
5.14952e-06
5.15904e-06
5.16411e-06
5.1658e-06
5.17315e-06
5.1806e-06
5.18952e-06
5.19144e-06
5.19823e-06
5.19977e-06
5.20358e-06
5.21068e-06
5.21213e-06
5.21991e-06
5.2251e-06
5.22647e-06
5.22795e-06
5.23597e-06
5.23482e-06
5.23818e-06
5.24396e-06
5.2466e-06
5.25219e-06
5.25438e-06
5.2578e-06
5.2606e-06
5.25801e-06
5.25313e-06
5.25528e-06
5.25391e-06
5.25904e-06
5.26062e-06
5.26287e-06
5.31808e-06
5.31282e-06
5.3058e-06
5.29998e-06
5.29399e-06
5.28862e-06
5.28343e-06
5.27832e-06
5.27315e-06
5.2679e-06
5.26314e-06
5.2584e-06
5.25292e-06
5.24866e-06
5.24615e-06
5.24684e-06
5.24689e-06
5.24764e-06
5.25005e-06
5.25572e-06
5.26087e-06
5.26111e-06
5.25928e-06
5.26029e-06
5.25658e-06
5.25867e-06
5.26818e-06
5.27831e-06
5.28236e-06
5.28505e-06
5.29414e-06
5.30154e-06
5.31062e-06
5.31431e-06
5.32216e-06
5.32567e-06
5.32938e-06
5.33734e-06
5.33938e-06
5.34792e-06
5.3532e-06
5.36281e-06
5.3628e-06
5.36628e-06
5.37733e-06
5.37722e-06
5.38064e-06
5.384e-06
5.39054e-06
5.39595e-06
5.40105e-06
5.40614e-06
5.40926e-06
5.40984e-06
5.41246e-06
5.41302e-06
5.42215e-06
5.42526e-06
5.42793e-06
5.47432e-06
5.46874e-06
5.46119e-06
5.45474e-06
5.44788e-06
5.44126e-06
5.43441e-06
5.42743e-06
5.42029e-06
5.41319e-06
5.40641e-06
5.40004e-06
5.39469e-06
5.39162e-06
5.39037e-06
5.39033e-06
5.38945e-06
5.39036e-06
5.39275e-06
5.39815e-06
5.40142e-06
5.40053e-06
5.39867e-06
5.39903e-06
5.39534e-06
5.3998e-06
5.40959e-06
5.42007e-06
5.42382e-06
5.42759e-06
5.43805e-06
5.44586e-06
5.45539e-06
5.46081e-06
5.46985e-06
5.47563e-06
5.47982e-06
5.4893e-06
5.49259e-06
5.50065e-06
5.50843e-06
5.51749e-06
5.52136e-06
5.52533e-06
5.53377e-06
5.54171e-06
5.54743e-06
5.55134e-06
5.55686e-06
5.56274e-06
5.56907e-06
5.57496e-06
5.58063e-06
5.58533e-06
5.58972e-06
5.59293e-06
5.59717e-06
5.59992e-06
5.6047e-06
5.65898e-06
5.65251e-06
5.64371e-06
5.63583e-06
5.62731e-06
5.61882e-06
5.61005e-06
5.60127e-06
5.59259e-06
5.58436e-06
5.57695e-06
5.57079e-06
5.56642e-06
5.56391e-06
5.56225e-06
5.56078e-06
5.55945e-06
5.55989e-06
5.56274e-06
5.56678e-06
5.56821e-06
5.56739e-06
5.56523e-06
5.565e-06
5.56237e-06
5.56841e-06
5.57867e-06
5.58949e-06
5.59353e-06
5.59851e-06
5.61021e-06
5.61886e-06
5.62905e-06
5.63624e-06
5.64657e-06
5.65492e-06
5.66034e-06
5.67122e-06
5.67656e-06
5.68539e-06
5.69238e-06
5.70718e-06
5.71327e-06
5.71807e-06
5.72429e-06
5.73405e-06
5.74376e-06
5.75151e-06
5.75855e-06
5.76504e-06
5.77169e-06
5.77802e-06
5.78443e-06
5.79079e-06
5.79687e-06
5.80202e-06
5.80737e-06
5.81128e-06
5.81754e-06
5.87644e-06
5.86865e-06
5.8582e-06
5.84864e-06
5.83844e-06
5.82834e-06
5.81819e-06
5.80835e-06
5.79904e-06
5.79062e-06
5.78341e-06
5.77768e-06
5.77344e-06
5.77024e-06
5.76737e-06
5.76493e-06
5.76371e-06
5.76444e-06
5.76552e-06
5.768e-06
5.76926e-06
5.76759e-06
5.76522e-06
5.76468e-06
5.76383e-06
5.77106e-06
5.78182e-06
5.7931e-06
5.7979e-06
5.80426e-06
5.81722e-06
5.82712e-06
5.83822e-06
5.84731e-06
5.8591e-06
5.87017e-06
5.87773e-06
5.89e-06
5.89778e-06
5.90838e-06
5.91552e-06
5.93148e-06
5.94311e-06
5.95128e-06
5.9581e-06
5.96695e-06
5.97778e-06
5.98873e-06
5.9991e-06
6.00834e-06
6.01684e-06
6.02453e-06
6.03188e-06
6.03915e-06
6.04634e-06
6.05275e-06
6.05931e-06
6.06406e-06
6.0717e-06
6.13497e-06
6.12588e-06
6.1139e-06
6.10294e-06
6.09147e-06
6.08031e-06
6.06938e-06
6.05905e-06
6.0495e-06
6.04102e-06
6.03375e-06
6.0277e-06
6.02267e-06
6.01833e-06
6.01459e-06
6.01193e-06
6.01078e-06
6.01074e-06
6.01141e-06
6.01397e-06
6.01245e-06
6.00892e-06
6.0066e-06
6.00623e-06
6.0075e-06
6.01583e-06
6.02729e-06
6.03907e-06
6.04504e-06
6.05301e-06
6.06736e-06
6.07891e-06