/*--------------------------------*- C++ -*----------------------------------*\
| =========                 |                                                 |
| \\      /  F ield         | OpenFOAM: The Open Source CFD Toolbox           |
|  \\    /   O peration     | Version:  2312                                  |
|   \\  /    A nd           | Website:  www.openfoam.com                      |
|    \\/     M anipulation  |                                                 |
\*---------------------------------------------------------------------------*/
FoamFile
{
    version     2.0;
    format      ascii;
    arch        "LSB;label=32;scalar=64";
    class       volScalarField;
    location    "600";
    object      nut;
}
// * * * * * * * * * * * * * * * * * * * * * * * * * * * * * * * * * * * * * //

dimensions      [0 2 -1 0 0 0 0];

internalField   nonuniform List<scalar> 
76025
(
0.000171027
0.000171058
0.000171268
0.000171413
0.000171448
0.000171438
0.00017166
0.000171836
0.000171757
0.000171994
0.000172127
0.000172203
0.00017221
0.000172367
0.000172415
0.000172388
0.000172514
0.000172878
0.000173084
0.000173315
0.000173409
0.000173646
0.000173377
0.000173622
0.00017331
0.000173108
0.000173238
0.000173627
0.000174054
0.000174414
0.000174789
0.000175144
0.000175632
0.000176105
0.000176659
0.000177219
0.000177858
0.000178628
0.000179403
0.000180247
0.000181122
0.000182137
0.000183255
0.000184415
0.000185626
0.000186918
0.000188276
0.000189718
0.000191233
0.000192803
0.000194496
0.000196305
0.000198315
0.000200232
0.000202693
0.000205147
0.000208172
0.000211695
0.000215924
0.000220888
0.000226639
0.000233697
0.000242944
0.000253855
0.000269096
0.000286887
0.000309906
0.000335802
0.00036609
0.000172787
0.000172785
0.000172878
0.000172972
0.000173023
0.000173063
0.000173064
0.00017323
0.000173414
0.000173597
0.000173629
0.000173797
0.000173961
0.00017393
0.000174068
0.000174175
0.000174383
0.000174435
0.000174698
0.000174987
0.000175471
0.000175919
0.000176122
0.000177075
0.000177363
0.000177694
0.000177942
0.000177546
0.000177467
0.000177634
0.000177967
0.000178404
0.000178947
0.000179535
0.000180157
0.000180799
0.000181457
0.000182151
0.000182867
0.000183633
0.00018447
0.000185379
0.00018636
0.000187422
0.000188576
0.000189827
0.000191162
0.000192595
0.000194143
0.000195834
0.000197653
0.000199673
0.000201871
0.000204344
0.000207111
0.000210281
0.00021392
0.000218045
0.000222953
0.000228592
0.000235596
0.000243978
0.000254703
0.000267825
0.000284904
0.000304845
0.000329925
0.000355681
0.00038725
0.000175096
0.000175175
0.000175189
0.000175293
0.000175508
0.000175864
0.000175898
0.000175525
0.000175477
0.000175572
0.000175705
0.000176062
0.00017617
0.000176484
0.00017676
0.000176967
0.000177163
0.000177338
0.000177547
0.000177782
0.000178052
0.000178327
0.000178542
0.000178795
0.000178987
0.000179158
0.000179208
0.000179007
0.000179236
0.000179917
0.000180547
0.00018115
0.000181765
0.000182401
0.000183058
0.000183732
0.000184428
0.000185156
0.000185909
0.000186711
0.000187581
0.000188536
0.00018959
0.000190754
0.000192027
0.00019341
0.000194902
0.000196514
0.00019826
0.000200164
0.00020224
0.000204533
0.000207063
0.000209892
0.000213062
0.000216668
0.000220782
0.000225542
0.000231172
0.00023782
0.000246021
0.0002559
0.000268468
0.000283632
0.000302588
0.000324196
0.000349778
0.000375791
0.000406126
0.000177806
0.000177788
0.000177666
0.000177798
0.00017809
0.000178331
0.000178589
0.00017895
0.00017861
0.000178721
0.000178489
0.000178439
0.000178326
0.000178497
0.00017876
0.000178845
0.000179254
0.000179698
0.000180114
0.000180455
0.00018073
0.000180973
0.000181197
0.000181449
0.000181735
0.00018203
0.000182321
0.000182613
0.000182982
0.00018343
0.000183934
0.000184468
0.000185035
0.000185639
0.000186274
0.000186924
0.000187624
0.000188374
0.000189096
0.000189919
0.000190846
0.000191907
0.000193152
0.000194547
0.000196065
0.00019769
0.000199417
0.000201264
0.000203245
0.000205399
0.000207743
0.000210334
0.000213194
0.000216406
0.00022001
0.000224136
0.000228877
0.000234422
0.000241008
0.000248884
0.000258561
0.000270257
0.000284785
0.000301907
0.000322428
0.000345026
0.000370542
0.000395807
0.000423854
0.000180592
0.000180734
0.000180934
0.000180919
0.000181241
0.000181502
0.000181901
0.000182223
0.000182219
0.000182677
0.000182668
0.000182304
0.000182119
0.000182236
0.000182744
0.000183456
0.000183541
0.000183262
0.000182922
0.000183143
0.000183561
0.000184372
0.000186055
0.000186711
0.00018641
0.000186356
0.000186463
0.000186679
0.000186987
0.000187339
0.000187773
0.000188236
0.000188732
0.000189277
0.000189857
0.000190412
0.000191136
0.000191864
0.000192392
0.000193327
0.000194378
0.00019564
0.000197328
0.00019913
0.00020099
0.0002029
0.000204879
0.000206964
0.000209189
0.000211604
0.000214239
0.000217161
0.0002204
0.000224064
0.000228198
0.000232982
0.000238509
0.000245059
0.000252844
0.000262227
0.00027361
0.000287225
0.000303591
0.000322285
0.000343763
0.000366536
0.000391123
0.000414713
0.000439506
0.000183686
0.000183989
0.000184251
0.000184452
0.000184684
0.000184757
0.000185198
0.000185877
0.000186408
0.000186682
0.000187294
0.000187289
0.000186839
0.00018665
0.000186797
0.000187108
0.00018747
0.000188008
0.000188123
0.000188245
0.000188383
0.000188865
0.000189828
0.000190655
0.000190989
0.000192021
0.000192799
0.000192002
0.000191931
0.000192158
0.000192628
0.000193177
0.000193722
0.000194309
0.000194958
0.000195681
0.000196518
0.000197463
0.00019849
0.000199656
0.000200956
0.000202394
0.000203965
0.000205655
0.000207465
0.000209401
0.000211477
0.000213725
0.000216169
0.000218857
0.000221822
0.000225138
0.000228848
0.000233082
0.000237903
0.000243535
0.000250082
0.000257899
0.000267149
0.000278262
0.00029143
0.000306864
0.00032468
0.000344345
0.000365995
0.00038799
0.000410783
0.000431693
0.000452233
0.000187525
0.000187836
0.000188147
0.000188457
0.000188698
0.000188801
0.000188787
0.000189165
0.000189679
0.000190109
0.000190378
0.00019048
0.000190518
0.000190616
0.000190639
0.000190562
0.000191167
0.000191813
0.000192363
0.000192826
0.000193303
0.000193771
0.000194419
0.000195093
0.000195733
0.000196294
0.000197264
0.000198242
0.000199392
0.000200032
0.000202295
0.000202879
0.000201686
0.00020119
0.000201225
0.00020169
0.000202502
0.000203537
0.000204721
0.000206035
0.000207477
0.000209045
0.000210735
0.000212555
0.000214516
0.000216641
0.000218943
0.000221458
0.000224219
0.000227278
0.000230683
0.000234519
0.000238855
0.000243841
0.000249568
0.000256295
0.000264132
0.000273466
0.000284368
0.000297269
0.000312061
0.000328937
0.000347535
0.000367383
0.000388229
0.000408423
0.000428529
0.000445577
0.000460999
0.000192237
0.000192429
0.000192579
0.000192575
0.000192822
0.000193255
0.000193555
0.000193821
0.000194103
0.000194381
0.000194705
0.000194902
0.000195135
0.000195248
0.000195421
0.00019542
0.00019557
0.000195986
0.000196009
0.00019677
0.000197179
0.000198347
0.000199281
0.000200023
0.000200701
0.000201268
0.000201839
0.000202387
0.000203116
0.000203506
0.000204056
0.00020451
0.000204169
0.000204603
0.000204197
0.000205114
0.000207251
0.000209084
0.000210735
0.000212386
0.00021421
0.000216131
0.000218135
0.000220245
0.00022249
0.000224917
0.000227552
0.000230443
0.000233637
0.000237202
0.000241202
0.000245742
0.000250915
0.000256891
0.000263785
0.000271863
0.000281218
0.000292207
0.000304759
0.00031924
0.000335203
0.000352863
0.000371333
0.000390437
0.000409331
0.000426722
0.000443148
0.000455016
0.000464959
0.00019789
0.000197904
0.000197822
0.000198236
0.000198649
0.000199116
0.000199682
0.000200436
0.000201592
0.00020187
0.000201469
0.000201279
0.000201234
0.000201294
0.000201431
0.000201459
0.00020164
0.000201702
0.000201833
0.000202324
0.000202326
0.000203619
0.00020451
0.000205817
0.000206937
0.000207907
0.000208788
0.000209494
0.000210248
0.000210774
0.000211404
0.000211918
0.000212495
0.000213298
0.000213802
0.000215319
0.000214865
0.000215753
0.000216673
0.00021817
0.00022138
0.000224105
0.00022663
0.000229146
0.000231773
0.000234597
0.000237684
0.00024109
0.000244882
0.000249139
0.000253947
0.000259426
0.000265688
0.000272909
0.000281206
0.000290813
0.000301762
0.00031432
0.000328232
0.000343771
0.000360151
0.000377687
0.000394931
0.000412266
0.000427917
0.000441622
0.000453113
0.000458669
0.000463254
0.000204693
0.000204785
0.000204726
0.000204648
0.000205253
0.000205893
0.000206549
0.000207196
0.000207783
0.000208165
0.000208314
0.00020842
0.000208462
0.000208571
0.000208671
0.000208802
0.000208905
0.000209098
0.000209219
0.000209339
0.000210013
0.000209804
0.000210498
0.000211348
0.000212458
0.000214522
0.00021658
0.000218142
0.000219959
0.000221161
0.000222769
0.000224764
0.000225787
0.000229171
0.000230535
0.000235045
0.00023586
0.000233882
0.00023233
0.00023241
0.000233519
0.000235268
0.000237469
0.000240039
0.000242958
0.000246234
0.000249906
0.00025401
0.000258613
0.000263799
0.000269666
0.000276334
0.000283921
0.000292575
0.000302384
0.000313498
0.000325849
0.000339567
0.000354214
0.000369975
0.000385756
0.000402066
0.000416854
0.000431333
0.000442385
0.000451686
0.000456626
0.000455627
0.000453663
0.000212653
0.000212914
0.000213035
0.00021316
0.000213472
0.000213939
0.000214498
0.000215091
0.000215645
0.000216125
0.000216494
0.000216806
0.00021705
0.000217301
0.000217522
0.000217804
0.000218063
0.000218436
0.000218811
0.000219338
0.000219996
0.000220815
0.000221707
0.000223038
0.000224221
0.000226016
0.000227561
0.000229109
0.000231149
0.000232685
0.000234952
0.000237308
0.000238537
0.000242915
0.000244279
0.000245186
0.000242431
0.000241282
0.000241425
0.000242489
0.000244247
0.000246561
0.000249351
0.000252578
0.000256229
0.00026032
0.000264885
0.000269983
0.000275675
0.000282051
0.000289208
0.000297251
0.000306272
0.00031636
0.000327528
0.000339809
0.000353013
0.000367128
0.000381553
0.000396434
0.000410397
0.000424264
0.000435303
0.000445835
0.00045098
0.000455255
0.000451934
0.000445108
0.000433553
0.000222212
0.000222529
0.000222803
0.000223062
0.000223368
0.000223754
0.00022422
0.000224741
0.00022528
0.000225809
0.000226301
0.000226758
0.000227171
0.000227572
0.000227953
0.000228368
0.000228792
0.000229297
0.000229847
0.000230527
0.00023128
0.000232208
0.000233186
0.00023438
0.000235558
0.000236911
0.000238205
0.000239417
0.000240693
0.000241757
0.000242927
0.000244096
0.000245092
0.00024619
0.000247003
0.000247888
0.00024886
0.000250178
0.000251892
0.000254094
0.000256833
0.000260107
0.000263889
0.000268149
0.000272877
0.00027809
0.000283827
0.000290147
0.000297129
0.000304841
0.000313361
0.00032275
0.000333037
0.000344223
0.000356221
0.000368937
0.000382066
0.000395484
0.000408466
0.000421187
0.000431998
0.000442203
0.000448199
0.000453794
0.000451865
0.000450497
0.000437709
0.00042569
0.000401122
0.000233787
0.000234163
0.000234532
0.0002349
0.000235281
0.000235695
0.000236153
0.000236654
0.000237189
0.000237742
0.000238299
0.000238851
0.000239387
0.000239907
0.000240408
0.000240916
0.000241441
0.000242017
0.000242648
0.000243376
0.000244192
0.000245127
0.000246147
0.000247274
0.00024845
0.000249681
0.00025092
0.000252125
0.000253325
0.000254483
0.000255634
0.000256846
0.000258078
0.000259428
0.000260784
0.000262457
0.000264184
0.000266116
0.000268278
0.000271081
0.000274625
0.000278857
0.000283685
0.000289043
0.000294904
0.000301279
0.000308207
0.000315742
0.000323936
0.000332833
0.000342451
0.000352775
0.000363748
0.000375267
0.000387147
0.000399185
0.000410998
0.000422391
0.000432567
0.000441798
0.000448136
0.000453575
0.000453302
0.000453208
0.000443203
0.000435675
0.000413192
0.000395015
0.000360285
0.000247944
0.000248407
0.000248872
0.000249344
0.000249825
0.000250323
0.000250845
0.000251397
0.000251979
0.000252587
0.000253214
0.000253858
0.000254509
0.000255162
0.00025581
0.000256455
0.000257107
0.000257788
0.000258517
0.00025932
0.000260208
0.000261196
0.000262278
0.000263456
0.000264712
0.000266035
0.000267411
0.000268823
0.000270279
0.000271781
0.000273344
0.000275011
0.000276803
0.000278771
0.000280925
0.000283358
0.00028607
0.0002891
0.000292494
0.00029635
0.000300737
0.000305682
0.000311188
0.000317254
0.000323883
0.000331085
0.000338871
0.000347249
0.000356212
0.000365728
0.000375735
0.000386131
0.000396769
0.000407454
0.000417929
0.000427921
0.000437012
0.000444991
0.000451022
0.000455534
0.000456225
0.000456021
0.000448393
0.000442255
0.000423323
0.000409637
0.000377798
0.000352725
0.000303232
0.000265556
0.000266141
0.000266729
0.000267331
0.000267944
0.00026857
0.000269216
0.000269885
0.000270581
0.000271305
0.000272059
0.000272835
0.000273631
0.000274443
0.000275269
0.000276108
0.000276964
0.00027785
0.000278781
0.000279772
0.000280841
0.000282
0.000283258
0.000284619
0.000286081
0.000287644
0.000289307
0.000291068
0.000292937
0.000294923
0.000297046
0.000299333
0.000301813
0.000304521
0.000307489
0.000310761
0.000314369
0.000318346
0.000322724
0.000327538
0.000332821
0.000338593
0.000344866
0.000351643
0.000358919
0.000366678
0.000374892
0.000383514
0.000392471
0.000401665
0.000410962
0.000420195
0.000429156
0.000437598
0.000445237
0.000451773
0.000456788
0.000460097
0.000460837
0.000459638
0.000453777
0.00044734
0.000431553
0.000419525
0.000391106
0.00037225
0.000328908
0.000293086
0.000246169
0.000287998
0.000288763
0.000289536
0.000290327
0.000291133
0.000291957
0.000292799
0.000293661
0.000294548
0.000295463
0.000296408
0.000297386
0.000298397
0.000299443
0.000300523
0.000301639
0.000302794
0.000303995
0.000305253
0.000306578
0.000307984
0.000309485
0.00031109
0.000312811
0.000314654
0.000316626
0.000318736
0.00032099
0.0003234
0.00032598
0.000328748
0.000331724
0.000334933
0.000338398
0.000342148
0.000346205
0.000350595
0.000355337
0.000360447
0.000365937
0.000371812
0.000378067
0.000384691
0.000391658
0.00039893
0.000406453
0.000414153
0.000421936
0.000429682
0.000437247
0.000444454
0.000451102
0.000456964
0.000461769
0.000465248
0.000467091
0.000466909
0.000464587
0.000459202
0.000451626
0.00043869
0.000425733
0.000401606
0.000384323
0.000346654
0.000319157
0.000264832
0.000231621
0.000173857
0.000317571
0.000318621
0.000319681
0.00032076
0.000321856
0.000322972
0.000324112
0.000325279
0.000326477
0.000327709
0.000328981
0.000330294
0.000331654
0.000333062
0.000334523
0.000336039
0.000337615
0.000339257
0.000340971
0.000342766
0.000344652
0.000346638
0.000348735
0.000350953
0.000353299
0.000355784
0.000358415
0.000361203
0.000364156
0.000367287
0.000370606
0.000374128
0.000377864
0.000381828
0.000386032
0.000390485
0.000395191
0.000400154
0.000405367
0.000410819
0.000416488
0.000422345
0.000428347
0.00043444
0.000440553
0.000446602
0.000452482
0.000458071
0.000463223
0.000467775
0.000471533
0.000474294
0.000475829
0.000475861
0.000474179
0.00047043
0.000464315
0.000455812
0.000443811
0.000429607
0.000409581
0.000390219
0.000358879
0.000334008
0.000284768
0.000252579
0.000198906
0.000167638
0.000111544
0.000358592
0.000360092
0.000361604
0.000363135
0.000364684
0.000366253
0.000367844
0.000369463
0.000371111
0.000372793
0.000374511
0.000376269
0.000378072
0.000379921
0.00038182
0.000383773
0.000385782
0.000387853
0.000389989
0.000392194
0.000394476
0.000396838
0.000399287
0.000401828
0.000404468
0.00040721
0.000410061
0.000413025
0.000416106
0.000419309
0.000422638
0.000426096
0.000429684
0.000433403
0.00043725
0.000441219
0.000445298
0.000449471
0.000453714
0.000457995
0.000462273
0.000466498
0.000470607
0.000474527
0.000478171
0.000481436
0.000484204
0.000486343
0.000487701
0.000488109
0.000487367
0.000485297
0.000481659
0.000476186
0.000468784
0.000458926
0.00044666
0.000431859
0.000413134
0.000392695
0.000366336
0.000338832
0.000298412
0.000265228
0.000216134
0.000185166
0.000135743
0.000108742
6.94393e-05
0.000418386
0.000420339
0.000422278
0.000424212
0.000426137
0.000428053
0.000429964
0.000431873
0.000433783
0.000435695
0.000437612
0.000439535
0.000441468
0.000443412
0.000445367
0.000447337
0.000449323
0.000451327
0.00045335
0.000455396
0.000457465
0.000459561
0.000461685
0.000463838
0.000466023
0.000468239
0.000470488
0.000472769
0.000475081
0.000477422
0.000479789
0.000482177
0.000484574
0.000486974
0.000489362
0.000491719
0.00049402
0.000496235
0.000498328
0.000500253
0.000501959
0.000503385
0.000504459
0.000505101
0.000505214
0.000504693
0.000503413
0.000501247
0.00049803
0.000493597
0.000487749
0.000480378
0.000471145
0.000459918
0.000446728
0.000430636
0.000412778
0.000391827
0.000366988
0.000338575
0.000303558
0.000267541
0.000227368
0.000192233
0.000149616
0.000120601
8.15124e-05
6.12453e-05
3.19194e-05
0.000498278
0.000500087
0.000501817
0.000503485
0.000505091
0.000506642
0.000508145
0.000509603
0.00051102
0.000512399
0.000513737
0.000515033
0.000516287
0.000517499
0.000518669
0.000519799
0.00052089
0.000521944
0.000522961
0.000523943
0.00052489
0.000525802
0.000526678
0.000527517
0.000528317
0.000529074
0.000529787
0.000530449
0.000531054
0.000531597
0.000532066
0.000532448
0.000532705
0.000532848
0.000532851
0.000532671
0.000532277
0.000531634
0.000530699
0.000529423
0.000527753
0.000525627
0.000522969
0.000519697
0.000515704
0.000510892
0.000505128
0.000498303
0.000490194
0.000480676
0.000469601
0.000456956
0.000442082
0.00042551
0.000406939
0.000385083
0.000361646
0.000331862
0.000298815
0.000264119
0.000227996
0.000192195
0.000156979
0.00012325
9.20991e-05
6.5643e-05
4.24165e-05
2.59283e-05
1.25784e-05
0.000582589
0.000583117
0.00058361
0.000584067
0.00058448
0.000584846
0.000585164
0.000585432
0.000585646
0.000585798
0.000585845
0.000585793
0.000585649
0.000585415
0.000585096
0.000584698
0.000584223
0.000583676
0.000583055
0.00058236
0.000581586
0.000580729
0.000579785
0.000578749
0.000577615
0.000576375
0.000575023
0.000573548
0.000571941
0.000570187
0.000568268
0.00056615
0.000563687
0.000561137
0.000558324
0.00055511
0.000551543
0.000547606
0.000543243
0.000538425
0.000533105
0.000527213
0.000520665
0.000513379
0.000505211
0.000496118
0.000485923
0.000474543
0.000461548
0.000447155
0.000431357
0.000413937
0.000393752
0.000372297
0.000346139
0.000316963
0.000285398
0.000252474
0.000219139
0.000186362
0.00015331
0.000122351
9.36312e-05
6.79027e-05
4.65559e-05
2.92651e-05
1.65287e-05
8.90099e-06
5.27978e-06
0.000647263
0.000646042
0.000644821
0.000643583
0.000642315
0.000641007
0.000639652
0.000638242
0.000636772
0.000635234
0.000633619
0.000631923
0.000630139
0.000628265
0.000626303
0.000624302
0.000622225
0.000620082
0.000617846
0.00061551
0.00061305
0.000610457
0.000607724
0.000604842
0.0006018
0.000598589
0.000595196
0.000591608
0.000587809
0.000583776
0.000579463
0.000574732
0.000569012
0.000564447
0.000558911
0.000552173
0.000545315
0.000538122
0.000530387
0.000522234
0.000513568
0.000504242
0.000494168
0.000483238
0.000471236
0.000458388
0.000444206
0.000428613
0.000410769
0.000392837
0.00037139
0.000347464
0.00032098
0.000292166
0.000262766
0.000232259
0.000202249
0.000171829
0.000142079
0.000114405
8.82106e-05
6.54928e-05
4.57278e-05
3.00298e-05
1.77992e-05
9.77376e-06
5.51142e-06
3.60334e-06
3.07675e-06
0.000674382
0.000671913
0.000669382
0.00066677
0.000664126
0.000661392
0.000658613
0.000655741
0.000652816
0.000649789
0.000646688
0.000643491
0.000640185
0.000636821
0.000633236
0.000629756
0.000625839
0.000622106
0.000618057
0.000613959
0.000609522
0.000604912
0.000600124
0.000595148
0.000589976
0.000584598
0.000579
0.00057317
0.000567092
0.000560747
0.000554114
0.000547167
0.000539699
0.000532908
0.000525651
0.000517609
0.000508912
0.000499357
0.000488624
0.000478319
0.000467401
0.00045538
0.000442578
0.000428628
0.000413493
0.000396555
0.000377275
0.000356336
0.000333582
0.000309437
0.000284074
0.000257773
0.000230949
0.000203709
0.000176534
0.000149139
0.000123676
9.92573e-05
7.70514e-05
5.78453e-05
4.09097e-05
2.76003e-05
1.69973e-05
9.57134e-06
5.48984e-06
3.51306e-06
2.61584e-06
2.50148e-06
2.63548e-06
0.000648674
0.000645315
0.000641895
0.000638408
0.000634847
0.000631206
0.000627483
0.000623671
0.000619768
0.000615768
0.000611667
0.000607458
0.000603133
0.000598692
0.000594117
0.000589403
0.000584502
0.000579448
0.00057422
0.000568823
0.000563232
0.000557442
0.000551448
0.000545244
0.00053882
0.000532167
0.000525274
0.000518126
0.000510705
0.000502996
0.000494984
0.000486646
0.000477925
0.000468888
0.000459472
0.000449584
0.000439167
0.000428128
0.000416261
0.000403553
0.000389918
0.000375145
0.000359131
0.000341868
0.000323136
0.000303264
0.000282002
0.0002603
0.000237213
0.000213773
0.000190113
0.000165747
0.000142408
0.000119432
9.82037e-05
7.82897e-05
6.12259e-05
4.57678e-05
3.29419e-05
2.25895e-05
1.43701e-05
8.38832e-06
5.1159e-06
3.23686e-06
2.35504e-06
2.12485e-06
2.14956e-06
2.333e-06
3.1254e-06
0.000562787
0.000559201
0.000555544
0.000551813
0.000548003
0.000544109
0.000540129
0.00053606
0.000531897
0.000527637
0.000523269
0.000518767
0.000514132
0.000509363
0.000504459
0.000499416
0.000494227
0.000488887
0.00048339
0.000477731
0.000471899
0.000465889
0.000459689
0.000453292
0.000446687
0.000439862
0.000432802
0.000425494
0.000417904
0.000410019
0.000401788
0.000393158
0.000384075
0.000374483
0.000364324
0.000353522
0.000342013
0.00032968
0.000316561
0.000302622
0.000287795
0.000272053
0.000255331
0.000237755
0.000219155
0.0002002
0.000180112
0.000160458
0.000140126
0.000120608
0.000102169
8.41642e-05
6.87727e-05
5.42355e-05
4.22303e-05
3.1713e-05
2.32844e-05
1.6054e-05
1.05021e-05
6.59197e-06
4.29303e-06
2.87262e-06
1.99349e-06
1.51129e-06
1.67997e-06
2.02407e-06
2.75035e-06
4.37623e-06
6.56801e-06
0.000417446
0.000414374
0.000411224
0.000407999
0.000404698
0.00040132
0.000397864
0.000394329
0.000390714
0.000387016
0.000383234
0.000379363
0.000375398
0.000371334
0.000367168
0.000362896
0.000358512
0.000354013
0.00034939
0.000344641
0.000339754
0.000334728
0.000329549
0.000324212
0.000318708
0.000313015
0.000307118
0.000300998
0.000294534
0.000287671
0.000280374
0.000272604
0.000264319
0.000255473
0.000246021
0.000235916
0.00022512
0.000213611
0.000201343
0.000188341
0.000174607
0.000160295
0.00014546
0.000130386
0.000115255
0.000100449
8.61311e-05
7.2753e-05
6.0422e-05
4.92443e-05
3.97668e-05
3.1096e-05
2.4453e-05
1.83719e-05
1.38934e-05
9.83123e-06
6.67368e-06
4.62832e-06
3.2692e-06
2.26066e-06
1.55762e-06
1.089e-06
1.11991e-06
1.74116e-06
3.41059e-06
4.65991e-06
4.9829e-06
6.23893e-06
8.67307e-06
0.000233423
0.00023153
0.000229587
0.000227597
0.00022556
0.000223476
0.000221346
0.000219168
0.000216942
0.000214667
0.000212343
0.000209968
0.00020754
0.000205054
0.000202507
0.000199902
0.000197227
0.00019449
0.000191669
0.000188786
0.000185797
0.000182745
0.000179568
0.000176312
0.000172944
0.000169382
0.000165652
0.000161502
0.000156933
0.000151926
0.000146459
0.000140515
0.000134085
0.000127167
0.000119781
0.000111948
0.000103733
9.51998e-05
8.64558e-05
7.76421e-05
6.88621e-05
6.03631e-05
5.21728e-05
4.46435e-05
3.79265e-05
3.18911e-05
2.66967e-05
2.18667e-05
1.79599e-05
1.43476e-05
1.15304e-05
8.97574e-06
7.02565e-06
5.30559e-06
3.88981e-06
2.82495e-06
2.07427e-06
1.50277e-06
1.02972e-06
7.36696e-07
6.29102e-07
8.17932e-07
1.82956e-06
3.20896e-06
4.50324e-06
5.45157e-06
6.14581e-06
7.51014e-06
8.46327e-06
7.10352e-05
7.03565e-05
6.96601e-05
6.89437e-05
6.82146e-05
6.74639e-05
6.67024e-05
6.59206e-05
6.51274e-05
6.43171e-05
6.34975e-05
6.26612e-05
6.18063e-05
6.09336e-05
6.00388e-05
5.91363e-05
5.82034e-05
5.72727e-05
5.62871e-05
5.53281e-05
5.42779e-05
5.32912e-05
5.21543e-05
5.11323e-05
4.98488e-05
4.83314e-05
4.65729e-05
4.46468e-05
4.25821e-05
4.04038e-05
3.81415e-05
3.58248e-05
3.34847e-05
3.11489e-05
2.88456e-05
2.65973e-05
2.44278e-05
2.23482e-05
2.03828e-05
1.85187e-05
1.67941e-05
1.51586e-05
1.3675e-05
1.22223e-05
1.0819e-05
9.39229e-06
8.0702e-06
6.80663e-06
5.63802e-06
4.51614e-06
3.52224e-06
2.69499e-06
1.94604e-06
1.30655e-06
9.38914e-07
7.19176e-07
5.40113e-07
3.50118e-07
2.42268e-07
2.03071e-07
2.04651e-07
2.95279e-07
5.39505e-07
1.2075e-06
2.06034e-06
2.83662e-06
3.6655e-06
4.15454e-06
4.24262e-06
7.18251e-06
7.27014e-06
7.36621e-06
7.43964e-06
7.56803e-06
7.6349e-06
7.74446e-06
7.80469e-06
7.90409e-06
8.01822e-06
8.10487e-06
8.15983e-06
8.17976e-06
8.23569e-06
8.31246e-06
8.39514e-06
8.50639e-06
8.58214e-06
8.64249e-06
8.75885e-06
8.83975e-06
8.90718e-06
8.91195e-06
9.00762e-06
9.01716e-06
9.01511e-06
9.01706e-06
9.01802e-06
9.0134e-06
8.99943e-06
8.97309e-06
8.93132e-06
8.87137e-06
8.78976e-06
8.68315e-06
8.54699e-06
8.37674e-06
8.1664e-06
7.9097e-06
7.59897e-06
7.22569e-06
6.7813e-06
6.25441e-06
5.63678e-06
4.92093e-06
4.10141e-06
3.18922e-06
2.21361e-06
1.26901e-06
5.36247e-07
1.72704e-07
1.17952e-07
1.23599e-07
1.20342e-07
1.05627e-07
8.77573e-08
6.12123e-08
3.85401e-08
2.95809e-08
2.79856e-08
3.30539e-08
4.39563e-08
5.81957e-08
6.99728e-08
7.87274e-08
9.07104e-08
9.92226e-08
8.96278e-08
7.82455e-08
0.000170158
0.0001702
0.000170154
0.000170071
0.00017
0.000169835
0.000169752
0.000169645
0.000169526
0.000169438
0.000169264
0.000169152
0.00016924
0.000169273
0.000169247
0.000169125
0.000169128
0.000169119
0.000169095
0.000169033
0.000169135
0.00016929
0.000169236
0.000169234
0.000169203
0.00016909
0.000169172
0.000169244
0.000169416
0.000169418
0.00016942
0.000169542
0.000169681
0.000169683
0.00016974
0.000169744
0.000169891
0.000169968
0.000169988
0.000170202
0.000170115
0.000170209
0.000170207
0.000170252
0.00017046
0.000170398
0.000170452
0.000170563
0.00017057
0.000170524
0.000170587
0.000170632
0.000170676
0.000170676
0.000170691
0.000170768
0.000170829
0.000170907
0.00017089
0.000171991
0.000171916
0.000171795
0.000171683
0.000171558
0.000171425
0.000171319
0.000171194
0.000171078
0.000170935
0.000170806
0.000170774
0.000170809
0.000170809
0.000170689
0.000170581
0.000170621
0.000170598
0.000170581
0.000170521
0.000170677
0.000170761
0.000170691
0.000170709
0.000170632
0.000170559
0.000170648
0.000170757
0.000170876
0.000170887
0.000170942
0.000171052
0.000171191
0.000171201
0.000171306
0.000171314
0.000171412
0.000171576
0.000171587
0.000171753
0.000171854
0.000171795
0.000171939
0.000171918
0.00017202
0.000172112
0.000172236
0.000172358
0.000172592
0.000172612
0.000172577
0.000172427
0.000172502
0.000172437
0.00017246
0.000172681
0.000172638
0.000172865
0.000172942
0.000173925
0.00017382
0.000173683
0.000173565
0.000173442
0.00017333
0.000173227
0.000173121
0.00017302
0.000172912
0.00017283
0.000172787
0.000172707
0.000172567
0.000172405
0.000172347
0.000172365
0.000172352
0.000172258
0.000172347
0.000172451
0.000172469
0.000172413
0.000172426
0.000172329
0.000172289
0.000172387
0.000172519
0.000172603
0.000172628
0.000172723
0.000172826
0.000172959
0.000172995
0.000173116
0.000173151
0.000173237
0.000173365
0.000173435
0.000173584
0.000173727
0.000173726
0.000173798
0.000173975
0.000173957
0.000174019
0.000174101
0.000174178
0.000174387
0.000174517
0.000174792
0.000174932
0.000174852
0.000174675
0.000174736
0.000174668
0.000174812
0.00017482
0.00017486
0.000176151
0.000176043
0.000175908
0.000175792
0.000175673
0.000175562
0.000175449
0.00017533
0.000175208
0.000175079
0.000174956
0.000174829
0.00017467
0.000174534
0.000174436
0.000174438
0.000174414
0.000174364
0.000174347
0.000174417
0.000174497
0.000174499
0.000174425
0.000174423
0.00017432
0.000174316
0.000174422
0.000174566
0.000174631
0.000174671
0.000174794
0.000174896
0.00017503
0.000175092
0.000175229
0.000175293
0.000175368
0.000175548
0.00017558
0.000175798
0.000175886
0.000176054
0.000176065
0.000176165
0.000176512
0.000176441
0.000176436
0.00017648
0.000176636
0.000176689
0.00017686
0.000177089
0.00017736
0.00017736
0.000177529
0.000177491
0.000177754
0.000177836
0.000177945
0.000178744
0.000178633
0.000178492
0.000178365
0.00017823
0.000178094
0.000177949
0.000177797
0.000177637
0.000177475
0.000177316
0.000177164
0.000177026
0.000176942
0.0001769
0.000176894
0.000176824
0.000176789
0.000176761
0.000176834
0.000176877
0.000176842
0.000176771
0.000176763
0.000176651
0.000176687
0.000176798
0.000176947
0.000177006
0.000177061
0.000177206
0.000177313
0.000177452
0.00017754
0.000177694
0.000177793
0.000177867
0.000178058
0.000178138
0.000178264
0.000178487
0.000178623
0.00017872
0.000178667
0.000178977
0.000179211
0.000179296
0.000179317
0.00017939
0.000179451
0.00017958
0.000179653
0.000179813
0.000179962
0.000180036
0.000180114
0.00018023
0.000180312
0.000180526
0.000181737
0.000181611
0.000181448
0.000181296
0.000181132
0.000180964
0.000180787
0.000180606
0.000180425
0.000180251
0.000180092
0.000179957
0.000179854
0.00017979
0.00017974
0.000179688
0.000179631
0.000179581
0.000179572
0.000179617
0.000179624
0.00017959
0.000179517
0.000179499
0.000179401
0.000179453
0.000179577
0.000179731
0.000179793
0.000179865
0.000180028
0.000180147
0.000180294
0.000180406
0.000180578
0.000180717
0.000180803
0.000181011
0.00018113
0.000181278
0.000181373
0.000181744
0.000181888
0.000181903
0.000181877
0.000182196
0.000182451
0.000182596
0.000182705
0.000182774
0.000182865
0.000182908
0.000182982
0.000183113
0.000183175
0.000183259
0.000183345
0.000183451
0.000183513
0.000185176
0.000185029
0.000184841
0.000184664
0.000184474
0.000184283
0.000184089
0.000183898
0.000183716
0.000183549
0.000183404
0.000183285
0.000183191
0.000183113
0.000183036
0.000182963
0.000182929
0.000182899
0.000182853
0.000182866
0.000182881
0.000182821
0.000182738
0.000182708
0.000182643
0.000182708
0.000182841
0.000183001
0.000183072
0.000183163
0.000183344
0.000183479
0.000183638
0.000183775
0.000183965
0.000184146
0.000184258
0.000184483
0.000184633
0.000184833
0.000184897
0.000185205
0.000185488
0.000185665
0.000185649
0.00018581
0.000186068
0.000186307
0.000186512
0.00018666
0.000186779
0.000186853
0.000186906
0.000187002
0.000187111
0.000187163
0.00018728
0.000187122
0.000187245
0.000189171
0.000189007
0.000188799
0.000188603
0.000188399
0.000188198
0.000187999
0.000187809
0.000187632
0.000187472
0.000187332
0.00018721
0.000187103
0.000187003
0.000186911
0.000186837
0.000186797
0.000186769
0.000186746
0.000186791
0.000186722
0.000186602
0.000186528
0.000186494
0.000186465
0.000186548
0.000186691
0.000186854
0.00018694
0.000187053