/*--------------------------------*- C++ -*----------------------------------*\
| =========                 |                                                 |
| \\      /  F ield         | OpenFOAM: The Open Source CFD Toolbox           |
|  \\    /   O peration     | Version:  2312                                  |
|   \\  /    A nd           | Website:  www.openfoam.com                      |
|    \\/     M anipulation  |                                                 |
\*---------------------------------------------------------------------------*/
FoamFile
{
    version     2.0;
    format      ascii;
    arch        "LSB;label=32;scalar=64";
    class       volScalarField;
    location    "600";
    object      omega;
}
// * * * * * * * * * * * * * * * * * * * * * * * * * * * * * * * * * * * * * //

dimensions      [0 0 -1 0 0 0 0];

internalField   nonuniform List<scalar> 
76025
(
0.02943
0.0294292
0.0294337
0.0294207
0.0294211
0.029424
0.0294195
0.0293984
0.029398
0.0293968
0.0293869
0.0293988
0.0293993
0.0293812
0.029359
0.0293643
0.0293663
0.0293508
0.0293379
0.0293357
0.0293303
0.0293544
0.0293555
0.029379
0.0293921
0.0294123
0.0294325
0.0294148
0.0294236
0.0294397
0.0294713
0.0295024
0.0295594
0.0296132
0.029682
0.0297515
0.0298356
0.0299435
0.0300528
0.0301745
0.0303016
0.0304537
0.0306229
0.0307987
0.0309809
0.0311774
0.0313834
0.0316
0.0318263
0.032061
0.0323123
0.0325824
0.0328723
0.0331763
0.0335549
0.0339363
0.0343864
0.0349144
0.0355412
0.0362956
0.0371474
0.0382147
0.0395248
0.0410428
0.0429976
0.0452354
0.0479691
0.0511373
0.0548454
0.0297486
0.0297551
0.0297601
0.0297617
0.0297676
0.0297727
0.029794
0.0297946
0.0297876
0.0297824
0.0297978
0.029795
0.0297906
0.029817
0.029821
0.0298261
0.0298292
0.029859
0.0298665
0.0298758
0.029853
0.029852
0.0298447
0.0298606
0.0298839
0.0299072
0.0299319
0.0299554
0.0299851
0.0300205
0.0300629
0.0301081
0.0301635
0.0302244
0.0302944
0.0303736
0.0304614
0.0305601
0.0306658
0.0307813
0.0309086
0.0310467
0.0311944
0.031352
0.0315218
0.0317044
0.0318988
0.0321063
0.0323333
0.0325807
0.0328514
0.0331514
0.0334837
0.0338567
0.0342774
0.0347621
0.0353167
0.0359559
0.0367004
0.0375594
0.038583
0.0397824
0.0412333
0.0429386
0.0450572
0.0474766
0.0504859
0.0537258
0.057859
0.0301089
0.0301154
0.0301025
0.0301055
0.0301159
0.0301347
0.0301527
0.030196
0.0302143
0.0302246
0.0302373
0.0302141
0.0302359
0.0302202
0.0302168
0.0302246
0.0302375
0.0302589
0.0302779
0.0302985
0.0303183
0.0303412
0.0303665
0.0304075
0.030447
0.0304923
0.0305602
0.0306697
0.030718
0.0307035
0.0307163
0.0307494
0.0307981
0.0308582
0.0309282
0.0310079
0.0310968
0.0311947
0.0313037
0.0314229
0.0315532
0.0316946
0.0318455
0.0320075
0.0321823
0.0323717
0.0325783
0.0328047
0.0330555
0.0333327
0.0336411
0.0339841
0.0343688
0.0347991
0.0352862
0.0358394
0.0364688
0.0371943
0.0380315
0.0390116
0.0401628
0.0415192
0.0431471
0.0450505
0.0473591
0.0499635
0.0531435
0.056557
0.060886
0.0305208
0.0305232
0.0305531
0.03056
0.030549
0.0305548
0.0305721
0.0305976
0.0306346
0.0306627
0.030687
0.0307172
0.0307763
0.0307901
0.030791
0.0308261
0.0308164
0.0308113
0.0308115
0.0308233
0.030846
0.0308752
0.0309112
0.0309546
0.0310003
0.0310489
0.0311037
0.0311633
0.0312179
0.0312679
0.0313201
0.0313789
0.0314458
0.0315203
0.0316034
0.0316984
0.0318011
0.0319124
0.0320472
0.0321869
0.0323346
0.0324879
0.032641
0.0328015
0.0329779
0.0331741
0.0333947
0.0336423
0.0339208
0.034232
0.0345808
0.0349697
0.0354068
0.0358958
0.03645
0.0370772
0.0377955
0.0386203
0.0395764
0.0406916
0.0419968
0.0435303
0.0453375
0.0474341
0.0499178
0.0526962
0.0560553
0.0596166
0.0641772
0.031064
0.0310704
0.0310679
0.0310985
0.0310808
0.0311003
0.0310937
0.031106
0.0311323
0.031163
0.0311871
0.0312145
0.0312477
0.0312897
0.0313163
0.0313701
0.0314215
0.0314428
0.0315279
0.0315645
0.0316058
0.0316355
0.0316021
0.0315981
0.0316247
0.031668
0.0317257
0.0317916
0.0318602
0.0319358
0.0320122
0.0320971
0.0321902
0.0322896
0.0323982
0.0325281
0.0326489
0.0327888
0.032985
0.0331391
0.0333026
0.0334619
0.0335842
0.0337233
0.0338945
0.0340998
0.0343409
0.0346177
0.034932
0.0352847
0.0356804
0.0361219
0.0366184
0.0371745
0.0378057
0.03852
0.0393401
0.0402799
0.0413695
0.0426323
0.0441015
0.0458103
0.0477915
0.0500726
0.0527188
0.055681
0.0592167
0.0629519
0.0678022
0.0317115
0.031704
0.0317057
0.0317202
0.0317333
0.0317733
0.0317544
0.0317563
0.031758
0.0317774
0.0318244
0.0318655
0.031896
0.0319264
0.0319582
0.0320009
0.0320572
0.0321199
0.0321877
0.0322418
0.0323419
0.0324107
0.0324336
0.0324968
0.032543
0.0326791
0.0326682
0.0327393
0.0327311
0.0327651
0.0328229
0.0328993
0.03299
0.033091
0.0332021
0.0333235
0.0334497
0.0335832
0.0337301
0.0338826
0.034044
0.0342165
0.0344042
0.0346128
0.0348483
0.0351119
0.0354062
0.0357337
0.0360983
0.0365032
0.0369551
0.0374584
0.0380243
0.0386588
0.03938
0.0401959
0.0411334
0.0422026
0.0434395
0.0448576
0.0464956
0.0483745
0.0505275
0.0529886
0.0558005
0.0589725
0.0626978
0.0666788
0.0719054
0.0324248
0.032424
0.032426
0.0324335
0.0324566
0.0325049
0.0325712
0.0325929
0.0325853
0.0325823
0.0326093
0.0326512
0.0326944
0.0327343
0.0328025
0.0329053
0.0329105
0.0329238
0.0329452
0.0329814
0.0330381
0.0331
0.0331611
0.0332271
0.0332974
0.0333775
0.0334413
0.0335073
0.0335689
0.0336411
0.0337239
0.0338178
0.0339325
0.0340533
0.034189
0.0343256
0.0344575
0.0345952
0.0347453
0.03491
0.0350898
0.035288
0.0355079
0.0357532
0.0360269
0.036332
0.0366702
0.0370449
0.0374609
0.0379229
0.0384385
0.0390139
0.0396614
0.0403885
0.0412146
0.0421473
0.043216
0.0444257
0.0458172
0.0473914
0.0491987
0.0512417
0.0535736
0.0562193
0.059224
0.0626498
0.0665982
0.0709628
0.0766014
0.0332485
0.0332739
0.0333082
0.0333739
0.0333987
0.0333911
0.0334026
0.033421
0.0334378
0.0334645
0.0334942
0.0335462
0.0335924
0.0336604
0.033724
0.0338231
0.0339078
0.0339562
0.034081
0.0340866
0.0341681
0.0341288
0.0341412
0.034196
0.0342677
0.034363
0.0344532
0.0345746
0.0346692
0.0348123
0.0349477
0.035089
0.0353559
0.0355132
0.0358508
0.0359966
0.0359619
0.0360134
0.0361284
0.0362801
0.0364421
0.0366326
0.0368583
0.0371218
0.0374234
0.0377662
0.0381494
0.0385762
0.0390517
0.0395813
0.040173
0.0408344
0.041578
0.0424124
0.0433568
0.0444181
0.045626
0.0469808
0.0485285
0.0502583
0.0522394
0.0544513
0.0569881
0.05984
0.0631
0.0668362
0.0710886
0.0760287
0.0820459
0.0342186
0.0342847
0.0343702
0.0343733
0.0343817
0.034391
0.0344049
0.0344276
0.0344537
0.0344907
0.0345321
0.0345844
0.0346439
0.0347092
0.0347759
0.0348747
0.0349586
0.035073
0.0351918
0.0352559
0.0354293
0.035388
0.0354317
0.0354252
0.0354683
0.0355488
0.0356442
0.0357655
0.0358858
0.0360354
0.036184
0.0363682
0.0365483
0.0367443
0.0369974
0.037124
0.0375829
0.0378005
0.0380288
0.0382087
0.0381532
0.0382498
0.03845
0.0387247
0.0390589
0.0394468
0.0398862
0.0403776
0.0409256
0.0415362
0.0422177
0.0429783
0.0438303
0.0447823
0.0458529
0.0470481
0.0483977
0.0498999
0.0516076
0.0535014
0.0556759
0.0580822
0.060876
0.0639785
0.0675985
0.0717105
0.076436
0.0821354
0.0885785
0.0353558
0.0354208
0.0355165
0.0356263
0.0356266
0.0356284
0.0356348
0.0356503
0.0356762
0.0357109
0.0357589
0.0358107
0.0358801
0.0359493
0.0360334
0.036124
0.0362347
0.0363395
0.0364783
0.0366247
0.0367038
0.0369492
0.0370593
0.0371701
0.0372519
0.0372026
0.037183
0.0372368
0.0373347
0.0374613
0.0376024
0.0377605
0.0379218
0.0380929
0.0382747
0.0384538
0.0386645
0.0388736
0.0390954
0.0393324
0.0395873
0.0398749
0.0402013
0.0405692
0.0409819
0.041442
0.0419557
0.0425251
0.0431569
0.0438584
0.0446384
0.0455055
0.0464714
0.047545
0.0487441
0.0500761
0.0515723
0.0532323
0.0551184
0.0572048
0.0596168
0.0622698
0.065403
0.0688297
0.0729628
0.0775343
0.0830353
0.0896102
0.0968542
0.036741
0.0367909
0.0368683
0.0369554
0.0370206
0.0370674
0.037103
0.0371333
0.0371658
0.0372015
0.0372474
0.0372982
0.0373628
0.0374321
0.0375149
0.0376013
0.0377017
0.0378027
0.0379145
0.0380312
0.0381318
0.0382506
0.0383491
0.038443
0.0385412
0.0386208
0.0387296
0.0388703
0.0390283
0.039191
0.0393536
0.039516
0.0396838
0.039862
0.0400628
0.0402851
0.0405295
0.0407923
0.0410758
0.0413818
0.0417119
0.0420692
0.0424583
0.0428849
0.0433555
0.0438773
0.044457
0.0451023
0.0458179
0.0466112
0.0474908
0.0484655
0.0495468
0.0507451
0.052079
0.05356
0.0552232
0.057072
0.0591801
0.0615145
0.0642385
0.067219
0.0708118
0.0746727
0.0795325
0.0846966
0.0914381
0.0989328
0.108295
0.0384212
0.0384744
0.0385388
0.0386142
0.0386905
0.0387609
0.0388236
0.0388789
0.0389307
0.0389808
0.0390344
0.039092
0.039158
0.0392307
0.0393127
0.0394007
0.0394965
0.0395965
0.0397019
0.0398104
0.0399178
0.0400274
0.0401372
0.0402474
0.0403656
0.0404871
0.0406265
0.0407872
0.0409698
0.0411624
0.0413726
0.0415805
0.0418093
0.0420592
0.0423547
0.0426665
0.0429896
0.0433233
0.0436785
0.0440487
0.0444304
0.0448278
0.045251
0.0457121
0.0462231
0.0467942
0.0474341
0.0481497
0.048949
0.0498353
0.0508177
0.0519057
0.0531123
0.0544515
0.0559451
0.0576102
0.059487
0.0615837
0.0639868
0.0666536
0.0697989
0.073219
0.0774461
0.0818973
0.0877923
0.093783
0.102382
0.111085
0.124541
0.0404712
0.0405325
0.0405981
0.0406706
0.0407478
0.0408263
0.0409034
0.0409776
0.0410489
0.0411184
0.0411882
0.0412598
0.0413365
0.0414202
0.0415125
0.0416129
0.0417207
0.0418335
0.0419497
0.0420685
0.0421888
0.0423113
0.0424369
0.0425669
0.0427048
0.0428521
0.0430128
0.0431917
0.0433895
0.0436059
0.0438447
0.0440961
0.0443715
0.0446644
0.0449999
0.0453375
0.0457273
0.0461563
0.0466326
0.0470988
0.0475456
0.0479897
0.0484552
0.0489635
0.049531
0.0501692
0.0508865
0.0516894
0.0525849
0.0535804
0.0546862
0.055913
0.0572779
0.0588003
0.0605065
0.06242
0.0645861
0.0670192
0.0698209
0.0729372
0.076657
0.0806703
0.0857955
0.091056
0.098471
0.105665
0.116985
0.128
0.145878
0.0429873
0.0430604
0.0431356
0.0432151
0.0432985
0.0433848
0.0434729
0.0435616
0.0436501
0.0437386
0.0438276
0.0439182
0.0440121
0.0441115
0.0442185
0.0443332
0.0444556
0.044585
0.0447199
0.0448591
0.0450019
0.0451483
0.0452991
0.0454557
0.0456201
0.0457948
0.0459821
0.0461855
0.0464064
0.0466468
0.0469087
0.0471905
0.0474948
0.0478206
0.0481743
0.0485486
0.0489521
0.0493867
0.0498542
0.0503463
0.0508606
0.0514022
0.0519811
0.0526087
0.053296
0.0540533
0.0548902
0.0558167
0.0568438
0.0579841
0.0592529
0.0606681
0.0622516
0.0640276
0.0660272
0.0682807
0.0708404
0.0737293
0.0770703
0.0807986
0.0853124
0.0901426
0.0965814
0.10297
0.112717
0.121662
0.137318
0.151751
0.17812
0.0461055
0.0461963
0.0462884
0.0463837
0.0464818
0.0465827
0.0466863
0.0467923
0.0469002
0.0470098
0.0471217
0.0472352
0.047351
0.0474707
0.0475959
0.0477281
0.0478681
0.0480161
0.0481718
0.0483346
0.0485038
0.0486794
0.0488617
0.0490514
0.0492499
0.0494589
0.0496804
0.0499166
0.0501694
0.0504405
0.0507318
0.051044
0.0513785
0.0517359
0.0521185
0.0525266
0.0529625
0.0534288
0.0539283
0.0544632
0.0550369
0.0556545
0.0563231
0.0570514
0.0578492
0.0587273
0.0596976
0.0607737
0.0619707
0.063306
0.0647998
0.0664748
0.068358
0.0704795
0.0728775
0.0755909
0.0786834
0.0821917
0.0862704
0.0908513
0.0964898
0.102494
0.110918
0.11894
0.132382
0.144015
0.166629
0.1878
0.221422
0.0500316
0.0501491
0.0502672
0.0503881
0.0505112
0.0506367
0.0507646
0.0508946
0.0510268
0.0511612
0.051298
0.0514374
0.0515799
0.0517261
0.0518772
0.0520341
0.052198
0.0523697
0.0525496
0.0527378
0.0529343
0.0531392
0.0533525
0.0535748
0.0538069
0.0540497
0.0543047
0.0545734
0.0548575
0.0551585
0.0554783
0.0558183
0.0561802
0.0565659
0.0569776
0.0574175
0.0578886
0.0583947
0.0589402
0.05953
0.0601704
0.0608685
0.0616331
0.0624744
0.063404
0.0644353
0.065583
0.0668639
0.0682969
0.0699036
0.0717082
0.0737391
0.0760294
0.0786176
0.0815531
0.0848891
0.0887115
0.0930805
0.0982001
0.10402
0.111308
0.119112
0.13061
0.141141
0.160605
0.176659
0.211726
0.239311
0.304375
0.0550777
0.0552311
0.0553837
0.0555378
0.0556925
0.0558483
0.0560056
0.0561648
0.0563261
0.0564895
0.0566553
0.0568237
0.056995
0.0571697
0.0573483
0.0575315
0.0577203
0.0579154
0.0581174
0.058327
0.0585445
0.0587702
0.0590046
0.0592481
0.0595013
0.0597651
0.0600407
0.0603294
0.060633
0.0609533
0.0612924
0.0616526
0.0620368
0.0624479
0.0628896
0.0633658
0.0638814
0.0644421
0.0650541
0.065725
0.0664633
0.0672787
0.0681822
0.0691864
0.0703054
0.0715551
0.0729535
0.0745207
0.0762798
0.0782571
0.0804834
0.0829953
0.0858365
0.0890604
0.0927361
0.0969413
0.101803
0.107418
0.114083
0.1218
0.131615
0.142384
0.158659
0.173496
0.203046
0.227016
0.280929
0.32205
0.440102
0.0616414
0.0618322
0.0620208
0.0622091
0.0623962
0.0625824
0.0627684
0.0629545
0.063141
0.0633282
0.0635164
0.0637058
0.0638969
0.0640899
0.0642852
0.0644836
0.0646855
0.0648919
0.0651033
0.0653207
0.0655447
0.0657761
0.0660159
0.0662648
0.066524
0.0667947
0.0670787
0.0673777
0.0676942
0.0680306
0.0683903
0.0687766
0.0691937
0.0696462
0.0701393
0.070679
0.071272
0.0719259
0.0726491
0.0734514
0.0743432
0.0753368
0.0764456
0.0776848
0.0790716
0.0806252
0.0823679
0.084325
0.0865262
0.0890064
0.0918073
0.0949809
0.0985892
0.102714
0.107456
0.112941
0.119366
0.126889
0.135993
0.146774
0.160643
0.176612
0.2004
0.223916
0.269522
0.306386
0.388988
0.451248
0.572187
0.0701173
0.0703395
0.0705565
0.0707701
0.0709795
0.0711852
0.0713879
0.0715881
0.0717863
0.071983
0.0721787
0.0723738
0.0725689
0.0727645
0.0729612
0.0731596
0.0733607
0.0735653
0.0737745
0.0739894
0.0742113
0.0744416
0.0746817
0.0749333
0.0751982
0.0754787
0.0757771
0.0760964
0.0764397
0.0768108
0.0772141
0.0776544
0.078137
0.0786682
0.0792548
0.0799045
0.0806259
0.0814285
0.0823228
0.0833208
0.0844357
0.0856826
0.0870782
0.0886417
0.0903951
0.0923635
0.0945765
0.0970689
0.0998821
0.103066
0.106685
0.110816
0.115555
0.121038
0.127416
0.134913
0.143833
0.154478
0.167665
0.183656
0.204531
0.230087
0.266015
0.307232
0.373595
0.435737
0.552986
0.63306
0.812059
0.0808895
0.0811364
0.081372
0.0815992
0.0818185
0.0820311
0.0822386
0.0824418
0.082642
0.0828398
0.0830357
0.0832302
0.0834239
0.0836178
0.0838127
0.0840099
0.0842104
0.0844157
0.0846272
0.0848466
0.0850757
0.0853165
0.0855713
0.0858424
0.0861327
0.0864451
0.0867833
0.0871511
0.0875528
0.0879935
0.0884787
0.0890145
0.0896075
0.0902662
0.0909991
0.0918156
0.0927266
0.0937443
0.094882
0.0961551
0.0975807
0.0991787
0.100972
0.102986
0.105251
0.107803
0.110686
0.113952
0.117662
0.121899
0.126763
0.132382
0.138914
0.1466
0.155655
0.166544
0.179724
0.195877
0.216425
0.24189
0.275576
0.318145
0.374069
0.444819
0.535845
0.642051
0.77146
0.904725
1.06082
0.0945968
0.0948115
0.0950272
0.095244
0.0954607
0.0956773
0.0958941
0.0961116
0.0963304
0.0965496
0.0967626
0.0969722
0.0971804
0.0973894
0.0976011
0.0978168
0.098038
0.0982665
0.0985044
0.0987538
0.0990171
0.099297
0.0995965
0.099919
0.100268
0.100648
0.101064
0.101521
0.102023
0.102579
0.103195
0.103879
0.104637
0.105486
0.106432
0.107489
0.108672
0.109997
0.111481
0.113146
0.115016
0.11712
0.11949
0.122164
0.125191
0.128624
0.132536
0.137006
0.142141
0.148088
0.15501
0.163131
0.172744
0.184269
0.198083
0.215262
0.236374
0.263026
0.297376
0.340013
0.396272
0.465784
0.553475
0.661268
0.785958
0.930149
1.07877
1.24857
1.37252
0.112575
0.112749
0.112929
0.113117
0.113311
0.113512
0.113718
0.113932
0.114153
0.114382
0.114618
0.114862
0.115115
0.115377
0.115649
0.115924
0.116205
0.116495
0.116797
0.117115
0.11745
0.117808
0.118193
0.118608
0.11906
0.119554
0.120096
0.120694
0.121355
0.122087
0.1229
0.123805
0.124814
0.125945
0.127211
0.12863
0.130221
0.132006
0.134011
0.136271
0.138823
0.141711
0.144987
0.148714
0.152977
0.157858
0.163501
0.170018
0.177652
0.186638
0.197287
0.21007
0.225523
0.244495
0.267715
0.297399
0.33375
0.380196
0.439014
0.510291
0.601741
0.709334
0.838793
0.989255
1.15407
1.33273
1.51468
1.64147
1.7199
0.137036
0.13719
0.137357
0.137536
0.137727
0.137929
0.138144
0.138373
0.138615
0.138871
0.139143
0.139432
0.139738
0.140063
0.140408
0.140774
0.141157
0.14155
0.14196
0.142391
0.142848
0.143336
0.143862
0.144432
0.145053
0.145733
0.146481
0.147305
0.148218
0.14923
0.150356
0.151611
0.153017
0.15459
0.156357
0.158343
0.160579
0.163102
0.165957
0.1692
0.172893
0.177113
0.181959
0.18754
0.194036
0.201566
0.210497
0.220949
0.233559
0.248667
0.266921
0.289447
0.316996
0.351379
0.393469
0.447286
0.510887
0.591107
0.688404
0.800901
0.941955
1.09706
1.28658
1.48897
1.6896
1.77955
1.81817
1.82569
1.85207
0.172293
0.172475
0.172675
0.172895
0.173133
0.17339
0.173665
0.173961
0.174278
0.174616
0.174978
0.175364
0.175775
0.176213
0.17668
0.177171
0.177683
0.178223
0.178795
0.179404
0.180058
0.180764
0.181528
0.18236
0.18327
0.184266
0.185363
0.186572
0.187911
0.189397
0.191052
0.192902
0.194977
0.197306
0.199932
0.202904
0.20628
0.210134
0.214552
0.219633
0.22551
0.232339
0.240337
0.24972
0.260923
0.274092
0.290302
0.309336
0.333128
0.361826
0.396675
0.44069
0.492741
0.557818
0.63447
0.729232
0.833696
0.965335
1.11501
1.28785
1.49512
1.73802
1.90111
1.97096
1.95386
1.92331
1.85621
1.81376
1.67295
0.228144
0.228444
0.228769
0.229121
0.229498
0.2299
0.230328
0.230785
0.231271
0.231788
0.232335
0.232902
0.233497
0.234124
0.234788
0.235494
0.236248
0.237055
0.237921
0.238853
0.239861
0.240953
0.242142
0.243438
0.244856
0.246411
0.248121
0.250009
0.252106
0.254447
0.257075
0.260039
0.263398
0.267223
0.271598
0.276627
0.282437
0.289184
0.297067
0.306322
0.317261
0.330247
0.345803
0.364403
0.387136
0.4141
0.448081
0.487553
0.537722
0.597047
0.666893
0.755273
0.849291
0.968823
1.09346
1.24549
1.40232
1.61848
1.85067
2.06468
2.18559
2.18168
2.15301
2.07665
1.90551
1.63528
1.34538
1.1536
1.06846
0.332707
0.333242
0.333803
0.334396
0.33502
0.335676
0.336366
0.337093
0.337858
0.338666
0.339518
0.340418
0.341369
0.342377
0.343447
0.344586
0.345803
0.347104
0.348503
0.350006
0.351634
0.353393
0.355309
0.357395
0.359672
0.362177
0.364951
0.368042
0.371594
0.375695
0.380449
0.38598
0.392436
0.399999
0.408887
0.419367
0.431769
0.446495
0.464061
0.485052
0.510289
0.540607
0.577233
0.621332
0.674567
0.73825
0.814626
0.904064
1.00814
1.12953
1.25836
1.41683
1.56169
1.74978
1.9092
2.15315
2.38225
2.47363
2.46523
2.4389
2.36943
2.20355
1.84548
1.30299
0.891204
0.775381
0.802604
0.801355
0.750996
0.57752
0.578559
0.579641
0.580773
0.581953
0.583186
0.584468
0.58581
0.58721
0.588677
0.590208
0.591814
0.593503
0.595286
0.597181
0.599184
0.601329
0.603594
0.606056
0.608651
0.611526
0.614551
0.617954
0.621579
0.62561
0.630326
0.635771
0.64267
0.651182
0.661579
0.674173
0.689335
0.707492
0.729168
0.75496
0.785612
0.821969
0.865033
0.916036
0.976102
1.04703
1.12979
1.2263
1.33821
1.46377
1.60996
1.76213
1.94167
2.11087
2.31092
2.48291
2.67757
2.82354
2.98751
3.057
2.99103
2.85631
2.68451
2.50512
2.1301
1.59533
1.20089
0.845956
0.636019
0.575022
0.585135
0.612665
0.62233
0.60838
1.48525
1.48713
1.48905
1.49114
1.49324
1.49553
1.49777
1.50019
1.50256
1.5051
1.50751
1.51002
1.5126
1.51539
1.51843
1.52146
1.5249
1.52808
1.53223
1.53554
1.54083
1.54426
1.55124
1.55504
1.56625
1.58509
1.612
1.64672
1.68956
1.74096
1.8013
1.8711
1.95081
2.04098
2.14205
2.25451
2.37866
2.51466
2.66255
2.82174
2.99178
3.17063
3.35676
3.54663
3.73555
3.92015
4.08779
4.24266
4.34958
4.44624
4.44571
4.38819
4.25067
3.99079
3.47258
2.82668
2.19154
1.67946
1.44195
1.37322
1.39464
1.46348
1.38218
1.07883
0.925821
0.893199
0.874673
0.867982
0.841542
8.67868
8.67175
8.66306
8.65954
8.64756
8.64416
8.63034
8.62014
8.6051
8.5973
8.5759
8.55612
8.53763
8.52025
8.50298
8.48549
8.46252
8.44622
8.42154
8.3948
8.37425
8.33992
8.31494
8.28596
8.25094
8.21527
8.17923
8.14211
8.10359
8.06342
8.02142
7.97739
7.93115
7.88243
7.83102
7.77655
7.71871
7.65703
7.5911
7.52035
7.44422
7.36215
7.27341
7.17768
7.07468
6.96437
6.84829
6.729
6.61401
6.51737
6.45087
6.40984
6.37474
6.33977
6.3046
6.26991
6.2354
6.202
6.17055
6.14071
6.11245
6.08568
6.06024
6.03579
6.01241
5.99053
5.96984
5.94929
5.93056
0.0291948
0.0292042
0.0291989
0.0291996
0.0291996
0.0292023
0.0291918
0.0291818
0.0291884
0.0291879
0.029186
0.0292031
0.0292201
0.0292314
0.0292355
0.0292267
0.0292555
0.0292684
0.0292749
0.0292691
0.0293027
0.0293312
0.0293273
0.0293341
0.0293365
0.0293326
0.0293648
0.0293893
0.0294198
0.0294204
0.0294305
0.0294601
0.0294906
0.0294871
0.0294944
0.0294897
0.0295043
0.0295065
0.0295014
0.0295201
0.0295053
0.0295098
0.0294982
0.0294969
0.0295122
0.0295011
0.0294827
0.0294668
0.0294611
0.0294434
0.0294115
0.0294127
0.0294115
0.0294083
0.0294268
0.0294321
0.0294362
0.0294265
0.0294345
0.0294928
0.0294905
0.0294812
0.0294739
0.0294647
0.0294546
0.0294443
0.0294393
0.0294396
0.0294364
0.0294339
0.0294464
0.0294539
0.0294573
0.0294572
0.0294689
0.0294861
0.0294924
0.0294967
0.029508
0.0295395
0.029555
0.0295508
0.029561
0.0295591
0.0295593
0.0295941
0.0296238
0.0296447
0.0296473
0.0296665
0.0296936
0.0297232
0.0297228
0.029738
0.029735
0.0297468
0.0297547
0.029752
0.0297706
0.029765
0.029771
0.029771
0.0297643
0.0297661
0.0297817
0.0297752
0.0297614
0.0297442
0.0297372
0.0297168
0.0297058
0.0297001
0.0297073
0.0297121
0.0297094
0.0297267
0.0297305
0.0297299
0.0298194
0.0298103
0.0297955
0.0297835
0.0297703
0.0297588
0.0297498
0.0297439
0.0297391
0.0297334
0.0297305
0.0297313
0.0297289
0.029732
0.0297362
0.0297504
0.0297592
0.0297621
0.0297747
0.0297978
0.0298192
0.0298254
0.0298244
0.0298335
0.0298296
0.0298362
0.0298718
0.0299041
0.029919
0.0299245
0.0299505
0.0299758
0.0300043
0.0300092
0.0300275
0.0300302
0.0300374
0.0300562
0.0300524
0.0300713
0.0300765
0.0300845
0.0300805
0.0300962
0.0300926
0.0301011
0.0301202
0.0301222
0.0301181
0.0301081
0.0300803
0.0300722
0.0300712
0.0300738
0.0300755
0.0300793
0.0300839
0.0300916
0.0300976
0.0301905
0.0301791
0.0301623
0.0301491
0.0301355
0.030124
0.0301139
0.030105
0.0300966
0.0300887
0.0300826
0.0300774
0.0300733
0.0300724
0.0300749
0.0300786
0.030083
0.0300959
0.0301127
0.030133
0.0301489
0.0301499
0.0301521
0.0301581
0.0301547
0.0301674
0.0302036
0.0302368
0.0302487
0.0302573
0.0302878
0.0303125
0.0303412
0.0303515
0.0303726
0.0303814
0.0303898
0.0304039
0.0304099
0.0304209
0.0304357
0.0304612
0.0304592
0.0304617
0.0304645
0.030476
0.0304964
0.0305077
0.0305177
0.0305392
0.0305385
0.0305278
0.0304987
0.0305021
0.0304878
0.0304974
0.0305036
0.030507
0.0305035
0.0306265
0.0306143
0.0305964
0.0305819
0.0305667
0.0305528
0.0305391
0.030526
0.0305132
0.0305012
0.0304902
0.0304805
0.0304739
0.0304712
0.0304713
0.030472
0.0304792
0.0304904
0.0305087
0.0305266
0.0305377
0.0305386
0.0305405
0.0305439
0.0305424
0.0305614
0.0305976
0.030631
0.0306421
0.0306538
0.0306877
0.0307132
0.0307428
0.0307583
0.0307824
0.0307978
0.0308085
0.0308288
0.0308333
0.0308568
0.0308618
0.0308891
0.0308939
0.0309253
0.030919
0.0309228
0.0309401
0.0309583
0.0309764
0.0309986
0.0310116
0.0310318
0.0310358
0.0310362
0.0310478
0.0310521
0.0310557
0.0310568
0.0310466
0.0311384
0.0311243
0.0311038
0.0310863
0.0310675
0.0310494
0.0310313
0.0310137
0.0309968
0.030981
0.0309672
0.0309562
0.0309496
0.0309467
0.030946
0.0309469
0.0309493
0.0309604
0.0309778
0.0309925
0.0309993
0.0310006
0.0310012
0.0310029
0.0310052
0.0310298
0.0310657
0.0310991
0.031111
0.0311262
0.0311629
0.0311904
0.0312215
0.031242
0.0312694
0.0312916
0.0313067
0.0313307
0.0313397
0.0313628
0.031385
0.0314023
0.0314108
0.0314347
0.0314734
0.031472
0.0314812
0.0314985
0.0315182
0.031542
0.0315626
0.0315897
0.031612
0.0316242
0.0316467
0.0316603
0.0316745
0.0316775
0.0317009
0.0317344
0.0317174
0.0316932
0.0316719
0.0316492
0.0316272
0.0316054
0.0315847
0.0315653
0.0315481
0.0315337
0.0315229
0.031516
0.0315119
0.0315095
0.0315087
0.0315079
0.0315172
0.031531
0.0315422
0.0315465
0.0315478
0.0315492
0.0315514
0.0315579
0.0315863
0.0316222
0.0316561
0.0316701
0.031689
0.0317285
0.031759
0.031792
0.0318177
0.0318489
0.0318777
0.0318995
0.031927
0.0319432
0.031966
0.0319936
0.0320265
0.0320404
0.0320538
0.0320933
0.0321132
0.0321268
0.0321444
0.0321648
0.0321887
0.0322136
0.0322422
0.0322723
0.0322946
0.0323141
0.0323394
0.0323543
0.0324071
0.0324266
0.0324308
0.0324109
0.0323832
0.0323586
0.0323328
0.0323081
0.0322841
0.0322617
0.0322413
0.0322236
0.0322089
0.0321975
0.0321891
0.032183
0.0321789
0.0321773
0.0321781
0.0321827
0.0321903
0.0321962
0.0322001
0.0322018
0.0322021
0.032206
0.0322178
0.0322481
0.0322849
0.0323197
0.0323369
0.0323599
0.0324023
0.0324367
0.0324726
0.0325037
0.0325393
0.0325747
0.0326043
0.032637
0.0326614
0.0326878
0.032717
0.0327574
0.0327877
0.0328028
0.0328386
0.032871
0.0328949
0.0329171
0.032939
0.0329635
0.0329891
0.033018
0.0330493
0.0330778
0.0331061
0.0331322
0.0331582
0.0331881
0.0332214
0.0332537
0.0332315
0.0332009
0.0331738
0.0331458
0.0331191
0.0330936
0.03307
0.0330486
0.0330299
0.033014
0.033001
0.0329907
0.0329831
0.0329781
0.0329762
0.0329767
0.0329782
0.0329774
0.0329846
0.0329825
0.0329804
0.032982
0.0329882
0.033005
0.0330375
0.0330757
0.0331116
0.0331328
0.0331607
0.0332063
0.0332456
0.0332853
0.0333222
0.033363
0.0334052
0.0334436
0.0334832
0.033517
0.03355
0.0335839
0.0336256
0.0336697
0.0336971
0.0337329
0.0337722
0.033807
0.0338386
0.0338666
0.0338949
0.0339226
0.0339519
0.033983
0.0340137
0.0340459
0.0340769
0.0341085
0.0341381
0.0341747
0.0342359
0.0342119
0.0341789
0.0341495
0.0341195
0.0340909
0.0340636
0.0340383
0.0340152
0.0339947
0.0339769
0.0339619
0.0339499
0.0339408
0.0339347
0.0339312
0.0339291
0.0339267
0.0339232
0.0339207
0.0339146
0.0339118
0.0339147
0.0339248
0.0339465
0.0339814
0.0340215
0.0340591
0.0340852
0.0341184
0.034168
0.0342132
0.0342579
0.0343013
0.0343483
0.0343979
0.0344455
0.0344938
0.0345381
0.0345802
0.0346225
0.0346671
0.0347195
0.0347618
0.0348039
0.0348488
0.0348927
0.0349347
0.0349728
0.0350093
0.0350434
0.0350768
0.0351102
0.0351432
0.035177
0.0352106
0.0352452
0.0352752
0.0353175
0.0354167
0.035391
0.0353555
0.0353237
0.0352912
0.0352601
0.0352304
0.0352025
0.0351769
0.0351538
0.0351334
0.0351159
0.0351014
0.0350897
0.0350806
0.035073
0.0350657
0.0350575
0.0350484
0.0350398
0.0350318
0.0350302
0.035035
0.0350496
0.035076
0.0351139
0.0351562
0.0351962
0.0352281
0.0352675
0.0353221
0.0353742
0.0354254
0.0354761
0.0355305
0.0355884
0.0356462
0.0357046
0.0357606
0.0358139
0.0358672
0.0359195
0.0359786
0.0360345
0.0360877
0.0361408
0.0361935
0.0362453
0.0362946
0.0363415
0.0363856
0.0364274
0.0364673
0.0365057
0.0365434
0.03658
0.0366178
0.0366499
0.0366959
0.0368444
0.0368167
0.0367784
0.0367433
0.0367076
0.0366731
0.0366399
0.0366084
0.0365791
0.0365523
0.036528
0.0365064
0.0364875
0.0364709
0.0364561
0.036442
0.0364278
0.0364131
0.0363988
0.0363866
0.0363786
0.0363793
0.0363869
0.0364059
0.0364368
0.0364778
0.0365231
0.0365664
0.0366049
0.0366516
0.0367124
0.0367726
0.0368319
0.0368915
0.0369547
0.0370221
0.0370911
0.0371614
0.0372306
0.0372972
0.0373637
0.0374281
0.0374962
0.0375647
0.0376313
0.0376964
0.0377602
0.037823
0.037884
0.0379427
0.0379987
0.0380517
0.0381019
0.0381495
0.038195
0.0382382
0.0382819
0.0383188
0.0383714
0.0385807
0.0385503
0.0385083
0.038469
0.0384289
0.0383895
0.0383512
0.0383145
0.0382796
0.0382469
0.0382165
0.0381884
0.0381625
0.0381384
0.0381155
0.0380934
0.0380717
0.0380508
0.0380324
0.0380183
0.0380114
0.0380157
0.0380254
0.0380489
0.0380842
0.0381288
0.0381775
0.0382251
0.0382714
0.0383265
0.038395
0.038465
0.0385343
0.0386045
0.0386786
0.0387573
0.0388391
0.0389231
0.0390073
0.0390899
0.039172
0.0392523
0.0393336
0.0394158
0.0394975
0.0395777
0.0396561
0.0397328
0.0398076
0.0398801
0.03995
0.0400168
0.0400803
0.0401405
0.0401979
0.040252
0.0403056
0.0403514
0.0404148
0.040708
0.0406736
0.0406266
0.0405813
0.0405348
0.0404884
0.0404426
0.0403979
0.0403547
0.0403133
0.0402738
0.0402362
0.0402005
0.0401665
0.0401339
0.0401028
0.0400734
0.0400469
0.040025
0.04001
0.0400048
0.0400087
0.0400234
0.0400513
0.0400908
0.0401391
0.040192
0.0402452
0.0403005
0.0403655
0.0404436
0.0405254
0.040607
0.0406903
0.0407777
0.0408703
0.0409671
0.0410672
0.041169
0.0412704
0.0413715
0.0414713
0.0415707
0.0416704
0.0417698
0.0418681
0.0419647
0.0420593
0.0421516
0.0422414
0.0423284
0.0424122
0.0424925
0.0425693
0.0426427
0.0427124
0.0427807
0.0428408
0.0429199
0.0433465
0.0433053
0.0432507
0.0431963
0.04314
0.043083
0.0430258
0.0429691
0.0429135
0.0428592
0.0428065
0.0427557
0.0427068
0.0426601
0.0426157
0.0425741
0.0425362
0.0425034
0.0424775
0.0424609
0.042456
0.0424604
0.042478
0.0425095
0.0425528
0.0426051
0.0426629
0.0427229
0.0427887
0.0428653
0.0429555
0.0430515
0.0431486
0.0432481
0.0433523
0.0434622
0.0435775
0.0436972
0.04382
0.043944
0.0440684
0.0441923
0.0443155
0.0444383
0.0445607
0.044682
0.0448017
0.0449192
0.0450343
0.0451467
0.045256
0.0453619
0.0454643
0.0455629
0.0456579
0.0457492
0.0458384
0.0459197
0.0460211
0.0466956
0.0466407
0.0465725
0.0465023
0.0464291
0.0463537
0.0462774
0.046201
0.046125
0.0460503
0.0459774
0.0459066
0.0458386
0.0457738
0.045713
0.0456569
0.0456069
0.0455645
0.0455316
0.0455103
0.0455028
0.0455059
0.0455246
0.0455579
0.0456038
0.0456596
0.0457228
0.045791
0.0458689
0.0459594
0.0460645
0.0461779
0.0462949
0.0464152
0.046541
0.0466734
0.0468122
0.0469569
0.0471062
0.0472584
0.0474123
0.0475668
0.0477213
0.0478754
0.0480288
0.0481812
0.048332
0.0484807
0.0486268
0.0487701
0.0489102
0.0490468
0.0491797
0.0493089
0.0494345
0.0495565
0.0496761
0.0497888
0.0499224
0.0511216
0.051038
0.0509428
0.0508417
0.050735
0.0506241
0.0505106
0.0503959
0.0502812
0.0501677
0.0500567
0.049949
0.0498459
0.0497483
0.0496575
0.0495747
0.0495014
0.0494393
0.0493903
0.0493564
0.049339
0.0493391
0.0493522
0.0493829
0.0494286
0.0494867
0.0495552
0.0496324
0.0497244
0.0498318
0.049956
0.0500914
0.0502349
0.0503827
0.0505375
0.0507003
0.0508712
0.0510498
0.051235
0.0514253
0.0516192
0.0518155
0.0520132
0.0522114
0.0524094
0.0526066
0.0528026
0.0529965
0.0531879
0.0533764
0.0535615
0.0537431
0.0539209
0.0540949
0.0542654
0.0544326
0.054597
0.0547561
0.0549343
0.0573253
0.057159
0.0569937
0.0568333
0.0566654
0.0564881
0.0563041
0.0561159
0.0559262
0.0557378
0.0555523
0.055371
0.0551961
0.0550298
0.054874
0.0547309
0.0546027
0.0544914
0.0543991
0.0543276
0.0542784
0.0542525
0.0542503
0.054268
0.0543031
0.0543559
0.0544253
0.0545101
0.0546171
0.0547448
0.0548941
0.0550598