/*--------------------------------*- C++ -*----------------------------------*\
| =========                 |                                                 |
| \\      /  F ield         | OpenFOAM: The Open Source CFD Toolbox           |
|  \\    /   O peration     | Version:  2312                                  |
|   \\  /    A nd           | Website:  www.openfoam.com                      |
|    \\/     M anipulation  |                                                 |
\*---------------------------------------------------------------------------*/
FoamFile
{
    version     2.0;
    format      ascii;
    arch        "LSB;label=32;scalar=64";
    class       volScalarField;
    location    "600";
    object      p;
}
// * * * * * * * * * * * * * * * * * * * * * * * * * * * * * * * * * * * * * //

dimensions      [0 2 -2 0 0 0 0];

internalField   nonuniform List<scalar> 
76025
(
9.5836e-06
-2.37017e-07
-1.01714e-05
-2.01848e-05
-3.01406e-05
-4.01506e-05
-5.06124e-05
-6.0766e-05
-7.11348e-05
-8.13348e-05
-9.15895e-05
-0.0001019
-0.000112265
-0.000122568
-0.000132914
-0.000143349
-0.000153469
-0.000163781
-0.000173927
-0.000184045
-0.000193944
-0.000203918
-0.00021366
-0.000223174
-0.000232653
-0.000241912
-0.000251086
-0.000260196
-0.000268827
-0.000277553
-0.000285583
-0.000293574
-0.000301383
-0.000309015
-0.000316168
-0.000322992
-0.000329248
-0.000335735
-0.000341788
-0.000347321
-0.00035222
-0.000356809
-0.000361522
-0.00036551
-0.000368883
-0.00037165
-0.000374237
-0.000376318
-0.000377404
-0.000378024
-0.000378215
-0.000377614
-0.000376428
-0.00037465
-0.00037205
-0.000367919
-0.000363764
-0.000358168
-0.000351815
-0.000344533
-0.000335591
-0.000325753
-0.000314516
-0.000302104
-0.00028777
-0.000270786
-0.000253573
-0.000235628
-0.000212867
6.88489e-06
-3.37638e-06
-1.37043e-05
-2.41572e-05
-3.46965e-05
-4.53257e-05
-5.59888e-05
-6.66798e-05
-7.74214e-05
-8.81894e-05
-9.89949e-05
-0.000109817
-0.000120631
-0.000131444
-0.000142202
-0.000152917
-0.000163615
-0.000174236
-0.000184833
-0.000195287
-0.000205677
-0.000215923
-0.000226027
-0.000235956
-0.000245767
-0.000255442
-0.000264932
-0.000274146
-0.000283121
-0.00029191
-0.000300427
-0.000308834
-0.000316926
-0.000324652
-0.000332074
-0.000339131
-0.000345897
-0.000352398
-0.000358524
-0.000364285
-0.000369561
-0.00037448
-0.000379033
-0.000383048
-0.000386592
-0.000389644
-0.000392256
-0.000394281
-0.000395693
-0.000396592
-0.000396936
-0.000396591
-0.000395591
-0.000393903
-0.00039139
-0.000387956
-0.000383842
-0.000378679
-0.000372526
-0.000365344
-0.000357016
-0.000347584
-0.000336686
-0.0003244
-0.000310487
-0.000294837
-0.00027788
-0.000259392
-0.000238315
3.77525e-06
-6.95232e-06
-1.77739e-05
-2.87424e-05
-3.98061e-05
-5.09035e-05
-6.20454e-05
-7.32442e-05
-8.44901e-05
-9.57763e-05
-0.000107078
-0.000118375
-0.000129662
-0.000140926
-0.000152143
-0.000163331
-0.000174467
-0.000185537
-0.000196525
-0.000207415
-0.000218189
-0.000228825
-0.000239319
-0.000249655
-0.000259831
-0.000269833
-0.00027961
-0.000289156
-0.000298479
-0.000307572
-0.000316441
-0.000325054
-0.000333348
-0.000341318
-0.000348972
-0.000356291
-0.000363279
-0.000369931
-0.00037624
-0.00038217
-0.000387671
-0.000392754
-0.000397424
-0.000401651
-0.000405406
-0.000408665
-0.000411425
-0.000413659
-0.000415332
-0.000416434
-0.00041695
-0.000416827
-0.000416044
-0.000414567
-0.000412327
-0.000409253
-0.000405366
-0.000400566
-0.000394796
-0.000388017
-0.000380139
-0.000371094
-0.00036072
-0.000348971
-0.000335736
-0.000320929
-0.000304651
-0.000286892
-0.000266759
2.80173e-07
-1.09646e-05
-2.23147e-05
-3.38135e-05
-4.53953e-05
-5.70223e-05
-6.86977e-05
-8.04225e-05
-9.21851e-05
-0.000103972
-0.00011577
-0.000127564
-0.000139346
-0.000151101
-0.000162817
-0.000174484
-0.000186086
-0.000197611
-0.000209041
-0.000220363
-0.000231557
-0.00024261
-0.000253507
-0.000264233
-0.000274777
-0.000285122
-0.00029525
-0.000305149
-0.000314806
-0.000324211
-0.000333352
-0.000342208
-0.000350759
-0.000358992
-0.000366895
-0.000374456
-0.000381671
-0.000388536
-0.000395042
-0.00040116
-0.000406864
-0.000412147
-0.000417005
-0.000421419
-0.000425359
-0.000428812
-0.000431765
-0.000434201
-0.000436089
-0.000437411
-0.000438152
-0.000438277
-0.000437753
-0.000436545
-0.000434605
-0.00043188
-0.000428344
-0.00042394
-0.000418603
-0.000412278
-0.000404892
-0.000396361
-0.000386585
-0.000375497
-0.000363027
-0.000349135
-0.000333834
-0.000317186
-0.000298515
-3.6876e-06
-1.54799e-05
-2.73807e-05
-3.9436e-05
-5.15751e-05
-6.37612e-05
-7.59916e-05
-8.8265e-05
-0.000100571
-0.000112897
-0.000125229
-0.000137555
-0.000149862
-0.000162137
-0.000174364
-0.00018653
-0.000198621
-0.000210621
-0.000222517
-0.000234291
-0.000245927
-0.000257411
-0.000268724
-0.000279852
-0.000290783
-0.0003015
-0.000311989
-0.000322234
-0.00033222
-0.000341936
-0.000351369
-0.000360505
-0.000369329
-0.000377824
-0.000385977
-0.000393777
-0.00040122
-0.000408302
-0.000415008
-0.000421321
-0.000427225
-0.000432707
-0.000437757
-0.000442361
-0.000446499
-0.000450158
-0.000453322
-0.000455974
-0.000458093
-0.00045966
-0.000460654
-0.000461049
-0.000460813
-0.000459914
-0.000458313
-0.000455966
-0.000452834
-0.000448868
-0.000444009
-0.000438199
-0.00043137
-0.00042345
-0.000414366
-0.000404063
-0.000392491
-0.000379641
-0.000365497
-0.000350158
-0.000332919
-8.19199e-06
-2.05677e-05
-3.30533e-05
-4.56998e-05
-5.84308e-05
-7.12055e-05
-8.40211e-05
-9.68764e-05
-0.000109761
-0.000122661
-0.000135561
-0.000148447
-0.000161306
-0.000174123
-0.000186885
-0.000199575
-0.000212177
-0.000224677
-0.000237059
-0.000249305
-0.000261402
-0.000273332
-0.000285079
-0.000296625
-0.000307958
-0.000319061
-0.000329918
-0.000340513
-0.000350834
-0.000360867
-0.000370601
-0.000380023
-0.00038912
-0.000397876
-0.000406278
-0.000414316
-0.000421989
-0.000429288
-0.000436201
-0.000442717
-0.000448822
-0.000454503
-0.000459752
-0.000464555
-0.0004689
-0.000472771
-0.000476156
-0.000479038
-0.000481401
-0.000483228
-0.000484498
-0.000485188
-0.000485271
-0.000484718
-0.000483494
-0.000481559
-0.000478875
-0.000475395
-0.000471066
-0.000465833
-0.00045964
-0.000452427
-0.000444144
-0.00043475
-0.000424214
-0.000412552
-0.000399729
-0.000385914
-0.000370373
-1.33091e-05
-2.63016e-05
-3.94061e-05
-5.26776e-05
-6.60331e-05
-7.94287e-05
-9.28618e-05
-0.000106332
-0.000119827
-0.000133332
-0.000146829
-0.000160304
-0.000173743
-0.00018713
-0.00020045
-0.000213688
-0.000226826
-0.000239849
-0.00025274
-0.00026548
-0.000278054
-0.000290444
-0.000302636
-0.000314613
-0.000326359
-0.000337857
-0.000349092
-0.000360049
-0.000370715
-0.000381076
-0.00039112
-0.000400835
-0.000410208
-0.000419225
-0.000427875
-0.000436151
-0.000444051
-0.00045157
-0.000458696
-0.000465419
-0.000471727
-0.000477611
-0.000483062
-0.00048807
-0.000492625
-0.000496714
-0.000500328
-0.000503452
-0.000506074
-0.000508177
-0.000509743
-0.000510754
-0.000511185
-0.000511009
-0.000510196
-0.000508711
-0.000506515
-0.000503568
-0.000499825
-0.000495236
-0.000489761
-0.000483353
-0.000475985
-0.000467627
-0.000458273
-0.000447946
-0.000436603
-0.000424463
-0.000410589
-1.9141e-05
-3.27877e-05
-4.65473e-05
-6.0479e-05
-7.4494e-05
-8.85452e-05
-0.000102629
-0.000116745
-0.00013088
-0.00014502
-0.000159146
-0.000173241
-0.000187289
-0.000201274
-0.00021518
-0.000228989
-0.000242687
-0.000256255
-0.000269675
-0.000282929
-0.000296
-0.000308869
-0.00032152
-0.000333937
-0.000346104
-0.000358003
-0.000369622
-0.000380947
-0.000391962
-0.000402656
-0.000413014
-0.000423024
-0.000432672
-0.000441947
-0.00045084
-0.00045935
-0.000467478
-0.000475218
-0.000482559
-0.000489491
-0.000496005
-0.000502093
-0.000507749
-0.000512966
-0.000517736
-0.000522051
-0.000525901
-0.000529278
-0.00053217
-0.000534565
-0.000536447
-0.000537799
-0.000538603
-0.000538833
-0.000538462
-0.000537461
-0.000535795
-0.00053343
-0.000530329
-0.000526457
-0.000521786
-0.000516284
-0.000509946
-0.000502753
-0.000494728
-0.00048589
-0.000476225
-0.000465949
-0.000453983
-2.57937e-05
-4.01357e-05
-5.45902e-05
-6.92219e-05
-8.39361e-05
-9.8682e-05
-0.000113456
-0.000128255
-0.00014307
-0.000157879
-0.000172666
-0.000187411
-0.000202098
-0.000216709
-0.000231227
-0.000245635
-0.000259914
-0.000274048
-0.000288017
-0.000301804
-0.00031539
-0.000328758
-0.000341889
-0.000354765
-0.000367371
-0.000379687
-0.000391702
-0.000403399
-0.000414765
-0.00042579
-0.000436457
-0.000446756
-0.000456675
-0.0004662
-0.000475328
-0.000484063
-0.000492408
-0.000500358
-0.000507905
-0.000515039
-0.000521754
-0.000528043
-0.000533902
-0.000539326
-0.000544312
-0.000548853
-0.000552945
-0.00055658
-0.000559752
-0.000562449
-0.000564661
-0.000566374
-0.00056757
-0.00056823
-0.00056833
-0.000567846
-0.00056675
-0.000565016
-0.000562619
-0.000559537
-0.000555755
-0.000551258
-0.000546062
-0.000540156
-0.000533602
-0.000526409
-0.000518656
-0.000510562
-0.000501413
-3.33704e-05
-4.8451e-05
-6.36432e-05
-7.90185e-05
-9.44753e-05
-0.00010996
-0.000125468
-0.000140996
-0.000156531
-0.000172051
-0.000187535
-0.000202966
-0.000218325
-0.000233595
-0.000248756
-0.000263789
-0.000278677
-0.000293399
-0.000307937
-0.000322272
-0.000336386
-0.000350261
-0.00036388
-0.000377225
-0.000390277
-0.00040302
-0.000415438
-0.000427517
-0.000439241
-0.0004506
-0.000461577
-0.000472163
-0.000482351
-0.000492129
-0.000501496
-0.00051046
-0.000519017
-0.000527165
-0.000534899
-0.000542214
-0.000549108
-0.000555578
-0.000561624
-0.000567243
-0.000572434
-0.000577196
-0.000581526
-0.000585421
-0.000588875
-0.000591883
-0.000594435
-0.00059652
-0.000598125
-0.000599234
-0.000599829
-0.000599894
-0.000599408
-0.000598356
-0.000596724
-0.000594502
-0.000591691
-0.000588292
-0.000584337
-0.000579829
-0.000574865
-0.000569451
-0.000563771
-0.000557958
-0.00055171
-4.20108e-05
-5.7877e-05
-7.38524e-05
-9.00153e-05
-0.000106258
-0.000122523
-0.000138806
-0.000155103
-0.000171398
-0.000187668
-0.000203892
-0.000220048
-0.000236118
-0.000252082
-0.00026792
-0.000283611
-0.000299134
-0.000314471
-0.0003296
-0.000344502
-0.000359158
-0.000373549
-0.000387657
-0.000401468
-0.000414962
-0.000428125
-0.000440939
-0.00045339
-0.000465465
-0.00047715
-0.000488434
-0.000499309
-0.000509765
-0.000519801
-0.000529412
-0.000538599
-0.00054736
-0.000555693
-0.000563598
-0.000571077
-0.000578132
-0.000584767
-0.000590982
-0.000596782
-0.000602168
-0.000607142
-0.000611704
-0.000615854
-0.00061959
-0.000622908
-0.000625803
-0.000628267
-0.000630292
-0.000631866
-0.00063298
-0.000633623
-0.000633786
-0.000633463
-0.000632652
-0.000631356
-0.00062959
-0.000627369
-0.000624742
-0.000621732
-0.000618457
-0.000614944
-0.000611421
-0.000608003
-0.000604558
-5.18902e-05
-6.85924e-05
-8.53996e-05
-0.000102398
-0.000119473
-0.000136564
-0.000153665
-0.000170771
-0.000187865
-0.000204923
-0.000221921
-0.000238838
-0.000255654
-0.000272345
-0.000288891
-0.000305269
-0.000321457
-0.000337434
-0.000353179
-0.000368671
-0.00038389
-0.000398817
-0.000413432
-0.000427719
-0.000441661
-0.000455243
-0.000468447
-0.000481261
-0.000493674
-0.000505671
-0.000517247
-0.000528392
-0.000539096
-0.000549357
-0.000559173
-0.000568546
-0.00057748
-0.000585979
-0.000594043
-0.000601675
-0.00060888
-0.000615666
-0.000622039
-0.000628007
-0.000633575
-0.000638749
-0.000643532
-0.000647927
-0.000651936
-0.000655558
-0.000658792
-0.000661636
-0.000664085
-0.000666137
-0.000667788
-0.000669037
-0.000669883
-0.000670331
-0.00067039
-0.000670076
-0.000669416
-0.000668441
-0.000667215
-0.000665788
-0.000664291
-0.00066281
-0.000661552
-0.000660713
-0.000659794
-6.3205e-05
-8.07986e-05
-9.84925e-05
-0.000116382
-0.000134343
-0.000152311
-0.000170278
-0.000188239
-0.000206175
-0.000224061
-0.000241874
-0.000259589
-0.000277183
-0.000294634
-0.000311919
-0.000329012
-0.000345892
-0.000362536
-0.000378921
-0.000395024
-0.000410826
-0.000426306
-0.000441443
-0.000456222
-0.000470623
-0.000484631
-0.000498231
-0.000511407
-0.00052415
-0.000536448
-0.000548293
-0.000559679
-0.000570598
-0.000581047
-0.000591031
-0.000600557
-0.000609629
-0.000618252
-0.00062643
-0.000634174
-0.000641493
-0.000648398
-0.0006549
-0.000661009
-0.000666733
-0.000672081
-0.000677062
-0.00068168
-0.000685942
-0.000689852
-0.000693413
-0.000696629
-0.000699504
-0.000702039
-0.000704241
-0.000706115
-0.000707672
-0.000708925
-0.000709894
-0.000710605
-0.000711099
-0.000711422
-0.000711654
-0.000711877
-0.00071223
-0.000712884
-0.00071403
-0.000716082
-0.000718767
-7.61922e-05
-9.47358e-05
-0.000113373
-0.000132211
-0.000151114
-0.000170014
-0.0001889
-0.000207768
-0.000226596
-0.000245359
-0.00026403
-0.000282585
-0.000300998
-0.000319246
-0.000337303
-0.000355144
-0.000372744
-0.000390079
-0.000407125
-0.000423859
-0.000440258
-0.000456303
-0.000471971
-0.000487245
-0.000502106
-0.000516538
-0.000530525
-0.000544054
-0.000557112
-0.000569691
-0.000581782
-0.00059338
-0.000604482
-0.000615088
-0.000625207
-0.000634846
-0.000644012
-0.00065271
-0.000660954
-0.000668759
-0.00067614
-0.000683113
-0.000689692
-0.000695891
-0.000701723
-0.0007072
-0.000712334
-0.000717137
-0.000721618
-0.000725788
-0.000729655
-0.00073323
-0.000736521
-0.00073954
-0.000742298
-0.00074481
-0.000747096
-0.000749178
-0.000751084
-0.000752853
-0.000754535
-0.000756194
-0.000757919
-0.000759828
-0.000762067
-0.00076489
-0.000768491
-0.000773499
-0.000779417
-9.11514e-05
-0.000110708
-0.000130349
-0.000150193
-0.000170097
-0.000189985
-0.000209847
-0.000229674
-0.000249446
-0.000269135
-0.000288712
-0.000308152
-0.000327427
-0.000346512
-0.000365378
-0.000384
-0.00040235
-0.000420402
-0.00043813
-0.000455512
-0.000472522
-0.000489138
-0.000505339
-0.000521105
-0.000536418
-0.00055126
-0.000565616
-0.000579472
-0.000592816
-0.000605641
-0.000617939
-0.000629707
-0.000640943
-0.000651653
-0.00066185
-0.000671544
-0.000680745
-0.000689465
-0.000697719
-0.000705526
-0.000712906
-0.000719881
-0.000726469
-0.000732691
-0.000738565
-0.000744111
-0.000749344
-0.000754282
-0.00075894
-0.000763333
-0.000767477
-0.000771387
-0.00077508
-0.000778572
-0.000781885
-0.00078504
-0.000788064
-0.000790989
-0.000793852
-0.000796702
-0.000799595
-0.000802613
-0.000805846
-0.000809444
-0.000813563
-0.000818491
-0.000824405
-0.000831901
-0.000840776
-0.000108466
-0.000129103
-0.000149812
-0.000170726
-0.000191692
-0.000212628
-0.000233522
-0.000254366
-0.000275135
-0.0002958
-0.000316332
-0.000336701
-0.000356881
-0.000376842
-0.000396555
-0.00041599
-0.000435119
-0.000453914
-0.000472347
-0.000490391
-0.000508021
-0.000525214
-0.000541946
-0.000558196
-0.000573944
-0.000589173
-0.000603867
-0.000618013
-0.000631599
-0.000644619
-0.000657066
-0.000668939
-0.000680239
-0.000690979
-0.000701173
-0.000710837
-0.000719985
-0.000728635
-0.000736808
-0.000744527
-0.000751818
-0.000758707
-0.000765222
-0.000771388
-0.000777231
-0.000782775
-0.000788044
-0.000793059
-0.000797843
-0.000802416
-0.0008068
-0.000811016
-0.000815087
-0.000819037
-0.000822894
-0.000826688
-0.000830453
-0.000834229
-0.000838061
-0.000842006
-0.000846126
-0.000850516
-0.000855264
-0.000860545
-0.000866485
-0.000873312
-0.000881124
-0.000890437
-0.000900835
-0.000128643
-0.000150433
-0.000172278
-0.000194329
-0.000216422
-0.000238469
-0.000260457
-0.000282374
-0.000304196
-0.00032589
-0.000347425
-0.000368771
-0.000389896
-0.00041077
-0.000431362
-0.000451639
-0.000471571
-0.000491126
-0.000510276
-0.00052899
-0.000547241
-0.000565002
-0.00058225
-0.000598961
-0.000615114
-0.00063069
-0.000645674
-0.000660051
-0.000673813
-0.000686952
-0.000699464
-0.000711351
-0.000722618
-0.000733284
-0.000743368
-0.00075289
-0.00076187
-0.000770332
-0.000778304
-0.000785817
-0.000792904
-0.000799599
-0.000805935
-0.000811946
-0.000817666
-0.000823124
-0.000828352
-0.000833377
-0.000838227
-0.000842929
-0.000847508
-0.000851993
-0.000856413
-0.000860798
-0.000865183
-0.000869606
-0.000874109
-0.000878737
-0.000883546
-0.0008886
-0.000893968
-0.000899753
-0.000906032
-0.000912955
-0.000920568
-0.000929081
-0.000938598
-0.000949868
-0.000962488
-0.000152411
-0.000175431
-0.000198479
-0.00022173
-0.000245012
-0.00026823
-0.000291367
-0.00031441
-0.000337332
-0.0003601
-0.000382678
-0.000405035
-0.000427136
-0.000448948
-0.000470437
-0.000491569
-0.000512309
-0.000532625
-0.000552482
-0.000571851
-0.000590699
-0.000608998
-0.000626722
-0.000643845
-0.000660344
-0.000676201
-0.000691398
-0.000705922
-0.000719764
-0.000732918
-0.000745384
-0.000757164
-0.000768272
-0.000778734
-0.000788572
-0.00079781
-0.000806476
-0.000814604
-0.000822229
-0.000829393
-0.000836137
-0.000842504
-0.000848536
-0.000854276
-0.000859765
-0.000865042
-0.000870143
-0.000875102
-0.000879951
-0.000884724
-0.00088945
-0.000894163
-0.000898896
-0.000903688
-0.000908579
-0.000913616
-0.000918847
-0.000924329
-0.000930128
-0.000936318
-0.000942976
-0.00095018
-0.000957964
-0.000966453
-0.00097568
-0.00098593
-0.000997343
-0.0010106
-0.00102524
-0.00018076
-0.000205058
-0.000229346
-0.000253835
-0.00027834
-0.000302759
-0.000327074
-0.000351267
-0.000375311
-0.000399168
-0.000422801
-0.000446176
-0.000469254
-0.000492001
-0.000514379
-0.00053635
-0.000557876
-0.000578923
-0.000599453
-0.000619431
-0.000638825
-0.000657603
-0.000675735
-0.000693194
-0.000709956
-0.000726
-0.000741308
-0.000755866
-0.000769668
-0.000782707
-0.000794987
-0.000806515
-0.000817314
-0.000827413
-0.000836838
-0.000845623
-0.000853805
-0.000861427
-0.000868537
-0.000875186
-0.000881427
-0.000887315
-0.000892902
-0.000898242
-0.000903384
-0.000908374
-0.000913255
-0.000918067
-0.000922846
-0.000927628
-0.000932448
-0.000937342
-0.000942349
-0.000947513
-0.000952882
-0.000958511
-0.000964462
-0.00097081
-0.000977632
-0.000984992
-0.000992948
-0.00100156
-0.00101089
-0.00102109
-0.00103224
-0.00104461
-0.00105828
-0.00107352
-0.00108996
-0.000214406
-0.000239967
-0.000265481
-0.000291195
-0.000316915
-0.000342531
-0.000368016
-0.000393351
-0.000418505
-0.000443438
-0.00046811
-0.000492483
-0.000516517
-0.000540173
-0.000563408
-0.000586183
-0.000608457
-0.000630189
-0.000651341
-0.000671873
-0.000691749
-0.000710934
-0.000729397
-0.000747107
-0.000764037
-0.000780165
-0.000795472
-0.000809944
-0.000823574
-0.000836359
-0.000848304
-0.000859425
-0.000869751
-0.000879312
-0.000888145
-0.000896292
-0.000903801
-0.000910728
-0.000917135
-0.000923087
-0.00092865
-0.000933891
-0.000938879
-0.000943676
-0.000948344
-0.000952935
-0.0009575
-0.000962082
-0.00096672
-0.000971451
-0.00097631
-0.000981334
-0.000986569
-0.000992064
-0.00099788
-0.00100409
-0.00101076
-0.00101797
-0.00102581
-0.00103434
-0.00104366
-0.00105389
-0.00106513
-0.00107748
-0.00109097
-0.00110559
-0.00112118
-0.00113752
-0.0011544
-0.000252839
-0.000279643
-0.000306357
-0.00033327
-0.000360184
-0.000386978
-0.000413621
-0.000440088
-0.000466345
-0.00049235
-0.00051806
-0.000543431
-0.000568419
-0.000592981
-0.000617071
-0.000640644
-0.000663655
-0.000686059
-0.000707812
-0.000728872
-0.000749199
-0.000768755
-0.000787502
-0.000805407
-0.000822442
-0.000838579
-0.000853799
-0.000868087
-0.000881435
-0.000893842
-0.000905316
-0.000915883
-0.000925574
-0.000934425
-0.000942479
-0.000949793
-0.000956427
-0.000962454
-0.000967951
-0.000972999
-0.000977683
-0.000982089
-0.000986299
-0.000990392
-0.000994442
-0.000998512
-0.00100266
-0.00100693
-0.00101136
-0.00101599
-0.00102084
-0.00102595
-0.00103137
-0.00103716
-0.00104337
-0.00105011
-0.00105745
-0.00106551
-0.00107442
-0.00108435
-0.00109544
-0.00110778
-0.00112138
-0.00113609
-0.00115157
-0.00116736
-0.00118272
-0.00119736
-0.00121006
-0.000294301
-0.000322403
-0.000350364
-0.000378522
-0.00040668
-0.000434705
-0.00046256
-0.000490216
-0.000517636
-0.000544774
-0.000571582
-0.000598012
-0.000624015
-0.000649543
-0.000674544
-0.000698969
-0.000722767
-0.000745888
-0.000768285
-0.00078991
-0.000810718
-0.000830667
-0.000849713
-0.000867819
-0.000884949
-0.000901075
-0.000916173
-0.000930226
-0.000943226
-0.000955171
-0.000966076
-0.000975967
-0.000984876
-0.000992846
-0.000999931
-0.0010062
-0.00101173
-0.00101662
-0.00102096
-0.00102486
-0.00102843
-0.00103177
-0.00103499
-0.0010382
-0.00104147
-0.00104488
-0.00104851
-0.00105239
-0.00105656
-0.00106104
-0.00106585
-0.00107101
-0.00107655
-0.00108254
-0.00108909
-0.00109632
-0.0011044
-0.00111352
-0.00112388
-0.00113564
-0.00114886
-0.00116346
-0.00117916
-0.0011954
-0.00121128
-0.0012256
-0.00123679
-0.0012444
-0.00124608
-0.000337118
-0.00036666
-0.000396026
-0.000425581
-0.00045513
-0.000484535
-0.000513748
-0.000542739
-0.000571467
-0.00059988
-0.000627928
-0.000655556
-0.000682711
-0.000709338
-0.000735382
-0.000760786
-0.000785494
-0.000809453
-0.000832607
-0.000854905
-0.000876293
-0.00089672
-0.000916137
-0.0009345
-0.000951767
-0.000967904
-0.000982881
-0.000996676
-0.00100928
-0.00102068
-0.0010309
-0.00103997
-0.00104792
-0.00105481
-0.00106071
-0.00106569
-0.00106986
-0.00107333
-0.00107622
-0.00107867
-0.00108083
-0.00108284
-0.00108483
-0.00108693
-0.00108926
-0.0010919
-0.0010949
-0.00109831
-0.00110212
-0.00110636
-0.00111103
-0.00111618
-0.00112186
-0.00112816
-0.00113522
-0.00114321
-0.00115232
-0.00116272
-0.00117454
-0.00118784
-0.00120254
-0.00121836
-0.00123467
-0.00125036
-0.00126383
-0.00127316
-0.00127659
-0.00127346
-0.00126444
-0.000378928
-0.000410176
-0.000441204
-0.00047241
-0.000503601
-0.000534633
-0.000565452
-0.000596024
-0.000626302
-0.000656233
-0.000685759
-0.00071482
-0.000743359
-0.000771315
-0.000798627
-0.000825233
-0.000851071
-0.000876078
-0.000900194
-0.000923357
-0.000945505
-0.000966579
-0.000986522
-0.00100528
-0.00102281
-0.00103905
-0.00105398
-0.00106756
-0.00107977
-0.00109061
-0.00110009
-0.00110823
-0.00111509
-0.00112072
-0.0011252
-0.00112864
-0.00113114
-0.00113286
-0.00113396
-0.0011346
-0.00113497
-0.00113527
-0.00113566
-0.00113633
-0.00113741
-0.00113902
-0.00114124
-0.00114409
-0.00114759
-0.00115172
-0.00115648
-0.0011619
-0.00116804
-0.00117496
-0.00118272
-0.00119139
-0.00120104
-0.0012118
-0.00122378
-0.00123699
-0.0012511
-0.00126548
-0.00127926
-0.00129105
-0.00129914
-0.0013021
-0.00129908
-0.00128958
-0.00127651
-0.000421431
-0.000454523
-0.000487475
-0.000520601
-0.000553706
-0.000586646
-0.000619361
-0.000651811
-0.000683944
-0.000715698
-0.000747011
-0.000777817
-0.000808051
-0.000837645
-0.000866529
-0.000894634
-0.000921888
-0.00094822
-0.000973559
-0.000997833
-0.00102097
-0.0010429
-0.00106356
-0.00108288
-0.0011008
-0.00111725
-0.00113218
-0.00114554
-0.0011573
-0.00116744
-0.00117598
-0.00118295
-0.00118839
-0.00119236
-0.00119497
-0.00119633
-0.00119659
-0.00119593
-0.00119455
-0.00119269
-0.00119058
-0.0011885
-0.00118671
-0.00118546
-0.00118498
-0.00118546
-0.00118702
-0.00118971
-0.00119348
-0.00119819
-0.00120364
-0.00120965
-0.00121613
-0.00122309
-0.00123054
-0.0012384
-0.00124661
-0.00125529
-0.00126467
-0.00127468
-0.00128448
-0.00129327
-0.00130144
-0.00130876
-0.0013134
-0.00131377
-0.00130981
-0.00130221
-0.00129349
-0.000455722
-0.000491382
-0.000526705
-0.000562153
-0.00059756
-0.000632774
-0.000667733
-0.000702393
-0.000736702
-0.000770597
-0.000804007
-0.000836863
-0.000869092
-0.000900619
-0.000931368
-0.00096126
-0.000990216
-0.00101816
-0.001045
-0.00107067
-0.00109508
-0.00111816
-0.00113983
-0.00116002
-0.00117865
-0.00119562
-0.00121088
-0.00122435
-0.001236
-0.00124578
-0.00125369
-0.00125973
-0.00126393
-0.00126636
-0.00126709
-0.00126629
-0.00126412
-0.00126081
-0.00125664
-0.00125193
-0.00124705
-0.00124238
-0.00123832
-0.00123524
-0.00123346
-0.00123318
-0.00123449
-0.00123731
-0.00124139
-0.00124639
-0.00125186
-0.0012574
-0.00126285
-0.00126827
-0.00127365
-0.00127858
-0.00128233
-0.00128451
-0.00128652
-0.00128991
-0.00129424
-0.00129875
-0.00130463
-0.00131148
-0.0013163
-0.00131701
-0.00131427
-0.00130941
-0.00130568
-0.000509907
-0.000547785
-0.000585879
-0.000624117
-0.000662313
-0.000700325
-0.000738082
-0.000775535
-0.000812623
-0.00084927
-0.000885397
-0.000920921
-0.000955759
-0.000989826
-0.00102303
-0.00105529
-0.0010865
-0.00111658
-0.00114541
-0.00117291
-0.00119898
-0.00122351
-0.00124641
-0.00126755
-0.00128676
-0.0013039
-0.0013189
-0.00133171
-0.00134226
-0.00135052
-0.00135647
-0.00136013
-0.00136153
-0.00136075
-0.0013579
-0.00135316
-0.00134674
-0.00133895
-0.00133012
-0.00132069
-0.00131111
-0.00130191
-0.00129365
-0.00128686
-0.00128206
-0.0012796
-0.00127964
-0.00128202
-0.00128618
-0.00129118
-0.0012958
-0.00129898
-0.00130044
-0.00130067
-0.00130035
-0.00129974
-0.00129805
-0.00129425
-0.00129053
-0.0012905
-0.0012943
-0.00129959
-0.00130463
-0.00130863
-0.00131122
-0.00131212
-0.00131072
-0.00130867
-0.00130902
-0.000530789
-0.00057167
-0.000611862
-0.000652369
-0.000692934
-0.000733256
-0.00077325
-0.0008129
-0.000852153
-0.000890931
-0.000929147
-0.000966712
-0.00100354
-0.00103954
-0.00107462
-0.00110869
-0.00114163
-0.00117336
-0.00120377
-0.00123276
-0.00126024
-0.00128617
-0.00131053
-0.00133339
-0.00135454
-0.00137352
-0.00139008
-0.00140412
-0.00141562
-0.00142451
-0.00143073
-0.00143419
-0.00143487
-0.00143275
-0.0014279
-0.00142041
-0.00141051
-0.0013985
-0.00138484
-0.00137012
-0.00135507
-0.00134057
-0.00132756
-0.00131696
-0.00130956
-0.00130586
-0.00130587
-0.00130906
-0.00131419
-0.00131948
-0.00132283
-0.00132244
-0.00131813
-0.00131175
-0.00130564
-0.00130163
-0.00130006
-0.00129938
-0.00129843
-0.00129705
-0.00129652
-0.00129786
-0.00130023
-0.00130183
-0.00130206
-0.00130136
-0.00130088
-0.00130185
-0.0013046
-0.000657682
-0.00070149
-0.000746012
-0.000790509
-0.000834685
-0.000878512
-0.000921991
-0.000965081
-0.00100771
-0.00104979
-0.00109123
-0.00113192
-0.00117176
-0.00121065
-0.00124848
-0.00128512
-0.00132045
-0.00135432
-0.00138658
-0.00141705
-0.00144555
-0.00147184
-0.00149565
-0.00151666
-0.00153489
-0.00155063
-0.00156389
-0.00157446
-0.00158212
-0.00158663
-0.00158781
-0.00158551
-0.00157962
-0.00157012
-0.00155703
-0.00154052
-0.00152084
-0.00149841
-0.00147381
-0.0014478
-0.0014213
-0.00139539
-0.00137125
-0.00135005
-0.00133286
-0.00132046
-0.00131321
-0.00131088
-0.0013126
-0.00131687
-0.0013216
-0.00132475
-0.00132502
-0.00132181
-0.00131595
-0.00130926
-0.0013042
-0.0013019
-0.00130081
-0.00129979
-0.00129908
-0.0012988
-0.00129851
-0.00129753
-0.00129575
-0.00129394
-0.00129352
-0.00129541
-0.00129938
0.000195341
0.000199821
0.000204505
0.000209588
0.000215051
0.000220853
0.000227072
0.000233538
0.000240335
0.000247469
0.000254872
0.000262597
0.000270349
0.00027885
0.000286574
0.00029485
0.000302272
0.000310088
0.000317383
0.000324419
0.000331597
0.000336923
0.000342007
0.000345922
0.00034893
0.000350976
0.000351395
0.000350634
0.000348708
0.000345367
0.000340188
0.000333731
0.000326113
0.000317527
0.000307229
0.000296057
0.000284099
0.000271244
0.00025777
0.000243986
0.000229761
0.000215138
0.000200902
0.00018696
0.000172243
0.000158573
0.000144586
0.000131379
0.000118537
0.000106121
9.43309e-05
8.30394e-05
7.23699e-05
6.21668e-05
5.26411e-05
4.31418e-05
3.43943e-05
2.61426e-05
1.83875e-05
0.000198647
0.000203288
0.000208318
0.000213692
0.000219424
0.000225523
0.000231996
0.000238795
0.000245942
0.000253428
0.000261209
0.000269267
0.000277504
0.000285956
0.000294483
0.000302946
0.000311314
0.00031946
0.00032736
0.000334727
0.000341717
0.000347914
0.000353253
0.000357555
0.000360793
0.000362852
0.000363588
0.000362869
0.000360922
0.000357416
0.000352151
0.000345589
0.000337737
0.000328521
0.000317985
0.000306357
0.000293832
0.000280509
0.000266508
0.000252004
0.000237156
0.000222105
0.00020709
0.000192005
0.000177076
0.000162462
0.00014816
0.000134327
0.000120916
0.000107964
9.55733e-05
8.37586e-05
7.24431e-05
6.1713e-05
5.14877e-05
4.18369e-05
3.27246e-05
2.41337e-05
1.60054e-05
0.000202249
0.00020711
0.000212353
0.000217985
0.000224
0.000230398
0.000237176
0.000244324
0.00025184
0.000259709
0.000267884
0.000276324
0.00028499
0.000293836
0.000302777
0.000311792
0.00032071
0.000329404
0.000337746
0.000345604
0.000352893
0.000359493
0.000365233
0.000369889
0.00037341
0.000375646
0.000376515
0.000375923
0.000373901
0.000370292
0.000364974
0.000358196
0.000349949
0.000340307
0.000329341
0.00031724
0.000304139
0.000290224
0.000275604
0.000260457
0.00024495
0.00022917
0.000213312
0.000197549
0.000181952
0.000166677
0.000151748
0.000137234
0.00012318
0.000109625
9.66366e-05
8.42129e-05
7.23638e-05
6.10893e-05
5.04262e-05
4.03489e-05
3.0818e-05
2.18163e-05
1.33051e-05
0.000205741
0.000210829
0.000216321
0.000222219
0.000228523
0.000235237
0.000242358
0.000249878
0.000257787
0.000266064
0.000274676
0.000283584
0.000292745
0.000302092
0.000311533
0.000321033
0.000330428
0.000339629
0.000348476
0.000356869
0.000364652
0.000371644
0.000377753
0.000382758
0.000386573
0.000389045
0.000390061
0.000389552
0.000387488
0.000383784
0.000378337
0.000371297
0.000362686
0.00035264
0.000341201
0.000328562
0.000314864
0.000300283
0.00028497
0.000269106
0.000252851
0.000236332
0.00021974
0.000203255
0.000186926
0.000170901
0.000155241
0.000140014
0.000125285
0.000111096
9.74896e-05
8.44833e-05
7.20917e-05
6.03132e-05
4.91488e-05
3.85814e-05
2.85919e-05
1.91605e-05
1.02568e-05
0.000209041
0.000214371
0.000220128
0.000226315
0.000232932
0.000239982
0.000247466
0.000255376
0.000263699
0.000272416
0.000281494
0.000290895
0.000300568
0.000310443
0.000320436
0.000330463
0.0003404
0.000350139
0.000359536
0.000368461
0.000376749
0.000384209
0.000390721
0.000396095
0.000400215
0.000402932
0.000404123
0.000403694
0.000401612
0.000397807
0.000392192
0.000384883
0.00037592
0.000365436
0.000353497
0.000340282
0.000325951
0.000310677
0.000294633
0.000278005
0.000260967
0.000243681
0.000226318
0.00020903
0.000191916
0.000175102
0.000158679
0.000142719
0.000127286
0.000112425
9.81719e-05
8.45485e-05
7.15657e-05
5.92255e-05
4.75222e-05
3.64454e-05
2.59792e-05
1.60991e-05
6.77334e-06
0.000212171
0.000217756
0.000223793
0.000230284
0.000237233
0.000244641
0.00025251
0.000260832
0.000269596
0.000278779
0.000288351
0.000298269
0.000308479
0.000318912
0.000329484
0.000340098
0.000350632
0.000360962
0.000370941
0.000380421
0.000389235
0.0003972