/*--------------------------------*- C++ -*----------------------------------*\
| =========                 |                                                 |
| \\      /  F ield         | OpenFOAM: The Open Source CFD Toolbox           |
|  \\    /   O peration     | Version:  2312                                  |
|   \\  /    A nd           | Website:  www.openfoam.com                      |
|    \\/     M anipulation  |                                                 |
\*---------------------------------------------------------------------------*/
FoamFile
{
    version     2.0;
    format      ascii;
    arch        "LSB;label=32;scalar=64";
    class       surfaceScalarField;
    location    "600";
    object      phi;
}
// * * * * * * * * * * * * * * * * * * * * * * * * * * * * * * * * * * * * * //

dimensions      [0 3 -1 0 0 0 0];

oriented        oriented;

internalField   nonuniform List<scalar> 
116611
(
0.00120746
0.000415976
-0.00119167
-0.000431759
0.00122314
0.000411984
-0.000427665
0.00123864
0.000407676
-0.000423183
0.00125397
0.000403034
-0.000418359
0.00126912
0.000398061
-0.00041321
0.00128429
0.000392734
-0.00040791
0.00129901
0.000387036
-0.000401754
0.00131373
0.000380975
-0.00039569
0.00132801
0.00037449
-0.000388772
0.00134214
0.000367595
-0.00038172
0.00135599
0.000360266
-0.000374122
0.00136964
0.000352513
-0.000366163
0.00138297
0.000344334
-0.000357665
0.00139595
0.000335667
-0.00034864
0.00140865
0.000326562
-0.000339266
0.00142083
0.000316957
-0.000329138
0.00143286
0.000306839
-0.000318864
0.00144438
0.000296252
-0.00030778
0.00145557
0.00028506
-0.000296247
0.00146626
0.000273411
-0.000284104
0.00147661
0.000261137
-0.000271488
0.0014864
0.000248334
-0.000258124
0.00149567
0.000234921
-0.000244186
0.00150454
0.000220981
-0.000229855
0.0015129
0.000206438
-0.000214791
0.00152076
0.000191266
-0.000199128
0.00152808
0.000175446
-0.000182769
0.00153471
0.000159037
-0.000165665
0.00154103
0.00014204
-0.000148357
0.0015464
0.00012437
-0.000129745
0.00155147
0.000106149
-0.000111221
0.0015558
8.70754e-05
-9.14024e-05
0.00155956
6.73903e-05
-7.11489e-05
0.00156258
4.7065e-05
-5.00827e-05
0.00156496
2.60215e-05
-2.84084e-05
0.00156653
4.37504e-06
-5.9403e-06
0.0015677
-1.79366e-05
1.6764e-05
0.00156801
-4.095e-05
4.0639e-05
0.00156759
-6.46477e-05
6.50705e-05
0.0015662
-8.9139e-05
9.05248e-05
0.00156411
-0.000114157
0.000116248
0.00156146
-0.00013983
0.000142486
0.00155775
-0.000166214
0.000169916
0.0015532
-0.000193201
0.000197758
0.00154768
-0.00022082
0.000226334
0.00154148
-0.000248958
0.000255162
0.00153434
-0.000277721
0.000284864
0.00152605
-0.000307035
0.000315324
0.00151697
-0.000336766
0.000345849
0.00150697
-0.000366952
0.00037695
0.00149589
-0.000397594
0.000408675
0.00148393
-0.000428523
0.000440483
0.001471
-0.000459765
0.00047269
0.00145692
-0.000491314
0.000505391
0.00144146
-0.000523028
0.000538495
0.00142546
-0.000554582
0.000570576
0.00140794
-0.000586294
0.000603815
0.00138955
-0.000617701
0.000636098
0.00137004
-0.000648777
0.000668284
0.00134927
-0.000679384
0.000700156
0.00132763
-0.000709283
0.000730917
0.00130464
-0.000738602
0.000761591
0.00128058
-0.000766673
0.000790738
0.00125514
-0.000793388
0.000818827
0.00122821
-0.000818199
0.000845134
0.00120056
-0.000840358
0.000868004
0.00117175
-0.00085965
0.000888457
0.00114021
-0.000875837
0.000907377
-0.000887496
0.00110676
0.000920951
0.00119315
0.000400275
-0.00117745
0.0012087
0.000396432
0.00122411
0.000392273
0.00123935
0.000387791
0.00125445
0.000382957
0.00126939
0.000377801
0.00128413
0.000372293
0.00129869
0.000366419
0.00131301
0.00036017
0.00132709
0.000353513
0.00134091
0.000346444
0.00135446
0.000338961
0.00136775
0.000331046
0.00138073
0.000322689
0.00139339
0.000313898
0.00140572
0.000304626
0.00141768
0.000294878
0.0014293
0.000284631
0.00144049
0.000273874
0.00145131
0.000262592
0.00146167
0.000250774
0.00147159
0.000238414
0.00148102
0.000225492
0.00148999
0.000212013
0.00149847
0.000197954
0.00150645
0.000183288
0.00151386
0.000168033
0.00152072
0.000152177
0.00152705
0.000135712
0.00153278
0.000118638
0.00153802
0.000100916
0.00154257
8.25241e-05
0.00154647
6.34922e-05
0.00154972
4.38096e-05
0.00155228
2.34653e-05
0.00155418
2.47437e-06
0.00155541
-1.91674e-05
0.00155592
-4.14604e-05
0.00155571
-6.44357e-05
0.00155466
-8.80918e-05
0.00155287
-0.000112369
0.00155031
-0.000137265
0.00154689
-0.000162795
0.00154264
-0.000188954
0.00153753
-0.000215706
0.00153158
-0.000243012
0.00152472
-0.000270862
0.00151693
-0.000299241
0.00150824
-0.000328082
0.00149863
-0.000357342
0.00148804
-0.000387002
0.00147651
-0.000416989
0.001464
-0.000447255
0.00145044
-0.000477755
0.00143581
-0.000508398
0.00142024
-0.000539019
0.00140355
-0.000569602
0.00138584
-0.000599991
0.0013671
-0.00063004
0.00134735
-0.00065963
0.00132664
-0.00068857
0.00130475
-0.000716718
0.00128179
-0.000743706
0.0012576
-0.000769204
0.00123214
-0.00079274
0.00120547
-0.000813686
0.00117741
-0.000831586
0.00114752
-0.000845955
-0.000855605
0.00111563
0.0011795
0.000384672
-0.0011639
0.00119497
0.000380961
0.0012103
0.000376943
0.00122548
0.000372611
0.00124048
0.000367954
0.00125532
0.000362967
0.00126997
0.000357637
0.00128444
0.000351953
0.0012987
0.000345908
0.00131273
0.000339485
0.0013265
0.000332671
0.00134001
0.000325455
0.00135323
0.000317822
0.00136616
0.000309761
0.00137879
0.000301264
0.0013911
0.000292317
0.00140307
0.000282908
0.00141468
0.000273022
0.00142591
0.000262646
0.00143673
0.000251766
0.00144714
0.000240371
0.00145711
0.000228445
0.00146662
0.000215978
0.00147567
0.000202962
0.00148424
0.000189386
0.00149229
0.000175234
0.00149982
0.000160502
0.00150682
0.000145182
0.00151326
0.000129267
0.00151916
0.000112744
0.00152447
9.56023e-05
0.00152916
7.7831e-05
0.00153323
5.94263e-05
0.00153665
4.03857e-05
0.00153941
2.07065e-05
0.0015415
3.88696e-07
0.0015429
-2.05674e-05
0.0015436
-4.21653e-05
0.00154358
-6.44118e-05
0.00154279
-8.73009e-05
0.00154123
-0.000110815
0.00153891
-0.000134938
0.00153578
-0.000159674
0.00153184
-0.000185013
0.00152706
-0.000210926
0.00152144
-0.000237387
0.00151495
-0.000264373
0.00150757
-0.000291861
0.00149929
-0.000319805
0.00149011
-0.000348162
0.00148001
-0.000376896
0.00146897
-0.000405952
0.00145699
-0.000435273
0.00144403
-0.0004648
0.00143009
-0.000494452
0.00141519
-0.000524117
0.0013993
-0.000553715
0.00138244
-0.000583132
0.00136462
-0.000612225
0.00134585
-0.000640852
0.0013261
-0.000668826
0.00130531
-0.000695924
0.00128342
-0.000721822
0.00126035
-0.000746127
0.00123598
-0.000768376
0.0012103
-0.000788005
0.00118322
-0.000804505
0.00115457
-0.000817304
-0.000825285
0.00112425
0.00116647
0.000369116
-0.00115091
0.00118189
0.000365541
0.00119716
0.000361668
0.00121228
0.000357494
0.00122723
0.000353007
0.001242
0.000348199
0.00125658
0.000343057
0.00127096
0.00033757
0.00128513
0.000331732
0.00129909
0.000325531
0.0013128
0.000318957
0.00132626
0.000311999
0.00133944
0.000304642
0.00135233
0.000296872
0.00136492
0.000288677
0.00137719
0.000280046
0.00138912
0.000270971
0.00140071
0.000261436
0.00141193
0.00025143
0.00142275
0.000240939
0.00143317
0.000229951
0.00144317
0.00021845
0.00145272
0.000206424
0.00146182
0.000193865
0.00147044
0.000180764
0.00147857
0.000167109
0.00148618
0.00015289
0.00149326
0.000138099
0.0014998
0.000122726
0.00150579
0.000106761
0.00151119
9.01936e-05
0.00151601
7.30165e-05
0.00152021
5.52247e-05
0.00152378
3.6815e-05
0.0015267
1.77838e-05
0.00152896
-1.87009e-06
0.00153055
-2.21501e-05
0.00153144
-4.3057e-05
0.00153161
-6.45894e-05
0.00153106
-8.67434e-05
0.00152975
-0.00010951
0.00152769
-0.000132876
0.00152485
-0.000156836
0.00152122
-0.000181376
0.00151677
-0.000206476
0.00151149
-0.000232111
0.00150538
-0.000258257
0.0014984
-0.000284887
0.00149056
-0.000311963
0.00148184
-0.000339444
0.00147224
-0.00036729
0.00146173
-0.000395449
0.00145033
-0.000423866
0.001438
-0.000452476
0.00142475
-0.000481204
0.00141059
-0.000509958
0.00139552
-0.000538644
0.00137954
-0.00056715
0.00136265
-0.000595336
0.00134484
-0.00062304
0.00132607
-0.000650056
0.00130627
-0.000676122
0.00128535
-0.000700904
0.00126322
-0.000723995
0.00123978
-0.000744941
0.00121501
-0.000763229
0.00118887
-0.000778369
0.00116139
-0.000789816
-0.000796607
0.00113271
0.00115399
0.000353582
-0.00113846
0.00116939
0.000350149
0.00118463
0.000346427
0.00119971
0.000342413
0.00121462
0.000338098
0.00122934
0.000333472
0.00124388
0.000328526
0.0012582
0.000323243
0.00127232
0.000317617
0.00128621
0.00031164
0.00129986
0.000305303
0.00131326
0.000298596
0.0013264
0.000291509
0.00133924
0.000284026
0.00135179
0.000276133
0.00136402
0.000267819
0.00137591
0.000259072
0.00138747
0.000249879
0.00139867
0.000240233
0.00140949
0.000230122
0.0014199
0.000219533
0.0014299
0.000208453
0.00143946
0.000196861
0.00144858
0.000184749
0.00145723
0.000172114
0.0014654
0.000158943
0.00147306
0.000145228
0.0014802
0.000130955
0.00148682
0.000116113
0.00149288
0.000100694
0.00149839
8.46887e-05
0.00150331
6.80923e-05
0.00150763
5.09013e-05
0.00151134
3.31099e-05
0.00151441
1.47124e-05
0.00151683
-4.29353e-06
0.0015186
-2.39106e-05
0.00151968
-4.41389e-05
0.00152006
-6.49756e-05
0.00151974
-8.64158e-05
0.00151868
-0.000108453
0.00151688
-0.000131076
0.00151432
-0.000154276
0.00151098
-0.00017804
0.00150686
-0.00020235
0.00150193
-0.000227184
0.00149619
-0.000252517
0.00148962
-0.000278321
0.00148222
-0.000304562
0.00147398
-0.000331201
0.00146489
-0.000358197
0.00145494
-0.000385501
0.00144413
-0.000413058
0.00143246
-0.000440806
0.00141993
-0.000468671
0.00140654
-0.000496568
0.00139229
-0.000524396
0.00137717
-0.000552037
0.00136118
-0.000579343
0.00134427
-0.00060613
0.00132638
-0.000632167
0.00130743
-0.000657168
0.00128731
-0.000680791
0.00126595
-0.000702634
0.00124328
-0.000722272
0.0012193
-0.000739246
0.00119404
-0.000753109
0.0011676
-0.000763379
-0.000769173
0.00114017
0.00114205
0.000338057
-0.00112652
0.00115743
0.00033477
0.00117265
0.000331202
0.00118771
0.000327352
0.0012026
0.000323211
0.0012173
0.00031877
0.00123181
0.000314021
0.0012461
0.000308949
0.00126018
0.000303543
0.00127402
0.000297796
0.00128762
0.000291698
0.00130098
0.000285243
0.00131406
0.000278421
0.00132687
0.000271219
0.00133938
0.000263624
0.00135158
0.000255623
0.00136344
0.000247205
0.00137497
0.000238356
0.00138613
0.000229066
0.00139693
0.000219328
0.00140733
0.000209129
0.00141733
0.000198457
0.00142689
0.000187295
0.00143602
0.000175627
0.00144468
0.000163447
0.00145288
0.000150748
0.00146058
0.000137521
0.00146779
0.000123753
0.00147447
0.000109432
0.00148061
9.45522e-05
0.0014862
7.91029e-05
0.00149121
6.30797e-05
0.00149563
4.64795e-05
0.00149945
2.92928e-05
0.00150265
1.15128e-05
0.00150522
-6.86366e-06
0.00150714
-2.58362e-05
0.00150841
-4.54026e-05
0.00150899
-6.55601e-05
0.00150888
-8.63045e-05
0.00150806
-0.000107631
0.00150651
-0.00012953
0.00150423
-0.000151991
0.00150119
-0.000175004
0.00149739
-0.00019855
0.00149282
-0.000222609
0.00148746
-0.000247158
0.0014813
-0.000272168
0.00147435
-0.000297609
0.00146659
-0.000323443
0.00145803
-0.00034963
0.00144865
-0.000376124
0.00143846
-0.00040287
0.00142746
-0.000429806
0.00141565
-0.000456859
0.00140302
-0.000483941
0.00138957
-0.000510944
0.00137527
-0.000537736
0.00136008
-0.000564154
0.00134394
-0.000589991
0.00132677
-0.000614998
0.00130848
-0.000638879
0.00128899
-0.000661296
0.00126823
-0.000681876
0.00124619
-0.000700234
0.00122291
-0.000715967
0.00119849
-0.000728686
0.00117309
-0.000737979
-0.00074305
0.00114697
0.00113064
0.000322542
-0.00111513
0.00114601
0.000319399
0.00116123
0.000315988
0.00117628
0.000312304
0.00119115
0.000308339
0.00120583
0.000304085
0.00122032
0.000299533
0.0012346
0.000294671
0.00124866
0.000289488
0.00126248
0.000283974
0.00127605
0.000278122
0.00128937
0.000271923
0.00130243
0.000265369
0.0013152
0.000258447
0.00132768
0.000251145
0.00133984
0.000243456
0.00135169
0.000235365
0.00136318
0.000226858
0.00137432
0.000217925
0.00138509
0.000208558
0.00139548
0.000198744
0.00140547
0.000188472
0.00141503
0.000177729
0.00142416
0.000166498
0.00143284
0.00015477
0.00144105
0.000142534
0.00144878
0.000129787
0.00145602
0.00011652
0.00146273
0.000102716
0.00146892
8.83693e-05
0.00147455
7.34674e-05
0.00147963
5.80014e-05
0.00148414
4.19715e-05
0.00148806
2.53678e-05
0.00149139
8.18327e-06
0.00149411
-9.58458e-06
0.00149621
-2.79298e-05
0.00149765
-4.68491e-05
0.00149844
-6.63421e-05
0.00149854
-8.64073e-05
0.00149795
-0.000107041
0.00149666
-0.000128236
0.00149465
-0.000149982
0.00149191
-0.000172267
0.00148843
-0.000195075
0.00148421
-0.000218387
0.00147924
-0.000242182
0.0014735
-0.000266433
0.001467
-0.00029111
0.00145974
-0.00031618
0.00145171
-0.000341601
0.00144291
-0.000367328
0.00143335
-0.000393307
0.00142302
-0.000419472
0.0014119
-0.000445745
0.00139999
-0.00047203
0.00138725
-0.000498207
0.00137365
-0.000524127
0.0013591
-0.000549609
0.00134355
-0.000574434
0.00132689
-0.000598345
0.00130907
-0.000621053
0.00129001
-0.000642244
0.00126972
-0.000661583
0.00124822
-0.000678735
0.0012256
-0.000693348
0.00120201
-0.000705088
0.00117762
-0.000713589
-0.000718115
0.00115268
0.00111982
0.000307048
-0.00110433
0.00113518
0.000304044
0.00115038
0.000300784
0.00116542
0.000297264
0.00118029
0.000293475
0.00119496
0.000289408
0.00120944
0.000285054
0.00122371
0.0002804
0.00123776
0.000275439
0.00125158
0.000270162
0.00126514
0.00026456
0.00127844
0.000258621
0.00129147
0.000252338
0.00130422
0.0002457
0.00131667
0.000238694
0.00132881
0.000231313
0.00134063
0.000223545
0.00135211
0.000215377
0.00136324
0.0002068
0.00137399
0.000197802
0.00138436
0.000188372
0.00139434
0.000178498
0.0014039
0.000168166
0.00141303
0.000157365
0.00142172
0.000146084
0.00142994
0.00013431
0.00143769
0.000122038
0.00144495
0.00010926
0.00145171
9.596e-05
0.00145794
8.21317e-05
0.00146365
6.77617e-05
0.00146881
5.28395e-05
0.00147342
3.73653e-05
0.00147746
2.13285e-05
0.00148092
4.72568e-06
0.00148378
-1.24449e-05
0.00148602
-3.01723e-05
0.00148763
-4.84555e-05
0.00148858
-6.72987e-05
0.00148888
-8.67013e-05
0.0014885
-0.000106662
0.00148743
-0.000127173
0.00148568
-0.000148225
0.00148322
-0.000169808
0.00148005
-0.000191908
0.00147617
-0.000214507
0.00147157
-0.000237584
0.00146626
-0.000261115
0.00146021
-0.00028507
0.00145345
-0.000309416
0.00144596
-0.000334111
0.00143774
-0.000359107
0.00142878
-0.000384347
0.00141907
-0.000409758
0.00140857
-0.000435253
0.00139727
-0.000460722
0.00138509
-0.000486032
0.00137198
-0.000511021
0.00135787
-0.000535495
0.00134267
-0.000559237
0.00132633
-0.000581997
0.00130878
-0.000603511
0.00129004
-0.000623499
0.00127013
-0.000641672
0.00124913
-0.000657742
0.00122719
-0.000671404
0.00120447
-0.000682371
0.00118116
-0.000690276
-0.000694359
0.0011574
0.00110965
0.000291583
-0.00109418
0.00112498
0.000288709
0.00114017
0.000285595
0.0011552
0.000282236
0.00117005
0.00027862
0.00118472
0.000274738
0.00119919
0.000270583
0.00121345
0.000266143
0.00122748
0.000261404
0.00124128
0.000256361
0.00125484
0.000251006
0.00126813
0.000245328
0.00128115
0.000239318
0.00129389
0.000232964
0.00130633
0.000226257
0.00131845
0.000219186
0.00133026
0.00021174
0.00134172
0.000203909
0.00135284
0.000195684
0.00136359
0.000187053
0.00137396
0.000178002
0.00138393
0.000168523
0.0013935
0.0001586
0.00140264
0.000148222
0.00141135
0.000137379
0.0014196
0.000126057
0.00142739
0.000114248
0.00143471
0.000101947
0.00144153
8.91372e-05
0.00144784
7.58151e-05
0.00145364
6.19654e-05
0.0014589
4.75779e-05
0.00146361
3.2656e-05
0.00146776
1.71843e-05
0.00147132
1.16231e-06
0.00147428
-1.54077e-05
0.00147663
-3.252e-05
0.00147835
-5.01743e-05
0.00147943
-6.83819e-05
0.00147987
-8.71417e-05
0.00147966
-0.000106453
0.0014788
-0.000126309
0.00147728
-0.000146702
0.00147509
-0.000167619
0.00147223
-0.000189049
0.0014687
-0.000210974
0.00146448
-0.000233373
0.00145959
-0.000256222
0.00145401
-0.000279491
0.00144774
-0.000303143
0.00144076
-0.000327135
0.00143307
-0.000351414
0.00142464
-0.000375913
0.00141543
-0.000400552
0.00140541
-0.00042523
0.00139451
-0.000449827
0.00138268
-0.000474199
0.00136984
-0.000498179
0.00135592
-0.000521576
0.00134087
-0.000544185
0.00132465
-0.000565778
0.00130726
-0.000586127
0.00128875
-0.000604987
0.0012692
-0.000622118
0.00124873
-0.000637274
0.00122752
-0.000650193
0.00120578
-0.000660637
0.00118377
-0.000668258
-0.000672443
0.00116185
0.00110017
0.000276149
-0.00108474
0.00111547
0.000273407
0.00113064
0.000270433
0.00114564
0.000267229
0.00116048
0.000263784
0.00117513
0.000260087
0.00118959
0.000256129
0.00120383
0.000251897
0.00121785
0.000247381
0.00123164
0.000242572
0.00124519
0.000237462
0.00125847
0.000232042
0.00127149
0.000226303
0.00128422
0.000220234
0.00129665
0.000213824
0.00130877
0.000207063
0.00132057
0.000199941
0.00133203
0.000192446
0.00134315
0.000184569
0.0013539
0.0001763
0.00136428
0.000167626
0.00137426
0.000158537
0.00138385
0.000149019
0.00139301
0.000139059
0.00140174
0.000128651
0.00141002
0.000117777
0.00141783
0.000106429
0.00142518
9.46004e-05
0.00143204
8.2276e-05
0.0014384
6.94551e-05
0.00144424
5.61241e-05
0.00144955
4.22703e-05
0.0014543
2.79015e-05
0.00145849
1.29998e-05
0.00146209
-2.44286e-06
0.00146511
-1.84252e-05
0.00146754
-3.49497e-05
0.00146938
-5.20123e-05
0.00147062
-6.96182e-05
0.00147124
-8.77672e-05
0.00147125
-0.000106459
0.00147063
-0.000125691
0.00146938
-0.000145453
0.0014675
-0.000165737
0.00146498
-0.000186528
0.00146181
-0.000207808
0.00145799
-0.000229556
0.00145352
-0.000251745
0.00144837
-0.000274342
0.00144253
-0.000297307
0.00143599
-0.000320589
0.0014287
-0.000344128
0.00142064
-0.000367848
0.00141174
-0.000391658
0.00140196
-0.00041545
0.00139123
-0.000439098
0.00137949
-0.000462456
0.00136668
-0.000485365
0.00135275
-0.000507647
0.00133768
-0.000529119
0.00132149
-0.000549584
0.00130421
-0.000568849
0.00128593
-0.000586706
0.00126677
-0.000602957
0.00124688
-0.000617388
0.00122648
-0.00062979
0.00120579
-0.000639955
0.00118513
-0.000647593
-0.000652324
0.00116501
0.00109143
0.000260744
-0.00107603
0.00110671
0.000258135
0.00112184
0.000255303
0.00113682
0.000252251
0.00115163
0.000248972
0.00116626
0.000245455
0.0011807
0.000241691
0.00119493
0.000237666
0.00120894
0.000233371
0.00122272
0.000228795
0.00123625
0.00022393
0.00124952
0.000218768
0.00126253
0.000213298
0.00127525
0.000207511
0.00128768
0.000201397
0.00129979
0.000194945
0.00131159
0.000188145
0.00132305
0.000180985
0.00133417
0.000173456
0.00134492
0.000165548
0.00135529
0.00015725
0.00136528
0.000148549
0.00137486
0.000139436
0.00138403
0.000129897
0.00139276
0.000119922
0.00140104
0.000109498
0.00140885
9.86109e-05
0.0014162
8.72565e-05
0.00142305
7.54206e-05
0.00142941
6.31007e-05
0.00143524
5.0289e-05
0.00144055
3.69676e-05
0.00144531
2.31367e-05
0.00144953
8.77842e-06
0.00145321
-6.1194e-06
0.00145634
-2.15532e-05
0.00145891
-3.75216e-05
0.00146092
-5.40214e-05
0.00146235
-7.10529e-05
0.0014632
-8.86171e-05
0.00146346
-0.000106715
0.00146311
-0.000125345
0.00146216
-0.0001445
0.00146059
-0.000164169
0.0014584
-0.000184336
0.00145557
-0.000204983
0.0014521
-0.000226084
0.00144796
-0.000247608
0.00144314
-0.000269518
0.0014376
-0.000291767
0.00143131
-0.000314297
0.00142422
-0.00033704
0.00141628
-0.000359913
0.00140745
-0.00038282
0.00139765
-0.000405652
0.00138683
-0.000428284
0.00137496
-0.000450581
0.00136199
-0.000472398
0.00134793
-0.000493579
0.00133278
-0.000513968
0.00131659
-0.000533396
0.00129944
-0.000551704
0.00128145
-0.000568712
0.00126276
-0.000584264
0.00124354
-0.000598171
0.00122402
-0.000610272
0.00120444
-0.000620378
0.00118513
-0.000628284
-0.000633753
0.00116656
0.00108347
0.00024536
-0.00106809
0.00109872
0.000242886
0.00111383
0.000240199
0.00112878
0.000237301
0.00114356
0.000234187
0.00115817
0.000230847
0.00117259
0.000227272
0.0011868
0.000223452
0.0012008
0.000219375
0.00121456
0.000215031
0.00122808
0.000210412
0.00124134
0.000205507
0.00125433
0.000200306
0.00126704
0.000194802
0.00127946
0.000188982
0.00129156
0.000182839
0.00130335
0.00017636
0.0013148
0.000169535
0.0013259
0.000162355
0.00133664
0.000154809
0.001347
0.000146886
0.00135698
0.000138574
0.00136655
0.000129864
0.0013757
0.000120742
0.00138443
0.000111197
0.00139271
0.000101218
0.00140053
9.07905e-05
0.00140788
7.99062e-05
0.00141474
6.85542e-05
0.00142112
5.67259e-05
0.00142699
4.4414e-05
0.00143236
3.16026e-05
0.00143721
1.82835e-05
0.00144155
4.4438e-06
0.00144535
-9.92393e-06
0.00144862
-2.48182e-05
0.00145133
-4.02386e-05
0.0014535
-5.61852e-05
0.0014551
-7.26572e-05
0.00145614
-8.96542e-05
0.0014566
-0.000107177
0.00145648
-0.000125221
0.00145575
-0.000143779
0.00145442
-0.000162837
0.00145246
-0.000182377
0.00144986
-0.000202377
0.00144658
-0.000222808
0.00144261
-0.000243635
0.0014379
-0.000264814
0.00143243
-0.000286291
0.00142614
-0.000308005
0.00141898
-0.000329882
0.00141091
-0.000351839
0.00140187
-0.000373781
0.00139182
-0.000395605
0.00138073
-0.000417197
0.00136859
-0.000438437
0.00135539
-0.000459198
0.00134116
-0.000479348
0.00132594
-0.000498754
0.00130982
-0.000517274
0.00129289
-0.000534777
0.00127529
-0.000551109
0.00125717
-0.000566148
0.00123873
-0.000579726
0.00122019
-0.000591731
0.0012018
-0.000601991
0.00118389
-0.000610372
-0.000616747
0.00116688
0.00107633
0.000229992
-0.00106097
0.00109157
0.000227653
0.00110665
0.000225113
0.00112158
0.000222371
0.00113635
0.000219423
0.00115093
0.000216261
0.00116533
0.000212875
0.00117952
0.000209257
0.0011935
0.000205397
0.00120725
0.000201283
0.00122076
0.000196907
0.001234
0.000192259
0.00124698
0.000187329
0.00125968
0.000182106
0.00127208
0.000176582
0.00128417
0.000170746
0.00129594
0.000164588
0.00130738
0.000158098
0.00131847
0.000151266
0.0013292
0.00014408
0.00133955
0.000136531
0.00134952
0.000128607
0.00135909
0.000120296
0.00136824
0.000111586
0.00137697
0.000102466
0.00138527
9.29239e-05
0.00139311
8.29461e-05
0.0014005
7.2522e-05
0.00140741
6.16406e-05
0.00141385
5.02914e-05
0.00141979
3.84646e-05
0.00142525
2.61484e-05
0.0014302
1.33326e-05
0.00143464
7.26408e-09
0.00143855
-1.38336e-05
0.00144192
-2.81916e-05
0.00144475
-4.30698e-05
0.00144703
-5.84694e-05
0.00144877
-7.43875e-05
0.00144993
-9.082e-05
0.00145052
-0.000107764
0.00145051
-0.000125214
0.00144989
-0.000143159
0.00144864
-0.000161585
0.00144673
-0.000180469
0.00144414
-0.000199786
0.00144084
-0.000219503
0.00143678
-0.000239578
0.00143193
-0.000259965
0.00142625
-0.000280609
0.00141969
-0.000301445
0.00141221
-0.000322403
0.00140378
-0.000343404
0.00139435
-0.000364359
0.00138393
-0.000385177
0.00137249
-0.000405759
0.00136005
-0.000425999
0.00134664
-0.000445791
0.00133231
-0.000465019
0.00131714
-0.000483576
0.0013012
-0.000501336
0.00128462
-0.000518197
0.00126753
-0.000534023
0.00125011
-0.000548727
0.00123255
-0.000562165
0.00121508
-0.000574266
0.00119798
-0.000584889
0.00118158
-0.00059397
-0.000601486
0.00116632
0.00107009
0.000214634
-0.00105473
0.00108531
0.00021243
0.00110039
0.000210036
0.00111531
0.000207452
0.00113006
0.000204672
0.00114463
0.000201689
0.00115901
0.000198493
0.00117319
0.000195078
0.00118716
0.000191433
0.00120089
0.000187548
0.00121438
0.000183414
0.00122762
0.000179022
0.00124059
0.00017436
0.00125328
0.000169419
0.00126567
0.00016419
0.00127775
0.000158662
0.00128952
0.000152824
0.00130095
0.000146668
0.00131203
0.000140182
0.00132275
0.000133356
0.00133311
0.000126178
0.00134308
0.000118638
0.00135265
0.000110724
0.00136181
0.000102423
0.00137055
9.3723e-05
0.00137887
8.46121e-05
0.00138674
7.50776e-05
0.00139415
6.51074e-05
0.0014011
5.469e-05
0.00140758
4.38142e-05
0.00141357
3.24694e-05
0.00141908
2.0645e-05
0.00142408
8.33113e-06
0.00142857
-4.48055e-06
0.00143253
-1.77963e-05
0.00143595
-3.16184e-05
0.00143884
-4.59499e-05
0.00144116
-6.07911e-05
0.00144291
-7.61383e-05
0.00144407
-9.19854e-05
0.00144464
-0.000108326
0.00144457
-0.000125152
0.00144386
-0.000142449
0.00144248
-0.0001602
0.00144039
-0.000178381
0.00143757
-0.000196962
0.00143397
-0.000215908
0.00142957
-0.000235178
0.00142433
-0.000254723
0.00141821
-0.00027449
0.00141118
-0.00029442
0.00140323
-0.000314445
0.00139432
-0.000334496
0.00138445
-0.000354495
0.00137364
-0.000374362
0.00136189
-0.00039401
0.00134924
-0.000413349
0.00133574
-0.000432289
0.00132145
-0.000450729
0.00130645
-0.00046858
0.00129085
-0.000485732
0.00127476
-0.000502111
0.00125833
-0.00051759
0.00124173
-0.000532127
0.00122516
-0.000545599
0.00120889
-0.000557991
0.00119322
-0.000569221
0.00117859
-0.000579339
-0.000588582
0.00116569
0.00106485
0.000199274
-0.00104949
0.00108007
0.000197206
0.00109515
0.000194959
0.00111007
0.000192534
0.00112482
0.000189923
0.00113939
0.00018712
0.00115376
0.000184117
0.00116794
0.000180905
0.00118189
0.000177475
0.00119562
0.000173819
0.00120911
0.000169926
0.00122234
0.000165788
0.00123531
0.000161394
0.00124799
0.000156735
0.00126038
0.0001518
0.00127247
0.000146579
0.00128423
0.000141062
0.00129566
0.000135239
0.00130674
0.000129099
0.00131746
0.000122632
0.00132782
0.000115826
0.00133778
0.00010867
0.00134736
0.000101151
0.00135652
9.32582e-05
0.00136527
8.49786e-05
0.00137358
7.62998e-05
0.00138145
6.72092e-05
0.00138886
5.76946e-05
0.00139581
4.77443e-05
0.00140227
3.73467e-05
0.00140825
2.64913e-05
0.00141373
1.51678e-05
0.00141869
3.36731e-06
0.00142313
-8.9178e-06
0.00142703
-2.16925e-05
0.00143037
-3.49592e-05
0.00143314
-4.87198e-05
0.00143532
-6.29732e-05
0.0014369
-7.77152e-05
0.00143785
-9.29391e-05
0.00143816
-0.000108636
0.0014378
-0.000124794
0.00143675
-0.000141398
0.00143498
-0.000158428
0.00143246
-0.000175859
0.00142916
-0.000193661
0.00142505
-0.0002118
0.00142011
-0.000230236
0.00141431
-0.000248924
0.00140763
-0.000267814
0.00140006
-0.000286853
0.0013916
-0.000305981
0.00138224
-0.000325137
0.001372
-0.000344254
0.0013609
-0.00036326
0.00134897
-0.000382081
0.00133626
-0.00040064
0.00132283
-0.000418857
0.00130875
-0.000436648
0.0012941
-0.000453937
0.001279
-0.000470629
0.00126356
-0.000486673
0.00124793
-0.000501959
0.00123229
-0.000516488
0.00121686
-0.000530173
0.00120196
-0.000543083
0.00118799
-0.000555255
0.00117557
-0.000566919
-0.000578724
0.00116571
0.0010608
0.000183904
-0.00104543
0.00107603
0.000181973
0.00109111
0.000179874
0.00110604
0.000177608
0.0011208
0.000175168
0.00113537
0.000172546
0.00114975
0.000169736
0.00116393
0.000166729
0.00117789
0.000163516
0.00119162
0.000160088
0.0012051
0.000156438
0.00121834
0.000152555
0.0012313
0.00014843
0.00124398
0.000144052
0.00125637
0.000139413
0.00126845
0.000134501
0.0012802
0.000129307
0.00129162
0.00012382
0.00130269
0.00011803
0.0013134
0.000111925
0.00132373
0.000105495
0.00133367
9.87282e-05
0.00134321
9.16122e-05
0.00135233
8.41353e-05
0.00136103
7.6285e-05
0.00136928
6.80489e-05
0.00137707
5.94147e-05
0.0013844
5.03701e-05
0.00139124
4.09035e-05
0.00139758
3.10036e-05
0.00140341
2.06598e-05
0.00140872
9.8624e-06
0.00141348
-1.39674e-06
0.00141769
-1.31245e-05
0.00142132
-2.53245e-05
0.00142436
-3.79993e-05
0.00142679
-5.11501e-05
0.00142859
-6.47753e-05
0.00142975
-7.88708e-05
0.00143024
-9.34295e-05
0.00143004
-0.000108442
0.00142914
-0.000123894
0.00142752
-0.000139772
0.00142514
-0.000156054
0.001422
-0.000172716
0.00141807
-0.00018973
0.00141333
-0.000207064
0.00140778
-0.00022468
0.00140139
-0.000242539
0.00139417
-0.000260596
0.00138612
-0.000278802
0.00137725
-0.000297106
0.00136756
-0.000315453
0.00135709
-0.000333784
0.00134587
-0.000352039
0.00133394
-0.000370151
0.00132136
-0.000388055
0.00130818
-0.000405682
0.0012945
-0.00042296
0.00128038
-0.000439826
0.00126596
-0.000456203
0.00125135
-0.000472061
0.0012367
-0.000487316
0.00122225
-0.00050203
0.00120825
-0.000516178
0.00119513
-0.000529961
0.00118344
-0.000543564
0.00117393
-0.000557415
-0.000572297
0.00116751
0.00105813
0.000168521
-0.00104275
0.00107338
0.00016673
0.00108847
0.000164782
0.0011034
0.000162677
0.00111816
0.00016041
0.00113273
0.000157972
0.00114711
0.000155358
0.00116128
0.000152558
0.00117523
0.000149566
0.00118895
0.000146372
0.00120242
0.000142967
0.00121563
0.000139344
0.00122857
0.000135492
0.00124122
0.000131402
0.00125357
0.000127064
0.0012656
0.000122469
0.0012773
0.000117606
0.00128866
0.000112465
0.00129965
0.000107035
0.00131027
0.000101305
0.0013205
9.52655e-05
0.00133033
8.89033e-05
0.00133973
8.22074e-05
0.0013487
7.51658e-05
0.00135722
6.77662e-05
0.00136527
5.99964e-05
0.00137284
5.18442e-05
0.00137991
4.32976e-05
0.00138647
3.43449e-05
0.0013925
2.49749e-05
0.00139798
1.51771e-05
0.0014029
4.94204e-06
0.00140725
-5.73799e-06
0.00141099
-1.68694e-05
0.00141412
-2.84562e-05
0.00141662
-4.05017e-05
0.00141848
-5.30074e-05
0.00141968
-6.59721e-05
0.0014202
-7.93922e-05
0.00142003
-9.32613e-05
0.00141916
-0.00010757
0.00141757
-0.000122307
0.00141526
-0.000137455
0.0014122
-0.000152996
0.00140839
-0.000168907
0.00140382
-0.000185161
0.00139849
-0.000201729
0.00139238
-0.000218577
0.00138551
-0.000235668
0.00137788
-0.000252963
0.0013695
-0.000270417
0.00136038
-0.000287987
0.00135055
-0.000305624
0.00134004
-0.000323276
0.00132889
-0.000340892
0.00131716
-0.000358416
0.00130489
-0.000375789
0.00129217
-0.000392957
0.00127907
-0.00040986
0.00126569
-0.00042645
0.00125216
-0.000442673
0.00123863
-0.000458531
0.00122531
-0.000473999
0.0012125
-0.000489217
0.00120061
-0.000504286
0.0011902
-0.000519554
0.00118204
-0.000535407
0.00117697
-0.000552335
-0.00057118
0.00117585
0.0010568
0.000153166
-0.00104145
0.00107201
0.000151521
0.00108707
0.000149728
0.00110195
0.00014779
0.00111666
0.0001457
0.00113118
0.000143453
0.0011455
0.00014104
0.0011596
0.000138456
0.00117348
0.000135691
0.00118711
0.000132738
0.00120049
0.000129588
0.0012136
0.000126234
0.00122643
0.000122666
0.00123895
0.000118876
0.00125117
0.000114853
0.00126305
0.000110588
0.00127458
0.000106072
0.00128575
0.000101294
0.00129654
9.62434e-05
0.00130694
9.09098e-05
0.00131692
8.52821e-05
0.00132648
7.93489e-05
0.00133558
7.30987e-05
0.00134423
6.65196e-05
0.0013524
5.95995e-05
0.00136007
5.23263e-05
0.00136722
4.46877e-05
0.00137385
3.66715e-05
0.00137993
2.82659e-05
0.00138544
1.94593e-05