/*--------------------------------*- C++ -*----------------------------------*\
| =========                 |                                                 |
| \\      /  F ield         | OpenFOAM: The Open Source CFD Toolbox           |
|  \\    /   O peration     | Version:  2312                                  |
|   \\  /    A nd           | Website:  www.openfoam.com                      |
|    \\/     M anipulation  |                                                 |
\*---------------------------------------------------------------------------*/
FoamFile
{
    version     2.0;
    format      ascii;
    arch        "LSB;label=32;scalar=64";
    class       volVectorField;
    location    "600";
    object      U;
}
// * * * * * * * * * * * * * * * * * * * * * * * * * * * * * * * * * * * * * //

dimensions      [0 1 -1 0 0 0 0];

internalField   nonuniform List<vector> 
76025
(
(0.0395173 -0.00919598 0)
(0.0397454 -0.00920921 -4.31447e-23)
(0.0399748 -0.00921648 0)
(0.0402065 -0.00921802 0)
(0.0404378 -0.00921569 2.23331e-22)
(0.040679 -0.0091987 5.82351e-22)
(0.0409184 -0.00918208 -1.11658e-21)
(0.0411617 -0.00915349 5.05548e-22)
(0.041402 -0.00912166 2.15072e-22)
(0.0416413 -0.00908306 -2.39586e-22)
(0.0418828 -0.00903634 1.76502e-23)
(0.042127 -0.00897958 -8.7353e-22)
(0.0423728 -0.00891808 1.16279e-21)
(0.0426163 -0.00884638 0)
(0.0428612 -0.00876202 -3.61338e-22)
(0.0431009 -0.00867827 0)
(0.0433424 -0.00857641 0)
(0.043581 -0.00847588 0)
(0.0438186 -0.0083593 -4.34545e-22)
(0.0440522 -0.00824198 4.88918e-22)
(0.0442839 -0.00810978 5.12326e-22)
(0.0445131 -0.00797192 1.57652e-21)
(0.0447356 -0.00782504 -1.07226e-21)
(0.0449559 -0.00766668 -1.75175e-21)
(0.0451731 -0.00750292 -4.48989e-23)
(0.0453858 -0.0073339 -6.84497e-22)
(0.0455962 -0.00714672 1.94405e-21)
(0.0457987 -0.00695551 -1.97953e-21)
(0.046 -0.00675105 6.7666e-22)
(0.0461942 -0.00653513 -6.9913e-22)
(0.0463781 -0.00632915 -7.25598e-22)
(0.0465585 -0.00610853 1.55544e-21)
(0.0467349 -0.00586845 -2.35013e-21)
(0.0469042 -0.00562967 -4.20091e-22)
(0.0470655 -0.00537614 2.11581e-21)
(0.0472183 -0.00512153 1.07763e-23)
(0.0473655 -0.00485306 -4.29389e-22)
(0.0475075 -0.00457023 2.25068e-22)
(0.0476422 -0.00429019 1.00746e-23)
(0.0477627 -0.00399786 -3.3544e-22)
(0.0478718 -0.00370072 2.23549e-22)
(0.0479757 -0.003389 -1.09999e-22)
(0.048071 -0.00305993 2.18681e-22)
(0.0481527 -0.0027311 -4.42887e-22)
(0.0482191 -0.00239153 -4.53103e-22)
(0.0482748 -0.00204685 8.66733e-22)
(0.04832 -0.00168508 8.91634e-22)
(0.0483485 -0.00131834 -2.69808e-21)
(0.04836 -0.000943393 1.73429e-21)
(0.0483589 -0.00056046 -3.89035e-23)
(0.048341 -0.000167193 -4.38181e-21)
(0.0483043 0.000239177 -1.68581e-21)
(0.048251 0.000655962 1.74411e-21)
(0.0481768 0.00108324 0)
(0.0480725 0.00151794 -1.62967e-21)
(0.0479477 0.0019612 -1.68521e-21)
(0.0477985 0.00241771 3.02955e-23)
(0.0476156 0.00289131 -1.59339e-21)
(0.0473994 0.00338231 1.53852e-21)
(0.0471506 0.00388479 -4.43303e-21)
(0.0468755 0.00438177 -2.98818e-21)
(0.0465469 0.00490943 -1.77515e-22)
(0.0461709 0.00545432 0)
(0.0457427 0.00601146 6.51123e-21)
(0.0452469 0.00658096 -2.2856e-21)
(0.0446786 0.00717423 1.18959e-21)
(0.0440338 0.0078026 -2.04877e-21)
(0.0432935 0.00843727 2.0545e-21)
(0.0424314 0.00904232 3.49602e-21)
(0.039497 -0.00960173 -2.83238e-23)
(0.0397343 -0.00961485 -2.04749e-22)
(0.0399734 -0.00962108 2.48505e-22)
(0.0402154 -0.00962083 0)
(0.040459 -0.00961445 -6.79103e-22)
(0.0407075 -0.00959953 -1.05004e-22)
(0.040957 -0.00957826 6.61163e-22)
(0.041209 -0.00954896 0)
(0.0414623 -0.00951247 1.84458e-23)
(0.0417157 -0.00946863 2.46801e-22)
(0.0419698 -0.00941707 -2.72185e-22)
(0.0422245 -0.00935691 2.21546e-23)
(0.0424795 -0.00928892 0)
(0.0427349 -0.00921229 0)
(0.0429906 -0.00912603 -8.23556e-22)
(0.043244 -0.00903294 2.02333e-21)
(0.0434972 -0.0089294 4.52723e-22)
(0.0437481 -0.00881873 -1.4335e-21)
(0.0439974 -0.00869829 9.54695e-22)
(0.0442435 -0.00857012 -5.01585e-22)
(0.0444875 -0.00843227 5.81951e-22)
(0.0447279 -0.00828581 -1.1105e-21)
(0.0449643 -0.00813026 1.21135e-21)
(0.0451968 -0.00796499 -1.87403e-21)
(0.0454254 -0.00779101 1.2667e-21)
(0.04565 -0.00760876 2.02031e-21)
(0.04587 -0.00741648 -1.37211e-21)
(0.0460834 -0.00721582 0)
(0.046292 -0.00700514 0)
(0.0464955 -0.00678549 -7.96429e-22)
(0.0466938 -0.00655683 0)
(0.0468865 -0.00632 -8.49072e-22)
(0.0470713 -0.00607369 8.63178e-22)
(0.0472481 -0.00581974 -1.31972e-21)
(0.0474172 -0.00555648 2.21776e-23)
(0.0475785 -0.0052842 -4.54369e-22)
(0.0477327 -0.00500071 0)
(0.047879 -0.00470968 -9.53226e-22)
(0.0480166 -0.0044115 7.21452e-22)
(0.0481437 -0.00410509 -5.9495e-22)
(0.0482599 -0.00378807 3.60407e-22)
(0.0483664 -0.00346055 -3.85772e-24)
(0.0484623 -0.00312667 1.29144e-22)
(0.0485459 -0.00278516 -1.20361e-22)
(0.048617 -0.002434 9.81131e-22)
(0.0486755 -0.00207165 -4.93486e-22)
(0.048721 -0.00170046 -5.0655e-22)
(0.0487517 -0.00132186 9.37126e-22)
(0.0487665 -0.000931379 2.86384e-21)
(0.0487657 -0.000529307 -2.01298e-23)
(0.048748 -0.000117613 2.7998e-21)
(0.0487114 0.000305319 -9.31309e-22)
(0.0486558 0.000738978 -2.71964e-21)
(0.0485793 0.00118203 1.82365e-21)
(0.0484788 0.0016345 0)
(0.048352 0.00210431 5.30741e-21)
(0.0482003 0.00258368 -1.32811e-23)
(0.0480181 0.00307684 -1.71391e-21)
(0.047805 0.00358331 -1.71811e-21)
(0.0475594 0.00410347 0)
(0.0472763 0.0046432 1.50191e-21)
(0.0469529 0.00519651 4.51453e-21)
(0.0465814 0.00576551 0)
(0.0461553 0.00635232 -2.73082e-21)
(0.0456618 0.00696028 1.51829e-21)
(0.0450854 0.00759834 -2.52956e-21)
(0.0444222 0.00826039 1.20753e-21)
(0.0436541 0.00893406 -2.11326e-21)
(0.042751 0.0096432 -1.86895e-21)
(0.0394778 -0.0100306 2.14601e-22)
(0.0397259 -0.0100429 -1.22014e-22)
(0.0399763 -0.0100481 9.46928e-23)
(0.0402299 -0.0100466 -5.15076e-22)
(0.0404856 -0.0100379 6.63942e-22)
(0.0407435 -0.0100215 7.32665e-22)
(0.0410036 -0.00999738 -9.37312e-22)
(0.041266 -0.00996544 0)
(0.0415304 -0.00992547 2.02766e-23)
(0.0417962 -0.00987738 0)
(0.0420624 -0.00982104 3.17702e-22)
(0.0423289 -0.00975621 -3.21803e-22)
(0.0425954 -0.00968278 -1.86963e-21)
(0.0428615 -0.00960063 1.49496e-21)
(0.0431276 -0.00950949 -4.01814e-22)
(0.043393 -0.0094094 -1.33943e-21)
(0.0436573 -0.00930027 4.55814e-22)
(0.0439201 -0.00918197 4.81702e-22)
(0.0441807 -0.00905462 1.61289e-21)
(0.0444389 -0.00891788 -1.074e-21)
(0.044694 -0.00877191 -5.94934e-22)
(0.0449457 -0.00861663 1.23423e-21)
(0.0451937 -0.00845204 -5.86767e-22)
(0.0454378 -0.00827784 -6.77374e-22)
(0.0456777 -0.00809434 0)
(0.0459127 -0.00790166 7.32489e-22)
(0.0461425 -0.00769975 7.42494e-22)
(0.0463668 -0.00748824 -7.21201e-22)
(0.0465855 -0.00726703 0)
(0.0467985 -0.00703657 1.64005e-21)
(0.0470056 -0.00679656 -8.68191e-22)
(0.0472058 -0.00654805 -4.4244e-23)
(0.0473984 -0.00629068 0)
(0.0475832 -0.00602415 4.51419e-22)
(0.0477601 -0.00574845 -1.42522e-21)
(0.0479287 -0.00546338 9.67946e-22)
(0.0480888 -0.00516908 0)
(0.0482402 -0.00486603 7.4452e-22)
(0.0483824 -0.00455426 -7.52938e-22)
(0.0485144 -0.00423379 -1.22908e-22)
(0.0486356 -0.00390378 0)
(0.0487459 -0.00356441 -2.53455e-22)
(0.0488453 -0.00321624 -1.27495e-22)
(0.0489328 -0.00285879 1.21191e-22)
(0.0490076 -0.00249175 -7.48013e-22)
(0.0490691 -0.00211491 -5.18673e-22)
(0.0491168 -0.00172855 9.8671e-22)
(0.04915 -0.00133243 -1.00829e-21)
(0.0491673 -0.000925642 1.02304e-21)
(0.0491683 -0.000508272 -9.92386e-22)
(0.0491521 -8.0498e-05 -9.6396e-22)
(0.0491174 0.000358434 2.00687e-21)
(0.0490631 0.000808693 0)
(0.0489878 0.00127028 1.96574e-21)
(0.0488893 0.00174387 5.42265e-23)
(0.0487658 0.00223116 -1.86302e-21)
(0.0486166 0.00273131 -1.82576e-21)
(0.0484388 0.00324592 3.59483e-21)
(0.0482303 0.00377607 -5.61335e-23)
(0.0479886 0.00432258 1.77051e-21)
(0.0477101 0.00488646 -3.44781e-21)
(0.0473899 0.00546771 -1.73995e-21)
(0.0470197 0.00606913 -3.03625e-23)
(0.0465901 0.0066926 -1.51131e-21)
(0.0460891 0.00734003 -1.34325e-21)
(0.0455028 0.00801441 -4.17463e-21)
(0.0448204 0.00871582 0)
(0.0440224 0.00943895 -1.16478e-21)
(0.0431031 0.0102079 1.09285e-21)
(0.0394576 -0.0104832 0)
(0.0397184 -0.010495 -6.74061e-23)
(0.0399815 -0.0104994 -5.60632e-22)
(0.0402475 -0.0104965 4.63958e-22)
(0.0405159 -0.010486 5.43195e-22)
(0.0407862 -0.0104673 -8.89898e-22)
(0.0410583 -0.0104405 2.07051e-22)
(0.0413322 -0.0104054 -2.55951e-22)
(0.0416078 -0.0103619 -2.63246e-22)
(0.0418849 -0.0103098 -1.26776e-21)
(0.0421629 -0.0102488 1.29079e-21)
(0.0424414 -0.010179 1.49722e-21)
(0.04272 -0.0101 -3.14126e-22)
(0.0429983 -0.0100119 -1.66741e-21)
(0.0432759 -0.0099146 1.32276e-21)
(0.0435528 -0.00980772 -4.89968e-22)
(0.0438285 -0.00969129 5.18878e-22)
(0.0441025 -0.00956537 5.4765e-22)
(0.0443744 -0.00942992 -1.6872e-21)
(0.0446438 -0.00928485 5.40341e-22)
(0.0449101 -0.00913011 5.97633e-22)
(0.045173 -0.00896572 0)
(0.0454321 -0.00879159 1.40603e-21)
(0.045687 -0.0086077 -6.90812e-22)
(0.0459374 -0.0084141 -1.47852e-21)
(0.0461827 -0.00821088 -1.56145e-21)
(0.0464226 -0.00799794 3.10495e-21)
(0.0466568 -0.00777515 -1.62133e-21)
(0.0468849 -0.00754258 0)
(0.0471067 -0.00730046 -1.73076e-21)
(0.0473217 -0.00704901 -3.32512e-23)
(0.0475296 -0.0067884 1.80384e-21)
(0.0477299 -0.00651844 -9.56528e-22)
(0.0479223 -0.00623905 2.44494e-21)
(0.0481063 -0.00595033 -4.76702e-22)
(0.0482817 -0.00565224 0)
(0.048448 -0.00534492 0)
(0.048605 -0.00502841 2.67431e-22)
(0.0487523 -0.00470282 2.56356e-22)
(0.0488892 -0.00436822 1.35181e-22)
(0.0490153 -0.0040243 -4.23991e-24)
(0.0491303 -0.00367094 1.2967e-22)
(0.0492339 -0.00330826 0)
(0.0493252 -0.00293622 -1.26382e-23)
(0.0494037 -0.00255463 0)
(0.0494687 -0.00216319 5.07161e-22)
(0.0495197 -0.00176173 3.73217e-24)
(0.0495558 -0.00135011 -1.60508e-21)
(0.0495763 -0.000927918 0)
(0.0495803 -0.000494809 -1.04399e-21)
(0.049567 -5.05455e-05 1.03318e-21)
(0.0495352 0.000405278 -2.00369e-21)
(0.0494839 0.000873027 0)
(0.0494118 0.00135304 -6.03364e-21)
(0.0493171 0.00184591 5.07986e-23)
(0.0491984 0.00235273 1.96534e-21)
(0.0490541 0.00287406 1.92997e-21)
(0.0488821 0.00341084 0)
(0.0486798 0.00396424 0)
(0.0484441 0.00453541 -1.75674e-21)
(0.0481703 0.00512573 3.41467e-21)
(0.047852 0.00573655 3.30517e-21)
(0.0474802 0.0063699 0)
(0.0470442 0.00702785 -3.26819e-21)
(0.0465316 0.00771219 0)
(0.0459291 0.00842486 4.17229e-21)
(0.0452252 0.00916663 -1.37514e-21)
(0.0444031 0.00993418 -1.25979e-21)
(0.0434614 0.010756 -1.25806e-21)
(0.0394345 -0.0109601 0)
(0.0397096 -0.0109717 0)
(0.0399867 -0.0109754 -1.25982e-22)
(0.0402666 -0.0109714 6.51095e-22)
(0.0405489 -0.010959 -8.36743e-22)
(0.040833 -0.0109381 1.98202e-22)
(0.0411187 -0.0109084 0)
(0.0414057 -0.0108701 2.5681e-22)
(0.0416941 -0.0108229 0)
(0.0419835 -0.0107665 6.85881e-22)
(0.042274 -0.0107008 8.78709e-23)
(0.0425651 -0.0106256 -7.45518e-22)
(0.0428563 -0.0105407 0)
(0.0431472 -0.0104462 9.25232e-22)
(0.0434371 -0.010342 -2.86399e-21)
(0.0437258 -0.010228 1.99395e-21)
(0.0440131 -0.0101041 -2.66734e-21)
(0.0442988 -0.00997007 5.53791e-22)
(0.0445823 -0.00982593 -6.15408e-22)
(0.0448632 -0.00967164 6.07126e-22)
(0.045141 -0.00950723 6.61527e-22)
(0.0454149 -0.00933283 -2.03878e-21)
(0.0456846 -0.00914869 -1.42312e-21)
(0.0459498 -0.00895441 0)
(0.0462103 -0.00874988 1.56425e-21)
(0.0464657 -0.00853525 8.29324e-22)
(0.0467153 -0.00831047 -2.4319e-21)
(0.0469589 -0.0080757 8.33016e-22)
(0.0471959 -0.00783114 -1.79123e-21)
(0.0474263 -0.00757691 2.68736e-21)
(0.0476496 -0.00731313 -9.65463e-22)
(0.0478655 -0.00703979 4.9695e-22)
(0.0480735 -0.00675682 0)
(0.0482731 -0.00646425 -4.99295e-22)
(0.0484641 -0.0061622 -5.12982e-22)
(0.0486461 -0.00585069 0)
(0.0488187 -0.00552984 5.56813e-22)
(0.0489816 -0.00519976 -8.18103e-22)
(0.0491344 -0.00486036 5.45874e-22)
(0.0492766 -0.00451161 -2.76692e-22)
(0.0494078 -0.00415345 -4.65271e-24)
(0.0495276 -0.00378572 -2.12376e-22)
(0.0496354 -0.00340848 6.9147e-23)
(0.0497307 -0.00302173 2.71794e-22)
(0.049813 -0.00262521 1.14069e-23)
(0.0498817 -0.00221867 1.66316e-21)
(0.0499362 -0.00180188 0)
(0.0499759 -0.00137464 1.07698e-21)
(0.0499999 -0.00093659 -2.49912e-23)
(0.0500076 -0.000487338 -1.0883e-21)
(0.049998 -2.65379e-05 0)
(0.0499703 0.000446227 -1.07537e-21)
(0.0499233 0.000931451 1.06364e-21)
(0.049856 0.00142968 2.05449e-21)
(0.0497668 0.00194162 0)
(0.0496543 0.00246822 -4.04741e-21)
(0.0495166 0.00301037 4.03643e-21)
(0.0493515 0.00356918 -3.96333e-21)
(0.0491559 0.00414596 -5.15334e-23)
(0.0489253 0.00474223 0)
(0.048654 0.00535958 -1.83438e-21)
(0.0483342 0.00599985 1.72775e-21)
(0.0479559 0.00666491 1.83108e-21)
(0.0475079 0.00735675 3.20933e-21)
(0.0469783 0.00807686 -4.87053e-21)
(0.0463551 0.00882651 3.0361e-21)
(0.0456284 0.00960666 -1.46441e-21)
(0.0447836 0.0104146 1.5235e-21)
(0.043826 0.0112799 3.70516e-21)
(0.0394069 -0.0114634 3.43764e-22)
(0.0396976 -0.0114748 1.27003e-22)
(0.0399902 -0.0114777 -4.92999e-22)
(0.0402854 -0.0114724 0)
(0.0405828 -0.0114582 1.88267e-22)
(0.040882 -0.0114349 0)
(0.0411828 -0.0114022 -5.53829e-22)
(0.0414846 -0.0113603 -6.42012e-23)
(0.0417873 -0.011309 9.52131e-22)
(0.0420907 -0.0112481 -3.69578e-22)
(0.0423947 -0.0111773 -3.72603e-22)
(0.0426991 -0.0110965 -4.34234e-22)
(0.0430036 -0.0110055 0)
(0.0433077 -0.0109042 0)
(0.0436108 -0.0107926 4.95151e-22)
(0.0439126 -0.0106708 5.25381e-22)
(0.0442126 -0.0105386 -1.17672e-21)
(0.0445103 -0.0103962 1.17627e-21)
(0.0448055 -0.0102431 1.27056e-21)
(0.045098 -0.0100793 -1.35924e-21)
(0.0453871 -0.00990483 2.73767e-21)
(0.0456726 -0.0097196 1.52523e-23)
(0.0459535 -0.0095241 -1.52227e-21)
(0.0462293 -0.00931854 -8.06664e-22)
(0.0465 -0.00910257 -1.65298e-21)
(0.0467652 -0.00887621 1.65757e-21)
(0.0470244 -0.0086395 1.7716e-21)
(0.0472776 -0.00839265 -1.7776e-21)
(0.0475239 -0.00813564 0)
(0.0477631 -0.00786861 0)
(0.0479947 -0.00759164 2.47172e-21)
(0.0482184 -0.0073047 5.01514e-23)
(0.0484337 -0.00700794 -1.03414e-21)
(0.0486402 -0.00670148 -1.08498e-21)
(0.0488377 -0.0063855 1.09141e-21)
(0.049026 -0.00606008 0)
(0.0492047 -0.00572523 -5.53607e-22)
(0.0493733 -0.00538094 -8.68401e-22)
(0.0495317 -0.00502722 5.69833e-22)
(0.0496791 -0.004664 -7.06138e-24)
(0.0498152 -0.00429124 -4.54231e-23)
(0.0499396 -0.00390887 2.13693e-22)
(0.0500518 -0.00351681 1.4883e-22)
(0.0501514 -0.003115 2.91824e-22)
(0.0502378 -0.00270327 -1.43874e-21)
(0.0503106 -0.00228141 1.08982e-23)
(0.0503692 -0.00184916 0)
(0.0504129 -0.00140623 -1.18056e-21)
(0.0504412 -0.000952267 3.4438e-21)
(0.0504533 -0.000486855 -2.30554e-21)
(0.0504485 -9.55645e-06 -1.13373e-21)
(0.0504259 0.000480131 -3.07657e-23)
(0.0503846 0.000982802 -1.08476e-21)
(0.0503234 0.00149914 -1.47631e-24)
(0.050241 0.00202997 2.17427e-21)
(0.0501357 0.00257629 -2.20278e-21)
(0.0500053 0.00313925 -2.10647e-21)
(0.0498468 0.00372015 4.14102e-21)
(0.049656 0.00432053 -5.98008e-23)
(0.0494274 0.00494211 1.97246e-21)
(0.0491539 0.00558668 -1.93277e-21)
(0.0488266 0.00625614 1.8117e-21)
(0.0484354 0.0069522 -3.49841e-21)
(0.0479695 0.0076766 -1.72862e-21)
(0.0474184 0.0084305 3.25958e-21)
(0.0467719 0.00921489 -1.71983e-21)
(0.0460224 0.0100309 -4.74662e-21)
(0.0451578 0.0108761 -1.35266e-21)
(0.0441858 0.0117812 0)
(0.0393746 -0.0119952 0)
(0.0396819 -0.0120062 1.30787e-22)
(0.0399911 -0.0120081 -1.99977e-23)
(0.0403028 -0.0120013 0)
(0.0406166 -0.0119852 0)
(0.0409319 -0.0119593 2.66599e-22)
(0.0412489 -0.0119235 -9.06889e-22)
(0.0415668 -0.0118777 1.27683e-21)
(0.0418854 -0.0118221 -6.41353e-22)
(0.0422044 -0.0117563 3.70656e-22)
(0.0425236 -0.0116801 0)
(0.0428427 -0.0115933 4.35085e-22)
(0.0431616 -0.0114958 -5.01995e-22)
(0.0434797 -0.0113875 0)
(0.0437968 -0.0112683 0)
(0.0441124 -0.0111381 5.92617e-22)
(0.0444259 -0.0109971 6.44356e-23)
(0.0447368 -0.0108451 -1.2562e-21)
(0.0450448 -0.0106822 -1.34005e-21)
(0.0453494 -0.0105082 1.38276e-21)
(0.0456505 -0.0103232 7.16792e-22)
(0.0459474 -0.0101271 3.10826e-21)
(0.0462397 -0.00991998 3.24764e-23)
(0.0465266 -0.00970221 -8.81617e-22)
(0.046808 -0.00947383 1.69097e-21)
(0.0470833 -0.00923481 -8.91371e-22)
(0.0473525 -0.00898498 1.81185e-21)
(0.047615 -0.00872463 0)
(0.0478699 -0.0084541 0)
(0.0481172 -0.00817324 0)
(0.0483563 -0.00788248 -5.04295e-22)
(0.0485871 -0.00758171 -1.04937e-21)
(0.0488093 -0.00727076 1.08457e-21)
(0.0490227 -0.00695013 1.13718e-21)
(0.049227 -0.00662002 -1.14383e-21)
(0.0494219 -0.00628052 0)
(0.049607 -0.00593137 5.96988e-22)
(0.0497819 -0.0055725 -3.00299e-22)
(0.049946 -0.00520395 0)
(0.0500988 -0.00482577 3.01112e-22)
(0.0502401 -0.00443797 -5.63708e-23)
(0.0503693 -0.00404051 3.75711e-23)
(0.0504862 -0.0036333 -1.47854e-22)
(0.0505904 -0.00321626 0)
(0.0506812 -0.0027892 -6.07896e-22)
(0.0507584 -0.0023519 6.01604e-22)
(0.0508214 -0.00190408 0)
(0.0508698 -0.00144544 -3.17773e-23)
(0.0509029 -0.000975582 2.44087e-23)
(0.0509203 -0.000494056 1.1603e-21)
(0.0509212 -3.45e-07 0)
(0.0509048 0.000506147 -5.84364e-23)
(0.0508702 0.00102613 -1.13152e-21)
(0.0508162 0.00156042 -3.4728e-21)
(0.0507411 0.00211 -6.20508e-23)
(0.0506427 0.00267603 2.1762e-21)
(0.0505182 0.00325986 0)
(0.0503634 0.003863 0)
(0.050173 0.00448713 2.17085e-21)
(0.0499405 0.00513406 0)
(0.0496577 0.00580555 0)
(0.0493157 0.00650337 -6.9597e-23)
(0.048905 0.00722897 -1.89229e-21)
(0.0484163 0.00798383 -3.69964e-21)
(0.0478409 0.00876889 3.59802e-21)
(0.047171 0.00958521 -2.47579e-22)
(0.0464008 0.0104341 1.54061e-21)
(0.04552 0.0113131 1.61452e-21)
(0.0445372 0.012253 0)
(0.0393386 -0.012558 0)
(0.0396631 -0.0125683 -1.3089e-22)
(0.0399896 -0.0125691 5.5057e-22)
(0.040319 -0.0125607 -1.61635e-22)
(0.0406503 -0.0125423 0)
(0.0409831 -0.0125137 -8.60792e-22)
(0.0413171 -0.0124747 1.55608e-21)
(0.0416522 -0.0124252 7.05689e-23)
(0.041988 -0.012365 -1.89865e-21)
(0.042324 -0.0122938 3.64026e-22)
(0.0426598 -0.0122117 -4.7008e-22)
(0.0429952 -0.0121184 -5.05113e-22)
(0.0433298 -0.0120138 1.57604e-21)
(0.0436633 -0.0118978 -2.21479e-21)
(0.0439952 -0.0117705 1.14094e-21)
(0.0443253 -0.0116316 -6.75028e-22)
(0.0446533 -0.0114811 2.61881e-21)
(0.0449783 -0.0113191 -6.30659e-22)
(0.0453001 -0.0111456 7.74879e-22)
(0.0456181 -0.0109605 -7.1297e-22)
(0.0459318 -0.010764 6.37044e-23)
(0.046241 -0.0105561 -4.8974e-21)
(0.046545 -0.0103368 -8.84776e-22)
(0.0468435 -0.0101064 -6.0424e-23)
(0.0471359 -0.00986491 2.72733e-21)
(0.0474218 -0.00961244 -9.15098e-22)
(0.0477009 -0.00934902 1.97101e-21)
(0.0479727 -0.00907449 -3.00677e-21)
(0.0482369 -0.0087894 0)
(0.048493 -0.00849384 -1.07526e-21)
(0.0487406 -0.00818813 1.07967e-21)
(0.0489796 -0.0078727 3.01486e-23)
(0.0492096 -0.00754728 -5.93372e-22)
(0.0494305 -0.00721201 -6.08471e-22)
(0.0496419 -0.00686716 1.84643e-21)
(0.0498436 -0.00651281 -1.21798e-21)
(0.0500348 -0.00614869 9.40879e-22)
(0.0502154 -0.00577475 -1.24357e-21)
(0.0503847 -0.00539095 6.20299e-22)
(0.0505425 -0.00499744 -1.53064e-22)
(0.0506883 -0.00459423 0)
(0.050822 -0.00418129 1.58397e-22)
(0.050943 -0.00375858 -1.5678e-22)
(0.0510513 -0.003326 -3.16834e-22)
(0.0511463 -0.0028834 9.4639e-22)
(0.0512278 -0.00243055 -6.39623e-22)
(0.0512954 -0.00196718 -6.24673e-22)
(0.0513488 -0.0014929 0)
(0.0513875 -0.0010073 -2.52185e-21)
(0.0514109 -0.000509828 2.47147e-21)
(0.0514183 1.14776e-07 -1.19514e-21)
(0.0514089 0.000523251 1.18307e-21)
(0.0513814 0.00106043 1.23293e-21)
(0.0513342 0.00161263 2.35153e-21)
(0.0512651 0.00218101 2.29249e-21)
(0.0511711 0.00276689 0)
(0.0510481 0.00337179 -2.33984e-21)
(0.0508912 0.00399729 0)
(0.0506941 0.00464514 5.61816e-23)
(0.0504496 0.00531699 -2.06856e-21)
(0.0501495 0.00601445 2.08224e-21)
(0.0497859 0.006739 1.96251e-21)
(0.0493505 0.00749182 -2.02917e-21)
(0.0488363 0.00827429 -5.2568e-23)
(0.0482366 0.00908723 6.83838e-23)
(0.0475457 0.00993223 5.36904e-21)
(0.0467595 0.0108108 1.83361e-21)
(0.045869 0.011722 1.7202e-21)
(0.0448811 0.0126949 -1.64425e-21)
(0.0393004 -0.0131547 0)
(0.0396427 -0.0131643 0)
(0.0399874 -0.0131638 4.34042e-22)
(0.0403351 -0.0131535 -6.54955e-22)
(0.0406848 -0.0131326 -2.86341e-22)
(0.0410361 -0.0131008 0)
(0.0413886 -0.0130579 0)
(0.0417419 -0.0130039 3.96419e-22)
(0.0420953 -0.0129387 -8.65519e-22)
(0.042449 -0.0128619 -1.10048e-22)
(0.0428026 -0.0127733 2.4146e-21)
(0.0431554 -0.012673 -5.0465e-22)
(0.0435072 -0.0125607 5.71884e-22)
(0.0438574 -0.0124365 -1.15073e-21)
(0.0442057 -0.0123003 6.522e-22)
(0.0445517 -0.012152 0)
(0.0448949 -0.0119916 0)
(0.0452349 -0.0118191 3.12686e-23)
(0.0455713 -0.0116344 -2.29364e-21)
(0.0459035 -0.0114376 7.76468e-22)
(0.0462312 -0.0112287 -8.61276e-22)
(0.0465537 -0.0110079 8.40278e-22)
(0.0468705 -0.0107756 8.99802e-22)
(0.0471813 -0.0105317 -8.67987e-22)
(0.0474855 -0.0102765 -9.33307e-22)
(0.0477829 -0.01001 0)
(0.0480729 -0.00973233 0)
(0.0483554 -0.00944353 1.56735e-21)
(0.0486299 -0.00914399 0)
(0.048896 -0.00883376 1.12812e-21)
(0.0491532 -0.00851328 -1.13202e-21)
(0.0494013 -0.00818276 -5.72589e-22)
(0.0496398 -0.00784222 5.87373e-22)
(0.0498685 -0.007492 1.23603e-21)
(0.050087 -0.00713168 -6.15937e-22)
(0.0502948 -0.00676133 -6.44213e-22)
(0.0504912 -0.00638043 6.55813e-22)
(0.0506762 -0.00598942 0)
(0.0508495 -0.00558883 0)
(0.0510108 -0.00517871 1.6756e-22)
(0.0511601 -0.00475932 0)
(0.0512971 -0.0043305 0)
(0.0514217 -0.00389211 -4.97547e-22)
(0.0515339 -0.00344401 6.62064e-22)
(0.0516332 -0.00298602 -3.35613e-22)
(0.0517195 -0.00251785 6.3774e-22)
(0.0517925 -0.00203916 0)
(0.0518518 -0.00154952 1.96544e-21)
(0.0518967 -0.00104839 -2.63149e-23)
(0.0519268 -0.000535158 0)
(0.0519409 -9.08024e-06 -2.54508e-21)
(0.0519379 0.000530698 -3.02577e-23)
(0.051916 0.00108517 -2.46059e-21)
(0.0518729 0.00165549 -1.26407e-21)
(0.0518056 0.00224295 -2.43113e-21)
(0.0517101 0.00284897 2.38887e-21)
(0.0515815 0.00347509 2.28849e-21)
(0.051414 0.00412288 0)
(0.0512012 0.00479388 -2.25323e-21)
(0.0509361 0.00548951 6.19272e-23)
(0.0506117 0.00621111 0)
(0.0502214 0.00695986 0)
(0.049759 0.00773681 1.98838e-21)
(0.0492195 0.00854333 0)
(0.0485982 0.00938034 0)
(0.0478916 0.0102502 -1.93453e-21)
(0.0470969 0.0111545 -1.76378e-21)
(0.0462071 0.012096 -1.95217e-21)
(0.0452239 0.0131024 0)
(0.0392612 -0.0137884 0)
(0.039622 -0.0137971 0)
(0.0399853 -0.0137951 0)
(0.0403521 -0.0137824 -2.77885e-22)
(0.0407212 -0.0137586 -3.52983e-22)
(0.0410917 -0.0137231 -7.73132e-23)
(0.0414635 -0.0136758 7.10568e-22)
(0.041836 -0.0136167 -3.94776e-22)
(0.0422087 -0.0135456 4.69758e-22)
(0.0425812 -0.0134625 9.7588e-22)
(0.0429533 -0.0133671 0)
(0.0433246 -0.0132593 0)
(0.0436944 -0.0131388 -3.45398e-23)
(0.0440625 -0.0130058 1.89178e-21)
(0.0444283 -0.01286 -2.72474e-21)
(0.0447913 -0.0127017 -7.29821e-23)
(0.0451511 -0.0125305 1.45068e-21)
(0.0455072 -0.0123469 7.54312e-22)
(0.0458592 -0.0121505 -5.42754e-23)
(0.0462066 -0.0119414 0)
(0.0465489 -0.0117199 1.77034e-21)
(0.0468858 -0.0114859 0)
(0.0472165 -0.0112397 1.9026e-21)
(0.0475405 -0.0109816 -2.94861e-21)
(0.0478576 -0.0107115 3.03883e-21)
(0.048167 -0.01043 1.07561e-21)
(0.0484684 -0.010137 -1.64117e-21)
(0.0487616 -0.00983278 1.66983e-21)
(0.0490461 -0.00951762 -1.11878e-21)
(0.0493215 -0.00919143 0)
(0.0495877 -0.00885475 -1.20392e-21)
(0.0498436 -0.00850758 -6.52359e-22)
(0.0500894 -0.0081495 1.23415e-21)
(0.0503243 -0.00778139 -1.27336e-21)
(0.0505477 -0.00740374 6.54777e-22)
(0.0507594 -0.00701652 -6.50694e-22)
(0.05096 -0.00661957 -3.23526e-22)
(0.0511493 -0.00621234 3.43826e-22)
(0.0513273 -0.00579551 1.66168e-22)
(0.0514934 -0.00536929 -5.01129e-22)
(0.0516477 -0.00493385 -4.35166e-23)
(0.0517899 -0.00448921 0)
(0.05192 -0.00403526 1.65859e-22)
(0.0520377 -0.00357182 -3.31525e-22)
(0.052143 -0.00309862 3.30978e-22)
(0.0522355 -0.00261531 0)
(0.0523149 -0.00212144 0)
(0.0523806 -0.00161647 6.90477e-22)
(0.0524318 -0.00109979 -1.32794e-21)
(0.0524676 -0.000570634 -2.68267e-21)
(0.0524865 -2.81542e-05 5.24731e-21)
(0.0524868 0.000528639 -1.32921e-21)
(0.0524659 0.00110087 1.28083e-21)
(0.0524208 0.00168977 1.23582e-21)
(0.0523476 0.00229669 -2.50012e-21)
(0.0522417 0.00292302 2.45375e-21)
(0.0520978 0.00357018 0)
(0.0519104 0.0042395 -2.43361e-21)
(0.0516733 0.00493228 6.57791e-23)
(0.051381 0.00564961 2.27302e-21)
(0.0510277 0.0063926 0)
(0.050609 0.00716224 0)
(0.0501204 0.00795961 0)
(0.049559 0.00878614 4.27372e-21)
(0.0489213 0.00964309 2.13916e-21)
(0.0482062 0.0105334 1.9801e-21)
(0.0474112 0.0114588 -4.02176e-21)
(0.0465327 0.0124246 -1.50434e-22)
(0.0455803 0.0134549 2.05788e-21)
(0.0392216 -0.0144621 0)
(0.0396023 -0.0144697 -4.63747e-22)
(0.0399852 -0.0144658 5.96443e-22)
(0.0403718 -0.0144507 -5.01055e-22)
(0.0407609 -0.0144235 9.69463e-22)
(0.0411517 -0.0143839 3.89299e-22)
(0.0415437 -0.0143318 4.29206e-22)
(0.0419365 -0.0142672 0)
(0.0423294 -0.0141899 -9.75039e-22)
(0.042722 -0.0140999 -1.04505e-21)
(0.0431138 -0.0139968 1.08688e-21)
(0.0435044 -0.0138807 -6.26916e-22)
(0.0438934 -0.0137513 7.0151e-22)
(0.0442803 -0.0136086 -5.76758e-22)
(0.0446646 -0.0134525 -2.91303e-21)
(0.0450456 -0.0132832 -7.54354e-23)
(0.0454231 -0.0131006 -7.44714e-23)
(0.0457963 -0.0129047 1.61466e-21)
(0.0461649 -0.0126956 8.34298e-22)
(0.0465283 -0.0124733 1.82932e-21)
(0.0468861 -0.0122379 -1.76722e-21)
(0.0472376 -0.0119897 0)
(0.0475824 -0.0117287 6.32772e-23)
(0.04792 -0.0114552 0)
(0.0482497 -0.0111693 -1.03177e-21)
(0.048571 -0.0108713 -1.06209e-21)
(0.0488835 -0.0105616 5.46193e-22)
(0.049187 -0.0102402 0)
(0.0494806 -0.00990758 6.09629e-22)
(0.0497646 -0.00956347 1.22608e-21)
(0.0500381 -0.00920839 -1.22561e-21)
(0.0503005 -0.00884312 6.16657e-22)
(0.0505521 -0.00846731 -1.3066e-21)
(0.050792 -0.00808175 2.62319e-21)
(0.0510209 -0.00768685 -6.69909e-22)
(0.0512388 -0.0072822 0)
(0.0514458 -0.00686817 -3.54619e-22)
(0.0516416 -0.00644481 1.81123e-23)
(0.051826 -0.00601216 5.22065e-22)
(0.0519987 -0.00557028 -4.36615e-22)
(0.0521596 -0.00511929 8.50869e-23)
(0.0523085 -0.0046592 -2.66883e-22)
(0.0524452 -0.00418991 1.74786e-22)
(0.0525695 -0.00371117 0)
(0.0526811 -0.00322268 0)
(0.0527797 -0.00272398 0)
(0.0528646 -0.00221458 7.11481e-22)
(0.0529349 -0.00169383 7.07252e-22)
(0.0529896 -0.00116102 0)
(0.053027 -0.000615302 1.35687e-21)
(0.0530453 -5.57153e-05 1.40816e-21)
(0.0530419 0.000518804 1.36498e-21)
(0.0530138 0.00110941 0)
(0.0529572 0.00171733 0)
(0.052868 0.0023438 -2.55903e-21)
(0.0527416 0.00299003 2.51043e-21)
(0.0525731 0.0036572 0)
(0.0523577 0.00434635 2.36637e-21)
(0.0520907 0.00505851 -2.32382e-21)
(0.0517678 0.00579453 -2.41166e-21)
(0.0513851 0.00655543 2.30714e-21)
(0.0509398 0.00734212 -2.27189e-21)
(0.050429 0.00815588 0)
(0.0498515 0.00899821 -2.15503e-21)
(0.0492047 0.00987091 6.68724e-23)
(0.0484891 0.0107772 -4.48549e-21)
(0.0477024 0.0117192 -4.5135e-21)
(0.0468437 0.012703 4.41037e-21)
(0.0459256 0.0137522 -2.11073e-21)
(0.0391818 -0.0151796 -1.05017e-22)
(0.0395838 -0.0151856 0)
(0.0399881 -0.0151796 -1.32487e-22)
(0.0403958 -0.0151615 8.38826e-22)
(0.0408061 -0.0151307 -1.60546e-21)
(0.0412181 -0.0150867 3.80781e-22)
(0.0416314 -0.0150294 -4.24513e-22)
(0.0420455 -0.0149587 1.01065e-21)
(0.0424597 -0.0148747 -5.04773e-22)
(0.0428734 -0.014777 -5.42193e-22)
(0.0432861 -0.0146656 -6.31062e-22)
(0.0436973 -0.0145403 1.94785e-21)
(0.0441065 -0.014401 -6.14202e-22)
(0.0445131 -0.0142478 2.23506e-21)
(0.0449167 -0.0140805 8.12734e-22)
(0.0453167 -0.0138992 7.76849e-23)
(0.0457126 -0.0137039 -1.6345e-21)
(0.0461037 -0.0134947 0)
(0.0464895 -0.0132716 0)
(0.0468696 -0.0130347 -9.80283e-22)
(0.0472433 -0.0127841 -9.50831e-22)
(0.0476101 -0.0125201 -2.06665e-21)
(0.0479695 -0.0122428 1.04746e-21)
(0.0483208 -0.0119524 2.19865e-21)
(0.0486637 -0.0116493 -2.19827e-21)
(0.0489974 -0.0113337 5.92269e-22)
(0.0493216 -0.0110061 6.08286e-22)
(0.0496359 -0.0106667 0)
(0.0499396 -0.0103156 -6.03112e-22)
(0.050233 -0.00995342 -1.28494e-21)
(0.0505152 -0.00957992 -2.67185e-23)
(0.0507864 -0.00919604 1.31743e-21)
(0.0510463 -0.00880206 -7.00008e-22)
(0.0512949 -0.0083986 0)
(0.0515321 -0.00798622 3.6297e-22)
(0.0517578 -0.00756474 -3.65939e-22)
(0.0519718 -0.00713397 3.49323e-22)
(0.0521739 -0.00669389 -7.21405e-22)
(0.0523643 -0.00624461 0)
(0.0525428 -0.00578624 -9.30268e-23)
(0.0527093 -0.00531891 9.07534e-23)
(0.0528635 -0.00484261 -1.40188e-22)
(0.0530052 -0.00435717 5.43358e-22)
(0.0531339 -0.0038623 -1.08342e-21)
(0.0532491 -0.00335762 7.15297e-22)
(0.0533502 -0.00284262 7.17605e-22)
(0.053436 -0.00231671 -6.72903e-22)
(0.0535053 -0.00177919 1.45048e-21)
(0.0535565 -0.00122924 -1.39494e-21)
(0.0535876 -0.000665979 -3.45532e-21)
(0.053596 -8.84212e-05 2.87187e-23)
(0.0535789 0.000504471 -1.32398e-21)
(0.0535329 0.00111376 0)
(0.0534543 0.00174052 0)
(0.0533393 0.00238575 -2.6099e-21)
(0.0531839 0.00305044 3.81577e-21)
(0.0529842 0.00373548 -2.52435e-21)
(0.0527367 0.00444168 0)
(0.052438 0.00516994 2.52388e-21)
(0.0520855 0.00592097 4.78759e-21)
(0.0516766 0.00669587 -2.32972e-21)
(0.0512099 0.00749556 -3.20154e-24)
(0.0506835 0.0083216 2.36337e-21)
(0.0500975 0.00917562 -7.12153e-23)
(0.04945 0.01006 -4.73681e-21)
(0.0487427 0.0109779 4.6935e-21)
(0.0479737 0.0119325 2.34927e-21)
(0.0471443 0.0129297 0)
(0.0462679 0.0139876 0)
(0.0391423 -0.0159449 1.03225e-22)
(0.0395673 -0.0159493 7.28827e-22)
(0.0399946 -0.0159407 -5.81994e-22)
(0.0404252 -0.0159194 0)
(0.0408582 -0.0158846 -1.88915e-22)
(0.0412929 -0.0158357 -9.22633e-22)
(0.0417288 -0.0157726 6.66603e-22)
(0.0421654 -0.0156953 -1.36404e-21)
(0.0426021 -0.0156037 1.08642e-21)
(0.0430382 -0.0154977 0)
(0.043473 -0.015377 2.83358e-22)
(0.043906 -0.0152417 0)
(0.0443366 -0.0150917 7.95669e-22)
(0.0447643 -0.0149269 -2.23289e-21)
(0.0451884 -0.0147473 0)
(0.0456084 -0.014553 0)
(0.0460237 -0.0143439 0)
(0.0464337 -0.0141202 -1.40422e-21)
(0.0468379 -0.0138819 1.8812e-21)
(0.0472356 -0.0136291 9.64019e-22)
(0.0476263 -0.0133621 0)
(0.0480093 -0.0130811 0)
(0.0483842 -0.0127863 0)
(0.0487504 -0.012478 -2.89078e-21)
(0.0491074 -0.0121566 3.48774e-21)
(0.0494547 -0.0118224 -1.76705e-21)
(0.0497918 -0.0114759 -1.23458e-21)
(0.0501183 -0.0111174 1.27843e-21)
(0.0504339 -0.0107472 -1.28005e-21)
(0.0507382 -0.0103658 6.83216e-22)
(0.0510312 -0.0099736 -1.36809e-21)
(0.0513125 -0.00957106 6.58032e-22)
(0.051582 -0.00915862 1.41516e-21)
(0.0518394 -0.00873677 7.41876e-22)