/*--------------------------------*- C++ -*----------------------------------*\
| =========                 |                                                 |
| \\      /  F ield         | OpenFOAM: The Open Source CFD Toolbox           |
|  \\    /   O peration     | Version:  2312                                  |
|   \\  /    A nd           | Website:  www.openfoam.com                      |
|    \\/     M anipulation  |                                                 |
\*---------------------------------------------------------------------------*/
FoamFile
{
    version     2.0;
    format      ascii;
    arch        "LSB;label=32;scalar=64";
    class       volScalarField;
    location    "1800";
    object      k;
}
// * * * * * * * * * * * * * * * * * * * * * * * * * * * * * * * * * * * * * //

dimensions      [0 2 -2 0 0 0 0];

internalField   nonuniform List<scalar> 
76025
(
4.77918e-06
4.78015e-06
4.77986e-06
4.77968e-06
4.77919e-06
4.77879e-06
4.77557e-06
4.77551e-06
4.77603e-06
4.77646e-06
4.77309e-06
4.7758e-06
4.7758e-06
4.77042e-06
4.76889e-06
4.76386e-06
4.7587e-06
4.76141e-06
4.75996e-06
4.75959e-06
4.75638e-06
4.75545e-06
4.75439e-06
4.74775e-06
4.74793e-06
4.74733e-06
4.7449e-06
4.74275e-06
4.74571e-06
4.74874e-06
4.7533e-06
4.76707e-06
4.77362e-06
4.77162e-06
4.77527e-06
4.78183e-06
4.79268e-06
4.80646e-06
4.82441e-06
4.84344e-06
4.86731e-06
4.89268e-06
4.92566e-06
4.95792e-06
4.99796e-06
5.03351e-06
5.0778e-06
5.11792e-06
5.16367e-06
5.20119e-06
5.2475e-06
5.28074e-06
5.32877e-06
5.35368e-06
5.4002e-06
5.42588e-06
5.47129e-06
5.49821e-06
5.55076e-06
5.58113e-06
5.64167e-06
5.67572e-06
5.75079e-06
5.79754e-06
5.88319e-06
5.96378e-06
6.04335e-06
6.17565e-06
6.24265e-06
4.80631e-06
4.80919e-06
4.81018e-06
4.81004e-06
4.80777e-06
4.81072e-06
4.81032e-06
4.8106e-06
4.8065e-06
4.80762e-06
4.80914e-06
4.81046e-06
4.81278e-06
4.8135e-06
4.81256e-06
4.80687e-06
4.80828e-06
4.80464e-06
4.80768e-06
4.80782e-06
4.80902e-06
4.80934e-06
4.80494e-06
4.804e-06
4.8054e-06
4.81331e-06
4.81632e-06
4.81439e-06
4.81508e-06
4.82209e-06
4.82825e-06
4.83834e-06
4.85581e-06
4.86297e-06
4.86006e-06
4.86338e-06
4.87341e-06
4.88794e-06
4.90629e-06
4.92699e-06
4.95106e-06
4.97665e-06
5.0058e-06
5.03489e-06
5.06799e-06
5.09959e-06
5.13638e-06
5.16855e-06
5.20751e-06
5.23935e-06
5.28022e-06
5.31124e-06
5.35387e-06
5.38342e-06
5.42925e-06
5.45832e-06
5.51003e-06
5.54122e-06
5.60059e-06
5.63539e-06
5.70664e-06
5.74823e-06
5.83474e-06
5.88456e-06
5.99321e-06
6.05143e-06
6.18362e-06
6.25738e-06
6.38113e-06
4.83991e-06
4.84069e-06
4.84224e-06
4.84325e-06
4.84402e-06
4.84434e-06
4.8435e-06
4.83957e-06
4.84406e-06
4.84432e-06
4.84214e-06
4.84199e-06
4.84066e-06
4.84833e-06
4.8509e-06
4.85174e-06
4.85222e-06
4.85916e-06
4.86137e-06
4.86351e-06
4.85858e-06
4.86299e-06
4.86118e-06
4.85889e-06
4.86746e-06
4.87057e-06
4.87443e-06
4.87754e-06
4.87124e-06
4.86944e-06
4.87304e-06
4.87967e-06
4.88855e-06
4.89836e-06
4.90943e-06
4.92241e-06
4.93798e-06
4.95558e-06
4.9758e-06
4.99731e-06
5.02159e-06
5.04636e-06
5.07445e-06
5.10178e-06
5.13337e-06
5.16245e-06
5.19734e-06
5.2272e-06
5.26517e-06
5.29518e-06
5.33652e-06
5.3664e-06
5.41153e-06
5.44177e-06
5.49143e-06
5.52305e-06
5.57897e-06
5.61282e-06
5.67704e-06
5.71543e-06
5.79092e-06
5.8357e-06
5.92415e-06
5.97732e-06
6.08087e-06
6.14383e-06
6.2689e-06
6.34361e-06
6.50443e-06
4.86876e-06
4.86632e-06
4.87051e-06
4.87077e-06
4.86979e-06
4.87714e-06
4.87756e-06
4.87863e-06
4.87247e-06
4.87751e-06
4.87641e-06
4.87555e-06
4.88278e-06
4.88511e-06
4.88839e-06
4.88324e-06
4.89114e-06
4.88774e-06
4.88702e-06
4.89044e-06
4.89565e-06
4.90052e-06
4.90961e-06
4.91294e-06
4.92662e-06
4.93116e-06
4.9365e-06
4.92751e-06
4.9357e-06
4.93066e-06
4.93221e-06
4.93857e-06
4.94807e-06
4.95959e-06
4.97324e-06
4.98838e-06
5.00568e-06
5.02415e-06
5.04501e-06
5.06635e-06
5.09058e-06
5.11439e-06
5.14201e-06
5.16787e-06
5.19883e-06
5.22619e-06
5.26048e-06
5.28889e-06
5.32657e-06
5.35574e-06
5.39718e-06
5.42706e-06
5.47296e-06
5.50377e-06
5.55508e-06
5.58756e-06
5.6458e-06
5.68118e-06
5.74867e-06
5.78831e-06
5.86745e-06
5.9128e-06
6.00596e-06
6.0598e-06
6.17048e-06
6.23833e-06
6.37043e-06
6.45619e-06
6.61758e-06
4.9005e-06
4.89986e-06
4.9056e-06
4.90661e-06
4.90763e-06
4.90293e-06
4.90857e-06
4.9064e-06
4.90541e-06
4.90757e-06
4.91051e-06
4.91593e-06
4.92087e-06
4.92665e-06
4.93121e-06
4.93673e-06
4.94271e-06
4.94585e-06
4.9499e-06
4.95241e-06
4.94948e-06
4.94563e-06
4.94749e-06
4.95029e-06
4.95561e-06
4.96007e-06
4.96587e-06
4.97111e-06
4.978e-06
4.98559e-06
4.99461e-06
5.00509e-06
5.01717e-06
5.03048e-06
5.04548e-06
5.06148e-06
5.07946e-06
5.09809e-06
5.11917e-06
5.14017e-06
5.16441e-06
5.18753e-06
5.21509e-06
5.24001e-06
5.271e-06
5.29737e-06
5.33198e-06
5.35954e-06
5.39803e-06
5.42669e-06
5.46952e-06
5.49945e-06
5.54733e-06
5.57895e-06
5.63297e-06
5.66696e-06
5.72874e-06
5.76614e-06
5.83757e-06
5.87972e-06
5.9631e-06
6.01189e-06
6.1096e-06
6.16835e-06
6.28201e-06
6.35684e-06
6.48563e-06
6.58562e-06
6.73167e-06
4.9455e-06
4.94775e-06
4.94879e-06
4.94963e-06
4.94997e-06
4.94937e-06
4.94646e-06
4.94518e-06
4.94499e-06
4.95404e-06
4.95516e-06
4.95669e-06
4.95797e-06
4.96105e-06
4.96457e-06
4.96735e-06
4.97175e-06
4.97386e-06
4.9774e-06
4.98161e-06
4.98592e-06
4.99025e-06
4.99555e-06
5.00145e-06
5.00831e-06
5.01574e-06
5.02399e-06
5.03294e-06
5.04278e-06
5.05347e-06
5.0652e-06
5.07783e-06
5.09168e-06
5.10636e-06
5.12254e-06
5.13933e-06
5.15808e-06
5.17704e-06
5.19862e-06
5.21961e-06
5.24421e-06
5.2671e-06
5.29495e-06
5.31952e-06
5.35086e-06
5.37693e-06
5.41203e-06
5.43949e-06
5.47873e-06
5.50762e-06
5.55157e-06
5.5821e-06
5.63157e-06
5.66416e-06
5.72028e-06
5.75556e-06
5.81981e-06
5.85869e-06
5.93294e-06
5.97666e-06
6.0631e-06
6.11345e-06
6.21446e-06
6.27452e-06
6.39248e-06
6.46878e-06
6.60182e-06
6.71137e-06
6.84563e-06
4.9992e-06
5.0018e-06
5.00554e-06
5.00674e-06
5.0123e-06
5.00993e-06
5.00652e-06
5.00998e-06
5.00818e-06
5.00984e-06
5.01214e-06
5.01438e-06
5.01792e-06
5.02153e-06
5.0252e-06
5.03135e-06
5.04073e-06
5.04546e-06
5.04916e-06
5.04632e-06
5.04765e-06
5.05198e-06
5.05806e-06
5.06538e-06
5.07365e-06
5.08284e-06
5.09285e-06
5.10367e-06
5.11538e-06
5.12785e-06
5.14128e-06
5.15541e-06
5.17069e-06
5.18658e-06
5.20395e-06
5.22165e-06
5.24136e-06
5.26095e-06
5.28328e-06
5.30467e-06
5.32988e-06
5.35301e-06
5.38137e-06
5.40612e-06
5.43792e-06
5.46422e-06
5.49982e-06
5.52767e-06
5.56755e-06
5.59704e-06
5.64189e-06
5.67323e-06
5.72399e-06
5.75754e-06
5.81544e-06
5.85182e-06
5.91835e-06
5.95851e-06
6.03555e-06
6.08085e-06
6.17058e-06
6.22324e-06
6.32824e-06
6.39161e-06
6.5157e-06
6.59157e-06
6.74331e-06
6.82993e-06
7.01497e-06
5.04462e-06
5.04694e-06
5.04899e-06
5.05138e-06
5.05472e-06
5.05685e-06
5.05853e-06
5.06038e-06
5.06214e-06
5.06425e-06
5.06686e-06
5.06917e-06
5.07247e-06
5.07613e-06
5.08008e-06
5.08482e-06
5.0901e-06
5.09518e-06
5.10054e-06
5.10605e-06
5.11241e-06
5.11982e-06
5.12808e-06
5.13723e-06
5.14713e-06
5.15778e-06
5.16926e-06
5.18143e-06
5.19451e-06
5.20826e-06
5.22307e-06
5.23847e-06
5.25507e-06
5.27212e-06
5.29064e-06
5.30932e-06
5.32999e-06
5.35035e-06
5.37346e-06
5.3955e-06
5.42129e-06
5.44501e-06
5.47375e-06
5.49912e-06
5.53112e-06
5.55819e-06
5.59384e-06
5.62269e-06
5.66256e-06
5.69333e-06
5.73826e-06
5.7711e-06
5.82228e-06
5.85745e-06
5.91634e-06
5.95442e-06
6.02269e-06
6.06468e-06
6.14428e-06
6.19179e-06
6.28497e-06
6.34076e-06
6.44938e-06
6.51885e-06
6.64207e-06
6.73377e-06
6.8723e-06
6.98195e-06
7.16424e-06
5.10731e-06
5.10765e-06
5.11122e-06
5.11315e-06
5.11528e-06
5.11542e-06
5.11415e-06
5.11535e-06
5.11798e-06
5.1214e-06
5.12496e-06
5.12828e-06
5.13187e-06
5.13583e-06
5.14039e-06
5.1456e-06
5.15163e-06
5.15828e-06
5.16577e-06
5.17393e-06
5.18294e-06
5.19264e-06
5.20312e-06
5.21421e-06
5.22605e-06
5.23847e-06
5.25167e-06
5.26542e-06
5.27998e-06
5.29513e-06
5.31116e-06
5.32772e-06
5.34535e-06
5.36338e-06
5.3828e-06
5.40236e-06
5.42378e-06
5.44495e-06
5.46859e-06
5.49143e-06
5.5175e-06
5.54207e-06
5.57079e-06
5.59719e-06
5.62885e-06
5.65727e-06
5.69226e-06
5.72292e-06
5.76187e-06
5.79499e-06
5.8389e-06
5.8746e-06
5.92497e-06
5.96336e-06
6.02209e-06
6.0635e-06
6.13273e-06
6.17807e-06
6.26008e-06
6.311e-06
6.40841e-06
6.46731e-06
6.58275e-06
6.65376e-06
6.78592e-06
6.88178e-06
7.01607e-06
7.16181e-06
7.30489e-06
5.18115e-06
5.18854e-06
5.19111e-06
5.19203e-06
5.19127e-06
5.19702e-06
5.1902e-06
5.19453e-06
5.19511e-06
5.19094e-06
5.19095e-06
5.19445e-06
5.19933e-06
5.20476e-06
5.21076e-06
5.21726e-06
5.2245e-06
5.23245e-06
5.24123e-06
5.2508e-06
5.2612e-06
5.27235e-06
5.28426e-06
5.29684e-06
5.31012e-06
5.32401e-06
5.33855e-06
5.35368e-06
5.3695e-06
5.38587e-06
5.40302e-06
5.42069e-06
5.43928e-06
5.45832e-06
5.4785e-06
5.499e-06
5.52097e-06
5.54307e-06
5.56696e-06
5.59081e-06
5.61681e-06
5.64259e-06
5.67085e-06
5.69884e-06
5.7296e-06
5.76019e-06
5.79382e-06
5.82744e-06
5.86456e-06
5.90161e-06
5.94334e-06
5.98401e-06
6.03211e-06
6.07633e-06
6.13329e-06
6.18099e-06
6.24966e-06
6.30133e-06
6.38457e-06
6.44172e-06
6.54231e-06
6.60683e-06
6.72831e-06
6.80076e-06
6.94783e-06
7.03049e-06
7.19995e-06
7.32341e-06
7.47121e-06
5.24271e-06
5.24651e-06
5.25135e-06
5.25445e-06
5.25914e-06
5.26396e-06
5.26712e-06
5.27126e-06
5.28122e-06
5.27781e-06
5.28469e-06
5.28142e-06
5.28255e-06
5.28695e-06
5.29305e-06
5.30031e-06
5.30835e-06
5.31722e-06
5.32681e-06
5.33716e-06
5.34829e-06
5.36017e-06
5.37277e-06
5.38608e-06
5.4001e-06
5.41479e-06
5.43016e-06
5.44618e-06
5.46287e-06
5.48018e-06
5.49817e-06
5.51679e-06
5.53614e-06
5.55612e-06
5.5769e-06
5.59835e-06
5.62073e-06
5.64384e-06
5.66792e-06
5.69293e-06
5.71886e-06
5.74605e-06
5.77398e-06
5.8038e-06
5.83396e-06
5.867e-06
5.89971e-06
5.93669e-06
5.97249e-06
6.01415e-06
6.05401e-06
6.10085e-06
6.14655e-06
6.19859e-06
6.25294e-06
6.30981e-06
6.37639e-06
6.43796e-06
6.52034e-06
6.58753e-06
6.68852e-06
6.76312e-06
6.88527e-06
6.96853e-06
7.11618e-06
7.20915e-06
7.38929e-06
7.50197e-06
7.69581e-06
5.32466e-06
5.33028e-06
5.33321e-06
5.34115e-06
5.34493e-06
5.35615e-06
5.35941e-06
5.36471e-06
5.36129e-06
5.36486e-06
5.36329e-06
5.36532e-06
5.36985e-06
5.37618e-06
5.38373e-06
5.39217e-06
5.40138e-06
5.41117e-06
5.42168e-06
5.43272e-06
5.44451e-06
5.4569e-06
5.47004e-06
5.48383e-06
5.49831e-06
5.51346e-06
5.52927e-06
5.54576e-06
5.56291e-06
5.58075e-06
5.59924e-06
5.61847e-06
5.63832e-06
5.65899e-06
5.68025e-06
5.7025e-06
5.72531e-06
5.74933e-06
5.77384e-06
5.79988e-06
5.82628e-06
5.85464e-06
5.88321e-06
5.91436e-06
5.94543e-06
5.98006e-06
6.01401e-06
6.05301e-06
6.09029e-06
6.13479e-06
6.17606e-06
6.22718e-06
6.27371e-06
6.33217e-06
6.38634e-06
6.45215e-06
6.51755e-06
6.5903e-06
6.67093e-06
6.75061e-06
6.8499e-06
6.93699e-06
7.05912e-06
7.15301e-06
7.30582e-06
7.40643e-06
7.59963e-06
7.71049e-06
7.95103e-06
5.4343e-06
5.43743e-06
5.4483e-06
5.45119e-06
5.45513e-06
5.44685e-06
5.45543e-06
5.44953e-06
5.44779e-06
5.45047e-06
5.45511e-06
5.46125e-06
5.46862e-06
5.47687e-06
5.48596e-06
5.49562e-06
5.50594e-06
5.51674e-06
5.52809e-06
5.54001e-06
5.55241e-06
5.56547e-06
5.57906e-06
5.59327e-06
5.60809e-06
5.62349e-06
5.63955e-06
5.65625e-06
5.67363e-06
5.69172e-06
5.71049e-06
5.73005e-06
5.75025e-06
5.77136e-06
5.79308e-06
5.8159e-06
5.83932e-06
5.86403e-06
5.88939e-06
5.91618e-06
5.94381e-06
5.97293e-06
6.00328e-06
6.03512e-06
6.06876e-06
6.10392e-06
6.14142e-06
6.18078e-06
6.22271e-06
6.26753e-06
6.31443e-06
6.36625e-06
6.4189e-06
6.47932e-06
6.53908e-06
6.60926e-06
6.67848e-06
6.7589e-06
6.84068e-06
6.93174e-06
7.02924e-06
7.13185e-06
7.25031e-06
7.36287e-06
7.51546e-06
7.63297e-06
7.83195e-06
7.96451e-06
8.20161e-06
5.51234e-06
5.51535e-06
5.51986e-06
5.52292e-06
5.52723e-06
5.53047e-06
5.53537e-06
5.5403e-06
5.54614e-06
5.55295e-06
5.56077e-06
5.5693e-06
5.57864e-06
5.58848e-06
5.599e-06
5.60989e-06
5.6214e-06
5.63324e-06
5.64568e-06
5.65845e-06
5.67183e-06
5.68556e-06
5.69997e-06
5.71476e-06
5.73029e-06
5.7462e-06
5.76283e-06
5.77998e-06
5.79783e-06
5.81625e-06
5.83544e-06
5.85531e-06
5.87599e-06
5.89746e-06
5.9198e-06
5.9431e-06
5.96736e-06
5.99266e-06
6.0192e-06
6.0467e-06
6.07592e-06
6.10587e-06
6.13837e-06
6.17118e-06
6.20763e-06
6.2439e-06
6.28499e-06
6.32561e-06
6.37204e-06
6.41819e-06
6.47071e-06
6.52381e-06
6.58327e-06
6.64502e-06
6.71234e-06
6.78463e-06
6.86093e-06
6.94561e-06
7.03276e-06
7.1317e-06
7.23226e-06
7.34861e-06
7.46646e-06
7.60196e-06
7.75069e-06
7.89487e-06
8.09785e-06
8.25487e-06
8.48666e-06
5.6192e-06
5.62274e-06
5.62698e-06
5.6316e-06
5.63696e-06
5.64295e-06
5.64964e-06
5.6571e-06
5.66522e-06
5.67412e-06
5.68357e-06
5.69369e-06
5.70426e-06
5.71545e-06
5.72702e-06
5.73915e-06
5.75162e-06
5.76464e-06
5.77798e-06
5.79185e-06
5.80609e-06
5.82085e-06
5.83602e-06
5.85163e-06
5.8678e-06
5.88435e-06
5.90155e-06
5.91917e-06
5.93757e-06
5.95646e-06
5.97627e-06
5.9966e-06
6.01799e-06
6.03996e-06
6.06318e-06
6.08708e-06
6.11247e-06
6.13854e-06
6.16648e-06
6.195e-06
6.22591e-06
6.25731e-06
6.29171e-06
6.32661e-06
6.36501e-06
6.40435e-06
6.4472e-06
6.49217e-06
6.53996e-06
6.59191e-06
6.64538e-06
6.7056e-06
6.76589e-06
6.83562e-06
6.90417e-06
6.98496e-06
7.06323e-06
7.15734e-06
7.24746e-06
7.35731e-06
7.46317e-06
7.59163e-06
7.71822e-06
7.86924e-06
8.02746e-06
8.18968e-06
8.42193e-06
8.56244e-06
8.8847e-06
5.74495e-06
5.74959e-06
5.75475e-06
5.76061e-06
5.7671e-06
5.77435e-06
5.78228e-06
5.79097e-06
5.80036e-06
5.81042e-06
5.82108e-06
5.83231e-06
5.84413e-06
5.85641e-06
5.86922e-06
5.88241e-06
5.89611e-06
5.91014e-06
5.92466e-06
5.93951e-06
5.95486e-06
5.97057e-06
5.9868e-06
6.00338e-06
6.02045e-06
6.03799e-06
6.05605e-06
6.07458e-06
6.09384e-06
6.11362e-06
6.13434e-06
6.15554e-06
6.17795e-06
6.20082e-06
6.22528e-06
6.25013e-06
6.277e-06
6.30417e-06
6.33388e-06
6.36371e-06
6.3967e-06
6.42975e-06
6.46653e-06
6.50358e-06
6.54458e-06
6.58677e-06
6.63225e-06
6.68109e-06
6.73122e-06
6.78848e-06
6.8436e-06
6.91106e-06
6.97203e-06
7.05127e-06
7.11967e-06
7.21239e-06
7.29038e-06
7.39914e-06
7.48911e-06
7.61787e-06
7.72289e-06
7.87618e-06
8.00157e-06
8.18619e-06
8.33735e-06
8.5618e-06
8.76932e-06
8.97797e-06
9.4445e-06
5.89735e-06
5.9029e-06
5.90893e-06
5.91552e-06
5.9228e-06
5.93069e-06
5.93937e-06
5.9486e-06
5.95867e-06
5.96924e-06
5.98059e-06
5.99235e-06
6.00486e-06
6.01772e-06
6.03127e-06
6.04514e-06
6.05964e-06
6.07448e-06
6.08986e-06
6.10563e-06
6.12187e-06
6.13852e-06
6.1556e-06
6.17321e-06
6.19128e-06
6.20993e-06
6.22899e-06
6.24879e-06
6.26909e-06
6.29011e-06
6.3119e-06
6.33438e-06
6.358e-06
6.38223e-06
6.40809e-06
6.43445e-06
6.46294e-06
6.4918e-06
6.5234e-06
6.55513e-06
6.59039e-06
6.62553e-06
6.66514e-06
6.70432e-06
6.74901e-06
6.79308e-06
6.84358e-06
6.89368e-06
6.95061e-06
7.00834e-06
7.07221e-06
7.13976e-06
7.21098e-06
7.29126e-06
7.37041e-06
7.46689e-06
7.5554e-06
7.67164e-06
7.77226e-06
7.91304e-06
8.0282e-06
8.20099e-06
8.339e-06
8.5488e-06
8.73181e-06
8.99019e-06
9.22226e-06
9.63081e-06
9.92275e-06
6.06619e-06
6.07303e-06
6.08034e-06
6.08823e-06
6.09664e-06
6.10561e-06
6.11517e-06
6.12535e-06
6.13616e-06
6.14762e-06
6.15972e-06
6.1724e-06
6.18557e-06
6.19939e-06
6.21357e-06
6.22845e-06
6.24359e-06
6.25943e-06
6.2755e-06
6.29232e-06
6.30932e-06
6.32699e-06
6.34511e-06
6.36386e-06
6.38305e-06
6.40297e-06
6.42342e-06
6.44459e-06
6.46636e-06
6.48897e-06
6.51231e-06
6.53645e-06
6.56168e-06
6.58774e-06
6.61531e-06
6.64373e-06
6.67405e-06
6.70531e-06
6.73879e-06
6.77342e-06
6.81059e-06
6.84929e-06
6.89079e-06
6.93436e-06
6.98094e-06
7.03027e-06
7.08291e-06
7.13897e-06
7.19886e-06
7.26285e-06
7.33129e-06
7.40528e-06
7.4827e-06
7.57112e-06
7.65598e-06
7.76609e-06
7.85635e-06
7.99522e-06
8.09309e-06
8.26598e-06
8.37603e-06
8.5968e-06
8.72976e-06
9.0166e-06
9.21067e-06
9.56507e-06
9.86348e-06
1.01438e-05
1.02205e-05
6.26881e-06
6.27644e-06
6.28459e-06
6.29321e-06
6.30256e-06
6.31227e-06
6.32268e-06
6.33352e-06
6.34502e-06
6.35695e-06
6.36942e-06
6.38247e-06
6.39605e-06
6.41018e-06
6.42483e-06
6.44015e-06
6.45592e-06
6.47229e-06
6.48911e-06
6.50656e-06
6.52448e-06
6.54298e-06
6.56211e-06
6.58172e-06
6.60223e-06
6.62311e-06
6.64514e-06
6.66736e-06
6.691e-06
6.7149e-06
6.74052e-06
6.76634e-06
6.79399e-06
6.82211e-06
6.85223e-06
6.88279e-06
6.91589e-06
6.94949e-06
6.98608e-06
7.0234e-06
7.06401e-06
7.10594e-06
7.15102e-06
7.19876e-06
7.24879e-06
7.30375e-06
7.35951e-06
7.42299e-06
7.48603e-06
7.5588e-06
7.63177e-06
7.71469e-06
7.79952e-06
7.89709e-06
7.9909e-06
8.11458e-06
8.21089e-06
8.37324e-06
8.47481e-06
8.68069e-06
8.80315e-06
9.07243e-06
9.24376e-06
9.58756e-06
9.89946e-06
1.01855e-05
1.02767e-05
1.04237e-05
1.09479e-05
6.49774e-06
6.50646e-06
6.5157e-06
6.52549e-06
6.53589e-06
6.54672e-06
6.55825e-06
6.57016e-06
6.58277e-06
6.59589e-06
6.60951e-06
6.62372e-06
6.63841e-06
6.65353e-06
6.66913e-06
6.68521e-06
6.70185e-06
6.71901e-06
6.73678e-06
6.75506e-06
6.77408e-06
6.79355e-06
6.81398e-06
6.83472e-06
6.85669e-06
6.87884e-06
6.90247e-06
6.92627e-06
6.9518e-06
6.97752e-06
7.00527e-06
7.03325e-06
7.06349e-06
7.09393e-06
7.12702e-06
7.16046e-06
7.19722e-06
7.23411e-06
7.2747e-06
7.3158e-06
7.36073e-06
7.40675e-06
7.4563e-06
7.50906e-06
7.56353e-06
7.62509e-06
7.68497e-06
7.75728e-06
7.82421e-06
7.90785e-06
7.98599e-06
8.08017e-06
8.17366e-06
8.2828e-06
8.38783e-06
8.52845e-06
8.6357e-06
8.82467e-06
8.94491e-06
9.17973e-06
9.34439e-06
9.68194e-06
9.88234e-06
1.02964e-05
1.03744e-05
1.06315e-05
1.09776e-05
1.11821e-05
1.42666e-05
6.78082e-06
6.78978e-06
6.7992e-06
6.80935e-06
6.81997e-06
6.83126e-06
6.84296e-06
6.8553e-06
6.86817e-06
6.88164e-06
6.89567e-06
6.9104e-06
6.92565e-06
6.94157e-06
6.95803e-06
6.97508e-06
6.99278e-06
7.011e-06
7.03011e-06
7.04958e-06
7.07024e-06
7.09109e-06
7.11331e-06
7.13547e-06
7.15935e-06
7.18306e-06
7.20854e-06
7.23412e-06
7.26154e-06
7.28936e-06
7.31913e-06
7.34948e-06
7.38223e-06
7.41543e-06
7.45189e-06
7.48819e-06
7.52915e-06
7.56899e-06
7.61524e-06
7.6596e-06
7.71164e-06
7.76178e-06
7.81891e-06
7.87683e-06
7.9389e-06
8.00671e-06
8.07413e-06
8.15476e-06
8.2293e-06
8.32384e-06
8.41086e-06
8.51762e-06
8.62449e-06
8.74682e-06
8.8732e-06
9.02788e-06
9.1687e-06
9.3708e-06
9.54687e-06
9.7788e-06
1.00547e-05
1.04029e-05
1.05233e-05
1.08242e-05
1.11568e-05
1.16026e-05
1.36092e-05
1.6508e-05
2.08634e-05
7.11235e-06
7.12281e-06
7.13346e-06
7.14502e-06
7.15697e-06
7.1698e-06
7.18294e-06
7.19694e-06
7.21127e-06
7.22646e-06
7.24212e-06
7.25854e-06
7.2755e-06
7.29298e-06
7.31107e-06
7.3297e-06
7.34907e-06
7.3689e-06
7.38951e-06
7.41087e-06
7.4328e-06
7.45569e-06
7.47936e-06
7.504e-06
7.52929e-06
7.55605e-06
7.58359e-06
7.61264e-06
7.64292e-06
7.67432e-06
7.70728e-06
7.74173e-06
7.77835e-06
7.81571e-06
7.85646e-06
7.8968e-06
7.94262e-06
7.98657e-06
8.03854e-06
8.08687e-06
8.14492e-06
8.19923e-06
8.2635e-06
8.32588e-06
8.39696e-06
8.47026e-06
8.5496e-06
8.6366e-06
8.72612e-06
8.82963e-06
8.93352e-06
9.05588e-06
9.18137e-06
9.32484e-06
9.48017e-06
9.64518e-06
9.83981e-06
1.00293e-05
1.02782e-05
1.04366e-05
1.09597e-05
1.11968e-05
1.14288e-05
1.18018e-05
1.42194e-05
1.70931e-05
2.46475e-05
3.05104e-05
6.6084e-05
7.5336e-06
7.54391e-06
7.55476e-06
7.56605e-06
7.57812e-06
7.59067e-06
7.60413e-06
7.61803e-06
7.63294e-06
7.64824e-06
7.66452e-06
7.68121e-06
7.69897e-06
7.71728e-06
7.73643e-06
7.75605e-06
7.77674e-06
7.79775e-06
7.82017e-06
7.84323e-06
7.86751e-06
7.89263e-06
7.91921e-06
7.94698e-06
7.9759e-06
8.00645e-06
8.03779e-06
8.07142e-06
8.10547e-06
8.14284e-06
8.18054e-06
8.22119e-06
8.2624e-06
8.30608e-06
8.35162e-06
8.39845e-06
8.44935e-06
8.49982e-06
8.55703e-06
8.61235e-06
8.67652e-06
8.73898e-06
8.81046e-06
8.88307e-06
8.96318e-06
9.04794e-06
9.1403e-06
9.23856e-06
9.34789e-06
9.46379e-06
9.59096e-06
9.73661e-06
9.87611e-06
1.00476e-05
1.02198e-05
1.03731e-05
1.06081e-05
1.08022e-05
1.09594e-05
1.14727e-05
1.19753e-05
1.31037e-05
1.4554e-05
1.81217e-05
2.3887e-05
3.68984e-05
5.47929e-05
9.89868e-05
0.000150028
8.06424e-06
8.07674e-06
8.09022e-06
8.10352e-06
8.118e-06
8.13235e-06
8.14793e-06
8.16344e-06
8.18026e-06
8.19716e-06
8.21536e-06
8.23392e-06
8.25382e-06
8.27406e-06
8.2958e-06
8.31787e-06
8.34148e-06
8.36486e-06
8.39049e-06
8.41624e-06
8.44412e-06
8.47263e-06
8.50307e-06
8.53469e-06
8.56774e-06
8.60255e-06
8.63828e-06
8.67647e-06
8.7151e-06
8.75662e-06
8.79844e-06
8.84359e-06
8.88944e-06
8.93827e-06
8.98834e-06
9.04122e-06
9.09653e-06
9.15382e-06
9.21548e-06
9.27945e-06
9.34885e-06
9.42243e-06
9.50069e-06
9.58783e-06
9.67676e-06
9.77912e-06
9.88416e-06
1.00003e-05
1.013e-05
1.02579e-05
1.04057e-05
1.05592e-05
1.06911e-05
1.08563e-05
1.10323e-05
1.11812e-05
1.1477e-05
1.20064e-05
1.26305e-05
1.44432e-05
1.65295e-05
2.08933e-05
2.62819e-05
4.01154e-05
5.79323e-05
8.86343e-05
0.000115796
0.000117187
0.000112555
8.74727e-06
8.75965e-06
8.77257e-06
8.78613e-06
8.80043e-06
8.81525e-06
8.83124e-06
8.84755e-06
8.86538e-06
8.88346e-06
8.90306e-06
8.92294e-06
8.94436e-06
8.96633e-06
8.9898e-06
9.01418e-06
9.04002e-06
9.06704e-06
9.09537e-06
9.12546e-06
9.15657e-06
9.18996e-06
9.22382e-06
9.2609e-06
9.29784e-06
9.33853e-06
9.37887e-06
9.42353e-06
9.46775e-06
9.51683e-06
9.56571e-06
9.61942e-06
9.67367e-06
9.73181e-06
9.7922e-06
9.85437e-06
9.92093e-06
9.98862e-06
1.0061e-05
1.01369e-05
1.02159e-05
1.03011e-05
1.03906e-05
1.04912e-05
1.05872e-05
1.07036e-05
1.08076e-05
1.09394e-05
1.1063e-05
1.11967e-05
1.13335e-05
1.14823e-05
1.16536e-05
1.19721e-05
1.24543e-05
1.3147e-05
1.41836e-05
1.61597e-05
1.85218e-05
2.40733e-05
3.25978e-05
4.53101e-05
6.25335e-05
8.03781e-05
8.81588e-05
8.65776e-05
8.92766e-05
9.22082e-05
8.79088e-05
9.71324e-06
9.72969e-06
9.74685e-06
9.76384e-06
9.78209e-06
9.79998e-06
9.81941e-06
9.83848e-06
9.85922e-06
9.88018e-06
9.90235e-06
9.92585e-06
9.94991e-06
9.97636e-06
1.00036e-05
1.00333e-05
1.0064e-05
1.00981e-05
1.01329e-05
1.01704e-05
1.02097e-05
1.02503e-05
1.02938e-05
1.0339e-05
1.03865e-05
1.04355e-05
1.04857e-05
1.05368e-05
1.05872e-05
1.06398e-05
1.06915e-05
1.0744e-05
1.07976e-05
1.08516e-05
1.09025e-05
1.0953e-05
1.10053e-05
1.10579e-05
1.11165e-05
1.11769e-05
1.12441e-05
1.13196e-05
1.14014e-05
1.14953e-05
1.1586e-05
1.17218e-05
1.18574e-05
1.21061e-05
1.23556e-05
1.27473e-05
1.31973e-05
1.3923e-05
1.51557e-05
1.66988e-05
1.84735e-05
2.0677e-05
2.39486e-05
2.81754e-05
3.56834e-05
4.58998e-05
5.89595e-05
6.68725e-05
6.18577e-05
5.64013e-05
5.87164e-05
6.51026e-05
6.79875e-05
6.88633e-05
6.39927e-05
1.13721e-05
1.1381e-05
1.13887e-05
1.13986e-05
1.14066e-05
1.14185e-05
1.14269e-05
1.14413e-05
1.1451e-05
1.14671e-05
1.14788e-05
1.1496e-05
1.15102e-05
1.15274e-05
1.15449e-05
1.15633e-05
1.15808e-05
1.16038e-05
1.16209e-05
1.16424e-05
1.16721e-05
1.16882e-05
1.17222e-05
1.17464e-05
1.17797e-05
1.17968e-05
1.18255e-05
1.18498e-05
1.18711e-05
1.19275e-05
1.19814e-05
1.20088e-05
1.21265e-05
1.21382e-05
1.20969e-05
1.20836e-05
1.21021e-05
1.21601e-05
1.22563e-05
1.23995e-05
1.25904e-05
1.28523e-05
1.31854e-05
1.36206e-05
1.40598e-05
1.51613e-05
1.62091e-05
1.74848e-05
1.88006e-05
2.00689e-05
2.14148e-05
2.25475e-05
2.34541e-05
2.42654e-05
2.57647e-05
2.77715e-05
3.21019e-05
3.86369e-05
4.5336e-05
3.86482e-05
3.21057e-05
3.29726e-05
3.64144e-05
4.13126e-05
4.76699e-05
5.35069e-05
5.71493e-05
5.81506e-05
5.52987e-05
1.18846e-05
1.18573e-05
1.19181e-05
1.18874e-05
1.19526e-05
1.19188e-05
1.1988e-05
1.19502e-05
1.20278e-05
1.20589e-05
1.20319e-05
1.20122e-05
1.21019e-05
1.20992e-05
1.20779e-05
1.2174e-05
1.21494e-05
1.21829e-05
1.22806e-05
1.22223e-05
1.23256e-05
1.22622e-05
1.24072e-05
1.23892e-05
1.2492e-05
1.2659e-05
1.28782e-05
1.31281e-05
1.34711e-05
1.38518e-05
1.43476e-05
1.48931e-05
1.55332e-05
1.62628e-05
1.7078e-05
1.8023e-05
1.90273e-05
2.01582e-05
2.13405e-05
2.26508e-05
2.39971e-05
2.54447e-05
2.68781e-05
2.82972e-05
2.94815e-05
3.03615e-05
2.99781e-05
2.88614e-05
2.78348e-05
2.64039e-05
2.47143e-05
2.29678e-05
2.09022e-05
1.79291e-05
1.35325e-05
9.71128e-06
1.03751e-05
1.22811e-05
1.28297e-05
1.14445e-05
1.20135e-05
1.65204e-05
2.2074e-05
2.80085e-05
3.49734e-05
4.15353e-05
4.66415e-05
4.88019e-05
4.88694e-05
4.43473e-05
4.52737e-05
4.62241e-05
4.71868e-05
4.81718e-05
4.91707e-05
5.01888e-05
5.12221e-05
5.22692e-05
5.33342e-05
5.4407e-05
5.54942e-05
5.65895e-05
5.76966e-05
5.88044e-05
5.99211e-05
6.10383e-05
6.21544e-05
6.32699e-05
6.43817e-05
6.54815e-05
6.65818e-05
6.76618e-05
6.87054e-05
6.96675e-05
7.05535e-05
7.13847e-05
7.20349e-05
7.27154e-05
7.30615e-05
7.3478e-05
7.36032e-05
7.33593e-05
7.29548e-05
7.23333e-05
7.20084e-05
6.9437e-05
6.84178e-05
6.56552e-05
6.35085e-05
6.03266e-05
5.64232e-05
5.15298e-05
4.53673e-05
3.77668e-05
2.81125e-05
1.80505e-05
8.86196e-06
3.12148e-06
2.01539e-06
2.36503e-06
3.08133e-06
3.28452e-06
3.2609e-06
2.94875e-06
2.21696e-06
1.96333e-06
1.95408e-06
2.02624e-06
2.02599e-06
2.19123e-06
2.87175e-06
3.80609e-06
5.15447e-06
6.96948e-06
9.2236e-06
1.1382e-05
1.29038e-05
1.39308e-05
4.73945e-06
4.7387e-06
4.73943e-06
4.74006e-06
4.74119e-06
4.74301e-06
4.74166e-06
4.74046e-06
4.73913e-06
4.73633e-06
4.73202e-06
4.73014e-06
4.73348e-06
4.73552e-06
4.73754e-06
4.73751e-06
4.73895e-06
4.74032e-06
4.74223e-06
4.74342e-06
4.74527e-06
4.74706e-06
4.74862e-06
4.74953e-06
4.75163e-06
4.75163e-06
4.75352e-06
4.75517e-06
4.76053e-06
4.76184e-06
4.76175e-06
4.76496e-06
4.76939e-06
4.77111e-06
4.77191e-06
4.77278e-06
4.77692e-06
4.77708e-06
4.77571e-06
4.77769e-06
4.7765e-06
4.77673e-06
4.77554e-06
4.77452e-06
4.7776e-06
4.77883e-06
4.78241e-06
4.77953e-06
4.77577e-06
4.77487e-06
4.77211e-06
4.77223e-06
4.77181e-06
4.77078e-06
4.77271e-06
4.77329e-06
4.77402e-06
4.77722e-06
4.77824e-06
4.78082e-06
4.78306e-06
4.78046e-06
4.77865e-06
4.77662e-06
4.77422e-06
4.77117e-06
4.7676e-06
4.76357e-06
4.7588e-06
4.75648e-06
4.75879e-06
4.75961e-06
4.76196e-06
4.76184e-06
4.76172e-06
4.76397e-06
4.76473e-06
4.76542e-06
4.76709e-06
4.76848e-06
4.76991e-06
4.77118e-06
4.77236e-06
4.77367e-06
4.77366e-06
4.77566e-06
4.77745e-06
4.78227e-06
4.78361e-06
4.78413e-06
4.78684e-06
4.79108e-06
4.79312e-06
4.79432e-06
4.79498e-06
4.79882e-06
4.79996e-06
4.79924e-06
4.80125e-06
4.80164e-06
4.80158e-06
4.79981e-06
4.80015e-06
4.80024e-06
4.80285e-06
4.80391e-06
4.80738e-06
4.80452e-06
4.80508e-06
4.8043e-06
4.80456e-06
4.80453e-06
4.80197e-06
4.80291e-06
4.80295e-06
4.803e-06
4.80654e-06
4.80719e-06
4.82191e-06
4.81979e-06
4.81626e-06
4.81321e-06
4.80981e-06
4.80628e-06
4.80243e-06
4.79841e-06
4.79453e-06
4.79101e-06
4.78911e-06
4.7905e-06
4.79305e-06
4.79282e-06
4.79179e-06
4.79152e-06
4.79155e-06
4.7921e-06
4.79233e-06
4.79314e-06
4.79468e-06
4.79598e-06
4.79709e-06
4.79824e-06
4.79896e-06
4.79908e-06
4.80098e-06
4.80303e-06
4.80737e-06
4.80885e-06
4.80979e-06
4.81213e-06
4.81645e-06
4.81835e-06
4.82018e-06
4.82061e-06
4.82297e-06
4.82788e-06
4.82699e-06
4.82826e-06
4.82803e-06
4.82943e-06
4.82948e-06
4.82762e-06
4.82635e-06
4.82709e-06
4.82967e-06
4.8315e-06
4.83444e-06
4.83396e-06
4.83248e-06
4.8325e-06
4.83278e-06
4.83602e-06
4.8357e-06
4.83623e-06
4.83554e-06
4.83481e-06
4.83878e-06
4.85951e-06
4.85676e-06
4.85316e-06
4.84986e-06
4.84623e-06
4.84263e-06
4.83894e-06
4.83552e-06
4.83261e-06
4.83041e-06
4.82909e-06
4.82814e-06
4.82654e-06
4.82457e-06
4.82259e-06
4.82159e-06
4.82209e-06
4.82331e-06
4.82266e-06
4.823e-06
4.82416e-06
4.8252e-06
4.82618e-06
4.82704e-06
4.82729e-06
4.82737e-06
4.82911e-06
4.8313e-06
4.83531e-06
4.83691e-06
4.83821e-06
4.84016e-06
4.84442e-06
4.84695e-06
4.84921e-06
4.84937e-06
4.85167e-06
4.85399e-06
4.856e-06
4.85918e-06
4.8591e-06
4.86033e-06
4.85984e-06
4.86015e-06
4.86167e-06
4.86086e-06
4.86159e-06
4.8626e-06
4.86807e-06
4.86948e-06
4.8686e-06
4.86658e-06
4.86568e-06
4.86532e-06
4.86626e-06
4.86585e-06
4.86385e-06
4.86346e-06
4.8637e-06
4.90116e-06
4.89849e-06
4.895e-06
4.89166e-06
4.88801e-06
4.88444e-06
4.88086e-06
4.87753e-06
4.87443e-06
4.87153e-06
4.86868e-06
4.86568e-06
4.86284e-06
4.86089e-06
4.85967e-06
4.85922e-06
4.85856e-06
4.85721e-06
4.85621e-06
4.85618e-06
4.85709e-06
4.858e-06
4.85873e-06
4.85938e-06
4.85924e-06
4.85936e-06
4.86099e-06
4.86332e-06
4.86711e-06
4.86883e-06
4.87036e-06
4.87231e-06
4.87639e-06
4.87899e-06
4.88226e-06
4.88177e-06
4.88322e-06
4.88883e-06
4.88836e-06
4.89135e-06
4.89259e-06
4.89454e-06
4.89471e-06
4.89398e-06
4.89482e-06
4.89883e-06
4.89916e-06
4.89814e-06
4.89945e-06
4.90113e-06
4.90272e-06
4.90827e-06
4.90949e-06
4.907e-06
4.9e-06
4.9017e-06
4.90109e-06
4.89932e-06
4.8984e-06
4.9472e-06
4.94436e-06
4.94068e-06
4.93704e-06
4.9331e-06
4.92917e-06
4.92515e-06
4.92122e-06
4.91728e-06
4.91339e-06
4.90963e-06
4.90628e-06
4.90382e-06
4.90229e-06
4.901e-06
4.89936e-06
4.8968e-06
4.8944e-06
4.89346e-06
4.89331e-06
4.89378e-06
4.89436e-06
4.89501e-06
4.8953e-06
4.89444e-06
4.89459e-06
4.89607e-06
4.89849e-06
4.90214e-06
4.90398e-06
4.90581e-06
4.90736e-06
4.91166e-06
4.91475e-06
4.9178e-06
4.91892e-06
4.9189e-06
4.92242e-06
4.92825e-06
4.92851e-06
4.93099e-06
4.93418e-06
4.93466e-06
4.93387e-06
4.93425e-06
4.9362e-06
4.93918e-06
4.94326e-06
4.94368e-06
4.94479e-06
4.94461e-06
4.94268e-06
4.94362e-06
4.94735e-06
4.9468e-06
4.94782e-06
4.94867e-06
4.9485e-06
4.9484e-06
4.99574e-06
4.99249e-06
4.98849e-06
4.98446e-06
4.98016e-06
4.97584e-06
4.97141e-06
4.96706e-06
4.96278e-06
4.95876e-06
4.95518e-06
4.95228e-06
4.95007e-06
4.94804e-06
4.94548e-06
4.9422e-06
4.93867e-06
4.93646e-06
4.93587e-06
4.93565e-06
4.93534e-06
4.93575e-06
4.93632e-06
4.93553e-06
4.93424e-06
4.93447e-06
4.93588e-06
4.93843e-06
4.942e-06
4.94394e-06
4.94603e-06
4.94791e-06
4.95144e-06
4.95493e-06
4.95827e-06
4.9606e-06
4.96109e-06
4.96324e-06
4.9664e-06
4.97118e-06
4.97225e-06
4.97396e-06
4.97604e-06
4.97711e-06
4.9784e-06
4.97927e-06
4.98017e-06
4.98129e-06
4.98176e-06
4.98337e-06
4.9885e-06
4.99052e-06
4.99158e-06
4.99631e-06
4.99723e-06
4.99657e-06
4.99571e-06
4.99549e-06
4.99718e-06
5.04564e-06
5.04214e-06
5.03805e-06
5.03391e-06
5.02957e-06
5.02525e-06
5.0209e-06
5.0167e-06
5.01268e-06
5.00901e-06
5.00571e-06
5.00277e-06
4.99986e-06
4.9965e-06
4.99252e-06
4.98838e-06
4.98507e-06
4.98354e-06
4.9831e-06
4.98266e-06
4.98222e-06
4.98198e-06
4.9812e-06
4.97953e-06
4.97794e-06
4.97822e-06
4.97954e-06
4.98219e-06
4.98574e-06
4.98786e-06
4.99011e-06
4.99177e-06
4.99591e-06