/*--------------------------------*- C++ -*----------------------------------*\
| =========                 |                                                 |
| \\      /  F ield         | OpenFOAM: The Open Source CFD Toolbox           |
|  \\    /   O peration     | Version:  2312                                  |
|   \\  /    A nd           | Website:  www.openfoam.com                      |
|    \\/     M anipulation  |                                                 |
\*---------------------------------------------------------------------------*/
FoamFile
{
    version     2.0;
    format      ascii;
    arch        "LSB;label=32;scalar=64";
    class       volScalarField;
    location    "1800";
    object      nut;
}
// * * * * * * * * * * * * * * * * * * * * * * * * * * * * * * * * * * * * * //

dimensions      [0 2 -1 0 0 0 0];

internalField   nonuniform List<scalar> 
76025
(
6.07262e-05
6.04276e-05
6.06328e-05
6.1378e-05
6.0559e-05
6.03065e-05
6.0828e-05
6.02436e-05
6.11333e-05
6.09209e-05
6.06114e-05
6.02392e-05
6.04251e-05
5.98801e-05
6.04915e-05
6.03164e-05
6.05153e-05
6.00138e-05
6.07635e-05
6.01678e-05
5.95087e-05
5.99168e-05
5.99458e-05
5.9562e-05
6.01712e-05
5.91936e-05
5.88037e-05
5.91713e-05
5.81111e-05
5.87591e-05
5.9003e-05
5.68704e-05
5.65845e-05
5.72176e-05
5.7173e-05
5.71611e-05
5.48562e-05
5.40422e-05
5.41636e-05
5.41255e-05
5.36894e-05
5.13064e-05
5.05297e-05
5.12842e-05
5.11993e-05
5.07972e-05
5.04516e-05
5.13518e-05
5.17407e-05
5.2279e-05
5.24689e-05
5.25084e-05
5.3152e-05
5.34889e-05
5.43099e-05
5.49942e-05
5.41848e-05
5.31128e-05
5.17886e-05
5.09532e-05
4.99577e-05
4.82274e-05
4.77238e-05
4.66238e-05
4.59757e-05
4.56186e-05
4.31408e-05
4.21205e-05
4.28765e-05
5.69514e-05
5.66433e-05
5.66967e-05
5.68742e-05
5.69225e-05
5.67963e-05
5.69814e-05
5.6824e-05
5.68038e-05
5.69133e-05
5.69736e-05
5.70078e-05
5.71322e-05
5.70293e-05
5.69839e-05
5.70444e-05
5.69315e-05
5.69739e-05
5.69677e-05
5.70976e-05
5.69436e-05
5.69641e-05
5.68648e-05
5.67256e-05
5.6706e-05
5.67663e-05
5.67076e-05
5.66963e-05
5.64066e-05
5.59824e-05
5.58682e-05
5.58247e-05
5.58483e-05
5.59427e-05
5.55997e-05
5.52423e-05
5.48238e-05
5.46463e-05
5.48187e-05
5.474e-05
5.45253e-05
5.44209e-05
5.4715e-05
5.50421e-05
5.49936e-05
5.4934e-05
5.52361e-05
5.55614e-05
5.55381e-05
5.54993e-05
5.55003e-05
5.52538e-05
5.53413e-05
5.53296e-05
5.49428e-05
5.41082e-05
5.36583e-05
5.28232e-05
5.20496e-05
5.06363e-05
4.99258e-05
4.91013e-05
4.85406e-05
4.72923e-05
4.64504e-05
4.51152e-05
4.44237e-05
4.40355e-05
4.29256e-05
5.32187e-05
5.294e-05
5.2893e-05
5.28432e-05
5.29028e-05
5.29494e-05
5.29781e-05
5.2931e-05
5.29634e-05
5.29778e-05
5.30026e-05
5.30609e-05
5.31275e-05
5.32752e-05
5.32913e-05
5.33247e-05
5.33246e-05
5.344e-05
5.34786e-05
5.35401e-05
5.35402e-05
5.36158e-05
5.35921e-05
5.35415e-05
5.36203e-05
5.36872e-05
5.37528e-05
5.37327e-05
5.35441e-05
5.33526e-05
5.32639e-05
5.33455e-05
5.34049e-05
5.34186e-05
5.34109e-05
5.33904e-05
5.3339e-05
5.32926e-05
5.33381e-05
5.3397e-05
5.34182e-05
5.34253e-05
5.34957e-05
5.35551e-05
5.36116e-05
5.36113e-05
5.36908e-05
5.37096e-05
5.36835e-05
5.35166e-05
5.33985e-05
5.30552e-05
5.28439e-05
5.24556e-05
5.21374e-05
5.14897e-05
5.10506e-05
5.02576e-05
4.9584e-05
4.86056e-05
4.79723e-05
4.70927e-05
4.64748e-05
4.54459e-05
4.48296e-05
4.37701e-05
4.31803e-05
4.25507e-05
4.08978e-05
4.97309e-05
4.94711e-05
4.9482e-05
4.94284e-05
4.93913e-05
4.9469e-05
4.94806e-05
4.95136e-05
4.94838e-05
4.95764e-05
4.9616e-05
4.96615e-05
4.97933e-05
4.98777e-05
4.99636e-05
4.99588e-05
5.00915e-05
5.01073e-05
5.0161e-05
5.02562e-05
5.0376e-05
5.04863e-05
5.06407e-05
5.07349e-05
5.09376e-05
5.1039e-05
5.11355e-05
5.10584e-05
5.11367e-05
5.1077e-05
5.10995e-05
5.11866e-05
5.12843e-05
5.13817e-05
5.14932e-05
5.16044e-05
5.16695e-05
5.17145e-05
5.18181e-05
5.19275e-05
5.2025e-05
5.20811e-05
5.21673e-05
5.22342e-05
5.23181e-05
5.2309e-05
5.23292e-05
5.22545e-05
5.2195e-05
5.19723e-05
5.18077e-05
5.14666e-05
5.12365e-05
5.08263e-05
5.0524e-05
4.99372e-05
4.95092e-05
4.87926e-05
4.826e-05
4.74055e-05
4.68526e-05
4.60146e-05
4.55159e-05
4.46222e-05
4.41346e-05
4.32098e-05
4.28078e-05
4.21794e-05
4.06287e-05
4.64213e-05
4.62305e-05
4.63024e-05
4.62988e-05
4.62965e-05
4.62493e-05
4.63002e-05
4.62871e-05
4.63006e-05
4.63599e-05
4.6439e-05
4.65501e-05
4.66621e-05
4.67869e-05
4.6903e-05
4.70291e-05
4.7163e-05
4.7269e-05
4.73878e-05
4.74937e-05
4.75489e-05
4.75973e-05
4.77032e-05
4.78193e-05
4.79588e-05
4.80881e-05
4.82257e-05
4.83516e-05
4.84847e-05
4.86174e-05
4.87622e-05
4.89211e-05
4.90902e-05
4.92621e-05
4.94395e-05
4.96167e-05
4.97484e-05
4.98491e-05
4.99917e-05
5.01158e-05
5.0242e-05
5.03251e-05
5.04266e-05
5.04772e-05
5.05465e-05
5.05221e-05
5.05319e-05
5.04305e-05
5.0374e-05
5.01609e-05
5.00226e-05
4.97085e-05
4.95024e-05
4.90955e-05
4.88196e-05
4.82888e-05
4.79279e-05
4.72945e-05
4.68756e-05
4.61574e-05
4.57406e-05
4.5024e-05
4.46538e-05
4.39149e-05
4.35655e-05
4.28086e-05
4.24538e-05
4.19367e-05
3.99498e-05
4.33671e-05
4.3225e-05
4.32756e-05
4.3302e-05
4.33258e-05
4.33433e-05
4.33326e-05
4.33327e-05
4.33489e-05
4.34585e-05
4.35095e-05
4.35747e-05
4.36478e-05
4.37457e-05
4.38545e-05
4.39621e-05
4.40891e-05
4.42002e-05
4.43278e-05
4.44648e-05
4.46054e-05
4.47489e-05
4.49032e-05
4.50649e-05
4.52367e-05
4.54156e-05
4.5602e-05
4.57926e-05
4.59872e-05
4.61854e-05
4.63906e-05
4.6603e-05
4.68234e-05
4.70435e-05
4.72668e-05
4.74852e-05
4.76622e-05
4.77996e-05
4.79746e-05
4.81232e-05
4.82793e-05
4.83901e-05
4.8516e-05
4.85795e-05
4.86672e-05
4.86631e-05
4.86951e-05
4.86102e-05
4.85774e-05
4.83952e-05
4.82898e-05
4.80122e-05
4.78445e-05
4.74799e-05
4.72588e-05
4.68047e-05
4.65321e-05
4.60019e-05
4.57045e-05
4.51221e-05
4.48373e-05
4.42433e-05
4.39978e-05
4.33832e-05
4.31608e-05
4.25053e-05
4.22445e-05
4.1853e-05
3.9717e-05
4.05754e-05
4.04427e-05
4.05161e-05
4.05555e-05
4.06391e-05
4.06644e-05
4.06733e-05
4.07313e-05
4.0747e-05
4.07956e-05
4.08557e-05
4.09219e-05
4.1007e-05
4.11014e-05
4.12055e-05
4.13399e-05
4.15087e-05
4.16456e-05
4.17799e-05
4.18659e-05
4.19917e-05
4.21469e-05
4.23207e-05
4.25086e-05
4.27078e-05
4.29173e-05
4.31354e-05
4.33602e-05
4.35918e-05
4.38285e-05
4.40721e-05
4.432e-05
4.45743e-05
4.48271e-05
4.50838e-05
4.53269e-05
4.55394e-05
4.57153e-05
4.59221e-05
4.61021e-05
4.62897e-05
4.64308e-05
4.65863e-05
4.66769e-05
4.67915e-05
4.6817e-05
4.68777e-05
4.68257e-05
4.68272e-05
4.66904e-05
4.66319e-05
4.64125e-05
4.63052e-05
4.60111e-05
4.5866e-05
4.55024e-05
4.53293e-05
4.49084e-05
4.47287e-05
4.42699e-05
4.41079e-05
4.36345e-05
4.3506e-05
4.30123e-05
4.29122e-05
4.23442e-05
4.22763e-05
4.17772e-05
4.01463e-05
3.79005e-05
3.77747e-05
3.78314e-05
3.78783e-05
3.79447e-05
3.80138e-05
3.8077e-05
3.81373e-05
3.81973e-05
3.82629e-05
3.83353e-05
3.84084e-05
3.84931e-05
3.85862e-05
3.86884e-05
3.88047e-05
3.89337e-05
3.90693e-05
3.92148e-05
3.9369e-05
3.95371e-05
3.97202e-05
3.99162e-05
4.0125e-05
4.03448e-05
4.05747e-05
4.08145e-05
4.10621e-05
4.13185e-05
4.15809e-05
4.18516e-05
4.21261e-05
4.24075e-05
4.26881e-05
4.29746e-05
4.32386e-05
4.34819e-05
4.3699e-05
4.39373e-05
4.41506e-05
4.43704e-05
4.45463e-05
4.47341e-05
4.48623e-05
4.50099e-05
4.50791e-05
4.51774e-05
4.51785e-05
4.52249e-05
4.51537e-05
4.51508e-05
4.50084e-05
4.49667e-05
4.47581e-05
4.46899e-05
4.44211e-05
4.43384e-05
4.40199e-05
4.39396e-05
4.35872e-05
4.35273e-05
4.31595e-05
4.31267e-05
4.27549e-05
4.27192e-05
4.23445e-05
4.224e-05
4.2072e-05
4.03472e-05
3.54966e-05
3.53705e-05
3.54409e-05
3.54861e-05
3.55429e-05
3.55985e-05
3.56453e-05
3.5709e-05
3.5786e-05
3.58731e-05
3.59649e-05
3.60576e-05
3.61546e-05
3.62574e-05
3.63687e-05
3.64901e-05
3.66239e-05
3.67692e-05
3.69278e-05
3.70991e-05
3.72844e-05
3.74826e-05
3.76943e-05
3.7918e-05
3.8154e-05
3.84006e-05
3.86585e-05
3.89253e-05
3.9202e-05
3.9486e-05
3.97785e-05
4.00757e-05
4.03805e-05
4.06861e-05
4.09999e-05
4.12839e-05
4.15545e-05
4.18142e-05
4.20843e-05
4.2334e-05
4.25878e-05
4.28058e-05
4.30296e-05
4.32067e-05
4.33927e-05
4.35195e-05
4.36602e-05
4.37292e-05
4.3822e-05
4.38296e-05
4.38779e-05
4.38227e-05
4.38362e-05
4.37191e-05
4.37107e-05
4.3534e-05
4.35176e-05
4.32887e-05
4.32806e-05
4.30145e-05
4.30354e-05
4.27503e-05
4.28182e-05
4.25284e-05
4.26245e-05
4.23757e-05
4.2329e-05
4.2604e-05
4.09979e-05
3.32743e-05
3.32081e-05
3.32747e-05
3.3319e-05
3.33617e-05
3.34575e-05
3.3473e-05
3.35612e-05
3.36301e-05
3.3675e-05
3.37531e-05
3.38586e-05
3.39767e-05
3.4102e-05
3.42348e-05
3.43754e-05
3.45259e-05
3.46869e-05
3.48593e-05
3.50437e-05
3.52409e-05
3.54507e-05
3.56735e-05
3.59089e-05
3.61569e-05
3.64168e-05
3.66885e-05
3.69709e-05
3.7264e-05
3.75663e-05
3.78782e-05
3.81969e-05
3.85239e-05
3.88544e-05
3.91947e-05
3.95025e-05
3.9799e-05
4.01031e-05
4.04077e-05
4.06992e-05
4.09891e-05
4.12565e-05
4.15186e-05
4.17528e-05
4.19786e-05
4.21715e-05
4.23524e-05
4.24971e-05
4.26292e-05
4.27212e-05
4.2806e-05
4.28413e-05
4.2887e-05
4.28613e-05
4.28818e-05
4.27924e-05
4.28056e-05
4.26575e-05
4.26857e-05
4.24976e-05
4.257e-05
4.23683e-05
4.25248e-05
4.23216e-05
4.26068e-05
4.24056e-05
4.26886e-05
4.31457e-05
4.05165e-05
3.10675e-05
3.09908e-05
3.10741e-05
3.11352e-05
3.12152e-05
3.13078e-05
3.1392e-05
3.14841e-05
3.16162e-05
3.16745e-05
3.18012e-05
3.18733e-05
3.19776e-05
3.21071e-05
3.22524e-05
3.24102e-05
3.25786e-05
3.27578e-05
3.29475e-05
3.31483e-05
3.33608e-05
3.35851e-05
3.38215e-05
3.40703e-05
3.43317e-05
3.46056e-05
3.4892e-05
3.51904e-05
3.55007e-05
3.5822e-05
3.6154e-05
3.64954e-05
3.68459e-05
3.72033e-05
3.75673e-05
3.7906e-05
3.82339e-05
3.85799e-05
3.89221e-05
3.92587e-05
3.95868e-05
3.99054e-05
4.02077e-05
4.0499e-05
4.07652e-05
4.10211e-05
4.12407e-05
4.14539e-05
4.16195e-05
4.1785e-05
4.18942e-05
4.2007e-05
4.20648e-05
4.21185e-05
4.21397e-05
4.21297e-05
4.2139e-05
4.20702e-05
4.21012e-05
4.19976e-05
4.20925e-05
4.19964e-05
4.22113e-05
4.21678e-05
4.25865e-05
4.26251e-05
4.32549e-05
4.39648e-05
4.15906e-05
2.90786e-05
2.90225e-05
2.90964e-05
2.91868e-05
2.92634e-05
2.93921e-05
2.94791e-05
2.958e-05
2.96378e-05
2.97409e-05
2.98229e-05
2.99319e-05
3.00619e-05
3.02089e-05
3.037e-05
3.05434e-05
3.07286e-05
3.09246e-05
3.11321e-05
3.13503e-05
3.15805e-05
3.18223e-05
3.20767e-05
3.23434e-05
3.26229e-05
3.29153e-05
3.32205e-05
3.35387e-05
3.38696e-05
3.42132e-05
3.45685e-05
3.49355e-05
3.53126e-05
3.57001e-05
3.60862e-05
3.64595e-05
3.68282e-05
3.72129e-05
3.75949e-05
3.79756e-05
3.8345e-05
3.87102e-05
3.90559e-05
3.9395e-05
3.97057e-05
4.00087e-05
4.02719e-05
4.05304e-05
4.07356e-05
4.09446e-05
4.10848e-05
4.12417e-05
4.13174e-05
4.14204e-05
4.1444e-05
4.14934e-05
4.14937e-05
4.14978e-05
4.15191e-05
4.15058e-05
4.16079e-05
4.16294e-05
4.19049e-05
4.2035e-05
4.26418e-05
4.29927e-05
4.40041e-05
4.5596e-05
4.33995e-05
2.73163e-05
2.72577e-05
2.73735e-05
2.74375e-05
2.7515e-05
2.75415e-05
2.76554e-05
2.76986e-05
2.77685e-05
2.78683e-05
2.79858e-05
2.81185e-05
2.82651e-05
2.84242e-05
2.85959e-05
2.87793e-05
2.8975e-05
2.91824e-05
2.94019e-05
2.96339e-05
2.9878e-05
3.01355e-05
3.04058e-05
3.06896e-05
3.0987e-05
3.12981e-05
3.16233e-05
3.19625e-05
3.23158e-05
3.26832e-05
3.30641e-05
3.34584e-05
3.38645e-05
3.42846e-05
3.46951e-05
3.51008e-05
3.55153e-05
3.59383e-05
3.63612e-05
3.6783e-05
3.71964e-05
3.76021e-05
3.79945e-05
3.83716e-05
3.87311e-05
3.90669e-05
3.93804e-05
3.96645e-05
3.99205e-05
4.01473e-05
4.03374e-05
4.05066e-05
4.06279e-05
4.07444e-05
4.08042e-05
4.08779e-05
4.08999e-05
4.09487e-05
4.09767e-05
4.10374e-05
4.11425e-05
4.12893e-05
4.1606e-05
4.19608e-05
4.27566e-05
4.35191e-05
4.50209e-05
4.74712e-05
4.71166e-05
2.54657e-05
2.54159e-05
2.55002e-05
2.55665e-05
2.56454e-05
2.573e-05
2.58251e-05
2.59228e-05
2.60306e-05
2.61504e-05
2.62827e-05
2.6426e-05
2.6581e-05
2.67466e-05
2.69243e-05
2.7113e-05
2.73145e-05
2.75278e-05
2.77546e-05
2.79939e-05
2.82475e-05
2.85144e-05
2.87965e-05
2.90927e-05
2.94049e-05
2.97317e-05
3.00748e-05
3.04332e-05
3.08077e-05
3.11975e-05
3.16032e-05
3.20235e-05
3.24585e-05
3.29081e-05
3.33469e-05
3.37854e-05
3.42445e-05
3.47069e-05
3.51721e-05
3.56343e-05
3.60935e-05
3.65399e-05
3.69801e-05
3.73965e-05
3.78047e-05
3.81767e-05
3.85389e-05
3.88548e-05
3.91597e-05
3.94126e-05
3.96524e-05
3.9841e-05
4.00134e-05
4.0143e-05
4.0252e-05
4.03369e-05
4.03979e-05
4.04638e-05
4.05148e-05
4.06124e-05
4.0736e-05
4.09797e-05
4.13506e-05
4.19449e-05
4.29077e-05
4.41058e-05
4.59125e-05
4.87761e-05
4.8634e-05
2.38235e-05
2.3784e-05
2.38668e-05
2.39409e-05
2.40245e-05
2.41212e-05
2.42239e-05
2.43326e-05
2.44499e-05
2.45777e-05
2.47157e-05
2.48642e-05
2.50226e-05
2.5192e-05
2.53719e-05
2.5564e-05
2.57678e-05
2.59847e-05
2.62143e-05
2.64582e-05
2.67162e-05
2.69894e-05
2.72779e-05
2.75823e-05
2.79036e-05
2.82413e-05
2.85969e-05
2.89696e-05
2.9361e-05
2.97696e-05
3.01973e-05
3.06415e-05
3.11043e-05
3.15772e-05
3.2048e-05
3.25242e-05
3.3023e-05
3.35261e-05
3.40357e-05
3.45413e-05
3.50485e-05
3.5542e-05
3.60315e-05
3.6498e-05
3.69537e-05
3.73788e-05
3.77836e-05
3.81558e-05
3.84956e-05
3.88078e-05
3.90738e-05
3.93221e-05
3.95118e-05
3.96964e-05
3.98142e-05
3.99428e-05
4.00023e-05
4.01008e-05
4.01444e-05
4.02787e-05
4.04211e-05
4.07376e-05
4.11878e-05
4.19054e-05
4.29372e-05
4.42066e-05
4.60386e-05
4.99263e-05
5.00307e-05
2.232e-05
2.22914e-05
2.23766e-05
2.24549e-05
2.2542e-05
2.26422e-05
2.27486e-05
2.28609e-05
2.29816e-05
2.31123e-05
2.32531e-05
2.34039e-05
2.35649e-05
2.37362e-05
2.39187e-05
2.41125e-05
2.43188e-05
2.45375e-05
2.477e-05
2.50163e-05
2.52778e-05
2.55547e-05
2.58484e-05
2.61589e-05
2.64872e-05
2.68341e-05
2.72002e-05
2.75857e-05
2.79921e-05
2.84184e-05
2.88666e-05
2.93342e-05
2.98256e-05
3.03204e-05
3.08245e-05
3.13465e-05
3.18882e-05
3.24364e-05
3.29968e-05
3.35526e-05
3.41151e-05
3.46628e-05
3.52102e-05
3.57332e-05
3.62463e-05
3.67288e-05
3.71872e-05
3.76172e-05
3.80027e-05
3.83732e-05
3.86722e-05
3.8979e-05
3.91838e-05
3.9424e-05
3.95349e-05
3.97125e-05
3.97469e-05
3.98949e-05
3.99123e-05
4.01247e-05
4.02478e-05
4.06485e-05
4.09825e-05
4.15664e-05
4.20331e-05
4.26746e-05
4.37067e-05
4.63674e-05
5.2177e-05
2.09637e-05
2.09436e-05
2.10298e-05
2.1109e-05
2.11968e-05
2.12968e-05
2.14036e-05
2.15158e-05
2.16368e-05
2.17671e-05
2.1908e-05
2.20583e-05
2.22195e-05
2.23905e-05
2.25733e-05
2.27673e-05
2.29744e-05
2.31942e-05
2.34283e-05
2.36768e-05
2.39411e-05
2.42216e-05
2.45195e-05
2.4836e-05
2.51717e-05
2.5528e-05
2.5905e-05
2.63048e-05
2.6727e-05
2.71729e-05
2.7643e-05
2.81369e-05
2.86567e-05
2.91801e-05
2.97204e-05
3.02881e-05
3.08759e-05
3.14733e-05
3.20875e-05
3.27006e-05
3.33242e-05
3.39342e-05
3.4548e-05
3.51339e-05
3.57163e-05
3.62564e-05
3.67856e-05
3.72616e-05
3.77185e-05
3.81187e-05
3.84872e-05
3.8806e-05
3.9072e-05
3.93116e-05
3.94709e-05
3.96523e-05
3.97327e-05
3.99104e-05
3.99773e-05
4.02083e-05
4.02534e-05
4.04133e-05
4.01693e-05
3.9824e-05
3.91587e-05
3.86377e-05
3.93618e-05
4.30186e-05
4.63022e-05
1.96924e-05
1.96805e-05
1.97673e-05
1.98476e-05
1.99353e-05
2.00348e-05
2.01405e-05
2.02518e-05
2.03713e-05
2.05005e-05
2.06399e-05
2.07894e-05
2.09488e-05
2.11193e-05
2.13006e-05
2.14946e-05
2.17006e-05
2.19209e-05
2.21547e-05
2.24049e-05
2.26703e-05
2.29538e-05
2.32556e-05
2.35776e-05
2.39201e-05
2.42855e-05
2.46741e-05
2.50878e-05
2.5527e-05
2.59935e-05
2.64876e-05
2.70105e-05
2.7557e-05
2.8119e-05
2.87103e-05
2.93305e-05
2.99759e-05
3.0637e-05
3.13156e-05
3.20009e-05
3.26932e-05
3.3381e-05
3.40632e-05
3.47288e-05
3.53746e-05
3.59921e-05
3.65768e-05
3.7123e-05
3.76269e-05
3.80845e-05
3.84936e-05
3.88569e-05
3.91634e-05
3.9455e-05
3.96632e-05
3.99425e-05
4.00624e-05
4.03478e-05
4.02914e-05
4.03444e-05
3.9688e-05
3.8952e-05
3.72904e-05
3.58543e-05
3.4541e-05
3.47177e-05
3.86086e-05
4.3586e-05
3.67654e-05
1.85565e-05
1.85504e-05
1.86365e-05
1.87161e-05
1.88032e-05
1.89009e-05
1.90051e-05
1.91144e-05
1.92317e-05
1.93578e-05
1.94937e-05
1.96396e-05
1.97957e-05
1.99625e-05
2.01408e-05
2.03318e-05
2.05357e-05
2.07539e-05
2.09868e-05
2.12362e-05
2.15026e-05
2.17876e-05
2.20927e-05
2.24187e-05
2.27684e-05
2.31417e-05
2.35426e-05
2.39695e-05
2.44279e-05
2.49153e-05
2.54382e-05
2.59926e-05
2.65695e-05
2.7168e-05
2.78086e-05
2.84762e-05
2.91774e-05
2.98994e-05
3.0648e-05
3.14073e-05
3.21812e-05
3.29528e-05
3.37212e-05
3.44747e-05
3.52015e-05
3.59053e-05
3.65574e-05
3.71852e-05
3.77425e-05
3.82778e-05
3.8743e-05
3.91917e-05
3.95898e-05
3.9996e-05
4.032e-05
4.06941e-05
4.07476e-05
4.07901e-05
4.00076e-05
3.89868e-05
3.68654e-05
3.48107e-05
3.25063e-05
3.14506e-05
3.27162e-05
3.77259e-05
3.67633e-05
3.3061e-05
2.76944e-05
1.74834e-05
1.74819e-05
1.75651e-05
1.76422e-05
1.7726e-05
1.78201e-05
1.79207e-05
1.80263e-05
1.81397e-05
1.82622e-05
1.83942e-05
1.8536e-05
1.86879e-05
1.88503e-05
1.9024e-05
1.921e-05
1.94094e-05
1.96231e-05
1.98523e-05
2.0098e-05
2.03621e-05
2.06452e-05
2.09503e-05
2.12772e-05
2.16303e-05
2.20083e-05
2.24172e-05
2.28547e-05
2.3328e-05
2.38339e-05
2.4381e-05
2.49624e-05
2.55797e-05
2.6236e-05
2.6944e-05
2.76869e-05
2.84726e-05
2.92845e-05
3.01305e-05
3.099e-05
3.18679e-05
3.2742e-05
3.36119e-05
3.44644e-05
3.52816e-05
3.6079e-05
3.68083e-05
3.75338e-05
3.81698e-05
3.88278e-05
3.94037e-05
4.0004e-05
4.05297e-05
4.10082e-05
4.12336e-05
4.12225e-05
4.04229e-05
3.91861e-05
3.68382e-05
3.43944e-05
3.17155e-05
3.01996e-05
3.01047e-05
3.35392e-05
3.65907e-05
3.2956e-05
2.74281e-05
2.36694e-05
2.29933e-05
1.65993e-05
1.66009e-05
1.66825e-05
1.67584e-05
1.68397e-05
1.69311e-05
1.70276e-05
1.71293e-05
1.7238e-05
1.73552e-05
1.74816e-05
1.76178e-05
1.77638e-05
1.79207e-05
1.8089e-05
1.82698e-05
1.84641e-05
1.86729e-05
1.88982e-05
1.914e-05
1.94019e-05
1.96828e-05
1.99878e-05
2.03147e-05
2.06708e-05
2.10529e-05
2.14694e-05
2.19178e-05
2.24062e-05
2.2933e-05
2.35062e-05
2.41086e-05
2.47492e-05
2.5438e-05
2.61813e-05
2.69682e-05
2.78144e-05
2.86957e-05
2.96354e-05
3.05936e-05
3.15977e-05
3.25959e-05
3.36103e-05
3.45994e-05
3.55644e-05
3.65035e-05
3.73841e-05
3.82686e-05
3.90635e-05
3.9879e-05
4.05443e-05
4.11125e-05
4.13567e-05
4.11589e-05
4.02665e-05
3.86776e-05
3.62975e-05
3.37489e-05
3.1234e-05
2.95781e-05
2.97244e-05
3.30428e-05
3.50801e-05
3.16134e-05
2.64279e-05
2.28115e-05
2.15256e-05
2.01766e-05
1.99705e-05
1.56853e-05
1.56917e-05
1.57675e-05
1.58387e-05
1.59156e-05
1.60029e-05
1.60954e-05
1.61939e-05
1.62988e-05
1.64127e-05
1.65352e-05
1.66674e-05
1.68091e-05
1.6961e-05
1.71242e-05
1.72994e-05
1.74882e-05
1.76911e-05
1.79101e-05
1.81467e-05
1.8402e-05
1.86787e-05
1.89785e-05
1.9304e-05
1.96567e-05
2.00417e-05
2.046e-05
2.0917e-05
2.14156e-05
2.19603e-05
2.25573e-05
2.32095e-05
2.39295e-05
2.47145e-05
2.55689e-05
2.64796e-05
2.74639e-05
2.84915e-05
2.95899e-05
3.0706e-05
3.1877e-05
3.30354e-05
3.4219e-05
3.53633e-05
3.64981e-05
3.75815e-05
3.861e-05
3.95519e-05
4.03087e-05
4.08064e-05
4.08146e-05
4.02496e-05
3.89458e-05
3.70102e-05
3.46594e-05
3.2272e-05
3.03889e-05
2.9472e-05
3.062e-05
3.56783e-05
3.32396e-05
2.91658e-05
2.43729e-05
2.0774e-05
1.99056e-05
1.88318e-05
2.1281e-05
1.92904e-05
3.36918e-05
1.51895e-05
1.51885e-05
1.52614e-05
1.53281e-05
1.53992e-05
1.54785e-05
1.55636e-05
1.5653e-05
1.57498e-05
1.5854e-05
1.59676e-05
1.60897e-05
1.62223e-05
1.63649e-05
1.65189e-05
1.66845e-05
1.68641e-05
1.70572e-05
1.72675e-05
1.7495e-05
1.77425e-05
1.80113e-05
1.8305e-05
1.86256e-05
1.89761e-05
1.93607e-05
1.97814e-05
2.02457e-05
2.07531e-05
2.13143e-05
2.19088e-05
2.25496e-05
2.32515e-05
2.40246e-05
2.48747e-05
2.5806e-05
2.68314e-05
2.79388e-05
2.91499e-05
3.04283e-05
3.17973e-05
3.31943e-05
3.46211e-05
3.59941e-05
3.72677e-05
3.83379e-05
3.90971e-05
3.93934e-05
3.90995e-05
3.80928e-05
3.64346e-05
3.43664e-05
3.2177e-05
3.04563e-05
2.95854e-05
3.01694e-05
3.41158e-05
3.25668e-05
2.83396e-05
2.49683e-05
2.16846e-05
1.92784e-05
1.70566e-05
1.68988e-05
1.70042e-05
2.12937e-05
2.73116e-05
4.39975e-05
6.99037e-05
1.43176e-05
1.43434e-05
1.44198e-05
1.44888e-05
1.4564e-05
1.46459e-05
1.47337e-05
1.48244e-05
1.49219e-05
1.50254e-05
1.51379e-05
1.52581e-05
1.53883e-05
1.55275e-05
1.56787e-05
1.58409e-05
1.60175e-05
1.62064e-05
1.64138e-05
1.66372e-05
1.68824e-05
1.71485e-05
1.74408e-05
1.77605e-05
1.81114e-05
1.84981e-05
1.89233e-05
1.93966e-05
1.99212e-05
2.0517e-05
2.11925e-05
2.19616e-05
2.28194e-05
2.37756e-05
2.48304e-05
2.59924e-05
2.72616e-05
2.86319e-05
3.00959e-05
3.1616e-05
3.31477e-05
3.45982e-05
3.58445e-05
3.67511e-05
3.71425e-05
3.69656e-05
3.61723e-05
3.49002e-05
3.3358e-05
3.17649e-05
3.05356e-05
3.00927e-05
3.11561e-05
3.34494e-05
2.98192e-05
2.62975e-05
2.30103e-05
2.02987e-05
1.76369e-05
1.63672e-05
1.54491e-05
1.49373e-05
1.52704e-05
1.98571e-05
2.72736e-05
4.25236e-05
5.51673e-05
6.38602e-05
7.0838e-05
1.45159e-05
1.44827e-05
1.4533e-05
1.45818e-05
1.46347e-05
1.46959e-05
1.47638e-05
1.48363e-05
1.49163e-05
1.50029e-05
1.50986e-05
1.52016e-05
1.53144e-05
1.54356e-05
1.55679e-05
1.57108e-05
1.58666e-05
1.60358e-05
1.62198e-05
1.64212e-05
1.66402e-05
1.68816e-05
1.71446e-05
1.74375e-05
1.77569e-05
1.81134e-05
1.85027e-05
1.89403e-05
1.94091e-05
1.99119e-05
2.0459e-05
2.10837e-05
2.17911e-05
2.2603e-05
2.35276e-05
2.45683e-05
2.57301e-05
2.69868e-05
2.83063e-05
2.96114e-05
3.07892e-05
3.17101e-05
3.2228e-05
3.22822e-05
3.1881e-05
3.13282e-05
3.09021e-05
3.1223e-05
3.29171e-05
3.05731e-05
2.75939e-05
2.46958e-05
2.17559e-05
1.93675e-05
1.71076e-05
1.53153e-05
1.3792e-05
1.31038e-05
1.19279e-05
1.29853e-05
1.49534e-05
1.97293e-05
2.79173e-05
3.63992e-05
3.94119e-05
5.42753e-05
7.01929e-05
7.28311e-05
7.01857e-05
1.3605e-05
1.36796e-05
1.37697e-05
1.38432e-05
1.39198e-05
1.40014e-05
1.40877e-05
1.4176e-05
1.4271e-05
1.43722e-05
1.44821e-05
1.46015e-05
1.47299e-05
1.48711e-05
1.50238e-05
1.51918e-05
1.53744e-05
1.55768e-05
1.57966e-05
1.60388e-05
1.6304e-05
1.65946e-05
1.69194e-05
1.72842e-05
1.76975e-05
1.81637e-05
1.8686e-05
1.92787e-05
1.99557e-05
2.07173e-05
2.15457e-05
2.24334e-05
2.33703e-05
2.4343e-05
2.53336e-05
2.63416e-05
2.73674e-05
2.84043e-05
2.94679e-05
3.05571e-05
3.17323e-05
3.24248e-05
3.04959e-05
2.83333e-05
2.61173e-05
2.38691e-05
2.16094e-05
1.95413e-05
1.75808e-05
1.58661e-05
1.43278e-05
1.31155e-05
1.23573e-05
1.18764e-05
1.10266e-05
1.05482e-05
1.06983e-05
1.12046e-05
1.37707e-05
1.81902e-05
2.49806e-05
2.67432e-05
3.25363e-05
4.80798e-05
6.04207e-05
6.65587e-05
6.48349e-05
6.49152e-05
6.04667e-05
1.61728e-05
1.61123e-05
1.618e-05
1.62563e-05
1.63311e-05
1.64188e-05
1.6507e-05
1.6608e-05
1.67078e-05
1.68248e-05
1.69438e-05
1.70802e-05
1.72222e-05
1.73798e-05
1.75504e-05
1.77372e-05
1.7939e-05
1.81685e-05
1.84104e-05
1.86827e-05
1.89933e-05
1.93017e-05
1.96645e-05
2.00082e-05
2.03621e-05
2.06709e-05
2.09796e-05
2.12607e-05
2.15537e-05
2.19803e-05
2.25148e-05
2.31712e-05
2.42725e-05
2.41285e-05
2.28102e-05
2.14791e-05
2.01628e-05
1.88687e-05
1.76175e-05
1.64062e-05
1.52631e-05
1.41912e-05
1.3212e-05
1.23198e-05
1.14461e-05
1.10716e-05
1.0612e-05
1.02581e-05
9.903e-06
9.48806e-06
9.11721e-06
8.68639e-06
8.25932e-06
7.81939e-06
8.34919e-06
9.07748e-06
1.11131e-05
1.44187e-05
1.67306e-05
1.87397e-05
2.28095e-05
3.63869e-05
4.47209e-05
5.0679e-05
5.53334e-05
5.86212e-05
5.92787e-05
5.90334e-05
5.44553e-05
9.36913e-06
9.27749e-06
9.25201e-06
9.15685e-06
9.13223e-06
9.03313e-06
9.00862e-06
8.90441e-06
8.88316e-06
8.82665e-06
8.72641e-06
8.63008e-06
8.6107e-06
8.52379e-06
8.42313e-06
8.40095e-06
8.295e-06
8.22603e-06
8.19789e-06
8.0645e-06
8.03476e-06
7.89309e-06
7.88423e-06
7.74752e-06
7.6644e-06
7.5926e-06
7.53072e-06
7.46418e-06
7.4258e-06
7.38826e-06
7.3819e-06
7.37914e-06
7.39368e-06
7.42149e-06
7.45759e-06
7.51555e-06
7.56063e-06
7.62261e-06
7.66497e-06
7.71802e-06
7.74609e-06
7.76955e-06
7.74422e-06
7.68503e-06
7.55168e-06
7.35051e-06
6.88741e-06
6.33252e-06
5.87544e-06
5.42696e-06
5.00222e-06
4.7294e-06
4.4251e-06
4.76141e-06
4.38255e-06
3.97728e-06
5.92293e-06
8.37082e-06
9.42633e-06
8.55542e-06
8.87373e-06
1.31977e-05
1.87797e-05
2.36509e-05
2.95535e-05
3.48096e-05
3.853e-05
4.00288e-05
4.06069e-05
5.14369e-06
5.19485e-06
5.25076e-06
5.30848e-06
5.369e-06
5.43176e-06
5.49749e-06
5.56579e-06
5.63658e-06
5.71044e-06
5.78648e-06
5.86559e-06
5.94727e-06
6.03212e-06
6.11922e-06
6.20968e-06
6.3029e-06
6.39902e-06
6.4984e-06
6.60105e-06
6.7064e-06
6.81593e-06
6.92818e-06
7.0426e-06
7.15522e-06
7.2674e-06
7.38218e-06
7.48759e-06
7.60672e-06
7.70274e-06
7.81981e-06
7.92115e-06
7.99951e-06
8.07907e-06
8.15552e-06
8.29121e-06
8.19319e-06
8.30564e-06
8.23943e-06
8.28699e-06
7.99787e-06
7.55653e-06
6.98279e-06
6.23268e-06
5.27307e-06
4.00156e-06
2.62795e-06
1.32017e-06
4.74509e-07
3.10016e-07
3.65968e-07
4.78856e-07
5.1277e-07
5.11806e-07
4.65342e-07
3.52158e-07
3.1382e-07
3.14008e-07
3.27191e-07
3.28726e-07
3.57216e-07
4.69965e-07
6.24638e-07
8.47625e-07
1.14739e-06
1.5183e-06
1.87306e-06
2.12479e-06
2.2956e-06
8.43722e-05
8.46895e-05
8.27493e-05
8.30343e-05
8.27256e-05
8.19886e-05
8.06144e-05
8.04604e-05
8.05902e-05
7.99182e-05
8.03432e-05
7.9801e-05
7.73875e-05
7.55515e-05
7.57724e-05
7.75127e-05
7.59879e-05
7.45644e-05
7.37137e-05
7.33135e-05
7.21806e-05
7.2351e-05
7.16279e-05
6.9864e-05
6.99666e-05
6.95488e-05
6.80231e-05
6.77629e-05
6.79854e-05
6.74544e-05
6.60346e-05
6.58443e-05
6.54729e-05
6.52118e-05
6.38745e-05
6.38271e-05
6.33254e-05
6.29041e-05
6.29543e-05
6.2855e-05
6.23936e-05
6.22188e-05
6.22263e-05
6.21896e-05
6.12762e-05
6.14793e-05
6.22762e-05
6.13211e-05
6.10999e-05
6.16045e-05
6.15366e-05
6.11337e-05
6.21192e-05
6.07716e-05
6.05152e-05
6.10384e-05
6.04261e-05
6.04307e-05
6.10074e-05
7.74889e-05
7.75141e-05
7.68418e-05
7.66182e-05
7.61784e-05
7.54449e-05
7.4876e-05
7.48785e-05
7.49839e-05
7.45973e-05
7.40451e-05
7.289e-05
7.15988e-05
7.10572e-05
7.16053e-05
7.14739e-05
6.96332e-05
6.87593e-05
6.86025e-05
6.77698e-05
6.72465e-05
6.65926e-05
6.60897e-05
6.48587e-05
6.48523e-05
6.4228e-05
6.34063e-05
6.26453e-05
6.28743e-05
6.22914e-05
6.11681e-05
6.10523e-05
6.07636e-05
6.04603e-05
5.98258e-05
5.95326e-05
5.9319e-05
5.87379e-05
5.85465e-05
5.83353e-05
5.78776e-05
5.79568e-05
5.78102e-05
5.75456e-05
5.75544e-05
5.70389e-05
5.74106e-05
5.73545e-05
5.71477e-05
5.71228e-05
5.71184e-05
5.7082e-05
5.71541e-05
5.72115e-05
5.6862e-05
5.70738e-05
5.69452e-05
5.66261e-05
5.69182e-05
7.27255e-05
7.29637e-05
7.23602e-05
7.19157e-05
7.14386e-05
7.09789e-05
7.06559e-05
7.04245e-05
7.0051e-05
6.93566e-05
6.83735e-05
6.74023e-05
6.68778e-05
6.66667e-05
6.67218e-05
6.57218e-05
6.4577e-05
6.40854e-05
6.38306e-05
6.29518e-05
6.22945e-05
6.17665e-05
6.11274e-05
6.02829e-05
6.0168e-05
5.9421e-05
5.89406e-05
5.82113e-05
5.82659e-05
5.76537e-05
5.68781e-05
5.67202e-05
5.64291e-05
5.59894e-05
5.56709e-05
5.5389e-05
5.51814e-05
5.47978e-05
5.45313e-05
5.4346e-05
5.40173e-05
5.39298e-05
5.38361e-05
5.35764e-05
5.36337e-05
5.33337e-05
5.32668e-05
5.32597e-05
5.32722e-05
5.3208e-05
5.31068e-05
5.30616e-05
5.29946e-05
5.31165e-05
5.31167e-05
5.31104e-05
5.30464e-05
5.2779e-05
5.30388e-05
6.83634e-05
6.86132e-05
6.79339e-05
6.74959e-05
6.70631e-05
6.66573e-05
6.62486e-05
6.57591e-05
6.51085e-05
6.4307e-05
6.34997e-05
6.29349e-05
6.26495e-05
6.23563e-05
6.18187e-05
6.08313e-05
6.01822e-05
5.98585e-05
5.93961e-05
5.85951e-05
5.794e-05
5.74492e-05
5.67929e-05
5.61775e-05
5.5968e-05
5.52457e-05
5.48461e-05
5.42559e-05
5.41378e-05
5.35992e-05
5.30217e-05
5.28397e-05
5.25129e-05
5.2085e-05
5.182e-05
5.1589e-05
5.1389e-05
5.10781e-05
5.08268e-05
5.06716e-05
5.046e-05
5.03419e-05
5.02285e-05
5.00678e-05
5.00335e-05
4.98934e-05
4.9746e-05
4.96614e-05
4.96889e-05
4.96785e-05
4.96129e-05
4.95351e-05
4.94752e-05
4.94542e-05
4.94631e-05
4.94329e-05
4.93867e-05
4.92163e-05
4.94797e-05
6.40161e-05
6.42097e-05
6.3528e-05
6.31001e-05
6.26504e-05
6.21817e-05
6.16598e-05
6.10637e-05
6.04086e-05
5.97729e-05
5.92661e-05
5.89202e-05
5.85909e-05
5.8081e-05
5.73497e-05
5.6608e-05
5.61592e-05
5.57826e-05
5.5221e-05
5.4533e-05
5.39744e-05
5.3456e-05
5.28431e-05
5.23644e-05
5.20895e-05
5.14445e-05
5.10755e-05
5.05727e-05
5.03584e-05
4.98939e-05
4.94193e-05
4.92216e-05
4.89078e-05
4.85228e-05
4.82702e-05
4.80526e-05
4.78668e-05
4.76484e-05
4.73752e-05
4.72017e-05
4.7043e-05
4.69522e-05
4.68676e-05
4.67445e-05
4.6664e-05
4.66169e-05
4.65084e-05
4.63942e-05
4.63419e-05
4.63251e-05
4.63097e-05
4.63231e-05
4.62905e-05
4.62222e-05
4.61206e-05
4.61037e-05
4.60811e-05
4.5928e-05
4.61891e-05
5.97928e-05
5.99359e-05
5.9256e-05
5.88098e-05
5.83269e-05
5.78195e-05
5.72816e-05
5.67323e-05
5.62101e-05
5.57602e-05
5.53881e-05
5.50203e-05
5.45437e-05
5.39249e-05
5.32648e-05
5.27275e-05
5.23281e-05
5.1875e-05
5.13001e-05
5.07121e-05
5.0216e-05
4.96962e-05
4.91543e-05
4.87555e-05
4.8435e-05
4.78695e-05
4.75283e-05
4.7084e-05
4.68266e-05
4.64199e-05
4.60111e-05
4.57998e-05
4.55273e-05
4.51899e-05
4.49398e-05
4.47437e-05
4.45654e-05
4.43795e-05
4.41945e-05
4.39919e-05
4.38491e-05
4.37679e-05
4.37002e-05
4.36151e-05
4.35437e-05
4.34941e-05
4.34469e-05
4.34025e-05
4.33344e-05
4.32938e-05
4.32567e-05
4.32082e-05
4.31826e-05
4.31787e-05
4.31368e-05
4.31065e-05
4.3089e-05
4.2948e-05
4.31938e-05
5.57444e-05
5.58529e-05
5.5186e-05
5.47431e-05
5.42724e-05
5.37977e-05
5.33259e-05
5.28759e-05
5.24606e-05
5.20736e-05
5.16748e-05
5.12088e-05
5.06563e-05
5.0071e-05
4.9543e-05
4.91099e-05
4.86952e-05
4.82032e-05
4.7662e-05
4.71492e-05
4.66795e-05
4.61864e-05
4.57193e-05
4.53606e-05
4.5018e-05
4.45221e-05
4.42037e-05
4.38088e-05
4.35383e-05
4.31797e-05
4.28218e-05
4.261e-05
4.23689e-05
4.2077e-05
4.18385e-05
4.16558e-05
4.14971e-05
4.13418e-05
4.11743e-05
4.10276e-05
4.08764e-05
4.07718e-05
4.07124e-05
4.06617e-05
4.0618e-05
4.0575e-05
4.05325e-05
4.04878e-05
4.04359e-05
4.03995e-05
4.04018e-05
4.03863e-05
4.03671e-05
4.03785e-05
4.03579e-05
4.03191e-05
4.02885e-05
4.01504e-05
4.03833e-05
5.19097e-05
5.20101e-05
5.13848e-05
5.09802e-05
5.05595e-05
5.0147e-05
4.97437e-05
4.93515e-05
4.89599e-05
4.8548e-05
4.80913e-05
4.75852e-05
4.7059e-05
4.65627e-05
4.61246e-05
4.57162e-05
4.52757e-05
4.47869e-05
4.42964e-05
4.38377e-05
4.33925e-05
4.29338e-05
4.25194e-05
4.21835e-05
4.18359e-05
4.13985e-05
4.10976e-05
4.07457e-05
4.04785e-05
4.01605e-05
3.98442e-05
3.96312e-05
3.94262e-05
3.91752e-05
3.89499e-05
3.87636e-05
3.86337e-05