/*--------------------------------*- C++ -*----------------------------------*\
| =========                 |                                                 |
| \\      /  F ield         | OpenFOAM: The Open Source CFD Toolbox           |
|  \\    /   O peration     | Version:  2312                                  |
|   \\  /    A nd           | Website:  www.openfoam.com                      |
|    \\/     M anipulation  |                                                 |
\*---------------------------------------------------------------------------*/
FoamFile
{
    version     2.0;
    format      ascii;
    arch        "LSB;label=32;scalar=64";
    class       volScalarField;
    location    "1800";
    object      omega;
}
// * * * * * * * * * * * * * * * * * * * * * * * * * * * * * * * * * * * * * //

dimensions      [0 0 -1 0 0 0 0];

internalField   nonuniform List<scalar> 
76025
(
0.0287941
0.0287968
0.0288066
0.0288089
0.0288102
0.0288094
0.0288063
0.028792
0.0288227
0.0288537
0.0288692
0.0288939
0.0289076
0.0288928
0.0289444
0.0289193
0.0288991
0.0289525
0.0289557
0.0289662
0.0289783
0.0290022
0.0290085
0.0290379
0.0289843
0.0290518
0.0290514
0.0290942
0.0290898
0.0292344
0.0292897
0.0293792
0.0294509
0.0295359
0.0294364
0.0295756
0.0295451
0.0296235
0.0298276
0.0300437
0.0303726
0.0306737
0.0311406
0.0315204
0.0320105
0.0323988
0.0329275
0.0333458
0.0338356
0.0341882
0.0346735
0.0350144
0.0355185
0.035803
0.0362685
0.0365255
0.0370013
0.037292
0.0378744
0.0382434
0.0389814
0.0394581
0.0405319
0.0411845
0.0425787
0.043869
0.0452464
0.0476933
0.0490128
0.0291388
0.0291326
0.0291753
0.0291866
0.0291911
0.0291995
0.0291957
0.0291764
0.0291578
0.0292081
0.0292264
0.0292075
0.0292169
0.0292331
0.0292673
0.0293058
0.0293451
0.0293797
0.0294694
0.0294914
0.0295209
0.0295355
0.0294966
0.0295109
0.0295347
0.0295476
0.0296759
0.0297325
0.0297825
0.0297298
0.0297472
0.0298689
0.0300582
0.0303211
0.0303271
0.030448
0.0304768
0.0305918
0.0307902
0.0310049
0.0312953
0.0315709
0.0319253
0.032223
0.0326122
0.0329182
0.033335
0.0336282
0.034045
0.0343206
0.034751
0.0350309
0.0355217
0.0358076
0.0363514
0.0366574
0.0372968
0.0376586
0.0384428
0.0389139
0.0399555
0.0405851
0.041967
0.0428076
0.0446919
0.0457592
0.0482759
0.0495983
0.0521189
0.0295225
0.029545
0.0295585
0.0295794
0.029598
0.0296647
0.0296842
0.0296729
0.0297122
0.029722
0.0297149
0.0297452
0.0297553
0.029781
0.0297971
0.029766
0.0297772
0.0298157
0.0298688
0.0299741
0.0300696
0.0301235
0.030258
0.0303078
0.0303254
0.030369
0.0304334
0.0305045
0.0305259
0.0307049
0.0307743
0.0307355
0.030704
0.0307551
0.0308477
0.0309653
0.0311273
0.0312922
0.0315184
0.0317243
0.0320084
0.0322434
0.0325789
0.0328308
0.0332093
0.0334719
0.0338896
0.0341578
0.0346158
0.0348952
0.0354049
0.0356964
0.0362676
0.0365793
0.0372318
0.0375906
0.0383731
0.0388163
0.0397905
0.040354
0.041593
0.0423043
0.0438635
0.0447591
0.0466898
0.0478471
0.0501957
0.051686
0.0549921
0.0299717
0.0300028
0.0300359
0.0301082
0.0301265
0.0301102
0.0301333
0.0301788
0.0302263
0.0302659
0.0303493
0.0303208
0.0303963
0.0303802
0.0304158
0.0304538
0.0304708
0.0305736
0.0305331
0.030617
0.0306034
0.0305863
0.0306053
0.0306687
0.0307432
0.0308225
0.0309203
0.0310235
0.0311466
0.0312881
0.031377
0.0316095
0.0317135
0.0319868
0.0319121
0.0321082
0.0320736
0.0321288
0.0323065
0.0324756
0.0327475
0.0329609
0.033295
0.0335323
0.0339185
0.0341733
0.0346109
0.0348824
0.0353757
0.0356658
0.0362258
0.0365406
0.0371846
0.0375361
0.0382877
0.0386968
0.0395947
0.0400886
0.0411789
0.0417865
0.0431252
0.0438816
0.045542
0.0464992
0.0486031
0.0498436
0.0524773
0.0543828
0.0573771
0.0306075
0.0306068
0.0306007
0.0306496
0.0306863
0.0307011
0.030789
0.0308092
0.0308491
0.0307793
0.0308773
0.0308209
0.0308157
0.0308568
0.0309007
0.0309682
0.0310362
0.0310946
0.031186
0.0312633
0.0312811
0.0314182
0.0314661
0.0313984
0.0313923
0.0314462
0.0315274
0.0316218
0.0317285
0.0318329
0.0319395
0.0320601
0.0321812
0.0323025
0.0324356
0.0325643
0.0327435
0.0329037
0.0331427
0.033336
0.0336337
0.0338515
0.0342066
0.0344455
0.0348576
0.0351175
0.0355897
0.0358723
0.0364115
0.0367202
0.0373393
0.0376814
0.0383988
0.0387872
0.0396277
0.0400834
0.0410872
0.0416387
0.0428557
0.0435373
0.0450343
0.045887
0.047752
0.0488268
0.051175
0.0525334
0.0555107
0.0572415
0.0612957
0.0313463
0.0313173
0.0313639
0.031376
0.0313506
0.0313182
0.0314127
0.0314434
0.0314337
0.0314461
0.0315323
0.0315773
0.0317057
0.031657
0.0317539
0.0317279
0.0317644
0.0318311
0.0319195
0.0320102
0.0321254
0.032225
0.0322634
0.0324397
0.0323377
0.0324658
0.0324052
0.0324298
0.0325173
0.0326272
0.0327533
0.0328769
0.0330253
0.0331695
0.0333514
0.0335162
0.0337366
0.0339232
0.0341935
0.0344015
0.0347266
0.0349539
0.0353379
0.0355852
0.0360311
0.0363015
0.0368143
0.0371115
0.0377011
0.0380302
0.0387119
0.0390826
0.0398777
0.0403041
0.0412412
0.0417454
0.0428636
0.043473
0.0448209
0.0455651
0.0472088
0.0481268
0.0501506
0.0512965
0.0538149
0.0552666
0.0584271
0.0603389
0.0643411
0.03219
0.0321706
0.0321995
0.0322152
0.0322149
0.0322808
0.032306
0.0323494
0.0323123
0.0323585
0.0324091
0.032439
0.0323979
0.032363
0.0323857
0.0324772
0.0325641
0.0326926
0.0328283
0.032963
0.0330909
0.0332163
0.0333846
0.0334577
0.0336929
0.0337654
0.0338522
0.0339117
0.0337569
0.0337042
0.0337869
0.0339177
0.0340937
0.034269
0.0344827
0.0346758
0.0349277
0.0351384
0.0354386
0.0356662
0.036022
0.0362658
0.0366837
0.0369459
0.037431
0.0377172
0.0382759
0.0385926
0.0392369
0.0395912
0.0403392
0.0407423
0.0416165
0.0420835
0.0431137
0.0436656
0.044891
0.0455545
0.0470264
0.0478328
0.0496241
0.0506199
0.0528278
0.0540779
0.0568363
0.058431
0.0619082
0.0640065
0.0688992
0.033081
0.0331774
0.0331938
0.0332563
0.0332781
0.0332854
0.0333762
0.0333994
0.033356
0.0333673
0.033408
0.0334884
0.0335406
0.0335567
0.0336833
0.0335896
0.033706
0.0336688
0.0337077
0.0338155
0.0339576
0.0340726
0.0342853
0.0344117
0.0346166
0.0348219
0.0349523
0.0352253
0.0353166
0.0356233
0.0355059
0.0357564
0.0356815
0.0357283
0.0358929
0.0360748
0.0363367
0.0365643
0.0368898
0.0371394
0.0375259
0.037791
0.0382448
0.0385268
0.0390543
0.0393601
0.0399684
0.0403078
0.0410094
0.0413914
0.0422068
0.0426429
0.0435962
0.0441029
0.0452255
0.0458251
0.0471597
0.0478823
0.049485
0.0503662
0.0523207
0.0534114
0.0558271
0.0571988
0.060215
0.0619781
0.0657468
0.0680986
0.0731579
0.0339548
0.0340613
0.0342116
0.0342941
0.0344432
0.0345495
0.0346153
0.0347624
0.0348032
0.0348498
0.0348698
0.0347812
0.0347908
0.0348538
0.0349308
0.0350341
0.0351151
0.0352747
0.0353596
0.0355654
0.035694
0.0359412
0.0360696
0.036392
0.0365041
0.0366509
0.0364305
0.0367563
0.0365938
0.0365716
0.0366501
0.0367861
0.0369691
0.0371632
0.0374088
0.0376428
0.0379417
0.0382014
0.0385554
0.0388325
0.039248
0.0395378
0.0400258
0.0403294
0.0408993
0.041225
0.0418846
0.0422457
0.0430071
0.0434159
0.0443011
0.0447702
0.0458062
0.0463542
0.0475769
0.0482301
0.0496872
0.0504797
0.0522321
0.0532054
0.0553493
0.056557
0.0592159
0.0607368
0.0640521
0.0660672
0.0700901
0.0729714
0.0780925
0.0351066
0.0351685
0.0352325
0.0353123
0.0354183
0.0355636
0.0356529
0.0357724
0.0359032
0.0360277
0.0360965
0.0363171
0.0363738
0.0364509
0.0363278
0.0364985
0.0364467
0.0364257
0.0364581
0.0365744
0.036678
0.0368239
0.0369344
0.0370763
0.0371839
0.0373193
0.0374426
0.0375965
0.0377604
0.0379365
0.0381422
0.0383563
0.0386036
0.0388482
0.0391341
0.0394032
0.0397322
0.0400223
0.0404034
0.0407095
0.0411537
0.0414714
0.0419938
0.0423232
0.0429374
0.0432866
0.0440026
0.0443882
0.0452174
0.0456567
0.0466221
0.0471295
0.0482628
0.0488608
0.0502032
0.0509226
0.0525258
0.0534008
0.0553421
0.0564182
0.0588008
0.0601393
0.063098
0.0647873
0.0684795
0.0707848
0.075066
0.0789864
0.0831187
0.0368025
0.0368616
0.0368969
0.03692
0.0370779
0.0371288
0.0371025
0.0371547
0.0373085
0.0374148
0.0376047
0.0377509
0.0379051
0.0380588
0.0381731
0.038192
0.0384302
0.0384676
0.0385266
0.0385523
0.0383354
0.038255
0.0383338
0.0384689
0.0386445
0.0388324
0.0390315
0.0392384
0.0394616
0.0396911
0.0399422
0.0401958
0.0404776
0.0407548
0.0410694
0.0413688
0.0417245
0.0420456
0.0424528
0.0427917
0.0432644
0.0436164
0.0441738
0.0445376
0.0451985
0.0455804
0.0463596
0.0467772
0.0476872
0.0481638
0.0492269
0.0497828
0.0510353
0.0516968
0.0531858
0.053984
0.05577
0.056742
0.0589134
0.0601099
0.0627817
0.0642738
0.0675907
0.0694828
0.0736977
0.0761087
0.0815102
0.0847068
0.0912364
0.0386641
0.0387644
0.0389509
0.0390644
0.0390902
0.0392814
0.0391102
0.0392254
0.0391392
0.0391548
0.0393171
0.039464
0.0397194
0.0399503
0.0402063
0.0403284
0.0404356
0.0406031
0.040606
0.040949
0.0410084
0.0411143
0.0408298
0.0409304
0.0408305
0.0408881
0.0410387
0.04124
0.0414706
0.0417216
0.041992
0.0422738
0.0425778
0.0428862
0.0432247
0.0435592
0.0439397
0.0443017
0.0447337
0.04512
0.0456184
0.0460253
0.0466125
0.047036
0.0477386
0.0481795
0.0490229
0.049494
0.0504981
0.0510267
0.0522117
0.0528293
0.0542299
0.0549685
0.0566359
0.0575292
0.0595324
0.060625
0.0630616
0.0644121
0.0674198
0.0691061
0.0728321
0.0750308
0.0797656
0.0825465
0.0885048
0.0926774
0.0993899
0.0407744
0.0407302
0.0407762
0.0408942
0.0410143
0.0410943
0.0414312
0.0414295
0.0416269
0.04155
0.0415237
0.0416053
0.0416956
0.041919
0.0420661
0.0423281
0.0425097
0.0427651
0.0429857
0.0430442
0.0434316
0.0431249
0.0434057
0.0431638
0.0431106
0.0432206
0.0434099
0.0436526
0.0439035
0.0441845
0.0444666
0.0447775
0.0450922
0.0454332
0.0457839
0.0461582
0.0465515
0.0469637
0.0474069
0.047858
0.048364
0.0488542
0.0494468
0.0499713
0.0506857
0.0512365
0.0521161
0.0526894
0.0537764
0.054387
0.0557089
0.056401
0.0579747
0.058803
0.060679
0.0616795
0.0639438
0.0651682
0.0679375
0.0694554
0.0728907
0.0748041
0.0790775
0.0815892
0.0869554
0.090239
0.0971725
0.101478
0.111151
0.0438172
0.0438489
0.0439402
0.0439771
0.0440416
0.0440907
0.0440142
0.0440336
0.0441326
0.0442979
0.0444498
0.0446191
0.0447475
0.0449596
0.0451117
0.0453751
0.0455519
0.0458549
0.0460522
0.0463797
0.0465257
0.0469996
0.0471243
0.0472856
0.0467954
0.047215
0.0468967
0.0468304
0.0469401
0.047184
0.0474445
0.0477758
0.048094
0.0484709
0.0488323
0.0492531
0.0496596
0.0501311
0.0505857
0.0511155
0.0516267
0.0522231
0.0528108
0.0534744
0.0541757
0.0548949
0.0557678
0.0565198
0.0576384
0.0584039
0.0598365
0.0606367
0.062407
0.0633373
0.0654552
0.0665869
0.0691587
0.0705512
0.0737111
0.0754528
0.0793763
0.0815936
0.0865123
0.0893996
0.0955671
0.0996639
0.107127
0.113419
0.123487
0.0466138
0.0469443
0.0471581
0.0473391
0.0474809
0.0475147
0.0477946
0.0478652
0.0477185
0.0476636
0.0478231
0.0479676
0.0482626
0.0484516
0.0487909
0.0489855
0.0493557
0.0494864
0.0499807
0.0501058
0.0502826
0.0497908
0.0502537
0.049884
0.0496999
0.0497881
0.049939
0.0501813
0.0504283
0.0507482
0.0510487
0.0514187
0.0517607
0.0521742
0.0525589
0.0530228
0.0534552
0.0539802
0.0544616
0.0550615
0.0555979
0.0562888
0.056895
0.0576864
0.0583956
0.0592821
0.0601543
0.0611109
0.062238
0.0632236
0.0647207
0.0657072
0.0676693
0.0687175
0.0711445
0.0724351
0.0753743
0.0769726
0.0806029
0.0826144
0.0871204
0.0897802
0.0953404
0.0989239
0.106052
0.111075
0.119949
0.129264
0.13941
0.0507734
0.0508727
0.050832
0.0508994
0.05101
0.0511787
0.0513205
0.0514705
0.0515928
0.0517244
0.0520228
0.0522086
0.0524448
0.0526825
0.0528923
0.0531991
0.0534119
0.0537972
0.0539432
0.054506
0.0546474
0.0547842
0.0541191
0.0545451
0.0541378
0.053997
0.0541275
0.0543782
0.0546785
0.055021
0.0553739
0.0557672
0.0561574
0.0566006
0.0570315
0.0575351
0.0580129
0.0585895
0.0591169
0.0597836
0.0603673
0.061146
0.0617991
0.0627079
0.0634603
0.0645035
0.0654158
0.0665734
0.0677473
0.0689748
0.0705507
0.0717981
0.0739288
0.0751995
0.0779665
0.0794403
0.0828309
0.0846755
0.0888976
0.0912376
0.0965314
0.0995501
0.106362
0.110387
0.119515
0.125277
0.13862
0.147976
0.170797
0.0546109
0.0548036
0.0550186
0.0553047
0.0555226
0.0557945
0.0559457
0.0562394
0.0563761
0.0566892
0.056883
0.0572984
0.0575057
0.0579884
0.0582179
0.0587604
0.0589882
0.0596088
0.0598473
0.0599671
0.0599051
0.0605958
0.0607327
0.0609141
0.0600125
0.0605459
0.0600164
0.0597792
0.0599493
0.060214
0.0606072
0.0609966
0.0614565
0.0619151
0.0624237
0.0629529
0.063514
0.0641245
0.0647432
0.0654552
0.0661379
0.0669815
0.0677352
0.0687464
0.0695869
0.0707958
0.0717682
0.0731773
0.0743837
0.0759465
0.0775646
0.0791903
0.0814543
0.0830689
0.0861841
0.0878827
0.0918601
0.0940197
0.0989373
0.101706
0.107959
0.111664
0.119949
0.125207
0.137215
0.145471
0.164206
0.179594
0.214304
0.0605624
0.0607135
0.060706
0.0606413
0.0608257
0.061072
0.0614157
0.0617559
0.06213
0.0624214
0.062674
0.0629999
0.0633108
0.0636213
0.0638953
0.0642585
0.0645798
0.0649432
0.065193
0.0654352
0.0659001
0.0662362
0.0662496
0.067115
0.0673502
0.0676614
0.0667758
0.0675595
0.067016
0.0668082
0.0670627
0.0673999
0.0679143
0.0683695
0.0689803
0.0695052
0.0702075
0.0708002
0.0715974
0.0722784
0.0731722
0.0739858
0.0749754
0.0759831
0.0770631
0.0783359
0.0795158
0.0811074
0.0824574
0.0843551
0.0860635
0.0881525
0.0905474
0.0926526
0.0961095
0.0982049
0.102869
0.105423
0.111278
0.114667
0.1224
0.127269
0.138254
0.145898
0.163685
0.176593
0.206072
0.23273
0.277993
0.068377
0.0685404
0.0688305
0.0690576
0.0691629
0.0696754
0.0698872
0.0698793
0.0697583
0.0699846
0.0704485
0.0708596
0.0714084
0.0720962
0.0725843
0.072972
0.0734696
0.0738706
0.0743543
0.0746707
0.0752714
0.0754434
0.0763303
0.0767255
0.0770443
0.0770078
0.0767878
0.0778794
0.0782147
0.0786205
0.0772094
0.0783719
0.0774391
0.0770456
0.0773624
0.0778089
0.0785619
0.0791505
0.0801038
0.0807003
0.0818086
0.0825595
0.0838398
0.0848027
0.0862273
0.0874923
0.0890505
0.0907098
0.0924414
0.0945282
0.0966041
0.0990366
0.101818
0.104393
0.1084
0.110986
0.116583
0.119739
0.127044
0.131552
0.142009
0.149203
0.165864
0.178346
0.207397
0.229346
0.279539
0.315286
0.395309
0.0766538
0.0767756
0.0770605
0.0772893
0.0776242
0.0781173
0.078304
0.0790622
0.0793519
0.0796872
0.0799327
0.0797149
0.0796354
0.0799557
0.0803999
0.0809768
0.0815447
0.0821487
0.0828475
0.0834298
0.0842433
0.0847697
0.0856496
0.0861039
0.0870994
0.0875597
0.0887834
0.0893504
0.0907682
0.0914031
0.0919495
0.0920511
0.0919791
0.0937143
0.0943333
0.0950963
0.0931854
0.0951113
0.0937491
0.0929679
0.0934853
0.0939669
0.0952364
0.0960602
0.0976835
0.0989809
0.100868
0.102714
0.104794
0.107278
0.109646
0.112759
0.115789
0.119323
0.123782
0.127428
0.134341
0.138705
0.148827
0.155826
0.172246
0.184441
0.213065
0.234963
0.283527
0.322597
0.40023
0.472428
0.620468
0.0885138
0.0888278
0.0890621
0.0890443
0.0891217
0.0893029
0.0898562
0.090358
0.0909464
0.0916284
0.0921717
0.0926197
0.0932313
0.093606
0.0943743
0.0947657
0.0957083
0.0960626
0.0972362
0.097588
0.0980163
0.0968318
0.0978665
0.0971503
0.0967177
0.0972956
0.0976493
0.09872
0.0992511
0.100558
0.101193
0.102717
0.103464
0.105235
0.106099
0.10817
0.109011
0.111635
0.112439
0.11343
0.111002
0.113028
0.111494
0.111025
0.112135
0.113559
0.115662
0.117856
0.120424
0.123356
0.126333
0.130203
0.13385
0.13882
0.144071
0.150181
0.159302
0.166971
0.183699
0.196656
0.226095
0.249201
0.29998
0.342391
0.42216
0.508629
0.632236
0.818178
1.04471
0.103673
0.104062
0.104955
0.105485
0.105734
0.106291
0.106757
0.106926
0.108029
0.108318
0.108623
0.10759
0.107495
0.107023
0.107156
0.107407
0.10793
0.108522
0.109171
0.10975
0.110591
0.111294
0.111985
0.113082
0.114106
0.115018
0.116116
0.117068
0.1178
0.119529
0.120854
0.121656
0.122594
0.123732
0.124292
0.126463
0.127119
0.127851
0.12529
0.127139
0.125499
0.125241
0.126105
0.127839
0.129734
0.13216
0.1346
0.137638
0.140665
0.14457
0.148408
0.153712
0.158935
0.166616
0.174711
0.186529
0.201015
0.220056
0.247849
0.279685
0.329717
0.383904
0.468914
0.568104
0.714342
0.90767
1.15819
1.58164
1.96142
0.119256
0.11969
0.120205
0.120882
0.121378
0.12211
0.12249
0.123239
0.123753
0.124612
0.125103
0.126394
0.126826
0.127331
0.127709
0.126971
0.126592
0.127061
0.12733
0.128288
0.129045
0.130132
0.13055
0.13201
0.132643
0.134606
0.135433
0.137692
0.13732
0.136092
0.134905
0.134885
0.134675
0.134976
0.13561
0.136485
0.137501
0.138876
0.140252
0.142095
0.143797
0.146094
0.148169
0.150787
0.153392
0.156535
0.159967
0.164023
0.168715
0.174386
0.181228
0.189867
0.200642
0.21493
0.233073
0.257746
0.289208
0.331694
0.386718
0.459493
0.552248
0.679706
0.853279
1.07236
1.40477
1.73283
2.00621
2.24983
2.14621
0.145221
0.146256
0.146724
0.14785
0.148343
0.149623
0.150163
0.151602
0.1522
0.153764
0.154333
0.156079
0.156631
0.157248
0.15599
0.155704
0.155345
0.156297
0.156697
0.158345
0.159201
0.161267
0.162179
0.164377
0.165332
0.167674
0.168336
0.16901
0.169184
0.171759
0.172513
0.173375
0.169443
0.171964
0.169046
0.167926
0.168141
0.169766
0.17147
0.173739
0.176153
0.179114
0.181496
0.184716
0.188296
0.193215
0.19906
0.20668
0.216309
0.228357
0.24462
0.264187
0.291709
0.324558
0.369971
0.425183
0.498774
0.591489
0.716138
0.882448
1.06993
1.39873
1.7211
2.02021
2.12411
2.08436
1.88785
1.5987
1.58891
0.176548
0.177143
0.17782
0.178586
0.179379
0.180316
0.180942
0.181915
0.182373
0.183532
0.183914
0.185328
0.185851
0.187538
0.188141
0.190106
0.190799
0.193077
0.193888
0.194842
0.192955
0.195186
0.193772
0.19294
0.193603
0.193811
0.195459
0.196063
0.198162
0.199034
0.201507
0.202825
0.205486
0.20778
0.210095
0.214164
0.216348
0.220936
0.225621
0.228087
0.239094
0.244397
0.242137
0.245248
0.253072
0.265239
0.281738
0.303539
0.331214
0.366227
0.410725
0.464951
0.535653
0.618156
0.727999
0.858425
1.0284
1.23321
1.55282
1.85389
2.17995
2.29659
2.23996
2.0587
1.51743
1.26326
1.27188
1.26606
1.25252
0.224568
0.225275
0.225583
0.226485
0.22685
0.228053
0.228448
0.229861
0.230428
0.231906
0.233081
0.234421
0.236801
0.237633
0.24029
0.241719
0.244739
0.244208
0.246871
0.247027
0.246943
0.250289
0.248939
0.252263
0.250487
0.248838
0.248337
0.248606
0.249574
0.251065
0.253065
0.255567
0.258646
0.262507
0.267161
0.27296
0.279863
0.288659
0.298962
0.312562
0.328297
0.349104
0.373866
0.405717
0.443616
0.491088
0.548713
0.619513
0.702787
0.803432
0.921101
1.06157
1.22646
1.40605
1.67536
1.96024
2.23854
2.51462
2.59124
2.52333
2.36021
1.80689
1.13353
1.01935
0.971793
0.978124
1.04863
1.06082
1.05831
0.340256
0.341628
0.342798
0.344307
0.345629
0.347341
0.34892
0.350858
0.352731
0.354869
0.357091
0.359305
0.361931
0.364166
0.366786
0.36931
0.371985
0.374435
0.377385
0.380177
0.383314
0.386586
0.38989
0.393432
0.397349
0.401657
0.407149
0.414108
0.422838
0.433362
0.446208
0.461516
0.480245
0.503066
0.530329
0.562576
0.600221
0.644463
0.695688
0.755785
0.824895
0.905657
0.997984
1.10559
1.22835
1.36938
1.52743
1.70449
1.89848
2.11517
2.34883
2.59573
2.83971
3.10323
3.08589
3.05938
2.88866
2.67964
1.91961
1.41877
1.12476
0.906168
0.814259
0.815182
0.861503
0.912756
0.964079
0.985046
0.989066
1.26849
1.27808
1.28816
1.2982
1.30884
1.31946
1.33073
1.34206
1.354
1.36619
1.37879
1.3919
1.40544
1.41946
1.4339
1.44913
1.46466
1.48101
1.49801
1.51557
1.53403
1.55354
1.57368
1.59912
1.62987
1.66728
1.71008
1.75881
1.81409
1.87484
1.94362
2.01828
2.10087
2.19132
2.29001
2.39809
2.51662
2.64452
2.78415
2.9348
3.09796
3.27493
3.47073
3.68212
3.90397
4.13053
4.35259
4.55765
4.73748
4.86531
4.94066
4.85638
4.72355
3.7655
2.90152
2.00795
1.65843
1.46714
1.36105
1.33769
1.35383
1.25176
1.17542
1.18425
1.18339
1.19322
1.21053
1.21917
1.20347
8.46596
8.46307
8.45963
8.45549
8.45077
8.44536
8.43932
8.43259
8.42518
8.4171
8.40824
8.39872
8.38843
8.37741
8.36556
8.353
8.33959
8.32537
8.31034
8.29445
8.27769
8.26015
8.24167
8.22233
8.20128
8.17903
8.1552
8.12925
8.10279
8.0721
8.04277
8.00736
7.97191
7.93249
7.88936
7.843
7.79964
7.72984
7.67802
7.60929
7.54283
7.46681
7.37955
7.27893
7.16221
7.02539
6.86866
6.71275
6.57833
6.50091
6.46239
6.43476
6.40546
6.37137
6.33674
6.29534
6.25624
6.22301
6.19284
6.16317
6.13417
6.11058
6.09327
6.08107
6.07418
6.07496
6.07669
6.07297
6.0685
0.0282645
0.028264
0.0282563
0.0282576
0.0282639
0.0282665
0.0282487
0.0282355
0.0282222
0.0281978
0.028171
0.0281675
0.0282302
0.0282637
0.0282821
0.0282701
0.0282898
0.0283042
0.0283341
0.0283419
0.0283745
0.0283838
0.0284089
0.0284212
0.0284436
0.0284433
0.0284761
0.0284955
0.0285579
0.0285621
0.0285657
0.0285991
0.0286455
0.0286512
0.0286577
0.0286647
0.0287125
0.0287331
0.0287167
0.0287613
0.0287495
0.0287476
0.0287384
0.0287349
0.028756
0.028802
0.0288009
0.028767
0.0287257
0.028697
0.0286806
0.0286772
0.0286954
0.0287124
0.028738
0.0287568
0.0288092
0.0287904
0.0287942
0.0285726
0.0285687
0.0285493
0.0285508
0.028528
0.0285121
0.0284928
0.028468
0.0284349
0.0284063
0.0284026
0.028454
0.0284734
0.028485
0.0284843
0.0284767
0.0285063
0.0285273
0.0285428
0.0285598
0.0285878
0.0286049
0.0286257
0.0286448
0.0286604
0.0286637
0.0287035
0.0287288
0.0287872
0.0287951
0.0288068
0.0288364
0.0289017
0.0288924
0.028899
0.0289127
0.0289673
0.0290037
0.0289926
0.0289985
0.0290292
0.0290612
0.0290446
0.0290331
0.0290311
0.0290455
0.0290761
0.0290807
0.029075
0.0290452
0.0290331
0.029032
0.0290287
0.0290275
0.0290373
0.0290543
0.0290635
0.0290883
0.0291262
0.0289119
0.0289128
0.0288791
0.0288595
0.0288357
0.028808
0.028772
0.0287328
0.0287042
0.028696
0.0287241
0.0287384
0.0287485
0.0287515
0.0287485
0.0287736
0.0287975
0.0288105
0.028826
0.0288468
0.0288704
0.0288895
0.0289103
0.0289305
0.0289396
0.0289464
0.0289862
0.0290171
0.0290707
0.0290816
0.0291058
0.0291271
0.0291843
0.0292142
0.0292227
0.0292185
0.0292481
0.0293164
0.0293292
0.0293623
0.0293511
0.0293623
0.0293726
0.0294045
0.0294382
0.0294481
0.0294949
0.0294768
0.0294831
0.0294713
0.0294479
0.0294615
0.0294427
0.0294557
0.0294525
0.0294885
0.0294942
0.0294802
0.0295124
0.0292921
0.0292578
0.0292177
0.0291804
0.0291377
0.0291077
0.0290881
0.0290727
0.0290596
0.0290486
0.029072
0.0290776
0.0290747
0.0290746
0.0290814
0.0290952
0.0291084
0.0291199
0.0291394
0.0291672
0.02919
0.0292105
0.0292332
0.0292546
0.0292614
0.0292767
0.0293197
0.0293583
0.0294111
0.0294285
0.0294562
0.0294828
0.0295456
0.0295662
0.0295844
0.029605
0.0296275
0.0297066
0.0296912
0.0297136
0.0297879
0.0297962
0.0297825
0.0297868
0.0297863
0.0297976
0.0298556
0.0298895
0.0299365
0.0299465
0.0299744
0.0299592
0.0299697
0.0299641
0.0299667
0.0299357
0.029954
0.0299462
0.0299537
0.0297278
0.0296829
0.0296291
0.0295846
0.0295581
0.0295363
0.0295024
0.0294785
0.0294644
0.0294897
0.0294874
0.0294912
0.0294874
0.0294853
0.0294819
0.029502
0.0295108
0.0295328
0.0295537
0.0295778
0.0295988
0.0296208
0.0296435
0.0296623
0.0296664
0.0296849
0.0297271
0.0297695
0.0298215
0.0298434
0.0298805
0.0298948
0.0299708
0.0300095
0.0300378
0.0300279
0.0300447
0.0301215
0.0302206
0.0302216
0.0302151
0.0302368
0.0302547
0.03029
0.0303616
0.0303706
0.0303745
0.0303648
0.0304197
0.0304535
0.0304854
0.0305242
0.0305756
0.0305839
0.0305745
0.030594
0.0305985
0.0306027
0.0306047
0.0300942
0.0300395
0.0300019
0.0299936
0.0299798
0.0299611
0.0299848
0.0299654
0.0299663
0.0299716
0.0299739
0.0299507
0.0299314
0.0299236
0.0299326
0.0299497
0.0299611
0.0299772
0.0300042
0.0300292
0.0300513
0.0300755
0.0301007
0.0301196
0.0301247
0.0301538
0.0302007
0.0302511
0.0303063
0.0303332
0.0303786
0.0304045
0.0304604
0.0305227
0.0305625
0.0305983
0.0305931
0.0306294
0.0306779
0.0307776
0.0308522
0.0308563
0.0308378
0.0308307
0.0308632
0.0309202
0.0309876
0.0309862
0.0309626
0.0309818
0.0310419
0.0311065
0.0311686
0.0311973
0.0312257
0.0313018
0.0313162
0.0313353
0.0313459
0.0307949
0.0307625
0.0307355
0.03072
0.0306895
0.0306678
0.030652
0.0306258
0.0305998
0.0305745
0.0305545
0.0305404
0.0305318
0.0305321
0.0305337
0.0305299
0.0305271
0.0305592
0.0305856
0.0306094
0.0306332
0.0306579
0.0306823
0.0306955
0.0306966
0.030731
0.0307776
0.0308322
0.0308895
0.0309244
0.030972
0.0309915
0.0310837
0.0311202
0.0311774
0.0312087
0.031225
0.0312742
0.0313683
0.0313982
0.0314352
0.0315187
0.0315407
0.0315889
0.0316058
0.0316133
0.0316541
0.0317127
0.0317837
0.0318057
0.0317652
0.0318019
0.031791
0.031847
0.0318898
0.0319602
0.0320351
0.0320782
0.0321205
0.0315852
0.0315487
0.0315064
0.0314664
0.0314219
0.0313841
0.0313457
0.0313095
0.031276
0.0312498
0.0312327
0.0312216
0.0312102
0.0311997
0.0311853
0.031174
0.0311801
0.0311964
0.0312232
0.0312502
0.031277
0.0313046
0.031329
0.031343
0.0313514
0.0313972
0.0314505
0.0315139
0.0315768
0.0316142
0.0316834
0.0317056
0.0317564
0.0318711
0.0319218
0.0319607
0.0320071
0.0319961
0.0320445
0.0322006
0.0322604
0.0323021
0.0323215
0.0323407
0.0323982
0.032496
0.0325263
0.0325384
0.0325735
0.0325906
0.0326863
0.0327079
0.0327783
0.0327399
0.0327837
0.0327516
0.0327733
0.0328446
0.032939
0.0324446
0.0324015
0.0323534
0.0323082
0.0322626
0.0322233
0.0321849
0.0321529
0.0321245
0.0321023
0.0320833
0.0320633
0.0320394
0.0320155
0.0319969
0.0319921
0.0319911
0.0320196
0.0320487
0.0320756
0.0321019
0.0321275
0.0321482
0.0321554
0.0321622
0.0322123
0.0322681
0.0323374
0.0324053
0.0324562
0.0325143
0.032563
0.0326506
0.0326769
0.0327902
0.032853
0.0329152
0.0329905
0.0329895
0.0330074
0.0331073
0.033247
0.0333094
0.0333605
0.0333836
0.0334184
0.0335324
0.0335656
0.0336432
0.0336447
0.0336325
0.0336971
0.0337476
0.0337586
0.0338424
0.0337733
0.0338195
0.033804
0.0338493
0.0334327
0.0333845
0.033333
0.033285
0.0332375
0.0331959
0.0331546
0.0331192
0.0330841
0.0330522
0.0330189
0.0329855
0.0329543
0.0329318
0.0329205
0.0329163
0.0329116
0.0329332
0.0329573
0.0329871
0.0330171
0.0330462
0.033066
0.033076
0.0331002
0.033162
0.0332271
0.0333057
0.0333808
0.0334312
0.0335329
0.0335461
0.0336177
0.0337748
0.0338151
0.0338886
0.0339665
0.034028
0.0340949
0.0342458
0.0342454
0.0343026
0.0343786
0.0344451
0.0345677
0.0346255
0.034706
0.0347919
0.0348462
0.0349497
0.0349746
0.0350304
0.0351086
0.0350755
0.0351668
0.0351868
0.0351805
0.0351041
0.0350807
0.0346573
0.0346048
0.0345496
0.0344968
0.0344444
0.0343965
0.0343479
0.0343035
0.0342579
0.0342155
0.0341738
0.0341379
0.0341095
0.0340917
0.0340826
0.0340807
0.0340796
0.0340978
0.0341284
0.034159
0.0341877
0.0342086
0.0342201
0.0342276
0.0342553
0.034321
0.0343927
0.0344813
0.0345656
0.034636
0.0347069
0.0348124
0.0348646
0.0348955
0.0350774
0.0351725
0.0352335
0.0353401
0.0353473
0.0354476
0.0356031
0.0357039
0.0357605
0.0358173
0.0358747
0.0359844
0.0360358
0.0360917
0.0361094
0.0362066
0.0362997
0.0363614
0.0365052
0.036594
0.036674
0.0366665
0.0367966
0.036825
0.0368102
0.0360449
0.0359811
0.0359145
0.0358505
0.0357864
0.035728
0.0356687
0.035616
0.0355639
0.0355196
0.0354795
0.0354491
0.0354255
0.0354093
0.0353961
0.035386
0.0353824
0.0354027
0.0354298
0.0354638
0.0354948
0.0355208
0.0355362
0.0355562
0.035608
0.0356874
0.0357699
0.0358676
0.0359606
0.0360305
0.036169
0.0361789
0.0363162
0.0364794
0.0364881
0.0366408
0.0367674
0.0368459
0.0370079
0.0370416
0.0370938
0.0372378
0.0373363
0.0374289
0.0375696
0.0376571
0.0378503
0.0379174
0.0380559
0.0381052
0.038126
0.0382671
0.0382879
0.0382589
0.0382281
0.0382898
0.0383865
0.0384771
0.0385293
0.0378075
0.0377345
0.0376602
0.0375883
0.0375188
0.0374562
0.0373952
0.037343
0.0372937
0.0372542
0.0372192
0.0371935
0.0371722
0.0371566
0.0371421
0.0371316
0.0371266
0.0371206
0.0371587
0.0371667
0.0371761
0.0371822
0.0371885
0.0372127
0.0372694
0.0373568
0.0374531
0.0375691
0.0376762
0.0377694
0.0378629
0.0380335
0.038036
0.0381551
0.0383729
0.0384183
0.0385901
0.0386557
0.0388284
0.0389632
0.0390607
0.0391495
0.0392775
0.0393498
0.0394321
0.039542
0.0396263
0.0397917
0.0399498
0.0401285
0.0402233
0.040314
0.0405001
0.0405709
0.0405999
0.040518
0.0405088
0.0405694
0.0407218
0.039828
0.0397448
0.0396626
0.0395835
0.0395086
0.0394419
0.0393775
0.0393231
0.0392713
0.0392296
0.039191
0.0391608
0.0391326
0.0391079
0.0390833
0.0390647
0.0390532
0.0390473
0.039053
0.0390572
0.0390649
0.0390844
0.0391135
0.0391618
0.0392458
0.0393491
0.039455
0.039579
0.0396996
0.0397997
0.039975
0.0400294
0.0402289
0.040345
0.0404765
0.0406307
0.0407858
0.0409136
0.0410486
0.0412468
0.0413543
0.0415096
0.0415991
0.0417509
0.0418537
0.0419145
0.0420311
0.0421607
0.0422418
0.042289
0.042398
0.0425436
0.042666
0.0428977
0.0430478
0.0432034
0.0434264
0.0435904
0.0436376
0.0424634
0.0423721
0.0422822
0.0421948
0.0421125
0.0420384
0.0419667
0.041905
0.0418449
0.0417943
0.0417443
0.0417014
0.0416569
0.0416168
0.0415784
0.0415484
0.0415231
0.0415039
0.0414922
0.0414872
0.0414897
0.0414998
0.0415312
0.0415881
0.0416797
0.0417966
0.0419311
0.0420857
0.0422226
0.0423445
0.0424663
0.0426966
0.042707
0.0428593
0.0430911
0.0432698
0.0434229
0.0435859
0.0436897
0.043937
0.0440691
0.0442697
0.0444221
0.0445394
0.0447529
0.0449768
0.0451712
0.045349
0.0454888
0.0456097
0.0457159
0.0458163
0.045883
0.0461411
0.0462462
0.0464673
0.046542
0.0464794
0.0464942
0.0455402
0.0454266
0.0453158
0.0452069
0.0451035
0.0450087
0.0449151
0.0448315
0.0447479
0.044673
0.044598
0.04453
0.0444633
0.0444058
0.0443541
0.0443141
0.0442834
0.0442673
0.0442676
0.0442775
0.0443043
0.0443451
0.0444099
0.044502
0.0446224
0.0447565
0.0448914
0.045056
0.0452226
0.0453703
0.0455896
0.0457188
0.0459775
0.0461324
0.0462321
0.0464696
0.0466906
0.0469333
0.0470284
0.047251
0.0474541
0.0475661
0.0478608
0.0480145
0.0481494
0.0483745
0.0486178
0.0486967
0.0487555
0.0489049
0.0492227
0.0494286
0.0496437
0.0499176
0.0500583
0.0503446
0.050529
0.0506201
0.0509039
0.0494373
0.0492979
0.0491637
0.049029
0.0489015
0.0487823
0.0486645
0.0485585
0.0484525
0.048359
0.0482667
0.048187
0.0481119
0.0480501
0.0479957
0.0479553
0.0479246
0.0479088
0.0479024
0.047906
0.0479248
0.0479681
0.0480372
0.0481383
0.0482712
0.0484314
0.048624
0.0488285
0.0490018
0.0491625
0.0493184
0.0496047
0.049745
0.0498591
0.0502219
0.0504282
0.0506315
0.0508798
0.0511533
0.0512886
0.0515807
0.0517421
0.0518855
0.0520885
0.0524099
0.0526602
0.0528949
0.0533273
0.053727
0.0537267
0.0537045
0.0537647
0.0539127
0.0540775
0.0542117
0.0543202
0.0543993
0.0544454
0.054531
0.054005
0.0538244
0.0536505
0.053476
0.0533114
0.0531566
0.0530062
0.0528698
0.0527372
0.0526199
0.0525076
0.0524116
0.0523231
0.0522517
0.0521921
0.0521515
0.0521292
0.0521285
0.0521457
0.052183
0.0522443
0.0523325
0.0524508