/*--------------------------------*- C++ -*----------------------------------*\
| =========                 |                                                 |
| \\      /  F ield         | OpenFOAM: The Open Source CFD Toolbox           |
|  \\    /   O peration     | Version:  2312                                  |
|   \\  /    A nd           | Website:  www.openfoam.com                      |
|    \\/     M anipulation  |                                                 |
\*---------------------------------------------------------------------------*/
FoamFile
{
    version     2.0;
    format      ascii;
    arch        "LSB;label=32;scalar=64";
    class       volScalarField;
    location    "1800";
    object      p;
}
// * * * * * * * * * * * * * * * * * * * * * * * * * * * * * * * * * * * * * //

dimensions      [0 2 -2 0 0 0 0];

internalField   nonuniform List<scalar> 
76025
(
0.000117363
0.000107291
9.69749e-05
8.65685e-05
7.62648e-05
6.58242e-05
5.50419e-05
4.46587e-05
3.39598e-05
2.34732e-05
1.29167e-05
2.27921e-06
-8.44888e-06
-1.91144e-05
-2.98708e-05
-4.0591e-05
-5.10877e-05
-6.17047e-05
-7.23082e-05
-8.2694e-05
-9.29583e-05
-0.000103368
-0.000113569
-0.000123551
-0.000133503
-0.000143233
-0.000153112
-0.000162889
-0.000172078
-0.000181557
-0.000190374
-0.000199164
-0.000208177
-0.000217016
-0.000225444
-0.000233495
-0.000241101
-0.000249209
-0.000256999
-0.000264553
-0.000271611
-0.000278422
-0.000285786
-0.000292795
-0.000299343
-0.000305429
-0.000311672
-0.000317926
-0.000323369
-0.000328817
-0.000334315
-0.000339367
-0.000344567
-0.000350062
-0.000355317
-0.000359401
-0.000364432
-0.000368794
-0.000373302
-0.000377879
-0.000382253
-0.000386851
-0.000392169
-0.000397748
-0.000403233
-0.000408549
-0.000415032
-0.000423532
-0.000432669
0.000112051
0.000101452
9.07425e-05
7.98922e-05
6.89681e-05
5.79786e-05
4.69867e-05
3.59867e-05
2.49153e-05
1.38278e-05
2.68577e-06
-8.47882e-06
-1.9653e-05
-3.0815e-05
-4.19011e-05
-5.29279e-05
-6.39727e-05
-7.49233e-05
-8.58845e-05
-9.66801e-05
-0.000107461
-0.000118107
-0.000128635
-0.000139015
-0.000149326
-0.000159558
-0.000169658
-0.000179492
-0.000189113
-0.00019859
-0.000207906
-0.000217261
-0.000226393
-0.000235205
-0.000243813
-0.000252165
-0.000260363
-0.000268437
-0.000276326
-0.00028406
-0.000291489
-0.000298777
-0.000305941
-0.000312824
-0.000319474
-0.000325904
-0.000332235
-0.000338375
-0.000344241
-0.000350021
-0.000355728
-0.000361232
-0.000366693
-0.000372131
-0.000377353
-0.000382306
-0.000387439
-0.000392406
-0.000397267
-0.000402116
-0.000407233
-0.000412679
-0.000418238
-0.000424142
-0.000430322
-0.000436961
-0.000444416
-0.000453169
-0.000462236
0.000106483
9.54028e-05
8.41934e-05
7.28204e-05
6.13645e-05
4.99166e-05
3.84541e-05
2.69399e-05
1.5379e-05
3.76866e-06
-7.86508e-06
-1.94945e-05
-3.11079e-05
-4.26865e-05
-5.42053e-05
-6.56979e-05
-7.71478e-05
-8.85383e-05
-9.98554e-05
-0.000111091
-0.000122226
-0.000133236
-0.000144132
-0.000154908
-0.000165563
-0.000176083
-0.00018641
-0.000196545
-0.00020651
-0.000216302
-0.000225966
-0.000235468
-0.00024472
-0.000253733
-0.000262544
-0.000271147
-0.000279546
-0.000287749
-0.000295784
-0.000303629
-0.000311244
-0.000318656
-0.000325899
-0.000332976
-0.000339861
-0.000346536
-0.000353029
-0.00035936
-0.000365509
-0.000371498
-0.000377367
-0.000383111
-0.000388766
-0.000394367
-0.000399885
-0.000405277
-0.000410649
-0.000416003
-0.000421342
-0.000426772
-0.000432401
-0.000438286
-0.000444428
-0.000450971
-0.000457956
-0.000465498
-0.000473722
-0.00048327
-0.000493013
0.000100633
8.90339e-05
7.72959e-05
6.53958e-05
5.34308e-05
4.14589e-05
2.94671e-05
1.74338e-05
5.36189e-06
-6.73778e-06
-1.88467e-05
-3.09485e-05
-4.30308e-05
-5.50825e-05
-6.70923e-05
-7.90543e-05
-9.0956e-05
-0.000102786
-0.00011453
-0.000126177
-0.000137712
-0.000149128
-0.000160415
-0.000171561
-0.000182552
-0.00019338
-0.000204034
-0.000214509
-0.000224796
-0.000234894
-0.0002448
-0.000254501
-0.000263984
-0.000273249
-0.0002823
-0.000291137
-0.000299757
-0.000308168
-0.000316378
-0.00032438
-0.00033217
-0.000339764
-0.000347181
-0.000354419
-0.000361454
-0.000368283
-0.000374927
-0.000381406
-0.000387723
-0.000393897
-0.000399961
-0.000405932
-0.000411824
-0.00041766
-0.000423441
-0.000429163
-0.000434872
-0.000440611
-0.000446402
-0.00045231
-0.000458423
-0.000464819
-0.000471545
-0.000478697
-0.000486362
-0.000494694
-0.000503753
-0.000514126
-0.000524604
9.4147e-05
8.19941e-05
6.97044e-05
5.72506e-05
4.47333e-05
3.22085e-05
1.9668e-05
7.09278e-06
-5.51697e-06
-1.81465e-05
-3.07781e-05
-4.33966e-05
-5.59898e-05
-6.85467e-05
-8.1055e-05
-9.35019e-05
-0.000105876
-0.000118164
-0.000130354
-0.000142434
-0.00015439
-0.000166211
-0.000177886
-0.000189401
-0.000200748
-0.000211919
-0.000222904
-0.000233693
-0.000244277
-0.00025465
-0.000264809
-0.000274751
-0.000284471
-0.000293963
-0.000303226
-0.000312258
-0.00032106
-0.000329635
-0.000337987
-0.000346123
-0.00035405
-0.000361782
-0.000369326
-0.000376682
-0.000383844
-0.000390815
-0.000397609
-0.000404244
-0.000410736
-0.000417104
-0.000423371
-0.000429556
-0.000435675
-0.000441749
-0.000447794
-0.000453825
-0.000459874
-0.000465982
-0.000472188
-0.00047855
-0.000485142
-0.00049204
-0.000499314
-0.000507061
-0.000515384
-0.000524454
-0.000534325
-0.000545597
-0.00055727
8.69334e-05
7.41937e-05
6.13172e-05
4.82734e-05
3.51668e-05
2.20584e-05
8.94082e-06
-4.20564e-06
-1.73813e-05
-3.05706e-05
-4.37542e-05
-5.69159e-05
-7.00427e-05
-8.31224e-05
-9.61423e-05
-0.000109089
-0.000121948
-0.000134707
-0.000147353
-0.000159872
-0.000172252
-0.000184479
-0.000196543
-0.000208432
-0.000220136
-0.000231645
-0.00024295
-0.00025404
-0.000264908
-0.000275549
-0.000285958
-0.000296134
-0.00030607
-0.000315762
-0.000325211
-0.000334415
-0.000343378
-0.000352102
-0.000360593
-0.00036886
-0.000376917
-0.000384774
-0.000392442
-0.000399922
-0.000407214
-0.000414321
-0.000421258
-0.000428042
-0.000434695
-0.000441236
-0.000447687
-0.000454071
-0.000460408
-0.000466719
-0.000473026
-0.000479353
-0.00048573
-0.000492196
-0.000498798
-0.000505588
-0.000512636
-0.000520017
-0.000527811
-0.000536119
-0.000545051
-0.000554791
-0.000565399
-0.00057751
-0.00059022
7.89621e-05
6.56023e-05
5.21047e-05
3.84373e-05
2.47093e-05
1.09861e-05
-2.73934e-06
-1.64871e-05
-3.02572e-05
-4.40329e-05
-5.77934e-05
-7.15213e-05
-8.52028e-05
-9.8825e-05
-0.000112375
-0.000125837
-0.000139198
-0.000152442
-0.000165557
-0.000178528
-0.000191341
-0.000203985
-0.000216447
-0.000228715
-0.000240778
-0.000252626
-0.000264249
-0.000275639
-0.000286788
-0.000297691
-0.000308344
-0.000318743
-0.000328884
-0.000338767
-0.000348391
-0.000357759
-0.000366873
-0.000375738
-0.000384358
-0.000392744
-0.000400913
-0.000408877
-0.000416648
-0.00042423
-0.000431626
-0.000438844
-0.000445899
-0.000452812
-0.000459605
-0.000466301
-0.000472923
-0.000479496
-0.000486041
-0.000492583
-0.000499146
-0.000505757
-0.000512449
-0.000519259
-0.000526235
-0.00053343
-0.000540908
-0.000548744
-0.000557021
-0.000565843
-0.000575324
-0.000585652
-0.000596892
-0.000609698
-0.000623098
7.01371e-05
5.61205e-05
4.19667e-05
2.76411e-05
1.32579e-05
-1.11365e-06
-1.548e-05
-2.98618e-05
-4.42587e-05
-5.86524e-05
-7.30205e-05
-8.73438e-05
-0.000101608
-0.000115798
-0.000129902
-0.000143903
-0.000157785
-0.000171535
-0.000185135
-0.000198573
-0.000211834
-0.000224905
-0.000237773
-0.000250425
-0.00026285
-0.000275037
-0.000286978
-0.000298664
-0.000310087
-0.000321243
-0.000332127
-0.000342736
-0.000353068
-0.000363124
-0.000372905
-0.000382415
-0.000391657
-0.000400635
-0.000409357
-0.000417835
-0.000426086
-0.000434128
-0.000441974
-0.000449633
-0.00045711
-0.000464417
-0.00047157
-0.000478594
-0.000485511
-0.000492347
-0.000499128
-0.000505877
-0.00051262
-0.000519382
-0.00052619
-0.000533072
-0.000540063
-0.0005472
-0.00055453
-0.000562103
-0.000569982
-0.000578238
-0.000586955
-0.000596237
-0.000606197
-0.000617025
-0.000628789
-0.000642101
-0.000656144
6.03247e-05
4.56112e-05
3.07621e-05
1.57399e-05
6.63606e-07
-1.43932e-05
-2.94366e-05
-4.44879e-05
-5.95465e-05
-7.45925e-05
-8.96011e-05
-0.000104552
-0.000119428
-0.000134215
-0.000148899
-0.000163462
-0.000177888
-0.000192161
-0.000206265
-0.000220183
-0.000233902
-0.000247408
-0.000260686
-0.000273724
-0.00028651
-0.000299034
-0.000311286
-0.000323257
-0.000334942
-0.000346334
-0.000357431
-0.00036823
-0.000378732
-0.000388936
-0.000398848
-0.000408471
-0.000417812
-0.000426874
-0.000435667
-0.000444206
-0.000452512
-0.000460603
-0.000468499
-0.000476208
-0.000483741
-0.000491112
-0.000498341
-0.000505452
-0.000512473
-0.00051943
-0.000526349
-0.000533258
-0.000540182
-0.000547149
-0.000554186
-0.000561325
-0.000568598
-0.000576043
-0.000583704
-0.000591629
-0.000599878
-0.000608516
-0.000617624
-0.000627304
-0.000637667
-0.000648905
-0.000661092
-0.000674776
-0.000689186
4.93914e-05
3.39369e-05
1.83496e-05
2.58856e-06
-1.32222e-05
-2.90045e-05
-4.47638e-05
-6.05222e-05
-7.62786e-05
-9.20116e-05
-0.000107695
-0.000123305
-0.000138824
-0.000154237
-0.000169527
-0.000184676
-0.000199668
-0.000214483
-0.000229105
-0.000243517
-0.000257704
-0.000271651
-0.000285343
-0.000298768
-0.000311912
-0.000324766
-0.00033732
-0.000349565
-0.000361495
-0.000373106
-0.000384395
-0.000395362
-0.000406006
-0.000416332
-0.000426345
-0.00043605
-0.000445457
-0.00045457
-0.0004634
-0.000471966
-0.000480291
-0.000488398
-0.000496307
-0.000504033
-0.000511589
-0.000518993
-0.000526267
-0.000533438
-0.000540536
-0.000547588
-0.000554624
-0.000561671
-0.000568758
-0.000575912
-0.000583163
-0.000590541
-0.000598079
-0.000605813
-0.000613784
-0.000622037
-0.000630624
-0.000639606
-0.000649053
-0.000659062
-0.000669736
-0.000681267
-0.000693734
-0.000707804
-0.000722788
3.71949e-05
2.09523e-05
4.58038e-06
-1.19653e-05
-2.85554e-05
-4.51067e-05
-6.1624e-05
-7.81299e-05
-9.46232e-05
-0.000111081
-0.000127474
-0.000143777
-0.000159972
-0.00017604
-0.000191964
-0.000207725
-0.000223304
-0.000238682
-0.000253839
-0.000268759
-0.000283425
-0.000297821
-0.000311931
-0.000325742
-0.000339242
-0.000352419
-0.000365263
-0.000377767
-0.000389925
-0.000401733
-0.000413189
-0.000424295
-0.000435052
-0.000445466
-0.000455544
-0.000465294
-0.000474726
-0.000483847
-0.000492671
-0.00050122
-0.00050952
-0.000517598
-0.000525479
-0.00053318
-0.000540719
-0.000548118
-0.000555401
-0.000562599
-0.000569743
-0.000576862
-0.000583989
-0.000591151
-0.000598379
-0.000605701
-0.000613147
-0.000620747
-0.000628534
-0.00063654
-0.000644803
-0.000653362
-0.000662261
-0.000671551
-0.00068129
-0.000691558
-0.000702438
-0.000714108
-0.00072663
-0.000740784
-0.000755761
2.35624e-05
6.48095e-06
-1.07253e-05
-2.81047e-05
-4.55225e-05
-6.289e-05
-8.02108e-05
-9.75085e-05
-0.000114781
-0.000132005
-0.000149146
-0.00016618
-0.000183084
-0.000199839
-0.000216427
-0.000232827
-0.000249018
-0.000264978
-0.000280689
-0.000296131
-0.000311285
-0.000326136
-0.000340667
-0.000354863
-0.000368712
-0.000382201
-0.000395321
-0.000408065
-0.000420428
-0.000432405
-0.000443998
-0.000455207
-0.000466038
-0.000476498
-0.000486596
-0.000496344
-0.000505751
-0.000514828
-0.000523592
-0.000532071
-0.000540293
-0.000548291
-0.000556092
-0.000563719
-0.000571195
-0.000578544
-0.000585795
-0.000592981
-0.000600135
-0.000607289
-0.000614476
-0.000621727
-0.000629072
-0.000636541
-0.000644164
-0.00065197
-0.000659991
-0.000668257
-0.000676799
-0.000685651
-0.000694845
-0.000704418
-0.00071441
-0.000724875
-0.000735868
-0.000747523
-0.000759867
-0.000773516
-0.000787505
8.29053e-06
-9.68559e-06
-2.77811e-05
-4.60484e-05
-6.43467e-05
-8.25814e-05
-0.000100755
-0.000118892
-0.00013699
-0.000155023
-0.000172956
-0.000190759
-0.00020841
-0.000225886
-0.000243169
-0.000260235
-0.000277062
-0.000293627
-0.000309907
-0.000325884
-0.000341536
-0.000356847
-0.000371798
-0.000386374
-0.000400562
-0.000414349
-0.000427726
-0.000440685
-0.000453222
-0.000465335
-0.000477025
-0.000488295
-0.000499152
-0.000509607
-0.00051967
-0.000529358
-0.000538679
-0.000547648
-0.000556289
-0.000564633
-0.000572713
-0.000580568
-0.000588229
-0.000595725
-0.000603082
-0.000610329
-0.000617499
-0.000624628
-0.00063175
-0.000638902
-0.000646116
-0.000653425
-0.000660862
-0.000668456
-0.000676238
-0.000684237
-0.000692482
-0.000701001
-0.000709819
-0.000718961
-0.000728448
-0.000738296
-0.000748521
-0.000759142
-0.000770175
-0.000781701
-0.000793708
-0.000806511
-0.000819434
-8.85533e-06
-2.77868e-05
-4.68314e-05
-6.60454e-05
-8.52818e-05
-0.00010444
-0.00012352
-0.000142549
-0.000161522
-0.000180412
-0.000199182
-0.000217798
-0.000236235
-0.00025447
-0.00027248
-0.000290242
-0.00030773
-0.00032492
-0.000341787
-0.000358311
-0.000374468
-0.00039024
-0.000405608
-0.000420556
-0.000435068
-0.000449133
-0.00046274
-0.000475883
-0.000488558
-0.000500763
-0.000512501
-0.000523777
-0.000534602
-0.000544988
-0.00055495
-0.000564506
-0.000573666
-0.000582451
-0.000590891
-0.000599022
-0.000606886
-0.000614523
-0.000621973
-0.000629268
-0.000636441
-0.000643526
-0.000650559
-0.000657579
-0.000664623
-0.00067173
-0.000678934
-0.000686271
-0.000693772
-0.00070147
-0.000709394
-0.000717575
-0.00072604
-0.000734814
-0.000743916
-0.000753362
-0.000763158
-0.000773298
-0.000783766
-0.00079454
-0.000805579
-0.000816876
-0.000828335
-0.00084031
-0.000852179
-2.8149e-05
-4.81017e-05
-6.81602e-05
-8.83852e-05
-0.000108623
-0.000128765
-0.000148811
-0.000168788
-0.000188692
-0.000208493
-0.000228149
-0.000247625
-0.000266892
-0.000285925
-0.0003047
-0.000323189
-0.000341366
-0.000359203
-0.000376675
-0.000393757
-0.000410425
-0.000426659
-0.000442438
-0.000457744
-0.000472562
-0.000486879
-0.000500684
-0.000513971
-0.000526736
-0.00053898
-0.000550706
-0.000561924
-0.000572644
-0.000582884
-0.000592664
-0.000601999
-0.000610907
-0.000619415
-0.000627559
-0.000635384
-0.000642938
-0.000650268
-0.000657421
-0.000664434
-0.000671346
-0.000678196
-0.000685026
-0.000691877
-0.00069879
-0.000705804
-0.000712957
-0.000720286
-0.000727823
-0.000735601
-0.000743653
-0.000752009
-0.000760695
-0.000769734
-0.000779143
-0.000788927
-0.000799076
-0.000809563
-0.000820341
-0.000831329
-0.000842405
-0.000853429
-0.000864192
-0.000874588
-0.000884543
-4.99078e-05
-7.09537e-05
-9.20971e-05
-0.000113403
-0.00013471
-0.000155903
-0.00017698
-0.000197967
-0.000218862
-0.000239631
-0.000260228
-0.000280616
-0.000300761
-0.000320636
-0.000340214
-0.000359465
-0.00037836
-0.000396868
-0.000414962
-0.000432614
-0.000449798
-0.000466491
-0.000482672
-0.000498319
-0.000513418
-0.000527953
-0.000541914
-0.000555295
-0.000568092
-0.000580308
-0.000591949
-0.000603025
-0.000613552
-0.000623551
-0.000633044
-0.00064205
-0.000650594
-0.000658711
-0.000666446
-0.000673852
-0.000680985
-0.000687903
-0.000694657
-0.000701292
-0.000707854
-0.000714388
-0.000720939
-0.000727554
-0.000734275
-0.000741144
-0.000748201
-0.000755482
-0.000763024
-0.000770861
-0.000779025
-0.00078755
-0.000796465
-0.000805791
-0.000815544
-0.000825723
-0.000836308
-0.000847254
-0.000858473
-0.000869821
-0.000881101
-0.000892043
-0.00090224
-0.000911031
-0.000917511
-7.4505e-05
-9.67236e-05
-0.00011903
-0.000141494
-0.000163947
-0.000186265
-0.000208444
-0.000230511
-0.000252464
-0.000274265
-0.000295865
-0.000317222
-0.000338299
-0.000359065
-0.00037949
-0.000399542
-0.000419188
-0.000438395
-0.000457131
-0.000475366
-0.000493071
-0.000510221
-0.000526791
-0.00054276
-0.000558109
-0.000572823
-0.000586891
-0.000600307
-0.000613067
-0.000625176
-0.000636641
-0.000647477
-0.000657703
-0.000667344
-0.000676426
-0.000684972
-0.000693014
-0.000700599
-0.000707783
-0.00071463
-0.000721206
-0.000727578
-0.000733806
-0.000739944
-0.000746046
-0.000752162
-0.000758344
-0.000764642
-0.000771101
-0.000777764
-0.000784672
-0.000791863
-0.000799373
-0.000807241
-0.000815502
-0.000824193
-0.000833346
-0.000842988
-0.000853138
-0.000863799
-0.000874947
-0.000886514
-0.000898384
-0.000910381
-0.000922235
-0.000933536
-0.000943731
-0.000951943
-0.0009577
-0.000102367
-0.000125844
-0.000149399
-0.000173106
-0.000196786
-0.000220309
-0.000243668
-0.00026689
-0.000289973
-0.000312875
-0.000335544
-0.000357932
-0.000379998
-0.000401707
-0.000423026
-0.00044392
-0.000464351
-0.000484284
-0.000503681
-0.00052251
-0.000540738
-0.000558337
-0.000575279
-0.00059154
-0.0006071
-0.000621942
-0.000636053
-0.000649426
-0.000662061
-0.000673962
-0.000685139
-0.00069561
-0.000705399
-0.000714536
-0.000723049
-0.000730969
-0.000738342
-0.000745226
-0.000751691
-0.000757814
-0.000763674
-0.000769348
-0.000774906
-0.000780413
-0.000785931
-0.000791519
-0.000797234
-0.000803127
-0.000809248
-0.00081564
-0.000822343
-0.000829396
-0.000836836
-0.000844704
-0.00085304
-0.000861886
-0.000871285
-0.000881277
-0.000891894
-0.000903145
-0.000915008
-0.000927427
-0.000940293
-0.000953397
-0.000966396
-0.000978742
-0.000989807
-0.000998316
-0.00100422
-0.000134027
-0.000158861
-0.000183762
-0.000208808
-0.000233813
-0.000258634
-0.000283263
-0.000307729
-0.000332027
-0.000356113
-0.00037993
-0.000403423
-0.000426548
-0.000449264
-0.000471536
-0.000493323
-0.000514584
-0.000535278
-0.000555364
-0.000574805
-0.000593564
-0.000611609
-0.000628908
-0.000645435
-0.000661165
-0.00067608
-0.000690165
-0.000703414
-0.000715823
-0.0007274
-0.000738158
-0.000748118
-0.000757309
-0.000765765
-0.000773517
-0.000780609
-0.000787099
-0.000793063
-0.000798587
-0.000803764
-0.00080869
-0.000813457
-0.000818147
-0.00082284
-0.000827609
-0.000832521
-0.000837639
-0.000843019
-0.000848708
-0.000854748
-0.000861179
-0.000868036
-0.000875356
-0.000883181
-0.000891555
-0.000900535
-0.00091018
-0.000920548
-0.000931691
-0.000943644
-0.000956431
-0.00097004
-0.00098437
-0.000999196
-0.00101416
-0.0010286
-0.00104187
-0.00105196
-0.00105932
-0.000170027
-0.000196319
-0.000222664
-0.000249147
-0.000275572
-0.000301785
-0.000327774
-0.00035357
-0.000379167
-0.000404517
-0.000429558
-0.000454228
-0.000478478
-0.000502262
-0.000525539
-0.000548264
-0.000570392
-0.000591876
-0.000612669
-0.000632729
-0.000652014
-0.000670486
-0.00068811
-0.000704854
-0.00072069
-0.000735597
-0.000749558
-0.000762564
-0.000774613
-0.000785712
-0.000795877
-0.000805133
-0.000813514
-0.000821058
-0.000827807
-0.000833819
-0.000839174
-0.000843966
-0.000848302
-0.000852296
-0.000856061
-0.000859708
-0.000863337
-0.000867042
-0.000870909
-0.000875016
-0.000879428
-0.000884202
-0.000889382
-0.000895006
-0.000901104
-0.000907707
-0.000914849
-0.000922575
-0.000930942
-0.000940019
-0.000949886
-0.00096063
-0.000972352
-0.000985159
-0.000999129
-0.0010143
-0.00103066
-0.00104801
-0.00106603
-0.00108402
-0.001101
-0.00111349
-0.00112267
-0.000211268
-0.000239151
-0.000267078
-0.000295135
-0.000323114
-0.000350852
-0.000378332
-0.000405585
-0.000432604
-0.000459339
-0.000485719
-0.000511677
-0.000537155
-0.000562104
-0.000586477
-0.000610222
-0.00063329
-0.000655625
-0.000677176
-0.000697894
-0.000717731
-0.000736641
-0.000754584
-0.000771522
-0.000787422
-0.000802258
-0.000816008
-0.000828661
-0.000840215
-0.000850677
-0.000860064
-0.000868405
-0.000875738
-0.0008821
-0.000887547
-0.000892156
-0.000896027
-0.000899279
-0.000902044
-0.000904464
-0.000906682
-0.000908834
-0.000911049
-0.000913446
-0.000916131
-0.000919196
-0.000922713
-0.000926734
-0.000931291
-0.000936403
-0.000942083
-0.000948353
-0.000955246
-0.000962807
-0.000971102
-0.000980219
-0.000990275
-0.00100141
-0.00101378
-0.00102755
-0.0010429
-0.00105998
-0.00107893
-0.00109973
-0.00112197
-0.00114443
-0.00116519
-0.00117953
-0.00118766
-0.000258071
-0.000287639
-0.000317231
-0.000346948
-0.00037657
-0.000405918
-0.000434972
-0.000463763
-0.000492284
-0.000520479
-0.000548272
-0.000575587
-0.000602358
-0.00062853
-0.000654047
-0.000678853
-0.00070289
-0.000726095
-0.00074841
-0.000769775
-0.000790137
-0.000809442
-0.000827642
-0.000844691
-0.00086055
-0.000875184
-0.000888568
-0.000900684
-0.000911525
-0.000921098
-0.000929422
-0.000936529
-0.00094246
-0.000947269
-0.000951033
-0.000953856
-0.000955868
-0.000957221
-0.000958081
-0.000958619
-0.000959009
-0.000959418
-0.000960005
-0.000960916
-0.000962283
-0.00096421
-0.000966774
-0.000970019
-0.000973953
-0.000978565
-0.000983842
-0.000989781
-0.000996411
-0.00100378
-0.00101198
-0.00102113
-0.00103137
-0.00104287
-0.00105582
-0.00107049
-0.00108726
-0.00110651
-0.00112839
-0.00115272
-0.00117854
-0.00120375
-0.00122515
-0.00123823
-0.00123951
-0.00031297
-0.000344451
-0.000375965
-0.000407588
-0.000439089
-0.000470278
-0.00050113
-0.000531677
-0.000561911
-0.000591772
-0.000621176
-0.00065004
-0.000678289
-0.000705859
-0.000732689
-0.000758715
-0.000783868
-0.00080808
-0.00083128
-0.0008534
-0.000874375
-0.000894142
-0.000912642
-0.000929821
-0.000945629
-0.000960024
-0.000972972
-0.00098445
-0.000994444
-0.00100296
-0.00101
-0.0010156
-0.00101979
-0.00102263
-0.00102421
-0.00102466
-0.00102415
-0.00102287
-0.00102103
-0.00101886
-0.00101658
-0.00101443
-0.00101263
-0.00101138
-0.00101084
-0.00101115
-0.00101239
-0.0010146
-0.00101774
-0.00102176
-0.00102657
-0.00103214
-0.00103848
-0.00104565
-0.00105375
-0.00106288
-0.00107319
-0.00108487
-0.00109824
-0.00111363
-0.00113135
-0.00115173
-0.00117466
-0.00119951
-0.00122479
-0.00124766
-0.00126484
-0.00127372
-0.00127117
-0.000373102
-0.000406531
-0.000439933
-0.000473456
-0.000506852
-0.000539907
-0.000572588
-0.000604925
-0.000636908
-0.000668472
-0.000699523
-0.000729966
-0.000759718
-0.000788704
-0.000816854
-0.000844095
-0.000870349
-0.000895536
-0.000919575
-0.000942387
-0.000963894
-0.000984019
-0.00100269
-0.00101984
-0.0010354
-0.00104932
-0.00106155
-0.00107205
-0.00108081
-0.00108782
-0.00109309
-0.00109666
-0.00109856
-0.0010989
-0.0010978
-0.00109542
-0.00109197
-0.00108769
-0.00108284
-0.00107772
-0.0010726
-0.00106779
-0.00106358
-0.00106022
-0.00105795
-0.00105691
-0.00105719
-0.00105874
-0.00106146
-0.00106518
-0.00106973
-0.00107503
-0.0010811
-0.00108807
-0.00109611
-0.00110533
-0.00111576
-0.0011274
-0.00114038
-0.00115469
-0.00117031
-0.00118759
-0.0012064
-0.00122606
-0.00124607
-0.00126455
-0.00127943
-0.00128879
-0.00129
-0.000450168
-0.000485871
-0.00052167
-0.000557549
-0.000593252
-0.00062857
-0.000663468
-0.000697978
-0.00073209
-0.000765735
-0.00079881
-0.000831209
-0.000862834
-0.000893602
-0.000923431
-0.000952237
-0.00097993
-0.00100641
-0.0010316
-0.00105538
-0.00107768
-0.00109841
-0.00111746
-0.00113476
-0.00115023
-0.00116379
-0.00117537
-0.00118492
-0.00119239
-0.00119775
-0.00120098
-0.00120207
-0.00120105
-0.00119802
-0.00119312
-0.00118654
-0.00117856
-0.0011695
-0.00115972
-0.00114963
-0.00113964
-0.00113021
-0.00112176
-0.0011147
-0.00110939
-0.00110605
-0.00110474
-0.00110533
-0.00110745
-0.00111068
-0.00111469
-0.00111937
-0.00112483
-0.00113135
-0.00113917
-0.00114808
-0.00115741
-0.00116674
-0.00117621
-0.00118535
-0.00119378
-0.0012031
-0.00121472
-0.0012286
-0.00124523
-0.00126247
-0.00127652
-0.00128568
-0.00129315
-0.000522771
-0.000560984
-0.000598967
-0.000637072
-0.000675023
-0.000712546
-0.000749588
-0.000786182
-0.000822324
-0.000857943
-0.000892928
-0.00092716
-0.000960531
-0.000992944
-0.00102431
-0.00105452
-0.00108349
-0.00111111
-0.00113725
-0.00116181
-0.00118467
-0.00120573
-0.00122489
-0.00124202
-0.00125703
-0.00126981
-0.00128028
-0.00128837
-0.00129403
-0.00129723
-0.00129795
-0.0012962
-0.00129201
-0.00128546
-0.00127669
-0.00126591
-0.00125342
-0.00123961
-0.00122496
-0.00121
-0.00119534
-0.00118161
-0.00116949
-0.0011596
-0.00115247
-0.00114844
-0.00114752
-0.00114934
-0.00115307
-0.00115757
-0.0011619
-0.0011657
-0.00116934
-0.00117362
-0.00117921
-0.00118526
-0.00118975
-0.00119232
-0.00119484
-0.00119748
-0.00119966
-0.00120426
-0.00121325
-0.00122457
-0.00123554
-0.00124537
-0.00125432
-0.00126429
-0.00127978
-0.000641042
-0.000681577
-0.00072259
-0.000763711
-0.000804618
-0.000845081
-0.000885044
-0.000924529
-0.000963522
-0.00100194
-0.00103966
-0.00107655
-0.00111248
-0.00114735
-0.00118105
-0.00121345
-0.00124445
-0.00127391
-0.0013017
-0.0013277
-0.00135177
-0.00137378
-0.0013936
-0.00141109
-0.00142609
-0.00143842
-0.00144791
-0.00145438
-0.00145768
-0.00145771
-0.00145446
-0.00144798
-0.00143836
-0.00142571
-0.0014102
-0.00139209
-0.00137171
-0.00134949
-0.00132598
-0.00130187
-0.00127797
-0.00125524
-0.00123474
-0.00121755
-0.00120468
-0.00119689
-0.00119443
-0.00119678
-0.00120233
-0.00120839
-0.00121231
-0.00121289
-0.00121072
-0.00120784
-0.00120666
-0.00120681
-0.00120525
-0.00120205
-0.00120065
-0.0012022
-0.00120524
-0.00120839
-0.00121155
-0.00121463
-0.00121735
-0.00122053
-0.00122605
-0.00123681
-0.00125666
-0.000717374
-0.000761113
-0.000804036
-0.000847288
-0.000890514
-0.000933275
-0.000975489
-0.00101721
-0.00105841
-0.00109901
-0.00113886
-0.00117782
-0.00121574
-0.00125251
-0.00128801
-0.00132211
-0.00135466
-0.00138551
-0.00141451
-0.0014415
-0.00146633
-0.00148887
-0.00150904
-0.00152678
-0.00154198
-0.00155445
-0.00156395
-0.00157024
-0.00157302
-0.00157201
-0.00156696
-0.00155775
-0.00154436
-0.00152686
-0.00150538
-0.00148013
-0.00145143
-0.00141976
-0.00138577
-0.00135041
-0.0013149
-0.0012808
-0.00124983
-0.00122389
-0.0012048
-0.00119402
-0.00119217
-0.00119846
-0.0012101
-0.00122203
-0.00122958
-0.00123082
-0.00122657
-0.00121995
-0.00121509
-0.0012135
-0.00121367
-0.00121336
-0.00121188
-0.00121008
-0.00120865
-0.00120737
-0.00120588
-0.00120402
-0.001202
-0.00120115
-0.001204
-0.00121377
-0.00123282
-0.000902062
-0.000949309
-0.000997596
-0.00104571
-0.00109317
-0.00113994
-0.00118613
-0.00123179
-0.00127687
-0.00132125
-0.00136478
-0.00140728
-0.00144861
-0.00148862
-0.00152717
-0.0015641
-0.00159925
-0.00163243
-0.00166343
-0.00169201
-0.00171793
-0.00174088
-0.00176053
-0.00177652
-0.00178863
-0.0017968
-0.00180102
-0.00180133
-0.00179771
-0.00179008
-0.00177818
-0.00176163
-0.00174003
-0.00171314
-0.00168087
-0.00164337
-0.00160096
-0.00155426
-0.00150419
-0.00145199
-0.00139927
-0.00134796
-0.0013003
-0.0012587
-0.0012255
-0.00120263
-0.00119116
-0.00119087
-0.00119956
-0.00121221
-0.00122336
-0.00123002
-0.0012317
-0.00122937
-0.00122512
-0.00122148
-0.00121929
-0.00121736
-0.00121513
-0.00121269
-0.00121004
-0.00120681
-0.00120277
-0.00119796
-0.00119303
-0.00118972
-0.00119062
-0.00119771
-0.00121309
0.000391855
0.000396371
0.000401151
0.000406253
0.000411613
0.00041727
0.000423263
0.00042941
0.000435759
0.000442304
0.000449073
0.00045605
0.000462977
0.000470414
0.000477135
0.000483933
0.00048987
0.000496103
0.000501653
0.000506874
0.000511834
0.000515122
0.000517827
0.000519263
0.00051968
0.000518974
0.000516552
0.000512856
0.000507971
0.000501639
0.000493264
0.000483795
0.00047324
0.000461689
0.000448385
0.000434337
0.000419636
0.000404196
0.000388169
0.000371971
0.0003555
0.000338854
0.000322716
0.000306917
0.000290596
0.000275338
0.000259974
0.00024554
0.000231537
0.000218133
0.000205457
0.000193408
0.000182099
0.000171471
0.000161441
0.000151548
0.000142539
0.00013405
0.000126183
0.000395758
0.000400518
0.00040561
0.000410969
0.000416618
0.000422567
0.000428806
0.000435279
0.000441998
0.000448953
0.000456097
0.000463383
0.000470729
0.000478162
0.000485578
0.000492679
0.00049953
0.000506062
0.000512157
0.000517603
0.000522457
0.000526383
0.000529285
0.000531054
0.000531634
0.00053084
0.000528637
0.000524851
0.000519847
0.000513176
0.000504664
0.000494956
0.000484059
0.000471747
0.000458143
0.000443551
0.000428175
0.000412118
0.000395514
0.0003785
0.000361294
0.000344073
0.000327061
0.000310068
0.000293405
0.00027719
0.000261419
0.000246294
0.000231721
0.000217736
0.000204446
0.000191846
0.000179855
0.000168546
0.000157797
0.000147727
0.000138323
0.000129545
0.000121328
0.000399681
0.000404721
0.000410078
0.000415744
0.000421721
0.000428006
0.000434584
0.00044144
0.000448561
0.000455924
0.000463476
0.000471155
0.000478919
0.000486739
0.000494534
0.00050221
0.000509648
0.000516684
0.000523183
0.000529038
0.000534123
0.000538427
0.000541642
0.000543659
0.000544405
0.000543672
0.000541482
0.000537721
0.000532484
0.000525592
0.000516917
0.000506866
0.000495394
0.000482533
0.000468392
0.000453228
0.00043716
0.000420401
0.000403072
0.000385342
0.000367383
0.000349299
0.000331304
0.000313569
0.000296169
0.000279248
0.00026282
0.000246952
0.000231687
0.000217059
0.000203129
0.000189885
0.000177325
0.000165433
0.000154263
0.0001438
0.000133992
0.000124814
0.000116202
0.000403311
0.000408635
0.000414302
0.000420299
0.000426629
0.000433287
0.000440263
0.000447541
0.0004551
0.000462911
0.000470933
0.000479112
0.000487401
0.000495732
0.000504005
0.000512164
0.000520059
0.000527578
0.000534556
0.0005409
0.000546437
0.00055106
0.00055457
0.000556833
0.000557761
0.000557154
0.000554993
0.000551194
0.000545763
0.000538648
0.000529712
0.000519252
0.000507252
0.000493859
0.00047912
0.000463291
0.000446503
0.000428955
0.000410807
0.00039225
0.000373446
0.000354535
0.000335715
0.000317182
0.00029898
0.000281246
0.000264039
0.000247415
0.000231435
0.000216139
0.000201565
0.000187724
0.000174624
0.000162253
0.000150609
0.000139671
0.000129408
0.000119797
0.000110796
0.000406869
0.000412499
0.000418491
0.000424832
0.000431526
0.000438568
0.000445951
0.00045366
0.000461672
0.000469958
0.000478477
0.000487178
0.000496003
0.000504872
0.000513687
0.00052236
0.000530767
0.000538794
0.000546289
0.000553123
0.000559123
0.000564123
0.000567958
0.000570494
0.000571618
0.000571151
0.000569049
0.000565197
0.000559599
0.00055224
0.000542997
0.000532118
0.000519617
0.000505646
0.000490272
0.000473723
0.000456168
0.000437796
0.00041879
0.000399351
0.000379664
0.000359901
0.000340231
0.000320815
0.000301752
0.000283158
0.000265124
0.000247714
0.000230987
0.000214985
0.00019974
0.000185266
0.000171566
0.000158631
0.000146445
0.000134993
0.000124252
0.000114196
0.000104786
0.000410415
0.000416373
0.000422713
0.000429419
0.000436498
0.000443946
0.000451756
0.000459914
0.000468398
0.000477178
0.000486211
0.000495446
0.000504818
0.000514245
0.000523634
0.000532878
0.000541855
0.000550433
0.000558462
0.000565794
0.000572256
0.000577673
0.000581871
0.000584709
0.000586047