/*--------------------------------*- C++ -*----------------------------------*\
| =========                 |                                                 |
| \\      /  F ield         | OpenFOAM: The Open Source CFD Toolbox           |
|  \\    /   O peration     | Version:  2312                                  |
|   \\  /    A nd           | Website:  www.openfoam.com                      |
|    \\/     M anipulation  |                                                 |
\*---------------------------------------------------------------------------*/
FoamFile
{
    version     2.0;
    format      ascii;
    arch        "LSB;label=32;scalar=64";
    class       surfaceScalarField;
    location    "1800";
    object      phi;
}
// * * * * * * * * * * * * * * * * * * * * * * * * * * * * * * * * * * * * * //

dimensions      [0 3 -1 0 0 0 0];

oriented        oriented;

internalField   nonuniform List<scalar> 
116611
(
0.00127415
0.000431698
-0.00125811
-0.000447737
0.00129004
0.000427975
-0.000443859
0.00130572
0.000423949
-0.000439636
0.00132119
0.000419581
-0.000435047
0.00133646
0.00041486
-0.000430125
0.00135175
0.000409749
-0.000425041
0.00136652
0.000404274
-0.000419047
0.00138143
0.000398463
-0.000413374
0.0013959
0.00039223
-0.000406701
0.00141026
0.000385622
-0.000399976
0.00142428
0.000378537
-0.000392564
0.00143813
0.000371031
-0.000384877
0.00145169
0.00036308
-0.000376636
0.00146499
0.000354649
-0.000367954
0.001478
0.000345777
-0.000358788
0.00149057
0.00033645
-0.00034902
0.00150291
0.000326537
-0.000338874
0.00151487
0.000316239
-0.000328204
0.00152636
0.000305251
-0.000316736
0.00153748
0.000293888
-0.00030501
0.00154832
0.00028182
-0.000292655
0.00155868
0.000269271
-0.000279634
0.00156855
0.000256103
-0.00026598
0.00157806
0.000242389
-0.000251893
0.00158703
0.000228051
-0.00023702
0.00159567
0.000213093
-0.000221731
0.0016038
0.000197437
-0.000205571
0.00161114
0.000181172
-0.000188508
0.00161825
0.000164282
-0.0001714
0.00162437
0.000146744
-0.000152861
0.0016304
0.000128703
-0.000134735
0.00163588
0.000109707
-0.000115184
0.00164076
9.00617e-05
-9.49372e-05
0.001645
6.97665e-05
-7.40052e-05
0.00164856
4.8652e-05
-5.22217e-05
0.00165139
2.69234e-05
-2.97436e-05
0.00165397
4.43223e-06
-7.01914e-06
0.00165587
-1.87166e-05
1.68178e-05
0.00165722
-4.25942e-05
4.12412e-05
0.00165768
-6.73644e-05
6.69111e-05
0.00165749
-9.27043e-05
9.28939e-05
0.00165712
-0.000118803
0.00011917
0.00165605
-0.000145645
0.00014672
0.00165414
-0.000173246
0.00017515
0.00165148
-0.000201594
0.000204256
0.00164837
-0.000230588
0.000233702
0.0016448
-0.00026032
0.000263884
0.00164006
-0.000290871
0.000295616
0.00163478
-0.000322023
0.000327295
0.00162877
-0.000353829
0.000359846
0.00162185
-0.000386334
0.000393256
0.00161446
-0.000419332
0.000426713
0.0016065
-0.00045296
0.000460924
0.00159763
-0.000487319
0.000496186
0.00158752
-0.000522241
0.000532353
0.00157723
-0.000557472
0.000567766
0.00156588
-0.000593363
0.000604706
0.00155411
-0.000629643
0.000641422
0.00154169
-0.00066624
0.000678655
0.00152864
-0.000702988
0.000716043
0.0015157
-0.000739871
0.000752806
0.00150243
-0.000777434
0.000790706
0.00148856
-0.000815157
0.000829025
0.00147452
-0.000853034
0.000867073
0.00146028
-0.000890926
0.000905171
0.00144595
-0.000928939
0.000943264
0.00143268
-0.000966876
0.000980151
0.00142047
-0.00100457
0.00101678
-0.00104571
0.00140743
0.00105874
0.00125993
0.000415805
-0.00124404
0.0012757
0.000412208
0.00129133
0.000408319
0.00130679
0.000404116
0.0013221
0.000399547
0.00133721
0.000394647
0.00135209
0.000389387
0.00136681
0.000383748
0.0013813
0.000377743
0.00139559
0.000371328
0.00140963
0.000364499
0.00142341
0.000357249
0.00143693
0.000349559
0.00145016
0.000341417
0.00146309
0.000332846
0.00147575
0.000323791
0.00148803
0.00031426
0.00150004
0.00030423
0.0015116
0.000293695
0.00152286
0.000282622
0.00153368
0.000271004
0.0015441
0.000258846
0.00155409
0.000246118
0.00156366
0.000232818
0.00157278
0.000218927
0.00158147
0.000204407
0.00158962
0.000189283
0.00159726
0.000173532
0.0016044
0.000157145
0.00161099
0.000140149
0.00161722
0.000122479
0.00162283
0.000104093
0.00162786
8.50364e-05
0.00163234
6.52842e-05
0.00163618
4.48064e-05
0.00163949
2.36219e-05
0.0016422
1.71662e-06
0.00164434
-2.08524e-05
0.00164589
-4.41487e-05
0.00164673
-6.82006e-05
0.00164699
-9.29618e-05
0.00164661
-0.000118431
0.00164557
-0.000144601
0.00164385
-0.000171527
0.00164145
-0.00019919
0.00163841
-0.000227551
0.00163469
-0.000256603
0.00163021
-0.000286387
0.00162505
-0.000316859
0.00161918
-0.000347966
0.00161257
-0.000379726
0.00160533
-0.000412092
0.00159743
-0.000445056
0.00158877
-0.000478655
0.00157938
-0.000512859
0.00156946
-0.000547553
0.00155885
-0.000582744
0.00154762
-0.000618417
0.00153584
-0.000654458
0.00152368
-0.000690835
0.00151133
-0.000727516
0.00149852
-0.00076463
0.00148542
-0.000802053
0.00147213
-0.000839748
0.00145886
-0.000877651
0.00144565
-0.000915728
0.00143273
-0.000953958
0.00142019
-0.000992034
-0.00103264
0.00140712
0.00124672
0.000400076
-0.001231
0.00126235
0.000396586
0.00127786
0.000392809
0.00129324
0.00038873
0.00130846
0.00038433
0.00132351
0.000379599
0.00133837
0.000374523
0.00135303
0.000369085
0.0013675
0.000363279
0.00138174
0.000357089
0.00139573
0.000350502
0.00140948
0.000343506
0.00142295
0.000336089
0.00143613
0.000328237
0.00144903
0.000319942
0.00146163
0.000311191
0.00147392
0.000301973
0.00148588
0.000292273
0.00149749
0.000282079
0.00150874
0.000271373
0.0015196
0.000260144
0.00153007
0.000248379
0.00154012
0.000236063
0.00154976
0.000223183
0.00155896
0.000209728
0.00156768
0.000195681
0.00157594
0.000181031
0.0015837
0.000165766
0.00159097
0.000149879
0.00159776
0.000133361
0.00160404
0.000116194
0.00160977
9.83621e-05
0.00161496
7.98499e-05
0.00161959
6.06501e-05
0.00162365
4.07515e-05
0.00162712
2.01487e-05
0.00163
-1.16478e-06
0.00163231
-2.3154e-05
0.001634
-4.58472e-05
0.00163506
-6.92589e-05
0.00163549
-9.33852e-05
0.00163527
-0.000118217
0.00163443
-0.00014376
0.00163293
-0.000170031
0.00163077
-0.000197021
0.00162793
-0.000224714
0.00162443
-0.0002531
0.00162023
-0.00028219
0.00161533
-0.000311966
0.00160976
-0.000342395
0.00160351
-0.000373475
0.00159661
-0.000405188
0.00158907
-0.000437517
0.00158088
-0.000470465
0.00157203
-0.000504013
0.00156259
-0.000538105
0.00155255
-0.000572711
0.00154196
-0.000607824
0.00153089
-0.000643384
0.00151941
-0.000679355
0.00150761
-0.000715718
0.00149549
-0.000752511
0.00148313
-0.000789697
0.00147062
-0.000827233
0.00145805
-0.00086508
0.00144553
-0.000903209
0.00143322
-0.000941648
0.00142122
-0.000980038
-0.00102082
0.00140941
0.00123441
0.000384435
-0.00121877
0.00124993
0.000381069
0.00126531
0.00037742
0.00128057
0.000373472
0.00129569
0.000369217
0.00131064
0.000364642
0.00132543
0.000359736
0.00134003
0.000354488
0.00135442
0.000348883
0.0013686
0.00034291
0.00138255
0.000336556
0.00139625
0.000329808
0.00140968
0.000322653
0.00142284
0.000315079
0.00143571
0.000307073
0.00144828
0.000298624
0.00146053
0.000289718
0.00147246
0.000280345
0.00148405
0.000270489
0.00149528
0.000260139
0.00150615
0.000249281
0.00151662
0.000237901
0.0015267
0.000225986
0.00153636
0.000213523
0.00154559
0.000200498
0.00155437
0.000186898
0.0015627
0.000172708
0.00157055
0.000157917
0.00157791
0.000142515
0.00158478
0.000126491
0.00159114
0.000109831
0.00159698
9.252e-05
0.00160229
7.45426e-05
0.00160705
5.58904e-05
0.00161125
3.65539e-05
0.00161487
1.65238e-05
0.00161792
-4.21231e-06
0.00162038
-2.56117e-05
0.00162224
-4.77036e-05
0.00162347
-7.04979e-05
0.00162409
-9.39987e-05
0.00162408
-0.000118205
0.00162343
-0.000143118
0.00162215
-0.000168743
0.0016202
-0.000195077
0.0016176
-0.000222114
0.00161435
-0.000249847
0.00161043
-0.000278274
0.00160585
-0.000307384
0.00160062
-0.000337162
0.00159474
-0.000367597
0.00158823
-0.000398676
0.0015811
-0.000430387
0.00157335
-0.000462719
0.001565
-0.000495656
0.00155606
-0.000529171
0.00154658
-0.000563234
0.00153659
-0.00059783
0.00152613
-0.000632927
0.00151528
-0.0006685
0.00150409
-0.000704533
0.00149262
-0.000741033
0.0014809
-0.000777983
0.00146903
-0.00081536
0.00145709
-0.000853142
0.00144519
-0.00089131
0.00143345
-0.000929903
0.00142192
-0.000968515
-0.00100949
0.00141059
0.00122283
0.000368826
-0.00120722
0.0012383
0.0003656
0.00125362
0.000362097
0.0012688
0.000358299
0.00128382
0.000354197
0.00129867
0.000349783
0.00131336
0.000345047
0.00132787
0.00033998
0.00134218
0.000334571
0.00135628
0.000328808
0.00137016
0.000322678
0.0013838
0.000316169
0.00139719
0.000309268
0.0014103
0.000301964
0.00142313
0.000294242
0.00143567
0.00028609
0.00144789
0.000277496
0.00145979
0.000268446
0.00147135
0.000258928
0.00148256
0.000248929
0.0014934
0.000238436
0.00150387
0.000227435
0.00151394
0.000215914
0.00152361
0.000203858
0.00153285
0.000191254
0.00154166
0.000178089
0.00155002
0.00016435
0.00155791
0.000150023
0.00156533
0.000135097
0.00157226
0.00011956
0.00157869
0.000103398
0.00158461
8.65981e-05
0.00159001
6.91464e-05
0.00159487
5.10326e-05
0.00159918
3.22461e-05
0.00160292
1.27767e-05
0.0016061
-7.38824e-06
0.00160869
-2.82036e-05
0.00161069
-4.9704e-05
0.00161209
-7.1897e-05
0.00161288
-9.47878e-05
0.00161305
-0.000118379
0.00161261
-0.000142672
0.00161153
-0.000167669
0.00160983
-0.000193371
0.00160749
-0.000219773
0.00160451
-0.000246871
0.0016009
-0.000274661
0.00159665
-0.000303136
0.00159177
-0.000332285
0.00158627
-0.000362098
0.00158016
-0.000392567
0.00157346
-0.000423679
0.00156616
-0.000455424
0.00155829
-0.000487788
0.00154987
-0.000520753
0.00154094
-0.000554297
0.00153151
-0.000588404
0.00152164
-0.000623054
0.00151137
-0.000658232
0.00150076
-0.000693923
0.00148985
-0.000730127
0.00147871
-0.000766837
0.00146739
-0.000804045
0.00145599
-0.000841743
0.00144461
-0.000879927
0.00143336
-0.000918655
0.00142235
-0.000957509
-0.000999067
0.00141193
0.00121186
0.000353221
-0.00119626
0.00122732
0.000350138
0.00124263
0.000346789
0.00125778
0.000343153
0.00127275
0.00033922
0.00128756
0.000334982
0.00130218
0.000330428
0.0013166
0.000325551
0.00133084
0.000320341
0.00134486
0.000314787
0.00135866
0.000308878
0.00137222
0.000302604
0.00138554
0.000295952
0.00139859
0.000288909
0.00141137
0.000281464
0.00142386
0.000273604
0.00143604
0.000265315
0.0014479
0.000256585
0.00145943
0.0002474
0.00147061
0.000237748
0.00148143
0.000227616
0.00149187
0.000216989
0.00150193
0.000205855
0.00151159
0.000194201
0.00152083
0.000182012
0.00152965
0.000169275
0.00153802
0.000155978
0.00154593
0.000142106
0.00155338
0.000127647
0.00156035
0.000112589
0.00156684
9.69175e-05
0.00157281
8.06202e-05
0.00157828
6.36841e-05
0.00158321
4.60975e-05
0.00158761
2.78488e-05
0.00159146
8.92764e-06
0.00159474
-1.06741e-05
0.00159746
-3.09204e-05
0.0015996
-5.18424e-05
0.00160115
-7.34496e-05
0.00160211
-9.57471e-05
0.00160247
-0.000118739
0.00160223
-0.000142429
0.00160138
-0.000166818
0.00159991
-0.000191907
0.00159783
-0.000217695
0.00159514
-0.000244178
0.00159183
-0.000271354
0.00158791
-0.000299217
0.00158339
-0.000327761
0.00157827
-0.000356976
0.00157256
-0.000386857
0.00156627
-0.000417392
0.00155942
-0.000448574
0.00155202
-0.000480389
0.00154409
-0.000512824
0.00153566
-0.000545864
0.00152675
-0.000579496
0.0015174
-0.000613705
0.00150766
-0.000648483
0.00149755
-0.000683818
0.00148714
-0.000719714
0.00147647
-0.000756169
0.00146562
-0.000793191
0.00145466
-0.000830784
0.00144369
-0.000868964
0.00143285
-0.000907806
0.00142227
-0.000946929
-0.000989007
0.00141221
0.00120146
0.000337627
-0.00118587
0.00121692
0.00033468
0.00123223
0.00033148
0.00124737
0.000328006
0.00126235
0.000324247
0.00127714
0.000320191
0.00129174
0.000315831
0.00130613
0.000311155
0.00132032
0.000306154
0.00133429
0.000300819
0.00134803
0.000295138
0.00136153
0.000289102
0.00137478
0.000282699
0.00138777
0.000275918
0.00140049
0.000268748
0.00141292
0.000261175
0.00142505
0.000253187
0.00143686
0.000244771
0.00144834
0.000235915
0.00145949
0.000226605
0.00147028
0.000216828
0.00148069
0.000206571
0.00149073
0.000195819
0.00150037
0.000184561
0.0015096
0.000172781
0.00151841
0.000160466
0.00152679
0.000147604
0.00153471
0.000134179
0.00154218
0.00012018
0.00154918
0.000105592
0.00155569
9.04032e-05
0.00156171
7.45996e-05
0.00156723
5.81686e-05
0.00157223
4.10977e-05
0.0015767
2.33748e-05
0.00158064
4.98849e-06
0.00158403
-1.40601e-05
0.00158686
-3.37514e-05
0.00158913
-5.41094e-05
0.00159082
-7.51459e-05
0.00159194
-9.68667e-05
0.00159248
-0.000119277
0.00159243
-0.00014238
0.00159179
-0.000166179
0.00159056
-0.000190675
0.00158873
-0.000215869
0.00158632
-0.000241759
0.0015833
-0.000268343
0.00157971
-0.000295617
0.00157552
-0.000323577
0.00157076
-0.000352216
0.00156543
-0.000381528
0.00155955
-0.000411505
0.00155311
-0.00044214
0.00154614
-0.000473421
0.00153866
-0.00050534
0.00153068
-0.000537884
0.00152223
-0.000571045
0.00151333
-0.000604812
0.00150403
-0.00063918
0.00149436
-0.000674147
0.00148437
-0.000709719
0.0014741
-0.000745901
0.00146362
-0.000782715
0.00145302
-0.000820182
0.00144239
-0.000858335
0.00143186
-0.000897274
0.0014216
-0.000936667
-0.000979063
0.00141165
0.00119168
0.000322065
-0.00117612
0.00120711
0.000319246
0.00122241
0.000316186
0.00123755
0.000312866
0.00125252
0.000309273
0.00126731
0.000305398
0.00128191
0.000301231
0.00129631
0.000296759
0.00131049
0.000291974
0.00132444
0.000286865
0.00133816
0.00028142
0.00135163
0.00027563
0.00136485
0.000269483
0.0013778
0.000262969
0.00139047
0.000256076
0.00140285
0.000248792
0.00141493
0.000241106
0.0014267
0.000233003
0.00143814
0.000224473
0.00144925
0.000215502
0.00146
0.000206077
0.00147038
0.000196185
0.00148039
0.000185812
0.00149001
0.000174944
0.00149922
0.000163568
0.00150801
0.00015167
0.00151638
0.000139235
0.00152431
0.000126251
0.00153179
0.000112704
0.0015388
9.85798e-05
0.00154534
8.38651e-05
0.00155139
6.85464e-05
0.00155695
5.26107e-05
0.001562
3.60449e-05
0.00156654
1.88367e-05
0.00157055
9.72421e-07
0.00157403
-1.75335e-05
0.00157696
-3.66826e-05
0.00157934
-5.64916e-05
0.00158117
-7.69728e-05
0.00158243
-9.81329e-05
0.00158314
-0.000119978
0.00158327
-0.000142512
0.00158283
-0.00016574
0.00158182
-0.000189663
0.00158023
-0.000214282
0.00157807
-0.000239598
0.00157534
-0.00026561
0.00157203
-0.000292314
0.00156816
-0.000319708
0.00156374
-0.000347787
0.00155875
-0.000376546
0.00155323
-0.000405978
0.00154716
-0.000436078
0.00154058
-0.000466836
0.00153348
-0.000498245
0.0015259
-0.000530298
0.00151784
-0.000562987
0.00150934
-0.000596308
0.00150042
-0.00063026
0.00149111
-0.000664845
0.00148147
-0.000700076
0.00147154
-0.000735969
0.00146138
-0.000772555
0.00145107
-0.000809871
0.0014407
-0.000847964
0.0014304
-0.000886975
0.00142032
-0.000926587
-0.000969469
0.00141072
0.0011826
0.000306545
-0.00116708
0.001198
0.000303851
0.00121326
0.000300927
0.00122837
0.000297754
0.00124332
0.000294321
0.0012581
0.000290619
0.0012727
0.000286637
0.00128709
0.000282365
0.00130127
0.000277792
0.00131523
0.000272908
0.00132895
0.000267701
0.00134242
0.00026216
0.00135563
0.000256274
0.00136856
0.000250032
0.00138122
0.000243422
0.00139358
0.000236432
0.00140564
0.00022905
0.00141737
0.000221264
0.00142879
0.000213062
0.00143986
0.000204431
0.00145058
0.000195358
0.00146093
0.00018583
0.00147091
0.000175833
0.0014805
0.000165353
0.00148969
0.000154377
0.00149847
0.00014289
0.00150683
0.000130879
0.00151475
0.00011833
0.00152222
0.000105229
0.00152924
9.15612e-05
0.00153579
7.73133e-05
0.00154187
6.24714e-05
0.00154746
4.70221e-05
0.00155255
3.09518e-05
0.00155714
1.42478e-05
0.00156122
-3.10522e-06
0.00156476
-2.10804e-05
0.00156778
-3.96995e-05
0.00157026
-5.89736e-05
0.0015722
-7.89142e-05
0.0015736
-9.95292e-05
0.00157445
-0.000120825
0.00157474
-0.000142807
0.00157448
-0.00016548
0.00157367
-0.000188846
0.00157229
-0.000212909
0.00157036
-0.000237668
0.00156787
-0.000263123
0.00156483
-0.000289273
0.00156124
-0.000316117
0.0015571
-0.000343649
0.00155243
-0.000371868
0.00154721
-0.000400766
0.00154147
-0.00043034
0.00153522
-0.000460582
0.00152846
-0.000491488
0.00152122
-0.000523052
0.0015135
-0.000555271
0.00150534
-0.000588143
0.00149675
-0.000621672
0.00148777
-0.000655866
0.00147844
-0.000690744
0.0014688
-0.000726328
0.0014589
-0.000762661
0.00144883
-0.000799795
0.00143866
-0.000837793
0.00142851
-0.000876824
0.00141843
-0.000916515
-0.000959602
0.00140857
0.0011743
0.000291071
-0.00115882
0.00118965
0.0002885
0.00120487
0.000285711
0.00121994
0.000282683
0.00123485
0.000279407
0.00124959
0.000275873
0.00126416
0.000272071
0.00127853
0.000267992
0.0012927
0.000263626
0.00130665
0.000258961
0.00132036
0.000253987
0.00133383
0.000248692
0.00134704
0.000243065
0.00135998
0.000237095
0.00137263
0.000230768
0.00138499
0.000224074
0.00139704
0.000217
0.00140877
0.000209534
0.00142017
0.000201663
0.00143122
0.000193375
0.00144192
0.000184656
0.00145226
0.000175493
0.00146222
0.000165872
0.0014718
0.00015578
0.00148097
0.000145203
0.00148973
0.000134126
0.00149808
0.000122536
0.00150599
0.000110419
0.00151346
9.77589e-05
0.00152048
8.45426e-05
0.00152703
7.07557e-05
0.00153312
5.6384e-05
0.00153873
4.14136e-05
0.00154385
2.58305e-05
0.00154848
9.62152e-06
0.0015526
-7.22683e-06
0.0015562
-2.46848e-05
0.00155929
-4.27847e-05
0.00156185
-6.1536e-05
0.00156389
-8.0949e-05
0.00156539
-0.000101032
0.00156636
-0.000121793
0.00156679
-0.000143237
0.00156668
-0.00016537
0.00156603
-0.000188195
0.00156483
-0.000211715
0.0015631
-0.000235931
0.00156082
-0.000260845
0.001558
-0.000286456
0.00155464
-0.000312762
0.00155076
-0.000339761
0.00154634
-0.00036745
0.0015414
-0.000395825
0.00153594
-0.000424883
0.00152998
-0.000454618
0.00152352
-0.000485029
0.00151657
-0.00051611
0.00150917
-0.000547862
0.00150131
-0.000580287
0.00149303
-0.00061339
0.00148435
-0.000647185
0.0014753
-0.000681694
0.00146592
-0.000716946
0.00145625
-0.000752995
0.00144636
-0.000789902
0.00143632
-0.000827754
0.00142623
-0.000866738
0.00141617
-0.000906459
-0.000950244
0.00140682
0.00116681
0.000275635
-0.00115137
0.00118212
0.00027319
0.00119729
0.000270537
0.00121232
0.000267655
0.00122719
0.000264536
0.00124189
0.00026117
0.00125642
0.000257547
0.00127075
0.000253659
0.00128488
0.000249495
0.0012988
0.000245045
0.00131248
0.000240299
0.00132593
0.000235246
0.00133912
0.000229873
0.00135205
0.00022417
0.00136469
0.000218125
0.00137704
0.000211724
0.00138908
0.000204957
0.00140081
0.00019781
0.0014122
0.000190271
0.00142325
0.000182326
0.00143394
0.000173961
0.00144427
0.000165165
0.00145422
0.000155922
0.00146378
0.000146219
0.00147295
0.000136041
0.0014817
0.000125374
0.00149003
0.000114204
0.00149793
0.000102516
0.0015054
9.02961e-05
0.00151241
7.75284e-05
0.00151897
6.41989e-05
0.00152506
5.02928e-05
0.00153068
3.57957e-05
0.00153581
2.06935e-05
0.00154046
4.97198e-06
0.00154461
-1.13741e-05
0.00154825
-2.83277e-05
0.00155139
-4.59176e-05
0.00155401
-6.41563e-05
0.00155611
-8.30528e-05
0.00155769
-0.000102616
0.00155875
-0.000122854
0.00155929
-0.000143773
0.0015593
-0.000165379
0.00155878
-0.000187675
0.00155773
-0.000210667
0.00155616
-0.000234355
0.00155405
-0.000258741
0.00155142
-0.000283825
0.00154827
-0.000309608
0.00154459
-0.000336086
0.0015404
-0.00036326
0.0015357
-0.000391125
0.0015305
-0.00041968
0.0015248
-0.000448921
0.00151862
-0.000478847
0.00151197
-0.000509455
0.00150485
-0.000540747
0.00149729
-0.000572727
0.0014893
-0.000605402
0.00148091
-0.000638787
0.00147212
-0.000672908
0.00146297
-0.000707798
0.00145349
-0.000743515
0.00144372
-0.000780132
0.00143372
-0.000817752
0.00142357
-0.000856587
0.00141339
-0.000896282
-0.000940618
0.00140377
0.00116015
0.000260231
-0.00114475
0.00117543
0.000257913
0.00119057
0.000255397
0.00120556
0.000252664
0.00122039
0.000249704
0.00123506
0.000246507
0.00124954
0.000243065
0.00126383
0.000239368
0.00127792
0.000235407
0.00129179
0.000231172
0.00130544
0.000226653
0.00131884
0.000221838
0.001332
0.000216717
0.00134489
0.000211279
0.0013575
0.000205511
0.00136983
0.000199402
0.00138184
0.000192938
0.00139355
0.000186108
0.00140492
0.000178898
0.00141595
0.000171295
0.00142663
0.000163285
0.00143694
0.000154854
0.00144687
0.000145988
0.00145642
0.000136674
0.00146556
0.000126895
0.0014743
0.000116639
0.00148261
0.000105888
0.0014905
9.46298e-05
0.00149795
8.28477e-05
0.00150495
7.0527e-05
0.0015115
5.76525e-05
0.00151758
4.42091e-05
0.00152319
3.01819e-05
0.00152833
1.5556e-05
0.00153299
3.15954e-07
0.00153714
-1.55298e-05
0.0015408
-3.19876e-05
0.00154396
-4.90766e-05
0.00154662
-6.68112e-05
0.00154876
-8.52011e-05
0.0015504
-0.000104255
0.00155153
-0.000123982
0.00155215
-0.000144387
0.00155225
-0.000165479
0.00155183
-0.000187261
0.0015509
-0.000209737
0.00154946
-0.000232911
0.0015475
-0.000256784
0.00154503
-0.000281358
0.00154206
-0.000306632
0.00153858
-0.000332607
0.0015346
-0.000359281
0.00153013
-0.000386652
0.00152517
-0.000414719
0.00151973
-0.000443481
0.00151381
-0.000472935
0.00150744
-0.000503081
0.00150061
-0.000533921
0.00149334
-0.000565457
0.00148564
-0.0005977
0.00147752
-0.000630662
0.00146898
-0.00066437
0.00146004
-0.000698856
0.0014507
-0.000734181
0.00144099
-0.000770419
0.00143092
-0.000807682
0.00142053
-0.0008462
0.00140999
-0.000885739
-0.000930342
0.00139971
0.00115434
0.000244847
-0.00113896
0.0011696
0.000242659
0.00118471
0.000240283
0.00119968
0.0002377
0.00121448
0.000234901
0.00122911
0.000231875
0.00124356
0.000228616
0.00125781
0.000225113
0.00127186
0.000221357
0.0012857
0.000217339
0.0012993
0.000213048
0.00131267
0.000208474
0.00132578
0.000203606
0.00133862
0.000198433
0.00135119
0.000192942
0.00136347
0.000187123
0.00137545
0.000180962
0.00138711
0.000174448
0.00139844
0.000167566
0.00140943
0.000160303
0.00142007
0.000152646
0.00143034
0.00014458
0.00144024
0.000136091
0.00144975
0.000127164
0.00145886
0.000117784
0.00146756
0.000107937
0.00147585
9.76057e-05
0.0014837
8.67756e-05
0.00149112
7.54309e-05
0.00149809
6.35558e-05
0.00150461
5.11345e-05
0.00151066
3.81515e-05
0.00151626
2.45912e-05
0.00152137
1.04381e-05
0.00152601
-4.32331e-06
0.00153016
-1.96749e-05
0.00153381
-3.56424e-05
0.00153697
-5.22388e-05
0.00153964
-6.9478e-05
0.00154181
-8.73706e-05
0.00154348
-0.000105926
0.00154465
-0.000125152
0.00154532
-0.000145058
0.00154549
-0.000165648
0.00154516
-0.00018693
0.00154433
-0.000208906
0.001543
-0.000231582
0.00154118
-0.000254959
0.00153886
-0.000279039
0.00153605
-0.000303823
0.00153275
-0.000329311
0.00152897
-0.000355502
0.00152472
-0.000382397
0.00151999
-0.000409994
0.0015148
-0.000438291
0.00150915
-0.000467287
0.00150305
-0.000496982
0.00149651
-0.000527376
0.00148952
-0.000558472
0.0014821
-0.000590276
0.00147424
-0.0006228
0.00146593
-0.000656064
0.00145717
-0.000690098
0.00144794
-0.000724953
0.00143822
-0.0007607
0.001428
-0.000797455
0.00141724
-0.000835439
0.00140596
-0.000874457
-0.000917719
0.00139333
0.0011494
0.000229476
-0.00113403
0.00116464
0.00022742
0.00117974
0.000225185
0.00119469
0.000222753
0.00120947
0.000220116
0.00122408
0.000217265
0.00123851
0.00021419
0.00125274
0.000210883
0.00126676
0.000207336
0.00128056
0.000203537
0.00129413
0.000199478
0.00130745
0.000195148
0.00132053
0.000190536
0.00133333
0.00018563
0.00134585
0.00018042
0.00135808
0.000174893
0.00137001
0.000169037
0.00138161
0.00016284
0.00139289
0.000156287
0.00140383
0.000149366
0.00141441
0.000142062
0.00142463
0.000134362
0.00143447
0.00012625
0.00144393
0.000117711
0.00145298
0.00010873
0.00146162
9.92919e-05
0.00146985
8.93797e-05
0.00147765
7.89777e-05
0.00148501
6.80697e-05
0.00149193
5.66391e-05
0.00149839
4.46696e-05
0.0015044
3.21449e-05
0.00150994
1.90486e-05
0.00151501
5.36452e-06
0.00151961
-8.91739e-06
0.00152372
-2.37849e-05
0.00152734
-3.92677e-05
0.00153048
-5.53794e-05
0.00153314
-7.21322e-05
0.00153531
-8.95375e-05
0.00153698
-0.000107605
0.00153818
-0.000126344
0.00153888
-0.000145762
0.0015391
-0.000165866
0.00153883
-0.000186663
0.00153808
-0.000208156
0.00153685
-0.00023035
0.00153514
-0.000253249
0.00153295
-0.000276853
0.0015303
-0.000301164
0.00152717
-0.000326184
0.00152358
-0.000351912
0.00151953
-0.000378347
0.00151503
-0.00040549
0.00151007
-0.000433338
0.00150468
-0.00046189
0.00149884
-0.000491145
0.00149256
-0.000521101
0.00148585
-0.00055176
0.0014787
-0.000583122
0.00147109
-0.000615193
0.00146301
-0.000647981
0.00145442
-0.000681504
0.00144526
-0.000715797
0.00143548
-0.000750923
0.00142504
-0.000787009
0.00141392
-0.000824321
0.00140238
-0.00086292
-0.000905795
0.00139046
0.00114537
0.000214114
-0.00113001
0.0011606
0.000212189
0.00117569
0.000210095
0.00119063
0.000207817
0.0012054
0.000205344
0.00122
0.000202668
0.00123441
0.00019978
0.00124862
0.000196672
0.00126262
0.000193335
0.0012764
0.00018976
0.00128994
0.000185935
0.00130324
0.000181852
0.00131627
0.000177499
0.00132904
0.000172865
0.00134152
0.000167938
0.0013537
0.000162708
0.00136558
0.000157161
0.00137714
0.000151284
0.00138836
0.000145064
0.00139924
0.000138488
0.00140976
0.000131542
0.00141991
0.00012421
0.00142968
0.000116478
0.00143906
0.00010833
0.00144804
9.97504e-05
0.00145661
9.07231e-05
0.00146476
8.12315e-05
0.00147248
7.12588e-05
0.00147976
6.07881e-05
0.0014866
4.98023e-05
0.00149298
3.82841e-05
0.00149891
2.62164e-05
0.00150438
1.35821e-05
0.00150938
3.6344e-07
0.0015139
-1.34375e-05
0.00151794
-2.78297e-05
0.00152151
-4.28351e-05
0.0015246
-5.84696e-05
0.00152721
-7.47453e-05
0.00152935
-9.16739e-05
0.00153101
-0.000109266
0.0015322
-0.00012753
0.00153291
-0.000146475
0.00153315
-0.000166108
0.00153292
-0.000186436
0.00153223
-0.000207463
0.00153107
-0.000229194
0.00152946
-0.000251631
0.00152738
-0.000274778
0.00152485
-0.000298635
0.00152187
-0.000323205
0.00151845
-0.000348487
0.00151458
-0.000374481
0.00151028
-0.000401186
0.00150554
-0.000428602
0.00150038
-0.000456726
0.00149479
-0.000485555
0.00148877
-0.000515087
0.00148233
-0.000545316
0.00147544
-0.000576236
0.00146809
-0.000607838
0.00146022
-0.000640115
0.00145178
-0.000673066
0.0014427
-0.000706713
0.0014329
-0.000741125
0.00142235
-0.000776452
0.00141101
-0.000812988
0.00139901
-0.000850913
-0.000892824
0.00138603
0.00114232
0.000198762
-0.00112697
0.00115754
0.000196966
0.00117262
0.000195015
0.00118755
0.000192889
0.00120231
0.000190581
0.0012169
0.000188081
0.0012313
0.000185382
0.0012455
0.000182474
0.00125948
0.00017935
0.00127324
0.000175999
0.00128676
0.000172413
0.00130004
0.000168579
0.00131305
0.000164489
0.00132578
0.00016013
0.00133823
0.000155492
0.00135037
0.000150562
0.0013622
0.000145328
0.00137371
0.000139777
0.00138488
0.000133896
0.0013957
0.000127671
0.00140615
0.000121086
0.00141623
0.000114128
0.00142593
0.000106781
0.00143523
9.9029e-05
0.00144413
9.08555e-05
0.00145261
8.22438e-05
0.00146066
7.31769e-05
0.00146828
6.36372e-05
0.00147546
5.36069e-05
0.0014822
4.30681e-05
0.00148848
3.20028e-05
0.0014943
2.03927e-05
0.00149966
8.21998e-06
0.00150456
-4.53287e-06
0.00150898
-1.7856e-05
0.00151293
-3.1777e-05
0.0015164
-4.63118e-05
0.00151941
-6.14763e-05
0.00152195
-7.72837e-05
0.00152402
-9.37458e-05
0.00152563
-0.000110873
0.00152677
-0.000128676
0.00152746
-0.000147163
0.00152769
-0.000166341
0.00152748
-0.000186216
0.00152681
-0.000206794
0.00152569
-0.000228079
0.00152414
-0.000250075
0.00152214
-0.000272782
0.00151971
-0.000296205
0.00151685
-0.000320343
0.00151356
-0.000345197
0.00150985
-0.000370769
0.00150572
-0.000397057
0.00150117
-0.00042406
0.00149622
-0.000451775
0.00149087
-0.000480199
0.0014851
-0.000509322
0.00147892
-0.00053913
0.00147229
-0.000569605
0.00146517
-0.000600723
0.00145752
-0.000632464
0.00144928
-0.000664829
0.00144043
-0.000697862
0.00143098
-0.00073167
0.00142096
-0.00076644
0.00141028
-0.000802308
0.00139877
-0.000839394
-0.000877581
0.00138352
0.00114033
0.000183418
-0.00112499
0.00115554
0.000181753
0.00117062
0.000179943
0.00118553
0.000177971
0.00120029
0.000175827
0.00121487
0.000173504
0.00122925
0.000170994
0.00124344
0.000168288
0.00125741
0.000165378
0.00127116
0.000162254
0.00128466
0.000158908
0.00129791
0.000155327
0.0013109
0.000151503
0.00132361
0.000147424
0.00133602
0.000143078
0.00134813
0.000138454
0.00135992
0.000133539
0.00137138
0.000128319
0.00138249
0.000122782
0.00139325
0.000116913
0.00140364
0.000110698
0.00141364
0.00010412
0.00142326
9.71652e-05
0.00143247
8.98159e-05
0.00144127
8.20554e-05
0.00144965
7.38663e-05
0.0014576
6.52306e-05
0.0014651
5.61301e-05
0.00147216
4.65459e-05
0.00147877
3.64593e-05
0.00148493
2.58509e-05
0.00149062
1.47018e-05
0.00149584
2.9924e-06
0.0015006
-9.28765e-06
0.00150488
-2.21391e-05
0.0015087
-3.55908e-05
0.00151204
-4.96596e-05
0.00151493
-6.43607e-05
0.00151735
-7.97078e-05
0.00151932
-9.57134e-05
0.00152083
-0.000112389
0.0015219
-0.000129743
0.00152252
-0.000147786
0.00152271
-0.000166525
0.00152246
-0.000185965
0.00152178
-0.000206113
0.00152067
-0.000226971
0.00151914
-0.000248543
0.00151719
-0.000270832
0.00151482
-0.000293839
0.00151204
-0.000317566
0.00150886
-0.000342015
0.00150528
-0.000367185
0.0015013
-0.000393078
0.00149693
-0.000419691
0.00149217
-0.00044702
0.00148703
-0.000475053
0.00148148
-0.000503776
0.00147552
-0.000533165
0.00146911
-0.000563195
0.00146223
-0.000593849
0.00145491
-0.000625138
0.0014472
-0.000657118
0.00143923
-0.000689893
0.00143116
-0.000723601
0.00142304
-0.000758323
0.00141442
-0.000793687
0.00140448
-0.000829454
-0.000862593
0.00138949
0.0011395
0.000168079
-0.00112416
0.00115471
0.000166545
0.00116977
0.000164877
0.00118469
0.000163059
0.00119943
0.000161081
0.001214
0.000158936
0.00122838
0.000156616
0.00124255
0.000154113
0.00125651
0.000151419
0.00127024
0.000148525
0.00128373
0.000145421
0.00129696
0.000142096
0.00130992
0.000138542
0.0013226
0.000134746
0.00133498
0.000130697
0.00134705
0.000126384
0.0013588
0.000121793
0.00137021
0.000116911
0.00138126
0.000111725
0.00139196
0.00010622
0.00140227
0.000100381
0.0014122
9.41928e-05
0.00142173
8.76383e-05
0.00143084
8.07007e-05
0.00143954
7.33623e-05
0.0014478
6.5605e-05
0.00145562
5.74098e-05
0.00146299
4.87573e-05
0.00146991
3.96278e-05
0.00147637
3.00011e-05
0.00148236
1.98568e-05
0.00148789