/*--------------------------------*- C++ -*----------------------------------*\
| =========                 |                                                 |
| \\      /  F ield         | OpenFOAM: The Open Source CFD Toolbox           |
|  \\    /   O peration     | Version:  2312                                  |
|   \\  /    A nd           | Website:  www.openfoam.com                      |
|    \\/     M anipulation  |                                                 |
\*---------------------------------------------------------------------------*/
FoamFile
{
    version     2.0;
    format      ascii;
    arch        "LSB;label=32;scalar=64";
    class       volVectorField;
    location    "1800";
    object      U;
}
// * * * * * * * * * * * * * * * * * * * * * * * * * * * * * * * * * * * * * //

dimensions      [0 1 -1 0 0 0 0];

internalField   nonuniform List<vector> 
76025
(
(0.0414351 -0.0099837 0)
(0.0416858 -0.00996872 4.25922e-22)
(0.0419373 -0.00994692 0)
(0.0421898 -0.00991916 0)
(0.0424378 -0.00988569 -6.95022e-22)
(0.0426969 -0.0098367 -1.23347e-21)
(0.0429525 -0.00978842 2.05884e-21)
(0.0432123 -0.00972615 -8.4591e-22)
(0.043472 -0.00966114 -2.29504e-22)
(0.043731 -0.00958943 2.02189e-22)
(0.0439893 -0.00950919 1.96073e-23)
(0.0442494 -0.00941861 4.41107e-22)
(0.0445122 -0.00932218 -5.87757e-22)
(0.0447743 -0.00921437 0)
(0.0450399 -0.00909481 6.60878e-23)
(0.0452984 -0.00897529 0)
(0.0455589 -0.00883812 0)
(0.0458162 -0.00869925 0)
(0.0460728 -0.00854576 -1.13593e-23)
(0.0463225 -0.00839254 6.72124e-23)
(0.0465727 -0.00822151 9.34697e-23)
(0.0468244 -0.008043 3.2202e-22)
(0.0470696 -0.00785729 -2.3286e-22)
(0.0473114 -0.00766092 -5.09608e-22)
(0.0475502 -0.00745803 -5.11656e-23)
(0.0477841 -0.00725001 -2.78262e-22)
(0.0480202 -0.00702121 7.20258e-22)
(0.0482464 -0.00679292 -7.46843e-22)
(0.0484684 -0.0065485 2.72028e-22)
(0.0486838 -0.0062892 -2.97799e-22)
(0.0488924 -0.0060403 -3.27957e-22)
(0.0491001 -0.00577683 7.67758e-22)
(0.049308 -0.00549 -1.18563e-21)
(0.0495081 -0.00520945 -2.32914e-22)
(0.0497006 -0.00491281 1.16167e-21)
(0.0498828 -0.00461934 1.57404e-23)
(0.0500608 -0.00430839 -2.51819e-22)
(0.0502413 -0.00397643 1.43062e-22)
(0.0504176 -0.00365095 1.01771e-23)
(0.0505843 -0.00330842 -2.21208e-22)
(0.0507406 -0.00296588 1.48523e-22)
(0.0508948 -0.00260362 -7.56082e-23)
(0.0510535 -0.00221458 1.54928e-22)
(0.0512045 -0.00182959 -3.19848e-22)
(0.0513428 -0.00143184 -3.422e-22)
(0.0514741 -0.0010304 6.5308e-22)
(0.0516062 -0.000603155 7.12288e-22)
(0.0517315 -0.000174888 -2.1687e-21)
(0.0518417 0.000263429 1.41877e-21)
(0.0519448 0.000712621 -1.63205e-23)
(0.0520389 0.00117447 -3.7718e-21)
(0.0521222 0.00165543 -1.49725e-21)
(0.0522003 0.00215382 1.59648e-21)
(0.0522687 0.00267132 0)
(0.0523189 0.00319545 -1.57735e-21)
(0.0523539 0.0037232 -1.67664e-21)
(0.0523809 0.00427501 5.39466e-23)
(0.0523927 0.00484811 -1.67385e-21)
(0.0523883 0.0054506 1.75403e-21)
(0.0523672 0.0060783 -5.18566e-21)
(0.0523528 0.00670474 -3.67259e-21)
(0.0523261 0.00737719 -1.64848e-22)
(0.0522854 0.00807561 0)
(0.0522263 0.00880144 9.67196e-21)
(0.0521564 0.0095586 -3.77141e-21)
(0.0520799 0.0103226 1.99189e-21)
(0.0519879 0.0111567 -4.06975e-21)
(0.0518812 0.0120672 4.39031e-21)
(0.0519094 0.0129524 8.88161e-21)
(0.0414528 -0.0104088 4.5418e-22)
(0.0417138 -0.0103932 1.2382e-21)
(0.0419766 -0.0103693 -1.67053e-21)
(0.0422417 -0.0103379 0)
(0.0425065 -0.0103005 1.6698e-21)
(0.0427752 -0.0102537 -1.1272e-22)
(0.0430432 -0.0101998 -1.19441e-21)
(0.0433126 -0.0101371 0)
(0.0435841 -0.0100663 2.16139e-23)
(0.0438559 -0.00998785 -2.08837e-22)
(0.0441286 -0.00990156 1.80557e-22)
(0.0444013 -0.00980658 2.53303e-23)
(0.0446737 -0.00970339 0)
(0.0449462 -0.00959142 0)
(0.0452194 -0.00946875 5.25472e-23)
(0.0454904 -0.00933922 -1.72635e-22)
(0.0457616 -0.00919861 1.67668e-23)
(0.0460306 -0.00905057 -1.32329e-22)
(0.0462987 -0.00889207 8.72484e-23)
(0.046563 -0.00872592 -6.90849e-23)
(0.046826 -0.00854969 1.56855e-22)
(0.0470857 -0.00836414 -2.53375e-22)
(0.0473421 -0.0081693 3.6312e-22)
(0.0475953 -0.00796479 -6.04449e-22)
(0.0478452 -0.00775085 4.19495e-22)
(0.0480914 -0.00752851 7.62553e-22)
(0.0483345 -0.00729595 -5.31987e-22)
(0.0485708 -0.00705534 0)
(0.0488024 -0.00680422 0)
(0.0490295 -0.00654286 -3.84256e-22)
(0.0492529 -0.00627157 0)
(0.0494735 -0.00599197 -4.43481e-22)
(0.0496881 -0.00570336 4.65875e-22)
(0.0498954 -0.00540748 -7.2178e-22)
(0.0500966 -0.00510267 2.17201e-23)
(0.0502919 -0.0047881 -2.61685e-22)
(0.0504825 -0.00446153 0)
(0.0506683 -0.00412523 -6.10888e-22)
(0.0508487 -0.00378073 4.7294e-22)
(0.0510224 -0.0034279 -3.94673e-22)
(0.0511887 -0.00306398 2.45419e-22)
(0.0513494 -0.00268712 -1.07843e-24)
(0.0515042 -0.0023026 9.32669e-23)
(0.0516518 -0.0019121 -8.68359e-23)
(0.0517916 -0.00151114 7.37764e-22)
(0.0519244 -0.0010969 -3.78599e-22)
(0.0520509 -0.000670379 -4.01719e-22)
(0.0521696 -0.000236813 7.41944e-22)
(0.0522784 0.000210613 2.33999e-21)
(0.0523785 0.000672768 -9.81021e-24)
(0.0524698 0.0011478 2.38815e-21)
(0.0525512 0.00163836 -8.27757e-22)
(0.0526243 0.00214302 -2.48101e-21)
(0.0526887 0.00265798 1.66435e-21)
(0.0527424 0.00318365 0)
(0.0527834 0.00373134 5.25444e-21)
(0.0528156 0.00429564 4.74741e-23)
(0.0528361 0.0048772 -1.78276e-21)
(0.0528447 0.00547699 -1.88076e-21)
(0.0528438 0.00609741 0)
(0.052834 0.00674924 1.79316e-21)
(0.0528175 0.00742442 5.73094e-21)
(0.0527915 0.00811921 0)
(0.0527551 0.00884088 -3.98615e-21)
(0.0527102 0.00959497 2.30615e-21)
(0.0526534 0.0103863 -4.28801e-21)
(0.0525903 0.0112216 2.16452e-21)
(0.0525129 0.012092 -4.4437e-21)
(0.0524902 0.0129656 -4.57678e-21)
(0.04148 -0.010867 -2.24056e-21)
(0.0417496 -0.0108495 1.35785e-21)
(0.042022 -0.0108235 -3.89962e-22)
(0.0422978 -0.0107898 1.4028e-21)
(0.0425761 -0.0107486 -1.72072e-21)
(0.0428557 -0.0106994 -1.15009e-21)
(0.0431366 -0.010642 1.40597e-21)
(0.0434188 -0.0105762 0)
(0.0437022 -0.010502 2.26321e-23)
(0.0439866 -0.0104192 0)
(0.0442715 -0.0103277 -1.34897e-22)
(0.0445564 -0.0102275 1.29737e-22)
(0.0448407 -0.0101183 3.61674e-22)
(0.0451242 -0.0100002 -2.87923e-22)
(0.0454071 -0.00987293 4.11063e-23)
(0.0456895 -0.00973611 -2.2081e-23)
(0.0459709 -0.00959001 1.69296e-23)
(0.046251 -0.00943428 4.59527e-23)
(0.0465294 -0.00926935 3.17045e-22)
(0.0468058 -0.00909458 -2.09709e-22)
(0.0470794 -0.00891053 -1.66346e-22)
(0.04735 -0.00871696 3.8306e-22)
(0.0476173 -0.00851382 -1.58648e-22)
(0.0478814 -0.00830095 -2.54249e-22)
(0.0481418 -0.00807847 0)
(0.0483981 -0.00784655 3.12922e-22)
(0.0486495 -0.00760562 3.29044e-22)
(0.048896 -0.00735514 -3.02364e-22)
(0.0491377 -0.00709469 0)
(0.0493749 -0.00682465 8.21359e-22)
(0.0496078 -0.00654458 -4.61734e-22)
(0.0498354 -0.00625622 -4.28878e-23)
(0.0500567 -0.0059596 0)
(0.050272 -0.00565392 2.55276e-22)
(0.0504814 -0.00533939 -8.47924e-22)
(0.0506847 -0.00501559 5.82264e-22)
(0.0508818 -0.00468296 0)
(0.051073 -0.00434028 4.91214e-22)
(0.0512583 -0.0039877 -5.03234e-22)
(0.0514371 -0.00362578 -8.34904e-23)
(0.0516088 -0.00325364 0)
(0.0517735 -0.00287138 -1.81091e-22)
(0.0519316 -0.00247912 -9.39084e-23)
(0.052083 -0.0020765 8.99642e-23)
(0.0522271 -0.0016629 -5.63177e-22)
(0.0523632 -0.00123806 -4.03026e-22)
(0.0524917 -0.00080223 7.76165e-22)
(0.0526124 -0.000355708 -8.22389e-22)
(0.0527243 0.000102713 8.45227e-22)
(0.0528275 0.000573372 -8.26693e-22)
(0.0529223 0.00105621 -8.31171e-22)
(0.0530084 0.00155233 1.7739e-21)
(0.0530864 0.002062 0)
(0.0531562 0.00258519 1.82915e-21)
(0.0532166 0.00312316 1.91842e-23)
(0.053267 0.00367758 -1.87074e-21)
(0.0533082 0.00424821 -1.89993e-21)
(0.05334 0.00483642 3.81546e-21)
(0.053362 0.00544471 -1.58744e-23)
(0.0533748 0.0060757 2.0193e-21)
(0.0533797 0.00673046 -4.11263e-21)
(0.0533787 0.007407 -2.11046e-21)
(0.0533697 0.00810863 6.26147e-23)
(0.0533523 0.0088388 -2.11043e-21)
(0.053327 0.00960052 -2.06602e-21)
(0.0532933 0.0103943 -6.8075e-21)
(0.0532575 0.011227 0)
(0.053199 0.0120976 -2.4339e-21)
(0.0532022 0.012995 2.40094e-21)
(0.0415131 -0.0113547 0)
(0.0417942 -0.0113357 4.32384e-22)
(0.0420775 -0.0113077 1.89696e-21)
(0.0423637 -0.0112716 -1.49072e-21)
(0.0426528 -0.0112275 -8.94818e-22)
(0.0429439 -0.0111749 1.49874e-21)
(0.043237 -0.0111137 -2.66455e-22)
(0.0435316 -0.011044 2.10289e-22)
(0.0438273 -0.0109655 2.01778e-22)
(0.0441239 -0.0108782 5.65954e-22)
(0.0444208 -0.0107818 -5.36733e-22)
(0.0447178 -0.0106763 -3.0787e-22)
(0.0450146 -0.0105613 1.42193e-22)
(0.0453106 -0.0104369 1.16978e-22)
(0.0456058 -0.0103029 -7.75774e-24)
(0.0458998 -0.0101592 -5.09737e-23)
(0.0461925 -0.0100057 8.25649e-23)
(0.0464836 -0.00984249 1.13944e-22)
(0.0467727 -0.00966948 -3.92232e-22)
(0.0470596 -0.00948661 1.06684e-22)
(0.0473438 -0.00929393 1.69364e-22)
(0.047625 -0.00909135 0)
(0.0479028 -0.00887892 5.6378e-22)
(0.048177 -0.00865669 -2.66754e-22)
(0.0484471 -0.00842474 -6.44329e-22)
(0.0487129 -0.00818315 -7.35801e-22)
(0.0489741 -0.0079319 1.44427e-21)
(0.0492303 -0.00767091 -7.98222e-22)
(0.0494815 -0.00740018 0)
(0.0497275 -0.00711981 -9.20082e-22)
(0.0499681 -0.0068301 -3.56951e-23)
(0.0502031 -0.00653146 1.00581e-21)
(0.050432 -0.00622379 -5.664e-22)
(0.0506549 -0.00590693 1.47359e-21)
(0.0508715 -0.00558103 -2.8205e-22)
(0.0510816 -0.0052461 0)
(0.0512853 -0.00490237 0)
(0.0514825 -0.00454801 1.83133e-22)
(0.051673 -0.00418378 1.75383e-22)
(0.0518566 -0.00381002 9.5972e-23)
(0.052033 -0.00342657 -3.064e-24)
(0.0522021 -0.00303321 9.41038e-23)
(0.052364 -0.00262981 0)
(0.0525188 -0.00221654 -1.16556e-23)
(0.0526659 -0.00179339 0)
(0.0528052 -0.00135999 4.00706e-22)
(0.0529367 -0.00091595 1.17313e-23)
(0.0530605 -0.000461139 -1.31099e-21)
(0.0531762 4.8918e-06 0)
(0.0532838 0.000482879 -9.0129e-22)
(0.0533834 0.000973372 8.91577e-22)
(0.0534751 0.00147696 -1.79109e-21)
(0.0535588 0.00199415 0)
(0.0536346 0.00252521 -5.69505e-21)
(0.0537021 0.00307066 1.83754e-23)
(0.053761 0.00363166 1.92519e-21)
(0.0538116 0.00420942 1.95431e-21)
(0.053854 0.00480498 0)
(0.0538883 0.0054199 0)
(0.0539148 0.00605565 -2.03682e-21)
(0.0539346 0.00671381 4.14703e-21)
(0.0539483 0.0073952 4.22733e-21)
(0.0539555 0.00810161 0)
(0.0539561 0.00883498 -4.58486e-21)
(0.0539509 0.00959825 0)
(0.0539387 0.0103932 7.02218e-21)
(0.0539253 0.0112263 -2.37765e-21)
(0.0538898 0.0120957 -2.54447e-21)
(0.053916 0.0129947 -2.70691e-21)
(0.0415503 -0.0118695 0)
(0.0418458 -0.0118492 0)
(0.0421428 -0.0118192 3.69843e-22)
(0.0424419 -0.0117806 -1.30753e-21)
(0.0427432 -0.0117336 1.59679e-21)
(0.0430464 -0.0116775 -2.83693e-22)
(0.0433514 -0.0116124 0)
(0.043658 -0.0115382 -2.14657e-22)
(0.043966 -0.0114549 0)
(0.0442749 -0.0113622 -2.31328e-22)
(0.0445843 -0.01126 9.83634e-23)
(0.0448939 -0.0111483 1.62253e-22)
(0.0452032 -0.0110267 0)
(0.0455119 -0.0108953 3.92132e-23)
(0.0458196 -0.0107539 -2.18902e-22)
(0.046126 -0.0106025 2.39818e-22)
(0.0464307 -0.0104411 -4.90965e-22)
(0.0467334 -0.0102695 1.19819e-22)
(0.0470337 -0.0100877 -1.87141e-22)
(0.0473315 -0.0098958 1.79268e-22)
(0.0476263 -0.0096937 2.40005e-22)
(0.0479179 -0.00948144 -7.75937e-22)
(0.0482058 -0.00925906 -5.88576e-22)
(0.0484898 -0.00902664 0)
(0.0487694 -0.00878422 7.42009e-22)
(0.0490446 -0.00853191 4.25976e-22)
(0.0493148 -0.00826974 -1.20276e-21)
(0.0495799 -0.00799779 4.27254e-22)
(0.0498395 -0.00771614 -9.91105e-22)
(0.0500935 -0.0074249 1.48492e-21)
(0.0503417 -0.00712424 -5.6944e-22)
(0.0505839 -0.00681432 3.00886e-22)
(0.0508199 -0.00649527 0)
(0.0510494 -0.00616716 -3.08608e-22)
(0.0512722 -0.00583013 -3.25201e-22)
(0.0514883 -0.00548428 0)
(0.0516975 -0.00512988 3.85532e-22)
(0.0518999 -0.00476489 -5.73502e-22)
(0.0520951 -0.00439043 3.83945e-22)
(0.0522831 -0.00400657 -1.99919e-22)
(0.0524638 -0.00361327 -3.48128e-24)
(0.0526371 -0.0032104 -1.59858e-22)
(0.0528031 -0.00279787 5.21185e-23)
(0.0529618 -0.00237566 2.09485e-22)
(0.0531128 -0.00194356 6.27249e-24)
(0.0532563 -0.00150125 1.32888e-21)
(0.0533922 -0.00104837 0)
(0.0535206 -0.000584689 8.93877e-22)
(0.0536412 -0.00010983 -1.17996e-23)
(0.0537543 0.000376738 -9.3136e-22)
(0.0538597 0.000875492 0)
(0.0539577 0.00138687 -9.82107e-22)
(0.0540482 0.00191141 9.71854e-22)
(0.0541314 0.00244963 1.95224e-21)
(0.0542072 0.00300223 0)
(0.0542755 0.00357017 -4.08988e-21)
(0.0543364 0.00415459 4.16892e-21)
(0.0543902 0.00475647 -4.23292e-21)
(0.054437 0.00537714 -7.11639e-23)
(0.0544771 0.006018 0)
(0.0545111 0.00668049 -2.25139e-21)
(0.0545394 0.0073657 2.21877e-21)
(0.0545621 0.0080752 2.42445e-21)
(0.0545795 0.00881085 4.61497e-21)
(0.0545922 0.00957544 -7.33596e-21)
(0.0545995 0.0103705 4.92506e-21)
(0.0546075 0.0112018 -2.48039e-21)
(0.0545961 0.0120704 2.63493e-21)
(0.0546499 0.0129619 7.85508e-21)
(0.0415866 -0.0124128 -1.69649e-21)
(0.0418986 -0.0123912 1.47225e-22)
(0.0422119 -0.0123594 1.51992e-21)
(0.0425267 -0.0123184 0)
(0.0428432 -0.0122684 -3.01969e-22)
(0.0431608 -0.0122088 0)
(0.0434796 -0.0121396 3.92951e-22)
(0.0437996 -0.0120608 -7.25757e-23)
(0.0441206 -0.0119723 -4.40972e-22)
(0.0444424 -0.0118739 8.64089e-23)
(0.0447646 -0.0117655 8.35927e-23)
(0.0450869 -0.011647 1.28277e-23)
(0.0454089 -0.0115183 0)
(0.0457302 -0.0113793 0)
(0.0460504 -0.01123 5.58988e-23)
(0.0463692 -0.0110702 8.99916e-23)
(0.0466862 -0.0109 -3.20669e-22)
(0.0470008 -0.0107193 3.20217e-22)
(0.0473129 -0.0105281 4.2416e-22)
(0.0476221 -0.0103265 -5.21988e-22)
(0.0479279 -0.0101143 1.0649e-21)
(0.04823 -0.00989174 1.96358e-23)
(0.0485282 -0.0096588 -7.00532e-22)
(0.048822 -0.00941556 -4.00679e-22)
(0.0491113 -0.00916212 -8.47909e-22)
(0.0493955 -0.00889856 8.49574e-22)
(0.0496745 -0.00862502 9.76417e-22)
(0.049948 -0.00834161 -9.79323e-22)
(0.0502157 -0.00804844 0)
(0.0504774 -0.00774565 0)
(0.0507328 -0.00743339 1.50963e-21)
(0.0509819 -0.00711186 5.58486e-23)
(0.0512243 -0.00678124 -6.5382e-22)
(0.0514599 -0.00644167 -7.16802e-22)
(0.0516886 -0.0060933 7.21934e-22)
(0.0519103 -0.00573624 0)
(0.0521247 -0.00537068 -3.89429e-22)
(0.0523321 -0.00499459 -6.31844e-22)
(0.0525321 -0.00460915 4.13622e-22)
(0.0527247 -0.00421442 -6.65413e-24)
(0.0529099 -0.00381039 -3.47412e-23)
(0.0530876 -0.00339702 1.62845e-22)
(0.053258 -0.00297421 1.16366e-22)
(0.0534209 -0.00254188 2.32836e-22)
(0.0535764 -0.00209985 -1.15686e-21)
(0.0537244 -0.00164792 5.9196e-24)
(0.0538651 -0.0011858 0)
(0.0539984 -0.000713224 -9.97309e-22)
(0.0541244 -0.000229814 2.96974e-21)
(0.0542433 0.00026487 -2.00947e-21)
(0.054355 0.000771335 -1.02373e-21)
(0.0544598 0.00129008 -3.57641e-23)
(0.0545577 0.00182172 -1.03941e-21)
(0.0546489 0.00236687 -4.94256e-23)
(0.0547333 0.00292627 2.10743e-21)
(0.054811 0.00350075 -2.20747e-21)
(0.0548822 0.00409134 -2.21756e-21)
(0.0549468 0.00469902 4.44583e-21)
(0.0550052 0.00532498 -1.67914e-23)
(0.0550576 0.00597039 2.31884e-21)
(0.0551043 0.00663656 -2.29634e-21)
(0.0551458 0.00732464 2.3214e-21)
(0.0551824 0.00803615 -4.72684e-21)
(0.0552146 0.00877268 -2.49101e-21)
(0.0552435 0.00953671 4.84297e-21)
(0.0552686 0.0103296 -2.68669e-21)
(0.0552968 0.011157 -8.00675e-21)
(0.0553085 0.0120205 -2.66139e-21)
(0.0553928 0.0129006 0)
(0.0416206 -0.0129866 0)
(0.0419498 -0.0129638 -3.79123e-22)
(0.0422803 -0.01293 -2.59523e-23)
(0.0426126 -0.0128866 0)
(0.0429464 -0.0128336 0)
(0.0432809 -0.0127705 -2.11473e-22)
(0.0436161 -0.0126972 5.08624e-22)
(0.0439519 -0.0126137 -5.95055e-22)
(0.0442882 -0.0125198 2.93056e-22)
(0.0446247 -0.0124156 -8.80518e-23)
(0.0449612 -0.0123007 0)
(0.0452973 -0.0121752 -1.30666e-23)
(0.0456328 -0.0120389 -6.44927e-23)
(0.0459673 -0.0118919 0)
(0.0463006 -0.011734 0)
(0.0466321 -0.0115653 1.66057e-22)
(0.0469616 -0.0113857 7.22516e-23)
(0.0472885 -0.0111952 -4.13517e-22)
(0.0476126 -0.0109939 -5.07798e-22)
(0.0479334 -0.0107816 5.54668e-22)
(0.0482505 -0.0105586 3.06264e-22)
(0.0485636 -0.0103249 1.49179e-21)
(0.0488724 -0.0100805 3.66277e-23)
(0.0491764 -0.00982563 -4.89066e-22)
(0.0494753 -0.00956031 8.97289e-22)
(0.0497689 -0.0092847 -5.02865e-22)
(0.0500568 -0.00899896 1.03157e-21)
(0.0503387 -0.00870323 0)
(0.0506144 -0.00839767 0)
(0.0508837 -0.00808247 0)
(0.0511464 -0.00775781 -3.19237e-22)
(0.0514022 -0.00742389 -6.85647e-22)
(0.051651 -0.00708093 7.17809e-22)
(0.0518926 -0.00672909 7.82101e-22)
(0.0521271 -0.00636856 -7.87452e-22)
(0.0523541 -0.00599947 0)
(0.0525738 -0.00562173 4.41853e-22)
(0.052786 -0.00523387 -2.21522e-22)
(0.0529907 -0.00483678 0)
(0.0531878 -0.00443071 2.30285e-22)
(0.0533774 -0.00401565 -4.38608e-23)
(0.0535594 -0.00359158 2.9299e-23)
(0.0537341 -0.00315844 -1.17388e-22)
(0.0539014 -0.00271613 0)
(0.0540613 -0.00226449 -5.02275e-22)
(0.054214 -0.00180331 4.96492e-22)
(0.0543595 -0.00133231 0)
(0.054498 -0.000851177 -3.64389e-23)
(0.0546296 -0.000359514 1.20549e-23)
(0.0547544 0.00014311 1.0318e-21)
(0.0548726 0.000657215 0)
(0.0549842 0.00118332 -4.78963e-23)
(0.0550895 0.00172204 -1.07095e-21)
(0.0551884 0.00227399 -3.37197e-21)
(0.0552811 0.00283991 -7.27988e-23)
(0.0553677 0.00342059 2.2252e-21)
(0.0554481 0.00401696 0)
(0.0555226 0.00462994 0)
(0.0555913 0.00526059 2.40736e-21)
(0.0556544 0.00590992 0)
(0.0557122 0.00657912 0)
(0.0557653 0.00726926 -1.14577e-23)
(0.0558142 0.00798172 -2.47616e-21)
(0.0558596 0.00871783 -5.18817e-21)
(0.055903 0.00947979 5.2095e-21)
(0.0559447 0.0102689 -1.63988e-22)
(0.0559915 0.01109 2.58678e-21)
(0.0560265 0.0119454 2.74219e-21)
(0.0561383 0.0128133 0)
(0.0416541 -0.0135933 0)
(0.0420005 -0.0135689 3.87081e-22)
(0.0423487 -0.013533 -9.60601e-22)
(0.0426988 -0.0134869 3.44691e-22)
(0.0430506 -0.0134306 0)
(0.0434034 -0.0133638 5.73346e-22)
(0.0437567 -0.0132861 -8.03428e-22)
(0.0441103 -0.0131976 8.20419e-23)
(0.0444641 -0.0130982 3.89094e-22)
(0.0448176 -0.0129878 -9.575e-23)
(0.0451706 -0.0128662 -3.00246e-23)
(0.0455226 -0.0127334 -7.07416e-23)
(0.0458735 -0.0125892 2.78803e-22)
(0.0462229 -0.0124336 -5.03337e-22)
(0.0465705 -0.0122667 2.90032e-22)
(0.0469159 -0.0120884 -2.63835e-22)
(0.0472588 -0.0118988 9.60858e-22)
(0.0475987 -0.0116977 -2.12755e-22)
(0.0479354 -0.0114854 3.75725e-22)
(0.0482684 -0.0112619 -3.05842e-22)
(0.0485974 -0.0110272 7.19988e-23)
(0.0489219 -0.0107814 -2.53669e-21)
(0.0492415 -0.0105247 -5.01229e-22)
(0.049556 -0.0102572 -6.88894e-23)
(0.049865 -0.00997909 1.57766e-21)
(0.0501681 -0.00969049 -5.34351e-22)
(0.050465 -0.00939162 1.22467e-21)
(0.0507555 -0.00908265 -1.88866e-21)
(0.0510394 -0.00876381 0)
(0.0513163 -0.00843531 -7.14025e-22)
(0.0515861 -0.00809739 7.16921e-22)
(0.0518486 -0.00775027 3.02861e-23)
(0.0521038 -0.00739418 -4.16737e-22)
(0.0523513 -0.00702937 -4.34354e-22)
(0.0525913 -0.00665603 1.33946e-21)
(0.0528236 -0.00627439 -8.93658e-22)
(0.0530483 -0.00588391 7.17532e-22)
(0.0532651 -0.00548386 -9.53346e-22)
(0.0534742 -0.00507487 4.77837e-22)
(0.0536756 -0.00465724 -1.19603e-22)
(0.0538693 -0.00423098 0)
(0.0540555 -0.00379608 1.28409e-22)
(0.0542343 -0.00335248 -1.26878e-22)
(0.0544058 -0.00290006 -2.63397e-22)
(0.05457 -0.00243867 7.93358e-22)
(0.0547272 -0.00196809 -5.34509e-22)
(0.0548774 -0.00148805 -5.32991e-22)
(0.0550209 -0.000998216 0)
(0.0551578 -0.000498204 -2.24258e-21)
(0.0552882 1.24119e-05 2.22837e-21)
(0.0554124 0.000534142 -1.10077e-21)
(0.0555304 0.00106751 1.08974e-21)
(0.0556423 0.00161312 1.15105e-21)
(0.0557483 0.00217161 2.29169e-21)
(0.0558484 0.0027437 2.30712e-21)
(0.0559427 0.00333014 0)
(0.0560313 0.0039318 -2.45692e-21)
(0.0561142 0.00454951 0)
(0.0561917 0.00518424 7.39716e-23)
(0.0562641 0.00583688 -2.45635e-21)
(0.0563316 0.00650845 2.50505e-21)
(0.0563949 0.00719989 2.52775e-21)
(0.0564547 0.00791239 -2.65307e-21)
(0.0565121 0.00864703 -7.90728e-23)
(0.0565689 0.00940566 3.8792e-24)
(0.056626 0.0101895 8.21257e-21)
(0.0566902 0.0110018 2.84507e-21)
(0.0567489 0.0118484 2.933e-21)
(0.0568803 0.0126942 -2.88716e-21)
(0.0416897 -0.0142357 0)
(0.042054 -0.0142094 0)
(0.0424199 -0.0141709 -5.63299e-22)
(0.0427881 -0.0141217 8.3373e-22)
(0.0431582 -0.0140618 1.90929e-22)
(0.0435294 -0.0139907 0)
(0.0439013 -0.0139082 0)
(0.0442736 -0.0138143 -5.39039e-23)
(0.0446461 -0.0137089 2.29759e-23)
(0.0450181 -0.0135918 -1.32269e-22)
(0.0453892 -0.013463 2.41671e-22)
(0.0457591 -0.0133224 -7.55883e-23)
(0.0461273 -0.0131698 1.51266e-22)
(0.0464935 -0.0130052 -3.13644e-22)
(0.0468573 -0.0128287 2.46294e-22)
(0.0472184 -0.0126403 0)
(0.0475763 -0.01244 0)
(0.0479307 -0.0122278 3.56214e-23)
(0.0482813 -0.0120038 -1.1153e-21)
(0.0486275 -0.0117681 3.84829e-22)
(0.0489692 -0.0115209 -4.81161e-22)
(0.0493058 -0.0112622 4.58231e-22)
(0.049637 -0.0109923 5.26903e-22)
(0.0499625 -0.0107113 -4.90824e-22)
(0.0502819 -0.0104195 -5.65436e-22)
(0.0505948 -0.010117 0)
(0.0509011 -0.00980408 0)
(0.0512004 -0.00948098 1.03711e-21)
(0.0514925 -0.00914797 0)
(0.0517771 -0.00880531 7.85985e-22)
(0.0520541 -0.00845327 -7.88961e-22)
(0.0523233 -0.00809214 -4.04414e-22)
(0.0525846 -0.00772218 4.21941e-22)
(0.0528379 -0.00734368 9.12066e-22)
(0.0530833 -0.00695688 -4.57604e-22)
(0.0533206 -0.00656212 -4.99132e-22)
(0.0535499 -0.00615825 5.12266e-22)
(0.0537711 -0.00574544 0)
(0.0539844 -0.00532408 0)
(0.0541897 -0.00489442 1.3562e-22)
(0.0543873 -0.00445653 0)
(0.0545772 -0.00401039 0)
(0.0547597 -0.00355596 -4.16832e-22)
(0.054935 -0.00309315 5.5692e-22)
(0.0551031 -0.00262178 -2.86564e-22)
(0.0552642 -0.00214165 5.50901e-22)
(0.0554186 -0.00165249 0)
(0.0555665 -0.00115398 1.75303e-21)
(0.055708 -0.000645713 -1.37117e-23)
(0.0558432 -0.000127269 0)
(0.0559725 0.000401864 -2.37201e-21)
(0.0560959 0.00094222 -1.35118e-23)
(0.0562135 0.00149441 -2.38095e-21)
(0.0563255 0.00205907 -1.24661e-21)
(0.0564318 0.00263692 -2.4936e-21)
(0.0565328 0.00322866 2.46754e-21)
(0.0566283 0.00383512 2.47317e-21)
(0.0567186 0.00445706 0)
(0.0568039 0.00509535 -2.60586e-21)
(0.0568844 0.00575077 1.66101e-23)
(0.0569607 0.0064242 0)
(0.0570333 0.00711639 0)
(0.0571034 0.00782832 2.66769e-21)
(0.057172 0.00856075 0)
(0.0572414 0.00931516 0)
(0.0573126 0.0100922 -2.79643e-21)
(0.0573936 0.0108946 -2.78239e-21)
(0.0574708 0.0117283 -2.98375e-21)
(0.0576157 0.0125528 0)
(0.0417292 -0.0149171 0)
(0.0421121 -0.0148885 0)
(0.0424968 -0.0148471 0)
(0.0428836 -0.0147943 2.01409e-22)
(0.0432724 -0.0147302 1.07376e-22)
(0.0436623 -0.0146542 -9.39448e-23)
(0.0440531 -0.0145663 -2.04947e-22)
(0.0444443 -0.0144664 5.48927e-23)
(0.0448358 -0.0143544 4.08684e-23)
(0.0452268 -0.0142301 1.22817e-22)
(0.0456169 -0.0140934 0)
(0.0460055 -0.0139442 0)
(0.0463922 -0.0137825 -4.02127e-23)
(0.0467766 -0.0136082 6.94094e-22)
(0.0471581 -0.0134215 -1.15871e-21)
(0.0475363 -0.0132222 -8.46633e-23)
(0.0479109 -0.0130104 6.79828e-22)
(0.0482813 -0.0127862 3.71942e-22)
(0.0486472 -0.0125498 -6.36304e-23)
(0.0490081 -0.0123012 0)
(0.0493637 -0.0120406 1.04203e-21)
(0.0497135 -0.0117682 0)
(0.0500573 -0.0114842 1.19338e-21)
(0.0503947 -0.0111888 -1.9002e-21)
(0.0507252 -0.0108823 2.00519e-21)
(0.0510487 -0.010565 7.40854e-22)
(0.0513647 -0.010237 -1.14628e-21)
(0.0516732 -0.00989885 1.18061e-21)
(0.0519737 -0.00955071 -7.95046e-22)
(0.0522662 -0.00919294 0)
(0.0525505 -0.00882587 -8.98256e-22)
(0.0528264 -0.00844982 -5.08654e-22)
(0.0530938 -0.00806512 9.37746e-22)
(0.0533528 -0.0076721 -9.90801e-22)
(0.0536033 -0.00727105 5.20286e-22)
(0.0538452 -0.00686239 -5.23519e-22)
(0.0540789 -0.0064444 -2.61798e-22)
(0.0543041 -0.00601816 2.82687e-22)
(0.054521 -0.00558384 1.37849e-22)
(0.0547298 -0.00514164 -4.14003e-22)
(0.0549306 -0.00469168 -3.65387e-23)
(0.0551237 -0.00423397 0)
(0.0553092 -0.00376845 1.4135e-22)
(0.0554875 -0.00329505 -2.85661e-22)
(0.0556587 -0.00281361 2.88517e-22)
(0.055823 -0.00232391 0)
(0.0559807 -0.00182568 0)
(0.056132 -0.00131859 6.32727e-22)
(0.0562771 -0.000802232 -1.21243e-21)
(0.0564162 -0.00027617 -2.51003e-21)
(0.0565496 0.000260113 4.98459e-21)
(0.0566773 0.000807164 -1.28254e-21)
(0.0567996 0.0013656 1.25551e-21)
(0.0569166 0.00193605 1.25465e-21)
(0.0570284 0.00251922 -2.60905e-21)
(0.0571352 0.00311583 2.5815e-21)
(0.057237 0.00372663 0)
(0.0573341 0.00435237 -2.70869e-21)
(0.0574266 0.00499382 1.9717e-23)
(0.057515 0.00565167 2.68738e-21)
(0.0575997 0.00632666 0)
(0.0576815 0.00701937 0)
(0.0577612 0.00773047 0)
(0.0578404 0.00846035 5.76672e-21)
(0.0579214 0.00921001 2.99206e-21)
(0.0580054 0.00997941 2.96601e-21)
(0.0581016 0.0107706 -5.86872e-21)
(0.0581949 0.0115907 -5.33777e-23)
(0.0583674 0.0123865 3.09046e-21)
(0.0417731 -0.0156408 0)
(0.0421762 -0.0156097 5.28195e-22)
(0.0425807 -0.0155649 -6.30563e-22)
(0.0429874 -0.0155081 1.89867e-22)
(0.043396 -0.0154393 -4.19049e-22)
(0.0438056 -0.015358 -5.31294e-23)
(0.0442159 -0.015264 -1.95084e-24)
(0.0446266 -0.0151573 0)
(0.0450374 -0.0150379 -1.39918e-22)
(0.0454477 -0.0149055 -2.21913e-22)
(0.045857 -0.0147601 2.79054e-22)
(0.0462647 -0.0146015 -2.43097e-22)
(0.0466703 -0.0144298 3.31768e-22)
(0.0470733 -0.014245 -1.79143e-22)
(0.0474732 -0.0140469 -1.44682e-21)
(0.0478694 -0.0138358 -8.87921e-23)
(0.0482614 -0.0136117 -8.72513e-23)
(0.0486488 -0.0133746 9.04314e-22)
(0.0490311 -0.0131247 4.81993e-22)
(0.0494078 -0.0128622 1.15212e-21)
(0.0497784 -0.0125872 -1.07831e-21)
(0.0501426 -0.0123 0)
(0.0504999 -0.0120008 7.34452e-23)
(0.0508501 -0.01169 0)
(0.0511926 -0.0113678 -7.13761e-22)
(0.0515273 -0.0110345 -7.50519e-22)
(0.0518538 -0.0106905 3.93438e-22)
(0.0521719 -0.0103362 0)
(0.0524813 -0.00997186 4.67012e-22)
(0.0527819 -0.00959795 9.46325e-22)
(0.0530736 -0.00921483 -9.49399e-22)
(0.0533562 -0.0088229 4.82667e-22)
(0.0536297 -0.00842253 -1.05228e-21)
(0.0538941 -0.00801411 2.12008e-21)
(0.0541494 -0.00759798 -5.47087e-22)
(0.0543957 -0.00717441 0)
(0.0546332 -0.0067418 -2.98896e-22)
(0.0548618 -0.00630146 1.78707e-23)
(0.0550818 -0.00585362 4.43341e-22)
(0.0552933 -0.00539844 -3.71496e-22)
(0.0554966 -0.00493603 7.26288e-23)
(0.055692 -0.00446644 -2.32313e-22)
(0.0558798 -0.00398962 1.52184e-22)
(0.0560602 -0.0035055 0)
(0.0562335 -0.00301391 0)
(0.0564 -0.00251465 0)
(0.05656 -0.00200743 6.49498e-22)
(0.0567138 -0.0014919 6.53924e-22)
(0.0568616 -0.000967664 0)
(0.0570037 -0.000434251 1.28667e-21)
(0.0571403 0.000108857 1.34999e-21)
(0.0572718 0.000662232 1.34519e-21)
(0.0573981 0.00122649 0)
(0.0575197 0.0018023 0)
(0.0576366 0.00239036 -2.72665e-21)
(0.057749 0.00299139 2.69764e-21)
(0.057857 0.00360614 0)
(0.0579609 0.00423534 2.72449e-21)
(0.0580609 0.0048797 -2.75099e-21)
(0.0581574 0.00553986 -2.87363e-21)
(0.0582507 0.0062164 2.88215e-21)
(0.0583414 0.00690969 -2.8519e-21)
(0.0584305 0.00762011 0)
(0.0585194 0.00834759 -2.90102e-21)
(0.0586102 0.00909241 7.09663e-23)
(0.0587048 0.00985382 -6.01146e-21)
(0.0588118 0.0106322 -6.14915e-21)
(0.0589177 0.0114361 6.10405e-21)
(0.0591183 0.0121917 -3.09754e-21)
(0.0418217 -0.0164105 1.3978e-22)
(0.0422463 -0.0163766 0)
(0.0426724 -0.0163282 1.0806e-22)
(0.0431004 -0.0162669 -2.98509e-22)
(0.0435302 -0.0161929 4.06553e-22)
(0.0439609 -0.0161056 -5.37315e-23)
(0.044392 -0.0160048 1.98502e-24)
(0.0448234 -0.0158906 2.08771e-22)
(0.0452545 -0.015763 -1.07561e-22)
(0.0456849 -0.0156217 -1.49893e-22)
(0.0461141 -0.0154666 -2.66685e-22)
(0.0465414 -0.0152977 8.55412e-22)
(0.0469663 -0.015115 -2.40226e-22)
(0.0473883 -0.0149184 1.21035e-21)
(0.0478069 -0.014708 4.81206e-22)
(0.0482214 -0.0144839 9.30473e-23)
(0.0486313 -0.0142462 -9.75458e-22)
(0.0490361 -0.0139949 0)
(0.0494351 -0.0137303 0)
(0.049828 -0.0134526 -6.8093e-22)
(0.0502142 -0.013162 -6.42606e-22)
(0.0505933 -0.0128588 -1.48091e-21)
(0.0509647 -0.0125432 7.57787e-22)
(0.0513282 -0.0122157 1.63548e-21)
(0.0516832 -0.0118765 -1.63544e-21)
(0.0520295 -0.011526 4.58736e-22)
(0.0523668 -0.0111647 4.77221e-22)
(0.0526948 -0.010793 0)
(0.0530133 -0.0104113 -4.7249e-22)
(0.0533222 -0.0100201 -1.03585e-21)
(0.0536213 -0.00961986 -3.21441e-23)
(0.0539105 -0.00921097 1.07485e-21)
(0.0541899 -0.00879393 -5.84372e-22)
(0.0544594 -0.00836916 0)
(0.0547192 -0.00793711 3.10065e-22)
(0.0549694 -0.00749751 -3.16597e-22)
(0.0552101 -0.00704973 3.00355e-22)
(0.0554415 -0.00659467 -6.26186e-22)
(0.0556637 -0.00613275 0)
(0.0558772 -0.00566412 -8.18872e-23)
(0.0560822 -0.00518891 8.02726e-23)
(0.0562791 -0.00470716 -1.25883e-22)
(0.0564682 -0.00421886 4.89702e-22)
(0.0566499 -0.00372392 -9.85964e-22)
(0.0568246 -0.00322219 6.53663e-22)
(0.0569925 -0.00271344 6.69679e-22)
(0.057154 -0.00219739 -6.31719e-22)
(0.0573096 -0.00167366 1.38587e-21)
(0.0574595 -0.00114184 -1.34096e-21)
(0.057604 -0.000601443 -3.4027e-21)
(0.0577436 -5.19176e-05 1.53922e-23)
(0.0578784 0.000507337 -1.35292e-21)
(0.0580088 0.00107696 0)
(0.058135 0.00165767 0)
(0.0582571 0.00225017 -2.84668e-21)
(0.0583755 0.00285523 4.23742e-21)
(0.0584902 0.00347361 -2.83843e-21)
(0.0586014 0.00410605 0)
(0.0587094 0.00475323 2.9629e-21)
(0.0588142 0.00541575 5.85456e-21)
(0.0589162 0.00609406 -2.9137e-21)
(0.0590158 0.00678836 -5.73922e-23)
(0.0591136 0.00749863 2.98282e-21)
(0.0592108 0.00822438 -1.23203e-23)
(0.059309 0.00896496 -6.12066e-21)
(0.0594105 0.00971892 6.10634e-21)
(0.0595217 0.0104833 3.07985e-21)
(0.0596364 0.0112713 0)
(0.0598475 0.0119683 0)
(0.0418746 -0.0172293 -1.42334e-22)
(0.0423226 -0.0171924 -4.26987e-22)
(0.0427718 -0.01714 3.39429e-22)
(0.0432228 -0.0170738 0)
(0.0436755 -0.0169942 2.592e-23)
(0.0441289 -0.0169004 -1.26491e-22)
(0.0445826 -0.0167923 6.17235e-23)
(0.0450362 -0.0166699 -4.40223e-22)
(0.0454892 -0.0165333 3.4603e-22)
(0.0459412 -0.0163822 0)
(0.0463915 -0.0162166 9.72431e-23)
(0.0468396 -0.0160363 0)
(0.0472848 -0.0158414 4.96601e-22)
(0.0477266 -0.015632 -1.28322e-21)
(0.0481645 -0.015408 0)
(0.0485979 -0.0151696 0)
(0.049026 -0.014917 0)
(0.0494485 -0.0146502 -9.89363e-22)
(0.0498647 -0.0143695 1.33066e-21)
(0.050274 -0.0140751 6.90291e-22)
(0.0506759 -0.0137674 0)
(0.05107 -0.0134466 0)
(0.0514556 -0.0131132 0)
(0.0518324 -0.0127674 -2.29881e-21)
(0.0522 -0.0124097 2.77927e-21)
(0.052558 -0.0120406 -1.41641e-21)
(0.052906 -0.0116606 -1.0106e-21)
(0.0532438 -0.0112701 1.06184e-21)
(0.0535713 -0.0108697 -1.06356e-21)
(0.0538881 -0.0104598 5.81547e-22)
(0.0541943 -0.0100411 -1.16744e-21)
(0.0544898 -0.00961408 5.54713e-22)
(0.0547745 -0.00917921 1.22422e-21)
(0.0550487 -0.00873704 6.51392e-22)
(0.0553123 -0.00828813 -3.13023e-22)
(0.0555658 -0.00783148 3.17937e-22)