/*--------------------------------*- C++ -*----------------------------------*\
| =========                 |                                                 |
| \\      /  F ield         | OpenFOAM: The Open Source CFD Toolbox           |
|  \\    /   O peration     | Version:  2312                                  |
|   \\  /    A nd           | Website:  www.openfoam.com                      |
|    \\/     M anipulation  |                                                 |
\*---------------------------------------------------------------------------*/
FoamFile
{
    version     2.0;
    format      ascii;
    arch        "LSB;label=32;scalar=64";
    class       volScalarField;
    location    "2000";
    object      k;
}
// * * * * * * * * * * * * * * * * * * * * * * * * * * * * * * * * * * * * * //

dimensions      [0 2 -2 0 0 0 0];

internalField   nonuniform List<scalar> 
76025
(
4.9339e-06
4.93249e-06
4.93177e-06
4.93133e-06
4.93077e-06
4.93327e-06
4.93455e-06
4.93721e-06
4.93809e-06
4.94006e-06
4.94238e-06
4.94518e-06
4.95018e-06
4.95427e-06
4.96115e-06
4.96727e-06
4.97576e-06
4.98489e-06
4.99467e-06
5.00521e-06
5.01713e-06
5.03062e-06
5.04453e-06
5.05937e-06
5.07724e-06
5.09357e-06
5.11386e-06
5.13123e-06
5.15442e-06
5.17514e-06
5.19998e-06
5.22276e-06
5.24919e-06
5.27635e-06
5.30519e-06
5.33518e-06
5.36769e-06
5.40166e-06
5.43853e-06
5.47729e-06
5.51954e-06
5.5679e-06
5.61963e-06
5.6793e-06
5.74552e-06
5.82388e-06
5.90932e-06
6.00984e-06
6.13065e-06
6.26776e-06
6.43608e-06
6.63073e-06
6.87638e-06
7.16512e-06
7.57285e-06
8.03832e-06
8.69855e-06
9.58655e-06
1.08334e-05
1.25455e-05
1.47194e-05
1.76251e-05
2.1174e-05
2.53486e-05
3.00591e-05
3.49048e-05
4.0037e-05
4.53154e-05
4.95732e-05
5.02735e-06
5.02834e-06
5.02592e-06
5.02473e-06
5.02617e-06
5.02886e-06
5.03074e-06
5.03348e-06
5.03611e-06
5.03888e-06
5.04212e-06
5.04554e-06
5.05025e-06
5.05507e-06
5.06178e-06
5.06835e-06
5.07667e-06
5.08541e-06
5.0956e-06
5.1063e-06
5.11832e-06
5.13128e-06
5.14564e-06
5.16059e-06
5.1777e-06
5.19469e-06
5.21408e-06
5.23406e-06
5.25607e-06
5.27942e-06
5.30476e-06
5.33056e-06
5.35884e-06
5.3883e-06
5.42014e-06
5.45412e-06
5.49042e-06
5.52976e-06
5.57248e-06
5.61869e-06
5.67009e-06
5.72649e-06
5.79053e-06
5.86195e-06
5.94366e-06
6.03623e-06
6.14291e-06
6.26707e-06
6.41099e-06
6.58236e-06
6.78424e-06
7.03334e-06
7.33528e-06
7.72836e-06
8.22465e-06
8.89709e-06
9.8041e-06
1.10402e-05
1.27011e-05
1.48529e-05
1.75938e-05
2.08819e-05
2.4691e-05
2.89628e-05
3.35994e-05
3.85772e-05
4.36868e-05
4.85129e-05
5.26996e-05
5.13869e-06
5.14028e-06
5.14165e-06
5.14296e-06
5.14432e-06
5.14636e-06
5.14849e-06
5.15105e-06
5.15406e-06
5.15736e-06
5.1612e-06
5.16535e-06
5.17037e-06
5.17578e-06
5.18249e-06
5.18976e-06
5.19826e-06
5.2075e-06
5.21793e-06
5.22922e-06
5.24164e-06
5.25505e-06
5.26973e-06
5.28544e-06
5.30261e-06
5.32084e-06
5.34078e-06
5.36217e-06
5.38538e-06
5.41025e-06
5.43721e-06
5.46593e-06
5.49694e-06
5.53019e-06
5.56611e-06
5.60486e-06
5.64693e-06
5.69261e-06
5.74265e-06
5.79729e-06
5.85791e-06
5.9256e-06
6.00164e-06
6.08744e-06
6.18502e-06
6.29655e-06
6.42542e-06
6.57503e-06
6.75164e-06
6.96146e-06
7.21707e-06
7.53129e-06
7.93082e-06
8.44427e-06
9.12429e-06
1.00319e-05
1.12468e-05
1.28534e-05
1.49208e-05
1.75036e-05
2.05979e-05
2.41865e-05
2.82285e-05
3.26562e-05
3.73865e-05
4.22577e-05
4.70758e-05
5.13859e-05
5.55166e-05
5.26575e-06
5.2691e-06
5.2724e-06
5.27569e-06
5.27891e-06
5.28225e-06
5.28569e-06
5.28929e-06
5.29321e-06
5.29742e-06
5.30211e-06
5.3072e-06
5.31296e-06
5.31927e-06
5.32645e-06
5.33443e-06
5.34341e-06
5.35334e-06
5.36432e-06
5.37636e-06
5.38953e-06
5.40383e-06
5.41938e-06
5.43617e-06
5.45435e-06
5.47409e-06
5.49557e-06
5.51884e-06
5.54411e-06
5.57144e-06
5.60108e-06
5.63313e-06
5.66786e-06
5.70548e-06
5.74637e-06
5.79081e-06
5.8394e-06
5.89245e-06
5.95093e-06
6.01522e-06
6.08682e-06
6.16715e-06
6.25775e-06
6.3606e-06
6.47809e-06
6.61353e-06
6.77096e-06
6.95632e-06
7.17724e-06
7.44541e-06
7.7764e-06
8.19431e-06
8.73145e-06
9.43454e-06
1.03626e-05
1.15864e-05
1.31792e-05
1.5202e-05
1.76928e-05
2.06554e-05
2.407e-05
2.78968e-05
3.20818e-05
3.65507e-05
4.11916e-05
4.5852e-05
5.02948e-05
5.40541e-05
5.84987e-05
5.40933e-06
5.41472e-06
5.42015e-06
5.42558e-06
5.43101e-06
5.43647e-06
5.44197e-06
5.44754e-06
5.45328e-06
5.45922e-06
5.46549e-06
5.47213e-06
5.47928e-06
5.48698e-06
5.49538e-06
5.50455e-06
5.51461e-06
5.52561e-06
5.53766e-06
5.5508e-06
5.56514e-06
5.5807e-06
5.59765e-06
5.6159e-06
5.63583e-06
5.65757e-06
5.68127e-06
5.70707e-06
5.73517e-06
5.76572e-06
5.79898e-06
5.83516e-06
5.87458e-06
5.91753e-06
5.96449e-06
6.01584e-06
6.0723e-06
6.13436e-06
6.20311e-06
6.27922e-06
6.36439e-06
6.4605e-06
6.56963e-06
6.6944e-06
6.83825e-06
7.00573e-06
7.20305e-06
7.43875e-06
7.72499e-06
8.07876e-06
8.52425e-06
9.09461e-06
9.8342e-06
1.07981e-05
1.20492e-05
1.36494e-05
1.56485e-05
1.80746e-05
2.0929e-05
2.4193e-05
2.78304e-05
3.17968e-05
3.60358e-05
4.04608e-05
4.4942e-05
4.92965e-05
5.32174e-05
5.65261e-05
6.15036e-05
5.57591e-06
5.58248e-06
5.58945e-06
5.59666e-06
5.6041e-06
5.61172e-06
5.61948e-06
5.62738e-06
5.63545e-06
5.64371e-06
5.65225e-06
5.66111e-06
5.67039e-06
5.68018e-06
5.69057e-06
5.70167e-06
5.71358e-06
5.72639e-06
5.74022e-06
5.75516e-06
5.77132e-06
5.78881e-06
5.80772e-06
5.82822e-06
5.85062e-06
5.87507e-06
5.90176e-06
5.93089e-06
5.96268e-06
5.99738e-06
6.03529e-06
6.07672e-06
6.12207e-06
6.17175e-06
6.22634e-06
6.28641e-06
6.35279e-06
6.42626e-06
6.5081e-06
6.59944e-06
6.70224e-06
6.81917e-06
6.95313e-06
7.10793e-06
7.28862e-06
7.50211e-06
7.75788e-06
8.06912e-06
8.45409e-06
8.93787e-06
9.55381e-06
1.03445e-05
1.13606e-05
1.26567e-05
1.42842e-05
1.62815e-05
1.8668e-05
2.14417e-05
2.45832e-05
2.80629e-05
3.18402e-05
3.58694e-05
4.00857e-05
4.4379e-05
4.85889e-05
5.24945e-05
5.57904e-05
5.88914e-05
6.48767e-05
5.7755e-06
5.78206e-06
5.78943e-06
5.79744e-06
5.80604e-06
5.81514e-06
5.82467e-06
5.83457e-06
5.84484e-06
5.85546e-06
5.86645e-06
5.87785e-06
5.88971e-06
5.90209e-06
5.91509e-06
5.92879e-06
5.94329e-06
5.95871e-06
5.97514e-06
5.99273e-06
6.01159e-06
6.03187e-06
6.05368e-06
6.07741e-06
6.10326e-06
6.13146e-06
6.16223e-06
6.19583e-06
6.23258e-06
6.27279e-06
6.31685e-06
6.36519e-06
6.41832e-06
6.47682e-06
6.54142e-06
6.61294e-06
6.69242e-06
6.78107e-06
6.88043e-06
6.99241e-06
7.11941e-06
7.26539e-06
7.43469e-06
7.63311e-06
7.86847e-06
8.15146e-06
8.49662e-06
8.92362e-06
9.45843e-06
1.01343e-05
1.09916e-05
1.20758e-05
1.34332e-05
1.5104e-05
1.71165e-05
1.94817e-05
2.21944e-05
2.5236e-05
2.85788e-05
3.21913e-05
3.60302e-05
4.00448e-05
4.4153e-05
4.82068e-05
5.20124e-05
5.53164e-05
5.79884e-05
6.13001e-05
6.84782e-05
6.01926e-06
6.02515e-06
6.0321e-06
6.03997e-06
6.04877e-06
6.05842e-06
6.06885e-06
6.08e-06
6.09182e-06
6.10429e-06
6.1174e-06
6.13113e-06
6.14553e-06
6.16062e-06
6.17647e-06
6.19315e-06
6.21075e-06
6.22937e-06
6.24915e-06
6.27017e-06
6.29265e-06
6.31661e-06
6.34255e-06
6.37068e-06
6.40126e-06
6.43457e-06
6.47091e-06
6.51062e-06
6.55409e-06
6.60176e-06
6.65415e-06
6.71183e-06
6.77549e-06
6.84595e-06
6.92416e-06
7.01133e-06
7.10885e-06
7.21857e-06
7.34259e-06
7.48405e-06
7.64619e-06
7.83513e-06
8.05768e-06
8.32288e-06
8.64287e-06
9.03373e-06
9.51646e-06
1.01177e-05
1.08698e-05
1.181e-05
1.29775e-05
1.44097e-05
1.61364e-05
1.81759e-05
2.05328e-05
2.31987e-05
2.61562e-05
2.93811e-05
3.28448e-05
3.65153e-05
4.03416e-05
4.42618e-05
4.81629e-05
5.1842e-05
5.50762e-05
5.76449e-05
5.98847e-05
6.37205e-05
7.28034e-05
6.31874e-06
6.32401e-06
6.33039e-06
6.33782e-06
6.34634e-06
6.35596e-06
6.36664e-06
6.37835e-06
6.39106e-06
6.40476e-06
6.41943e-06
6.43506e-06
6.45166e-06
6.46927e-06
6.48791e-06
6.50766e-06
6.52859e-06
6.55082e-06
6.57443e-06
6.59963e-06
6.62644e-06
6.65533e-06
6.68659e-06
6.72049e-06
6.75734e-06
6.79749e-06
6.84133e-06
6.88931e-06
6.94195e-06
6.99985e-06
7.06369e-06
7.13428e-06
7.21257e-06
7.29972e-06
7.39713e-06
7.50657e-06
7.63011e-06
7.77062e-06
7.93137e-06
8.11735e-06
8.33369e-06
8.58962e-06
8.89588e-06
9.26618e-06
9.71808e-06
1.02735e-05
1.0959e-05
1.18048e-05
1.28436e-05
1.41075e-05
1.56244e-05
1.74144e-05
1.94873e-05
2.18426e-05
2.44704e-05
2.73541e-05
3.04734e-05
3.38042e-05
3.73163e-05
4.09738e-05
4.47093e-05
4.844e-05
5.20059e-05
5.5123e-05
5.75892e-05
5.94054e-05
6.15688e-05
6.62557e-05
7.81074e-05
6.68692e-06
6.69211e-06
6.69836e-06
6.70565e-06
6.71409e-06
6.72373e-06
6.7346e-06
6.74672e-06
6.7601e-06
6.77476e-06
6.79072e-06
6.80799e-06
6.82661e-06
6.84659e-06
6.86801e-06
6.89092e-06
6.91542e-06
6.9416e-06
6.96967e-06
6.99961e-06
7.03195e-06
7.06698e-06
7.105e-06
7.14636e-06
7.19144e-06
7.24069e-06
7.29465e-06
7.35391e-06
7.41918e-06
7.49129e-06
7.57122e-06
7.66013e-06
7.75944e-06
7.87091e-06
7.99669e-06
8.13952e-06
8.30283e-06
8.49104e-06
8.70979e-06
8.96639e-06
9.27008e-06
9.63286e-06
1.0071e-05
1.06031e-05
1.12511e-05
1.20399e-05
1.29963e-05
1.41469e-05
1.55157e-05
1.71216e-05
1.89761e-05
2.10828e-05
2.34373e-05
2.60296e-05
2.88449e-05
3.18658e-05
3.50724e-05
3.84397e-05
4.19308e-05
4.54994e-05
4.9051e-05
5.24647e-05
5.55193e-05
5.7798e-05
5.93382e-05
6.06201e-05
6.30895e-05
6.91247e-05
8.55225e-05
7.14053e-06
7.14632e-06
7.15315e-06
7.161e-06
7.17003e-06
7.18032e-06
7.19193e-06
7.20493e-06
7.21939e-06
7.23538e-06
7.25296e-06
7.27219e-06
7.29314e-06
7.31587e-06
7.34047e-06
7.36706e-06
7.39574e-06
7.42669e-06
7.45999e-06
7.4962e-06
7.5356e-06
7.57854e-06
7.6254e-06
7.67665e-06
7.73283e-06
7.79454e-06
7.86253e-06
7.93766e-06
8.02097e-06
8.11368e-06
8.2173e-06
8.33363e-06
8.46495e-06
8.61406e-06
8.78451e-06
8.98069e-06
9.20824e-06
9.4741e-06
9.78715e-06
1.0158e-05
1.06002e-05
1.11285e-05
1.17628e-05
1.2524e-05
1.34339e-05
1.45138e-05
1.57834e-05
1.72587e-05
1.89504e-05
2.08638e-05
2.29978e-05
2.53468e-05
2.79006e-05
3.06477e-05
3.3573e-05
3.66599e-05
3.9887e-05
4.32235e-05
4.66175e-05
5.00042e-05
5.32492e-05
5.61524e-05
5.8447e-05
5.94408e-05
6.01248e-05
6.14002e-05
6.45116e-05
7.29609e-05
9.36602e-05
7.70289e-06
7.70996e-06
7.71816e-06
7.72746e-06
7.738e-06
7.7499e-06
7.76325e-06
7.77815e-06
7.79471e-06
7.81305e-06
7.83329e-06
7.85553e-06
7.87988e-06
7.9065e-06
7.93551e-06
7.96711e-06
8.00142e-06
8.03879e-06
8.0797e-06
8.12452e-06
8.17366e-06
8.22761e-06
8.28692e-06
8.35228e-06
8.42448e-06
8.50445e-06
8.59333e-06
8.69246e-06
8.8035e-06
8.92844e-06
9.0697e-06
9.23029e-06
9.41393e-06
9.62522e-06
9.86978e-06
1.01545e-05
1.04878e-05
1.08797e-05
1.1342e-05
1.18882e-05
1.25335e-05
1.32942e-05
1.4187e-05
1.5229e-05
1.64375e-05
1.78239e-05
1.93976e-05
2.11637e-05
2.31226e-05
2.52715e-05
2.7604e-05
3.01123e-05
3.27857e-05
3.5614e-05
3.85809e-05
4.16695e-05
4.48502e-05
4.80798e-05
5.12797e-05
5.43566e-05
5.71193e-05
5.91787e-05
5.98047e-05
5.9688e-05
6.02332e-05
6.18944e-05
6.63551e-05
7.92125e-05
9.85865e-05
8.40807e-06
8.41712e-06
8.42752e-06
8.43922e-06
8.45238e-06
8.46714e-06
8.48359e-06
8.50186e-06
8.52211e-06
8.54451e-06
8.56922e-06
8.59641e-06
8.62628e-06
8.65904e-06
8.69493e-06
8.73415e-06
8.77742e-06
8.82511e-06
8.87769e-06
8.93574e-06
8.99989e-06
9.07094e-06
9.14978e-06
9.2375e-06
9.3354e-06
9.44504e-06
9.56829e-06
9.70739e-06
9.86509e-06
1.00447e-05
1.02501e-05
1.04862e-05
1.07586e-05
1.10742e-05
1.1441e-05
1.18681e-05
1.2366e-05
1.29461e-05
1.36209e-05
1.44033e-05
1.5306e-05
1.63414e-05
1.75205e-05
1.88519e-05
2.03427e-05
2.19953e-05
2.38148e-05
2.57997e-05
2.79449e-05
3.0246e-05
3.26957e-05
3.52875e-05
3.80101e-05
4.08549e-05
4.37986e-05
4.68225e-05
4.98778e-05
5.28997e-05
5.57672e-05
5.83438e-05
6.01037e-05
6.05528e-05
6.06622e-05
5.95802e-05
6.02631e-05
6.28226e-05
6.9621e-05
8.63629e-05
0.000103771
9.30744e-06
9.31938e-06
9.33308e-06
9.34851e-06
9.36582e-06
9.3852e-06
9.40675e-06
9.43065e-06
9.45713e-06
9.4864e-06
9.51871e-06
9.55433e-06
9.59357e-06
9.63675e-06
9.68467e-06
9.73776e-06
9.79665e-06
9.86202e-06
9.93469e-06
1.00156e-05
1.01059e-05
1.02068e-05
1.032e-05
1.04473e-05
1.05909e-05
1.07533e-05
1.09377e-05
1.11476e-05
1.13872e-05
1.16616e-05
1.19762e-05
1.23377e-05
1.27534e-05
1.32312e-05
1.378e-05
1.4409e-05
1.51279e-05
1.59462e-05
1.68732e-05
1.79174e-05
1.90863e-05
2.0386e-05
2.18208e-05
2.33937e-05
2.51055e-05
2.6956e-05
2.89429e-05
3.10633e-05
3.33111e-05
3.56867e-05
3.81811e-05
4.07898e-05
4.34971e-05
4.62953e-05
4.91436e-05
5.20223e-05
5.48422e-05
5.7507e-05
5.98246e-05
6.1375e-05
6.17336e-05
6.1712e-05
6.07566e-05
5.9477e-05
6.06975e-05
6.47614e-05
7.53479e-05
9.05232e-05
0.000105981
1.04825e-05
1.04992e-05
1.05183e-05
1.054e-05
1.05644e-05
1.05917e-05
1.06222e-05
1.06561e-05
1.06937e-05
1.07354e-05
1.07816e-05
1.08331e-05
1.08904e-05
1.09543e-05
1.10255e-05
1.11048e-05
1.11935e-05
1.12926e-05
1.14035e-05
1.1528e-05
1.16678e-05
1.18252e-05
1.20027e-05
1.22032e-05
1.24299e-05
1.26866e-05
1.29776e-05
1.33076e-05
1.36817e-05
1.41058e-05
1.45859e-05
1.51286e-05
1.57406e-05
1.64287e-05
1.71997e-05
1.80604e-05
1.90167e-05
2.00742e-05
2.12378e-05
2.25115e-05
2.38982e-05
2.53999e-05
2.7018e-05
2.87524e-05
3.06028e-05
3.25675e-05
3.4644e-05
3.6829e-05
3.91169e-05
4.15002e-05
4.39729e-05
4.65354e-05
4.91596e-05
5.18389e-05
5.44956e-05
5.7115e-05
5.95324e-05
6.1584e-05
6.28293e-05
6.27544e-05
6.22862e-05
6.20211e-05
5.95974e-05
5.9239e-05
6.15543e-05
6.85173e-05
7.90477e-05
9.38664e-05
0.000108138
1.20732e-05
1.20994e-05
1.21295e-05
1.21637e-05
1.22023e-05
1.22457e-05
1.22942e-05
1.23486e-05
1.24095e-05
1.24777e-05
1.25539e-05
1.2639e-05
1.2734e-05
1.28402e-05
1.29587e-05
1.30912e-05
1.32392e-05
1.34047e-05
1.35897e-05
1.37968e-05
1.40284e-05
1.42874e-05
1.45771e-05
1.49008e-05
1.52624e-05
1.56657e-05
1.6115e-05
1.66146e-05
1.71691e-05
1.7783e-05
1.84609e-05
1.92073e-05
2.00267e-05
2.09233e-05
2.19008e-05
2.29629e-05
2.41127e-05
2.53529e-05
2.66859e-05
2.81134e-05
2.96369e-05
3.12572e-05
3.29748e-05
3.47894e-05
3.67004e-05
3.87059e-05
4.08025e-05
4.2987e-05
4.52492e-05
4.75836e-05
4.99704e-05
5.24194e-05
5.48754e-05
5.73367e-05
5.96571e-05
6.18262e-05
6.34856e-05
6.43131e-05
6.39526e-05
6.37158e-05
6.25409e-05
6.11342e-05
5.87278e-05
5.96776e-05
6.36904e-05
7.23249e-05
8.25665e-05
9.43238e-05
0.000103189
1.43482e-05
1.43977e-05
1.44546e-05
1.4519e-05
1.45916e-05
1.46731e-05
1.47642e-05
1.48659e-05
1.4979e-05
1.51048e-05
1.52444e-05
1.5399e-05
1.55702e-05
1.57596e-05
1.59686e-05
1.61993e-05
1.64535e-05
1.67334e-05
1.70411e-05
1.73789e-05
1.77494e-05
1.8155e-05
1.85985e-05
1.90824e-05
1.96097e-05
2.0183e-05
2.08053e-05
2.14793e-05
2.2208e-05
2.29939e-05
2.384e-05
2.47489e-05
2.57232e-05
2.67655e-05
2.78782e-05
2.90637e-05
3.0324e-05
3.16612e-05
3.3077e-05
3.45729e-05
3.61502e-05
3.78098e-05
3.95518e-05
4.13757e-05
4.32804e-05
4.52624e-05
4.73156e-05
4.94368e-05
5.16045e-05
5.38209e-05
5.60432e-05
5.82894e-05
6.04502e-05
6.25273e-05
6.42782e-05
6.55142e-05
6.56132e-05
6.51038e-05
6.46242e-05
6.35953e-05
6.22253e-05
5.86947e-05
5.79254e-05
6.02579e-05
6.66369e-05
7.331e-05
8.26918e-05
9.27481e-05
9.85155e-05
1.79229e-05
1.80308e-05
1.81512e-05
1.82844e-05
1.84311e-05
1.85922e-05
1.87686e-05
1.89611e-05
1.91708e-05
1.93987e-05
1.96459e-05
1.99136e-05
2.0203e-05
2.05152e-05
2.08516e-05
2.12135e-05
2.16022e-05
2.20192e-05
2.24658e-05
2.29435e-05
2.34537e-05
2.3998e-05
2.4578e-05
2.51952e-05
2.58514e-05
2.65482e-05
2.72876e-05
2.80713e-05
2.89014e-05
2.97801e-05
3.07094e-05
3.16916e-05
3.27292e-05
3.38245e-05
3.49799e-05
3.61977e-05
3.748e-05
3.88291e-05
4.02467e-05
4.17343e-05
4.32931e-05
4.49233e-05
4.66243e-05
4.83942e-05
5.02299e-05
5.21231e-05
5.40641e-05
5.60503e-05
5.80333e-05
6.00545e-05
6.19889e-05
6.38847e-05
6.55401e-05
6.68603e-05
6.71223e-05
6.67984e-05
6.64255e-05
6.53787e-05
6.41408e-05
6.2391e-05
5.90831e-05
5.67228e-05
5.72172e-05
6.11645e-05
6.69512e-05
7.48568e-05
8.16286e-05
8.71336e-05
9.21304e-05
2.41167e-05
2.43122e-05
2.45242e-05
2.47521e-05
2.49962e-05
2.52568e-05
2.55341e-05
2.58283e-05
2.61399e-05
2.64694e-05
2.68174e-05
2.71848e-05
2.7572e-05
2.79797e-05
2.84086e-05
2.88592e-05
2.93322e-05
2.98282e-05
3.03481e-05
3.08927e-05
3.14629e-05
3.20599e-05
3.26848e-05
3.33389e-05
3.40238e-05
3.4741e-05
3.54924e-05
3.628e-05
3.7106e-05
3.79729e-05
3.8883e-05
3.98392e-05
4.0844e-05
4.19002e-05
4.30104e-05
4.41772e-05
4.54028e-05
4.66892e-05
4.80382e-05
4.94503e-05
5.09258e-05
5.24631e-05
5.40591e-05
5.57088e-05
5.7405e-05
5.91288e-05
6.08704e-05
6.26273e-05
6.42929e-05
6.60529e-05
6.74406e-05
6.8674e-05
6.89196e-05
6.86156e-05
6.82907e-05
6.73731e-05
6.5908e-05
6.39649e-05
6.17974e-05
5.83689e-05
5.54389e-05
5.53719e-05
5.72988e-05
6.1515e-05
6.71389e-05
7.15243e-05
7.47477e-05
8.00316e-05
8.48278e-05
3.44735e-05
3.47167e-05
3.49704e-05
3.52341e-05
3.55081e-05
3.57925e-05
3.60874e-05
3.63925e-05
3.67083e-05
3.70366e-05
3.73806e-05
3.77399e-05
3.81142e-05
3.85033e-05
3.89073e-05
3.93263e-05
3.97605e-05
4.02102e-05
4.06766e-05
4.11608e-05
4.16639e-05
4.21868e-05
4.27312e-05
4.32987e-05
4.38914e-05
4.45115e-05
4.51612e-05
4.58433e-05
4.65604e-05
4.73154e-05
4.81113e-05
4.89511e-05
4.98378e-05
5.07741e-05
5.17627e-05
5.28058e-05
5.39053e-05
5.50624e-05
5.62779e-05
5.75502e-05
5.8877e-05
6.02523e-05
6.16686e-05
6.31158e-05
6.45787e-05
6.60153e-05
6.74465e-05
6.883e-05
7.00046e-05
7.09731e-05
7.1024e-05
7.0667e-05
7.02848e-05
6.92727e-05
6.81324e-05
6.5815e-05
6.27464e-05
6.01369e-05
5.70479e-05
5.31112e-05
5.38635e-05
5.51682e-05
5.74151e-05
6.05132e-05
6.1072e-05
6.24036e-05
6.67271e-05
7.23511e-05
7.78997e-05
4.92108e-05
4.93904e-05
4.95723e-05
4.97565e-05
4.99444e-05
5.01359e-05
5.03301e-05
5.05265e-05
5.07261e-05
5.093e-05
5.1139e-05
5.13536e-05
5.15743e-05
5.18015e-05
5.20359e-05
5.22779e-05
5.25281e-05
5.27873e-05
5.3062e-05
5.33525e-05
5.36582e-05
5.39791e-05
5.43193e-05
5.46821e-05
5.507e-05
5.54863e-05
5.59335e-05
5.64149e-05
5.69334e-05
5.74921e-05
5.80939e-05
5.87416e-05
5.94379e-05
6.01851e-05
6.09848e-05
6.18387e-05
6.27477e-05
6.37107e-05
6.47281e-05
6.57889e-05
6.68898e-05
6.80129e-05
6.91469e-05
7.02716e-05
7.13635e-05
7.23302e-05
7.32208e-05
7.37339e-05
7.33611e-05
7.30912e-05
7.24245e-05
7.131e-05
6.98118e-05
6.75488e-05
6.45573e-05
6.04611e-05
5.69906e-05
5.45074e-05
5.04133e-05
5.01924e-05
5.14002e-05
5.03406e-05
5.0021e-05
4.81819e-05
4.92776e-05
5.35927e-05
5.97888e-05
6.57119e-05
7.20153e-05
6.71326e-05
6.71311e-05
6.71237e-05
6.71137e-05
6.71141e-05
6.71147e-05
6.71039e-05
6.7084e-05
6.70611e-05
6.70375e-05
6.7013e-05
6.69877e-05
6.69621e-05
6.69371e-05
6.69136e-05
6.68924e-05
6.68744e-05
6.68608e-05
6.68519e-05
6.68467e-05
6.68395e-05
6.68331e-05
6.68623e-05
6.69255e-05
6.70194e-05
6.71542e-05
6.73222e-05
6.75349e-05
6.779e-05
6.80894e-05
6.84357e-05
6.88312e-05
6.92777e-05
6.97756e-05
7.03247e-05
7.09272e-05
7.1582e-05
7.22823e-05
7.30312e-05
7.37761e-05
7.45426e-05
7.52692e-05
7.59647e-05
7.65668e-05
7.6841e-05
7.63923e-05
7.6148e-05
7.54822e-05
7.45523e-05
7.31688e-05
7.14126e-05
6.87398e-05
6.53518e-05
6.13719e-05
5.68304e-05
5.26721e-05
4.95364e-05
4.70876e-05
4.69895e-05
4.57819e-05
4.28771e-05
3.78026e-05
3.67848e-05
3.87504e-05
4.32592e-05
4.89231e-05
5.47853e-05
6.06822e-05
6.71666e-05
8.64323e-05
8.61758e-05
8.5899e-05
8.5608e-05
8.53061e-05
8.49978e-05
8.46837e-05
8.43629e-05
8.40362e-05
8.37046e-05
8.33691e-05
8.30307e-05
8.269e-05
8.23481e-05
8.20059e-05
8.16649e-05
8.13263e-05
8.09917e-05
8.06627e-05
8.0341e-05
8.00285e-05
7.97275e-05
7.94551e-05
7.92106e-05
7.8958e-05
7.88256e-05
7.86456e-05
7.85972e-05
7.8549e-05
7.85475e-05
7.85946e-05
7.86915e-05
7.88386e-05
7.90285e-05
7.92615e-05
7.95534e-05
7.9888e-05
8.02415e-05
8.06343e-05
8.07432e-05
8.086e-05
8.04047e-05
8.02073e-05
7.9586e-05
7.88217e-05
7.78026e-05
7.64514e-05
7.46785e-05
7.22919e-05
6.90802e-05
6.53245e-05
6.0637e-05
5.60091e-05
5.09859e-05
4.65428e-05
4.27715e-05
4.09842e-05
3.95565e-05
3.5935e-05
2.88759e-05
2.52684e-05
2.66445e-05
3.03589e-05
3.51335e-05
4.04205e-05
4.58572e-05
5.13455e-05
5.7033e-05
6.30896e-05
0.000104849
0.000104329
0.000103788
0.000103229
0.000102652
0.00010206
0.000101454
0.000100836
0.000100208
9.95696e-05
9.89235e-05
9.82709e-05
9.7613e-05
9.69512e-05
9.62871e-05
9.56232e-05
9.49615e-05
9.43042e-05
9.36528e-05
9.30123e-05
9.23928e-05
9.17941e-05
9.12182e-05
9.06672e-05
9.01399e-05
8.96501e-05
8.91921e-05
8.8779e-05
8.84078e-05
8.80811e-05
8.7799e-05
8.75607e-05
8.73598e-05
8.71539e-05
8.6926e-05
8.66328e-05
8.62528e-05
8.57639e-05
8.51108e-05
8.43278e-05
8.34413e-05
8.23957e-05
8.1086e-05
7.95569e-05
7.75224e-05
7.49663e-05
7.17092e-05
6.78817e-05
6.33302e-05
5.8379e-05
5.30645e-05
4.77183e-05
4.26093e-05
3.77162e-05
3.39623e-05
3.19036e-05
2.85724e-05
2.12144e-05
1.57102e-05
1.60757e-05
1.88108e-05
2.34433e-05
2.84182e-05
3.35998e-05
3.8796e-05
4.39688e-05
4.9173e-05
5.44507e-05
5.9776e-05
0.000120111
0.000119367
0.000118597
0.000117804
0.00011699
0.000116156
0.000115305
0.000114438
0.000113556
0.000112662
0.000111757
0.000110842
0.000109919
0.000108988
0.000108052
0.000107124
0.000106202
0.000105287
0.000104378
0.000103476
0.000102583
0.0001017
0.000100829
9.99743e-05
9.91405e-05
9.83247e-05
9.75218e-05
9.67264e-05
9.59312e-05
9.51265e-05
9.42991e-05
9.3433e-05
9.25005e-05
9.15493e-05
9.05546e-05
8.94902e-05
8.83168e-05
8.70053e-05
8.5501e-05
8.37621e-05
8.16229e-05
7.91309e-05
7.60556e-05
7.25207e-05
6.8321e-05
6.36385e-05
5.85007e-05
5.31137e-05
4.74321e-05
4.1676e-05
3.60954e-05
3.06472e-05
2.61427e-05
2.14869e-05
1.86987e-05
1.26568e-05
8.82582e-06
7.7524e-06
9.08951e-06
1.28363e-05
1.75984e-05
2.26908e-05
2.77634e-05
3.28213e-05
3.78895e-05
4.29554e-05
4.79471e-05
5.27667e-05
5.73209e-05
0.000129075
0.000128179
0.000127262
0.000126323
0.000125362
0.00012438
0.000123385
0.000122379
0.000121362
0.000120333
0.00011929
0.000118235
0.000117166
0.000116084
0.000114989
0.000113883
0.000112767
0.000111642
0.000110508
0.000109365
0.000108217
0.000107063
0.000105904
0.000104729
0.000103531
0.000102311
0.000101064
9.97846e-05
9.84614e-05
9.70815e-05
9.56275e-05
9.40794e-05
9.24149e-05
9.05837e-05
8.85438e-05
8.62708e-05
8.36912e-05
8.08081e-05
7.75066e-05
7.38659e-05
6.9682e-05
6.51974e-05
6.01333e-05
5.49174e-05
4.92886e-05
4.36764e-05
3.81058e-05
3.18463e-05
2.57298e-05
2.0255e-05
1.55995e-05
1.12105e-05
8.25289e-06
5.99291e-06
4.51045e-06
3.32633e-06
3.12011e-06
4.47776e-06
7.84908e-06
1.23119e-05
1.71848e-05
2.20555e-05
2.68997e-05
3.18232e-05
3.68707e-05
4.19564e-05
4.69076e-05
5.15113e-05
5.55556e-05
0.000125492
0.000124643
0.000123764
0.000122855
0.00012192
0.000120957
0.000119969
0.000118957
0.000117922
0.000116863
0.000115782
0.000114678
0.00011355
0.000112399
0.000111224
0.000110023
0.000108797
0.000107546
0.000106269
0.000104965
0.000103639
0.000102268
0.000100832
9.93347e-05
9.7759e-05
9.60975e-05
9.43007e-05
9.23413e-05
9.01891e-05
8.78178e-05
8.52032e-05
8.2327e-05
7.91828e-05
7.57672e-05
7.20928e-05
6.81888e-05
6.40602e-05
5.97473e-05
5.52395e-05
5.05234e-05
4.55821e-05
4.03248e-05
3.48102e-05
2.90347e-05
2.34345e-05
1.79175e-05
1.28958e-05
9.23749e-06
6.68296e-06
4.82059e-06
3.41423e-06
2.49415e-06
1.88979e-06
1.3913e-06
1.10129e-06
1.04407e-06
1.6311e-06
3.04572e-06
5.59358e-06
9.52406e-06
1.43008e-05
1.93019e-05
2.421e-05
2.90911e-05
3.40966e-05
3.9148e-05
4.40277e-05
4.84846e-05
5.24798e-05
9.90648e-05
9.82476e-05
9.74088e-05
9.65477e-05
9.56633e-05
9.47528e-05
9.38159e-05
9.28506e-05
9.18552e-05
9.08309e-05
8.97714e-05
8.86837e-05
8.75549e-05
8.63966e-05
8.51934e-05
8.39534e-05
8.26659e-05
8.13326e-05
7.99587e-05
7.85159e-05
7.6968e-05
7.53206e-05
7.35825e-05
7.17355e-05
6.97808e-05
6.76959e-05
6.55057e-05
6.32213e-05
6.08388e-05
5.83688e-05
5.57967e-05
5.31215e-05
5.03078e-05
4.73412e-05
4.41544e-05
4.07345e-05
3.69604e-05
3.28894e-05
2.83677e-05
2.36095e-05
1.86222e-05
1.38377e-05
9.74866e-06
6.69049e-06
4.5353e-06
3.02817e-06
2.02042e-06
1.37556e-06
9.57281e-07
6.60426e-07
4.77217e-07
3.76176e-07
3.2617e-07
2.40933e-07
2.0069e-07
2.37741e-07
4.12576e-07
8.15293e-07
1.67178e-06
3.41435e-06
6.58387e-06
1.08751e-05
1.55757e-05
2.0107e-05
2.4602e-05
2.91436e-05
3.34653e-05
3.75133e-05
4.16723e-05
4.93855e-05
4.99563e-05
5.05512e-05
5.11099e-05
5.16973e-05
5.22317e-05
5.2799e-05
5.33054e-05
5.38304e-05
5.43154e-05
5.47648e-05
5.52336e-05
5.55803e-05
5.59707e-05
5.62358e-05
5.63329e-05
5.63717e-05
5.63875e-05
5.64788e-05
5.64727e-05
5.63663e-05
5.61857e-05
5.59286e-05
5.55663e-05
5.50626e-05
5.43836e-05
5.35004e-05
5.23864e-05
5.10112e-05
4.93414e-05
4.7338e-05
4.4961e-05
4.21689e-05
3.89254e-05
3.52023e-05
3.099e-05
2.63154e-05
2.12473e-05
1.60027e-05
1.07549e-05
6.03732e-06
2.59157e-06
8.44751e-07
4.26833e-07
4.07134e-07
3.88453e-07
3.42228e-07
2.95123e-07
2.43347e-07
1.92626e-07
1.56475e-07
1.23688e-07
9.06085e-08
6.48459e-08
5.36397e-08
6.44995e-08
1.1646e-07
2.42971e-07
4.81906e-07
8.49378e-07
1.3249e-06
1.8566e-06
2.42767e-06
3.15104e-06
3.97563e-06
4.78439e-06
5.51486e-06
6.17846e-06
7.02293e-06
5.11353e-06
5.11228e-06
5.11153e-06
5.11014e-06
5.10982e-06
5.10808e-06
5.1058e-06
5.10067e-06
5.09657e-06
5.09272e-06
5.08994e-06
5.08861e-06
5.09196e-06
5.09335e-06
5.08176e-06
5.06779e-06
5.06558e-06
5.06715e-06
5.0603e-06
5.04815e-06
5.0462e-06
5.05268e-06
5.04203e-06
5.03913e-06
5.02551e-06
5.01544e-06
5.0191e-06
5.01827e-06
5.01807e-06
5.01758e-06
5.00928e-06
5.00555e-06
5.004e-06
4.99799e-06
4.99475e-06
4.98591e-06
4.98397e-06
4.98256e-06
4.98017e-06
4.97885e-06
4.9672e-06
4.96607e-06
4.96071e-06
4.95111e-06
4.95064e-06
4.94534e-06
4.93846e-06
4.9361e-06
4.93704e-06
4.93707e-06
4.93703e-06
4.93839e-06
4.93833e-06
4.93584e-06
4.93484e-06
4.93526e-06
4.93383e-06
4.93403e-06
4.93331e-06
5.22719e-06
5.22492e-06
5.22284e-06
5.22075e-06
5.21864e-06
5.21573e-06
5.21248e-06
5.20874e-06
5.2049e-06
5.20085e-06
5.19925e-06
5.19856e-06
5.19596e-06
5.1881e-06
5.17366e-06
5.16861e-06
5.16949e-06
5.16283e-06
5.15215e-06
5.14491e-06
5.14591e-06
5.14612e-06
5.1314e-06
5.12825e-06
5.11278e-06
5.10554e-06
5.10784e-06
5.10753e-06
5.10392e-06
5.10066e-06
5.09468e-06
5.09052e-06
5.08721e-06
5.07996e-06
5.07718e-06
5.07021e-06
5.06486e-06
5.06349e-06
5.06218e-06
5.06003e-06
5.05393e-06
5.04927e-06
5.04434e-06
5.03694e-06
5.03237e-06
5.02852e-06
5.02379e-06
5.01847e-06
5.01833e-06
5.01954e-06
5.02075e-06
5.02315e-06
5.02544e-06
5.02581e-06
5.02611e-06
5.02628e-06
5.02629e-06
5.0267e-06
5.0269e-06
5.36232e-06
5.35904e-06
5.35642e-06
5.35344e-06
5.35033e-06
5.34687e-06
5.3434e-06
5.33965e-06
5.33544e-06
5.33084e-06
5.32709e-06
5.32143e-06
5.31333e-06
5.30268e-06
5.293e-06
5.2913e-06
5.28632e-06
5.27515e-06
5.26441e-06
5.26078e-06
5.26221e-06
5.25495e-06
5.23964e-06
5.235e-06
5.21883e-06
5.21323e-06
5.21429e-06
5.21364e-06
5.20712e-06
5.20182e-06
5.19739e-06
5.19218e-06
5.18735e-06
5.17948e-06
5.1761e-06
5.17017e-06
5.16384e-06
5.16061e-06
5.15941e-06
5.15769e-06
5.15363e-06
5.14924e-06
5.14451e-06
5.13917e-06
5.13359e-06
5.1289e-06
5.12439e-06
5.12017e-06
5.1163e-06
5.11634e-06
5.11773e-06
5.12029e-06
5.12407e-06
5.12717e-06
5.12992e-06
5.13223e-06
5.13406e-06
5.13598e-06
5.13725e-06
5.52444e-06
5.52024e-06
5.51695e-06
5.51307e-06
5.50914e-06
5.50482e-06
5.50014e-06
5.49482e-06
5.48871e-06
5.48183e-06
5.47434e-06
5.46483e-06
5.45519e-06
5.44561e-06
5.4384e-06
5.43359e-06
5.42239e-06
5.41004e-06
5.4015e-06
5.39989e-06
5.39863e-06
5.38405e-06
5.36951e-06
5.36251e-06
5.34614e-06
5.34166e-06
5.3417e-06
5.33922e-06
5.33022e-06
5.32348e-06
5.31945e-06
5.31298e-06
5.307e-06
5.29881e-06
5.29438e-06
5.28877e-06
5.2823e-06
5.27751e-06
5.27542e-06
5.27378e-06
5.27092e-06
5.26696e-06
5.26271e-06
5.25839e-06
5.25357e-06
5.24941e-06
5.24373e-06
5.24002e-06
5.23618e-06
5.23451e-06
5.23461e-06
5.23619e-06
5.23941e-06
5.24335e-06
5.24752e-06
5.25173e-06
5.25558e-06
5.25947e-06
5.26246e-06
5.71824e-06
5.71288e-06
5.70853e-06
5.70333e-06
5.69791e-06
5.69174e-06
5.68486e-06
5.67707e-06
5.66839e-06
5.65887e-06
5.64869e-06
5.63788e-06
5.62815e-06
5.61864e-06
5.60974e-06
5.59938e-06
5.58515e-06
5.57392e-06
5.56707e-06
5.56436e-06
5.55727e-06
5.53872e-06
5.52479e-06
5.51501e-06
5.4988e-06
5.49474e-06
5.49286e-06
5.48822e-06
5.47707e-06
5.46912e-06
5.46458e-06
5.45677e-06
5.44969e-06
5.44101e-06
5.43551e-06
5.42976e-06
5.42297e-06
5.41735e-06
5.41407e-06
5.41208e-06
5.40984e-06
5.40651e-06
5.40261e-06
5.39871e-06
5.39455e-06
5.39056e-06
5.38608e-06
5.38306e-06
5.37794e-06
5.37544e-06
5.37523e-06
5.37592e-06
5.378e-06
5.38126e-06
5.38533e-06
5.39001e-06
5.3948e-06
5.39991e-06
5.4043e-06
5.94946e-06
5.94244e-06
5.93644e-06
5.92926e-06
5.92164e-06
5.91305e-06
5.90364e-06
5.89338e-06
5.88242e-06
5.87094e-06
5.85922e-06
5.84752e-06
5.83637e-06
5.82443e-06
5.81161e-06
5.79715e-06
5.78265e-06
5.77255e-06
5.76532e-06
5.75881e-06
5.74553e-06
5.72497e-06
5.71083e-06
5.69817e-06
5.68227e-06
5.67774e-06
5.67339e-06
5.66612e-06
5.65298e-06
5.64377e-06
5.6381e-06
5.62882e-06
5.62047e-06
5.61101e-06
5.60446e-06
5.59815e-06
5.59101e-06
5.58461e-06
5.58021e-06
5.57756e-06
5.57547e-06
5.57274e-06
5.56936e-06
5.56584e-06
5.56214e-06
5.55837e-06
5.55461e-06
5.55122e-06
5.54771e-06
5.54587e-06
5.5448e-06
5.54484e-06
5.54598e-06
5.54824e-06
5.55145e-06
5.55555e-06
5.56013e-06
5.56534e-06
5.57015e-06
6.22616e-06
6.21693e-06
6.20878e-06
6.19921e-06
6.18914e-06
6.17805e-06
6.16627e-06
6.15378e-06
6.14077e-06
6.12736e-06
6.11368e-06
6.09971e-06
6.0853e-06
6.06967e-06
6.05333e-06
6.03701e-06
6.02295e-06
6.01234e-06
6.00237e-06
5.99043e-06
5.97172e-06
5.94999e-06
5.93467e-06
5.91917e-06
5.90335e-06
5.89739e-06
5.89002e-06
5.87975e-06
5.86466e-06
5.85395e-06
5.84661e-06
5.83563e-06
5.82578e-06
5.81532e-06
5.80753e-06
5.80037e-06
5.79271e-06
5.78554e-06
5.78003e-06
5.77643e-06
5.774e-06
5.77153e-06
5.76858e-06
5.76545e-06
5.7622e-06
5.75887e-06
5.75548e-06
5.75231e-06
5.74938e-06
5.74772e-06
5.74799e-06
5.74838e-06
5.74933e-06
5.75105e-06
5.75357e-06
5.75692e-06
5.76085e-06
5.76552e-06
5.77001e-06
6.55971e-06
6.54783e-06
6.53722e-06
6.52505e-06
6.51239e-06
6.49874e-06
6.48443e-06
6.46939e-06
6.45375e-06
6.4375e-06
6.42063e-06
6.40307e-06
6.38478e-06
6.36581e-06
6.34716e-06
6.32988e-06
6.31503e-06
6.30161e-06
6.28687e-06
6.26883e-06
6.24569e-06
6.22281e-06
6.20528e-06
6.18698e-06
6.17066e-06
6.1622e-06
6.15127e-06
6.13765e-06
6.12046e-06
6.10787e-06
6.09835e-06
6.08538e-06
6.07373e-06