/*--------------------------------*- C++ -*----------------------------------*\
| =========                 |                                                 |
| \\      /  F ield         | OpenFOAM: The Open Source CFD Toolbox           |
|  \\    /   O peration     | Version:  2312                                  |
|   \\  /    A nd           | Website:  www.openfoam.com                      |
|    \\/     M anipulation  |                                                 |
\*---------------------------------------------------------------------------*/
FoamFile
{
    version     2.0;
    format      ascii;
    arch        "LSB;label=32;scalar=64";
    class       volScalarField;
    location    "2000";
    object      nut;
}
// * * * * * * * * * * * * * * * * * * * * * * * * * * * * * * * * * * * * * //

dimensions      [0 2 -1 0 0 0 0];

internalField   nonuniform List<scalar> 
76025
(
0.000169623
0.00016965
0.00016965
0.000169714
0.000169711
0.000169847
0.000169927
0.000170057
0.000170087
0.000170146
0.000170216
0.000170298
0.000170425
0.000170539
0.000170705
0.000170865
0.00017107
0.000171299
0.000171541
0.000171793
0.000172069
0.000172368
0.000172669
0.000172982
0.000173347
0.000173679
0.000174083
0.000174435
0.000174887
0.000175298
0.000175778
0.000176221
0.000176724
0.00017724
0.000177789
0.000178354
0.000178961
0.000179593
0.000180272
0.000180985
0.000181752
0.000182618
0.000183539
0.000184588
0.000185745
0.000187088
0.000188532
0.000190207
0.000192211
0.000194408
0.0001971
0.000200201
0.000204007
0.000208417
0.000214598
0.000221565
0.000231311
0.000244108
0.000261445
0.000284022
0.000310709
0.000342606
0.000376072
0.000407855
0.000433118
0.000448213
0.000449716
0.000433439
0.000410106
0.000171311
0.000171419
0.000171353
0.000171391
0.000171488
0.000171578
0.000171642
0.000171739
0.000171825
0.000171907
0.000171994
0.000172082
0.000172197
0.000172318
0.000172473
0.000172632
0.000172823
0.000173026
0.000173258
0.000173502
0.000173771
0.000174057
0.000174367
0.000174684
0.000175038
0.000175388
0.000175778
0.000176177
0.000176609
0.000177063
0.00017755
0.000178043
0.000178576
0.000179128
0.000179719
0.000180343
0.000181006
0.000181717
0.000182482
0.000183303
0.000184207
0.000185189
0.000186291
0.000187507
0.000188881
0.00019042
0.000192173
0.00019419
0.000196495
0.000199211
0.000202368
0.000206212
0.000210816
0.000216743
0.000224133
0.000233975
0.000246934
0.000263965
0.000285713
0.000311885
0.000342025
0.000373386
0.000403415
0.000428545
0.000445144
0.000451976
0.000442498
0.000417937
0.000385581
0.000173413
0.000173499
0.000173548
0.000173673
0.00017372
0.000173779
0.000173829
0.00017389
0.00017396
0.000174036
0.000174122
0.000174214
0.000174324
0.000174445
0.000174593
0.000174755
0.000174942
0.000175144
0.00017537
0.000175614
0.000175879
0.000176162
0.000176467
0.00017679
0.000177138
0.000177503
0.000177895
0.000178312
0.000178758
0.000179231
0.000179738
0.000180273
0.000180844
0.000181451
0.000182101
0.000182795
0.000183542
0.000184345
0.000185217
0.000186162
0.000187199
0.000188345
0.000189619
0.000191042
0.000192643
0.000194452
0.000196519
0.000198891
0.000201659
0.000204908
0.00020882
0.000213575
0.00021955
0.00022713
0.000236998
0.000249858
0.000266476
0.000287378
0.000312446
0.00034088
0.000370837
0.000399787
0.000425188
0.000443464
0.000452126
0.000449462
0.000429425
0.000398289
0.000358671
0.00017553
0.000175642
0.00017584
0.000175934
0.000176018
0.000176102
0.000176185
0.00017627
0.000176359
0.000176452
0.000176553
0.000176662
0.000176783
0.000176916
0.000177067
0.000177235
0.000177424
0.000177632
0.00017786
0.000178109
0.000178378
0.000178667
0.000178977
0.000179309
0.000179664
0.000180045
0.000180454
0.000180892
0.000181362
0.000181866
0.000182406
0.000182985
0.000183606
0.000184273
0.000184992
0.000185766
0.000186605
0.000187513
0.000188505
0.000189586
0.000190779
0.000192104
0.000193583
0.000195245
0.000197124
0.000199266
0.000201728
0.000204595
0.000207975
0.000212033
0.000216988
0.000223174
0.000231021
0.000241112
0.000254107
0.000270637
0.000291087
0.000315321
0.000342508
0.000371099
0.000398996
0.000423606
0.000442593
0.000452591
0.000452375
0.000439734
0.000410164
0.000373837
0.000328225
0.000177796
0.000177944
0.000178115
0.000178273
0.000178422
0.000178564
0.000178702
0.000178837
0.000178972
0.000179107
0.000179245
0.000179387
0.000179538
0.000179697
0.00017987
0.000180057
0.000180261
0.000180483
0.000180724
0.000180985
0.000181267
0.00018157
0.000181897
0.000182245
0.00018262
0.000183025
0.000183461
0.000183931
0.000184437
0.000184981
0.000185569
0.000186202
0.000186886
0.000187626
0.000188427
0.000189296
0.000190244
0.000191277
0.000192411
0.000193656
0.000195037
0.00019658
0.000198314
0.000200277
0.000202517
0.000205098
0.000208107
0.000211665
0.000215943
0.000221176
0.000227692
0.000235921
0.000246394
0.000259686
0.000276302
0.000296482
0.000320011
0.000346093
0.000373322
0.000399904
0.00042363
0.000442176
0.000453462
0.000454562
0.000445487
0.000422823
0.000385521
0.000345481
0.000294399
0.00018047
0.000180623
0.000180789
0.000180962
0.000181139
0.000181317
0.000181495
0.000181674
0.000181854
0.000182034
0.000182217
0.000182403
0.000182594
0.000182792
0.000183
0.00018322
0.000183453
0.000183703
0.00018397
0.000184256
0.000184563
0.000184891
0.000185243
0.000185621
0.000186029
0.000186469
0.000186945
0.000187458
0.000188013
0.000188613
0.000189263
0.000189967
0.000190731
0.000191561
0.000192466
0.000193454
0.000194536
0.000195725
0.000197037
0.00019849
0.00020011
0.000201935
0.000204006
0.000206375
0.000209114
0.00021232
0.000216124
0.000220711
0.000226327
0.000233303
0.000242053
0.000253057
0.000266796
0.000283637
0.000303686
0.00032663
0.000351686
0.000377606
0.000402746
0.000425311
0.00044317
0.000454409
0.000457136
0.000449176
0.00043127
0.000398937
0.000356341
0.000313454
0.000257633
0.000183658
0.000183799
0.000183957
0.000184128
0.00018431
0.000184501
0.000184701
0.000184906
0.000185118
0.000185334
0.000185556
0.000185783
0.000186016
0.000186257
0.000186507
0.000186768
0.000187041
0.00018733
0.000187635
0.000187959
0.000188304
0.000188671
0.000189063
0.000189485
0.00018994
0.000190431
0.000190961
0.000191535
0.000192157
0.000192831
0.000193564
0.000194361
0.00019523
0.000196179
0.000197218
0.00019836
0.000199618
0.00020101
0.000202557
0.000204286
0.000206229
0.000208443
0.000210987
0.000213941
0.000217416
0.000221557
0.000226562
0.000232691
0.000240271
0.00024969
0.000261364
0.000275666
0.000292823
0.000312801
0.000335211
0.000359262
0.000383828
0.000407477
0.00042856
0.000445429
0.000456113
0.000459172
0.000452877
0.000436084
0.000409455
0.000368664
0.000323538
0.000277622
0.000219048
0.000187492
0.000187615
0.000187757
0.000187915
0.00018809
0.000188279
0.000188482
0.000188698
0.000188925
0.000189163
0.000189411
0.00018967
0.000189938
0.000190218
0.000190508
0.000190812
0.00019113
0.000191464
0.000191816
0.000192188
0.000192582
0.000193
0.000193448
0.000193929
0.000194448
0.000195007
0.000195613
0.000196268
0.00019698
0.000197754
0.000198597
0.000199519
0.000200527
0.000201635
0.000202854
0.000204203
0.000205699
0.000207368
0.00020924
0.000211358
0.000213766
0.000216548
0.000219799
0.000223641
0.000228239
0.000233803
0.000240598
0.000248939
0.000259172
0.000271629
0.000286561
0.000304057
0.000323953
0.000345786
0.000368792
0.000391918
0.000413932
0.000433393
0.00044878
0.000458649
0.000461242
0.000455627
0.00044028
0.000415152
0.00038004
0.000333155
0.000287683
0.000240219
0.000184199
0.000192095
0.000192205
0.000192332
0.000192477
0.000192639
0.00019282
0.000193018
0.000193233
0.000193464
0.000193712
0.000193976
0.000194255
0.000194549
0.000194859
0.000195186
0.000195529
0.00019589
0.000196272
0.000196674
0.000197101
0.000197552
0.000198035
0.000198553
0.00019911
0.000199711
0.00020036
0.000201064
0.000201828
0.000202659
0.000203566
0.000204559
0.000205648
0.000206847
0.000208171
0.000209639
0.000211276
0.00021311
0.000215179
0.000217529
0.000220228
0.000223345
0.000227005
0.000231351
0.00023656
0.000242853
0.000250487
0.000259745
0.000270909
0.000284209
0.000299768
0.000317535
0.000337244
0.000358379
0.000380203
0.00040177
0.00042196
0.000439581
0.000453257
0.000461677
0.000463622
0.000457588
0.000443174
0.000419181
0.000386263
0.000343427
0.000293881
0.000249825
0.000201453
0.000155015
0.000197592
0.000197698
0.00019782
0.000197958
0.000198114
0.000198289
0.000198484
0.000198697
0.000198931
0.000199185
0.000199459
0.000199753
0.000200069
0.000200405
0.000200763
0.000201144
0.000201548
0.000201978
0.000202436
0.000202922
0.000203443
0.000204003
0.000204607
0.000205259
0.000205964
0.000206729
0.000207561
0.000208469
0.000209461
0.000210549
0.000211746
0.000213067
0.000214533
0.000216166
0.000217996
0.000220059
0.000222401
0.000225082
0.000228178
0.000231786
0.000236026
0.000241051
0.000247063
0.000254272
0.000262912
0.000273211
0.000285359
0.000299474
0.000315547
0.000333414
0.000352725
0.000372955
0.000393388
0.000413191
0.000431377
0.000446871
0.00045858
0.000465227
0.00046579
0.000459259
0.000444457
0.000421495
0.000389635
0.000349294
0.000300767
0.000252714
0.00021005
0.00016165
0.000136435
0.000204138
0.000204252
0.00020438
0.000204524
0.000204685
0.000204865
0.000205065
0.000205286
0.000205529
0.000205794
0.000206084
0.000206398
0.000206738
0.000207104
0.000207498
0.00020792
0.000208374
0.00020886
0.00020938
0.000209941
0.000210548
0.000211205
0.000211917
0.000212691
0.000213533
0.000214452
0.000215457
0.00021656
0.000217775
0.000219119
0.00022061
0.000222273
0.000224138
0.000226242
0.000228632
0.000231367
0.00023452
0.000238181
0.000242463
0.000247497
0.000253445
0.000260466
0.000268767
0.000278529
0.000289903
0.000302974
0.000317741
0.000334087
0.000351759
0.000370368
0.000389382
0.000408162
0.000425929
0.000441868
0.000454999
0.000464369
0.000468997
0.000467733
0.000459953
0.000444771
0.000421474
0.000390544
0.000351798
0.000304121
0.000254209
0.000211007
0.000168762
0.000131133
0.000124766
0.00021195
0.000212081
0.000212227
0.00021239
0.000212569
0.000212769
0.000212989
0.000213231
0.000213498
0.000213789
0.000214108
0.000214456
0.000214834
0.000215244
0.000215687
0.000216168
0.000216686
0.000217246
0.000217856
0.00021852
0.000219242
0.00022003
0.000220891
0.000221833
0.000222867
0.000224005
0.000225263
0.000226656
0.000228208
0.000229943
0.000231894
0.0002341
0.000236609
0.000239479
0.000242785
0.000246611
0.00025106
0.000256251
0.000262314
0.00026939
0.000277619
0.00028713
0.000298017
0.00031034
0.000324105
0.0003392
0.000355428
0.000372494
0.000389991
0.000407421
0.000424192
0.000439648
0.00045301
0.00046354
0.000470266
0.000472452
0.000469181
0.000459528
0.000443353
0.000419709
0.00038865
0.000350398
0.000302861
0.00025265
0.000207932
0.000169178
0.00013119
0.000112428
0.000114235
0.000221339
0.000221496
0.000221671
0.000221864
0.000222077
0.000222312
0.00022257
0.000222853
0.000223162
0.000223502
0.000223873
0.000224277
0.000224719
0.000225199
0.000225721
0.000226289
0.00022691
0.000227591
0.000228336
0.000229153
0.00023005
0.000231038
0.000232127
0.000233332
0.000234669
0.000236159
0.000237824
0.000239694
0.000241804
0.000244196
0.000246919
0.000250034
0.000253611
0.000257731
0.000262485
0.000267974
0.000274304
0.000281581
0.000289905
0.000299359
0.000309995
0.000321828
0.000334819
0.000348867
0.000363808
0.000379388
0.000395328
0.000411236
0.000426643
0.000441029
0.000453801
0.000464329
0.000471859
0.000475782
0.000475094
0.000469444
0.000457826
0.000439786
0.000415592
0.000384023
0.000344954
0.00029897
0.00025203
0.000203252
0.000164997
0.000130202
0.000104384
0.000101526
0.000109754
0.00023276
0.000232954
0.00023317
0.00023341
0.000233673
0.000233963
0.000234282
0.000234631
0.000235014
0.000235433
0.000235891
0.000236393
0.000236941
0.00023754
0.000238199
0.000238925
0.000239725
0.000240607
0.000241581
0.00024266
0.000243858
0.00024519
0.000246677
0.000248341
0.000250211
0.000252317
0.000254699
0.0002574
0.000260471
0.00026397
0.000267963
0.000272519
0.000277716
0.000283631
0.000290341
0.000297916
0.000306415
0.000315878
0.000326317
0.000337714
0.000350011
0.000363106
0.000376847
0.000391035
0.000405417
0.000419689
0.000433492
0.000446415
0.000457986
0.00046772
0.000475046
0.000479375
0.000480002
0.000476491
0.000467764
0.000454105
0.00043408
0.000408226
0.000376696
0.00033684
0.000292083
0.00024735
0.000200823
0.000158875
0.000126149
9.9427e-05
8.92791e-05
9.3972e-05
0.000107152
0.000246911
0.000247161
0.000247442
0.000247754
0.000248099
0.000248481
0.000248901
0.000249364
0.000249872
0.000250432
0.000251045
0.000251724
0.000252475
0.000253305
0.000254225
0.000255246
0.000256379
0.000257641
0.000259049
0.000260621
0.000262382
0.000264357
0.000266577
0.000269077
0.000271894
0.000275072
0.000278657
0.0002827
0.000287254
0.000292372
0.000298109
0.000304514
0.00031163
0.000319493
0.000328122
0.000337521
0.000347672
0.000358532
0.000370032
0.00038207
0.000394514
0.000407195
0.000419909
0.000432414
0.000444429
0.000455629
0.000465646
0.00047407
0.000480448
0.000484275
0.000485066
0.000482295
0.000475352
0.000464001
0.00044707
0.000425756
0.000397697
0.000365157
0.00032608
0.000279465
0.000236301
0.000195081
0.00015165
0.000119261
9.34654e-05
8.0038e-05
8.05002e-05
9.21704e-05
0.000107585
0.000264947
0.000265304
0.000265707
0.000266157
0.000266659
0.000267216
0.000267834
0.00026852
0.000269283
0.000270131
0.000271074
0.000272121
0.000273286
0.000274583
0.000276026
0.000277634
0.000279427
0.000281426
0.000283655
0.000286142
0.000288916
0.000292006
0.000295447
0.000299272
0.000303515
0.000308212
0.000313394
0.000319093
0.000325335
0.000332139
0.000339518
0.000347476
0.000356004
0.000365081
0.00037467
0.000384719
0.000395154
0.000405883
0.000416791
0.00042774
0.000438565
0.000449073
0.000459042
0.000468215
0.000476304
0.000482982
0.000487886
0.000490618
0.000490751
0.000487827
0.000481428
0.000471078
0.00045639
0.000437246
0.000412547
0.000384348
0.000348747
0.000310127
0.000264987
0.000223178
0.000183959
0.000144984
0.000111004
8.68303e-05
7.13058e-05
7.13497e-05
7.87073e-05
9.08112e-05
0.00010393
0.000289048
0.000289655
0.000290345
0.000291119
0.000291987
0.000292955
0.000294033
0.00029523
0.000296559
0.000298031
0.00029966
0.000301461
0.00030345
0.000305643
0.000308057
0.000310711
0.000313625
0.000316817
0.000320308
0.000324116
0.000328261
0.000332759
0.000337627
0.000342878
0.000348522
0.000354567
0.000361015
0.000367863
0.000375102
0.000382717
0.000390684
0.000398971
0.000407536
0.000416327
0.000425277
0.000434307
0.000443322
0.000452209
0.000460838
0.000469054
0.000476682
0.00048352
0.000489339
0.000493878
0.000496852
0.000497932
0.000496776
0.000493016
0.00048626
0.000476147
0.000462363
0.000444422
0.000422403
0.000395926
0.000364699
0.000329805
0.000287083
0.000246926
0.00020573
0.000169537
0.000135855
0.000100747
7.845e-05
6.30231e-05
6.28786e-05
6.76283e-05
7.7196e-05
8.99511e-05
0.000105298
0.000324509
0.000325749
0.000327121
0.00032863
0.000330284
0.000332091
0.00033406
0.000336198
0.000338516
0.000341022
0.000343725
0.000346634
0.000349757
0.000353103
0.000356679
0.000360492
0.000364547
0.000368849
0.000373401
0.000378204
0.000383259
0.000388562
0.00039411
0.000399894
0.000405905
0.000412129
0.000418547
0.00042514
0.00043188
0.000438735
0.000445667
0.00045263
0.00045957
0.000466421
0.000473109
0.000479542
0.000485617
0.000491213
0.000496189
0.000500386
0.000503621
0.000505688
0.000506353
0.000505359
0.000502431
0.00049724
0.000489495
0.00047888
0.000465044
0.000447868
0.000426993
0.000401964
0.000373725
0.0003404
0.000302316
0.000262215
0.000223001
0.000187176
0.000150749
0.000121857
9.09023e-05
6.8402e-05
5.51589e-05
5.43581e-05
5.94239e-05
6.76941e-05
7.76395e-05
9.06988e-05
0.000110397
0.000382257
0.000384304
0.000386497
0.000388831
0.000391306
0.000393922
0.000396678
0.000399574
0.000402608
0.000405781
0.000409094
0.000412547
0.00041614
0.000419869
0.000423732
0.000427724
0.00043184
0.000436072
0.000440414
0.000444856
0.00044939
0.000454002
0.00045868
0.000463408
0.000468168
0.000472941
0.000477704
0.000482427
0.000487081
0.000491628
0.000496024
0.000500219
0.000504151
0.00050775
0.000510934
0.000513606
0.000515654
0.000516951
0.000517351
0.000516688
0.000514775
0.000511404
0.000506341
0.000499341
0.000490154
0.000478444
0.000464057
0.000446737
0.000426165
0.000402863
0.000375573
0.000344359
0.000309172
0.000269712
0.000234437
0.000196983
0.000163119
0.000131769
0.000103353
7.9339e-05
5.7876e-05
4.88688e-05
4.79985e-05
5.20866e-05
5.88643e-05
6.80541e-05
7.88867e-05
9.48179e-05
0.000118
0.000466629
0.000468672
0.000470771
0.00047292
0.000475118
0.000477363
0.00047965
0.000481976
0.000484335
0.000486736
0.000489197
0.000491707
0.000494257
0.000496835
0.000499432
0.000502038
0.000504642
0.000507233
0.000509801
0.000512337
0.000514828
0.000517256
0.000519608
0.000521868
0.000524016
0.000526032
0.000527889
0.000529559
0.000531008
0.000532193
0.000533068
0.000533576
0.00053365
0.000533213
0.000532176
0.000530435
0.000527872
0.000524354
0.000519732
0.000513833
0.000506468
0.000497436
0.000486501
0.000473473
0.000458126
0.000440119
0.000419676
0.000396395
0.00037025
0.000340493
0.000306869
0.000270149
0.000236727
0.000200339
0.000169978
0.000136615
0.000109651
8.49086e-05
6.5414e-05
4.78641e-05
4.30821e-05
4.34989e-05
4.62096e-05
5.16772e-05
5.93615e-05
6.9309e-05
8.29304e-05
0.000101141
0.000127725
0.000558579
0.000559408
0.000560207
0.000560976
0.000561723
0.000562444
0.000563121
0.000563747
0.000564322
0.000564846
0.000565317
0.000565731
0.000566081
0.000566359
0.000566559
0.00056667
0.000566683
0.000566585
0.000566391
0.000566081
0.000565625
0.000564996
0.000564197
0.000563221
0.000562045
0.000560654
0.000559015
0.000557098
0.000554865
0.000552265
0.000549246
0.000545743
0.000541683
0.00053698
0.000531536
0.000525244
0.000517982
0.000509613
0.000499993
0.000488928
0.000476242
0.000461765
0.000445256
0.000426675
0.000405802
0.000382357
0.000356838
0.000327912
0.000295228
0.000262137
0.000230274
0.000196866
0.000167074
0.000136744
0.000111029
8.53096e-05
6.69939e-05
5.0817e-05
3.93013e-05
3.66936e-05
3.80084e-05
3.86819e-05
4.29767e-05
4.99679e-05
6.08686e-05
7.43764e-05
9.02131e-05
0.000109725
0.000138671
0.000629667
0.000628674
0.000627592
0.000626447
0.000625351
0.000624201
0.000622881
0.000621405
0.000619817
0.000618132
0.000616332
0.000614408
0.00061235
0.000610151
0.000607803
0.000605295
0.000602615
0.000599752
0.000596682
0.000593366
0.000589721
0.000585729
0.000581616
0.000577332
0.000572798
0.000568058
0.000562981
0.000557612
0.000551853
0.000545648
0.000538937
0.000531649
0.000523704
0.000515004
0.000505443
0.000494931
0.000483341
0.000470537
0.000456401
0.000440611
0.000423171
0.000403918
0.000382653
0.00035962
0.000333495
0.000303903
0.000274593
0.000244255
0.000214464
0.000184295
0.000157103
0.000129211
0.000105148
8.27905e-05
6.40306e-05
4.87664e-05
3.76097e-05
3.22061e-05
3.17994e-05
3.16513e-05
3.19476e-05
3.41383e-05
4.36625e-05
5.72408e-05
7.16172e-05
8.50299e-05
9.98203e-05
0.000119889
0.000149393
0.00065851
0.000655802
0.000652913
0.000649884
0.000646727
0.000643466
0.000640095
0.000636597
0.000632967
0.000629203
0.000625299
0.000621245
0.000617031
0.000612649
0.000608089
0.000603338
0.000598387
0.000593222
0.000587828
0.000582188
0.000576279
0.000570079
0.00056362
0.000556861
0.000549509
0.00054241
0.000534346
0.000526482
0.000517855
0.00050871
0.000498977
0.000488582
0.000477437
0.000465414
0.000452422
0.00043848
0.000423386
0.000407021
0.000389311
0.000369043
0.000347263
0.000322498
0.000297431
0.000271129
0.00024356
0.000216678
0.000189123
0.00016348
0.000138233
0.000114539
9.33696e-05
7.34404e-05
5.77991e-05
4.37249e-05
3.34468e-05
2.7402e-05
2.5413e-05
2.4821e-05
2.37836e-05
2.19759e-05
2.6573e-05
4.0096e-05
5.69291e-05
7.24488e-05
8.47571e-05
9.62879e-05
0.000110452
0.000130478
0.000158447
0.000631413
0.000627609
0.000623653
0.00061954
0.000615275
0.000610857
0.000606286
0.000601559
0.000596673
0.000591624
0.000586407
0.000581016
0.000575445
0.000569685
0.000563726
0.000557561
0.000551179
0.000544568
0.000537714
0.000530606
0.000523246
0.000515606
0.000507665
0.00049939
0.00049073
0.000481704
0.000472231
0.000462307
0.000451857
0.000440817
0.000429111
0.000416661
0.000403361
0.000388958
0.000373318
0.000356306
0.000337764
0.000317942
0.000296361
0.00027418
0.000250474
0.000227399
0.000202518
0.000179607
0.000155436
0.000133634
0.00011187
9.3328e-05
7.52434e-05
6.01434e-05
4.66997e-05
3.59204e-05
2.7252e-05
2.20734e-05
1.93074e-05
1.82913e-05
1.70841e-05
1.39396e-05
1.38381e-05
2.11292e-05
3.41168e-05
5.27386e-05
7.06026e-05
8.49156e-05
9.62136e-05
0.000107544
0.000121478
0.000140491
0.000165293
0.000544511
0.000540391
0.000536124
0.000531707
0.000527142
0.000522426
0.000517556
0.000512531
0.000507347
0.000502
0.000496486
0.000490798
0.00048493
0.000478874
0.000472623
0.000466189
0.000459557
0.000452709
0.000445632
0.000438307
0.000430717
0.000422839
0.000414637
0.000406074
0.000397115
0.000387685
0.000377705
0.000367094
0.000355766
0.000343634
0.000330605
0.000316603
0.000301517
0.000285555
0.000268614
0.000250863
0.000232061
0.000212912
0.000192695
0.000173152
0.000152334
0.00013369
0.000113823
9.73511e-05
8.04205e-05
6.66164e-05
5.38972e-05
4.33472e-05
3.34425e-05
2.55496e-05
1.96566e-05
1.58563e-05
1.35796e-05
1.12677e-05
1.02484e-05
7.51322e-06
6.77037e-06
8.56524e-06
1.35346e-05
2.45564e-05
4.11102e-05
6.03392e-05
7.78479e-05
9.25721e-05
0.000104844
0.000117248
0.000131181
0.000148326
0.000168905
0.00039986
0.00039631
0.000392657
0.000388898
0.00038503
0.000381048
0.000376959
0.000372763
0.000368453
0.000364021
0.00035946
0.000354764
0.000349923
0.000344932
0.000339778
0.000334459
0.000328964
0.000323282
0.000317408
0.000311317
0.000304987
0.000298376
0.000291398
0.000283913
0.000275857
0.00026719
0.000257865
0.000247839
0.000237068
0.00022553
0.000213204
0.000200126
0.000186315
0.000171894
0.000156877
0.000141708
0.00012624
0.00011136
9.65257e-05
8.31121e-05
7.00202e-05
5.89908e-05
4.82981e-05
3.99791e-05
3.19015e-05
2.58782e-05
2.04173e-05
1.50211e-05
1.15715e-05
9.15531e-06
7.18595e-06
5.32551e-06
4.1784e-06
3.41494e-06
3.3285e-06
3.32259e-06
3.86245e-06
6.6317e-06
1.33639e-05
2.45436e-05
4.01523e-05
5.76556e-05
7.40429e-05
8.84858e-05
0.000101631
0.000114742
0.00012843
0.000143917
0.000161417
0.000221905
0.000219785
0.000217607
0.000215367
0.000213065
0.000210698
0.000208263
0.000205759
0.000203183
0.000200534
0.000197805
0.000194995
0.000192093
0.000189104
0.000186008
0.000182814
0.000179504
0.000176065
0.000172529
0.000168772
0.000164798
0.000160388
0.000155415
0.000149894
0.000143807
0.000137167
0.000129943
0.000122169
0.000113888
0.000105198
9.61941e-05
8.70441e-05
7.78818e-05
6.89309e-05
6.03047e-05
5.22409e-05
4.47599e-05
3.80522e-05
3.20368e-05
2.67528e-05
2.21403e-05
1.80172e-05
1.45132e-05
1.13094e-05
8.71267e-06
6.3661e-06
4.62612e-06
3.44679e-06
2.67851e-06
2.09648e-06
1.66965e-06
1.51246e-06
1.47807e-06
1.49518e-06
1.3709e-06
1.29951e-06
1.85952e-06
3.31846e-06
6.2699e-06
1.22047e-05
2.21868e-05
3.60664e-05
5.1051e-05
6.46425e-05
7.72703e-05
8.96214e-05
0.000101773
0.000114126
0.000128312
6.74376e-05
6.67286e-05
6.60033e-05
6.5263e-05
6.4504e-05
6.37275e-05
6.29285e-05
6.21103e-05
6.12647e-05
6.03993e-05
5.94998e-05
5.85818e-05
5.76195e-05
5.66432e-05
5.56081e-05
5.45619e-05
5.34486e-05
5.22965e-05
5.11186e-05
4.95567e-05
4.76173e-05
4.53782e-05
4.29145e-05
4.02806e-05
3.75379e-05
3.47366e-05
3.19385e-05
2.91973e-05
2.65411e-05
2.4009e-05
2.16084e-05
1.93602e-05
1.72524e-05
1.5296e-05
1.34599e-05
1.17553e-05
1.01267e-05
8.61053e-06
7.12533e-06
5.75357e-06
4.42269e-06
3.26574e-06
2.32135e-06
1.62169e-06
1.16182e-06
8.44162e-07
6.59998e-07
5.54619e-07
4.85428e-07
4.16202e-07
3.50666e-07
3.02368e-07
2.73853e-07
2.04545e-07
1.57267e-07
1.5544e-07
2.31502e-07
4.22758e-07
8.43286e-07
1.80901e-06
3.99731e-06
8.081e-06
1.41316e-05
2.01499e-05
2.55353e-05
3.11587e-05
3.65183e-05
4.17009e-05
4.88094e-05
5.78747e-06
5.85914e-06
5.93411e-06
6.00587e-06
6.0815e-06
6.15217e-06
6.22716e-06
6.29645e-06
6.36844e-06
6.43718e-06
6.50263e-06
6.57139e-06
6.62763e-06
6.68936e-06
6.73924e-06
6.77074e-06
6.79626e-06
6.8194e-06
6.85284e-06
6.87666e-06
6.88937e-06
6.8941e-06
6.89069e-06
6.87597e-06
6.84559e-06
6.79537e-06
6.72152e-06
6.62043e-06
6.48788e-06
6.31912e-06
6.10849e-06
5.84979e-06
5.53625e-06
5.16116e-06
4.71826e-06
4.20294e-06
3.61486e-06
2.95885e-06
2.26049e-06
1.54138e-06
8.77209e-07
3.80913e-07
1.25227e-07
6.36726e-08
6.1082e-08
5.86151e-08
5.19407e-08
4.50516e-08
3.73637e-08
2.97468e-08
2.43021e-08
1.93188e-08
1.42316e-08
1.02414e-08
8.51754e-09
1.02961e-08
1.86852e-08
3.91707e-08
7.80366e-08
1.38101e-07
2.16216e-07
3.04034e-07
3.98818e-07
5.19003e-07
6.5632e-07
7.91535e-07
9.14312e-07
1.02638e-06
1.16823e-06
0.000172311
0.000172245
0.00017222
0.000172223
0.000172207
0.000172169
0.000172121
0.000172008
0.000171908
0.000171819
0.000171735
0.000171662
0.000171633
0.000171612
0.000171349
0.00017105
0.000170976
0.000170969
0.000170833
0.000170628
0.000170595
0.000170692
0.000170483
0.000170412
0.000170168
0.000169971
0.000170012
0.000169991
0.000170005
0.000169988
0.000169811
0.000169715
0.000169692
0.000169619
0.000169586
0.000169477
0.000169481
0.000169487
0.000169473
0.000169491
0.000169327
0.000169346
0.000169289
0.000169189
0.00016924
0.000169207
0.000169151
0.00016917
0.000169241
0.000169274
0.000169332
0.000169395
0.000169427
0.000169403
0.000169424
0.000169489
0.000169504
0.000169582
0.000169582
0.000174222
0.000174181
0.000174154
0.000174139
0.000174105
0.000174055
0.000173978
0.000173903
0.000173769
0.000173599
0.000173532
0.000173461
0.000173376
0.000173264
0.000172935
0.000172807
0.000172798
0.00017265
0.000172463
0.000172335
0.000172348
0.000172342
0.000172059
0.000171989
0.000171715
0.000171563
0.000171589
0.000171575
0.000171533
0.000171469
0.000171333
0.000171233
0.000171181
0.000171085
0.000171064
0.00017098
0.000170928
0.000170943
0.000170946
0.000170943
0.000170876
0.000170827
0.000170782
0.000170722
0.000170698
0.000170675
0.000170662
0.000170615
0.000170692
0.000170777
0.000170841
0.000170948
0.000171032
0.000171094
0.000171112
0.000171177
0.000171192
0.000171265
0.000171283
0.000176493
0.000176423
0.000176363
0.000176285
0.000176202
0.000176096
0.000176107
0.000176013
0.000175907
0.00017579
0.000175691
0.00017554
0.000175381
0.000175172
0.00017493
0.00017486
0.000174801
0.000174568
0.000174397
0.000174332
0.000174358
0.000174216
0.000173928
0.000173836
0.000173552
0.000173429
0.000173437
0.000173418
0.000173328
0.000173231
0.000173122
0.000173009
0.000172932
0.000172824
0.000172796
0.000172722
0.000172663
0.000172647
0.000172657
0.000172658
0.000172612
0.000172572
0.000172531
0.000172491
0.000172474
0.000172427
0.000172398
0.000172389
0.00017236
0.000172476
0.000172526
0.000172626
0.000172736
0.000172873
0.000172969
0.000173073
0.000173172
0.000173255
0.000173314
0.00017919
0.000179105
0.000179029
0.00017894
0.00017885
0.000178762
0.000178688
0.000178569
0.000178431
0.000178286
0.000178126
0.000177914
0.000177728
0.000177527
0.000177353
0.000177262
0.000177082
0.000176854
0.000176737
0.000176697
0.000176641
0.000176395
0.000176123
0.000175996
0.000175712
0.000175609
0.000175603
0.000175555
0.000175425
0.000175304
0.000175205
0.000175075
0.00017498
0.000174865
0.000174824
0.000174752
0.000174685
0.000174653
0.000174661
0.000174657
0.000174633
0.000174589
0.000174549
0.000174517
0.00017449
0.000174482
0.000174407
0.000174403
0.000174382
0.000174427
0.000174542
0.000174599
0.000174689
0.000174798
0.000174916
0.000175039
0.000175153
0.000175271
0.000175362
0.000182342
0.000182241
0.000182152
0.000182046
0.000181935
0.000181813
0.000181677
0.000181513
0.000181333
0.000181145
0.000180942
0.00018072
0.000180538
0.000180345
0.000180166
0.000179992
0.000179759
0.000179566
0.000179454
0.00017936
0.000179276
0.000178949
0.000178695
0.000178525
0.000178246
0.000178153
0.000178118
0.000178038
0.000177873
0.000177734
0.00017763
0.000177482
0.000177371
0.000177247
0.000177191
0.00017712
0.000177038
0.000176997
0.000176997
0.000176991
0.000176978
0.000176947
0.000176905
0.000176871
0.000176835
0.000176824
0.000176783
0.000176789
0.000176722
0.00017673
0.000176807
0.000176928
0.000176998
0.000177089
0.000177193
0.000177309
0.000177425
0.000177548
0.000177659
0.000185995
0.000185869
0.000185755
0.000185617
0.000185469
0.000185302
0.00018512
0.00018492
0.000184711
0.000184497
0.000184278
0.000184058
0.000183858
0.000183637
0.000183409
0.000183173
0.00018294
0.000182768
0.000182638
0.000182508
0.000182323
0.000181956
0.000181709
0.000181496
0.000181224
0.000181128
0.000181056
0.000180937
0.000180742
0.000180584
0.000180466
0.000180299
0.00018017
0.000180034
0.000179964
0.000179886
0.000179798
0.00017974
0.000179727
0.000179721
0.000179713
0.000179694
0.000179665
0.000179636
0.000179602
0.000179577
0.000179535
0.000179554
0.000179515
0.000179568
0.000179594
0.00017968
0.000179743
0.000179819
0.000179907
0.000180007
0.000180114
0.000180229
0.000180339
0.000190237
0.000190076
0.000189928
0.000189754
0.000189569
0.000189367
0.000189154
0.000188931
0.000188702
0.000188468
0.000188229
0.000187986
0.000187738
0.000187468
0.000187197
0.000186938
0.000186715
0.000186534
0.000186363
0.000186169
0.000185889
0.000185506
0.000185251
0.000184996
0.000184728
0.000184616
0.0001845
0.000184338
0.000184114
0.000183936
0.000183796
0.000183608
0.000183458
0.000183308
0.000183221
0.000183133
0.000183041
0.000182967
0.000182935
0.000182919
0.000182912
0.000182902
0.000182883
0.000182862
0.000182839
0.000182816
0.000182784
0.000182775
0.000182739
0.000182805
0.000182867
0.000182953
0.000183051
0.000183101
0.000183169
0.000183251
0.000183341
0.000183442
0.00018354
0.000195201
0.000195003
0.000194821
0.000194614
0.000194399
0.000194169
0.000193929
0.00019368
0.000193423
0.000193155
0.000192876
0.000192585
0.000192285
0.000191975
0.00019168
0.000191414
0.00019118
0.00019096
0.000190727
0.000190451
0.000190093
0.000189702
0.000189425
0.000189129
0.000188859
0.000188715
0.000188549
0.000188341
0.000188089
0.000187885
0.000187717
0.000187505