/*--------------------------------*- C++ -*----------------------------------*\
| =========                 |                                                 |
| \\      /  F ield         | OpenFOAM: The Open Source CFD Toolbox           |
|  \\    /   O peration     | Version:  2312                                  |
|   \\  /    A nd           | Website:  www.openfoam.com                      |
|    \\/     M anipulation  |                                                 |
\*---------------------------------------------------------------------------*/
FoamFile
{
    version     2.0;
    format      ascii;
    arch        "LSB;label=32;scalar=64";
    class       volScalarField;
    location    "2000";
    object      omega;
}
// * * * * * * * * * * * * * * * * * * * * * * * * * * * * * * * * * * * * * //

dimensions      [0 0 -1 0 0 0 0];

internalField   nonuniform List<scalar> 
76025
(
0.0290874
0.0290745
0.0290703
0.0290567
0.029054
0.0290453
0.0290393
0.0290327
0.0290327
0.0290343
0.0290359
0.0290383
0.029046
0.0290507
0.0290628
0.0290713
0.0290861
0.0291005
0.0291166
0.029135
0.0291578
0.0291854
0.029215
0.0292479
0.0292894
0.0293274
0.0293759
0.0294163
0.0294729
0.0295219
0.0295827
0.0296376
0.0297027
0.0297695
0.0298398
0.0299134
0.0299937
0.0300773
0.0301685
0.0302638
0.0303686
0.0304894
0.0306182
0.0307674
0.0309323
0.0311291
0.0313438
0.0315963
0.0318954
0.0322402
0.0326539
0.0331203
0.0337065
0.0343788
0.0352886
0.0362797
0.0376054
0.0392718
0.0414367
0.0441709
0.0473737
0.0514442
0.056303
0.0621511
0.0694016
0.0778754
0.0890273
0.104548
0.120879
0.0293464
0.0293335
0.0293307
0.0293173
0.0293092
0.0293094
0.0293094
0.029309
0.0293095
0.0293117
0.0293157
0.0293205
0.0293283
0.0293357
0.0293482
0.0293593
0.0293751
0.0293911
0.0294105
0.0294307
0.0294544
0.0294805
0.0295105
0.0295424
0.0295804
0.0296182
0.0296629
0.0297092
0.029761
0.0298165
0.0298776
0.0299397
0.0300087
0.0300807
0.030159
0.030243
0.0303329
0.0304307
0.0305371
0.0306524
0.0307811
0.0309224
0.0310832
0.0312626
0.0314677
0.0316996
0.0319654
0.0322729
0.0326267
0.0330422
0.0335243
0.0341073
0.0347947
0.0356568
0.0366955
0.0380259
0.0397034
0.0418247
0.0444542
0.047623
0.05144
0.0559258
0.0612049
0.0675842
0.0754799
0.0853523
0.0987275
0.116077
0.136676
0.0296328
0.0296272
0.0296266
0.0296129
0.0296128
0.0296145
0.029618
0.0296225
0.0296278
0.0296339
0.0296414
0.0296495
0.0296596
0.0296699
0.0296833
0.0296973
0.0297142
0.0297326
0.0297538
0.0297768
0.0298026
0.0298309
0.0298624
0.0298967
0.029935
0.0299761
0.030022
0.0300719
0.0301266
0.0301859
0.0302508
0.0303203
0.030396
0.0304775
0.0305661
0.030662
0.0307665
0.0308802
0.0310049
0.0311412
0.0312924
0.0314614
0.031651
0.0318644
0.0321061
0.0323809
0.0326961
0.0330584
0.0334805
0.0339737
0.0345612
0.0352631
0.0361231
0.0371781
0.0384994
0.0401505
0.0422056
0.0447266
0.0477547
0.0513484
0.0555443
0.0604985
0.0663906
0.0736389
0.0826904
0.0940184
0.109625
0.129017
0.154784
0.0299991
0.0299991
0.0299841
0.0299868
0.0299907
0.0299953
0.0300007
0.0300068
0.0300139
0.0300219
0.0300312
0.0300416
0.0300536
0.0300667
0.0300816
0.030098
0.0301166
0.0301372
0.0301603
0.0301858
0.0302142
0.0302453
0.0302797
0.0303173
0.0303586
0.030404
0.0304541
0.030509
0.0305692
0.0306349
0.0307066
0.0307846
0.0308696
0.0309621
0.0310629
0.0311726
0.0312929
0.0314243
0.0315691
0.0317282
0.0319051
0.0321032
0.0323259
0.0325775
0.0328631
0.0331895
0.0335648
0.0340004
0.0345101
0.0351144
0.0358379
0.0367171
0.0377951
0.0391292
0.0407804
0.0428115
0.0452759
0.0482113
0.0516565
0.0556602
0.0603266
0.0658556
0.072486
0.0807589
0.0910563
0.104272
0.122621
0.144593
0.178228
0.0304243
0.0304293
0.0304307
0.0304341
0.0304392
0.0304455
0.0304528
0.0304609
0.0304701
0.0304803
0.0304918
0.0305045
0.0305188
0.0305346
0.030552
0.0305711
0.0305923
0.0306156
0.0306415
0.0306699
0.0307013
0.0307357
0.0307738
0.0308151
0.0308609
0.0309115
0.0309672
0.0310284
0.0310956
0.0311692
0.0312497
0.0313377
0.0314339
0.031539
0.0316541
0.0317801
0.0319185
0.0320706
0.0322388
0.0324245
0.0326317
0.0328645
0.0331274
0.0334257
0.0337663
0.034158
0.0346122
0.035144
0.0357733
0.0365264
0.0374376
0.0385494
0.0399125
0.0415816
0.0436088
0.0460377
0.0488999
0.0522247
0.0560616
0.0604971
0.0656952
0.0719098
0.0794683
0.0890106
0.100883
0.116589
0.13804
0.163616
0.208912
0.0308966
0.0309068
0.0309169
0.0309272
0.0309382
0.0309498
0.0309621
0.0309751
0.0309889
0.0310036
0.0310194
0.0310364
0.0310547
0.0310746
0.031096
0.0311193
0.0311446
0.031172
0.0312019
0.0312346
0.0312703
0.0313093
0.0313519
0.0313985
0.0314501
0.0315069
0.0315696
0.0316385
0.0317142
0.0317973
0.0318884
0.0319883
0.0320979
0.0322182
0.0323503
0.0324956
0.032656
0.0328331
0.0330298
0.0332482
0.0334928
0.0337691
0.034083
0.0344418
0.0348547
0.035334
0.0358954
0.0365597
0.0373535
0.0383101
0.0394699
0.0408781
0.0425816
0.044623
0.047036
0.0498468
0.0530813
0.0567832
0.061039
0.0659821
0.0718465
0.0789364
0.0876887
0.0988008
0.112665
0.131586
0.156565
0.187879
0.251819
0.0314471
0.0314585
0.0314717
0.031486
0.0315015
0.0315181
0.0315357
0.0315542
0.0315736
0.0315941
0.0316156
0.0316383
0.0316624
0.0316879
0.0317152
0.0317442
0.0317753
0.0318086
0.0318445
0.0318831
0.0319249
0.0319703
0.0320194
0.0320733
0.0321326
0.0321978
0.0322695
0.0323483
0.0324348
0.0325299
0.0326344
0.0327493
0.0328757
0.0330148
0.0331684
0.0333381
0.0335261
0.033735
0.0339679
0.0342286
0.0345218
0.0348556
0.0352377
0.0356785
0.0361909
0.0367917
0.0375024
0.0383496
0.0393657
0.0405876
0.0420549
0.0438061
0.0458746
0.0482863
0.0510617
0.054227
0.0578239
0.0619322
0.0666856
0.0722703
0.0789939
0.0872109
0.0974943
0.110545
0.127028
0.150046
0.179232
0.220804
0.312618
0.0321042
0.0321144
0.0321271
0.032142
0.032159
0.0321779
0.0321986
0.0322208
0.0322447
0.03227
0.0322969
0.0323253
0.0323554
0.0323872
0.032421
0.0324568
0.0324949
0.0325355
0.0325789
0.0326252
0.0326752
0.0327286
0.0327869
0.0328506
0.0329203
0.0329966
0.0330802
0.033172
0.0332729
0.0333837
0.0335057
0.0336401
0.0337884
0.0339522
0.0341337
0.0343352
0.0345595
0.0348104
0.0350917
0.0354094
0.035769
0.0361819
0.0366593
0.0372153
0.0378676
0.0386382
0.0395533
0.0406431
0.0419405
0.0434784
0.0452871
0.0473913
0.0498109
0.0525639
0.0556757
0.0591928
0.0631895
0.0677933
0.0731869
0.0796148
0.0874631
0.0971449
0.109392
0.124875
0.144922
0.173027
0.208162
0.26526
0.395243
0.0328939
0.0329025
0.0329138
0.0329277
0.0329442
0.0329633
0.0329848
0.0330087
0.0330349
0.0330633
0.033094
0.0331269
0.0331621
0.0331997
0.0332397
0.0332824
0.0333278
0.0333763
0.0334281
0.0334835
0.0335428
0.0336069
0.0336767
0.0337527
0.0338357
0.0339264
0.0340257
0.0341346
0.0342543
0.0343861
0.0345313
0.0346916
0.0348691
0.035066
0.035285
0.0355296
0.0358036
0.0361123
0.0364612
0.0368589
0.0373131
0.0378389
0.0384519
0.0391705
0.0400164
0.0410143
0.0421913
0.0435749
0.0451908
0.0470615
0.0492052
0.0516373
0.0543763
0.0574499
0.0609065
0.0648263
0.0693237
0.0745807
0.0808278
0.0883776
0.0977063
0.109302
0.124066
0.142709
0.16769
0.202141
0.246448
0.328889
0.50387
0.0338421
0.0338502
0.0338609
0.033874
0.0338899
0.0339087
0.0339303
0.0339548
0.0339822
0.0340125
0.0340458
0.034082
0.0341213
0.0341638
0.0342095
0.0342587
0.0343115
0.0343681
0.034429
0.0344941
0.0345648
0.0346415
0.0347252
0.0348164
0.034916
0.035025
0.0351445
0.0352759
0.0354204
0.0355799
0.0357562
0.0359517
0.036169
0.0364114
0.0366828
0.0369879
0.0373327
0.0377241
0.0381709
0.0386839
0.0392756
0.0399618
0.0407631
0.0416999
0.0427941
0.0440683
0.0455437
0.0472392
0.0491708
0.0513522
0.0537984
0.056529
0.0595781
0.0629964
0.066867
0.0713088
0.0764803
0.0826258
0.0900209
0.0990714
0.110362
0.124473
0.142491
0.165471
0.19729
0.239876
0.300355
0.427618
0.626836
0.0349789
0.0349878
0.0349992
0.035013
0.0350295
0.035049
0.0350714
0.035097
0.035126
0.0351583
0.0351942
0.0352338
0.0352773
0.0353247
0.0353762
0.0354321
0.0354927
0.0355583
0.035629
0.0357062
0.0357904
0.0358823
0.0359829
0.036093
0.0362138
0.0363464
0.0364924
0.0366534
0.0368314
0.0370287
0.0372481
0.0374928
0.0377668
0.0380746
0.038422
0.0388158
0.0392643
0.0397769
0.0403655
0.0410428
0.0418245
0.0427252
0.0437658
0.0449647
0.0463392
0.0479045
0.0496737
0.0516592
0.0538734
0.0563328
0.0590624
0.0620998
0.0655053
0.0693594
0.0737869
0.0789456
0.0850474
0.0924107
0.101353
0.112427
0.12634
0.14378
0.166138
0.195451
0.236517
0.290986
0.382264
0.556386
0.75069
0.036343
0.0363539
0.0363674
0.0363834
0.0364022
0.036424
0.0364491
0.0364775
0.0365096
0.0365455
0.0365856
0.03663
0.036679
0.0367328
0.0367917
0.0368562
0.0369264
0.0370031
0.0370873
0.0371798
0.0372815
0.0373931
0.037516
0.0376512
0.0378005
0.0379654
0.038148
0.0383509
0.0385767
0.0388289
0.0391114
0.0394289
0.039787
0.0401922
0.0406524
0.0411763
0.0417742
0.0424574
0.0432383
0.0441301
0.0451463
0.0463005
0.0476047
0.049072
0.0507165
0.052547
0.0545752
0.0568161
0.0592901
0.0620279
0.0650742
0.0684919
0.0723731
0.0768305
0.0820405
0.0881983
0.0955927
0.104629
0.115663
0.12951
0.146969
0.16889
0.197466
0.236248
0.289677
0.365853
0.505795
0.704565
0.863013
0.0379873
0.0380013
0.0380181
0.0380378
0.0380606
0.0380868
0.0381165
0.0381502
0.0381879
0.0382302
0.0382772
0.0383294
0.0383871
0.0384506
0.0385206
0.0385973
0.0386823
0.0387762
0.03888
0.0389947
0.0391214
0.0392617
0.0394171
0.0395895
0.0397811
0.0399945
0.0402326
0.0404991
0.0407978
0.0411336
0.0415119
0.0419389
0.0424217
0.0429683
0.0435874
0.0442885
0.0450815
0.0459766
0.0469841
0.0481137
0.0493751
0.050777
0.0523281
0.0540374
0.0559159
0.0579757
0.0602407
0.0627369
0.0654994
0.0685804
0.0720486
0.0759969
0.0805539
0.085869
0.0921893
0.0997404
0.108945
0.120285
0.134187
0.151928
0.174237
0.202538
0.240695
0.293135
0.365239
0.482503
0.666971
0.850649
0.945481
0.0399873
0.0400053
0.0400269
0.040052
0.0400809
0.040114
0.0401514
0.0401935
0.0402407
0.0402934
0.0403521
0.0404172
0.0404893
0.040569
0.0406578
0.0407566
0.0408663
0.0409881
0.0411236
0.0412741
0.0414417
0.0416282
0.0418362
0.0420684
0.0423278
0.0426182
0.0429435
0.0433083
0.0437178
0.0441775
0.0446937
0.0452729
0.0459224
0.0466494
0.0474615
0.0483661
0.0493706
0.0504823
0.0517081
0.053055
0.0545307
0.0561434
0.0579037
0.059825
0.0619252
0.0642285
0.0667668
0.0695839
0.0727339
0.0762993
0.0803736
0.0850895
0.0906185
0.0971589
0.105061
0.11456
0.126341
0.14087
0.158814
0.182208
0.211357
0.249493
0.302537
0.374364
0.481159
0.651346
0.84396
0.9633
0.989074
0.0424548
0.0424791
0.0425083
0.0425422
0.0425812
0.0426258
0.0426762
0.042733
0.0427966
0.0428678
0.0429469
0.0430356
0.0431348
0.0432455
0.0433689
0.0435065
0.0436598
0.0438306
0.0440208
0.0442328
0.0444689
0.0447321
0.0450253
0.045352
0.0457159
0.0461211
0.0465719
0.0470731
0.0476294
0.048246
0.0489282
0.0496811
0.0505103
0.051421
0.0524187
0.0535088
0.0546971
0.05599
0.0573946
0.0589198
0.0605762
0.0623779
0.0643424
0.0664928
0.0688586
0.0714782
0.0743997
0.0776869
0.0814174
0.0856957
0.0906534
0.0964873
0.103417
0.111721
0.121895
0.13415
0.149693
0.168651
0.192681
0.224552
0.263588
0.317924
0.392994
0.496715
0.658578
0.856059
0.981957
1.0184
1.00515
0.0455685
0.0456058
0.04565
0.0457013
0.04576
0.0458269
0.0459024
0.0459876
0.0460835
0.0461913
0.0463118
0.0464462
0.0465959
0.0467624
0.0469474
0.0471525
0.0473798
0.0476313
0.0479093
0.0482164
0.0485552
0.0489284
0.0493391
0.0497903
0.0502854
0.0508277
0.0514208
0.0520682
0.0527736
0.0535408
0.0543738
0.0552768
0.0562543
0.0573113
0.0584535
0.0596874
0.061021
0.0624636
0.064027
0.0657255
0.067577
0.0696038
0.0718339
0.0743023
0.0770523
0.0801394
0.0836312
0.087618
0.092204
0.0975421
0.103796
0.111275
0.120238
0.131131
0.144607
0.16086
0.182039
0.207377
0.241342
0.285493
0.339971
0.421662
0.529059
0.68729
0.893201
1.01367
1.04903
1.03868
0.992869
0.0496395
0.0497063
0.0497841
0.0498729
0.0499734
0.0500865
0.0502129
0.0503535
0.0505095
0.0506819
0.0508721
0.0510812
0.0513107
0.051562
0.0518366
0.0521362
0.0524625
0.0528172
0.0532022
0.0536195
0.0540711
0.0545591
0.0550859
0.0556538
0.0562652
0.056923
0.05763
0.0583895
0.059205
0.0600807
0.0610211
0.0620317
0.0631187
0.0642896
0.0655531
0.0669197
0.0684018
0.0700144
0.0717758
0.0737077
0.0758372
0.0781968
0.0808269
0.0837773
0.0871092
0.0909007
0.0952454
0.100274
0.106125
0.113034
0.121211
0.131158
0.14311
0.157927
0.17625
0.198645
0.228551
0.263657
0.314121
0.375111
0.458026
0.582596
0.738374
0.956124
1.05977
1.08401
1.07119
1.03109
0.935588
0.0552307
0.055352
0.0554879
0.0556383
0.0558039
0.0559854
0.0561834
0.0563986
0.0566319
0.0568841
0.057156
0.0574486
0.0577628
0.0580997
0.0584604
0.058846
0.0592578
0.0596971
0.0601654
0.0606642
0.0611954
0.061761
0.0623632
0.0630046
0.0636882
0.0644173
0.0651959
0.0660284
0.0669201
0.0678771
0.0689066
0.0700167
0.0712172
0.0725193
0.0739363
0.0754838
0.0771802
0.0790474
0.0811115
0.0834042
0.0859636
0.088836
0.0920786
0.0957621
0.0999736
0.104825
0.110449
0.117045
0.124791
0.13409
0.145175
0.158932
0.17537
0.196417
0.222027
0.254747
0.297871
0.34929
0.425481
0.512004
0.649963
0.829256
1.03732
1.12521
1.12667
1.10581
1.05138
0.960692
0.834537
0.0630903
0.063263
0.0634524
0.0636577
0.0638789
0.0641162
0.0643697
0.0646397
0.0649265
0.0652307
0.0655533
0.065895
0.0662566
0.0666392
0.0670438
0.0674716
0.0679238
0.0684021
0.0689081
0.0694441
0.0700126
0.0706162
0.0712584
0.071943
0.0726742
0.0734572
0.0742979
0.075203
0.0761804
0.077239
0.0783894
0.0796435
0.0810154
0.0825213
0.08418
0.0860138
0.088049
0.0903166
0.0928541
0.0957063
0.0989283
0.102586
0.106764
0.111565
0.117116
0.123586
0.13117
0.140188
0.150864
0.163959
0.179567
0.199426
0.222916
0.254403
0.291297
0.342026
0.40405
0.485432
0.597924
0.73569
0.957891
1.13307
1.19376
1.18101
1.14057
1.05099
0.947532
0.844056
0.71888
0.0738778
0.0740746
0.0742833
0.0745033
0.0747353
0.0749797
0.0752368
0.075507
0.0757912
0.0760916
0.076412
0.0767527
0.0771141
0.0774972
0.0779031
0.0783332
0.0787894
0.0792737
0.0797892
0.0803393
0.0809277
0.0815588
0.0822372
0.0829687
0.0837597
0.0846174
0.0855506
0.0865687
0.087683
0.0889064
0.0902536
0.0917417
0.0933905
0.095223
0.0972662
0.099552
0.102118
0.10501
0.108283
0.112002
0.11625
0.121126
0.126759
0.133304
0.140963
0.149994
0.160711
0.17364
0.189074
0.208442
0.231447
0.261586
0.296903
0.345777
0.400831
0.481756
0.572237
0.708255
0.872105
1.10963
1.25025
1.26827
1.24249
1.17098
1.02882
0.900369
0.804616
0.715351
0.609901
0.0880999
0.0882905
0.0884892
0.0886963
0.0889129
0.0891395
0.089377
0.0896261
0.0898887
0.0901663
0.0904608
0.0907739
0.0911076
0.0914641
0.0918455
0.0922545
0.0926941
0.0931675
0.0936845
0.0942489
0.0948652
0.0955388
0.0962771
0.0970882
0.0979815
0.0989671
0.100057
0.101266
0.102608
0.104102
0.10577
0.107636
0.109728
0.112081
0.114733
0.117733
0.121139
0.125018
0.129458
0.134557
0.140453
0.147289
0.155297
0.164696
0.175858
0.189169
0.205194
0.224859
0.24849
0.278828
0.314514
0.362225
0.41785
0.493979
0.581443
0.708725
0.850684
1.07262
1.28274
1.36788
1.35234
1.3014
1.16391
0.964257
0.809573
0.72056
0.662751
0.598879
0.519325
0.106616
0.106782
0.106954
0.107134
0.107322
0.107521
0.107731
0.107955
0.108195
0.108452
0.108729
0.109028
0.109353
0.109706
0.110091
0.110512
0.110974
0.111481
0.112039
0.112657
0.113341
0.114102
0.114959
0.115922
0.117004
0.118217
0.119582
0.121114
0.122841
0.124786
0.126983
0.129467
0.132284
0.135485
0.139135
0.143307
0.148098
0.153616
0.160015
0.16744
0.176153
0.186348
0.198521
0.21291
0.230411
0.251371
0.277312
0.309031
0.347621
0.39702
0.454559
0.531996
0.621522
0.741291
0.88755
1.08009
1.31712
1.46207
1.47768
1.44644
1.34211
1.10734
0.842481
0.676972
0.604034
0.575364
0.548839
0.506151
0.449597
0.131254
0.131405
0.131563
0.131728
0.131904
0.132094
0.132299
0.132522
0.132765
0.133033
0.133327
0.133652
0.134013
0.134413
0.134859
0.135355
0.135909
0.136529
0.137222
0.137998
0.138871
0.139853
0.140973
0.142245
0.143688
0.145325
0.147181
0.149288
0.151682
0.154405
0.157511
0.161061
0.165129
0.169803
0.175194
0.18143
0.188688
0.197144
0.207121
0.218791
0.232849
0.249318
0.269667
0.293536
0.323624
0.359069
0.404242
0.456806
0.522973
0.603116
0.699634
0.825664
0.969031
1.16606
1.39155
1.56089
1.61273
1.59367
1.51092
1.31398
0.950905
0.664517
0.533276
0.484942
0.476899
0.476251
0.464866
0.437107
0.398175
0.166054
0.166232
0.16642
0.166621
0.166839
0.167076
0.167337
0.167625
0.167944
0.168299
0.168694
0.169136
0.16963
0.170184
0.170805
0.171503
0.172288
0.173173
0.174169
0.175294
0.176576
0.178031
0.179682
0.181556
0.183685
0.18611
0.188874
0.192035
0.195654
0.199813
0.204607
0.210148
0.21658
0.22407
0.232847
0.243141
0.255364
0.269747
0.287186
0.307564
0.333134
0.36234
0.40039
0.44295
0.498743
0.56098
0.641007
0.727345
0.841672
0.970663
1.13629
1.32844
1.56353
1.70868
1.75903
1.74419
1.67245
1.52188
1.13529
0.760828
0.551364
0.444518
0.40251
0.395685
0.403228
0.408845
0.404791
0.387574
0.361636
0.220585
0.22089
0.221213
0.221559
0.221933
0.22234
0.222787
0.223279
0.223824
0.224427
0.225097
0.225841
0.22667
0.227592
0.228622
0.229786
0.231097
0.232571
0.234226
0.236082
0.238168
0.240518
0.243175
0.246197
0.249652
0.25362
0.258196
0.263492
0.269647
0.276825
0.285232
0.295111
0.306784
0.320601
0.337118
0.356729
0.380575
0.408645
0.443711
0.483749
0.535814
0.591899
0.668195
0.744939
0.849547
0.955298
1.08541
1.22531
1.41832
1.63118
1.8363
1.93281
1.92514
1.90695
1.82456
1.68461
1.30359
0.9051
0.671573
0.522727
0.428077
0.376054
0.356637
0.354549
0.361391
0.366364
0.365503
0.355747
0.339367
0.322802
0.323432
0.324105
0.324822
0.325591
0.326416
0.327317
0.328304
0.329384
0.330566
0.33186
0.333277
0.334833
0.336542
0.338424
0.340499
0.342794
0.345339
0.348156
0.351299
0.354823
0.35882
0.363435
0.368877
0.375307
0.382913
0.391927
0.402619
0.41533
0.43046
0.448526
0.4701
0.496014
0.526973
0.564417
0.608793
0.662953
0.72565
0.802964
0.888751
0.99517
1.10521
1.24505
1.37365
1.54502
1.68777
1.86634
2.12011
2.22354
2.21238
2.17084
2.10506
1.97513
1.75491
1.3551
1.00113
0.807804
0.675206
0.587336
0.501635
0.42799
0.382538
0.363299
0.359642
0.36279
0.365659
0.365239
0.357923
0.344176
0.565522
0.567111
0.568749
0.570446
0.572219
0.57408
0.576049
0.578138
0.58037
0.582759
0.585334
0.588107
0.59112
0.594377
0.597949
0.60183
0.606101
0.610829
0.615951
0.621934
0.628886
0.637624
0.648796
0.6627
0.679793
0.700586
0.725709
0.75585
0.791909
0.834786
0.885742
0.945809
1.0167
1.09918
1.19548
1.30528
1.4312
1.57014
1.72425
1.88853
2.05878
2.23812
2.39852
2.5673
2.68971
2.81451
2.78761
2.68003
2.49503
2.29937
2.04488
1.64906
1.27855
0.930519
0.803332
0.80343
0.877164
0.917812
0.892133
0.780361
0.644563
0.535177
0.474231
0.450031
0.441265
0.436815
0.432606
0.424834
0.409
1.46898
1.47235
1.47582
1.47936
1.48306
1.48684
1.49083
1.49493
1.49932
1.50384
1.50877
1.51384
1.51954
1.52528
1.53203
1.53868
1.54664
1.55522
1.56418
1.58436
1.61639
1.65984
1.71463
1.78089
1.85894
1.94883
2.05099
2.16531
2.29225
2.43112
2.58218
2.74385
2.91599
3.09501
3.28045
3.4652
3.64981
3.81967
3.98124
4.10344
4.2106
4.23725
4.19957
4.12563
3.90362
3.58719
3.06125
2.48019
1.97204
1.58679
1.36089
1.2441
1.19104
1.17789
1.27611
1.52948
1.78218
1.92851
1.98246
1.88741
1.64708
1.34576
1.10219
0.99787
0.963453
0.93533
0.916396
0.89958
0.853777
8.53317
8.52623
8.51876
8.50999
8.50075
8.48996
8.47883
8.46594
8.45268
8.43776
8.42195
8.40517
8.38615
8.36712
8.34453
8.32005
8.29452
8.26869
8.24165
8.21224
8.18163
8.14983
8.11654
8.08124
8.04351
8.00303
7.95956
7.91285
7.86254
7.80827
7.74955
7.68592
7.61688
7.54198
7.46087
7.37339
7.27979
7.18095
7.0793
6.97747
6.88241
6.80358
6.74576
6.70356
6.66536
6.62717
6.58883
6.55077
6.51293
6.47552
6.43873
6.40246
6.36672
6.33172
6.29756
6.26446
6.23273
6.20288
6.17538
6.1504
6.12764
6.10656
6.08717
6.07134
6.05746
6.04444
6.0317
6.01965
6.01162
0.0296762
0.0296802
0.0296802
0.0296716
0.0296725
0.029669
0.0296641
0.0296536
0.029647
0.0296401
0.0296384
0.0296432
0.0296678
0.0296794
0.0296573
0.0296274
0.0296275
0.0296379
0.0296213
0.0295857
0.0295801
0.0296012
0.029575
0.0295703
0.0295327
0.0295076
0.029522
0.0295208
0.0295171
0.0295173
0.0294991
0.0294938
0.0294887
0.0294659
0.0294526
0.0294193
0.0294073
0.0293979
0.0293862
0.0293752
0.029335
0.029325
0.0293032
0.0292638
0.0292522
0.0292265
0.0291957
0.0291784
0.0291717
0.0291662
0.0291559
0.0291531
0.0291472
0.0291367
0.0291272
0.0291184
0.0291075
0.0290953
0.0290909
0.0300031
0.0299971
0.0299897
0.0299803
0.0299741
0.0299659
0.0299606
0.029952
0.029953
0.029959
0.0299613
0.0299696
0.0299694
0.0299434
0.0299168
0.0299097
0.0299164
0.0299034
0.029874
0.0298541
0.0298577
0.02986
0.0298234
0.0298174
0.0297748
0.029759
0.0297679
0.0297685
0.0297548
0.0297469
0.0297355
0.0297286
0.0297183
0.0296927
0.02968
0.0296539
0.0296315
0.029621
0.0296127
0.0296006
0.0295765
0.0295577
0.0295366
0.0295037
0.0294812
0.0294626
0.0294371
0.029414
0.0293999
0.0293923
0.0293884
0.0293841
0.0293831
0.0293745
0.0293732
0.029363
0.0293605
0.0293504
0.0293486
0.0303826
0.0303761
0.0303716
0.0303681
0.0303648
0.0303634
0.0303418
0.0303367
0.0303311
0.030325
0.0303209
0.0303146
0.0302959
0.0302713
0.0302578
0.0302601
0.030242
0.0302183
0.0301863
0.0301767
0.0301805
0.0301634
0.0301254
0.0301147
0.0300706
0.0300597
0.0300644
0.0300639
0.0300419
0.0300283
0.0300214
0.030011
0.0299964
0.0299696
0.029955
0.0299334
0.0299071
0.0298912
0.0298825
0.0298723
0.0298567
0.0298382
0.029818
0.0297939
0.0297645
0.0297453
0.0297242
0.0297013
0.0296837
0.0296641
0.0296636
0.0296612
0.0296642
0.0296586
0.029658
0.0296536
0.0296472
0.029644
0.0296413
0.03083
0.0308213
0.0308159
0.0308097
0.0308031
0.0307942
0.0307807
0.0307714
0.030761
0.0307473
0.030733
0.0307162
0.0306939
0.0306748
0.0306643
0.0306528
0.0306208
0.0305904
0.0305624
0.0305602
0.0305627
0.0305226
0.0304873
0.0304695
0.0304257
0.030418
0.0304191
0.0304133
0.0303846
0.0303671
0.0303612
0.0303469
0.0303291
0.0303023
0.0302841
0.0302645
0.030239
0.030217
0.0302038
0.0301951
0.0301828
0.0301677
0.0301503
0.0301311
0.0301081
0.0300857
0.030066
0.0300455
0.030027
0.0300098
0.0299905
0.0299898
0.0299928
0.0299965
0.0300002
0.0300032
0.0300057
0.0300077
0.0300091
0.0313599
0.0313479
0.0313394
0.031329
0.0313183
0.0313056
0.0312911
0.0312764
0.0312595
0.0312394
0.0312183
0.0311968
0.0311744
0.0311549
0.0311365
0.031109
0.0310703
0.031041
0.0310222
0.0310235
0.0309983
0.0309515
0.0309175
0.030892
0.0308496
0.0308428
0.0308383
0.0308262
0.030792
0.0307714
0.0307639
0.0307455
0.0307248
0.0306973
0.030676
0.0306559
0.0306317
0.0306071
0.0305884
0.0305782
0.0305679
0.0305545
0.0305396
0.0305235
0.0305061
0.0304854
0.0304672
0.030449
0.0304317
0.0304161
0.0304016
0.0303848
0.0303845
0.0303874
0.0303925
0.030399
0.030406
0.0304137
0.0304194
0.0319871
0.0319711
0.0319585
0.0319435
0.0319279
0.0319102
0.0318909
0.0318699
0.0318467
0.0318214
0.0317956
0.0317699
0.0317438
0.0317171
0.0316867
0.0316485
0.0316096
0.031584
0.031567
0.0315538
0.031513
0.0314634
0.0314284
0.0313956
0.031355
0.0313466
0.031335
0.0313154
0.0312765
0.0312529
0.0312419
0.0312193
0.0311954
0.0311665
0.031142
0.0311205
0.0310961
0.0310706
0.0310483
0.0310346
0.0310244
0.0310123
0.0309985
0.030984
0.0309693
0.0309525
0.0309388
0.0309168
0.0309039
0.0308844
0.0308741
0.0308596
0.030855
0.0308545
0.0308573
0.0308629
0.0308701
0.0308792
0.0308872
0.0327285
0.0327076
0.0326902
0.0326697
0.0326484
0.0326247
0.0325992
0.0325716
0.0325422
0.0325114
0.0324799
0.0324477
0.0324137
0.0323771
0.0323367
0.0322941
0.0322574
0.0322318
0.032208
0.0321774
0.0321253
0.0320743
0.0320357
0.0319963
0.0319569
0.0319441
0.0319243
0.0318966
0.0318533
0.0318261
0.0318104
0.0317831
0.0317554
0.0317242
0.0316969
0.0316729
0.0316471
0.0316207
0.0315961
0.0315792
0.0315671
0.0315553
0.0315424
0.031529
0.0315152
0.031501
0.0314879
0.031472
0.0314623
0.0314418
0.0314327
0.0314199
0.0314083
0.0314092
0.0314113
0.0314155
0.0314215
0.0314296
0.0314374
0.0336049
0.0335781
0.033555
0.0335282
0.0335002
0.0334696
0.033437
0.0334024
0.033366
0.0333282
0.0332889
0.033248
0.0332048
0.0331595
0.0331132
0.0330691
0.0330318
0.0329997
0.0329628
0.0329157
0.0328559
0.032803
0.0327585
0.0327131
0.0326733
0.0326534
0.0326243
0.0325879
0.0325403
0.0325086
0.0324869
0.0324545
0.0324224
0.0323882
0.0323579
0.0323307
0.0323029
0.0322746
0.0322483
0.0322281
0.0322132
0.0322006
0.032188
0.0321754
0.0321626
0.0321498
0.0321372
0.0321246
0.0321131
0.0321001
0.0320914
0.0320807
0.0320749
0.0320733
0.0320742
0.0320774
0.0320822
0.0320891
0.0320958
0.0346425
0.0346085
0.0345786
0.0345444
0.0345089
0.0344705
0.0344301
0.0343874
0.0343429
0.0342965
0.0342484
0.0341985
0.0341471
0.0340951
0.0340444
0.0339968
0.0339531
0.0339084
0.033856
0.0337951
0.0337296
0.0336725
0.0336204
0.0335691
0.0335263
0.0334969
0.0334575
0.0334121
0.0333596
0.0333222
0.0332934
0.0332551
0.0332178
0.0331799
0.0331458
0.033115
0.0330846
0.0330542
0.0330257
0.0330022
0.032984
0.0329694
0.0329563
0.0329438
0.0329317
0.0329199
0.0329082
0.0328966
0.0328858
0.0328751
0.0328677
0.0328659
0.0328636
0.0328635
0.0328653
0.0328689
0.0328737
0.0328804
0.0328865
0.0358747
0.0358323
0.0357945
0.0357521
0.0357081
0.0356611
0.0356119
0.0355603
0.0355067
0.0354511
0.0353939
0.0353354
0.0352763
0.0352175
0.0351601
0.0351042
0.0350481
0.0349876
0.0349199
0.0348477
0.0347761
0.0347119
0.0346509
0.0345929
0.0345438
0.0345028
0.034452
0.034397
0.0343386
0.0342942
0.0342572
0.0342119
0.0341687
0.0341262
0.0340875
0.0340523
0.0340186
0.0339856
0.0339545
0.0339277
0.033906
0.0338886
0.0338739
0.0338607
0.0338484
0.0338368
0.033826
0.0338176
0.0338109
0.0338054
0.0338025
0.033802
0.033803
0.0338054
0.0338092
0.0338144
0.0338205
0.033828
0.0338347
0.0373465
0.0372944
0.0372477
0.037196
0.0371426
0.0370861
0.0370272
0.0369658
0.0369023
0.0368369
0.0367699
0.0367018
0.0366333
0.0365647
0.0364961
0.0364266
0.0363542
0.0362769
0.0361949
0.0361119
0.036032
0.0359579
0.0358866
0.0358202
0.0357614
0.0357064
0.0356433
0.0355778
0.0355123
0.0354591
0.0354124
0.0353591
0.0353088
0.0352607
0.0352165
0.0351762
0.0351384
0.035102
0.035068
0.0350377
0.0350124
0.0349916
0.0349746
0.0349602
0.034948
0.0349376
0.0349304
0.0349192
0.0349193
0.0349187
0.0349195
0.0349219
0.0349257
0.0349308
0.0349372
0.0349446
0.0349528
0.034962
0.0349702
0.0391183
0.0390551
0.0389981
0.0389358
0.0388715
0.0388041
0.0387339
0.0386611
0.038586
0.0385087
0.0384296
0.0383491
0.0382673
0.0381844
0.0380998
0.0380126
0.0379219
0.0378275
0.037731
0.0376359
0.0375445
0.0374577
0.0373742
0.0372962
0.0372241
0.0371532
0.0370763
0.0369991
0.0369244
0.0368606
0.0368028
0.0367399
0.0366812
0.0366262
0.0365755
0.0365293
0.0364864
0.036446
0.0364084
0.0363745
0.0363454
0.0363211
0.0363011
0.0362847
0.0362716
0.0362626
0.0362556
0.0362546
0.0362548
0.0362567
0.0362603
0.0362655
0.0362722
0.0362802
0.0362894
0.0362995
0.0363103
0.0363217
0.0363321
0.0412708
0.041194
0.0411241
0.0410488
0.0409711
0.0408899
0.0408056
0.0407183
0.040628
0.0405351
0.0404398
0.0403422
0.0402424
0.0401403
0.0400355
0.0399277
0.039817
0.0397042
0.0395915
0.039481
0.0393743
0.0392716
0.0391729
0.0390795
0.0389902
0.0389012
0.0388087
0.038718
0.0386316
0.038555
0.038484
0.0384098
0.0383411
0.0382777
0.0382194
0.0381662
0.0381173
0.038072
0.0380301
0.0379924
0.0379594
0.0379315
0.0379085
0.0378902
0.0378764
0.0378678
0.0378665
0.0378661
0.0378682
0.0378725
0.0378787
0.0378868
0.0378965
0.0379075
0.0379198
0.0379329
0.0379465
0.0379605
0.0379736
0.0439118
0.0438171
0.04373
0.0436373
0.0435416
0.0434419
0.0433385
0.0432315
0.0431209
0.0430069
0.0428898
0.0427695
0.0426463
0.0425201
0.042391
0.0422593
0.0421257
0.0419915
0.0418585
0.0417282
0.0416015
0.0414789
0.0413605
0.041247
0.0411366
0.0410268
0.0409161
0.0408091
0.0407078
0.0406156
0.0405291
0.0404413
0.0403607
0.0402873
0.0402199
0.0401586
0.0401027
0.0400516
0.0400049
0.0399629
0.0399261
0.0398948
0.039869
0.0398489
0.0398344
0.0398299
0.0398275
0.0398286
0.0398327
0.0398395
0.0398486
0.0398598
0.0398727
0.0398872
0.0399029
0.0399195
0.0399365
0.0399535
0.0399699
0.0471945
0.0470748
0.0469629
0.0468453
0.046724
0.0465983
0.0464682
0.0463338
0.0461951
0.0460524
0.0459059
0.0457558
0.0456024
0.0454459
0.0452868
0.0451259
0.044964
0.0448026
0.044643
0.0444865
0.0443337
0.0441853
0.0440413
0.0439019
0.0437656
0.0436311
0.0434986
0.0433716
0.0432511
0.0431398
0.0430348
0.0429306
0.0428357
0.0427502
0.0426722
0.0426015
0.0425376
0.0424799
0.042428
0.0423818
0.0423415
0.0423074
0.0422795
0.0422581
0.0422443
0.0422412
0.0422402
0.0422436
0.0422507
0.042261
0.042274
0.0422895
0.042307
0.0423261
0.0423465
0.0423678
0.0423894
0.0424106
0.0424318
0.051354
0.0511972
0.0510481
0.0508934
0.0507342
0.0505701
0.0504011
0.0502271
0.0500484
0.0498653
0.049678
0.0494869
0.0492926
0.0490956
0.0488967
0.0486968
0.048497
0.0482985
0.0481027
0.0479104
0.0477225
0.0475394
0.0473614
0.0471884
0.0470196
0.0468548
0.0466947
0.0465419
0.0463968
0.0462619
0.0461344
0.0460102
0.045898
0.0457981
0.0457078
0.0456266
0.0455541
0.0454896
0.0454326
0.045383
0.0453405
0.0453052
0.0452771
0.0452571
0.0452496
0.0452463
0.0452495
0.0452582
0.0452715
0.0452888
0.0453094
0.0453329
0.0453588
0.0453865
0.0454156
0.0454454
0.0454754
0.0455046
0.0455347
0.0567544
0.056545
0.0563411
0.0561317
0.0559166
0.0556954
0.0554683
0.0552356
0.0549976
0.0547544
0.0545069
0.0542555
0.0540011
0.0537447
0.0534872
0.0532298
0.0529739
0.0527207
0.0524714
0.0522271
0.0519885
0.0517563
0.0515308
0.0513122
0.0511002
0.0508953
0.0506984
0.0505105
0.050333
0.0501677
0.0500121
0.0498631
0.0497297
0.0496127
0.0495085
0.0494162
0.0493352
0.049265
0.0492049
0.0491546
0.0491137
0.049082
0.0490605
0.0490518
0.0490499
0.0490576
0.0490737
0.0490971
0.0491267
0.0491615
0.0492007
0.0492435
0.0492892
0.0493368
0.0493858
0.0494352
0.0494842
0.0495317
0.0495811
0.0638575
0.063587
0.0633137
0.0630348
0.062749
0.0624561
0.0621555
0.0618471
0.061531
0.0612075
0.0608773
0.060541
0.0601997
0.0598545
0.0595082
0.0591621
0.058818
0.0584778
0.0581431
0.0578154
0.0574959
0.0571859
0.0568861
0.0565971
0.0563194
0.0560537
0.0558005
0.0555601
0.0553359
0.0551282
0.054935
0.0547541
0.0545948
0.0544587
0.0543411
0.0542406
0.0541564
0.054088
0.0540347
0.0539963
0.0539722
0.0539624
0.0539627
0.0539792
0.0540089