/*--------------------------------*- C++ -*----------------------------------*\
| =========                 |                                                 |
| \\      /  F ield         | OpenFOAM: The Open Source CFD Toolbox           |
|  \\    /   O peration     | Version:  2312                                  |
|   \\  /    A nd           | Website:  www.openfoam.com                      |
|    \\/     M anipulation  |                                                 |
\*---------------------------------------------------------------------------*/
FoamFile
{
    version     2.0;
    format      ascii;
    arch        "LSB;label=32;scalar=64";
    class       volScalarField;
    location    "2000";
    object      p;
}
// * * * * * * * * * * * * * * * * * * * * * * * * * * * * * * * * * * * * * //

dimensions      [0 2 -2 0 0 0 0];

internalField   nonuniform List<scalar> 
76025
(
0.000249607
0.000243153
0.000236618
0.000230059
0.000223388
0.000216822
0.000209762
0.000202881
0.000195837
0.000188805
0.000181683
0.000174498
0.000167237
0.00015995
0.000152664
0.000145138
0.000137866
0.000130292
0.000122862
0.000115351
0.000107934
0.00010035
9.27952e-05
8.53615e-05
7.78786e-05
7.04505e-05
6.30966e-05
5.54992e-05
4.82243e-05
4.07441e-05
3.36321e-05
2.62871e-05
1.92276e-05
1.19648e-05
4.95047e-06
-2.09248e-06
-8.9147e-06
-1.58582e-05
-2.28494e-05
-2.95551e-05
-3.61294e-05
-4.2655e-05
-4.92303e-05
-5.5819e-05
-6.20032e-05
-6.82433e-05
-7.43705e-05
-8.06098e-05
-8.64416e-05
-9.22813e-05
-9.8021e-05
-0.000103608
-0.000109158
-0.000114585
-0.00011974
-0.000124904
-0.000129983
-0.000135112
-0.000140146
-0.000144831
-0.000149877
-0.00015495
-0.000159722
-0.000164337
-0.000169111
-0.000174723
-0.000179554
-0.000182781
-0.000187322
0.000253012
0.000246306
0.00023954
0.000232709
0.000225767
0.000218695
0.000211559
0.00020436
0.000197072
0.00018971
0.000182277
0.000174797
0.000167274
0.000159682
0.00015206
0.000144421
0.000136735
0.000129047
0.00012131
0.000113618
0.000105873
9.8157e-05
9.0459e-05
8.27959e-05
7.51422e-05
6.74955e-05
5.98701e-05
5.23333e-05
4.48431e-05
3.73537e-05
2.99803e-05
2.25619e-05
1.52431e-05
8.01764e-06
8.23543e-07
-6.26068e-06
-1.33147e-05
-2.02778e-05
-2.71244e-05
-3.39039e-05
-4.05609e-05
-4.71672e-05
-5.36595e-05
-6.00183e-05
-6.62909e-05
-7.24701e-05
-7.85599e-05
-8.451e-05
-9.03217e-05
-9.60354e-05
-0.000101637
-0.000107081
-0.000112373
-0.000117497
-0.000122434
-0.000127248
-0.000131949
-0.000136505
-0.000140932
-0.000145163
-0.000149265
-0.000153278
-0.000157083
-0.000160625
-0.000163997
-0.000167243
-0.00017007
-0.000172075
-0.000175824
0.000256675
0.000249662
0.000242575
0.000235409
0.00022813
0.000220763
0.000213317
0.000205791
0.000198187
0.000190511
0.000182776
0.000174996
0.000167167
0.000159297
0.000151404
0.000143476
0.000135528
0.000127567
0.000119598
0.000111629
0.000103671
9.57382e-05
8.78237e-05
7.9935e-05
7.20748e-05
6.42456e-05
5.64762e-05
4.87644e-05
4.10951e-05
3.348e-05
2.59251e-05
1.84275e-05
1.10125e-05
3.67998e-06
-3.58139e-06
-1.07507e-05
-1.78343e-05
-2.48138e-05
-3.17019e-05
-3.8504e-05
-4.51924e-05
-5.17719e-05
-5.82345e-05
-6.45914e-05
-7.08424e-05
-7.69645e-05
-8.29583e-05
-8.88185e-05
-9.45439e-05
-0.000100119
-0.000105541
-0.000110789
-0.000115854
-0.00012073
-0.000125402
-0.000129879
-0.000134159
-0.000138229
-0.000142077
-0.000145656
-0.000148963
-0.000151977
-0.000154619
-0.000156812
-0.000158556
-0.000159831
-0.000160556
-0.000160443
-0.000161909
0.000260234
0.000252874
0.000245437
0.000237928
0.000230318
0.000222611
0.000214819
0.000206953
0.000199021
0.000191026
0.000182976
0.00017488
0.000166742
0.000158571
0.000150375
0.000142158
0.00013393
0.000125698
0.000117469
0.00010925
0.000101052
9.28792e-05
8.47366e-05
7.66321e-05
6.85728e-05
6.05637e-05
5.2613e-05
4.47231e-05
3.68983e-05
2.91442e-05
2.14651e-05
1.38644e-05
6.34668e-06
-1.07962e-06
-8.40933e-06
-1.56404e-05
-2.27711e-05
-2.97981e-05
-3.67199e-05
-4.3531e-05
-5.02228e-05
-5.67933e-05
-6.32424e-05
-6.95686e-05
-7.57638e-05
-8.18201e-05
-8.77341e-05
-9.35008e-05
-9.9109e-05
-0.000104547
-0.000109806
-0.00011487
-0.000119726
-0.000124358
-0.000128751
-0.000132895
-0.000136775
-0.00014037
-0.000143644
-0.000146546
-0.000149028
-0.000151037
-0.000152487
-0.000153281
-0.000153369
-0.000152678
-0.000151243
-0.000148809
-0.000147834
0.000263609
0.000255887
0.00024809
0.000240224
0.000232258
0.000224193
0.000216048
0.000207834
0.000199557
0.000191223
0.000182838
0.00017441
0.000165949
0.000157462
0.000148957
0.000140442
0.000131925
0.000123412
0.000114914
0.000106436
9.79884e-05
8.95767e-05
8.12087e-05
7.28914e-05
6.46313e-05
5.6434e-05
4.83057e-05
4.02523e-05
3.22788e-05
2.43889e-05
1.65868e-05
8.87597e-06
1.26197e-06
-6.24598e-06
-1.36446e-05
-2.09348e-05
-2.81138e-05
-3.5177e-05
-4.21196e-05
-4.89383e-05
-5.56295e-05
-6.21899e-05
-6.86164e-05
-7.49049e-05
-8.10498e-05
-8.70448e-05
-9.2883e-05
-9.85563e-05
-0.000104054
-0.000109364
-0.000114473
-0.000119365
-0.000124022
-0.000128425
-0.000132552
-0.00013638
-0.000139881
-0.000143015
-0.000145728
-0.000147953
-0.000149611
-0.000150616
-0.000150858
-0.000150225
-0.000148627
-0.000145953
-0.000142303
-0.000137334
-0.00013369
0.000266824
0.000258721
0.000250544
0.0002423
0.000233957
0.000225517
0.000217
0.000208418
0.000199778
0.000191085
0.000182347
0.000173575
0.000164776
0.000155959
0.000147133
0.000138306
0.000129487
0.000120684
0.000111905
0.00010316
9.44559e-05
8.58009e-05
7.72025e-05
6.86678e-05
6.02034e-05
5.18157e-05
4.35109e-05
3.52948e-05
2.71721e-05
1.91472e-05
1.12245e-05
3.40747e-06
-4.29781e-06
-1.18836e-05
-1.93485e-05
-2.66926e-05
-3.39129e-05
-4.10045e-05
-4.79635e-05
-5.47875e-05
-6.14736e-05
-6.80184e-05
-7.44179e-05
-8.06678e-05
-8.67626e-05
-9.26957e-05
-9.84594e-05
-0.000104044
-0.00010944
-0.000114632
-0.000119606
-0.000124343
-0.000128821
-0.000133017
-0.000136899
-0.000140435
-0.000143579
-0.000146275
-0.00014845
-0.000150013
-0.000150862
-0.000150878
-0.000149928
-0.000147872
-0.000144581
-0.000139918
-0.000134022
-0.000126466
-0.000120534
0.000269826
0.000261319
0.000252739
0.000244095
0.000235354
0.000226518
0.000217608
0.000208638
0.000199615
0.000190546
0.000181439
0.000172304
0.000163151
0.00015399
0.000144828
0.000135677
0.000126544
0.00011744
0.000108373
9.93522e-05
9.03858e-05
8.14823e-05
7.26494e-05
6.38947e-05
5.52251e-05
4.66472e-05
3.81673e-05
2.97908e-05
2.15229e-05
1.3368e-05
5.33036e-06
-2.58666e-06
-1.03772e-05
-1.80347e-05
-2.55591e-05
-3.295e-05
-4.02044e-05
-4.73179e-05
-5.42877e-05
-6.11118e-05
-6.77879e-05
-7.43128e-05
-8.06826e-05
-8.68931e-05
-9.29389e-05
-9.88135e-05
-0.000104509
-0.000110016
-0.000115322
-0.000120413
-0.000125272
-0.000129877
-0.000134202
-0.000138218
-0.000141887
-0.000145161
-0.000147983
-0.000150275
-0.000151947
-0.000152886
-0.000152964
-0.000152035
-0.000149933
-0.000146491
-0.000141531
-0.000134914
-0.000126746
-0.000116608
-0.0001084
0.000272555
0.000263618
0.000254613
0.000245545
0.000236384
0.00022713
0.000217806
0.000208428
0.000199002
0.000189538
0.000180043
0.000170529
0.000161006
0.000151485
0.000141975
0.000132487
0.000123031
0.000113615
0.000104251
9.49477e-05
8.57135e-05
7.65573e-05
6.74875e-05
5.85117e-05
4.96372e-05
4.08707e-05
3.22183e-05
2.36855e-05
1.52773e-05
6.99821e-06
-1.14827e-06
-9.15857e-06
-1.70269e-05
-2.47488e-05
-3.2325e-05
-3.97552e-05
-4.7036e-05
-5.41644e-05
-6.11385e-05
-6.79571e-05
-7.46185e-05
-8.11202e-05
-8.74589e-05
-9.36308e-05
-9.96311e-05
-0.000105454
-0.000111091
-0.000116532
-0.000121766
-0.000126776
-0.000131543
-0.000136043
-0.000140248
-0.00014412
-0.000147613
-0.000150668
-0.00015321
-0.000155149
-0.000156373
-0.000156749
-0.000156123
-0.000154318
-0.000151138
-0.000146381
-0.000139828
-0.000131354
-0.000120996
-0.000108539
-9.75388e-05
0.00027495
0.000265559
0.000256101
0.000246586
0.00023698
0.000227285
0.000217525
0.000207716
0.000197868
0.000187988
0.000178086
0.000168176
0.000158267
0.000148371
0.000138499
0.000128661
0.00011887
0.000109134
9.9465e-05
8.98721e-05
8.03652e-05
7.09531e-05
6.16446e-05
5.24476e-05
4.33694e-05
3.44168e-05
2.55959e-05
1.6912e-05
8.36989e-06
-2.63566e-08
-8.2738e-06
-1.63687e-05
-2.43057e-05
-3.20829e-05
-3.97019e-05
-4.71618e-05
-5.44603e-05
-6.15955e-05
-6.85668e-05
-7.53742e-05
-8.20167e-05
-8.84929e-05
-9.48006e-05
-0.000100937
-0.000106897
-0.000112676
-0.000118266
-0.000123658
-0.000128837
-0.000133789
-0.000138493
-0.000142922
-0.000147043
-0.000150814
-0.000154177
-0.000157064
-0.000159387
-0.000161039
-0.000161891
-0.000161789
-0.000160555
-0.000157979
-0.000153831
-0.00014787
-0.00013985
-0.000129664
-0.00011731
-0.000103285
-9.14812e-05
0.000276941
0.000267067
0.00025713
0.000247141
0.000237064
0.000226902
0.000216682
0.000206419
0.000196126
0.000185809
0.000175481
0.000165155
0.000154843
0.000144556
0.000134308
0.000124109
0.000113971
0.000103906
9.39239e-05
8.40362e-05
7.42525e-05
6.45825e-05
5.50349e-05
4.56179e-05
3.63389e-05
2.72047e-05
1.82212e-05
9.39341e-06
7.25781e-07
-7.77822e-06
-1.61164e-05
-2.42851e-05
-3.228e-05
-4.01019e-05
-4.77527e-05
-5.52318e-05
-6.25382e-05
-6.96715e-05
-7.6633e-05
-8.34237e-05
-9.00439e-05
-9.64934e-05
-0.000102771
-0.000108875
-0.000114801
-0.000120546
-0.000126102
-0.000131459
-0.000136606
-0.000141527
-0.000146199
-0.000150594
-0.000154673
-0.000158389
-0.000161676
-0.000164456
-0.000166632
-0.000168082
-0.000168662
-0.000168197
-0.000166483
-0.000163279
-0.000158322
-0.000151329
-0.00014204
-0.000130323
-0.000116234
-0.000100904
-8.7428e-05
0.00027844
0.000268054
0.00025761
0.000247118
0.000236542
0.000225887
0.00021518
0.000204439
0.000193676
0.0001829
0.000172125
0.000161364
0.00015063
0.000139937
0.000129297
0.000118724
0.000108229
9.78252e-05
8.75239e-05
7.73364e-05
6.72733e-05
5.73445e-05
4.75589e-05
3.7925e-05
2.84502e-05
1.9141e-05
1.0003e-05
1.04085e-06
-7.74163e-06
-1.63418e-05
-2.47582e-05
-3.29877e-05
-4.10282e-05
-4.88824e-05
-5.65527e-05
-6.40394e-05
-7.13432e-05
-7.84659e-05
-8.54102e-05
-9.21786e-05
-9.87726e-05
-0.000105193
-0.000111441
-0.000117514
-0.000123412
-0.00012913
-0.000134664
-0.000140006
-0.000145143
-0.00015006
-0.000154733
-0.000159131
-0.000163211
-0.000166922
-0.000170193
-0.000172939
-0.000175054
-0.000176407
-0.000176837
-0.000176153
-0.000174125
-0.000170484
-0.000164937
-0.000157169
-0.000146927
-0.000134026
-0.00011883
-0.000102629
-8.92847e-05
0.000279345
0.000268415
0.000257432
0.000246407
0.000235303
0.000224126
0.000212905
0.000201659
0.000190401
0.000179143
0.000167898
0.000156681
0.000145507
0.00013439
0.000123344
0.000112383
0.000101521
9.07697e-05
8.01429e-05
6.96519e-05
5.93077e-05
4.91207e-05
3.91002e-05
2.92544e-05
1.95907e-05
1.01153e-05
8.33229e-07
-8.25142e-06
-1.71358e-05
-2.58186e-05
-3.42988e-05
-4.25743e-05
-5.06462e-05
-5.85187e-05
-6.61946e-05
-7.36759e-05
-8.09653e-05
-8.80667e-05
-9.49843e-05
-0.000101722
-0.000108283
-0.000114669
-0.000120883
-0.000126926
-0.000132798
-0.000138499
-0.000144024
-0.000149366
-0.000154515
-0.000159452
-0.000164154
-0.000168588
-0.000172711
-0.000176469
-0.000179789
-0.000182583
-0.000184738
-0.000186115
-0.000186543
-0.000185815
-0.000183682
-0.000179847
-0.000173994
-0.000165805
-0.000155056
-0.000141639
-0.000126453
-0.000110121
-9.45756e-05
0.000279532
0.000268025
0.00025647
0.00024488
0.000233216
0.000221487
0.000209721
0.000197942
0.000186163
0.000174396
0.000162657
0.000150962
0.000139327
0.000127769
0.000116301
0.00010494
9.36992e-05
8.25933e-05
7.16353e-05
6.08377e-05
5.02121e-05
3.97691e-05
2.9518e-05
1.94672e-05
9.62363e-06
-7.05983e-09
-9.42051e-06
-1.86137e-05
-2.75851e-05
-3.63351e-05
-4.48627e-05
-5.31677e-05
-6.12541e-05
-6.91274e-05
-7.67915e-05
-8.42502e-05
-9.15085e-05
-9.85723e-05
-0.000105448
-0.00011214
-0.000118656
-0.000124999
-0.000131174
-0.000137186
-0.000143035
-0.000148722
-0.000154245
-0.000159597
-0.000164768
-0.000169741
-0.000174492
-0.000178992
-0.000183197
-0.000187054
-0.000190492
-0.000193421
-0.000195727
-0.000197268
-0.000197865
-0.000197303
-0.000195315
-0.000191582
-0.000185783
-0.000177625
-0.000166915
-0.000153788
-0.000139335
-0.000124216
-0.000112691
0.000278847
0.000266728
0.000254565
0.000242375
0.000230118
0.000217803
0.000205462
0.000193119
0.000180788
0.000168486
0.000156227
0.000144031
0.000131915
0.000119896
0.00010799
9.62148e-05
8.45848e-05
7.31154e-05
6.18208e-05
5.0714e-05
3.98072e-05
2.91111e-05
1.86352e-05
8.38757e-06
-1.62536e-06
-1.13986e-05
-2.09287e-05
-3.02141e-05
-3.92549e-05
-4.80523e-05
-5.66058e-05
-6.49177e-05
-7.29948e-05
-8.08436e-05
-8.84699e-05
-9.58801e-05
-0.000103082
-0.000110085
-0.000116897
-0.000123526
-0.000129981
-0.000136268
-0.000142395
-0.000148366
-0.000154185
-0.000159853
-0.000165369
-0.000170727
-0.00017592
-0.000180933
-0.000185747
-0.000190334
-0.000194654
-0.000198659
-0.000202282
-0.000205437
-0.000208013
-0.00020987
-0.000210832
-0.000210679
-0.000209129
-0.000205861
-0.000200595
-0.000193059
-0.000183096
-0.000170942
-0.000157079
-0.000142117
-0.000128208
0.000277098
0.000264328
0.00025152
0.000238691
0.000225804
0.000212868
0.000199916
0.000186975
0.000174062
0.000161193
0.000148387
0.000135664
0.000123043
0.000110542
9.81798e-05
8.59743e-05
7.39422e-05
6.20998e-05
5.0462e-05
3.90428e-05
2.78547e-05
1.6909e-05
6.21506e-06
-4.21921e-06
-1.43878e-05
-2.42864e-05
-3.39127e-05
-4.32666e-05
-5.235e-05
-6.11634e-05
-6.97086e-05
-7.79922e-05
-8.60233e-05
-9.38106e-05
-0.000101363
-0.00010869
-0.000115804
-0.000122716
-0.000129437
-0.000135978
-0.000142348
-0.000148556
-0.000154611
-0.000160519
-0.000166284
-0.000171911
-0.000177399
-0.000182747
-0.000187949
-0.000192996
-0.000197873
-0.000202557
-0.000207018
-0.000211212
-0.000215082
-0.000218551
-0.000221519
-0.000223857
-0.000225397
-0.000225927
-0.000225168
-0.000222851
-0.000218733
-0.000212513
-0.000204043
-0.000193307
-0.000180529
-0.000166391
-0.000150567
0.000274031
0.000260568
0.00024707
0.00023356
0.000220001
0.000206402
0.000192799
0.000179222
0.000165689
0.000152218
0.000138831
0.00012555
0.000112394
9.93862e-05
8.65453e-05
7.38909e-05
6.14416e-05
4.92152e-05
3.72279e-05
2.54946e-05
1.40289e-05
2.84246e-06
-8.05505e-06
-1.86559e-05
-2.89544e-05
-3.89474e-05
-4.86339e-05
-5.80161e-05
-6.70963e-05
-7.5877e-05
-8.4365e-05
-9.25715e-05
-0.000100508
-0.000108186
-0.000115618
-0.000122819
-0.000129802
-0.000136581
-0.000143169
-0.000149579
-0.000155822
-0.00016191
-0.000167851
-0.000173655
-0.000179327
-0.000184875
-0.000190301
-0.000195607
-0.000200792
-0.000205852
-0.000210778
-0.000215556
-0.000220165
-0.000224575
-0.000228742
-0.000232605
-0.000236086
-0.000239075
-0.00024143
-0.000242979
-0.000243477
-0.000242711
-0.000240343
-0.000235959
-0.000229206
-0.000219901
-0.000208327
-0.000195218
-0.00018211
0.000269275
0.000255066
0.000240824
0.000226579
0.000212295
0.000197983
0.00018368
0.000169417
0.000155218
0.000141104
0.000127096
0.000113221
9.95007e-05
8.59593e-05
7.26189e-05
5.95011e-05
4.66267e-05
3.40149e-05
2.16838e-05
9.64946e-06
-2.07373e-06
-1.34737e-05
-2.45407e-05
-3.52676e-05
-4.56498e-05
-5.56856e-05
-6.53765e-05
-7.47267e-05
-8.37401e-05
-9.24243e-05
-0.000100791
-0.000108856
-0.000116632
-0.000124135
-0.000131381
-0.000138389
-0.000145175
-0.000151756
-0.000158147
-0.000164364
-0.000170419
-0.000176326
-0.000182097
-0.00018774
-0.000193267
-0.000198684
-0.000203998
-0.000209216
-0.000214341
-0.000219375
-0.000224318
-0.000229167
-0.000233914
-0.000238545
-0.000243037
-0.000247359
-0.000251471
-0.000255309
-0.000258786
-0.000261788
-0.000264076
-0.000265333
-0.000264962
-0.000262416
-0.000257205
-0.000249103
-0.000238151
-0.000225266
-0.000212031
0.000262166
0.000247147
0.000232097
0.000217058
0.000201994
0.000186915
0.000171862
0.000156872
0.000141968
0.000127176
0.000112522
9.80319e-05
8.37336e-05
6.96527e-05
5.5814e-05
4.22414e-05
2.89576e-05
1.59839e-05
3.33953e-06
-8.95818e-06
-2.08943e-05
-3.24565e-05
-4.36354e-05
-5.44248e-05
-6.48214e-05
-7.48258e-05
-8.44421e-05
-9.36763e-05
-0.000102536
-0.000111035
-0.000119189
-0.000127017
-0.000134537
-0.000141769
-0.000148736
-0.000155458
-0.000161958
-0.000168254
-0.000174365
-0.000180308
-0.0001861
-0.000191753
-0.000197282
-0.000202698
-0.000208012
-0.000213234
-0.000218374
-0.000223441
-0.000228446
-0.000233396
-0.000238302
-0.000243172
-0.000248015
-0.000252845
-0.000257676
-0.000262524
-0.00026743
-0.000272387
-0.000277365
-0.00028219
-0.000286507
-0.000289679
-0.000291062
-0.000290058
-0.00028604
-0.000278537
-0.000267725
-0.000254941
-0.000242235
0.000251658
0.000235777
0.000219877
0.000204014
0.000188147
0.000172285
0.000156472
0.000140746
0.000125137
0.000109671
9.43788e-05
7.92898e-05
6.4434e-05
4.98402e-05
3.55359e-05
2.15475e-05
7.89987e-06
-5.38392e-06
-1.82829e-05
-3.07785e-05
-4.2855e-05
-5.45e-05
-6.57043e-05
-7.64627e-05
-8.67739e-05
-9.66408e-05
-0.000106071
-0.000115072
-0.000123659
-0.000131849
-0.000139665
-0.00014713
-0.00015427
-0.000161111
-0.00016768
-0.000174004
-0.00018011
-0.000186019
-0.000191753
-0.000197333
-0.000202774
-0.000208091
-0.000213298
-0.000218407
-0.00022343
-0.000228378
-0.000233264
-0.000238102
-0.000242905
-0.000247689
-0.000252474
-0.000257287
-0.00026217
-0.000267177
-0.000272389
-0.000277896
-0.000283822
-0.000290157
-0.000296767
-0.000303256
-0.000309109
-0.000313719
-0.000316438
-0.000316365
-0.000312831
-0.000305464
-0.000294801
-0.000282662
-0.000271199
0.000236903
0.000220152
0.000203396
0.000186718
0.000170062
0.000153435
0.000136883
0.000120449
0.000104165
8.80626e-05
7.21744e-05
5.65336e-05
4.11725e-05
2.61224e-05
1.14135e-05
-2.92498e-06
-1.68657e-05
-3.03832e-05
-4.34547e-05
-5.60597e-05
-6.81816e-05
-7.98072e-05
-9.09279e-05
-0.000101539
-0.000111642
-0.000121242
-0.00013035
-0.000138979
-0.000147149
-0.000154884
-0.000162215
-0.000169171
-0.000175786
-0.000182096
-0.000188134
-0.000193933
-0.000199524
-0.000204935
-0.000210189
-0.000215307
-0.000220306
-0.0002252
-0.00023
-0.000234717
-0.000239363
-0.000243947
-0.000248481
-0.000252983
-0.00025747
-0.000261974
-0.000266538
-0.000271224
-0.000276131
-0.000281369
-0.00028708
-0.000293394
-0.000300373
-0.000307857
-0.000315473
-0.000322851
-0.000329661
-0.000335191
-0.000338392
-0.000338502
-0.000334974
-0.000327647
-0.000317591
-0.000306705
-0.00029708
0.000218189
0.000200579
0.00018297
0.000165483
0.00014805
0.000130668
0.000113389
9.62594e-05
7.93168e-05
6.25962e-05
4.61339e-05
2.99657e-05
1.41271e-05
-1.34685e-06
-1.64222e-05
-3.10666e-05
-4.52493e-05
-5.89418e-05
-7.21183e-05
-8.47565e-05
-9.68387e-05
-0.000108351
-0.000119285
-0.000129637
-0.00013941
-0.000148612
-0.000157257
-0.000165364
-0.00017296
-0.000180081
-0.000186762
-0.000193046
-0.000198977
-0.0002046
-0.000209957
-0.00021509
-0.000220037
-0.000224829
-0.000229493
-0.00023405
-0.000238516
-0.0002429
-0.00024721
-0.000251453
-0.000255633
-0.000259756
-0.000263832
-0.000267882
-0.000271947
-0.000276084
-0.000280387
-0.000284958
-0.000289945
-0.000295462
-0.000301611
-0.000308449
-0.000315824
-0.000323472
-0.000331258
-0.000339028
-0.000346026
-0.000351367
-0.000354379
-0.000354355
-0.000350682
-0.000343756
-0.000334799
-0.000325593
-0.000318322
0.000197183
0.000178649
0.00016013
0.000141777
0.000123504
0.000105306
8.72383e-05
6.9352e-05
5.16896e-05
3.42901e-05
1.71933e-05
4.39572e-07
-1.59299e-05
-3.1875e-05
-4.73568e-05
-6.23382e-05
-7.67836e-05
-9.066e-05
-0.000103938
-0.000116592
-0.000128601
-0.000139949
-0.000150627
-0.000160633
-0.000169973
-0.000178656
-0.000186702
-0.000194138
-0.000201001
-0.000207335
-0.00021319
-0.000218622
-0.000223688
-0.000228448
-0.000232958
-0.00023727
-0.000241429
-0.000245473
-0.000249431
-0.00025332
-0.000257151
-0.000260925
-0.000264643
-0.000268307
-0.000271927
-0.000275518
-0.000279102
-0.000282717
-0.000286417
-0.000290279
-0.000294399
-0.000298864
-0.000303753
-0.000309103
-0.000314958
-0.000321306
-0.000328092
-0.000335332
-0.000342725
-0.000349656
-0.000355779
-0.000360842
-0.000363747
-0.000363344
-0.000359609
-0.000353383
-0.000345826
-0.00033863
-0.000333718
0.000175463
0.000155865
0.000136288
0.000116911
9.76394e-05
7.84677e-05
5.94549e-05
4.06593e-05
2.21273e-05
3.90238e-06
-1.39704e-05
-3.14444e-05
-4.84728e-05
-6.50093e-05
-8.10088e-05
-9.64275e-05
-0.000111223
-0.000125357
-0.000138794
-0.000151501
-0.000163453
-0.000174628
-0.000185016
-0.000194614
-0.000203427
-0.00021147
-0.000218769
-0.000225363
-0.0002313
-0.000236641
-0.000241452
-0.000245809
-0.000249789
-0.000253473
-0.000256935
-0.000260245
-0.000263458
-0.000266616
-0.000269743
-0.000272847
-0.000275923
-0.000278961
-0.000281957
-0.000284929
-0.000287913
-0.000290981
-0.000294194
-0.000297603
-0.0003012
-0.000304941
-0.000308766
-0.000312678
-0.000316708
-0.000320922
-0.000325542
-0.000330775
-0.000336547
-0.000342343
-0.000347945
-0.000353962
-0.000360233
-0.000365152
-0.000367235
-0.000366218
-0.000362684
-0.000357415
-0.000351544
-0.000346606
-0.000344135
0.000155337
0.000134382
0.000113486
9.28196e-05
7.22837e-05
5.18761e-05
3.16619e-05
1.17048e-05
-7.94294e-06
-2.72318e-05
-4.61101e-05
-6.45248e-05
-8.2422e-05
-9.9748e-05
-0.00011645
-0.000132477
-0.000147777
-0.000162305
-0.000176015
-0.000188867
-0.000200828
-0.000211871
-0.000221983
-0.000231157
-0.000239399
-0.000246726
-0.00025317
-0.000258778
-0.000263616
-0.000267762
-0.000271306
-0.000274349
-0.000277001
-0.000279367
-0.000281551
-0.000283646
-0.000285726
-0.000287846
-0.00029004
-0.000292316
-0.000294665
-0.000297072
-0.000299508
-0.000301972
-0.000304462
-0.00030705
-0.000309805
-0.000312787
-0.000315991
-0.00031926
-0.00032231
-0.000324982
-0.000327457
-0.000330237
-0.000333509
-0.000336739
-0.000339847
-0.000343832
-0.000349454
-0.000355916
-0.000361498
-0.000365039
-0.000366191
-0.000365051
-0.000362018
-0.000357825
-0.000353545
-0.000350561
-0.000350195
0.000135178
0.000112684
9.01992e-05
6.79563e-05
4.58628e-05
2.39178e-05
2.19424e-06
-1.9235e-05
-4.03094e-05
-6.09708e-05
-8.11584e-05
-0.000100809
-0.00011986
-0.000138247
-0.000155906
-0.000172775
-0.000188792
-0.000203899
-0.000218036
-0.000231146
-0.000243181
-0.000254099
-0.000263872
-0.000272491
-0.000279962
-0.000286311
-0.000291582
-0.000295837
-0.000299157
-0.000301645
-0.00030342
-0.000304621
-0.000305398
-0.000305909
-0.000306313
-0.00030676
-0.000307386
-0.0003083
-0.000309572
-0.000311232
-0.000313255
-0.000315575
-0.000318063
-0.000320572
-0.000322916
-0.000324985
-0.000326749
-0.000328234
-0.000329795
-0.000331822
-0.000334068
-0.000335635
-0.00033604
-0.00033625
-0.000336896
-0.000337937
-0.000340617
-0.000345325
-0.000350684
-0.000355672
-0.00035972
-0.000362302
-0.000363061
-0.000361992
-0.000359469
-0.000356195
-0.00035315
-0.000351538
-0.000352516
0.000122334
9.77179e-05
7.3293e-05
4.91208e-05
2.51122e-05
1.28411e-06
-2.22814e-05
-4.55054e-05
-6.83205e-05
-9.06607e-05
-0.000112456
-0.000133635
-0.000154122
-0.000173843
-0.000192725
-0.000210697
-0.000227691
-0.000243645
-0.000258493
-0.000272164
-0.000284588
-0.000295704
-0.000305456
-0.000313804
-0.000320736
-0.000326264
-0.000330436
-0.000333324
-0.000335036
-0.000335709
-0.000335514
-0.000334656
-0.000333366
-0.000331894
-0.00033049
-0.000329384
-0.000328761
-0.000328733
-0.000329321
-0.000330449
-0.00033197
-0.000333712
-0.000335567
-0.0003375
-0.000339552
-0.00034159
-0.000343047
-0.000343223
-0.000342346
-0.000341736
-0.000342112
-0.000342155
-0.00034026
-0.000338263
-0.000338599
-0.000340559
-0.000343156
-0.000346377
-0.000350193
-0.000353997
-0.00035706
-0.000358875
-0.000359189
-0.000358038
-0.00035576
-0.000353009
-0.000350694
-0.000349883
-0.000351486
9.61192e-05
6.9495e-05
4.27301e-05
1.62033e-05
-1.01463e-05
-3.63087e-05
-6.21912e-05
-8.77e-05
-0.000112753
-0.000137268
-0.000161161
-0.000184342
-0.00020672
-0.000228201
-0.000248687
-0.00026808
-0.000286278
-0.000303168
-0.000318592
-0.000332415
-0.000344604
-0.000355139
-0.000363974
-0.000371072
-0.000376415
-0.000380019
-0.000381943
-0.000382294
-0.000381227
-0.000378939
-0.000375674
-0.000371717
-0.000367383
-0.000363011
-0.000358934
-0.000355463
-0.000352842
-0.000351213
-0.000350571
-0.000350738
-0.00035135
-0.000351893
-0.000351883
-0.000351187
-0.000350405
-0.000350378
-0.000351091
-0.00035131
-0.000349717
-0.000346825
-0.000344821
-0.000344422
-0.000344217
-0.000343485
-0.000342692
-0.000342815
-0.000344282
-0.000346715
-0.000349618
-0.000352401
-0.00035443
-0.000355229
-0.000354629
-0.000352724
-0.000349839
-0.000346622
-0.000344049
-0.000343238
-0.00034507
8.87763e-05
5.99559e-05
3.16192e-05
3.28978e-06
-2.49847e-05
-5.30392e-05
-8.07589e-05
-0.000108059
-0.000134859
-0.000161071
-0.000186602
-0.000211354
-0.000235225
-0.000258121
-0.00027995
-0.00030065
-0.000320202
-0.000338696
-0.000355971
-0.000371523
-0.000385018
-0.000396391
-0.000405659
-0.000412789
-0.000417725
-0.000420421
-0.000420868
-0.000419112
-0.000415276
-0.000409584
-0.000402375
-0.00039411
-0.000385372
-0.000376837
-0.000369229
-0.000363235
-0.00035939
-0.000357945
-0.00035875
-0.000361189
-0.000364211
-0.000366516
-0.000366734
-0.000363825
-0.000358519
-0.000353538
-0.000351083
-0.00035117
-0.00035199
-0.000351961
-0.000350458
-0.000348301
-0.000346676
-0.000345814
-0.000345418
-0.000345442
-0.00034599
-0.000347117
-0.000348716
-0.000350374
-0.000351392
-0.00035108
-0.000349135
-0.000345646
-0.000341015
-0.000336082
-0.000332105
-0.000330266
-0.000331013
1.23526e-05
-1.8945e-05
-5.03567e-05
-8.14279e-05
-0.000112216
-0.000142774
-0.000172988
-0.000202702
-0.000231796
-0.000260174
-0.000287729
-0.000314328
-0.000339823
-0.000364044
-0.000386808
-0.000407897
-0.000427056
-0.000443943
-0.000458508
-0.000471074
-0.000481711
-0.00049017
-0.000496169
-0.00049954
-0.000500225
-0.000498219
-0.000493547
-0.000486283
-0.000476583
-0.000464724
-0.000451129
-0.000436362
-0.000421108
-0.000406143
-0.000392285
-0.000380325
-0.000370933
-0.000364555
-0.000361301
-0.000360868
-0.000362524
-0.000365143
-0.000367344
-0.000368101
-0.000366865
-0.000363718
-0.000359506
-0.000355508
-0.000352766
-0.000351072
-0.000349714
-0.000348533
-0.000347693
-0.000347252
-0.000347073
-0.00034708
-0.000347249
-0.000347598
-0.000348126
-0.000348687
-0.000348914
-0.000348198
-0.000345815
-0.000341402
-0.000335438
-0.000329161
-0.00032393
-0.000320634
-0.000319505
7.42385e-05
8.16526e-05
8.94457e-05
9.76993e-05
0.000106509
0.000115907
0.000125955
0.000136476
0.000147471
0.00015907
0.00017125
0.000184017
0.000197005
0.000211125
0.000224703
0.00023915
0.000253046
0.000267616
0.000281958
0.000296121
0.000311038
0.000324345
0.000337434
0.000349625
0.000361096
0.000371777
0.000380966
0.000389063
0.000396165
0.000401672
0.000405551
0.000408077
0.000409435
0.0004097
0.00040818
0.000405596
0.000402068
0.00039737
0.000391827
0.000385765
0.00037892
0.000371536
0.00036414
0.000356868
0.000348524
0.000340825
0.000332612
0.000324758
0.000317029
0.000309485
0.000302273
0.0002953
0.000288758
0.000282354
0.000276491
0.000270513
0.000265035
0.000259912
0.000255155
7.19035e-05
7.95471e-05
8.77243e-05
9.64196e-05
0.00010567
0.00011549
0.000125903
0.000136879
0.000148442
0.000160588
0.000173283
0.000186539
0.00020026
0.000214504
0.000229097
0.000243908
0.000258953
0.000274044
0.000289215
0.000304061
0.000318912
0.000333244
0.000346884
0.000359716
0.000371644
0.000382616
0.000392372
0.000400774
0.000408014
0.000413708
0.000417707
0.00042038
0.000421706
0.000421627
0.000420086
0.000417298
0.000413445
0.00040858
0.000402765
0.000396223
0.000389087
0.000381464
0.000373533
0.000365293
0.000356901
0.000348508
0.00034014
0.000331921
0.000323838
0.00031595
0.000308345
0.00030103
0.000293976
0.000287286
0.000280887
0.000274856
0.00026917
0.000263819
0.000258779
6.92265e-05
7.72253e-05
8.57541e-05
9.48485e-05
0.000104526
0.000114804
0.000125682
0.000137161
0.000149256
0.000161968
0.000175259
0.000189095
0.000203452
0.000218284
0.000233502
0.000249091
0.000264883
0.000280773
0.000296607
0.000312239
0.000327615
0.000342546
0.000356855
0.000370313
0.00038282
0.00039423
0.000404384
0.000413198
0.000420652
0.000426495
0.000430733
0.000433469
0.000434693
0.000434437
0.000432731
0.000429741
0.000425574
0.000420387
0.000414253
0.00040736
0.000399831
0.000391734
0.000383252
0.000374547
0.000365707
0.00035687
0.000348071
0.000339397
0.000330905
0.000322634
0.000314645
0.000306945
0.00029956
0.000292509
0.000285837
0.000279534
0.000273577
0.000267969
0.0002627
6.61615e-05
7.45243e-05
8.34437e-05
9.29502e-05
0.000103067
0.000113813
0.000125195
0.000137216
0.000149881
0.000163184
0.000177102
0.000191603
0.000206654
0.000222192
0.000238133
0.000254436
0.000270947
0.000287584
0.000304167
0.000320594
0.000336712
0.000352301
0.000367251
0.000381336
0.000394428
0.000406351
0.000416941
0.000426133
0.000433845
0.000439889
0.000444301
0.000447081
0.00044825
0.000447886
0.000446005
0.000442777
0.000438302
0.000432734
0.000426198
0.000418864
0.000410856
0.000402285
0.000393338
0.000384176
0.000374851
0.000365511
0.00035622
0.000347064
0.000338113
0.000329413
0.000321008
0.000312926
0.000305193
0.000297821
0.000290825
0.000284202
0.000277948
0.000272064
0.000266548
6.26249e-05
7.1374e-05
8.07092e-05
9.06596e-05
0.00010125
0.000112497
0.000124413
0.000137005
0.000150273
0.000164207
0.000178788
0.000193986
0.000209759
0.000226043
0.000242761
0.000259829
0.000277128
0.00029455
0.000311938
0.000329159
0.000346046
0.00036238
0.000378017
0.000392757
0.000406446
0.000418907
0.000429974
0.000439547
0.000447542
0.00045381
0.000458361
0.000461186
0.000462318
0.000461837
0.000459772
0.000456279
0.000451477
0.000445514
0.00043854
0.000430722
0.000422207
0.000413143
0.000403692
0.000393996
0.00038415
0.000374279
0.000364477
0.000354826
0.000345394
0.000336235
0.00032739
0.000318894
0.000310769
0.000303029
0.000295683
0.000288732
0.000282175
0.000276008
0.00027023
5.85439e-05
6.77035e-05
7.74791e-05
8.7901e-05
9.89949e-05
0.000110778
0.000123265
0.000136462
0.000150369
0.000164975
0.000180262
0.000196195
0.00021273
0.000229805
0.000247341
0.000265243
0.000283393
0.000301663
0.000319902
0.000337955
0.000355645
0.000372772
0.000389155
0.000404594
0.000418916
0.000431945
0.000443513
0.000453492
0.000461795
0.000468296
0.000472986
0.000475856
0.000476943
0.000476323