/*--------------------------------*- C++ -*----------------------------------*\
| =========                 |                                                 |
| \\      /  F ield         | OpenFOAM: The Open Source CFD Toolbox           |
|  \\    /   O peration     | Version:  2312                                  |
|   \\  /    A nd           | Website:  www.openfoam.com                      |
|    \\/     M anipulation  |                                                 |
\*---------------------------------------------------------------------------*/
FoamFile
{
    version     2.0;
    format      ascii;
    arch        "LSB;label=32;scalar=64";
    class       surfaceScalarField;
    location    "2000";
    object      phi;
}
// * * * * * * * * * * * * * * * * * * * * * * * * * * * * * * * * * * * * * //

dimensions      [0 3 -1 0 0 0 0];

oriented        oriented;

internalField   nonuniform List<scalar> 
116611
(
0.0010518
0.000405895
-0.00103602
-0.000421679
0.00106746
0.000401311
-0.000416964
0.00108294
0.000396364
-0.000411843
0.00109826
0.000391035
-0.000406358
0.0011133
0.000385308
-0.000400349
0.0011284
0.000379167
-0.000394263
0.00114305
0.00037262
-0.000387274
0.00115766
0.000365635
-0.000380246
0.00117194
0.000358193
-0.000372475
0.00118601
0.000350281
-0.000364353
0.00119981
0.000341883
-0.000355683
0.00121341
0.000332997
-0.000346596
0.00122673
0.000323622
-0.000336939
0.00123973
0.000313703
-0.000326699
0.00125251
0.00030327
-0.000316058
0.00126477
0.000292282
-0.000304542
0.00127694
0.000280696
-0.00029286
0.00128858
0.000268563
-0.000280208
0.00129996
0.000255764
-0.000267136
0.00131084
0.000242414
-0.000253297
0.00132144
0.00022836
-0.000238967
0.00133157
0.000213691
-0.000223817
0.00134121
0.000198329
-0.000207969
0.00135046
0.000182309
-0.000191559
0.00135922
0.000165583
-0.000174336
0.00136746
0.000148119
-0.00015636
0.00137525
0.000129885
-0.000137682
0.00138233
0.000110942
-0.000118016
0.00138907
9.12261e-05
-9.79681e-05
0.001395
7.0664e-05
-7.65942e-05
0.00140051
4.94006e-05
-5.49116e-05
0.00140515
2.71859e-05
-3.18238e-05
0.00140934
4.17298e-06
-8.36782e-06
0.0014127
-1.96752e-05
1.63142e-05
0.00141548
-4.4466e-05
4.16861e-05
0.00141744
-7.00784e-05
6.81257e-05
0.00141875
-9.66629e-05
9.53465e-05
0.00141925
-0.000124171
0.000123671
0.00141884
-0.000152593
0.000153004
0.00141761
-0.000182016
0.000183248
0.00141555
-0.000212351
0.000214416
0.00141263
-0.000243715
0.000246635
0.00140876
-0.00027607
0.000279935
0.00140386
-0.00030939
0.000314294
0.00139809
-0.000343758
0.000349523
0.00139126
-0.000379142
0.000385969
0.00138345
-0.000415615
0.000423425
0.00137447
-0.000453112
0.000462097
0.0013645
-0.000491676
0.00050165
0.00135337
-0.000531351
0.000542474
0.00134111
-0.000572175
0.000584434
0.00132769
-0.000614154
0.000627576
0.00131304
-0.000657347
0.000671996
0.0012972
-0.000701821
0.000717666
0.00128031
-0.000747654
0.000764546
0.00126232
-0.000795051
0.000813032
0.00124337
-0.000844223
0.000863173
0.00122338
-0.000895329
0.00091532
0.00120212
-0.000948545
0.00096981
0.00117946
-0.00100378
0.00102643
0.00115479
-0.00106091
0.00108558
0.00112779
-0.00111964
0.00114664
0.00109795
-0.00117964
0.00120948
0.00106472
-0.00124053
0.00127377
0.00102781
-0.00130199
0.0013389
0.000986504
-0.00136372
0.00140503
0.00094008
-0.00142525
0.00147167
0.00088887
-0.00148476
0.00153597
-0.00154017
0.000832969
0.00159608
0.00103457
0.000390175
-0.00101885
0.00105014
0.000385741
0.00106555
0.000380951
0.00108079
0.000375793
0.00109587
0.000370232
0.00111075
0.000364287
0.00112543
0.000357936
0.00113991
0.000351159
0.00115415
0.000343949
0.00116816
0.000336279
0.0011819
0.000328139
0.00119538
0.000319522
0.00120859
0.000310409
0.00122151
0.000300785
0.00123412
0.000290655
0.00124643
0.000279975
0.00125838
0.000268745
0.00127
0.00025694
0.00128122
0.000244547
0.00129209
0.000231547
0.00130252
0.000217923
0.00131254
0.00020367
0.00132211
0.00018876
0.00133123
0.000173187
0.00133989
0.00015693
0.00134805
0.000139953
0.00135567
0.000122266
0.00136276
0.000103849
0.00136932
8.46747e-05
0.00137525
6.47344e-05
0.00138064
4.40089e-05
0.00138536
2.24637e-05
0.00138943
1.02977e-07
0.00139285
-2.30936e-05
0.00139554
-4.71589e-05
0.00139755
-7.20873e-05
0.0013988
-9.79139e-05
0.00139926
-0.000124635
0.00139894
-0.000152272
0.00139778
-0.000180852
0.00139579
-0.000210364
0.00139291
-0.000240837
0.00138912
-0.000272272
0.00138441
-0.000304683
0.00137875
-0.000338094
0.00137211
-0.000372504
0.00136443
-0.000407939
0.00135572
-0.000444399
0.00134596
-0.000481911
0.0013351
-0.000520496
0.00132312
-0.000560197
0.00131002
-0.000601052
0.0012958
-0.000643127
0.0012805
-0.000686519
0.00126419
-0.000731341
0.00124689
-0.000777753
0.00122857
-0.000825904
0.00120912
-0.000875876
0.00118825
-0.000927676
0.00116561
-0.00098114
0.00114074
-0.00103605
0.0011132
-0.0010921
0.00108253
-0.00114897
0.00104836
-0.00120636
0.00101034
-0.00126397
0.000968092
-0.00132148
0.000921108
-0.00137827
0.000869178
-0.00143283
-0.00148289
0.000811892
0.0010178
0.000374569
-0.00100219
0.00103327
0.000370267
0.0010486
0.00036562
0.00106378
0.000360617
0.00107877
0.00035524
0.00109358
0.000349481
0.00110819
0.000343325
0.00112259
0.000336759
0.00113676
0.00032977
0.0011507
0.000322342
0.00116438
0.000314461
0.00117779
0.000306112
0.00119092
0.000297282
0.00120374
0.000287956
0.00121628
0.000278124
0.00122848
0.000267766
0.00124036
0.000256871
0.00125188
0.000245419
0.00126303
0.000233396
0.00127379
0.000220784
0.00128415
0.00020757
0.00129408
0.000193737
0.00130357
0.000179267
0.00131261
0.000164148
0.00132118
0.000148361
0.00132925
0.000131888
0.0013368
0.000114715
0.00134382
9.68259e-05
0.00135029
7.82046e-05
0.00135619
5.88344e-05
0.0013615
3.86981e-05
0.00136619
1.77783e-05
0.00137023
-3.94132e-06
0.00137362
-2.64817e-05
0.00137632
-4.98566e-05
0.00137831
-7.40806e-05
0.00137956
-9.9168e-05
0.00138006
-0.000125133
0.00137978
-0.000151991
0.00137868
-0.000179755
0.00137675
-0.000208436
0.00137396
-0.000238044
0.00137028
-0.000268594
0.0013657
-0.000300097
0.00136017
-0.000332565
0.00135367
-0.00036601
0.00134618
-0.000400447
0.00133768
-0.000435893
0.00132813
-0.000472367
0.00131754
-0.000509902
0.00130589
-0.000548544
0.00129319
-0.000588353
0.00127947
-0.000629409
0.00126476
-0.000671816
0.00124911
-0.000715682
0.00123246
-0.000761111
0.00121472
-0.00080816
0.00119565
-0.000856808
0.00117491
-0.000906938
0.00115211
-0.000958339
0.00112682
-0.00101075
0.00109862
-0.0010639
0.00106717
-0.00111752
0.00103214
-0.00117133
0.000993248
-0.00122507
0.000950154
-0.00127838
0.000902402
-0.00133051
0.000849363
-0.00137979
-0.00142273
0.000789206
0.00100158
0.000359059
-0.000986075
0.00101696
0.00035489
0.00103219
0.000350387
0.00104727
0.000345539
0.00106218
0.000340333
0.0010769
0.000334757
0.00109143
0.000328798
0.00110575
0.000322441
0.00111984
0.000315675
0.0011337
0.000308484
0.00114731
0.000300855
0.00116065
0.000292774
0.0011737
0.000284226
0.00118646
0.000275197
0.00119891
0.000265673
0.00121104
0.000255639
0.00122283
0.00024508
0.00123427
0.000233982
0.00124534
0.000222329
0.00125602
0.000210104
0.00126629
0.000197293
0.00127615
0.00018388
0.00128557
0.000169849
0.00129453
0.000155184
0.00130302
0.00013987
0.00131102
0.000123889
0.00131851
0.000107226
0.00132547
8.98656e-05
0.00133188
7.17922e-05
0.00133773
5.29892e-05
0.00134299
3.34408e-05
0.00134763
1.31311e-05
0.00135165
-7.95817e-06
0.00135502
-2.98462e-05
0.0013577
-5.25454e-05
0.00135969
-7.60709e-05
0.00136096
-0.000100436
0.00136149
-0.000125656
0.00136124
-0.000151744
0.0013602
-0.000178712
0.00135833
-0.000206572
0.00135563
-0.000235337
0.00135205
-0.000265017
0.00134758
-0.000295625
0.00134218
-0.000327172
0.00133585
-0.000359674
0.00132855
-0.000393146
0.00132026
-0.00042761
0.00131099
-0.000463095
0.00130073
-0.000499641
0.00128949
-0.000537307
0.0012773
-0.000576162
0.00126419
-0.000616291
0.00125015
-0.000657778
0.00123515
-0.00070069
0.00121909
-0.000745051
0.00120176
-0.000790824
0.00118285
-0.000837897
0.001162
-0.000886089
0.00113883
-0.000935171
0.00111298
-0.000984896
0.0010841
-0.00103502
0.0010519
-0.00108532
0.00101611
-0.00113555
0.000976473
-0.00118544
0.000932654
-0.00123456
0.000884139
-0.001282
0.000829991
-0.00132564
-0.00136045
0.000767713
0.000985942
0.000343647
-0.00097053
0.00100122
0.000339612
0.00101635
0.000335253
0.00103133
0.000330561
0.00104614
0.000325523
0.00106077
0.000320128
0.00107521
0.000314362
0.00108943
0.000308214
0.00110344
0.000301668
0.00111721
0.000294713
0.00113073
0.000287333
0.00114399
0.000279516
0.00115697
0.000271248
0.00116965
0.000262513
0.00118203
0.000253298
0.00119408
0.000243588
0.00120579
0.000233368
0.00121715
0.000222624
0.00122814
0.00021134
0.00123874
0.000199501
0.00124894
0.000187092
0.00125872
0.000174098
0.00126807
0.000160502
0.00127696
0.000146291
0.00128539
0.000131446
0.00129332
0.000115954
0.00130075
9.9798e-05
0.00130765
8.29628e-05
0.00131401
6.54329e-05
0.00131981
4.71925e-05
0.00132502
2.82264e-05
0.00132963
8.51981e-06
0.00133362
-1.1947e-05
0.00133697
-3.31907e-05
0.00133965
-5.52241e-05
0.00134164
-7.80615e-05
0.00134292
-0.000101716
0.00134346
-0.000126203
0.00134325
-0.000151533
0.00134226
-0.000177721
0.00134047
-0.000204777
0.00133784
-0.000232714
0.00133437
-0.000261544
0.00133002
-0.000291278
0.00132478
-0.000321933
0.00131864
-0.000353525
0.00131156
-0.000386075
0.00130357
-0.000419612
0.00129465
-0.000454176
0.00128482
-0.000489817
0.00127411
-0.000526597
0.00126253
-0.000564583
0.00125008
-0.000603836
0.0012367
-0.000644397
0.00122227
-0.000686266
0.00120661
-0.000729389
0.00118944
-0.000773655
0.00117045
-0.000818901
0.00114928
-0.000864925
0.00112562
-0.00091151
0.00109916
-0.000958435
0.00106963
-0.00100549
0.00103677
-0.00105246
0.00100035
-0.00109913
0.000960118
-0.0011452
0.000915692
-0.00119014
0.000866419
-0.00123273
0.000810899
-0.00127012
-0.00129483
0.00074528
0.000970896
0.000328336
-0.000955585
0.000986075
0.000324433
0.00100111
0.000320219
0.00101599
0.000315683
0.0010307
0.000310814
0.00104523
0.000305599
0.00105956
0.000300026
0.00107369
0.000294084
0.0010876
0.000287758
0.00110128
0.000281036
0.00111471
0.000273904
0.00112787
0.00026635
0.00114076
0.000258358
0.00115336
0.000249915
0.00116565
0.000241007
0.00117762
0.000231619
0.00118925
0.000221736
0.00120053
0.000211345
0.00121144
0.00020043
0.00122197
0.000188976
0.00123209
0.000176968
0.0012418
0.00016439
0.00125107
0.000151229
0.0012599
0.000137467
0.00126825
0.000123091
0.00127612
0.000108084
0.00128349
9.24304e-05
0.00129034
7.61159e-05
0.00129665
5.91249e-05
0.0013024
4.14422e-05
0.00130757
2.30528e-05
0.00131215
3.94258e-06
0.00131611
-1.59095e-05
0.00131944
-3.65174e-05
0.00132211
-5.78943e-05
0.0013241
-8.00539e-05
0.00132539
-0.00010301
0.00132596
-0.000126776
0.0013258
-0.000151364
0.00132486
-0.000176787
0.00132314
-0.000203058
0.00132062
-0.000230189
0.00131727
-0.000258193
0.00131308
-0.000287087
0.00130803
-0.000316887
0.00130212
-0.000347618
0.00129536
-0.000379307
0.00128774
-0.000411993
0.00127928
-0.00044572
0.00127
-0.00048054
0.00125991
-0.000516504
0.00124898
-0.000553654
0.00123715
-0.000592007
0.0012243
-0.000631545
0.00121024
-0.000672204
0.00119472
-0.000713873
0.00117747
-0.000756404
0.00115819
-0.000799617
0.00113658
-0.000843318
0.00111238
-0.000887311
0.00108534
-0.000931397
0.00105524
-0.000975387
0.00102186
-0.00101908
0.000984972
-0.00106224
0.000944302
-0.00110453
0.000899386
-0.00114522
0.00084934
-0.00118268
0.000792108
-0.00121289
-0.00122496
0.000722234
0.000956477
0.000313124
-0.000941266
0.000971555
0.000309355
0.000986487
0.000305286
0.00100126
0.000300907
0.00101587
0.000296206
0.0010303
0.000291172
0.00104453
0.000285793
0.00105856
0.000280056
0.00107237
0.000273949
0.00108594
0.00026746
0.00109927
0.000260575
0.00111234
0.000253281
0.00112514
0.000245564
0.00113764
0.000237411
0.00114984
0.000228808
0.00116172
0.00021974
0.00117326
0.000210193
0.00118445
0.000200153
0.00119528
0.000189604
0.00120572
0.000178533
0.00121577
0.000166923
0.0012254
0.000154761
0.0012346
0.00014203
0.00124335
0.000128717
0.00125163
0.000114805
0.00125944
0.000100279
0.00126674
8.51246e-05
0.00127353
6.93264e-05
0.00127979
5.28693e-05
0.00128549
3.57386e-05
0.00129062
1.79197e-05
0.00129517
-6.02008e-07
0.00129911
-1.98474e-05
0.00130242
-3.98287e-05
0.00130508
-6.05593e-05
0.00130708
-8.2053e-05
0.0013084
-0.000104323
0.001309
-0.000127384
0.00130889
-0.000151247
0.00130803
-0.000175926
0.0013064
-0.000201436
0.00130401
-0.00022779
0.00130082
-0.000255006
0.00129683
-0.000283103
0.00129205
-0.000312105
0.00128648
-0.000342041
0.00128011
-0.000372946
0.00127298
-0.000404861
0.00126509
-0.000437824
0.00125642
-0.000471874
0.00124695
-0.000507033
0.0012366
-0.0005433
0.00122523
-0.000580643
0.00121268
-0.000618991
0.00119871
-0.00065824
0.00118309
-0.000698252
0.00116556
-0.000738869
0.00114586
-0.000779919
0.00112377
-0.000821223
0.00109906
-0.000862601
0.00107153
-0.000903872
0.001041
-0.000944854
0.00100726
-0.000985342
0.00097009
-0.00102507
0.000929161
-0.0010636
0.000883841
-0.0010999
0.00083284
-0.00113168
0.000773028
-0.00115307
-0.00114904
0.000697108
0.000942706
0.00029801
-0.000927591
0.000957684
0.000294377
0.000972517
0.000290454
0.000987191
0.000286232
0.0010017
0.000281701
0.00101602
0.000276848
0.00103015
0.000271662
0.00104408
0.000266132
0.00105778
0.000260244
0.00107125
0.000253988
0.00108448
0.000247349
0.00109744
0.000240315
0.00111014
0.000232872
0.00112254
0.000225008
0.00113464
0.000216708
0.00114642
0.000207958
0.00115787
0.000198745
0.00116897
0.000189054
0.0011797
0.00017887
0.00119006
0.000168178
0.00120001
0.000156965
0.00120956
0.000145215
0.00121868
0.000132912
0.00122735
0.000120043
0.00123556
0.000106592
0.0012433
9.25437e-05
0.00125054
7.78835e-05
0.00125727
6.25964e-05
0.00126347
4.66675e-05
0.00126913
3.00823e-05
0.00127422
1.28265e-05
0.00127873
-5.11572e-06
0.00128265
-2.37635e-05
0.00128595
-4.3129e-05
0.00128862
-6.32257e-05
0.00129063
-8.40677e-05
0.00129198
-0.000105669
0.00129264
-0.000128043
0.0012926
-0.000151205
0.00129184
-0.000175169
0.00129035
-0.000199951
0.00128813
-0.000225571
0.00128518
-0.000252049
0.00128148
-0.00027941
0.00127706
-0.000307683
0.00127192
-0.000336898
0.00126606
-0.00036709
0.00125949
-0.000398288
0.00125218
-0.000430514
0.00124408
-0.000463776
0.0012351
-0.000498058
0.00122512
-0.000533318
0.00121397
-0.000569486
0.00120144
-0.000606462
0.00118732
-0.000644124
0.0011714
-0.000682332
0.00115346
-0.000720933
0.00113331
-0.000759767
0.00111076
-0.00079867
0.00108563
-0.000837472
0.00105776
-0.000875999
0.00102697
-0.000914067
0.000993081
-0.000951455
0.000955846
-0.000987839
0.000914828
-0.00102258
0.00086912
-0.00105419
0.000816718
-0.00107928
0.000752744
-0.0010891
-0.00106346
0.000667161
0.0009296
0.000282988
-0.000914577
0.000944484
0.000279492
0.00095922
0.000275718
0.000973797
0.000271656
0.000988202
0.000267295
0.00100242
0.000262625
0.00101645
0.000257634
0.00103027
0.000252311
0.00104387
0.000246644
0.00105724
0.00024062
0.00107036
0.000234228
0.00108322
0.000227454
0.00109581
0.000220285
0.00110811
0.000212709
0.00112011
0.000204712
0.00113178
0.00019628
0.00114313
0.000187399
0.00115413
0.000178054
0.00116477
0.000168233
0.00117503
0.000157919
0.00118489
0.000147099
0.00119435
0.000135758
0.00120338
0.000123881
0.00121197
0.000111452
0.00122011
9.84573e-05
0.00122777
8.48817e-05
0.00123494
7.07103e-05
0.00124161
5.59281e-05
0.00124776
4.05205e-05
0.00125337
2.4473e-05
0.00125842
7.77133e-06
0.00126291
-9.60212e-06
0.00126681
-2.7664e-05
0.00127011
-4.64273e-05
0.00127279
-6.59062e-05
0.00127483
-8.61155e-05
0.00127624
-0.00010707
0.00127698
-0.000128786
0.00127705
-0.000151278
0.00127645
-0.000174567
0.00127517
-0.00019867
0.00127321
-0.000223611
0.00127057
-0.000249414
0.00126727
-0.000276105
0.0012633
-0.000303712
0.00125866
-0.000332259
0.00125334
-0.000361767
0.00124729
-0.000392243
0.00124046
-0.000423684
0.00123275
-0.000456063
0.00122403
-0.000489335
0.00121414
-0.00052343
0.00120291
-0.000558259
0.00119016
-0.000593714
0.00117571
-0.000629674
0.00115939
-0.000666003
0.00114101
-0.000702561
0.00112044
-0.000739196
0.00109752
-0.000775752
0.00107212
-0.000812065
0.00104408
-0.000847961
0.00101325
-0.000883243
0.000979456
-0.000917656
0.00094238
-0.000950762
0.000901386
-0.000981588
0.000855074
-0.00100788
0.000800246
-0.00102445
0.000729894
-0.00101875
-0.000968141
0.000634577
0.000917181
0.000268051
-0.000902245
0.000931977
0.000264696
0.000946622
0.000261073
0.000961105
0.000257173
0.000975414
0.000252986
0.000989539
0.0002485
0.00100347
0.000243706
0.00101719
0.000238592
0.00103069
0.000233145
0.00104395
0.000227356
0.00105697
0.000221211
0.00106972
0.000214698
0.0010822
0.000207804
0.0010944
0.000200516
0.00110629
0.000192821
0.00111786
0.000184706
0.0011291
0.000176156
0.00114
0.000167158
0.00115054
0.000157697
0.0011607
0.00014776
0.00117047
0.00013733
0.00117983
0.000126395
0.00118877
0.000114939
0.00119728
0.000102947
0.00120533
9.04037e-05
0.00121292
7.72951e-05
0.00122002
6.3606e-05
0.00122663
4.93213e-05
0.00123272
3.44264e-05
0.00123829
1.89064e-05
0.00124331
2.747e-06
0.00124778
-1.40712e-05
0.00125168
-3.1563e-05
0.001255
-4.97431e-05
0.00125772
-6.86268e-05
0.00125983
-8.82303e-05
0.00126133
-0.000108571
0.00126221
-0.000129666
0.00126247
-0.000151535
0.0012621
-0.000174199
0.00126111
-0.000197679
0.0012595
-0.000222
0.00125727
-0.000247183
0.00125441
-0.000273249
0.00125092
-0.000300216
0.00124675
-0.000328092
0.00124186
-0.000356877
0.00123617
-0.000386556
0.00122959
-0.000417099
0.00122198
-0.000448459
0.00121322
-0.000480573
0.00120315
-0.000513363
0.00119163
-0.000546735
0.0011785
-0.000580585
0.00116362
-0.000614797
0.00114687
-0.000649245
0.0011281
-0.000683794
0.0011072
-0.0007183
0.00108406
-0.000752612
0.00105856
-0.000786566
0.00103058
-0.000819979
0.000999976
-0.000852636
0.00096653
-0.00088421
0.000929803
-0.000914036
0.000888768
-0.000940553
0.000841111
-0.000960223
0.000781727
-0.000965065
0.000701529
-0.000938551
-0.000859652
0.000593039
0.000905483
0.000253197
-0.000890629
0.000920195
0.000249984
0.000934754
0.000246515
0.000949148
0.000242779
0.000963367
0.000238767
0.000977399
0.000234468
0.000991232
0.000229873
0.00100485
0.000224969
0.00101825
0.000219746
0.00103142
0.000214192
0.00104433
0.000208296
0.00105699
0.000202044
0.00106936
0.000195426
0.00108145
0.000188427
0.00109324
0.000181035
0.00110471
0.000173236
0.00111585
0.000165017
0.00112664
0.000156364
0.00113708
0.000147263
0.00114714
0.000137699
0.00115681
0.000127659
0.00116608
0.000117126
0.00117493
0.000106087
0.00118335
9.45265e-05
0.00119132
8.24296e-05
0.00119884
6.97811e-05
0.00120588
5.65659e-05
0.00121243
4.27689e-05
0.00121848
2.8375e-05
0.00122402
1.3369e-05
0.00122903
-2.26494e-06
0.00123351
-1.85467e-05
0.00123743
-3.54913e-05
0.00124081
-5.31151e-05
0.00124361
-7.14354e-05
0.00124586
-9.04704e-05
0.00124752
-0.000110239
0.00124862
-0.000130761
0.00124914
-0.000152056
0.00124908
-0.000174145
0.00124845
-0.000197047
0.00124723
-0.000220781
0.00124541
-0.00024536
0.00124295
-0.000270794
0.00123982
-0.000297082
0.00123595
-0.000324218
0.00123125
-0.000352183
0.00122564
-0.000380944
0.001219
-0.000410459
0.00121122
-0.000440673
0.00120216
-0.000471518
0.00119171
-0.000502916
0.00117976
-0.000534778
0.00116618
-0.000567004
0.00115086
-0.000599486
0.00113372
-0.000632105
0.00111466
-0.00066473
0.00109358
-0.000697224
0.00107041
-0.000729435
0.00104504
-0.000761198
0.00101738
-0.000792316
0.000987272
-0.000822531
0.000954427
-0.000851365
0.000918096
-0.000877704
0.000876506
-0.000898964
0.000825765
-0.000909482
0.000758423
-0.000897723
0.000665443
-0.000845571
-0.000740623
0.000546414
0.000894553
0.000238421
-0.000879778
0.000909185
0.000235353
0.000923662
0.000232038
0.000937972
0.000228468
0.000952105
0.000224634
0.00096605
0.000220524
0.000979794
0.000216129
0.000993325
0.000211438
0.00100663
0.00020644
0.0010197
0.000201123
0.00103252
0.000195477
0.00104507
0.000189489
0.00105735
0.000183147
0.00106934
0.000176438
0.00108103
0.000169349
0.0010924
0.000161867
0.00110343
0.000153979
0.00111413
0.00014567
0.00112447
0.000136927
0.00113443
0.000127735
0.00114401
0.000118079
0.00115319
0.000107945
0.00116196
9.73184e-05
0.0011703
8.61831e-05
0.00117821
7.45241e-05
0.00118566
6.2326e-05
0.00119266
4.95731e-05
0.00119917
3.62499e-05
0.00120521
2.23404e-05
0.00121075
7.82891e-06
0.00121579
-7.30296e-06
0.00122032
-2.30747e-05
0.00122433
-3.9503e-05
0.00122782
-5.66056e-05
0.00123078
-7.44013e-05
0.00123322
-9.29087e-05
0.00123513
-0.000112147
0.0012365
-0.000132133
0.00123733
-0.000152886
0.00123761
-0.00017442
0.00123731
-0.000196747
0.0012364
-0.000219876
0.00123485
-0.000243808
0.0012326
-0.000268541
0.00122958
-0.000294062
0.00122571
-0.000320351
0.00122091
-0.000347379
0.00121507
-0.00037511
0.00120811
-0.000403496
0.00119992
-0.000432482
0.0011904
-0.000462002
0.00117947
-0.000491982
0.00116703
-0.000522339
0.00115301
-0.00055298
0.00113732
-0.000583799
0.0011199
-0.000614685
0.00110068
-0.000645514
0.00107961
-0.000676149
0.00105662
-0.000706444
0.00103164
-0.000736224
0.00100459
-0.000765264
0.000975261
-0.000793204
0.000943125
-0.000819229
0.000906787
-0.000841365
0.000863104
-0.000855281
0.000805991
-0.000852369
0.000726633
-0.000818365
0.000619478
-0.000738415
-0.000609142
0.000487997
0.000884458
0.00022372
-0.000869757
0.000899014
0.000220797
0.000913414
0.000217638
0.000927646
0.000214236
0.000941699
0.00021058
0.000955562
0.000206661
0.000969223
0.000202468
0.00098267
0.000197991
0.00099589
0.000193219
0.00100887
0.000188142
0.0010216
0.000182748
0.00103407
0.000177024
0.00104625
0.000170959
0.00105815
0.00016454
0.00106975
0.000157755
0.00108102
0.000150589
0.00109197
0.00014303
0.00110258
0.000135064
0.00111283
0.000126676
0.00112271
0.000117851
0.00113222
0.000108576
0.00114133
9.88349e-05
0.00115003
8.86121e-05
0.00115832
7.78922e-05
0.00116619
6.66594e-05
0.00117362
5.48975e-05
0.0011806
4.25904e-05
0.00118713
2.97216e-05
0.00119319
1.62744e-05
0.00119879
2.23206e-06
0.00120391
-1.24261e-05
0.00120856
-2.77185e-05
0.00121272
-4.36626e-05
0.00121639
-6.02762e-05
0.00121956
-7.75767e-05
0.00122223
-9.55807e-05
0.00122439
-0.000114303
0.00122602
-0.000133758
0.00122709
-0.000153955
0.00122757
-0.000174902
0.00122742
-0.000196604
0.00122661
-0.000219057
0.00122506
-0.000242258
0.00122271
-0.000266193
0.00121949
-0.000290845
0.00121533
-0.000316189
0.00121014
-0.000342194
0.00120386
-0.000368823
0.00119639
-0.000396029
0.00118767
-0.00042376
0.00117762
-0.000451954
0.00116618
-0.000480543
0.00115329
-0.000509447
0.00113889
-0.000538579
0.00112293
-0.000567841
0.00110537
-0.000597129
0.00108618
-0.000626322
0.00106532
-0.000655293
0.00104278
-0.000683897
0.00101849
-0.000711938
0.000992338
-0.000739111
0.000963931
-0.000764796
0.000932143
-0.000787441
0.000894278
-0.0008035
0.000845079
-0.000806083
0.000776512
-0.000783802
0.000681506
-0.000723359
0.000561666
-0.000618574
-0.000477415
0.000429939
0.000875293
0.000209087
-0.000860659
0.000889781
0.000206309
0.000904111
0.000203308
0.000918274
0.000200073
0.000932257
0.000196597
0.000946049
0.000192869
0.000959638
0.000188879
0.000973012
0.000184617
0.000986159
0.000180073
0.000999066
0.000175235
0.00101172
0.000170093
0.00102411
0.000164633
0.00103623
0.000158845
0.00104805
0.000152716
0.00105957
0.000146232
0.00107078
0.000139381
0.00108166
0.000132148
0.00109221
0.00012452
0.0011024
0.000116482
0.00111223
0.000108019
0.00112169
9.91156e-05
0.00113077
8.97569e-05
0.00113946
7.99266e-05
0.00114774
6.96085e-05
0.00115561
5.87864e-05
0.00116307
4.74434e-05
0.0011701
3.55628e-05
0.00117669
2.31277e-05
0.00118284
1.01212e-05
0.00118855
-3.47458e-06
0.0011938
-1.768e-05
0.0011986
-3.25113e-05
0.00120292
-4.79846e-05
0.00120676
-6.41149e-05
0.0012101
-8.0916e-05
0.00121292
-9.84002e-05
0.00121519
-0.000116577
0.00121689
-0.000135455
0.00121797
-0.000155039
0.0012184
-0.000175329
0.00121812
-0.000196324
0.00121708
-0.000218018
0.00121522
-0.000240401
0.00121249
-0.000263457
0.00120881
-0.000287169
0.00120413
-0.00031151
0.00119839
-0.000336451
0.00119152
-0.000361954
0.00118347
-0.000387978
0.00117418
-0.000414473
0.00116361
-0.000441382
0.00115171
-0.000468642
0.00113844
-0.000496178
0.00112377
-0.000523913
0.00110769
-0.000551755
0.00109017
-0.000579611
0.00107122
-0.00060737
0.00105084
-0.000634914
0.00102903
-0.00066209
0.00100572
-0.000688627
0.000980601
-0.000713991
0.000952733
-0.000736928
0.000919697
-0.000754405
0.000876707
-0.00076051
0.000816333
-0.000745709
0.000730935
-0.000698404
0.000618878
-0.000611303
0.000488021
-0.000487717
-0.000341404
0.00035201
0.000867213
0.000194506
-0.000852632
0.000881648
0.000191874
0.000895927
0.000189029
0.000910038
0.000185962
0.000923969
0.000182665
0.00093771
0.000179128
0.000951249
0.00017534
0.000964573
0.000171293
0.000977671
0.000166975
0.000990531
0.000162375
0.00100314
0.000157483
0.00101549
0.000152286
0.00102756
0.000146772
0.00103935
0.000140929
0.00105084
0.000134743
0.00106202
0.000128201
0.00107288
0.000121289
0.0010834
0.000113992
0.00109359
0.000106296
0.00110342
9.81855e-05
0.00111289
8.96448e-05
0.00112199
8.0658e-05
0.00113071
7.12089e-05
0.00113904
6.12811e-05
0.00114697
5.0858e-05
0.00115449
3.99229e-05
0.00116159
2.84592e-05
0.00116827
1.64506e-05
0.00117451
3.88071e-06
0.0011803
-9.26855e-06
0.00118563
-2.30137e-05
0.00119049
-3.73687e-05
0.00119485
-5.23466e-05
0.0011987
-6.79592e-05
0.001202
-8.42169e-05
0.00120473
-0.000101128
0.00120685
-0.000118698
0.00120832
-0.000136932
0.00120912
-0.000155831
0.00120918
-0.000175393
0.00120847
-0.000195614
0.00120694
-0.000216486
0.00120454
-0.000237998
0.00120121
-0.000260135
0.00119692
-0.000282877
0.00119161
-0.0003062
0.00118524
-0.000330076
0.00117775
-0.000354471
0.00116912
-0.000379346
0.00115931
-0.000404656
0.00114827
-0.000430349
0.001136
-0.000456369
0.00112247
-0.000482651
0.00110768
-0.000509125
0.00109164
-0.000535715
0.00107438
-0.000562343
0.00105592
-0.000588912
0.00103631
-0.000615304
0.00101552
-0.000641298
0.000993277
-0.000666386
0.000968714
-0.000689429
0.00093958
-0.000707794
0.000901274
-0.000716099
0.000846819
-0.000706055
0.000768697
-0.000667587
0.000664171
-0.000593878
0.000539251
-0.000486383
0.000406061
-0.000354528
-0.000211178
0.000275836
0.000860503
0.000179948
-0.000845946
0.000874918
0.000177459
0.000889179
0.000174768
0.000903274
0.000171867
0.000917192
0.000168747
0.000930921
0.000165398
0.000944451
0.00016181
0.00095777
0.000157974
0.000970865
0.00015388
0.000983725
0.000149515
0.000996339
0.00014487
0.00100869
0.000139931
0.00102078
0.000134688
0.00103258
0.000129126
0.00104409
0.000123234
0.0010553
0.000116997
0.00106618
0.000110401
0.00107674
0.000103432
0.00108697
9.60743e-05
0.00109684
8.83136e-05
0.00110635
8.01338e-05
0.00111549
7.15191e-05
0.00112424
6.24535e-05
0.0011326
5.29209e-05
0.00114056
4.29051e-05
0.00114809
3.23901e-05
0.00115519
2.13601e-05
0.00116184
9.79984e-06
0.00116803
-2.30649e-06
0.00117373
-1.49753e-05
0.00117894
-2.82198e-05
0.00118362
-4.20522e-05
0.00118776
-5.64836e-05
0.00119132
-7.15239e-05
0.00119429
-8.7181e-05
0.00119662
-0.000103461
0.00119829
-0.000120369
0.00119926
-0.000137906
0.00119951
-0.000156071
0.00119898
-0.000174864
0.00119764
-0.000194276
0.00119545
-0.000214301
0.00119238
-0.000234927
0.00118839
-0.000256138
0.00118343
-0.000277916
0.00117747
-0.000300239
0.00117047
-0.000323081
0.00116241
-0.00034641
0.00115326
-0.000370193
0.00114299
-0.00039439
0.0011316
-0.000418957
0.00111908
-0.000443847
0.00110544
-0.00046901
0.0010907
-0.000494391
0.00107492
-0.000519936
0.00105816
-0.000545583
0.00104049
-0.000571241
0.0010219
-0.000596716
0.00100213
-0.00062153
0.000980263
-0.000644515
0.000954035
-0.000663201
0.000918919
-0.000672678
0.000868086
-0.000665266
0.000794369
-0.000632338
0.000694693
-0.00056791
0.000574163
-0.000473348
0.000444132
-0.000356353
0.000316981
-0.000227376
-9.8679e-05
0.000204482
0.000855689
0.000165361
-0.000841102
0.000870137
0.000163011
0.000884435
0.000160471
0.00089857
0.000157732
0.000912531
0.000154786
0.000926306
0.000151623
0.000939883
0.000148233
0.000953251
0.000144607
0.000966396
0.000140734
0.000979307
0.000136604
0.000991971
0.000132206
0.00100438
0.000127527
0.00101651
0.000122556
0.00102835
0.00011728
0.0010399
0.000111686
0.00105114
0.000105761
0.00106205
9.94905e-05
0.00107262
9.28603e-05
0.00108284
8.58556e-05
0.00109269
7.84615e-05
0.00110216
7.06626e-05
0.00111123
6.24434e-05
0.0011199
5.37882e-05
0.00112814
4.46812e-05
0.00113594
3.51067e-05
0.00114328
2.50494e-05
0.00115014
1.4494e-05
0.00115652
3.42548e-06
0.00116238
-8.17172e-06
0.00116772
-2.0312e-05
0.00117251
-3.30078e-05
0.00117673
-4.62705e-05
0.00118035
-6.01103e-05
0.00118337
-7.45357e-05
0.00118574
-8.95537e-05
0.00118745
-0.000105169
0.00118846
-0.000121385
0.00118876
-0.000138202
0.00118831
-0.000155619
0.00118707
-0.000173631
0.00118503
-0.000192233
0.00118215
-0.000211416
0.00117839
-0.000231167
0.00117372
-0.000251473
0.00116812
-0.000272316
0.00116156
-0.000293676
0.00115401
-0.00031553
0.00114545
-0.000337853
0.00113587
-0.000360616
0.00112527
-0.000383788
0.00111365
-0.000407338
0.00110104
-0.000431233
0.00108747
-0.000455444
0.00107302
-0.000479939
0.00105777
-0.000504685
0.0010418
-0.000529619
0.00102512
-0.000554557
0.00100739
-0.000578988
0.000987557
-0.000601697
0.000963156
-0.000620113
0.000929572
-0.000629617
0.000879992
-0.000623098
0.000807739
-0.000593012
0.000710144
-0.000534743
0.000592265
-0.000450031
0.000464887
-0.00034597
0.000339435
-0.000230901
0.00022482
-0.000112761
-3.55503e-06
0.000129696
0.00085341
0.000150695
-0.000838744
0.000867937
0.000148484
0.000882311
0.000146097
0.00089652
0.000143523
0.000910552
0.000140755
0.000924392
0.000137783
0.000938027
0.000134598
0.000951444
0.00013119
0.000964629
0.000127549
0.000977568
0.000123666
0.000990245
0.000119528
0.00100265
0.000115125
0.00101476
0.000110445
0.00102656
0.000105475
0.00103805
0.000100203
0.00104919
9.4615e-05
0.00105998
8.86976e-05
0.00107041
8.24366e-05
0.00108045
7.58175e-05
0.00109008
6.88252e-05