/*--------------------------------*- C++ -*----------------------------------*\
| =========                 |                                                 |
| \\      /  F ield         | OpenFOAM: The Open Source CFD Toolbox           |
|  \\    /   O peration     | Version:  2312                                  |
|   \\  /    A nd           | Website:  www.openfoam.com                      |
|    \\/     M anipulation  |                                                 |
\*---------------------------------------------------------------------------*/
FoamFile
{
    version     2.0;
    format      ascii;
    arch        "LSB;label=32;scalar=64";
    class       volVectorField;
    location    "2000";
    object      U;
}
// * * * * * * * * * * * * * * * * * * * * * * * * * * * * * * * * * * * * * //

dimensions      [0 1 -1 0 0 0 0];

internalField   nonuniform List<vector> 
76025
(
(0.0359657 -0.00640368 0)
(0.0361293 -0.0064896 6.14652e-22)
(0.0362941 -0.00657173 0)
(0.0364614 -0.00665126 0)
(0.036626 -0.00672928 -1.10843e-21)
(0.0367992 -0.00679851 -2.08786e-21)
(0.0369708 -0.00686845 3.6098e-21)
(0.037147 -0.00693103 -1.51897e-21)
(0.0373221 -0.00699292 -4.74988e-22)
(0.0374982 -0.0070509 4.54924e-22)
(0.0376753 -0.00710505 -1.42079e-24)
(0.0378553 -0.00715318 1.20566e-21)
(0.0380382 -0.00720024 -1.62137e-21)
(0.0382207 -0.00724185 0)
(0.0384073 -0.00727655 3.52452e-22)
(0.0385903 -0.00731424 0)
(0.0387774 -0.00733951 0)
(0.0389642 -0.00736884 0)
(0.0391525 -0.00738798 2.7953e-22)
(0.0393394 -0.00740885 -2.55197e-22)
(0.0395276 -0.0074209 -2.3453e-22)
(0.0397183 -0.00743126 -6.37527e-22)
(0.0399071 -0.00743705 4.18144e-22)
(0.0400964 -0.00743745 5.12721e-22)
(0.0402856 -0.00743667 -4.02452e-23)
(0.0404738 -0.007436 9.56917e-23)
(0.0406642 -0.00742271 -3.5485e-22)
(0.0408511 -0.00741059 3.29465e-22)
(0.0410401 -0.0073926 -8.7032e-23)
(0.0412277 -0.00736797 6.89978e-23)
(0.0414125 -0.00735001 4.76019e-23)
(0.0415943 -0.00733031 -2.56395e-23)
(0.0417759 -0.00729777 1.88834e-23)
(0.0419571 -0.00727204 -2.5327e-23)
(0.0421366 -0.0072354 9.14739e-23)
(0.0423147 -0.00720378 1.00713e-23)
(0.0424914 -0.00716878 -3.23544e-23)
(0.0426675 -0.00712534 2.33645e-23)
(0.0428414 -0.00708636 3.10223e-24)
(0.0430106 -0.00704374 -4.57344e-23)
(0.0431782 -0.00700332 3.13086e-23)
(0.0433459 -0.00696102 -1.75515e-23)
(0.0435109 -0.00690965 3.77783e-23)
(0.0436739 -0.00686649 -8.335e-23)
(0.0438334 -0.00681951 -9.49686e-23)
(0.0439931 -0.00677866 1.8172e-22)
(0.0441496 -0.00673126 2.08024e-22)
(0.0443052 -0.00668916 -6.43944e-22)
(0.0444585 -0.00664971 4.30253e-22)
(0.044612 -0.00661534 -7.43543e-25)
(0.0447657 -0.00658471 -1.17085e-21)
(0.0449194 -0.00655774 -4.68304e-22)
(0.0450736 -0.00653692 4.95523e-22)
(0.0452301 -0.00652443 0)
(0.045394 -0.00652107 -4.9035e-22)
(0.0455707 -0.00653252 -5.06995e-22)
(0.0457656 -0.00655791 1.12658e-23)
(0.0459852 -0.00660436 -4.8847e-22)
(0.0462338 -0.00667838 4.83219e-22)
(0.046503 -0.0067738 -1.37879e-21)
(0.0467872 -0.00689492 -8.87489e-22)
(0.0470814 -0.00704899 4.3982e-25)
(0.0473651 -0.0072312 0)
(0.0476235 -0.00744375 1.89941e-21)
(0.0478422 -0.00768756 -7.41265e-22)
(0.0480114 -0.00796932 3.47852e-22)
(0.0481145 -0.00831508 -6.63819e-22)
(0.0481212 -0.00869666 5.53073e-22)
(0.0479701 -0.00907472 1.03668e-21)
(0.0358147 -0.00669131 6.53203e-22)
(0.0359864 -0.00677955 1.8858e-21)
(0.0361602 -0.00686397 -2.51451e-21)
(0.036336 -0.00694459 0)
(0.0365125 -0.00702234 2.8416e-21)
(0.0366928 -0.00709468 -8.01357e-23)
(0.036874 -0.00716406 -2.17805e-21)
(0.0370571 -0.00722881 0)
(0.0372417 -0.00728973 -2.27351e-24)
(0.0374273 -0.0073467 -4.70023e-22)
(0.0376141 -0.00739966 4.49286e-22)
(0.0378021 -0.007448 3.66196e-25)
(0.0379911 -0.00749249 0)
(0.0381816 -0.00753264 0)
(0.0383739 -0.0075673 6.88379e-22)
(0.038566 -0.00759962 -1.76098e-21)
(0.0387597 -0.00762598 -3.20603e-22)
(0.0389531 -0.00764972 8.81798e-22)
(0.0391474 -0.00766808 -5.83419e-22)
(0.0393413 -0.00768351 2.62929e-22)
(0.0395357 -0.00769394 -2.14334e-22)
(0.03973 -0.00770052 4.57897e-22)
(0.0399238 -0.00770318 -3.73465e-22)
(0.0401175 -0.0077013 5.25971e-22)
(0.0403109 -0.00769574 -3.33287e-22)
(0.0405039 -0.00768719 -3.88913e-22)
(0.0406966 -0.00767348 2.50218e-22)
(0.0408876 -0.00765717 0)
(0.041078 -0.00763687 0)
(0.0412673 -0.00761332 4.56963e-23)
(0.0414555 -0.00758631 0)
(0.0416426 -0.00755705 3.63276e-24)
(0.0418279 -0.00752344 2.03485e-23)
(0.0420113 -0.00748832 -3.90344e-23)
(0.0421931 -0.00745016 7.11697e-24)
(0.0423731 -0.00741025 -3.09134e-23)
(0.0425517 -0.0073676 0)
(0.0427279 -0.00732339 -1.08331e-22)
(0.0429019 -0.00727873 9.15554e-23)
(0.0430736 -0.00723237 -8.15699e-23)
(0.0432434 -0.00718447 5.52774e-23)
(0.0434113 -0.00713554 5.7714e-25)
(0.0435766 -0.00708652 2.44183e-23)
(0.0437399 -0.00703823 -2.27861e-23)
(0.0439014 -0.00698917 2.08013e-22)
(0.0440614 -0.00694081 -1.08845e-22)
(0.0442194 -0.00689353 -1.20824e-22)
(0.0443756 -0.00684879 2.24742e-22)
(0.0445305 -0.00680546 7.21409e-22)
(0.044685 -0.00676514 -1.81344e-25)
(0.0448392 -0.00672908 7.50128e-22)
(0.044994 -0.00669846 -2.60598e-22)
(0.0451515 -0.00667514 -7.82427e-22)
(0.0453145 -0.00666086 5.17645e-22)
(0.0454873 -0.00665705 0)
(0.0456758 -0.00666758 1.57545e-21)
(0.0458843 -0.00669543 6.80367e-24)
(0.0461154 -0.0067439 -5.03066e-22)
(0.046367 -0.00681489 -4.96351e-22)
(0.046631 -0.00690774 0)
(0.0468976 -0.00702566 4.51334e-22)
(0.0471519 -0.00716717 1.2847e-21)
(0.0473792 -0.00733379 0)
(0.0475675 -0.00753004 -7.6555e-22)
(0.0477072 -0.00776142 3.21901e-22)
(0.0477914 -0.00803603 -6.6162e-22)
(0.0478006 -0.00835809 3.2121e-22)
(0.0477125 -0.00870782 -5.97199e-22)
(0.0474744 -0.00909033 -5.28313e-22)
(0.0356554 -0.00699639 -3.27217e-21)
(0.0358356 -0.00708618 1.99926e-21)
(0.0360183 -0.0071722 -6.35553e-22)
(0.0362035 -0.00725413 2.39749e-21)
(0.0363906 -0.00733205 -2.98151e-21)
(0.0365795 -0.00740571 -2.21841e-21)
(0.0367702 -0.00747511 2.75837e-21)
(0.0369626 -0.00754016 0)
(0.0371566 -0.00760081 -1.54761e-24)
(0.0373519 -0.00765706 0)
(0.0375483 -0.00770886 -4.53369e-22)
(0.0377455 -0.00775614 4.31826e-22)
(0.0379435 -0.00779888 2.00122e-21)
(0.0381422 -0.00783713 -1.59282e-21)
(0.0383417 -0.00787067 3.66564e-22)
(0.038542 -0.00789973 1.00858e-21)
(0.0387427 -0.00792427 -3.40903e-22)
(0.0389438 -0.00794433 -3.0162e-22)
(0.0391449 -0.00796005 -8.04875e-22)
(0.039346 -0.0079713 5.32573e-22)
(0.0395467 -0.00797826 2.28758e-22)
(0.039747 -0.00798091 -4.00948e-22)
(0.0399468 -0.00797935 2.17446e-22)
(0.0401461 -0.00797346 1.62696e-22)
(0.0403448 -0.00796347 0)
(0.0405425 -0.00794964 -1.18966e-22)
(0.040739 -0.00793201 -8.84711e-23)
(0.0409344 -0.00791054 1.11137e-22)
(0.0411287 -0.00788531 0)
(0.0413217 -0.00785672 -7.81408e-23)
(0.0415133 -0.00782449 1.04735e-23)
(0.0417034 -0.0077894 -1.4872e-23)
(0.0418914 -0.00775135 0)
(0.0420776 -0.00771075 1.89596e-23)
(0.0422619 -0.0076678 -1.03577e-22)
(0.0424442 -0.00762254 7.38557e-23)
(0.0426243 -0.00757539 0)
(0.0428022 -0.0075266 9.18506e-23)
(0.0429779 -0.00747617 -9.89989e-23)
(0.0431515 -0.00742442 -1.79368e-23)
(0.0433226 -0.00737149 0)
(0.0434915 -0.00731794 -4.49382e-23)
(0.0436581 -0.00726399 -2.49749e-23)
(0.0438225 -0.0072097 2.44665e-23)
(0.0439849 -0.00715559 -1.5664e-22)
(0.0441453 -0.00710224 -1.16918e-22)
(0.0443037 -0.00705026 2.29124e-22)
(0.0444605 -0.00699996 -2.49998e-22)
(0.0446161 -0.00695194 2.5795e-22)
(0.0447713 -0.00690736 -2.53214e-22)
(0.0449271 -0.00686753 -2.57876e-22)
(0.0450855 -0.00683373 5.48576e-22)
(0.0452489 -0.00680772 0)
(0.0454211 -0.00679156 5.54567e-22)
(0.0456063 -0.00678751 6.41709e-24)
(0.0458083 -0.00679816 -5.40894e-22)
(0.0460288 -0.00682573 -5.26551e-22)
(0.0462658 -0.00687151 1.01827e-21)
(0.0465126 -0.00693636 -4.68788e-24)
(0.0467584 -0.00702026 4.75292e-22)
(0.0469906 -0.0071239 -9.00805e-22)
(0.0471959 -0.00724924 -4.32826e-22)
(0.0473624 -0.00739968 -1.32867e-23)
(0.0474804 -0.00757974 -3.79811e-22)
(0.0475416 -0.00779517 -3.70588e-22)
(0.0475383 -0.00805138 -9.64804e-22)
(0.0474524 -0.00835322 0)
(0.0472599 -0.00868291 -2.36859e-22)
(0.0468655 -0.00904814 2.41021e-22)
(0.0354916 -0.00731881 0)
(0.0356811 -0.00741007 6.63964e-22)
(0.0358732 -0.0074973 3.17527e-21)
(0.0360677 -0.00758014 -2.52721e-21)
(0.0362644 -0.00765859 -1.75052e-21)
(0.0364631 -0.0077326 2.91549e-21)
(0.0366637 -0.007802 -5.4882e-22)
(0.0368658 -0.00786675 5.27534e-22)
(0.0370694 -0.0079268 5.02803e-22)
(0.0372743 -0.00798214 1.87418e-21)
(0.0374803 -0.00803271 -1.87091e-21)
(0.0376871 -0.00807847 -1.68684e-21)
(0.0378947 -0.00811937 4.77958e-22)
(0.0381027 -0.00815544 1.54673e-21)
(0.0383111 -0.00818663 -1.11099e-21)
(0.0385198 -0.00821297 3.37233e-22)
(0.0387287 -0.00823452 -3.13756e-22)
(0.0389376 -0.00825129 -2.90365e-22)
(0.0391464 -0.00826339 7.949e-22)
(0.0393547 -0.00827081 -2.76742e-22)
(0.0395626 -0.00827364 -2.3032e-22)
(0.0397697 -0.00827192 0)
(0.0399761 -0.00826574 -3.27663e-22)
(0.0401815 -0.00825518 1.75979e-22)
(0.0403859 -0.00824038 2.49215e-22)
(0.0405889 -0.00822152 1.80979e-22)
(0.0407906 -0.00819866 -3.87677e-22)
(0.0409908 -0.00817185 1.37698e-22)
(0.0411894 -0.00814129 0)
(0.0413864 -0.0081072 4.93444e-23)
(0.0415815 -0.00806973 -1.83648e-23)
(0.0417748 -0.00802913 1.91648e-23)
(0.041966 -0.00798558 -5.13843e-23)
(0.042155 -0.00793945 1.57561e-22)
(0.0423419 -0.00789092 -2.58279e-23)
(0.0425264 -0.00784015 0)
(0.0427087 -0.00778742 0)
(0.0428885 -0.0077329 3.60442e-23)
(0.043066 -0.00767683 3.59234e-23)
(0.043241 -0.00761955 2.19914e-23)
(0.0434134 -0.00756127 -7.44092e-25)
(0.0435835 -0.00750228 2.34662e-23)
(0.0437512 -0.00744286 0)
(0.0439165 -0.00738334 -4.01498e-24)
(0.0440797 -0.0073242 0)
(0.0442408 -0.00726584 1.16207e-22)
(0.0444001 -0.0072088 6.15938e-24)
(0.0445582 -0.00715365 -3.93253e-22)
(0.0447157 -0.00710124 0)
(0.044874 -0.00705265 -2.76527e-22)
(0.0450348 -0.00700924 2.71689e-22)
(0.0452006 -0.00697261 -5.46426e-22)
(0.0453747 -0.00694463 0)
(0.0455603 -0.00692728 -1.6884e-21)
(0.0457601 -0.00692233 5.45653e-24)
(0.045975 -0.00693117 5.44592e-22)
(0.0462026 -0.00695465 5.28882e-22)
(0.0464365 -0.00699298 0)
(0.0466669 -0.00704632 0)
(0.0468821 -0.00711504 -4.6465e-22)
(0.0470698 -0.00720064 8.84211e-22)
(0.047219 -0.00730604 8.38365e-22)
(0.04732 -0.0074355 0)
(0.0473649 -0.00759438 -7.46694e-22)
(0.0473463 -0.00778888 0)
(0.047256 -0.00802346 9.44615e-22)
(0.0470718 -0.00830123 -3.05561e-22)
(0.046761 -0.00860014 -2.14662e-22)
(0.0461869 -0.00891615 -1.26645e-22)
(0.0353239 -0.00765963 0)
(0.0355233 -0.00775227 0)
(0.0357253 -0.00784057 6.59151e-22)
(0.0359297 -0.00792416 -2.47895e-21)
(0.0361363 -0.00800301 3.08063e-21)
(0.036345 -0.00807708 -5.79909e-22)
(0.0365555 -0.00814624 0)
(0.0367677 -0.00821041 -5.3136e-22)
(0.0369813 -0.00826955 0)
(0.0371961 -0.00832363 -9.41465e-22)
(0.0374119 -0.00837261 5.016e-23)
(0.0376286 -0.00841644 8.91326e-22)
(0.0378459 -0.00845512 0)
(0.0380635 -0.00848864 -7.45433e-22)
(0.0382814 -0.00851699 2.16254e-21)
(0.0384993 -0.00854021 -1.3523e-21)
(0.038717 -0.00855834 1.56492e-21)
(0.0389344 -0.00857141 -3.08715e-22)
(0.0391513 -0.00857949 2.59332e-22)
(0.0393675 -0.00858266 -2.45303e-22)
(0.039583 -0.00858097 -1.99032e-22)
(0.0397974 -0.00857452 5.98271e-22)
(0.0400106 -0.00856341 3.39264e-22)
(0.0402226 -0.00854776 0)
(0.0404331 -0.0085277 -2.23863e-22)
(0.040642 -0.00850338 -6.04361e-23)
(0.0408492 -0.00847492 2.63269e-22)
(0.0410545 -0.00844248 -6.20455e-23)
(0.0412578 -0.00840622 4.11706e-23)
(0.0414591 -0.00836634 -5.85079e-23)
(0.0416583 -0.00832302 -2.25854e-23)
(0.0418552 -0.00827644 2.27224e-23)
(0.0420497 -0.00822695 0)
(0.0422418 -0.00817487 -3.50834e-23)
(0.0424314 -0.00812037 -4.49915e-23)
(0.0426184 -0.00806364 0)
(0.0428029 -0.00800494 7.26326e-23)
(0.0429848 -0.00794449 -1.17077e-22)
(0.043164 -0.00788258 8.00037e-23)
(0.0433405 -0.00781947 -4.62534e-23)
(0.0435145 -0.00775542 -8.84026e-25)
(0.0436859 -0.00769071 -4.15248e-23)
(0.0438548 -0.00762566 1.35976e-23)
(0.0440214 -0.00756064 5.72165e-23)
(0.0441859 -0.00749607 1.11556e-24)
(0.0443486 -0.00743243 3.83543e-22)
(0.0445102 -0.00737032 0)
(0.0446714 -0.00731051 2.66294e-22)
(0.0448336 -0.00725396 -3.26692e-24)
(0.0449986 -0.00720189 -2.80335e-22)
(0.0451688 -0.00715575 0)
(0.045347 -0.00711714 -2.94219e-22)
(0.0455357 -0.00708761 2.87008e-22)
(0.0457367 -0.00706844 5.64154e-22)
(0.0459498 -0.0070604 0)
(0.046172 -0.0070637 -1.10077e-21)
(0.0463972 -0.00707813 1.07506e-21)
(0.0466164 -0.00710347 -1.03605e-21)
(0.0468187 -0.00713996 -9.50453e-24)
(0.0469932 -0.00718869 0)
(0.0471294 -0.007252 -4.4531e-22)
(0.047218 -0.00733365 4.18574e-22)
(0.0472515 -0.00743855 4.07132e-22)
(0.0472227 -0.00757255 7.55582e-22)
(0.0471245 -0.00774173 -1.04106e-21)
(0.0469467 -0.00794936 6.37234e-22)
(0.046659 -0.00819662 -3.08295e-22)
(0.0462145 -0.00845265 2.53086e-22)
(0.0454194 -0.00869244 5.7777e-22)
(0.0351524 -0.00802112 -2.7662e-21)
(0.0353623 -0.00811498 9.56526e-23)
(0.0355748 -0.00820416 2.72012e-21)
(0.0357896 -0.00828828 0)
(0.0360067 -0.00836729 -6.12389e-22)
(0.0362259 -0.00844117 0)
(0.0364468 -0.00850978 1.09922e-21)
(0.0366694 -0.00857303 -4.98834e-23)
(0.0368934 -0.00863089 -1.55421e-21)
(0.0371185 -0.00868333 4.82704e-22)
(0.0373445 -0.00873031 4.5951e-22)
(0.0375713 -0.00877181 4.30063e-22)
(0.0377986 -0.00880782 0)
(0.0380261 -0.00883833 0)
(0.0382537 -0.00886337 -3.59168e-22)
(0.038481 -0.00888297 -3.34348e-22)
(0.038708 -0.00889716 5.8601e-22)
(0.0389344 -0.00890601 -5.86394e-22)
(0.03916 -0.0089096 -5.1043e-22)
(0.0393846 -0.00890799 4.37069e-22)
(0.039608 -0.00890129 -8.38273e-22)
(0.0398301 -0.00888961 3.63026e-23)
(0.0400507 -0.00887306 3.26197e-22)
(0.0402695 -0.00885178 1.25694e-22)
(0.0404866 -0.00882592 1.95068e-22)
(0.0407017 -0.00879564 -1.95781e-22)
(0.0409147 -0.0087611 -1.00398e-22)
(0.0411254 -0.00872248 1.00853e-22)
(0.0413338 -0.00867997 0)
(0.0415397 -0.00863375 0)
(0.0417432 -0.00858405 8.63432e-23)
(0.041944 -0.00853104 3.24609e-23)
(0.0421421 -0.00847518 -6.54792e-23)
(0.0423374 -0.00841672 -1.08133e-22)
(0.0425299 -0.00835583 1.06832e-22)
(0.0427196 -0.00829275 0)
(0.0429065 -0.00822774 -7.2533e-23)
(0.0430905 -0.00816106 -1.35849e-22)
(0.0432717 -0.00809297 8.92556e-23)
(0.0434502 -0.00802375 -2.42386e-24)
(0.0436259 -0.00795368 -8.91457e-24)
(0.0437991 -0.00788307 4.16133e-23)
(0.0439699 -0.00781227 3.16242e-23)
(0.0441386 -0.00774168 6.5404e-23)
(0.0443058 -0.00767177 -3.28366e-22)
(0.044472 -0.00760313 9.65201e-25)
(0.0446382 -0.00753649 0)
(0.0448059 -0.00747274 -2.98404e-22)
(0.0449769 -0.00741298 8.89972e-22)
(0.0451534 -0.00735844 -6.01078e-22)
(0.0453376 -0.00731041 -3.04758e-22)
(0.0455316 -0.00727002 -1.22949e-23)
(0.0457361 -0.00723804 -2.96798e-22)
(0.04595 -0.00721473 -9.97849e-24)
(0.0461699 -0.00719979 5.74772e-22)
(0.0463895 -0.00719262 -5.78506e-22)
(0.0466007 -0.00719266 -5.46649e-22)
(0.0467937 -0.00719982 1.05232e-21)
(0.0469584 -0.00721487 -1.12287e-23)
(0.0470854 -0.00723964 4.80324e-22)
(0.0471659 -0.00727716 -4.68937e-22)
(0.0471925 -0.00733171 4.35193e-22)
(0.0471584 -0.00740852 -8.27579e-22)
(0.047057 -0.00751357 -3.78165e-22)
(0.0468804 -0.00765232 7.68979e-22)
(0.0466137 -0.00782638 -3.18912e-22)
(0.0462153 -0.00803327 -8.39132e-22)
(0.0456143 -0.00822721 -2.08669e-22)
(0.0445168 -0.00836104 0)
(0.0349777 -0.00840505 0)
(0.0351986 -0.00849997 -7.05811e-22)
(0.0354223 -0.00858982 4.94947e-24)
(0.0356484 -0.00867422 0)
(0.0358766 -0.00875313 0)
(0.0361068 -0.0088265 -5.93395e-22)
(0.0363388 -0.00889422 1.67042e-21)
(0.0365723 -0.0089562 -2.15294e-21)
(0.0368071 -0.00901239 1.05043e-21)
(0.037043 -0.00906278 -4.85065e-22)
(0.0372797 -0.00910733 0)
(0.037517 -0.00914603 -4.32073e-22)
(0.0377547 -0.00917887 3.99133e-22)
(0.0379924 -0.00920587 0)
(0.03823 -0.00922706 0)
(0.0384671 -0.00924247 -3.02335e-22)
(0.0387037 -0.00925217 5.24906e-23)
(0.0389394 -0.00925623 5.68182e-22)
(0.0391739 -0.00925473 4.76668e-22)
(0.0394072 -0.00924777 -4.6479e-22)
(0.039639 -0.00923548 -2.00352e-22)
(0.0398691 -0.00921797 -6.47553e-22)
(0.0400973 -0.00919539 2.6734e-23)
(0.0403234 -0.0091679 8.58119e-23)
(0.0405473 -0.00913567 -2.12501e-22)
(0.0407688 -0.00909887 5.40415e-23)
(0.0409878 -0.00905771 -1.14056e-22)
(0.0412042 -0.00901237 0)
(0.0414179 -0.00896306 0)
(0.0416287 -0.00891001 0)
(0.0418366 -0.00885344 -2.08052e-23)
(0.0420416 -0.00879355 -7.57557e-23)
(0.0422434 -0.00873089 8.54546e-23)
(0.0424422 -0.00866563 1.28336e-22)
(0.0426379 -0.00859798 -1.26809e-22)
(0.0428306 -0.0085282 0)
(0.0430201 -0.00845657 9.19792e-23)
(0.0432067 -0.00838336 -4.5525e-23)
(0.0433903 -0.00830886 0)
(0.0435712 -0.00823336 5.57173e-23)
(0.0437494 -0.00815717 -1.11849e-23)
(0.0439253 -0.00808066 7.54126e-24)
(0.0440993 -0.00800422 -3.14882e-23)
(0.044272 -0.00792833 0)
(0.0444442 -0.00785358 -1.44491e-22)
(0.0446169 -0.00778068 1.42155e-22)
(0.0447917 -0.00771047 0)
(0.0449704 -0.0076439 -1.4272e-23)
(0.0451548 -0.00758198 3.36794e-24)
(0.0453467 -0.00752565 3.02378e-22)
(0.0455475 -0.00747559 0)
(0.0457569 -0.0074321 -1.70294e-23)
(0.0459731 -0.00739496 -2.99082e-22)
(0.0461924 -0.00736347 -9.17943e-22)
(0.0464085 -0.00733675 -2.07118e-23)
(0.0466139 -0.00731395 5.61058e-22)
(0.0467999 -0.00729474 0)
(0.0469576 -0.00727949 0)
(0.0470784 -0.00726953 5.36293e-22)
(0.0471544 -0.00726722 0)
(0.0471782 -0.007276 0)
(0.0471435 -0.00730033 -2.42985e-23)
(0.0470439 -0.00734549 -4.56149e-22)
(0.0468723 -0.00741712 -8.36941e-22)
(0.046619 -0.00751939 8.19285e-22)
(0.0462607 -0.00765136 -2.70588e-23)
(0.0457394 -0.00780368 3.5176e-22)
(0.0449386 -0.00791188 2.86084e-22)
(0.0434284 -0.00789727 0)
(0.0348001 -0.00881333 0)
(0.035033 -0.00890915 7.08136e-22)
(0.0352687 -0.00899947 -2.01772e-21)
(0.0355066 -0.00908391 6.79305e-22)
(0.0357467 -0.00916243 0)
(0.0359887 -0.00923499 1.75982e-21)
(0.0362325 -0.00930147 -2.83564e-21)
(0.0364776 -0.00936178 5.49808e-23)
(0.0367239 -0.00941589 2.55061e-21)
(0.0369712 -0.00946378 -5.11835e-22)
(0.0372191 -0.00950543 4.49587e-22)
(0.0374674 -0.00954083 4.20789e-22)
(0.0377159 -0.00956998 -1.16637e-21)
(0.0379643 -0.00959291 1.47571e-21)
(0.0382123 -0.00960967 -7.09937e-22)
(0.0384596 -0.00962031 2.81278e-22)
(0.038706 -0.0096249 -1.14566e-21)
(0.0389513 -0.00962354 2.93761e-22)
(0.0391952 -0.00961632 -1.9902e-22)
(0.0394375 -0.00960338 2.51093e-22)
(0.0396779 -0.00958484 5.31979e-23)
(0.0399162 -0.00956087 9.17189e-22)
(0.0401522 -0.00953162 8.28645e-23)
(0.0403858 -0.00949728 -5.18012e-23)
(0.0406168 -0.00945804 -2.429e-22)
(0.040845 -0.00941411 5.96234e-23)
(0.0410703 -0.00936571 -2.59035e-23)
(0.0412926 -0.00931306 1.53555e-23)
(0.0415117 -0.0092564 0)
(0.0417276 -0.00919596 -6.05118e-23)
(0.0419402 -0.009132 6.08263e-23)
(0.0421495 -0.00906479 1.14891e-23)
(0.0423554 -0.00899485 -6.52429e-23)
(0.042558 -0.00892236 -7.56054e-23)
(0.0427572 -0.00884758 2.54673e-22)
(0.0429532 -0.00877078 -1.67177e-22)
(0.0431459 -0.00869227 1.54307e-22)
(0.0433356 -0.00861234 -2.1187e-22)
(0.0435225 -0.00853132 1.09254e-22)
(0.0437067 -0.00844955 -2.89847e-23)
(0.0438888 -0.00836739 0)
(0.0440693 -0.00828529 3.45697e-23)
(0.0442488 -0.00820375 -3.40594e-23)
(0.0444283 -0.00812335 -7.43867e-23)
(0.044609 -0.00804479 2.26226e-22)
(0.0447925 -0.00796881 -1.52651e-22)
(0.0449803 -0.00789623 -1.53602e-22)
(0.045174 -0.00782779 0)
(0.0453748 -0.00776405 -6.56372e-22)
(0.045583 -0.00770528 6.42635e-22)
(0.0457979 -0.00765129 -3.10261e-22)
(0.046017 -0.00760147 3.02312e-22)
(0.0462361 -0.00755486 3.17167e-22)
(0.0464495 -0.00751035 6.05364e-22)
(0.0466503 -0.00746697 5.87361e-22)
(0.0468307 -0.00742416 0)
(0.0469832 -0.00738199 -5.91677e-22)
(0.0470999 -0.00734128 0)
(0.0471739 -0.00730374 1.08022e-23)
(0.0471983 -0.00727198 -5.10264e-22)
(0.0471668 -0.0072495 5.20865e-22)
(0.0470736 -0.00724067 4.86558e-22)
(0.0469123 -0.00725044 -5.00291e-22)
(0.0466746 -0.00728355 9.12817e-24)
(0.0463464 -0.00734188 3.3667e-23)
(0.045891 -0.00742023 1.199e-21)
(0.0452237 -0.00749741 3.61361e-22)
(0.0441455 -0.00748695 2.05599e-22)
(0.0420544 -0.00726004 -2.23337e-22)
(0.0346197 -0.00924817 0)
(0.0348655 -0.00934471 0)
(0.0351141 -0.00943529 -1.34487e-21)
(0.0353649 -0.00951952 1.99639e-21)
(0.0356177 -0.00959736 6.25922e-22)
(0.0358725 -0.00966878 0)
(0.0361288 -0.00973365 0)
(0.0363863 -0.0097919 -5.33677e-22)
(0.0366449 -0.00984349 9.83644e-22)
(0.0369043 -0.0098884 -6.41309e-23)
(0.0371641 -0.00992664 -2.23784e-21)
(0.0374241 -0.00995819 4.42495e-22)
(0.0376841 -0.00998309 -3.65116e-22)
(0.0379437 -0.0100014 7.47077e-22)
(0.0382026 -0.0100131 -3.2357e-22)
(0.0384606 -0.0100183 0)
(0.0387173 -0.0100171 0)
(0.0389726 -0.0100096 2.65932e-23)
(0.0392262 -0.00999601 6.71098e-22)
(0.0394777 -0.00997637 -1.97547e-22)
(0.039727 -0.00995088 1.52589e-22)
(0.0399739 -0.00991973 -1.43954e-22)
(0.0402181 -0.0098831 -9.23459e-23)
(0.0404594 -0.00984121 1.19654e-22)
(0.0406977 -0.00979428 6.55006e-23)
(0.0409328 -0.00974254 0)
(0.0411646 -0.00968625 0)
(0.041393 -0.00962566 2.74522e-23)
(0.0416178 -0.00956104 0)
(0.041839 -0.00949265 8.35186e-23)
(0.0420566 -0.00942076 -8.3911e-23)
(0.0422706 -0.00934578 -5.39372e-23)
(0.0424809 -0.00926813 6.47256e-23)
(0.0426876 -0.00918805 1.62429e-22)
(0.0428908 -0.00910584 -8.47793e-23)
(0.0430907 -0.00902181 -1.04895e-22)
(0.0432875 -0.00893631 1.0971e-22)
(0.0434815 -0.00884968 0)
(0.0436729 -0.00876231 0)
(0.0438624 -0.00867463 3.44465e-23)
(0.0440507 -0.00858709 0)
(0.0442385 -0.00850022 0)
(0.0444269 -0.00841463 -1.1534e-22)
(0.0446172 -0.00833093 1.55125e-22)
(0.0448108 -0.0082498 -8.18789e-23)
(0.0450089 -0.00817181 1.55854e-22)
(0.0452126 -0.00809741 0)
(0.0454224 -0.0080268 5.05337e-22)
(0.0456381 -0.00795981 -4.64572e-24)
(0.045858 -0.0078959 0)
(0.0460793 -0.00783418 -6.57735e-22)
(0.0462978 -0.00777349 -7.0226e-24)
(0.0465082 -0.00771267 -6.2884e-22)
(0.0467043 -0.00765068 -3.25329e-22)
(0.0468797 -0.00758685 -6.22737e-22)
(0.0470276 -0.00752098 6.05207e-22)
(0.0471415 -0.00745348 5.8027e-22)
(0.047215 -0.00738544 0)
(0.0472422 -0.00731864 -5.73307e-22)
(0.0472171 -0.00725565 2.0233e-23)
(0.0471341 -0.00719974 0)
(0.0469873 -0.00715487 0)
(0.0467699 -0.00712523 5.1873e-22)
(0.0464712 -0.00711377 0)
(0.0460683 -0.00711863 0)
(0.045503 -0.00712723 -5.1381e-22)
(0.0446436 -0.00710008 -4.09811e-22)
(0.0431614 -0.00692296 -3.4554e-22)
(0.0402736 -0.00643302 0)
(0.0344364 -0.00971207 0)
(0.0346963 -0.00980912 0)
(0.0349589 -0.00989973 0)
(0.0352236 -0.00998347 6.55862e-22)
(0.0354903 -0.0100603 5.9469e-22)
(0.0357587 -0.0101302 -5.99502e-23)
(0.0360286 -0.0101931 -1.15414e-21)
(0.0362995 -0.0102489 5.3306e-22)
(0.0365713 -0.0102975 -4.9559e-22)
(0.0368436 -0.0103389 -9.36144e-22)
(0.0371162 -0.0103732 0)
(0.0373887 -0.0104003 0)
(0.0376609 -0.0104203 -2.84538e-23)
(0.0379324 -0.0104333 -1.06242e-21)
(0.0382029 -0.0104393 1.2357e-21)
(0.0384722 -0.0104384 -5.89089e-23)
(0.0387398 -0.0104307 -5.44516e-22)
(0.0390057 -0.0104164 -2.36422e-22)
(0.0392694 -0.0103956 -1.84938e-23)
(0.0395307 -0.0103685 0)
(0.0397893 -0.0103353 -2.84164e-22)
(0.0400451 -0.0102962 0)
(0.0402978 -0.0102514 -1.73284e-22)
(0.0405472 -0.0102012 1.64328e-22)
(0.0407931 -0.0101459 -1.14608e-22)
(0.0410354 -0.0100856 6.03762e-24)
(0.0412739 -0.0100207 -4.85359e-23)
(0.0415086 -0.00995157 7.35358e-23)
(0.0417395 -0.00987839 -5.81245e-23)
(0.0419664 -0.0098015 0)
(0.0421894 -0.00972121 -1.32958e-22)
(0.0424085 -0.00963804 -1.02589e-22)
(0.0426238 -0.00955235 1.53714e-22)
(0.0428354 -0.00946445 -1.86242e-22)
(0.0430436 -0.00937469 1.07523e-22)
(0.0432487 -0.00928346 -1.06178e-22)
(0.043451 -0.00919117 -5.68085e-23)
(0.0436511 -0.00909825 6.7263e-23)
(0.0438495 -0.00900516 3.42737e-23)
(0.0440472 -0.00891241 -1.02602e-22)
(0.0442449 -0.00882055 -9.64842e-24)
(0.0444438 -0.00873014 0)
(0.0446449 -0.0086417 3.80402e-23)
(0.0448495 -0.00855573 -7.81068e-23)
(0.0450584 -0.00847256 7.97416e-23)
(0.045272 -0.00839231 0)
(0.0454903 -0.00831481 0)
(0.0457121 -0.00823958 1.80009e-22)
(0.0459354 -0.00816582 -3.34194e-22)
(0.0461572 -0.00809247 -6.91166e-22)
(0.0463736 -0.00801836 1.34258e-21)
(0.0465798 -0.00794234 -3.41539e-22)
(0.0467705 -0.00786341 3.25333e-22)
(0.0469403 -0.00778084 3.15252e-22)
(0.0470835 -0.00769426 -6.45412e-22)
(0.0471948 -0.00760375 6.314e-22)
(0.0472686 -0.00750983 0)
(0.0472997 -0.00741358 -6.46438e-22)
(0.0472829 -0.00731662 2.60978e-23)
(0.0472129 -0.00722116 6.20044e-22)
(0.0470842 -0.00712997 0)
(0.046891 -0.00704621 0)
(0.0466248 -0.00697267 0)
(0.0462701 -0.00690916 1.20966e-21)
(0.0457872 -0.00684747 5.58789e-22)
(0.0450813 -0.00676248 4.41695e-22)
(0.0439329 -0.00659194 -1.01566e-21)
(0.0418352 -0.00619239 -7.32979e-23)
(0.0379288 -0.00543157 3.36502e-22)
(0.0342506 -0.010208 0)
(0.0345258 -0.0103053 1.40562e-21)
(0.0348036 -0.0103956 -1.74404e-21)
(0.0350834 -0.0104786 9.46869e-22)
(0.0353651 -0.0105541 -1.88873e-21)
(0.0356484 -0.0106221 -5.84217e-22)
(0.0359329 -0.0106826 -5.50821e-22)
(0.0362183 -0.0107353 0)
(0.0365043 -0.0107804 9.7804e-22)
(0.0367906 -0.0108178 8.942e-22)
(0.037077 -0.0108475 -8.8233e-22)
(0.0373629 -0.0108696 3.86425e-22)
(0.0376482 -0.0108841 -3.24888e-22)
(0.0379325 -0.010891 3.99549e-22)
(0.0382154 -0.0108906 1.1831e-21)
(0.0384967 -0.0108828 -6.08413e-23)
(0.038776 -0.0108678 -6.03327e-23)
(0.0390531 -0.0108459 -4.47572e-22)
(0.0393276 -0.0108171 -1.88651e-22)
(0.0395992 -0.0107818 -2.70384e-22)
(0.0398677 -0.01074 2.93371e-22)
(0.0401329 -0.0106922 0)
(0.0403946 -0.0106385 2.44249e-23)
(0.0406525 -0.0105792 0)
(0.0409064 -0.0105147 2.07038e-23)
(0.0411564 -0.0104452 -5.99528e-24)
(0.0414022 -0.0103711 1.6158e-23)
(0.0416438 -0.0102927 0)
(0.0418812 -0.0102105 5.59602e-23)
(0.0421145 -0.0101246 1.34621e-22)
(0.0423437 -0.0100356 -1.34868e-22)
(0.0425689 -0.009944 7.78816e-23)
(0.0427903 -0.00985016 -2.01369e-22)
(0.0430083 -0.0097545 4.0748e-22)
(0.0432232 -0.00965744 -1.08936e-22)
(0.0434355 -0.00955947 0)
(0.0436459 -0.00946105 -6.91736e-23)
(0.043855 -0.00936271 6.87881e-24)
(0.0440636 -0.00926495 1.09493e-22)
(0.0442728 -0.00916828 -9.29687e-23)
(0.0444833 -0.00907317 1.82617e-23)
(0.0446962 -0.00898001 -6.2326e-23)
(0.044912 -0.00888903 4.04172e-23)
(0.0451311 -0.00880029 0)
(0.0453533 -0.00871361 0)
(0.045578 -0.00862856 0)
(0.0458035 -0.00854442 1.79428e-22)
(0.0460277 -0.00846029 1.79556e-22)
(0.0462475 -0.00837512 0)
(0.0464594 -0.00828782 3.42101e-22)
(0.0466594 -0.00819735 3.61059e-22)
(0.0468431 -0.00810281 3.52678e-22)
(0.0470062 -0.00800349 0)
(0.047144 -0.0078989 0)
(0.0472521 -0.00778884 -6.76005e-22)
(0.047326 -0.00767343 6.6647e-22)
(0.0473612 -0.0075531 0)
(0.0473532 -0.00742866 6.5084e-22)
(0.0472975 -0.00730134 -6.54026e-22)
(0.0471893 -0.00717274 -7.12025e-22)
(0.0470233 -0.00704475 6.83554e-22)
(0.0467929 -0.00691932 -7.07515e-22)
(0.0464867 -0.0067966 0)
(0.0460775 -0.00667066 -6.79382e-22)
(0.0454946 -0.00652345 -1.10227e-24)
(0.0445778 -0.00631 -1.45389e-21)
(0.0429616 -0.00594472 -1.25545e-21)
(0.0399833 -0.00525807 1.13367e-21)
(0.0349236 -0.00424106 -3.71989e-22)
(0.0340631 -0.0107393 3.63343e-22)
(0.0343548 -0.0108366 0)
(0.0346491 -0.0109264 3.39737e-22)
(0.0349453 -0.0110082 -1.58063e-21)
(0.0352432 -0.0110819 2.75288e-21)
(0.0355426 -0.0111476 -6.06761e-22)
(0.035843 -0.0112052 5.46624e-22)
(0.0361441 -0.0112545 -9.86273e-22)
(0.0364455 -0.0112955 5.03534e-22)
(0.036747 -0.0113282 4.48147e-22)
(0.0370482 -0.0113528 4.01432e-22)
(0.0373487 -0.0113691 -1.10442e-21)
(0.0376482 -0.0113773 3.85447e-22)
(0.0379463 -0.0113775 -8.93223e-22)
(0.0382427 -0.0113698 -2.25248e-22)
(0.038537 -0.0113544 6.26052e-23)
(0.0388288 -0.0113313 4.6471e-22)
(0.039118 -0.0113009 0)
(0.0394041 -0.0112633 0)
(0.0396868 -0.0112189 1.12012e-22)
(0.039966 -0.0111678 1.07446e-22)
(0.0402414 -0.0111103 1.04274e-22)
(0.0405127 -0.0110469 -5.40559e-23)
(0.0407799 -0.0109778 8.76304e-24)
(0.0410427 -0.0109034 -8.77439e-24)
(0.0413012 -0.0108241 3.05974e-23)
(0.0415551 -0.0107402 4.41529e-23)
(0.0418046 -0.0106523 0)
(0.0420498 -0.0105606 -5.52107e-23)
(0.0422906 -0.0104656 -1.6227e-22)
(0.0425275 -0.0103678 -2.40915e-23)
(0.0427605 -0.0102678 1.83642e-22)
(0.0429901 -0.0101661 -1.1594e-22)
(0.0432167 -0.0100632 0)
(0.0434409 -0.00995952 6.70149e-23)
(0.0436634 -0.00985564 -7.10367e-23)
(0.0438849 -0.00975205 6.73562e-23)
(0.044106 -0.0096492 -1.48826e-22)
(0.0443276 -0.00954751 0)
(0.0445502 -0.00944727 -2.08953e-23)
(0.0447744 -0.00934867 2.0589e-23)
(0.0450002 -0.0092517 -3.36712e-23)
(0.0452276 -0.00915618 1.29231e-22)
(0.0454558 -0.0090617 -2.61881e-22)
(0.0456837 -0.00896767 1.72076e-22)
(0.0459095 -0.00887333 1.7916e-22)
(0.046131 -0.00877782 -1.62025e-22)
(0.0463456 -0.00868021 3.71061e-22)
(0.0465502 -0.0085796 -3.492e-22)
(0.0467416 -0.00847511 -8.83539e-22)
(0.0469164 -0.00836598 6.69413e-24)
(0.0470711 -0.00825154 -3.42067e-22)
(0.0472021 -0.00813126 0)
(0.0473059 -0.00800477 0)
(0.0473789 -0.00787183 -7.16574e-22)
(0.0474175 -0.0077324 1.06212e-21)
(0.047418 -0.00758664 -7.21873e-22)
(0.0473766 -0.0074349 0)
(0.0472895 -0.00727779 7.82303e-22)
(0.0471523 -0.00711601 1.50656e-21)
(0.0469596 -0.00695014 -7.50671e-22)
(0.0467031 -0.00678001 1.77752e-23)
(0.0463632 -0.00660095 8.5198e-22)
(0.0458878 -0.00639761 -7.87828e-23)
(0.0451484 -0.00613621 -1.72998e-21)
(0.0438701 -0.00574792 1.70722e-21)
(0.0415127 -0.00512848 7.68984e-22)
(0.0374078 -0.00413805 0)
(0.031206 -0.00290648 0)
(0.0338753 -0.0113102 -3.58537e-22)
(0.0341848 -0.0114072 -1.72278e-21)
(0.0344968 -0.0114961 1.36869e-21)
(0.0348108 -0.0115764 0)
(0.0351263 -0.011648 3.00202e-22)
(0.0354431 -0.0117109 1.09053e-21)
(0.0357608 -0.011765 -8.27702e-22)
(0.036079 -0.0118103 1.19353e-21)
(0.0363973 -0.0118466 -9.49093e-22)
(0.0367153 -0.0118741 0)
(0.0370327 -0.0118928 -2.06861e-22)
(0.0373491 -0.0119027 0)
(0.037664 -0.0119039 -2.80029e-22)
(0.0379772 -0.0118966 9.07854e-22)
(0.0382882 -0.0118808 0)
(0.0385967 -0.0118569 0)
(0.0389023 -0.0118249 0)
(0.0392047 -0.0117852 2.15326e-22)
(0.0395036 -0.011738 -2.8806e-22)
(0.0397987 -0.0116837 -1.10501e-22)
(0.0400897 -0.0116225 0)
(0.0403764 -0.0115547 0)
(0.0406587 -0.0114809 0)
(0.0409365 -0.0114015 -8.50477e-23)
(0.0412095 -0.0113167 1.28268e-22)