/*--------------------------------*- C++ -*----------------------------------*\
| =========                 |                                                 |
| \\      /  F ield         | OpenFOAM: The Open Source CFD Toolbox           |
|  \\    /   O peration     | Version:  2312                                  |
|   \\  /    A nd           | Website:  www.openfoam.com                      |
|    \\/     M anipulation  |                                                 |
\*---------------------------------------------------------------------------*/
FoamFile
{
    version     2.0;
    format      ascii;
    arch        "LSB;label=32;scalar=64";
    class       volScalarField;
    location    "500";
    object      k;
}
// * * * * * * * * * * * * * * * * * * * * * * * * * * * * * * * * * * * * * //

dimensions      [0 2 -2 0 0 0 0];

internalField   nonuniform List<scalar> 
76025
(
4.79945e-06
4.80097e-06
4.79944e-06
4.80159e-06
4.79873e-06
4.79857e-06
4.79903e-06
4.79886e-06
4.79879e-06
4.79918e-06
4.79883e-06
4.80371e-06
4.80547e-06
4.80664e-06
4.80773e-06
4.80543e-06
4.80371e-06
4.80376e-06
4.80298e-06
4.80196e-06
4.7956e-06
4.79085e-06
4.78454e-06
4.78458e-06
4.78521e-06
4.78576e-06
4.78363e-06
4.78456e-06
4.78644e-06
4.78869e-06
4.79079e-06
4.79407e-06
4.79709e-06
4.80093e-06
4.80525e-06
4.80969e-06
4.81674e-06
4.82404e-06
4.83541e-06
4.84808e-06
4.86551e-06
4.88484e-06
4.9115e-06
4.93768e-06
4.97221e-06
5.00625e-06
5.04554e-06
5.08301e-06
5.12931e-06
5.16489e-06
5.21435e-06
5.24601e-06
5.29519e-06
5.32215e-06
5.37287e-06
5.39741e-06
5.45057e-06
5.47861e-06
5.53849e-06
5.5743e-06
5.64364e-06
5.68101e-06
5.76261e-06
5.80923e-06
5.90282e-06
5.98325e-06
6.06656e-06
6.19621e-06
6.26976e-06
4.82475e-06
4.82579e-06
4.82696e-06
4.82748e-06
4.83036e-06
4.83128e-06
4.83219e-06
4.83272e-06
4.83279e-06
4.8316e-06
4.83122e-06
4.83339e-06
4.83536e-06
4.83736e-06
4.83954e-06
4.8408e-06
4.84517e-06
4.84398e-06
4.84682e-06
4.84882e-06
4.84954e-06
4.85003e-06
4.84375e-06
4.84715e-06
4.84366e-06
4.8425e-06
4.84454e-06
4.85106e-06
4.85531e-06
4.86018e-06
4.8647e-06
4.86112e-06
4.86127e-06
4.87178e-06
4.88277e-06
4.89159e-06
4.89857e-06
4.90552e-06
4.91552e-06
4.92825e-06
4.94573e-06
4.96545e-06
4.99041e-06
5.01561e-06
5.04645e-06
5.07555e-06
5.11143e-06
5.143e-06
5.18182e-06
5.21481e-06
5.25635e-06
5.29009e-06
5.33504e-06
5.36924e-06
5.41843e-06
5.45386e-06
5.50916e-06
5.54639e-06
5.60985e-06
5.65033e-06
5.72357e-06
5.77031e-06
5.8575e-06
5.9109e-06
6.01932e-06
6.07866e-06
6.20963e-06
6.28534e-06
6.40664e-06
4.8592e-06
4.85942e-06
4.86303e-06
4.86409e-06
4.86498e-06
4.86565e-06
4.86471e-06
4.86807e-06
4.86945e-06
4.86916e-06
4.87387e-06
4.8754e-06
4.87501e-06
4.88047e-06
4.88174e-06
4.87917e-06
4.88434e-06
4.88597e-06
4.8838e-06
4.89054e-06
4.88514e-06
4.89099e-06
4.88706e-06
4.88585e-06
4.88821e-06
4.89186e-06
4.89671e-06
4.90335e-06
4.908e-06
4.91694e-06
4.92429e-06
4.93443e-06
4.94486e-06
4.95074e-06
4.96964e-06
4.97763e-06
4.97583e-06
4.97459e-06
4.98296e-06
4.99638e-06
5.01524e-06
5.03592e-06
5.06131e-06
5.08647e-06
5.11679e-06
5.14498e-06
5.1797e-06
5.20982e-06
5.24861e-06
5.28001e-06
5.32305e-06
5.35556e-06
5.40304e-06
5.43683e-06
5.48915e-06
5.5246e-06
5.58307e-06
5.62109e-06
5.6872e-06
5.72921e-06
5.80522e-06
5.85404e-06
5.94026e-06
5.99959e-06
6.09726e-06
6.16937e-06
6.28757e-06
6.37031e-06
6.52155e-06
4.89687e-06
4.89773e-06
4.89654e-06
4.89786e-06
4.90368e-06
4.90521e-06
4.90467e-06
4.90958e-06
4.90575e-06
4.90926e-06
4.90653e-06
4.90708e-06
4.90838e-06
4.9115e-06
4.91671e-06
4.92001e-06
4.92472e-06
4.92773e-06
4.92991e-06
4.9335e-06
4.94041e-06
4.944e-06
4.94346e-06
4.94709e-06
4.94792e-06
4.95892e-06
4.9631e-06
4.96935e-06
4.97422e-06
4.97028e-06
4.96681e-06
4.96945e-06
4.97488e-06
4.98185e-06
4.99099e-06
5.00118e-06
5.01345e-06
5.02728e-06
5.04421e-06
5.06244e-06
5.08404e-06
5.1061e-06
5.13201e-06
5.15728e-06
5.18722e-06
5.2151e-06
5.24907e-06
5.27903e-06
5.3172e-06
5.34873e-06
5.39157e-06
5.42438e-06
5.4724e-06
5.50664e-06
5.56029e-06
5.59657e-06
5.65694e-06
5.69601e-06
5.76503e-06
5.80833e-06
5.88815e-06
5.93791e-06
6.03001e-06
6.09045e-06
6.19557e-06
6.27502e-06
6.39386e-06
6.49778e-06
6.63937e-06
4.93054e-06
4.92944e-06
4.9337e-06
4.93467e-06
4.93282e-06
4.93562e-06
4.93558e-06
4.93922e-06
4.94239e-06
4.94502e-06
4.9523e-06
4.95495e-06
4.95878e-06
4.96133e-06
4.95917e-06
4.95846e-06
4.96033e-06
4.96387e-06
4.96827e-06
4.97309e-06
4.97946e-06
4.98597e-06
4.99275e-06
4.99656e-06
5.00922e-06
5.01427e-06
5.02002e-06
5.01017e-06
5.0247e-06
5.01757e-06
5.01679e-06
5.02131e-06
5.02951e-06
5.03977e-06
5.05213e-06
5.06569e-06
5.08135e-06
5.09798e-06
5.1171e-06
5.13683e-06
5.15952e-06
5.18225e-06
5.20862e-06
5.2342e-06
5.26433e-06
5.29249e-06
5.3266e-06
5.35698e-06
5.39548e-06
5.42765e-06
5.47119e-06
5.50486e-06
5.55415e-06
5.58947e-06
5.64514e-06
5.68288e-06
5.7458e-06
5.78707e-06
5.8589e-06
5.90494e-06
5.98758e-06
6.04084e-06
6.1357e-06
6.20036e-06
6.30808e-06
6.39106e-06
6.50975e-06
6.62055e-06
6.75614e-06
4.97728e-06
4.97851e-06
4.97884e-06
4.97632e-06
4.9797e-06
4.98021e-06
4.97853e-06
4.97982e-06
4.98095e-06
4.98802e-06
4.98466e-06
4.99107e-06
4.98858e-06
4.98776e-06
4.99036e-06
4.9949e-06
5.00073e-06
5.00873e-06
5.01349e-06
5.02229e-06
5.02836e-06
5.03727e-06
5.04579e-06
5.04893e-06
5.06296e-06
5.05508e-06
5.06847e-06
5.06179e-06
5.06205e-06
5.06684e-06
5.07476e-06
5.08464e-06
5.09651e-06
5.1095e-06
5.12426e-06
5.13986e-06
5.15743e-06
5.17557e-06
5.19612e-06
5.21687e-06
5.24063e-06
5.26409e-06
5.29125e-06
5.31741e-06
5.34816e-06
5.37693e-06
5.41152e-06
5.44267e-06
5.48157e-06
5.51476e-06
5.55872e-06
5.59361e-06
5.64356e-06
5.68014e-06
5.73693e-06
5.77588e-06
5.84039e-06
5.8829e-06
5.95663e-06
6.00401e-06
6.08919e-06
6.14355e-06
6.24229e-06
6.30655e-06
6.42165e-06
6.50056e-06
6.63231e-06
6.74237e-06
6.88115e-06
5.01989e-06
5.02227e-06
5.02459e-06
5.02555e-06
5.0277e-06
5.0291e-06
5.03177e-06
5.03335e-06
5.03514e-06
5.03939e-06
5.04103e-06
5.04414e-06
5.04581e-06
5.04702e-06
5.05496e-06
5.05768e-06
5.05565e-06
5.05629e-06
5.06354e-06
5.06954e-06
5.07901e-06
5.09147e-06
5.09783e-06
5.11429e-06
5.12253e-06
5.13093e-06
5.13792e-06
5.13665e-06
5.13407e-06
5.13826e-06
5.14691e-06
5.1581e-06
5.17149e-06
5.18596e-06
5.20242e-06
5.2195e-06
5.23873e-06
5.25817e-06
5.28022e-06
5.30204e-06
5.32714e-06
5.35145e-06
5.37982e-06
5.40667e-06
5.43846e-06
5.46784e-06
5.50328e-06
5.53513e-06
5.57463e-06
5.60877e-06
5.65305e-06
5.68926e-06
5.73938e-06
5.77757e-06
5.8348e-06
5.87545e-06
5.94105e-06
5.98546e-06
6.0609e-06
6.11096e-06
6.1981e-06
6.25664e-06
6.35693e-06
6.42763e-06
6.54523e-06
6.6277e-06
6.7741e-06
6.87118e-06
7.04058e-06
5.06664e-06
5.0666e-06
5.06927e-06
5.07197e-06
5.07608e-06
5.07849e-06
5.08181e-06
5.08437e-06
5.08666e-06
5.08994e-06
5.09174e-06
5.09598e-06
5.0998e-06
5.10312e-06
5.10915e-06
5.11548e-06
5.11942e-06
5.13053e-06
5.13683e-06
5.15216e-06
5.1588e-06
5.16626e-06
5.17222e-06
5.16954e-06
5.17074e-06
5.17555e-06
5.18219e-06
5.19004e-06
5.19931e-06
5.21012e-06
5.22278e-06
5.23651e-06
5.25204e-06
5.26818e-06
5.28629e-06
5.30468e-06
5.32543e-06
5.34606e-06
5.36959e-06
5.39261e-06
5.41912e-06
5.4445e-06
5.47403e-06
5.50176e-06
5.53437e-06
5.56455e-06
5.60045e-06
5.63322e-06
5.67277e-06
5.70821e-06
5.75212e-06
5.79023e-06
5.83964e-06
5.88043e-06
5.93702e-06
5.98075e-06
6.04652e-06
6.09411e-06
6.17109e-06
6.22443e-06
6.31424e-06
6.37698e-06
6.47917e-06
6.55908e-06
6.67064e-06
6.77612e-06
6.90472e-06
7.02876e-06
7.19821e-06
5.13695e-06
5.14233e-06
5.14361e-06
5.14214e-06
5.1405e-06
5.14263e-06
5.14476e-06
5.14861e-06
5.15181e-06
5.15593e-06
5.16011e-06
5.16506e-06
5.16725e-06
5.17797e-06
5.18212e-06
5.18745e-06
5.19109e-06
5.18912e-06
5.19104e-06
5.19727e-06
5.20254e-06
5.20947e-06
5.21708e-06
5.22483e-06
5.23327e-06
5.24278e-06
5.2534e-06
5.26508e-06
5.278e-06
5.29183e-06
5.30696e-06
5.32281e-06
5.34013e-06
5.35796e-06
5.37754e-06
5.39743e-06
5.4194e-06
5.44136e-06
5.46583e-06
5.48995e-06
5.517e-06
5.54341e-06
5.57307e-06
5.60197e-06
5.63432e-06
5.66598e-06
5.70114e-06
5.73585e-06
5.7742e-06
5.81222e-06
5.85453e-06
5.89608e-06
5.94366e-06
5.98891e-06
6.04375e-06
6.09288e-06
6.15765e-06
6.21092e-06
6.28879e-06
6.34691e-06
6.44079e-06
6.50586e-06
6.61713e-06
6.69562e-06
6.8202e-06
6.92863e-06
7.05779e-06
7.20937e-06
7.3671e-06
5.18638e-06
5.18978e-06
5.1923e-06
5.19537e-06
5.19862e-06
5.20326e-06
5.20734e-06
5.2132e-06
5.21946e-06
5.22722e-06
5.23345e-06
5.24095e-06
5.24697e-06
5.25444e-06
5.26196e-06
5.26683e-06
5.27577e-06
5.28212e-06
5.2852e-06
5.29725e-06
5.3024e-06
5.2999e-06
5.29904e-06
5.30408e-06
5.31261e-06
5.32326e-06
5.33563e-06
5.34911e-06
5.36388e-06
5.37943e-06
5.39618e-06
5.41368e-06
5.43241e-06
5.45174e-06
5.4726e-06
5.49393e-06
5.51689e-06
5.54015e-06
5.56519e-06
5.59059e-06
5.61777e-06
5.6456e-06
5.67492e-06
5.70558e-06
5.73702e-06
5.77101e-06
5.80468e-06
5.84252e-06
5.87883e-06
5.92102e-06
5.96089e-06
6.00779e-06
6.05276e-06
6.10469e-06
6.1569e-06
6.21414e-06
6.27651e-06
6.33896e-06
6.41544e-06
6.48249e-06
6.57781e-06
6.64925e-06
6.76807e-06
6.84609e-06
6.99034e-06
7.08716e-06
7.2442e-06
7.39891e-06
7.53132e-06
5.26408e-06
5.26418e-06
5.26743e-06
5.26972e-06
5.27391e-06
5.27927e-06
5.2876e-06
5.29306e-06
5.29612e-06
5.2994e-06
5.30403e-06
5.30971e-06
5.31544e-06
5.32118e-06
5.32737e-06
5.33222e-06
5.33814e-06
5.34359e-06
5.34898e-06
5.35541e-06
5.3622e-06
5.36935e-06
5.37773e-06
5.38755e-06
5.39901e-06
5.41164e-06
5.42563e-06
5.4405e-06
5.45658e-06
5.47339e-06
5.49139e-06
5.51006e-06
5.52998e-06
5.55046e-06
5.57224e-06
5.59461e-06
5.61826e-06
5.64253e-06
5.66811e-06
5.69454e-06
5.7221e-06
5.75107e-06
5.78059e-06
5.81264e-06
5.84408e-06
5.87997e-06
5.9134e-06
5.95395e-06
5.98977e-06
6.03576e-06
6.07489e-06
6.12701e-06
6.17094e-06
6.22979e-06
6.28054e-06
6.34675e-06
6.40689e-06
6.4807e-06
6.5541e-06
6.63452e-06
6.72719e-06
6.81217e-06
6.93197e-06
7.01965e-06
7.17556e-06
7.26688e-06
7.46438e-06
7.57609e-06
7.78417e-06
5.35508e-06
5.36013e-06
5.36362e-06
5.37098e-06
5.37538e-06
5.38403e-06
5.38817e-06
5.39902e-06
5.40161e-06
5.4052e-06
5.39787e-06
5.40165e-06
5.3986e-06
5.40013e-06
5.40455e-06
5.41024e-06
5.41688e-06
5.4242e-06
5.43204e-06
5.4407e-06
5.45002e-06
5.46025e-06
5.47128e-06
5.48337e-06
5.49631e-06
5.51033e-06
5.52516e-06
5.54104e-06
5.55771e-06
5.5754e-06
5.59392e-06
5.61341e-06
5.63383e-06
5.65511e-06
5.67764e-06
5.70071e-06
5.72533e-06
5.75036e-06
5.77707e-06
5.80406e-06
5.83292e-06
5.8623e-06
5.89343e-06
5.92585e-06
5.95934e-06
5.99568e-06
6.03166e-06
6.07296e-06
6.11181e-06
6.15917e-06
6.20166e-06
6.25613e-06
6.30349e-06
6.36618e-06
6.4199e-06
6.49217e-06
6.55401e-06
6.63718e-06
6.70997e-06
6.80433e-06
6.89359e-06
6.99738e-06
7.11209e-06
7.22207e-06
7.37346e-06
7.48707e-06
7.68489e-06
7.81173e-06
8.0474e-06
5.43623e-06
5.44061e-06
5.44386e-06
5.4487e-06
5.45191e-06
5.4566e-06
5.4597e-06
5.46416e-06
5.46711e-06
5.47117e-06
5.47453e-06
5.47904e-06
5.48404e-06
5.49005e-06
5.49701e-06
5.50487e-06
5.51337e-06
5.52266e-06
5.53246e-06
5.54307e-06
5.55421e-06
5.56621e-06
5.57876e-06
5.59224e-06
5.60629e-06
5.62133e-06
5.63699e-06
5.65366e-06
5.67101e-06
5.68938e-06
5.70858e-06
5.72871e-06
5.74985e-06
5.77165e-06
5.79493e-06
5.81843e-06
5.84386e-06
5.86914e-06
5.89698e-06
5.92425e-06
5.95474e-06
5.98441e-06
6.01776e-06
6.05048e-06
6.08687e-06
6.12355e-06
6.16325e-06
6.20495e-06
6.24846e-06
6.29631e-06
6.34448e-06
6.39965e-06
6.45359e-06
6.51753e-06
6.57843e-06
6.65304e-06
6.72213e-06
6.80987e-06
6.88885e-06
6.99206e-06
7.08487e-06
7.20343e-06
7.31928e-06
7.44766e-06
7.60333e-06
7.73116e-06
7.94742e-06
8.08283e-06
8.33712e-06
5.52847e-06
5.53152e-06
5.53456e-06
5.53825e-06
5.54187e-06
5.54606e-06
5.55036e-06
5.55525e-06
5.56037e-06
5.56621e-06
5.57242e-06
5.57944e-06
5.587e-06
5.59538e-06
5.60433e-06
5.61407e-06
5.62428e-06
5.63522e-06
5.64665e-06
5.65878e-06
5.67141e-06
5.68484e-06
5.69875e-06
5.7135e-06
5.72874e-06
5.74486e-06
5.7615e-06
5.77907e-06
5.79724e-06
5.81636e-06
5.83624e-06
5.857e-06
5.87883e-06
5.90142e-06
5.92541e-06
5.94972e-06
5.97613e-06
6.0023e-06
6.03123e-06
6.05953e-06
6.09131e-06
6.12227e-06
6.1572e-06
6.19158e-06
6.22992e-06
6.26869e-06
6.31081e-06
6.35508e-06
6.40161e-06
6.45248e-06
6.5044e-06
6.56312e-06
6.62161e-06
6.6897e-06
6.75619e-06
6.83547e-06
6.91183e-06
7.00458e-06
7.09288e-06
7.20253e-06
7.30464e-06
7.43549e-06
7.55478e-06
7.70887e-06
7.85861e-06
8.02186e-06
8.25433e-06
8.38731e-06
8.69412e-06
5.6418e-06
5.64467e-06
5.64785e-06
5.65151e-06
5.65561e-06
5.66026e-06
5.66545e-06
5.67131e-06
5.67775e-06
5.68488e-06
5.6927e-06
5.70122e-06
5.7104e-06
5.72019e-06
5.73064e-06
5.74163e-06
5.7533e-06
5.76545e-06
5.7783e-06
5.7916e-06
5.80561e-06
5.82006e-06
5.83528e-06
5.85092e-06
5.86737e-06
5.88428e-06
5.90206e-06
5.92035e-06
5.93959e-06
5.95941e-06
5.9803e-06
6.00182e-06
6.02461e-06
6.04802e-06
6.07281e-06
6.09825e-06
6.12533e-06
6.15287e-06
6.18255e-06
6.21259e-06
6.24526e-06
6.2784e-06
6.31445e-06
6.35151e-06
6.39128e-06
6.43332e-06
6.47725e-06
6.52551e-06
6.57419e-06
6.63004e-06
6.68433e-06
6.74941e-06
6.81026e-06
6.88662e-06
6.95544e-06
7.04488e-06
7.12481e-06
7.22782e-06
7.32412e-06
7.44098e-06
7.55898e-06
7.69267e-06
7.83564e-06
7.99763e-06
8.16393e-06
8.37037e-06
8.60844e-06
8.75307e-06
9.1959e-06
5.76897e-06
5.77239e-06
5.77623e-06
5.78042e-06
5.7852e-06
5.79054e-06
5.79653e-06
5.80326e-06
5.81072e-06
5.81892e-06
5.82794e-06
5.83765e-06
5.84819e-06
5.85931e-06
5.87121e-06
5.88358e-06
5.89668e-06
5.91019e-06
5.9244e-06
5.93897e-06
5.95431e-06
5.96998e-06
5.98648e-06
6.0033e-06
6.02097e-06
6.03901e-06
6.05793e-06
6.0773e-06
6.09759e-06
6.11847e-06
6.14031e-06
6.16292e-06
6.18659e-06
6.21126e-06
6.23712e-06
6.26405e-06
6.29223e-06
6.32169e-06
6.35256e-06
6.38471e-06
6.41879e-06
6.45423e-06
6.49218e-06
6.53174e-06
6.57416e-06
6.61892e-06
6.66638e-06
6.71769e-06
6.77079e-06
6.8303e-06
6.88979e-06
6.9596e-06
7.02613e-06
7.10919e-06
7.18343e-06
7.28284e-06
7.36733e-06
7.48387e-06
7.5854e-06
7.71744e-06
7.84593e-06
7.9934e-06
8.1615e-06
8.33243e-06
8.54357e-06
8.78087e-06
9.03589e-06
9.1761e-06
9.99026e-06
5.92106e-06
5.92525e-06
5.92999e-06
5.93507e-06
5.94074e-06
5.94698e-06
5.95386e-06
5.96142e-06
5.96972e-06
5.97868e-06
5.98842e-06
5.99884e-06
6.00997e-06
6.02188e-06
6.03437e-06
6.04767e-06
6.06146e-06
6.07598e-06
6.09097e-06
6.10665e-06
6.12284e-06
6.13969e-06
6.15697e-06
6.17509e-06
6.19355e-06
6.21298e-06
6.23268e-06
6.2535e-06
6.27457e-06
6.29692e-06
6.31956e-06
6.34369e-06
6.36827e-06
6.39453e-06
6.42141e-06
6.45016e-06
6.47969e-06
6.51095e-06
6.54362e-06
6.57783e-06
6.61413e-06
6.65189e-06
6.6928e-06
6.7349e-06
6.78129e-06
6.8287e-06
6.88128e-06
6.93533e-06
6.9949e-06
7.05729e-06
7.12491e-06
7.19784e-06
7.27439e-06
7.36121e-06
7.44708e-06
7.55188e-06
7.64918e-06
7.77364e-06
7.89052e-06
8.03351e-06
8.18389e-06
8.34767e-06
8.55056e-06
8.73765e-06
9.02387e-06
9.23456e-06
9.60465e-06
9.76388e-06
1.09654e-05
6.08976e-06
6.09528e-06
6.10129e-06
6.10778e-06
6.11483e-06
6.1224e-06
6.1306e-06
6.13942e-06
6.14884e-06
6.15894e-06
6.16975e-06
6.18119e-06
6.19336e-06
6.20614e-06
6.21953e-06
6.23355e-06
6.24817e-06
6.26347e-06
6.2793e-06
6.29589e-06
6.31288e-06
6.33079e-06
6.34895e-06
6.36812e-06
6.38757e-06
6.40806e-06
6.42892e-06
6.45083e-06
6.47326e-06
6.49678e-06
6.52107e-06
6.54645e-06
6.57287e-06
6.60028e-06
6.62901e-06
6.65881e-06
6.69017e-06
6.72295e-06
6.75766e-06
6.79424e-06
6.83324e-06
6.87454e-06
6.91883e-06
6.96559e-06
7.01573e-06
7.0686e-06
7.12528e-06
7.18542e-06
7.24999e-06
7.31915e-06
7.39327e-06
7.47376e-06
7.5582e-06
7.6545e-06
7.74861e-06
7.86658e-06
7.97294e-06
8.11493e-06
8.24673e-06
8.41141e-06
8.58917e-06
8.78159e-06
9.01708e-06
9.25407e-06
9.56611e-06
9.76942e-06
1.05103e-05
1.05538e-05
1.47866e-05
6.2932e-06
6.29941e-06
6.30611e-06
6.31335e-06
6.32121e-06
6.32963e-06
6.33865e-06
6.34841e-06
6.35868e-06
6.36973e-06
6.3814e-06
6.3937e-06
6.40659e-06
6.42031e-06
6.43453e-06
6.44946e-06
6.46492e-06
6.48098e-06
6.49764e-06
6.51491e-06
6.53272e-06
6.55118e-06
6.57028e-06
6.59006e-06
6.61062e-06
6.63186e-06
6.65399e-06
6.67683e-06
6.70069e-06
6.72514e-06
6.75104e-06
6.77755e-06
6.80582e-06
6.83471e-06
6.86563e-06
6.89738e-06
6.9314e-06
6.96667e-06
7.00456e-06
7.04416e-06
7.08686e-06
7.13171e-06
7.18018e-06
7.23132e-06
7.28655e-06
7.34449e-06
7.4074e-06
7.47369e-06
7.54621e-06
7.62201e-06
7.7066e-06
7.79381e-06
7.89107e-06
7.99603e-06
8.10419e-06
8.23585e-06
8.36097e-06
8.5205e-06
8.68697e-06
8.86603e-06
9.10001e-06
9.29084e-06
9.60478e-06
9.80652e-06
1.0281e-05
1.04432e-05
1.28915e-05
1.34438e-05
2.86716e-05
6.52414e-06
6.53137e-06
6.53928e-06
6.54767e-06
6.55677e-06
6.56647e-06
6.57676e-06
6.58766e-06
6.59919e-06
6.61125e-06
6.62388e-06
6.63729e-06
6.65127e-06
6.666e-06
6.68141e-06
6.69759e-06
6.71424e-06
6.73158e-06
6.74934e-06
6.76776e-06
6.78671e-06
6.80628e-06
6.82665e-06
6.84751e-06
6.86955e-06
6.89189e-06
6.9157e-06
6.93977e-06
6.96539e-06
6.99134e-06
7.01904e-06
7.04733e-06
7.07752e-06
7.10836e-06
7.14162e-06
7.17582e-06
7.21271e-06
7.25097e-06
7.29214e-06
7.33517e-06
7.38168e-06
7.43038e-06
7.48364e-06
7.53942e-06
7.60062e-06
7.66568e-06
7.73612e-06
7.81205e-06
7.89272e-06
7.98076e-06
8.07445e-06
8.17612e-06
8.28402e-06
8.40797e-06
8.53043e-06
8.68812e-06
8.83898e-06
9.02419e-06
9.23574e-06
9.42232e-06
9.6971e-06
9.9067e-06
1.02138e-05
1.06158e-05
1.16455e-05
1.29397e-05
2.05357e-05
2.69604e-05
7.06219e-05
6.80949e-06
6.81712e-06
6.82545e-06
6.83421e-06
6.84368e-06
6.8537e-06
6.86446e-06
6.87564e-06
6.88764e-06
6.90027e-06
6.91351e-06
6.92747e-06
6.94219e-06
6.95771e-06
6.97401e-06
6.99093e-06
7.00865e-06
7.0267e-06
7.04572e-06
7.06512e-06
7.08539e-06
7.10629e-06
7.12815e-06
7.15057e-06
7.17433e-06
7.19853e-06
7.22405e-06
7.24992e-06
7.27736e-06
7.30537e-06
7.33524e-06
7.36563e-06
7.3986e-06
7.43193e-06
7.46858e-06
7.50578e-06
7.54681e-06
7.58886e-06
7.63507e-06
7.68289e-06
7.73532e-06
7.78993e-06
7.84993e-06
7.91305e-06
7.9815e-06
8.0559e-06
8.13349e-06
8.22169e-06
8.31078e-06
8.41503e-06
8.51919e-06
8.64389e-06
8.76559e-06
8.92023e-06
9.06514e-06
9.25765e-06
9.43899e-06
9.64955e-06
9.87194e-06
1.00746e-05
1.0339e-05
1.0734e-05
1.12686e-05
1.33301e-05
1.64668e-05
2.3189e-05
4.06816e-05
7.95077e-05
0.000171025
7.14584e-06
7.15515e-06
7.16509e-06
7.17556e-06
7.18656e-06
7.19827e-06
7.21051e-06
7.22334e-06
7.23685e-06
7.25085e-06
7.26568e-06
7.28092e-06
7.29701e-06
7.31374e-06
7.33121e-06
7.34918e-06
7.36825e-06
7.38765e-06
7.40818e-06
7.42929e-06
7.45155e-06
7.47439e-06
7.49835e-06
7.52312e-06
7.54859e-06
7.57501e-06
7.60246e-06
7.63067e-06
7.66068e-06
7.69122e-06
7.72423e-06
7.75728e-06
7.79389e-06
7.83065e-06
7.87158e-06
7.91293e-06
7.95889e-06
8.00602e-06
8.05797e-06
8.11237e-06
8.17135e-06
8.2345e-06
8.30262e-06
8.37614e-06
8.45411e-06
8.54115e-06
8.62963e-06
8.73461e-06
8.83548e-06
8.96349e-06
9.08183e-06
9.2383e-06
9.38143e-06
9.57051e-06
9.74524e-06
9.95164e-06
1.01518e-05
1.03472e-05
1.0584e-05
1.09047e-05
1.16961e-05
1.32048e-05
1.59497e-05
2.26903e-05
3.27786e-05
6.1413e-05
0.000110054
0.000180064
0.000199175
7.56437e-06
7.57401e-06
7.58413e-06
7.59491e-06
7.60627e-06
7.61826e-06
7.631e-06
7.64469e-06
7.65884e-06
7.67404e-06
7.68981e-06
7.70647e-06
7.72347e-06
7.7414e-06
7.75972e-06
7.77897e-06
7.79877e-06
7.81961e-06
7.84113e-06
7.86394e-06
7.88774e-06
7.91297e-06
7.93908e-06
7.96686e-06
7.99545e-06
8.02532e-06
8.05625e-06
8.0885e-06
8.12203e-06
8.15769e-06
8.19504e-06
8.23419e-06
8.27628e-06
8.31994e-06
8.36754e-06
8.41648e-06
8.47034e-06
8.5256e-06
8.58679e-06
8.64995e-06
8.71937e-06
8.79186e-06
8.87143e-06
8.95626e-06
9.0469e-06
9.15079e-06
9.25247e-06
9.38351e-06
9.49879e-06
9.66249e-06
9.79901e-06
9.99248e-06
1.01518e-05
1.03522e-05
1.05388e-05
1.07352e-05
1.09758e-05
1.13601e-05
1.22243e-05
1.37116e-05
1.70701e-05
2.30944e-05
3.30326e-05
5.57207e-05
9.07458e-05
0.000136273
0.000155718
0.000160553
0.000162019
8.10146e-06
8.11376e-06
8.12669e-06
8.14003e-06
8.15393e-06
8.16837e-06
8.18331e-06
8.1989e-06
8.21537e-06
8.2322e-06
8.25008e-06
8.26849e-06
8.28784e-06
8.30787e-06
8.32893e-06
8.35074e-06
8.37363e-06
8.39746e-06
8.42228e-06
8.44803e-06
8.47504e-06
8.50288e-06
8.532e-06
8.56241e-06
8.5943e-06
8.62769e-06
8.66251e-06
8.69913e-06
8.73832e-06
8.77827e-06
8.82135e-06
8.86524e-06
8.91413e-06
8.96219e-06
9.01698e-06
9.07027e-06
9.13305e-06
9.19292e-06
9.26454e-06
9.3331e-06
9.41582e-06
9.49521e-06
9.59209e-06
9.68794e-06
9.80187e-06
9.9226e-06
1.00517e-05
1.0209e-05
1.03425e-05
1.05365e-05
1.06698e-05
1.08934e-05
1.10398e-05
1.13076e-05
1.16443e-05
1.22727e-05
1.32739e-05
1.52528e-05
1.89363e-05
2.40446e-05
3.62459e-05
5.44866e-05
8.24873e-05
0.000104995
0.000115313
0.000122953
0.000132453
0.000133877
0.000120998
8.78948e-06
8.80143e-06
8.81439e-06
8.82762e-06
8.84167e-06
8.85632e-06
8.87159e-06
8.88766e-06
8.90449e-06
8.92214e-06
8.94079e-06
8.96014e-06
8.98084e-06
9.00247e-06
9.02501e-06
9.04888e-06
9.07402e-06
9.1005e-06
9.12789e-06
9.15727e-06
9.18742e-06
9.21953e-06
9.25314e-06
9.28862e-06
9.32608e-06
9.36543e-06
9.40681e-06
9.45063e-06
9.49672e-06
9.54501e-06
9.59635e-06
9.64881e-06
9.70565e-06
9.76459e-06
9.82898e-06
9.89483e-06
9.96902e-06
1.00417e-05
1.01277e-05
1.02113e-05
1.03125e-05
1.04091e-05
1.05286e-05
1.06392e-05
1.07797e-05
1.09097e-05
1.10699e-05
1.12302e-05
1.13789e-05
1.16226e-05
1.18659e-05
1.23875e-05
1.29703e-05
1.41249e-05
1.56528e-05
1.82675e-05
2.14565e-05
2.94068e-05
3.9605e-05
5.45751e-05
7.2623e-05
8.25303e-05
8.31396e-05
8.4637e-05
9.32764e-05
0.00010358
0.000107298
0.000105278
9.29236e-05
9.76345e-06
9.78071e-06
9.79806e-06
9.81588e-06
9.83449e-06
9.85307e-06
9.87299e-06
9.89268e-06
9.91403e-06
9.93531e-06
9.95864e-06
9.98209e-06
1.00078e-05
1.00339e-05
1.00623e-05
1.00911e-05
1.01222e-05
1.01539e-05
1.01878e-05
1.0222e-05
1.02586e-05
1.02954e-05
1.03346e-05
1.03741e-05
1.0416e-05
1.04584e-05
1.05029e-05
1.05485e-05
1.05955e-05
1.06453e-05
1.0695e-05
1.07508e-05
1.08052e-05
1.08652e-05
1.09246e-05
1.09943e-05
1.10695e-05
1.11477e-05
1.12427e-05
1.13496e-05
1.14664e-05
1.15953e-05
1.17128e-05
1.18673e-05
1.20758e-05
1.23311e-05
1.26809e-05
1.31294e-05
1.37245e-05
1.49515e-05
1.64028e-05
1.82999e-05
2.04974e-05
2.35705e-05
2.75998e-05
3.34202e-05
4.23582e-05
5.24077e-05
6.32219e-05
6.13047e-05
5.44144e-05
5.53906e-05
6.19232e-05
7.0695e-05
8.01726e-05
8.72602e-05
8.95561e-05
8.69699e-05
7.72821e-05
1.14302e-05
1.14364e-05
1.14487e-05
1.14579e-05
1.14692e-05
1.14869e-05
1.14964e-05
1.15213e-05
1.15349e-05
1.15628e-05
1.15771e-05
1.16068e-05
1.16215e-05
1.1653e-05
1.16666e-05
1.17008e-05
1.1716e-05
1.17258e-05
1.1736e-05
1.1707e-05
1.17292e-05
1.17075e-05
1.16971e-05
1.17028e-05
1.17177e-05
1.17382e-05
1.1767e-05
1.17991e-05
1.18384e-05
1.18867e-05
1.19375e-05
1.20102e-05
1.20736e-05
1.21705e-05
1.22524e-05
1.23973e-05
1.254e-05
1.27244e-05
1.29982e-05
1.33475e-05
1.37352e-05
1.42951e-05
1.45969e-05
1.59033e-05
1.70992e-05
1.83385e-05
1.96426e-05
2.09306e-05
2.23621e-05
2.3297e-05
2.44386e-05
2.54427e-05
2.77237e-05
3.02638e-05
3.61234e-05
4.3571e-05
4.01041e-05
2.80233e-05
2.7794e-05
3.15252e-05
3.66104e-05
4.41954e-05
5.25917e-05
6.13045e-05
6.98937e-05
7.69078e-05
8.01343e-05
8.03265e-05
7.40921e-05
1.19771e-05
1.19691e-05
1.20112e-05
1.20322e-05
1.2041e-05
1.20522e-05
1.20784e-05
1.21299e-05
1.22001e-05
1.21707e-05
1.22465e-05
1.22409e-05
1.22323e-05
1.23181e-05
1.2291e-05
1.23788e-05
1.23428e-05
1.24347e-05
1.23939e-05
1.24912e-05
1.24527e-05
1.25526e-05
1.26672e-05
1.28357e-05
1.3039e-05
1.33452e-05
1.36921e-05
1.414e-05
1.46494e-05
1.525e-05
1.59321e-05
1.67201e-05
1.75815e-05
1.85604e-05
1.96077e-05
2.0751e-05
2.19861e-05
2.33077e-05
2.4709e-05
2.61138e-05
2.75357e-05
2.86939e-05
3.01107e-05
2.95317e-05
2.91026e-05
2.81169e-05
2.68454e-05
2.52627e-05
2.35367e-05
2.16988e-05
1.92672e-05
1.49716e-05
8.97669e-06
8.22996e-06
8.91679e-06
9.00231e-06
8.25581e-06
7.52232e-06
9.91651e-06
1.4644e-05
2.09728e-05
2.88905e-05
3.75726e-05
4.60888e-05
5.46831e-05
6.20549e-05
6.7007e-05
6.89654e-05
6.73694e-05
4.58922e-05
4.68605e-05
4.78417e-05
4.88369e-05
4.98411e-05
5.08598e-05
5.1888e-05
5.29309e-05
5.39822e-05
5.50436e-05
5.61109e-05
5.71897e-05
5.82691e-05
5.93572e-05
6.04464e-05
6.15349e-05
6.2626e-05
6.37084e-05
6.47929e-05
6.58645e-05
6.6932e-05
6.79581e-05
6.88794e-05
6.97862e-05
7.0517e-05
7.12484e-05
7.17655e-05
7.21924e-05
7.2556e-05
7.23552e-05
7.20281e-05
7.20061e-05
7.03509e-05
7.00368e-05
6.70623e-05
6.59071e-05
6.34527e-05
6.10741e-05
5.7693e-05
5.34055e-05
4.79963e-05
4.12376e-05
3.27817e-05
2.28593e-05
1.31939e-05
5.43404e-06
2.20561e-06
2.01284e-06
2.63063e-06
3.0415e-06
3.04249e-06
2.88767e-06
2.25013e-06
1.7564e-06
1.60075e-06
1.59091e-06
1.67173e-06
1.89967e-06
2.47894e-06
3.39399e-06
4.60975e-06
6.18603e-06
8.25023e-06
1.10071e-05
1.40267e-05
1.69116e-05
1.93113e-05
2.10932e-05
2.20254e-05
4.71915e-06
4.72043e-06
4.71988e-06
4.7201e-06
4.72312e-06
4.72389e-06
4.72633e-06
4.72709e-06
4.72888e-06
4.72638e-06
4.72356e-06
4.72256e-06
4.72663e-06
4.73046e-06
4.73284e-06
4.73366e-06
4.73591e-06
4.73839e-06
4.74153e-06
4.74375e-06
4.74579e-06
4.74772e-06
4.74996e-06
4.75172e-06
4.75468e-06
4.75575e-06
4.75824e-06
4.76053e-06
4.76581e-06
4.76832e-06
4.7685e-06
4.77241e-06
4.77711e-06
4.78032e-06
4.78254e-06
4.78405e-06
4.78818e-06
4.78978e-06
4.78916e-06
4.79272e-06
4.79132e-06
4.79124e-06
4.79029e-06
4.79043e-06
4.79481e-06
4.79728e-06
4.80198e-06
4.79932e-06
4.79472e-06
4.79396e-06
4.792e-06
4.7929e-06
4.79277e-06
4.79203e-06
4.79361e-06
4.79416e-06
4.79347e-06
4.79371e-06
4.79579e-06
4.75476e-06
4.75553e-06
4.75702e-06
4.76042e-06
4.75949e-06
4.75921e-06
4.75852e-06
4.7564e-06
4.75357e-06
4.74984e-06
4.74828e-06
4.75139e-06
4.75323e-06
4.75467e-06
4.75645e-06
4.75779e-06
4.75999e-06
4.76246e-06
4.76466e-06
4.76647e-06
4.76808e-06
4.76985e-06
4.77192e-06
4.77408e-06
4.77615e-06
4.77721e-06
4.77989e-06
4.78232e-06
4.78721e-06
4.78974e-06
4.79067e-06
4.79383e-06
4.79863e-06
4.80171e-06
4.80444e-06
4.80563e-06
4.80975e-06
4.8127e-06
4.8124e-06
4.81403e-06
4.816e-06
4.81671e-06
4.81637e-06
4.81623e-06
4.81607e-06
4.81776e-06
4.82013e-06
4.82533e-06
4.82384e-06
4.82505e-06
4.8247e-06
4.82326e-06
4.82465e-06
4.82473e-06
4.82463e-06
4.82325e-06
4.82465e-06
4.82475e-06
4.824e-06
4.80099e-06
4.79958e-06
4.79782e-06
4.79599e-06
4.79325e-06
4.79032e-06
4.78663e-06
4.78237e-06
4.77842e-06
4.77687e-06
4.77936e-06
4.78018e-06
4.78163e-06
4.78342e-06
4.78399e-06
4.78554e-06
4.78744e-06
4.78876e-06
4.79069e-06
4.79195e-06
4.79351e-06
4.79523e-06
4.79722e-06
4.79921e-06
4.80079e-06
4.80201e-06
4.80466e-06
4.80735e-06
4.8119e-06
4.81458e-06
4.81587e-06
4.81879e-06
4.82341e-06
4.8267e-06
4.82933e-06
4.83092e-06
4.83424e-06
4.83939e-06
4.83911e-06
4.84095e-06
4.84221e-06
4.84519e-06
4.84566e-06
4.84506e-06
4.8466e-06
4.84633e-06
4.84692e-06
4.84984e-06
4.84983e-06
4.84987e-06
4.85128e-06
4.85155e-06
4.85265e-06
4.85371e-06
4.8543e-06
4.85438e-06
4.85586e-06
4.8564e-06
4.85853e-06
4.84057e-06
4.83782e-06
4.83433e-06
4.83076e-06
4.82673e-06
4.82263e-06
4.8185e-06
4.81492e-06
4.81236e-06
4.81103e-06
4.81143e-06
4.8131e-06
4.81239e-06
4.81305e-06
4.81382e-06
4.81457e-06
4.81639e-06
4.81761e-06
4.81909e-06
4.82038e-06
4.82188e-06
4.82354e-06
4.82538e-06
4.82715e-06
4.82836e-06
4.82974e-06
4.83228e-06
4.83514e-06
4.83947e-06
4.84222e-06
4.84403e-06
4.84643e-06
4.85116e-06
4.85458e-06
4.85765e-06
4.85877e-06
4.86169e-06
4.86712e-06
4.86871e-06
4.86988e-06
4.87132e-06
4.875e-06
4.8758e-06
4.87567e-06
4.87799e-06
4.87804e-06
4.87722e-06
4.87839e-06
4.88191e-06
4.88411e-06
4.88507e-06
4.88825e-06
4.88884e-06
4.88921e-06
4.88963e-06
4.89077e-06
4.891e-06
4.89488e-06
4.8955e-06
4.88166e-06
4.87833e-06
4.87414e-06
4.87005e-06
4.86582e-06
4.86192e-06
4.85846e-06
4.85584e-06
4.85407e-06
4.85296e-06
4.85211e-06
4.85111e-06
4.85015e-06
4.84954e-06
4.8495e-06
4.84954e-06
4.84939e-06
4.85046e-06
4.85174e-06
4.85245e-06
4.85385e-06
4.85539e-06
4.8571e-06
4.85866e-06
4.85962e-06
4.86117e-06
4.86359e-06
4.86657e-06
4.87076e-06
4.87366e-06
4.87562e-06
4.87805e-06
4.88263e-06
4.88638e-06
4.88966e-06
4.89162e-06
4.89327e-06
4.89838e-06
4.90076e-06
4.90569e-06
4.90516e-06
4.90707e-06
4.90976e-06
4.91385e-06
4.91454e-06
4.91433e-06
4.91401e-06
4.91377e-06
4.91487e-06
4.917e-06
4.92052e-06
4.92316e-06
4.92788e-06
4.92875e-06
4.9289e-06
4.92909e-06
4.92868e-06
4.92705e-06
4.92995e-06
4.92776e-06
4.92419e-06
4.9198e-06
4.91565e-06
4.91152e-06
4.9078e-06
4.90446e-06
4.90162e-06
4.89909e-06
4.89673e-06
4.89442e-06
4.89239e-06
4.89105e-06
4.89005e-06
4.88965e-06
4.88899e-06
4.88817e-06
4.88799e-06
4.88812e-06
4.88847e-06
4.88941e-06
4.89091e-06
4.89238e-06
4.89362e-06
4.89433e-06
4.89584e-06
4.89818e-06
4.90127e-06
4.9054e-06
4.90833e-06
4.91079e-06
4.91283e-06
4.91752e-06
4.92141e-06
4.92535e-06
4.92693e-06
4.92907e-06
4.93373e-06
4.93575e-06
4.94064e-06
4.94551e-06
4.94483e-06
4.94588e-06
4.95021e-06
4.95333e-06
4.95442e-06
4.95676e-06
4.95997e-06
4.96041e-06
4.96046e-06
4.95936e-06
4.96044e-06
4.9626e-06
4.9665e-06
4.96898e-06
4.97304e-06
4.97451e-06
4.97408e-06
4.97385e-06
4.97827e-06
4.97452e-06
4.97004e-06
4.96578e-06
4.96152e-06
4.95753e-06
4.9537e-06
4.9501e-06
4.94663e-06
4.94341e-06
4.94057e-06
4.93842e-06
4.93692e-06
4.93552e-06
4.93415e-06
4.93225e-06
4.93039e-06
4.9294e-06
4.92921e-06
4.92936e-06
4.92975e-06
4.9309e-06
4.93218e-06
4.93313e-06
4.93381e-06
4.93516e-06
4.93744e-06
4.9406e-06
4.9447e-06
4.94776e-06
4.95034e-06
4.95267e-06
4.95715e-06
4.96122e-06
4.966e-06
4.96849e-06
4.969e-06
4.97404e-06
4.97719e-06
4.98081e-06
4.98483e-06
4.99044e-06
4.98979e-06
4.99069e-06
4.99457e-06
4.9959e-06
4.99806e-06
5.00024e-06
5.00477e-06
5.00717e-06
5.00899e-06
5.01066e-06
5.01498e-06
5.01282e-06
5.01593e-06
5.01521e-06
5.01531e-06
5.0166e-06
5.01798e-06
5.03172e-06
5.02784e-06
5.02334e-06
5.01894e-06
5.01451e-06
5.01021e-06
5.00599e-06
5.00197e-06
4.99817e-06
4.99479e-06
4.99192e-06
4.98957e-06
4.98739e-06
4.9849e-06
4.98207e-06
4.979e-06
4.97658e-06
4.97537e-06
4.97503e-06
4.97479e-06
4.97451e-06
4.97522e-06
4.97614e-06
4.97691e-06
4.97742e-06
4.97847e-06
4.9807e-06
4.98398e-06
4.98811e-06
4.99121e-06
4.99431e-06
4.99635e-06