/*--------------------------------*- C++ -*----------------------------------*\
| =========                 |                                                 |
| \\      /  F ield         | OpenFOAM: The Open Source CFD Toolbox           |
|  \\    /   O peration     | Version:  2312                                  |
|   \\  /    A nd           | Website:  www.openfoam.com                      |
|    \\/     M anipulation  |                                                 |
\*---------------------------------------------------------------------------*/
FoamFile
{
    version     2.0;
    format      ascii;
    arch        "LSB;label=32;scalar=64";
    class       volScalarField;
    location    "500";
    object      nut;
}
// * * * * * * * * * * * * * * * * * * * * * * * * * * * * * * * * * * * * * //

dimensions      [0 2 -1 0 0 0 0];

internalField   nonuniform List<scalar> 
76025
(
6.31851e-05
6.25701e-05
6.25478e-05
6.35081e-05
6.24631e-05
6.28203e-05
6.31445e-05
6.27183e-05
6.35633e-05
6.33917e-05
6.31908e-05
6.29099e-05
6.30691e-05
6.25621e-05
6.3856e-05
6.31662e-05
6.41557e-05
6.33195e-05
6.47442e-05
6.36845e-05
6.33645e-05
6.39425e-05
6.41645e-05
6.42851e-05
6.54166e-05
6.4419e-05
6.52572e-05
6.53416e-05
6.49931e-05
6.69859e-05
6.69421e-05
6.41769e-05
6.54258e-05
6.57045e-05
6.69797e-05
6.66011e-05
6.45894e-05
6.48595e-05
6.45706e-05
6.53022e-05
6.48897e-05
6.22444e-05
6.20364e-05
6.27502e-05
6.28171e-05
6.21983e-05
6.17549e-05
6.26462e-05
6.26608e-05
6.27936e-05
6.25545e-05
6.17584e-05
6.15733e-05
6.13605e-05
6.18488e-05
6.16656e-05
6.03886e-05
5.91315e-05
5.79465e-05
5.67335e-05
5.54658e-05
5.34322e-05
5.27496e-05
5.11417e-05
5.01593e-05
4.95478e-05
4.65849e-05
4.45969e-05
4.50715e-05
5.91415e-05
5.85703e-05
5.86341e-05
5.88777e-05
5.90352e-05
5.8993e-05
5.92607e-05
5.92268e-05
5.9289e-05
5.9411e-05
5.95017e-05
5.96323e-05
5.98397e-05
5.98006e-05
5.98902e-05
6.00866e-05
6.01342e-05
6.03021e-05
6.04187e-05
6.07225e-05
6.06935e-05
6.08603e-05
6.09149e-05
6.10377e-05
6.11985e-05
6.14091e-05
6.16078e-05
6.20199e-05
6.20713e-05
6.18284e-05
6.19128e-05
6.19807e-05
6.20463e-05
6.25442e-05
6.26067e-05
6.25161e-05
6.21568e-05
6.19313e-05
6.2236e-05
6.2158e-05
6.1944e-05
6.169e-05
6.17843e-05
6.20761e-05
6.18609e-05
6.16129e-05
6.16434e-05
6.19214e-05
6.17902e-05
6.15632e-05
6.13558e-05
6.08886e-05
6.07677e-05
6.05662e-05
6.01484e-05
5.94079e-05
5.89584e-05
5.82403e-05
5.74265e-05
5.58519e-05
5.4909e-05
5.40602e-05
5.33899e-05
5.18498e-05
5.0804e-05
4.93459e-05
4.80233e-05
4.70608e-05
4.5589e-05
5.51147e-05
5.46492e-05
5.46986e-05
5.47265e-05
5.48628e-05
5.4965e-05
5.50537e-05
5.51536e-05
5.52185e-05
5.52953e-05
5.54641e-05
5.56069e-05
5.57552e-05
5.5961e-05
5.60203e-05
5.6091e-05
5.62074e-05
5.6343e-05
5.63961e-05
5.66001e-05
5.66844e-05
5.68746e-05
5.69323e-05
5.70145e-05
5.71541e-05
5.738e-05
5.75958e-05
5.77898e-05
5.78949e-05
5.79721e-05
5.80522e-05
5.83446e-05
5.85759e-05
5.87112e-05
5.89672e-05
5.89583e-05
5.87322e-05
5.85386e-05
5.85311e-05
5.85804e-05
5.85925e-05
5.85538e-05
5.85743e-05
5.86353e-05
5.86994e-05
5.86842e-05
5.87348e-05
5.8784e-05
5.87913e-05
5.86089e-05
5.84611e-05
5.80685e-05
5.78265e-05
5.74497e-05
5.72068e-05
5.66202e-05
5.62131e-05
5.54577e-05
5.48003e-05
5.37616e-05
5.29889e-05
5.20209e-05
5.13264e-05
5.01818e-05
4.93347e-05
4.80632e-05
4.69986e-05
4.59501e-05
4.37237e-05
5.15592e-05
5.11698e-05
5.12121e-05
5.12763e-05
5.13953e-05
5.14844e-05
5.15526e-05
5.1687e-05
5.17415e-05
5.18864e-05
5.19765e-05
5.21032e-05
5.22411e-05
5.24056e-05
5.25833e-05
5.27396e-05
5.29133e-05
5.30652e-05
5.32155e-05
5.33792e-05
5.35908e-05
5.37615e-05
5.38926e-05
5.40763e-05
5.42369e-05
5.45092e-05
5.46934e-05
5.48848e-05
5.50412e-05
5.50939e-05
5.51565e-05
5.53062e-05
5.54687e-05
5.56284e-05
5.58062e-05
5.59154e-05
5.59808e-05
5.60888e-05
5.62465e-05
5.64134e-05
5.65615e-05
5.66599e-05
5.678e-05
5.68933e-05
5.70203e-05
5.70554e-05
5.71081e-05
5.70898e-05
5.7084e-05
5.69105e-05
5.67819e-05
5.64737e-05
5.62839e-05
5.59229e-05
5.56869e-05
5.51632e-05
5.47972e-05
5.4132e-05
5.3642e-05
5.27837e-05
5.22056e-05
5.13577e-05
5.08394e-05
4.98818e-05
4.92083e-05
4.81063e-05
4.725e-05
4.62605e-05
4.40159e-05
4.82301e-05
4.7844e-05
4.79596e-05
4.80492e-05
4.81021e-05
4.82044e-05
4.82776e-05
4.83932e-05
4.85163e-05
4.86489e-05
4.8841e-05
4.89944e-05
4.91646e-05
4.9326e-05
4.94443e-05
4.95801e-05
4.97444e-05
4.99261e-05
5.01185e-05
5.03168e-05
5.05333e-05
5.07535e-05
5.09821e-05
5.11833e-05
5.14767e-05
5.169e-05
5.19105e-05
5.19633e-05
5.22596e-05
5.23224e-05
5.24464e-05
5.26266e-05
5.28435e-05
5.30775e-05
5.33064e-05
5.34914e-05
5.3658e-05
5.38466e-05
5.40554e-05
5.42495e-05
5.44385e-05
5.45879e-05
5.4744e-05
5.48648e-05
5.49931e-05
5.50487e-05
5.51179e-05
5.51042e-05
5.51149e-05
5.49874e-05
5.49078e-05
5.46634e-05
5.45172e-05
5.41813e-05
5.39852e-05
5.35426e-05
5.32718e-05
5.27296e-05
5.2397e-05
5.17537e-05
5.13945e-05
5.07315e-05
5.0375e-05
4.96179e-05
4.91225e-05
4.81772e-05
4.73654e-05
4.65175e-05
4.36766e-05
4.51856e-05
4.48345e-05
4.4905e-05
4.4966e-05
4.50785e-05
4.51696e-05
4.52389e-05
4.53351e-05
4.54368e-05
4.56036e-05
4.5685e-05
4.58654e-05
4.59733e-05
4.6104e-05
4.62734e-05
4.64672e-05
4.66796e-05
4.69179e-05
4.71297e-05
4.73831e-05
4.76141e-05
4.78768e-05
4.81382e-05
4.83505e-05
4.86705e-05
4.87788e-05
4.90923e-05
4.92105e-05
4.93927e-05
4.96141e-05
4.98635e-05
5.01319e-05
5.04192e-05
5.07159e-05
5.09834e-05
5.1218e-05
5.14567e-05
5.16961e-05
5.19469e-05
5.21774e-05
5.24081e-05
5.26014e-05
5.27968e-05
5.2947e-05
5.31027e-05
5.31912e-05
5.32873e-05
5.32981e-05
5.33288e-05
5.32414e-05
5.31981e-05
5.30104e-05
5.2915e-05
5.26473e-05
5.25234e-05
5.21844e-05
5.20302e-05
5.16293e-05
5.14598e-05
5.10049e-05
5.0835e-05
5.03415e-05
5.01612e-05
4.95551e-05
4.92468e-05
4.83811e-05
4.7746e-05
4.69132e-05
4.42076e-05
4.22497e-05
4.19338e-05
4.2019e-05
4.21064e-05
4.22058e-05
4.23086e-05
4.24226e-05
4.25273e-05
4.26394e-05
4.2781e-05
4.29077e-05
4.3055e-05
4.31981e-05
4.33456e-05
4.35596e-05
4.37363e-05
4.38801e-05
4.40557e-05
4.42972e-05
4.45331e-05
4.4806e-05
4.5112e-05
4.5369e-05
4.5722e-05
4.60045e-05
4.62923e-05
4.65666e-05
4.67646e-05
4.695e-05
4.7196e-05
4.74817e-05
4.77894e-05
4.81151e-05
4.84531e-05
4.87497e-05
4.90167e-05
4.93151e-05
4.95982e-05
4.9889e-05
5.01546e-05
5.04224e-05
5.06495e-05
5.088e-05
5.10588e-05
5.12441e-05
5.13616e-05
5.1489e-05
5.15343e-05
5.1602e-05
5.15691e-05
5.15806e-05
5.14719e-05
5.14481e-05
5.1278e-05
5.12425e-05
5.10232e-05
5.09873e-05
5.07306e-05
5.07056e-05
5.04209e-05
5.04086e-05
5.00956e-05
5.00643e-05
4.96591e-05
4.95078e-05
4.88303e-05
4.83783e-05
4.7578e-05
4.52218e-05
3.94975e-05
3.91936e-05
3.92859e-05
3.93884e-05
3.95023e-05
3.96129e-05
3.97324e-05
3.98483e-05
3.99687e-05
4.01049e-05
4.02361e-05
4.03936e-05
4.05545e-05
4.07186e-05
4.09127e-05
4.11175e-05
4.13115e-05
4.15739e-05
4.18079e-05
4.21246e-05
4.23772e-05
4.26439e-05
4.2905e-05
4.31008e-05
4.33343e-05
4.3603e-05
4.38905e-05
4.41905e-05
4.4504e-05
4.48317e-05
4.51755e-05
4.55274e-05
4.58926e-05
4.62649e-05
4.65969e-05
4.68964e-05
4.72415e-05
4.75662e-05
4.78966e-05
4.81997e-05
4.85069e-05
4.87734e-05
4.90442e-05
4.92639e-05
4.94899e-05
4.96537e-05
4.98268e-05
4.99294e-05
5.00497e-05
5.00906e-05
5.01647e-05
5.01484e-05
5.01944e-05
5.01314e-05
5.01727e-05
5.00724e-05
5.01285e-05
5e-05
5.0087e-05
4.99426e-05
5.00651e-05
4.99156e-05
5.00376e-05
4.9871e-05
4.98561e-05
4.95781e-05
4.91386e-05
4.89283e-05
4.61018e-05
3.70565e-05
3.68211e-05
3.69086e-05
3.69844e-05
3.70584e-05
3.71689e-05
3.72812e-05
3.74087e-05
3.75389e-05
3.76846e-05
3.78389e-05
3.8005e-05
3.81579e-05
3.83819e-05
3.85639e-05
3.87627e-05
3.8956e-05
3.91151e-05
3.93126e-05
3.95525e-05
3.97942e-05
4.00574e-05
4.03349e-05
4.06215e-05
4.09216e-05
4.12371e-05
4.15678e-05
4.19121e-05
4.22708e-05
4.26403e-05
4.30226e-05
4.34118e-05
4.38128e-05
4.42095e-05
4.45794e-05
4.4926e-05
4.53076e-05
4.56766e-05
4.60468e-05
4.6393e-05
4.67397e-05
4.70539e-05
4.73662e-05
4.76402e-05
4.79095e-05
4.81364e-05
4.83554e-05
4.85315e-05
4.86997e-05
4.88257e-05
4.89493e-05
4.90287e-05
4.91227e-05
4.91624e-05
4.92487e-05
4.92555e-05
4.93613e-05
4.93445e-05
4.95039e-05
4.94812e-05
4.97302e-05
4.97266e-05
5.00762e-05
5.01086e-05
5.04527e-05
5.05267e-05
5.04335e-05
5.09134e-05
4.87742e-05
3.45745e-05
3.435e-05
3.44505e-05
3.45623e-05
3.46752e-05
3.48064e-05
3.49359e-05
3.50804e-05
3.52353e-05
3.54101e-05
3.55832e-05
3.57726e-05
3.59591e-05
3.61636e-05
3.63764e-05
3.65786e-05
3.68176e-05
3.70464e-05
3.72609e-05
3.7548e-05
3.77944e-05
3.79946e-05
3.82163e-05
3.84898e-05
3.8798e-05
3.91306e-05
3.94844e-05
3.98539e-05
4.02399e-05
4.06377e-05
4.10496e-05
4.14709e-05
4.1906e-05
4.23237e-05
4.2728e-05
4.31298e-05
4.3549e-05
4.39631e-05
4.4375e-05
4.4771e-05
4.516e-05
4.55299e-05
4.5885e-05
4.62217e-05
4.65325e-05
4.68293e-05
4.70866e-05
4.73399e-05
4.75411e-05
4.77498e-05
4.78991e-05
4.80643e-05
4.81742e-05
4.83008e-05
4.83937e-05
4.84925e-05
4.8605e-05
4.86952e-05
4.88861e-05
4.90002e-05
4.9351e-05
4.95362e-05
5.01327e-05
5.04334e-05
5.12904e-05
5.17492e-05
5.23402e-05
5.37983e-05
4.96884e-05
3.23908e-05
3.21663e-05
3.22731e-05
3.23818e-05
3.25024e-05
3.26405e-05
3.28012e-05
3.29469e-05
3.30844e-05
3.32328e-05
3.33988e-05
3.358e-05
3.37695e-05
3.39676e-05
3.41774e-05
3.43872e-05
3.46129e-05
3.48445e-05
3.50848e-05
3.53417e-05
3.56107e-05
3.58918e-05
3.61912e-05
3.65108e-05
3.68521e-05
3.72118e-05
3.75909e-05
3.79857e-05
3.83979e-05
3.88234e-05
3.92646e-05
3.97169e-05
4.01885e-05
4.06302e-05
4.10645e-05
4.15217e-05
4.19817e-05
4.24395e-05
4.28946e-05
4.33393e-05
4.37728e-05
4.41944e-05
4.45942e-05
4.49846e-05
4.53376e-05
4.56893e-05
4.59832e-05
4.62917e-05
4.65202e-05
4.67838e-05
4.69483e-05
4.71681e-05
4.72802e-05
4.74647e-05
4.75496e-05
4.77201e-05
4.78237e-05
4.80182e-05
4.82196e-05
4.8495e-05
4.89197e-05
4.93579e-05
5.01816e-05
5.08958e-05
5.23199e-05
5.3419e-05
5.50712e-05
5.73165e-05
5.39957e-05
3.03777e-05
3.02017e-05
3.03101e-05
3.04486e-05
3.0571e-05
3.0728e-05
3.0864e-05
3.10424e-05
3.11802e-05
3.13336e-05
3.14322e-05
3.16035e-05
3.1744e-05
3.19206e-05
3.2124e-05
3.2345e-05
3.2582e-05
3.28337e-05
3.30996e-05
3.33817e-05
3.36793e-05
3.39941e-05
3.43256e-05
3.46757e-05
3.50432e-05
3.54296e-05
3.5833e-05
3.62547e-05
3.66924e-05
3.71472e-05
3.76167e-05
3.81011e-05
3.86009e-05
3.90764e-05
3.95472e-05
4.00486e-05
4.05548e-05
4.10551e-05
4.15559e-05
4.20431e-05
4.25241e-05
4.29858e-05
4.34334e-05
4.38598e-05
4.42591e-05
4.46407e-05
4.49774e-05
4.53088e-05
4.55746e-05
4.58549e-05
4.60494e-05
4.62837e-05
4.64183e-05
4.66224e-05
4.6724e-05
4.69323e-05
4.70508e-05
4.73223e-05
4.75459e-05
4.79701e-05
4.84574e-05
4.91791e-05
5.02083e-05
5.14811e-05
5.34514e-05
5.5596e-05
5.81383e-05
6.28389e-05
6.03114e-05
2.83904e-05
2.82283e-05
2.83344e-05
2.84565e-05
2.85709e-05
2.87028e-05
2.88311e-05
2.89712e-05
2.91111e-05
2.92666e-05
2.94277e-05
2.96042e-05
2.97928e-05
2.99971e-05
3.02173e-05
3.04539e-05
3.07057e-05
3.09742e-05
3.12581e-05
3.15596e-05
3.18772e-05
3.22133e-05
3.25663e-05
3.29388e-05
3.33287e-05
3.37386e-05
3.41661e-05
3.46136e-05
3.50784e-05
3.55622e-05
3.60628e-05
3.65808e-05
3.71026e-05
3.7614e-05
3.81343e-05
3.86705e-05
3.92189e-05
3.97574e-05
4.03016e-05
4.08261e-05
4.13527e-05
4.1849e-05
4.23426e-05
4.27985e-05
4.32428e-05
4.36469e-05
4.40272e-05
4.4373e-05
4.46811e-05
4.49679e-05
4.52047e-05
4.54393e-05
4.56168e-05
4.58199e-05
4.59651e-05
4.61776e-05
4.634e-05
4.66348e-05
4.69071e-05
4.74132e-05
4.79913e-05
4.89447e-05
5.02254e-05
5.20062e-05
5.4541e-05
5.75029e-05
6.11457e-05
6.7486e-05
7.27486e-05
2.65405e-05
2.63878e-05
2.64912e-05
2.66047e-05
2.67192e-05
2.68461e-05
2.69786e-05
2.71188e-05
2.72685e-05
2.74315e-05
2.76063e-05
2.77947e-05
2.79958e-05
2.82117e-05
2.84419e-05
2.86883e-05
2.89498e-05
2.92284e-05
2.95234e-05
2.98364e-05
3.0167e-05
3.05171e-05
3.08856e-05
3.12748e-05
3.1683e-05
3.21126e-05
3.25615e-05
3.3032e-05
3.35217e-05
3.40322e-05
3.45616e-05
3.51135e-05
3.56564e-05
3.61985e-05
3.67705e-05
3.73469e-05
3.79363e-05
3.85175e-05
3.9105e-05
3.96725e-05
4.02424e-05
4.07813e-05
4.13166e-05
4.18131e-05
4.22964e-05
4.27381e-05
4.31544e-05
4.35338e-05
4.38752e-05
4.4191e-05
4.44583e-05
4.47166e-05
4.49206e-05
4.51397e-05
4.53056e-05
4.55222e-05
4.57025e-05
4.59936e-05
4.63031e-05
4.68446e-05
4.75248e-05
4.86454e-05
5.00819e-05
5.21378e-05
5.45996e-05
5.76414e-05
6.0876e-05
6.94132e-05
6.75789e-05
2.48589e-05
2.47203e-05
2.48224e-05
2.49334e-05
2.5048e-05
2.51748e-05
2.53094e-05
2.54522e-05
2.5606e-05
2.57728e-05
2.59529e-05
2.6146e-05
2.63526e-05
2.65731e-05
2.68085e-05
2.70591e-05
2.73264e-05
2.76101e-05
2.7912e-05
2.82317e-05
2.85711e-05
2.89296e-05
2.93095e-05
2.97097e-05
3.01326e-05
3.05767e-05
3.10445e-05
3.1534e-05
3.20474e-05
3.25821e-05
3.31402e-05
3.37193e-05
3.42926e-05
3.48704e-05
3.54849e-05
3.61062e-05
3.67365e-05
3.73651e-05
3.79967e-05
3.86156e-05
3.92305e-05
3.98227e-05
4.04024e-05
4.0952e-05
4.1477e-05
4.19698e-05
4.24237e-05
4.28513e-05
4.32239e-05
4.35836e-05
4.38712e-05
4.41672e-05
4.43731e-05
4.46197e-05
4.47626e-05
4.49935e-05
4.51413e-05
4.54434e-05
4.57661e-05
4.63269e-05
4.70768e-05
4.80925e-05
4.93372e-05
5.06703e-05
5.20219e-05
5.3931e-05
5.71918e-05
6.42844e-05
6.08005e-05
2.32911e-05
2.31682e-05
2.32704e-05
2.33806e-05
2.34951e-05
2.36217e-05
2.37567e-05
2.39003e-05
2.40554e-05
2.42236e-05
2.44055e-05
2.46006e-05
2.48099e-05
2.5033e-05
2.52718e-05
2.55258e-05
2.57971e-05
2.6085e-05
2.63917e-05
2.67167e-05
2.70627e-05
2.74286e-05
2.78176e-05
2.82281e-05
2.86634e-05
2.91218e-05
2.96063e-05
3.01151e-05
3.06505e-05
3.12107e-05
3.17985e-05
3.23981e-05
3.30058e-05
3.36366e-05
3.42931e-05
3.49652e-05
3.56462e-05
3.63318e-05
3.70176e-05
3.76968e-05
3.83674e-05
3.902e-05
3.96555e-05
4.02622e-05
4.08417e-05
4.13852e-05
4.189e-05
4.23589e-05
4.2775e-05
4.31635e-05
4.34805e-05
4.37885e-05
4.4001e-05
4.42448e-05
4.43715e-05
4.46093e-05
4.47415e-05
4.50844e-05
4.53824e-05
4.58825e-05
4.63173e-05
4.66142e-05
4.66463e-05
4.61894e-05
4.61034e-05
4.75605e-05
5.42355e-05
5.68736e-05
5.22759e-05
2.18658e-05
2.17576e-05
2.18599e-05
2.197e-05
2.20844e-05
2.22108e-05
2.23456e-05
2.24889e-05
2.26436e-05
2.2811e-05
2.2992e-05
2.31862e-05
2.33942e-05
2.3617e-05
2.3855e-05
2.41098e-05
2.43813e-05
2.46715e-05
2.49802e-05
2.53094e-05
2.56596e-05
2.60325e-05
2.64282e-05
2.68498e-05
2.72959e-05
2.77705e-05
2.82711e-05
2.88023e-05
2.93605e-05
2.99507e-05
3.05697e-05
3.11984e-05
3.18411e-05
3.25259e-05
3.32289e-05
3.39538e-05
3.46896e-05
3.54354e-05
3.61836e-05
3.69283e-05
3.76654e-05
3.83842e-05
3.90871e-05
3.97552e-05
4.03995e-05
4.09938e-05
4.15568e-05
4.20605e-05
4.25241e-05
4.29261e-05
4.32779e-05
4.35786e-05
4.38225e-05
4.40595e-05
4.42407e-05
4.45002e-05
4.46872e-05
4.49625e-05
4.50213e-05
4.48464e-05
4.41183e-05
4.2715e-05
4.10618e-05
3.95411e-05
4.03061e-05
4.53908e-05
5.26252e-05
4.77394e-05
4.4024e-05
2.05263e-05
2.04327e-05
2.05346e-05
2.06443e-05
2.07582e-05
2.08836e-05
2.10175e-05
2.11597e-05
2.13126e-05
2.14783e-05
2.16571e-05
2.18491e-05
2.20552e-05
2.22757e-05
2.25117e-05
2.27642e-05
2.30343e-05
2.33234e-05
2.3632e-05
2.39624e-05
2.43144e-05
2.46915e-05
2.50923e-05
2.55215e-05
2.59774e-05
2.64646e-05
2.69814e-05
2.75317e-05
2.81143e-05
2.87328e-05
2.938e-05
3.00463e-05
3.07455e-05
3.14843e-05
3.22513e-05
3.3039e-05
3.3845e-05
3.46619e-05
3.54851e-05
3.63063e-05
3.71201e-05
3.79175e-05
3.86932e-05
3.9436e-05
4.01423e-05
4.08007e-05
4.14102e-05
4.19625e-05
4.24589e-05
4.28985e-05
4.32868e-05
4.36396e-05
4.39559e-05
4.42897e-05
4.45503e-05
4.48288e-05
4.47905e-05
4.44705e-05
4.33596e-05
4.15227e-05
3.90415e-05
3.64581e-05
3.49473e-05
3.56086e-05
4.25206e-05
4.86326e-05
4.39419e-05
3.66145e-05
2.83619e-05
1.93311e-05
1.92488e-05
1.93487e-05
1.94563e-05
1.95681e-05
1.96912e-05
1.98225e-05
1.99623e-05
2.01123e-05
2.02751e-05
2.04506e-05
2.06392e-05
2.08414e-05
2.10588e-05
2.12916e-05
2.15415e-05
2.18092e-05
2.20962e-05
2.24038e-05
2.27336e-05
2.30869e-05
2.34657e-05
2.38718e-05
2.4307e-05
2.47737e-05
2.52732e-05
2.58082e-05
2.63797e-05
2.69904e-05
2.76413e-05
2.83165e-05
2.90176e-05
2.97692e-05
3.05549e-05
3.13781e-05
3.22283e-05
3.31062e-05
3.40002e-05
3.49083e-05
3.58163e-05
3.67206e-05
3.76054e-05
3.8467e-05
3.92896e-05
4.00712e-05
4.07963e-05
4.1472e-05
4.2088e-05
4.2664e-05
4.31916e-05
4.3713e-05
4.41951e-05
4.46596e-05
4.50162e-05
4.50815e-05
4.47131e-05
4.34648e-05
4.13837e-05
3.85013e-05
3.53715e-05
3.30067e-05
3.19779e-05
3.48753e-05
4.64006e-05
4.29896e-05
3.70635e-05
3.19913e-05
2.48559e-05
3.01398e-05
1.81959e-05
1.81232e-05
1.82191e-05
1.83219e-05
1.84293e-05
1.85477e-05
1.86743e-05
1.88089e-05
1.89539e-05
1.91106e-05
1.92797e-05
1.94622e-05
1.96582e-05
1.98692e-05
2.0096e-05
2.03404e-05
2.06025e-05
2.08846e-05
2.11873e-05
2.1513e-05
2.18632e-05
2.224e-05
2.26462e-05
2.3083e-05
2.35548e-05
2.40613e-05
2.46086e-05
2.51949e-05
2.58278e-05
2.6502e-05
2.7216e-05
2.79788e-05
2.88017e-05
2.9668e-05
3.05805e-05
3.15276e-05
3.25094e-05
3.3511e-05
3.45283e-05
3.55444e-05
3.65539e-05
3.75373e-05
3.84942e-05
3.94042e-05
4.02757e-05
4.10989e-05
4.18845e-05
4.26415e-05
4.33711e-05
4.4083e-05
4.47293e-05
4.52197e-05
4.53582e-05
4.4928e-05
4.35593e-05
4.13202e-05
3.82178e-05
3.49791e-05
3.23357e-05
3.08976e-05
3.2469e-05
4.0231e-05
4.11948e-05
3.66519e-05
3.26474e-05
2.54125e-05
2.63406e-05
3.08494e-05
5.1411e-05
1.72687e-05
1.72034e-05
1.72974e-05
1.73977e-05
1.75018e-05
1.76158e-05
1.77379e-05
1.78669e-05
1.80061e-05
1.81567e-05
1.83193e-05
1.84948e-05
1.86839e-05
1.88879e-05
1.9108e-05
1.9345e-05
1.96011e-05
1.98765e-05
2.01746e-05
2.04958e-05
2.08436e-05
2.12196e-05
2.16273e-05
2.20685e-05
2.25483e-05
2.30674e-05
2.36318e-05
2.42418e-05
2.49051e-05
2.56015e-05
2.63398e-05
2.71364e-05
2.7994e-05
2.89048e-05
2.9878e-05
3.0899e-05
3.19747e-05
3.30839e-05
3.42272e-05
3.53783e-05
3.65341e-05
3.76675e-05
3.87808e-05
3.98554e-05
4.08998e-05
4.19163e-05
4.28818e-05
4.38059e-05
4.45674e-05
4.51091e-05
4.5139e-05
4.44995e-05
4.28663e-05
4.04291e-05
3.72967e-05
3.42899e-05
3.18403e-05
3.08526e-05
3.25377e-05
4.06963e-05
3.8834e-05
3.44263e-05
2.93919e-05
2.44005e-05
2.44893e-05
2.68859e-05
3.23236e-05
4.44529e-05
8.07922e-05
1.62866e-05
1.62328e-05
1.63204e-05
1.64146e-05
1.65132e-05
1.66221e-05
1.67388e-05
1.68629e-05
1.69968e-05
1.71413e-05
1.7298e-05
1.74663e-05
1.7648e-05
1.78436e-05
1.80548e-05
1.82822e-05
1.85291e-05
1.87951e-05
1.90842e-05
1.9397e-05
1.97376e-05
2.0107e-05
2.05097e-05
2.09479e-05
2.1425e-05
2.19454e-05
2.25136e-05
2.31348e-05
2.3817e-05
2.45613e-05
2.53872e-05
2.62882e-05
2.72709e-05
2.83218e-05
2.94523e-05
3.06422e-05
3.18981e-05
3.31938e-05
3.4528e-05
3.5873e-05
3.72197e-05
3.85494e-05
3.98502e-05
4.11061e-05
4.22798e-05
4.3328e-05
4.40856e-05
4.44413e-05
4.40703e-05
4.29534e-05
4.0883e-05
3.82747e-05
3.53445e-05
3.28568e-05
3.11972e-05
3.1285e-05
3.46334e-05
3.94254e-05
3.53608e-05
3.04841e-05
2.71179e-05
2.1389e-05
2.16826e-05
2.31013e-05
2.44326e-05
3.59386e-05
5.61524e-05
9.14636e-05
0.000106331
1.57603e-05
1.56979e-05
1.57798e-05
1.5868e-05
1.59588e-05
1.60585e-05
1.61657e-05
1.62807e-05
1.64044e-05
1.65396e-05
1.66861e-05
1.68451e-05
1.70162e-05
1.72018e-05
1.74018e-05
1.7619e-05
1.78542e-05
1.811e-05
1.8388e-05
1.86916e-05
1.9023e-05
1.93864e-05
1.97839e-05
2.02216e-05
2.07017e-05
2.12303e-05
2.18116e-05
2.24493e-05
2.31269e-05
2.3856e-05
2.46613e-05
2.55473e-05
2.65259e-05
2.75996e-05
2.8781e-05
3.00633e-05
3.14566e-05
3.29386e-05
3.45074e-05
3.61144e-05
3.77278e-05
3.92644e-05
4.06468e-05
4.17388e-05
4.23783e-05
4.24127e-05
4.15971e-05
4.00403e-05
3.77062e-05
3.52376e-05
3.28451e-05
3.13693e-05
3.10901e-05
3.33739e-05
3.79337e-05
3.407e-05
2.99817e-05
2.61213e-05
2.13619e-05
1.84521e-05
1.90614e-05
1.94825e-05
2.16655e-05
3.09842e-05
4.80829e-05
6.56328e-05
8.05815e-05
0.000109021
0.000116957
1.48072e-05
1.47841e-05
1.48709e-05
1.49613e-05
1.50555e-05
1.51578e-05
1.52663e-05
1.53809e-05
1.55038e-05
1.56355e-05
1.57783e-05
1.59317e-05
1.60974e-05
1.62762e-05
1.647e-05
1.66799e-05
1.69081e-05
1.71564e-05
1.7427e-05
1.77224e-05
1.8046e-05
1.84004e-05
1.87901e-05
1.92197e-05
1.96953e-05
2.02237e-05
2.08146e-05
2.14854e-05
2.22555e-05
2.31285e-05
2.4113e-05
2.52072e-05
2.6429e-05
2.77661e-05
2.92418e-05
3.08212e-05
3.25185e-05
3.42446e-05
3.59735e-05
3.75267e-05
3.8809e-05
3.95658e-05
3.97275e-05
3.91449e-05
3.79511e-05
3.62802e-05
3.44239e-05
3.27993e-05
3.16905e-05
3.20171e-05
3.47192e-05
3.40707e-05
3.03938e-05
2.70773e-05
2.3891e-05
2.11428e-05
1.69665e-05
1.63329e-05
1.66497e-05
1.62858e-05
1.98015e-05
2.7462e-05
4.17886e-05
4.94685e-05
6.1094e-05
9.428e-05
0.000106885
0.000108905
0.000102255
1.49977e-05
1.49043e-05
1.49603e-05
1.50271e-05
1.50973e-05
1.51765e-05
1.52632e-05
1.53572e-05
1.54596e-05
1.55717e-05
1.56944e-05
1.58276e-05
1.5973e-05
1.61308e-05
1.63022e-05
1.64892e-05
1.66933e-05
1.69163e-05
1.71597e-05
1.74281e-05
1.77224e-05
1.80486e-05
1.84093e-05
1.88088e-05
1.92521e-05
1.97473e-05
2.02813e-05
2.08478e-05
2.14759e-05
2.21878e-05
2.30005e-05
2.39259e-05
2.49831e-05
2.6171e-05
2.74906e-05
2.89021e-05
3.03647e-05
3.17458e-05
3.29491e-05
3.37575e-05
3.40953e-05
3.38641e-05
3.3312e-05
3.26789e-05
3.25638e-05
3.34991e-05
3.29702e-05
3.02631e-05
2.74593e-05
2.47494e-05
2.19352e-05
1.99041e-05
1.7591e-05
1.5471e-05
1.45592e-05
1.40491e-05
1.31889e-05
1.50487e-05
1.82015e-05
2.48647e-05
3.43468e-05
3.68709e-05
4.92916e-05
8.40061e-05
9.51862e-05
0.000100331
0.000100168
9.77808e-05
8.96136e-05
1.40306e-05
1.40615e-05
1.41598e-05
1.42503e-05
1.43426e-05
1.44409e-05
1.45457e-05
1.46547e-05
1.47727e-05
1.4899e-05
1.50379e-05
1.51875e-05
1.53521e-05
1.55301e-05
1.57263e-05
1.59394e-05
1.61743e-05
1.64302e-05
1.67127e-05
1.70219e-05
1.73683e-05
1.77577e-05
1.82014e-05
1.87031e-05
1.92713e-05
1.99176e-05
2.06638e-05
2.1505e-05
2.24273e-05
2.34233e-05
2.44733e-05
2.55766e-05
2.67047e-05
2.7866e-05
2.9038e-05
3.02461e-05
3.14777e-05
3.27502e-05
3.32642e-05
3.17764e-05
3.00385e-05
2.80661e-05
2.58798e-05
2.36396e-05
2.14819e-05
1.93985e-05
1.75678e-05
1.58869e-05
1.44788e-05
1.36656e-05
1.29553e-05
1.26022e-05
1.1606e-05
1.15342e-05
1.17794e-05
1.3289e-05
1.67113e-05
2.12509e-05
2.56321e-05
2.90615e-05
3.84017e-05
6.42943e-05
7.86893e-05
8.8448e-05
9.3295e-05
9.48176e-05
9.40454e-05
9.06081e-05
8.27082e-05
1.66109e-05
1.6489e-05
1.65754e-05
1.66779e-05
1.67829e-05
1.69046e-05
1.70213e-05
1.71676e-05
1.73062e-05
1.74772e-05
1.76402e-05
1.78404e-05
1.80324e-05
1.82679e-05
1.84948e-05
1.8778e-05
1.90561e-05
1.93522e-05
1.96777e-05
1.99603e-05
2.03575e-05
2.06725e-05
2.10032e-05
2.13405e-05
2.16732e-05
2.20047e-05
2.23787e-05
2.28447e-05
2.34618e-05
2.43193e-05
2.46443e-05
2.36227e-05
2.24853e-05
2.13275e-05
2.00733e-05
1.88704e-05
1.76237e-05
1.64139e-05
1.53036e-05
1.42783e-05
1.32904e-05
1.24641e-05
1.14364e-05
1.11744e-05
1.07728e-05
1.03617e-05
9.97315e-06
9.53188e-06
9.20407e-06
8.64697e-06
8.42043e-06
7.96824e-06
9.05892e-06
1.02088e-05
1.26778e-05
1.64487e-05
1.74005e-05
1.6798e-05
2.59485e-05
3.54768e-05
4.48052e-05
5.68854e-05
6.81548e-05
7.57749e-05
8.1709e-05
8.52054e-05
8.56348e-05
8.42869e-05
6.85375e-05
9.20496e-06
9.125e-06
9.08285e-06
9.02455e-06
8.95699e-06
8.89059e-06
8.83409e-06
8.79513e-06
8.76793e-06
8.66868e-06
8.64151e-06
8.55601e-06
8.4668e-06
8.4402e-06
8.33543e-06
8.30517e-06
8.19044e-06
8.15676e-06
8.03498e-06
7.99706e-06
7.87206e-06
7.80731e-06
7.72591e-06
7.64762e-06
7.56909e-06
7.52128e-06
7.47642e-06
7.45585e-06
7.44385e-06
7.4487e-06
7.46444e-06
7.4997e-06
7.53169e-06
7.58116e-06
7.61857e-06
7.66131e-06
7.69928e-06
7.73208e-06
7.75609e-06
7.74306e-06
7.69649e-06
7.5606e-06
7.48866e-06
6.95326e-06
6.51899e-06
6.0334e-06
5.56987e-06
5.11926e-06
4.7959e-06
4.48094e-06
4.60237e-06
4.32762e-06
3.29117e-06
4.00269e-06
5.46002e-06
5.68318e-06
5.08971e-06
4.39579e-06
5.7221e-06
8.96768e-06
1.39667e-05
2.18619e-05
3.11452e-05
3.82561e-05
4.5593e-05
5.13365e-05
5.49294e-05
5.62685e-05
5.59853e-05
5.40764e-06
5.46716e-06
5.52668e-06
5.58837e-06
5.65159e-06
5.71737e-06
5.78537e-06
5.85624e-06
5.92937e-06
6.00518e-06
6.08344e-06
6.16498e-06
6.24886e-06
6.3362e-06
6.42647e-06
6.5198e-06
6.61687e-06
6.7168e-06
6.82104e-06
6.92813e-06
7.0398e-06
7.15339e-06
7.26282e-06
7.37845e-06
7.48422e-06
7.59998e-06
7.70405e-06
7.81112e-06
7.92583e-06
7.99483e-06
8.06729e-06
8.19489e-06
8.15819e-06
8.30214e-06
8.15655e-06
8.26015e-06
8.20923e-06
7.96675e-06
7.59604e-06
7.10734e-06
6.46754e-06
5.63881e-06
4.56037e-06
3.24766e-06
1.91699e-06
8.06893e-07
3.32951e-07
3.06306e-07
4.02368e-07
4.67251e-07
4.69875e-07
4.48483e-07
3.51644e-07
2.76358e-07
2.53366e-07
2.5317e-07
2.67385e-07
3.05321e-07
4.0011e-07
5.49633e-07
7.4847e-07
1.00626e-06
1.34307e-06
1.79046e-06
2.27788e-06
2.74163e-06
3.12736e-06
3.41525e-06
3.57079e-06
8.45855e-05
8.564e-05
8.40672e-05
8.48782e-05
8.49072e-05
8.38012e-05
8.16396e-05
8.06663e-05
8.10121e-05
8.09353e-05
8.1645e-05
8.11733e-05
7.88289e-05
7.66481e-05
7.65074e-05
7.82169e-05
7.69903e-05
7.56294e-05
7.44683e-05
7.37137e-05
7.3294e-05
7.3757e-05
7.25063e-05
7.07382e-05
7.07869e-05
7.04235e-05
6.89201e-05
6.86498e-05
6.91359e-05
6.8309e-05
6.69492e-05
6.68835e-05
6.65794e-05
6.62459e-05
6.4666e-05
6.45553e-05
6.42171e-05
6.36868e-05
6.37147e-05
6.3541e-05
6.28248e-05
6.27171e-05
6.29953e-05
6.32997e-05
6.22585e-05
6.26386e-05
6.3411e-05
6.26523e-05
6.23825e-05
6.25332e-05
6.21966e-05
6.14615e-05
6.27717e-05
6.14462e-05
6.19856e-05
6.27517e-05
6.22266e-05
6.21726e-05
6.32968e-05
7.80692e-05
7.86572e-05
7.79266e-05
7.78481e-05
7.71044e-05
7.58461e-05
7.49568e-05
7.51095e-05
7.57778e-05
7.56661e-05
7.50848e-05
7.39038e-05
7.25351e-05
7.15648e-05
7.20557e-05
7.20688e-05
7.05298e-05
6.94926e-05
6.91583e-05
6.83251e-05
6.81543e-05
6.75441e-05
6.68253e-05
6.56352e-05
6.55217e-05
6.49784e-05
6.415e-05
6.33663e-05
6.36436e-05
6.30753e-05
6.18903e-05
6.1884e-05
6.16084e-05
6.13946e-05
6.06109e-05
6.02346e-05
6.01358e-05
5.96085e-05
5.93847e-05
5.90612e-05
5.84444e-05
5.8488e-05
5.84284e-05
5.83626e-05
5.84409e-05
5.80249e-05
5.84689e-05
5.86016e-05
5.8527e-05
5.84479e-05
5.82983e-05
5.80128e-05
5.79739e-05
5.80649e-05
5.79159e-05
5.83633e-05
5.85428e-05
5.82086e-05
5.88786e-05
7.30425e-05
7.36658e-05
7.27263e-05
7.21209e-05
7.14204e-05
7.087e-05
7.07118e-05
7.08339e-05
7.07456e-05
7.00931e-05
6.90841e-05
6.79979e-05
6.72928e-05
6.6931e-05
6.70715e-05
6.62914e-05
6.5245e-05
6.46138e-05
6.43023e-05
6.35739e-05
6.30691e-05
6.24568e-05
6.17513e-05
6.092e-05
6.07366e-05
6.00487e-05
5.95613e-05
5.87846e-05
5.88758e-05
5.83065e-05
5.74855e-05
5.73882e-05
5.71176e-05
5.6764e-05
5.63757e-05
5.60131e-05
5.58704e-05
5.55567e-05
5.53046e-05
5.50803e-05
5.46503e-05
5.44951e-05
5.44037e-05
5.42139e-05
5.44136e-05
5.41956e-05
5.41782e-05
5.42937e-05
5.44096e-05
5.44393e-05
5.43875e-05
5.42975e-05
5.41323e-05
5.41622e-05
5.41574e-05
5.41979e-05
5.42836e-05
5.40314e-05
5.46607e-05
6.79677e-05
6.8538e-05
6.75802e-05
6.71153e-05
6.67309e-05
6.64908e-05
6.63154e-05
6.60163e-05
6.5421e-05
6.45658e-05
6.36894e-05
6.30609e-05
6.27099e-05
6.24722e-05
6.21143e-05
6.12688e-05
6.06058e-05
6.01948e-05
5.97874e-05
5.91544e-05
5.85544e-05
5.79822e-05
5.73124e-05
5.66933e-05
5.64459e-05
5.57803e-05
5.53836e-05
5.47476e-05
5.46655e-05
5.41685e-05
5.35658e-05
5.34177e-05
5.31152e-05
5.27509e-05
5.24686e-05
5.21717e-05
5.199e-05
5.17762e-05
5.1556e-05
5.13795e-05
5.11337e-05
5.09677e-05
5.08317e-05
5.06715e-05
5.07112e-05
5.06662e-05
5.05811e-05
5.05759e-05
5.06804e-05
5.07807e-05
5.08187e-05
5.08509e-05
5.08172e-05
5.07885e-05
5.07669e-05
5.07347e-05
5.07304e-05
5.05187e-05
5.10963e-05
6.31591e-05
6.37343e-05
6.29204e-05
6.25999e-05
6.22876e-05
6.19684e-05
6.15588e-05
6.10042e-05
6.0329e-05
5.96527e-05
5.91152e-05
5.87687e-05
5.84988e-05
5.81156e-05
5.75199e-05
5.68244e-05
5.63429e-05
5.59824e-05
5.55392e-05
5.49767e-05
5.44232e-05
5.38568e-05
5.32544e-05
5.277e-05
5.24793e-05
5.18931e-05
5.15349e-05
5.09975e-05
5.08146e-05
5.03982e-05
4.99079e-05
4.97346e-05
4.94435e-05
4.9117e-05
4.88701e-05
4.86289e-05
4.84348e-05
4.82565e-05
4.80576e-05
4.79278e-05
4.77452e-05
4.76161e-05
4.75197e-05
4.74307e-05
4.73743e-05
4.73456e-05
4.73036e-05
4.72673e-05
4.72845e-05
4.73504e-05
4.74346e-05
4.74965e-05
4.75609e-05
4.75683e-05
4.7558e-05
4.7534e-05
4.75289e-05
4.7272e-05
4.78245e-05
5.88449e-05
5.94011e-05
5.86421e-05
5.8304e-05
5.79063e-05
5.74576e-05
5.69411e-05
5.63842e-05
5.58465e-05
5.5395e-05
5.50492e-05
5.4748e-05
5.43781e-05
5.38714e-05
5.32866e-05
5.27665e-05
5.23806e-05
5.20011e-05
5.15438e-05
5.10329e-05
5.05232e-05
4.99862e-05
4.94624e-05
4.90629e-05
4.8748e-05
4.82395e-05
4.7915e-05
4.74477e-05
4.72198e-05
4.68637e-05
4.64505e-05
4.62587e-05
4.60075e-05
4.57189e-05
4.55006e-05
4.52876e-05
4.51146e-05
4.49646e-05
4.47878e-05
4.46635e-05
4.45613e-05
4.44394e-05
4.43571e-05
4.4304e-05
4.42631e-05
4.42373e-05
4.42374e-05
4.42477e-05
4.42422e-05
4.42541e-05
4.4273e-05
4.43164e-05
4.43669e-05
4.44241e-05
4.44594e-05
4.44945e-05
4.45236e-05
4.42984e-05
4.47882e-05
5.48097e-05
5.52911e-05
5.45271e-05
5.41413e-05
5.36974e-05
5.32348e-05
5.27657e-05
5.23214e-05
5.19268e-05
5.15845e-05
5.12575e-05
5.08864e-05
5.04332e-05
4.99236e-05
4.9439e-05
4.90329e-05
4.86711e-05
4.8272e-05
4.78259e-05
4.73548e-05
4.68745e-05
4.63815e-05
4.59345e-05
4.55892e-05
4.52673e-05
4.48245e-05
4.45269e-05
4.41169e-05
4.38751e-05
4.35677e-05
4.32124e-05
4.30173e-05
4.28022e-05
4.25512e-05
4.23572e-05
4.21759e-05
4.20076e-05
4.18901e-05
4.17565e-05
4.16375e-05
4.15419e-05
4.1487e-05
4.14054e-05
4.13478e-05
4.13273e-05
4.13043e-05
4.13053e-05
4.13164e-05
4.13521e-05
4.13766e-05
4.14052e-05
4.14418e-05
4.15052e-05
4.15134e-05
4.15621e-05
4.15673e-05
4.15976e-05
4.14118e-05
4.1888e-05
5.09311e-05
5.13434e-05
5.0604e-05
5.02288e-05
4.982e-05
4.94228e-05
4.90429e-05
4.86886e-05
4.83531e-05
4.80152e-05
4.7645e-05
4.72261e-05
4.67732e-05
4.63285e-05
4.59302e-05
4.55697e-05
4.52031e-05
4.48023e-05
4.43801e-05
4.39426e-05
4.34908e-05
4.30465e-05
4.26625e-05
4.23519e-05
4.20336e-05
4.16464e-05
4.13693e-05
4.10054e-05
4.07664e-05
4.04987e-05
4.01948e-05
3.99972e-05
3.98134e-05
3.95987e-05
3.94209e-05