/*--------------------------------*- C++ -*----------------------------------*\
| =========                 |                                                 |
| \\      /  F ield         | OpenFOAM: The Open Source CFD Toolbox           |
|  \\    /   O peration     | Version:  2312                                  |
|   \\  /    A nd           | Website:  www.openfoam.com                      |
|    \\/     M anipulation  |                                                 |
\*---------------------------------------------------------------------------*/
FoamFile
{
    version     2.0;
    format      ascii;
    arch        "LSB;label=32;scalar=64";
    class       volScalarField;
    location    "500";
    object      omega;
}
// * * * * * * * * * * * * * * * * * * * * * * * * * * * * * * * * * * * * * //

dimensions      [0 0 -1 0 0 0 0];

internalField   nonuniform List<scalar> 
76025
(
0.0289673
0.0289791
0.0290056
0.029027
0.0290183
0.0290326
0.0290296
0.0290398
0.0290469
0.0290467
0.0290722
0.0290757
0.0290753
0.0290564
0.0290562
0.0290776
0.0291242
0.0291947
0.0292213
0.0292464
0.0292491
0.0292309
0.0292433
0.0292638
0.0292971
0.0293464
0.0293613
0.0294575
0.0295022
0.0294776
0.0294702
0.0295497
0.0296179
0.0297014
0.0297749
0.0298549
0.0299035
0.029987
0.0301093
0.0301895
0.030376
0.0305568
0.0308933
0.0311883
0.0316138
0.031946
0.0324351
0.0328295
0.0333433
0.0336761
0.0341843
0.0344486
0.0349044
0.0352068
0.0357164
0.0360115
0.0365776
0.0368956
0.037612
0.0380353
0.0389309
0.0394277
0.0405813
0.0412744
0.0427631
0.0440793
0.0455235
0.0479016
0.0492393
0.0292269
0.0292524
0.0292815
0.0293135
0.0293492
0.0293668
0.0293952
0.0294073
0.0294098
0.0294292
0.0294477
0.0294694
0.0294881
0.0294972
0.0295118
0.0295145
0.0295648
0.0295685
0.0295623
0.0295866
0.0296278
0.0296814
0.0297398
0.02978
0.029858
0.0299235
0.0299614
0.030084
0.0300447
0.0301637
0.0301161
0.0301482
0.0302151
0.0303554
0.0304987
0.0306557
0.0307619
0.0309045
0.0309549
0.031049
0.0312452
0.0314313
0.0317286
0.0319761
0.0323395
0.0326246
0.0330392
0.0333322
0.0337676
0.0340583
0.034526
0.0348116
0.0353451
0.035643
0.0362481
0.0365807
0.0373003
0.0377038
0.0385826
0.0390929
0.0402136
0.0408764
0.0423262
0.0431873
0.0450867
0.0461336
0.0485808
0.0498499
0.052301
0.0296603
0.0296921
0.0297188
0.0297417
0.0297626
0.0297854
0.0298195
0.0298925
0.029911
0.0299291
0.0299393
0.0299231
0.0299524
0.0299728
0.0300304
0.0300613
0.0301008
0.0301355
0.0301505
0.0302278
0.0302543
0.0302239
0.0302334
0.0302619
0.0303243
0.0303814
0.0304544
0.030522
0.030588
0.0306805
0.0307427
0.0308733
0.0309759
0.0311226
0.0312934
0.0314589
0.0316424
0.0318123
0.0319499
0.0320616
0.032209
0.0323196
0.0325733
0.0327638
0.0331093
0.0333498
0.0337632
0.034029
0.0344988
0.0347846
0.0353189
0.0356329
0.0362461
0.0365924
0.0373008
0.0376916
0.0385301
0.0389949
0.0400141
0.040589
0.041851
0.0425624
0.0441103
0.0450018
0.0468687
0.0480368
0.0503074
0.0518267
0.0549785
0.0301436
0.0301468
0.0301667
0.0302074
0.0302444
0.0302701
0.0302918
0.030344
0.0303902
0.0304218
0.0304976
0.0305211
0.030587
0.0306014
0.0305947
0.0306246
0.0306829
0.0307283
0.0307809
0.0308199
0.0308458
0.0308717
0.0309273
0.0309912
0.0310359
0.031174
0.0311362
0.0312155
0.0312031
0.0312466
0.0313183
0.0314163
0.0315315
0.0316428
0.0317865
0.0319018
0.0320666
0.0321908
0.032391
0.0325378
0.0327933
0.03298
0.0333014
0.033525
0.033907
0.0341589
0.0346004
0.0348771
0.0353831
0.0356861
0.0362688
0.0366035
0.0372784
0.0376541
0.0384438
0.0388771
0.0398146
0.0403291
0.0414555
0.0420794
0.0434451
0.0442101
0.0458834
0.0468411
0.0489307
0.050202
0.0527458
0.0546891
0.0576564
0.0307879
0.0307697
0.0307963
0.0307832
0.0307782
0.0307962
0.030832
0.0308694
0.0309084
0.0309519
0.0310004
0.0310666
0.0311339
0.0312339
0.0312784
0.03132
0.0313347
0.0314027
0.0314677
0.0315553
0.0316508
0.0317497
0.0318339
0.0318979
0.0319813
0.0320666
0.0321568
0.032254
0.0322962
0.0324856
0.0324024
0.0326208
0.0325232
0.0324997
0.0325913
0.0326921
0.0328754
0.0330238
0.0332655
0.0334441
0.0337407
0.0339473
0.0343007
0.034535
0.0349477
0.0352101
0.0356884
0.0359806
0.036534
0.0368595
0.0375012
0.0378671
0.0386146
0.0390307
0.0399074
0.0403878
0.0414254
0.0419926
0.0432353
0.0439222
0.0454291
0.0462748
0.0481255
0.049182
0.0514682
0.0528643
0.0555866
0.0576886
0.0606327
0.0314783
0.0315069
0.031544
0.0315878
0.031636
0.0316448
0.0316775
0.0316632
0.0317018
0.0316819
0.0317006
0.0317366
0.0318189
0.0319458
0.0319967
0.0321612
0.0322166
0.0322829
0.0323266
0.0322953
0.0323185
0.0323967
0.0324851
0.0325628
0.0327008
0.0327847
0.0329464
0.0330659
0.0332537
0.033441
0.0335177
0.0338104
0.033669
0.0339656
0.0338577
0.0338461
0.0339905
0.0341279
0.034383
0.0345719
0.0348947
0.0351137
0.0354971
0.035744
0.0361924
0.0364707
0.0369922
0.0373048
0.0379103
0.0382613
0.0389649
0.0393617
0.0401819
0.0406349
0.0415964
0.0421208
0.043257
0.0438755
0.045231
0.0459759
0.0476084
0.0485171
0.0505048
0.0516355
0.05409
0.055531
0.0586468
0.0605655
0.0641617
0.0323513
0.032338
0.0323309
0.0323684
0.0324323
0.0324812
0.0325377
0.0325858
0.0326341
0.0326721
0.0326843
0.0327538
0.0327793
0.0327587
0.032787
0.032864
0.0329224
0.0330468
0.0332194
0.0332728
0.0332555
0.0332371
0.0333153
0.0334032
0.0335536
0.0336893
0.0338197
0.0340118
0.0341475
0.0343389
0.0345545
0.0347367
0.0349325
0.0353281
0.0352631
0.0354656
0.0354473
0.0355578
0.0357853
0.0359763
0.036303
0.0365205
0.0369165
0.0371673
0.0376485
0.0379436
0.038511
0.0388477
0.0395082
0.0398879
0.0406549
0.0410845
0.0419771
0.0424677
0.0435123
0.0440799
0.0453113
0.0459799
0.0474472
0.0482511
0.0500198
0.0510074
0.0531651
0.0544228
0.05706
0.0587584
0.0620343
0.0642844
0.0684483
0.0331086
0.0331227
0.0331412
0.0331759
0.0332126
0.0332661
0.0333719
0.0334343
0.0335511
0.0336513
0.0337684
0.0338864
0.033966
0.033997
0.0340509
0.034077
0.0341452
0.0341993
0.0343238
0.0344321
0.0344858
0.034666
0.0347324
0.0346857
0.0347346
0.0348461
0.0350195
0.0351996
0.0354178
0.0356466
0.0358383
0.0361247
0.0363014
0.0366187
0.0368189
0.0371807
0.0373764
0.0378731
0.0381107
0.0381704
0.038306
0.0384196
0.038631
0.0388309
0.0393234
0.0396276
0.0402406
0.040601
0.0413181
0.0417257
0.0425574
0.0430177
0.0439845
0.0445104
0.0456418
0.0462519
0.047588
0.0483112
0.0499078
0.0507845
0.0527155
0.0537978
0.0561582
0.0575705
0.0603857
0.0624317
0.0657795
0.0685559
0.0730148
0.0342449
0.0343218
0.0343997
0.0344456
0.0345199
0.0345781
0.0346216
0.0346754
0.0347947
0.034834
0.0348126
0.0348498
0.034938
0.0350456
0.0351505
0.0352734
0.0353973
0.0354987
0.0356283
0.0357184
0.0358159
0.035945
0.0360708
0.0361517
0.0364106
0.0365312
0.0368354
0.0369582
0.0368765
0.0368992
0.0370073
0.037174
0.0373681
0.0375668
0.0377973
0.0379979
0.038261
0.0384706
0.0387903
0.039031
0.039437
0.0397228
0.0402256
0.0405485
0.0411374
0.0414899
0.0421672
0.0425566
0.0433343
0.043769
0.0446683
0.0451591
0.0462063
0.0467703
0.0480003
0.0486607
0.0501203
0.0509115
0.0526636
0.0536294
0.0557566
0.0569555
0.0595719
0.0611414
0.0642436
0.0666607
0.0700529
0.0738399
0.078124
0.0355516
0.035614
0.0356786
0.0357151
0.0358125
0.0359085
0.0360253
0.0361327
0.0362299
0.0363438
0.0363973
0.0365307
0.0365977
0.0367734
0.0368439
0.0368982
0.0368549
0.0368485
0.03697
0.0370562
0.037219
0.0373509
0.0375278
0.0376965
0.0378621
0.038099
0.0382493
0.0385072
0.0386592
0.038969
0.0392574
0.0394125
0.0399088
0.0401299
0.0401164
0.0400007
0.0401163
0.0402944
0.0406264
0.0409081
0.0413546
0.041677
0.0422165
0.0425629
0.0431954
0.0435687
0.0443004
0.0447123
0.0455557
0.0460191
0.046998
0.047526
0.0486721
0.0492856
0.050639
0.051365
0.0529799
0.0538571
0.0558011
0.0568834
0.0592388
0.0606025
0.0635229
0.0652325
0.0688723
0.0713289
0.0754436
0.0797752
0.0835316
0.0371053
0.0371672
0.0373134
0.037458
0.0375339
0.0377406
0.0378149
0.037904
0.037963
0.0379186
0.0379353
0.0380147
0.0380915
0.0382223
0.0383747
0.0385137
0.0387158
0.0388921
0.0390784
0.0392655
0.0394224
0.0396341
0.0397742
0.0400165
0.0401578
0.0404468
0.0406088
0.0409468
0.0410996
0.0415663
0.0417543
0.041975
0.0416251
0.0421683
0.041921
0.0418853
0.042077
0.0423094
0.0426789
0.0429967
0.0434762
0.0438308
0.0444089
0.0447861
0.0454689
0.0458721
0.0466698
0.0471138
0.0480401
0.0485437
0.0496238
0.0502037
0.051475
0.0521538
0.0536615
0.0544707
0.0562764
0.0572583
0.0594351
0.060668
0.0632733
0.0648958
0.068087
0.070091
0.0742769
0.076762
0.0822638
0.0856695
0.0920365
0.0389863
0.0390338
0.0390205
0.0390909
0.0391628
0.0393131
0.0394317
0.0395819
0.0396753
0.0398129
0.0399786
0.0400747
0.0402533
0.0405028
0.0406097
0.0405903
0.0406175
0.0406687
0.0408287
0.0409479
0.0411627
0.0413126
0.0415731
0.0417463
0.0420564
0.0422527
0.0426115
0.0428397
0.0432539
0.0434945
0.0439821
0.0442115
0.0448267
0.0450676
0.0453348
0.0455528
0.0452431
0.0450292
0.0451874
0.0454396
0.0459018
0.0462824
0.0468912
0.0473137
0.0480507
0.0485013
0.0493773
0.0498682
0.050898
0.0514543
0.0526603
0.0533057
0.0547295
0.0554882
0.0571832
0.0580917
0.0601286
0.0612348
0.0637039
0.0650862
0.0680605
0.0699159
0.0734566
0.0759514
0.0804268
0.0836035
0.0895301
0.0938687
0.101802
0.0412996
0.0413668
0.0414201
0.0415556
0.0417029
0.0417583
0.0418592
0.0419343
0.0420698
0.0421801
0.0422631
0.042445
0.0425502
0.0426684
0.0426223
0.0427021
0.0427597
0.042812
0.043043
0.0431558
0.0434587
0.0436181
0.0439843
0.044174
0.0445976
0.0448113
0.045292
0.0455089
0.0460905
0.0463302
0.0466155
0.0462259
0.0468726
0.0465472
0.0464925
0.0466404
0.0469235
0.0472661
0.0476994
0.0481299
0.0486673
0.049143
0.0497908
0.0502942
0.05108
0.0516048
0.0525601
0.0531157
0.0542631
0.0548823
0.0562386
0.0569612
0.0585666
0.0594217
0.0613404
0.0623689
0.0646821
0.0659379
0.0687566
0.0703061
0.073797
0.0757451
0.0799994
0.0827546
0.087889
0.0918417
0.0985965
0.103823
0.114602
0.0436171
0.0437334
0.0438795
0.0440502
0.0442314
0.0444324
0.0445332
0.0447433
0.0449287
0.0450591
0.0454163
0.0455662
0.0457443
0.0458667
0.0457804
0.045787
0.0458855
0.046008
0.0462387
0.0465065
0.0467868
0.0470112
0.0473165
0.0475231
0.0478745
0.0480877
0.0485061
0.0487487
0.0492552
0.0494844
0.0501994
0.0504638
0.0507685
0.0501858
0.0509095
0.0504984
0.050415
0.0506359
0.0510163
0.0514807
0.0520239
0.0525794
0.0532481
0.0538518
0.0546761
0.0553069
0.0563351
0.0569878
0.0582607
0.0589636
0.0604989
0.0613123
0.0631347
0.0641044
0.0662872
0.0674591
0.0700939
0.0715288
0.0747497
0.0765338
0.0805227
0.0828021
0.0877717
0.090929
0.0970037
0.102084
0.109396
0.118234
0.128651
0.0469664
0.0471024
0.0472448
0.0473909
0.0474985
0.0476504
0.0477927
0.0478908
0.0480769
0.0483483
0.048307
0.0483485
0.0483417
0.0484778
0.0485985
0.0488326
0.0490034
0.0493181
0.0495115
0.0498798
0.0501036
0.050513
0.0507503
0.0512075
0.051459
0.0519776
0.0522488
0.052845
0.0531152
0.0538687
0.0541628
0.0545046
0.0538326
0.0546557
0.0541376
0.0539915
0.0541655
0.0545193
0.0549677
0.0555076
0.0560898
0.0567353
0.0574388
0.0581567
0.0590212
0.0597841
0.0608769
0.0616641
0.063054
0.0638757
0.0656006
0.0665218
0.0685938
0.0696963
0.0721835
0.0735205
0.0765384
0.0781923
0.0819049
0.0839809
0.0886202
0.0913124
0.0971922
0.100912
0.108758
0.11445
0.125289
0.136162
0.151247
0.050613
0.0508053
0.050997
0.0513118
0.0515439
0.0518063
0.0521552
0.0523351
0.052688
0.0528968
0.0532464
0.0533462
0.0534634
0.0532747
0.0534406
0.0533878
0.0534565
0.0536627
0.0539365
0.054277
0.0545587
0.0549433
0.0551974
0.0556407
0.0558991
0.0564162
0.0567022
0.0573116
0.0576379
0.0583668
0.0586957
0.0596598
0.0600326
0.0604693
0.0596298
0.0606072
0.0599716
0.0597962
0.0599904
0.0605015
0.0610533
0.0618035
0.062511
0.0633784
0.0642426
0.0651848
0.0662971
0.0672821
0.0687557
0.0697574
0.071672
0.0727358
0.0751082
0.0763659
0.079228
0.0807757
0.0842745
0.08621
0.0905432
0.0930088
0.0985056
0.101768
0.109075
0.113727
0.124234
0.131639
0.148548
0.161342
0.191106
0.0556766
0.055981
0.0561377
0.0564626
0.0567182
0.0568526
0.0572454
0.0570885
0.0574013
0.0573178
0.0573428
0.0575398
0.0577525
0.0579595
0.0582669
0.0584488
0.0588278
0.0591072
0.0595311
0.0599162
0.0602478
0.0607358
0.0611248
0.061483
0.061923
0.0622129
0.0627462
0.0630511
0.0637472
0.0641274
0.0650029
0.065376
0.0665027
0.0669101
0.0673767
0.0663136
0.0674661
0.0667984
0.0665526
0.067141
0.0676309
0.0685632
0.069144
0.0701045
0.0708111
0.0718691
0.0728999
0.0741319
0.0756247
0.0769041
0.0789747
0.0802658
0.0829814
0.0844398
0.0877709
0.0895849
0.0937005
0.0959925
0.101145
0.104157
0.110894
0.115127
0.124622
0.131229
0.146061
0.15767
0.18251
0.204525
0.249078
0.0611354
0.0613273
0.0615411
0.0617485
0.0619762
0.0622298
0.0624925
0.0626006
0.0631577
0.0633508
0.0635752
0.0637346
0.0637001
0.0637661
0.0639533
0.0643959
0.0647285
0.0652488
0.0656412
0.066148
0.0666398
0.0670364
0.0677156
0.0680775
0.0688008
0.0691502
0.0699894
0.0703932
0.0714254
0.0718624
0.0723792
0.0720202
0.0727603
0.0728248
0.0730319
0.0741894
0.0748694
0.0766421
0.0774296
0.0798487
0.0807009
0.0817522
0.080275
0.0810785
0.0802282
0.0805795
0.0813501
0.0826674
0.0841913
0.0857329
0.0879389
0.089541
0.0925977
0.0943237
0.0982675
0.100425
0.105335
0.108168
0.11452
0.118494
0.127352
0.133479
0.147151
0.157694
0.180506
0.200882
0.239186
0.285161
0.363478
0.0681796
0.0683964
0.0687197
0.0690427
0.0693288
0.0696917
0.0700401
0.0703025
0.0707084
0.0710134
0.0711619
0.0718293
0.0719423
0.0719839
0.0721318
0.0723139
0.0725402
0.0729869
0.0732862
0.073836
0.0743289
0.0749459
0.0754822
0.0761091
0.0765782
0.0771958
0.0776867
0.0782457
0.0788513
0.0795906
0.0800361
0.0809017
0.0813178
0.0824549
0.0830338
0.0845481
0.0853557
0.0871914
0.0879639
0.0903711
0.0911819
0.0923503
0.09125
0.0907683
0.0907907
0.0918651
0.0926798
0.0942322
0.0956458
0.0971921
0.099376
0.101245
0.10457
0.106735
0.111387
0.114082
0.120225
0.124019
0.132562
0.138413
0.151553
0.161553
0.183329
0.202645
0.239151
0.281764
0.347633
0.459964
0.6343
0.0763794
0.0766448
0.0768346
0.0771817
0.0774069
0.0777415
0.0780833
0.0785052
0.0788407
0.0794949
0.0801334
0.0805442
0.0811499
0.0818936
0.0817783
0.0821106
0.0820867
0.082192
0.082681
0.0830766
0.0837716
0.0843398
0.0850586
0.0857568
0.0863586
0.0872022
0.087702
0.0886224
0.0892427
0.0902714
0.0910596
0.0920058
0.0930427
0.0942636
0.0950704
0.0964156
0.0971189
0.0987512
0.0996432
0.101781
0.102992
0.105757
0.106964
0.110948
0.11233
0.114194
0.111706
0.11562
0.113601
0.113585
0.114674
0.116529
0.119798
0.122859
0.128321
0.132349
0.140676
0.146621
0.159706
0.169767
0.191699
0.21081
0.247939
0.289639
0.356705
0.455635
0.606385
0.873936
1.37367
0.087414
0.0877919
0.0880572
0.0885338
0.0889198
0.0893863
0.0898297
0.0905608
0.0910471
0.0916488
0.0924702
0.0931068
0.0936813
0.0939373
0.094279
0.094472
0.094779
0.0954139
0.0957833
0.096511
0.0972624
0.0976737
0.0988284
0.0993135
0.0989617
0.099044
0.099371
0.100115
0.100832
0.101681
0.102787
0.103878
0.105083
0.106594
0.107748
0.109443
0.110531
0.112384
0.113537
0.115559
0.117071
0.119291
0.121163
0.123366
0.126022
0.128251
0.131981
0.133753
0.135876
0.137273
0.135528
0.136389
0.139877
0.145031
0.151956
0.160241
0.17203
0.185346
0.205924
0.229276
0.266236
0.311796
0.38339
0.484226
0.646235
0.862495
1.25857
1.78858
2.11686
0.101007
0.101327
0.101561
0.1019
0.102327
0.102665
0.103214
0.10378
0.104372
0.10508
0.105693
0.106543
0.107207
0.107772
0.108584
0.109411
0.109873
0.111084
0.112019
0.112516
0.113866
0.114419
0.114232
0.114193
0.114628
0.11535
0.116163
0.117364
0.118199
0.119622
0.120697
0.122522
0.123539
0.125471
0.126483
0.128742
0.129997
0.132525
0.134145
0.1362
0.140195
0.140477
0.143187
0.144771
0.146627
0.147551
0.148953
0.150224
0.148328
0.149884
0.154524
0.160869
0.169041
0.179507
0.192082
0.209993
0.230863
0.262451
0.299314
0.357719
0.431307
0.55147
0.720567
0.982206
1.3416
1.70883
1.95991
1.90258
1.68503
0.121145
0.121421
0.122117
0.122489
0.123107
0.124011
0.124251
0.124617
0.125581
0.125939
0.125688
0.125735
0.126209
0.126469
0.1276
0.128229
0.129649
0.13048
0.132035
0.1332
0.133908
0.13553
0.135329
0.1352
0.135293
0.13574
0.136536
0.137649
0.139352
0.140167
0.142377
0.143472
0.145912
0.147136
0.149909
0.151149
0.154302
0.155588
0.15601
0.155903
0.159478
0.160685
0.162473
0.164091
0.163955
0.163663
0.165554
0.170783
0.177133
0.185513
0.196341
0.209018
0.226791
0.248541
0.277821
0.315092
0.366083
0.434899
0.527504
0.673192
0.849073
1.18539
1.52466
1.79836
1.88728
1.7638
1.53669
1.47267
1.38529
0.146343
0.146954
0.147566
0.148216
0.148944
0.149689
0.150542
0.151292
0.151832
0.152951
0.15345
0.154567
0.1551
0.156581
0.157211
0.158837
0.15947
0.160238
0.160857
0.160069
0.1595
0.160337
0.16085
0.16234
0.163205
0.164797
0.166442
0.168033
0.169104
0.170968
0.173904
0.175267
0.176526
0.178084
0.179248
0.180619
0.176986
0.180581
0.178101
0.178345
0.180072
0.18401
0.187784
0.193479
0.19869
0.206899
0.215248
0.227647
0.242469
0.261969
0.288364
0.31973
0.363224
0.417603
0.487395
0.580467
0.712722
0.881288
1.13733
1.47642
1.83046
1.98408
1.91169
1.71842
1.2986
1.22199
1.23921
1.2293
1.1833
0.177257
0.177925
0.178455
0.179351
0.180141
0.181067
0.182204
0.183216
0.184424
0.185633
0.186733
0.188275
0.188986
0.190486
0.191748
0.192795
0.193443
0.194362
0.195384
0.19606
0.197421
0.199311
0.199955
0.202366
0.203531
0.204893
0.206005
0.204866
0.20491
0.205229
0.207066
0.210121
0.212344
0.214072
0.216112
0.217455
0.220399
0.223396
0.227422
0.233383
0.241125
0.25044
0.260569
0.27358
0.288652
0.310054
0.335753
0.371086
0.414391
0.469611
0.540955
0.62236
0.737327
0.878155
1.04248
1.30027
1.62686
1.95411
2.17592
2.19488
2.06848
1.59756
1.07445
0.988785
0.979936
1.03238
1.07118
1.07668
1.03694
0.227539
0.228086
0.228626
0.229301
0.229924
0.23073
0.231436
0.232408
0.233121
0.234246
0.234931
0.236182
0.236784
0.238048
0.238701
0.240007
0.240542
0.241958
0.242547
0.244086
0.244753
0.246509
0.24729
0.249166
0.250364
0.252279
0.254392
0.256508
0.259748
0.262412
0.267441
0.270408
0.27766
0.286285
0.294603
0.302899
0.311988
0.323277
0.337981
0.357171
0.381722
0.413142
0.452583
0.502007
0.562137
0.635674
0.721826
0.82643
0.947903
1.0941
1.2661
1.45212
1.76611
2.04353
2.34305
2.51489
2.53471
2.46614
2.0315
1.3359
1.02458
0.861516
0.786933
0.799283
0.859345
0.920296
0.952265
0.959847
0.934395
0.347799
0.349081
0.350494
0.351854
0.353248
0.354759
0.356182
0.3579
0.359428
0.361327
0.363046
0.365171
0.367121
0.369541
0.371691
0.374441
0.376965
0.380044
0.382963
0.386505
0.389957
0.394046
0.398347
0.403125
0.408858
0.416197
0.424914
0.43568
0.448566
0.464599
0.484391
0.508415
0.536957
0.570646
0.610385
0.65697
0.711543
0.775217
0.849353
0.934809
1.03346
1.14691
1.27635
1.42319
1.58725
1.76984
1.96955
2.19585
2.42959
2.69424
2.9023
3.19302
3.06038
2.96448
2.84934
2.35617
1.58513
1.33717
1.06434
0.888614
0.817101
0.77692
0.77165
0.809033
0.855397
0.902616
0.935768
0.951494
0.945784
1.30116
1.31168
1.3224
1.33328
1.34431
1.35561
1.36724
1.37916
1.39145
1.40399
1.41717
1.43068
1.44473
1.45945
1.47455
1.4905
1.50697
1.52446
1.54249
1.56198
1.58189
1.6078
1.63957
1.67839
1.72267
1.77432
1.83137
1.89649
1.96799
2.04734
2.1344
2.22943
2.33434
2.44822
2.57368
2.70854
2.85561
3.01441
3.18575
3.37254
3.5777
3.79519
4.02085
4.24717
4.46429
4.6602
4.81976
4.93484
4.90767
4.84248
4.18636
3.45956
2.35427
1.84921
1.63311
1.58403
1.62206
1.71126
1.73302
1.63298
1.50163
1.3215
1.20637
1.20474
1.19938
1.20879
1.21988
1.22565
1.20334
8.48654
8.48408
8.48094
8.47712
8.47257
8.46734
8.46137
8.45471
8.44728
8.43912
8.43017
8.4205
8.40999
8.39874
8.38665
8.37373
8.36002
8.34539
8.33
8.31364
8.2966
8.27838
8.25847
8.23761
8.21418
8.19036
8.16305
8.13539
8.10439
8.07065
8.03317
7.99234
7.95476
7.89677
7.85476
7.78148
7.72943
7.66612
7.59514
7.51413
7.4211
7.31317
7.18839
7.03871
6.88262
6.73453
6.62444
6.57135
6.53787
6.50935
6.47511
6.43874
6.39889
6.35553
6.31794
6.28395
6.25213
6.22187
6.19565
6.17501
6.1589
6.14754
6.1428
6.14765
6.15778
6.16846
6.17495
6.17618
6.1682
0.0281185
0.0281203
0.0281238
0.0281243
0.0281227
0.0281386
0.0281454
0.0281536
0.028159
0.0281297
0.028112
0.0281231
0.0281685
0.0282189
0.0282489
0.0282424
0.0282616
0.0282796
0.0283201
0.0283441
0.028371
0.0283747
0.0284054
0.0284225
0.0284504
0.0284604
0.0284952
0.0285171
0.0285721
0.0285885
0.0285947
0.0286315
0.0286845
0.0286904
0.0287014
0.0287143
0.0287737
0.0287996
0.0287912
0.0288439
0.0288404
0.0288472
0.02884
0.0288399
0.0288774
0.0288876
0.0289072
0.0288821
0.0288458
0.0288257
0.0288156
0.0288235
0.0288346
0.028848
0.0288705
0.0288842
0.0289153
0.0289393
0.0289531
0.0283664
0.0283654
0.0283484
0.0283521
0.0283578
0.0283845
0.0283728
0.0283636
0.0283407
0.0283298
0.0283572
0.0283919
0.0284192
0.0284351
0.0284394
0.0284328
0.0284758
0.0285007
0.0285311
0.0285545
0.0285715
0.0285849
0.0286164
0.0286425
0.0286635
0.0286767
0.0287183
0.0287453
0.0287974
0.0288217
0.028826
0.0288704
0.0289161
0.0289403
0.0289706
0.0289757
0.0290164
0.0290602
0.0290603
0.0291036
0.0291195
0.0291448
0.0291287
0.0291146
0.0291186
0.0291529
0.0291872
0.0292122
0.0292208
0.029211
0.0291685
0.0291712
0.029158
0.0291714
0.0291786
0.0292095
0.0292184
0.0292093
0.0292129
0.0286861
0.028682
0.0287046
0.0286893
0.0286974
0.0286782
0.0286548
0.0286341
0.0286212
0.0286213
0.0286636
0.0286763
0.0286947
0.0286954
0.0286942
0.0287281
0.0287594
0.028783
0.0288063
0.0288277
0.0288457
0.0288656
0.028897
0.0289223
0.0289379
0.0289555
0.0289982
0.0290319
0.0290822
0.029103
0.0291366
0.0291592
0.029223
0.0292375
0.0292551
0.0292817
0.0293293
0.0293938
0.0294007
0.0294079
0.0294487
0.0294821
0.0295113
0.0295399
0.0295315
0.0295273
0.0295273
0.0295572
0.0295693
0.0295821
0.0295975
0.0295889
0.02959
0.0295875
0.0295931
0.0296015
0.029611
0.0296215
0.0296432
0.0290979
0.0290759
0.0290577
0.0290333
0.029012
0.0289906
0.0289663
0.028942
0.0289334
0.0289626
0.0289745
0.0289967
0.0289957
0.0290059
0.0290178
0.029049
0.0290711
0.029093
0.029114
0.0291369
0.0291596
0.0291856
0.0292166
0.0292412
0.0292584
0.0292834
0.0293291
0.0293699
0.0294193
0.0294533
0.0294715
0.0295158
0.029572
0.0296164
0.0296513
0.0296506
0.0296766
0.0297537
0.0297934
0.0298384
0.029849
0.0298735
0.029884
0.0299009
0.0299369
0.0299731
0.0299961
0.0300213
0.0300483
0.0300638
0.0300783
0.0300834
0.0301108
0.0301143
0.0301135
0.0301156
0.0301122
0.0301099
0.0301347
0.0295498
0.0295194
0.0294899
0.0294584
0.0294242
0.0293879
0.0293596
0.0293452
0.0293684
0.0293738
0.0293843
0.029379
0.0293908
0.0294124
0.0294324
0.0294456
0.0294728
0.0294884
0.0295128
0.0295353
0.0295612
0.0295895
0.0296183
0.0296412
0.0296567
0.0296865
0.0297331
0.0297796
0.0298321
0.0298607
0.0299169
0.029929
0.0300053
0.0300376
0.0300712
0.0301149
0.0301428
0.030221
0.0302354
0.0302816
0.0303366
0.0303715
0.0304206
0.0304573
0.0304634
0.0304557
0.0304639
0.0304862
0.030536
0.0305747
0.0306225
0.0306644
0.030693
0.0307454
0.0307659
0.0308078
0.0308117
0.0308154
0.0307859
0.0298984
0.0298683
0.0298427
0.0298114
0.0297886
0.0297869
0.0297906
0.0298071
0.0298122
0.0298197
0.0298296
0.0298465
0.0298509
0.0298581
0.0298667
0.0298944
0.029908
0.0299335
0.0299558
0.0299827
0.0300117
0.0300426
0.0300721
0.0300968
0.0301186
0.0301555
0.0302055
0.0302585
0.0303129
0.0303579
0.0303882
0.0304431
0.0305003
0.0305787
0.030617
0.030623
0.030638
0.0307302
0.0308147
0.0308547
0.0308947
0.0309029
0.0309419
0.0310157
0.0310655
0.0311241
0.0311532
0.0311543
0.0311507
0.0311744
0.0311892
0.0312233
0.0312412
0.0312713
0.031303
0.0313442
0.0313852
0.03142
0.0314499
0.03053
0.0305154
0.0305046
0.0304889
0.0304726
0.0304703
0.0304554
0.0304488
0.0304416
0.0304283
0.0304227
0.030419
0.0304152
0.0304114
0.0304447
0.0304567
0.0304767
0.0305
0.0305223
0.030551
0.0305809
0.030612
0.030641
0.0306637
0.0306853
0.0307276
0.0307792
0.0308392
0.0309006
0.0309392
0.0310172
0.0310244
0.0311112
0.0311617
0.0312382
0.031298
0.0313183
0.0313533
0.0314123
0.0314882
0.0315704
0.0316341
0.0316615
0.0316947
0.0317431
0.0317713
0.0318514
0.03188
0.0319199
0.0319526
0.0319979
0.0320355
0.0320894
0.0321305
0.0321571
0.0322148
0.0322488
0.0322726
0.0323333
0.0313025
0.0312771
0.031249
0.031219
0.0311906
0.0311666
0.0311367
0.0311153
0.0310951
0.0310781
0.0310691
0.0310634
0.0310595
0.0310576
0.0310681
0.0310847
0.0311031
0.0311302
0.0311575
0.0311897
0.0312235
0.0312577
0.0312902
0.0313152
0.0313462
0.0313957
0.031451
0.0315176
0.0315829
0.0316404
0.0316874
0.0317626
0.0318113
0.0319197
0.0319685
0.0320193
0.0320443
0.0321179
0.032222
0.032278
0.0323223
0.0324091
0.0324524
0.0325215
0.0325753
0.0326574
0.032744
0.0327978
0.0327768
0.0327613
0.0327617
0.0327666
0.0327983
0.0328535
0.0329034
0.0329685
0.033019
0.0330601
0.0330954
0.0321962
0.0321614
0.0321246
0.0320864
0.0320511
0.0320185
0.0319865
0.0319629
0.031942
0.0319274
0.0319166
0.0319073
0.0318982
0.0318912
0.0318926
0.0318928
0.0319076
0.0319348
0.0319627
0.0319952
0.0320295
0.0320641
0.0320954
0.0321182
0.0321519
0.0322061
0.0322674
0.0323437
0.0324189
0.0324709
0.0325692
0.0325848
0.0326852
0.0327419
0.0328653
0.032958
0.0330001
0.0330021
0.0330483
0.033183
0.0333017
0.0333941
0.0334963
0.0335024
0.0335046
0.033558
0.0336858
0.0337916
0.0338499
0.0338837
0.0339463
0.0339902
0.0340092
0.0340463
0.034067
0.0340941
0.0341098
0.0341447
0.0341831
0.0331794
0.0331367
0.0330939
0.0330492
0.0330091
0.0329723
0.0329386
0.0329116
0.0328865
0.0328664
0.0328465
0.0328283
0.0328117
0.0328
0.0327951
0.0327879
0.0328133
0.0328354
0.0328704
0.032909
0.0329495
0.0329902
0.0330251
0.0330525
0.0330967
0.033157
0.0332234
0.0333068
0.0333883
0.0334609
0.0335354
0.0336288
0.0336785
0.0338191
0.0338673
0.0339618
0.0340655
0.0341659
0.0342045
0.0342196
0.0343053
0.0344271
0.0346126
0.0347436
0.0348439
0.0348447
0.0348966
0.0349288
0.0349943
0.0350632
0.0351233
0.0351823
0.0352385
0.0352864
0.0353417
0.0353932
0.0354484
0.035478
0.0355246
0.0343863
0.034341
0.0342977
0.0342507
0.03421
0.0341711
0.0341351
0.0341033
0.0340721
0.0340446
0.0340173
0.0339943
0.0339757
0.0339645
0.0339594
0.033952
0.0339668
0.0339903
0.0340238
0.0340604
0.0340997
0.0341367
0.0341684
0.0341957
0.0342452
0.0343146
0.0343927
0.0344895
0.0345821
0.0346523
0.0347681
0.034822
0.0349213
0.034985
0.0351752
0.0352568
0.0353473
0.035407
0.0355342
0.0356535
0.0357
0.0357308
0.0358135
0.0359644
0.0361549
0.0362655
0.0363386
0.0364176
0.0364458
0.0364886
0.0365422
0.0365869
0.0366482
0.0366796
0.0367357
0.0368058
0.0368762
0.0369581
0.0370381
0.0357583
0.0357046
0.0356545
0.0355988
0.0355501
0.0355022
0.0354569
0.0354154
0.0353752
0.0353404
0.0353083
0.0352843
0.0352666
0.0352575
0.035252
0.0352436
0.035263
0.0352933
0.0353358
0.0353835
0.03543
0.0354733
0.0355099
0.0355458
0.0356052
0.0356795
0.0357624
0.0358682
0.035973
0.036067
0.0361781
0.0362873
0.0363752
0.0365295
0.0365657
0.0367558
0.0368804
0.0370247
0.0370661
0.0371632
0.0373703
0.0374791
0.0375196
0.0375651
0.0376913
0.037803
0.0379567
0.0380754
0.0382148
0.0383093
0.0383948
0.0384747
0.0385148
0.0385837
0.0386461
0.0387186
0.0387513
0.0388849
0.0389298
0.0374646
0.0374044
0.0373499
0.0372878
0.037235
0.0371825
0.0371344
0.0370913
0.0370516
0.0370195
0.0369921
0.0369738
0.0369607
0.036954
0.0369483
0.0369423
0.0369357
0.0369585
0.036999
0.0370383
0.0370796
0.0371172
0.0371516
0.0371916
0.0372627
0.0373543
0.0374573
0.0375798
0.0376941
0.037786
0.037925
0.0380392
0.038116
0.0382428
0.0384673
0.0385304
0.0386755
0.0388232
0.0390046
0.0390757
0.0391459
0.0393181
0.0395148
0.0396504
0.0397598
0.0398446
0.0399356
0.0400301
0.0401537
0.0402959
0.0404441
0.0406047
0.0407242
0.0408303
0.0409326
0.0410252
0.041102
0.0411828
0.0412477
0.0394445
0.0393765
0.0393164
0.0392471
0.0391898
0.0391326
0.0390815
0.0390359
0.0389948
0.0389617
0.038933
0.0389126
0.0388959
0.0388852
0.0388766
0.0388727
0.0388747
0.0388921
0.0389265
0.0389792
0.0390276
0.039071
0.0391145
0.0391688
0.0392478
0.0393398
0.0394459
0.0395849
0.0397236
0.0398495
0.0399988
0.0401446
0.0403161
0.0404149
0.0405255
0.0407712
0.0409663
0.0410433
0.0412623
0.0414386
0.0416112
0.0416497
0.0417551
0.041939
0.0421043
0.0422465
0.0424158
0.042514
0.0426896
0.0428245
0.0429738
0.043089
0.043169
0.043236
0.0432583
0.0433194
0.0433547
0.0434411
0.0435163
0.0420173
0.0419403
0.0418739
0.0417966
0.0417343
0.0416719
0.041617
0.0415682
0.0415238
0.0414876
0.0414546
0.0414289
0.0414052
0.0413866
0.0413692
0.0413573
0.0413512
0.0413575
0.0413684
0.0413899
0.0414275
0.0414672
0.0415152
0.0415812
0.0416803
0.0418042
0.0419426
0.0420962
0.0422367
0.0423554
0.0425306
0.042699
0.042787
0.0430299
0.0432347
0.0433206
0.0435313
0.0438113
0.0439108
0.0441145
0.0444101
0.0446476
0.0447122
0.0448279
0.0449424
0.0451002
0.0452649
0.0454251
0.0455361
0.0456674
0.045786
0.0459227
0.0460606
0.0462173
0.0463867
0.0465237
0.0466384
0.0467595
0.0468725
0.0450052
0.0449153
0.0448396
0.0447492
0.044677
0.0446025
0.0445366
0.0444756
0.0444187
0.0443694
0.0443226
0.0442839
0.0442484
0.0442221
0.044203
0.0441968
0.0442018
0.0442092
0.0442405
0.0442815
0.0443287
0.0443812
0.0444453
0.0445283
0.044635
0.0447483
0.0448866
0.045079
0.0452678
0.0454391
0.0456245
0.0458451
0.0461054
0.0461255
0.0463981
0.0466907
0.0468496
0.0470075
0.0473227
0.0475159
0.0476027
0.0479691
0.0482732
0.0484759
0.0486333
0.0487123
0.0488424
0.0489706
0.0491352
0.049324
0.0495739
0.0498399
0.050115
0.0502004
0.0501494
0.0501828
0.0502215
0.0503479
0.0504717
0.0488373
0.0487292
0.0486395
0.0485318
0.0484461
0.0483573
0.0482786
0.0482052
0.0481365
0.0480761
0.0480185
0.0479703
0.0479253
0.0478901
0.0478594
0.0478398
0.0478298
0.0478311
0.0478376
0.0478645
0.0479065
0.0479637
0.0480434
0.0481517
0.0482885
0.0484552
0.0486429
0.0488305
0.0490048
0.0491646
0.0493892
0.0495899
0.049788
0.0501854
0.0502627
0.0505604
0.0508752
0.0511464
0.0512693
0.0516089
0.0518795
0.0520167
0.0523059
0.0526304
0.0529105
0.0531988
0.0534046
0.0536782
0.0538571
0.0540952
0.0542429
0.0544623
0.054567
0.0547309
0.0548027
0.0549906
0.0551076
0.0553284
0.0555154
0.0533158
0.0531786
0.0530658
0.0529298
0.0528215
0.0527078
0.0526075
0.0525127
0.0524248
0.0523475
0.0522763
0.0522192
0.0521718
0.0521437
0.052134
0.0521474
0.0521647
0.0521924
0.0522306
0.0522832
0.0523504
0.0524327
0.0525342
0.0526558
0.0527912
0.0529344
0.0531172
0.0534005
0.0536613