/*--------------------------------*- C++ -*----------------------------------*\
| =========                 |                                                 |
| \\      /  F ield         | OpenFOAM: The Open Source CFD Toolbox           |
|  \\    /   O peration     | Version:  2312                                  |
|   \\  /    A nd           | Website:  www.openfoam.com                      |
|    \\/     M anipulation  |                                                 |
\*---------------------------------------------------------------------------*/
FoamFile
{
    version     2.0;
    format      ascii;
    arch        "LSB;label=32;scalar=64";
    class       volScalarField;
    location    "500";
    object      p;
}
// * * * * * * * * * * * * * * * * * * * * * * * * * * * * * * * * * * * * * //

dimensions      [0 2 -2 0 0 0 0];

internalField   nonuniform List<scalar> 
76025
(
0.00015741
0.000148165
0.000138665
0.000129119
0.000119645
0.000110058
0.000100106
9.05502e-05
8.06963e-05
7.10413e-05
6.12886e-05
5.1447e-05
4.15076e-05
3.16057e-05
2.16201e-05
1.16458e-05
1.87969e-06
-8.01246e-06
-1.79028e-05
-2.75791e-05
-3.71663e-05
-4.69225e-05
-5.65246e-05
-6.59487e-05
-7.53687e-05
-8.46051e-05
-9.3993e-05
-0.000103357
-0.000112168
-0.000121275
-0.000129705
-0.000138277
-0.000147128
-0.000155882
-0.000164282
-0.000172357
-0.000180073
-0.00018829
-0.000196324
-0.000204186
-0.000211569
-0.000218732
-0.000226481
-0.000234056
-0.000241159
-0.000247898
-0.00025485
-0.000262055
-0.000268527
-0.000275054
-0.000281661
-0.000287897
-0.000294423
-0.000301386
-0.000308211
-0.000314084
-0.000320934
-0.000327427
-0.000334173
-0.000341055
-0.000347768
-0.000355309
-0.000363853
-0.0003727
-0.000381864
-0.00039161
-0.000402635
-0.000416383
-0.000432371
0.000153049
0.000143298
0.000133436
0.000123473
0.000113451
0.000103356
9.32558e-05
8.31422e-05
7.2946e-05
6.27199e-05
5.24252e-05
4.21067e-05
3.17775e-05
2.14507e-05
1.11797e-05
9.57091e-07
-9.30037e-06
-1.94709e-05
-2.96665e-05
-3.9708e-05
-4.97661e-05
-5.97176e-05
-6.95857e-05
-7.93464e-05
-8.90708e-05
-9.87433e-05
-0.000108319
-0.000117668
-0.000126846
-0.000135924
-0.000144883
-0.000153954
-0.000162855
-0.000171499
-0.000180015
-0.000188351
-0.000196618
-0.000204806
-0.000212867
-0.00022083
-0.000228536
-0.000236155
-0.00024369
-0.000251024
-0.000258201
-0.000265253
-0.000272294
-0.000279264
-0.000286064
-0.000292848
-0.000299625
-0.000306281
-0.000312994
-0.000319801
-0.000326517
-0.000333135
-0.000340053
-0.000346965
-0.000353906
-0.000360969
-0.000368453
-0.000376614
-0.000385182
-0.000394311
-0.000404091
-0.000414883
-0.000426918
-0.000440847
-0.000456172
0.000148679
0.000138485
0.00012816
0.000117716
0.00010721
9.67103e-05
8.61865e-05
7.56005e-05
6.49587e-05
5.42601e-05
4.35331e-05
3.28077e-05
2.2094e-05
1.14061e-05
7.63098e-07
-9.86968e-06
-2.04735e-05
-3.10321e-05
-4.1533e-05
-5.1973e-05
-6.23359e-05
-7.26009e-05
-8.27825e-05
-9.28766e-05
-0.000102881
-0.000112784
-0.000122531
-0.000132129
-0.000141603
-0.000150952
-0.000160218
-0.000169377
-0.000178347
-0.000187151
-0.000195832
-0.000204379
-0.000212793
-0.000221065
-0.000229225
-0.000237255
-0.000245112
-0.000252819
-0.000260404
-0.000267887
-0.000275253
-0.000282492
-0.000289635
-0.000296712
-0.000303706
-0.000310623
-0.000317499
-0.000324333
-0.000331174
-0.000338071
-0.000345002
-0.000351938
-0.000358975
-0.00036613
-0.000373416
-0.000380941
-0.000388838
-0.000397242
-0.000406181
-0.000415802
-0.000426221
-0.000437665
-0.00045032
-0.000464928
-0.000480695
0.000144085
0.000133415
0.000122604
0.000111677
0.000100708
8.97324e-05
7.87257e-05
6.76672e-05
5.6564e-05
4.54298e-05
3.42834e-05
2.31397e-05
1.20086e-05
8.9814e-07
-1.01827e-05
-2.12293e-05
-3.22296e-05
-4.3173e-05
-5.40479e-05
-6.48458e-05
-7.55548e-05
-8.61695e-05
-9.66841e-05
-0.000107089
-0.000117373
-0.00012753
-0.000137552
-0.000147438
-0.000157183
-0.000166787
-0.00017625
-0.000185564
-0.000194727
-0.000203741
-0.000212614
-0.000221343
-0.000229921
-0.000238347
-0.000246627
-0.000254759
-0.000262737
-0.000270571
-0.000278278
-0.000285864
-0.000293317
-0.000300644
-0.000307873
-0.00031503
-0.00032212
-0.000329151
-0.000336155
-0.000343148
-0.000350151
-0.000357194
-0.000364286
-0.000371429
-0.000378674
-0.000386072
-0.000393656
-0.000401502
-0.00040972
-0.000418433
-0.000427729
-0.000437733
-0.000448597
-0.000460564
-0.000473801
-0.000488981
-0.000505199
0.000138872
0.000127694
0.000116374
0.00010494
9.34671e-05
8.19878e-05
7.04836e-05
5.89362e-05
4.73499e-05
3.57418e-05
2.41291e-05
1.25244e-05
9.38175e-07
-1.06205e-05
-2.2141e-05
-3.36117e-05
-4.50229e-05
-5.63635e-05
-6.76234e-05
-7.87918e-05
-8.98595e-05
-0.000100818
-0.000111657
-0.000122368
-0.000132946
-0.000143384
-0.000153677
-0.000163818
-0.000173799
-0.00018362
-0.000193281
-0.000202783
-0.000212127
-0.00022131
-0.000230332
-0.000239194
-0.000247892
-0.000256421
-0.000264786
-0.000272995
-0.000281054
-0.000288972
-0.000296756
-0.000304408
-0.000311934
-0.000319347
-0.000326668
-0.000333917
-0.00034111
-0.000348261
-0.000355391
-0.000362517
-0.000369658
-0.00037684
-0.000384084
-0.00039141
-0.000398854
-0.000406467
-0.000414294
-0.000422408
-0.000430902
-0.000439884
-0.000449463
-0.000459777
-0.000470992
-0.000483364
-0.000497062
-0.000512766
-0.000529819
0.000132983
0.000121266
0.000109407
9.7434e-05
8.54259e-05
7.34187e-05
6.13945e-05
4.9334e-05
3.7241e-05
2.51334e-05
1.30298e-05
9.44059e-07
-1.11128e-05
-2.31302e-05
-3.50968e-05
-4.70007e-05
-5.88309e-05
-7.05759e-05
-8.22249e-05
-9.37671e-05
-0.000105192
-0.000116491
-0.000127654
-0.000138673
-0.000149542
-0.000160254
-0.000170802
-0.000181179
-0.000191382
-0.000201409
-0.000211261
-0.000220937
-0.000230438
-0.000239762
-0.000248912
-0.00025789
-0.000266691
-0.000275312
-0.00028376
-0.000292046
-0.000300179
-0.000308168
-0.000316021
-0.00032374
-0.000331336
-0.000338822
-0.000346218
-0.000353545
-0.000360823
-0.000368067
-0.000375298
-0.000382535
-0.000389798
-0.000397111
-0.000404498
-0.000411984
-0.000419605
-0.000427405
-0.000435437
-0.000443765
-0.000452475
-0.000461666
-0.000471454
-0.000481983
-0.000493424
-0.000506045
-0.000520034
-0.000536095
-0.000553692
0.000126394
0.000114106
0.000101678
8.91367e-05
7.65658e-05
6.40042e-05
5.14335e-05
3.88339e-05
2.62098e-05
1.35803e-05
9.65447e-07
-1.16197e-05
-2.41637e-05
-3.66554e-05
-4.90829e-05
-6.14337e-05
-7.36953e-05
-8.58557e-05
-9.79032e-05
-0.000109827
-0.000121616
-0.000133261
-0.000144752
-0.000156081
-0.000167239
-0.00017822
-0.000189018
-0.000199627
-0.000210045
-0.000220269
-0.000230299
-0.000240135
-0.000249779
-0.000259231
-0.000268497
-0.000277578
-0.000286468
-0.000295166
-0.000303679
-0.000312019
-0.0003202
-0.000328234
-0.000336128
-0.000343888
-0.000351527
-0.000359059
-0.000366507
-0.000373892
-0.000381236
-0.000388557
-0.000395874
-0.000403209
-0.00041058
-0.00041801
-0.000425524
-0.00043315
-0.000440922
-0.000448879
-0.000457074
-0.000465565
-0.00047443
-0.000483761
-0.00049367
-0.000504301
-0.000515827
-0.000528519
-0.00054258
-0.000558733
-0.000576471
0.000119003
0.000106111
9.30814e-05
7.99409e-05
6.67767e-05
5.36306e-05
4.04839e-05
2.73164e-05
1.41331e-05
9.54565e-07
-1.21975e-05
-2.53069e-05
-3.83611e-05
-5.13482e-05
-6.42559e-05
-7.70707e-05
-8.97791e-05
-0.000102368
-0.000114826
-0.00012714
-0.0001393
-0.000151295
-0.000163115
-0.00017475
-0.000186194
-0.000197439
-0.000208479
-0.000219309
-0.000229927
-0.000240331
-0.000250521
-0.000260498
-0.000270264
-0.000279823
-0.00028918
-0.000298337
-0.000307287
-0.00031603
-0.000324576
-0.000332941
-0.000341141
-0.000349191
-0.0003571
-0.000364878
-0.000372538
-0.000380097
-0.000387578
-0.000395005
-0.000402399
-0.00040978
-0.000417167
-0.000424581
-0.000432043
-0.000439573
-0.000447197
-0.000454941
-0.000462836
-0.00047092
-0.000479237
-0.000487842
-0.000496799
-0.000506194
-0.000516128
-0.000526738
-0.000538192
-0.000550751
-0.000564629
-0.000580517
-0.000598212
0.000110683
9.71514e-05
8.34853e-05
6.97108e-05
5.59193e-05
4.21553e-05
2.84007e-05
1.46343e-05
8.61508e-07
-1.2895e-05
-2.66119e-05
-4.02713e-05
-5.38597e-05
-6.73645e-05
-8.07722e-05
-9.40683e-05
-0.000107238
-0.000120268
-0.000133145
-0.000145855
-0.000158389
-0.000170733
-0.000182879
-0.000194816
-0.000206536
-0.000218033
-0.000229301
-0.000240336
-0.000251135
-0.000261697
-0.000272023
-0.000282115
-0.000291978
-0.000301616
-0.000311036
-0.000320237
-0.000329214
-0.000337971
-0.00034652
-0.000354881
-0.000363071
-0.000371109
-0.000379007
-0.000386776
-0.000394431
-0.000401993
-0.000409484
-0.000416929
-0.000424351
-0.00043177
-0.000439207
-0.000446682
-0.000454215
-0.000461827
-0.000469541
-0.000477381
-0.000485376
-0.000493556
-0.000501959
-0.000510629
-0.00051962
-0.000529
-0.000538859
-0.000549319
-0.00056053
-0.000572741
-0.000586159
-0.000601395
-0.000618206
0.000101311
8.71006e-05
7.27594e-05
5.83134e-05
4.38577e-05
2.94407e-05
1.5044e-05
6.45926e-07
-1.37475e-05
-2.81119e-05
-4.24219e-05
-5.66578e-05
-7.0805e-05
-8.48496e-05
-9.87771e-05
-0.000112572
-0.000126217
-0.000139699
-0.000153004
-0.000166116
-0.000179025
-0.000191719
-0.000204186
-0.000216417
-0.000228404
-0.00024014
-0.00025162
-0.000262839
-0.000273797
-0.000284494
-0.00029493
-0.00030511
-0.000315039
-0.000324724
-0.000334173
-0.000343383
-0.000352351
-0.000361085
-0.000369601
-0.000377921
-0.000386066
-0.000394057
-0.000401909
-0.000409636
-0.000417255
-0.000424788
-0.000432261
-0.000439698
-0.000447122
-0.000454557
-0.000462022
-0.000469538
-0.000477124
-0.0004848
-0.000492586
-0.000500504
-0.000508577
-0.000516829
-0.000525287
-0.000533982
-0.000542953
-0.000552248
-0.000561933
-0.000572106
-0.000582889
-0.000594509
-0.000607162
-0.000621488
-0.000637397
9.07467e-05
7.58139e-05
6.07558e-05
4.55976e-05
3.04384e-05
1.53302e-05
2.55012e-07
-1.48097e-05
-2.9857e-05
-4.4861e-05
-5.97937e-05
-7.46339e-05
-8.93652e-05
-0.000103973
-0.00011844
-0.000132751
-0.000146888
-0.000160835
-0.000174576
-0.000188096
-0.000201384
-0.000214425
-0.000227209
-0.000239725
-0.000251967
-0.000263926
-0.000275598
-0.00028698
-0.000298072
-0.000308873
-0.000319387
-0.00032962
-0.000339579
-0.000349273
-0.000358709
-0.000367884
-0.000376798
-0.000385464
-0.000393901
-0.000402136
-0.000410192
-0.000418094
-0.00042586
-0.000433506
-0.000441053
-0.000448524
-0.000455946
-0.000463346
-0.000470747
-0.000478172
-0.000485643
-0.000493179
-0.0005008
-0.000508523
-0.000516367
-0.000524349
-0.000532486
-0.000540793
-0.000549285
-0.000557978
-0.000566889
-0.00057604
-0.000585464
-0.000595219
-0.000605382
-0.000616129
-0.000627628
-0.000640522
-0.000654803
7.88211e-05
6.31189e-05
4.72979e-05
3.13826e-05
1.54765e-05
-3.64921e-07
-1.6159e-05
-3.19288e-05
-4.76666e-05
-6.33445e-05
-7.89321e-05
-9.4406e-05
-0.000109748
-0.000124943
-0.000139972
-0.000154817
-0.00016946
-0.000183882
-0.000198067
-0.000212
-0.000225665
-0.00023905
-0.000252143
-0.000264934
-0.000277414
-0.000289576
-0.000301417
-0.000312933
-0.000324125
-0.000334995
-0.000345549
-0.000355792
-0.000365736
-0.000375391
-0.000384762
-0.000393848
-0.000402654
-0.000411198
-0.000419504
-0.000427601
-0.000435518
-0.000443283
-0.000450916
-0.000458438
-0.000465871
-0.000473242
-0.000480578
-0.000487907
-0.000495254
-0.000502644
-0.000510097
-0.000517634
-0.000525272
-0.00053303
-0.000540922
-0.000548961
-0.000557157
-0.000565516
-0.000574038
-0.000582719
-0.000591552
-0.000600524
-0.000609624
-0.000618853
-0.000628224
-0.000637819
-0.000647734
-0.000658359
-0.000669996
6.5339e-05
4.88159e-05
3.21814e-05
1.546e-05
-1.24095e-06
-1.78613e-05
-3.4418e-05
-5.09346e-05
-6.74027e-05
-8.3792e-05
-0.000100069
-0.000116209
-0.000132191
-0.000147998
-0.00016361
-0.000179008
-0.000194171
-0.00020908
-0.000223716
-0.000238062
-0.000252103
-0.000265826
-0.000279216
-0.000292264
-0.00030496
-0.0003173
-0.000329277
-0.000340892
-0.000352145
-0.00036304
-0.000373584
-0.000383787
-0.00039366
-0.000403218
-0.000412463
-0.000421396
-0.000430031
-0.000438388
-0.0004465
-0.000454399
-0.000462118
-0.000469689
-0.000477136
-0.000484482
-0.000491754
-0.00049898
-0.000506189
-0.000513412
-0.000520673
-0.000527998
-0.00053541
-0.000542928
-0.000550571
-0.000558354
-0.00056629
-0.000574389
-0.000582652
-0.000591075
-0.000599644
-0.000608332
-0.000617101
-0.000625897
-0.000634651
-0.000643292
-0.000651745
-0.000659969
-0.000667939
-0.000675605
-0.000682976
5.00693e-05
3.26694e-05
1.51671e-05
-2.41364e-06
-1.99606e-05
-3.74091e-05
-5.47754e-05
-7.20837e-05
-8.9325e-05
-0.000106466
-0.000123471
-0.000140311
-0.000156964
-0.00017341
-0.000189629
-0.000205599
-0.000221297
-0.000236702
-0.000251793
-0.000266553
-0.000280965
-0.000295014
-0.000308685
-0.000321968
-0.000334854
-0.000347337
-0.000359413
-0.000371082
-0.000382346
-0.000393212
-0.000403688
-0.000413787
-0.000423524
-0.000432912
-0.000441956
-0.000450661
-0.000459046
-0.000467142
-0.000474985
-0.000482614
-0.000490066
-0.000497377
-0.000504575
-0.000511688
-0.000518744
-0.000525776
-0.000532814
-0.000539889
-0.000547029
-0.000554261
-0.000561606
-0.000569087
-0.000576722
-0.000584526
-0.00059251
-0.000600681
-0.000609033
-0.000617555
-0.000626214
-0.000634964
-0.000643729
-0.000652406
-0.000660863
-0.000668935
-0.000676425
-0.000683125
-0.000688884
-0.000693501
-0.000697594
3.27452e-05
1.44073e-05
-4.02252e-06
-2.25206e-05
-4.09698e-05
-5.93005e-05
-7.75281e-05
-9.56776e-05
-0.000113739
-0.000131675
-0.000149449
-0.000167026
-0.000184384
-0.000201499
-0.00021835
-0.000234912
-0.00025116
-0.000267071
-0.000282622
-0.000297795
-0.000312569
-0.000326929
-0.000340861
-0.000354352
-0.000367393
-0.000379979
-0.000392106
-0.000403775
-0.00041499
-0.00042576
-0.000436096
-0.000446014
-0.000455533
-0.000464666
-0.000473416
-0.0004818
-0.000489845
-0.000497589
-0.000505074
-0.000512346
-0.00051945
-0.000526422
-0.000533298
-0.000540109
-0.000546887
-0.000553667
-0.000560483
-0.000567366
-0.000574346
-0.000581451
-0.000588704
-0.00059613
-0.000603746
-0.000611569
-0.000619612
-0.000627877
-0.000636358
-0.000645033
-0.000653861
-0.000662769
-0.00067165
-0.000680353
-0.000688669
-0.000696321
-0.000702962
-0.000708149
-0.00071149
-0.000712063
-0.000711186
1.30593e-05
-6.28338e-06
-2.57061e-05
-4.51852e-05
-6.45985e-05
-8.38707e-05
-0.000103016
-0.000122061
-0.000140993
-0.000159774
-0.000178361
-0.000196717
-0.000214815
-0.000232631
-0.00025014
-0.000267315
-0.000284128
-0.000300554
-0.000316569
-0.000332149
-0.000347274
-0.000361927
-0.000376092
-0.000389756
-0.000402909
-0.000415546
-0.000427665
-0.000439266
-0.000450358
-0.00046095
-0.000471057
-0.0004807
-0.0004899
-0.000498667
-0.000507015
-0.000514966
-0.00052256
-0.000529842
-0.000536865
-0.00054368
-0.000550338
-0.000556883
-0.000563353
-0.000569784
-0.000576213
-0.000582678
-0.000589214
-0.000595856
-0.000602633
-0.000609576
-0.00061671
-0.00062406
-0.000631647
-0.000639492
-0.000647608
-0.000656001
-0.000664665
-0.000673576
-0.000682683
-0.000691901
-0.000701099
-0.000710077
-0.000718553
-0.000726139
-0.000732334
-0.000736416
-0.000737631
-0.000734176
-0.000726271
-9.35269e-06
-2.97741e-05
-5.02622e-05
-7.07934e-05
-9.12396e-05
-0.00011152
-0.000131647
-0.000151648
-0.000171509
-0.000191189
-0.000210639
-0.000229819
-0.0002487
-0.000267253
-0.00028545
-0.000303262
-0.000320658
-0.000337609
-0.000354088
-0.000370071
-0.000385533
-0.000400456
-0.000414822
-0.000428617
-0.000441832
-0.000454459
-0.000466498
-0.000477953
-0.000488831
-0.000499147
-0.000508919
-0.000518172
-0.000526928
-0.0005352
-0.000543009
-0.000550392
-0.000557399
-0.000564086
-0.000570515
-0.000576748
-0.000582842
-0.000588846
-0.000594806
-0.000600763
-0.000606759
-0.000612833
-0.000619024
-0.000625367
-0.000631893
-0.000638634
-0.000645616
-0.000652868
-0.000660416
-0.000668283
-0.000676491
-0.000685051
-0.000693965
-0.000703212
-0.000712749
-0.000722491
-0.000732292
-0.000741925
-0.000751059
-0.000759217
-0.000765727
-0.000769545
-0.000769691
-0.000763831
-0.000753337
-3.49076e-05
-5.64881e-05
-7.81202e-05
-9.97803e-05
-0.000121334
-0.000142694
-0.000163872
-0.000184894
-0.000205747
-0.000226383
-0.00024675
-0.000266804
-0.00028651
-0.000305836
-0.000324752
-0.000343224
-0.000361218
-0.000378702
-0.000395645
-0.000412018
-0.000427797
-0.000442957
-0.000457481
-0.000471353
-0.000484562
-0.000497102
-0.000508971
-0.000520175
-0.000530726
-0.00054064
-0.000549941
-0.000558658
-0.000566813
-0.000574427
-0.000581534
-0.000588185
-0.000594443
-0.000600379
-0.000606066
-0.000611575
-0.000616971
-0.000622312
-0.00062765
-0.000633032
-0.000638504
-0.000644109
-0.000649886
-0.000655871
-0.000662096
-0.000668591
-0.000675387
-0.000682515
-0.000690006
-0.000697893
-0.000706206
-0.000714971
-0.000724204
-0.000733908
-0.00074406
-0.000754595
-0.000765387
-0.000776227
-0.000786763
-0.000796412
-0.000804313
-0.000809103
-0.000809634
-0.000802655
-0.000790078
-6.41317e-05
-8.69642e-05
-0.000109832
-0.000132712
-0.000155463
-0.000177988
-0.000200299
-0.000222421
-0.00024434
-0.000266005
-0.000287356
-0.000308345
-0.000328931
-0.000349079
-0.000368755
-0.00038792
-0.000406536
-0.000424567
-0.000441978
-0.000458736
-0.000474811
-0.00049018
-0.000504818
-0.00051871
-0.000531841
-0.000544207
-0.000555805
-0.000566643
-0.000576735
-0.000586102
-0.000594774
-0.00060278
-0.000610144
-0.0006169
-0.000623098
-0.000628806
-0.000634103
-0.000639077
-0.000643816
-0.000648403
-0.000652917
-0.000657424
-0.000661986
-0.000666656
-0.000671486
-0.000676519
-0.000681795
-0.000687348
-0.000693206
-0.000699401
-0.000705964
-0.000712927
-0.000720331
-0.000728218
-0.000736634
-0.000745628
-0.000755248
-0.000765534
-0.00077651
-0.000788174
-0.00080047
-0.000813233
-0.000826094
-0.000838383
-0.000849118
-0.000856593
-0.000859089
-0.000851852
-0.000837271
-9.75471e-05
-0.000121725
-0.00014592
-0.000170108
-0.00019414
-0.000217914
-0.000241436
-0.000264734
-0.00028779
-0.000310549
-0.000332945
-0.000354923
-0.000376437
-0.000397448
-0.000417915
-0.000437795
-0.000457047
-0.000475626
-0.000493493
-0.000510611
-0.000526946
-0.000542468
-0.000557151
-0.000570974
-0.000583924
-0.000595992
-0.000607177
-0.000617489
-0.000626942
-0.000635565
-0.00064339
-0.000650451
-0.00065678
-0.00066243
-0.000667473
-0.000671996
-0.0006761
-0.000679891
-0.000683474
-0.00068695
-0.000690409
-0.000693931
-0.000697587
-0.000701437
-0.000705535
-0.000709923
-0.000714635
-0.000719698
-0.000725136
-0.000730976
-0.000737249
-0.000743993
-0.000751259
-0.000759107
-0.000767609
-0.000776846
-0.00078691
-0.000797901
-0.000809932
-0.000823098
-0.000837427
-0.000852827
-0.000869016
-0.000885337
-0.000900502
-0.000912006
-0.00091689
-0.000909189
-0.000892462
-0.000136079
-0.000161734
-0.000187392
-0.000213022
-0.000238468
-0.000263617
-0.000288474
-0.000313067
-0.000337375
-0.000361338
-0.000384883
-0.000407947
-0.000430477
-0.00045243
-0.000473758
-0.000494413
-0.000514348
-0.000533511
-0.000551857
-0.000569342
-0.000585927
-0.000601576
-0.000616257
-0.000629947
-0.000642627
-0.000654287
-0.000664925
-0.000674551
-0.000683185
-0.000690857
-0.0006976
-0.00070345
-0.000708452
-0.000712679
-0.000716226
-0.000719207
-0.000721749
-0.000723983
-0.000726041
-0.000728049
-0.000730119
-0.000732354
-0.000734838
-0.000737645
-0.00074083
-0.000744428
-0.000748462
-0.000752942
-0.000757876
-0.000763279
-0.000769182
-0.000775634
-0.000782703
-0.000790472
-0.000799038
-0.00080852
-0.000819065
-0.000830843
-0.000844052
-0.000858896
-0.000875583
-0.000894219
-0.000914533
-0.000935572
-0.000955198
-0.000969837
-0.000975227
-0.000966174
-0.000945716
-0.000179925
-0.000207141
-0.000234331
-0.000261475
-0.000288407
-0.000315001
-0.000341262
-0.000367215
-0.000392838
-0.000418063
-0.000442811
-0.000467009
-0.000490597
-0.000513523
-0.000535734
-0.000557174
-0.000577787
-0.000597515
-0.000616304
-0.000634102
-0.000650862
-0.000666541
-0.000681102
-0.000694513
-0.00070675
-0.000717798
-0.000727655
-0.000736327
-0.000743836
-0.000750219
-0.000755514
-0.000759769
-0.000763059
-0.000765486
-0.000767176
-0.000768277
-0.000768946
-0.000769348
-0.000769644
-0.000769984
-0.000770507
-0.000771336
-0.000772572
-0.000774294
-0.000776553
-0.000779373
-0.000782751
-0.000786672
-0.000791123
-0.000796106
-0.000801652
-0.000807821
-0.0008147
-0.000822393
-0.00083101
-0.000840685
-0.000851595
-0.00086398
-0.000878177
-0.000894576
-0.000913467
-0.000934836
-0.000957981
-0.000981351
-0.00100215
-0.00101661
-0.00102097
-0.00101313
-0.000993221
-0.000231916
-0.000260921
-0.000289907
-0.000318816
-0.00034747
-0.00037574
-0.000403623
-0.000431147
-0.000458288
-0.000484971
-0.000511108
-0.000536617
-0.00056143
-0.000585487
-0.000608726
-0.000631085
-0.000652497
-0.000672895
-0.000692213
-0.000710392
-0.000727372
-0.000743102
-0.000757535
-0.000770631
-0.000782359
-0.000792698
-0.00080164
-0.000809188
-0.000815361
-0.000820182
-0.000823686
-0.000825932
-0.000827014
-0.000827062
-0.00082624
-0.000824736
-0.000822755
-0.000820517
-0.000818236
-0.000816121
-0.000814363
-0.000813132
-0.000812566
-0.000812758
-0.000813755
-0.000815552
-0.000818104
-0.000821349
-0.000825236
-0.000829753
-0.000834927
-0.000840817
-0.000847506
-0.00085508
-0.000863619
-0.000873267
-0.000884243
-0.000896794
-0.000911223
-0.000927762
-0.000946376
-0.000966808
-0.000988174
-0.00100911
-0.00102797
-0.00104179
-0.00104757
-0.00104336
-0.00102925
-0.000288492
-0.000319326
-0.000350062
-0.000380718
-0.000411102
-0.000441062
-0.000470589
-0.000499707
-0.000528388
-0.000556549
-0.00058409
-0.000610918
-0.000636954
-0.000662128
-0.000686368
-0.000709601
-0.000731749
-0.000752734
-0.000772479
-0.00079091
-0.000807955
-0.000823547
-0.000837627
-0.000850139
-0.000861042
-0.000870302
-0.000877903
-0.000883847
-0.000888152
-0.000890846
-0.000891984
-0.000891658
-0.000890004
-0.000887196
-0.000883443
-0.000878988
-0.00087409
-0.000869024
-0.000864066
-0.000859485
-0.000855534
-0.000852435
-0.000850362
-0.000849417
-0.000849617
-0.000850882
-0.000853055
-0.000855956
-0.000859465
-0.000863572
-0.000868366
-0.000873994
-0.000880579
-0.000888134
-0.000896606
-0.000906008
-0.000916284
-0.000927205
-0.000938848
-0.000951442
-0.000964968
-0.000980098
-0.000997162
-0.00101511
-0.00103254
-0.00104595
-0.001052
-0.00105104
-0.001049
-0.000362618
-0.000395575
-0.00042857
-0.000461425
-0.000493942
-0.000525978
-0.000557527
-0.000588613
-0.000619205
-0.000649213
-0.000678525
-0.000707034
-0.000734649
-0.000761286
-0.000786863
-0.000811294
-0.000834488
-0.00085635
-0.000876789
-0.000895715
-0.000913042
-0.000928685
-0.000942568
-0.000954618
-0.000964772
-0.000972979
-0.000979197
-0.000983398
-0.000985562
-0.00098569
-0.000983826
-0.000980066
-0.000974566
-0.000967542
-0.000959273
-0.000950089
-0.000940361
-0.000930489
-0.000920882
-0.000911948
-0.00090408
-0.000897626
-0.000892849
-0.000889876
-0.000888659
-0.000888962
-0.000890398
-0.00089254
-0.000895114
-0.000898154
-0.000902004
-0.000907092
-0.000913476
-0.000920586
-0.000927808
-0.000935007
-0.000941946
-0.000947745
-0.000953015
-0.000959592
-0.000968122
-0.000979771
-0.000994429
-0.00100931
-0.00102144
-0.00102958
-0.00103427
-0.00103949
-0.00105262
-0.000431043
-0.000466422
-0.000501468
-0.000536397
-0.000570994
-0.000605051
-0.000638544
-0.000671502
-0.000703896
-0.000735632
-0.000766584
-0.000796632
-0.000825672
-0.000853607
-0.000880341
-0.000905774
-0.0009298
-0.000952308
-0.000973186
-0.000992325
-0.00100961
-0.00102495
-0.00103822
-0.00104933
-0.00105821
-0.00106478
-0.00106901
-0.00107086
-0.00107033
-0.00106743
-0.00106223
-0.00105481
-0.00104535
-0.00103407
-0.00102129
-0.00100743
-0.000992975
-0.000978469
-0.000964516
-0.000951737
-0.00094074
-0.000932065
-0.000926105
-0.000923006
-0.00092258
-0.000924237
-0.000927025
-0.000929876
-0.000932073
-0.000933634
-0.000935388
-0.000938443
-0.000942942
-0.000947071
-0.00094943
-0.000950967
-0.000952997
-0.000954619
-0.000956875
-0.000962315
-0.000970481
-0.000979389
-0.000987631
-0.000994519
-0.000999025
-0.00100179
-0.00100585
-0.00101644
-0.00103935
-0.000545921
-0.000583507
-0.000621499
-0.000659328
-0.00069673
-0.00073355
-0.000769768
-0.000805402
-0.000840411
-0.000874686
-0.000908087
-0.000940477
-0.000971734
-0.00100174
-0.00103039
-0.00105756
-0.00108312
-0.00110694
-0.00112889
-0.00114885
-0.00116669
-0.00118226
-0.00119539
-0.0012059
-0.00121363
-0.00121841
-0.0012201
-0.00121861
-0.0012139
-0.00120604
-0.00119514
-0.0011814
-0.00116503
-0.00114629
-0.00112557
-0.00110332
-0.00108014
-0.00105675
-0.00103398
-0.00101279
-0.000994218
-0.000979255
-0.000968766
-0.000963268
-0.000962649
-0.000965846
-0.000970704
-0.000974459
-0.000975128
-0.000972447
-0.000967988
-0.000964462
-0.000963438
-0.000962489
-0.000959869
-0.000957747
-0.000958614
-0.000961615
-0.000964908
-0.00096801
-0.000971455
-0.000974883
-0.000977208
-0.000977766
-0.000976699
-0.000975632
-0.000978331
-0.000989894
-0.00101489
-0.000618653
-0.000659252
-0.000698916
-0.000738665
-0.000778208
-0.00081716
-0.000855458
-0.000893142
-0.000930165
-0.000966398
-0.00100168
-0.00103586
-0.0010688
-0.00110037
-0.00113045
-0.00115888
-0.00118551
-0.00121018
-0.00123274
-0.00125307
-0.00127109
-0.00128677
-0.00129996
-0.00131047
-0.00131803
-0.00132238
-0.00132326
-0.00132045
-0.0013137
-0.00130285
-0.00128786
-0.00126881
-0.00124592
-0.00121945
-0.00118981
-0.00115756
-0.00112348
-0.00108862
-0.00105433
-0.0010222
-0.000994041
-0.000971687
-0.000956802
-0.000950484
-0.000952744
-0.000961889
-0.000974027
-0.000983821
-0.000987848
-0.000985691
-0.000979509
-0.0009733
-0.000970358
-0.000970297
-0.00097096
-0.00097087
-0.000970179
-0.000969744
-0.000969715
-0.000969884
-0.000969952
-0.000969307
-0.00096718
-0.000963168
-0.000957732
-0.000953036
-0.000953191
-0.000963181
-0.000985644
-0.000798259
-0.000842465
-0.000887431
-0.000931848
-0.000975358
-0.00101805
-0.00106005
-0.00110138
-0.00114197
-0.00118164
-0.00122021
-0.00125751
-0.00129339
-0.00132768
-0.00136024
-0.00139086
-0.00141935
-0.00144547
-0.00146895
-0.0014895
-0.00150673
-0.00152031
-0.00153006
-0.00153592
-0.00153792
-0.00153608
-0.00153036
-0.00152063
-0.00150668
-0.00148823
-0.0014649
-0.00143644
-0.00140278
-0.00136411
-0.00132092
-0.00127395
-0.0012243
-0.00117338
-0.00112292
-0.00107496
-0.0010318
-0.000995753
-0.000968903
-0.00095271
-0.000947589
-0.000952381
-0.000963637
-0.000975803
-0.000984517
-0.000988388
-0.000987824
-0.000984389
-0.000980504
-0.000978125
-0.00097674
-0.000975356
-0.000974002
-0.000972858
-0.000971748
-0.000970331
-0.000968192
-0.00096472
-0.000959237
-0.000951393
-0.000942136
-0.000934452
-0.000932552
-0.000938775
-0.00095521
0.000373664
0.000379007
0.000384596
0.000390481
0.00039664
0.000403133
0.000409978
0.000416974
0.000424137
0.000431551
0.000439231
0.000447109
0.000454938
0.000463304
0.00047099
0.00047876
0.000485681
0.000492932
0.000499506
0.000505741
0.000511811
0.000516196
0.000519909
0.000522432
0.000523943
0.000524279
0.000522888
0.000520252
0.000516463
0.000511141
0.000503884
0.000495569
0.00048619
0.00047576
0.000463602
0.000450711
0.000437145
0.000422822
0.000407958
0.000392914
0.000377528
0.000361982
0.000346975
0.000332289
0.000317011
0.000302764
0.000288395
0.000274944
0.000261918
0.000249485
0.000237735
0.000226591
0.000216174
0.000206387
0.000197184
0.000188126
0.000179961
0.000172315
0.000165307
0.000376868
0.000382454
0.000388363
0.000394546
0.000401029
0.000407826
0.000414928
0.000422277
0.000429879
0.000437739
0.00044581
0.00045403
0.00046232
0.000470721
0.000479112
0.000487225
0.000495092
0.00050267
0.000509819
0.000516326
0.000522302
0.000527315
0.00053128
0.000534144
0.000535816
0.00053609
0.000534937
0.000532199
0.00052827
0.000522669
0.000515285
0.000506732
0.00049701
0.000485872
0.000473448
0.000460046
0.000445849
0.000430954
0.000415528
0.000399687
0.000383607
0.000367526
0.000351654
0.000335775
0.000320206
0.000305053
0.000290337
0.00027625
0.000262682
0.000249684
0.000237355
0.000225696
0.000214621
0.000204218
0.000194359
0.000185181
0.000176671
0.000168772
0.000161425
0.000379861
0.000385753
0.00039196
0.000398487
0.000405336
0.000412505
0.000419982
0.000427749
0.000435797
0.000444107
0.000452624
0.000461282
0.000470038
0.000478865
0.000487681
0.000496398
0.000504892
0.000513005
0.000520588
0.000527548
0.000533772
0.000539192
0.000543505
0.00054663
0.000548481
0.000548842
0.000547727
0.000545026
0.000540866
0.000535076
0.000527552
0.000518672
0.00050839
0.000496729
0.000483796
0.00046985
0.000454999
0.000439451
0.000423331
0.000406807
0.000390043
0.000373145
0.000356324
0.000339747
0.000323486
0.000307684
0.000292354
0.000277558
0.000263342
0.000249747
0.000236833
0.000224585
0.000213003
0.000202072
0.000191852
0.000182326
0.000173443
0.000165174
0.000157465
0.000382509
0.000388718
0.000395268
0.000402161
0.000409397
0.000416976
0.000424886
0.000433115
0.000441642
0.00045044
0.000459467
0.000468667
0.000477992
0.000487374
0.000496712
0.00050595
0.000514942
0.000523572
0.000531672
0.000539157
0.000545852
0.000551622
0.000556266
0.000559664
0.000561721
0.000562234
0.00056117
0.000558452
0.000554116
0.000548132
0.000540373
0.000531113
0.00052033
0.000508163
0.000494663
0.000480083
0.000464551
0.000448258
0.000431362
0.000414056
0.000396501
0.000378826
0.000361228
0.000343903
0.000326887
0.000310318
0.000294253
0.000278748
0.000263867
0.000249652
0.000236143
0.000223347
0.000211274
0.000199913
0.000189262
0.000179301
0.000169999
0.000161331
0.000153271
0.000385101
0.000391651
0.00039856
0.000405833
0.00041347
0.00042147
0.000429827
0.000438525
0.000447545
0.000456856
0.000466417
0.000476179
0.00048608
0.000496041
0.000505963
0.000515757
0.000525298
0.000534471
0.000543123
0.00055113
0.000558312
0.000564488
0.000569491
0.000573192
0.000575472
0.000576148
0.000575164
0.000572416
0.000567937
0.000561739
0.0005537
0.000544052
0.000532798
0.000520086
0.000505984
0.00049072
0.000474459
0.000457384
0.000439676
0.000421531
0.000403136
0.000384654
0.000366253
0.00034809
0.00033026
0.000312878
0.000296033
0.000279792
0.000264213
0.000249341
0.000235205
0.00022182
0.000209189
0.000197306
0.000186154
0.00017572
0.000165983
0.000156913
0.000148487
0.000387659
0.000394574
0.000401869
0.000409548
0.000417612
0.00042606
0.000434887