/*--------------------------------*- C++ -*----------------------------------*\
| =========                 |                                                 |
| \\      /  F ield         | OpenFOAM: The Open Source CFD Toolbox           |
|  \\    /   O peration     | Version:  2312                                  |
|   \\  /    A nd           | Website:  www.openfoam.com                      |
|    \\/     M anipulation  |                                                 |
\*---------------------------------------------------------------------------*/
FoamFile
{
    version     2.0;
    format      ascii;
    arch        "LSB;label=32;scalar=64";
    class       surfaceScalarField;
    location    "500";
    object      phi;
}
// * * * * * * * * * * * * * * * * * * * * * * * * * * * * * * * * * * * * * //

dimensions      [0 3 -1 0 0 0 0];

oriented        oriented;

internalField   nonuniform List<scalar> 
116611
(
0.00126749
0.000427091
-0.00125138
-0.000443201
0.00128342
0.000423053
-0.000438982
0.00129918
0.000418714
-0.000434477
0.00131474
0.000414033
-0.000429594
0.00133007
0.000408967
-0.000424295
0.00134545
0.00040349
-0.000418866
0.00136024
0.000397627
-0.000412421
0.00137516
0.000391394
-0.000406316
0.00138969
0.000384729
-0.000399254
0.0014041
0.000377679
-0.000392086
0.00141815
0.000370123
-0.000384182
0.00143202
0.000362116
-0.00037598
0.00144561
0.000353639
-0.000367227
0.00145899
0.000344662
-0.000358045
0.00147212
0.000335225
-0.000348351
0.00148479
0.000325313
-0.000337985
0.00149725
0.000314781
-0.00032724
0.00150931
0.000303834
-0.000315896
0.0015209
0.000292168
-0.000303762
0.00153215
0.000280104
-0.000291355
0.00154315
0.000267296
-0.000278298
0.00155373
0.000253984
-0.000264563
0.00156386
0.00024003
-0.000250162
0.00157365
0.000225483
-0.000235268
0.00158291
0.000210273
-0.000219531
0.00159182
0.000194395
-0.000203307
0.00160028
0.000177784
-0.000186247
0.00160792
0.000160521
-0.000168156
0.00161532
0.000142557
-0.000149964
0.0016217
0.000123883
-0.000130264
0.00162805
0.000104696
-0.000111046
0.00163379
8.44772e-05
-9.02073e-05
0.00163895
6.35532e-05
-6.87178e-05
0.00164343
4.19169e-05
-4.64018e-05
0.00164721
1.937e-05
-2.31412e-05
0.00165022
-3.85525e-06
8.39861e-07
0.00165289
-2.79078e-05
2.52433e-05
0.00165492
-5.26532e-05
5.06157e-05
0.00165634
-7.8204e-05
7.6785e-05
0.00165681
-0.000104747
0.000104276
0.00165659
-0.000131952
0.000132173
0.00165608
-0.000160023
0.000160532
0.00165496
-0.000188877
0.000189998
0.00165287
-0.000218627
0.000220716
0.00165005
-0.000249226
0.000252047
0.00164664
-0.000280618
0.000284029
0.00164287
-0.000312828
0.000316595
0.00163788
-0.000346018
0.00035101
0.0016323
-0.000379998
0.000385582
0.00162593
-0.000414787
0.00042116
0.00161868
-0.000450415
0.000457659
0.00161098
-0.000486725
0.00049443
0.00160269
-0.000523856
0.000532141
0.00159356
-0.000561924
0.00057106
0.00158334
-0.000600785
0.000611003
0.00157275
-0.000640331
0.000650921
0.00156131
-0.000680761
0.000692197
0.00154932
-0.000721954
0.000733948
0.00153664
-0.000763823
0.000776503
0.00152329
-0.000806229
0.000819579
0.00151017
-0.000849094
0.000862216
0.00149663
-0.000893132
0.000906672
0.00148241
-0.000937938
0.00095215
0.00146812
-0.000983377
0.000997665
0.00145377
-0.00102942
0.00104378
0.00143898
-0.00107643
0.00109121
0.00142543
-0.00112398
0.00113753
0.00141341
-0.00117184
0.00118387
-0.00122523
0.00140053
0.00123811
0.00125254
0.000411123
-0.00123658
0.00126838
0.000407221
0.00128407
0.000403019
0.00129961
0.000398492
0.001315
0.000393581
0.00133017
0.000388319
0.00134512
0.00038268
0.00135987
0.000376639
0.00137439
0.000370207
0.00138873
0.000363344
0.0014028
0.000356047
0.00141662
0.000348304
0.00143016
0.000340097
0.00144341
0.000331409
0.00145637
0.000322267
0.00146907
0.000312614
0.00148139
0.000302458
0.00149345
0.000291776
0.00150506
0.000280561
0.00151638
0.000268778
0.00152726
0.000256417
0.00153776
0.000243483
0.00154785
0.000229948
0.00155753
0.0002158
0.00156678
0.000201024
0.00157559
0.000185578
0.00158389
0.000169487
0.00159169
0.000152724
0.00159897
0.000135274
0.0016057
0.000117156
0.00161207
9.83223e-05
0.00161783
7.8721e-05
0.00162299
5.83885e-05
0.00162761
3.72982e-05
0.00163157
1.54084e-05
0.00163498
-7.26499e-06
0.00163775
-3.06747e-05
0.00163992
-5.48241e-05
0.0016415
-7.97811e-05
0.00164234
-0.000105584
0.00164257
-0.000132186
0.00164214
-0.000159591
0.00164104
-0.000187783
0.00163925
-0.000216836
0.00163677
-0.000246743
0.00163363
-0.000277473
0.00162981
-0.000309014
0.00162522
-0.000341428
0.00161992
-0.000374695
0.00161389
-0.000408759
0.00160711
-0.000443638
0.00159969
-0.000479304
0.0015916
-0.000515766
0.00158276
-0.000553081
0.00157321
-0.00059124
0.00156307
-0.000630184
0.00155222
-0.000669911
0.00154071
-0.000710443
0.00152859
-0.000751703
0.00151603
-0.000793677
0.00150329
-0.000836349
0.00149007
-0.000879914
0.00147647
-0.000924341
0.00146269
-0.000969592
0.00144893
-0.00101565
0.00143512
-0.00106262
0.00142164
-0.0011105
0.00140866
-0.00115886
-0.00121154
0.00139497
0.00123858
0.000395295
-0.00122275
0.00125429
0.000391512
0.00126987
0.000387436
0.00128532
0.000383039
0.0013006
0.000378301
0.00131571
0.000373213
0.00133063
0.00036776
0.00134534
0.000361925
0.00135985
0.000355701
0.00137412
0.000349069
0.00138815
0.000342017
0.00140192
0.000334534
0.00141542
0.000326604
0.00142861
0.000318213
0.00144153
0.000309352
0.00145414
0.000300006
0.00146643
0.000290164
0.0014784
0.000279811
0.00149002
0.000268934
0.00150129
0.000257515
0.00151216
0.000245542
0.00152265
0.000232997
0.00153273
0.000219867
0.00154239
0.000206136
0.00155163
0.000191789
0.00156039
0.00017681
0.00156869
0.000161187
0.00157651
0.000144904
0.00158384
0.000127951
0.00159068
0.000110316
0.00159702
9.19826e-05
0.0016028
7.29324e-05
0.00160805
5.31439e-05
0.00161274
3.26059e-05
0.00161685
1.13012e-05
0.00162036
-1.07797e-05
0.00162327
-3.3581e-05
0.00162559
-5.71426e-05
0.0016273
-8.1491e-05
0.00162836
-0.000106644
0.00162877
-0.000132599
0.00162853
-0.000159352
0.00162766
-0.000186912
0.00162613
-0.000215302
0.00162391
-0.000244523
0.001621
-0.000274567
0.00161742
-0.000305432
0.00161313
-0.000337139
0.00160812
-0.000369683
0.0016024
-0.000403043
0.00159599
-0.000437221
0.00158889
-0.000472213
0.00158115
-0.000508019
0.00157273
-0.000544661
0.00156363
-0.000582141
0.00155388
-0.000620435
0.0015435
-0.000659534
0.00153252
-0.000699456
0.00152099
-0.000740172
0.00150899
-0.000781679
0.00149663
-0.000823986
0.00148389
-0.00086718
0.00147084
-0.000911291
0.00145757
-0.000956321
0.0014442
-0.00100228
0.00143082
-0.00104924
0.00141762
-0.00109731
0.00140481
-0.00114605
-0.00119892
0.00139219
0.00122545
0.000379557
-0.00120971
0.00124106
0.000375903
0.00125653
0.000371963
0.00127186
0.000367707
0.00128704
0.000363124
0.00130205
0.0003582
0.00131689
0.000352924
0.00133153
0.000347283
0.00134596
0.000341265
0.00136018
0.000334856
0.00137415
0.000328043
0.00138787
0.000320811
0.00140133
0.000313148
0.0014145
0.000305041
0.00142738
0.000296474
0.00143995
0.000287436
0.0014522
0.000277912
0.00146412
0.00026789
0.0014757
0.000257354
0.00148692
0.000246293
0.00149777
0.00023469
0.00150824
0.00022253
0.00151831
0.0002098
0.00152796
0.000196483
0.00153719
0.000182566
0.00154596
0.000168033
0.00155428
0.000152867
0.00156213
0.000137057
0.00156949
0.000120587
0.00157636
0.000103446
0.00158273
8.5618e-05
0.00158858
6.70853e-05
0.00159389
4.78285e-05
0.00159866
2.78354e-05
0.00160287
7.0921e-06
0.00160649
-1.4403e-05
0.00160953
-3.66187e-05
0.00161198
-5.95883e-05
0.00161382
-8.33308e-05
0.00161503
-0.000107859
0.00161562
-0.000133181
0.00161556
-0.000159299
0.00161487
-0.00018622
0.00161352
-0.000213953
0.00161151
-0.000242507
0.00160882
-0.000271881
0.00160546
-0.000302077
0.00160143
-0.000333102
0.0015967
-0.000364958
0.0015913
-0.000397638
0.00158522
-0.000431141
0.00157847
-0.00046547
0.00157108
-0.000500623
0.00156303
-0.000536613
0.00155433
-0.000573442
0.001545
-0.000611108
0.00153507
-0.000649605
0.00152456
-0.000688945
0.00151351
-0.000729123
0.00150198
-0.00077015
0.00149004
-0.000812045
0.00147772
-0.000854861
0.00146507
-0.000898636
0.00145216
-0.00094341
0.0014391
-0.000989224
0.001426
-0.00103614
0.00141302
-0.00108433
0.00140029
-0.00113333
-0.00118648
0.00138785
0.00121311
0.000363898
-0.00119745
0.00122863
0.000360375
0.00124402
0.000356577
0.00125926
0.000352472
0.00127433
0.000348046
0.00128924
0.000343289
0.00130398
0.00033819
0.00131852
0.000332739
0.00133287
0.000326922
0.00134699
0.000320728
0.00136089
0.000314145
0.00137455
0.000307157
0.00138794
0.000299753
0.00140107
0.000291918
0.0014139
0.00028364
0.00142643
0.000274904
0.00143865
0.000265697
0.00145053
0.000256004
0.00146208
0.000245811
0.00147326
0.000235104
0.00148409
0.000223869
0.00149452
0.000212091
0.00150457
0.000199756
0.0015142
0.000186848
0.00152342
0.000173353
0.00153219
0.000159255
0.00154052
0.000144541
0.00154838
0.000129194
0.00155577
0.0001132
0.00156267
9.65457e-05
0.00156907
7.9215e-05
0.00157497
6.11915e-05
0.00158034
4.24591e-05
0.00158517
2.30035e-05
0.00158945
2.80911e-06
0.00159316
-1.81098e-05
0.00159629
-3.97494e-05
0.00159883
-6.21339e-05
0.00160078
-8.52809e-05
0.00160213
-0.000109202
0.00160285
-0.000133907
0.00160296
-0.000159401
0.00160243
-0.000185692
0.00160126
-0.000212787
0.00159945
-0.000240694
0.00159699
-0.000269417
0.00159387
-0.000298959
0.00159009
-0.000329324
0.00158565
-0.000360516
0.00158055
-0.000392536
0.00157479
-0.000425383
0.00156838
-0.000459062
0.00156133
-0.000493575
0.00155365
-0.00052893
0.00154534
-0.000565132
0.00153642
-0.000602184
0.0015269
-0.000640088
0.00151681
-0.000678855
0.00150618
-0.000718493
0.00149505
-0.00075902
0.00148347
-0.000800461
0.00147147
-0.000842864
0.00145911
-0.000886275
0.00144645
-0.000930756
0.0014336
-0.000976372
0.00142067
-0.00102321
0.0014078
-0.00107146
0.00139517
-0.00112069
-0.00117442
0.0013831
0.0012015
0.000348305
-0.0011859
0.00121696
0.000344913
0.00123228
0.000341256
0.00124745
0.000337305
0.00126245
0.000333043
0.00127728
0.000328459
0.00129193
0.000323543
0.00130638
0.000318285
0.00132063
0.000312672
0.00133467
0.000306692
0.00134848
0.000300335
0.00136205
0.000293587
0.00137536
0.000286436
0.00138841
0.000278869
0.00140118
0.000270871
0.00141365
0.000262431
0.00142582
0.000253533
0.00143766
0.000244164
0.00144916
0.000234309
0.00146031
0.000223953
0.00147109
0.000213083
0.0014815
0.000201683
0.00149152
0.000189739
0.00150113
0.000177236
0.00151033
0.000164158
0.00151909
0.00015049
0.00152741
0.000136218
0.00153528
0.000121327
0.00154268
0.000105802
0.0015496
8.96271e-05
0.00155602
7.27873e-05
0.00156195
5.52671e-05
0.00156736
3.70509e-05
0.00157224
1.81237e-05
0.00157658
-1.53303e-06
0.00158036
-2.18866e-05
0.00158357
-4.2961e-05
0.00158621
-6.47725e-05
0.00158826
-8.73367e-05
0.00158972
-0.000110666
0.00159059
-0.000134768
0.00159084
-0.000159653
0.00159047
-0.000185329
0.00158949
-0.000211802
0.00158787
-0.000239079
0.00158563
-0.000267168
0.00158274
-0.000296072
0.00157921
-0.000325797
0.00157504
-0.000356346
0.00157023
-0.000387724
0.00156478
-0.000419933
0.0015587
-0.000452978
0.00155198
-0.000486863
0.00154465
-0.000521595
0.00153669
-0.000557179
0.00152813
-0.000593623
0.00151898
-0.000630932
0.00150924
-0.000669122
0.00149896
-0.000708204
0.00148814
-0.000748206
0.00147684
-0.000789156
0.00146508
-0.000831107
0.00145292
-0.000874116
0.00144043
-0.000918261
0.00142769
-0.000963632
0.00141482
-0.00101034
0.00140196
-0.0010586
0.0013893
-0.00110803
-0.00116217
0.00137705
0.00119056
0.000332765
-0.00117502
0.00120597
0.000329503
0.00122124
0.000325988
0.00123635
0.000322189
0.0012513
0.000318092
0.00126608
0.000313685
0.00128066
0.000308957
0.00129505
0.000303896
0.00130923
0.000298492
0.00132319
0.000292732
0.00133692
0.000286605
0.00135041
0.000280099
0.00136365
0.000273201
0.00137662
0.000265899
0.00138931
0.00025818
0.00140171
0.000250031
0.0014138
0.000241438
0.00142558
0.000232387
0.00143702
0.000222864
0.00144812
0.000212854
0.00145886
0.000202343
0.00146923
0.000191317
0.00147921
0.000179759
0.00148879
0.000167655
0.00149796
0.000154989
0.0015067
0.000141747
0.00151501
0.000127912
0.00152287
0.00011347
0.00153026
9.84051e-05
0.00153719
8.27028e-05
0.00154363
6.63471e-05
0.00154957
4.93226e-05
0.00155501
3.16137e-05
0.00155993
1.32052e-05
0.00156432
-5.92131e-06
0.00156815
-2.57238e-05
0.00157144
-4.62437e-05
0.00157416
-6.74938e-05
0.00157631
-8.94878e-05
0.00157788
-0.000112238
0.00157887
-0.000135753
0.00157926
-0.000160044
0.00157905
-0.000185119
0.00157823
-0.000210985
0.0015768
-0.000237651
0.00157476
-0.000265123
0.00157209
-0.000293407
0.00156881
-0.000322509
0.00156489
-0.000352433
0.00156035
-0.000383186
0.00155519
-0.00041477
0.00154941
-0.000447192
0.001543
-0.000480456
0.00153597
-0.000514569
0.00152833
-0.000549537
0.00152008
-0.000585371
0.00151123
-0.00062208
0.00150178
-0.000659679
0.00149177
-0.000698187
0.0014812
-0.000737636
0.0014701
-0.000778062
0.00145852
-0.000819524
0.00144649
-0.000862088
0.00143408
-0.00090585
0.00142137
-0.00095092
0.00140846
-0.000997435
0.00139551
-0.00104565
0.00138269
-0.00109521
-0.00114958
0.0013701
0.00118028
0.000317272
-0.00116479
0.00119565
0.00031414
0.00121087
0.000310766
0.00122594
0.000307121
0.00124084
0.000303188
0.00125557
0.000298956
0.00127011
0.000294416
0.00128445
0.000289554
0.00129858
0.000284361
0.00131249
0.000278824
0.00132617
0.000272931
0.00133959
0.00026667
0.00135277
0.000260029
0.00136567
0.000252996
0.00137829
0.000245557
0.00139062
0.0002377
0.00140265
0.000229411
0.00141436
0.000220678
0.00142574
0.000211485
0.00143677
0.000201818
0.00144746
0.000191663
0.00145777
0.000181004
0.0014677
0.000169828
0.00147724
0.000158118
0.00148637
0.000145859
0.00149508
0.000133035
0.00150336
0.000119631
0.0015112
0.000105632
0.00151858
9.10217e-05
0.0015255
7.57851e-05
0.00153194
5.99063e-05
0.00153789
4.33694e-05
0.00154335
2.6159e-05
0.00154829
8.25942e-06
0.00155271
-1.03402e-05
0.0015566
-2.96082e-05
0.00155994
-4.95846e-05
0.00156273
-7.02852e-05
0.00156496
-9.1722e-05
0.00156663
-0.000113907
0.00156773
-0.00013685
0.00156825
-0.000160562
0.00156818
-0.000185051
0.00156752
-0.000210327
0.00156626
-0.000236396
0.00156441
-0.000263267
0.00156195
-0.000290946
0.00155888
-0.000319439
0.0015552
-0.000348752
0.0015509
-0.00037889
0.00154599
-0.000409859
0.00154046
-0.000441664
0.00153432
-0.000474311
0.00152755
-0.000507806
0.00152017
-0.000542158
0.00151218
-0.000577378
0.00150358
-0.000613476
0.00149437
-0.000650472
0.00148457
-0.000688389
0.0014742
-0.000727262
0.00146327
-0.000767133
0.00145181
-0.000808066
0.00143986
-0.00085014
0.00142747
-0.00089346
0.00141471
-0.000938157
0.00140166
-0.000984389
0.00138847
-0.00103246
0.00137532
-0.00108206
-0.00113685
0.00136259
0.0011707
0.00030183
-0.00115526
0.00118601
0.000298828
0.00120118
0.000295595
0.0012162
0.000292101
0.00123106
0.00028833
0.00124574
0.000284273
0.00126024
0.000279918
0.00127454
0.000275254
0.00128863
0.000270271
0.0013025
0.000264956
0.00131613
0.000259298
0.00132952
0.000253285
0.00134264
0.000246903
0.0013555
0.000240142
0.00136807
0.000232986
0.00138034
0.000225424
0.00139231
0.000217442
0.00140396
0.000209027
0.00141528
0.000200164
0.00142626
0.00019084
0.00143689
0.000181039
0.00144714
0.000170747
0.00145702
0.000159949
0.00146651
0.00014863
0.00147559
0.000136774
0.00148426
0.000124365
0.00149251
0.000111387
0.00150031
9.78256e-05
0.00150767
8.36642e-05
0.00151457
6.88869e-05
0.001521
5.34779e-05
0.00152695
3.74212e-05
0.0015324
2.07008e-05
0.00153736
3.30011e-06
0.0015418
-1.47766e-05
0.00154572
-3.35231e-05
0.0015491
-5.29688e-05
0.00155195
-7.31315e-05
0.00155425
-9.40234e-05
0.001556
-0.000115656
0.00155719
-0.00013804
0.00155781
-0.000161187
0.00155786
-0.000185104
0.00155734
-0.000209802
0.00155623
-0.000235289
0.00155454
-0.000261572
0.00155225
-0.000288658
0.00154937
-0.000316554
0.00154588
-0.000345265
0.00154179
-0.000374799
0.00153709
-0.000405159
0.00153178
-0.000436353
0.00152585
-0.000468386
0.00151931
-0.000501266
0.00151216
-0.000535001
0.00150438
-0.000569604
0.00149599
-0.000605086
0.00148699
-0.00064147
0.00147738
-0.00067878
0.00146717
-0.000717054
0.00145638
-0.000756339
0.00144502
-0.000796703
0.00143311
-0.000838229
0.00142068
-0.000881034
0.00140779
-0.000925262
0.00139449
-0.000971093
0.00138088
-0.00101885
0.00136706
-0.00106824
-0.00112303
0.00135324
0.00116185
0.00028644
-0.00114646
0.00117711
0.000283568
0.00119223
0.000280476
0.0012072
0.000277133
0.001222
0.000273525
0.00123664
0.00026964
0.00125108
0.00026547
0.00126534
0.000261003
0.00127938
0.000256228
0.0012932
0.000251134
0.00130679
0.00024571
0.00132013
0.000239942
0.00133321
0.00023382
0.00134603
0.000227329
0.00135856
0.000220458
0.00137079
0.000213192
0.00138271
0.000205518
0.00139432
0.000197423
0.00140559
0.000188892
0.00141652
0.000179912
0.00142709
0.000170466
0.00143729
0.000160541
0.00144712
0.000150121
0.00145656
0.000139192
0.0014656
0.000127737
0.00147422
0.00011574
0.00148242
0.000103186
0.00149019
9.00583e-05
0.00149751
7.63412e-05
0.00150438
6.20184e-05
0.00151079
4.70737e-05
0.00151672
3.14908e-05
0.00152216
1.52536e-05
0.00152712
-1.65638e-06
0.00153156
-1.92167e-05
0.00153549
-3.74507e-05
0.0015389
-5.63769e-05
0.00154178
-7.60124e-05
0.00154412
-9.63704e-05
0.00154593
-0.000117462
0.00154719
-0.000139299
0.0015479
-0.000161892
0.00154804
-0.00018525
0.00154762
-0.000209383
0.00154663
-0.000234298
0.00154506
-0.000260005
0.00154292
-0.000286509
0.00154018
-0.000313818
0.00153685
-0.000341939
0.00153293
-0.000370876
0.00152841
-0.000400637
0.00152328
-0.000431227
0.00151755
-0.000462653
0.0015112
-0.000494922
0.00150425
-0.000528045
0.00149668
-0.000562031
0.00148849
-0.000596896
0.00147968
-0.000632661
0.00147025
-0.000669351
0.00146019
-0.000707003
0.00144952
-0.000745666
0.00143823
-0.000785409
0.00142632
-0.000826317
0.0014138
-0.000868514
0.00140068
-0.000912149
0.00138701
-0.000957422
0.00137284
-0.00100468
0.00135823
-0.00105363
-0.00110873
0.00134394
0.0011538
0.000271102
-0.00113846
0.00116901
0.00026836
0.00118407
0.00026541
0.00119899
0.000262219
0.00121374
0.000258773
0.00122831
0.000255063
0.00124271
0.000251078
0.0012569
0.000246808
0.00127089
0.000242241
0.00128465
0.000237368
0.00129819
0.000232176
0.00131148
0.000226654
0.00132451
0.000220789
0.00133727
0.000214568
0.00134975
0.000207979
0.00136193
0.000201009
0.00137381
0.000193643
0.00138536
0.000185867
0.00139659
0.000177669
0.00140747
0.000169032
0.00141799
0.000159942
0.00142815
0.000150384
0.00143792
0.000140343
0.00144731
0.000129804
0.0014563
0.000118749
0.00146488
0.000107164
0.00147303
9.50318e-05
0.00148075
8.23362e-05
0.00148803
6.90608e-05
0.00149486
5.51892e-05
0.00150123
4.07048e-05
0.00150713
2.55913e-05
0.00151255
9.83202e-06
0.00151748
-6.58954e-06
0.00152191
-2.36444e-05
0.00152583
-4.1372e-05
0.00152924
-5.97873e-05
0.00153214
-7.89051e-05
0.00153451
-9.87388e-05
0.00153634
-0.0001193
0.00153764
-0.000140601
0.0015384
-0.000162651
0.00153861
-0.00018546
0.00153827
-0.000209039
0.00153737
-0.000233395
0.0015359
-0.000258537
0.00153386
-0.000284471
0.00153125
-0.000311205
0.00152805
-0.000338746
0.00152428
-0.000367099
0.00151991
-0.000396272
0.00151495
-0.000426269
0.0015094
-0.000457098
0.00150324
-0.000488766
0.00149648
-0.000521282
0.00148911
-0.000554657
0.00148112
-0.000588905
0.0014725
-0.000624044
0.00146325
-0.000660098
0.00145335
-0.000697103
0.00144278
-0.000735104
0.00143154
-0.000774165
0.00141959
-0.000814371
0.00140692
-0.000855841
0.0013935
-0.000898726
0.00137932
-0.000943244
0.00136441
-0.000989774
0.0013489
-0.00103812
-0.00109302
0.00133318
0.00114658
0.000255813
-0.00113129
0.00116173
0.000253203
0.00117675
0.000250395
0.00119161
0.000247357
0.00120631
0.000244076
0.00122083
0.000240542
0.00123516
0.000236744
0.0012493
0.000232672
0.00126323
0.000228315
0.00127693
0.000223663
0.0012904
0.000218704
0.00130363
0.000213427
0.0013166
0.000207819
0.0013293
0.000201868
0.00134172
0.000195562
0.00135384
0.000188886
0.00136565
0.000181827
0.00137715
0.000174372
0.00138831
0.000166505
0.00139913
0.000158212
0.0014096
0.000149478
0.00141969
0.000140288
0.00142941
0.000130626
0.00143874
0.000120476
0.00144767
0.000109822
0.00145618
9.86476e-05
0.00146428
8.69364e-05
0.00147194
7.46715e-05
0.00147917
6.18362e-05
0.00148594
4.84135e-05
0.00149226
3.43866e-05
0.00149812
1.97386e-05
0.00150349
4.45249e-06
0.00150838
-1.14775e-05
0.00151278
-2.80394e-05
0.00151667
-4.52672e-05
0.00152006
-6.31787e-05
0.00152295
-8.17871e-05
0.00152531
-0.000101106
0.00152716
-0.000121146
0.00152848
-0.00014192
0.00152927
-0.000163438
0.00152952
-0.000185711
0.00152923
-0.000208748
0.00152839
-0.000232557
0.001527
-0.000257147
0.00152505
-0.000282526
0.00152255
-0.000308699
0.00151948
-0.000335675
0.00151583
-0.000363458
0.00151162
-0.000392056
0.00150682
-0.000421474
0.00150145
-0.000451719
0.00149548
-0.000482797
0.00148891
-0.000514716
0.00148174
-0.000547485
0.00147395
-0.000581115
0.00146552
-0.000615621
0.00145645
-0.000651024
0.0014467
-0.000687352
0.00143624
-0.000724645
0.00142503
-0.000762956
0.00141302
-0.00080236
0.00140014
-0.000842964
0.00138633
-0.000884914
0.00137154
-0.000928449
0.00135575
-0.000973986
0.00133923
-0.0010216
-0.001076
0.00132221
0.00114021
0.000240566
-0.00112496
0.00115532
0.000238089
0.00117029
0.000235426
0.0011851
0.000232544
0.00119975
0.000229429
0.00121422
0.000226072
0.0012285
0.000222463
0.00124258
0.000218591
0.00125645
0.000214446
0.0012701
0.000210018
0.00128351
0.000205294
0.00129667
0.000200264
0.00130957
0.000194916
0.0013222
0.000189237
0.00133455
0.000183214
0.0013466
0.000176835
0.00135834
0.000170085
0.00136977
0.00016295
0.00138086
0.000155416
0.0013916
0.000147468
0.00140199
0.00013909
0.00141201
0.000130268
0.00142165
0.000120985
0.0014309
0.000111226
0.00143975
0.000100972
0.00144819
9.0209e-05
0.0014562
7.89184e-05
0.00146379
6.70834e-05
0.00147094
5.46868e-05
0.00147764
4.17112e-05
0.00148389
2.81394e-05
0.00148968
1.3954e-05
0.00149499
-8.6365e-07
0.00149982
-1.63013e-05
0.00150415
-3.23776e-05
0.001508
-4.91142e-05
0.00151135
-6.65292e-05
0.0015142
-8.46365e-05
0.00151654
-0.000103449
0.00151838
-0.000122979
0.00151969
-0.000143238
0.00152049
-0.000164237
0.00152077
-0.000185985
0.00152051
-0.000208494
0.00151973
-0.000231771
0.0015184
-0.000255824
0.00151654
-0.000280661
0.00151413
-0.00030629
0.00151117
-0.000332716
0.00150766
-0.000359945
0.00150359
-0.000387984
0.00149895
-0.000416838
0.00149374
-0.000446513
0.00148796
-0.000477012
0.00148159
-0.000508343
0.00147461
-0.000540512
0.00146702
-0.000573525
0.0014588
-0.000607394
0.0014499
-0.000642132
0.00144031
-0.000677757
0.00142996
-0.000714295
0.00141878
-0.000751781
0.0014067
-0.000790273
0.00139359
-0.000829861
0.00137938
-0.000870703
0.00136401
-0.000913078
0.00134743
-0.000957401
0.00132968
-0.00100384
-0.001055
0.00130868
0.00113473
0.000225357
-0.00111952
0.00114981
0.000223014
0.00116474
0.000220497
0.00117951
0.000217772
0.00119411
0.000214826
0.00120854
0.000211648
0.00122277
0.00020823
0.0012368
0.000204561
0.00125061
0.000200631
0.0012642
0.000196429
0.00127755
0.000191944
0.00129065
0.000187165
0.00130349
0.00018208
0.00131605
0.000176676
0.00132832
0.00017094
0.0013403
0.00016486
0.00135196
0.000158421
0.0013633
0.00015161
0.00137431
0.000144412
0.00138496
0.000136811
0.00139526
0.000128793
0.00140519
0.000120341
0.00141473
0.000111439
0.00142389
0.000102071
0.00143264
9.22202e-05
0.00144098
8.18686e-05
0.0014489
7.0999e-05
0.00145639
5.95939e-05
0.00146344
4.76354e-05
0.00147004
3.51058e-05
0.0014762
2.19873e-05
0.00148189
8.26182e-06
0.00148711
-6.08714e-06
0.00149185
-2.10409e-05
0.00149611
-3.66358e-05
0.00149988
-5.28887e-05
0.00150317
-6.98154e-05
0.00150597
-8.74307e-05
0.00150826
-0.000105747
0.00151006
-0.000124778
0.00151136
-0.000144534
0.00151215
-0.000165026
0.00151243
-0.000186264
0.00151219
-0.000208259
0.00151144
-0.000231019
0.00151017
-0.000254551
0.00150837
-0.000278864
0.00150604
-0.000303964
0.00150318
-0.000329856
0.00149979
-0.000356548
0.00149585
-0.000384044
0.00149136
-0.000412349
0.00148631
-0.000441467
0.0014807
-0.000471402
0.00147452
-0.000502157
0.00146774
-0.000533735
0.00146035
-0.00056614
0.00145233
-0.000599373
0.00144364
-0.000633437
0.00143421
-0.000668334
0.00142399
-0.000704069
0.00141286
-0.000740654
0.00140072
-0.000778133
0.00138747
-0.000816608
0.00137304
-0.000856275
0.00135745
-0.000897484
0.00134067
-0.000940624
0.00132267
-0.000985846
-0.00103443
0.0013021
0.00113019
0.00021018
-0.00111502
0.00114524
0.000207973
0.00116013
0.000205603
0.00117486
0.000203037
0.00118943
0.000200261
0.00120381
0.000197265
0.001218
0.00019404
0.00123199
0.000190577
0.00124575
0.000186865
0.00125929
0.000182893
0.00127258
0.00017865
0.00128562
0.000174126
0.00129839
0.000169307
0.00131089
0.000164183
0.00132309
0.000158739
0.00133499
0.000152963
0.00134657
0.00014684
0.00135782
0.000140357
0.00136873
0.000133499
0.00137929
0.00012625
0.00138949
0.000118595
0.00139932
0.000110517
0.00140875
0.000102001
0.0014178
9.30281e-05
0.00142644
8.3582e-05
0.00143466
7.36448e-05
0.00144246
6.31984e-05
0.00144983
5.22246e-05
0.00145676
4.07051e-05
0.00146324
2.86213e-05
0.00146928
1.59549e-05
0.00147485
2.68698e-06
0.00147995
-1.11878e-05
0.00148458
-2.56692e-05
0.00148873
-4.07882e-05
0.00149241
-5.65638e-05
0.0014956
-7.30106e-05
0.00149832
-9.0143e-05
0.00150054
-0.000107974
0.00150228
-0.000126517
0.00150353
-0.000145782
0.00150429
-0.000165781
0.00150455
-0.000186524
0.00150431
-0.000208021
0.00150357
-0.000230279
0.00150232
-0.000253307
0.00150057
-0.000277111
0.00149831
-0.000301699
0.00149552
-0.000327075
0.00149222
-0.000353246
0.00148839
-0.000380216
0.00148403
-0.000407989
0.00147914
-0.000436568
0.00147369
-0.000465956
0.00146769
-0.000496153
0.00146111
-0.000527158
0.00145394
-0.000558968
0.00144613
-0.000591571
0.00143765
-0.000624955
0.00142842
-0.0006591
0.00141834
-0.000693994
0.00140734
-0.000729647
0.00139533
-0.000766126
0.00138231
-0.000803586
0.0013683
-0.000842266
0.00135328
-0.000882464
0.00133678
-0.000924125
0.00131768
-0.000966747
-0.00100885
0.0012921
0.00112666
0.000195034
-0.00111152
0.00114167
0.000192965
0.00115653
0.000190743
0.00117123
0.000188337
0.00118576
0.000185733
0.0012001
0.000182921
0.00121425
0.000179892
0.00122819
0.000176637
0.00124191
0.000173145
0.0012554
0.000169407
0.00126864
0.00016541
0.00128162
0.000161144
0.00129433
0.000156597
0.00130676
0.000151757
0.00131889
0.000146609
0.00133071
0.000141142
0.0013422
0.000135342
0.00135337
0.000129193
0.00136419
0.00012268
0.00137465
0.000115789
0.00138474
0.000108503
0.00139445
0.000100806
0.00140377
9.26801e-05
0.00141269
8.41083e-05
0.0014212
7.50725e-05
0.00142929
6.55544e-05
0.00143695
5.55354e-05
0.00144418
4.49964e-05
0.00145097
3.39184e-05
0.00145731
2.22822e-05
0.00146319
1.00685e-05
0.00146862
-2.74162e-06
0.00147358
-1.61407e-05
0.00147806
-3.01546e-05
0.00148208
-4.48042e-05
0.00148562
-6.01084e-05
0.00148869
-7.60828e-05
0.00149129
-9.27414e-05
0.00149342
-0.000110098
0.00149506
-0.000128164
0.00149623
-0.000146952
0.00149692
-0.000166472
0.00149713
-0.000186735
0.00149686
-0.000207749
0.0014961
-0.000229522
0.00149486
-0.000252062
0.00149312
-0.000275376
0.00149089
-0.000299469
0.00148817
-0.000324347
0.00148494
-0.000350016
0.0014812
-0.00037648
0.00147695
-0.000403742
0.00147219
-0.000431804
0.0014669
-0.000460669
0.00146108
-0.000490331
0.00145471
-0.000520783
0.00144775
-0.00055201
0.00144016
-0.000583986
0.00143189
-0.000616686
0.00142288
-0.000650088
0.00141309
-0.000684201
0.00140253
-0.000719088
0.00139129
-0.000754887
0.00137949
-0.000791783
0.00136708
-0.000829858
0.00135349
-0.000868881
0.0013369
-0.000907533
0.0013139
-0.000943741
-0.000970561
0.00127561
0.00112422
0.000179916
-0.0011091
0.0011392
0.000177985
0.00115403
0.000175914
0.00116869
0.00017367
0.00118319
0.000171239
0.0011975
0.000168614
0.0012116
0.000165783
0.0012255
0.000162739
0.00123918
0.000159472
0.00125261
0.00015597
0.0012658
0.000152224
0.00127872
0.000148221
0.00129137
0.00014395
0.00130373
0.000139399
0.00131578
0.000134554
0.00132752
0.000129402
0.00133894
0.000123929
0.00135001
0.000118121
0.00136072
0.000111962
0.00137108
0.000105436
0.00138105
9.85269e-05
0.00139064
9.12174e-05
0.00139983
8.349e-05
0.00140861
7.53265e-05
0.00141698
6.67083e-05
0.00142492
5.76163e-05
0.00143242
4.8031e-05
0.00143949
3.79326e-05
0.0014461
2.7301e-05
0.00145227
1.61164e-05
0.00145798
4.35808e-06
0.00146322
-7.98635e-06
0.001468
-2.09157e-05
0.00147231
-3.44628e-05
0.00147615
-4.86472e-05
0.00147953
-6.34859e-05
0.00148244
-7.8995e-05
0.00148489
-9.51888e-05
0.00148687
-0.000112081
0.00148839
-0.000129683
0.00148944
-0.000148007
0.00149004
-0.000167064
0.00149016
-0.000186862
0.00148983
-0.000207411
0.00148902
-0.000228717
0.00148775
-0.000250788
0.001486
-0.00027363
0.00148378
-0.000297248
0.00148108
-0.00032165
0.0014779
-0.000346839
0.00147424
-0.000372819
0.0014701
-0.000399595
0.00146546
-0.000427166
0.00146032
-0.000455529
0.00145466
-0.000484672
0.00144846
-0.000514579
0.00144168
-0.000545228
0.00143429
-0.000576598
0.00142629
-0.000608689
0.00141774
-0.000641536
0.00140878
-0.000675238
0.00139962
-0.000709934
0.00139049
-0.000745752
0.00138128
-0.000782579
0.00137114
-0.000819715
0.00135775
-0.000855489
0.00133689
-0.00088668
0.0013018
-0.000908648
-0.000910792
0.00124203
0.00112295
0.000164817
-0.00110785
0.0011379
0.000163027
0.00115271
0.000161109
0.00116735
0.00015903
0.00118181
0.000156777
0.00119608
0.00015434
0.00121016
0.000151712
0.00122401
0.000148882
0.00123764
0.000145843
0.00125103
0.000142582
0.00126416
0.00013909
0.00127703
0.000135356
0.00128961
0.000131367
0.0013019
0.000127111
0.00131388
0.000122575
0.00132553
0.000117746
0.00133686
0.000112609
0.00134783
0.000107149
0.00135844
0.000101352
0.00136867
9.52e-05
0.00137852
8.86767e-05
0.00138798
8.17646e-05
0.00139702
7.44453e-05
0.00140565
6.66999e-05
0.00141385
5.85089e-05
0.00142161
4.98523e-05
0.00142893
4.07096e-05
0.0014358
3.106e-05
0.00144222
2.08824e-05
0.00144818
1.01553e-05
0.00145368
-1.14239e-06
0.00145871
-1.30119e-05