/*--------------------------------*- C++ -*----------------------------------*\
| =========                 |                                                 |
| \\      /  F ield         | OpenFOAM: The Open Source CFD Toolbox           |
|  \\    /   O peration     | Version:  2312                                  |
|   \\  /    A nd           | Website:  www.openfoam.com                      |
|    \\/     M anipulation  |                                                 |
\*---------------------------------------------------------------------------*/
FoamFile
{
    version     2.0;
    format      ascii;
    arch        "LSB;label=32;scalar=64";
    class       volVectorField;
    location    "500";
    object      U;
}
// * * * * * * * * * * * * * * * * * * * * * * * * * * * * * * * * * * * * * //

dimensions      [0 1 -1 0 0 0 0];

internalField   nonuniform List<vector> 
76025
(
(0.0411356 -0.0100108 0)
(0.0413783 -0.0100118 7.04072e-22)
(0.041623 -0.0100055 0)
(0.0418705 -0.00999396 0)
(0.0421105 -0.00997617 -1.2657e-21)
(0.0423642 -0.00994665 -2.39242e-21)
(0.0426114 -0.00991538 4.10424e-21)
(0.0428628 -0.00987258 -1.72521e-21)
(0.0431152 -0.00982655 -5.31694e-22)
(0.0433681 -0.009775 5.07844e-22)
(0.0436197 -0.00971556 1.15752e-23)
(0.0438728 -0.00964695 1.37113e-21)
(0.0441286 -0.00957313 -1.82924e-21)
(0.0443847 -0.00948875 0)
(0.0446478 -0.00939528 3.89574e-22)
(0.0449021 -0.00930067 0)
(0.045161 -0.00919129 0)
(0.0454156 -0.00907989 0)
(0.0456709 -0.00895568 3.18597e-22)
(0.0459194 -0.00883222 -2.77227e-22)
(0.0461705 -0.00869242 -2.54708e-22)
(0.0464256 -0.00854553 -7.18421e-22)
(0.0466761 -0.00839262 4.66863e-22)
(0.0469252 -0.00823065 5.6604e-22)
(0.0471729 -0.0080629 -4.46916e-23)
(0.0474153 -0.00789159 9.88712e-23)
(0.0476634 -0.00770093 -3.91183e-22)
(0.0479013 -0.0075113 3.69206e-22)
(0.0481363 -0.0073073 -1.013e-22)
(0.0483659 -0.00709076 8.01603e-23)
(0.0485905 -0.00688164 5.56271e-23)
(0.0488146 -0.00666124 -2.63006e-23)
(0.049042 -0.00641829 1.5537e-23)
(0.0492617 -0.00618358 -3.03426e-23)
(0.049475 -0.0059337 1.25475e-22)
(0.0496784 -0.00568926 1.45934e-23)
(0.0498784 -0.00542742 -4.14673e-23)
(0.0500828 -0.00514193 3.28625e-23)
(0.0502846 -0.00486509 6.24097e-24)
(0.0504779 -0.00457334 -6.13647e-23)
(0.0506616 -0.00428361 4.22991e-23)
(0.0508436 -0.00397621 -2.36036e-23)
(0.0510325 -0.00364081 5.14572e-23)
(0.0512165 -0.00331347 -1.14292e-22)
(0.0513897 -0.00297432 -1.3364e-22)
(0.0515576 -0.00263434 2.53214e-22)
(0.0517289 -0.00226779 3.02466e-22)
(0.0518988 -0.0019036 -9.4327e-22)
(0.0520572 -0.00153185 6.33532e-22)
(0.0522112 -0.00115081 3.08976e-25)
(0.0523606 -0.000758504 -1.8033e-21)
(0.0525054 -0.000348753 -7.35893e-22)
(0.052651 7.74539e-05 8.08946e-22)
(0.0527941 0.000520123 0)
(0.0529291 0.000969446 -8.41073e-22)
(0.0530574 0.0014177 -9.13732e-22)
(0.0531849 0.00189108 3.7363e-23)
(0.0533086 0.00238157 -9.4381e-22)
(0.0534244 0.00289743 1.03377e-21)
(0.053534 0.00343399 -3.08651e-21)
(0.053654 0.00398207 -2.21912e-21)
(0.053783 0.00456278 -7.5632e-23)
(0.0539098 0.00516827 0)
(0.0540307 0.00580133 6.29227e-21)
(0.0541605 0.00646822 -2.54566e-21)
(0.0543011 0.00713862 1.33795e-21)
(0.0544378 0.00788086 -2.86569e-21)
(0.0545889 0.00871326 3.12532e-21)
(0.0549064 0.00950641 6.59048e-21)
(0.0411304 -0.0104231 7.44111e-22)
(0.0413839 -0.010424 2.12705e-21)
(0.0416396 -0.0104167 -2.84217e-21)
(0.0418978 -0.0104017 0)
(0.0421556 -0.0103818 3.18699e-21)
(0.0424171 -0.0103529 -9.36522e-23)
(0.0426785 -0.0103177 -2.42188e-21)
(0.0429403 -0.0102746 0)
(0.043204 -0.0102238 1.26114e-23)
(0.0434686 -0.0101663 -5.24651e-22)
(0.0437344 -0.0101016 4.99944e-22)
(0.0440003 -0.0100292 1.58009e-23)
(0.0442658 -0.00994939 0)
(0.0445314 -0.00986185 0)
(0.0447981 -0.00976429 7.38285e-22)
(0.0450639 -0.00966125 -1.88385e-21)
(0.0453302 -0.00954794 -3.35677e-22)
(0.0455953 -0.00942846 9.3039e-22)
(0.04586 -0.00929923 -6.1874e-22)
(0.0461218 -0.00916365 2.85094e-22)
(0.0463829 -0.00901903 -2.1599e-22)
(0.0466419 -0.00886607 4.78946e-22)
(0.046899 -0.00870506 -3.85683e-22)
(0.0471542 -0.00853567 5.32477e-22)
(0.0474076 -0.00835793 -3.40368e-22)
(0.0476587 -0.00817322 -3.9457e-22)
(0.0479077 -0.007979 2.47514e-22)
(0.048152 -0.00777836 0)
(0.0483925 -0.00756867 0)
(0.0486294 -0.00734999 2.99405e-23)
(0.0488644 -0.00712166 0)
(0.0490984 -0.00688665 -1.79116e-23)
(0.0493276 -0.00664372 4.06866e-23)
(0.0495514 -0.00639508 -7.44968e-23)
(0.0497705 -0.0061391 1.42807e-23)
(0.0499852 -0.00587473 -4.43082e-23)
(0.0501968 -0.00559819 0)
(0.0504044 -0.00531286 -1.5536e-22)
(0.0506087 -0.00502137 1.32225e-22)
(0.0508082 -0.00472332 -1.15669e-22)
(0.0510024 -0.00441556 7.83864e-23)
(0.051193 -0.00409647 1.16232e-24)
(0.0513802 -0.00377009 3.4699e-23)
(0.0515634 -0.0034398 -3.23841e-23)
(0.051742 -0.00310018 2.99726e-22)
(0.0519167 -0.00274918 -1.59579e-22)
(0.0520887 -0.00238675 -1.79501e-22)
(0.0522573 -0.00201942 3.2814e-22)
(0.0524202 -0.00164072 1.08363e-21)
(0.0525785 -0.00124928 -1.6594e-24)
(0.0527325 -0.000846318 1.16192e-21)
(0.0528822 -0.000429652 -4.19162e-22)
(0.0530295 -7.11428e-07 -1.28343e-21)
(0.0531748 0.000436974 8.62287e-22)
(0.0533165 0.000884247 0)
(0.0534536 0.00134971 2.88487e-21)
(0.0535888 0.00183045 4.80243e-23)
(0.0537211 0.00232507 -1.00533e-21)
(0.0538501 0.00283518 -1.0883e-21)
(0.0539784 0.00336415 0)
(0.0541084 0.00392276 1.07642e-21)
(0.0542451 0.00450229 3.52423e-21)
(0.0543858 0.00509855 0)
(0.0545296 0.00572024 -2.57175e-21)
(0.0546812 0.00637387 1.48832e-21)
(0.0548405 0.00706134 -2.87911e-21)
(0.0550115 0.00779167 1.46907e-21)
(0.0551902 0.00856662 -3.16517e-21)
(0.0554547 0.00931629 -3.36504e-21)
(0.0411302 -0.0108698 -3.75478e-21)
(0.041393 -0.0108694 2.26666e-21)
(0.0416587 -0.0108607 -7.06069e-22)
(0.0419271 -0.0108443 2.67359e-21)
(0.0421979 -0.0108208 -3.30904e-21)
(0.0424699 -0.0107902 -2.44994e-21)
(0.0427434 -0.010752 3.03122e-21)
(0.0430182 -0.0107063 0)
(0.0432942 -0.0106529 1.26708e-23)
(0.0435712 -0.0105916 0)
(0.0438487 -0.0105226 -4.8137e-22)
(0.0441263 -0.0104457 4.69695e-22)
(0.0444035 -0.0103607 2.12143e-21)
(0.0446801 -0.0102678 -1.69037e-21)
(0.0449562 -0.0101666 3.92819e-22)
(0.0452321 -0.0100569 1.06049e-21)
(0.0455075 -0.00993899 -3.49443e-22)
(0.0457822 -0.00981251 -3.18018e-22)
(0.0460558 -0.00967784 -8.15007e-22)
(0.0463281 -0.00953438 5.42527e-22)
(0.0465986 -0.00938281 2.22645e-22)
(0.0468667 -0.00922286 -3.95467e-22)
(0.0471326 -0.00905457 2.22756e-22)
(0.0473963 -0.00887788 1.48903e-22)
(0.0476575 -0.00869289 0)
(0.0479158 -0.00849976 -1.00154e-22)
(0.0481705 -0.00829884 -7.87682e-23)
(0.0484217 -0.0080897 1.03623e-22)
(0.0486696 -0.00787196 0)
(0.0489143 -0.00764599 -3.3518e-23)
(0.0491562 -0.00741122 -2.15807e-23)
(0.0493945 -0.00716952 -2.82697e-23)
(0.0496283 -0.00692099 0)
(0.0498579 -0.00666481 3.40303e-23)
(0.0500835 -0.00640133 -1.66934e-22)
(0.0503047 -0.0061303 1.21066e-22)
(0.0505219 -0.00584938 0)
(0.0507351 -0.00555991 1.37162e-22)
(0.0509446 -0.00526213 -1.48599e-22)
(0.05115 -0.0049566 -2.60781e-23)
(0.0513507 -0.00464234 0)
(0.051547 -0.00431947 -6.56024e-23)
(0.0517395 -0.00398791 -3.6442e-23)
(0.0519285 -0.00364761 3.51747e-23)
(0.0521134 -0.003298 -2.28513e-22)
(0.0522938 -0.00293902 -1.74022e-22)
(0.0524703 -0.00257072 3.39353e-22)
(0.052643 -0.00219362 -3.79712e-22)
(0.0528112 -0.00180672 3.97745e-22)
(0.052975 -0.00140951 -3.91926e-22)
(0.053135 -0.0010018 -4.07865e-22)
(0.0532915 -0.000582619 8.96065e-22)
(0.0534455 -0.000151685 0)
(0.0535974 0.000290844 9.6221e-22)
(0.0537466 0.000746004 -3.08582e-25)
(0.0538929 0.00121467 -1.03238e-21)
(0.0540373 0.00169697 -1.06852e-21)
(0.0541805 0.00219395 2.16378e-21)
(0.0543227 0.00270808 5.31913e-24)
(0.0544649 0.00324182 1.1802e-21)
(0.0546099 0.00379669 -2.44427e-21)
(0.054761 0.00437041 -1.25438e-21)
(0.0549176 0.00496565 6.60909e-23)
(0.0550799 0.00558626 -1.32007e-21)
(0.0552505 0.00623555 -1.3374e-21)
(0.0554315 0.00691403 -4.44023e-21)
(0.05563 0.00762883 0)
(0.0558296 0.00838722 -1.71254e-21)
(0.0561211 0.00914728 1.68529e-21)
(0.0411332 -0.0113455 0)
(0.0414077 -0.0113439 7.52371e-22)
(0.0416847 -0.0113335 3.54427e-21)
(0.0419639 -0.0113152 -2.80752e-21)
(0.0422454 -0.0112894 -1.9179e-21)
(0.0425288 -0.0112559 3.19141e-21)
(0.042814 -0.0112145 -6.04973e-22)
(0.0431008 -0.0111654 5.62985e-22)
(0.0433888 -0.0111083 5.4792e-22)
(0.0436777 -0.0110432 1.99723e-21)
(0.0439669 -0.01097 -1.97434e-21)
(0.0442564 -0.0108884 -1.77131e-21)
(0.0445458 -0.0107984 4.99924e-22)
(0.0448347 -0.0106999 1.60318e-21)
(0.0451229 -0.0105927 -1.1362e-21)
(0.0454103 -0.0104769 3.3522e-22)
(0.0456966 -0.0103525 -3.08066e-22)
(0.0459817 -0.0102194 -2.81196e-22)
(0.0462653 -0.0100776 7.86041e-22)
(0.0465472 -0.00992713 -2.79966e-22)
(0.0468272 -0.00976801 -2.26808e-22)
(0.047105 -0.00960024 0)
(0.0473804 -0.00942386 -2.77144e-22)
(0.047653 -0.00923897 1.52182e-22)
(0.0479227 -0.00904566 2.02611e-22)
(0.0481891 -0.00884405 1.25573e-22)
(0.0484521 -0.00863412 -2.79413e-22)
(0.0487115 -0.00841577 7.63713e-23)
(0.0489673 -0.00818913 0)
(0.0492193 -0.00795425 -2.36935e-23)
(0.0494675 -0.00771142 -2.69644e-23)
(0.0497118 -0.00746103 9.64377e-23)
(0.0499519 -0.00720307 -1.00285e-22)
(0.050188 -0.00693741 2.92831e-22)
(0.0504198 -0.00666428 -4.90728e-23)
(0.0506472 -0.00638356 0)
(0.0508703 -0.00609331 0)
(0.0510891 -0.00579451 5.70799e-23)
(0.0513036 -0.00548761 5.46399e-23)
(0.0515136 -0.00517287 3.37259e-23)
(0.0517191 -0.00485007 -1.1306e-24)
(0.0519202 -0.00451898 3.48754e-23)
(0.0521171 -0.0041794 0)
(0.0523099 -0.00383157 -7.09565e-24)
(0.0524985 -0.00347552 0)
(0.0526828 -0.00311093 1.74257e-22)
(0.0528632 -0.00273739 1.08137e-23)
(0.0530399 -0.0023548 -6.05956e-22)
(0.0532127 -0.00196288 0)
(0.0533817 -0.00156091 -4.42696e-22)
(0.0535475 -0.00114834 4.37483e-22)
(0.0537103 -0.000724674 -9.05458e-22)
(0.0538706 -0.000289523 0)
(0.0540289 0.000157185 -3.00892e-21)
(0.0541852 0.000615799 -3.30291e-26)
(0.0543399 0.00108711 1.03986e-21)
(0.0544935 0.00157223 1.07464e-21)
(0.0546468 0.002072 0)
(0.0548003 0.00258774 0)
(0.0549555 0.00312073 -1.19116e-21)
(0.0551141 0.00367249 2.46605e-21)
(0.055278 0.00424357 2.55715e-21)
(0.0554483 0.00483531 0)
(0.0556262 0.00544953 -2.82597e-21)
(0.0558143 0.00608926 0)
(0.0560142 0.00675672 4.59003e-21)
(0.056234 0.00745719 -1.55348e-21)
(0.0564576 0.0081972 -1.74915e-21)
(0.0567751 0.00893986 -1.85585e-21)
(0.0411421 -0.011848 0)
(0.0414297 -0.0118451 0)
(0.0417195 -0.0118328 7.20786e-22)
(0.0420112 -0.0118122 -2.71768e-21)
(0.0423048 -0.0117836 3.35874e-21)
(0.0426002 -0.011747 -6.36233e-22)
(0.0428972 -0.0117021 0)
(0.0431957 -0.0116491 -5.7502e-22)
(0.0434956 -0.0115877 0)
(0.0437963 -0.0115179 -9.84632e-22)
(0.0440976 -0.0114395 7.57704e-23)
(0.0443992 -0.0113524 9.21535e-22)
(0.0447006 -0.0112565 0)
(0.0450017 -0.0111518 -7.48063e-22)
(0.0453021 -0.0110382 2.15403e-21)
(0.0456014 -0.0109156 -1.34689e-21)
(0.0458994 -0.010784 1.52454e-21)
(0.0461958 -0.0106435 -2.90377e-22)
(0.0464903 -0.010494 2.33316e-22)
(0.0467827 -0.0103356 -2.32496e-22)
(0.0470728 -0.0101682 -1.80509e-22)
(0.0473604 -0.00999196 5.10314e-22)
(0.0476451 -0.00980691 2.77567e-22)
(0.0479268 -0.00961315 0)
(0.0482051 -0.00941079 -1.4794e-22)
(0.0484801 -0.00919987 -2.31685e-23)
(0.0487513 -0.00898052 1.46151e-22)
(0.0490186 -0.00875283 -2.41716e-23)
(0.0492819 -0.00851693 -5.91344e-23)
(0.0495411 -0.00827294 8.66517e-23)
(0.0497961 -0.00802102 -8.57482e-23)
(0.0500468 -0.00776136 5.6101e-23)
(0.0502932 -0.00749413 0)
(0.0505351 -0.00721949 -6.61323e-23)
(0.0507724 -0.00693761 -7.97352e-23)
(0.051005 -0.0066479 0)
(0.0512331 -0.00634922 1.20884e-22)
(0.0514566 -0.00604235 -1.86968e-22)
(0.0516754 -0.00572768 1.2762e-22)
(0.0518897 -0.00540527 -7.20646e-23)
(0.0520995 -0.00507501 -1.38413e-24)
(0.0523048 -0.00473677 -6.3827e-23)
(0.0525059 -0.00439044 2.08215e-23)
(0.0527028 -0.00403604 8.69804e-23)
(0.0528956 -0.0036734 1.93397e-24)
(0.0530844 -0.00330227 5.89389e-22)
(0.0532694 -0.00292235 0)
(0.0534508 -0.00253349 4.16238e-22)
(0.0536288 -0.00213541 -2.6769e-24)
(0.0538035 -0.00172767 -4.5104e-22)
(0.0539752 -0.00130986 0)
(0.0541444 -0.000881632 -5.04832e-22)
(0.0543115 -0.00044255 4.98995e-22)
(0.054477 7.71229e-06 1.02902e-21)
(0.0546411 0.000469675 0)
(0.0548044 0.000944002 -2.23689e-21)
(0.0549672 0.00143157 2.30339e-21)
(0.0551304 0.00193306 -2.37314e-21)
(0.0552946 0.00244953 -4.40711e-23)
(0.0554611 0.00298199 0)
(0.0556311 0.0035316 -1.32736e-21)
(0.0558064 0.00409901 1.3278e-21)
(0.0559886 0.00468535 1.4456e-21)
(0.0561795 0.00529205 2.84688e-21)
(0.0563821 0.00592166 -4.54132e-21)
(0.0565985 0.00657605 3.12027e-21)
(0.0568375 0.00725921 -1.58462e-21)
(0.0570854 0.00798098 1.66182e-21)
(0.0574285 0.00869213 5.34598e-21)
(0.0411548 -0.0123789 -3.12065e-21)
(0.0414564 -0.0123747 1.23277e-22)
(0.0417605 -0.0123606 2.97495e-21)
(0.0420662 -0.0123376 0)
(0.0423736 -0.0123062 -6.68946e-22)
(0.0426824 -0.0122662 0)
(0.0429926 -0.0122175 1.16046e-21)
(0.0433039 -0.0121602 -6.07016e-23)
(0.0436163 -0.0120941 -1.60919e-21)
(0.0439294 -0.0120191 4.8642e-22)
(0.044243 -0.0119351 4.75688e-22)
(0.0445568 -0.011842 4.21948e-22)
(0.0448703 -0.0117397 0)
(0.0451834 -0.0116282 0)
(0.0454957 -0.0115075 -3.53869e-22)
(0.0458069 -0.0113774 -3.24296e-22)
(0.0461166 -0.0112381 5.35577e-22)
(0.0464244 -0.0110895 -5.34882e-22)
(0.0467301 -0.0109317 -4.46409e-22)
(0.0470334 -0.0107647 3.62823e-22)
(0.047334 -0.0105884 -6.99702e-22)
(0.0476317 -0.0104032 2.47936e-23)
(0.0479261 -0.0102089 2.19655e-22)
(0.0482171 -0.0100057 6.73933e-23)
(0.0485045 -0.00979376 8.72309e-23)
(0.0487879 -0.0095732 -8.7455e-23)
(0.0490673 -0.00934409 2.01003e-23)
(0.0493425 -0.00910662 -2.01717e-23)
(0.0496133 -0.00886095 0)
(0.0498795 -0.00860723 0)
(0.0501412 -0.00834564 2.65057e-22)
(0.0503983 -0.00807637 4.40118e-23)
(0.0506506 -0.00779965 -1.44825e-22)
(0.0508981 -0.00751565 -1.9871e-22)
(0.0511407 -0.00722463 2.00279e-22)
(0.0513786 -0.00692524 0)
(0.0516115 -0.00661743 -1.22021e-22)
(0.0518396 -0.00630165 -2.2254e-22)
(0.052063 -0.00597818 1.45473e-22)
(0.0522817 -0.00564712 -4.15934e-24)
(0.0524957 -0.00530843 -1.39488e-23)
(0.0527054 -0.00496206 6.49691e-23)
(0.0529106 -0.00460795 4.93148e-23)
(0.0531118 -0.00424601 1.01686e-22)
(0.0533089 -0.00387615 -5.11134e-22)
(0.0535022 -0.00349818 1.71124e-24)
(0.0536918 -0.00311188 0)
(0.0538781 -0.00271705 -4.75433e-22)
(0.0540612 -0.00231338 1.44234e-21)
(0.0542416 -0.00190053 -9.88211e-22)
(0.0544194 -0.00147807 -5.19071e-22)
(0.0545951 -0.00104561 -2.36145e-23)
(0.054769 -0.000602695 -5.48696e-22)
(0.0549417 -0.00014893 -4.39692e-23)
(0.0551134 0.000316197 1.11887e-21)
(0.0552846 0.000793204 -1.1952e-21)
(0.0554557 0.0012828 -1.22813e-21)
(0.0556275 0.00178558 2.47632e-21)
(0.0558006 0.00230234 4.64011e-24)
(0.0559762 0.00283377 1.33286e-21)
(0.0561553 0.00338068 -1.31777e-21)
(0.0563398 0.00394365 1.36764e-21)
(0.0565316 0.00452358 -2.82307e-21)
(0.056733 0.00512142 -1.50676e-21)
(0.0569475 0.00573906 2.95468e-21)
(0.0571784 0.00637805 -1.62883e-21)
(0.0574344 0.00704143 -5.00337e-21)
(0.0577043 0.00774034 -1.77655e-21)
(0.0580731 0.00841752 0)
(0.0411686 -0.0129399 0)
(0.0414855 -0.0129345 -7.6428e-22)
(0.0418049 -0.0129186 -1.43627e-23)
(0.0421258 -0.0128931 0)
(0.0424485 -0.0128588 0)
(0.0427724 -0.0128154 -6.14284e-22)
(0.0430973 -0.0127628 1.72394e-21)
(0.0434231 -0.012701 -2.21609e-21)
(0.0437496 -0.0126299 1.09342e-21)
(0.0440765 -0.0125494 -4.96045e-22)
(0.0444035 -0.0124594 0)
(0.0447303 -0.0123599 -4.30093e-22)
(0.0450567 -0.0122507 3.70872e-22)
(0.0453823 -0.0121319 0)
(0.0457068 -0.0120035 0)
(0.0460299 -0.0118654 -2.74777e-22)
(0.0463514 -0.0117176 6.08879e-23)
(0.0466708 -0.0115602 4.8575e-22)
(0.0469878 -0.0113933 3.97449e-22)
(0.0473021 -0.0112169 -3.64973e-22)
(0.0476134 -0.011031 -1.53931e-22)
(0.0479214 -0.0108358 -4.05487e-22)
(0.0482259 -0.0106314 3.08701e-23)
(0.0485264 -0.010418 7.07427e-24)
(0.0488229 -0.0101957 -7.57371e-23)
(0.0491151 -0.00996461 -1.27324e-23)
(0.0494028 -0.009725 3.6126e-23)
(0.0496858 -0.00947699 0)
(0.0499641 -0.00922075 0)
(0.0502374 -0.00895649 0)
(0.0505058 -0.00868443 -6.19958e-23)
(0.0507691 -0.0084048 -1.63927e-22)
(0.0510273 -0.0081178 1.8412e-22)
(0.0512804 -0.00782365 2.3894e-22)
(0.0515282 -0.00752271 -2.4076e-22)
(0.0517712 -0.00721291 0)
(0.0520089 -0.00689529 1.56233e-22)
(0.0522416 -0.00657007 -7.83665e-23)
(0.0524693 -0.00623746 0)
(0.0526922 -0.00589759 9.02051e-23)
(0.0529104 -0.00555047 -1.78585e-23)
(0.0531241 -0.00519606 1.20409e-23)
(0.0533335 -0.0048343 -4.97743e-23)
(0.0535388 -0.00446511 0)
(0.0537402 -0.00408836 -2.289e-22)
(0.0539379 -0.00370388 2.26063e-22)
(0.0541323 -0.00331145 0)
(0.0543235 -0.00291081 -2.47336e-23)
(0.0545119 -0.00250166 3.03735e-24)
(0.0546979 -0.00208367 5.11014e-22)
(0.0548816 -0.00165645 0)
(0.0550634 -0.00121963 -2.5859e-23)
(0.0552438 -0.00077279 -5.56841e-22)
(0.0554231 -0.00031553 -1.7863e-21)
(0.0556015 0.000152626 -4.55054e-23)
(0.0557796 0.000632114 1.20571e-21)
(0.0559577 0.00112351 0)
(0.0561364 0.00162727 0)
(0.0563166 0.00214397 1.33934e-21)
(0.0564992 0.00267401 0)
(0.0566854 0.00321795 0)
(0.0568771 0.00377606 1.42541e-23)
(0.0570765 0.00434892 -1.43267e-21)
(0.0572865 0.00493698 -3.0428e-21)
(0.0575108 0.00554143 3.06681e-21)
(0.0577537 0.00616341 -5.71274e-24)
(0.058024 0.00680445 1.61406e-21)
(0.0583147 0.00747753 1.68775e-21)
(0.0587046 0.00811688 0)
(0.041183 -0.0135329 0)
(0.0415163 -0.0135261 7.80621e-22)
(0.0418519 -0.0135082 -2.17266e-21)
(0.0421891 -0.0134802 7.39353e-22)
(0.042528 -0.0134428 0)
(0.0428681 -0.0133957 1.82605e-21)
(0.0432092 -0.0133389 -2.90694e-21)
(0.043551 -0.0132723 6.86688e-23)
(0.0438932 -0.0131959 2.53888e-21)
(0.0442355 -0.0131096 -5.17851e-22)
(0.0445775 -0.0130133 4.18201e-22)
(0.0449189 -0.0129068 3.82444e-22)
(0.0452595 -0.0127903 -1.07205e-21)
(0.0455988 -0.0126636 1.31841e-21)
(0.0459367 -0.0125268 -6.24597e-22)
(0.0462728 -0.01238 2.15152e-22)
(0.0466067 -0.012223 -9.21463e-22)
(0.0469382 -0.0120561 2.48675e-22)
(0.0472669 -0.0118792 -1.18819e-22)
(0.0475925 -0.0116926 1.77568e-22)
(0.0479147 -0.0114963 6.07884e-23)
(0.0482332 -0.0112903 4.46198e-22)
(0.0485477 -0.011075 3.68709e-24)
(0.0488579 -0.0108505 -5.85518e-23)
(0.0491636 -0.0106169 3.2588e-23)
(0.0494646 -0.0103744 -2.36702e-23)
(0.0497607 -0.0101234 1.70032e-22)
(0.0500516 -0.00986397 -2.91062e-22)
(0.0503373 -0.00959636 0)
(0.0506177 -0.0093208 -1.69259e-22)
(0.0508926 -0.00903754 1.70042e-22)
(0.0511621 -0.00874684 2.05231e-23)
(0.0514261 -0.00844893 -1.30863e-22)
(0.0516846 -0.00814406 -1.4517e-22)
(0.0519374 -0.00783251 4.69786e-22)
(0.0521852 -0.00751209 -3.06444e-22)
(0.0524275 -0.00718431 2.67073e-22)
(0.0526644 -0.00684938 -3.61119e-22)
(0.0528963 -0.00650743 1.84273e-22)
(0.0531232 -0.00615857 -4.7696e-23)
(0.0533454 -0.00580282 0)
(0.053563 -0.00544017 5.56899e-23)
(0.0537764 -0.00507055 -5.49819e-23)
(0.0539857 -0.00469388 -1.19466e-22)
(0.0541913 -0.00431001 3.64663e-22)
(0.0543933 -0.0039188 -2.46367e-22)
(0.0545921 -0.00352001 -2.51171e-22)
(0.054788 -0.00311341 0)
(0.0549812 -0.00269869 -1.11013e-21)
(0.0551722 -0.00227554 1.11375e-21)
(0.0553611 -0.0018436 -5.57252e-22)
(0.0555483 -0.0014025 5.51303e-22)
(0.0557342 -0.000951833 5.91467e-22)
(0.0559189 -0.000491212 1.20453e-21)
(0.0561029 -2.01981e-05 1.23187e-21)
(0.0562865 0.000461584 0)
(0.0564702 0.000954586 -1.33355e-21)
(0.0566545 0.00145912 0)
(0.0568402 0.00197558 4.14122e-23)
(0.0570283 0.00250411 -1.38144e-21)
(0.0572201 0.00304497 1.40451e-21)
(0.0574176 0.0035981 1.44587e-21)
(0.0576231 0.00416366 -1.50034e-21)
(0.0578396 0.00474148 -3.58766e-23)
(0.0580715 0.00533203 -2.50399e-23)
(0.0583235 0.00593569 4.82386e-21)
(0.0586047 0.00655204 1.64904e-21)
(0.0589126 0.00719668 1.7728e-21)
(0.0593161 0.00778672 -1.74214e-21)
(0.0411989 -0.0141602 0)
(0.0415494 -0.0141518 0)
(0.0419021 -0.0141315 -1.42085e-21)
(0.0422564 -0.0141006 2.10927e-21)
(0.0426125 -0.0140598 6.32768e-22)
(0.0429697 -0.0140087 0)
(0.0433278 -0.0139472 0)
(0.0436865 -0.0138755 -5.1055e-22)
(0.0440456 -0.0137935 9.37857e-22)
(0.0444045 -0.0137009 -1.03197e-22)
(0.0447629 -0.0135977 -2.07014e-21)
(0.0451204 -0.0134839 3.93833e-22)
(0.0454766 -0.0133594 -3.21208e-22)
(0.0458312 -0.0132243 6.37857e-22)
(0.0461838 -0.0130786 -2.46577e-22)
(0.0465341 -0.0129223 0)
(0.0468817 -0.0127555 0)
(0.0472263 -0.0125783 3.00953e-23)
(0.0475677 -0.0123908 4.04851e-22)
(0.0479054 -0.0121931 -1.17994e-22)
(0.0482392 -0.0119854 4.49988e-23)
(0.0485687 -0.0117679 -5.54848e-23)
(0.0488937 -0.0115407 2.87572e-24)
(0.0492139 -0.0113042 2.76554e-23)
(0.0495291 -0.0110585 -3.49588e-23)
(0.049839 -0.0108039 0)
(0.0501435 -0.0105406 0)
(0.0504424 -0.0102689 2.05453e-22)
(0.0507355 -0.00998909 0)
(0.0510227 -0.00970141 2.14282e-22)
(0.0513041 -0.00940618 -2.15214e-22)
(0.0515796 -0.00910367 -1.18281e-22)
(0.0518491 -0.00879417 1.32618e-22)
(0.0521128 -0.00847796 3.1626e-22)
(0.0523705 -0.00815485 -1.60598e-22)
(0.0526227 -0.00782349 -1.88285e-22)
(0.0528692 -0.00748504 1.96238e-22)
(0.0531102 -0.00713987 0)
(0.0533458 -0.0067881 0)
(0.0535764 -0.00642981 5.75043e-23)
(0.0538021 -0.00606505 0)
(0.0540233 -0.00569381 0)
(0.0542402 -0.00531604 -1.88524e-22)
(0.0544531 -0.00493167 2.54109e-22)
(0.0546622 -0.00454055 -1.34207e-22)
(0.054868 -0.00414253 2.59154e-22)
(0.0550705 -0.00373738 0)
(0.0552703 -0.00332486 8.62064e-22)
(0.0554676 -0.00290465 -4.20398e-24)
(0.0556626 -0.00247646 0)
(0.0558558 -0.00203991 -1.20803e-21)
(0.0560474 -0.00159465 -3.54301e-24)
(0.0562376 -0.00114026 -1.23773e-21)
(0.0564268 -0.000676378 -6.56701e-22)
(0.0566153 -0.000202613 -1.33453e-21)
(0.0568034 0.000281367 1.31903e-21)
(0.0569917 0.000775907 1.34401e-21)
(0.0571807 0.00128121 0)
(0.0573711 0.00179748 -1.43817e-21)
(0.0575639 0.00232467 -4.22172e-24)
(0.0577605 0.00286271 0)
(0.0579626 0.00341118 0)
(0.0581727 0.00396973 1.51099e-21)
(0.0583939 0.0045375 0)
(0.0586305 0.00511404 0)
(0.0588876 0.00569865 -1.57584e-21)
(0.0591746 0.0062889 -1.64562e-21)
(0.0594894 0.00689971 -1.66732e-21)
(0.0598986 0.00744502 0)
(0.0412174 -0.0148249 0)
(0.0415861 -0.0148145 0)
(0.041957 -0.0147916 0)
(0.0423294 -0.0147573 6.6187e-22)
(0.0427034 -0.0147125 5.80098e-22)
(0.0430785 -0.0146569 -7.85268e-23)
(0.0434544 -0.0145904 -1.13289e-21)
(0.0438308 -0.014513 5.20212e-22)
(0.0442075 -0.0144246 -4.45308e-22)
(0.0445838 -0.0143251 -8.43898e-22)
(0.0449595 -0.0142145 0)
(0.0453339 -0.0140926 0)
(0.0457068 -0.0139595 -3.37665e-23)
(0.0460777 -0.0138152 -8.20047e-22)
(0.0464462 -0.0136598 8.87107e-22)
(0.0468119 -0.0134934 -7.07905e-23)
(0.0471744 -0.0133159 -3.54312e-22)
(0.0475334 -0.0131276 -1.45371e-22)
(0.0478885 -0.0129286 -4.49805e-23)
(0.0482393 -0.0127191 0)
(0.0485855 -0.0124993 -4.52104e-23)
(0.0489269 -0.0122693 0)
(0.0492631 -0.0120295 8.28221e-23)
(0.0495939 -0.01178 -2.21779e-22)
(0.0499191 -0.0115213 3.00151e-22)
(0.0502383 -0.0112535 1.57368e-22)
(0.0505514 -0.010977 -2.69989e-22)
(0.0508584 -0.0106921 2.9811e-22)
(0.051159 -0.0103992 -2.0622e-22)
(0.0514531 -0.0100985 0)
(0.0517409 -0.00979038 -2.92089e-22)
(0.0520222 -0.00947523 -1.9349e-22)
(0.0522971 -0.00915334 3.22508e-22)
(0.0525656 -0.00882509 -3.66349e-22)
(0.0528279 -0.00848952 2.01481e-22)
(0.0530841 -0.00814656 -1.98838e-22)
(0.0533344 -0.00779689 -1.02213e-22)
(0.0535788 -0.00744094 1.17704e-22)
(0.0538177 -0.00707887 5.84492e-23)
(0.0540514 -0.00671076 -1.75804e-22)
(0.05428 -0.00633667 -1.62272e-23)
(0.0545041 -0.00595659 0)
(0.0547237 -0.0055705 6.39358e-23)
(0.0549393 -0.0051783 -1.31602e-22)
(0.0551512 -0.00477985 1.35227e-22)
(0.0553597 -0.004375 0)
(0.0555652 -0.0039635 0)
(0.0557679 -0.0035451 3.17097e-22)
(0.0559682 -0.00311948 -6.0108e-22)
(0.0561665 -0.00268633 -1.27395e-21)
(0.056363 -0.00224528 2.54871e-21)
(0.0565581 -0.00179595 -6.63373e-22)
(0.0567519 -0.00133796 6.52022e-22)
(0.056945 -0.000870935 6.61721e-22)
(0.0571375 -0.000394504 -1.39351e-21)
(0.0573299 9.1645e-05 1.37728e-21)
(0.0575225 0.000587774 0)
(0.057716 0.00109402 -1.46565e-21)
(0.0579109 0.00161043 4.61446e-25)
(0.0581081 0.00213677 1.46838e-21)
(0.0583088 0.00267266 0)
(0.0585147 0.00321731 0)
(0.0587277 0.00376974 0)
(0.0589509 0.00432835 3.15149e-21)
(0.0591884 0.00489154 1.6175e-21)
(0.0594457 0.00545739 1.65168e-21)
(0.059731 0.00602068 -3.24099e-21)
(0.0600465 0.00660022 5.9065e-23)
(0.0604558 0.00707481 1.63513e-21)
(0.0412397 -0.0155307 0)
(0.0416277 -0.015518 1.47026e-21)
(0.0420179 -0.0154919 -1.80623e-21)
(0.0424095 -0.0154539 9.25202e-22)
(0.0428026 -0.0154046 -1.86547e-21)
(0.0431966 -0.0153439 -5.48956e-22)
(0.0435913 -0.0152716 -5.03128e-22)
(0.0439863 -0.0151877 0)
(0.0443813 -0.0150923 8.67126e-22)
(0.0447758 -0.0149851 7.85707e-22)
(0.0451693 -0.0148661 -7.41027e-22)
(0.0455614 -0.0147353 2.85726e-22)
(0.0459515 -0.0145927 -2.09576e-22)
(0.0463394 -0.0144384 3.27406e-22)
(0.0467245 -0.0142724 7.16595e-22)
(0.0471063 -0.0140948 -7.40658e-23)
(0.0474845 -0.0139057 -7.276e-23)
(0.0478586 -0.0137053 -1.95187e-22)
(0.0482282 -0.0134938 -6.76227e-23)
(0.048593 -0.0132714 1.5263e-23)
(0.0489525 -0.0130384 3.63042e-23)
(0.0493064 -0.0127949 0)
(0.0496545 -0.0125413 5.22768e-23)
(0.0499965 -0.012278 0)
(0.0503321 -0.0120051 -1.28889e-22)
(0.050661 -0.0117231 -1.59568e-22)
(0.0509832 -0.0114324 9.48913e-23)
(0.0512984 -0.0111333 0)
(0.0516066 -0.0108262 1.50781e-22)
(0.0519077 -0.0105115 3.16965e-22)
(0.0522017 -0.0101897 -3.18175e-22)
(0.0524886 -0.00986097 1.6821e-22)
(0.0527686 -0.00952585 -4.03328e-22)
(0.0530414 -0.00918479 8.18879e-22)
(0.053308 -0.00883598 -2.13788e-22)
(0.0535678 -0.0084807 0)
(0.0538212 -0.00811928 -1.25674e-22)
(0.0540685 -0.00775206 1.13191e-23)
(0.0543099 -0.00737926 1.92179e-22)
(0.0545458 -0.00700096 -1.62804e-22)
(0.0547766 -0.00661723 3.19525e-23)
(0.0550026 -0.00622809 -1.07036e-22)
(0.0552242 -0.00583349 7.00504e-23)
(0.0554417 -0.00543334 0)
(0.0556555 -0.00502751 0)
(0.0558659 -0.00461581 0)
(0.0560734 -0.00419801 3.20012e-22)
(0.0562784 -0.00377382 3.25917e-22)
(0.0564811 -0.00334293 0)
(0.056682 -0.00290498 6.50043e-22)
(0.0568814 -0.00245961 6.91238e-22)
(0.0570796 -0.00200642 6.97871e-22)
(0.057277 -0.001545 0)
(0.0574739 -0.00107495 0)
(0.0576706 -0.000595905 -1.45426e-21)
(0.0578674 -0.000107538 1.43732e-21)
(0.0580647 0.000390373 0)
(0.0582628 0.000897944 1.47668e-21)
(0.0584623 0.00141507 -1.49738e-21)
(0.0586638 0.00194141 -1.5535e-21)
(0.058868 0.00247627 1.56579e-21)
(0.0590763 0.00301847 -1.54695e-21)
(0.0592901 0.00356639 0)
(0.0595122 0.00411762 -1.57805e-21)
(0.0597457 0.00466916 8.17348e-24)
(0.0599965 0.00521783 -3.14908e-21)
(0.060271 0.00575439 -3.16386e-21)
(0.0605791 0.00630208 3.20003e-21)
(0.0609819 0.00670195 -1.64006e-21)
(0.0412666 -0.0162807 3.85701e-22)
(0.0416753 -0.0162654 0)
(0.0420861 -0.0162357 3.52554e-22)
(0.0424981 -0.0161934 -1.5589e-21)
(0.0429115 -0.0161391 2.67837e-21)
(0.0433258 -0.0160726 -5.66458e-22)
(0.0437404 -0.0159938 5.12122e-22)
(0.0441551 -0.0159028 -8.48059e-22)
(0.0445695 -0.0157995 4.2245e-22)
(0.0449831 -0.0156838 3.76614e-22)
(0.0453954 -0.0155556 2.84355e-22)
(0.0458059 -0.0154149 -7.84235e-22)
(0.0462141 -0.0152618 2.93983e-22)
(0.0466196 -0.0150964 -4.83345e-22)
(0.0470219 -0.0149187 -8.93198e-23)
(0.0474204 -0.0147288 7.73842e-23)
(0.0478148 -0.014527 1.68959e-22)
(0.0482045 -0.0143134 0)
(0.0485891 -0.0140882 0)
(0.0489682 -0.0138517 -7.53427e-23)
(0.0493414 -0.0136042 -5.28229e-23)
(0.0497083 -0.013346 -2.61022e-22)
(0.0500686 -0.0130774 1.41009e-22)
(0.050422 -0.0127988 3.9092e-22)
(0.0507682 -0.0125105 -3.91076e-22)
(0.051107 -0.0122131 1.36647e-22)
(0.0514383 -0.011907 1.51831e-22)
(0.0517618 -0.0115925 0)
(0.0520775 -0.0112702 -1.52691e-22)
(0.0523853 -0.0109404 -3.75445e-22)
(0.0526853 -0.0106037 -2.73387e-23)
(0.0529776 -0.0102605 4.05791e-22)
(0.0532623 -0.00991124 -2.38599e-22)
(0.0535391 -0.00955618 0)
(0.0538092 -0.00919367 1.3055e-22)
(0.0540719 -0.00882532 -1.34808e-22)
(0.0543278 -0.00845152 1.26408e-22)
(0.0545772 -0.00807252 -2.7307e-22)
(0.0548204 -0.00768852 0)
(0.0550578 -0.00729967 -3.73459e-23)
(0.05529 -0.00690603 3.68045e-23)
(0.0555172 -0.00650761 -5.95692e-23)
(0.0557399 -0.00610437 2.31477e-22)
(0.0559586 -0.00569623 -4.72144e-22)
(0.0561736 -0.00528304 3.14163e-22)
(0.0563854 -0.00486458 3.29862e-22)
(0.0565945 -0.00444061 -3.08272e-22)
(0.0568013 -0.00401083 6.99676e-22)
(0.0570062 -0.00357489 -6.74477e-22)
(0.0572096 -0.0031324 -1.74084e-21)
(0.0574119 -0.00268297 5.38732e-24)
(0.0576135 -0.00222613 -7.0285e-22)
(0.0578146 -0.00176147 0)
(0.0580157 -0.00128852 0)
(0.058217 -0.000806879 -1.51726e-21)
(0.0584186 -0.000316174 2.26373e-21)
(0.0586209 0.000183825 -1.519e-21)
(0.0588241 0.000693244 0)
(0.0590282 0.00121191 1.59356e-21)
(0.0592337 0.0017394 3.16326e-21)
(0.0594407 0.00227476 -1.57354e-21)
(0.0596501 0.0028165 -2.36835e-23)
(0.0598624 0.00336235 1.5905e-21)
(0.0600795 0.00390909 4.78585e-25)
(0.0603032 0.00445217 -3.16912e-21)
(0.0605397 0.00498693 3.14825e-21)
(0.0607932 0.00549969 1.56982e-21)
(0.0610871 0.00601765 0)
(0.0614594 0.00632782 0)
(0.0412983 -0.0170786 -3.93104e-22)
(0.0417292 -0.0170602 -1.73718e-21)
(0.0421621 -0.0170266 1.37808e-21)
(0.0425961 -0.0169794 0)
(0.0430314 -0.0169196 2.88999e-22)
(0.0434673 -0.0168467 9.64185e-22)
(0.0439033 -0.0167608 -7.43765e-22)
(0.0443392 -0.0166618 9.54451e-22)
(0.0447744 -0.0165498 -7.60969e-22)
(0.0452085 -0.0164246 0)
(0.0456408 -0.0162863 -1.72583e-22)
(0.0460709 -0.0161347 0)
(0.0464982 -0.01597 -1.03853e-22)
(0.0469222 -0.0157923 4.61384e-22)
(0.0473424 -0.0156017 0)
(0.0477584 -0.0153983 0)
(0.0481695 -0.0151824 0)
(0.0485753 -0.0149542 -6.86738e-23)
(0.0489753 -0.0147139 1.01234e-22)
(0.0493691 -0.0144619 7.64357e-23)
(0.0497562 -0.0141984 0)
(0.0501363 -0.013924 0)
(0.0505089 -0.0136389 0)
(0.0508737 -0.0133436 -6.58509e-22)
(0.0512306 -0.0130386 8.1084e-22)
(0.0515791 -0.0127244 -4.2992e-22)
(0.0519192 -0.0124014 -3.39474e-22)
(0.0522508 -0.0120702 3.81756e-22)
(0.0525736 -0.0117313 -3.82581e-22)
(0.0528879 -0.0113853 2.29277e-22)
(0.0531934 -0.0110326 -4.67604e-22)
(0.0534905 -0.0106738 2.12105e-22)
(0.0537791 -0.0103093 5.1247e-22)