/*--------------------------------*- C++ -*----------------------------------*\
| =========                 |                                                 |
| \\      /  F ield         | OpenFOAM: The Open Source CFD Toolbox           |
|  \\    /   O peration     | Version:  2312                                  |
|   \\  /    A nd           | Website:  www.openfoam.com                      |
|    \\/     M anipulation  |                                                 |
\*---------------------------------------------------------------------------*/
FoamFile
{
    version     2.0;
    format      ascii;
    arch        "LSB;label=32;scalar=64";
    class       volScalarField;
    location    "200";
    object      k;
}
// * * * * * * * * * * * * * * * * * * * * * * * * * * * * * * * * * * * * * //

dimensions      [0 2 -2 0 0 0 0];

internalField   nonuniform List<scalar> 
76025
(
4.80099e-06
4.80082e-06
4.80063e-06
4.80044e-06
4.80043e-06
4.80156e-06
4.80205e-06
4.80349e-06
4.80423e-06
4.80543e-06
4.80653e-06
4.80755e-06
4.8092e-06
4.8103e-06
4.81232e-06
4.81419e-06
4.81638e-06
4.81911e-06
4.82163e-06
4.82468e-06
4.82795e-06
4.83187e-06
4.83561e-06
4.83985e-06
4.84469e-06
4.84935e-06
4.85527e-06
4.86034e-06
4.86685e-06
4.87294e-06
4.87949e-06
4.88635e-06
4.89415e-06
4.90234e-06
4.91099e-06
4.91998e-06
4.93012e-06
4.94059e-06
4.95217e-06
4.96393e-06
4.9767e-06
4.99092e-06
5.00603e-06
5.02253e-06
5.04018e-06
5.05987e-06
5.08074e-06
5.10392e-06
5.1294e-06
5.1566e-06
5.18686e-06
5.21946e-06
5.25533e-06
5.29266e-06
5.33679e-06
5.38103e-06
5.43218e-06
5.48656e-06
5.54864e-06
5.61608e-06
5.68586e-06
5.77069e-06
5.85997e-06
5.96457e-06
6.08894e-06
6.18793e-06
6.31421e-06
6.50283e-06
6.68188e-06
4.83349e-06
4.83405e-06
4.83445e-06
4.83491e-06
4.83503e-06
4.83574e-06
4.83624e-06
4.83723e-06
4.83831e-06
4.83956e-06
4.841e-06
4.84246e-06
4.84422e-06
4.84597e-06
4.84812e-06
4.85029e-06
4.85278e-06
4.85547e-06
4.85844e-06
4.86156e-06
4.86501e-06
4.86877e-06
4.87285e-06
4.87718e-06
4.88206e-06
4.88697e-06
4.89258e-06
4.89837e-06
4.90469e-06
4.91147e-06
4.91877e-06
4.92633e-06
4.93464e-06
4.94333e-06
4.9527e-06
4.96268e-06
4.97332e-06
4.98481e-06
4.99708e-06
5.01022e-06
5.02451e-06
5.03977e-06
5.05651e-06
5.07441e-06
5.09402e-06
5.11509e-06
5.13806e-06
5.1629e-06
5.18979e-06
5.21901e-06
5.25051e-06
5.28494e-06
5.32195e-06
5.36332e-06
5.40762e-06
5.45784e-06
5.51285e-06
5.57282e-06
5.63952e-06
5.71062e-06
5.79202e-06
5.88128e-06
5.9744e-06
6.08851e-06
6.20152e-06
6.30483e-06
6.47048e-06
6.69588e-06
6.91602e-06
4.86658e-06
4.86804e-06
4.8693e-06
4.8706e-06
4.87163e-06
4.87275e-06
4.87379e-06
4.87493e-06
4.8762e-06
4.87759e-06
4.87917e-06
4.88087e-06
4.88279e-06
4.8848e-06
4.88713e-06
4.88958e-06
4.89234e-06
4.89527e-06
4.89851e-06
4.90196e-06
4.9057e-06
4.90969e-06
4.91403e-06
4.91865e-06
4.92372e-06
4.92906e-06
4.93485e-06
4.94103e-06
4.94769e-06
4.95482e-06
4.96252e-06
4.9707e-06
4.97949e-06
4.98887e-06
4.99893e-06
5.00971e-06
5.02125e-06
5.03366e-06
5.04695e-06
5.06123e-06
5.07661e-06
5.09317e-06
5.11105e-06
5.13029e-06
5.15107e-06
5.17347e-06
5.1977e-06
5.22382e-06
5.25216e-06
5.28281e-06
5.31625e-06
5.35255e-06
5.39248e-06
5.43631e-06
5.48441e-06
5.53839e-06
5.59744e-06
5.6619e-06
5.73262e-06
5.809e-06
5.89549e-06
5.98737e-06
6.08952e-06
6.20939e-06
6.31958e-06
6.44178e-06
6.64866e-06
6.87979e-06
7.15248e-06
4.9008e-06
4.90291e-06
4.90495e-06
4.90701e-06
4.90897e-06
4.91089e-06
4.91277e-06
4.91461e-06
4.91647e-06
4.91837e-06
4.92038e-06
4.92247e-06
4.92473e-06
4.92711e-06
4.9297e-06
4.93248e-06
4.93549e-06
4.93873e-06
4.94223e-06
4.94599e-06
4.95005e-06
4.95439e-06
4.95907e-06
4.96407e-06
4.96946e-06
4.97521e-06
4.9814e-06
4.98802e-06
4.99515e-06
5.00277e-06
5.01096e-06
5.01973e-06
5.02912e-06
5.03918e-06
5.04996e-06
5.06151e-06
5.07387e-06
5.08714e-06
5.10134e-06
5.1166e-06
5.13299e-06
5.15063e-06
5.1696e-06
5.19003e-06
5.21203e-06
5.23579e-06
5.26144e-06
5.2892e-06
5.31932e-06
5.35204e-06
5.38781e-06
5.4268e-06
5.46978e-06
5.51703e-06
5.56894e-06
5.62738e-06
5.69102e-06
5.76068e-06
5.83627e-06
5.91895e-06
6.01153e-06
6.10932e-06
6.2214e-06
6.34262e-06
6.4508e-06
6.60903e-06
6.85471e-06
7.10587e-06
7.44539e-06
4.93822e-06
4.94045e-06
4.9428e-06
4.94527e-06
4.9478e-06
4.95037e-06
4.95297e-06
4.95557e-06
4.95819e-06
4.96083e-06
4.96352e-06
4.96626e-06
4.9691e-06
4.97206e-06
4.97515e-06
4.97841e-06
4.98187e-06
4.98554e-06
4.98944e-06
4.99361e-06
4.99806e-06
5.00281e-06
5.0079e-06
5.01332e-06
5.01913e-06
5.02533e-06
5.03198e-06
5.0391e-06
5.04672e-06
5.05489e-06
5.06363e-06
5.073e-06
5.08302e-06
5.09374e-06
5.10522e-06
5.1175e-06
5.13066e-06
5.14475e-06
5.15984e-06
5.17604e-06
5.19344e-06
5.21215e-06
5.23226e-06
5.25394e-06
5.2773e-06
5.30256e-06
5.32987e-06
5.35952e-06
5.39175e-06
5.42688e-06
5.46537e-06
5.50737e-06
5.55392e-06
5.60478e-06
5.66115e-06
5.72434e-06
5.79283e-06
5.86785e-06
5.94851e-06
6.03818e-06
6.13585e-06
6.24016e-06
6.35985e-06
6.47661e-06
6.60026e-06
6.81391e-06
7.09155e-06
7.35238e-06
7.80095e-06
4.98049e-06
4.98249e-06
4.98473e-06
4.98718e-06
4.98983e-06
4.99264e-06
4.9956e-06
4.99867e-06
5.00183e-06
5.00508e-06
5.00842e-06
5.01183e-06
5.01534e-06
5.01896e-06
5.02271e-06
5.02661e-06
5.03067e-06
5.03493e-06
5.0394e-06
5.04412e-06
5.0491e-06
5.05438e-06
5.05998e-06
5.06592e-06
5.07225e-06
5.07898e-06
5.08616e-06
5.09382e-06
5.10201e-06
5.11076e-06
5.1201e-06
5.13009e-06
5.14076e-06
5.15217e-06
5.16437e-06
5.17742e-06
5.19139e-06
5.20634e-06
5.22237e-06
5.23958e-06
5.25807e-06
5.27797e-06
5.29938e-06
5.32251e-06
5.34747e-06
5.37454e-06
5.40384e-06
5.43579e-06
5.47051e-06
5.50855e-06
5.55013e-06
5.59569e-06
5.64615e-06
5.70103e-06
5.76246e-06
5.83066e-06
5.90454e-06
5.98517e-06
6.07186e-06
6.16869e-06
6.27107e-06
6.38382e-06
6.50653e-06
6.62464e-06
6.79152e-06
7.06597e-06
7.34397e-06
7.63843e-06
8.30876e-06
5.02861e-06
5.03041e-06
5.03243e-06
5.03469e-06
5.03718e-06
5.03991e-06
5.04286e-06
5.04602e-06
5.04937e-06
5.0529e-06
5.05659e-06
5.06044e-06
5.06444e-06
5.06859e-06
5.0729e-06
5.07738e-06
5.08205e-06
5.08691e-06
5.092e-06
5.09733e-06
5.10292e-06
5.1088e-06
5.11501e-06
5.12156e-06
5.12848e-06
5.13582e-06
5.14362e-06
5.15191e-06
5.16074e-06
5.17014e-06
5.18017e-06
5.19086e-06
5.20227e-06
5.21445e-06
5.22747e-06
5.24138e-06
5.25629e-06
5.27224e-06
5.28937e-06
5.30776e-06
5.32757e-06
5.34889e-06
5.37191e-06
5.39679e-06
5.42371e-06
5.45295e-06
5.48466e-06
5.51929e-06
5.55692e-06
5.59823e-06
5.64324e-06
5.6928e-06
5.74734e-06
5.80674e-06
5.87385e-06
5.94731e-06
6.02719e-06
6.11374e-06
6.20715e-06
6.31025e-06
6.41804e-06
6.53819e-06
6.66196e-06
6.80136e-06
7.0389e-06
7.34582e-06
7.60079e-06
7.97454e-06
9.18625e-06
5.08227e-06
5.08412e-06
5.08612e-06
5.08831e-06
5.09071e-06
5.09333e-06
5.09619e-06
5.09928e-06
5.10261e-06
5.10618e-06
5.10997e-06
5.11399e-06
5.11822e-06
5.12268e-06
5.12735e-06
5.13224e-06
5.13737e-06
5.14273e-06
5.14834e-06
5.15422e-06
5.16039e-06
5.16687e-06
5.17368e-06
5.18087e-06
5.18844e-06
5.19644e-06
5.20492e-06
5.21392e-06
5.22347e-06
5.23363e-06
5.24444e-06
5.25595e-06
5.26823e-06
5.28133e-06
5.29533e-06
5.31029e-06
5.32633e-06
5.3435e-06
5.36198e-06
5.38182e-06
5.40323e-06
5.42628e-06
5.45124e-06
5.47819e-06
5.50743e-06
5.53916e-06
5.57363e-06
5.61122e-06
5.65209e-06
5.69694e-06
5.7457e-06
5.79964e-06
5.85847e-06
5.92331e-06
5.99666e-06
6.07575e-06
6.16231e-06
6.25502e-06
6.35509e-06
6.46382e-06
6.57795e-06
6.70387e-06
6.83895e-06
7.03422e-06
7.34248e-06
7.62155e-06
7.86991e-06
8.46192e-06
1.09713e-05
5.14187e-06
5.14396e-06
5.14616e-06
5.1485e-06
5.15099e-06
5.15367e-06
5.15654e-06
5.15963e-06
5.16296e-06
5.16653e-06
5.17034e-06
5.17442e-06
5.17875e-06
5.18335e-06
5.18821e-06
5.19335e-06
5.19876e-06
5.20447e-06
5.21047e-06
5.21679e-06
5.22344e-06
5.23044e-06
5.23781e-06
5.24559e-06
5.25379e-06
5.26247e-06
5.27166e-06
5.28141e-06
5.29175e-06
5.30275e-06
5.31445e-06
5.32691e-06
5.34019e-06
5.35437e-06
5.36952e-06
5.38574e-06
5.40311e-06
5.42174e-06
5.4418e-06
5.46334e-06
5.48662e-06
5.51166e-06
5.53882e-06
5.56809e-06
5.59993e-06
5.63435e-06
5.67186e-06
5.71261e-06
5.75704e-06
5.80566e-06
5.85865e-06
5.91735e-06
5.98103e-06
6.05264e-06
6.13252e-06
6.21777e-06
6.31139e-06
6.40982e-06
6.51605e-06
6.6308e-06
6.75198e-06
6.88846e-06
7.06414e-06
7.34082e-06
7.6586e-06
7.86383e-06
8.19763e-06
9.40929e-06
1.46939e-05
5.20709e-06
5.2096e-06
5.21219e-06
5.21488e-06
5.21769e-06
5.22065e-06
5.22377e-06
5.22707e-06
5.23058e-06
5.23431e-06
5.23827e-06
5.24249e-06
5.24697e-06
5.25174e-06
5.25679e-06
5.26215e-06
5.26782e-06
5.27382e-06
5.28016e-06
5.28686e-06
5.29394e-06
5.30141e-06
5.30931e-06
5.31766e-06
5.32649e-06
5.33584e-06
5.34576e-06
5.35629e-06
5.36748e-06
5.37939e-06
5.39205e-06
5.40556e-06
5.41996e-06
5.43535e-06
5.45179e-06
5.46941e-06
5.48828e-06
5.50854e-06
5.53033e-06
5.55377e-06
5.57906e-06
5.6063e-06
5.63581e-06
5.6676e-06
5.70221e-06
5.73954e-06
5.78033e-06
5.82451e-06
5.87291e-06
5.92569e-06
5.98361e-06
6.04752e-06
6.11736e-06
6.19699e-06
6.28307e-06
6.37521e-06
6.47528e-06
6.57837e-06
6.69151e-06
6.81393e-06
6.94636e-06
7.11579e-06
7.3697e-06
7.69078e-06
7.91612e-06
8.11709e-06
8.75275e-06
1.15921e-05
2.28074e-05
5.27892e-06
5.2819e-06
5.28496e-06
5.28812e-06
5.29139e-06
5.29478e-06
5.29831e-06
5.302e-06
5.30587e-06
5.30994e-06
5.31422e-06
5.31874e-06
5.32352e-06
5.32858e-06
5.33392e-06
5.33959e-06
5.34558e-06
5.35192e-06
5.35864e-06
5.36575e-06
5.37327e-06
5.38123e-06
5.38967e-06
5.3986e-06
5.40806e-06
5.41811e-06
5.42878e-06
5.44013e-06
5.4522e-06
5.46506e-06
5.47876e-06
5.49337e-06
5.50896e-06
5.52565e-06
5.54347e-06
5.56259e-06
5.58304e-06
5.60506e-06
5.62868e-06
5.65416e-06
5.68157e-06
5.71119e-06
5.74317e-06
5.77774e-06
5.8153e-06
5.85589e-06
5.90032e-06
5.94842e-06
6.00133e-06
6.05899e-06
6.12265e-06
6.19266e-06
6.27055e-06
6.35827e-06
6.44974e-06
6.54929e-06
6.65396e-06
6.76194e-06
6.8857e-06
7.02006e-06
7.18236e-06
7.42527e-06
7.74541e-06
7.97937e-06
8.11454e-06
8.45726e-06
1.00646e-05
1.66287e-05
3.97903e-05
5.35755e-06
5.36101e-06
5.36458e-06
5.36825e-06
5.37205e-06
5.37597e-06
5.38004e-06
5.38426e-06
5.38865e-06
5.39323e-06
5.39802e-06
5.40303e-06
5.40828e-06
5.41381e-06
5.41963e-06
5.42575e-06
5.43222e-06
5.43905e-06
5.44626e-06
5.45389e-06
5.46196e-06
5.4705e-06
5.47955e-06
5.48914e-06
5.49931e-06
5.51012e-06
5.52161e-06
5.53384e-06
5.54685e-06
5.56072e-06
5.57551e-06
5.5913e-06
5.60816e-06
5.6262e-06
5.64549e-06
5.66619e-06
5.68835e-06
5.71223e-06
5.73783e-06
5.7655e-06
5.79523e-06
5.82745e-06
5.86218e-06
5.89989e-06
5.94077e-06
5.98519e-06
6.03373e-06
6.08651e-06
6.14465e-06
6.2082e-06
6.27849e-06
6.35635e-06
6.44332e-06
6.53735e-06
6.63408e-06
6.74048e-06
6.84805e-06
6.96617e-06
7.10806e-06
7.26959e-06
7.5027e-06
7.82599e-06
8.04112e-06
8.13241e-06
8.34327e-06
9.28453e-06
1.34626e-05
2.76524e-05
5.84722e-05
5.44565e-06
5.44945e-06
5.4534e-06
5.4575e-06
5.46174e-06
5.46614e-06
5.47071e-06
5.47545e-06
5.48037e-06
5.48549e-06
5.49083e-06
5.4964e-06
5.50222e-06
5.50831e-06
5.5147e-06
5.52141e-06
5.52846e-06
5.53588e-06
5.54371e-06
5.55196e-06
5.56069e-06
5.5699e-06
5.57967e-06
5.59e-06
5.60098e-06
5.61262e-06
5.62502e-06
5.6382e-06
5.65225e-06
5.66721e-06
5.6832e-06
5.70024e-06
5.7185e-06
5.738e-06
5.75892e-06
5.78132e-06
5.80541e-06
5.8313e-06
5.85919e-06
5.88926e-06
5.92171e-06
5.95684e-06
5.99485e-06
6.03613e-06
6.08099e-06
6.12985e-06
6.1833e-06
6.2416e-06
6.30598e-06
6.37652e-06
6.4549e-06
6.5422e-06
6.63626e-06
6.73483e-06
6.83702e-06
6.94998e-06
7.06329e-06
7.20487e-06
7.38068e-06
7.60722e-06
7.9314e-06
8.1099e-06
8.17293e-06
8.29186e-06
8.90391e-06
1.16585e-05
2.16481e-05
4.84175e-05
6.91028e-05
5.54414e-06
5.54828e-06
5.55259e-06
5.55707e-06
5.56172e-06
5.56656e-06
5.57159e-06
5.57682e-06
5.58227e-06
5.58793e-06
5.59384e-06
5.59999e-06
5.60642e-06
5.61314e-06
5.62017e-06
5.62754e-06
5.63527e-06
5.64339e-06
5.65194e-06
5.66093e-06
5.67043e-06
5.68044e-06
5.69104e-06
5.70224e-06
5.71415e-06
5.72676e-06
5.7402e-06
5.75446e-06
5.7697e-06
5.78589e-06
5.80324e-06
5.82171e-06
5.84155e-06
5.8627e-06
5.8855e-06
5.90984e-06
5.93618e-06
5.96436e-06
5.99497e-06
6.02777e-06
6.06352e-06
6.10194e-06
6.14399e-06
6.18928e-06
6.2391e-06
6.29292e-06
6.35251e-06
6.41707e-06
6.4893e-06
6.56781e-06
6.65622e-06
6.75074e-06
6.84879e-06
6.95268e-06
7.0611e-06
7.18492e-06
7.31637e-06
7.50648e-06
7.75241e-06
8.04949e-06
8.18385e-06
8.22478e-06
8.2849e-06
8.69806e-06
1.06979e-05
1.80754e-05
3.97097e-05
6.18258e-05
7.37448e-05
5.65646e-06
5.66095e-06
5.66561e-06
5.67045e-06
5.67548e-06
5.68072e-06
5.68617e-06
5.69184e-06
5.69775e-06
5.7039e-06
5.71033e-06
5.71703e-06
5.72403e-06
5.73134e-06
5.73901e-06
5.74703e-06
5.75545e-06
5.76428e-06
5.77358e-06
5.78336e-06
5.79368e-06
5.80456e-06
5.81608e-06
5.82824e-06
5.84118e-06
5.85487e-06
5.86948e-06
5.88496e-06
5.90154e-06
5.91914e-06
5.93805e-06
5.95816e-06
5.97984e-06
6.00291e-06
6.02789e-06
6.05449e-06
6.08348e-06
6.11433e-06
6.14815e-06
6.18414e-06
6.22383e-06
6.26605e-06
6.31298e-06
6.36284e-06
6.41879e-06
6.47815e-06
6.54561e-06
6.61708e-06
6.69955e-06
6.78594e-06
6.88405e-06
6.97938e-06
7.08525e-06
7.19444e-06
7.31709e-06
7.46578e-06
7.64128e-06
7.93379e-06
8.1653e-06
8.25482e-06
8.26974e-06
8.29986e-06
8.59507e-06
1.01815e-05
1.59525e-05
3.31831e-05
5.50844e-05
6.7577e-05
7.46584e-05
5.78255e-06
5.78758e-06
5.79278e-06
5.79816e-06
5.80374e-06
5.80952e-06
5.81553e-06
5.82177e-06
5.82826e-06
5.83501e-06
5.84206e-06
5.8494e-06
5.85706e-06
5.86507e-06
5.87345e-06
5.88222e-06
5.89142e-06
5.90107e-06
5.91122e-06
5.9219e-06
5.93316e-06
5.94503e-06
5.95759e-06
5.97086e-06
5.98497e-06
5.99991e-06
6.01586e-06
6.03277e-06
6.05089e-06
6.07012e-06
6.09083e-06
6.11284e-06
6.13664e-06
6.16194e-06
6.18946e-06
6.21872e-06
6.25077e-06
6.28479e-06
6.32234e-06
6.36212e-06
6.4064e-06
6.45319e-06
6.50581e-06
6.56126e-06
6.62443e-06
6.69073e-06
6.76762e-06
6.8473e-06
6.94104e-06
7.03168e-06
7.13673e-06
7.23218e-06
7.35498e-06
7.47177e-06
7.63585e-06
7.82902e-06
8.12051e-06
8.30031e-06
8.32544e-06
8.31304e-06
8.30756e-06
8.5898e-06
9.92664e-06
1.48613e-05
2.91859e-05
4.95597e-05
6.18231e-05
6.89902e-05
6.99607e-05
5.92761e-06
5.93318e-06
5.93894e-06
5.94489e-06
5.95104e-06
5.95742e-06
5.96403e-06
5.97089e-06
5.97801e-06
5.98542e-06
5.99313e-06
6.00116e-06
6.00954e-06
6.01828e-06
6.02743e-06
6.03701e-06
6.04705e-06
6.05758e-06
6.06866e-06
6.0803e-06
6.09259e-06
6.10554e-06
6.11925e-06
6.13375e-06
6.14917e-06
6.16551e-06
6.18295e-06
6.20148e-06
6.22134e-06
6.24246e-06
6.26522e-06
6.28945e-06
6.3157e-06
6.34363e-06
6.37411e-06
6.40651e-06
6.44215e-06
6.47995e-06
6.52189e-06
6.56626e-06
6.61595e-06
6.66841e-06
6.72776e-06
6.7904e-06
6.86201e-06
6.93739e-06
7.0243e-06
7.11292e-06
7.21254e-06
7.306e-06
7.41952e-06
7.52448e-06
7.67558e-06
7.82185e-06
8.07018e-06
8.31422e-06
8.42159e-06
8.40909e-06
8.34661e-06
8.35673e-06
8.57858e-06
9.98409e-06
1.4394e-05
2.72451e-05
4.52448e-05
5.64926e-05
6.35115e-05
6.4997e-05
6.38148e-05
6.09258e-06
6.09882e-06
6.10527e-06
6.11193e-06
6.11882e-06
6.12596e-06
6.13335e-06
6.14101e-06
6.14896e-06
6.15721e-06
6.16579e-06
6.17471e-06
6.18401e-06
6.19371e-06
6.20384e-06
6.21443e-06
6.22552e-06
6.23714e-06
6.24936e-06
6.26219e-06
6.27572e-06
6.28998e-06
6.30508e-06
6.32105e-06
6.33801e-06
6.35602e-06
6.37523e-06
6.39567e-06
6.41756e-06
6.44091e-06
6.46606e-06
6.4929e-06
6.52201e-06
6.55306e-06
6.58703e-06
6.62319e-06
6.66314e-06
6.70547e-06
6.75281e-06
6.80272e-06
6.85919e-06
6.91864e-06
6.98642e-06
7.05799e-06
7.1395e-06
7.22503e-06
7.31943e-06
7.41336e-06
7.51553e-06
7.62279e-06
7.7482e-06
7.89108e-06
8.0837e-06
8.33043e-06
8.49908e-06
8.52452e-06
8.48283e-06
8.38907e-06
8.37279e-06
8.75744e-06
9.98419e-06
1.46926e-05
2.68174e-05
4.19874e-05
5.17594e-05
5.81664e-05
5.95566e-05
5.8418e-05
5.76194e-05
6.28764e-06
6.29441e-06
6.30141e-06
6.30867e-06
6.31618e-06
6.32397e-06
6.33204e-06
6.34041e-06
6.34911e-06
6.35815e-06
6.36755e-06
6.37733e-06
6.38753e-06
6.39817e-06
6.40929e-06
6.42092e-06
6.43311e-06
6.44589e-06
6.45931e-06
6.47345e-06
6.48833e-06
6.50406e-06
6.52068e-06
6.53833e-06
6.55705e-06
6.57698e-06
6.59822e-06
6.62092e-06
6.64522e-06
6.67126e-06
6.69929e-06
6.72937e-06
6.76197e-06
6.79689e-06
6.83517e-06
6.87597e-06
6.92133e-06
6.96928e-06
7.0235e-06
7.08026e-06
7.14555e-06
7.21334e-06
7.29183e-06
7.3729e-06
7.46384e-06
7.55612e-06
7.65298e-06
7.7569e-06
7.87165e-06
8.00648e-06
8.1684e-06
8.38723e-06
8.58073e-06
8.64194e-06
8.62015e-06
8.55662e-06
8.41378e-06
8.47016e-06
8.84334e-06
1.06372e-05
1.49472e-05
2.75796e-05
3.96406e-05
4.73768e-05
5.30782e-05
5.37756e-05
5.25915e-05
5.17841e-05
5.28872e-05
6.51449e-06
6.52214e-06
6.53005e-06
6.53823e-06
6.54671e-06
6.55549e-06
6.56459e-06
6.57403e-06
6.58382e-06
6.59398e-06
6.60454e-06
6.61553e-06
6.62696e-06
6.63889e-06
6.65133e-06
6.66434e-06
6.67795e-06
6.69222e-06
6.70719e-06
6.72296e-06
6.73953e-06
6.75709e-06
6.77559e-06
6.7953e-06
6.81613e-06
6.83843e-06
6.86208e-06
6.88751e-06
6.91461e-06
6.94386e-06
6.97523e-06
7.00918e-06
7.04588e-06
7.08558e-06
7.12903e-06
7.17573e-06
7.22774e-06
7.28292e-06
7.34579e-06
7.41103e-06
7.4873e-06
7.56384e-06
7.654e-06
7.74008e-06
7.83836e-06
7.93463e-06
8.04562e-06
8.17042e-06
8.3194e-06
8.51345e-06
8.69839e-06
8.77588e-06
8.75954e-06
8.69893e-06
8.57889e-06
8.48359e-06
8.57663e-06
9.29067e-06
1.11939e-05
1.65036e-05
2.83932e-05
3.75321e-05
4.34865e-05
4.80807e-05
4.7926e-05
4.63877e-05
4.57728e-05
4.68678e-05
4.96658e-05
6.78993e-06
6.79822e-06
6.80679e-06
6.81568e-06
6.82489e-06
6.83444e-06
6.84435e-06
6.85465e-06
6.86535e-06
6.87648e-06
6.88807e-06
6.90015e-06
6.91274e-06
6.9259e-06
6.93964e-06
6.95406e-06
6.96913e-06
6.98501e-06
7.00163e-06
7.01923e-06
7.0377e-06
7.05736e-06
7.07804e-06
7.1002e-06
7.12356e-06
7.14876e-06
7.17542e-06
7.20439e-06
7.23511e-06
7.26869e-06
7.30443e-06
7.34368e-06
7.38572e-06
7.43197e-06
7.482e-06
7.53681e-06
7.59694e-06
7.66177e-06
7.73435e-06
7.80971e-06
7.89642e-06
7.97888e-06
8.07828e-06
8.16403e-06
8.28136e-06
8.38492e-06
8.53582e-06
8.7009e-06
8.86791e-06
8.9304e-06
8.91293e-06
8.85048e-06
8.75031e-06
8.58464e-06
8.59871e-06
8.88434e-06
9.76122e-06
1.25273e-05
1.90192e-05
2.81525e-05
3.49596e-05
3.99383e-05
4.25369e-05
4.1658e-05
3.99578e-05
3.9676e-05
4.09335e-05
4.35499e-05
4.71212e-05
7.11944e-06
7.12934e-06
7.13955e-06
7.15009e-06
7.16098e-06
7.17225e-06
7.1839e-06
7.19596e-06
7.20844e-06
7.2214e-06
7.23483e-06
7.24881e-06
7.26332e-06
7.27847e-06
7.29422e-06
7.31073e-06
7.32793e-06
7.34605e-06
7.36496e-06
7.38499e-06
7.40595e-06
7.42831e-06
7.45173e-06
7.47693e-06
7.50336e-06
7.53203e-06
7.56212e-06
7.59514e-06
7.62988e-06
7.66846e-06
7.70916e-06
7.7548e-06
7.80306e-06
7.85753e-06
7.91506e-06
7.97999e-06
8.04808e-06
8.12435e-06
8.20343e-06
8.28892e-06
8.37818e-06
8.46707e-06
8.57516e-06
8.67137e-06
8.81355e-06
8.94474e-06
9.08169e-06
9.10821e-06
9.08486e-06
9.00931e-06
8.91276e-06
8.74486e-06
8.7031e-06
8.84099e-06
9.39848e-06
1.08195e-05
1.42816e-05
2.15061e-05
2.78045e-05
3.21606e-05
3.61841e-05
3.63015e-05
3.4811e-05
3.35268e-05
3.36865e-05
3.51783e-05
3.76661e-05
4.08707e-05
4.45984e-05
7.53185e-06
7.54235e-06
7.55324e-06
7.56455e-06
7.5763e-06
7.58851e-06
7.6012e-06
7.61441e-06
7.62814e-06
7.64247e-06
7.65739e-06
7.67299e-06
7.68924e-06
7.70628e-06
7.72406e-06
7.74278e-06
7.76234e-06
7.78302e-06
7.80466e-06
7.82772e-06
7.85185e-06
7.87777e-06
7.90492e-06
7.93438e-06
7.96528e-06
7.99926e-06
8.03483e-06
8.07442e-06
8.11573e-06
8.16223e-06
8.21052e-06
8.26531e-06
8.32172e-06
8.38598e-06
8.45104e-06
8.52532e-06
8.59771e-06
8.68225e-06
8.75933e-06
8.85353e-06
8.93529e-06
9.04446e-06
9.14231e-06
9.25951e-06
9.32378e-06
9.31254e-06
9.28296e-06
9.17599e-06
9.07999e-06
8.92385e-06
8.86871e-06
8.97183e-06
9.37387e-06
1.03267e-05
1.24853e-05
1.71698e-05
2.2104e-05
2.57536e-05
2.95832e-05
3.11074e-05
3.00091e-05
2.79802e-05
2.73642e-05
2.80295e-05
2.96871e-05
3.20371e-05
3.49019e-05
3.81621e-05
4.17405e-05
8.05616e-06
8.06989e-06
8.08395e-06
8.09844e-06
8.11334e-06
8.12873e-06
8.14457e-06
8.16096e-06
8.17787e-06
8.19541e-06
8.21354e-06
8.23242e-06
8.25196e-06
8.27239e-06
8.29357e-06
8.31585e-06
8.33895e-06
8.36345e-06
8.38886e-06
8.41606e-06
8.44426e-06
8.47478e-06
8.50637e-06
8.5409e-06
8.57646e-06
8.61586e-06
8.65633e-06
8.7018e-06
8.74819e-06
8.80081e-06
8.85326e-06
8.91316e-06
8.97165e-06
9.03819e-06
9.10157e-06
9.17337e-06
9.2393e-06
9.31533e-06
9.38557e-06
9.46172e-06
9.52294e-06
9.58414e-06
9.5786e-06
9.55204e-06
9.4941e-06
9.37974e-06
9.28813e-06
9.13692e-06
9.13679e-06
9.23318e-06
9.57278e-06
1.03638e-05
1.19056e-05
1.45727e-05
1.78073e-05
2.06676e-05
2.37954e-05
2.58506e-05
2.51006e-05
2.27899e-05
2.16148e-05
2.17353e-05
2.27985e-05
2.45028e-05
2.66746e-05
2.92006e-05
3.20099e-05
3.50596e-05
3.83253e-05
8.74323e-06
8.75713e-06
8.77167e-06
8.7869e-06
8.80277e-06
8.81942e-06
8.83677e-06
8.85499e-06
8.87398e-06
8.89398e-06
8.91481e-06
8.93683e-06
8.95974e-06
8.98408e-06
9.00938e-06
9.0364e-06
9.06442e-06
9.09452e-06
9.12557e-06
9.15909e-06
9.19334e-06
9.23047e-06
9.26802e-06
9.30898e-06
9.35016e-06
9.39579e-06
9.44107e-06
9.49077e-06
9.53831e-06
9.58632e-06
9.62857e-06
9.67733e-06
9.71776e-06
9.76448e-06
9.79952e-06
9.84188e-06
9.86834e-06
9.90176e-06
9.90298e-06
9.89095e-06
9.86692e-06
9.81384e-06
9.72725e-06
9.62485e-06
9.57481e-06
9.582e-06
9.61837e-06
9.74978e-06
1.00109e-05
1.0482e-05
1.14192e-05
1.26428e-05
1.44162e-05
1.6479e-05
1.88537e-05
2.0398e-05
1.96885e-05
1.73135e-05
1.59642e-05
1.58718e-05
1.66167e-05
1.79033e-05
1.95574e-05
2.15049e-05
2.3682e-05
2.60522e-05
2.85925e-05
3.12899e-05
3.4144e-05
9.72895e-06
9.75119e-06
9.7737e-06
9.79676e-06
9.82027e-06
9.84435e-06
9.86882e-06
9.89388e-06
9.91923e-06
9.94518e-06
9.9713e-06
9.99799e-06
1.00247e-05
1.00518e-05
1.00787e-05
1.01058e-05
1.01322e-05
1.01581e-05
1.01827e-05
1.02065e-05
1.02285e-05
1.02493e-05
1.02679e-05
1.02853e-05
1.02994e-05
1.03126e-05
1.03208e-05
1.03304e-05
1.03303e-05
1.03292e-05
1.03226e-05
1.03152e-05
1.03013e-05
1.02885e-05
1.02618e-05
1.02373e-05
1.02201e-05
1.02005e-05
1.01811e-05
1.02259e-05
1.03042e-05
1.03037e-05
1.0297e-05
1.02773e-05
1.02286e-05
1.01705e-05
1.01107e-05
1.01981e-05
1.04905e-05
1.10878e-05
1.20461e-05
1.3016e-05
1.45017e-05
1.47274e-05
1.33591e-05
1.07833e-05
9.86936e-06
1.00325e-05
1.07736e-05
1.18203e-05
1.31119e-05
1.46197e-05
1.62911e-05
1.80993e-05
2.00253e-05
2.20594e-05
2.41994e-05
2.64491e-05
2.88167e-05
1.10934e-05
1.1092e-05
1.109e-05
1.10874e-05
1.10842e-05
1.10811e-05
1.10746e-05
1.10695e-05
1.1062e-05
1.10542e-05
1.10443e-05
1.10334e-05
1.10207e-05
1.10063e-05
1.09905e-05
1.09717e-05
1.09532e-05
1.09296e-05
1.09034e-05
1.08736e-05
1.08425e-05
1.08088e-05
1.07762e-05
1.07426e-05
1.07126e-05
1.06846e-05
1.06633e-05
1.06531e-05
1.06496e-05
1.06864e-05
1.07017e-05
1.08025e-05
1.08462e-05
1.10172e-05
1.10823e-05
1.13776e-05
1.17246e-05
1.20354e-05
1.20652e-05
1.19176e-05
1.16312e-05
1.12649e-05
1.08916e-05
1.05003e-05
1.00218e-05
9.3789e-06
8.7888e-06
8.49493e-06
8.27934e-06
7.68898e-06
6.33948e-06
4.62147e-06
4.34152e-06
4.44325e-06
4.47081e-06
4.5181e-06
5.02791e-06
5.81789e-06
6.81223e-06
7.92284e-06
9.13003e-06
1.0425e-05
1.17942e-05
1.32255e-05
1.47127e-05
1.6259e-05
1.78792e-05
1.95992e-05
2.14439e-05
1.04205e-05
1.04166e-05
1.04127e-05
1.04089e-05
1.04052e-05
1.04015e-05
1.03976e-05
1.03935e-05
1.03893e-05
1.03846e-05
1.03797e-05
1.03742e-05
1.03685e-05
1.03621e-05
1.03556e-05
1.03502e-05
1.03937e-05
1.04905e-05
1.06471e-05
1.08586e-05
1.11356e-05
1.1468e-05
1.18683e-05
1.23105e-05
1.28308e-05
1.33703e-05
1.39894e-05
1.45896e-05
1.52556e-05
1.58475e-05
1.64718e-05
1.69509e-05
1.73745e-05
1.75801e-05
1.74881e-05
1.70875e-05
1.62215e-05
1.49556e-05
1.34569e-05
1.18094e-05
1.01486e-05
8.36904e-06
6.74229e-06
4.82693e-06
3.07447e-06
2.00765e-06
1.43841e-06
1.27286e-06
1.22846e-06
1.11066e-06
9.50828e-07
8.40481e-07
8.15533e-07
8.72732e-07
9.64924e-07
1.11304e-06
1.37101e-06
1.73093e-06
2.19036e-06
2.73493e-06
3.34177e-06
3.98364e-06
4.66949e-06
5.386e-06
6.13067e-06
6.91355e-06
7.76388e-06
8.73846e-06
9.91179e-06
3.04311e-05
3.12901e-05
3.21541e-05
3.30211e-05
3.38905e-05
3.4759e-05
3.56278e-05
3.64907e-05
3.73521e-05
3.82013e-05
3.90477e-05
3.98747e-05
4.06981e-05
4.14943e-05
4.22877e-05
4.30475e-05
4.37485e-05
4.43243e-05
4.48487e-05
4.51913e-05
4.54804e-05
4.55517e-05
4.54283e-05
4.5166e-05
4.48177e-05
4.406e-05
4.31876e-05
4.19095e-05
4.03108e-05
3.83526e-05
3.60055e-05
3.3235e-05
3.00196e-05
2.63582e-05
2.22767e-05
1.78662e-05
1.32903e-05
8.7682e-06
4.81323e-06
2.0494e-06
7.47896e-07
5.17307e-07
5.50092e-07
5.29486e-07
4.54984e-07
3.89299e-07
3.27716e-07
2.73147e-07
2.38636e-07
2.17922e-07
1.96783e-07
1.78724e-07
1.68536e-07
1.67258e-07
1.74984e-07
1.90131e-07
2.13768e-07
2.4448e-07
2.80623e-07
3.20144e-07
3.61597e-07
4.06667e-07
4.52485e-07
4.96883e-07
5.3967e-07
5.81766e-07
6.24479e-07
6.67303e-07
6.82947e-07
4.81486e-06
4.81536e-06
4.81624e-06
4.81675e-06
4.81751e-06
4.81778e-06
4.81778e-06
4.81629e-06
4.81546e-06
4.81392e-06
4.81354e-06
4.81529e-06
4.8189e-06
4.82088e-06
4.81987e-06
4.81605e-06
4.816e-06
4.81715e-06
4.81779e-06
4.81409e-06
4.8133e-06
4.81588e-06
4.81371e-06
4.81313e-06
4.81129e-06
4.80762e-06
4.80872e-06
4.80928e-06
4.81086e-06
4.81154e-06
4.81034e-06
4.81106e-06
4.8114e-06
4.81012e-06
4.80977e-06
4.80726e-06
4.80782e-06
4.80758e-06
4.80627e-06
4.8056e-06
4.80196e-06
4.80257e-06
4.80133e-06
4.79944e-06
4.79989e-06
4.79843e-06
4.79641e-06
4.79479e-06
4.79404e-06
4.79452e-06
4.79534e-06
4.7976e-06
4.79938e-06
4.80058e-06
4.80103e-06
4.8011e-06
4.80135e-06
4.80108e-06
4.80106e-06
4.84798e-06
4.84774e-06
4.84746e-06
4.8468e-06
4.8462e-06
4.84498e-06
4.84386e-06
4.84287e-06
4.84295e-06
4.84304e-06
4.84539e-06
4.84703e-06
4.848e-06
4.84635e-06
4.84335e-06
4.84263e-06
4.84333e-06
4.84376e-06
4.84182e-06
4.83933e-06
4.83957e-06
4.84058e-06
4.83813e-06
4.83762e-06
4.83475e-06
4.83216e-06
4.83312e-06
4.83401e-06
4.83489e-06
4.83518e-06
4.83455e-06
4.83521e-06
4.83545e-06
4.83413e-06
4.83404e-06
4.83232e-06
4.83205e-06
4.83219e-06
4.83169e-06
4.83079e-06
4.82874e-06
4.82836e-06
4.82784e-06
4.82679e-06
4.82606e-06
4.82556e-06
4.82472e-06
4.82381e-06
4.8229e-06
4.82263e-06
4.82274e-06
4.82384e-06
4.82558e-06
4.82724e-06
4.82902e-06
4.83036e-06
4.83141e-06
4.8323e-06
4.83293e-06
4.87993e-06
4.87899e-06
4.87826e-06
4.87753e-06
4.87715e-06
4.87681e-06
4.87685e-06
4.8767e-06
4.87735e-06
4.87839e-06
4.87904e-06
4.87852e-06
4.87654e-06
4.87406e-06
4.87299e-06
4.87342e-06
4.87358e-06
4.87206e-06
4.86922e-06
4.868e-06
4.86858e-06
4.86861e-06
4.8657e-06
4.8649e-06
4.86144e-06
4.85968e-06
4.86051e-06
4.86155e-06
4.86186e-06
4.86188e-06
4.86174e-06
4.86227e-06
4.86249e-06
4.86132e-06
4.86128e-06
4.86014e-06
4.85962e-06
4.85974e-06
4.85973e-06
4.85925e-06
4.85798e-06
4.85719e-06
4.857e-06
4.8566e-06
4.85599e-06
4.85561e-06
4.85516e-06
4.85466e-06
4.85426e-06
4.85403e-06
4.85408e-06
4.8545e-06
4.85565e-06
4.85704e-06
4.85876e-06
4.86055e-06
4.86222e-06
4.86384e-06
4.86522e-06
4.91622e-06
4.91569e-06
4.91547e-06
4.91514e-06
4.91453e-06
4.91445e-06
4.9142e-06
4.91442e-06
4.91403e-06
4.91357e-06
4.91249e-06
4.9101e-06
4.90782e-06
4.90679e-06
4.90691e-06
4.90641e-06
4.90522e-06
4.90238e-06
4.8999e-06
4.89978e-06
4.90018e-06
4.89911e-06
4.896e-06
4.89479e-06
4.89113e-06
4.89004e-06
4.89083e-06
4.89187e-06
4.89179e-06
4.89167e-06
4.8918e-06
4.89215e-06
4.8924e-06
4.89141e-06
4.89134e-06
4.8906e-06
4.89007e-06
4.8902e-06
4.89042e-06
4.89037e-06
4.88967e-06
4.88901e-06
4.88903e-06
4.88901e-06
4.88871e-06
4.88874e-06
4.88884e-06
4.88854e-06
4.88869e-06
4.88878e-06
4.88899e-06
4.88928e-06
4.88997e-06
4.89097e-06
4.89227e-06
4.89383e-06
4.8955e-06
4.89729e-06
4.89897e-06
4.95707e-06
4.95656e-06
4.95627e-06
4.95581e-06
4.9554e-06
4.95507e-06
4.9544e-06
4.95351e-06
4.95212e-06
4.95029e-06
4.94826e-06
4.94599e-06
4.94484e-06
4.94451e-06
4.94366e-06
4.94219e-06
4.93951e-06
4.93655e-06
4.9351e-06
4.93543e-06
4.93519e-06
4.93302e-06
4.92983e-06
4.92813e-06
4.92447e-06
4.92392e-06
4.92461e-06
4.92549e-06
4.92504e-06
4.9248e-06
4.92511e-06
4.92536e-06
4.92575e-06
4.92502e-06
4.92497e-06
4.92459e-06
4.92421e-06
4.92427e-06
4.92487e-06
4.92499e-06
4.9247e-06
4.92452e-06
4.92461e-06
4.92522e-06
4.92562e-06
4.92588e-06
4.92619e-06
4.92648e-06
4.92689e-06
4.92731e-06
4.9278e-06
4.9283e-06
4.92892e-06
4.92972e-06
4.93071e-06
4.93193e-06
4.9333e-06
4.93486e-06
4.93643e-06
5.0024e-06
5.00161e-06
5.00097e-06
5.00006e-06
4.9991e-06
4.99785e-06
4.99625e-06
4.99435e-06
4.99227e-06
4.99014e-06
4.98833e-06
4.98683e-06
4.98608e-06
4.98499e-06
4.98282e-06
4.98025e-06
4.97701e-06
4.97486e-06
4.97427e-06
4.97445e-06
4.97295e-06
4.96998e-06
4.96676e-06
4.96464e-06
4.96119e-06
4.96123e-06
4.96176e-06
4.96246e-06
4.96176e-06
4.9615e-06
4.96186e-06
4.96197e-06
4.96244e-06
4.96187e-06
4.96182e-06
4.96165e-06
4.9615e-06
4.96154e-06
4.96232e-06
4.96307e-06
4.96334e-06
4.96335e-06
4.96346e-06
4.96426e-06
4.96533e-06
4.96628e-06
4.96708e-06
4.96779e-06
4.96855e-06
4.96935e-06
4.9702e-06
4.97105e-06
4.97193e-06
4.97287e-06
4.97388e-06
4.975e-06
4.97621e-06
4.97755e-06
4.97894e-06
5.0516e-06
5.05025e-06
5.04899e-06
5.04738e-06
5.04569e-06
5.04372e-06
5.04164e-06
5.03952e-06
5.03754e-06
5.03575e-06
5.03429e-06
5.03284e-06
5.03135e-06
5.02892e-06
5.02577e-06
5.02275e-06
5.01993e-06
5.01867e-06
5.01825e-06
5.0176e-06
5.01501e-06
5.01151e-06
5.00823e-06
5.00573e-06
5.00265e-06
5.00298e-06
5.00326e-06
5.00366e-06
5.00267e-06
5.00234e-06
5.00276e-06
5.00283e-06
5.00347e-06
5.00315e-06
5.00322e-06
5.00331e-06
5.00336e-06
5.00346e-06
5.0043e-06
5.0055e-06
5.00644e-06
5.00695e-06
5.00716e-06
5.00786e-06
5.00915e-06
5.01066e-06
5.01212e-06
5.01342e-06
5.01464e-06
5.01583e-06
5.01703e-06
5.01824e-06
5.01945e-06
5.02068e-06
5.02192e-06
5.02319e-06
5.02448e-06
5.02583e-06
5.02719e-06
5.10381e-06
5.10194e-06
5.1002e-06
5.09817e-06
5.09617e-06
5.09405e-06
5.09201e-06
5.09003e-06
5.0882e-06
5.08638e-06
5.08449e-06
5.0822e-06
5.07947e-06
5.07604e-06
5.07265e-06
5.06985e-06
5.06773e-06
5.06685e-06
5.06595e-06
5.06412e-06
5.0606e-06
5.05679e-06
5.05346e-06
5.05078e-06
5.04824e-06
5.04873e-06
5.04888e-06
5.04906e-06
5.0479e-06
5.04758e-06
5.04797e-06