/*--------------------------------*- C++ -*----------------------------------*\
| =========                 |                                                 |
| \\      /  F ield         | OpenFOAM: The Open Source CFD Toolbox           |
|  \\    /   O peration     | Version:  2312                                  |
|   \\  /    A nd           | Website:  www.openfoam.com                      |
|    \\/     M anipulation  |                                                 |
\*---------------------------------------------------------------------------*/
FoamFile
{
    version     2.0;
    format      ascii;
    arch        "LSB;label=32;scalar=64";
    class       volScalarField;
    location    "200";
    object      nut;
}
// * * * * * * * * * * * * * * * * * * * * * * * * * * * * * * * * * * * * * //

dimensions      [0 2 -1 0 0 0 0];

internalField   nonuniform List<scalar> 
76025
(
7.56579e-05
7.62301e-05
7.68384e-05
7.78673e-05
7.77594e-05
7.84162e-05
7.90574e-05
7.86394e-05
8.00424e-05
8.03533e-05
8.08362e-05
8.10786e-05
8.15402e-05
8.21738e-05
8.38014e-05
8.36284e-05
8.48758e-05
8.45398e-05
8.71379e-05
8.62403e-05
8.69162e-05
8.8183e-05
8.95633e-05
9.01031e-05
9.1731e-05
9.09528e-05
9.31852e-05
9.42369e-05
9.36234e-05
9.88545e-05
0.000100306
9.92468e-05
0.000101489
0.000101813
0.00010491
0.000104919
0.000104741
0.000108219
0.000109199
0.00011343
0.000113554
0.000113325
0.000117528
0.000119452
0.00012199
0.000122533
0.000125884
0.000129223
0.000131199
0.000133571
0.000136067
0.000138581
0.000142761
0.000148185
0.000153903
0.00015552
0.000155741
0.000153776
0.000150906
0.000148521
0.00014464
0.000140507
0.000136727
0.000129067
0.000123227
0.000116952
0.000105658
9.64652e-05
8.61501e-05
7.16108e-05
7.19751e-05
7.24215e-05
7.30219e-05
7.3625e-05
7.38984e-05
7.46225e-05
7.48794e-05
7.53943e-05
7.60066e-05
7.66452e-05
7.7222e-05
7.79416e-05
7.83878e-05
7.88831e-05
7.98315e-05
8.02187e-05
8.12237e-05
8.18508e-05
8.29789e-05
8.36048e-05
8.45692e-05
8.54031e-05
8.61391e-05
8.71567e-05
8.84539e-05
8.91648e-05
9.04763e-05
9.14313e-05
9.19308e-05
9.33615e-05
9.49096e-05
9.57715e-05
9.77234e-05
9.87916e-05
0.000100642
0.000102356
0.000103654
0.000105815
0.000107239
0.00010923
0.000111382
0.000112615
0.000114965
0.000116395
0.000118995
0.000120691
0.000123093
0.000125304
0.000128315
0.000131699
0.00013503
0.000138657
0.000142434
0.000145936
0.000150795
0.00015275
0.000150034
0.000147282
0.000144356
0.000139545
0.00013606
0.000130539
0.000123215
0.000118366
0.000109915
9.79877e-05
8.90544e-05
7.6006e-05
6.74355e-05
6.78301e-05
6.82245e-05
6.86427e-05
6.91881e-05
6.9662e-05
7.02163e-05
7.07331e-05
7.12422e-05
7.17937e-05
7.23913e-05
7.30058e-05
7.36937e-05
7.43654e-05
7.49355e-05
7.56547e-05
7.62968e-05
7.7101e-05
7.78367e-05
7.87064e-05
7.95828e-05
8.05077e-05
8.14191e-05
8.23037e-05
8.32512e-05
8.43567e-05
8.54127e-05
8.65376e-05
8.76698e-05
8.88063e-05
8.99553e-05
9.13022e-05
9.26252e-05
9.40284e-05
9.54108e-05
9.68634e-05
9.83279e-05
9.98916e-05
0.000101594
0.00010334
0.000105097
0.000106909
0.000108875
0.000111
0.00011314
0.000115413
0.000117838
0.000120486
0.000123115
0.000125917
0.000128945
0.000132112
0.000135579
0.000139345
0.000143189
0.000147138
0.000149428
0.000146408
0.000143777
0.000139935
0.0001354
0.000131635
0.000125015
0.000118233
0.000112813
0.000102273
9.11042e-05
8.18974e-05
6.71091e-05
6.35556e-05
6.39358e-05
6.43408e-05
6.47582e-05
6.52071e-05
6.56875e-05
6.6193e-05
6.67322e-05
6.72924e-05
6.78697e-05
6.84662e-05
6.90815e-05
6.97256e-05
7.04041e-05
7.10926e-05
7.17969e-05
7.25312e-05
7.32897e-05
7.40906e-05
7.49148e-05
7.57817e-05
7.66799e-05
7.76127e-05
7.85711e-05
7.95686e-05
8.06092e-05
8.16944e-05
8.2804e-05
8.39424e-05
8.51296e-05
8.63333e-05
8.76111e-05
8.89468e-05
9.03122e-05
9.17473e-05
9.32293e-05
9.47803e-05
9.64201e-05
9.81214e-05
9.9901e-05
0.00010172
0.000103618
0.000105628
0.000107701
0.000109858
0.000112102
0.000114486
0.00011697
0.00011954
0.000122251
0.000125156
0.000128229
0.000131505
0.000134983
0.000138615
0.000142589
0.000145527
0.000142409
0.000139509
0.000134952
0.000130648
0.000126158
0.000118592
0.000112597
0.000105953
9.40521e-05
8.38692e-05
7.31638e-05
5.68218e-05
5.99289e-05
6.02822e-05
6.06719e-05
6.10868e-05
6.1516e-05
6.19723e-05
6.24578e-05
6.29757e-05
6.35241e-05
6.41014e-05
6.47053e-05
6.53328e-05
6.59827e-05
6.66587e-05
6.73618e-05
6.80886e-05
6.88444e-05
6.96258e-05
7.04401e-05
7.12843e-05
7.21609e-05
7.3069e-05
7.40114e-05
7.49876e-05
7.60007e-05
7.70543e-05
7.81485e-05
7.92776e-05
8.04431e-05
8.16452e-05
8.28869e-05
8.41847e-05
8.55468e-05
8.69546e-05
8.84163e-05
8.99317e-05
9.15087e-05
9.31495e-05
9.48538e-05
9.66273e-05
9.84654e-05
0.000100378
0.000102369
0.000104438
0.000106591
0.000108831
0.000111169
0.0001136
0.00011613
0.000118778
0.000121572
0.000124518
0.000127669
0.000131024
0.0001346
0.000138606
0.000141214
0.000138169
0.000134722
0.000129684
0.000125767
0.000119947
0.000112315
0.000106917
9.80579e-05
8.57951e-05
7.6186e-05
6.37773e-05
4.62402e-05
5.64349e-05
5.68004e-05
5.71879e-05
5.75965e-05
5.80196e-05
5.84657e-05
5.89402e-05
5.94433e-05
5.99751e-05
6.05373e-05
6.11306e-05
6.17539e-05
6.24056e-05
6.30849e-05
6.37923e-05
6.45285e-05
6.52945e-05
6.6091e-05
6.69186e-05
6.77782e-05
6.86702e-05
6.95951e-05
7.0554e-05
7.15479e-05
7.25785e-05
7.36484e-05
7.4758e-05
7.59063e-05
7.70941e-05
7.8322e-05
7.95962e-05
8.09189e-05
8.23004e-05
8.37288e-05
8.52079e-05
8.67418e-05
8.83338e-05
8.99859e-05
9.17007e-05
9.34798e-05
9.53232e-05
9.72323e-05
9.92101e-05
0.000101259
0.000103381
0.000105579
0.000107858
0.000110227
0.000112692
0.000115275
0.000117998
0.000120887
0.00012401
0.000127328
0.000130898
0.000134941
0.000136498
0.000133557
0.000129194
0.000124285
0.000120202
0.000112966
0.00010608
0.000100112
8.90071e-05
7.74911e-05
6.7621e-05
5.36558e-05
3.52813e-05
5.30393e-05
5.34368e-05
5.38456e-05
5.42662e-05
5.46953e-05
5.51421e-05
5.5613e-05
5.61092e-05
5.66313e-05
5.71814e-05
5.77616e-05
5.83727e-05
5.9015e-05
5.96885e-05
6.03934e-05
6.113e-05
6.18987e-05
6.27003e-05
6.3535e-05
6.44035e-05
6.53062e-05
6.62436e-05
6.72166e-05
6.8226e-05
6.9273e-05
7.03587e-05
7.1484e-05
7.26497e-05
7.38564e-05
7.51039e-05
7.64001e-05
7.7744e-05
7.91403e-05
8.05841e-05
8.20787e-05
8.36262e-05
8.52287e-05
8.68868e-05
8.86026e-05
9.03766e-05
9.22099e-05
9.41032e-05
9.60592e-05
9.80802e-05
0.000100169
0.000102332
0.000104575
0.000106912
0.000109353
0.000111924
0.000114639
0.000117546
0.000120689
0.000123979
0.000127543
0.000131589
0.000131562
0.000128365
0.000123166
0.000118777
0.00011372
0.000105696
9.97252e-05
9.19079e-05
7.95602e-05
6.90881e-05
5.78963e-05
4.32552e-05
2.62399e-05
4.97786e-05
5.01935e-05
5.06204e-05
5.10582e-05
5.15025e-05
5.19603e-05
5.24376e-05
5.29356e-05
5.34558e-05
5.40007e-05
5.45728e-05
5.51742e-05
5.58061e-05
5.64698e-05
5.71662e-05
5.78959e-05
5.86598e-05
5.94585e-05
6.02924e-05
6.11622e-05
6.20684e-05
6.30116e-05
6.39923e-05
6.50112e-05
6.60691e-05
6.71667e-05
6.83049e-05
6.94845e-05
7.07061e-05
7.19686e-05
7.32802e-05
7.46416e-05
7.60496e-05
7.7505e-05
7.90099e-05
8.05652e-05
8.21722e-05
8.38313e-05
8.55447e-05
8.73126e-05
8.91374e-05
9.10198e-05
9.2964e-05
9.49725e-05
9.70521e-05
9.92095e-05
0.000101455
0.000103801
0.000106261
0.000108858
0.000111607
0.000114564
0.000117696
0.000120917
0.000124462
0.000128436
0.000126359
0.000122399
0.00011688
0.00011288
0.000106233
9.84063e-05
9.26037e-05
8.22463e-05
7.00607e-05
5.99741e-05
4.74173e-05
3.3295e-05
2.22337e-05
4.67094e-05
4.71215e-05
4.75485e-05
4.7991e-05
4.84436e-05
4.89112e-05
4.93972e-05
4.9902e-05
5.04263e-05
5.09726e-05
5.15433e-05
5.21406e-05
5.27665e-05
5.34227e-05
5.41108e-05
5.48322e-05
5.55882e-05
5.63798e-05
5.72079e-05
5.80733e-05
5.89769e-05
5.99193e-05
6.0901e-05
6.19229e-05
6.29854e-05
6.40892e-05
6.5235e-05
6.64233e-05
6.76544e-05
6.89286e-05
7.02499e-05
7.16235e-05
7.30406e-05
7.45051e-05
7.60181e-05
7.75807e-05
7.91935e-05
8.08577e-05
8.25754e-05
8.43476e-05
8.61778e-05
8.80672e-05
9.00223e-05
9.20453e-05
9.41466e-05
9.63302e-05
9.86095e-05
0.000100992
0.000103493
0.000106131
0.000108923
0.000111895
0.000114917
0.000118053
0.000121624
0.000123828
0.000120697
0.00011569
0.000110551
0.000106148
9.80073e-05
9.11053e-05
8.40041e-05
7.17326e-05
6.05315e-05
4.99794e-05
3.69655e-05
2.45844e-05
2.2244e-05
4.38406e-05
4.42422e-05
4.46587e-05
4.50934e-05
4.55429e-05
4.60105e-05
4.64988e-05
4.7007e-05
4.75352e-05
4.80847e-05
4.86575e-05
4.92555e-05
4.98803e-05
5.05339e-05
5.1218e-05
5.19343e-05
5.26845e-05
5.347e-05
5.42922e-05
5.51523e-05
5.60513e-05
5.69903e-05
5.79699e-05
5.89912e-05
6.00545e-05
6.11608e-05
6.23106e-05
6.35045e-05
6.47416e-05
6.60261e-05
6.73574e-05
6.87397e-05
7.01672e-05
7.16431e-05
7.31682e-05
7.47439e-05
7.63706e-05
7.80508e-05
7.97861e-05
8.1579e-05
8.34328e-05
8.53502e-05
8.73375e-05
8.9397e-05
9.15389e-05
9.37639e-05
9.60863e-05
9.85074e-05
0.000101047
0.000103712
0.000106514
0.00010939
0.000112233
0.000115388
0.000119073
0.000117862
0.000114278
0.00010854
0.000104054
9.81615e-05
8.94928e-05
8.32975e-05
7.37057e-05
6.09148e-05
5.0705e-05
3.93776e-05
2.74954e-05
1.98615e-05
2.86834e-05
4.11599e-05
4.15511e-05
4.19551e-05
4.23779e-05
4.28178e-05
4.32782e-05
4.37612e-05
4.42661e-05
4.47928e-05
4.53422e-05
4.59156e-05
4.65145e-05
4.71401e-05
4.7794e-05
4.84778e-05
4.91931e-05
4.99418e-05
5.07253e-05
5.15453e-05
5.24032e-05
5.33003e-05
5.4238e-05
5.52172e-05
5.62391e-05
5.73045e-05
5.84142e-05
5.9569e-05
6.07695e-05
6.20141e-05
6.33096e-05
6.46557e-05
6.60498e-05
6.74924e-05
6.89857e-05
7.05302e-05
7.21277e-05
7.37784e-05
7.54858e-05
7.72506e-05
7.90769e-05
8.09661e-05
8.29228e-05
8.495e-05
8.70511e-05
8.92325e-05
9.14943e-05
9.38494e-05
9.62976e-05
9.8857e-05
0.000101512
0.000104228
0.000106907
0.000109731
0.000113169
0.000115072
0.000111555
0.000106982
0.000101306
9.68002e-05
8.89327e-05
8.10323e-05
7.40392e-05
6.20268e-05
5.02649e-05
4.04407e-05
2.93115e-05
1.9924e-05
2.15454e-05
4.47694e-05
3.86412e-05
3.90231e-05
3.94156e-05
3.98267e-05
4.0256e-05
4.07067e-05
4.1181e-05
4.16785e-05
4.21993e-05
4.27443e-05
4.3315e-05
4.39123e-05
4.45374e-05
4.51916e-05
4.58763e-05
4.6593e-05
4.73433e-05
4.81288e-05
4.8951e-05
4.98114e-05
5.07116e-05
5.1653e-05
5.26369e-05
5.36644e-05
5.47367e-05
5.58548e-05
5.70195e-05
5.82314e-05
5.94903e-05
6.0801e-05
6.21663e-05
6.35795e-05
6.50443e-05
6.65619e-05
6.8133e-05
6.97589e-05
7.14404e-05
7.31807e-05
7.498e-05
7.68426e-05
7.87683e-05
8.07624e-05
8.28242e-05
8.49592e-05
8.71687e-05
8.94574e-05
9.18336e-05
9.42949e-05
9.68351e-05
9.9403e-05
0.000101948
0.000104575
0.000107817
0.000111748
0.000108284
0.000104546
9.90764e-05
9.39295e-05
8.79864e-05
7.91532e-05
7.22435e-05
6.27472e-05
4.98207e-05
3.98233e-05
3.02305e-05
2.10095e-05
1.82469e-05
3.05846e-05
6.27527e-05
3.62793e-05
3.66514e-05
3.70325e-05
3.74319e-05
3.785e-05
3.82902e-05
3.87542e-05
3.92421e-05
3.97543e-05
4.02919e-05
4.08563e-05
4.14488e-05
4.20706e-05
4.27229e-05
4.34071e-05
4.41245e-05
4.48769e-05
4.56655e-05
4.64921e-05
4.7358e-05
4.82651e-05
4.92145e-05
5.02078e-05
5.12462e-05
5.2331e-05
5.34633e-05
5.46441e-05
5.5873e-05
5.71537e-05
5.8487e-05
5.98744e-05
6.13124e-05
6.28042e-05
6.43498e-05
6.59508e-05
6.76072e-05
6.93213e-05
7.10938e-05
7.29268e-05
7.48216e-05
7.67798e-05
7.88037e-05
8.08943e-05
8.30558e-05
8.52906e-05
8.76027e-05
8.99903e-05
9.24293e-05
9.48839e-05
9.73228e-05
9.98703e-05
0.00010302
0.00010701
0.000105128
0.000101178
9.65911e-05
9.09447e-05
8.55436e-05
7.7608e-05
6.96081e-05
6.19221e-05
4.93067e-05
3.84805e-05
2.9974e-05
2.16781e-05
1.65068e-05
2.36253e-05
5.00101e-05
7.2832e-05
3.40562e-05
3.44192e-05
3.47894e-05
3.51772e-05
3.55842e-05
3.60133e-05
3.64664e-05
3.69436e-05
3.74456e-05
3.79739e-05
3.85299e-05
3.9115e-05
3.97307e-05
4.03783e-05
4.10593e-05
4.17753e-05
4.25278e-05
4.33184e-05
4.41487e-05
4.50204e-05
4.59349e-05
4.68939e-05
4.78987e-05
4.89507e-05
5.00512e-05
5.12011e-05
5.24018e-05
5.36519e-05
5.49576e-05
5.63189e-05
5.77328e-05
5.91998e-05
6.07223e-05
6.22988e-05
6.3932e-05
6.56197e-05
6.73666e-05
6.91699e-05
7.10355e-05
7.29595e-05
7.495e-05
7.70019e-05
7.91263e-05
8.13167e-05
8.35844e-05
8.59074e-05
8.82764e-05
9.06355e-05
9.30251e-05
9.55847e-05
9.87945e-05
0.000102906
0.000101243
9.77549e-05
9.32231e-05
8.79151e-05
8.22564e-05
7.53111e-05
6.70079e-05
5.95e-05
4.80684e-05
3.68017e-05
2.87345e-05
2.123e-05
1.56944e-05
1.94388e-05
3.95798e-05
6.23474e-05
7.94165e-05
3.19727e-05
3.23269e-05
3.26869e-05
3.30636e-05
3.34596e-05
3.38776e-05
3.43194e-05
3.47854e-05
3.52764e-05
3.57941e-05
3.63401e-05
3.6916e-05
3.75235e-05
3.81641e-05
3.88395e-05
3.95514e-05
4.03018e-05
4.10921e-05
4.19244e-05
4.28002e-05
4.37214e-05
4.46894e-05
4.57061e-05
4.67724e-05
4.78902e-05
4.906e-05
5.02827e-05
5.15588e-05
5.28917e-05
5.42805e-05
5.5723e-05
5.722e-05
5.87741e-05
6.03821e-05
6.20483e-05
6.37686e-05
6.555e-05
6.73862e-05
6.92882e-05
7.12462e-05
7.32774e-05
7.53666e-05
7.75368e-05
7.97576e-05
8.20478e-05
8.43429e-05
8.66748e-05
8.90424e-05
9.17536e-05
9.51197e-05
9.94993e-05
9.7887e-05
9.31119e-05
8.99757e-05
8.40168e-05
7.86853e-05
7.20334e-05
6.41292e-05
5.59109e-05
4.56875e-05
3.46666e-05
2.68642e-05
2.0257e-05
1.50556e-05
1.67769e-05
3.18837e-05
5.32612e-05
6.85162e-05
8.81634e-05
3.00108e-05
3.03559e-05
3.07059e-05
3.10719e-05
3.14573e-05
3.18646e-05
3.22953e-05
3.27501e-05
3.323e-05
3.37366e-05
3.4272e-05
3.48378e-05
3.54359e-05
3.6068e-05
3.67361e-05
3.74421e-05
3.81881e-05
3.89761e-05
3.98081e-05
4.06859e-05
4.16118e-05
4.25872e-05
4.36142e-05
4.46939e-05
4.58282e-05
4.70175e-05
4.82619e-05
4.95653e-05
5.09299e-05
5.23503e-05
5.38291e-05
5.53637e-05
5.69568e-05
5.86039e-05
6.03102e-05
6.20699e-05
6.38927e-05
6.57698e-05
6.77171e-05
6.97207e-05
7.18036e-05
7.39383e-05
7.61491e-05
7.83806e-05
8.06687e-05
8.29708e-05
8.54758e-05
8.83847e-05
9.21523e-05
9.58575e-05
9.31828e-05
8.9217e-05
8.49919e-05
8.0651e-05
7.38198e-05
6.83935e-05
6.0424e-05
5.163e-05
4.21855e-05
3.20276e-05
2.44815e-05
1.88798e-05
1.41753e-05
1.51045e-05
2.69048e-05
4.57199e-05
5.93893e-05
7.61095e-05
9.73786e-05
2.8187e-05
2.85216e-05
2.88606e-05
2.92155e-05
2.95898e-05
2.99862e-05
3.04059e-05
3.08497e-05
3.13186e-05
3.18146e-05
3.23396e-05
3.28956e-05
3.34845e-05
3.41083e-05
3.47693e-05
3.54696e-05
3.62117e-05
3.69977e-05
3.78301e-05
3.87111e-05
3.96431e-05
4.06279e-05
4.1668e-05
4.27647e-05
4.39199e-05
4.51339e-05
4.64077e-05
4.77425e-05
4.91392e-05
5.05926e-05
5.21072e-05
5.36798e-05
5.53133e-05
5.70027e-05
5.87539e-05
6.05603e-05
6.24332e-05
6.43621e-05
6.63653e-05
6.84227e-05
7.05561e-05
7.27254e-05
7.49603e-05
7.7226e-05
7.96461e-05
8.23403e-05
8.56669e-05
8.97682e-05
9.18238e-05
8.73475e-05
8.52382e-05
7.95316e-05
7.62707e-05
6.90062e-05
6.33548e-05
5.60838e-05
4.64631e-05
3.79535e-05
2.87484e-05
2.19125e-05
1.6994e-05
1.31761e-05
1.39379e-05
2.39967e-05
3.99433e-05
5.17718e-05
6.63792e-05
8.54276e-05
0.000109338
2.64786e-05
2.6801e-05
2.71275e-05
2.74695e-05
2.78312e-05
2.82149e-05
2.86221e-05
2.90534e-05
2.951e-05
2.9994e-05
3.05074e-05
3.10523e-05
3.16308e-05
3.22451e-05
3.28977e-05
3.3591e-05
3.43277e-05
3.51103e-05
3.59417e-05
3.68244e-05
3.77612e-05
3.87544e-05
3.98065e-05
4.09195e-05
4.20954e-05
4.33341e-05
4.46414e-05
4.60189e-05
4.74628e-05
4.8971e-05
5.05437e-05
5.21765e-05
5.38705e-05
5.56202e-05
5.74316e-05
5.92971e-05
6.12297e-05
6.32145e-05
6.52716e-05
6.73715e-05
6.95471e-05
7.17714e-05
7.4141e-05
7.674e-05
7.98105e-05
8.35457e-05
8.81324e-05
8.55162e-05
8.30825e-05
7.86629e-05
7.56324e-05
6.91957e-05
6.50123e-05
5.66045e-05
5.09196e-05
4.04008e-05
3.31865e-05
2.51225e-05
1.89024e-05
1.52397e-05
1.17106e-05
1.33621e-05
2.24843e-05
3.54294e-05
4.5442e-05
5.85043e-05
7.54144e-05
9.60903e-05
0.000124518
2.49274e-05
2.52373e-05
2.55515e-05
2.5881e-05
2.62302e-05
2.66016e-05
2.69963e-05
2.74153e-05
2.786e-05
2.83325e-05
2.8835e-05
2.93697e-05
2.99389e-05
3.05453e-05
3.11916e-05
3.18805e-05
3.26151e-05
3.33985e-05
3.42339e-05
3.51246e-05
3.60736e-05
3.70842e-05
3.81591e-05
3.9301e-05
4.05114e-05
4.17909e-05
4.31396e-05
4.45568e-05
4.60412e-05
4.75951e-05
4.92176e-05
5.09058e-05
5.26594e-05
5.44726e-05
5.63495e-05
5.82787e-05
6.02729e-05
6.23118e-05
6.44297e-05
6.66063e-05
6.89409e-05
7.14789e-05
7.44353e-05
7.79166e-05
8.21113e-05
8.27353e-05
7.98384e-05
7.70292e-05
7.30064e-05
6.90039e-05
6.36535e-05
5.76776e-05
5.13183e-05
4.24673e-05
3.55704e-05
2.69927e-05
2.17082e-05
1.57999e-05
1.30689e-05
1.08219e-05
1.26042e-05
2.19668e-05
3.18886e-05
4.00778e-05
5.23073e-05
6.71031e-05
8.51865e-05
0.000109633
0.000145408
2.3465e-05
2.37617e-05
2.40616e-05
2.43762e-05
2.47103e-05
2.50663e-05
2.54457e-05
2.58493e-05
2.62786e-05
2.6736e-05
2.72236e-05
2.7744e-05
2.82997e-05
2.88935e-05
2.95283e-05
3.02074e-05
3.09342e-05
3.17123e-05
3.25453e-05
3.34372e-05
3.43916e-05
3.54129e-05
3.65042e-05
3.76697e-05
3.8911e-05
4.02384e-05
4.16547e-05
4.3155e-05
4.47346e-05
4.63913e-05
4.81179e-05
4.99101e-05
5.17606e-05
5.36629e-05
5.56157e-05
5.76123e-05
5.96758e-05
6.18092e-05
6.41009e-05
6.65881e-05
6.94655e-05
7.2748e-05
7.66406e-05
7.86445e-05
7.63544e-05
7.37576e-05
6.99346e-05
6.69745e-05
6.10248e-05
5.72433e-05
4.92308e-05
4.3686e-05
3.47259e-05
2.89491e-05
2.19736e-05
1.7475e-05
1.32783e-05
1.10219e-05
9.78821e-06
1.27905e-05
2.15195e-05
2.89062e-05
3.57984e-05
4.75325e-05
6.05211e-05
7.61012e-05
9.77062e-05
0.00012928
0.000173576
2.22223e-05
2.25058e-05
2.27946e-05
2.30983e-05
2.34209e-05
2.37651e-05
2.41324e-05
2.45238e-05
2.49412e-05
2.5387e-05
2.58637e-05
2.63741e-05
2.6921e-05
2.75078e-05
2.81376e-05
2.88146e-05
2.95424e-05
3.03256e-05
3.11685e-05
3.20762e-05
3.30528e-05
3.41041e-05
3.52333e-05
3.64456e-05
3.77388e-05
3.91129e-05
4.05672e-05
4.21109e-05
4.37417e-05
4.54622e-05
4.72611e-05
4.91375e-05
5.10762e-05
5.30792e-05
5.51438e-05
5.72957e-05
5.95852e-05
6.20725e-05
6.48693e-05
6.7978e-05
7.14911e-05
7.37985e-05
7.23289e-05
6.89806e-05
6.67679e-05
6.24694e-05
5.84788e-05
5.35148e-05
4.72596e-05
4.1266e-05
3.36237e-05
2.81974e-05
2.17421e-05
1.75803e-05
1.3411e-05
1.10608e-05
9.04703e-06
9.65977e-06
1.36766e-05
2.03412e-05
2.59369e-05
3.27325e-05
4.34436e-05
5.49656e-05
6.85245e-05
8.81583e-05
0.000116836
0.00015521
0.000200401
2.09701e-05
2.12423e-05
2.15162e-05
2.18033e-05
2.21093e-05
2.24367e-05
2.27868e-05
2.31606e-05
2.35601e-05
2.39876e-05
2.44459e-05
2.49379e-05
2.54665e-05
2.60355e-05
2.66485e-05
2.73101e-05
2.80245e-05
2.87973e-05
2.96336e-05
3.05401e-05
3.15222e-05
3.25882e-05
3.3743e-05
3.49991e-05
3.63719e-05
3.78691e-05
3.94766e-05
4.11956e-05
4.30101e-05
4.49205e-05
4.69063e-05
4.89756e-05
5.11118e-05
5.33493e-05
5.56932e-05
5.82099e-05
6.08975e-05
6.37643e-05
6.66897e-05
6.87977e-05
6.67428e-05
6.40531e-05
6.17502e-05
5.72567e-05
5.42357e-05
4.8203e-05
4.36251e-05
3.68788e-05
3.1145e-05
2.54556e-05
2.05317e-05
1.63887e-05
1.28972e-05
1.05823e-05
8.7192e-06
8.12001e-06
9.75992e-06
1.44839e-05
1.90007e-05
2.33131e-05
3.06636e-05
3.95775e-05
4.97666e-05
6.22372e-05
8.07265e-05
0.000107168
0.000140071
0.000176735
0.000215393
2.0163e-05
2.04152e-05
2.06775e-05
2.09552e-05
2.12507e-05
2.15669e-05
2.19056e-05
2.22684e-05
2.26572e-05
2.30747e-05
2.35238e-05
2.40078e-05
2.45299e-05
2.50943e-05
2.57051e-05
2.63676e-05
2.70863e-05
2.78678e-05
2.87176e-05
2.9644e-05
3.06528e-05
3.17535e-05
3.2949e-05
3.4238e-05
3.56171e-05
3.71105e-05
3.87272e-05
4.04859e-05
4.23804e-05
4.44354e-05
4.66403e-05
4.90202e-05
5.1536e-05
5.41836e-05
5.68405e-05
5.94021e-05
6.15804e-05
6.293e-05
6.00947e-05
5.84048e-05
5.4639e-05
5.1565e-05
4.71106e-05
4.22736e-05
3.7389e-05
3.13339e-05
2.68021e-05
2.16648e-05
1.79007e-05
1.43465e-05
1.16188e-05
9.55044e-06
8.018e-06
7.24162e-06
7.99249e-06
1.07642e-05
1.40055e-05
1.71183e-05
2.19383e-05
2.9195e-05
3.71653e-05
4.55217e-05
5.74112e-05
7.5189e-05
9.87646e-05
0.000125729
0.000154579
0.000184478
0.000214683
1.90369e-05
1.92944e-05
1.95468e-05
1.98089e-05
2.00883e-05
2.03878e-05
2.07085e-05
2.10518e-05
2.14197e-05
2.18152e-05
2.22411e-05
2.2701e-05
2.31985e-05
2.37385e-05
2.43255e-05
2.49664e-05
2.56666e-05
2.64343e-05
2.72763e-05
2.82057e-05
2.92308e-05
3.0368e-05
3.16424e-05
3.30894e-05
3.47036e-05
3.65028e-05
3.84894e-05
4.06871e-05
4.30717e-05
4.56388e-05
4.83016e-05
5.09769e-05
5.34091e-05
5.53725e-05
5.64685e-05
5.53085e-05
5.24085e-05
5.02299e-05
4.63012e-05
4.31102e-05
3.8254e-05
3.43079e-05
2.91257e-05
2.49924e-05
2.07577e-05
1.72112e-05
1.43955e-05
1.16194e-05
9.84336e-06
8.10726e-06
7.00966e-06
6.47376e-06
6.9371e-06
8.44521e-06
1.04323e-05
1.26917e-05
1.60897e-05
2.17768e-05
2.81093e-05
3.39099e-05
4.18038e-05
5.3785e-05
6.96988e-05
8.88993e-05
0.000109619
0.000131163
0.000153104
0.000175124
0.000196885
1.90069e-05
1.92088e-05
1.94376e-05
1.96869e-05
1.99527e-05
2.02378e-05
2.05448e-05
2.08757e-05
2.12318e-05
2.16162e-05
2.20313e-05
2.2481e-05
2.29682e-05
2.34981e-05
2.40745e-05
2.47054e-05
2.53957e-05
2.61586e-05
2.70013e-05
2.79458e-05
2.9003e-05
3.01794e-05
3.14703e-05
3.29172e-05
3.45413e-05
3.63718e-05
3.8381e-05
4.05483e-05
4.27598e-05
4.48772e-05
4.66698e-05
4.79454e-05
4.73322e-05
4.53589e-05
4.21216e-05
3.92153e-05
3.54261e-05
3.18117e-05
2.78932e-05
2.41351e-05
2.06195e-05
1.74624e-05
1.46369e-05
1.24059e-05
1.03969e-05
9.10743e-06
7.6678e-06
6.69571e-06
5.83349e-06
5.58929e-06
5.92763e-06
6.63444e-06
7.75584e-06
9.32994e-06
1.20419e-05
1.63475e-05
2.12622e-05
2.45226e-05
2.97122e-05
3.72522e-05
4.7839e-05
6.05151e-05
7.43672e-05
8.87358e-05
0.000103357
0.000118174
0.000133146
0.000148083
0.000162662
1.80489e-05
1.83364e-05
1.8596e-05
1.8856e-05
1.91333e-05
1.94329e-05
1.97556e-05
2.01036e-05
2.04795e-05
2.0888e-05
2.1333e-05
2.18208e-05
2.23569e-05
2.29515e-05
2.36178e-05
2.43782e-05
2.52446e-05
2.62185e-05
2.73009e-05
2.84967e-05
2.98248e-05
3.12923e-05
3.28644e-05
3.44933e-05
3.61223e-05
3.77109e-05
3.92208e-05
3.98463e-05
3.76918e-05
3.56551e-05
3.29707e-05
3.04711e-05
2.74839e-05
2.47421e-05
2.18001e-05
1.91365e-05
1.66484e-05
1.43673e-05
1.24493e-05
1.0729e-05
9.48196e-06
8.17299e-06
7.32475e-06
6.36141e-06
5.84063e-06
5.06838e-06
4.57981e-06
4.55189e-06
4.75625e-06
5.18589e-06
5.88697e-06
6.97669e-06
9.25411e-06
1.22805e-05
1.48435e-05
1.51337e-05
1.74242e-05
2.23371e-05
2.8742e-05
3.59337e-05
4.37858e-05
5.1882e-05
6.03079e-05
6.90245e-05
7.7852e-05
8.6706e-05
9.55846e-05
0.000104623
0.00011406
2.07046e-05
2.08987e-05
2.1176e-05
2.14894e-05
2.18201e-05
2.21762e-05
2.25587e-05
2.29804e-05
2.34375e-05
2.39402e-05
2.44902e-05
2.50948e-05
2.57568e-05
2.64705e-05
2.72332e-05
2.80189e-05
2.87673e-05
2.81787e-05
2.75987e-05
2.68759e-05
2.60156e-05
2.50196e-05
2.39022e-05
2.26671e-05
2.13357e-05
1.99287e-05
1.84582e-05
1.69429e-05
1.54377e-05
1.40131e-05
1.2643e-05
1.14353e-05
1.02665e-05
9.29943e-06
8.34974e-06
7.65778e-06
7.07141e-06
6.52108e-06
5.93088e-06
5.34238e-06
4.83363e-06
4.35737e-06
4.01121e-06
3.68116e-06
3.48186e-06
3.35792e-06
3.35136e-06
3.50502e-06
3.76497e-06
4.03971e-06
4.25418e-06
3.91762e-06
4.83563e-06
6.3536e-06
7.61088e-06
8.5446e-06
1.02631e-05
1.26888e-05
1.56614e-05
1.90523e-05
2.26783e-05
2.64606e-05
3.03737e-05
3.43373e-05
3.83174e-05
4.23272e-05
4.64954e-05
5.11423e-05
5.69279e-05
8.63e-06
8.51304e-06
8.39857e-06
8.28365e-06
8.17214e-06
8.05815e-06
7.94897e-06
7.83453e-06
7.72687e-06
7.61093e-06
7.50328e-06
7.38516e-06
7.27502e-06
7.15446e-06
7.03811e-06
6.9161e-06
6.78325e-06
6.64706e-06
6.50859e-06
6.37595e-06
6.25511e-06
6.14169e-06
6.04274e-06
5.9457e-06
5.86701e-06
5.78145e-06
5.71502e-06
5.63289e-06
5.56464e-06
5.46594e-06
5.36597e-06
5.21459e-06
5.05172e-06
4.84696e-06
4.58326e-06
4.28311e-06
3.90513e-06
3.49454e-06
3.07134e-06
2.67546e-06
2.31665e-06
1.94026e-06
1.63584e-06
1.25416e-06
9.07748e-07
7.18333e-07
6.37487e-07
7.05922e-07
8.23421e-07
8.44944e-07
7.82086e-07
7.2153e-07
7.17615e-07
7.72166e-07
8.48413e-07
9.70787e-07
1.19335e-06
1.52999e-06
1.98879e-06
2.56991e-06
3.24617e-06
3.92939e-06
4.65566e-06
5.41387e-06
6.19394e-06
7.00484e-06
7.88473e-06
8.93921e-06
1.04268e-05
3.6623e-06
3.7672e-06
3.87315e-06
3.97997e-06
4.08761e-06
4.19574e-06
4.30451e-06
4.41327e-06
4.52255e-06
4.63116e-06
4.74022e-06
4.84785e-06
4.95591e-06
5.06172e-06
5.16809e-06
5.27155e-06
5.36926e-06
5.45346e-06
5.53271e-06
5.59194e-06
5.64569e-06
5.67523e-06
5.68262e-06
5.67394e-06
5.65695e-06
5.58913e-06
5.50965e-06
5.38004e-06
5.21032e-06
4.99459e-06
4.72773e-06
4.40359e-06
4.01715e-06
3.56547e-06
3.04875e-06
2.47574e-06
1.86566e-06
1.24704e-06
6.92991e-07
2.98108e-07
1.09637e-07
7.62873e-08
8.1577e-08
7.89719e-08
6.82571e-08
5.87441e-08
4.97402e-08
4.16991e-08
3.66406e-08
3.36515e-08
3.05599e-08
2.79119e-08
2.64673e-08
2.64107e-08
2.77795e-08
3.03438e-08
3.42925e-08
3.94172e-08
4.54668e-08
5.21177e-08
5.91379e-08
6.6805e-08
7.46495e-08
8.23096e-08
8.97456e-08
9.71021e-08
1.04591e-07
1.12121e-07
1.15092e-07
7.10096e-05
7.09894e-05
7.00819e-05
7.06009e-05
7.0016e-05
6.93029e-05
6.87013e-05
6.91874e-05
6.98684e-05
6.9505e-05
6.98077e-05
6.89837e-05
6.727e-05
6.6604e-05
6.75126e-05
6.9945e-05
6.79764e-05
6.71307e-05
6.7176e-05
6.75158e-05
6.65387e-05
6.67008e-05
6.70985e-05
6.61544e-05
6.69563e-05
6.7131e-05
6.64046e-05
6.59407e-05
6.70556e-05
6.77103e-05
6.70429e-05
6.70169e-05
6.73581e-05
6.81702e-05
6.72865e-05
6.76534e-05
6.84133e-05
6.80516e-05
6.82813e-05
7.04542e-05
6.99659e-05
6.88969e-05
7.01016e-05
7.13873e-05
7.09323e-05
7.10404e-05
7.23531e-05
7.25011e-05
7.27493e-05
7.36817e-05
7.3966e-05
7.33444e-05
7.44657e-05
7.34305e-05
7.39843e-05
7.46013e-05
7.49404e-05
7.52269e-05
7.54094e-05
6.68198e-05
6.64131e-05
6.62568e-05
6.60318e-05
6.57168e-05
6.5446e-05
6.54306e-05
6.57302e-05
6.58842e-05
6.55265e-05
6.49012e-05
6.40622e-05
6.37069e-05
6.37676e-05
6.48291e-05
6.44787e-05
6.30645e-05
6.27339e-05
6.32566e-05
6.30397e-05
6.23802e-05
6.2271e-05
6.24547e-05
6.20856e-05
6.25585e-05
6.24264e-05
6.225e-05
6.16505e-05
6.24942e-05
6.30099e-05
6.23034e-05
6.25419e-05
6.28414e-05
6.34795e-05
6.32012e-05
6.33258e-05
6.41115e-05
6.40899e-05
6.3982e-05
6.47896e-05
6.51889e-05
6.50513e-05
6.52544e-05
6.61154e-05
6.68733e-05
6.67869e-05
6.74783e-05
6.80053e-05
6.8437e-05
6.90287e-05
6.9332e-05
6.95361e-05
6.97329e-05
7.00406e-05
6.99548e-05
7.05508e-05
7.09077e-05
7.11426e-05
7.13389e-05
6.26868e-05
6.24859e-05
6.23522e-05
6.21765e-05
6.20864e-05
6.20421e-05
6.2025e-05
6.19193e-05
6.15923e-05
6.10407e-05
6.04448e-05
6.01272e-05
6.02189e-05
6.03431e-05
6.04321e-05
5.9514e-05
5.90136e-05
5.9064e-05
5.93217e-05
5.88493e-05
5.81756e-05
5.81454e-05
5.81646e-05
5.81223e-05
5.83682e-05
5.80892e-05
5.80572e-05
5.76065e-05
5.8203e-05
5.85178e-05
5.80642e-05
5.83847e-05
5.85746e-05
5.8959e-05
5.89893e-05
5.90976e-05
5.96685e-05
5.9942e-05
5.99674e-05
6.02812e-05
6.08518e-05
6.11982e-05
6.12118e-05
6.143e-05
6.2273e-05
6.25534e-05
6.2949e-05
6.34335e-05
6.3978e-05
6.45421e-05
6.4966e-05
6.5351e-05
6.55625e-05
6.5912e-05
6.60874e-05
6.63519e-05
6.66255e-05
6.6876e-05
6.71102e-05
5.92047e-05
5.90718e-05
5.89585e-05
5.88427e-05
5.87169e-05
5.85433e-05
5.82811e-05
5.79226e-05
5.74824e-05
5.70644e-05
5.67978e-05
5.67478e-05
5.67723e-05
5.66093e-05
5.61805e-05
5.55945e-05
5.54991e-05
5.55681e-05
5.54448e-05
5.49354e-05
5.44469e-05
5.44115e-05
5.43897e-05
5.44559e-05
5.45435e-05
5.42541e-05
5.42168e-05
5.39471e-05
5.43669e-05
5.45456e-05
5.43292e-05
5.46302e-05
5.47189e-05
5.49862e-05
5.51097e-05
5.52476e-05
5.56608e-05
5.60262e-05
5.61933e-05
5.63931e-05
5.68662e-05
5.73835e-05
5.75557e-05
5.7617e-05
5.8107e-05
5.85779e-05
5.89731e-05
5.93627e-05
5.98281e-05
6.03359e-05
6.08147e-05
6.12667e-05
6.16512e-05
6.20082e-05
6.23161e-05
6.25709e-05
6.28153e-05
6.30542e-05
6.32716e-05
5.59593e-05
5.58013e-05
5.56378e-05
5.54384e-05
5.5193e-05
5.48942e-05
5.45528e-05
5.42075e-05
5.39059e-05
5.36952e-05
5.35831e-05
5.34897e-05
5.32876e-05
5.29175e-05
5.24801e-05
5.22044e-05
5.21662e-05
5.20627e-05
5.17492e-05
5.1319e-05
5.10174e-05
5.09556e-05
5.09293e-05
5.09997e-05
5.09668e-05
5.07162e-05
5.06742e-05
5.05171e-05
5.0817e-05
5.09249e-05
5.08396e-05
5.10967e-05
5.11537e-05
5.13749e-05
5.15379e-05
5.16954e-05
5.20167e-05
5.23763e-05
5.26164e-05
5.27827e-05
5.31189e-05
5.36345e-05
5.39997e-05
5.4159e-05
5.44361e-05
5.48433e-05
5.52584e-05
5.56437e-05
5.60387e-05
5.64651e-05
5.69066e-05
5.73493e-05
5.77798e-05
5.81833e-05
5.85574e-05
5.88896e-05
5.91888e-05
5.9454e-05
5.96695e-05
5.27285e-05
5.25129e-05
5.22872e-05
5.20273e-05
5.17469e-05
5.14576e-05
5.11816e-05
5.09422e-05
5.07506e-05
5.05921e-05
5.04227e-05
5.01791e-05
4.98436e-05
4.94736e-05
4.91799e-05
4.90265e-05
4.89025e-05
4.86542e-05
4.83016e-05
4.79695e-05
4.77666e-05
4.76927e-05
4.76684e-05
4.76964e-05
4.75833e-05
4.73785e-05
4.73389e-05
4.72466e-05
4.74631e-05
4.75348e-05
4.75141e-05
4.773e-05
4.77906e-05
4.79815e-05
4.81637e-05
4.83336e-05
4.8599e-05
4.89289e-05
4.92091e-05
4.93943e-05
4.96422e-05
5.00679e-05
5.05088e-05
5.08037e-05
5.10517e-05
5.13655e-05
5.17376e-05
5.21221e-05
5.25025e-05
5.28877e-05
5.32827e-05
5.36852e-05
5.40909e-05
5.44912e-05
5.48789e-05
5.52457e-05
5.55891e-05
5.58978e-05
5.61495e-05
4.95628e-05
4.93263e-05
4.90947e-05
4.88483e-05
4.86066e-05
4.83751e-05
4.81615e-05
4.79629e-05
4.77655e-05
4.75442e-05
4.72768e-05
4.69603e-05
4.66335e-05
4.63507e-05
4.61447e-05
4.59772e-05
4.57511e-05
4.54419e-05
4.51194e-05
4.48647e-05
4.47082e-05
4.46305e-05
4.45974e-05
4.45675e-05
4.44124e-05
4.42457e-05
4.42067e-05
4.41534e-05
4.43086e-05
4.43611e-05
4.43763e-05
4.45582e-05
4.463e-05
4.47956e-05
4.49814e-05
4.51608e-05
4.5392e-05
4.56892e-05
4.59884e-05
4.62161e-05
4.64368e-05
4.6769e-05
4.71838e-05
4.75561e-05
4.78571e-05
4.81459e-05
4.84672e-05
4.88202e-05
4.91866e-05
4.95557e-05
4.9926e-05
5.02976e-05
5.06708e-05
5.10434e-05
5.14118e-05
5.1771e-05
5.21197e-05
5.24451e-05
5.27218e-05
4.65901e-05
4.63715e-05
4.61651e-05
4.59499e-05
4.57394e-05
4.55287e-05
4.53152e-05
4.50889e-05
4.48403e-05
4.45632e-05
4.42649e-05
4.39662e-05
4.3697e-05
4.34685e-05
4.32632e-05
4.30342e-05
4.27496e-05
4.24434e-05
4.21719e-05
4.19699e-05
4.18351e-05
4.17531e-05
4.16977e-05
4.16154e-05
4.14476e-05
4.1312e-05
4.12743e-05
4.12457e-05
4.13572e-05
4.14006e-05
4.1436e-05
4.15879e-05
4.16679e-05