/*--------------------------------*- C++ -*----------------------------------*\
| =========                 |                                                 |
| \\      /  F ield         | OpenFOAM: The Open Source CFD Toolbox           |
|  \\    /   O peration     | Version:  2312                                  |
|   \\  /    A nd           | Website:  www.openfoam.com                      |
|    \\/     M anipulation  |                                                 |
\*---------------------------------------------------------------------------*/
FoamFile
{
    version     2.0;
    format      ascii;
    arch        "LSB;label=32;scalar=64";
    class       volScalarField;
    location    "200";
    object      omega;
}
// * * * * * * * * * * * * * * * * * * * * * * * * * * * * * * * * * * * * * //

dimensions      [0 0 -1 0 0 0 0];

internalField   nonuniform List<scalar> 
76025
(
0.0285782
0.0285759
0.0285666
0.0285647
0.028554
0.0285547
0.0285547
0.0285637
0.0285654
0.0285717
0.0285751
0.0285761
0.028582
0.0285822
0.0285893
0.0285951
0.0286015
0.0286149
0.0286217
0.0286361
0.028651
0.0286722
0.0286901
0.0287138
0.0287418
0.0287688
0.0288088
0.0288374
0.0288822
0.0289199
0.02896
0.0290061
0.0290571
0.0291133
0.0291733
0.0292351
0.0293108
0.0293867
0.0294737
0.0295666
0.0296659
0.0297872
0.0299108
0.0300568
0.0302147
0.0304026
0.0306024
0.0308289
0.0310989
0.0313832
0.0317276
0.0320985
0.0325273
0.0329961
0.0335576
0.0341702
0.0348796
0.0356789
0.0367688
0.0378134
0.0393104
0.0410705
0.042859
0.0462132
0.0494124
0.0529098
0.0597611
0.0674111
0.0775609
0.0288729
0.0288689
0.0288654
0.0288639
0.0288597
0.0288541
0.0288531
0.0288574
0.0288631
0.02887
0.0288785
0.0288861
0.0288959
0.0289041
0.0289162
0.0289265
0.0289396
0.028953
0.0289687
0.0289842
0.0290028
0.0290229
0.0290462
0.0290706
0.0291009
0.0291297
0.0291658
0.0292026
0.0292439
0.0292897
0.0293407
0.029393
0.0294533
0.0295164
0.0295864
0.0296628
0.0297455
0.0298373
0.0299385
0.0300492
0.0301743
0.0303101
0.0304646
0.0306344
0.0308261
0.0310385
0.0312765
0.0315419
0.0318411
0.0321691
0.0325469
0.0329575
0.0334308
0.0339745
0.0345655
0.0353217
0.0360906
0.0371436
0.0382907
0.0395593
0.0415065
0.0432256
0.0457672
0.0494137
0.0523927
0.0573611
0.0660336
0.0751887
0.0909931
0.0292231
0.02923
0.0292288
0.0292272
0.0292261
0.0292235
0.0292278
0.0292326
0.0292374
0.0292426
0.0292499
0.0292576
0.029268
0.0292778
0.0292914
0.0293049
0.0293214
0.0293384
0.0293582
0.0293788
0.029402
0.0294264
0.0294539
0.0294832
0.0295166
0.0295519
0.0295912
0.0296336
0.0296803
0.0297312
0.0297878
0.029849
0.0299162
0.0299896
0.03007
0.0301582
0.0302549
0.0303616
0.030479
0.0306086
0.0307515
0.0309101
0.0310846
0.0312799
0.031493
0.0317339
0.0319963
0.0322935
0.0326217
0.0329871
0.0334096
0.0338614
0.034418
0.0350003
0.0357262
0.0365446
0.0374592
0.0386721
0.0398717
0.041512
0.0435412
0.0454847
0.0487103
0.0525182
0.0560184
0.062986
0.0729786
0.084005
0.10658
0.0295964
0.0296115
0.0296249
0.0296361
0.0296467
0.0296549
0.0296631
0.0296705
0.029678
0.0296853
0.0296937
0.0297025
0.0297133
0.0297249
0.0297386
0.0297538
0.0297714
0.0297908
0.0298126
0.0298365
0.0298631
0.0298919
0.0299237
0.0299582
0.0299962
0.0300375
0.0300827
0.0301318
0.0301857
0.0302445
0.030309
0.0303796
0.0304569
0.0305413
0.030634
0.0307349
0.0308465
0.0309678
0.0311029
0.0312494
0.0314131
0.0315913
0.0317898
0.0320084
0.0322488
0.0325202
0.0328126
0.0331527
0.0335141
0.0339421
0.0344052
0.0349412
0.0355632
0.0362375
0.0370888
0.0379901
0.0391064
0.0404515
0.0418345
0.0438598
0.0460133
0.048426
0.0524607
0.0563303
0.0608834
0.0702698
0.0817309
0.0971228
0.131031
0.0300354
0.0300512
0.0300683
0.0300857
0.0301035
0.0301207
0.0301376
0.0301536
0.0301693
0.0301842
0.0301992
0.0302141
0.0302297
0.030246
0.0302635
0.0302824
0.030303
0.0303256
0.0303504
0.0303776
0.0304075
0.0304403
0.0304762
0.0305155
0.0305585
0.0306055
0.0306568
0.0307128
0.030774
0.0308411
0.0309144
0.0309947
0.0310825
0.0311783
0.0312835
0.0313978
0.0315242
0.0316611
0.0318141
0.0319784
0.0321643
0.0323623
0.0325887
0.0328301
0.0331058
0.0334054
0.0337412
0.0341218
0.0345334
0.0350256
0.0355435
0.0361789
0.036868
0.0376707
0.0386425
0.0396626
0.0410215
0.0424687
0.0441541
0.0465609
0.0487876
0.0520244
0.0566252
0.0605761
0.0673098
0.0794207
0.0930822
0.115282
0.168705
0.0305596
0.030571
0.0305851
0.0306015
0.03062
0.0306398
0.0306609
0.0306826
0.0307049
0.0307273
0.03075
0.0307729
0.0307962
0.03082
0.0308447
0.0308705
0.0308976
0.0309264
0.0309572
0.0309903
0.0310259
0.0310645
0.0311063
0.0311518
0.0312012
0.031255
0.0313134
0.0313772
0.0314466
0.0315228
0.0316055
0.0316965
0.0317951
0.0319036
0.0320213
0.0321507
0.0322918
0.0324468
0.0326177
0.0328033
0.0330117
0.0332346
0.033491
0.0337611
0.0340784
0.0344117
0.0348051
0.0352289
0.0357145
0.0362726
0.0368725
0.0376204
0.0383881
0.0393667
0.0404375
0.0416588
0.0432573
0.0448134
0.046998
0.0496334
0.0521713
0.0565111
0.0613359
0.0661722
0.0763031
0.0911843
0.108605
0.14236
0.235501
0.0312058
0.031213
0.0312228
0.031235
0.0312499
0.0312673
0.0312871
0.0313088
0.0313324
0.0313576
0.031384
0.0314117
0.0314405
0.0314704
0.0315015
0.0315339
0.0315679
0.0316036
0.0316413
0.0316814
0.031724
0.0317697
0.0318187
0.0318716
0.0319285
0.0319903
0.0320569
0.0321295
0.0322081
0.0322944
0.0323875
0.0324904
0.0326008
0.0327238
0.0328551
0.0330023
0.0331595
0.0333368
0.0335269
0.0337406
0.033973
0.034231
0.0345195
0.0348318
0.0351951
0.0355766
0.0360383
0.0365146
0.0370988
0.0377187
0.0384433
0.0392898
0.0401807
0.041349
0.0425185
0.0440473
0.0458127
0.047628
0.0503967
0.0531267
0.0564372
0.0618585
0.0668031
0.0740019
0.0884726
0.106325
0.131283
0.18436
0.350087
0.0319598
0.0319658
0.0319735
0.031983
0.0319947
0.0320089
0.0320258
0.0320452
0.0320672
0.0320916
0.0321184
0.0321474
0.0321786
0.0322118
0.032247
0.0322844
0.0323239
0.0323657
0.03241
0.0324571
0.0325072
0.0325607
0.0326179
0.0326793
0.0327453
0.0328164
0.0328931
0.0329763
0.0330663
0.0331647
0.0332709
0.0333881
0.0335137
0.0336538
0.033803
0.0339717
0.0341499
0.0343548
0.0345695
0.0348195
0.0350808
0.0353865
0.0357099
0.0360833
0.0364921
0.0369468
0.0374748
0.0380297
0.0387183
0.0394126
0.0402969
0.0412243
0.0423153
0.0436441
0.0449908
0.0468858
0.0487684
0.0511036
0.0543728
0.0572626
0.0619199
0.0681244
0.0738518
0.0855263
0.104802
0.127081
0.165971
0.25415
0.493456
0.0328716
0.0328786
0.0328864
0.0328953
0.0329057
0.032918
0.0329325
0.0329493
0.0329687
0.0329908
0.0330157
0.0330433
0.0330739
0.0331072
0.0331434
0.0331825
0.0332248
0.03327
0.0333187
0.0333707
0.0334268
0.0334867
0.0335514
0.0336206
0.0336957
0.0337763
0.0338639
0.0339582
0.0340616
0.0341732
0.0342956
0.0344285
0.0345738
0.0347332
0.0349062
0.0350989
0.0353061
0.0355418
0.0357908
0.0360813
0.0363821
0.0367424
0.0371096
0.0375572
0.0380142
0.0385668
0.0391527
0.0398262
0.0406032
0.0414193
0.0424651
0.0434954
0.0448567
0.0463116
0.0479906
0.0502129
0.0522913
0.0554049
0.0589418
0.0624676
0.0688926
0.0756098
0.0840928
0.102336
0.126523
0.157341
0.221764
0.382734
0.660579
0.0339172
0.0339274
0.0339381
0.0339494
0.0339617
0.0339752
0.0339904
0.0340074
0.0340267
0.0340484
0.0340729
0.0341002
0.0341308
0.0341645
0.0342017
0.0342425
0.0342871
0.0343355
0.0343882
0.0344451
0.0345071
0.0345737
0.0346464
0.0347243
0.0348096
0.0349009
0.0350014
0.0351089
0.0352282
0.0353556
0.035498
0.0356496
0.0358198
0.0360014
0.0362056
0.0364247
0.0366709
0.0369385
0.0372352
0.0375656
0.0379231
0.0383359
0.0387671
0.0392878
0.0398123
0.040471
0.0411243
0.0419498
0.0428024
0.0438135
0.04499
0.046217
0.0478625
0.0494814
0.0516496
0.0540906
0.0566628
0.0606079
0.0643081
0.0694155
0.0776192
0.0854262
0.0999882
0.126255
0.156121
0.206135
0.318336
0.583648
0.795141
0.0351742
0.0351898
0.0352054
0.0352212
0.0352376
0.0352547
0.0352728
0.0352923
0.0353135
0.0353367
0.0353622
0.0353905
0.0354217
0.0354563
0.0354946
0.0355367
0.0355832
0.0356341
0.03569
0.0357511
0.035818
0.0358908
0.0359706
0.036057
0.0361521
0.0362546
0.0363679
0.0364898
0.0366257
0.0367711
0.0369346
0.0371079
0.0373054
0.0375126
0.0377518
0.0380009
0.0382923
0.0385941
0.0389493
0.0393187
0.0397509
0.0402098
0.0407339
0.0413148
0.041949
0.0426977
0.0434699
0.0444441
0.0454126
0.0466663
0.0479659
0.0495266
0.0514104
0.0533632
0.0560497
0.0587093
0.0621972
0.0667476
0.0711332
0.0789368
0.0886358
0.100288
0.124872
0.158746
0.200653
0.28853
0.50515
0.771798
0.888783
0.0365979
0.0366193
0.0366411
0.0366634
0.0366863
0.0367101
0.0367348
0.0367607
0.036788
0.0368172
0.0368484
0.0368821
0.0369186
0.0369585
0.0370019
0.0370495
0.0371013
0.0371585
0.0372206
0.0372891
0.0373635
0.0374457
0.0375347
0.037633
0.0377395
0.037857
0.0379845
0.0381254
0.038279
0.0384479
0.0386333
0.0388354
0.0390604
0.039302
0.0395764
0.0398662
0.0402035
0.0405518
0.0409684
0.0413892
0.0419055
0.0424197
0.0430601
0.0437005
0.0444932
0.045313
0.046291
0.0473731
0.0485821
0.0500423
0.0515796
0.0535386
0.0556664
0.058179
0.0612656
0.064474
0.0691189
0.0741638
0.0807859
0.0918421
0.103853
0.124723
0.161401
0.204212
0.275989
0.44192
0.737801
0.904126
0.931789
0.0383471
0.0383706
0.0383951
0.0384208
0.0384475
0.0384755
0.0385048
0.0385356
0.038568
0.0386024
0.0386389
0.0386781
0.03872
0.0387657
0.0388145
0.0388684
0.0389261
0.0389904
0.0390591
0.0391361
0.0392182
0.039311
0.0394092
0.0395211
0.0396388
0.0397738
0.0399152
0.0400786
0.0402491
0.0404469
0.0406528
0.0408918
0.0411418
0.0414301
0.0417356
0.0420839
0.042461
0.0428809
0.0433508
0.043857
0.0444489
0.0450604
0.0458138
0.0465586
0.0475252
0.0484482
0.0496931
0.0508729
0.0524718
0.0540536
0.0560937
0.0583349
0.0609412
0.0640634
0.0675738
0.0719526
0.0776658
0.0842246
0.095102
0.109286
0.128087
0.164479
0.212391
0.276635
0.410734
0.706282
0.916309
0.968155
0.948797
0.0403756
0.0404001
0.0404262
0.0404541
0.0404837
0.0405153
0.0405489
0.0405847
0.0406226
0.0406632
0.0407064
0.040753
0.0408025
0.0408566
0.040914
0.0409774
0.0410445
0.0411197
0.0411988
0.0412886
0.0413824
0.0414905
0.041602
0.0417326
0.0418657
0.0420239
0.0421834
0.0423763
0.0425678
0.0428033
0.0430337
0.0433214
0.0435994
0.0439512
0.0442892
0.0447202
0.0451348
0.0456623
0.046177
0.0468213
0.0474704
0.0482557
0.0490904
0.0500447
0.0511417
0.0522997
0.0537729
0.0551856
0.057197
0.0589674
0.0617234
0.0640764
0.0676468
0.0711235
0.0757441
0.0817258
0.0889459
0.099673
0.115694
0.135286
0.170254
0.223489
0.288326
0.409705
0.681633
0.929862
1.00328
0.991634
0.928583
0.0429318
0.0429563
0.0429821
0.0430097
0.0430391
0.0430707
0.0431045
0.0431409
0.0431798
0.0432221
0.0432673
0.0433169
0.0433697
0.0434282
0.0434904
0.04356
0.0436336
0.0437172
0.0438047
0.0439057
0.0440102
0.0441329
0.044258
0.0444076
0.0445575
0.0447408
0.0449213
0.045147
0.0453641
0.0456426
0.0459038
0.0462485
0.0465628
0.0469904
0.0473705
0.0479029
0.0483648
0.0490289
0.0495947
0.0504238
0.0511266
0.0521616
0.0530521
0.0543417
0.055503
0.0571006
0.058675
0.0606356
0.0628692
0.0652486
0.0685063
0.0713004
0.0760939
0.0799598
0.0870907
0.0948815
0.10608
0.123716
0.146041
0.18068
0.238551
0.308956
0.424301
0.676258
0.950862
1.04076
1.03423
0.986293
0.846818
0.045906
0.0459359
0.0459671
0.046
0.0460347
0.0460717
0.046111
0.0461532
0.0461982
0.0462469
0.046299
0.046356
0.0464168
0.0464842
0.0465557
0.0466361
0.0467208
0.0468174
0.0469184
0.0470354
0.0471561
0.0472986
0.0474436
0.047618
0.0477924
0.0480072
0.0482178
0.0484837
0.0487379
0.0490678
0.0493743
0.0497855
0.0501547
0.0506696
0.0511154
0.0517631
0.0523024
0.0531202
0.0537754
0.054812
0.0556142
0.0569349
0.0579284
0.0596224
0.0608754
0.0630638
0.0646967
0.0675317
0.0697701
0.0733556
0.0765885
0.0810628
0.0865375
0.0926433
0.103439
0.11447
0.134392
0.160765
0.197353
0.259558
0.339341
0.454972
0.700275
0.9839
1.08478
1.08398
1.04098
0.90646
0.71844
0.0496848
0.0497172
0.0497507
0.0497858
0.0498229
0.0498621
0.0499038
0.0499485
0.0499961
0.050048
0.0501034
0.0501647
0.0502301
0.0503033
0.0503812
0.0504696
0.0505631
0.0506707
0.0507837
0.0509155
0.0510526
0.0512147
0.0513814
0.0515815
0.0517846
0.0520332
0.0522811
0.0525909
0.0528931
0.0532802
0.0536479
0.0541334
0.0545795
0.055192
0.0557337
0.0565089
0.0571676
0.0581517
0.0589569
0.0602094
0.0612033
0.0628054
0.0640459
0.0661189
0.0676808
0.0704199
0.0723961
0.0760967
0.0785476
0.0836429
0.0870446
0.0946099
0.100636
0.11335
0.127381
0.148246
0.181253
0.221563
0.290333
0.381368
0.5048
0.757745
1.03272
1.13537
1.13273
1.09118
0.956799
0.760843
0.583645
0.0541595
0.0541998
0.0542418
0.0542861
0.0543328
0.0543823
0.0544345
0.0544905
0.0545496
0.0546138
0.0546819
0.0547567
0.054836
0.0549243
0.055018
0.0551236
0.0552355
0.0553629
0.0554979
0.0556529
0.0558169
0.0560067
0.0562071
0.0564408
0.0566869
0.056977
0.0572798
0.0576415
0.0580132
0.0584664
0.0589219
0.0594927
0.0600499
0.0607745
0.0614549
0.0623789
0.0632106
0.064391
0.0654164
0.0669216
0.0682111
0.0701234
0.0717898
0.0742244
0.0764247
0.0795813
0.0824518
0.0866896
0.0904586
0.0969046
0.102445
0.11404
0.124341
0.147169
0.166912
0.210999
0.255611
0.333926
0.442948
0.574646
0.85258
1.09957
1.19272
1.1851
1.13902
0.994225
0.789724
0.607949
0.462739
0.059969
0.060007
0.0600469
0.0600895
0.0601348
0.0601838
0.0602359
0.0602927
0.0603533
0.0604202
0.060492
0.0605718
0.0606579
0.0607541
0.0608585
0.0609753
0.0611032
0.0612459
0.0614037
0.061579
0.0617746
0.0619909
0.0622343
0.0625022
0.0628065
0.06314
0.0635202
0.0639374
0.0644112
0.0649359
0.0655236
0.0661878
0.0669132
0.0677628
0.0686517
0.069748
0.0708321
0.0722553
0.0735853
0.0754287
0.0771054
0.0794586
0.081686
0.084622
0.0877346
0.0913288
0.0958559
0.100701
0.107821
0.116029
0.128326
0.145416
0.167206
0.203496
0.242341
0.316998
0.387585
0.53609
0.67667
0.982932
1.18589
1.25551
1.2431
1.18212
1.01474
0.801388
0.617369
0.472342
0.363717
0.0670713
0.0671258
0.0671824
0.0672425
0.0673058
0.0673733
0.0674446
0.0675208
0.067602
0.0676892
0.0677831
0.0678842
0.0679948
0.0681135
0.0682458
0.0683868
0.0685475
0.0687167
0.0689142
0.0691192
0.0693646
0.0696148
0.069922
0.07023
0.0706176
0.0709988
0.0714884
0.0719622
0.0725805
0.0731744
0.0739527
0.074706
0.0756802
0.0766514
0.077856
0.0791316
0.0805985
0.0823074
0.0840744
0.0863891
0.0885513
0.0916455
0.094481
0.0984187
0.102658
0.107577
0.115045
0.121993
0.136328
0.148724
0.176686
0.200886
0.252248
0.300491
0.390418
0.485469
0.645914
0.842931
1.14361
1.29031
1.31942
1.29841
1.21476
1.01153
0.791889
0.609553
0.468473
0.36253
0.286132
0.0763537
0.0764017
0.0764523
0.0765067
0.0765656
0.0766291
0.0766987
0.0767735
0.076857
0.0769463
0.0770478
0.0771552
0.07728
0.0774103
0.077565
0.0777238
0.0779172
0.0781117
0.078355
0.078594
0.0789022
0.0791961
0.0795892
0.0799522
0.0804561
0.0809048
0.0815533
0.0821089
0.0829434
0.0836332
0.0847021
0.0855682
0.0869285
0.0880366
0.0897446
0.0912079
0.0933073
0.0953317
0.0978325
0.10079
0.103691
0.108117
0.111688
0.118353
0.124032
0.134224
0.145964
0.162589
0.187643
0.216411
0.265079
0.313876
0.402458
0.488309
0.641167
0.803228
1.07894
1.29685
1.39064
1.38401
1.34787
1.22014
0.979129
0.757892
0.583117
0.450054
0.35035
0.280587
0.235135
0.0882742
0.0883694
0.0884678
0.0885692
0.0886763
0.0887861
0.0889038
0.0890239
0.0891551
0.0892886
0.089438
0.0895891
0.0897627
0.0899368
0.0901429
0.0903468
0.0905964
0.0908386
0.0911466
0.0914376
0.0918242
0.0921768
0.0926702
0.0930998
0.093737
0.09426
0.0950892
0.095728
0.0968156
0.0976016
0.0990328
0.100014
0.101893
0.103141
0.105594
0.107239
0.110417
0.112741
0.116797
0.120482
0.125529
0.132188
0.138869
0.151447
0.162505
0.185564
0.208176
0.246977
0.291696
0.353922
0.434098
0.533591
0.674803
0.835451
1.07791
1.33245
1.46329
1.48483
1.46334
1.37951
1.18003
0.917227
0.699485
0.538694
0.417292
0.328253
0.268907
0.231254
0.207056
0.103744
0.103814
0.103893
0.103976
0.10407
0.10417
0.104284
0.104403
0.104541
0.104685
0.104854
0.105027
0.105234
0.105444
0.1057
0.105955
0.106274
0.106584
0.106988
0.107365
0.107883
0.108341
0.109011
0.109568
0.110447
0.111125
0.112286
0.113111
0.114648
0.115657
0.117702
0.118963
0.1217
0.123342
0.127066
0.129336
0.13457
0.137967
0.145759
0.151589
0.163533
0.175399
0.19406
0.219038
0.249372
0.297203
0.346352
0.423544
0.507241
0.622021
0.763304
0.939416
1.1691
1.42602
1.56213
1.59508
1.57824
1.50445
1.34847
1.06551
0.80745
0.614657
0.476635
0.372787
0.300585
0.254811
0.225786
0.206866
0.194429
0.125592
0.125785
0.125983
0.126179
0.126388
0.126593
0.126815
0.127032
0.127274
0.127509
0.127778
0.128036
0.128344
0.128632
0.128994
0.12932
0.129758
0.13013
0.130674
0.131106
0.131801
0.132307
0.133213
0.133814
0.135011
0.13574
0.137355
0.138277
0.140498
0.141743
0.14486
0.146692
0.151183
0.154117
0.160804
0.165858
0.176294
0.185454
0.202707
0.219478
0.24894
0.279357
0.328871
0.382198
0.457377
0.544979
0.645208
0.786353
0.928218
1.13888
1.36566
1.60089
1.71622
1.72556
1.70695
1.62844
1.47892
1.18707
0.892964
0.672073
0.517053
0.404114
0.3271
0.275624
0.24334
0.222629
0.209073
0.200199
0.194658
0.153374
0.153505
0.153665
0.153828
0.154023
0.154216
0.154453
0.15468
0.154966
0.155232
0.15558
0.155892
0.156322
0.15669
0.157231
0.157667
0.158362
0.158886
0.159794
0.160429
0.161631
0.162408
0.164028
0.16502
0.167258
0.168608
0.171787
0.173789
0.178467
0.181649
0.188748
0.194257
0.20531
0.215272
0.232648
0.25097
0.278562
0.311261
0.355032
0.409816
0.478525
0.561997
0.664571
0.775832
0.920928
1.05211
1.25438
1.45612
1.71611
1.87536
1.92644
1.90563
1.85876
1.76625
1.56568
1.24778
0.925986
0.692929
0.537295
0.426063
0.347347
0.295848
0.262985
0.242347
0.229128
0.220456
0.214746
0.2113
0.209907
0.198648
0.199106
0.199593
0.200093
0.200646
0.201211
0.201847
0.20249
0.203231
0.20397
0.204846
0.205704
0.206759
0.207766
0.209056
0.21025
0.211847
0.213268
0.215219
0.216907
0.219393
0.221695
0.225452
0.229014
0.234831
0.240525
0.249724
0.259255
0.274074
0.289698
0.313085
0.338522
0.37481
0.41583
0.470722
0.53496
0.613879
0.709978
0.817802
0.95311
1.08672
1.2607
1.40578
1.61556
1.75128
2.00666
2.20767
2.24042
2.20562
2.13806
2.04623
1.86564
1.56705
1.19925
0.899996
0.712535
0.566415
0.449139
0.374837
0.328949
0.299455
0.281788
0.270132
0.262216
0.257223
0.254416
0.253173
0.252803
0.252646
0.321242
0.323617
0.326084
0.328657
0.331335
0.334157
0.337105
0.340244
0.343538
0.34708
0.350824
0.354883
0.359211
0.363953
0.369037
0.37471
0.380751
0.387868
0.395068
0.404585
0.416768
0.432014
0.450847
0.473928
0.502096
0.53614
0.577701
0.628768
0.689846
0.762603
0.846449
0.944665
1.05646
1.18472
1.32726
1.48575
1.65803
1.84561
2.0343
2.23076
2.40632
2.58524
2.71528
2.85245
2.87829
2.79307
2.62246
2.42365
2.19905
1.90335
1.49018
1.17966
0.89782
0.699328
0.587424
0.528767
0.489899
0.458507
0.434968
0.415846
0.402588
0.393981
0.388303
0.385164
0.383969
0.384127
0.384536
0.383229
0.376684
1.20747
1.2236
1.23982
1.25656
1.27326
1.2908
1.30805
1.32663
1.34457
1.36444
1.38336
1.40474
1.42522
1.44834
1.47136
1.49654
1.53225
1.57822
1.63585
1.70305
1.78024
1.86724
1.96405
2.07049
2.18694
2.31262
2.44783
2.59006
2.74153
2.89933
3.06968
3.25066
3.43932
3.62704
3.81565
3.9895
4.15391
4.27971
4.38146
4.41395
4.38072
4.31337
4.1216
3.84875
3.38692
2.79488
2.25638
1.80312
1.4919
1.31447
1.21576
1.16486
1.13645
1.13024
1.13733
1.14654
1.14887
1.13134
1.10136
1.06421
1.02945
1.0138
1.00297
0.994852
0.989785
0.986967
0.984673
0.977543
0.950605
8.30929
8.30592
8.30178
8.29682
8.29103
8.28437
8.27686
8.26841
8.25909
8.24876
8.23754
8.22523
8.21203
8.19767
8.18245
8.16599
8.14797
8.12774
8.1061
8.08152
8.05577
8.02641
7.99425
7.96025
7.92258
7.88315
7.83854
7.78981
7.73672
7.67883
7.61581
7.54724
7.47287
7.39263
7.30683
7.21652
7.12367
7.03119
6.94559
6.87468
6.82157
6.78104
6.74323
6.70474
6.66574
6.62703
6.58855
6.55043
6.51287
6.47585
6.43923
6.40315
6.36771
6.33298
6.29904
6.2659
6.23366
6.20236
6.17203
6.14272
6.11447
6.08738
6.06146
6.03675
6.01333
5.99128
5.9707
5.95166
5.93393
0.0287434
0.0287558
0.0287645
0.0287733
0.028784
0.0287892
0.0287911
0.0287694
0.0287549
0.0287288
0.0287204
0.0287472
0.0288026
0.0288324
0.0288028
0.0287633
0.0287679
0.0287924
0.0288054
0.028766
0.0287619
0.0287948
0.0287764
0.0287807
0.0287613
0.0287231
0.0287502
0.02876
0.0287666
0.0287737
0.0287544
0.0287583
0.0287607
0.0287357
0.0287419
0.0287043
0.0287139
0.0287142
0.0286957
0.0287093
0.0286705
0.0286833
0.0286657
0.0286272
0.0286291
0.0286171
0.0285959
0.0285646
0.0285475
0.0285484
0.0285561
0.0285789
0.0286022
0.0286038
0.0286012
0.0285978
0.0285903
0.0285867
0.0285858
0.0290919
0.0290918
0.0290901
0.0290863
0.0290765
0.0290629
0.0290433
0.0290299
0.0290274
0.0290319
0.0290703
0.0290951
0.0291093
0.029082
0.0290467
0.0290431
0.0290629
0.0290742
0.0290603
0.0290352
0.0290432
0.029058
0.0290375
0.0290407
0.0290068
0.0289818
0.029005
0.0290177
0.0290127
0.0290128
0.0290039
0.0290083
0.0290097
0.028984
0.0289919
0.0289666
0.028961
0.0289667
0.0289599
0.0289591
0.0289359
0.0289396
0.028933
0.0289143
0.0288936
0.0288839
0.0288681
0.028853
0.0288319
0.0288212
0.0288122
0.0288165
0.0288333
0.0288501
0.0288635
0.0288782
0.0288782
0.0288773
0.0288758
0.0294384
0.0294256
0.0294147
0.0294028
0.0293922
0.0293845
0.0293842
0.029388
0.0294127
0.0294307
0.0294445
0.0294402
0.0294103
0.0293826
0.0293777
0.0293896
0.0294018
0.0293949
0.0293614
0.0293578
0.02937
0.0293738
0.0293497
0.0293503
0.0293065
0.0292967
0.0293172
0.0293343
0.0293225
0.0293185
0.0293158
0.0293155
0.029313
0.0292869
0.0292914
0.0292742
0.029261
0.0292643
0.0292637
0.029263
0.0292497
0.0292446
0.0292442
0.029236
0.0292229
0.0292092
0.0291989
0.0291843
0.0291723
0.0291603
0.0291499
0.0291405
0.0291434
0.0291538
0.029166
0.029182
0.0291955
0.0292071
0.0292163
0.0298333
0.0298279
0.0298274
0.0298282
0.029826
0.0298297
0.0298433
0.0298536
0.0298621
0.0298596
0.0298367
0.0298126
0.0297854
0.029781
0.0297889
0.0297985
0.0297907
0.029761
0.0297417
0.0297499
0.0297589
0.029752
0.0297246
0.0297154
0.029668
0.0296681
0.0296839
0.0296993
0.0296774
0.0296696
0.0296743
0.0296726
0.029672
0.0296491
0.0296514
0.0296402
0.0296257
0.0296248
0.0296287
0.0296285
0.0296186
0.0296122
0.0296109
0.0296105
0.0296024
0.0295919
0.0295837
0.0295709
0.0295632
0.029547
0.0295394
0.0295297
0.0295233
0.0295261
0.0295325
0.0295429
0.0295554
0.0295693
0.0295829
0.0303641
0.0303561
0.030358
0.0303533
0.0303556
0.0303512
0.0303523
0.0303477
0.0303296
0.0303048
0.0302758
0.0302597
0.0302545
0.0302593
0.0302647
0.0302536
0.0302276
0.030197
0.0301971
0.0302046
0.0302087
0.0301892
0.0301592
0.0301405
0.0301001
0.0301082
0.0301234
0.0301391
0.0301137
0.0301057
0.0301105
0.0301028
0.0301001
0.0300776
0.030076
0.0300676
0.0300534
0.0300476
0.0300519
0.0300554
0.0300501
0.0300422
0.0300414
0.0300429
0.0300425
0.0300386
0.0300333
0.0300271
0.0300207
0.0300127
0.0300067
0.0299982
0.0299948
0.0299917
0.029992
0.029996
0.0300028
0.0300122
0.0300233
0.0309569
0.0309508
0.0309479
0.0309395
0.0309323
0.0309186
0.0309035
0.0308829
0.0308572
0.0308372
0.0308255
0.0308257
0.0308195
0.030827
0.0308081
0.0307835
0.0307481
0.0307329
0.0307424
0.0307479
0.0307402
0.0307102
0.030676
0.0306485
0.0306135
0.0306244
0.0306344
0.0306437
0.0306085
0.0305977
0.0306069
0.0305995
0.0306005
0.0305818
0.0305787
0.0305733
0.0305613
0.0305541
0.0305556
0.0305622
0.0305614
0.0305556
0.0305534
0.0305553
0.0305551
0.0305537
0.0305509
0.0305477
0.0305442
0.0305401
0.0305356
0.0305333
0.0305318
0.0305314
0.0305321
0.0305345
0.0305386
0.0305444
0.030552
0.0316403
0.0316275
0.0316162
0.0315995
0.0315831
0.0315623
0.0315427
0.0315225
0.0315065
0.0314977
0.0314933
0.0314864
0.0314827
0.0314574
0.0314257
0.0313907
0.0313653
0.0313713
0.0313772
0.0313715
0.0313523
0.0313124
0.031275
0.0312442
0.0312192
0.0312349
0.031245
0.0312537
0.0312174
0.0312088
0.0312147
0.0312002
0.0311979
0.0311789
0.0311719
0.0311665
0.0311562
0.0311475
0.0311455
0.0311565
0.031158
0.0311558
0.0311554
0.0311573
0.0311627
0.0311697
0.0311705
0.0311689
0.0311692
0.0311692
0.0311705
0.0311724
0.0311745
0.0311772
0.0311803
0.0311841
0.0311889
0.031194
0.0312009
0.0324121
0.0323939
0.0323787
0.0323594
0.0323427
0.0323246
0.0323105
0.0322977
0.0322893
0.0322812
0.0322705
0.0322515
0.032228
0.032185
0.0321544
0.0321294
0.0321303
0.0321346
0.032128
0.0321141
0.0320803
0.0320329
0.0319927
0.0319598
0.0319417
0.0319548
0.0319575
0.0319559
0.031909
0.0318966
0.031906
0.0318941
0.0318959
0.0318814
0.0318742
0.03187
0.0318621
0.0318532
0.0318473
0.0318573
0.0318663
0.031868
0.0318652
0.0318666
0.0318711
0.0318801
0.03189
0.0318982
0.0319037
0.0319075
0.0319112
0.031915
0.031919
0.0319235
0.0319286
0.0319341
0.0319407
0.0319469
0.031955
0.033332
0.0333134
0.0333
0.0332828
0.0332694
0.0332544
0.033242
0.0332275
0.0332122
0.0331907
0.0331632
0.033128
0.033091
0.0330521
0.0330347
0.0330241
0.0330274
0.0330141
0.0329998
0.0329704
0.0329219
0.03287
0.0328285
0.0327986
0.0327916
0.032805
0.0328083
0.0328069
0.0327614
0.0327534
0.0327567
0.0327358
0.032732
0.0327161
0.0327055
0.0326994
0.0326927
0.0326847
0.0326792
0.0326822
0.0326968
0.032707
0.0327118
0.0327135
0.032716
0.0327236
0.0327361
0.0327514
0.0327662
0.0327795
0.0327911
0.0328014
0.0328108
0.0328195
0.0328284
0.0328369
0.0328464
0.0328548
0.0328655
0.0344163
0.0343975
0.0343849
0.0343667
0.0343516
0.0343318
0.0343122
0.0342868
0.0342587
0.0342244
0.0341884
0.0341518
0.0341216
0.0340992
0.0340927
0.0340853
0.0340804
0.0340588
0.0340351
0.0339889
0.033932
0.0338788
0.0338379
0.0338117
0.0338096
0.0338152
0.0338075
0.0337917
0.0337336
0.0337185
0.033725
0.0337103
0.0337113
0.0337008
0.0336918
0.033686
0.0336805
0.0336734
0.0336668
0.0336651
0.0336771
0.033693
0.0337058
0.0337124
0.0337147
0.0337179
0.0337254
0.0337381
0.0337543
0.033772
0.0337898
0.0338069
0.0338231
0.033838
0.0338528
0.0338662
0.0338806
0.0338927
0.0339078
0.035728
0.0357047
0.0356878
0.0356625
0.0356398
0.03561
0.0355803
0.0355449
0.0355095
0.0354719
0.0354382
0.0354084
0.0353865
0.0353704
0.0353596
0.0353422
0.0353214
0.0352859
0.0352418
0.0351779
0.035115
0.0350601
0.0350216
0.0350025
0.0350058
0.0350101
0.035002
0.0349871
0.034935
0.0349275
0.0349255
0.0348983
0.0348902
0.0348759
0.0348636
0.0348556
0.0348504
0.0348454
0.0348404
0.0348378
0.0348446
0.0348619
0.0348833
0.0349018
0.0349142
0.0349226
0.0349305
0.0349413
0.034956
0.0349742
0.0349948
0.0350163
0.0350385
0.0350597
0.0350814
0.0351008
0.0351217
0.035139
0.0351599
0.0372285
0.0371979
0.037175
0.0371421
0.0371132
0.0370773
0.0370444
0.0370079
0.0369756
0.0369439
0.0369185
0.0368963
0.036879
0.0368621
0.0368437
0.0368167
0.0367832
0.0367352
0.0366757
0.0366069
0.0365461
0.036495
0.0364632
0.0364504
0.0364519
0.0364429
0.0364196
0.0363859
0.0363175
0.0362966
0.0362974
0.0362816
0.0362807
0.0362729
0.0362637
0.036256
0.0362501
0.0362448
0.0362389
0.0362366
0.0362365
0.0362468
0.0362662
0.036289
0.0363093
0.036325
0.036337
0.0363479
0.0363601
0.0363748
0.0363927
0.0364125
0.0364351
0.0364576
0.0364824
0.0365052
0.036531
0.0365522
0.0365788
0.0390597
0.0390243
0.0389992
0.0389631
0.0389336
0.0388975
0.0388668
0.0388331
0.0388049
0.0387761
0.0387517
0.038726
0.0387007
0.0386704
0.0386344
0.0385877
0.0385318
0.0384626
0.0383852
0.0383098
0.0382452
0.0381942
0.0381667
0.0381564
0.0381546
0.0381405
0.0381172
0.038087
0.0380309
0.0380229
0.0380138
0.0379789
0.0379637
0.0379487
0.0379357
0.037926
0.0379208
0.0379183
0.0379177
0.0379199
0.0379207
0.0379284
0.0379462
0.0379722
0.0380014
0.0380293
0.0380537
0.0380747
0.0380939
0.0381123
0.0381319
0.038152
0.0381748
0.0381972
0.0382229
0.0382463
0.0382742
0.0382966
0.0383264
0.0411904
0.0411523
0.0411281
0.0410914
0.0410642
0.0410293
0.0410016
0.0409694
0.0409424
0.0409118
0.0408835
0.0408501
0.0408146
0.040771
0.0407203
0.040659
0.0405897
0.0405122
0.0404343
0.0403661
0.04031
0.0402713
0.0402539
0.0402448
0.0402335
0.040204
0.0401624
0.0401088
0.0400296
0.0399972
0.0399886
0.039974
0.0399703
0.0399633
0.0399546
0.0399452
0.039937
0.0399314
0.0399294
0.0399268
0.0399275
0.0399288
0.0399369
0.0399541
0.0399788
0.0400076
0.0400375
0.0400659
0.040093
0.0401179
0.040143
0.0401665
0.0401922
0.040216
0.0402438
0.0402679
0.0402981
0.0403212
0.0403543
0.0438857
0.0438469
0.0438255
0.0437884
0.0437625
0.0437258
0.0436963
0.0436584
0.043624
0.0435816
0.0435389
0.043487
0.0434307
0.0433638
0.0432896
0.0432057
0.0431171
0.043026
0.0429406
0.0428679
0.0428082
0.0427679
0.0427437
0.0427227
0.0426979
0.04266
0.0426175
0.0425706
0.0425121
0.0425027
0.0424853
0.0424397
0.0424146
0.0423957
0.0423819
0.0423721
0.0423676
0.0423679
0.0423713
0.042378
0.0423871
0.0423963
0.0424083
0.042426
0.0424509
0.0424815
0.0425162
0.0425519
0.0425884
0.0426229
0.0426577
0.0426894
0.0427229
0.0427523
0.0427857
0.0428133
0.0428479
0.0428728
0.0429098
0.0470489
0.047004
0.0469799
0.0469355
0.0469041
0.0468577
0.046819
0.0467681
0.0467207
0.0466622
0.0466034
0.046534
0.0464615
0.0463792
0.0462935
0.0462026
0.0461134
0.0460281
0.0459543
0.0458954
0.0458511
0.0458244
0.0458055
0.0457821
0.0457479
0.0456955
0.045633
0.0455586
0.0454656
0.0454121
0.0453874
0.0453779
0.0453717
0.0453627
0.0453531
0.0453424
0.0453332
0.045326
0.0453251
0.0453257
0.045329
0.0453333
0.0453392
0.0453489
0.0453649
0.0453873
0.0454165
0.0454496
0.0454873
0.0455252
0.0455662
0.0456046
0.0456464
0.0456832
0.0457254
0.0457596
0.0458029
0.0458332
0.0458788
0.0510817
0.0510287
0.0509999
0.050945
0.050905
0.0508449
0.0507934
0.0507253
0.050661
0.0505824
0.050504
0.0504132
0.0503209
0.0502194
0.0501177
0.0500133
0.0499142
0.049821
0.04974
0.0496712
0.0496142
0.0495675
0.0495207
0.0494671
0.0494049
0.0493343
0.0492662
0.0492003
0.0491397
0.0491288
0.0491038
0.049041
0.0490028
0.048977
0.048962
0.0489541
0.0489528
0.0489585
0.0489681
0.0489831
0.0490026
0.0490237
0.0490452
0.049067
0.0490911
0.0491176
0.0491488
0.0491825
0.0492213
0.0492604
0.0493043
0.0493454
0.0493921
0.0494327
0.0494809
0.049519
0.0495689
0.0496024
0.049655
0.0558164
0.0557454
0.055703
0.0556287
0.0555723
0.0554914
0.0554217
0.0553323
0.0552495
0.0551508
0.055056
0.0549492
0.0548458
0.0547359
0.0546319
0.0545293
0.0544376
0.054355
0.0542872
0.0542317
0.0541871
0.0541485
0.0541063
0.0540553
0.0539928
0.0539181
0.0538366
0.0537424
0.0536292
0.0535365
0.0534833
0.0534877
0.0534808
0.0534663
0.0534515
0.0534377