/*--------------------------------*- C++ -*----------------------------------*\
| =========                 |                                                 |
| \\      /  F ield         | OpenFOAM: The Open Source CFD Toolbox           |
|  \\    /   O peration     | Version:  2312                                  |
|   \\  /    A nd           | Website:  www.openfoam.com                      |
|    \\/     M anipulation  |                                                 |
\*---------------------------------------------------------------------------*/
FoamFile
{
    version     2.0;
    format      ascii;
    arch        "LSB;label=32;scalar=64";
    class       volScalarField;
    location    "200";
    object      p;
}
// * * * * * * * * * * * * * * * * * * * * * * * * * * * * * * * * * * * * * //

dimensions      [0 2 -2 0 0 0 0];

internalField   nonuniform List<scalar> 
76025
(
0.000293963
0.000286803
0.000279489
0.000272127
0.000264711
0.000257263
0.000249421
0.000241811
0.000233947
0.00022612
0.000218204
0.000210187
0.000202067
0.000193942
0.000185731
0.000177448
0.000169299
0.000160896
0.000152579
0.000144255
0.000135967
0.000127457
0.000119034
0.000110701
0.00010231
9.40209e-05
8.56697e-05
7.71375e-05
6.89367e-05
6.04269e-05
5.23019e-05
4.41025e-05
3.59741e-05
2.77849e-05
1.97621e-05
1.17276e-05
3.87906e-06
-4.23028e-06
-1.224e-05
-2.00308e-05
-2.76729e-05
-3.52924e-05
-4.31132e-05
-5.08026e-05
-5.8154e-05
-6.55866e-05
-7.29891e-05
-8.04202e-05
-8.74688e-05
-9.45791e-05
-0.000101628
-0.000108559
-0.000115494
-0.000122321
-0.000128903
-0.000135314
-0.00014179
-0.000148152
-0.000154358
-0.000160395
-0.000166217
-0.000172038
-0.000177432
-0.000182551
-0.000187378
-0.000191927
-0.000196032
-0.000199746
-0.000202159
0.000296509
0.000289013
0.000281444
0.000273796
0.000266045
0.000258154
0.00025021
0.000242201
0.000234083
0.000225893
0.000217627
0.000209304
0.000200934
0.0001925
0.00018403
0.000175554
0.000166991
0.00015844
0.000149818
0.000141247
0.000132607
0.000123988
0.000115391
0.000106824
9.82386e-05
8.96479e-05
8.10577e-05
7.25694e-05
6.41174e-05
5.56791e-05
4.7346e-05
3.89336e-05
3.05831e-05
2.23358e-05
1.40929e-05
5.9494e-06
-2.18315e-06
-1.02574e-05
-1.82059e-05
-2.61128e-05
-3.39218e-05
-4.17113e-05
-4.94228e-05
-5.69905e-05
-6.45099e-05
-7.1966e-05
-7.93704e-05
-8.66469e-05
-9.38303e-05
-0.000100972
-0.00010805
-0.000115016
-0.000121884
-0.000128637
-0.000135243
-0.000141751
-0.000148222
-0.000154546
-0.000160726
-0.00016673
-0.000172556
-0.000178276
-0.000183705
-0.000188828
-0.000193661
-0.000198184
-0.000202278
-0.000205887
-0.000208399
0.000299082
0.000291269
0.000283366
0.000275368
0.000267259
0.000259066
0.000250794
0.000242431
0.000233988
0.000225468
0.000216885
0.000208255
0.000199574
0.00019085
0.000182099
0.000173301
0.000164476
0.000155632
0.000146775
0.000137908
0.000129045
0.0001202
0.000111367
0.000102548
9.37433e-05
8.4958e-05
7.62259e-05
6.75444e-05
5.8895e-05
5.02943e-05
4.17336e-05
3.32062e-05
2.47499e-05
1.63681e-05
8.04119e-06
-2.14138e-07
-8.407e-06
-1.65216e-05
-2.45654e-05
-3.25435e-05
-4.0435e-05
-4.82488e-05
-5.59783e-05
-6.36287e-05
-7.12061e-05
-7.86945e-05
-8.61017e-05
-9.34183e-05
-0.00010065
-0.000107795
-0.000114854
-0.000121812
-0.000128668
-0.000135415
-0.00014204
-0.000148559
-0.000154998
-0.000161317
-0.000167495
-0.00017351
-0.00017935
-0.000185022
-0.000190454
-0.0001956
-0.000200462
-0.000204977
-0.000209059
-0.000212681
-0.000215123
0.000301511
0.000293343
0.000285075
0.000276717
0.000268262
0.000259715
0.000251083
0.00024237
0.000233586
0.000224738
0.000215832
0.000206875
0.000197873
0.000188831
0.00017976
0.000170662
0.000161548
0.000152423
0.000143295
0.00013417
0.000125057
0.00011596
0.000106884
9.78357e-05
8.88227e-05
7.98495e-05
7.09227e-05
6.20446e-05
5.32194e-05
4.44519e-05
3.57449e-05
2.71028e-05
1.85283e-05
1.00262e-05
1.59641e-06
-6.75843e-06
-1.50359e-05
-2.32349e-05
-3.13537e-05
-3.93881e-05
-4.73341e-05
-5.51935e-05
-6.29691e-05
-7.06584e-05
-7.82583e-05
-8.57677e-05
-9.31903e-05
-0.000100523
-0.000107763
-0.00011491
-0.000121965
-0.000128922
-0.000135774
-0.000142516
-0.000149141
-0.000155663
-0.000162097
-0.000168416
-0.000174594
-0.000180613
-0.000186459
-0.000192125
-0.000197571
-0.000202756
-0.000207673
-0.00021223
-0.000216413
-0.000220038
-0.0002223
0.00030372
0.000295175
0.000286532
0.000277801
0.000268977
0.000260059
0.00025106
0.000241988
0.000232849
0.00022365
0.000214397
0.000205098
0.000195762
0.000186394
0.000177004
0.000167598
0.000158184
0.000148769
0.000139361
0.000129966
0.000120592
0.000111245
0.000101932
9.26601e-05
8.34339e-05
7.42582e-05
6.51384e-05
5.60805e-05
4.70891e-05
3.81672e-05
2.93177e-05
2.05436e-05
1.18471e-05
3.23259e-06
-5.29791e-06
-1.3743e-05
-2.21006e-05
-3.03695e-05
-3.85478e-05
-4.66343e-05
-5.46284e-05
-6.25298e-05
-7.0339e-05
-7.80547e-05
-8.56768e-05
-9.32055e-05
-0.000100641
-0.000107982
-0.000115228
-0.000122378
-0.00012943
-0.000136382
-0.000143229
-0.000149964
-0.000156588
-0.000163116
-0.000169551
-0.000175872
-0.000182055
-0.000188082
-0.000193943
-0.000199624
-0.000205098
-0.000210339
-0.000215337
-0.000219988
-0.000224368
-0.000227971
-0.000230689
0.000305704
0.000296763
0.000287726
0.000278602
0.000269386
0.000260081
0.000250699
0.000241247
0.000231734
0.000222166
0.000212551
0.000202898
0.000193214
0.000183509
0.00017379
0.000164064
0.00015434
0.000144626
0.00013493
0.000125258
0.000115619
0.00010602
9.64674e-05
8.69672e-05
7.75253e-05
6.81472e-05
5.88384e-05
4.9604e-05
4.0448e-05
3.13738e-05
2.23844e-05
1.34832e-05
4.67266e-06
-4.04485e-06
-1.26679e-05
-2.1195e-05
-2.96247e-05
-3.79562e-05
-4.61888e-05
-5.43221e-05
-6.23557e-05
-7.02897e-05
-7.81245e-05
-8.58604e-05
-9.34978e-05
-0.000101037
-0.000108479
-0.000115822
-0.000123068
-0.000130214
-0.000137261
-0.000144207
-0.000151047
-0.000157776
-0.0001644
-0.000170932
-0.000177372
-0.000183698
-0.000189889
-0.000195928
-0.000201808
-0.000207515
-0.000213028
-0.000218339
-0.000223422
-0.000228215
-0.000232809
-0.000236553
-0.000240933
0.00030742
0.000298059
0.000288605
0.000279066
0.000269437
0.000259723
0.000249936
0.000240086
0.00023018
0.000220227
0.000210234
0.000200212
0.000190168
0.000180111
0.00017005
0.000159994
0.000149951
0.00013993
0.000129939
0.000119985
0.000110078
0.000100223
9.04282e-05
8.06996e-05
7.10434e-05
6.14653e-05
5.19704e-05
4.25634e-05
3.32483e-05
2.40285e-05
1.49073e-05
5.88721e-06
-3.02985e-06
-1.18427e-05
-2.055e-05
-2.91506e-05
-3.76436e-05
-4.60289e-05
-5.43066e-05
-6.24769e-05
-7.05402e-05
-7.84971e-05
-8.63488e-05
-9.40963e-05
-0.000101741
-0.000109282
-0.000116723
-0.000124063
-0.000131302
-0.000138441
-0.00014548
-0.000152416
-0.000159247
-0.00016597
-0.000172593
-0.000179132
-0.000185576
-0.00019191
-0.000198111
-0.000204165
-0.000210068
-0.000215805
-0.000221362
-0.000226739
-0.000231894
-0.000236838
-0.000241557
-0.000245868
-0.000252382
0.000308806
0.000299003
0.000289108
0.00027913
0.000269066
0.000258922
0.00024871
0.000238441
0.000228124
0.000217767
0.00020738
0.000196972
0.000186552
0.000176131
0.000165718
0.000155321
0.000144951
0.000134615
0.000124323
0.000114084
0.000103904
9.37921e-05
8.3755e-05
7.37995e-05
6.39316e-05
5.41569e-05
4.44805e-05
3.49068e-05
2.54398e-05
1.60824e-05
6.83787e-06
-2.2925e-06
-1.13072e-05
-2.02055e-05
-2.89866e-05
-3.76499e-05
-4.61953e-05
-5.46235e-05
-6.29353e-05
-7.11317e-05
-7.92139e-05
-8.71834e-05
-9.50419e-05
-0.000102791
-0.000110433
-0.000117969
-0.0001254
-0.000132729
-0.000139956
-0.000147082
-0.000154107
-0.00016103
-0.000167849
-0.000174564
-0.000181189
-0.000187732
-0.000194184
-0.000200526
-0.000206736
-0.000212808
-0.000218734
-0.000224497
-0.000230093
-0.000235509
-0.00024071
-0.000245762
-0.000250576
-0.000255899
-0.000263114
0.0003098
0.000299529
0.000289169
0.000278729
0.000268208
0.000257611
0.000246952
0.000236243
0.000225495
0.000214715
0.000203915
0.000193105
0.000182296
0.000171497
0.000160719
0.000149972
0.000139265
0.000128608
0.00011801
0.00010748
9.70264e-05
8.66569e-05
7.63787e-05
6.61988e-05
5.61231e-05
4.61572e-05
3.63059e-05
2.65734e-05
1.69633e-05
7.47821e-06
-1.87933e-06
-1.11088e-05
-2.02093e-05
-2.91809e-05
-3.8023e-05
-4.67361e-05
-5.53211e-05
-6.37793e-05
-7.21124e-05
-8.03223e-05
-8.8411e-05
-9.6381e-05
-0.000104235
-0.000111974
-0.000119603
-0.000127123
-0.000134536
-0.000141845
-0.000149052
-0.000156158
-0.000163164
-0.000170068
-0.000176871
-0.000183578
-0.000190206
-0.000196754
-0.000203212
-0.000209561
-0.000215782
-0.000221872
-0.000227817
-0.000233599
-0.000239214
-0.000244625
-0.000249836
-0.000254906
-0.000259988
-0.000266687
-0.000274632
0.000310328
0.000299562
0.000288712
0.000277785
0.00026678
0.000255707
0.000244578
0.000233408
0.000222207
0.000210986
0.000199756
0.000188527
0.000177312
0.000166122
0.000154968
0.000143859
0.000132808
0.000121823
0.000110914
0.000100092
8.9363e-05
7.87368e-05
6.82202e-05
5.78202e-05
4.75427e-05
3.73931e-05
2.73759e-05
1.74948e-05
7.75302e-06
-1.84727e-06
-1.13048e-05
-2.06196e-05
-2.97918e-05
-3.88217e-05
-4.77099e-05
-5.64577e-05
-6.5067e-05
-7.35401e-05
-8.18795e-05
-9.00881e-05
-9.8169e-05
-0.000106125
-0.00011396
-0.000121678
-0.000129281
-0.000136773
-0.000144158
-0.000151437
-0.000158615
-0.000165692
-0.000172672
-0.000179552
-0.000186335
-0.000193034
-0.000199663
-0.000206216
-0.000212679
-0.000219033
-0.000225265
-0.000231371
-0.000237326
-0.000243116
-0.000248722
-0.00025411
-0.000259322
-0.000264436
-0.000270091
-0.000277318
-0.000283528
0.000310305
0.000299016
0.000287647
0.000276205
0.000264692
0.000253116
0.000241494
0.00022984
0.000218165
0.000206482
0.000194802
0.000183138
0.000171503
0.000159908
0.000148366
0.000136887
0.000125483
0.000114164
0.000102942
9.18244e-05
8.08215e-05
6.99412e-05
5.91909e-05
4.85774e-05
3.81065e-05
2.77832e-05
1.76116e-05
7.59502e-06
-2.26425e-06
-1.19645e-05
-2.1506e-05
-3.08894e-05
-4.01159e-05
-4.91864e-05
-5.81027e-05
-6.6867e-05
-7.54826e-05
-8.39527e-05
-9.22808e-05
-0.000100471
-0.000108527
-0.000116453
-0.000124254
-0.000131934
-0.000139498
-0.000146949
-0.000154292
-0.00016153
-0.000168668
-0.000175708
-0.000182652
-0.000189501
-0.000196261
-0.000202954
-0.000209583
-0.000216138
-0.000222602
-0.000228959
-0.000235202
-0.000241316
-0.00024727
-0.000253056
-0.000258647
-0.000264068
-0.000269399
-0.000274899
-0.00028127
-0.000287581
-0.000292564
0.000309634
0.00029779
0.000285871
0.000273886
0.000261835
0.00024973
0.000237589
0.000225427
0.000213256
0.00020109
0.000188942
0.000176826
0.000164755
0.000152742
0.0001408
0.000128942
0.000117179
0.000105522
9.39835e-05
8.25722e-05
7.12976e-05
6.01682e-05
4.91913e-05
3.83735e-05
2.77204e-05
1.72366e-05
6.92555e-06
-3.21016e-06
-1.3169e-05
-2.29505e-05
-3.25564e-05
-4.19882e-05
-5.1248e-05
-6.03378e-05
-6.92606e-05
-7.80202e-05
-8.66207e-05
-9.50667e-05
-0.000103363
-0.000111514
-0.000119526
-0.000127404
-0.000135152
-0.000142777
-0.000150285
-0.000157679
-0.000164965
-0.000172149
-0.000179235
-0.000186227
-0.000193126
-0.000199936
-0.000206675
-0.000213361
-0.000219987
-0.000226537
-0.000232997
-0.000239355
-0.000245602
-0.000251707
-0.000257653
-0.000263438
-0.000269083
-0.000274694
-0.000280438
-0.000286758
-0.000293467
-0.000298509
-0.000301197
0.000308201
0.000295767
0.000283267
0.000270706
0.000258088
0.000245425
0.000232738
0.000220041
0.000207351
0.00019468
0.000182044
0.000169458
0.000156936
0.000144492
0.000132141
0.000119895
0.000107768
9.57708e-05
8.39158e-05
7.22131e-05
6.06721e-05
4.93014e-05
3.81082e-05
2.70989e-05
1.62786e-05
5.6512e-06
-4.78042e-06
-1.50147e-05
-2.50511e-05
-3.4891e-05
-4.45374e-05
-5.39929e-05
-6.32605e-05
-7.2344e-05
-8.12478e-05
-8.9977e-05
-9.85373e-05
-0.000106934
-0.000115175
-0.000123264
-0.000131209
-0.000139015
-0.000146691
-0.000154241
-0.000161673
-0.000168993
-0.000176207
-0.000183321
-0.000190342
-0.000197271
-0.000204114
-0.000210884
-0.000217606
-0.00022428
-0.000230892
-0.000237428
-0.000243875
-0.000250226
-0.000256459
-0.000262545
-0.000268498
-0.000274359
-0.000280237
-0.000286274
-0.000292693
-0.000299548
-0.000305572
-0.00031028
-0.000314701
0.000305871
0.000292812
0.000279695
0.000266525
0.000253306
0.000240055
0.000226792
0.000213535
0.0002003
0.000187102
0.000173958
0.000160884
0.000147896
0.000135009
0.000122238
0.000109599
9.71037e-05
8.47659e-05
7.25974e-05
6.06089e-05
4.88102e-05
3.72097e-05
2.58147e-05
1.46311e-05
3.66324e-06
-7.0856e-06
-1.76137e-05
-2.79207e-05
-3.80074e-05
-4.78775e-05
-5.75352e-05
-6.69844e-05
-7.62297e-05
-8.52765e-05
-9.4131e-05
-0.0001028
-0.000111291
-0.000119611
-0.000127767
-0.000135767
-0.000143619
-0.00015133
-0.000158908
-0.000166361
-0.000173697
-0.000180922
-0.000188046
-0.000195074
-0.000202011
-0.000208862
-0.000215644
-0.000222379
-0.000229078
-0.000235724
-0.000242307
-0.000248814
-0.000255236
-0.000261563
-0.000267765
-0.00027386
-0.000279915
-0.000286054
-0.000292406
-0.000299055
-0.000305963
-0.000312304
-0.000317039
-0.00032045
-0.000321969
0.000302489
0.000288764
0.000274992
0.000261177
0.000247323
0.000233451
0.000219581
0.000205734
0.000191928
0.000178179
0.000164506
0.000150926
0.000137456
0.000124115
0.000110917
9.78783e-05
8.50139e-05
7.23371e-05
5.98606e-05
4.75955e-05
3.55517e-05
2.37376e-05
1.216e-05
8.24419e-07
-1.02657e-05
-2.11081e-05
-3.17025e-05
-4.20499e-05
-5.21535e-05
-6.20191e-05
-7.16519e-05
-8.1058e-05
-9.02438e-05
-9.92171e-05
-0.000107986
-0.00011656
-0.000124946
-0.000133155
-0.000141195
-0.000149075
-0.000156805
-0.000164392
-0.000171846
-0.000179176
-0.000186391
-0.0001935
-0.000200512
-0.000207432
-0.000214263
-0.000221031
-0.000227758
-0.000234453
-0.000241104
-0.000247699
-0.000254235
-0.000260692
-0.000267069
-0.000273356
-0.000279567
-0.00028579
-0.000292165
-0.000298814
-0.000305732
-0.000312774
-0.000319392
-0.000324672
-0.000328337
-0.000330307
-0.000328913
0.000297869
0.000283437
0.00026897
0.00025447
0.000239944
0.000225415
0.000210906
0.000196439
0.000182034
0.00016771
0.000153486
0.000139382
0.000125417
0.00011161
9.79777e-05
8.45376e-05
7.13053e-05
5.82952e-05
4.55206e-05
3.29929e-05
2.07222e-05
8.71676e-06
-3.01713e-06
-1.4475e-05
-2.56542e-05
-3.65542e-05
-4.71763e-05
-5.75237e-05
-6.76027e-05
-7.7421e-05
-8.69858e-05
-9.63054e-05
-0.000105389
-0.000114246
-0.000122888
-0.000131326
-0.000139569
-0.00014763
-0.000155517
-0.000163242
-0.000170815
-0.000178246
-0.000185546
-0.000192725
-0.000199794
-0.000206761
-0.000213631
-0.000220414
-0.000227136
-0.000233828
-0.000240488
-0.00024711
-0.00025368
-0.000260201
-0.000266659
-0.000273044
-0.000279376
-0.000285689
-0.000292063
-0.000298643
-0.000305544
-0.000312681
-0.000319817
-0.000326549
-0.000332136
-0.000336122
-0.000338471
-0.000339301
-0.000338619
0.000291791
0.000276605
0.000261398
0.00024617
0.000230932
0.000215707
0.000200523
0.000185404
0.000170371
0.000155445
0.000140647
0.000126
0.000111525
9.72417e-05
8.31695e-05
6.93267e-05
5.57301e-05
4.23954e-05
2.93362e-05
1.65645e-05
4.09042e-06
-8.07827e-06
-1.99359e-05
-3.1479e-05
-4.27067e-05
-5.36201e-05
-6.42225e-05
-7.452e-05
-8.45223e-05
-9.42389e-05
-0.00010368
-0.000112858
-0.000121784
-0.000130471
-0.000138934
-0.000147186
-0.000155238
-0.000163104
-0.000170796
-0.000178326
-0.000185704
-0.000192943
-0.000200055
-0.000207051
-0.000213938
-0.000220724
-0.000227423
-0.000234071
-0.000240692
-0.000247284
-0.000253831
-0.000260337
-0.000266792
-0.000273205
-0.000279562
-0.000285903
-0.000292295
-0.000298825
-0.00030559
-0.000312694
-0.000319972
-0.000327111
-0.00033381
-0.000339472
-0.000343494
-0.000345862
-0.000346828
-0.000346792
-0.000345816
0.000284003
0.000268014
0.00025202
0.000236021
0.000220027
0.000204068
0.000188172
0.000172366
0.000156675
0.000141121
0.000125729
0.000110522
9.55242e-05
8.07578e-05
6.62438e-05
5.20022e-05
3.80512e-05
2.44075e-05
1.10856e-05
-1.90222e-06
-1.45459e-05
-2.68382e-05
-3.87743e-05
-5.03524e-05
-6.15735e-05
-7.24415e-05
-8.29631e-05
-9.31491e-05
-0.000103012
-0.000112565
-0.000121821
-0.000130795
-0.000139505
-0.000147966
-0.000156194
-0.000164207
-0.000172018
-0.000179642
-0.000187092
-0.000194383
-0.000201526
-0.000208534
-0.000215417
-0.000222184
-0.000228842
-0.000235422
-0.000241962
-0.000248474
-0.000254951
-0.000261379
-0.000267765
-0.000274108
-0.000280416
-0.00028671
-0.000293042
-0.000299486
-0.000306151
-0.000313083
-0.000320327
-0.000327664
-0.000334698
-0.000341235
-0.000346781
-0.000350645
-0.000352863
-0.000353802
-0.000353785
-0.000353169
-0.000352098
0.000274173
0.000257324
0.000240488
0.000223664
0.000206866
0.000190125
0.000173473
0.000156942
0.000140557
0.000124344
0.00010833
9.25426e-05
7.7007e-05
6.17481e-05
4.67893e-05
3.21524e-05
1.78573e-05
3.92197e-06
-9.63826e-06
-2.28106e-05
-3.55854e-05
-4.79558e-05
-5.99186e-05
-7.14736e-05
-8.26241e-05
-9.33766e-05
-0.000103741
-0.000113734
-0.000123371
-0.00013267
-0.000141649
-0.000150332
-0.000158738
-0.000166889
-0.000174805
-0.000182506
-0.000190009
-0.000197329
-0.000204483
-0.000211482
-0.000218339
-0.000225062
-0.000231657
-0.000238149
-0.000244577
-0.000250966
-0.000257317
-0.000263616
-0.000269867
-0.000276075
-0.000282256
-0.000288418
-0.000294621
-0.000300923
-0.000307412
-0.000314144
-0.000321184
-0.000328444
-0.000335697
-0.000342535
-0.000348791
-0.000354015
-0.000357529
-0.000359497
-0.000360352
-0.000360305
-0.000359674
-0.000358824
-0.000357881
0.000261996
0.000244232
0.000226503
0.000208806
0.000191157
0.000173591
0.000156145
0.000138854
0.000121744
0.000104848
8.81939e-05
7.18127e-05
5.57333e-05
3.99831e-05
2.45884e-05
9.57333e-06
-5.04013e-06
-1.92326e-05
-3.29874e-05
-4.62916e-05
-5.91355e-05
-7.15133e-05
-8.34236e-05
-9.48693e-05
-0.000105858
-0.000116402
-0.000126519
-0.000136229
-0.000145552
-0.000154512
-0.000163134
-0.000171446
-0.000179474
-0.000187245
-0.000194783
-0.00020211
-0.000209247
-0.000216209
-0.00022301
-0.000229659
-0.000236164
-0.000242542
-0.000248833
-0.000255069
-0.000261256
-0.000267381
-0.00027344
-0.000279444
-0.000285411
-0.000291367
-0.000297366
-0.000303465
-0.000309731
-0.000316218
-0.000322952
-0.000329951
-0.000337065
-0.000343993
-0.000350467
-0.00035631
-0.000360962
-0.000363961
-0.000365661
-0.000366402
-0.000366304
-0.000365646
-0.000364782
-0.000363926
-0.000363097
0.000246862
0.000228106
0.000209406
0.000190763
0.000172194
0.000153738
0.000135438
0.00011733
9.94479e-05
8.1824e-05
6.44929e-05
4.74885e-05
3.08433e-05
1.45885e-05
-1.24663e-06
-1.6635e-05
-3.15521e-05
-4.59765e-05
-5.98904e-05
-7.32798e-05
-8.61353e-05
-9.84518e-05
-0.000110229
-0.000121473
-0.000132192
-0.000142403
-0.000152131
-0.000161404
-0.00017025
-0.000178705
-0.000186804
-0.000194585
-0.000202084
-0.000209336
-0.00021637
-0.000223212
-0.000229883
-0.000236393
-0.000242752
-0.000248973
-0.000255093
-0.000261135
-0.000267111
-0.00027301
-0.000278826
-0.000284578
-0.000290285
-0.000295979
-0.000301702
-0.00030751
-0.000313469
-0.00031963
-0.000326018
-0.00033264
-0.000339405
-0.000346127
-0.000352498
-0.000358362
-0.000363502
-0.00036731
-0.000369694
-0.000371152
-0.000371789
-0.000371629
-0.000370981
-0.000370133
-0.000369254
-0.000368398
-0.000367613
0.000228663
0.00020886
0.000189148
0.000169516
0.000149987
0.000130604
0.000111416
9.2464e-05
7.3786e-05
5.54197e-05
3.7404e-05
1.97775e-05
2.57736e-06
-1.41608e-05
-3.04036e-05
-4.61201e-05
-6.12827e-05
-7.58673e-05
-8.98544e-05
-0.000103229
-0.000115983
-0.000128113
-0.000139624
-0.000150528
-0.000160846
-0.000170602
-0.000179826
-0.000188554
-0.000196825
-0.000204683
-0.000212175
-0.000219346
-0.000226243
-0.000232906
-0.000239372
-0.000245665
-0.000251806
-0.000257815
-0.000263723
-0.000269547
-0.000275292
-0.000280937
-0.000286474
-0.000291913
-0.000297284
-0.000302638
-0.000308029
-0.000313519
-0.000319146
-0.000324916
-0.000330831
-0.000336904
-0.000343137
-0.000349405
-0.00035544
-0.000361009
-0.000365982
-0.000370006
-0.000372782
-0.00037462
-0.000375846
-0.000376349
-0.000376139
-0.000375535
-0.000374754
-0.00037389
-0.000372998
-0.000372087
-0.000371171
0.00020572
0.000184751
0.000163889
0.000143146
0.000122542
0.000102126
8.19492e-05
6.20597e-05
4.25001e-05
2.33135e-05
4.54421e-06
-1.37636e-05
-3.1567e-05
-4.88251e-05
-6.54992e-05
-8.15533e-05
-9.69552e-05
-0.000111677
-0.000125695
-0.000138992
-0.000151557
-0.000163386
-0.000174481
-0.000184854
-0.000194533
-0.000203554
-0.000211961
-0.000219805
-0.000227146
-0.00023405
-0.000240583
-0.000246811
-0.000252797
-0.000258595
-0.000264259
-0.00026983
-0.000275337
-0.000280794
-0.000286194
-0.000291516
-0.000296737
-0.000301864
-0.000306926
-0.000311957
-0.000316992
-0.00032206
-0.000327176
-0.00033238
-0.000337717
-0.000343212
-0.000348814
-0.000354376
-0.000359723
-0.000364692
-0.000369122
-0.000372769
-0.000375416
-0.000377286
-0.000378742
-0.000379701
-0.000379976
-0.000379755
-0.000379259
-0.000378577
-0.000377758
-0.000376874
-0.000375979
-0.000375047
-0.000374036
0.000179635
0.000157463
0.000135465
0.000113608
9.1918e-05
7.04568e-05
4.92866e-05
2.84609e-05
8.02842e-06
-1.19609e-05
-3.14558e-05
-5.04049e-05
-6.87584e-05
-8.64685e-05
-0.00010349
-0.000119782
-0.000135306
-0.000150031
-0.000163932
-0.00017699
-0.000189197
-0.000200556
-0.000211081
-0.000220794
-0.000229726
-0.00023792
-0.000245432
-0.00025233
-0.000258692
-0.0002646
-0.000270138
-0.00027539
-0.000280459
-0.000285433
-0.000290369
-0.000295301
-0.000300235
-0.000305161
-0.000310045
-0.000314869
-0.000319615
-0.000324287
-0.000328905
-0.000333503
-0.000338114
-0.000342751
-0.000347394
-0.000352029
-0.000356639
-0.000361225
-0.000365699
-0.000369839
-0.000373422
-0.000376261
-0.000378262
-0.000379721
-0.000381042
-0.000382151
-0.000382709
-0.000382752
-0.000382537
-0.000382151
-0.000381573
-0.000380838
-0.000380015
-0.000379161
-0.00037829
-0.000377364
-0.000376406
0.000144132
0.000120577
9.71597e-05
7.39503e-05
5.09694e-05
2.82662e-05
5.9086e-06
-1.60398e-05
-3.7522e-05
-5.84803e-05
-7.88549e-05
-9.85854e-05
-0.000117612
-0.000135878
-0.000153325
-0.0001699
-0.000185555
-0.000200248
-0.000213946
-0.00022662
-0.000238245
-0.000248818
-0.000258351
-0.000266877
-0.00027444
-0.000281099
-0.00028693
-0.000292049
-0.000296601
-0.00030072
-0.00030453
-0.000308163
-0.00031175
-0.000315398
-0.000319177
-0.000323136
-0.000327285
-0.000331605
-0.000336024
-0.000340444
-0.000344744
-0.000348823
-0.000352643
-0.000356263
-0.000359844
-0.000363511
-0.000367289
-0.000371048
-0.000374474
-0.000377239
-0.000379123
-0.00038034
-0.000381483
-0.000382653
-0.000383659
-0.000384465
-0.000384923
-0.000384986
-0.000384869
-0.000384671
-0.00038434
-0.000383839
-0.000383199
-0.000382469
-0.000381683
-0.000380859
-0.000379992
-0.000379072
-0.000378195
0.000109165
8.41562e-05
5.94941e-05
3.50421e-05
1.08286e-05
-1.30568e-05
-3.65287e-05
-5.95176e-05
-8.19598e-05
-0.000103789
-0.000124937
-0.000145333
-0.000164911
-0.000183605
-0.000201352
-0.000218087
-0.000233755
-0.000248315
-0.000261725
-0.000273941
-0.000284938
-0.000294709
-0.000303271
-0.000310662
-0.000316939
-0.000322187
-0.000326521
-0.000330085
-0.000333033
-0.000335537
-0.000337792
-0.000339998
-0.000342312
-0.000344867
-0.000347752
-0.000351002
-0.000354581
-0.000358384
-0.000362266
-0.000366073
-0.000369703
-0.000373108
-0.000376285
-0.000379197
-0.000381697
-0.000383538
-0.000384654
-0.000385398
-0.000386252
-0.00038691
-0.0003866
-0.000385855
-0.000386113
-0.000386968
-0.000387206
-0.000386985
-0.000386777
-0.000386617
-0.000386385
-0.000386027
-0.00038555
-0.000384968
-0.000384296
-0.000383554
-0.000382762
-0.000381933
-0.000381063
-0.000380165
-0.000379385
5.07661e-05
2.41515e-05
-2.40783e-06
-2.86362e-05
-5.45093e-05
-7.99867e-05
-0.000104985
-0.000129419
-0.000153207
-0.000176267
-0.000198513
-0.000219857
-0.000240207
-0.000259468
-0.000277531
-0.000294278
-0.000309637
-0.000323603
-0.000336157
-0.000347226
-0.000356773
-0.000364809
-0.000371369
-0.000376498
-0.000380269
-0.000382786
-0.000384187
-0.000384626
-0.00038427
-0.000383343
-0.000382113
-0.000380864
-0.000379891
-0.000379473
-0.000379847
-0.000381163
-0.000383426
-0.000386432
-0.000389768
-0.000392848
-0.000395079
-0.000396168
-0.000396408
-0.000396385
-0.000396284
-0.000395694
-0.000394077
-0.000391776
-0.000390136
-0.000389712
-0.000389762
-0.000389768
-0.000389601
-0.00038917
-0.000388658
-0.000388283
-0.000387992
-0.000387666
-0.000387257
-0.000386753
-0.000386157
-0.00038548
-0.000384734
-0.000383942
-0.00038313
-0.000382314
-0.000381493
-0.000380696
-0.000380066
1.11452e-05
-1.70614e-05
-4.45855e-05
-7.20032e-05
-9.92093e-05
-0.000125977
-0.000152179
-0.000177741
-0.000202587
-0.000226625
-0.000249768
-0.000271938
-0.000293085
-0.000313204
-0.000332331
-0.000350305
-0.000366757
-0.000381421
-0.000394172
-0.000404992
-0.000413873
-0.00042078
-0.000425697
-0.00042865
-0.000429708
-0.000428997
-0.000426707
-0.000423105
-0.000418542
-0.000413455
-0.000408354
-0.000403787
-0.00040029
-0.000398315
-0.00039815
-0.000399824
-0.000403034
-0.000407144
-0.000411239
-0.000414244
-0.000414969
-0.000412449
-0.000407297
-0.000401811
-0.000397971
-0.000396374
-0.000396265
-0.000396382
-0.000395803
-0.000394198
-0.00039237
-0.000391204
-0.000390617
-0.000390121
-0.0003896
-0.000389103
-0.000388629
-0.000388134
-0.000387583
-0.000386959
-0.000386259
-0.000385495
-0.000384688
-0.000383866
-0.000383056
-0.00038228
-0.000381537
-0.000380851
-0.000380357
-8.50854e-05
-0.000115498
-0.000145967
-0.000175927
-0.000205297
-0.000234094
-0.00026224
-0.000289599
-0.000316036
-0.00034142
-0.000365606
-0.000388426
-0.000409684
-0.000429154
-0.000446589
-0.000462001
-0.000475597
-0.000487383
-0.000497213
-0.000504937
-0.000510422
-0.000513556
-0.000514267
-0.000512538
-0.000508415
-0.000502024
-0.000493577
-0.000483391
-0.000471894
-0.000459622
-0.000447204
-0.000435335
-0.000424722
-0.000416015
-0.000409727
-0.000406139
-0.000405225
-0.000406605
-0.000409537
-0.000412961
-0.000415643
-0.000416651
-0.000415489
-0.000412253
-0.000407656
-0.000402815
-0.000399089
-0.000397009
-0.000395714
-0.000394487
-0.0003933
-0.0003923
-0.00039151
-0.000390832
-0.000390209
-0.000389616
-0.00038903
-0.000388427
-0.000387792
-0.000387112
-0.000386378
-0.000385591
-0.000384766
-0.000383928
-0.000383106
-0.000382327
-0.000381603
-0.000380926
-0.000380393
0.000230996
0.000237505
0.00024437
0.000251637
0.000259341
0.000267546
0.000276315
0.000285447
0.000294924
0.000304863
0.000315328
0.000326265
0.000337364
0.000349387
0.000360802
0.000372783
0.000384196
0.000396288
0.000408025
0.000419527
0.000431507
0.000442037
0.000452176
0.000461375
0.00046983
0.000477491
0.000483638
0.000488648
0.000492792
0.000495368
0.0004962
0.000495898
0.000494503
0.000492095
0.000487928
0.000482807
0.00047689
0.00046991
0.000462091
0.000453926
0.000445036
0.000435759
0.00042664
0.000417638
0.00040777
0.000398574
0.000388981
0.000379835
0.000370804
0.000362091
0.000353775
0.00034576
0.000338265
0.000331088
0.000324345
0.000317572
0.000311387
0.000305541
0.000300104
0.000232363
0.000239072
0.00024624
0.000253832
0.000261882
0.000270409
0.000279433
0.000288914
0.000298861
0.000309273
0.000320128
0.000331411
0.00034304
0.000355066
0.000367329
0.000379657
0.000392112
0.000404549
0.000416945
0.000428927
0.000440829
0.000452148
0.000462699
0.000472417
0.000481193
0.000489017
0.000495617
0.0005008
0.000504982
0.000507605
0.000508498
0.000508264
0.000506753
0.000503904
0.00049967
0.000494283
0.000487951
0.000480734
0.000472637
0.000463904
0.000454725
0.000445175
0.000435458
0.000425487
0.000415466
0.000405556
0.000395742
0.000386191
0.000376839
0.00036777
0.000359067
0.000350731
0.000342718
0.000335141
0.000327883
0.000321059
0.000314658
0.00030864
0.000302974
0.000233676
0.000240647
0.000248067
0.00025596
0.000264338
0.000273214
0.000282585
0.000292447
0.000302808
0.000313664
0.000324977
0.0003367
0.00034881
0.000361274
0.000374023
0.00038702
0.000400117
0.000413184
0.00042608
0.000438679
0.000450944
0.000462755
0.000473827
0.000484013
0.000493224
0.000501339
0.000508196
0.00051369
0.000517951
0.000520608
0.000521663
0.000521398
0.000519658
0.00051654
0.000512058
0.000506407
0.000499685
0.000492075
0.00048363
0.000474537
0.000464912
0.000454832
0.000444494
0.000434018
0.000423517
0.000413125
0.000402866
0.000392824
0.000383042
0.000373565
0.000364455
0.000355707
0.000347337
0.000339363
0.000331832
0.000324735
0.000318043
0.000311747
0.000305828
0.00023477
0.000242007
0.000249717
0.000257919
0.00026663
0.000275861
0.000285616
0.000295893
0.000306692
0.000318002
0.0003298
0.000342048
0.000354716
0.000367744
0.000381053
0.000394605
0.000408251
0.00042191
0.000435406
0.000448654
0.00046151
0.000473812
0.000485384
0.00049605
0.000505705
0.000514189
0.000521344
0.000527103
0.000531491
0.000534223
0.000535355
0.000535022
0.000533111
0.000529794
0.000525049
0.000519081
0.000511984
0.000503923
0.00049501
0.000485425
0.00047527
0.000464666
0.000453809
0.000442849
0.000431836
0.000420911
0.000410134
0.000399578
0.000389312
0.000379379
0.000369823
0.000360666
0.000351931
0.000343625
0.000335761
0.00032833
0.000321321
0.000314731
0.000308551
0.000235577
0.000243099
0.000251119
0.000259654
0.000268721
0.000278331
0.000288492
0.000299206
0.000310467
0.000322264
0.000334575
0.00034737
0.000360609
0.00037423
0.000388153
0.000402299
0.00041656
0.000430837
0.000444981
0.000458868
0.000472341
0.000485209
0.000497315
0.000508488
0.000518594
0.000527474
0.00053497
0.000540982
0.000545522
0.000548347
0.000549509
0.000549107
0.000547056
0.000543527
0.000538514
0.000532198
0.000524699
0.000516172
0.000506752
0.000496614
0.000485903
0.000474764
0.000463363
0.000451835
0.000440267
0.000428777
0.000417457
0.000406379
0.000395609
0.000385197
0.000375182
0.000365593
0.000356448
0.000347757
0.000339524
0.000331747
0.000324421
0.000317535
0.000311081
0.000236073
0.000243898
0.000252244
0.000261131
0.000270574
0.000280588
0.000291179
0.000302352
0.000314102
0.000326416
0.000339274
0.000352643
0.000366479
0.000380722
0.000395294
0.000410102
0.000425042
0.000439995
0.000454817
0.000469363
0.000483472
0.000496958
0.000509646
0.000521359
0.000531944
0.000541242
0.000549096
0.00055538
0.000560089
0.000563015
0.000564204
0.000563732
0.000561532
0.000557765
0.000552456