/*--------------------------------*- C++ -*----------------------------------*\
| =========                 |                                                 |
| \\      /  F ield         | OpenFOAM: The Open Source CFD Toolbox           |
|  \\    /   O peration     | Version:  2312                                  |
|   \\  /    A nd           | Website:  www.openfoam.com                      |
|    \\/     M anipulation  |                                                 |
\*---------------------------------------------------------------------------*/
FoamFile
{
    version     2.0;
    format      ascii;
    arch        "LSB;label=32;scalar=64";
    class       surfaceScalarField;
    location    "200";
    object      phi;
}
// * * * * * * * * * * * * * * * * * * * * * * * * * * * * * * * * * * * * * //

dimensions      [0 3 -1 0 0 0 0];

oriented        oriented;

internalField   nonuniform List<scalar> 
116611
(
0.00109666
0.00040061
-0.00108079
-0.000416477
0.0011124
0.000395884
-0.00041162
0.00112796
0.000390797
-0.00040636
0.00114334
0.000385321
-0.000400704
0.00115848
0.000379456
-0.000394592
0.00117364
0.000373139
-0.000388297
0.00118834
0.000366425
-0.000381131
0.00120311
0.000359293
-0.000374058
0.0012175
0.000351688
-0.000366081
0.00123171
0.000343625
-0.00035783
0.00124562
0.000335059
-0.000348976
0.00125933
0.00032599
-0.000339696
0.00127273
0.000316421
-0.000329825
0.00128586
0.000306304
-0.00031943
0.0012987
0.000295652
-0.000308495
0.00131109
0.000284477
-0.00029686
0.00132332
0.00027265
-0.000284881
0.00133507
0.000260315
-0.000272065
0.00134648
0.000247256
-0.000258669
0.00135744
0.000233683
-0.000244639
0.00136813
0.000219366
-0.000230057
0.00137829
0.000204432
-0.000214598
0.00138799
0.000188798
-0.000198498
0.0013973
0.000172513
-0.000181821
0.00140607
0.000155504
-0.000164274
0.00141441
0.000137761
-0.000146098
0.00142228
0.000119214
-0.000127084
0.00142939
9.99736e-05
-0.000107084
0.00143624
7.99319e-05
-8.67874e-05
0.00144218
5.90559e-05
-6.49926e-05
0.00144769
3.75161e-05
-4.30303e-05
0.00145245
1.49883e-05
-1.97482e-05
0.00145666
-8.35288e-06
4.14355e-06
0.00146012
-3.24953e-05
2.90412e-05
0.00146294
-5.76179e-05
5.47943e-05
0.00146495
-8.35282e-05
8.15226e-05
0.00146642
-0.000110415
0.00010894
0.00146701
-0.000138236
0.000137645
0.00146677
-0.000166936
0.000167183
0.00146563
-0.00019665
0.000197784
0.00146369
-0.000227234
0.000229178
0.00146101
-0.000258835
0.000261514
0.00145733
-0.000291427
0.000295104
0.00145265
-0.000324927
0.00032961
0.0014471
-0.000359448
0.000364996
0.00144056
-0.00039492
0.000401456
0.00143307
-0.000431437
0.000438934
0.00142439
-0.000468897
0.000477575
0.00141477
-0.000507321
0.00051694
0.00140404
-0.000546735
0.000557469
0.00139218
-0.000587155
0.000599009
0.00137922
-0.000628518
0.000641479
0.00136504
-0.000670842
0.000685022
0.00134958
-0.00071411
0.000729576
0.00133281
-0.000758251
0.000775013
0.0013149
-0.000803237
0.000821153
0.00129564
-0.000849164
0.000868424
0.00127509
-0.000895859
0.000916403
0.00125319
-0.000943346
0.000965252
0.00122982
-0.000991527
0.00101489
0.0012051
-0.00104033
0.00106505
0.00117882
-0.00108983
0.00111611
0.00115108
-0.00113979
0.00116753
0.00112179
-0.00119014
0.00121943
0.00109082
-0.00124069
0.00127165
0.00105807
-0.00129105
0.0013238
0.00102319
-0.00134069
0.00137557
0.000986425
-0.00138996
0.00142673
-0.00144213
0.000951154
0.0014774
0.00107957
0.000384837
-0.0010638
0.0010952
0.000380257
0.00111067
0.000375321
0.00112598
0.000370016
0.00114113
0.000364304
0.00115607
0.000358203
0.0011708
0.000351689
0.00118535
0.000344741
0.00119968
0.000337363
0.00121378
0.000329521
0.00122764
0.000321207
0.00124122
0.00031241
0.00125453
0.000303108
0.00126755
0.000293286
0.00128024
0.000282955
0.00129266
0.000272063
0.00130469
0.000260616
0.00131642
0.000248586
0.00132772
0.000235962
0.00133868
0.00022272
0.0013492
0.000208846
0.0013593
0.000194335
0.00136893
0.00017916
0.00137813
0.000163315
0.00138686
0.000146779
0.00139511
0.000129512
0.00140279
0.000111527
0.00140996
9.28071e-05
0.00141657
7.33186e-05
0.00142256
5.30715e-05
0.00142804
3.20373e-05
0.00143285
1.01752e-05
0.00143701
-1.25091e-05
0.00144054
-3.60262e-05
0.00144333
-6.04135e-05
0.00144546
-8.56587e-05
0.00144685
-0.000111798
0.00144744
-0.000138828
0.00144727
-0.000166769
0.00144626
-0.000195641
0.00144446
-0.00022543
0.00144178
-0.000256159
0.00143819
-0.000287831
0.00143371
-0.00032045
0.0014283
-0.000354032
0.00142193
-0.000388559
0.00141455
-0.000424055
0.00140616
-0.000460503
0.00139674
-0.000497904
0.00138626
-0.00053625
0.00137465
-0.000575549
0.00136191
-0.000615778
0.001348
-0.000656928
0.00133287
-0.000698985
0.00131653
-0.000741912
0.00129898
-0.000785685
0.00128013
-0.00083031
0.00125998
-0.000875714
0.00123849
-0.000921856
0.00121564
-0.000968673
0.00119142
-0.00101611
0.00116572
-0.00106413
0.00113855
-0.00111262
0.00110985
-0.00116144
0.00107947
-0.00121031
0.00104717
-0.00125875
0.00101291
-0.00130643
0.00097824
-0.00135529
-0.00141069
0.000946797
0.001063
0.000369199
-0.00104736
0.00107851
0.000364748
0.00109388
0.00035995
0.0011091
0.000354794
0.00112414
0.000349262
0.001139
0.000343345
0.00115366
0.000337026
0.00116812
0.000330289
0.00118235
0.000323126
0.00119636
0.000315519
0.00121011
0.000307455
0.0012236
0.00029892
0.00123681
0.000289898
0.00124972
0.000280374
0.00126234
0.000270336
0.00127463
0.000259767
0.0012866
0.000248652
0.00129821
0.000236975
0.00130945
0.000224718
0.00132031
0.000211865
0.00133075
0.000198403
0.00134077
0.000184312
0.00135036
0.000169578
0.00135948
0.000154186
0.00136814
0.000138119
0.0013763
0.000121358
0.00138394
0.000103889
0.00139105
8.56966e-05
0.0013976
6.67657e-05
0.00140359
4.70813e-05
0.001409
2.66272e-05
0.00141379
5.38869e-06
0.00141794
-1.66587e-05
0.00142144
-3.95258e-05
0.00142425
-6.3228e-05
0.00142637
-8.77783e-05
0.00142776
-0.000113189
0.00142841
-0.000139475
0.00142828
-0.000166647
0.00142736
-0.000194716
0.00142562
-0.000223687
0.00142302
-0.000253568
0.00141956
-0.00028437
0.00141521
-0.000316097
0.00140993
-0.000348752
0.00140371
-0.000382335
0.0013965
-0.000416851
0.0013883
-0.000452299
0.00137906
-0.000488672
0.00136878
-0.000525964
0.00135741
-0.000564176
0.00134492
-0.000603294
0.0013313
-0.000643304
0.0013165
-0.00068419
0.00130052
-0.000725925
0.00128332
-0.000768491
0.00126488
-0.000811866
0.00124516
-0.000855995
0.00122413
-0.000900824
0.00120175
-0.0009463
0.00117802
-0.000992375
0.00115288
-0.00103899
0.00112629
-0.00108602
0.00109813
-0.00113329
0.00106821
-0.00118039
0.0010364
-0.00122694
0.00100332
-0.00127335
0.00097175
-0.00132372
-0.0013839
0.000944962
0.00104703
0.000353685
-0.00103151
0.00106241
0.000349361
0.00107766
0.000344701
0.00109276
0.000339694
0.0011077
0.000334328
0.00112245
0.000328587
0.00113702
0.00032246
0.00115138
0.000315931
0.00116552
0.000308988
0.00117942
0.000301615
0.00119308
0.000293799
0.00120647
0.000285525
0.00121959
0.00027678
0.00123241
0.000267549
0.00124493
0.000257815
0.00125713
0.000247566
0.001269
0.000236786
0.00128052
0.000225459
0.00129167
0.000213569
0.00130243
0.000201101
0.00131279
0.000188039
0.00132274
0.000174367
0.00133225
0.000160069
0.0013413
0.00014513
0.00134989
0.000129534
0.00135798
0.000113264
0.00136557
9.6304e-05
0.00137263
7.86392e-05
0.00137914
6.02549e-05
0.00138508
4.11354e-05
0.00139044
2.12663e-05
0.0013952
6.32748e-07
0.00139933
-2.07889e-05
0.00140281
-4.30102e-05
0.00140563
-6.60439e-05
0.00140776
-8.99037e-05
0.00140917
-0.000114602
0.00140984
-0.000140152
0.00140976
-0.000166563
0.00140889
-0.000193845
0.00140721
-0.000222008
0.0014047
-0.000251058
0.00140133
-0.000281003
0.00139708
-0.000311847
0.00139193
-0.000343594
0.00138584
-0.000376246
0.00137879
-0.000409805
0.00137076
-0.000444268
0.00136172
-0.000479632
0.00135165
-0.000515892
0.00134052
-0.000553042
0.00132829
-0.000591073
0.00131496
-0.000629969
0.00130048
-0.000669714
0.00128485
-0.000710286
0.00126802
-0.000751666
0.00124997
-0.000793816
0.00123066
-0.000836689
0.00121007
-0.000880231
0.00118817
-0.000924398
0.00116494
-0.000969143
0.00114032
-0.00101437
0.00111425
-0.00105995
0.00108655
-0.00110559
0.00105705
-0.00115088
0.00102599
-0.00119588
0.000995011
-0.00124238
0.000967791
-0.0012965
-0.00136135
0.000945242
0.00103168
0.000338302
-0.0010163
0.00104694
0.000334103
0.00106206
0.00032958
0.00107703
0.000324722
0.00109184
0.000319516
0.00110648
0.000313949
0.00112093
0.00030801
0.00113518
0.000301684
0.00114921
0.000294957
0.00116301
0.000287815
0.00117656
0.000280245
0.00118986
0.000272231
0.00120288
0.000263761
0.00121561
0.000254819
0.00122803
0.00024539
0.00124014
0.00023546
0.00125191
0.000225015
0.00126333
0.000214037
0.00127439
0.000202513
0.00128506
0.000190427
0.00129534
0.000177763
0.0013052
0.000164507
0.00131462
0.000150641
0.0013236
0.000136152
0.00133211
0.000121023
0.00134014
0.000105238
0.00134766
8.87816e-05
0.00135466
7.16392e-05
0.00136112
5.37956e-05
0.00136702
3.52356e-05
0.00137234
1.5945e-05
0.00137707
-4.09186e-06
0.00138117
-2.48957e-05
0.00138464
-4.64781e-05
0.00138745
-6.88519e-05
0.00138958
-9.20303e-05
0.001391
-0.000116025
0.0013917
-0.000140848
0.00139164
-0.000166511
0.00139082
-0.000193021
0.0013892
-0.000220389
0.00138676
-0.00024862
0.00138348
-0.000277722
0.00137933
-0.000307699
0.0013743
-0.000338556
0.00136834
-0.000370293
0.00136145
-0.000402912
0.00135359
-0.000436411
0.00134475
-0.000470787
0.00133489
-0.000506035
0.001324
-0.000542147
0.00131204
-0.000579115
0.00129899
-0.000616923
0.00128483
-0.000655553
0.00126953
-0.000694984
0.00125306
-0.000735197
0.00123539
-0.000776144
0.00121648
-0.000817784
0.00119632
-0.000860068
0.00117488
-0.000902961
0.00115213
-0.000946395
0.001128
-0.000990246
0.00110236
-0.00103431
0.00107503
-0.00107825
0.00104605
-0.0011219
0.00101641
-0.00116623
0.000988902
-0.00121487
0.000966828
-0.00127442
-0.00134086
0.000946339
0.00101697
0.000323041
-0.00100171
0.0010321
0.000318971
0.0010471
0.000314586
0.00106194
0.000309878
0.00107662
0.000304833
0.00109113
0.00029944
0.00110545
0.000293687
0.00111958
0.00028756
0.00113349
0.000281046
0.00114717
0.000274132
0.00116061
0.000266804
0.0011738
0.000259048
0.00118671
0.00025085
0.00119933
0.000242194
0.00121165
0.000233068
0.00122366
0.000223455
0.00123533
0.000213342
0.00124666
0.000202713
0.00125762
0.000191553
0.0012682
0.000179847
0.00127838
0.000167579
0.00128815
0.000154735
0.00129749
0.000141299
0.00130639
0.000127256
0.00131482
0.00011259
0.00132278
9.72855e-05
0.00133023
8.13281e-05
0.00133717
6.47024e-05
0.00134357
4.73935e-05
0.00134942
2.93868e-05
0.00135469
1.06685e-05
0.00135938
-8.77838e-06
0.00136346
-2.89718e-05
0.0013669
-4.99233e-05
0.00136969
-7.1646e-05
0.00137182
-9.41522e-05
0.00137325
-0.000117454
0.00137396
-0.000141562
0.00137393
-0.000166487
0.00137315
-0.000192238
0.00137159
-0.000218823
0.00136922
-0.00024625
0.00136602
-0.000274524
0.00136197
-0.000303651
0.00135705
-0.000333634
0.00135123
-0.000364474
0.00134449
-0.000396172
0.00133681
-0.000428727
0.00132816
-0.000462136
0.00131851
-0.000496393
0.00130786
-0.00053149
0.00129616
-0.000567416
0.00128339
-0.000604156
0.00126953
-0.000641692
0.00125455
-0.000680006
0.00123842
-0.00071907
0.00122112
-0.000758837
0.0012026
-0.00079927
0.00118286
-0.000840329
0.00116188
-0.000881971
0.00113957
-0.000924091
0.00111584
-0.000966517
0.00109053
-0.001009
0.00106357
-0.0010513
0.00103557
-0.0010939
0.00100854
-0.0011392
0.000985882
-0.00119221
0.000968104
-0.00125665
-0.00131668
0.000943919
0.00100287
0.000307881
-0.000987711
0.00101789
0.000303947
0.00103277
0.000299708
0.0010475
0.000295154
0.00106205
0.000290275
0.00107644
0.000285058
0.00109063
0.000279492
0.00110463
0.000273565
0.00111841
0.000267264
0.00113196
0.000260576
0.00114528
0.000253489
0.00115834
0.000245987
0.00117113
0.000238058
0.00118364
0.000229687
0.00119585
0.00022086
0.00120774
0.000211562
0.00121931
0.000201779
0.00123052
0.000191495
0.00124138
0.000180696
0.00125186
0.000169367
0.00126195
0.000157493
0.00127162
0.000145059
0.00128087
0.000132049
0.00128968
0.000118448
0.00129803
0.000104241
0.0013059
8.94133e-05
0.00131328
7.39497e-05
0.00132015
5.78353e-05
0.00132649
4.10557e-05
0.00133228
2.35961e-05
0.0013375
5.44367e-06
0.00134214
-1.34205e-05
0.00134618
-3.30112e-05
0.0013496
-5.33404e-05
0.00135237
-7.44209e-05
0.00135449
-9.62646e-05
0.00135592
-0.000118883
0.00135664
-0.000142287
0.00135664
-0.000166487
0.0013559
-0.000191492
0.00135438
-0.000217309
0.00135208
-0.000243946
0.00134896
-0.000271408
0.00134501
-0.0002997
0.0013402
-0.000328827
0.00133452
-0.000358788
0.00132793
-0.000389584
0.00132042
-0.000421215
0.00131196
-0.000453675
0.00130252
-0.00048696
0.00129209
-0.00052106
0.00128064
-0.000555964
0.00126814
-0.000591656
0.00125457
-0.000628119
0.0012399
-0.000665339
0.0012241
-0.000703273
0.00120715
-0.000741886
0.00118902
-0.000781142
0.0011697
-0.000821001
0.00114911
-0.00086139
0.00112718
-0.000902153
0.00110374
-0.000943081
0.00107872
-0.000983975
0.00105246
-0.00102504
0.00102642
-0.00106787
0.00100353
-0.00111631
0.000986081
-0.00117476
0.000968622
-0.00123919
-0.00128006
0.000932005
0.000989351
0.00029281
-0.000974279
0.00100428
0.000289017
0.00101906
0.000284929
0.00103368
0.000280536
0.00104813
0.000275827
0.00106239
0.000270791
0.00107647
0.000265418
0.00109034
0.000259694
0.00110399
0.000253608
0.00111742
0.000247149
0.00113061
0.000240302
0.00114354
0.000233055
0.0011562
0.000225394
0.00116858
0.000217306
0.00118067
0.000208776
0.00119244
0.00019979
0.00120388
0.000190334
0.00121499
0.000180394
0.00122573
0.000169954
0.0012361
0.000158999
0.00124607
0.000147515
0.00125565
0.000135486
0.0012648
0.000122899
0.00127351
0.000109736
0.00128176
9.59848e-05
0.00128955
8.1629e-05
0.00129684
6.66542e-05
0.00130363
5.10458e-05
0.0013099
3.47894e-05
0.00131563
1.78709e-05
0.00132079
2.7701e-07
0.00132538
-1.80118e-05
0.00132938
-3.70079e-05
0.00133276
-5.67235e-05
0.00133551
-7.71711e-05
0.00133761
-9.83626e-05
0.00133904
-0.000120309
0.00133977
-0.000143021
0.00133979
-0.000166508
0.00133908
-0.000190779
0.00133761
-0.000215842
0.00133537
-0.000241704
0.00133233
-0.00026837
0.00132848
-0.000295844
0.00132378
-0.00032413
0.00131822
-0.000353229
0.00131178
-0.000383141
0.00130443
-0.000413864
0.00129615
-0.000445394
0.00128691
-0.000477724
0.0012767
-0.000510845
0.00126548
-0.000544744
0.00125323
-0.000579408
0.00123993
-0.000614824
0.00122557
-0.000650971
0.00121009
-0.000687799
0.00119349
-0.000725284
0.00117573
-0.000763385
0.00115678
-0.000802045
0.00113653
-0.000841139
0.00111485
-0.000880473
0.00109165
-0.000919882
0.00106714
-0.000959467
0.0010424
-0.0010003
0.00101986
-0.00104533
0.00100222
-0.00109867
0.000987716
-0.00116025
0.000962356
-0.00121383
-0.00121951
0.000901808
0.000976404
0.000277825
-0.00096142
0.000991246
0.000274175
0.00100593
0.000270241
0.00102046
0.000266013
0.00103481
0.000261479
0.00104897
0.000256629
0.00106294
0.000251452
0.00107669
0.000245936
0.00109023
0.000240071
0.00110354
0.000233842
0.0011166
0.000227239
0.00112941
0.000220249
0.00114194
0.000212858
0.0011542
0.000205053
0.00116615
0.00019682
0.00117779
0.000188147
0.00118911
0.000179017
0.00120009
0.000169418
0.00121071
0.000159334
0.00122096
0.000148751
0.00123082
0.000137654
0.00124028
0.000126028
0.00124931
0.000113859
0.00125792
0.000101131
0.00126607
8.78307e-05
0.00127376
7.39421e-05
0.00128096
5.94509e-05
0.00128767
4.43428e-05
0.00129385
2.86035e-05
0.0012995
1.22195e-05
0.0013046
-4.82387e-06
0.00130914
-2.25448e-05
0.00131308
-4.09546e-05
0.00131643
-6.00657e-05
0.00131915
-7.98902e-05
0.00132122
-0.00010044
0.00132264
-0.000121725
0.00132338
-0.000143757
0.00132341
-0.000166544
0.00132273
-0.000190095
0.0013213
-0.000214418
0.00131912
-0.000239518
0.00131615
-0.000265402
0.00131238
-0.000292074
0.00130778
-0.000319535
0.00130234
-0.000347788
0.00129603
-0.000376831
0.00128883
-0.000406663
0.00128071
-0.000437278
0.00127166
-0.00046867
0.00126165
-0.00050083
0.00125065
-0.000533745
0.00123864
-0.000567405
0.00122562
-0.000601801
0.00121154
-0.000636894
0.00119639
-0.000672641
0.00118012
-0.000709014
0.00116269
-0.000745962
0.00114403
-0.000783384
0.001124
-0.000821109
0.00110252
-0.000858985
0.00107973
-0.000897092
0.00105646
-0.000936204
0.00103473
-0.000978568
0.00101717
-0.00102777
0.00100384
-0.00108535
0.000985727
-0.00114214
0.000941251
-0.00116935
-0.00112812
0.000849859
0.000964061
0.000262933
-0.000949169
0.000978811
0.000259425
0.000993407
0.000255645
0.00100784
0.000251582
0.00102209
0.000247225
0.00103616
0.000242564
0.00105002
0.000237587
0.00106367
0.000232283
0.0010771
0.000226641
0.0010903
0.000220648
0.00110324
0.000214293
0.00111593
0.000207562
0.00112834
0.000200444
0.00114047
0.000192925
0.0011523
0.000184992
0.00116382
0.000176631
0.00117501
0.000167828
0.00118585
0.00015857
0.00119635
0.000148841
0.00120647
0.000138629
0.00121621
0.000127917
0.00122554
0.000116692
0.00123446
0.000104938
0.00124295
9.26419e-05
0.00125099
7.9788e-05
0.00125858
6.63619e-05
0.00126568
5.23492e-05
0.00127228
3.77358e-05
0.00127838
2.25074e-05
0.00128395
6.65108e-06
0.00128897
-9.84972e-06
0.00129344
-2.70104e-05
0.00129733
-4.48426e-05
0.00130062
-6.33583e-05
0.0013033
-8.25697e-05
0.00130535
-0.000102488
0.00130675
-0.000123123
0.00130748
-0.000144486
0.00130752
-0.000166585
0.00130685
-0.000189429
0.00130546
-0.000213024
0.00130332
-0.000237377
0.00130041
-0.000262494
0.00129671
-0.000288376
0.0012922
-0.000315028
0.00128686
-0.000342449
0.00128067
-0.000370639
0.0012736
-0.000399596
0.00126564
-0.000429314
0.00125676
-0.000459787
0.00124693
-0.000491004
0.00123615
-0.00052296
0.00122439
-0.000555649
0.00121163
-0.000589045
0.00119784
-0.000623097
0.00118297
-0.000657776
0.001167
-0.000693037
0.00114983
-0.000728794
0.00113135
-0.000764905
0.00111147
-0.000801231
0.00109033
-0.000837848
0.00106863
-0.00087539
0.00104804
-0.000915616
0.00103102
-0.000961543
0.00101842
-0.00101518
0.00100441
-0.00107133
0.000971651
-0.00110937
0.000896992
-0.00109469
-0.00100285
0.000771728
0.000952366
0.00024814
-0.000937573
0.000967017
0.000244774
0.000981514
0.000241148
0.000995846
0.00023725
0.00101
0.000233071
0.00102397
0.000228599
0.00103773
0.000223824
0.00105128
0.000218733
0.0010646
0.000213317
0.00107769
0.000207562
0.00109052
0.000201457
0.0011031
0.00019499
0.00111539
0.000188148
0.0011274
0.000180917
0.00113911
0.000173286
0.0011505
0.00016524
0.00116156
0.000156766
0.00117228
0.00014785
0.00118264
0.000138478
0.00119264
0.000128635
0.00120225
0.000118308
0.00121146
0.000107482
0.00122025
9.61422e-05
0.00122862
8.42744e-05
0.00123654
7.1864e-05
0.00124401
5.88966e-05
0.001251
4.53579e-05
0.0012575
3.12339e-05
0.0012635
1.65107e-05
0.00126897
1.17536e-06
0.00127391
-1.47901e-05
0.0012783
-3.13983e-05
0.00128212
-4.8661e-05
0.00128535
-6.65904e-05
0.00128798
-8.51981e-05
0.00128999
-0.000104495
0.00129136
-0.000124491
0.00129207
-0.000145196
0.0012921
-0.000166619
0.00129144
-0.000188768
0.00129006
-0.000211648
0.00128795
-0.000235267
0.00128509
-0.000259629
0.00128145
-0.000284737
0.00127702
-0.000310594
0.00127177
-0.000337199
0.00126568
-0.000364553
0.00125874
-0.000392652
0.00125091
-0.000421491
0.00124219
-0.000451064
0.00123255
-0.000481367
0.00122199
-0.000512395
0.00121047
-0.000544134
0.00119796
-0.000576537
0.00118442
-0.000609556
0.00116981
-0.000643159
0.00115404
-0.000677267
0.00113701
-0.000711766
0.00111864
-0.000746541
0.00109908
-0.00078167
0.00107896
-0.00081773
0.00105976
-0.00085618
0.00104366
-0.000899521
0.00103188
-0.00094976
0.00102045
-0.00100375
0.000995607
-0.0010465
0.000935492
-0.00104926
0.000825543
-0.000984743
-0.000853287
0.000675976
0.000941372
0.00023345
-0.000926682
0.000955918
0.000230228
0.00097031
0.000226756
0.000984536
0.000223024
0.000998584
0.000219023
0.00101244
0.000214741
0.0010261
0.000210168
0.00103954
0.000205292
0.00105275
0.000200103
0.00106573
0.000194588
0.00107845
0.000188736
0.00109091
0.000182534
0.00110308
0.000175969
0.00111497
0.00016903
0.00112656
0.000161703
0.00113782
0.000153974
0.00114876
0.00014583
0.00115935
0.000137258
0.00116958
0.000128243
0.00117945
0.000118772
0.00118892
0.00010883
0.001198
9.84026e-05
0.00120667
8.74757e-05
0.00121491
7.60348e-05
0.00122271
6.40657e-05
0.00123005
5.15539e-05
0.00123692
3.84855e-05
0.00124331
2.48465e-05
0.0012492
1.06234e-05
0.00125457
-4.19763e-06
0.00125941
-1.96339e-05
0.00126371
-3.56967e-05
0.00126745
-5.2398e-05
0.00127061
-6.97496e-05
0.00127317
-8.77628e-05
0.00127513
-0.000106448
0.00127645
-0.000125816
0.00127713
-0.000145874
0.00127714
-0.000166633
0.00127647
-0.000188098
0.0012751
-0.000210277
0.00127301
-0.000233175
0.00127018
-0.000256797
0.00126658
-0.000281145
0.00126221
-0.000306222
0.00125704
-0.000332029
0.00125105
-0.000358563
0.00124422
-0.000385823
0.00123653
-0.000413804
0.00122797
-0.000442505
0.00121853
-0.000471923
0.00120818
-0.000502048
0.00119689
-0.000532836
0.00118458
-0.000564236
0.00117124
-0.00059621
0.00115677
-0.000628695
0.0011411
-0.000661591
0.00112416
-0.000694824
0.0011061
-0.000728486
0.00108757
-0.000763135
0.0010699
-0.000800058
0.00105505
-0.000841339
0.00104428
-0.000888743
0.00103463
-0.000940111
0.00101493
-0.000984051
0.000965701
-0.000997265
0.000869819
-0.000953375
0.000729545
-0.00084447
-0.000689759
0.000566018
0.000931127
0.000218867
-0.000916543
0.000945566
0.000215789
0.000959849
0.000212473
0.000973964
0.000208909
0.0009879
0.000205087
0.00100164
0.000200996
0.00101519
0.000196627
0.00102851
0.000191967
0.00104161
0.000187006
0.00105446
0.000181733
0.00106706
0.000176134
0.0010794
0.000170199
0.00109145
0.000163915
0.00110321
0.000157269
0.00111467
0.000150247
0.00112581
0.000142838
0.00113661
0.000135027
0.00114707
0.0001268
0.00115717
0.000118144
0.00116689
0.000109045
0.00117624
9.94883e-05
0.00118518
8.94599e-05
0.00119371
7.89455e-05
0.00120181
6.79306e-05
0.00120948
5.64011e-05
0.00121669
4.43428e-05
0.00122343
3.17416e-05
0.00122969
1.85837e-05
0.00123546
4.8563e-06
0.00124072
-9.45656e-06
0.00124546
-2.43694e-05
0.00124965
-3.98936e-05
0.0012533
-5.6041e-05
0.00125637
-7.28232e-05
0.00125886
-9.02511e-05
0.00126074
-0.000108335
0.00126201
-0.000127084
0.00126265
-0.000146507
0.00126263
-0.000166613
0.00126194
-0.000187408
0.00126056
-0.000208898
0.00125847
-0.00023109
0.00125566
-0.000253986
0.00125211
-0.000277591
0.00124779
-0.000301905
0.00124269
-0.000326929
0.00123679
-0.000352663
0.00123007
-0.000379105
0.00122252
-0.000406255
0.00121413
-0.000434113
0.00120488
-0.000462668
0.00119471
-0.000491881
0.00118357
-0.000521694
0.00117141
-0.000552074
0.00115816
-0.00058296
0.00114374
-0.000614275
0.00112813
-0.000645984
0.00111153
-0.00067822
0.00109458
-0.000711539
0.00107857
-0.00074713
0.00106527
-0.000786749
0.00105573
-0.000831801
0.00104746
-0.000880476
0.00103089
-0.000923539
0.000988757
-0.000941919
0.000903533
-0.000912041
0.000772717
-0.00082256
0.00061487
-0.000686623
-0.000531025
0.000456136
0.000921678
0.000204387
-0.000907198
0.00093601
0.000201457
0.000950183
0.0001983
0.000964186
0.000194906
0.000978007
0.000191266
0.000991634
0.00018737
0.00100505
0.000183206
0.00101826
0.000178765
0.00103123
0.000174035
0.00104396
0.000169004
0.00105643
0.000163662
0.00106863
0.000157996
0.00108055
0.000151994
0.00109218
0.000145642
0.0011035
0.000138929
0.00111449
0.000131841
0.00112516
0.000124364
0.00113547
0.000116485
0.00114543
0.000108189
0.00115501
9.94634e-05
0.0011642
9.02932e-05
0.001173
8.06643e-05
0.00118138
7.05622e-05
0.00118934
5.99727e-05
0.00119686
4.88816e-05
0.00120393
3.72746e-05
0.00121053
2.51379e-05
0.00121666
1.24579e-05
0.00122229
-7.78677e-07
0.00122743
-1.45886e-05
0.00123204
-2.89838e-05
0.00123612
-4.39763e-05
0.00123966
-5.95775e-05
0.00124263
-7.57989e-05
0.00124503
-9.26507e-05
0.00124684
-0.000110143
0.00124804
-0.000128285
0.00124862
-0.000147085
0.00124856
-0.00016655
0.00124784
-0.000186688
0.00124644
-0.000207504
0.00124436
-0.000229003
0.00124156
-0.00025119
0.00123804
-0.000274066
0.00123376
-0.000297634
0.00122873
-0.000321895
0.00122292
-0.00034685
0.00121631
-0.000372502
0.00120891
-0.000398849
0.00120067
-0.000425878
0.00119156
-0.000453551
0.00118149
-0.000481814
0.00117042
-0.000510626
0.00115829
-0.000539945
0.00114504
-0.000569707
0.00113069
-0.000599928
0.00111551
-0.000630799
0.00110018
-0.000662895
0.00108597
-0.000697331
0.00107444
-0.000735595
0.00106635
-0.000778661
0.00105923
-0.000824679
0.00104438
-0.000865625
0.00100633
-0.000885493
0.000928345
-0.000863932
0.000805017
-0.000788713
0.000650289
-0.000667832
0.000487707
-0.000524041
-0.000381567
0.00033825
0.000913064
0.000190006
-0.000898683
0.000927293
0.000187228
0.000941358
0.000184234
0.00095525
0.000181015
0.000968956
0.00017756
0.000982464
0.000173861
0.000995763
0.000169907
0.00100884
0.000165688
0.00102168
0.000161192
0.00103428
0.000156408
0.00104662
0.000151326
0.00105868
0.000145932
0.00107046
0.000140214
0.00108194
0.000134161
0.00109311
0.000127759
0.00110396
0.000120994
0.00111447
0.000113854
0.00112463
0.000106324
0.00113443
9.83912e-05
0.00114385
9.00405e-05
0.00115288
8.1258e-05
0.00116152
7.20292e-05
0.00116974
6.23398e-05
0.00117754
5.21754e-05
0.0011849
4.15216e-05
0.00119181
3.03643e-05
0.00119826
1.86895e-05
0.00120423
6.48396e-06
0.00120972
-6.26689e-06
0.00121471
-1.95787e-05
0.00121919
-3.34626e-05
0.00122314
-4.79305e-05
0.00122656
-6.29938e-05
0.00122942
-7.86633e-05
0.00123172
-9.49492e-05
0.00123344
-0.000111861
0.00123456
-0.000129407
0.00123507
-0.000147595
0.00123496
-0.000166434
0.0012342
-0.000185928
0.00123278
-0.000206084
0.00123068
-0.000226906
0.00122789
-0.000248398
0.00122438
-0.000270563
0.00122015
-0.000293404
0.00121518
-0.000316924
0.00120946
-0.000341128
0.00120297
-0.000366012
0.00119568
-0.000391559
0.00118753
-0.000417726
0.00117845
-0.000444468
0.00116838
-0.000471747
0.00115728
-0.000499529
0.00114512
-0.000527783
0.00113199
-0.000556574
0.00111823
-0.000586171
0.00110461
-0.000617179
0.00109236
-0.000650642
0.00108281
-0.000687783
0.0010763
-0.00072909
0.00107004
-0.000772398
0.00105569
-0.00081033
0.00101912
-0.000829055
0.000944962
-0.000811333
0.000826888
-0.000745858
0.000675871
-0.000637697
0.000514097
-0.000506058
0.000362939
-0.000372883
-0.000255007
0.000236378
0.000905326
0.000175721
-0.00089104
0.000919455
0.000173099
0.000933417
0.000170272
0.000947201
0.000167231
0.000960794
0.000163967
0.000974186
0.00016047
0.000987363
0.00015673
0.00100031
0.000152737
0.00101303
0.000148479
0.00102549
0.000143947
0.00103768
0.000139128
0.00104961
0.000134011
0.00106124
0.000128583
0.00107257
0.000122832
0.00108358
0.000116745
0.00109427
0.000110308
0.00110461
0.000103508
0.00111461
9.63311e-05
0.00112423
8.87633e-05
0.00113348
8.07902e-05
0.00114234
7.23975e-05
0.0011508
6.35704e-05
0.00115885
5.42945e-05
0.00116647
4.45553e-05
0.00117365
3.43382e-05
0.00118039
2.3629e-05
0.00118666
1.24137e-05
0.00119247
6.79089e-07
0.00119779
-1.15912e-05
0.00120262
-2.441e-05
0.00120695
-3.7789e-05
0.00121076
-5.17399e-05
0.00121404
-6.62739e-05
0.00121678
-8.14012e-05
0.00121896
-9.71316e-05
0.00122057
-0.000113474
0.0012216
-0.000130437
0.00122203
-0.000148027
0.00122185
-0.000166251
0.00122104
-0.000185116
0.00121958
-0.000204626
0.00121746
-0.000224786
0.00121467
-0.000245601
0.00121118
-0.000267075
0.00120699
-0.000289213
0.00120208
-0.000312016
0.00119643
-0.000335483
0.00119
-0.000359583
0.00118273
-0.000384281
0.00117453
-0.000409532
0.00116538
-0.000435313
0.00115523
-0.000461597
0.00114411
-0.00048841
0.00113219
-0.000515862
0.00111993
-0.000544317
0.00110817
-0.000574408
0.00109807
-0.000607083
0.00109068
-0.000643251
0.00108574
-0.000682841
0.00107985
-0.000723203
0.00106468
-0.000757232
0.00102714
-0.00077278
0.00095343
-0.00075535
0.000837682
-0.000695586
0.000689162
-0.000597337
0.000528454
-0.000476989
0.000376721
-0.000354324
0.000249955
-0.000246118
-0.000161495
0.000156444
0.000898519
0.000161529
-0.000884327
0.000912552
0.000159066
0.000926413
0.000156411
0.000940092
0.000153553
0.000953575
0.000150483
0.000966852
0.000147193
0.000979909
0.000143672
0.000992735
0.000139911
0.00100532
0.000135898
0.00101764
0.000131623
0.0010297
0.000127073
0.00104147
0.000122238
0.00105295
0.000117105
0.00106412
0.000111662
0.00107497
0.000105895
0.00108548
9.97907e-05
0.00109566
9.33361e-05
0.00110547
8.65168e-05
0.00111491
7.93187e-05
0.00112398
7.17271e-05
0.00113265
6.37273e-05
0.00114091
5.53046e-05
0.00114876
4.64442e-05
0.00115619
3.71312e-05
0.00116318
2.73509e-05
0.00116972
1.70889e-05
0.0011758
6.33143e-06
0.00118141
-4.93615e-06
0.00118655
-1.673e-05
0.0011912
-2.90615e-05
0.00119536
-4.19427e-05
0.001199
-5.5385e-05
0.00120213
-6.93991e-05
0.00120472
-8.39948e-05
0.00120677
-9.91813e-05
0.00120826
-0.000114967
0.00120919
-0.000131359
0.00120952
-0.000148364
0.00120926
-0.000165989
0.00120838
-0.000184238
0.00120688
-0.000203119
0.00120472
-0.000222635
0.00120192
-0.000242794
0.00119844
-0.000263599
0.00119428
-0.000285051
0.0011894
-0.000307135
0.00118374
-0.000329826
0.00117724
-0.000353083
0.00116984
-0.00037688
0.00116151
-0.000401203
0.00115226
-0.000426058
0.00114217
-0.000451513
0.00113155
-0.000477782
0.00112095
-0.000505268
0.00111129
-0.00053465
0.00110357
-0.000566692
0.00109839
-0.000601907
0.00109472
-0.000639582
0.00108834
-0.000676459
0.00107071
-0.000705569
0.00102963
-0.000716153
0.000953147
-0.000696298
0.000836769
-0.000638972
0.000689306
-0.000548123
0.000529886
-0.000437917
0.000378803
-0.000325905
0.00025156
-0.000227081
0.000155353
-0.000149911
-9.50275e-05
8.88858e-05
0.000892714
0.000147427
-0.000878613
0.000906652
0.000145128
0.000920415
0.000142648
0.000933989
0.000139978
0.000947364
0.000137108
0.000960527
0.000134031
0.000973465
0.000130735
0.000986165
0.000127211
0.000998615
0.000123448
0.0010108
0.000119436
0.00102271
0.000115162
0.00103433
0.000110616
0.00104566
0.000105785
0.00105666
0.000100656
0.00106734
9.5216e-05
0.00107768
8.94516e-05
0.00108767
8.33488e-05
0.00109729
7.68934e-05
0.00110654
7.00707e-05
0.0011154
6.2866e-05
0.00112386
5.52641e-05
0.00113192
4.72499e-05
0.00113955
3.88081e-05
0.00114676
2.99236e-05
0.00115353