/*--------------------------------*- C++ -*----------------------------------*\
| =========                 |                                                 |
| \\      /  F ield         | OpenFOAM: The Open Source CFD Toolbox           |
|  \\    /   O peration     | Version:  2312                                  |
|   \\  /    A nd           | Website:  www.openfoam.com                      |
|    \\/     M anipulation  |                                                 |
\*---------------------------------------------------------------------------*/
FoamFile
{
    version     2.0;
    format      ascii;
    arch        "LSB;label=32;scalar=64";
    class       volVectorField;
    location    "200";
    object      U;
}
// * * * * * * * * * * * * * * * * * * * * * * * * * * * * * * * * * * * * * //

dimensions      [0 1 -1 0 0 0 0];

internalField   nonuniform List<vector> 
76025
(
(0.0367028 -0.00749714 0)
(0.0368823 -0.00757584 9.14229e-22)
(0.0370642 -0.00765116 0)
(0.0372477 -0.00772347 0)
(0.0374297 -0.00779322 -1.6573e-21)
(0.0376188 -0.00785409 -3.14964e-21)
(0.0378071 -0.00791617 5.42815e-21)
(0.038001 -0.00796971 -2.28919e-21)
(0.038195 -0.0080228 -7.19859e-22)
(0.0383902 -0.00807193 6.92929e-22)
(0.0385857 -0.00811679 1.37544e-24)
(0.0387839 -0.00815528 1.87732e-21)
(0.0389847 -0.00819253 -2.51317e-21)
(0.0391863 -0.00822243 0)
(0.0393909 -0.0082464 5.58943e-22)
(0.0395922 -0.00827298 0)
(0.0397969 -0.00828666 0)
(0.0400019 -0.00830403 0)
(0.040208 -0.00831092 4.66863e-22)
(0.0404116 -0.00832036 -4.33324e-22)
(0.0406176 -0.00831877 -4.07071e-22)
(0.0408261 -0.00831546 -1.14284e-21)
(0.0410326 -0.00830642 7.51312e-22)
(0.0412394 -0.00829219 9.83091e-22)
(0.0414456 -0.00827694 -5.05109e-23)
(0.0416509 -0.00826132 2.32409e-22)
(0.04186 -0.008231 -7.85598e-22)
(0.0420653 -0.0082035 7.56738e-22)
(0.0422721 -0.00816779 -2.24486e-22)
(0.042479 -0.00812203 2.00985e-22)
(0.0426804 -0.00808511 1.73386e-22)
(0.0428801 -0.00804493 -2.60087e-22)
(0.0430805 -0.00799096 3.63751e-22)
(0.0432795 -0.00794539 2.42785e-23)
(0.0434773 -0.00788681 -1.5752e-22)
(0.0436727 -0.00783375 1.29735e-23)
(0.0438683 -0.00777396 1.25013e-23)
(0.0440647 -0.00770356 4.0623e-24)
(0.0442586 -0.00763908 4.37027e-24)
(0.0444474 -0.00756705 -2.01155e-23)
(0.0446334 -0.00749809 1.48297e-23)
(0.044821 -0.00742379 -1.0045e-23)
(0.0450075 -0.00733619 2.42467e-23)
(0.0451909 -0.00725775 -5.86264e-23)
(0.0453697 -0.00717116 -7.54375e-23)
(0.045549 -0.00708865 1.40212e-22)
(0.0457259 -0.00699446 1.80892e-22)
(0.0459008 -0.00690381 -5.71152e-22)
(0.0460717 -0.0068114 3.8459e-22)
(0.0462422 -0.00671972 -1.09026e-24)
(0.0464111 -0.00662592 -1.12796e-21)
(0.0465774 -0.00652815 -4.58656e-22)
(0.0467412 -0.00642868 5.13442e-22)
(0.0469008 -0.00632812 0)
(0.0470551 -0.00622625 -5.19908e-22)
(0.0472078 -0.00612767 -5.73001e-22)
(0.0473583 -0.00602338 2.93201e-23)
(0.0475047 -0.00591724 -5.87822e-22)
(0.047648 -0.00580906 6.34036e-22)
(0.0477833 -0.00569515 -1.8706e-21)
(0.047917 -0.00558942 -1.35102e-21)
(0.048045 -0.00547923 -6.95895e-23)
(0.0481633 -0.00536662 0)
(0.0482737 -0.00525211 3.63451e-21)
(0.0483731 -0.00513429 -1.41171e-21)
(0.0484569 -0.00501845 7.57632e-22)
(0.0485073 -0.00488877 -1.53054e-21)
(0.0485032 -0.00476192 1.64777e-21)
(0.0485504 -0.00464752 3.26642e-21)
(0.0365645 -0.00781473 9.80829e-22)
(0.0367527 -0.00789566 2.82376e-21)
(0.0369431 -0.00797244 -3.7554e-21)
(0.0371358 -0.00804496 0)
(0.0373291 -0.00811453 4.27793e-21)
(0.0375265 -0.00817845 -1.02533e-22)
(0.0377242 -0.00823902 -3.27969e-21)
(0.037924 -0.00829473 0)
(0.0381265 -0.00834618 5.36744e-25)
(0.0383303 -0.00839351 -7.21029e-22)
(0.0385358 -0.00843667 6.92947e-22)
(0.0387426 -0.00847497 3.74551e-24)
(0.0389501 -0.00850933 0)
(0.0391591 -0.0085389 0)
(0.0393699 -0.00856239 1.1069e-21)
(0.0395803 -0.00858344 -2.81084e-21)
(0.0397927 -0.00859784 -5.20446e-22)
(0.0400048 -0.00860963 1.46159e-21)
(0.0402179 -0.00861526 -9.68155e-22)
(0.0404302 -0.00861783 4.48902e-22)
(0.0406433 -0.00861495 -3.84599e-22)
(0.0408561 -0.00860791 8.08192e-22)
(0.0410683 -0.0085962 -7.01667e-22)
(0.0412803 -0.00857956 1.00812e-21)
(0.0414923 -0.00855863 -6.51044e-22)
(0.0417039 -0.00853427 -8.3794e-22)
(0.0419155 -0.00850423 5.46705e-22)
(0.042125 -0.00847126 0)
(0.0423339 -0.00843368 0)
(0.0425415 -0.00839208 1.72581e-22)
(0.0427482 -0.00834618 0)
(0.0429547 -0.00829686 1.19835e-22)
(0.0431595 -0.0082429 -8.93177e-23)
(0.0433628 -0.00818614 1.19851e-22)
(0.0435644 -0.00812525 1.00701e-23)
(0.0437645 -0.00806128 1.58226e-23)
(0.0439635 -0.00799319 0)
(0.0441602 -0.00792292 -3.26191e-23)
(0.0443546 -0.00785085 3.92138e-23)
(0.0445469 -0.00777559 -4.01279e-23)
(0.0447375 -0.00769677 3.29633e-23)
(0.0449265 -0.00761479 1.67612e-24)
(0.0451129 -0.00753158 1.85328e-23)
(0.0452969 -0.00744693 -1.73087e-23)
(0.0454791 -0.00735874 1.75725e-22)
(0.0456596 -0.00726803 -9.5741e-23)
(0.0458378 -0.00717549 -1.13683e-22)
(0.0460133 -0.00708201 2.03999e-22)
(0.0461866 -0.00698516 6.90706e-22)
(0.046358 -0.00688595 -3.78332e-25)
(0.0465269 -0.00678522 7.51327e-22)
(0.0466926 -0.00668285 -2.73068e-22)
(0.0468554 -0.0065795 -8.34769e-22)
(0.047015 -0.00647531 5.58449e-22)
(0.047171 -0.00636911 0)
(0.0473239 -0.00626006 1.85013e-21)
(0.0474739 -0.00615076 2.71037e-23)
(0.04762 -0.00604008 -6.41785e-22)
(0.0477621 -0.00592795 -6.96085e-22)
(0.0478992 -0.0058143 0)
(0.0480309 -0.00569762 6.74356e-22)
(0.0481571 -0.00558032 2.18204e-21)
(0.0482749 -0.00546118 0)
(0.0483839 -0.00533968 -1.53842e-21)
(0.0484794 -0.005214 8.96852e-22)
(0.0485483 -0.00508131 -1.66228e-21)
(0.0485782 -0.00493842 8.48669e-22)
(0.0485853 -0.0048132 -1.72004e-21)
(0.0487427 -0.00470359 -1.74468e-21)
(0.0364214 -0.00815023 -5.00632e-21)
(0.0366177 -0.0082323 3.0218e-21)
(0.0368167 -0.00831021 -9.60759e-22)
(0.0370185 -0.00838369 3.64889e-21)
(0.0372224 -0.00845292 -4.52408e-21)
(0.0374283 -0.00851775 -3.39247e-21)
(0.037636 -0.008578 4.20639e-21)
(0.0378454 -0.00863368 0)
(0.0380566 -0.00868469 1.48938e-24)
(0.0382695 -0.00873099 0)
(0.0384838 -0.00877258 -7.0446e-22)
(0.0386993 -0.0088094 6.78323e-22)
(0.0389157 -0.00884141 3.17144e-21)
(0.0391329 -0.00886873 -2.52238e-21)
(0.0393509 -0.00889106 5.90504e-22)
(0.0395699 -0.00890845 1.64886e-21)
(0.0397895 -0.00892105 -5.52754e-22)
(0.0400095 -0.00892874 -5.04718e-22)
(0.0402296 -0.00893179 -1.37898e-21)
(0.0404499 -0.00892984 9.13884e-22)
(0.0406698 -0.00892327 4.07343e-22)
(0.0408892 -0.00891201 -7.44443e-22)
(0.0411082 -0.00889607 3.94924e-22)
(0.0413267 -0.00887532 3.22501e-22)
(0.0415448 -0.00884995 0)
(0.0417619 -0.00882013 -2.66614e-22)
(0.0419778 -0.00878617 -2.2976e-22)
(0.0421926 -0.00874777 2.59301e-22)
(0.0424063 -0.0087049 0)
(0.0426187 -0.00865799 -3.32386e-22)
(0.0428302 -0.00860647 1.28549e-22)
(0.0430403 -0.00855115 -2.14576e-23)
(0.0432486 -0.00849242 0)
(0.043455 -0.00843004 -3.25621e-23)
(0.0436597 -0.00836446 3.32102e-23)
(0.0438626 -0.00829547 -1.4077e-23)
(0.0440635 -0.00822344 0)
(0.0442625 -0.00814867 3.94449e-23)
(0.0444594 -0.00807075 -5.00972e-23)
(0.0446543 -0.00799001 -1.03394e-23)
(0.044847 -0.00790634 0)
(0.0450374 -0.00782018 -3.36392e-23)
(0.0452256 -0.00773179 -2.04762e-23)
(0.0454115 -0.00764062 1.99702e-23)
(0.0455952 -0.00754702 -1.34177e-22)
(0.0457764 -0.00745117 -1.08131e-22)
(0.0459552 -0.00735348 2.11454e-22)
(0.0461314 -0.00725364 -2.4541e-22)
(0.046305 -0.00715162 2.60139e-22)
(0.0464761 -0.00704783 -2.55204e-22)
(0.0466445 -0.00694256 -2.67162e-22)
(0.04681 -0.0068357 5.97801e-22)
(0.0469727 -0.00672728 0)
(0.0471322 -0.00661736 6.41243e-22)
(0.0472885 -0.0065057 5.08623e-24)
(0.0474417 -0.00639242 -6.75709e-22)
(0.0475917 -0.0062782 -6.94919e-22)
(0.0477379 -0.00616214 1.40896e-21)
(0.0478796 -0.00604402 -5.16571e-24)
(0.0480158 -0.00592367 7.71663e-22)
(0.0481466 -0.00580115 -1.5911e-21)
(0.0482713 -0.00567698 -8.2759e-22)
(0.048388 -0.00555042 2.31677e-23)
(0.0484941 -0.00542019 -8.3538e-22)
(0.0485804 -0.0052839 -8.18323e-22)
(0.048633 -0.00513942 -2.72858e-21)
(0.0486527 -0.00498671 0)
(0.0487137 -0.00486982 -9.56589e-22)
(0.0490692 -0.00477406 9.60993e-22)
(0.0362754 -0.0085041 0)
(0.0364807 -0.00858706 1.02132e-21)
(0.0366888 -0.00866565 4.88805e-21)
(0.0368995 -0.00873965 -3.87847e-21)
(0.0371128 -0.00880901 -2.70504e-21)
(0.0373282 -0.0088737 4.49218e-21)
(0.0375457 -0.00893356 -8.52621e-22)
(0.037765 -0.00898855 8.18264e-22)
(0.0379858 -0.00903862 7.8701e-22)
(0.0382081 -0.00908372 2.95269e-21)
(0.0384316 -0.0091238 -2.93673e-21)
(0.0386562 -0.00915879 -2.69263e-21)
(0.0388818 -0.00918863 7.42961e-22)
(0.0391081 -0.00921334 2.4974e-21)
(0.0393349 -0.00923292 -1.80369e-21)
(0.0395623 -0.00924731 5.5611e-22)
(0.0397899 -0.00925664 -5.24718e-22)
(0.0400177 -0.00926084 -4.93594e-22)
(0.0402454 -0.00926002 1.38575e-21)
(0.040473 -0.00925416 -4.77409e-22)
(0.0407001 -0.00924333 -4.16843e-22)
(0.0409267 -0.00922752 0)
(0.0411527 -0.00920681 -6.55048e-22)
(0.0413777 -0.00918127 3.43177e-22)
(0.0416018 -0.00915102 5.55361e-22)
(0.0418247 -0.0091162 4.66698e-22)
(0.0420463 -0.00907686 -9.67665e-22)
(0.0422666 -0.00903297 4.11085e-22)
(0.0424854 -0.00898467 0)
(0.0427026 -0.00893209 2.9683e-22)
(0.0429181 -0.00887537 -2.53636e-23)
(0.0431319 -0.00881475 -2.09457e-22)
(0.0433438 -0.00875058 4.76198e-23)
(0.0435537 -0.00868282 -7.60497e-23)
(0.0437616 -0.00861163 2.2332e-23)
(0.0439674 -0.00853712 0)
(0.0441711 -0.00845945 0)
(0.0443726 -0.00837873 2.09127e-23)
(0.0445718 -0.00829508 2.08982e-23)
(0.0447686 -0.0082087 1.61307e-23)
(0.044963 -0.00811964 -5.86704e-25)
(0.0451549 -0.00802802 1.84422e-23)
(0.0453445 -0.00793393 0)
(0.0455315 -0.00783745 -5.61665e-24)
(0.045716 -0.00773876 0)
(0.0458978 -0.00763791 1.09144e-22)
(0.0460772 -0.00753501 9.71928e-24)
(0.0462538 -0.00743009 -3.98491e-22)
(0.0464277 -0.00732326 0)
(0.046599 -0.00721462 -2.98103e-22)
(0.0467676 -0.00710427 2.93361e-22)
(0.0469333 -0.00699229 -6.08414e-22)
(0.0470962 -0.00687872 0)
(0.047256 -0.00676359 -2.03566e-21)
(0.0474127 -0.0066468 4.14163e-24)
(0.0475664 -0.00652848 6.98686e-22)
(0.0477165 -0.00640872 7.18719e-22)
(0.0478625 -0.00628698 0)
(0.0480036 -0.00616295 0)
(0.0481393 -0.00603662 -7.87777e-22)
(0.0482696 -0.00590798 1.62471e-21)
(0.0483931 -0.00577693 1.67439e-21)
(0.0485079 -0.0056426 0)
(0.0486079 -0.00550298 -1.86795e-21)
(0.0486804 -0.00535537 0)
(0.0487185 -0.00519924 2.87321e-21)
(0.048756 -0.00504565 -9.89305e-22)
(0.0489497 -0.0049523 -1.03238e-21)
(0.0495608 -0.00486091 -1.1034e-21)
(0.0361285 -0.00887728 0)
(0.036343 -0.00896105 0)
(0.0365605 -0.00904014 1.02311e-21)
(0.0367806 -0.00911434 -3.87388e-21)
(0.0370032 -0.0091836 4.79953e-21)
(0.0372282 -0.00924787 -9.1048e-22)
(0.0374553 -0.00930703 0)
(0.0376843 -0.00936101 -8.39712e-22)
(0.0379149 -0.00940974 0)
(0.038147 -0.00945318 -1.50425e-21)
(0.0383802 -0.00949129 7.01482e-23)
(0.0386144 -0.00952401 1.42931e-21)
(0.0388494 -0.00955131 0)
(0.039085 -0.00957317 -1.22957e-21)
(0.0393211 -0.00958959 3.5826e-21)
(0.0395573 -0.00960059 -2.26869e-21)
(0.0397936 -0.0096062 2.66272e-21)
(0.0400297 -0.00960645 -5.24142e-22)
(0.0402655 -0.00960138 4.58487e-22)
(0.0405008 -0.00959105 -4.42242e-22)
(0.0407354 -0.0095755 -3.80863e-22)
(0.0409693 -0.0095548 1.13754e-21)
(0.0412021 -0.00952903 6.80367e-22)
(0.0414338 -0.00949829 0)
(0.0416641 -0.00946267 -5.27801e-22)
(0.0418931 -0.00942228 -1.96978e-22)
(0.0421205 -0.00937722 6.97701e-22)
(0.0423462 -0.0093276 -1.99425e-22)
(0.04257 -0.00927354 2.86925e-22)
(0.0427919 -0.00921517 -4.28609e-22)
(0.0430119 -0.00915263 8.58359e-23)
(0.0432298 -0.00908606 -2.77228e-23)
(0.0434455 -0.00901586 0)
(0.0436589 -0.0089421 1.03896e-23)
(0.04387 -0.00886491 -3.71074e-24)
(0.0440787 -0.00878444 0)
(0.044285 -0.00870083 4.27867e-23)
(0.0444887 -0.00861423 -7.60953e-23)
(0.04469 -0.00852479 5.39601e-23)
(0.0448886 -0.00843262 -3.58715e-23)
(0.0450846 -0.00833782 -7.88554e-25)
(0.045278 -0.0082405 -3.69478e-23)
(0.0454687 -0.00814079 1.20617e-23)
(0.0456568 -0.0080388 5.28051e-23)
(0.0458421 -0.00793463 9.49325e-25)
(0.0460247 -0.00782834 3.81002e-22)
(0.0462046 -0.00772006 0)
(0.0463817 -0.00760986 2.77141e-22)
(0.0465562 -0.00749783 -2.49206e-24)
(0.0467278 -0.00738403 -3.07081e-22)
(0.0468968 -0.00726856 0)
(0.0470629 -0.00715146 -3.5004e-22)
(0.0472262 -0.00703276 3.44546e-22)
(0.0473864 -0.00691245 7.06719e-22)
(0.0475436 -0.00679043 0)
(0.0476976 -0.00666685 -1.52887e-21)
(0.0478476 -0.00654144 1.57845e-21)
(0.0479932 -0.00641386 -1.62949e-21)
(0.0481337 -0.00628382 -3.71548e-23)
(0.048269 -0.00615136 0)
(0.0483987 -0.0060164 -9.0846e-22)
(0.0485206 -0.00587826 8.98841e-22)
(0.0486309 -0.00573549 1.01418e-21)
(0.0487197 -0.00558549 1.91425e-21)
(0.0487762 -0.00542667 -3.10224e-21)
(0.0488159 -0.00526445 2.09634e-21)
(0.0489311 -0.00512542 -1.06858e-21)
(0.0493527 -0.00506225 1.16104e-21)
(0.0502038 -0.00495878 3.31579e-21)
(0.0359804 -0.0092714 -4.42146e-21)
(0.0362049 -0.00935595 1.32877e-22)
(0.0364322 -0.00943543 4.28003e-21)
(0.0366622 -0.00950964 0)
(0.0368947 -0.00957855 -9.72813e-22)
(0.0371296 -0.0096421 0)
(0.0373665 -0.00970021 1.75716e-21)
(0.0376054 -0.00975279 -6.77942e-23)
(0.0378459 -0.00979978 -2.4885e-21)
(0.0380879 -0.00984114 7.77806e-22)
(0.038331 -0.00987683 7.48062e-22)
(0.038575 -0.00990681 7.02515e-22)
(0.0388197 -0.00993107 0)
(0.0390649 -0.0099496 0)
(0.0393103 -0.0099624 -6.05697e-22)
(0.0395558 -0.00996948 -5.71047e-22)
(0.039801 -0.00997089 1.02591e-21)
(0.0400458 -0.00996667 -1.02431e-21)
(0.04029 -0.00995687 -9.2115e-22)
(0.0405335 -0.00994156 8.21781e-22)
(0.0407759 -0.00992081 -1.59609e-21)
(0.0410172 -0.00989472 4.58513e-23)
(0.0412572 -0.00986337 6.68543e-22)
(0.0414957 -0.00982688 2.84156e-22)
(0.0417326 -0.00978535 4.94978e-22)
(0.0419677 -0.00973892 -4.9611e-22)
(0.0422009 -0.00968772 -3.68008e-22)
(0.0424321 -0.00963188 3.69271e-22)
(0.0426611 -0.00957152 0)
(0.0428878 -0.00950681 0)
(0.0431122 -0.00943787 -1.76675e-22)
(0.0433342 -0.00936493 4.50712e-23)
(0.0435536 -0.00928837 2.71393e-23)
(0.0437705 -0.00920826 -3.26535e-23)
(0.0439847 -0.00912474 3.21117e-23)
(0.0441963 -0.00903798 0)
(0.0444051 -0.00894812 -4.34305e-23)
(0.0446111 -0.00885531 -1.03646e-22)
(0.0448143 -0.0087597 6.77882e-23)
(0.0450147 -0.00866142 -3.33735e-24)
(0.0452123 -0.00856059 -8.15695e-24)
(0.0454071 -0.00845735 3.7656e-23)
(0.045599 -0.0083518 3.07721e-23)
(0.045788 -0.00824406 6.55694e-23)
(0.0459742 -0.00813423 -3.32757e-22)
(0.0461576 -0.0080224 7.60384e-25)
(0.0463382 -0.00790867 0)
(0.046516 -0.00779311 -3.29761e-22)
(0.0466911 -0.00767579 1.00488e-21)
(0.0468633 -0.00755678 -6.93397e-22)
(0.0470328 -0.00743611 -3.67226e-22)
(0.0471995 -0.00731382 -2.11013e-23)
(0.0473632 -0.00718989 -3.87092e-22)
(0.0475238 -0.00706428 -3.3473e-23)
(0.0476812 -0.00693693 7.89864e-22)
(0.0478353 -0.00680791 -8.49222e-22)
(0.0479849 -0.00667675 -8.64897e-22)
(0.04813 -0.00654322 1.75255e-21)
(0.0482701 -0.00640716 -7.2321e-24)
(0.0484052 -0.0062686 9.48318e-22)
(0.0485337 -0.00612705 -9.47387e-22)
(0.0486518 -0.00598122 9.69961e-22)
(0.048753 -0.00582898 -2.00165e-21)
(0.0488262 -0.00566827 -1.07068e-21)
(0.0488753 -0.00550152 2.112e-21)
(0.0489598 -0.00534549 -1.20517e-21)
(0.0492437 -0.00523792 -3.57174e-21)
(0.0499571 -0.00520005 -1.14795e-21)
(0.0508739 -0.00505447 0)
(0.0358296 -0.00968781 0)
(0.0360654 -0.00977309 -1.12828e-21)
(0.0363038 -0.00985286 2.07432e-24)
(0.0365447 -0.00992694 0)
(0.0367879 -0.00999529 0)
(0.0370333 -0.0100579 -9.54737e-22)
(0.0372807 -0.0101146 2.70662e-21)
(0.03753 -0.0101654 -3.49682e-21)
(0.0377808 -0.0102103 1.71095e-21)
(0.0380329 -0.0102491 -7.97424e-22)
(0.0382861 -0.0102819 0)
(0.0385402 -0.0103087 -7.19972e-22)
(0.0387948 -0.0103294 6.69083e-22)
(0.0390497 -0.010344 0)
(0.0393047 -0.0103526 0)
(0.0395595 -0.0103552 -5.35975e-22)
(0.0398139 -0.0103518 7.13022e-23)
(0.0400676 -0.0103425 1.01421e-21)
(0.0403205 -0.0103274 8.91179e-22)
(0.0405723 -0.0103065 -8.7048e-22)
(0.0408228 -0.01028 -3.92557e-22)
(0.0410718 -0.0102479 -1.3539e-21)
(0.0413191 -0.0102104 3.62723e-23)
(0.0415646 -0.0101676 2.33199e-22)
(0.0418081 -0.0101196 -5.2444e-22)
(0.0420495 -0.0100666 1.91883e-22)
(0.0422886 -0.0100087 -3.90481e-22)
(0.0425252 -0.00994614 0)
(0.0427594 -0.00987898 0)
(0.0429909 -0.00980742 0)
(0.0432198 -0.00973161 3.07413e-23)
(0.0434458 -0.0096519 1.37479e-23)
(0.043669 -0.00956853 1.34834e-24)
(0.0438893 -0.00948164 6.23362e-23)
(0.0441066 -0.00939139 -6.13073e-23)
(0.0443209 -0.00929793 0)
(0.0445322 -0.00920145 7.18608e-23)
(0.0447404 -0.00910209 -3.5437e-23)
(0.0449456 -0.00900002 0)
(0.0451478 -0.00889537 5.05426e-23)
(0.0453469 -0.00878829 -1.06319e-23)
(0.045543 -0.00867889 7.23989e-24)
(0.0457361 -0.00856731 -3.12556e-23)
(0.0459262 -0.00845365 0)
(0.0461134 -0.00833801 -1.55316e-22)
(0.0462977 -0.0082205 1.52899e-22)
(0.0464791 -0.00810118 0)
(0.0466577 -0.00798012 -2.26245e-23)
(0.0468334 -0.00785739 2.53496e-24)
(0.0470063 -0.00773302 3.63671e-22)
(0.0471763 -0.00760702 0)
(0.0473434 -0.0074794 -2.49886e-23)
(0.0475073 -0.00735011 -4.00875e-22)
(0.0476679 -0.0072191 -1.30095e-21)
(0.0478255 -0.00708634 -4.19022e-23)
(0.0479793 -0.0069517 8.64557e-22)
(0.0481285 -0.00681472 0)
(0.0482732 -0.00667523 0)
(0.048413 -0.00653317 9.99108e-22)
(0.0485473 -0.00638831 0)
(0.0486724 -0.00623952 0)
(0.0487826 -0.00608486 -1.17693e-23)
(0.0488694 -0.00592234 -1.08884e-21)
(0.0489305 -0.00575285 -2.32667e-21)
(0.0490037 -0.00558721 2.38441e-21)
(0.0492113 -0.00545576 -1.20154e-22)
(0.0497594 -0.00538954 1.18309e-21)
(0.0507082 -0.00535149 1.27725e-21)
(0.0512878 -0.00510125 0)
(0.0356743 -0.010128 0)
(0.0359228 -0.0102139 1.15876e-21)
(0.0361737 -0.0102938 -3.3022e-21)
(0.0364268 -0.0103676 1.10755e-21)
(0.036682 -0.0104352 0)
(0.0369392 -0.0104965 2.89588e-21)
(0.0371981 -0.0105516 -4.66905e-21)
(0.0374586 -0.0106004 7.75344e-23)
(0.0377204 -0.0106427 4.23534e-21)
(0.0379834 -0.0106786 -8.48407e-22)
(0.0382472 -0.010708 7.5434e-22)
(0.0385117 -0.0107311 7.11904e-22)
(0.0387766 -0.0107477 -2.00392e-21)
(0.0390415 -0.0107578 2.55135e-21)
(0.0393063 -0.0107616 -1.23353e-21)
(0.0395707 -0.0107591 5.11437e-22)
(0.0398345 -0.0107503 -2.07608e-21)
(0.0400973 -0.0107353 5.29655e-22)
(0.0403589 -0.0107142 -3.94613e-22)
(0.0406192 -0.0106871 4.65867e-22)
(0.0408778 -0.0106542 7.3508e-23)
(0.0411346 -0.0106155 1.98324e-21)
(0.0413894 -0.0105712 2.346e-22)
(0.041642 -0.0105214 -7.18446e-23)
(0.0418922 -0.0104663 -6.90174e-22)
(0.0421399 -0.0104061 2.01836e-22)
(0.0423849 -0.0103409 -2.71679e-22)
(0.0426271 -0.010271 3.74866e-22)
(0.0428664 -0.0101964 0)
(0.0431027 -0.0101175 3.34403e-23)
(0.043336 -0.0100343 -3.35856e-23)
(0.043566 -0.00994729 1.64759e-23)
(0.0437929 -0.00985664 -3.30971e-23)
(0.0440165 -0.00976251 -4.82946e-23)
(0.0442368 -0.00966509 1.863e-22)
(0.0444539 -0.00956455 -1.21512e-22)
(0.0446676 -0.00946108 1.33229e-22)
(0.044878 -0.00935484 -1.87716e-22)
(0.0450852 -0.009246 9.91348e-23)
(0.0452891 -0.00913471 -2.74734e-23)
(0.0454897 -0.00902111 0)
(0.0456872 -0.00890534 3.61155e-23)
(0.0458815 -0.00878751 -3.55487e-23)
(0.0460727 -0.00866774 -8.16097e-23)
(0.0462609 -0.00854613 2.52249e-22)
(0.046446 -0.00842275 -1.71261e-22)
(0.0466282 -0.00829769 -1.7739e-22)
(0.0468073 -0.00817098 0)
(0.0469836 -0.00804268 -8.14268e-22)
(0.0471569 -0.0079128 8.17201e-22)
(0.0473271 -0.00778133 -4.07574e-22)
(0.0474943 -0.00764823 4.02426e-22)
(0.0476581 -0.00751345 4.40831e-22)
(0.0478187 -0.007377 8.91178e-22)
(0.0479763 -0.0072388 9.082e-22)
(0.0481296 -0.00709837 0)
(0.0482786 -0.00695557 -1.00995e-21)
(0.0484229 -0.00681013 0)
(0.0485622 -0.00666192 4.18271e-23)
(0.0486935 -0.00651012 -1.05209e-21)
(0.048811 -0.00635287 1.09909e-21)
(0.0489079 -0.00618821 1.12609e-21)
(0.0489808 -0.00601635 -1.21954e-21)
(0.0490532 -0.00584491 -4.45807e-23)
(0.049218 -0.00569684 1.34391e-23)
(0.0496499 -0.00560791 3.92549e-21)
(0.0504876 -0.00557271 1.38744e-21)
(0.0513875 -0.00547677 1.41714e-21)
(0.0510135 -0.00503019 -1.44476e-21)
(0.0355142 -0.0105938 0)
(0.0357764 -0.01068 0)
(0.0360409 -0.0107599 -2.24477e-21)
(0.0363074 -0.0108331 3.32383e-21)
(0.0365758 -0.0108997 1.04193e-21)
(0.036846 -0.0109596 0)
(0.0371177 -0.0110127 0)
(0.0373906 -0.011059 -8.9678e-22)
(0.0376645 -0.0110984 1.67165e-21)
(0.0379393 -0.011131 -9.62537e-23)
(0.0382147 -0.0111566 -3.83661e-21)
(0.0384904 -0.0111754 7.5508e-22)
(0.0387662 -0.0111873 -6.47117e-22)
(0.0390418 -0.0111925 1.31003e-21)
(0.0393169 -0.0111908 -5.80642e-22)
(0.0395913 -0.0111825 0)
(0.0398647 -0.0111677 0)
(0.0401369 -0.0111463 3.74793e-23)
(0.0404076 -0.0111185 1.30875e-21)
(0.0406765 -0.0110845 -4.00699e-22)
(0.0409434 -0.0110444 3.33879e-22)
(0.0412081 -0.0109983 -3.23993e-22)
(0.0414704 -0.0109465 -2.50684e-22)
(0.0417301 -0.010889 2.89029e-22)
(0.041987 -0.0108262 2.12469e-22)
(0.042241 -0.0107581 0)
(0.0424919 -0.010685 0)
(0.0427396 -0.010607 -1.39651e-22)
(0.042984 -0.0105245 0)
(0.043225 -0.0104375 3.42921e-25)
(0.0434626 -0.0103464 -3.43097e-25)
(0.0436966 -0.0102516 -1.7391e-23)
(0.0439271 -0.0101531 3.35599e-23)
(0.0441539 -0.0100513 1.15667e-22)
(0.0443772 -0.00994623 -6.36645e-23)
(0.0445969 -0.00983819 -9.33514e-23)
(0.0448129 -0.00972734 1.00447e-22)
(0.0450255 -0.00961386 0)
(0.0452345 -0.00949793 0)
(0.04544 -0.00937969 3.59373e-23)
(0.0456421 -0.00925929 0)
(0.0458408 -0.00913688 0)
(0.0460362 -0.00901257 -1.29505e-22)
(0.0462283 -0.00888646 1.76289e-22)
(0.0464172 -0.00875865 -9.59996e-23)
(0.046603 -0.00862921 1.84985e-22)
(0.0467856 -0.00849821 0)
(0.0469651 -0.00836567 6.41369e-22)
(0.0471416 -0.00823163 -3.77181e-24)
(0.0473149 -0.00809608 0)
(0.0474851 -0.00795899 -9.13189e-22)
(0.047652 -0.00782029 -5.11476e-24)
(0.0478155 -0.00768001 -9.36894e-22)
(0.0479763 -0.00753814 -5.04908e-22)
(0.0481338 -0.00739448 -1.02003e-21)
(0.0482868 -0.00724821 1.01031e-21)
(0.0484354 -0.00709947 1.03225e-21)
(0.0485789 -0.00694794 0)
(0.0487155 -0.00679295 -1.14448e-21)
(0.0488394 -0.00663292 1.02448e-23)
(0.0489439 -0.00646581 0)
(0.0490269 -0.00629142 0)
(0.0491044 -0.00611566 1.25576e-21)
(0.0492472 -0.00595667 0)
(0.0496038 -0.00584669 0)
(0.050327 -0.00580327 -1.39864e-21)
(0.0512889 -0.00575276 -1.36872e-21)
(0.0515718 -0.00550373 -1.56338e-21)
(0.0495422 -0.0048025 0)
(0.0353497 -0.0110874 0)
(0.0356263 -0.0111737 0)
(0.0359052 -0.0112531 0)
(0.0361861 -0.0113255 1.11431e-21)
(0.0364688 -0.0113907 1.018e-21)
(0.0367531 -0.0114487 -8.90715e-23)
(0.0370386 -0.0114995 -1.97121e-21)
(0.0373252 -0.0115429 9.19099e-22)
(0.0376125 -0.0115789 -8.55497e-22)
(0.0379002 -0.0116076 -1.62881e-21)
(0.0381882 -0.011629 0)
(0.0384762 -0.011643 0)
(0.0387639 -0.0116497 -4.12124e-23)
(0.0390509 -0.0116491 -1.91441e-21)
(0.0393371 -0.0116415 2.28664e-21)
(0.0396222 -0.0116267 -8.49223e-23)
(0.0399058 -0.011605 -1.03171e-21)
(0.0401878 -0.0115765 -4.64848e-22)
(0.0404679 -0.0115414 -2.98114e-23)
(0.0407458 -0.0114997 0)
(0.0410212 -0.0114517 -6.50426e-22)
(0.0412941 -0.0113975 0)
(0.041564 -0.0113373 -4.89463e-22)
(0.0418309 -0.0112714 5.96787e-22)
(0.0420946 -0.0112 -5.22923e-22)
(0.0423549 -0.0111233 -1.09843e-22)
(0.0426117 -0.0110415 1.08305e-22)
(0.0428649 -0.0109549 -7.21001e-23)
(0.0431143 -0.0108637 3.53512e-23)
(0.0433599 -0.0107681 0)
(0.0436016 -0.0106684 -7.39199e-23)
(0.0438395 -0.0105651 -9.0162e-23)
(0.0440733 -0.0104583 1.05675e-22)
(0.0443033 -0.0103482 -1.54457e-22)
(0.0445293 -0.0102351 9.92069e-23)
(0.0447514 -0.0101191 -9.76106e-23)
(0.0449696 -0.0100004 -5.48442e-23)
(0.045184 -0.0098793 7.03474e-23)
(0.0453946 -0.00975589 3.68316e-23)
(0.0456015 -0.00963036 -1.10221e-22)
(0.0458048 -0.00950285 -1.08889e-23)
(0.0460044 -0.0093735 0)
(0.0462006 -0.00924242 4.41848e-23)
(0.0463933 -0.00910972 -9.30106e-23)
(0.0465826 -0.00897547 9.74154e-23)
(0.0467686 -0.00883975 0)
(0.0469513 -0.0087026 0)
(0.0471308 -0.00856405 2.44436e-22)
(0.0473071 -0.00842412 -4.56088e-22)
(0.0474801 -0.00828278 -9.85773e-22)
(0.0476499 -0.00813996 1.97137e-21)
(0.0478164 -0.00799567 -5.18995e-22)
(0.04798 -0.00785 5.06771e-22)
(0.0481412 -0.00770277 5.12988e-22)
(0.0482983 -0.00755335 -1.0947e-21)
(0.0484509 -0.00740129 1.08844e-21)
(0.0485984 -0.0072464 0)
(0.0487391 -0.00708813 -1.2076e-21)
(0.0488683 -0.00692504 1.26486e-23)
(0.0489792 -0.00675522 1.23538e-21)
(0.04907 -0.00657816 0)
(0.0491553 -0.00639881 0)
(0.0492908 -0.00623234 0)
(0.0496022 -0.00610696 2.92773e-21)
(0.0502392 -0.00604711 1.54996e-21)
(0.0511706 -0.00601677 1.52264e-21)
(0.0517875 -0.0058596 -3.09109e-21)
(0.0506757 -0.00535175 -7.97829e-23)
(0.0464788 -0.00436216 1.86646e-21)
(0.0351821 -0.0116114 0)
(0.0354738 -0.0116975 2.45924e-21)
(0.0357678 -0.0117761 -3.0361e-21)
(0.0360639 -0.0118471 1.65518e-21)
(0.0363616 -0.0119105 -3.29206e-21)
(0.0366609 -0.0119661 -1.02103e-21)
(0.0369612 -0.0120139 -9.65685e-22)
(0.0372623 -0.0120539 0)
(0.037564 -0.012086 1.73387e-21)
(0.0378658 -0.0121103 1.60606e-21)
(0.0381674 -0.0121267 -1.57717e-21)
(0.0384687 -0.0121352 7.01795e-22)
(0.0387692 -0.012136 -6.08028e-22)
(0.0390687 -0.0121291 7.20897e-22)
(0.0393668 -0.0121147 2.24875e-21)
(0.0396634 -0.0120928 -8.97956e-23)
(0.039958 -0.0120635 -8.89172e-23)
(0.0402505 -0.0120271 -9.05695e-22)
(0.0405406 -0.0119837 -4.01849e-22)
(0.0408279 -0.0119335 -6.41581e-22)
(0.0411123 -0.0118767 6.77087e-22)
(0.0413936 -0.0118136 0)
(0.0416714 -0.0117443 3.83068e-23)
(0.0419457 -0.0116692 0)
(0.0422163 -0.0115884 1.51677e-22)
(0.042483 -0.0115023 1.12085e-22)
(0.0427456 -0.011411 -3.6499e-23)
(0.0430042 -0.0113149 0)
(0.0432585 -0.0112143 2.33209e-23)
(0.0435086 -0.0111093 8.08731e-23)
(0.0437543 -0.0110005 -7.98495e-23)
(0.0439957 -0.0108881 5.61454e-23)
(0.0442328 -0.0107723 -1.82004e-22)
(0.0444656 -0.0106534 3.73189e-22)
(0.0446941 -0.0105316 -1.04431e-22)
(0.0449183 -0.0104072 0)
(0.0451383 -0.0102802 -7.50421e-23)
(0.0453542 -0.010151 9.89491e-24)
(0.0455661 -0.0100198 1.24044e-22)
(0.045774 -0.00988657 -1.06796e-22)
(0.045978 -0.00975159 2.11918e-23)
(0.0461782 -0.00961498 -7.61786e-23)
(0.0463746 -0.00947684 4.97312e-23)
(0.0465675 -0.00933727 0)
(0.0467568 -0.00919636 0)
(0.0469426 -0.00905415 0)
(0.047125 -0.0089107 2.47399e-22)
(0.0473041 -0.00876602 2.5454e-22)
(0.0474799 -0.00862009 0)
(0.0476525 -0.00847287 5.09635e-22)
(0.0478218 -0.00832434 5.53182e-22)
(0.0479883 -0.00817464 5.59686e-22)
(0.0481526 -0.00802375 0)
(0.0483138 -0.00787109 0)
(0.0484699 -0.00771558 -1.17741e-21)
(0.0486211 -0.0075573 1.17366e-21)
(0.048765 -0.00739563 0)
(0.0488981 -0.00722925 1.23836e-21)
(0.0490143 -0.00705641 -1.27755e-21)
(0.0491116 -0.00687662 -1.38629e-21)
(0.049205 -0.00669424 1.41868e-21)
(0.0493435 -0.00652291 -1.42721e-21)
(0.0496332 -0.00638745 0)
(0.0502142 -0.00631371 -1.51008e-21)
(0.051099 -0.0062853 5.50818e-23)
(0.0518652 -0.00618369 -3.28555e-21)
(0.0513741 -0.00579441 -3.51908e-21)
(0.0481788 -0.00494449 3.68747e-21)
(0.0418365 -0.00373741 -2.02388e-21)
(0.0350125 -0.0121689 6.63269e-22)
(0.0353202 -0.0122542 0)
(0.0356302 -0.0123315 6.1119e-22)
(0.0359422 -0.0124007 -2.84546e-21)
(0.0362558 -0.0124616 4.95108e-21)
(0.0365708 -0.0125143 -1.08302e-21)
(0.0368867 -0.0125586 9.89304e-22)
(0.0372032 -0.0125945 -1.79735e-21)
(0.03752 -0.0126219 9.08146e-22)
(0.0378367 -0.0126409 8.23871e-22)
(0.0381529 -0.0126516 7.43688e-22)
(0.0384683 -0.0126539 -2.07914e-21)
(0.0387826 -0.012648 7.18396e-22)
(0.0390953 -0.0126339 -1.73818e-21)
(0.0394063 -0.0126118 -4.70185e-22)
(0.0397151 -0.0125818 9.48833e-23)
(0.0400215 -0.0125441 9.51965e-22)
(0.0403252 -0.0124989 0)
(0.0406258 -0.0124464 0)
(0.0409232 -0.0123868 2.89951e-22)
(0.041217 -0.0123203 2.85398e-22)
(0.041507 -0.0122473 4.0002e-22)
(0.0417931 -0.012168 -2.01552e-22)
(0.042075 -0.0120827 -2.28079e-22)
(0.0423526 -0.0119916 2.28166e-22)
(0.0426257 -0.0118952 -1.35685e-23)
(0.0428943 -0.0117936 7.06394e-24)
(0.0431582 -0.0116873 0)
(0.0434173 -0.0115764 -2.37656e-23)
(0.0436717 -0.0114614 -1.2808e-22)
(0.0439212 -0.0113426 -3.7422e-23)
(0.044166 -0.0112205 1.60801e-22)
(0.0444059 -0.0110951 -1.17861e-22)
(0.0446412 -0.0109667 0)
(0.0448717 -0.0108357 7.36717e-23)
(0.0450977 -0.0107022 -8.04465e-23)
(0.0453191 -0.0105665 7.59928e-23)
(0.0455361 -0.0104288 -1.7513e-22)
(0.0457488 -0.0102892 0)
(0.0459572 -0.010148 -2.60063e-23)
(0.0461615 -0.0100052 2.60184e-23)
(0.0463617 -0.00986101 -4.42338e-23)
(0.0465581 -0.00971555 1.71698e-22)
(0.0467507 -0.00956889 -3.56553e-22)
(0.0469396 -0.00942112 2.38104e-22)
(0.047125 -0.00927228 2.57728e-22)
(0.0473068 -0.00912241 -2.35747e-22)
(0.0474853 -0.0089715 5.61976e-22)
(0.0476605 -0.00881951 -5.36139e-22)
(0.0478326 -0.00866647 -1.40243e-21)
(0.048002 -0.0085125 6.0854e-24)
(0.0481692 -0.00835765 -5.67986e-22)
(0.0483338 -0.00820137 0)
(0.0484934 -0.00804255 0)
(0.0486472 -0.00788073 -1.26804e-21)
(0.0487939 -0.00771539 1.91237e-21)
(0.0489294 -0.00754545 -1.30715e-21)
(0.0490494 -0.00736929 0)
(0.0491525 -0.00718665 1.44718e-21)
(0.0492545 -0.00700183 2.91081e-21)
(0.0494025 -0.00682775 -1.4745e-21)
(0.0496895 -0.00668705 -4.00302e-23)
(0.0502404 -0.00660457 1.59037e-21)
(0.0510857 -0.00657382 -1.69752e-23)
(0.0519074 -0.00650312 -3.40157e-21)
(0.0517896 -0.00619858 3.50049e-21)
(0.0493717 -0.00546545 1.88461e-21)
(0.043878 -0.00428986 0)
(0.0359583 -0.00300926 0)
(0.0348421 -0.0127629 -6.80221e-22)
(0.0351669 -0.0128471 -3.19858e-21)
(0.0354939 -0.0129226 2.5294e-21)
(0.0358227 -0.0129893 0)
(0.0361532 -0.0130472 5.5813e-22)
(0.0364848 -0.0130962 2.03552e-21)
(0.0368171 -0.0131362 -1.53616e-21)
(0.0371499 -0.0131672 2.24479e-21)
(0.0374826 -0.0131892 -1.77931e-21)
(0.0378149 -0.0132022 0)
(0.0381465 -0.0132062 -3.96456e-22)
(0.0384768 -0.0132013 0)
(0.0388055 -0.0131877 -5.66273e-22)
(0.0391323 -0.0131654 1.80805e-21)
(0.0394568 -0.0131347 0)
(0.0397785 -0.0130956 0)
(0.0400973 -0.0130484 0)
(0.0404127 -0.0129933 5.21881e-22)
(0.0407245 -0.0129305 -6.94546e-22)
(0.0410323 -0.0128604 -2.95988e-22)
(0.0413359 -0.0127832 0)
(0.0416351 -0.0126993 0)
(0.0419297 -0.0126089 0)
(0.0422194 -0.0125124 1.69855e-22)
(0.0425041 -0.0124101 -1.63074e-22)
(0.0427837 -0.0123023 3.92163e-23)
(0.0430581 -0.0121895 -4.01568e-23)
(0.0433272 -0.012072 1.00677e-22)
(0.043591 -0.01195 -1.00906e-22)