/*--------------------------------*- C++ -*----------------------------------*\
| =========                 |                                                 |
| \\      /  F ield         | OpenFOAM: The Open Source CFD Toolbox           |
|  \\    /   O peration     | Version:  2312                                  |
|   \\  /    A nd           | Website:  www.openfoam.com                      |
|    \\/     M anipulation  |                                                 |
\*---------------------------------------------------------------------------*/
FoamFile
{
    version     2.0;
    format      ascii;
    arch        "LSB;label=32;scalar=64";
    class       volScalarField;
    location    "300";
    object      k;
}
// * * * * * * * * * * * * * * * * * * * * * * * * * * * * * * * * * * * * * //

dimensions      [0 2 -2 0 0 0 0];

internalField   nonuniform List<scalar> 
76025
(
5.016e-06
5.01818e-06
5.02037e-06
5.02306e-06
5.02502e-06
5.03139e-06
5.03395e-06
5.03897e-06
5.04179e-06
5.04674e-06
5.0521e-06
5.05805e-06
5.06604e-06
5.07276e-06
5.0832e-06
5.09215e-06
5.10411e-06
5.11625e-06
5.12887e-06
5.1421e-06
5.15646e-06
5.17217e-06
5.18756e-06
5.2046e-06
5.22381e-06
5.24116e-06
5.26329e-06
5.28113e-06
5.30429e-06
5.32465e-06
5.34728e-06
5.36915e-06
5.3938e-06
5.41837e-06
5.44441e-06
5.4705e-06
5.49991e-06
5.53028e-06
5.56295e-06
5.59748e-06
5.63515e-06
5.67931e-06
5.72755e-06
5.78268e-06
5.84511e-06
5.91918e-06
6.00223e-06
6.09922e-06
6.2144e-06
6.34359e-06
6.4996e-06
6.67638e-06
6.89088e-06
7.1289e-06
7.44168e-06
7.78935e-06
8.23561e-06
8.79082e-06
9.51802e-06
1.04444e-05
1.15712e-05
1.30742e-05
1.49745e-05
1.73442e-05
2.02193e-05
2.3409e-05
2.70262e-05
3.09744e-05
3.49707e-05
5.11952e-06
5.12347e-06
5.12719e-06
5.13154e-06
5.1347e-06
5.14015e-06
5.14478e-06
5.1506e-06
5.15614e-06
5.16195e-06
5.16827e-06
5.17488e-06
5.18272e-06
5.19047e-06
5.2003e-06
5.20975e-06
5.22112e-06
5.23275e-06
5.24577e-06
5.25911e-06
5.27354e-06
5.28878e-06
5.30495e-06
5.32172e-06
5.34029e-06
5.35843e-06
5.37875e-06
5.39938e-06
5.42151e-06
5.44483e-06
5.46942e-06
5.49397e-06
5.52082e-06
5.54839e-06
5.57814e-06
5.60981e-06
5.64354e-06
5.68045e-06
5.72035e-06
5.76418e-06
5.81324e-06
5.86728e-06
5.92907e-06
5.99826e-06
6.07785e-06
6.1681e-06
6.27143e-06
6.39065e-06
6.527e-06
6.68607e-06
6.86838e-06
7.08476e-06
7.33619e-06
7.64392e-06
8.01226e-06
8.4736e-06
9.05086e-06
9.78571e-06
1.07197e-05
1.18962e-05
1.33934e-05
1.5242e-05
1.74826e-05
2.01498e-05
2.32079e-05
2.66859e-05
3.04903e-05
3.44572e-05
3.84112e-05
5.23823e-06
5.24388e-06
5.24929e-06
5.25517e-06
5.26046e-06
5.2664e-06
5.27239e-06
5.27889e-06
5.28579e-06
5.29294e-06
5.30052e-06
5.30831e-06
5.31688e-06
5.32562e-06
5.33556e-06
5.34587e-06
5.35731e-06
5.36936e-06
5.38246e-06
5.39632e-06
5.41109e-06
5.42671e-06
5.44339e-06
5.46091e-06
5.47976e-06
5.49934e-06
5.5203e-06
5.54245e-06
5.56609e-06
5.5911e-06
5.61788e-06
5.64605e-06
5.6762e-06
5.70839e-06
5.74304e-06
5.78047e-06
5.82108e-06
5.86546e-06
5.91408e-06
5.96776e-06
6.02725e-06
6.0938e-06
6.16853e-06
6.25275e-06
6.34819e-06
6.45654e-06
6.58039e-06
6.72201e-06
6.8858e-06
7.07537e-06
7.29826e-06
7.5612e-06
7.87811e-06
8.26253e-06
8.73805e-06
9.33199e-06
1.00791e-05
1.10217e-05
1.22032e-05
1.36753e-05
1.54788e-05
1.76495e-05
2.02164e-05
2.31824e-05
2.65111e-05
3.01441e-05
3.39602e-05
3.78029e-05
4.13178e-05
5.37412e-06
5.38158e-06
5.38893e-06
5.39644e-06
5.40382e-06
5.41132e-06
5.41894e-06
5.42678e-06
5.43494e-06
5.44341e-06
5.45229e-06
5.46148e-06
5.47122e-06
5.48132e-06
5.49213e-06
5.50354e-06
5.51574e-06
5.52871e-06
5.54256e-06
5.55729e-06
5.57299e-06
5.58966e-06
5.60742e-06
5.62629e-06
5.64637e-06
5.66776e-06
5.69064e-06
5.71508e-06
5.74129e-06
5.7693e-06
5.79939e-06
5.83168e-06
5.86644e-06
5.90398e-06
5.94465e-06
5.98891e-06
6.03723e-06
6.09024e-06
6.14856e-06
6.21311e-06
6.28467e-06
6.3647e-06
6.45456e-06
6.55593e-06
6.67073e-06
6.80149e-06
6.95105e-06
7.12348e-06
7.32361e-06
7.55844e-06
7.83657e-06
8.1706e-06
8.5765e-06
9.07609e-06
9.69679e-06
1.04723e-05
1.1441e-05
1.2645e-05
1.41255e-05
1.59206e-05
1.80619e-05
2.05644e-05
2.34313e-05
2.66372e-05
3.01095e-05
3.37887e-05
3.75279e-05
4.11167e-05
4.41202e-05
5.53148e-06
5.54043e-06
5.54954e-06
5.5588e-06
5.56814e-06
5.57758e-06
5.58712e-06
5.5968e-06
5.6067e-06
5.61685e-06
5.62735e-06
5.63819e-06
5.64949e-06
5.66123e-06
5.67354e-06
5.68647e-06
5.70011e-06
5.71453e-06
5.72982e-06
5.74604e-06
5.76328e-06
5.78163e-06
5.80118e-06
5.82201e-06
5.84427e-06
5.86815e-06
5.8938e-06
5.92136e-06
5.95103e-06
5.98301e-06
6.01753e-06
6.05486e-06
6.09532e-06
6.13925e-06
6.18713e-06
6.23948e-06
6.29688e-06
6.36008e-06
6.42981e-06
6.50722e-06
6.59321e-06
6.68952e-06
6.79794e-06
6.92059e-06
7.06008e-06
7.21968e-06
7.40362e-06
7.61741e-06
7.86837e-06
8.16614e-06
8.52364e-06
8.95768e-06
9.49006e-06
1.01476e-05
1.09623e-05
1.19698e-05
1.32073e-05
1.47113e-05
1.65119e-05
1.86349e-05
2.10921e-05
2.38778e-05
2.69766e-05
3.0335e-05
3.38705e-05
3.75062e-05
4.1053e-05
4.42284e-05
4.64785e-05
5.7182e-06
5.72785e-06
5.73802e-06
5.74859e-06
5.75949e-06
5.77067e-06
5.78208e-06
5.79373e-06
5.80562e-06
5.81778e-06
5.83027e-06
5.84312e-06
5.85641e-06
5.87018e-06
5.88451e-06
5.89947e-06
5.91516e-06
5.93165e-06
5.94905e-06
5.96746e-06
5.98699e-06
6.00775e-06
6.02988e-06
6.05347e-06
6.07881e-06
6.10606e-06
6.13542e-06
6.16709e-06
6.20132e-06
6.23837e-06
6.27854e-06
6.3222e-06
6.36973e-06
6.4216e-06
6.47835e-06
6.54064e-06
6.6092e-06
6.68495e-06
6.76883e-06
6.86224e-06
6.96642e-06
7.08348e-06
7.21592e-06
7.36661e-06
7.5392e-06
7.73842e-06
7.97036e-06
8.24309e-06
8.56707e-06
8.95603e-06
9.42741e-06
1.0003e-05
1.07091e-05
1.15756e-05
1.26352e-05
1.39202e-05
1.54611e-05
1.72835e-05
1.94042e-05
2.18334e-05
2.4563e-05
2.7572e-05
3.08268e-05
3.42516e-05
3.77543e-05
4.12334e-05
4.44472e-05
4.69797e-05
4.83697e-05
5.94382e-06
5.95354e-06
5.96409e-06
5.97532e-06
5.98717e-06
5.99957e-06
6.01247e-06
6.02581e-06
6.03958e-06
6.05378e-06
6.06842e-06
6.08352e-06
6.09914e-06
6.11532e-06
6.13214e-06
6.14967e-06
6.168e-06
6.18723e-06
6.20746e-06
6.22884e-06
6.25147e-06
6.27554e-06
6.30112e-06
6.32853e-06
6.35801e-06
6.38976e-06
6.42404e-06
6.46111e-06
6.50128e-06
6.5449e-06
6.59237e-06
6.64413e-06
6.7007e-06
6.76265e-06
6.83069e-06
6.90566e-06
6.98847e-06
7.08035e-06
7.18253e-06
7.29683e-06
7.4251e-06
7.57003e-06
7.73522e-06
7.92483e-06
8.14419e-06
8.40021e-06
8.70177e-06
9.06036e-06
9.49043e-06
1.00101e-05
1.06409e-05
1.14082e-05
1.23395e-05
1.34636e-05
1.48085e-05
1.63983e-05
1.82531e-05
2.03847e-05
2.27965e-05
2.54834e-05
2.84203e-05
3.15755e-05
3.48972e-05
3.82904e-05
4.16537e-05
4.4848e-05
4.75351e-05
4.91738e-05
4.96128e-05
6.21848e-06
6.22826e-06
6.23898e-06
6.25057e-06
6.26299e-06
6.27621e-06
6.29019e-06
6.30489e-06
6.32027e-06
6.33632e-06
6.35305e-06
6.37047e-06
6.38859e-06
6.40747e-06
6.42716e-06
6.44773e-06
6.46929e-06
6.49193e-06
6.51577e-06
6.54095e-06
6.56764e-06
6.59597e-06
6.62622e-06
6.65869e-06
6.69363e-06
6.73132e-06
6.77208e-06
6.81624e-06
6.86422e-06
6.91644e-06
6.97344e-06
7.03579e-06
7.10414e-06
7.17927e-06
7.26211e-06
7.35376e-06
7.45549e-06
7.5689e-06
7.69585e-06
7.83875e-06
8.00053e-06
8.1848e-06
8.39695e-06
8.64312e-06
8.93113e-06
9.27088e-06
9.67476e-06
1.0158e-05
1.07389e-05
1.14387e-05
1.22807e-05
1.32899e-05
1.44906e-05
1.59057e-05
1.7554e-05
1.94492e-05
2.15993e-05
2.40032e-05
2.6653e-05
2.95301e-05
3.25956e-05
3.58116e-05
3.91038e-05
4.23594e-05
4.54625e-05
4.82034e-05
5.00954e-05
5.01872e-05
4.99481e-05
6.55356e-06
6.56389e-06
6.57517e-06
6.58736e-06
6.60049e-06
6.61458e-06
6.62961e-06
6.64559e-06
6.66252e-06
6.68039e-06
6.69921e-06
6.719e-06
6.73979e-06
6.76162e-06
6.78455e-06
6.80865e-06
6.83402e-06
6.86077e-06
6.88903e-06
6.91898e-06
6.95075e-06
6.98464e-06
7.02097e-06
7.06003e-06
7.10214e-06
7.14764e-06
7.19693e-06
7.25047e-06
7.30877e-06
7.37241e-06
7.44207e-06
7.51853e-06
7.60267e-06
7.69556e-06
7.7985e-06
7.91301e-06
8.04095e-06
8.1846e-06
8.34682e-06
8.53105e-06
8.74189e-06
8.98448e-06
9.2667e-06
9.59745e-06
9.98761e-06
1.04504e-05
1.10014e-05
1.16587e-05
1.24421e-05
1.33728e-05
1.44718e-05
1.57592e-05
1.7252e-05
1.89642e-05
2.09041e-05
2.30753e-05
2.54753e-05
2.80922e-05
3.09102e-05
3.38972e-05
3.70051e-05
4.01894e-05
4.33438e-05
4.63397e-05
4.90299e-05
5.10697e-05
5.1492e-05
5.06541e-05
5.00984e-05
6.96332e-06
6.97497e-06
6.98756e-06
7.00106e-06
7.01554e-06
7.03106e-06
7.04765e-06
7.06535e-06
7.0842e-06
7.10424e-06
7.12552e-06
7.14807e-06
7.17194e-06
7.19721e-06
7.22393e-06
7.25221e-06
7.28217e-06
7.31392e-06
7.34766e-06
7.3835e-06
7.42181e-06
7.46291e-06
7.50712e-06
7.5548e-06
7.60633e-06
7.66218e-06
7.72286e-06
7.78897e-06
7.86121e-06
7.94036e-06
8.02738e-06
8.12334e-06
8.22951e-06
8.34748e-06
8.47911e-06
8.62671e-06
8.79309e-06
8.9817e-06
9.19687e-06
9.4438e-06
9.72918e-06
1.00607e-05
1.04485e-05
1.09046e-05
1.14428e-05
1.20784e-05
1.28282e-05
1.37099e-05
1.47415e-05
1.59398e-05
1.73198e-05
1.88938e-05
2.06701e-05
2.2654e-05
2.48446e-05
2.72381e-05
2.98227e-05
3.25794e-05
3.54859e-05
3.84941e-05
4.15527e-05
4.46025e-05
4.74893e-05
5.00756e-05
5.2134e-05
5.27082e-05
5.20849e-05
5.01314e-05
5.02007e-05
7.46706e-06
7.48093e-06
7.49577e-06
7.51157e-06
7.52839e-06
7.54633e-06
7.56544e-06
7.58582e-06
7.60753e-06
7.63066e-06
7.6553e-06
7.68152e-06
7.70943e-06
7.73911e-06
7.77069e-06
7.80431e-06
7.8401e-06
7.87828e-06
7.91896e-06
7.96264e-06
8.00963e-06
8.06028e-06
8.115e-06
8.17425e-06
8.23857e-06
8.30858e-06
8.385e-06
8.46868e-06
8.5606e-06
8.66192e-06
8.77402e-06
8.89851e-06
9.03736e-06
9.19295e-06
9.36819e-06
9.56658e-06
9.7924e-06
1.00508e-05
1.03481e-05
1.06917e-05
1.10904e-05
1.15546e-05
1.20956e-05
1.27276e-05
1.34649e-05
1.43223e-05
1.53144e-05
1.64551e-05
1.77568e-05
1.92299e-05
2.08818e-05
2.27175e-05
2.47377e-05
2.69416e-05
2.93207e-05
3.18671e-05
3.45594e-05
3.73754e-05
4.02834e-05
4.32154e-05
4.61264e-05
4.89145e-05
5.13645e-05
5.33422e-05
5.39531e-05
5.34076e-05
5.14835e-05
4.96003e-05
5.00909e-05
8.09215e-06
8.10919e-06
8.12736e-06
8.14662e-06
8.16705e-06
8.18873e-06
8.21176e-06
8.23625e-06
8.26232e-06
8.29007e-06
8.31966e-06
8.3512e-06
8.38484e-06
8.42075e-06
8.45909e-06
8.50009e-06
8.54391e-06
8.59093e-06
8.64158e-06
8.69627e-06
8.75541e-06
8.8195e-06
8.88913e-06
8.96496e-06
9.04779e-06
9.13853e-06
9.23826e-06
9.34825e-06
9.47001e-06
9.60534e-06
9.75634e-06
9.92554e-06
1.0116e-05
1.03313e-05
1.05758e-05
1.08547e-05
1.1174e-05
1.15407e-05
1.1963e-05
1.24498e-05
1.30114e-05
1.36587e-05
1.44035e-05
1.5257e-05
1.62323e-05
1.73403e-05
1.8591e-05
1.99925e-05
2.15509e-05
2.32705e-05
2.51528e-05
2.71974e-05
2.93999e-05
3.17551e-05
3.42487e-05
3.68702e-05
3.95863e-05
4.23767e-05
4.51885e-05
4.79349e-05
5.05865e-05
5.29269e-05
5.47123e-05
5.52363e-05
5.46893e-05
5.31512e-05
4.95646e-05
4.92936e-05
5.11285e-05
8.87847e-06
8.89986e-06
8.92268e-06
8.94687e-06
8.97251e-06
8.99971e-06
9.02858e-06
9.05925e-06
9.09188e-06
9.12664e-06
9.16371e-06
9.20329e-06
9.24558e-06
9.29084e-06
9.33933e-06
9.39136e-06
9.44755e-06
9.5083e-06
9.57411e-06
9.64557e-06
9.72333e-06
9.80818e-06
9.90101e-06
1.00029e-05
1.0115e-05
1.02389e-05
1.03761e-05
1.05288e-05
1.06992e-05
1.08902e-05
1.11048e-05
1.1347e-05
1.16209e-05
1.19319e-05
1.22854e-05
1.26882e-05
1.31475e-05
1.36711e-05
1.42677e-05
1.4946e-05
1.57155e-05
1.65851e-05
1.75637e-05
1.86596e-05
1.988e-05
2.12309e-05
2.27181e-05
2.43454e-05
2.61138e-05
2.80237e-05
3.00725e-05
3.22567e-05
3.45679e-05
3.69978e-05
3.95256e-05
4.21395e-05
4.4788e-05
4.74616e-05
5.0057e-05
5.24938e-05
5.47317e-05
5.62293e-05
5.65293e-05
5.60054e-05
5.45514e-05
5.07944e-05
4.86813e-05
4.94039e-05
5.37479e-05
9.8863e-06
9.91378e-06
9.9432e-06
9.97452e-06
1.00078e-05
1.00433e-05
1.0081e-05
1.01211e-05
1.0164e-05
1.02097e-05
1.02586e-05
1.03111e-05
1.03672e-05
1.04277e-05
1.04931e-05
1.05639e-05
1.06408e-05
1.07244e-05
1.08156e-05
1.09153e-05
1.10245e-05
1.11446e-05
1.1277e-05
1.14233e-05
1.15855e-05
1.17658e-05
1.19668e-05
1.21914e-05
1.24429e-05
1.27253e-05
1.30427e-05
1.33999e-05
1.38022e-05
1.42554e-05
1.47655e-05
1.53393e-05
1.59834e-05
1.67047e-05
1.75102e-05
1.84064e-05
1.93997e-05
2.0496e-05
2.17004e-05
2.30171e-05
2.44499e-05
2.60011e-05
2.76722e-05
2.94636e-05
3.1374e-05
3.34026e-05
3.55433e-05
3.77904e-05
4.01313e-05
4.25548e-05
4.50313e-05
4.75471e-05
5.00244e-05
5.24761e-05
5.46921e-05
5.6679e-05
5.78574e-05
5.78193e-05
5.72398e-05
5.57872e-05
5.21065e-05
4.83162e-05
4.83776e-05
5.13789e-05
5.90833e-05
1.12117e-05
1.12486e-05
1.12884e-05
1.1331e-05
1.13766e-05
1.14254e-05
1.14776e-05
1.15336e-05
1.15937e-05
1.16582e-05
1.17277e-05
1.18029e-05
1.18843e-05
1.19727e-05
1.20687e-05
1.21734e-05
1.22876e-05
1.24125e-05
1.25495e-05
1.26999e-05
1.28656e-05
1.30483e-05
1.32501e-05
1.34736e-05
1.37212e-05
1.3996e-05
1.43011e-05
1.46403e-05
1.50173e-05
1.54363e-05
1.59017e-05
1.64182e-05
1.69904e-05
1.76235e-05
1.83222e-05
1.90916e-05
1.99364e-05
2.08612e-05
2.18704e-05
2.29679e-05
2.41573e-05
2.54416e-05
2.68236e-05
2.8305e-05
2.98873e-05
3.15711e-05
3.33557e-05
3.52398e-05
3.72193e-05
3.929e-05
4.14432e-05
4.36728e-05
4.59608e-05
4.829e-05
5.06207e-05
5.29316e-05
5.51141e-05
5.72038e-05
5.88099e-05
5.94851e-05
5.92053e-05
5.83901e-05
5.68151e-05
5.34526e-05
4.87864e-05
4.73548e-05
4.90708e-05
5.57789e-05
6.21917e-05
1.30209e-05
1.30748e-05
1.31333e-05
1.31966e-05
1.32648e-05
1.33383e-05
1.34177e-05
1.35038e-05
1.3597e-05
1.36981e-05
1.38077e-05
1.39267e-05
1.40561e-05
1.4197e-05
1.43505e-05
1.45179e-05
1.47007e-05
1.49004e-05
1.51189e-05
1.53579e-05
1.56196e-05
1.59062e-05
1.62201e-05
1.65638e-05
1.69402e-05
1.73521e-05
1.78025e-05
1.82945e-05
1.88314e-05
1.94165e-05
2.00529e-05
2.07442e-05
2.14935e-05
2.23042e-05
2.31794e-05
2.41223e-05
2.51358e-05
2.62228e-05
2.73859e-05
2.86274e-05
2.99496e-05
3.13541e-05
3.28423e-05
3.44149e-05
3.60721e-05
3.78128e-05
3.96348e-05
4.15352e-05
4.3506e-05
4.55427e-05
4.76267e-05
4.97547e-05
5.18992e-05
5.40327e-05
5.61054e-05
5.80702e-05
5.98065e-05
6.10112e-05
6.10527e-05
6.05705e-05
5.94493e-05
5.75068e-05
5.42887e-05
4.9309e-05
4.66127e-05
4.77409e-05
5.22904e-05
5.92481e-05
6.28384e-05
1.56323e-05
1.57219e-05
1.58198e-05
1.59261e-05
1.60414e-05
1.61662e-05
1.63014e-05
1.64476e-05
1.66058e-05
1.67769e-05
1.69619e-05
1.71619e-05
1.7378e-05
1.76114e-05
1.78634e-05
1.81353e-05
1.84287e-05
1.8745e-05
1.90858e-05
1.94528e-05
1.98476e-05
2.02721e-05
2.0728e-05
2.12172e-05
2.17416e-05
2.23033e-05
2.29042e-05
2.35464e-05
2.4232e-05
2.49629e-05
2.57415e-05
2.657e-05
2.74506e-05
2.83856e-05
2.93774e-05
3.04282e-05
3.15404e-05
3.27161e-05
3.39573e-05
3.52658e-05
3.66431e-05
3.80901e-05
3.96073e-05
4.11944e-05
4.285e-05
4.45713e-05
4.63538e-05
4.81925e-05
5.0073e-05
5.19928e-05
5.39185e-05
5.58503e-05
5.77427e-05
5.95505e-05
6.12211e-05
6.25893e-05
6.3002e-05
6.26897e-05
6.18662e-05
6.03596e-05
5.77902e-05
5.44764e-05
4.95906e-05
4.59096e-05
4.59084e-05
4.95347e-05
5.533e-05
5.9447e-05
6.16402e-05
1.97342e-05
1.98972e-05
2.0073e-05
2.02618e-05
2.04641e-05
2.06806e-05
2.09119e-05
2.11587e-05
2.14217e-05
2.17017e-05
2.19993e-05
2.23154e-05
2.26507e-05
2.30059e-05
2.33818e-05
2.37793e-05
2.41991e-05
2.46421e-05
2.51091e-05
2.56011e-05
2.61189e-05
2.66636e-05
2.72362e-05
2.78377e-05
2.84694e-05
2.91326e-05
2.98286e-05
3.0559e-05
3.13253e-05
3.21294e-05
3.29731e-05
3.38586e-05
3.47879e-05
3.57634e-05
3.67872e-05
3.78616e-05
3.89888e-05
4.01707e-05
4.1409e-05
4.27049e-05
4.4059e-05
4.54714e-05
4.69413e-05
4.84666e-05
5.00441e-05
5.16678e-05
5.33308e-05
5.50242e-05
5.6723e-05
5.84356e-05
6.00913e-05
6.17083e-05
6.32018e-05
6.45101e-05
6.50113e-05
6.48193e-05
6.41941e-05
6.2941e-05
6.08966e-05
5.77794e-05
5.3986e-05
4.94013e-05
4.55505e-05
4.48844e-05
4.74332e-05
5.09398e-05
5.52522e-05
5.62454e-05
5.59893e-05
2.66359e-05
2.68933e-05
2.71658e-05
2.74528e-05
2.77542e-05
2.80702e-05
2.84007e-05
2.87459e-05
2.9106e-05
2.94813e-05
2.98722e-05
3.02788e-05
3.07014e-05
3.11401e-05
3.15952e-05
3.20669e-05
3.25555e-05
3.30614e-05
3.35851e-05
3.4127e-05
3.46878e-05
3.52681e-05
3.58688e-05
3.64908e-05
3.71353e-05
3.78036e-05
3.84972e-05
3.92178e-05
3.99672e-05
4.07474e-05
4.15607e-05
4.24094e-05
4.32958e-05
4.42223e-05
4.51914e-05
4.6205e-05
4.72652e-05
4.83733e-05
4.95305e-05
5.07366e-05
5.19911e-05
5.32924e-05
5.46385e-05
5.60239e-05
5.74423e-05
5.88835e-05
6.03388e-05
6.17886e-05
6.31955e-05
6.46e-05
6.58132e-05
6.69522e-05
6.73053e-05
6.71124e-05
6.64732e-05
6.53735e-05
6.3631e-05
6.08304e-05
5.70468e-05
5.29189e-05
4.83375e-05
4.43238e-05
4.3497e-05
4.50686e-05
4.79157e-05
5.11603e-05
5.13047e-05
5.02544e-05
4.81881e-05
3.76678e-05
3.79659e-05
3.8273e-05
3.85884e-05
3.89118e-05
3.92433e-05
3.95828e-05
3.99301e-05
4.02882e-05
4.06572e-05
4.10367e-05
4.14264e-05
4.18262e-05
4.22357e-05
4.2655e-05
4.3084e-05
4.35232e-05
4.39732e-05
4.44345e-05
4.49077e-05
4.53933e-05
4.58922e-05
4.64055e-05
4.69344e-05
4.74804e-05
4.80452e-05
4.86306e-05
4.92386e-05
4.98715e-05
5.05317e-05
5.12216e-05
5.19438e-05
5.27005e-05
5.34942e-05
5.43269e-05
5.52004e-05
5.61159e-05
5.70738e-05
5.80735e-05
5.91125e-05
6.01893e-05
6.13004e-05
6.24426e-05
6.36013e-05
6.47682e-05
6.59287e-05
6.70711e-05
6.81462e-05
6.91333e-05
6.98855e-05
6.98889e-05
6.96014e-05
6.88821e-05
6.77833e-05
6.5996e-05
6.36228e-05
5.99243e-05
5.54937e-05
5.07986e-05
4.6961e-05
4.14671e-05
4.11963e-05
4.29073e-05
4.47626e-05
4.56062e-05
4.49688e-05
4.2994e-05
4.08985e-05
4.0472e-05
5.28834e-05
5.31104e-05
5.33385e-05
5.3567e-05
5.37958e-05
5.40251e-05
5.42547e-05
5.44848e-05
5.4716e-05
5.49488e-05
5.5184e-05
5.54229e-05
5.56654e-05
5.59112e-05
5.61602e-05
5.64133e-05
5.66734e-05
5.69422e-05
5.72194e-05
5.75046e-05
5.7798e-05
5.81015e-05
5.84168e-05
5.87459e-05
5.90906e-05
5.94526e-05
5.98343e-05
6.02375e-05
6.06653e-05
6.11194e-05
6.16031e-05
6.21179e-05
6.26661e-05
6.32496e-05
6.387e-05
6.45285e-05
6.52247e-05
6.59562e-05
6.67196e-05
6.75068e-05
6.83231e-05
6.91596e-05
7.00114e-05
7.08316e-05
7.1635e-05
7.23948e-05
7.30755e-05
7.31308e-05
7.29063e-05
7.23418e-05
7.13609e-05
7.01394e-05
6.8312e-05
6.58019e-05
6.21596e-05
5.79814e-05
5.26271e-05
4.77688e-05
4.40289e-05
3.91257e-05
3.79972e-05
3.95335e-05
3.95548e-05
3.87924e-05
3.67875e-05
3.41226e-05
3.31598e-05
3.35916e-05
3.46016e-05
7.109e-05
7.11335e-05
7.11712e-05
7.12024e-05
7.12273e-05
7.12462e-05
7.12595e-05
7.12665e-05
7.12696e-05
7.12684e-05
7.12661e-05
7.12739e-05
7.12809e-05
7.12816e-05
7.12784e-05
7.12747e-05
7.12713e-05
7.12691e-05
7.12678e-05
7.12636e-05
7.12593e-05
7.12713e-05
7.12994e-05
7.13446e-05
7.14077e-05
7.14865e-05
7.15894e-05
7.17103e-05
7.18625e-05
7.20368e-05
7.22468e-05
7.24816e-05
7.27493e-05
7.30518e-05
7.33902e-05
7.3764e-05
7.41682e-05
7.45909e-05
7.50263e-05
7.54557e-05
7.59361e-05
7.64139e-05
7.68723e-05
7.70636e-05
7.69619e-05
7.66532e-05
7.60328e-05
7.50981e-05
7.39066e-05
7.24425e-05
7.02988e-05
6.75245e-05
6.37102e-05
5.92376e-05
5.3983e-05
4.86883e-05
4.32447e-05
3.98036e-05
3.55016e-05
3.41552e-05
3.39831e-05
3.32384e-05
2.99688e-05
2.65401e-05
2.5099e-05
2.55982e-05
2.70272e-05
2.87821e-05
3.03436e-05
9.05444e-05
9.03421e-05
9.01235e-05
8.98907e-05
8.96452e-05
8.9387e-05
8.91259e-05
8.88337e-05
8.85593e-05
8.82579e-05
8.79601e-05
8.76524e-05
8.73418e-05
8.70276e-05
8.67102e-05
8.63906e-05
8.60699e-05
8.57493e-05
8.54301e-05
8.51131e-05
8.48012e-05
8.45003e-05
8.42119e-05
8.39378e-05
8.36786e-05
8.34011e-05
8.32034e-05
8.29505e-05
8.28224e-05
8.26214e-05
8.25476e-05
8.2399e-05
8.23309e-05
8.22906e-05
8.22996e-05
8.23311e-05
8.23714e-05
8.23591e-05
8.23287e-05
8.22216e-05
8.20174e-05
8.16152e-05
8.0957e-05
8.00489e-05
7.90195e-05
7.77572e-05
7.62542e-05
7.42318e-05
7.16371e-05
6.82843e-05
6.41208e-05
5.93374e-05
5.37582e-05
4.83075e-05
4.26451e-05
3.76498e-05
3.36649e-05
3.05571e-05
2.96908e-05
2.82171e-05
2.40935e-05
1.88651e-05
1.70323e-05
1.75245e-05
1.90769e-05
2.13105e-05
2.3526e-05
2.55476e-05
2.72877e-05
0.000109172
0.000108699
0.00010821
0.000107704
0.000107183
0.000106646
0.000106095
0.000105529
0.000104952
0.000104362
0.000103761
0.000103151
0.000102531
0.000101905
0.000101272
0.000100634
9.99918e-05
9.93474e-05
9.87035e-05
9.80629e-05
9.74262e-05
9.67947e-05
9.61698e-05
9.55531e-05
9.49467e-05
9.43519e-05
9.3778e-05
9.32188e-05
9.26867e-05
9.21722e-05
9.16855e-05
9.1212e-05
9.07297e-05
9.02356e-05
8.96901e-05
8.90776e-05
8.83785e-05
8.75667e-05
8.65861e-05
8.55325e-05
8.4391e-05
8.3102e-05
8.15984e-05
7.98227e-05
7.76005e-05
7.48468e-05
7.14909e-05
6.73888e-05
6.27467e-05
5.73638e-05
5.17829e-05
4.58444e-05
4.02242e-05
3.48328e-05
2.98641e-05
2.63213e-05
2.33576e-05
2.1087e-05
1.65792e-05
1.1888e-05
1.00713e-05
1.0254e-05
1.1576e-05
1.38724e-05
1.64444e-05
1.89255e-05
2.12241e-05
2.33201e-05
2.51928e-05
0.000124603
0.000123907
0.000123189
0.000122449
0.00012169
0.000120911
0.000120115
0.000119301
0.00011847
0.000117624
0.000116763
0.000115887
0.000114998
0.000114098
0.000113189
0.000112271
0.000111345
0.000110411
0.00010947
0.000108523
0.00010757
0.000106613
0.000105652
0.000104687
0.000103725
0.000102759
0.000101785
0.000100797
9.97888e-05
9.87506e-05
9.76711e-05
9.65355e-05
9.5373e-05
9.41685e-05
9.29059e-05
9.15566e-05
9.01063e-05
8.85036e-05
8.67533e-05
8.47372e-05
8.2415e-05
7.96839e-05
7.64971e-05
7.27796e-05
6.8465e-05
6.36687e-05
5.82484e-05
5.27033e-05
4.68197e-05
4.10149e-05
3.51694e-05
2.97528e-05
2.4664e-05
2.0231e-05
1.63479e-05
1.32592e-05
9.34814e-06
6.78639e-06
5.49457e-06
5.10683e-06
5.60856e-06
7.19851e-06
9.61161e-06
1.22215e-05
1.47812e-05
1.72099e-05
1.94985e-05
2.16488e-05
2.36469e-05
0.000133648
0.000132793
0.000131917
0.00013102
0.000130102
0.000129164
0.000128206
0.000127228
0.000126228
0.000125207
0.000124164
0.000123099
0.000122013
0.000120906
0.000119777
0.000118628
0.000117459
0.00011627
0.00011506
0.00011383
0.000112581
0.000111314
0.000110031
0.000108722
0.000107375
0.000105989
0.000104559
0.00010308
0.000101543
9.99354e-05
9.82445e-05
9.64513e-05
9.45245e-05
9.24249e-05
9.01456e-05
8.76134e-05
8.48549e-05
8.17346e-05
7.83483e-05
7.44789e-05
7.03221e-05
6.55811e-05
6.06294e-05
5.51746e-05
4.97173e-05
4.39439e-05
3.83696e-05
3.29677e-05
2.70118e-05
2.14759e-05
1.664e-05
1.24324e-05
8.85371e-06
6.36541e-06
4.64697e-06
3.49458e-06
2.82429e-06
2.27911e-06
2.18922e-06
2.76249e-06
3.90916e-06
5.62236e-06
7.82418e-06
1.03073e-05
1.28427e-05
1.53031e-05
1.76622e-05
1.99112e-05
2.20339e-05
0.000129622
0.000128759
0.000127865
0.00012694
0.000125985
0.000125
0.000123987
0.000122945
0.000121875
0.000120775
0.000119645
0.000118485
0.000117295
0.000116073
0.00011482
0.000113533
0.000112213
0.000110859
0.000109469
0.000108046
0.000106585
0.000105092
0.000103524
0.000101878
0.000100136
9.82764e-05
9.62736e-05
9.41017e-05
9.17358e-05
8.91486e-05
8.6327e-05
8.3244e-05
7.99209e-05
7.63229e-05
7.254e-05
6.84938e-05
6.43814e-05
6.00029e-05
5.5733e-05
5.10957e-05
4.64968e-05
4.1463e-05
3.6623e-05
3.15561e-05
2.62102e-05
2.11104e-05
1.60197e-05
1.14782e-05
8.16487e-06
5.86494e-06
4.16389e-06
2.87462e-06
2.01819e-06
1.47965e-06
1.15879e-06
9.15075e-07
7.7278e-07
7.16156e-07
8.20226e-07
1.19463e-06
1.87264e-06
2.99295e-06
4.67454e-06
6.86938e-06
9.36561e-06
1.19024e-05
1.44366e-05
1.68593e-05
1.9158e-05
0.000101528
0.000100647
9.97375e-05
9.88013e-05
9.78365e-05
9.68417e-05
9.5816e-05
9.47594e-05
9.36697e-05
9.25485e-05
9.13916e-05
9.02025e-05
8.89752e-05
8.7713e-05
8.6413e-05
8.50698e-05
8.36951e-05
8.22633e-05
8.08065e-05
7.92922e-05
7.7702e-05
7.60095e-05
7.42354e-05
7.23812e-05
7.04456e-05
6.84363e-05
6.63521e-05
6.42056e-05
6.19916e-05
5.97233e-05
5.73843e-05
5.49829e-05
5.24775e-05
4.98719e-05
4.70731e-05
4.41066e-05
4.07738e-05
3.72135e-05
3.30674e-05
2.87332e-05
2.39897e-05
1.93592e-05
1.43765e-05
1.00209e-05
6.81674e-06
4.57144e-06
3.01479e-06
1.98812e-06
1.32605e-06
8.95474e-07
5.82789e-07
3.88079e-07
2.95704e-07
2.50266e-07
2.03716e-07
1.65612e-07
1.45135e-07
1.34255e-07
1.67164e-07
2.42942e-07
3.87376e-07
6.49909e-07
1.11638e-06
1.92336e-06
3.21838e-06
5.05894e-06
7.21037e-06
9.49556e-06
1.16664e-05
5.35259e-05
5.41404e-05
5.47512e-05
5.53512e-05
5.5944e-05
5.65193e-05
5.70849e-05
5.76267e-05
5.81563e-05
5.86554e-05
5.91381e-05
5.95846e-05
6.00062e-05
6.03912e-05
6.07318e-05
6.10451e-05
6.12843e-05
6.14957e-05
6.16331e-05
6.16842e-05
6.16709e-05
6.15739e-05
6.13754e-05
6.10567e-05
6.05968e-05
5.99735e-05
5.91615e-05
5.81341e-05
5.68607e-05
5.53089e-05
5.34422e-05
5.12229e-05
4.86091e-05
4.55626e-05
4.20421e-05
3.80262e-05
3.34925e-05
2.84883e-05
2.30546e-05
1.74615e-05
1.18119e-05
6.66486e-06
2.85529e-06
9.1896e-07
4.45173e-07
4.09305e-07
3.84677e-07
3.39967e-07
2.93655e-07
2.41653e-07
1.89395e-07
1.56218e-07
1.30809e-07
1.04051e-07
7.83069e-08
5.97948e-08
4.93871e-08
4.48708e-08
5.04214e-08
6.98238e-08
1.09698e-07
1.78476e-07
2.82464e-07
4.22667e-07
5.92875e-07
7.79895e-07
9.65904e-07
1.14376e-06
1.22631e-06
5.07586e-06
5.07553e-06
5.07342e-06
5.07247e-06
5.07164e-06
5.06873e-06
5.06718e-06
5.0624e-06
5.05845e-06
5.05507e-06
5.05158e-06
5.05334e-06
5.05919e-06
5.06232e-06
5.05466e-06
5.04372e-06
5.04377e-06
5.04414e-06
5.04053e-06
5.03095e-06
5.03002e-06
5.03682e-06
5.02759e-06
5.02645e-06
5.01715e-06
5.0085e-06
5.0133e-06
5.01395e-06
5.01441e-06
5.0143e-06
5.00991e-06
5.01074e-06
5.01084e-06
5.00629e-06
5.00519e-06
4.99854e-06
4.99889e-06
4.99903e-06
4.99894e-06
5.00324e-06
4.99374e-06
4.99515e-06
4.99223e-06
4.98837e-06
4.99045e-06
4.98716e-06
4.98376e-06
4.98104e-06
4.98283e-06
4.98536e-06
4.98724e-06
4.99363e-06
4.99788e-06
5.00048e-06
5.00417e-06
5.00691e-06
5.00916e-06
5.01109e-06
5.01339e-06
5.17544e-06
5.17371e-06
5.17169e-06
5.17012e-06
5.16878e-06
5.16686e-06
5.16541e-06
5.16303e-06
5.16303e-06
5.16067e-06
5.16054e-06
5.16071e-06
5.15867e-06
5.15252e-06
5.14192e-06
5.1389e-06
5.14082e-06
5.13668e-06
5.1293e-06
5.12345e-06
5.12483e-06
5.12592e-06
5.11514e-06
5.11424e-06
5.10268e-06
5.09699e-06
5.10056e-06
5.10218e-06
5.09934e-06
5.09761e-06
5.09577e-06
5.096e-06
5.0949e-06
5.0899e-06
5.08982e-06
5.08494e-06
5.08291e-06
5.08362e-06
5.08427e-06
5.08739e-06
5.0838e-06
5.08259e-06
5.08052e-06
5.07765e-06
5.07674e-06
5.07571e-06
5.07362e-06
5.07279e-06
5.07394e-06
5.07677e-06
5.0794e-06
5.08432e-06
5.09035e-06
5.09469e-06
5.09988e-06
5.10432e-06
5.10838e-06
5.11237e-06
5.11565e-06
5.30164e-06
5.30096e-06
5.30216e-06
5.30047e-06
5.29433e-06
5.28968e-06
5.28653e-06
5.28424e-06
5.28313e-06
5.28141e-06
5.28023e-06
5.27633e-06
5.26956e-06
5.26128e-06
5.25588e-06
5.25636e-06
5.25253e-06
5.24476e-06
5.2366e-06
5.23429e-06
5.23625e-06
5.23151e-06
5.22092e-06
5.21902e-06
5.20666e-06
5.2028e-06
5.20535e-06
5.20708e-06
5.20169e-06
5.19885e-06
5.19883e-06
5.1981e-06
5.19613e-06
5.19128e-06
5.19113e-06
5.18762e-06
5.18486e-06
5.18472e-06
5.18579e-06
5.18855e-06
5.18748e-06
5.18641e-06
5.18487e-06
5.18329e-06
5.18174e-06
5.18188e-06
5.18011e-06
5.18062e-06
5.18168e-06
5.18433e-06
5.18776e-06
5.1922e-06
5.19851e-06
5.20448e-06
5.21075e-06
5.21687e-06
5.22255e-06
5.22823e-06
5.23288e-06
5.44818e-06
5.44571e-06
5.44408e-06
5.44157e-06
5.4382e-06
5.43464e-06
5.43142e-06
5.42856e-06
5.42578e-06
5.42224e-06
5.41765e-06
5.41069e-06
5.40289e-06
5.39667e-06
5.3936e-06
5.39127e-06
5.38253e-06
5.37354e-06
5.36729e-06
5.36753e-06
5.36646e-06
5.35737e-06
5.34749e-06
5.34378e-06
5.33125e-06
5.32881e-06
5.33029e-06
5.33121e-06
5.32393e-06
5.3204e-06
5.32115e-06
5.3195e-06
5.31707e-06
5.31255e-06
5.31213e-06
5.30958e-06
5.30672e-06
5.30588e-06
5.30641e-06
5.31028e-06
5.31074e-06
5.30987e-06
5.30972e-06
5.30971e-06
5.30934e-06
5.30995e-06
5.31028e-06
5.311e-06
5.31199e-06
5.31404e-06
5.31725e-06
5.32134e-06
5.32695e-06
5.33329e-06
5.3401e-06
5.34721e-06
5.35413e-06
5.36117e-06
5.36717e-06
5.62342e-06
5.62002e-06
5.61747e-06
5.61436e-06
5.61096e-06
5.60706e-06
5.60285e-06
5.59826e-06
5.59307e-06
5.58707e-06
5.58017e-06
5.57254e-06
5.56563e-06
5.56045e-06
5.55578e-06
5.54849e-06
5.53719e-06
5.52943e-06
5.52539e-06
5.5257e-06
5.51942e-06
5.50769e-06
5.49844e-06
5.49256e-06
5.48034e-06
5.47865e-06
5.47902e-06
5.47854e-06
5.46975e-06
5.46569e-06
5.46646e-06
5.46404e-06
5.46129e-06
5.45705e-06
5.45633e-06
5.45448e-06
5.45194e-06
5.45073e-06
5.45058e-06
5.45463e-06
5.45789e-06
5.45893e-06
5.4595e-06
5.46056e-06
5.46139e-06
5.46268e-06
5.4642e-06
5.46599e-06
5.46787e-06
5.47014e-06
5.47323e-06
5.47708e-06
5.48199e-06
5.48786e-06
5.49442e-06
5.50158e-06
5.50888e-06
5.51653e-06
5.52337e-06
5.83415e-06
5.82969e-06
5.82603e-06
5.82165e-06
5.81692e-06
5.81149e-06
5.80547e-06
5.79883e-06
5.79164e-06
5.78403e-06
5.77619e-06
5.76849e-06
5.76137e-06
5.75445e-06
5.74608e-06
5.73524e-06
5.72415e-06
5.7181e-06
5.71448e-06
5.71154e-06
5.70114e-06
5.68816e-06
5.67893e-06
5.67086e-06
5.65923e-06
5.65762e-06
5.65661e-06
5.65437e-06
5.64438e-06
5.63978e-06
5.6401e-06
5.637e-06
5.63389e-06
5.62985e-06
5.6287e-06
5.62733e-06
5.6252e-06
5.62389e-06
5.62349e-06
5.62709e-06
5.63201e-06
5.63548e-06
5.63763e-06
5.64003e-06
5.64234e-06
5.64475e-06
5.64737e-06
5.65029e-06
5.65341e-06
5.65668e-06
5.66036e-06
5.66453e-06
5.66934e-06
5.6749e-06
5.68109e-06
5.68792e-06
5.69504e-06
5.70265e-06
5.70969e-06
6.08662e-06
6.08056e-06
6.07526e-06
6.06909e-06
6.06251e-06
6.05521e-06
6.04738e-06
6.03904e-06
6.0304e-06
6.0216e-06
6.01272e-06
6.00378e-06
5.99457e-06
5.98451e-06
5.97303e-06
5.96106e-06
5.95132e-06
5.94578e-06
5.94043e-06
5.93304e-06
5.91913e-06
5.9057e-06
5.89563e-06
5.88557e-06
5.87453e-06
5.87236e-06
5.86965e-06
5.86538e-06
5.85438e-06
5.84913e-06
5.84866e-06
5.84491e-06
5.84134e-06
5.83739e-06
5.83593e-06
5.83471e-06
5.83323e-06
5.83197e-06
5.83162e-06
5.83451e-06
5.84007e-06
5.84562e-06
5.84989e-06
5.85401e-06
5.85807e-06
5.86208e-06
5.86614e-06
5.87039e-06
5.87486e-06
5.87949e-06
5.88432e-06
5.88941e-06
5.89485e-06
5.90074e-06
5.90704e-06
5.91382e-06
5.92084e-06
5.9283e-06
5.93533e-06
6.38976e-06
6.38171e-06
6.37453e-06
6.36641e-06
6.35792e-06
6.34878e-06
6.33922e-06
6.32923e-06
6.31896e-06
6.30841e-06
6.29752e-06
6.28614e-06
6.27409e-06
6.26133e-06
6.24832e-06
6.23647e-06
6.22726e-06
6.2201e-06
6.21116e-06
6.19909e-06
6.18276e-06
6.16879e-06
6.15715e-06
6.14536e-06
6.13461e-06
6.13122e-06
6.12647e-06
6.11997e-06
6.10801e-06
6.10191e-06
6.10037e-06