/*--------------------------------*- C++ -*----------------------------------*\
| =========                 |                                                 |
| \\      /  F ield         | OpenFOAM: The Open Source CFD Toolbox           |
|  \\    /   O peration     | Version:  2312                                  |
|   \\  /    A nd           | Website:  www.openfoam.com                      |
|    \\/     M anipulation  |                                                 |
\*---------------------------------------------------------------------------*/
FoamFile
{
    version     2.0;
    format      ascii;
    arch        "LSB;label=32;scalar=64";
    class       volScalarField;
    location    "300";
    object      nut;
}
// * * * * * * * * * * * * * * * * * * * * * * * * * * * * * * * * * * * * * //

dimensions      [0 2 -1 0 0 0 0];

internalField   nonuniform List<scalar> 
76025
(
0.0001711
0.000171208
0.000171298
0.000171396
0.000171461
0.000171595
0.00017163
0.000171725
0.000171799
0.000171919
0.000172052
0.000172194
0.000172373
0.000172528
0.000172749
0.000172949
0.000173207
0.000173487
0.000173768
0.000174061
0.000174362
0.000174674
0.000174978
0.000175307
0.000175674
0.000176008
0.000176426
0.000176773
0.00017721
0.000177605
0.00017804
0.000178462
0.000178933
0.000179403
0.0001799
0.000180398
0.000180952
0.000181521
0.000182129
0.000182767
0.000183457
0.000184248
0.000185106
0.000186073
0.000187155
0.000188418
0.00018982
0.000191437
0.000193329
0.000195432
0.000197912
0.000200682
0.000204041
0.000207693
0.000212441
0.000217619
0.000224161
0.000232178
0.000242429
0.000255124
0.000270198
0.000289177
0.000311762
0.000336269
0.000362814
0.000382365
0.00040106
0.000403629
0.000401551
0.000172863
0.000172974
0.000173083
0.000173202
0.000173303
0.000173442
0.000173556
0.000173685
0.000173809
0.00017394
0.000174081
0.000174229
0.000174399
0.000174568
0.000174773
0.000174974
0.000175207
0.000175451
0.000175721
0.000175999
0.000176296
0.000176606
0.00017693
0.000177262
0.000177622
0.000177976
0.000178364
0.000178758
0.000179177
0.000179616
0.000180077
0.000180539
0.000181038
0.000181551
0.000182099
0.000182679
0.000183293
0.000183958
0.000184671
0.000185447
0.000186305
0.000187242
0.000188299
0.000189471
0.000190803
0.000192297
0.000193989
0.000195917
0.000198096
0.000200606
0.000203448
0.00020678
0.000210597
0.000215201
0.000220626
0.000227308
0.000235527
0.000245758
0.000258449
0.000273889
0.000292611
0.000314181
0.000337717
0.000361583
0.000383851
0.000398763
0.000410712
0.000404069
0.000392788
0.000174816
0.000174956
0.000175092
0.000175236
0.000175371
0.000175517
0.000175663
0.000175816
0.000175973
0.000176134
0.000176301
0.000176472
0.000176655
0.000176841
0.000177047
0.000177259
0.000177491
0.000177734
0.000177997
0.000178273
0.000178567
0.000178875
0.000179202
0.000179543
0.000179906
0.000180281
0.000180679
0.000181096
0.000181537
0.000182
0.000182492
0.000183006
0.000183553
0.000184133
0.000184752
0.000185415
0.000186129
0.000186901
0.000187741
0.000188659
0.000189667
0.000190784
0.000192025
0.00019341
0.000194963
0.000196708
0.00019868
0.00020091
0.000203458
0.000206371
0.000209752
0.000213687
0.000218365
0.000223955
0.000230765
0.000239121
0.000249416
0.000262062
0.000277392
0.000295559
0.000316413
0.000339105
0.000362265
0.000383905
0.000401447
0.000409976
0.000414143
0.000397442
0.000377914
0.000177046
0.00017721
0.000177374
0.000177541
0.000177706
0.000177874
0.000178045
0.00017822
0.0001784
0.000178584
0.000178776
0.000178972
0.000179176
0.000179386
0.000179607
0.000179838
0.000180082
0.000180338
0.00018061
0.000180897
0.0001812
0.000181521
0.000181859
0.000182217
0.000182594
0.000182994
0.000183417
0.000183865
0.000184342
0.000184847
0.000185386
0.000185959
0.000186571
0.000187226
0.000187931
0.000188691
0.000189514
0.000190409
0.000191385
0.000192456
0.000193632
0.000194936
0.000196386
0.000198005
0.00019982
0.000201866
0.000204179
0.000206816
0.00020984
0.000213345
0.000217442
0.000222299
0.000228118
0.00023517
0.000243778
0.000254303
0.000267096
0.000282434
0.000300401
0.000320731
0.000342814
0.00036521
0.000386125
0.000403576
0.000414155
0.000415499
0.000410657
0.000384068
0.000357361
0.000179616
0.000179796
0.000179981
0.000180169
0.000180361
0.000180555
0.000180752
0.000180952
0.000181157
0.000181366
0.000181581
0.000181802
0.000182031
0.000182266
0.000182511
0.000182765
0.000183031
0.00018331
0.000183602
0.00018391
0.000184235
0.000184578
0.000184941
0.000185324
0.000185731
0.000186164
0.000186624
0.000187115
0.000187639
0.000188199
0.000188798
0.00018944
0.000190131
0.000190875
0.000191678
0.00019255
0.000193497
0.000194532
0.000195664
0.00019691
0.000198282
0.000199804
0.000201501
0.000203402
0.000205542
0.000207965
0.000210726
0.000213899
0.000217579
0.000221894
0.000227007
0.000233131
0.000240527
0.000249494
0.000260361
0.000273415
0.000288857
0.000306702
0.000326643
0.000347997
0.000369662
0.000389751
0.000406519
0.000417874
0.00042033
0.000414214
0.000399371
0.000363947
0.000331003
0.000182628
0.000182812
0.000183006
0.000183208
0.000183417
0.000183632
0.000183852
0.000184077
0.000184307
0.000184543
0.000184785
0.000185034
0.000185289
0.000185553
0.000185827
0.00018611
0.000186405
0.000186713
0.000187035
0.000187374
0.00018773
0.000188106
0.000188504
0.000188925
0.000189373
0.000189851
0.000190361
0.000190907
0.000191492
0.000192119
0.000192794
0.000193522
0.000194307
0.000195157
0.00019608
0.000197085
0.000198181
0.000199383
0.000200702
0.000202159
0.00020377
0.000205563
0.000207572
0.000209836
0.000212402
0.000215333
0.000218709
0.000222634
0.000227242
0.000232706
0.000239237
0.000247086
0.00025653
0.000267843
0.00028126
0.000296888
0.000314669
0.000334258
0.000354942
0.000375675
0.000394971
0.000410819
0.000421766
0.000425497
0.000419261
0.000405523
0.000379916
0.000337657
0.000298942
0.000186199
0.000186378
0.000186571
0.000186777
0.000186993
0.00018722
0.000187456
0.0001877
0.000187953
0.000188213
0.000188482
0.000188759
0.000189044
0.00018934
0.000189646
0.000189963
0.000190293
0.000190638
0.000190998
0.000191377
0.000191774
0.000192194
0.000192638
0.000193109
0.000193612
0.000194149
0.000194724
0.000195341
0.000196004
0.000196718
0.000197488
0.000198322
0.000199226
0.000200208
0.000201278
0.000202447
0.000203729
0.000205139
0.000206695
0.00020842
0.000210339
0.000212487
0.000214913
0.00021767
0.000220829
0.000224477
0.000228728
0.000233726
0.000239645
0.000246697
0.000255113
0.000265139
0.000276992
0.000290832
0.000306692
0.000324415
0.000343624
0.000363601
0.000383321
0.000401506
0.000416459
0.000426375
0.00043013
0.00042513
0.000410333
0.000388681
0.000352355
0.000305755
0.000261395
0.000190439
0.000190616
0.000190807
0.000191012
0.000191231
0.000191464
0.00019171
0.000191967
0.000192237
0.000192518
0.00019281
0.000193114
0.00019343
0.000193759
0.0001941
0.000194456
0.000194827
0.000195215
0.000195622
0.000196049
0.000196499
0.000196974
0.000197477
0.000198014
0.000198587
0.000199201
0.000199859
0.000200567
0.00020133
0.000202154
0.000203047
0.000204015
0.000205069
0.000206219
0.000207477
0.000208858
0.000210379
0.00021206
0.000213927
0.00021601
0.000218349
0.000220989
0.000224001
0.000227463
0.000231473
0.000236155
0.000241657
0.000248156
0.000255849
0.000264946
0.000275642
0.000288098
0.000302383
0.000318453
0.000336075
0.000354804
0.000373964
0.000392548
0.000409386
0.000423101
0.000431966
0.000434674
0.000430198
0.000415972
0.000393264
0.000363136
0.000317478
0.000266702
0.000219481
0.000195466
0.000195648
0.000195844
0.000196054
0.000196279
0.000196519
0.000196775
0.000197045
0.00019733
0.00019763
0.000197945
0.000198276
0.000198622
0.000198985
0.000199365
0.000199763
0.000200181
0.000200619
0.00020108
0.000201566
0.00020208
0.000202624
0.000203203
0.000203823
0.000204485
0.000205196
0.000205961
0.000206786
0.000207678
0.000208645
0.000209695
0.000210839
0.000212089
0.000213458
0.000214964
0.000216627
0.00021847
0.000220524
0.000222824
0.000225415
0.000228355
0.00023171
0.000235578
0.000240068
0.000245308
0.00025145
0.000258661
0.000267117
0.000276986
0.000288412
0.000301473
0.000316165
0.000332346
0.000349738
0.000367835
0.000385972
0.000403246
0.000418511
0.000430623
0.000438163
0.000439608
0.000434285
0.000420887
0.00039771
0.000367848
0.000328684
0.000274905
0.000226343
0.000178059
0.000201424
0.000201621
0.000201833
0.000202058
0.000202298
0.000202554
0.000202826
0.000203114
0.00020342
0.000203744
0.000204086
0.000204447
0.000204828
0.00020523
0.000205654
0.000206101
0.000206572
0.00020707
0.000207596
0.000208153
0.000208744
0.000209376
0.000210051
0.000210774
0.000211551
0.000212387
0.00021329
0.000214268
0.000215328
0.000216482
0.000217742
0.000219121
0.000220636
0.000222308
0.000224159
0.00022622
0.000228526
0.000231121
0.000234058
0.000237403
0.000241237
0.000245653
0.000250767
0.000256716
0.000263641
0.00027169
0.000281002
0.000291692
0.000303834
0.00031743
0.000332389
0.000348508
0.000365431
0.000382673
0.000399527
0.000415217
0.000428694
0.00043885
0.000444659
0.000444669
0.000437895
0.000424129
0.000401565
0.000370517
0.000333839
0.000283807
0.00023079
0.000183694
0.000135028
0.000208502
0.000208726
0.000208965
0.000209217
0.000209484
0.000209768
0.000210068
0.000210387
0.000210724
0.000211083
0.000211463
0.000211865
0.000212292
0.000212744
0.000213222
0.00021373
0.000214268
0.000214839
0.000215445
0.000216093
0.000216786
0.000217528
0.000218326
0.000219185
0.000220112
0.000221114
0.000222202
0.000223385
0.000224676
0.00022609
0.000227645
0.000229359
0.000231259
0.000233373
0.000235738
0.000238398
0.000241404
0.00024482
0.00024872
0.000253191
0.00025833
0.000264249
0.000271061
0.000278896
0.000287865
0.000298058
0.000309525
0.000322267
0.00033621
0.000351193
0.000366952
0.000383105
0.000399141
0.000414438
0.000428181
0.000439593
0.000447533
0.000451126
0.000449419
0.000441002
0.00042582
0.000403496
0.000372213
0.000334852
0.000288502
0.000235317
0.000186174
0.000140869
9.46037e-05
0.000216958
0.000217219
0.000217496
0.000217788
0.000218096
0.000218422
0.000218766
0.000219131
0.000219518
0.000219928
0.000220363
0.000220825
0.000221315
0.000221836
0.00022239
0.00022298
0.000223608
0.000224278
0.000224997
0.000225768
0.000226599
0.000227493
0.00022846
0.000229507
0.000230644
0.000231883
0.000233236
0.000234719
0.000236352
0.000238156
0.000240157
0.000242385
0.000244879
0.000247681
0.000250844
0.000254427
0.0002585
0.00026314
0.000268433
0.00027447
0.000281345
0.000289148
0.000297958
0.00030783
0.000318805
0.000330869
0.000343952
0.000357917
0.000372549
0.000387547
0.000402518
0.000416963
0.000430293
0.000441814
0.000450705
0.000456248
0.000457242
0.000453278
0.000443222
0.000426085
0.000402897
0.000372115
0.000333531
0.000288081
0.000237555
0.000187878
0.00014083
0.000101428
7.12263e-05
0.000227147
0.000227456
0.000227784
0.000228131
0.000228497
0.000228883
0.000229292
0.000229725
0.000230183
0.00023067
0.000231187
0.000231736
0.00023232
0.000232944
0.000233608
0.000234318
0.000235081
0.000235902
0.000236787
0.000237743
0.000238778
0.000239902
0.000241125
0.00024246
0.000243923
0.00024553
0.000247302
0.000249263
0.000251441
0.000253869
0.000256584
0.00025963
0.000263057
0.000266922
0.000271285
0.000276216
0.000281783
0.000288059
0.000295111
0.000303002
0.000311779
0.000321473
0.000332084
0.000343582
0.000355893
0.00036889
0.000382403
0.000396188
0.000409925
0.000423228
0.000435631
0.000446578
0.000455476
0.000461589
0.000464201
0.000462631
0.000455728
0.000443728
0.000424889
0.000399572
0.000369124
0.000329782
0.000283488
0.000235889
0.000187195
0.000140159
0.000101577
7.06851e-05
6.08354e-05
0.000239583
0.000239957
0.000240355
0.000240777
0.000241224
0.000241698
0.0002422
0.000242733
0.0002433
0.000243903
0.000244545
0.00024523
0.000245962
0.000246747
0.000247591
0.000248502
0.000249486
0.000250552
0.000251709
0.000252968
0.000254343
0.000255848
0.000257499
0.000259317
0.000261325
0.000263547
0.000266014
0.00026876
0.00027182
0.000275238
0.000279058
0.000283329
0.000288103
0.000293432
0.000299367
0.000305958
0.000313248
0.000321268
0.000330038
0.000339561
0.000349815
0.000360752
0.000372293
0.000384322
0.000396679
0.000409161
0.00042151
0.000433422
0.00044452
0.000454391
0.000462539
0.0004684
0.00047142
0.000470837
0.000466172
0.000456648
0.00044149
0.000421477
0.00039395
0.000362015
0.000322762
0.000275501
0.00022956
0.000183548
0.000137324
9.8518e-05
6.96756e-05
5.5958e-05
5.85692e-05
0.000255051
0.00025552
0.000256023
0.00025656
0.000257132
0.000257743
0.000258394
0.000259089
0.000259832
0.000260627
0.000261481
0.000262401
0.000263394
0.000264468
0.000265631
0.000266894
0.000268269
0.000269768
0.000271407
0.000273202
0.000275172
0.000277338
0.000279725
0.000282358
0.000285265
0.000288478
0.00029203
0.000295956
0.000300291
0.000305072
0.000310335
0.000316113
0.000322437
0.00032933
0.000336809
0.000344882
0.000353544
0.000362774
0.000372535
0.000382769
0.000393395
0.000404303
0.000415354
0.000426376
0.000437158
0.000447452
0.000456958
0.000465345
0.000472205
0.000477134
0.000479623
0.000479165
0.000475248
0.000467114
0.000454677
0.000436817
0.000413837
0.000386196
0.000351043
0.000310988
0.000264954
0.000219102
0.000176125
0.000132696
9.44082e-05
6.67357e-05
5.14054e-05
5.29594e-05
5.87247e-05
0.000274865
0.000275501
0.000276188
0.000276927
0.000277722
0.000278576
0.000279497
0.000280491
0.000281565
0.000282727
0.000283985
0.000285349
0.000286829
0.000288437
0.000290186
0.00029209
0.000294166
0.00029643
0.0002989
0.000301596
0.000304539
0.00030775
0.000311253
0.000315069
0.000319221
0.000323733
0.000328625
0.000333917
0.000339625
0.000345763
0.000352339
0.000359356
0.000366811
0.00037469
0.000382973
0.000391626
0.000400604
0.000409846
0.000419272
0.000428787
0.000438269
0.000447573
0.000456527
0.000464926
0.000472534
0.00047908
0.000484246
0.000487705
0.000489026
0.000487873
0.000483693
0.00047613
0.000464653
0.000448657
0.000428506
0.000402544
0.000373119
0.00033674
0.000293498
0.000250915
0.000205603
0.000164285
0.000125115
8.84131e-05
6.23706e-05
4.76181e-05
4.72447e-05
5.33519e-05
5.83982e-05
0.000301499
0.000302481
0.000303549
0.000304708
0.000305963
0.000307321
0.00030879
0.000310378
0.000312094
0.000313949
0.000315952
0.000318114
0.000320446
0.00032296
0.000325668
0.000328583
0.000331716
0.000335079
0.000338686
0.000342547
0.000346673
0.000351074
0.00035576
0.000360736
0.000366009
0.000371581
0.000377453
0.000383622
0.00039008
0.000396817
0.000403816
0.000411056
0.000418507
0.000426134
0.000433889
0.000441715
0.000449542
0.000457287
0.000464847
0.000472102
0.00047891
0.000485106
0.0004905
0.000494869
0.000497968
0.000499515
0.000499194
0.0004967
0.000491577
0.00048365
0.000472212
0.000457293
0.000438106
0.000414672
0.000387425
0.00035433
0.000316936
0.000272867
0.000231608
0.000189972
0.000148628
0.000114194
8.09145e-05
5.64745e-05
4.30324e-05
4.23478e-05
4.7388e-05
5.26757e-05
6.16414e-05
0.000340574
0.000342263
0.000344079
0.000346026
0.000348107
0.000350327
0.000352693
0.000355209
0.00035788
0.000360713
0.00036371
0.000366878
0.000370218
0.000373736
0.000377432
0.000381311
0.000385372
0.000389616
0.000394044
0.000398652
0.000403439
0.000408401
0.000413532
0.000418826
0.000424272
0.000429861
0.000435578
0.000441408
0.000447329
0.000453318
0.000459346
0.000465379
0.000471374
0.000477283
0.000483045
0.000488591
0.000493835
0.000498679
0.000503009
0.000506688
0.000509561
0.000511451
0.000512158
0.000511454
0.000509093
0.00050479
0.000498257
0.000489224
0.000477205
0.000462348
0.000443516
0.000421649
0.000395173
0.000365767
0.000329596
0.000289412
0.000250083
0.000207206
0.000170771
0.000131502
9.99349e-05
7.22797e-05
4.9919e-05
3.91165e-05
3.82736e-05
4.14631e-05
4.68787e-05
5.46983e-05
6.86469e-05
0.000401854
0.000404278
0.000406824
0.000409486
0.000412261
0.000415147
0.000418142
0.000421244
0.000424452
0.000427764
0.000431178
0.000434691
0.0004383
0.000441999
0.000445785
0.000449651
0.000453591
0.000457598
0.000461665
0.000465785
0.000469946
0.00047414
0.000478354
0.000482574
0.000486787
0.000490976
0.00049512
0.000499198
0.000503183
0.000507046
0.00051075
0.000514255
0.000517509
0.000520455
0.000523024
0.000525135
0.000526694
0.000527592
0.000527702
0.000526877
0.000524954
0.000521749
0.000517067
0.000510668
0.000502333
0.000491771
0.000478782
0.000463103
0.000444281
0.000422979
0.00039713
0.000369574
0.000334366
0.000298265
0.000258237
0.000220682
0.00018229
0.000145725
0.000113783
8.35975e-05
6.2207e-05
4.23595e-05
3.49499e-05
3.42593e-05
3.68966e-05
4.16452e-05
4.94755e-05
6.34436e-05
7.81034e-05
0.000486957
0.000489209
0.0004915
0.000493823
0.000496173
0.000498547
0.000500941
0.000503351
0.000505791
0.000508257
0.000510742
0.000513238
0.000515739
0.000518234
0.000520715
0.000523175
0.000525604
0.000527996
0.000530341
0.000532627
0.000534842
0.000536972
0.000539002
0.000540917
0.0005427
0.000544329
0.000545783
0.000547033
0.000548052
0.000548801
0.000549241
0.000549323
0.000548989
0.000548173
0.000546798
0.000544775
0.000542002
0.000538359
0.000533709
0.000527893
0.000520756
0.000512112
0.000501794
0.000489524
0.000475177
0.000458434
0.000439324
0.000417426
0.000392704
0.000364989
0.000331119
0.000297183
0.000259132
0.000224691
0.000186352
0.000154551
0.000119717
9.3186e-05
6.78135e-05
5.0839e-05
3.45219e-05
3.02602e-05
3.07655e-05
3.26906e-05
3.5946e-05
4.41328e-05
5.7349e-05
7.26107e-05
8.85636e-05
0.000577001
0.000577967
0.000578898
0.000579785
0.000580626
0.000581417
0.000582153
0.00058283
0.000583447
0.000584001
0.000584493
0.000584928
0.000585295
0.000585583
0.00058578
0.00058588
0.000585885
0.000585789
0.000585575
0.000585221
0.000584707
0.000584023
0.000583157
0.000582093
0.000580812
0.000579286
0.000577493
0.000575397
0.000572969
0.000570161
0.000566934
0.000563225
0.00055897
0.000554098
0.000548526
0.000542159
0.000534885
0.000526569
0.000517069
0.000506204
0.000493893
0.000479943
0.000464247
0.000446372
0.000426554
0.000404328
0.000380127
0.000350849
0.000319478
0.000286454
0.000251463
0.000218718
0.000183649
0.000153368
0.000121094
9.57359e-05
7.0616e-05
5.32079e-05
3.86392e-05
2.84433e-05
2.55832e-05
2.67796e-05
2.76322e-05
3.01652e-05
3.8209e-05
5.05208e-05
6.72958e-05
8.49637e-05
9.96313e-05
0.00064548
0.000644637
0.000643708
0.000642686
0.000641568
0.00064035
0.000639031
0.000637596
0.00063606
0.00063441
0.000632664
0.000630913
0.000629045
0.000627001
0.000624789
0.00062242
0.000619886
0.000617173
0.000614254
0.000611076
0.000607613
0.000603969
0.000600114
0.000596019
0.000591655
0.00058696
0.00058196
0.000576543
0.000570765
0.000564482
0.000557737
0.000550363
0.000542348
0.000533611
0.000524073
0.000513629
0.000502149
0.000489452
0.000475415
0.000459829
0.000442983
0.000424444
0.000404208
0.000380891
0.000355055
0.000326809
0.000297323
0.00026554
0.000234489
0.000203274
0.000172481
0.000143808
0.00011524
9.1455e-05
6.91493e-05
5.20037e-05
3.78543e-05
2.83956e-05
2.28311e-05
2.14415e-05
2.16354e-05
2.22847e-05
2.39265e-05
3.07152e-05
4.38942e-05
6.22834e-05
8.12523e-05
9.76019e-05
0.000110166
0.000671941
0.000669467
0.000666842
0.000664079
0.000661182
0.000658143
0.000655025
0.000651615
0.000648261
0.000644625
0.000640923
0.000637041
0.000633018
0.000628834
0.000624478
0.000619939
0.000615207
0.000610269
0.000605111
0.000599711
0.000594049
0.000588117
0.000581896
0.000575366
0.000568492
0.000561011
0.000553534
0.000545105
0.000536854
0.000527424
0.000518036
0.000507333
0.000496215
0.000484266
0.000471531
0.000457761
0.000442813
0.000426282
0.000408356
0.000388684
0.000367318
0.000343796
0.000318457
0.000291225
0.00026377
0.000235039
0.000207391
0.000178482
0.000152237
0.000125776
0.000102357
8.08451e-05
6.19626e-05
4.7081e-05
3.45649e-05
2.54285e-05
2.04178e-05
1.79101e-05
1.75515e-05
1.71102e-05
1.62077e-05
1.68012e-05
2.39461e-05
3.70285e-05
5.49669e-05
7.52301e-05
9.33179e-05
0.000107851
0.000119784
0.000643551
0.00063992
0.000636159
0.000632262
0.000628223
0.00062404
0.000619711
0.000615219
0.000610579
0.000605772
0.000600801
0.000595657
0.000590335
0.000584827
0.000579124
0.000573216
0.000567091
0.000560739
0.000554142
0.000547285
0.000540147
0.000532709
0.00052495
0.000516841
0.000508352
0.000499445
0.000490114
0.000480275
0.000469924
0.000458951
0.000447334
0.000434928
0.000421563
0.000407153
0.000391493
0.000374458
0.000356036
0.000336082
0.000314644
0.000292017
0.000268722
0.000244314
0.000219866
0.000194576
0.000170094
0.000145517
0.000122873
0.000101101
8.25976e-05
6.49212e-05
5.07196e-05
3.79988e-05
2.85112e-05
2.09752e-05
1.65782e-05
1.42762e-05
1.27787e-05
1.17514e-05
1.00255e-05
8.7563e-06
1.13265e-05
1.7293e-05
2.78338e-05
4.3706e-05
6.26714e-05
8.17878e-05
9.90194e-05
0.0001138
0.000126844
0.000555121
0.000551158
0.000547063
0.000542832
0.000538463
0.000533952
0.000529296
0.000524491
0.000519531
0.000514412
0.000509129
0.000503674
0.000498042
0.000492223
0.000486205
0.000479979
0.000473533
0.000466854
0.00045993
0.000452747
0.000445284
0.00043752
0.000429429
0.00042096
0.000412087
0.000402729
0.000392813
0.000382257
0.00037098
0.000358891
0.00034591
0.000331929
0.000317059
0.000301175
0.000284352
0.000266395
0.000247641
0.000227767
0.000207596
0.00018645
0.000165784
0.000144462
0.000124872
0.000105131
8.8141e-05
7.18345e-05
5.81042e-05
4.634e-05
3.61528e-05
2.74118e-05
2.02556e-05
1.53582e-05
1.21576e-05
9.98956e-06
8.20468e-06
6.86063e-06
5.21473e-06
4.54714e-06
5.4379e-06
7.3755e-06
1.10082e-05
1.77076e-05
2.90056e-05
4.37514e-05
6.07012e-05
7.83417e-05
9.5337e-05
0.000110947
0.000125861
0.000408339
0.000404915
0.000401394
0.000397772
0.000394045
0.000390209
0.000386258
0.000382189
0.000377994
0.000373669
0.000369207
0.000364603
0.000359849
0.000354938
0.000349861
0.000344609
0.000339176
0.000333544
0.00032771
0.000321658
0.000315359
0.000308785
0.000301891
0.000294526
0.000286592
0.000278039
0.000268823
0.000258888
0.000248201
0.000236705
0.000224418
0.000211272
0.000197395
0.000182641
0.000167482
0.00015158
0.000135894
0.000119751
0.000104676
8.94852e-05
7.62319e-05
6.31499e-05
5.25727e-05
4.22424e-05
3.45935e-05
2.69778e-05
2.17603e-05
1.66919e-05
1.20652e-05
9.19973e-06
7.16878e-06
5.46542e-06
4.0252e-06
3.0683e-06
2.53288e-06
2.39785e-06
2.79607e-06
3.11258e-06
3.87314e-06
5.72705e-06
8.73088e-06
1.34175e-05
2.06156e-05
3.0975e-05
4.42595e-05
5.96215e-05
7.59077e-05
9.2034e-05
0.000108296
0.000227066
0.00022497
0.000222813
0.000220593
0.000218309
0.000215959
0.000213541
0.00021105
0.000208484
0.00020584
0.000203111
0.000200296
0.000197387
0.000194379
0.00019127
0.000188039
0.000184711
0.000181218
0.000177638
0.000173885
0.000169876
0.000165593
0.000160733
0.000155302
0.000149279
0.000142644
0.000135401
0.000127562
0.000119195
0.000110338
0.000101165
9.17103e-05
8.23001e-05
7.28843e-05
6.39779e-05
5.53285e-05
4.75976e-05
4.02839e-05
3.41303e-05
2.83676e-05
2.36292e-05
1.9243e-05
1.56959e-05
1.25774e-05
9.78732e-06
7.5201e-06
5.45128e-06
3.95028e-06
2.92626e-06
2.25335e-06
1.73009e-06
1.34755e-06
1.16646e-06
1.1012e-06
1.20687e-06
1.32119e-06
1.30098e-06
1.2401e-06
1.31002e-06
1.78131e-06
2.68912e-06
4.2957e-06
7.18218e-06
1.1894e-05
1.8812e-05
2.80106e-05
3.94438e-05
5.19792e-05
6.55819e-05
6.87754e-05
6.80413e-05
6.72872e-05
6.65141e-05
6.57204e-05
6.49058e-05
6.4068e-05
6.32086e-05
6.23224e-05
6.14146e-05
6.04743e-05
5.95129e-05
5.85136e-05
5.74876e-05
5.64303e-05
5.53144e-05
5.42144e-05
5.29591e-05
5.18423e-05
5.04096e-05
4.85971e-05
4.64387e-05
4.40347e-05
4.14488e-05
3.87415e-05
3.59766e-05
3.32043e-05
3.04783e-05
2.78304e-05
2.52994e-05
2.28962e-05
2.06439e-05
1.85296e-05
1.65702e-05
1.47306e-05
1.30287e-05
1.14011e-05
9.88906e-06
8.39714e-06
7.01041e-06
5.67958e-06
4.47387e-06
3.30218e-06
2.32114e-06
1.61103e-06
1.13663e-06
8.18361e-07
6.29848e-07
5.14e-07
4.34494e-07
3.53881e-07
2.79946e-07
2.37425e-07
2.1414e-07
1.84483e-07
1.54136e-07
1.32018e-07
1.14234e-07
1.26492e-07
1.65083e-07
2.4581e-07
3.95955e-07
6.74618e-07
1.22476e-06
2.25704e-06
4.07238e-06
6.83784e-06
1.05717e-05
1.43132e-05
6.23908e-06
6.3155e-06
6.39227e-06
6.46865e-06
6.54505e-06
6.62038e-06
6.69551e-06
6.76897e-06
6.84198e-06
6.91263e-06
6.98243e-06
7.0493e-06
7.11438e-06
7.17653e-06
7.23475e-06
7.29105e-06
7.34024e-06
7.38721e-06
7.42727e-06
7.4587e-06
7.48372e-06
7.50029e-06
7.5063e-06
7.49951e-06
7.47735e-06
7.43707e-06
7.37542e-06
7.28894e-06
7.17351e-06
7.02466e-06
6.83716e-06
6.60539e-06
6.32279e-06
5.98282e-06
5.57796e-06
5.10251e-06
4.54994e-06
3.92208e-06
3.21971e-06
2.47503e-06
1.69989e-06
9.73103e-07
4.21945e-07
1.36995e-07
6.67864e-08
6.17594e-08
5.83786e-08
5.18932e-08
4.50836e-08
3.73145e-08
2.94132e-08
2.43982e-08
2.05442e-08
1.64322e-08
1.2434e-08
9.54541e-09
7.92527e-09
7.23739e-09
8.17309e-09
1.13725e-08
1.79493e-08
2.93314e-08
4.66136e-08
7.00225e-08
9.85785e-08
1.30116e-07
1.61661e-07
1.91981e-07
2.06418e-07
0.000171938
0.000171919
0.000171793
0.000171716
0.000171647
0.000171552
0.00017155
0.000171417
0.000171316
0.000171222
0.000171115
0.000171113
0.000171151
0.000171171
0.000170953
0.000170711
0.000170664
0.000170631
0.00017053
0.000170364
0.000170347
0.000170467
0.000170284
0.000170242
0.000170065
0.000169889
0.000169941
0.000169939
0.000169955
0.000169939
0.000169834
0.000169821
0.000169817
0.000169763
0.000169766
0.000169687
0.000169733
0.000169762
0.000169792
0.000169907
0.000169773
0.00016982
0.000169795
0.000169798
0.000169915
0.000169899
0.00016989
0.000169916
0.00016997
0.000170087
0.000170152
0.000170338
0.000170487
0.000170585
0.000170687
0.000170818
0.000170889
0.000170996
0.000171052
0.00017344
0.000173414
0.00017333
0.000173292
0.000173323
0.0001733
0.000173298
0.000173221
0.00017321
0.000173126
0.000173023
0.000172964
0.000172864
0.000172724
0.000172463
0.000172372
0.00017238
0.000172234
0.000172115
0.000172007
0.000172029
0.000172049
0.000171834
0.0001718
0.000171587
0.000171457
0.000171494
0.000171509
0.000171469
0.000171427
0.000171365
0.000171344
0.000171321
0.000171255
0.000171279
0.000171218
0.00017123
0.000171283
0.000171314
0.000171413
0.000171371
0.000171389
0.000171378
0.000171352
0.000171408
0.000171435
0.000171462
0.000171517
0.000171578
0.000171673
0.000171756
0.000171885
0.000172043
0.000172165
0.000172298
0.000172427
0.000172544
0.000172662
0.000172759
0.000175708
0.000175721
0.000175789
0.000175755
0.000175562
0.000175374
0.000175271
0.000175194
0.000175134
0.00017506
0.000175015
0.000174948
0.000174764
0.000174556
0.000174406
0.000174395
0.00017426
0.000174118
0.000173981
0.000173936
0.00017397
0.000173877
0.000173672
0.000173621
0.000173393
0.000173295
0.000173319
0.000173336
0.000173253
0.000173193
0.000173163
0.000173127
0.000173091
0.000173026
0.000173048
0.000173012
0.000173007
0.000173048
0.00017309
0.000173176
0.000173175
0.000173191
0.000173193
0.000173194
0.000173207
0.000173247
0.000173284
0.000173348
0.000173462
0.000173537
0.000173625
0.000173733
0.000173879
0.000174017
0.00017416
0.000174302
0.000174437
0.00017457
0.000174686
0.000178108
0.000178066
0.000178051
0.000177997
0.000177905
0.000177793
0.00017769
0.00017759
0.000177477
0.000177427
0.000177315
0.000177153
0.000176938
0.000176767
0.000176721
0.000176632
0.000176473
0.000176315
0.000176205
0.0001762
0.000176163
0.000176016
0.000175823
0.000175743
0.000175513
0.000175439
0.000175448
0.000175454
0.000175339
0.000175268
0.000175251
0.000175203
0.000175161
0.000175101
0.000175117
0.000175098
0.000175089
0.000175117
0.000175146
0.000175272
0.000175297
0.000175298
0.000175329
0.000175363
0.0001754
0.000175463
0.000175528
0.000175597
0.000175654
0.000175732
0.000175821
0.000175921
0.000176046
0.000176183
0.000176326
0.000176475
0.000176621
0.000176767
0.000176896
0.00018094
0.000180876
0.000180831
0.000180763
0.000180683
0.000180585
0.000180478
0.000180364
0.000180235
0.000180102
0.000179942
0.000179763
0.000179596
0.000179488
0.000179412
0.000179242
0.000179047
0.000178908
0.000178828
0.000178827
0.000178713
0.000178514
0.000178335
0.000178221
0.000177994
0.000177934
0.00017793
0.000177913
0.000177774
0.000177695
0.000177681
0.000177623
0.000177576
0.000177521
0.000177531
0.000177525
0.000177519
0.00017754
0.000177553
0.000177691
0.000177801
0.00017785
0.000177891
0.000177951
0.000177998
0.000178076
0.000178156
0.000178236
0.000178285
0.000178351
0.000178431
0.000178522
0.00017863
0.000178752
0.000178885
0.000179027
0.000179171
0.00017932
0.000179455
0.000184299
0.000184215
0.000184142
0.000184051
0.000183949
0.00018383
0.000183698
0.000183553
0.000183394
0.000183231
0.000183065
0.000182907
0.00018277
0.000182646
0.000182488
0.000182271
0.00018208
0.000181972
0.000181902
0.000181852
0.00018167
0.000181446
0.000181273
0.000181123
0.000180906
0.000180852
0.000180828
0.000180784
0.000180627
0.000180541
0.000180521
0.000180455
0.000180403
0.000180352
0.000180353
0.000180356
0.000180354
0.000180372
0.000180381
0.000180494
0.000180633
0.000180757
0.000180835
0.0001809
0.000180998
0.000181062
0.000181146
0.000181235
0.000181318
0.000181402
0.000181491
0.000181586
0.000181689
0.000181803
0.000181926
0.000182057
0.000182193
0.000182335
0.000182468
0.00018822
0.000188107
0.000188004
0.000187882
0.000187751
0.000187606
0.00018745
0.000187284
0.000187113
0.000186944
0.000186779
0.00018662
0.000186459
0.000186276
0.00018606
0.000185843
0.000185679
0.000185586
0.000185494
0.000185371
0.000185128
0.0001849
0.000184718
0.000184537
0.000184332
0.000184274
0.000184224
0.000184151
0.000183979
0.000183884
0.000183854
0.00018378
0.000183723
0.000183673
0.00018367
0.000183674
0.000183683
0.000183699
0.000183711
0.0001838
0.000183942
0.000184089
0.000184206
0.000184312
0.000184425
0.000184527
0.000184631
0.000184737
0.000184843
0.000184949
0.000185056
0.000185165
0.000185278
0.000185396
0.000185519
0.000185647
0.000185778
0.000185915
0.000186044
0.000192793
0.00019265
0.000192518
0.000192369
0.000192214
0.000192048
0.000191875
0.000191696
0.000191515
0.000191333
0.000191148
0.000190956
0.000190748
0.000190521
0.000190291
0.000190094
0.000189945
0.000189832
0.000189684
0.000189483
0.000189204
0.000188974
0.00018877
0.000188563
0.000188368
0.000188296
0.000188217
0.000188111
0.000187928
0.000187821
0.000187777
0.000187696
0.000187633