/*--------------------------------*- C++ -*----------------------------------*\
| =========                 |                                                 |
| \\      /  F ield         | OpenFOAM: The Open Source CFD Toolbox           |
|  \\    /   O peration     | Version:  2312                                  |
|   \\  /    A nd           | Website:  www.openfoam.com                      |
|    \\/     M anipulation  |                                                 |
\*---------------------------------------------------------------------------*/
FoamFile
{
    version     2.0;
    format      ascii;
    arch        "LSB;label=32;scalar=64";
    class       volScalarField;
    location    "300";
    object      omega;
}
// * * * * * * * * * * * * * * * * * * * * * * * * * * * * * * * * * * * * * //

dimensions      [0 0 -1 0 0 0 0];

internalField   nonuniform List<scalar> 
76025
(
0.0293162
0.0293105
0.0293078
0.0293068
0.0293071
0.0293213
0.0293302
0.0293432
0.029347
0.0293553
0.0293639
0.0293742
0.02939
0.0294025
0.0294254
0.0294431
0.0294682
0.0294906
0.0295156
0.0295419
0.0295733
0.0296105
0.0296469
0.0296885
0.0297358
0.0297779
0.0298328
0.0298753
0.0299322
0.0299803
0.0300342
0.0300857
0.0301443
0.0302022
0.0302636
0.0303246
0.0303944
0.0304663
0.030544
0.0306263
0.0307166
0.0308243
0.030942
0.0310775
0.0312313
0.0314151
0.0316207
0.0318603
0.0321442
0.0324594
0.0328409
0.0332684
0.033772
0.0343243
0.0350293
0.0357935
0.0367397
0.0378623
0.0392611
0.0409384
0.0428247
0.0452118
0.0480318
0.0515785
0.055729
0.0612217
0.0673871
0.0767397
0.0870892
0.0296161
0.0296198
0.0296227
0.0296275
0.0296285
0.0296362
0.0296433
0.0296548
0.0296655
0.0296766
0.0296888
0.0297016
0.0297176
0.0297332
0.0297546
0.0297745
0.0297997
0.0298246
0.0298529
0.0298815
0.0299129
0.0299468
0.0299834
0.0300219
0.0300654
0.0301077
0.030156
0.0302049
0.0302578
0.0303137
0.0303726
0.030431
0.0304953
0.0305611
0.0306324
0.0307085
0.0307897
0.030879
0.0309759
0.0310827
0.0312028
0.0313354
0.0314875
0.0316579
0.0318541
0.0320758
0.0323288
0.0326192
0.0329486
0.0333293
0.0337599
0.0342624
0.0348352
0.0355198
0.0363161
0.0372781
0.0384281
0.0398185
0.0414772
0.0434343
0.0457719
0.0485136
0.0517669
0.0557266
0.0604607
0.0669217
0.0742375
0.0852754
0.0977912
0.0299643
0.0299725
0.0299801
0.0299891
0.0299962
0.030005
0.0300142
0.0300252
0.0300375
0.0300507
0.0300651
0.0300802
0.0300975
0.0301153
0.0301364
0.0301584
0.0301835
0.03021
0.0302391
0.0302699
0.0303029
0.0303379
0.0303757
0.0304155
0.030459
0.0305042
0.0305531
0.0306051
0.030661
0.0307204
0.0307843
0.0308517
0.030924
0.0310015
0.0310852
0.0311758
0.0312745
0.0313826
0.0315013
0.0316325
0.0317781
0.0319409
0.0321236
0.032329
0.032561
0.032823
0.0331205
0.0334578
0.0338438
0.0342847
0.0347946
0.0353844
0.0360777
0.0368937
0.0378655
0.0390263
0.0404108
0.0420576
0.0439925
0.0462693
0.0489197
0.0520473
0.0558057
0.0603859
0.0660389
0.0735264
0.0820011
0.0951156
0.109331
0.0303544
0.0303684
0.0303818
0.0303955
0.0304088
0.0304222
0.0304358
0.0304499
0.030465
0.0304809
0.030498
0.0305159
0.0305354
0.030556
0.0305786
0.0306028
0.0306291
0.0306574
0.030688
0.0307208
0.030756
0.0307935
0.0308338
0.0308769
0.030923
0.0309724
0.0310257
0.031083
0.0311447
0.0312111
0.0312828
0.03136
0.0314435
0.0315339
0.0316321
0.0317393
0.0318564
0.0319851
0.0321267
0.0322834
0.0324567
0.0326502
0.0328667
0.0331099
0.0333837
0.0336932
0.0340439
0.0344435
0.0349009
0.0354283
0.0360398
0.0367551
0.0375968
0.0385938
0.0397771
0.0411804
0.0428349
0.0447715
0.0470223
0.0496385
0.0526871
0.0563083
0.0606832
0.066003
0.072701
0.0813207
0.091385
0.107056
0.123461
0.0307962
0.0308151
0.0308341
0.0308532
0.0308722
0.0308913
0.0309104
0.0309297
0.0309495
0.0309697
0.0309908
0.0310128
0.0310359
0.0310602
0.031086
0.0311135
0.0311428
0.0311742
0.0312077
0.0312437
0.0312822
0.0313235
0.0313678
0.0314152
0.0314663
0.0315214
0.0315811
0.0316455
0.0317153
0.0317909
0.0318729
0.0319618
0.0320585
0.0321638
0.0322787
0.0324045
0.0325425
0.0326943
0.0328615
0.0330467
0.0332518
0.0334804
0.0337365
0.0340241
0.0343485
0.0347159
0.0351339
0.0356122
0.0361632
0.0368021
0.0375479
0.0384234
0.0394553
0.0406725
0.0421042
0.043779
0.0457227
0.0479661
0.0505503
0.0535491
0.0570579
0.0612642
0.0663599
0.0725935
0.0805807
0.0905478
0.102794
0.121524
0.140417
0.0313106
0.0313319
0.0313543
0.0313775
0.0314011
0.0314252
0.0314497
0.0314745
0.0314996
0.0315253
0.0315516
0.0315787
0.0316068
0.0316361
0.0316667
0.0316989
0.0317328
0.0317689
0.0318071
0.0318479
0.0318915
0.0319381
0.0319881
0.0320417
0.0320997
0.0321625
0.0322305
0.0323042
0.0323843
0.0324713
0.032566
0.0326692
0.0327818
0.0329047
0.0330393
0.033187
0.0333493
0.0335283
0.0337257
0.0339448
0.0341877
0.034459
0.0347634
0.0351065
0.0354949
0.035937
0.0364428
0.0370253
0.0377002
0.0384864
0.0394062
0.040484
0.0417462
0.043218
0.0449236
0.0468869
0.0491345
0.051707
0.0546685
0.0581178
0.0621895
0.0671148
0.0730898
0.0804979
0.0900496
0.101679
0.116992
0.139135
0.161803
0.0319218
0.0319433
0.0319668
0.0319918
0.0320181
0.0320456
0.0320741
0.0321034
0.0321335
0.0321645
0.0321963
0.0322291
0.032263
0.0322981
0.0323347
0.032373
0.0324131
0.0324554
0.0325001
0.0325476
0.0325981
0.032652
0.0327097
0.0327718
0.0328389
0.0329116
0.0329905
0.0330761
0.0331691
0.0332705
0.033381
0.0335017
0.0336337
0.0337781
0.0339366
0.0341109
0.0343028
0.0345148
0.0347495
0.0350103
0.0353007
0.0356258
0.0359923
0.0364075
0.0368801
0.0374213
0.0380442
0.0387649
0.039602
0.0405764
0.0417106
0.0430272
0.0445481
0.0462935
0.0482845
0.0505473
0.0531194
0.0560634
0.059471
0.0634696
0.0682427
0.0740556
0.0811319
0.0900675
0.101512
0.115385
0.134907
0.160827
0.1898
0.0326533
0.0326745
0.0326979
0.0327234
0.0327508
0.0327801
0.032811
0.0328436
0.0328775
0.0329129
0.0329498
0.0329881
0.0330279
0.0330694
0.0331126
0.0331578
0.0332053
0.0332553
0.033308
0.0333639
0.0334233
0.0334865
0.0335543
0.0336274
0.0337063
0.0337917
0.0338843
0.0339849
0.0340944
0.0342137
0.0343441
0.0344866
0.0346426
0.0348138
0.035002
0.0352094
0.0354384
0.0356922
0.0359742
0.0362888
0.036641
0.0370371
0.0374862
0.037998
0.0385839
0.0392577
0.0400351
0.0409341
0.0419737
0.0431737
0.044553
0.0461297
0.0479215
0.0499469
0.0522325
0.0548166
0.0577578
0.0611472
0.0651048
0.0697944
0.0754587
0.0823872
0.0908971
0.101832
0.115603
0.132742
0.157792
0.188177
0.227574
0.0335279
0.0335495
0.0335735
0.0335997
0.033628
0.0336586
0.0336914
0.0337264
0.0337634
0.0338025
0.0338438
0.0338872
0.0339327
0.0339806
0.0340308
0.0340836
0.0341393
0.034198
0.0342601
0.0343261
0.0343961
0.034471
0.0345514
0.0346381
0.0347318
0.0348332
0.0349431
0.0350626
0.0351928
0.0353348
0.03549
0.0356601
0.0358466
0.0360518
0.0362781
0.0365282
0.0368057
0.0371144
0.0374593
0.037846
0.0382819
0.0387746
0.039336
0.0399781
0.0407146
0.0415606
0.0425323
0.0436466
0.0449196
0.0463671
0.0480037
0.0498449
0.0519098
0.0542241
0.05683
0.0597849
0.0631755
0.067124
0.0717801
0.0773621
0.0841776
0.0925415
0.102982
0.116517
0.133289
0.155377
0.187308
0.223793
0.281359
0.0345705
0.0345944
0.0346205
0.0346487
0.0346792
0.034712
0.0347473
0.0347851
0.0348255
0.0348685
0.0349143
0.0349629
0.0350144
0.0350689
0.0351266
0.0351877
0.0352524
0.0353211
0.035394
0.0354716
0.0355545
0.0356437
0.0357396
0.0358431
0.0359551
0.0360764
0.0362082
0.0363516
0.0365081
0.0366791
0.0368665
0.0370724
0.037299
0.0375492
0.0378263
0.0381341
0.0384774
0.0388615
0.0392931
0.0397796
0.0403303
0.040955
0.0416661
0.0424775
0.043403
0.0444564
0.0456515
0.0470013
0.0485183
0.0502153
0.0521069
0.0542134
0.0565636
0.0591994
0.062185
0.0655998
0.0695665
0.0742382
0.0798047
0.0865679
0.0948918
0.105163
0.118261
0.13515
0.156165
0.185719
0.225681
0.272907
0.37178
0.0358128
0.0358408
0.035871
0.0359032
0.0359377
0.0359747
0.0360143
0.0360566
0.0361018
0.0361501
0.0362017
0.0362566
0.0363152
0.0363776
0.0364441
0.0365148
0.0365902
0.0366706
0.0367562
0.0368482
0.0369472
0.0370539
0.0371692
0.0372938
0.037429
0.037576
0.037736
0.0379107
0.0381019
0.0383118
0.0385426
0.0387973
0.039079
0.0393917
0.0397398
0.0401286
0.0405643
0.0410539
0.0416054
0.0422279
0.0429312
0.0437262
0.0446233
0.0456358
0.0467752
0.0480522
0.049477
0.0510605
0.0528146
0.0547559
0.0569059
0.0592983
0.0619775
0.0650075
0.0684773
0.0724922
0.0772221
0.0828492
0.0896344
0.0979936
0.108324
0.121227
0.137998
0.159301
0.187011
0.22696
0.276534
0.352101
0.529481
0.0372982
0.0373319
0.0373679
0.0374063
0.0374471
0.0374905
0.0375367
0.0375859
0.0376384
0.0376945
0.0377543
0.0378182
0.0378864
0.0379593
0.0380371
0.0381204
0.0382093
0.0383048
0.0384076
0.0385185
0.0386384
0.0387682
0.0389089
0.0390618
0.0392284
0.0394102
0.0396091
0.0398273
0.0400674
0.0403321
0.0406249
0.0409494
0.0413101
0.0417121
0.0421611
0.0426635
0.0432265
0.0438579
0.0445659
0.0453593
0.046247
0.0472378
0.0483406
0.0495631
0.0509159
0.0524084
0.0540511
0.0558578
0.0578471
0.0600456
0.0624884
0.0652275
0.0683253
0.0718745
0.0759891
0.0808119
0.0865762
0.0934894
0.101954
0.112501
0.125557
0.142233
0.164039
0.191739
0.230217
0.282903
0.351945
0.485998
0.717832
0.0390868
0.0391278
0.0391716
0.0392181
0.0392676
0.0393201
0.0393759
0.0394352
0.0394984
0.0395658
0.0396377
0.0397145
0.0397967
0.0398845
0.0399786
0.0400796
0.0401885
0.0403062
0.0404335
0.0405714
0.0407212
0.0408842
0.0410618
0.0412558
0.0414681
0.0417011
0.0419574
0.0422398
0.0425517
0.0428969
0.0432796
0.0437043
0.0441765
0.0447017
0.0452861
0.045936
0.0466582
0.0474595
0.0483467
0.0493266
0.0504057
0.051591
0.0528894
0.054309
0.0558596
0.0575534
0.0594089
0.0614491
0.0637038
0.0662142
0.069032
0.0722309
0.0758939
0.0801532
0.0851475
0.0910866
0.0982779
0.106961
0.117812
0.131375
0.148274
0.170505
0.199406
0.237423
0.291415
0.362404
0.479255
0.698929
0.883497
0.0412646
0.0413149
0.0413688
0.0414264
0.0414877
0.0415529
0.0416224
0.0416965
0.0417754
0.0418598
0.0419499
0.0420464
0.0421497
0.0422608
0.0423808
0.0425105
0.0426509
0.0428033
0.0429687
0.0431488
0.0433452
0.0435597
0.0437943
0.0440515
0.0443337
0.044644
0.0449855
0.0453616
0.0457764
0.0462338
0.0467382
0.0472944
0.0479072
0.0485815
0.0493225
0.0501352
0.0510248
0.0519962
0.0530549
0.0542064
0.0554571
0.0568146
0.0582883
0.0598903
0.0616365
0.0635474
0.0656502
0.0679791
0.0705795
0.0735106
0.0768439
0.0806797
0.0851285
0.0903812
0.096598
0.104122
0.113308
0.124505
0.13883
0.156565
0.179257
0.209869
0.249346
0.303939
0.379441
0.49043
0.694326
0.91817
1.00878
0.0439588
0.0440224
0.0440911
0.044165
0.044244
0.0443286
0.0444192
0.0445161
0.0446201
0.0447314
0.0448512
0.0449804
0.04512
0.0452709
0.0454342
0.0456111
0.0458032
0.0460118
0.0462386
0.0464856
0.0467547
0.0470482
0.0473684
0.047718
0.0480997
0.0485165
0.0489715
0.0494679
0.0500093
0.0505989
0.0512405
0.0519375
0.0526938
0.0535131
0.0543994
0.0553569
0.0563902
0.0575048
0.058707
0.0600046
0.0614073
0.0629272
0.06458
0.0663851
0.0683673
0.0705575
0.0729952
0.0757284
0.0788202
0.0823458
0.0864078
0.0911436
0.0967089
0.10338
0.111333
0.121176
0.133178
0.148121
0.167529
0.191278
0.223455
0.266497
0.322583
0.40282
0.516761
0.709587
0.954586
1.05324
1.05904
0.0473721
0.0474584
0.0475523
0.0476536
0.0477628
0.0478802
0.0480068
0.0481434
0.0482908
0.0484497
0.0486211
0.0488059
0.0490053
0.0492205
0.0494528
0.0497035
0.0499742
0.0502664
0.0505817
0.0509221
0.0512893
0.0516854
0.0521123
0.0525722
0.0530674
0.0536001
0.0541727
0.0547877
0.0554477
0.0561553
0.0569137
0.0577259
0.0585956
0.059527
0.0605249
0.0615952
0.0627448
0.0639822
0.0653176
0.0667638
0.0683361
0.0700536
0.0719395
0.0740223
0.0763374
0.078928
0.0818485
0.0851647
0.0889647
0.0933495
0.0984648
0.104498
0.111695
0.120432
0.130932
0.144258
0.160288
0.181182
0.208017
0.241399
0.289147
0.350043
0.43391
0.557712
0.747351
1.00258
1.1068
1.11052
1.07603
0.0518484
0.0519766
0.052116
0.0522667
0.0524291
0.0526036
0.0527911
0.0529922
0.0532077
0.0534384
0.0536852
0.053949
0.0542306
0.0545311
0.0548514
0.0551926
0.0555558
0.055942
0.0563526
0.0567887
0.0572517
0.0577429
0.0582639
0.0588163
0.059402
0.0600228
0.060681
0.0613793
0.0621205
0.0629079
0.0637457
0.0646384
0.0655916
0.066612
0.0677072
0.0688866
0.0701612
0.071544
0.0730505
0.0746996
0.0765134
0.078519
0.0807489
0.083243
0.0860496
0.0892291
0.0928572
0.0970254
0.101862
0.107501
0.114183
0.122133
0.131801
0.143609
0.158021
0.176642
0.198785
0.229745
0.267116
0.317728
0.388824
0.47705
0.612876
0.812926
1.06683
1.16971
1.1676
1.12855
0.999981
0.0579441
0.0581342
0.0583382
0.0585556
0.0587868
0.0590322
0.0592921
0.059567
0.0598573
0.0601634
0.0604859
0.0608252
0.0611819
0.0615565
0.0619496
0.0623619
0.0627941
0.063247
0.0637217
0.0642192
0.0647407
0.0652878
0.0658623
0.0664662
0.0671018
0.0677722
0.0684805
0.0692308
0.0700275
0.070876
0.0717827
0.0727549
0.073801
0.0749311
0.0761568
0.0774916
0.0789512
0.0805542
0.0823227
0.0842825
0.0864646
0.0889067
0.0916539
0.0947625
0.0983005
0.102355
0.107035
0.112472
0.118865
0.126389
0.135488
0.14635
0.159935
0.176369
0.197245
0.223969
0.256691
0.30376
0.356599
0.439381
0.540212
0.683474
0.91249
1.14745
1.23932
1.22856
1.17862
1.02829
0.815613
0.0662826
0.0665218
0.0667753
0.0670421
0.067322
0.067615
0.0679211
0.0682403
0.0685731
0.0689197
0.0692805
0.0696559
0.0700466
0.0704528
0.0708754
0.0713151
0.0717729
0.07225
0.0727477
0.0732678
0.0738122
0.0743833
0.0749838
0.0756169
0.0762865
0.076997
0.0777534
0.0785617
0.0794287
0.0803623
0.0813718
0.0824676
0.0836619
0.0849686
0.086404
0.0879869
0.0897393
0.091687
0.0938607
0.0962968
0.0990393
0.102142
0.10567
0.109707
0.114351
0.119738
0.126026
0.133423
0.142242
0.152726
0.165722
0.18116
0.201292
0.225009
0.257412
0.296235
0.349065
0.417432
0.501365
0.633019
0.777042
1.04637
1.24455
1.31551
1.29865
1.22848
1.03697
0.792112
0.616978
0.0773536
0.0776068
0.0778698
0.0781422
0.0784239
0.0787154
0.0790168
0.0793286
0.0796539
0.0799934
0.0803472
0.0807158
0.0810995
0.0814993
0.0819161
0.0823511
0.0828061
0.0832833
0.0837849
0.0843136
0.0848724
0.0854649
0.0860952
0.0867682
0.0874893
0.088265
0.0891025
0.0900102
0.0909979
0.0920766
0.0932589
0.0945597
0.0959957
0.0975864
0.0993547
0.101327
0.103535
0.106015
0.108811
0.111978
0.115581
0.119701
0.124439
0.129925
0.136303
0.143813
0.152669
0.163253
0.176044
0.191473
0.211069
0.234203
0.265819
0.301673
0.354148
0.411662
0.500551
0.595516
0.749092
0.92372
1.20118
1.3614
1.39466
1.36928
1.26874
1.01894
0.74969
0.563258
0.456982
0.0916521
0.0918917
0.0921381
0.0923911
0.0926514
0.0929197
0.0931967
0.0934832
0.0937806
0.0940901
0.0944134
0.0947518
0.0951066
0.0954796
0.0958726
0.0962881
0.0967313
0.0972061
0.097715
0.0982613
0.0988496
0.0994849
0.100173
0.100922
0.101738
0.102631
0.10361
0.104689
0.105879
0.107197
0.10866
0.11029
0.11211
0.114149
0.116439
0.119021
0.121942
0.125257
0.129034
0.133359
0.138336
0.144099
0.150806
0.158683
0.167939
0.17905
0.19224
0.208439
0.228204
0.252542
0.283783
0.320685
0.37197
0.429046
0.513319
0.605639
0.745257
0.897776
1.13949
1.37557
1.48524
1.47625
1.43148
1.286
0.962796
0.675417
0.492747
0.395364
0.347296
0.110135
0.110347
0.110565
0.110789
0.111021
0.111261
0.111512
0.111774
0.112049
0.112338
0.112644
0.11297
0.113316
0.113687
0.114084
0.114512
0.114975
0.115477
0.116023
0.11662
0.117277
0.118005
0.11881
0.119702
0.120691
0.121791
0.123014
0.12438
0.125905
0.127616
0.129536
0.131698
0.134138
0.136901
0.140038
0.143613
0.147702
0.152397
0.157812
0.164095
0.17142
0.180033
0.19018
0.202325
0.216761
0.234551
0.255724
0.282812
0.315181
0.356379
0.407574
0.469546
0.552848
0.647724
0.780673
0.936246
1.1424
1.40175
1.55496
1.59295
1.57072
1.49154
1.25254
0.864068
0.571805
0.410995
0.332633
0.294893
0.275436
0.134751
0.134946
0.13515
0.135361
0.135583
0.135817
0.136065
0.136329
0.136611
0.136913
0.13724
0.137593
0.137977
0.138395
0.138852
0.139353
0.139904
0.140511
0.141181
0.141924
0.142751
0.143679
0.14472
0.145886
0.147194
0.148662
0.150313
0.152173
0.154274
0.156651
0.159347
0.162416
0.165918
0.169929
0.174537
0.179856
0.186018
0.193203
0.20161
0.211538
0.223287
0.237394
0.254217
0.27487
0.299577
0.330826
0.367683
0.415906
0.470563
0.542903
0.626443
0.733963
0.867591
1.02605
1.23377
1.48061
1.6488
1.70613
1.69164
1.64914
1.48655
1.12285
0.711277
0.473271
0.347061
0.283271
0.252106
0.236879
0.227807
0.16964
0.169864
0.170099
0.170348
0.170613
0.170896
0.171201
0.171531
0.171889
0.172279
0.172705
0.173171
0.173683
0.174248
0.17487
0.17556
0.176324
0.177172
0.178119
0.179181
0.18037
0.181703
0.183198
0.184879
0.186773
0.188913
0.191339
0.194095
0.197238
0.200832
0.20496
0.209717
0.215222
0.221626
0.229098
0.237884
0.248229
0.260552
0.275188
0.292902
0.314045
0.340144
0.371128
0.410239
0.456222
0.51435
0.581827
0.666547
0.759668
0.883591
1.02096
1.20647
1.41082
1.66067
1.80141
1.84372
1.82786
1.79441
1.65371
1.35765
0.889187
0.592958
0.415898
0.317402
0.262391
0.231398
0.214343
0.204923
0.198613
0.224461
0.224811
0.225182
0.225575
0.225995
0.226446
0.226933
0.22746
0.228033
0.228657
0.229338
0.230083
0.2309
0.231801
0.2328
0.233908
0.235137
0.236501
0.238015
0.239699
0.241576
0.243675
0.246028
0.248686
0.251706
0.255156
0.259118
0.26369
0.268987
0.275155
0.28236
0.290831
0.300805
0.312671
0.326729
0.343687
0.363859
0.388571
0.417895
0.454476
0.497121
0.551589
0.612602
0.692275
0.776767
0.886325
1.00248
1.13732
1.29505
1.49625
1.73628
1.93726
2.02869
2.02521
1.9925
1.93265
1.79264
1.49245
1.01042
0.692405
0.50949
0.40652
0.33137
0.279341
0.243508
0.219678
0.204522
0.195127
0.187881
0.327296
0.327952
0.328647
0.329384
0.330169
0.331013
0.331919
0.332893
0.333942
0.335074
0.336299
0.337626
0.339068
0.340639
0.342357
0.34424
0.346307
0.348589
0.351104
0.353887
0.356994
0.360491
0.364472
0.369143
0.374663
0.3812
0.388951
0.398163
0.409115
0.422194
0.437774
0.456527
0.478859
0.506047
0.538242
0.578
0.62442
0.682536
0.748481
0.832304
0.922476
1.0385
1.15325
1.30614
1.43718
1.62889
1.76329
1.97507
2.23882
2.3344
2.32117
2.27473
2.19957
2.07457
1.83466
1.45738
1.01009
0.732225
0.565231
0.482358
0.44774
0.419032
0.379528
0.332763
0.290168
0.25667
0.23268
0.216346
0.203459
0.570856
0.57234
0.573869
0.57545
0.577094
0.578815
0.580626
0.58254
0.584574
0.58674
0.589062
0.591551
0.594241
0.59715
0.600304
0.603774
0.607507
0.611741
0.61625
0.621362
0.62743
0.634638
0.644073
0.655998
0.670799
0.688965
0.711028
0.737694
0.76963
0.807956
0.853325
0.907684
0.971092
1.04718
1.13383
1.23795
1.35262
1.4895
1.63295
1.8012
1.96777
2.1547
2.33329
2.50894
2.67797
2.8072
2.9387
2.90568
2.79021
2.60277
2.40674
2.13322
1.73018
1.34367
0.960162
0.692613
0.593996
0.577498
0.62612
0.670646
0.696378
0.69673
0.650852
0.577552
0.497852
0.424924
0.366004
0.324346
0.292123
1.47622
1.4792
1.48226
1.48542
1.48868
1.49204
1.49554
1.49915
1.50299
1.50695
1.51125
1.51568
1.52059
1.52577
1.53132
1.53793
1.54378
1.55334
1.5587
1.57296
1.5989
1.63677
1.68584
1.74628
1.81835
1.90225
1.9983
2.1066
2.22748
2.36066
2.50628
2.6634
2.83209
3.00973
3.1956
3.38534
3.5763
3.7631
3.93793
4.09865
4.22385
4.32717
4.35364
4.31722
4.2313
4.02191
3.68394
3.15651
2.57987
2.06096
1.64685
1.38626
1.24546
1.1687
1.10425
1.07445
1.09936
1.17526
1.32154
1.47164
1.57592
1.64137
1.65484
1.57039
1.42593
1.24226
1.05448
0.898209
0.815078
8.57914
8.57262
8.56522
8.55684
8.54754
8.53717
8.52584
8.51337
8.49992
8.48525
8.46955
8.45256
8.4345
8.4151
8.39446
8.3726
8.34909
8.32462
8.29822
8.2701
8.24068
8.20954
8.17652
8.14143
8.10405
8.06414
8.02144
7.97566
7.92648
7.87354
7.81642
7.75471
7.68792
7.61557
7.53719
7.45245
7.36109
7.26357
7.16046
7.05507
6.94861
6.84908
6.76698
6.70799
6.66562
6.62741
6.58935
6.5513
6.51357
6.4761
6.43911
6.40286
6.36721
6.33216
6.29779
6.26425
6.23159
6.19987
6.1692
6.13971
6.11153
6.08481
6.05968
6.03616
6.01424
5.99383
5.97489
5.95768
5.94092
0.0295215
0.0295227
0.0295321
0.02954
0.029547
0.0295463
0.0295377
0.0295327
0.0295271
0.0295235
0.0295216
0.0295322
0.0295599
0.0295745
0.0295676
0.0295453
0.0295538
0.0295617
0.029558
0.0295305
0.029528
0.0295472
0.0295248
0.0295254
0.0295013
0.0294811
0.0295002
0.0295045
0.0295044
0.0295065
0.0294989
0.0295061
0.0295073
0.0294899
0.0294829
0.0294575
0.0294515
0.0294472
0.0294416
0.029447
0.0294142
0.0294144
0.0294015
0.0293782
0.0293703
0.0293536
0.0293352
0.0293146
0.0293159
0.0293107
0.0293105
0.029316
0.0293153
0.0293137
0.0293178
0.0293113
0.0293124
0.0293054
0.0293091
0.0298399
0.0298345
0.0298372
0.0298346
0.0298216
0.0298145
0.0298064
0.029806
0.029808
0.0298087
0.0298257
0.0298369
0.0298423
0.029831
0.0298147
0.0298129
0.0298225
0.0298238
0.0298017
0.0297863
0.0297906
0.0297935
0.0297679
0.0297685
0.0297382
0.0297276
0.0297418
0.0297487
0.0297391
0.0297363
0.0297363
0.0297414
0.0297389
0.0297213
0.0297165
0.0296987
0.0296847
0.0296796
0.0296782
0.0296791
0.0296655
0.0296553
0.0296451
0.0296328
0.0296178
0.0296071
0.0295904
0.029576
0.0295723
0.0295724
0.0295733
0.0295798
0.0295877
0.029592
0.0295992
0.0296027
0.0296063
0.0296092
0.0296114
0.0301731
0.030167
0.0301621
0.0301584
0.0301565
0.0301623
0.030162
0.0301622
0.0301662
0.0301691
0.0301702
0.0301594
0.0301524
0.0301409
0.0301359
0.0301406
0.030142
0.030122
0.0300987
0.0300933
0.0300986
0.0300875
0.0300621
0.0300599
0.030028
0.0300228
0.0300333
0.0300403
0.0300236
0.0300177
0.0300228
0.0300247
0.0300196
0.0300028
0.0299982
0.0299842
0.029969
0.0299611
0.0299601
0.0299612
0.029955
0.0299462
0.0299369
0.0299276
0.0299164
0.0299103
0.0298938
0.0298856
0.0298721
0.0298745
0.0298791
0.0298861
0.0298974
0.0299079
0.0299194
0.02993
0.0299395
0.0299492
0.029956
0.0305893
0.0305826
0.030576
0.0305711
0.030568
0.0305672
0.0305669
0.0305679
0.0305717
0.0305605
0.0305539
0.0305425
0.0305355
0.0305299
0.0305204
0.0305226
0.0305005
0.0304769
0.0304605
0.0304627
0.030463
0.0304369
0.0304141
0.0304067
0.0303753
0.0303742
0.030381
0.0303853
0.0303637
0.0303558
0.0303629
0.0303619
0.0303554
0.0303399
0.0303348
0.0303235
0.0303088
0.0302991
0.0302971
0.0302973
0.0302957
0.0302906
0.0302844
0.0302784
0.03027
0.0302626
0.0302532
0.0302454
0.0302412
0.0302394
0.0302424
0.0302484
0.0302588
0.0302713
0.0302853
0.0303001
0.0303143
0.030329
0.0303408
0.0310789
0.0310711
0.0310648
0.0310591
0.0310542
0.0310495
0.0310446
0.0310387
0.0310321
0.0310217
0.0310109
0.0309994
0.0309897
0.0309795
0.0309665
0.0309552
0.0309259
0.0309065
0.0308978
0.0308996
0.0308842
0.0308531
0.0308321
0.0308189
0.0307895
0.0307903
0.030793
0.0307934
0.0307679
0.0307588
0.0307656
0.030762
0.0307547
0.0307403
0.0307346
0.0307252
0.0307119
0.0307014
0.0306984
0.0306972
0.0306966
0.0306941
0.0306901
0.0306858
0.0306823
0.0306762
0.0306709
0.0306672
0.0306693
0.0306707
0.0306742
0.0306801
0.0306891
0.0307009
0.0307148
0.0307305
0.0307465
0.0307637
0.0307785
0.031656
0.0316462
0.0316388
0.0316307
0.0316225
0.0316134
0.0316034
0.0315921
0.0315802
0.0315669
0.0315527
0.0315378
0.0315225
0.031506
0.0314875
0.0314655
0.0314375
0.031423
0.0314151
0.0314076
0.0313818
0.031349
0.0313281
0.0313094
0.0312826
0.0312831
0.0312817
0.0312769
0.0312487
0.0312383
0.0312435
0.0312377
0.0312294
0.031216
0.0312093
0.0312013
0.0311897
0.0311794
0.0311755
0.031176
0.0311793
0.0311771
0.0311755
0.0311776
0.0311735
0.0311757
0.0311758
0.0311765
0.0311795
0.0311831
0.0311881
0.0311948
0.0312035
0.0312146
0.0312276
0.0312425
0.0312583
0.0312756
0.0312914
0.0323378
0.032325
0.0323146
0.0323026
0.0322901
0.0322762
0.0322613
0.0322454
0.0322287
0.0322107
0.0321916
0.0321711
0.0321495
0.0321271
0.0321027
0.0320758
0.0320516
0.0320379
0.0320249
0.0320062
0.0319731
0.0319399
0.031917
0.0318938
0.0318693
0.0318676
0.0318614
0.031851
0.0318209
0.0318088
0.0318115
0.0318038
0.0317942
0.0317814
0.0317739
0.0317667
0.031757
0.0317475
0.0317435
0.0317438
0.0317496
0.0317543
0.0317574
0.0317614
0.031764
0.0317682
0.0317723
0.031777
0.031783
0.0317898
0.0317975
0.0318063
0.0318163
0.0318278
0.0318407
0.0318551
0.0318705
0.0318872
0.0319028
0.0331431
0.033126
0.0331114
0.0330947
0.0330773
0.0330583
0.0330383
0.033017
0.0329947
0.0329709
0.0329457
0.0329193
0.032892
0.0328643
0.0328355
0.0328073
0.0327845
0.0327663
0.0327448
0.0327157
0.0326778
0.0326436
0.0326173
0.0325904
0.0325672
0.0325616
0.0325501
0.0325338
0.0325019
0.0324879
0.0324873
0.0324777
0.0324668
0.0324542
0.0324459
0.032439
0.0324309
0.0324227
0.0324194
0.0324191
0.0324257
0.0324348
0.0324433
0.0324516
0.0324596
0.0324681
0.0324768
0.0324861
0.0324961
0.0325069
0.0325182
0.0325302
0.0325429
0.0325565
0.0325708
0.0325862
0.032602
0.0326188
0.0326345
0.0340946
0.0340724
0.0340528
0.0340309
0.034008
0.0339834
0.0339576
0.0339303
0.0339017
0.0338717
0.0338406
0.0338086
0.0337763
0.0337441
0.0337121
0.0336821
0.0336561
0.0336296
0.0335983
0.0335605
0.0335188
0.0334824
0.0334517
0.0334217
0.033398
0.0333871
0.0333695
0.0333473
0.0333137
0.0332971
0.0332927
0.0332811
0.0332687
0.0332559
0.033247
0.0332401
0.0332332
0.0332265
0.0332245
0.0332242
0.0332307
0.0332421
0.033255
0.0332683
0.0332816
0.0332953
0.0333094
0.0333238
0.0333387
0.0333542
0.0333701
0.0333864
0.033403
0.03342
0.0334373
0.033455
0.0334728
0.0334911
0.0335081
0.0352232
0.035195
0.0351699
0.0351421
0.0351133
0.0350826
0.0350506
0.0350169
0.034982
0.0349459
0.034909
0.0348717
0.0348344
0.0347975
0.0347612
0.0347266
0.0346931
0.0346566
0.0346154
0.0345701
0.0345244
0.0344843
0.0344487
0.0344153
0.0343892
0.0343715
0.0343473
0.034319
0.0342833
0.0342635
0.0342549
0.034241
0.0342269
0.0342136
0.034204
0.0341971
0.0341911
0.0341867
0.0341861
0.0341867
0.0341931
0.0342053
0.0342211
0.0342386
0.0342571
0.0342763
0.0342959
0.034316
0.0343365
0.0343574
0.0343786
0.0344
0.0344215
0.0344431
0.0344647
0.0344862
0.0345073
0.0345284
0.0345481
0.0365706
0.0365357
0.0365043
0.0364701
0.0364348
0.0363975
0.0363587
0.0363185
0.036277
0.0362345
0.0361914
0.0361479
0.0361045
0.0360611
0.0360181
0.0359754
0.0359315
0.0358841
0.0358334
0.0357808
0.0357303
0.035685
0.0356436
0.0356059
0.0355751
0.0355495
0.035518
0.0354835
0.0354451
0.0354214
0.035408
0.0353916
0.0353755
0.0353613
0.035351
0.0353441
0.0353397
0.0353383
0.0353386
0.0353408
0.0353477
0.0353604
0.0353779
0.0353987
0.0354216
0.0354458
0.0354711
0.035497
0.0355235
0.0355503
0.0355774
0.0356046
0.0356318
0.0356588
0.0356856
0.0357119
0.0357376
0.0357627
0.0357865
0.0381919
0.0381493
0.0381107
0.0380692
0.0380264
0.0379816
0.0379353
0.0378874
0.0378382
0.037788
0.037737
0.0376855
0.0376334
0.037581
0.0375281
0.0374742
0.0374183
0.0373594
0.0372989
0.0372386
0.0371816
0.0371295
0.0370813
0.0370376
0.0369999
0.036965
0.0369256
0.0368845
0.0368425
0.0368141
0.0367954
0.0367759
0.0367578
0.0367423
0.0367313
0.0367248
0.0367221
0.0367222
0.0367248
0.0367296
0.0367382
0.036752
0.0367711
0.0367945
0.036821
0.0368499
0.0368805
0.0369122
0.0369448
0.0369779
0.0370114
0.037045
0.0370784
0.0371116
0.0371443
0.0371764
0.0372076
0.0372377
0.0372665
0.0401595
0.0401075
0.04006
0.0400095
0.0399575
0.0399034
0.0398475
0.0397899
0.0397308
0.0396703
0.0396086
0.0395458
0.0394821
0.0394173
0.0393513
0.0392838
0.0392144
0.0391432
0.0390719
0.0390024
0.0389368
0.0388759
0.0388191
0.0387671
0.0387201
0.0386747
0.0386264
0.038578
0.0385314
0.0384973
0.0384725
0.0384496
0.038429
0.0384121
0.0384003
0.0383939
0.0383925
0.0383946
0.0384002
0.0384085
0.0384203
0.0384368
0.0384584
0.0384847
0.038515
0.0385485
0.0385844
0.038622
0.0386609
0.0387007
0.0387411
0.0387816
0.038822
0.0388621
0.0389016
0.0389402
0.0389777
0.0390137
0.0390486
0.0425701
0.0425058
0.0424463
0.0423837
0.0423193
0.0422526
0.0421838
0.0421128
0.04204
0.0419653
0.041889
0.0418112
0.0417319
0.0416511
0.0415689
0.0414851
0.0414002
0.0413149
0.0412308
0.0411495
0.0410725
0.0410001
0.0409322
0.040869
0.0408101
0.0407526
0.0406941
0.0406372
0.0405845
0.0405437
0.0405122
0.040485
0.0404617
0.0404431
0.0404306
0.0404248
0.0404238
0.0404285
0.0404378
0.0404508
0.0404675
0.0404887
0.0405148
0.0405458
0.0405811
0.0406201
0.0406622
0.0407066
0.0407528
0.0408002
0.0408484
0.040897
0.0409455
0.0409937
0.0410412
0.0410877
0.0411327
0.0411758
0.0412181
0.0455605
0.0454787
0.0454017
0.0453216
0.0452394
0.0451545
0.0450671
0.0449772
0.044885
0.0447906
0.0446942
0.0445959
0.0444959
0.0443944
0.0442916
0.044188
0.0440841
0.0439811
0.0438805
0.0437835
0.043691
0.0436033
0.0435204
0.0434425
0.0433686
0.0432968
0.0432263
0.0431593
0.0430986
0.0430495
0.0430104
0.0429783
0.042952
0.0429317
0.0429186
0.0429133
0.0429138
0.0429218
0.0429359
0.0429551
0.0429789
0.0430075
0.0430412
0.0430798
0.0431231
0.0431705
0.0432215
0.0432753
0.0433313
0.043389
0.0434477
0.043507
0.0435663
0.0436253
0.0436835
0.0437403
0.0437956
0.0438483
0.0439008
0.0493384
0.04923
0.049126
0.0490192
0.0489096
0.0487972
0.0486819
0.0485638
0.0484431
0.04832
0.0481947
0.0480676
0.047939
0.0478093
0.047679
0.0475488
0.0474196
0.0472925
0.0471689
0.0470496
0.0469355
0.0468267
0.0467235
0.0466257
0.0465327
0.0464434
0.0463578
0.0462779
0.0462067
0.0461477
0.0460997
0.0460618
0.0460324
0.0460108
0.0459979
0.0459939
0.0459976
0.0460107
0.0460319
0.0460601
0.0460945
0.0461348
0.0461809
0.0462326
0.0462895
0.0463511
0.0464169
0.0464862
0.0465582
0.0466323
0.0467079
0.0467843
0.0468609
0.0469371
0.0470124
0.047086
0.0471576
0.047226
0.0472948
0.0542294
0.0540814
0.0539363
0.053788
0.0536362
0.0534807
0.0533219
0.0531599
0.0529949
0.0528275
0.0526579
0.0524868
0.0523147
0.0521424
0.0519706
0.0518004
0.0516328
0.051469
0.0513101
0.051157
0.0510104
0.0508706
0.050738
0.0506124
0.0504935
0.0503809
0.0502749
0.0501779
0.0500925
0.0500208
0.0499623
0.049918
0.0498856
0.0498639
0.0498535
0.0498524
0.0498634
0.0498862
0.04992
0.0499636
0.050016
0.0500766
0.0501451
0.0502209
0.0503036
0.0503925
0.0504868
0.0505858
0.0506886
0.0507943
0.050902
0.0510108
0.0511199
0.0512282
0.0513351
0.0514395
0.0515407
0.0516377
0.0517357
0.0606826
0.0604882
0.0602882
0.0600844
0.0598759
0.0596627
0.0594447
0.0592219
0.0589946
0.0587633
0.0585286
0.0582911
0.0580518
0.0578122
0.0575737
0.0573377
0.0571058
0.0568794
0.05666
0.0564488
0.0562467
0.0560545
0.0558727
0.0557017
0.0555414
0.0553918
0.0552541
0.0551309
0.0550241
0.054935
0.0548639
0.0548131
0.0547803
0.0547635
0.0547609
0.0547734
0.054803
0.0548496
0.0549122
0.0549896
0.0550806
0.0551843
0.0552998
0.0554261
0.0555621
0.0557067