/*--------------------------------*- C++ -*----------------------------------*\
| =========                 |                                                 |
| \\      /  F ield         | OpenFOAM: The Open Source CFD Toolbox           |
|  \\    /   O peration     | Version:  2312                                  |
|   \\  /    A nd           | Website:  www.openfoam.com                      |
|    \\/     M anipulation  |                                                 |
\*---------------------------------------------------------------------------*/
FoamFile
{
    version     2.0;
    format      ascii;
    arch        "LSB;label=32;scalar=64";
    class       volScalarField;
    location    "300";
    object      p;
}
// * * * * * * * * * * * * * * * * * * * * * * * * * * * * * * * * * * * * * //

dimensions      [0 2 -2 0 0 0 0];

internalField   nonuniform List<scalar> 
76025
(
0.000130795
0.000123398
0.000115909
0.000108395
0.00010079
9.32414e-05
8.51947e-05
7.73648e-05
6.93499e-05
6.13828e-05
5.33125e-05
4.51703e-05
3.69507e-05
2.87056e-05
2.04464e-05
1.19677e-05
3.75517e-06
-4.76344e-06
-1.31367e-05
-2.15882e-05
-2.99229e-05
-3.84185e-05
-4.6867e-05
-5.51933e-05
-6.35707e-05
-7.18662e-05
-8.01094e-05
-8.85734e-05
-9.66947e-05
-0.000105066
-0.000113009
-0.000121135
-0.000128983
-0.000137007
-0.000144788
-0.000152599
-0.000160145
-0.000167908
-0.000175632
-0.000183028
-0.000190249
-0.000197462
-0.000204838
-0.000212068
-0.000218895
-0.000225746
-0.000232575
-0.000239432
-0.000245784
-0.000252189
-0.000258533
-0.000264675
-0.000270765
-0.000276676
-0.000282197
-0.000287396
-0.000292708
-0.000297721
-0.000302551
-0.00030696
-0.000311045
-0.000314964
-0.000317848
-0.000320131
-0.000321652
-0.000322294
-0.000322207
-0.00032015
-0.000314251
0.000132607
0.000124898
0.000117129
0.000109291
0.000101344
9.32626e-05
8.51176e-05
7.6914e-05
6.86194e-05
6.02543e-05
5.18153e-05
4.33283e-05
3.48027e-05
2.62102e-05
1.7595e-05
8.9626e-06
2.8136e-07
-8.39588e-06
-1.71224e-05
-2.57927e-05
-3.45103e-05
-4.31908e-05
-5.18458e-05
-6.04557e-05
-6.90555e-05
-7.76425e-05
-8.61981e-05
-9.46479e-05
-0.000103042
-0.000111433
-0.000119695
-0.000128001
-0.000136185
-0.000144253
-0.000152289
-0.000160215
-0.000168109
-0.000175923
-0.000183595
-0.000191186
-0.000198642
-0.000206063
-0.000213383
-0.000220528
-0.000227587
-0.000234559
-0.000241463
-0.000248198
-0.000254789
-0.000261319
-0.000267765
-0.000274046
-0.000280172
-0.000286112
-0.000291807
-0.000297307
-0.000302713
-0.000307842
-0.000312738
-0.000317313
-0.000321524
-0.0003254
-0.000328593
-0.000331103
-0.000332857
-0.000333714
-0.000333537
-0.000331519
-0.00032749
0.00013445
0.000126395
0.00011826
0.000110042
0.000101712
9.32958e-05
8.47985e-05
7.62171e-05
6.75588e-05
5.88271e-05
5.0039e-05
4.12079e-05
3.23309e-05
2.34148e-05
1.44784e-05
5.50603e-06
-3.48275e-06
-1.24822e-05
-2.14849e-05
-3.04829e-05
-3.9466e-05
-4.8417e-05
-5.73422e-05
-6.62342e-05
-7.50929e-05
-8.3914e-05
-9.26648e-05
-0.000101349
-0.000109983
-0.000118558
-0.000127069
-0.000135515
-0.000143861
-0.000152113
-0.000160293
-0.000168383
-0.000176387
-0.000184287
-0.000192092
-0.000199808
-0.000207408
-0.000214908
-0.000222302
-0.000229594
-0.000236787
-0.000243866
-0.000250838
-0.000257694
-0.000264436
-0.000271065
-0.000277582
-0.00028396
-0.000290188
-0.000296255
-0.000302136
-0.00030783
-0.000313359
-0.000318674
-0.000323752
-0.000328539
-0.000332978
-0.00033702
-0.000340499
-0.00034331
-0.000345363
-0.000346508
-0.000346526
-0.000344918
-0.000341766
0.000136096
0.000127651
0.000119122
0.000110514
0.000101808
9.30049e-05
8.41136e-05
7.51451e-05
6.611e-05
5.70142e-05
4.78651e-05
3.86698e-05
2.94342e-05
2.01665e-05
1.08758e-05
1.56602e-06
-7.75186e-06
-1.70712e-05
-2.63837e-05
-3.56815e-05
-4.49543e-05
-5.41958e-05
-6.34007e-05
-7.25614e-05
-8.16714e-05
-9.07251e-05
-9.97136e-05
-0.000108635
-0.000117484
-0.000126258
-0.000134951
-0.000143558
-0.000152073
-0.000160493
-0.000168818
-0.000177048
-0.000185179
-0.00019321
-0.000201141
-0.000208966
-0.000216681
-0.000224287
-0.00023179
-0.000239188
-0.000246476
-0.000253653
-0.000260723
-0.000267685
-0.000274534
-0.000281269
-0.000287892
-0.00029439
-0.000300752
-0.000306969
-0.000313026
-0.000318918
-0.000324644
-0.000330182
-0.000335497
-0.000340543
-0.000345264
-0.000349593
-0.000353414
-0.000356609
-0.000359064
-0.00036062
-0.000361069
-0.000360057
-0.000357662
0.000137497
0.000128644
0.000119708
0.000110694
0.000101584
9.23742e-05
8.30799e-05
7.37143e-05
6.4286e-05
5.48012e-05
4.52665e-05
3.56899e-05
2.60803e-05
1.64458e-05
6.79494e-06
-2.8638e-06
-1.25225e-05
-2.21728e-05
-3.18064e-05
-4.14145e-05
-5.09891e-05
-6.05225e-05
-7.00071e-05
-7.94359e-05
-8.88024e-05
-9.81009e-05
-0.000107325
-0.000116469
-0.000125527
-0.000134498
-0.000143375
-0.000152157
-0.000160837
-0.000169412
-0.000177883
-0.00018625
-0.000194512
-0.000202666
-0.00021071
-0.000218643
-0.000226464
-0.000234176
-0.00024178
-0.000249275
-0.000256662
-0.000263941
-0.000271115
-0.000278183
-0.000285143
-0.000291997
-0.000298743
-0.000305377
-0.00031189
-0.000318279
-0.000324534
-0.000330649
-0.000336617
-0.00034242
-0.000348025
-0.00035339
-0.000358459
-0.000363162
-0.000367399
-0.000371055
-0.000374005
-0.000376082
-0.000377092
-0.000376735
-0.000374945
0.000138642
0.00012936
0.000119995
0.000110554
0.000101016
9.13804e-05
8.16636e-05
7.18791e-05
6.20359e-05
5.2141e-05
4.22022e-05
3.22283e-05
2.22286e-05
1.22121e-05
2.18798e-06
-7.83499e-06
-1.7848e-05
-2.78421e-05
-3.78085e-05
-4.77382e-05
-5.76228e-05
-6.74542e-05
-7.72246e-05
-8.69268e-05
-9.65541e-05
-0.0001061
-0.000115559
-0.000124924
-0.000134192
-0.000143359
-0.00015242
-0.000161373
-0.000170212
-0.000178937
-0.000187549
-0.000196048
-0.000204433
-0.000212701
-0.000220853
-0.000228891
-0.000236813
-0.000244623
-0.000252323
-0.000259913
-0.000267397
-0.000274775
-0.000282051
-0.000289226
-0.000296303
-0.000303282
-0.000310165
-0.00031695
-0.000323637
-0.000330222
-0.000336701
-0.000343068
-0.000349316
-0.000355427
-0.000361371
-0.000367108
-0.000372585
-0.000377732
-0.000382458
-0.000386655
-0.000390188
-0.000392888
-0.00039456
-0.000394936
-0.000393812
0.000139472
0.000129735
0.000119917
0.000110023
0.000100034
8.99503e-05
7.97881e-05
6.95623e-05
5.92829e-05
4.89581e-05
3.85962e-05
2.82067e-05
1.77994e-05
7.38421e-06
-3.029e-06
-1.34306e-05
-2.3811e-05
-3.41606e-05
-4.44701e-05
-5.47304e-05
-6.49324e-05
-7.50678e-05
-8.51285e-05
-9.51071e-05
-0.000104996
-0.00011479
-0.000124482
-0.000134067
-0.000143541
-0.000152899
-0.000162138
-0.000171255
-0.000180247
-0.000189116
-0.000197861
-0.000206484
-0.000214983
-0.000223358
-0.000231612
-0.000239746
-0.000247762
-0.000255663
-0.000263453
-0.000271134
-0.000278711
-0.000286187
-0.000293566
-0.000300853
-0.000308051
-0.000315165
-0.000322199
-0.000329155
-0.000336036
-0.000342841
-0.00034957
-0.000356219
-0.00036278
-0.000369237
-0.000375561
-0.000381717
-0.000387654
-0.000393305
-0.000398587
-0.000403398
-0.000407601
-0.000411036
-0.000413484
-0.000414723
-0.000414199
0.000139921
0.000129703
0.000119404
0.000109032
9.85676e-05
8.8011e-05
7.73797e-05
6.669e-05
5.59528e-05
4.5177e-05
3.43717e-05
2.35473e-05
1.27144e-05
1.8839e-06
-8.93361e-06
-1.97277e-05
-3.04879e-05
-4.12042e-05
-5.18666e-05
-6.24655e-05
-7.29915e-05
-8.34358e-05
-9.37901e-05
-0.000104047
-0.000114198
-0.000124239
-0.000134161
-0.000143962
-0.000153636
-0.000163179
-0.00017259
-0.000181864
-0.000191001
-0.000200004
-0.000208874
-0.00021761
-0.000226214
-0.000234688
-0.000243034
-0.000251256
-0.000259357
-0.000267342
-0.000275215
-0.000282983
-0.000290649
-0.000298221
-0.000305705
-0.000313108
-0.000320435
-0.000327695
-0.000334893
-0.000342036
-0.000349129
-0.000356177
-0.000363179
-0.000370134
-0.000377034
-0.000383865
-0.000390602
-0.000397212
-0.000403648
-0.000409851
-0.000415745
-0.000421235
-0.000426194
-0.000430483
-0.000433897
-0.00043629
-0.000436344
0.000139919
0.00012919
0.000118384
0.000107506
9.6539e-05
8.54835e-05
7.43582e-05
6.31804e-05
5.19621e-05
4.07129e-05
2.94432e-05
1.81639e-05
6.88701e-06
-4.37594e-06
-1.56134e-05
-2.68141e-05
-3.79669e-05
-4.9061e-05
-6.00858e-05
-7.1031e-05
-8.1887e-05
-9.26444e-05
-0.000103295
-0.00011383
-0.000124243
-0.000134527
-0.000144677
-0.000154688
-0.000164555
-0.000174276
-0.000183848
-0.00019327
-0.000202542
-0.000211668
-0.00022065
-0.000229489
-0.000238187
-0.000246747
-0.000255174
-0.000263474
-0.000271651
-0.000279711
-0.000287662
-0.00029551
-0.000303264
-0.000310932
-0.000318522
-0.000326044
-0.000333507
-0.00034092
-0.000348294
-0.000355638
-0.000362959
-0.000370263
-0.000377553
-0.000384828
-0.000392083
-0.000399305
-0.000406473
-0.000413559
-0.000420522
-0.000427309
-0.000433856
-0.000440072
-0.000445854
-0.000451084
-0.000455639
-0.000459463
-0.000461341
0.000139379
0.00012811
0.000116766
0.000105354
9.38551e-05
8.22729e-05
7.06267e-05
5.89349e-05
4.72105e-05
3.54645e-05
2.3708e-05
1.19531e-05
2.12765e-07
-1.15005e-05
-2.31741e-05
-3.47959e-05
-4.6354e-05
-5.78367e-05
-6.92327e-05
-8.05313e-05
-9.17222e-05
-0.000102796
-0.000113743
-0.000124556
-0.000135228
-0.000145751
-0.000156122
-0.000166334
-0.000176385
-0.000186273
-0.000195996
-0.000205553
-0.000214947
-0.000224184
-0.000233264
-0.000242191
-0.000250969
-0.000259603
-0.0002681
-0.000276465
-0.000284708
-0.000292835
-0.000300856
-0.000308781
-0.000316618
-0.00032438
-0.000332076
-0.000339719
-0.000347321
-0.000354894
-0.00036245
-0.00037
-0.000377554
-0.000385119
-0.0003927
-0.000400297
-0.000407908
-0.000415522
-0.000423124
-0.000430693
-0.000438193
-0.000445581
-0.000452806
-0.000459783
-0.000466438
-0.000472646
-0.000478375
-0.000483256
-0.000486794
0.000138201
0.000126359
0.000114445
0.000102467
9.04059e-05
7.82673e-05
6.60715e-05
5.3838e-05
4.15813e-05
2.93133e-05
1.70464e-05
4.79401e-06
-7.43008e-06
-1.9612e-05
-3.17384e-05
-4.37959e-05
-5.57718e-05
-6.76535e-05
-7.94291e-05
-9.1087e-05
-0.000102616
-0.000114008
-0.000125251
-0.000136339
-0.000147264
-0.00015802
-0.000168603
-0.000179007
-0.00018923
-0.000199272
-0.00020913
-0.000218808
-0.000228309
-0.00023764
-0.000246802
-0.000255802
-0.000264645
-0.000273338
-0.00028189
-0.00029031
-0.000298607
-0.000306791
-0.000314874
-0.000322867
-0.000330782
-0.000338632
-0.000346431
-0.000354193
-0.000361932
-0.000369662
-0.000377396
-0.000385148
-0.000392927
-0.000400743
-0.000408602
-0.000416506
-0.000424457
-0.000432448
-0.000440472
-0.000448512
-0.000456543
-0.000464535
-0.000472449
-0.000480222
-0.000487805
-0.000495081
-0.000502045
-0.000507961
-0.000514872
0.000136264
0.000123813
0.000111296
9.8717e-05
8.60617e-05
7.3335e-05
6.05589e-05
4.77543e-05
3.49371e-05
2.21205e-05
9.31827e-06
-3.45494e-06
-1.6184e-05
-2.8854e-05
-4.14502e-05
-5.39583e-05
-6.63644e-05
-7.86552e-05
-9.08178e-05
-0.00010284
-0.000114711
-0.00012642
-0.000137957
-0.000149315
-0.000160487
-0.000171466
-0.000182248
-0.000192831
-0.000203212
-0.000213391
-0.000223369
-0.00023315
-0.000242741
-0.000252147
-0.000261374
-0.000270428
-0.000279318
-0.000288053
-0.000296645
-0.000305103
-0.00031344
-0.000321667
-0.000329799
-0.000337848
-0.00034583
-0.000353759
-0.000361651
-0.000369521
-0.000377385
-0.000385258
-0.000393154
-0.000401086
-0.000409066
-0.000417104
-0.00042521
-0.00043339
-0.000441648
-0.000449984
-0.000458398
-0.00046688
-0.000475418
-0.000484
-0.000492603
-0.000501192
-0.000509768
-0.000518309
-0.000526861
-0.000534709
-0.000542228
0.00013342
0.000120325
0.000107166
9.39518e-05
8.06667e-05
6.73179e-05
5.39285e-05
4.05213e-05
2.71134e-05
1.37198e-05
3.55646e-07
-1.2963e-05
-2.62196e-05
-3.93978e-05
-5.24817e-05
-6.54556e-05
-7.83046e-05
-9.10144e-05
-0.000103571
-0.000115962
-0.000128175
-0.0001402
-0.000152028
-0.000163649
-0.000175057
-0.000186248
-0.000197217
-0.000207962
-0.000218484
-0.000228782
-0.000238859
-0.000248724
-0.000258382
-0.000267842
-0.00027711
-0.000286196
-0.000295111
-0.000303867
-0.000312476
-0.000320951
-0.000329307
-0.000337558
-0.00034572
-0.000353807
-0.000361837
-0.000369826
-0.000377789
-0.000385744
-0.000393706
-0.00040169
-0.000409712
-0.000417786
-0.000425924
-0.00043414
-0.000442446
-0.000450852
-0.000459366
-0.000467997
-0.000476751
-0.000485627
-0.000494633
-0.000503777
-0.00051305
-0.000522464
-0.000532103
-0.000541982
-0.000552169
-0.000562224
-0.000572853
0.000129492
0.000115712
0.000101872
8.79828e-05
7.40299e-05
6.00221e-05
4.5984e-05
3.194e-05
1.79089e-05
3.90754e-06
-1.00474e-05
-2.39381e-05
-3.77464e-05
-5.14546e-05
-6.50451e-05
-7.8501e-05
-9.18062e-05
-0.000104945
-0.000117903
-0.000130667
-0.000143224
-0.000155562
-0.000167674
-0.00017955
-0.000191184
-0.000202572
-0.00021371
-0.000224599
-0.00023524
-0.000245633
-0.000255786
-0.000265707
-0.000275405
-0.000284888
-0.000294167
-0.000303254
-0.000312163
-0.000320908
-0.000329504
-0.000337968
-0.000346314
-0.00035456
-0.000362722
-0.000370818
-0.000378864
-0.000386878
-0.000394875
-0.000402873
-0.000410887
-0.000418933
-0.000427028
-0.000435186
-0.000443424
-0.000451756
-0.000460196
-0.000468762
-0.000477464
-0.000486321
-0.000495347
-0.000504556
-0.00051398
-0.000523647
-0.000533592
-0.000543907
-0.000554691
-0.000565792
-0.000576883
-0.000586683
-0.000595366
0.000124252
0.000109743
9.51799e-05
8.0572e-05
6.59095e-05
5.12021e-05
3.64761e-05
2.17574e-05
7.067e-06
-7.57641e-06
-2.21541e-05
-3.66465e-05
-5.10337e-05
-6.52961e-05
-7.94146e-05
-9.33709e-05
-0.000107147
-0.000120727
-0.000134094
-0.000147235
-0.000160136
-0.000172785
-0.000185173
-0.000197293
-0.000209137
-0.000220702
-0.000231988
-0.000242994
-0.000253722
-0.000264177
-0.000274369
-0.000284307
-0.000294002
-0.000303466
-0.000312713
-0.000321758
-0.000330619
-0.000339311
-0.000347853
-0.000356263
-0.000364557
-0.000372754
-0.000380873
-0.000388929
-0.000396941
-0.000404926
-0.0004129
-0.00042088
-0.000428883
-0.000436925
-0.000445024
-0.000453195
-0.000461457
-0.000469826
-0.000478322
-0.000486963
-0.000495769
-0.000504766
-0.000513982
-0.000523451
-0.000533238
-0.000543427
-0.000554118
-0.000565436
-0.000577291
-0.000589281
-0.000600444
-0.000609351
-0.000613853
0.0001174
0.000102114
8.67772e-05
7.14019e-05
5.59817e-05
4.05281e-05
2.50688e-05
9.63168e-06
-5.75996e-06
-2.10852e-05
-3.63231e-05
-5.1452e-05
-6.64499e-05
-8.12951e-05
-9.59666e-05
-0.000110444
-0.000124708
-0.000138741
-0.000152524
-0.000166044
-0.000179284
-0.000192235
-0.000204884
-0.000217225
-0.000229253
-0.000240964
-0.000252357
-0.000263437
-0.000274205
-0.00028467
-0.000294846
-0.000304744
-0.000314379
-0.000323766
-0.000332922
-0.000341868
-0.00035062
-0.000359201
-0.000367628
-0.000375922
-0.000384101
-0.000392186
-0.000400193
-0.000408142
-0.00041605
-0.000423933
-0.000431811
-0.000439698
-0.000447612
-0.000455571
-0.000463591
-0.00047169
-0.000479888
-0.000488203
-0.000496658
-0.000505275
-0.000514082
-0.000523121
-0.000532439
-0.000542108
-0.000552262
-0.000563044
-0.000574532
-0.000586653
-0.000598995
-0.000610905
-0.000621252
-0.000629245
-0.000633923
0.000108496
9.23763e-05
7.62059e-05
6.00037e-05
4.3768e-05
2.75125e-05
1.12661e-05
-4.94096e-06
-2.10826e-05
-3.71352e-05
-5.30751e-05
-6.88779e-05
-8.4519e-05
-9.99744e-05
-0.000115221
-0.000130235
-0.000144996
-0.000159483
-0.000173678
-0.000187564
-0.000201125
-0.000214349
-0.000227226
-0.000239748
-0.000251911
-0.000263712
-0.000275154
-0.000286241
-0.000296978
-0.000307382
-0.000317465
-0.000327245
-0.000336739
-0.000345967
-0.00035495
-0.00036371
-0.00037227
-0.000380652
-0.000388879
-0.000396971
-0.00040495
-0.000412837
-0.000420649
-0.000428405
-0.000436124
-0.000443822
-0.000451516
-0.000459224
-0.000466962
-0.000474746
-0.000482595
-0.000490525
-0.000498559
-0.000506714
-0.000515017
-0.000523497
-0.000532198
-0.000541188
-0.000550568
-0.000560462
-0.00057106
-0.000582416
-0.000594381
-0.000606528
-0.000618354
-0.000628999
-0.000637496
-0.000643453
-0.000645861
9.68073e-05
7.97872e-05
6.27189e-05
4.56287e-05
2.85203e-05
1.14092e-05
-5.67378e-06
-2.26958e-05
-3.96275e-05
-5.64419e-05
-7.31122e-05
-8.96111e-05
-0.000105911
-0.000121985
-0.000137808
-0.000153353
-0.000168597
-0.000183518
-0.000198096
-0.000212311
-0.000226148
-0.000239594
-0.000252638
-0.000265273
-0.000277496
-0.000289306
-0.000300708
-0.000311707
-0.000322316
-0.000332554
-0.000342438
-0.000351988
-0.000361228
-0.000370181
-0.000378874
-0.000387334
-0.000395588
-0.000403661
-0.000411578
-0.000419365
-0.000427042
-0.000434631
-0.00044215
-0.00044962
-0.000457056
-0.000464475
-0.000471893
-0.000479327
-0.000486791
-0.000494303
-0.000501878
-0.000509533
-0.000517289
-0.000525165
-0.000533199
-0.000541439
-0.000549968
-0.000558914
-0.000568423
-0.000578605
-0.000589521
-0.000600957
-0.000612482
-0.000623726
-0.000634029
-0.0006425
-0.000648722
-0.000652679
-0.000653666
8.12864e-05
6.33187e-05
4.53106e-05
2.72999e-05
9.29265e-06
-8.69511e-06
-2.6631e-05
-4.44795e-05
-6.22077e-05
-7.97851e-05
-9.71814e-05
-0.000114366
-0.000131309
-0.000147979
-0.000164348
-0.000180388
-0.000196072
-0.000211376
-0.000226277
-0.000240755
-0.000254792
-0.000268376
-0.000281495
-0.000294143
-0.000306318
-0.000318021
-0.000329258
-0.000340041
-0.000350388
-0.000360321
-0.000369861
-0.000379036
-0.000387875
-0.000396409
-0.000404671
-0.000412692
-0.000420506
-0.000428142
-0.000435629
-0.000442993
-0.000450256
-0.000457441
-0.000464565
-0.000471646
-0.0004787
-0.000485742
-0.000492786
-0.000499847
-0.000506938
-0.000514071
-0.00052126
-0.00052852
-0.000535876
-0.000543369
-0.000551062
-0.000559059
-0.000567479
-0.000576486
-0.000586106
-0.000596305
-0.000606818
-0.000617349
-0.0006276
-0.000637099
-0.000645017
-0.000651167
-0.000655604
-0.000658105
-0.000658143
6.11287e-05
4.22067e-05
2.32533e-05
4.32588e-06
-1.45707e-05
-3.34219e-05
-5.21936e-05
-7.08469e-05
-8.93453e-05
-0.000107655
-0.000125741
-0.000143572
-0.000161111
-0.000178328
-0.000195188
-0.000211662
-0.000227718
-0.000243331
-0.000258473
-0.000273124
-0.000287265
-0.000300881
-0.00031396
-0.000326498
-0.000338493
-0.000349949
-0.000360876
-0.000371291
-0.000381217
-0.000390679
-0.000399709
-0.00040834
-0.000416612
-0.000424562
-0.000432232
-0.000439662
-0.000446889
-0.00045395
-0.000460875
-0.000467694
-0.000474429
-0.0004811
-0.000487723
-0.000494314
-0.000500885
-0.000507448
-0.000514014
-0.000520595
-0.000527199
-0.000533838
-0.000540528
-0.000547297
-0.000554195
-0.000561312
-0.000568747
-0.000576621
-0.000584994
-0.000593876
-0.000603088
-0.00061238
-0.000621573
-0.000630546
-0.000638842
-0.000645839
-0.000651618
-0.00065625
-0.000659438
-0.000660818
-0.000660163
3.66405e-05
1.67686e-05
-3.12921e-06
-2.29691e-05
-4.27498e-05
-6.24584e-05
-8.20584e-05
-0.000101507
-0.000120765
-0.000139792
-0.000158553
-0.000177008
-0.00019512
-0.000212853
-0.000230169
-0.000247034
-0.000263413
-0.000279276
-0.000294594
-0.000309343
-0.000323502
-0.000337054
-0.000349988
-0.000362298
-0.000373985
-0.000385053
-0.000395518
-0.000405404
-0.000414737
-0.000423552
-0.000431888
-0.000439791
-0.00044731
-0.000454494
-0.000461396
-0.000468064
-0.000474545
-0.000480882
-0.00048711
-0.000493259
-0.000499351
-0.000505403
-0.000511426
-0.00051743
-0.00052342
-0.000529397
-0.000535368
-0.000541345
-0.000547343
-0.000553399
-0.000559562
-0.000565897
-0.00057247
-0.00057937
-0.000586634
-0.000594252
-0.000602142
-0.000610097
-0.000617936
-0.000625633
-0.000633102
-0.000639779
-0.000645518
-0.000650688
-0.000655315
-0.000658907
-0.000661056
-0.000661591
-0.000660464
9.4528e-06
-1.14375e-05
-3.23444e-05
-5.31632e-05
-7.38962e-05
-9.45307e-05
-0.000115027
-0.000135338
-0.000155418
-0.000175225
-0.000194717
-0.000213852
-0.000232587
-0.000250878
-0.000268686
-0.000285968
-0.000302687
-0.000318807
-0.000334295
-0.000349123
-0.000363265
-0.000376702
-0.00038942
-0.000401413
-0.000412681
-0.000423236
-0.000433096
-0.000442291
-0.000450856
-0.000458836
-0.000466281
-0.000473251
-0.000479809
-0.000486023
-0.000491956
-0.000497673
-0.000503232
-0.000508683
-0.000514069
-0.000519418
-0.000524749
-0.000530071
-0.000535388
-0.000540698
-0.000545998
-0.000551294
-0.000556596
-0.000561933
-0.000567349
-0.000572908
-0.000578705
-0.000584792
-0.000591158
-0.000597724
-0.00060438
-0.000611025
-0.000617546
-0.000623882
-0.000630017
-0.000635653
-0.000640411
-0.000644654
-0.000649044
-0.000653437
-0.00065713
-0.00065969
-0.000660956
-0.000660882
-0.000659495
-1.88874e-05
-4.09391e-05
-6.30038e-05
-8.4956e-05
-0.000106798
-0.000128515
-0.000150062
-0.000171388
-0.000192441
-0.000213174
-0.00023354
-0.000253489
-0.000272973
-0.000291943
-0.00031035
-0.000328147
-0.000345291
-0.000361738
-0.000377449
-0.000392388
-0.000406525
-0.000419834
-0.000432298
-0.000443908
-0.000454665
-0.000464583
-0.000473687
-0.000482012
-0.000489605
-0.000496524
-0.000502839
-0.000508626
-0.000513972
-0.000518965
-0.000523692
-0.000528238
-0.000532677
-0.000537068
-0.000541454
-0.00054586
-0.000550292
-0.000554744
-0.000559212
-0.000563696
-0.000568221
-0.000572835
-0.000577603
-0.000582571
-0.000587748
-0.000593082
-0.000598541
-0.000604084
-0.00060969
-0.000615256
-0.000620608
-0.00062569
-0.000630513
-0.000634927
-0.000638494
-0.000641226
-0.000644039
-0.000647546
-0.000651337
-0.000654722
-0.000657331
-0.000659019
-0.000659693
-0.000659295
-0.000657898
-4.59908e-05
-6.94989e-05
-9.29857e-05
-0.000116337
-0.000139553
-0.000162613
-0.000185468
-0.000208059
-0.000230332
-0.000252231
-0.000273702
-0.000294688
-0.000315134
-0.000334982
-0.000354178
-0.000372666
-0.000390392
-0.000407307
-0.000423361
-0.000438511
-0.000452717
-0.000465947
-0.000478178
-0.000489398
-0.000499606
-0.000508816
-0.000517054
-0.000524364
-0.000530804
-0.00053645
-0.000541395
-0.000545742
-0.000549604
-0.000553098
-0.000556343
-0.00055945
-0.000562516
-0.000565622
-0.000568824
-0.000572154
-0.000575624
-0.000579227
-0.000582947
-0.000586771
-0.000590703
-0.000594785
-0.000599091
-0.000603698
-0.000608565
-0.000613527
-0.000618282
-0.000622607
-0.000626632
-0.000630628
-0.000634498
-0.000637681
-0.000639766
-0.000641037
-0.000642303
-0.000644262
-0.000646897
-0.000649672
-0.000652282
-0.000654617
-0.000656452
-0.000657575
-0.000657876
-0.000657337
-0.000656057
-7.36493e-05
-9.87875e-05
-0.000123967
-0.000148999
-0.000173877
-0.000198576
-0.00022304
-0.000247202
-0.000270998
-0.000294366
-0.000317241
-0.000339557
-0.000361249
-0.000382249
-0.00040249
-0.000421908
-0.000440435
-0.000458009
-0.000474565
-0.000490043
-0.000504386
-0.000517548
-0.000529492
-0.000540197
-0.000549664
-0.000557908
-0.000564964
-0.000570884
-0.000575743
-0.000579637
-0.000582684
-0.000585023
-0.000586807
-0.000588203
-0.000589387
-0.000590531
-0.000591801
-0.000593343
-0.000595271
-0.000597655
-0.000600515
-0.0006038
-0.000607406
-0.000611163
-0.000614878
-0.000618385
-0.000621665
-0.000624836
-0.000628116
-0.000631807
-0.000635739
-0.000639124
-0.000641244
-0.000642343
-0.000643217
-0.000643553
-0.000643432
-0.000644002
-0.000645399
-0.000646924
-0.000648513
-0.00065033
-0.000652232
-0.000653928
-0.000655189
-0.00065587
-0.000655893
-0.00065526
-0.000654089
-9.34108e-05
-0.000120834
-0.000148089
-0.000175177
-0.000202092
-0.000228791
-0.00025521
-0.000281278
-0.000306924
-0.000332078
-0.000356666
-0.000380614
-0.000403846
-0.000426285
-0.000447854
-0.00046848
-0.000488092
-0.000506624
-0.000524005
-0.000540158
-0.000555
-0.000568456
-0.000580464
-0.000590979
-0.000599981
-0.000607473
-0.000613481
-0.00061806
-0.000621297
-0.000623315
-0.000624274
-0.000624371
-0.000623839
-0.000622937
-0.000621941
-0.000621121
-0.000620723
-0.000620935
-0.000621868
-0.000623518
-0.000625787
-0.000628489
-0.000631426
-0.00063444
-0.000637453
-0.000640397
-0.00064303
-0.000644857
-0.000645679
-0.000646223
-0.000647439
-0.000648922
-0.000648909
-0.000647289
-0.000646214
-0.000646364
-0.000646751
-0.00064696
-0.000647329
-0.000648111
-0.000649299
-0.000650687
-0.000652052
-0.00065318
-0.000653905
-0.00065412
-0.00065377
-0.000652887
-0.000651633
-0.000128994
-0.000158506
-0.000188238
-0.000217816
-0.000247209
-0.000276378
-0.000305245
-0.000333728
-0.000361743
-0.000389203
-0.00041602
-0.000442101
-0.000467353
-0.000491676
-0.00051497
-0.000537129
-0.000558044
-0.000577597
-0.000595646
-0.000612067
-0.000626807
-0.000639814
-0.000651011
-0.000660333
-0.000667754
-0.000673285
-0.000676975
-0.000678911
-0.000679218
-0.000678068
-0.000675682
-0.000672327
-0.000668313
-0.000663979
-0.000659685
-0.000655785
-0.000652605
-0.000650409
-0.000649353
-0.00064945
-0.000650517
-0.000652162
-0.000653802
-0.000654842
-0.000655125
-0.000655244
-0.000655811
-0.000656451
-0.00065594
-0.000653853
-0.000651587
-0.000650845
-0.000651132
-0.000651134
-0.000650377
-0.000649288
-0.000648525
-0.000648369
-0.000648662
-0.000649266
-0.000650102
-0.000651031
-0.00065187
-0.000652435
-0.000652574
-0.000652189
-0.000651249
-0.000649827
-0.000648172
-0.00014092
-0.000172857
-0.000204273
-0.000235768
-0.000267216
-0.000298408
-0.000329239
-0.000359636
-0.000389516
-0.000418786
-0.000447351
-0.000475113
-0.000501972
-0.000527829
-0.000552594
-0.000576201
-0.000598631
-0.000619912
-0.000639902
-0.000658186
-0.000674424
-0.000688518
-0.000700437
-0.000710113
-0.000717458
-0.000722402
-0.000724914
-0.000725014
-0.000722785
-0.000718398
-0.000712131
-0.000704381
-0.000695673
-0.000686655
-0.000678059
-0.000670647
-0.000665099
-0.000661903
-0.000661217
-0.000662785
-0.000665882
-0.000669404
-0.000671999
-0.000672144
-0.000668842
-0.000663422
-0.000658846
-0.000656841
-0.000656868
-0.000657357
-0.00065704
-0.000655568
-0.000653674
-0.000652261
-0.000651368
-0.00065071
-0.000650243
-0.000650035
-0.000650073
-0.000650315
-0.000650706
-0.000651153
-0.000651515
-0.000651614
-0.000651282
-0.000650401
-0.00064894
-0.000647
-0.000644704
-0.000232669
-0.000267274
-0.000302122
-0.000336659
-0.000370858
-0.000404771
-0.000438321
-0.000471363
-0.000503771
-0.000535435
-0.000566242
-0.000596064
-0.000624753
-0.000652142
-0.000678043
-0.000702236
-0.000724461
-0.000744427
-0.00076203
-0.000777442
-0.00079072
-0.00080166
-0.000810045
-0.00081574
-0.000818649
-0.000818689
-0.000815802
-0.000809997
-0.000801384
-0.000790188
-0.000776766
-0.000761609
-0.000745344
-0.000728722
-0.000712587
-0.000697818
-0.000685252
-0.00067557
-0.000669193
-0.000666161
-0.000666082
-0.000668125
-0.000671062
-0.000673473
-0.000674277
-0.000672908
-0.000669504
-0.000665021
-0.000660846
-0.000658026
-0.000656391
-0.000655099
-0.00065385
-0.000652788
-0.000652031
-0.000651524
-0.000651213
-0.000651061
-0.00065103
-0.00065109
-0.000651214
-0.000651359
-0.000651442
-0.000651319
-0.000650815
-0.00064977
-0.000648075
-0.00064576
-0.000643188
6.02887e-05
6.70423e-05
7.40996e-05
8.15812e-05
8.95581e-05
9.80566e-05
0.000107135
0.000116606
0.000126465
0.000136858
0.000147747
0.000159114
0.000170621
0.000183145
0.000195022
0.000207676
0.000219654
0.000232233
0.000244469
0.000256473
0.000269068
0.000279955
0.000290584
0.00030026
0.000309145
0.000317169
0.00032365
0.000329022
0.00033337
0.000336133
0.00033725
0.000337056
0.000335704
0.000333293
0.000329154
0.000324009
0.000317968
0.000310849
0.000302976
0.000294649
0.00028563
0.000276156
0.000266796
0.00025761
0.000247434
0.00023803
0.00022817
0.000218798
0.000209629
0.00020072
0.000192224
0.000184051
0.000176367
0.000168901
0.000162024
0.000155077
0.000148713
0.000142752
0.000137212
6.03463e-05
6.7287e-05
7.47071e-05
8.25854e-05
9.09509e-05
9.98163e-05
0.000109202
0.000119072
0.000129442
0.000140308
0.000151639
0.000163429
0.000175581
0.000188155
0.000200963
0.000213904
0.000226955
0.000239967
0.000252946
0.000265506
0.000277965
0.000289797
0.000300883
0.00031109
0.00032033
0.000328541
0.000335498
0.000341068
0.000345472
0.000348317
0.000349468
0.000349327
0.000347862
0.000345024
0.000340783
0.000335348
0.000328907
0.000321529
0.000313301
0.000304422
0.000295022
0.000285252
0.000275279
0.000265065
0.000254802
0.000244634
0.000234589
0.000224789
0.00021521
0.000205906
0.000196968
0.000188408
0.000180177
0.000172382
0.000164941
0.000157936
0.000151338
0.000145129
0.000139279
6.02902e-05
6.75358e-05
7.52546e-05
8.3476e-05
9.22125e-05
0.000101475
0.00011126
0.000121566
0.0001324
0.000143761
0.000155605
0.000167896
0.000180603
0.00019368
0.000207036
0.000220656
0.000234373
0.000248078
0.000261622
0.000274861
0.000287749
0.000300103
0.000311751
0.000322471
0.000332176
0.000340727
0.000347986
0.000353865
0.000358372
0.000361269
0.000362557
0.000362383
0.000360715
0.000357611
0.000353111
0.000347384
0.000340548
0.000332769
0.000324128
0.000314811
0.000304952
0.000294628
0.000284016
0.000273283
0.000262511
0.000251846
0.000241314
0.000230996
0.000220944
0.000211202
0.000201828
0.000192826
0.000184217
0.000176014
0.000168261
0.000160943
0.000154032
0.000147526
0.000141413
5.99651e-05
6.75242e-05
7.55796e-05
8.4156e-05
9.32722e-05
0.00010294
0.000113164
0.000123941
0.000135271
0.000147146
0.000159538
0.00017241
0.000185726
0.000199421
0.000213408
0.000227646
0.000241982
0.000256334
0.000270525
0.000284457
0.000297983
0.000310889
0.00032307
0.000334308
0.000344489
0.000353448
0.000361036
0.000367187
0.000371842
0.000374832
0.000376189
0.000375956
0.000374129
0.000370816
0.000366042
0.000359981
0.000352747
0.000344499
0.000335367
0.000325528
0.000315112
0.000304235
0.000293079
0.000281816
0.000270491
0.000259253
0.000248161
0.000237296
0.000226729
0.000216503
0.00020666
0.000197225
0.000188219
0.000179649
0.000171527
0.000163846
0.000156598
0.00014978
0.000143385
5.92965e-05
6.71865e-05
7.55997e-05
8.45593e-05
9.40842e-05
0.000104187
0.000114875
0.000126149
0.000138005
0.00015043
0.0001634
0.000176881
0.000190828
0.000205175
0.000219843
0.000234746
0.000249768
0.0002648
0.000279691
0.00029431
0.000308494
0.000322032
0.00033479
0.000346572
0.000357238
0.000366623
0.000374573
0.000380995
0.000385825
0.000388924
0.000390313
0.000390019
0.00038805
0.000384515
0.000379455
0.000373031
0.000365372
0.000356637
0.000346979
0.000336569
0.000325564
0.000314112
0.000302375
0.0002905
0.000278579
0.000266738
0.000255067
0.000243644
0.000232537
0.000221796
0.00021146
0.000201559
0.000192111
0.000183127
0.00017461
0.00016656
0.00015897
0.000151831
0.000145136
5.82403e-05
6.64816e-05
7.52725e-05