/*--------------------------------*- C++ -*----------------------------------*\
| =========                 |                                                 |
| \\      /  F ield         | OpenFOAM: The Open Source CFD Toolbox           |
|  \\    /   O peration     | Version:  2312                                  |
|   \\  /    A nd           | Website:  www.openfoam.com                      |
|    \\/     M anipulation  |                                                 |
\*---------------------------------------------------------------------------*/
FoamFile
{
    version     2.0;
    format      ascii;
    arch        "LSB;label=32;scalar=64";
    class       surfaceScalarField;
    location    "300";
    object      phi;
}
// * * * * * * * * * * * * * * * * * * * * * * * * * * * * * * * * * * * * * //

dimensions      [0 3 -1 0 0 0 0];

oriented        oriented;

internalField   nonuniform List<scalar> 
116611
(
0.00109555
0.000409653
-0.00107969
-0.00042551
0.00111128
0.000405233
-0.000420968
0.00112685
0.000400463
-0.000416032
0.00114227
0.000395323
-0.000410737
0.00115744
0.000389801
-0.000404975
0.00117266
0.000383874
-0.000399095
0.00118744
0.000377545
-0.000392323
0.00120219
0.000370794
-0.000385544
0.00121659
0.000363588
-0.000377987
0.00123081
0.000355929
-0.000370147
0.00124476
0.000347791
-0.000361742
0.00125851
0.000339178
-0.000352935
0.00127199
0.000330089
-0.000343569
0.00128516
0.000320465
-0.000333627
0.00129811
0.00031034
-0.000323293
0.00131055
0.000299673
-0.000312115
0.0013229
0.000288419
-0.000300766
0.00133475
0.000276636
-0.000288483
0.00134632
0.000264192
-0.000275765
0.00135742
0.000251221
-0.000262324
0.00136825
0.000237549
-0.000248375
0.00137859
0.000223282
-0.000233625
0.00138846
0.000208341
-0.000218211
0.00139797
0.000192768
-0.000202278
0.001407
0.000176506
-0.000185532
0.00141554
0.000159526
-0.000168072
0.00142364
0.000141793
-0.000149888
0.00143104
0.000123381
-0.000130789
0.00143817
0.000104232
-0.000111362
0.00144448
8.42565e-05
-9.05612e-05
0.00145041
6.36091e-05
-6.95356e-05
0.0014555
4.2013e-05
-4.71043e-05
0.00146015
1.96574e-05
-2.43105e-05
0.00146403
-3.4771e-06
-4.03852e-07
0.00146736
-2.75287e-05
2.41949e-05
0.00146991
-5.23588e-05
4.98117e-05
0.00147194
-7.81182e-05
7.60896e-05
0.00147314
-0.000104786
0.000103582
0.00147351
-0.000132323
0.000131962
0.00147306
-0.000160831
0.000161277
0.00147189
-0.000190167
0.00019134
0.00146999
-0.00022048
0.000222379
0.00146711
-0.000251762
0.000254635
0.00146332
-0.000283917
0.000287712
0.00145872
-0.000317051
0.000321655
0.00145321
-0.0003511
0.000356603
0.00144676
-0.000386178
0.000392627
0.00143922
-0.00042216
0.000429704
0.00143085
-0.00045906
0.000467425
0.00142149
-0.000496941
0.000506307
0.0014111
-0.000535833
0.000546225
0.00139971
-0.000575679
0.000587062
0.00138724
-0.00061652
0.000628991
0.00137365
-0.000658364
0.000671952
0.00135903
-0.000701165
0.000715792
0.00134365
-0.000744929
0.000760306
0.00132724
-0.000789929
0.000806344
0.00131006
-0.000836029
0.000853207
0.00129192
-0.000883382
0.000901521
0.00127269
-0.000931887
0.000951118
0.00125214
-0.000981351
0.0010019
0.0012298
-0.00103154
0.00105388
0.00120558
-0.00108172
0.00110594
0.00117877
-0.00113145
0.00115826
0.00114906
-0.00118007
0.00120979
0.00111659
-0.00122693
0.0012594
0.00108041
-0.001272
0.00130818
0.00103979
-0.00131433
0.00135496
-0.00135232
0.000996264
0.00139585
0.00107937
0.00039385
-0.00106356
0.00109502
0.000389579
0.00111052
0.000384959
0.00112587
0.000379981
0.00114106
0.000374611
0.00115606
0.000368868
0.00117088
0.00036273
0.0011855
0.000356176
0.00119989
0.000349199
0.00121404
0.000341771
0.00122795
0.000333884
0.0012416
0.000325532
0.00125499
0.000316695
0.0012681
0.000307359
0.00128091
0.000297529
0.00129342
0.00028716
0.00130559
0.000276254
0.00131744
0.000264786
0.00132888
0.000252743
0.00134
0.000240106
0.00135069
0.000226858
0.00136098
0.000212996
0.00137082
0.000198496
0.00138024
0.000183351
0.00138921
0.000167539
0.00139771
0.000151026
0.00140568
0.000133824
0.00141314
0.000115916
0.0014201
9.72747e-05
0.00142646
7.78937e-05
0.00143232
5.77474e-05
0.00143753
3.68021e-05
0.00144212
1.50736e-05
0.00144609
-7.45228e-06
0.00144938
-3.0819e-05
0.00145204
-5.50166e-05
0.001454
-8.0078e-05
0.00145522
-0.000106002
0.0014557
-0.00013281
0.00145539
-0.00016052
0.00145434
-0.00018911
0.00145246
-0.000218609
0.00144973
-0.000249024
0.00144617
-0.000280357
0.00144173
-0.000312619
0.00143643
-0.000345801
0.00143019
-0.000379929
0.00142301
-0.000414987
0.00141493
-0.000450976
0.0014059
-0.000487909
0.00139588
-0.000525813
0.00138488
-0.000564683
0.0013729
-0.000604538
0.00135994
-0.000645406
0.00134608
-0.0006873
0.0013314
-0.000730252
0.00131583
-0.000774361
0.00129942
-0.000819613
0.00128201
-0.000865972
0.0012634
-0.000913277
0.00124328
-0.000961237
0.00122121
-0.00100947
0.00119691
-0.00105741
0.00116998
-0.00110453
0.00114021
-0.0011503
0.00110754
-0.00119425
0.00107165
-0.00123611
0.00103253
-0.00127521
-0.00131076
0.000990973
0.00106364
0.000378151
-0.00104794
0.00107921
0.000374009
0.00109464
0.000369528
0.00110992
0.000364698
0.00112503
0.000359504
0.00113996
0.000353937
0.0011547
0.000347984
0.00116925
0.000341631
0.00118358
0.000334865
0.00119768
0.000327671
0.00121153
0.000320033
0.00122513
0.00031194
0.00123845
0.000303376
0.00125148
0.000294327
0.00126422
0.000284784
0.00127665
0.000274728
0.00128876
0.000264145
0.00130053
0.000253019
0.00131194
0.000241333
0.00132297
0.000229072
0.00133361
0.000216222
0.00134384
0.000202767
0.00135364
0.000188692
0.00136301
0.000173984
0.00137192
0.000158625
0.00138035
0.000142597
0.00138829
0.000125888
0.00139572
0.000108484
0.00140263
9.03687e-05
0.00140899
7.15267e-05
0.0014148
5.19402e-05
0.00142001
3.15931e-05
0.00142461
1.04747e-05
0.00142859
-1.14341e-05
0.00143192
-3.41529e-05
0.0014346
-5.76927e-05
0.00143659
-8.2066e-05
0.00143787
-0.000107286
0.00143843
-0.000133368
0.00143823
-0.00016032
0.00143727
-0.000188146
0.00143551
-0.000216855
0.00143295
-0.000246459
0.00142956
-0.000276966
0.00142531
-0.000308377
0.00142021
-0.000340697
0.00141422
-0.000373935
0.00140733
-0.000408096
0.00139953
-0.000443181
0.00139083
-0.000479204
0.0013812
-0.000516186
0.00137066
-0.000554145
0.00135923
-0.000593108
0.00134693
-0.000633107
0.0013338
-0.000674172
0.00131988
-0.000716329
0.00130511
-0.000759594
0.00128941
-0.000803911
0.00127258
-0.000849142
0.00125435
-0.000895041
0.00123437
-0.000941264
0.00121229
-0.000987393
0.00118782
-0.00103294
0.00116075
-0.00107745
0.00113093
-0.00112049
0.00109837
-0.00116169
0.00106302
-0.00120077
0.00102501
-0.00123719
-0.00127046
0.0009847
0.00104846
0.000362541
-0.00103285
0.00106395
0.000358526
0.00107929
0.000354183
0.00109449
0.000349503
0.00110952
0.000344474
0.00112437
0.000339082
0.00113904
0.000333316
0.00115351
0.000327163
0.00116776
0.00032061
0.00118179
0.000313642
0.00119558
0.000306247
0.00120911
0.00029841
0.00122237
0.000290118
0.00123534
0.000281355
0.00124802
0.000272108
0.00126038
0.000262363
0.00127242
0.000252105
0.00128412
0.000241319
0.00129546
0.00022999
0.00130643
0.000218102
0.00131702
0.000205641
0.00132719
0.000192592
0.00133694
0.000178939
0.00134626
0.000164667
0.00135512
0.000149762
0.00136351
0.000134206
0.00137142
0.000117986
0.00137881
0.000101086
0.00138569
8.34924e-05
0.00139203
6.51888e-05
0.00139781
4.61605e-05
0.00140301
2.6392e-05
0.00140761
5.87104e-06
0.0014116
-1.54255e-05
0.00141496
-3.75113e-05
0.00141767
-6.03987e-05
0.0014197
-8.41003e-05
0.00142105
-0.000108629
0.00142167
-0.000133997
0.00142157
-0.000160213
0.00142071
-0.000187287
0.00141908
-0.000215226
0.00141666
-0.000244041
0.00141343
-0.000273738
0.00140938
-0.000304324
0.00140449
-0.000335806
0.00139874
-0.000368191
0.00139214
-0.000401491
0.00138467
-0.000435714
0.00137635
-0.000470878
0.00136717
-0.00050701
0.00135716
-0.000544138
0.00134635
-0.000582293
0.00133475
-0.000621506
0.00132237
-0.000661793
0.00130918
-0.000703141
0.00129508
-0.000745496
0.0012799
-0.00078873
0.00126339
-0.000832631
0.00124525
-0.000876906
0.00122519
-0.000921197
0.00120291
-0.000965115
0.00117822
-0.00100826
0.00115102
-0.00105024
0.00112126
-0.00109073
0.001089
-0.00112943
0.00105435
-0.00116611
0.00101749
-0.00120033
-0.00123171
0.000978737
0.00103386
0.000347017
-0.00101833
0.00104925
0.00034313
0.00106451
0.000338927
0.00107962
0.000334396
0.00109456
0.000329528
0.00110933
0.000324311
0.00112392
0.000318731
0.0011383
0.000312777
0.00115248
0.000306436
0.00116643
0.000299694
0.00118014
0.000292538
0.00119359
0.000284954
0.00120678
0.000276929
0.00121969
0.000268448
0.0012323
0.000259498
0.0012446
0.000250064
0.00125657
0.000240131
0.0012682
0.000229685
0.00127948
0.000218711
0.00129039
0.000207195
0.00130091
0.00019512
0.00131103
0.000182473
0.00132073
0.000169239
0.00133
0.000155401
0.00133881
0.000140946
0.00134716
0.000125858
0.00135503
0.000110121
0.00136239
9.37216e-05
0.00136924
7.66446e-05
0.00137555
5.8875e-05
0.00138131
4.03981e-05
0.00138651
2.11997e-05
0.00139111
1.26649e-06
0.00139511
-1.94264e-05
0.00139849
-4.08895e-05
0.00140123
-6.31355e-05
0.0014033
-8.6177e-05
0.0014047
-0.000110027
0.0014054
-0.000134696
0.00140538
-0.000160195
0.00140463
-0.000186534
0.00140312
-0.000213722
0.00140085
-0.000241768
0.00139779
-0.000270681
0.00139394
-0.000300471
0.00138928
-0.000331146
0.00138381
-0.00036272
0.00137753
-0.000395206
0.00137044
-0.000428624
0.00136255
-0.000462997
0.0013539
-0.000498355
0.00134449
-0.000534729
0.00133434
-0.000572142
0.00132344
-0.000610604
0.00131174
-0.000650093
0.00129914
-0.000690545
0.00128549
-0.000731841
0.00127055
-0.000773793
0.00125407
-0.000816152
0.00123578
-0.000858619
0.00121545
-0.000900865
0.00119289
-0.000942556
0.001168
-0.000983366
0.00114075
-0.00102299
0.00111119
-0.00106117
0.00107943
-0.00109767
0.00104563
-0.00113231
0.00101001
-0.00116472
-0.00119442
0.000972723
0.00101984
0.00033158
-0.00100441
0.00103515
0.000327822
0.00105032
0.000323758
0.00106534
0.000319378
0.00108019
0.000314672
0.00109488
0.000309628
0.00110937
0.000304234
0.00112367
0.000298478
0.00113776
0.000292348
0.00115162
0.00028583
0.00116525
0.000278911
0.00117863
0.000271579
0.00119174
0.000263819
0.00120457
0.000255618
0.0012171
0.000246962
0.00122933
0.000237837
0.00124123
0.000228228
0.0012528
0.00021812
0.00126401
0.0002075
0.00127485
0.000196352
0.00128531
0.000184662
0.00129537
0.000172414
0.00130501
0.000159595
0.00131423
0.000146188
0.00132299
0.00013218
0.0013313
0.000117554
0.00133912
0.000102297
0.00134645
8.63925e-05
0.00135327
6.98269e-05
0.00135956
5.25854e-05
0.0013653
3.46535e-05
0.00137048
1.60177e-05
0.00137509
-3.33786e-06
0.0013791
-2.34359e-05
0.00138249
-4.42864e-05
0.00138526
-6.59022e-05
0.00138738
-8.82961e-05
0.00138883
-0.00011148
0.0013896
-0.000135467
0.00138968
-0.000160267
0.00138903
-0.000185891
0.00138766
-0.000212349
0.00138555
-0.000239653
0.00138268
-0.000267813
0.00137905
-0.000296842
0.00137466
-0.000326754
0.0013695
-0.000357566
0.0013636
-0.0003893
0.00135695
-0.00042198
0.00134959
-0.000455631
0.00134151
-0.000490281
0.00133273
-0.000525947
0.00132322
-0.000562629
0.00131292
-0.000600301
0.00130172
-0.000638893
0.00128946
-0.000678293
0.00127596
-0.000718333
0.00126097
-0.000758803
0.00124426
-0.000799451
0.00122565
-0.000840005
0.00120497
-0.000880185
0.00118213
-0.000919718
0.00115711
-0.000958348
0.00112995
-0.000995833
0.00110075
-0.00103197
0.00106968
-0.00106659
0.00103694
-0.00109957
0.00100276
-0.00113054
-0.00115877
0.000967098
0.00100645
0.00031623
-0.000991097
0.00102167
0.000312602
0.00103675
0.000308677
0.00105168
0.000304449
0.00106644
0.000299905
0.00108104
0.000295035
0.00109544
0.000289827
0.00110965
0.000284269
0.00112365
0.000278349
0.00113743
0.000272055
0.00115096
0.000265373
0.00116425
0.000258291
0.00117728
0.000250795
0.00119002
0.000242872
0.00120248
0.000234508
0.00121462
0.000225689
0.00122645
0.000216402
0.00123794
0.00020663
0.00124908
0.000196361
0.00125985
0.000185579
0.00127024
0.000174271
0.00128024
0.00016242
0.00128982
0.000150012
0.00129897
0.000137033
0.00130769
0.000123467
0.00131594
0.0001093
0.00132372
9.45168e-05
0.00133101
7.91025e-05
0.00133779
6.30427e-05
0.00134406
4.63229e-05
0.00134978
2.89288e-05
0.00135495
1.08473e-05
0.00135955
-7.94046e-06
0.00136357
-2.74533e-05
0.00136699
-4.77022e-05
0.00136979
-6.87002e-05
0.00137195
-9.04603e-05
0.00137347
-0.000112995
0.00137432
-0.000136317
0.00137449
-0.000160438
0.00137397
-0.000185371
0.00137275
-0.000211127
0.00137081
-0.000237721
0.00136817
-0.000265167
0.00136481
-0.000293482
0.00136074
-0.000322684
0.00135597
-0.000352796
0.00135051
-0.000383841
0.00134437
-0.000415843
0.00133756
-0.000448822
0.00133007
-0.000482787
0.00132185
-0.00051773
0.00131284
-0.000553618
0.00130292
-0.000590382
0.00129194
-0.000627915
0.00127972
-0.000666073
0.00126606
-0.000704673
0.00125077
-0.000743508
0.00123367
-0.000782355
0.00121465
-0.000820982
0.00119362
-0.000859161
0.00117058
-0.000896675
0.00114556
-0.000933323
0.00111864
-0.000968921
0.00109
-0.00100332
0.00105984
-0.00103644
0.00102839
-0.00106812
0.000995794
-0.00109794
-0.0011244
0.000961426
0.00099369
0.000300964
-0.000978424
0.00100883
0.000297466
0.00102382
0.000293683
0.00103866
0.000289607
0.00105334
0.000285227
0.00106784
0.000280532
0.00108216
0.00027551
0.00109628
0.000270151
0.00111019
0.000264442
0.00112387
0.000258371
0.00113732
0.000251926
0.00115052
0.000245093
0.00116345
0.000237861
0.00117611
0.000230215
0.00118847
0.000222142
0.00120053
0.000213628
0.00121228
0.00020466
0.00122368
0.000195223
0.00123474
0.000185302
0.00124544
0.000174884
0.00125576
0.000163954
0.00126568
0.000152496
0.00127519
0.000140497
0.00128429
0.000127941
0.00129294
0.000114814
0.00130114
0.000101101
0.00130887
8.67864e-05
0.00131612
7.18562e-05
0.00132286
5.62957e-05
0.0013291
4.00904e-05
0.0013348
2.32261e-05
0.00133996
5.68961e-06
0.00134456
-1.25406e-05
0.00134858
-3.14796e-05
0.00135202
-5.11396e-05
0.00135485
-7.15342e-05
0.00135707
-9.26769e-05
0.00135866
-0.000114581
0.0013596
-0.000137261
0.00135989
-0.000160729
0.00135952
-0.000185001
0.00135849
-0.000210092
0.00135678
-0.000236018
0.00135441
-0.000262798
0.00135139
-0.000290453
0.0013477
-0.000319003
0.00134338
-0.000348469
0.00133841
-0.000378873
0.00133279
-0.000410224
0.00132649
-0.000442526
0.00131947
-0.000475762
0.00131163
-0.000509894
0.00130287
-0.000544853
0.00129303
-0.000580544
0.00128195
-0.000616839
0.00126947
-0.000653588
0.00125542
-0.000690619
0.00123966
-0.000727749
0.00122209
-0.00076479
0.00120266
-0.000801554
0.00118136
-0.000837862
0.00115823
-0.000873543
0.00113336
-0.000908447
0.00110688
-0.000942444
0.00107902
-0.000975458
0.00105003
-0.00100745
0.00102012
-0.0010382
0.000989065
-0.00106689
-0.00108988
0.000954546
0.000981597
0.000285777
-0.000966409
0.000996651
0.000282411
0.00101156
0.000278772
0.00102632
0.000274849
0.00104091
0.000270634
0.00105533
0.000266115
0.00106956
0.000261282
0.00108359
0.000256122
0.0010974
0.000250625
0.001111
0.000244778
0.00112435
0.00023857
0.00113746
0.000231988
0.0011503
0.000225018
0.00116287
0.000217649
0.00117514
0.000209866
0.00118711
0.000201657
0.00119877
0.000193007
0.00121009
0.000183902
0.00122106
0.000174328
0.00123167
0.000164271
0.00124191
0.000153717
0.00125176
0.000142649
0.0012612
0.000131055
0.00127022
0.000118919
0.00127881
0.000106226
0.00128695
9.2961e-05
0.00129463
7.91097e-05
0.00130182
6.46572e-05
0.00130853
4.95887e-05
0.00131473
3.38898e-05
0.00132041
1.75461e-05
0.00132556
5.43308e-07
0.00133016
-1.71411e-05
0.0013342
-3.55197e-05
0.00133767
-5.46064e-05
0.00134055
-7.44157e-05
0.00134283
-9.49622e-05
0.00134451
-0.000116261
0.00134558
-0.000138327
0.00134603
-0.000161177
0.00134585
-0.000184827
0.00134506
-0.000209297
0.00134364
-0.000234604
0.00134161
-0.000260769
0.00133897
-0.000287812
0.00133572
-0.00031575
0.00133185
-0.000344596
0.00132733
-0.000374356
0.00132213
-0.000405024
0.00131618
-0.000436576
0.00130939
-0.000468972
0.00130164
-0.000502146
0.0012928
-0.000536014
0.00128273
-0.000570468
0.00127127
-0.000605383
0.0012583
-0.00064062
0.00124371
-0.000676031
0.00122743
-0.000711465
0.00120941
-0.00074677
0.00118965
-0.000781797
0.0011682
-0.000816407
0.00114513
-0.000850475
0.00112058
-0.0008839
0.00109476
-0.000916617
0.00106792
-0.000948621
0.00104035
-0.000979879
0.00101202
-0.00100988
0.000981769
-0.00103664
-0.00105295
0.000944837
0.000970194
0.000270665
-0.000955082
0.000985171
0.000267434
0.001
0.000263939
0.00101468
0.000260173
0.00102919
0.000256124
0.00104352
0.000251783
0.00105766
0.000247139
0.00107161
0.00024218
0.00108534
0.000236896
0.00109884
0.000231275
0.0011121
0.000225305
0.00112512
0.000218973
0.00113787
0.000212268
0.00115034
0.000205175
0.00116253
0.000197683
0.00117441
0.000189777
0.00118597
0.000181444
0.0011972
0.000172671
0.00120809
0.000163442
0.00121861
0.000153745
0.00122877
0.000143563
0.00123853
0.000132883
0.0012479
0.00012169
0.00125685
0.000109969
0.00126537
9.77054e-05
0.00127344
8.48836e-05
0.00128106
7.1489e-05
0.00128822
5.75066e-05
0.00129488
4.29216e-05
0.00130105
2.7719e-05
0.00130671
1.18847e-05
0.00131186
-4.59868e-06
0.00131647
-2.17517e-05
0.00132054
-3.95876e-05
0.00132405
-5.81216e-05
0.001327
-7.73697e-05
0.00132939
-9.73479e-05
0.0013312
-0.000118073
0.00133244
-0.000139562
0.0013331
-0.000161834
0.00133317
-0.000184907
0.00133268
-0.000208799
0.0013316
-0.000233528
0.00132994
-0.000259111
0.00132769
-0.00028556
0.00132482
-0.000312883
0.0013213
-0.000341077
0.00131708
-0.000370129
0.00131207
-0.000400014
0.00130618
-0.000430689
0.0012993
-0.000462096
0.00129132
-0.000494162
0.0012821
-0.000526796
0.00127153
-0.000559899
0.00125951
-0.000593358
0.00124594
-0.000627057
0.00123079
-0.000660873
0.00121401
-0.000694686
0.00119561
-0.000728375
0.00117564
-0.000761828
0.00115418
-0.000794945
0.00113136
-0.000827649
0.00110735
-0.000859894
0.00108242
-0.00089169
0.00105687
-0.000923069
0.0010308
-0.000953811
0.0010034
-0.000982477
0.000971226
-0.00100446
-0.00100674
0.000925018
0.000959522
0.000255626
-0.000944483
0.000974425
0.000252531
0.000989181
0.000249183
0.00100378
0.000245573
0.00101821
0.000241693
0.00103246
0.000237531
0.00104652
0.000233078
0.00106038
0.000228322
0.00107403
0.000223253
0.00108744
0.000217858
0.00110062
0.000212127
0.00111355
0.000206047
0.00112621
0.000199606
0.00113859
0.000192791
0.00115069
0.000185589
0.00116247
0.000177988
0.00117395
0.000169972
0.00118509
0.000161529
0.00119589
0.000152645
0.00120633
0.000143304
0.0012164
0.000133494
0.00122608
0.000123198
0.00123537
0.000112403
0.00124425
0.000101092
0.0012527
8.92518e-05
0.00126072
7.68663e-05
0.00126829
6.39203e-05
0.00127539
5.03987e-05
0.00128203
3.62861e-05
0.00128818
2.15671e-05
0.00129384
6.22695e-06
0.00129899
-9.75494e-06
0.00130364
-2.63965e-05
0.00130776
-4.37131e-05
0.00131136
-6.17214e-05
0.00131443
-8.04388e-05
0.00131697
-9.98826e-05
0.00131897
-0.000120071
0.00132042
-0.000141021
0.00132134
-0.000162751
0.00132171
-0.000185277
0.00132153
-0.000208614
0.00132077
-0.000232774
0.00131943
-0.000257764
0.00131745
-0.000283584
0.00131479
-0.000310227
0.00131139
-0.000337677
0.00130717
-0.000365906
0.00130203
-0.000394876
0.00129588
-0.000424535
0.00128861
-0.000454822
0.00128011
-0.000485665
0.0012703
-0.000516983
0.00125908
-0.000548688
0.00124641
-0.000580688
0.00123224
-0.000612888
0.00121656
-0.00064519
0.00119938
-0.000677501
0.00118073
-0.00070973
0.0011607
-0.000741801
0.00113942
-0.000773658
0.00111704
-0.000805277
0.00109384
-0.000836686
0.00107009
-0.000867948
0.00104601
-0.000898984
0.00102103
-0.000928832
0.000992418
-0.000953865
0.000953039
-0.000965082
-0.000945482
0.000891782
0.000949636
0.000240658
-0.000934668
0.000964468
0.000237699
0.000979152
0.000234498
0.000993678
0.000231047
0.00100803
0.000227336
0.00102221
0.000223356
0.00103619
0.000219095
0.00104997
0.000214543
0.00106354
0.00020969
0.00107687
0.000204524
0.00108996
0.000199033
0.00110281
0.000193206
0.00111538
0.00018703
0.00112768
0.000180493
0.00113969
0.000173583
0.00115139
0.000166285
0.00116278
0.000158586
0.00117383
0.000150473
0.00118455
0.000141931
0.00119491
0.000132946
0.0012049
0.000123503
0.00121451
0.000113588
0.00122372
0.000103185
0.00123254
9.22787e-05
0.00124094
8.08545e-05
0.00124891
6.88963e-05
0.00125644
5.63884e-05
0.00126352
4.33149e-05
0.00127015
2.96599e-05
0.00127631
1.54076e-05
0.00128199
5.4139e-07
0.0012872
-1.49611e-05
0.00129192
-3.11164e-05
0.00129615
-4.79416e-05
0.00129988
-6.54541e-05
0.00130311
-8.36715e-05
0.00130584
-0.000102611
0.00130806
-0.000122288
0.00130976
-0.000142719
0.00131092
-0.000163917
0.00131154
-0.000185893
0.00131158
-0.000208653
0.001311
-0.0002322
0.00130977
-0.00025653
0.00130782
-0.000281632
0.00130508
-0.00030749
0.00130148
-0.000334078
0.00129694
-0.00036136
0.00129136
-0.000389296
0.00128466
-0.000417835
0.00127675
-0.000446921
0.00126758
-0.000476489
0.00125707
-0.000506472
0.00124518
-0.000536798
0.00123188
-0.000567391
0.00121717
-0.000598178
0.00120107
-0.000629083
0.00118361
-0.00066004
0.00116487
-0.00069099
0.00114496
-0.000721898
0.00112407
-0.000752761
0.00110241
-0.000783624
0.0010803
-0.000814575
0.00105796
-0.000845604
0.00103502
-0.000876049
0.00100928
-0.000903091
0.000974758
-0.00091934
0.000920653
-0.000910977
-0.000861152
0.000836323
0.000940611
0.000225755
-0.000925709
0.000955377
0.000222934
0.000969993
0.000219882
0.000984451
0.00021659
0.000998738
0.00021305
0.00101284
0.000209251
0.00102675
0.000205183
0.00104046
0.000200837
0.00105395
0.0001962
0.00106721
0.000191263
0.00108023
0.000186014
0.00109299
0.000180441
0.00110549
0.000174531
0.00111771
0.000168273
0.00112964
0.000161653
0.00114127
0.000154658
0.00115258
0.000147275
0.00116357
0.000139489
0.00117421
0.000131287
0.0011845
0.000122654
0.00119443
0.000113574
0.00120398
0.000104034
0.00121315
9.40163e-05
0.00122192
8.35063e-05
0.00123029
7.2488e-05
0.00123824
6.0945e-05
0.00124577
4.88612e-05
0.00125286
3.622e-05
0.00125952
2.3005e-05
0.00126573
9.19967e-06
0.00127148
-5.2152e-06
0.00127678
-2.02606e-05
0.00128162
-3.59527e-05
0.00128598
-5.23083e-05
0.00128987
-6.93437e-05
0.00129328
-8.70743e-05
0.00129618
-0.000105514
0.00129857
-0.000124675
0.00130042
-0.000144568
0.0013017
-0.000165199
0.00130238
-0.000186571
0.00130241
-0.000208684
0.00130174
-0.000231531
0.00130031
-0.000255104
0.00129806
-0.000279383
0.00129492
-0.000304349
0.00129082
-0.000329972
0.00128567
-0.000356219
0.00127943
-0.00038305
0.00127201
-0.000410421
0.00126338
-0.000438284
0.00125347
-0.000466585
0.00124227
-0.000495269
0.00122975
-0.000524278
0.00121591
-0.000553555
0.00120078
-0.000583043
0.00118439
-0.000612693
0.00116682
-0.000642468
0.00114817
-0.000672346
0.00112862
-0.000702347
0.0011084
-0.000732534
0.00108778
-0.000763009
0.001067
-0.000793794
0.00104576
-0.000824362
0.00102213
-0.000852426
0.000990786
-0.000871744
0.000942059
-0.000870614
0.000865328
-0.000834245
-0.000755158
0.000759334
0.000932556
0.00021091
-0.000917711
0.000947264
0.000208227
0.000961822
0.000205323
0.000976221
0.000202191
0.000990448
0.000198822
0.00100449
0.000195205
0.00101835
0.000191332
0.00103199
0.000187191
0.00104542
0.000182772
0.00105862
0.000178064
0.00107158
0.000173056
0.00108428
0.000167736
0.00109672
0.000162091
0.00110888
0.00015611
0.00112076
0.000149779
0.00113233
0.000143086
0.00114359
0.000136015
0.00115453
0.000128554
0.00116513
0.000120687
0.00117538
0.000112399
0.00118528
0.000103676
0.00119481
9.45024e-05
0.00120397
8.48612e-05
0.00121273
7.47367e-05
0.00122111
6.41126e-05
0.00122908
5.29722e-05
0.00123665
4.1299e-05
0.00124379
2.90761e-05
0.00125051
1.6287e-05
0.00125679
2.91495e-06
0.00126264
-1.10608e-05
0.00126803
-2.56573e-05
0.00127297
-4.08894e-05
0.00127743
-5.67718e-05
0.00128141
-7.33175e-05
0.00128487
-9.05383e-05
0.0012878
-0.000108444
0.00129017
-0.000127041
0.00129193
-0.000146334
0.00129306
-0.000166326
0.0012935
-0.000187013
0.00129321
-0.00020839
0.00129213
-0.000230449
0.0012902
-0.000253174
0.00128736
-0.000276549
0.00128357
-0.000300551
0.00127875
-0.000325154
0.00127286
-0.000350328
0.00126584
-0.000376037
0.00125767
-0.000402246
0.0012483
-0.000428914
0.00123771
-0.000455997
0.00122589
-0.000483452
0.00121285
-0.000511236
0.0011986
-0.000539308
0.0011832
-0.000567635
0.0011667
-0.000596194
0.00114921
-0.000624986
0.00113091
-0.000654043
0.00111201
-0.00068345
0.0010928
-0.000713319
0.00107346
-0.000743675
0.0010537
-0.000774028
0.00103169
-0.00080235
0.00100243
-0.000823171
0.000956798
-0.000826109
0.000884029
-0.000797845
0.000779587
-0.000729803
-0.000627225
0.000651653
0.000925648
0.000196106
-0.000910844
0.000940316
0.00019356
0.000954834
0.000190804
0.000969194
0.000187832
0.000983383
0.000184633
0.000997391
0.000181198
0.00101121
0.000177517
0.00102482
0.00017358
0.00103821
0.000169377
0.00105138
0.000164897
0.0010643
0.000160129
0.00107698
0.000155059
0.00108939
0.000149678
0.00110153
0.000143971
0.00111339
0.000137926
0.00112494
0.000131529
0.00113619
0.000124767
0.00114712
0.000117625
0.00115772
0.000110088
0.00116798
0.000102141
0.00117789
9.37685e-05
0.00118743
8.49549e-05
0.00119661
7.56839e-05
0.00120541
6.59393e-05
0.00121382
5.57046e-05
0.00122182
4.49634e-05
0.00122942
3.36993e-05
0.0012366
2.1896e-05
0.00124335
9.53758e-06
0.00124966
-3.39307e-06
0.00125552
-1.69141e-05
0.0012609
-3.10391e-05
0.00126579
-4.57807e-05
0.00127017
-6.11507e-05
0.00127401
-7.7159e-05
0.00127728
-9.38139e-05
0.00127996
-0.000111121
0.00128201
-0.000129085
0.00128338
-0.000147707
0.00128404
-0.000166985
0.00128394
-0.000186914
0.00128304
-0.000207488
0.00128129
-0.000228697
0.00127864
-0.000250525
0.00127504
-0.000272957
0.00127046
-0.000295972
0.00126486
-0.000319547
0.00125819
-0.000343656
0.00125042
-0.00036827
0.00124153
-0.000393358
0.00123151
-0.000418889
0.00122034
-0.000444829
0.00120803
-0.000471147
0.00119461
-0.000497816
0.00118012
-0.000524817
0.00116463
-0.000552141
0.00114824
-0.000579808
0.00113112
-0.000607866
0.00111349
-0.000636415
0.00109562
-0.000665575
0.00107765
-0.000695347
0.00105918
-0.000725207
0.00103834
-0.000753188
0.00101029
-0.000774299
0.000966282
-0.000779164
0.000895998
-0.000755825
0.000794192
-0.000696038
0.000666775
-0.000602387
-0.00048602
0.000525571
0.00092021
0.000181309
-0.000905414
0.000934871
0.000178898
0.000949386
0.000176289
0.000963744
0.000173474
0.000977933
0.000170443
0.000991943
0.000167187
0.00100576
0.000163697
0.00101938
0.000159963
0.00103278
0.000155974
0.00104596
0.000151719
0.0010589
0.000147187
0.0010716
0.000142367
0.00108403
0.000137246
0.00109619
0.000131812
0.00110806
0.000126052
0.00111964
0.000119951
0.00113091
0.000113497
0.00114186
0.000106674
0.00115248
9.94688e-05
0.00116276
9.18652e-05
0.00117268
8.38481e-05
0.00118223
7.54017e-05
0.0011914
6.65102e-05
0.00120018
5.71576e-05
0.00120856
4.73278e-05
0.00121652
3.70049e-05
0.00122405
2.61733e-05
0.00123112
1.48175e-05
0.00123774
2.92236e-06
0.00124388
-9.52917e-06
0.00124951
-2.25511e-05
0.00125463
-3.61553e-05
0.0012592
-5.03531e-05
0.0012632
-6.5154e-05
0.00126661
-8.05661e-05
0.00126939
-9.65956e-05
0.00127152
-0.000113247
0.00127295
-0.000130521
0.00127367
-0.000148419
0.00127362
-0.000166937
0.00127278
-0.000186071
0.0012711
-0.000205812
0.00126855
-0.00022615
0.0012651
-0.000247073
0.00126071
-0.000268564
0.00125534
-0.000290607
0.00124898
-0.000313181
0.00124159
-0.000336265
0.00123315
-0.000359834
0.00122366
-0.000383867
0.00121311
-0.000408337
0.00120151
-0.000433226
0.00118887
-0.000458516
0.00117526
-0.000484201
0.00116073
-0.000510289
0.0011454
-0.000536813
0.00112944
-0.000563846
0.00111306
-0.000591489
0.00109651
-0.000619858
0.00107983
-0.0006489
0.00106248
-0.000677995
0.00104234
-0.000705072
0.00101451
-0.000725352
0.000970483
-0.000730275
0.000900479
-0.000709161
0.000799475
-0.00065482
0.000672938
-0.000569501
0.000535209
-0.000464658
-0.000354044
0.000403233
0.000916783
0.000166473
-0.000901947
0.000931487
0.000164195
0.000946047
0.00016173
0.000960451
0.00015907
0.000974687
0.000156206
0.000988745
0.000153129
0.00100261
0.00014983
0.00101628
0.000146298
0.00102973
0.000142524
0.00104295
0.000138498
0.00105593
0.000134207
0.00106865
0.000129641
0.00108111
0.000124787
0.00109329
0.000119633
0.00110518
0.000114167
0.00111675
0.000108375
0.00112801
0.000102243
0.00113892
9.57566e-05
0.00114949
8.89019e-05
0.00115969
8.16637e-05
0.00116951
7.40269e-05
0.00117894
6.59759e-05
0.00118796
5.74952e-05
0.00119654
4.8569e-05
0.00120469
3.91817e-05
0.00121238
2.93178e-05
0.00121959
1.8962e-05
0.00122631
8.09925e-06
0.00123251
-3.28583e-06
0.00123819
-1.52087e-05
0.00124333
-2.76818e-05
0.00124789
-4.07166e-05
0.00125186
-5.43234e-05
0.00125521
-6.85109e-05
0.00125793
-8.32861e-05
0.00125999
-9.8654e-05
0.00126136
-0.000114618
0.00126202
-0.000131178
0.00126193
-0.000148334
0.00126108
-0.000166082
0.00125942
-0.000184416
0.00125694
-0.000203328
0.0012536
-0.000222809
0.00124937
-0.000242847
0.00124424
-0.000263428
0.00123817
-0.000284537
0.00123114
-0.000306157
0.00122315
-0.000328272
0.00121418
-0.000350864
0.00120423
-0.000373918
0.00119331
-0.000397421
0.00118146
-0.000421368
0.0011687
-0.000445763
0.00115513
-0.000470632
0.00114087
-0.000496023
0.00112608
-0.000522021
0.00111097
-0.000548742
0.00109574
-0.000576256
0.00108029
-0.000604413
0.00106381
-0.000632414
0.0010438
-0.000657984
0.00101508
-0.000676353
0.000969319
-0.000679594
0.000897383
-0.000658339
0.000795015
-0.000606792
0.000667661
-0.000527466
0.0005291
-0.00043094
0.000395281
-0.000330839
-0.000236957
0.000278194
0.000915882
0.00015157
-0.000900979
0.00093065
0.000149427
0.000945269
0.000147111
0.000959727
0.000144613
0.00097401
0.000141923
0.000988107
0.000139033
0.001002
0.000135934
0.00101568
0.000132617
0.00102914
0.000129072
0.00104234
0.000125289
0.00105529
0.000121256
0.00106797
0.000116963
0.00108036
0.000112398
0.00109245
0.000107549
0.00110421
0.000102403
0.00111564
9.6947e-05
0.00112671
9.11675e-05
0.00113742
8.50505e-05
0.00114774
7.85815e-05
0.00115766
7.17455e-05
0.00116716
6.45276e-05
0.00117622
5.69121e-05
0.00118483
4.88835e-05
0.00119297
4.0426e-05
0.00120063
3.15238e-05
0.00120779