/*--------------------------------*- C++ -*----------------------------------*\
| =========                 |                                                 |
| \\      /  F ield         | OpenFOAM: The Open Source CFD Toolbox           |
|  \\    /   O peration     | Version:  2312                                  |
|   \\  /    A nd           | Website:  www.openfoam.com                      |
|    \\/     M anipulation  |                                                 |
\*---------------------------------------------------------------------------*/
FoamFile
{
    version     2.0;
    format      ascii;
    arch        "LSB;label=32;scalar=64";
    class       volVectorField;
    location    "300";
    object      U;
}
// * * * * * * * * * * * * * * * * * * * * * * * * * * * * * * * * * * * * * //

dimensions      [0 1 -1 0 0 0 0];

internalField   nonuniform List<vector> 
76025
(
(0.0369978 -0.00715262 0)
(0.0371799 -0.00721945 2.83867e-22)
(0.0373637 -0.00728197 0)
(0.0375502 -0.0073412 0)
(0.0377347 -0.00739798 -4.39829e-22)
(0.0379285 -0.00744537 -7.50529e-22)
(0.03812 -0.00749312 1.24574e-21)
(0.0383163 -0.00753266 -5.07933e-22)
(0.0385109 -0.00757086 -1.32734e-22)
(0.0387065 -0.00760439 1.10875e-22)
(0.0389036 -0.0076331 4.61402e-24)
(0.0391036 -0.007655 1.70107e-22)
(0.0393065 -0.00767498 -2.37068e-22)
(0.0395087 -0.00768839 0)
(0.039715 -0.00769375 3.71945e-25)
(0.0399173 -0.00770172 0)
(0.0401237 -0.00769589 0)
(0.0403296 -0.00769385 0)
(0.0405367 -0.00767994 -7.65969e-23)
(0.0407423 -0.00766783 1.12459e-22)
(0.040949 -0.00764524 1.34765e-22)
(0.0411575 -0.00761995 4.67144e-22)
(0.0413636 -0.00758869 -3.24561e-22)
(0.0415704 -0.00755069 -6.16364e-22)
(0.0417771 -0.0075108 -4.40034e-23)
(0.0419826 -0.00746969 -2.94818e-22)
(0.0421902 -0.00741396 7.99273e-22)
(0.0423939 -0.00735796 -8.3605e-22)
(0.0426002 -0.00729431 3.01275e-22)
(0.0428049 -0.00722231 -3.22795e-22)
(0.0430053 -0.00715928 -3.48652e-22)
(0.043203 -0.00709139 7.88821e-22)
(0.0434003 -0.00700712 -1.20399e-21)
(0.043597 -0.0069285 -2.3331e-22)
(0.0437919 -0.00683669 1.12471e-21)
(0.0439852 -0.00674917 1.1212e-23)
(0.0441779 -0.0066554 -2.3286e-22)
(0.0443697 -0.00655093 1.2469e-22)
(0.044559 -0.00645114 5.67005e-24)
(0.0447422 -0.00634385 -1.94475e-22)
(0.0449235 -0.00623633 1.29836e-22)
(0.0451066 -0.0061233 -6.56912e-23)
(0.045286 -0.00599719 1.32686e-22)
(0.0454623 -0.00587742 -2.73834e-22)
(0.045634 -0.00574943 -2.87088e-22)
(0.0458065 -0.00562431 5.51752e-22)
(0.0459752 -0.00548675 5.83329e-22)
(0.0461409 -0.00535023 -1.77397e-21)
(0.0463034 -0.00521099 1.16128e-21)
(0.0464664 -0.00507144 -1.19649e-23)
(0.0466283 -0.00492868 -3.00823e-21)
(0.046788 -0.00478109 -1.18022e-21)
(0.0469462 -0.00463136 1.23171e-21)
(0.0471022 -0.00448009 0)
(0.047256 -0.00432582 -1.19093e-21)
(0.0474164 -0.00417236 -1.2389e-21)
(0.0475843 -0.00401411 3.40756e-23)
(0.0477603 -0.00385351 -1.19435e-21)
(0.04795 -0.00369366 1.19498e-21)
(0.0481459 -0.00352931 -3.42448e-21)
(0.0483514 -0.00337715 -2.31915e-21)
(0.0485477 -0.00321841 -1.06733e-22)
(0.0487194 -0.0030507 0)
(0.0488511 -0.00287498 5.25456e-21)
(0.048916 -0.00269007 -1.91429e-21)
(0.048906 -0.00249368 9.91379e-22)
(0.0488086 -0.00229613 -1.83523e-21)
(0.0485851 -0.00211356 1.89925e-21)
(0.0482312 -0.00192889 3.5082e-21)
(0.0368854 -0.00748094 3.13283e-22)
(0.0370765 -0.00754966 8.42828e-22)
(0.0372698 -0.00761392 -1.13281e-21)
(0.0374655 -0.00767371 0)
(0.037662 -0.00772991 1.09063e-21)
(0.0378629 -0.0077801 -8.97057e-23)
(0.0380647 -0.00782659 -7.70199e-22)
(0.0382685 -0.00786778 0)
(0.0384739 -0.00790436 3.90304e-24)
(0.0386802 -0.00793623 -1.14398e-22)
(0.0388878 -0.00796326 9.17396e-23)
(0.0390966 -0.00798482 6.91671e-24)
(0.0393065 -0.00800167 0)
(0.0395178 -0.00801332 0)
(0.0397309 -0.00801858 -5.42849e-23)
(0.0399436 -0.00802058 9.65022e-23)
(0.0401577 -0.00801564 5.72614e-23)
(0.0403716 -0.00800714 -2.54304e-22)
(0.0405861 -0.00799227 1.73186e-22)
(0.0408 -0.00797351 -1.15707e-22)
(0.0410143 -0.00794873 1.76562e-22)
(0.0412281 -0.00791895 -3.16339e-22)
(0.0414412 -0.00788398 4.11372e-22)
(0.041654 -0.00784325 -6.62048e-22)
(0.0418665 -0.00779768 4.61063e-22)
(0.0420784 -0.00774787 8.14796e-22)
(0.0422897 -0.00769162 -5.59288e-22)
(0.0424991 -0.00763129 0)
(0.0427079 -0.00756548 0)
(0.0429155 -0.00749505 -3.77717e-22)
(0.0431218 -0.00741985 0)
(0.0433269 -0.00734081 -4.29802e-22)
(0.0435296 -0.0072556 4.5498e-22)
(0.0437303 -0.00716678 -6.95576e-22)
(0.0439291 -0.00707325 1.24083e-23)
(0.0441262 -0.00697604 -2.43528e-22)
(0.0443219 -0.00687376 0)
(0.0445152 -0.00676837 -5.33306e-22)
(0.044706 -0.00666043 4.08883e-22)
(0.044894 -0.00654833 -3.42025e-22)
(0.0450798 -0.00643156 2.1092e-22)
(0.0452638 -0.00631075 -1.7541e-24)
(0.0454451 -0.00618783 7.89898e-23)
(0.0456236 -0.00606217 -7.35076e-23)
(0.0458001 -0.00593193 6.16139e-22)
(0.0459748 -0.00579785 -3.12789e-22)
(0.0461472 -0.00566095 -3.27765e-22)
(0.0463171 -0.00552188 6.14882e-22)
(0.046485 -0.00537794 1.90599e-21)
(0.0466522 -0.00523048 -5.51748e-24)
(0.0468182 -0.00508065 1.91318e-21)
(0.0469829 -0.00492825 -6.50732e-22)
(0.0471476 -0.00477406 -1.93246e-21)
(0.0473132 -0.00461831 1.28328e-21)
(0.0474815 -0.00446001 0)
(0.047656 -0.00429774 3.87721e-21)
(0.0478406 -0.00413568 1.80177e-23)
(0.0480354 -0.00397265 -1.2596e-21)
(0.0482405 -0.00380899 -1.27998e-21)
(0.0484507 -0.00364293 0)
(0.0486566 -0.00347221 1.14725e-21)
(0.0488434 -0.00329577 3.46795e-21)
(0.0489914 -0.00310794 0)
(0.0490846 -0.00290832 -2.16868e-21)
(0.049106 -0.00269652 1.19804e-21)
(0.0490431 -0.00247182 -2.11619e-21)
(0.0488897 -0.00224463 1.04251e-21)
(0.0486276 -0.00201678 -2.00767e-21)
(0.0482582 -0.00175706 -1.92561e-21)
(0.0367663 -0.00782706 -1.54161e-21)
(0.0369667 -0.00789688 9.44849e-22)
(0.0371699 -0.00796232 -2.76797e-22)
(0.0373756 -0.00802301 9.63319e-22)
(0.0375834 -0.00807899 -1.18858e-21)
(0.0377932 -0.00813 -7.70491e-22)
(0.038005 -0.00817604 9.47316e-22)
(0.0382187 -0.00821697 0)
(0.0384342 -0.00825273 5.03232e-24)
(0.0386511 -0.00828328 0)
(0.038869 -0.00830857 -7.94018e-23)
(0.0390879 -0.00832851 6.25701e-23)
(0.0393075 -0.00834304 1.18719e-22)
(0.0395279 -0.0083522 -8.9088e-23)
(0.0397492 -0.00835575 -9.41071e-24)
(0.0399711 -0.00835388 -1.36095e-22)
(0.0401935 -0.00834654 4.4956e-23)
(0.0404161 -0.00833373 8.18935e-23)
(0.0406386 -0.00831559 3.71489e-22)
(0.0408609 -0.00829193 -2.50989e-22)
(0.0410828 -0.00826292 -1.71368e-22)
(0.041304 -0.00822847 3.99584e-22)
(0.0415246 -0.00818861 -1.78456e-22)
(0.0417444 -0.0081432 -2.47611e-22)
(0.0419635 -0.00809247 0)
(0.0421815 -0.00803665 2.98952e-22)
(0.042398 -0.00797571 3.26382e-22)
(0.0426132 -0.00790953 -3.03429e-22)
(0.0428273 -0.00783809 0)
(0.0430399 -0.00776185 7.83203e-22)
(0.0432511 -0.00768044 -4.30067e-22)
(0.0434604 -0.00759464 -2.50758e-23)
(0.0436674 -0.00750412 0)
(0.0438724 -0.00740905 2.40143e-22)
(0.0440753 -0.00730995 -7.69154e-22)
(0.044276 -0.00720668 5.14329e-22)
(0.0444746 -0.00709954 0)
(0.0446709 -0.00698881 4.18032e-22)
(0.0448648 -0.00687427 -4.24612e-22)
(0.0450563 -0.00675602 -7.10073e-23)
(0.0452453 -0.00663386 0)
(0.0454319 -0.00650827 -1.51162e-22)
(0.0456162 -0.00637943 -7.79218e-23)
(0.0457982 -0.00624686 7.55192e-23)
(0.0459779 -0.00611073 -4.65943e-22)
(0.0461554 -0.00597128 -3.27551e-22)
(0.046331 -0.00582889 6.34927e-22)
(0.0465046 -0.00568317 -6.62007e-22)
(0.0466767 -0.00553396 6.73205e-22)
(0.046848 -0.00538189 -6.57522e-22)
(0.0470191 -0.00522748 -6.55054e-22)
(0.0471907 -0.00507073 1.3709e-21)
(0.0473643 -0.00491187 0)
(0.0475416 -0.00475116 1.37412e-21)
(0.047725 -0.00458851 1.83241e-23)
(0.047917 -0.00442387 -1.3476e-21)
(0.0481194 -0.004258 -1.33362e-21)
(0.0483309 -0.00408973 2.61724e-21)
(0.0485474 -0.00391786 -1.91902e-23)
(0.0487599 -0.00374019 1.29571e-21)
(0.048956 -0.00355406 -2.53832e-21)
(0.0491198 -0.00335731 -1.26695e-21)
(0.0492343 -0.00314712 8.56499e-24)
(0.049285 -0.00292262 -1.15292e-21)
(0.0492599 -0.00268408 -1.07454e-21)
(0.0491504 -0.00243252 -3.44172e-21)
(0.0489521 -0.00217293 0)
(0.0486539 -0.001905 -1.12149e-21)
(0.0482681 -0.00160731 1.11632e-21)
(0.0366435 -0.00819203 0)
(0.0368541 -0.00826288 3.0345e-22)
(0.0370675 -0.0083291 1.34787e-21)
(0.0372834 -0.00839032 -1.06579e-21)
(0.0375017 -0.00844642 -6.36816e-22)
(0.037722 -0.00849732 1.06613e-21)
(0.0379443 -0.00854286 -1.7989e-22)
(0.0381684 -0.00858299 1.49969e-22)
(0.0383942 -0.00861762 1.30013e-22)
(0.0386213 -0.00864673 3.56328e-22)
(0.0388496 -0.00867024 -3.47622e-22)
(0.0390788 -0.00868808 -1.5156e-22)
(0.0393088 -0.00870019 9.71122e-23)
(0.0395394 -0.00870657 -2.25506e-24)
(0.0397703 -0.00870715 5.95762e-23)
(0.0400016 -0.00870193 -5.9012e-23)
(0.040233 -0.00869097 8.52226e-23)
(0.0404644 -0.00867423 1.11455e-22)
(0.0406956 -0.0086518 -4.05472e-22)
(0.0409263 -0.00862365 1.2024e-22)
(0.0411563 -0.00858982 1.72394e-22)
(0.0413856 -0.00855032 0)
(0.0416138 -0.00850518 5.10285e-22)
(0.041841 -0.00845445 -2.42969e-22)
(0.042067 -0.00839825 -5.94663e-22)
(0.0422915 -0.00833671 -6.73345e-22)
(0.0425145 -0.00826983 1.32537e-21)
(0.0427359 -0.00819761 -7.28739e-22)
(0.0429555 -0.00812021 0)
(0.0431733 -0.00803779 -8.35629e-22)
(0.0433892 -0.00795048 -2.45317e-23)
(0.043603 -0.00785848 9.18098e-22)
(0.0438145 -0.0077617 -5.1106e-22)
(0.0440238 -0.00766054 1.30627e-21)
(0.0442307 -0.00755529 -2.49356e-22)
(0.0444352 -0.00744595 0)
(0.0446374 -0.00733269 0)
(0.0448371 -0.00721559 1.49309e-22)
(0.0450343 -0.00709477 1.45602e-22)
(0.0452289 -0.00697036 7.79698e-23)
(0.0454211 -0.00684236 -2.48354e-24)
(0.0456108 -0.00671086 7.72956e-23)
(0.0457981 -0.00657597 0)
(0.0459832 -0.00643773 -7.17131e-24)
(0.0461662 -0.00629626 0)
(0.0463471 -0.00615158 3.24178e-22)
(0.0465265 -0.00600381 8.09638e-24)
(0.0467045 -0.00585299 -1.0341e-21)
(0.0468818 -0.00569922 0)
(0.0470592 -0.00554277 -6.98884e-22)
(0.047238 -0.00538398 6.87747e-22)
(0.0474194 -0.00522315 -1.3658e-21)
(0.0476054 -0.00506055 0)
(0.047798 -0.00489639 -4.19242e-21)
(0.047999 -0.00473053 1.62616e-23)
(0.0482093 -0.00456246 1.36825e-21)
(0.0484279 -0.00439143 1.35229e-21)
(0.0486506 -0.0042158 0)
(0.0488695 -0.00403339 0)
(0.0490733 -0.00384155 -1.26969e-21)
(0.0492482 -0.00363765 2.48754e-21)
(0.0493798 -0.00341975 2.43717e-21)
(0.0494544 -0.00318632 0)
(0.0494612 -0.00293698 -2.48737e-21)
(0.0493919 -0.00267232 0)
(0.0492413 -0.00239355 3.53875e-21)
(0.049008 -0.00210353 -1.21022e-21)
(0.0486842 -0.00180147 -1.23886e-21)
(0.0482882 -0.00146454 -1.33587e-21)
(0.0365174 -0.00857729 0)
(0.0367388 -0.00864913 0)
(0.036963 -0.00871602 2.81182e-22)
(0.0371897 -0.00877756 -9.6821e-22)
(0.0374187 -0.00883363 1.19231e-21)
(0.0376499 -0.00888415 -2.03273e-22)
(0.0378831 -0.00892899 0)
(0.038118 -0.00896805 -1.50917e-22)
(0.0383544 -0.00900127 0)
(0.0385922 -0.00902859 -1.62745e-22)
(0.0388311 -0.00904996 6.28641e-23)
(0.039071 -0.00906531 1.08947e-22)
(0.0393115 -0.00907462 0)
(0.0395525 -0.00907786 5.19041e-23)
(0.0397937 -0.00907499 -2.3719e-22)
(0.040035 -0.00906604 2.49953e-22)
(0.0402761 -0.00905101 -4.57718e-22)
(0.0405168 -0.00902993 1.00868e-22)
(0.0407571 -0.00900282 -1.56153e-22)
(0.0409966 -0.00896974 1.64826e-22)
(0.0412352 -0.0089307 2.16491e-22)
(0.0414727 -0.00888577 -6.66298e-22)
(0.041709 -0.00883501 -5.09744e-22)
(0.0419438 -0.0087785 0)
(0.042177 -0.00871634 6.42357e-22)
(0.0424086 -0.00864863 3.75821e-22)
(0.0426382 -0.00857545 -1.04975e-21)
(0.0428659 -0.0084969 3.77622e-22)
(0.0430914 -0.00841312 -8.59518e-22)
(0.0433148 -0.00832423 1.29576e-21)
(0.0435359 -0.00823039 -4.87049e-22)
(0.0437546 -0.0081317 2.57692e-22)
(0.0439708 -0.00802821 0)
(0.0441844 -0.00792054 -2.66628e-22)
(0.0443955 -0.00780873 -2.75157e-22)
(0.0446039 -0.00769289 0)
(0.0448098 -0.00757314 3.05923e-22)
(0.045013 -0.00744962 -4.59871e-22)
(0.0452135 -0.00732248 3.06936e-22)
(0.0454115 -0.00719181 -1.59501e-22)
(0.0456069 -0.00705768 -2.71549e-24)
(0.0457999 -0.00692018 -1.26416e-22)
(0.0459906 -0.00677942 4.13416e-23)
(0.0461792 -0.0066355 1.6649e-22)
(0.0463658 -0.00648849 3.43329e-24)
(0.046551 -0.00633847 1.04139e-21)
(0.0467351 -0.00618559 0)
(0.0469189 -0.00603 6.94927e-22)
(0.0471032 -0.0058719 -7.87318e-24)
(0.0472894 -0.00571155 -7.10236e-22)
(0.047479 -0.00554931 0)
(0.0476738 -0.00538545 -7.28018e-22)
(0.0478756 -0.0052201 7.13528e-22)
(0.0480856 -0.00505307 1.4064e-21)
(0.0483043 -0.00488373 0)
(0.04853 -0.00471086 -2.8088e-21)
(0.0487584 -0.00453272 2.79216e-21)
(0.0489824 -0.00434703 -2.75178e-21)
(0.0491919 -0.00415121 -4.2229e-23)
(0.0493748 -0.00394274 0)
(0.0495187 -0.0037195 -1.31766e-21)
(0.0496119 -0.00348012 1.25662e-21)
(0.0496445 -0.00322387 1.355e-21)
(0.049609 -0.00295081 2.47907e-21)
(0.0495006 -0.00266145 -3.91772e-21)
(0.0493168 -0.00235696 2.58899e-21)
(0.0490585 -0.00203883 -1.32041e-21)
(0.0487191 -0.00170647 1.47695e-21)
(0.0483242 -0.00133035 4.09923e-21)
(0.0363882 -0.0089849 -1.27097e-21)
(0.036621 -0.00905759 1.07179e-22)
(0.0368566 -0.00912497 1.18245e-21)
(0.0370947 -0.00918665 0)
(0.0373352 -0.00924246 -2.28041e-22)
(0.0375778 -0.00929233 0)
(0.0378223 -0.00933616 3.13196e-22)
(0.0380685 -0.00937383 -5.55519e-23)
(0.0383162 -0.00940527 -3.65985e-22)
(0.0385651 -0.00943044 8.08708e-23)
(0.0388151 -0.00944928 6.30582e-23)
(0.0390659 -0.00946174 2.35041e-23)
(0.0393172 -0.00946781 0)
(0.0395689 -0.00946745 0)
(0.0398206 -0.00946067 4.69635e-23)
(0.0400723 -0.00944746 7.44383e-23)
(0.0403235 -0.00942787 -2.47947e-22)
(0.0405741 -0.00940191 2.48029e-22)
(0.0408239 -0.00936963 3.33093e-22)
(0.0410727 -0.00933109 -4.15179e-22)
(0.0413202 -0.00928635 8.65072e-22)
(0.0415664 -0.00923548 3.24282e-23)
(0.0418109 -0.00917858 -5.50765e-22)
(0.0420537 -0.00911574 -3.18097e-22)
(0.0422945 -0.00904708 -6.93162e-22)
(0.0425333 -0.00897271 6.95347e-22)
(0.0427698 -0.00889276 8.04566e-22)
(0.043004 -0.00880736 -8.07763e-22)
(0.0432357 -0.00871665 0)
(0.0434649 -0.00862077 0)
(0.0436914 -0.00851989 1.26117e-21)
(0.0439153 -0.00841412 4.07605e-23)
(0.0441363 -0.00830365 -5.45008e-22)
(0.0443545 -0.00818907 -5.88094e-22)
(0.0445698 -0.00807038 5.81165e-22)
(0.0447823 -0.00794771 0)
(0.044992 -0.00782123 -3.04999e-22)
(0.0451989 -0.00769108 -4.89383e-22)
(0.045403 -0.00755741 3.2132e-22)
(0.0456045 -0.00742034 -3.95681e-24)
(0.0458035 -0.00727998 -2.69809e-23)
(0.0460001 -0.00713645 1.26725e-22)
(0.0461947 -0.00698986 8.94798e-23)
(0.0463874 -0.00684034 1.79467e-22)
(0.0465789 -0.00668802 -8.90861e-22)
(0.0467695 -0.00653305 3.15454e-24)
(0.0469603 -0.00637564 0)
(0.0471521 -0.00621601 -7.51966e-22)
(0.0473464 -0.00605443 2.22805e-21)
(0.0475446 -0.00589117 -1.49287e-21)
(0.0477485 -0.00572645 -7.50707e-22)
(0.0479595 -0.0055603 -2.34059e-23)
(0.0481785 -0.00539242 -7.37934e-22)
(0.0484051 -0.00522203 -2.69303e-23)
(0.0486372 -0.00504778 1.44595e-21)
(0.0488704 -0.00486777 -1.47525e-21)
(0.0490979 -0.00467969 -1.43619e-21)
(0.0493108 -0.00448107 2.80764e-21)
(0.0494987 -0.0042695 -1.93161e-23)
(0.0496509 -0.00404298 1.37536e-21)
(0.0497575 -0.00380005 -1.3394e-21)
(0.0498101 -0.00353987 1.30843e-21)
(0.0498021 -0.00326219 -2.61201e-21)
(0.049729 -0.00296717 -1.35792e-21)
(0.0495887 -0.00265503 2.6506e-21)
(0.049381 -0.00232687 -1.5024e-21)
(0.049109 -0.00198234 -4.48374e-21)
(0.0487656 -0.00162142 -1.4458e-21)
(0.0483799 -0.00120456 0)
(0.0362562 -0.00941676 0)
(0.0365012 -0.00949014 -3.10424e-22)
(0.036749 -0.00955782 -2.18325e-24)
(0.0369993 -0.00961938 0)
(0.0372519 -0.00967467 0)
(0.0375066 -0.00972361 -1.90311e-22)
(0.0377631 -0.0097661 4.59814e-22)
(0.0380212 -0.00980201 -5.39613e-22)
(0.0382808 -0.0098313 2.50182e-22)
(0.0385414 -0.0098539 -8.11638e-23)
(0.038803 -0.00986978 0)
(0.0390652 -0.00987889 -2.35855e-23)
(0.0393278 -0.00988123 -2.00652e-23)
(0.0395905 -0.00987677 0)
(0.0398532 -0.00986553 0)
(0.0401155 -0.00984753 1.18937e-22)
(0.0403771 -0.0098228 5.81409e-23)
(0.0406379 -0.0097914 -2.86602e-22)
(0.0408976 -0.00975337 -3.80868e-22)
(0.041156 -0.00970881 4.02704e-22)
(0.0414128 -0.00965778 2.33627e-22)
(0.0416679 -0.00960041 1.12361e-21)
(0.041921 -0.00953678 2.9831e-23)
(0.042172 -0.00946704 -3.712e-22)
(0.0424207 -0.00939131 6.91601e-22)
(0.0426669 -0.00930974 -4.01047e-22)
(0.0429105 -0.00922248 8.06959e-22)
(0.0431514 -0.00912969 0)
(0.0433895 -0.00903153 0)
(0.0436246 -0.00892818 0)
(0.0438568 -0.00881981 -2.58711e-22)
(0.0440859 -0.00870655 -5.58218e-22)
(0.0443119 -0.00858875 5.73931e-22)
(0.0445348 -0.00846687 6.1751e-22)
(0.0447546 -0.00834095 -6.10294e-22)
(0.0449714 -0.00821117 0)
(0.0451851 -0.00807771 3.32906e-22)
(0.045396 -0.00794072 -1.65602e-22)
(0.0456041 -0.00780038 0)
(0.0458095 -0.00765684 1.73985e-22)
(0.0460126 -0.00751025 -3.3208e-23)
(0.0462137 -0.00736076 2.21157e-23)
(0.0464131 -0.00720854 -8.89608e-23)
(0.0466114 -0.00705376 0)
(0.0468093 -0.00689662 -3.76543e-22)
(0.0470077 -0.00673737 3.70849e-22)
(0.0472077 -0.00657625 0)
(0.0474107 -0.00641352 -2.39415e-23)
(0.0476181 -0.00624941 7.41728e-24)
(0.0478314 -0.00608403 7.4814e-22)
(0.0480516 -0.00591727 0)
(0.0482789 -0.00574865 -3.20111e-23)
(0.0485124 -0.00557725 -7.40674e-22)
(0.0487496 -0.00540163 -2.28025e-21)
(0.048986 -0.00521986 -4.64958e-23)
(0.049215 -0.00502971 1.43659e-21)
(0.0494288 -0.00482884 0)
(0.0496186 -0.00461505 0)
(0.0497753 -0.00438648 1.44899e-21)
(0.0498906 -0.00414176 0)
(0.0499576 -0.00387998 0)
(0.0499709 -0.00360066 -2.47972e-23)
(0.0499266 -0.0033037 -1.40337e-21)
(0.0498228 -0.00298909 -2.93469e-21)
(0.0496597 -0.00265666 2.99814e-21)
(0.0494393 -0.00230729 -1.83331e-22)
(0.049167 -0.00193773 1.51446e-21)
(0.0488318 -0.00154986 1.72077e-21)
(0.0484617 -0.00108488 0)
(0.0361218 -0.00987492 0)
(0.0363799 -0.00994884 3.11023e-22)
(0.0366407 -0.0100166 -8.10626e-22)
(0.0369041 -0.0100778 2.81842e-22)
(0.0371696 -0.0101323 0)
(0.0374372 -0.01018 5.34997e-22)
(0.0377065 -0.0102208 -7.86437e-22)
(0.0379773 -0.0102546 6.10669e-23)
(0.0382494 -0.0102813 4.79601e-22)
(0.0385224 -0.0103009 -1.01859e-22)
(0.0387962 -0.0103134 2.55969e-23)
(0.0390704 -0.0103186 -5.71095e-24)
(0.0393448 -0.0103167 1.06305e-22)
(0.0396192 -0.0103076 -2.33261e-22)
(0.0398932 -0.0102913 1.47031e-22)
(0.0401666 -0.0102679 -1.58797e-22)
(0.0404391 -0.0102375 5.97153e-22)
(0.0407104 -0.0102 -1.37236e-22)
(0.0409804 -0.0101556 2.5034e-22)
(0.0412486 -0.0101044 -1.93221e-22)
(0.041515 -0.0100464 5.89986e-23)
(0.0417793 -0.00998189 -1.79581e-21)
(0.0420412 -0.00991091 -3.73859e-22)
(0.0423007 -0.00983362 -5.75848e-23)
(0.0425574 -0.0097502 1.15041e-21)
(0.0428113 -0.00966082 -4.03043e-22)
(0.0430622 -0.00956565 9.21214e-22)
(0.04331 -0.00946489 -1.41722e-21)
(0.0435546 -0.00935873 0)
(0.0437959 -0.00924738 -5.48267e-22)
(0.0440338 -0.00913102 5.50743e-22)
(0.0442684 -0.00900982 1.73951e-23)
(0.0444996 -0.00888428 -3.17439e-22)
(0.0447274 -0.00875471 -3.26613e-22)
(0.044952 -0.00862124 9.99567e-22)
(0.0451733 -0.00848408 -6.56438e-22)
(0.0453915 -0.00834341 5.23179e-22)
(0.0456068 -0.00819945 -6.98026e-22)
(0.0458194 -0.00805239 3.50207e-22)
(0.0460297 -0.00790243 -8.8385e-23)
(0.0462379 -0.00774978 0)
(0.0464447 -0.00759464 9.44072e-23)
(0.0466507 -0.00743724 -9.30759e-23)
(0.0468566 -0.00727784 -1.92957e-22)
(0.0470635 -0.0071167 5.79131e-22)
(0.0472725 -0.00695407 -3.87138e-22)
(0.047485 -0.0067902 -3.84917e-22)
(0.047702 -0.00662523 0)
(0.0479247 -0.00645912 -1.58909e-21)
(0.0481535 -0.0062916 1.56166e-21)
(0.0483882 -0.00612201 -7.61049e-22)
(0.0486272 -0.00594929 7.4277e-22)
(0.0488676 -0.00577194 7.69779e-22)
(0.0491047 -0.0055881 1.49811e-21)
(0.0493328 -0.00539568 1.47373e-21)
(0.0495447 -0.0051926 0)
(0.0497331 -0.0049769 -1.50697e-21)
(0.0498905 -0.00474695 0)
(0.0500103 -0.00450151 4.56486e-23)
(0.0500867 -0.0042397 -1.41652e-21)
(0.0501155 -0.00396096 1.44543e-21)
(0.0500936 -0.00366493 1.44069e-21)
(0.0500197 -0.00335148 -1.54649e-21)
(0.049894 -0.00302023 -5.42208e-23)
(0.0497192 -0.00267064 2.94773e-23)
(0.0494999 -0.0023029 5.05858e-21)
(0.0492428 -0.00190993 1.87693e-21)
(0.0489265 -0.00149479 1.97243e-21)
(0.0485538 -0.000965423 -2.06494e-21)
(0.0359851 -0.0103618 0)
(0.0362573 -0.010436 0)
(0.0365322 -0.0105037 -5.19685e-22)
(0.0368095 -0.0105643 7.64226e-22)
(0.0370889 -0.0106177 2.0662e-22)
(0.0373703 -0.0106638 0)
(0.0376533 -0.0107025 0)
(0.0379376 -0.0107338 -1.07623e-22)
(0.0382231 -0.0107575 1.32522e-22)
(0.0385093 -0.0107736 -7.89626e-23)
(0.0387961 -0.0107821 -9.81264e-23)
(0.0390831 -0.010783 1.00246e-23)
(0.03937 -0.0107763 6.71576e-23)
(0.0396566 -0.0107619 -1.22937e-22)
(0.0399426 -0.01074 1.20527e-22)
(0.0402277 -0.0107106 0)
(0.0405115 -0.0106737 0)
(0.0407938 -0.0106295 2.92611e-23)
(0.0410744 -0.010578 -6.85004e-22)
(0.041353 -0.0105194 2.52296e-22)
(0.0416293 -0.0104538 -3.10695e-22)
(0.0419031 -0.0103814 3.12708e-22)
(0.0421741 -0.0103024 3.70558e-22)
(0.0424423 -0.0102169 -3.41006e-22)
(0.0427073 -0.010125 -4.02411e-22)
(0.0429691 -0.0100272 0)
(0.0432275 -0.00992346 0)
(0.0434824 -0.0098141 7.53907e-22)
(0.0437336 -0.00969935 0)
(0.0439813 -0.00957943 5.80572e-22)
(0.0442253 -0.00945457 -5.82914e-22)
(0.0444656 -0.00932498 -3.0418e-22)
(0.0447022 -0.00919129 3.14313e-22)
(0.0449353 -0.0090537 6.65376e-22)
(0.045165 -0.00891241 -3.31965e-22)
(0.0453914 -0.00876765 -3.54777e-22)
(0.0456148 -0.00861969 3.59688e-22)
(0.0458354 -0.00846876 0)
(0.0460537 -0.00831513 0)
(0.0462701 -0.00815904 9.62587e-23)
(0.0464852 -0.00800077 0)
(0.0466998 -0.00784059 0)
(0.0469148 -0.0076788 -2.96879e-22)
(0.0471312 -0.00751565 3.95078e-22)
(0.0473499 -0.00735139 -2.02322e-22)
(0.0475722 -0.00718619 3.8895e-22)
(0.0477989 -0.00702006 0)
(0.0480305 -0.00685282 1.21318e-21)
(0.048267 -0.00668398 -8.10354e-24)
(0.0485074 -0.00651275 0)
(0.0487497 -0.00633795 -1.57791e-21)
(0.0489906 -0.00615809 -9.50823e-24)
(0.0492258 -0.00597144 -1.52813e-21)
(0.0494499 -0.00577617 -7.85572e-22)
(0.0496569 -0.00557047 -1.53777e-21)
(0.0498406 -0.00535272 1.49646e-21)
(0.0499952 -0.00512156 1.46968e-21)
(0.0501154 -0.00487591 0)
(0.0501966 -0.00461499 -1.51474e-21)
(0.0502357 -0.00433825 1.96152e-23)
(0.0502303 -0.00404523 0)
(0.0501798 -0.0037356 0)
(0.0500847 -0.00340899 1.57912e-21)
(0.0499478 -0.00306461 0)
(0.0497747 -0.00270169 0)
(0.0495723 -0.00231866 -1.88184e-21)
(0.0493442 -0.00190413 -1.91566e-21)
(0.0490426 -0.00145643 -2.30739e-21)
(0.0485795 -0.000850211 0)
(0.0358464 -0.0108799 0)
(0.0361337 -0.0109543 0)
(0.0364237 -0.0110216 0)
(0.0367161 -0.0110813 2.3067e-22)
(0.0370105 -0.0111333 1.6432e-22)
(0.0373067 -0.0111775 -6.64474e-23)
(0.0376044 -0.0112138 -3.02182e-22)
(0.0379033 -0.011242 1.07329e-22)
(0.0382031 -0.0112623 -5.86902e-23)
(0.0385035 -0.0112744 -6.63464e-23)
(0.0388041 -0.0112784 0)
(0.0391047 -0.0112743 0)
(0.039405 -0.0112621 -3.12493e-23)
(0.0397047 -0.0112419 2.74677e-22)
(0.0400033 -0.0112137 -5.59385e-22)
(0.0403007 -0.0111775 -6.51537e-23)
(0.0405966 -0.0111335 3.59872e-22)
(0.0408905 -0.0110818 2.15577e-22)
(0.0411823 -0.0110225 -2.86579e-23)
(0.0414716 -0.0109557 0)
(0.0417583 -0.0108818 6.4961e-22)
(0.042042 -0.0108007 0)
(0.0423226 -0.0107128 7.74835e-22)
(0.0425998 -0.0106183 -1.26644e-21)
(0.0428734 -0.0105174 1.33272e-21)
(0.0431434 -0.0104103 4.97459e-22)
(0.0434096 -0.0102974 -7.87784e-22)
(0.0436718 -0.0101788 8.17636e-22)
(0.0439301 -0.0100548 -5.55286e-22)
(0.0441845 -0.00992578 0)
(0.0444348 -0.00979193 -6.42881e-22)
(0.0446813 -0.00965359 -3.65661e-22)
(0.0449239 -0.00951139 6.62488e-22)
(0.0451629 -0.00936552 -6.94538e-22)
(0.0453985 -0.00921625 3.61261e-22)
(0.045631 -0.00906389 -3.56857e-22)
(0.0458607 -0.00890874 -1.80429e-22)
(0.0460881 -0.00875112 1.93367e-22)
(0.0463138 -0.00859133 9.58784e-23)
(0.0465385 -0.0084297 -2.86016e-22)
(0.046763 -0.00826654 -2.51523e-23)
(0.046988 -0.00810213 0)
(0.0472146 -0.00793672 9.77339e-23)
(0.0474436 -0.00777047 -1.96732e-22)
(0.0476758 -0.00760343 1.97592e-22)
(0.0479116 -0.00743546 0)
(0.0481509 -0.00726619 0)
(0.0483931 -0.00709499 4.20646e-22)
(0.0486367 -0.00692092 -7.9609e-22)
(0.0488793 -0.00674279 -1.62547e-21)
(0.0491176 -0.00655922 3.17858e-21)
(0.0493475 -0.00636866 -8.04487e-22)
(0.0495644 -0.00616959 7.7448e-22)
(0.0497633 -0.00596056 7.60344e-22)
(0.0499392 -0.00574026 -1.55887e-21)
(0.0500877 -0.00550765 1.52345e-21)
(0.0502045 -0.00526186 0)
(0.0502864 -0.00500223 -1.58023e-21)
(0.0503311 -0.00472828 1.99977e-23)
(0.050337 -0.00443954 1.57133e-21)
(0.0503039 -0.00413559 0)
(0.050233 -0.003816 0)
(0.0501272 -0.00348009 0)
(0.0499923 -0.00312671 3.77406e-21)
(0.0498366 -0.00275458 2.0715e-21)
(0.0496669 -0.0023583 2.12962e-21)
(0.0494656 -0.00192182 -4.58316e-21)
(0.0491151 -0.00142827 -1.50107e-22)
(0.0483376 -0.000720283 2.89394e-21)
(0.0357063 -0.0114325 0)
(0.0360099 -0.0115068 5.55466e-22)
(0.0363162 -0.0115734 -6.81174e-22)
(0.0366248 -0.0116319 2.95396e-22)
(0.0369353 -0.0116821 -5.97167e-22)
(0.0372475 -0.011724 -1.47183e-22)
(0.0375611 -0.0117574 -1.11367e-22)
(0.0378756 -0.0117822 0)
(0.0381908 -0.0117984 9.8416e-23)
(0.0385064 -0.011806 1.60534e-23)
(0.0388219 -0.0118049 3.72119e-24)
(0.0391372 -0.0117952 -6.58115e-23)
(0.0394518 -0.0117769 1.32921e-22)
(0.0397653 -0.01175 -4.19424e-23)
(0.0400776 -0.0117147 -6.48709e-22)
(0.0403882 -0.0116711 -6.72239e-23)
(0.0406968 -0.0116191 -6.66952e-23)
(0.041003 -0.0115591 4.78018e-22)
(0.0413067 -0.0114912 2.73828e-22)
(0.0416075 -0.0114155 6.74352e-22)
(0.0419051 -0.0113323 -6.40968e-22)
(0.0421993 -0.0112418 0)
(0.0424899 -0.0111443 3.55041e-23)
(0.0427767 -0.01104 0)
(0.0430594 -0.0109292 -4.62466e-22)
(0.0433381 -0.0108122 -4.93013e-22)
(0.0436125 -0.0106893 2.61654e-22)
(0.0438827 -0.0105609 0)
(0.0441486 -0.0104272 3.11614e-22)
(0.0444102 -0.0102886 6.45816e-22)
(0.0446677 -0.0101453 -6.4757e-22)
(0.0449212 -0.009998 3.32911e-22)
(0.0451708 -0.00984709 -7.16882e-22)
(0.0454169 -0.00969289 1.42598e-21)
(0.0456598 -0.00953575 -3.62336e-22)
(0.0459 -0.00937603 0)
(0.0461379 -0.0092141 -1.96556e-22)
(0.0463743 -0.00905032 1.00352e-23)
(0.0466098 -0.00888502 2.95626e-22)
(0.0468452 -0.00871851 -2.46922e-22)
(0.0470811 -0.00855104 4.83955e-23)
(0.0473184 -0.00838276 -1.54363e-22)
(0.0475574 -0.00821373 1.00589e-22)
(0.0477986 -0.00804383 0)
(0.0480419 -0.00787275 0)
(0.0482865 -0.00769997 0)
(0.0485315 -0.00752474 4.17125e-22)
(0.0487748 -0.00734611 4.1536e-22)
(0.049014 -0.00716297 0)
(0.049246 -0.00697409 7.96414e-22)
(0.0494671 -0.00677822 8.24357e-22)
(0.0496735 -0.00657417 8.1069e-22)
(0.0498612 -0.00636084 0)
(0.0500264 -0.00613728 0)
(0.0501656 -0.00590271 -1.5873e-21)
(0.0502759 -0.0056565 1.5605e-21)
(0.0503549 -0.00539814 0)
(0.0504011 -0.00512724 1.57358e-21)
(0.0504136 -0.00484341 -1.60364e-21)
(0.0503927 -0.00454623 -1.7216e-21)
(0.0503401 -0.00423524 1.76258e-21)
(0.0502592 -0.00390989 -1.80249e-21)
(0.0501558 -0.00356916 0)
(0.0500393 -0.00321153 -2.00604e-21)
(0.0499188 -0.00283348 8.10613e-23)
(0.0497875 -0.00242346 -4.8892e-21)
(0.049564 -0.00195552 -5.43662e-21)
(0.0489842 -0.00138382 5.77798e-21)
(0.047458 -0.000583777 -3.17359e-21)
(0.0355658 -0.0120233 1.53664e-22)
(0.035887 -0.0120972 0)
(0.0362108 -0.0121628 1.26207e-22)
(0.0365368 -0.0122197 -4.95325e-22)
(0.0368647 -0.0122678 7.97752e-22)
(0.0371942 -0.0123068 -1.67389e-22)
(0.0375248 -0.0123368 1.1033e-22)
(0.0378562 -0.0123576 -9.64872e-23)
(0.038188 -0.0123693 5.65834e-23)
(0.0385199 -0.0123717 4.56774e-24)
(0.0388516 -0.0123648 -5.44785e-23)
(0.0391826 -0.0123488 2.54359e-22)
(0.0395126 -0.0123237 -6.2125e-23)
(0.0398412 -0.0122895 4.91851e-22)
(0.0401681 -0.0122463 2.37936e-22)
(0.0404928 -0.0121943 6.90905e-23)
(0.0408152 -0.0121337 -4.66934e-22)
(0.0411347 -0.0120645 0)
(0.0414512 -0.0119871 0)
(0.0417643 -0.0119016 -3.70408e-22)
(0.0420737 -0.0118084 -3.67168e-22)
(0.0423792 -0.0117076 -8.65514e-22)
(0.0426807 -0.0115996 4.34954e-22)
(0.0429778 -0.0114848 9.92421e-22)
(0.0432705 -0.0113634 -9.93248e-22)
(0.0435587 -0.0112358 2.82421e-22)
(0.0438423 -0.0111025 2.97902e-22)
(0.0441213 -0.0109637 0)
(0.0443958 -0.0108198 -3.06829e-22)
(0.044666 -0.0106713 -6.77096e-22)
(0.0449319 -0.0105185 -2.75258e-23)
(0.0451938 -0.0103621 6.98559e-22)
(0.045452 -0.0102025 -3.76227e-22)
(0.0457071 -0.0100402 0)
(0.0459593 -0.00987553 1.95716e-22)
(0.0462093 -0.00970887 -1.98959e-22)
(0.0464577 -0.0095406 1.91298e-22)
(0.0467051 -0.00937104 -3.98168e-22)
(0.0469519 -0.00920043 0)
(0.0471988 -0.00902892 -5.20019e-23)
(0.047446 -0.00885656 5.1064e-23)
(0.0476938 -0.00868324 -7.98734e-23)
(0.0479418 -0.0085087 3.09363e-22)
(0.0481896 -0.0083325 -6.1911e-22)
(0.048436 -0.00815404 4.0643e-22)
(0.0486797 -0.00797256 4.14147e-22)
(0.0489186 -0.00778718 -3.86047e-22)
(0.0491502 -0.00759698 8.39277e-22)
(0.0493719 -0.00740097 -8.01291e-22)
(0.0495807 -0.00719823 -2.01407e-21)
(0.0497734 -0.00698788 8.81503e-24)
(0.0499472 -0.00676919 -7.83699e-22)
(0.050099 -0.00654149 0)
(0.0502265 -0.00630428 0)
(0.0503276 -0.00605714 -1.62806e-21)
(0.0504007 -0.00579973 2.42533e-21)
(0.0504449 -0.00553176 -1.63739e-21)
(0.0504601 -0.00525294 0)
(0.0504469 -0.00496297 1.77726e-21)
(0.0504075 -0.00466142 3.59249e-21)
(0.0503457 -0.00434785 -1.84873e-21)
(0.0502679 -0.00402155 -4.53657e-23)
(0.0501838 -0.00368117 2.10965e-21)
(0.0501044 -0.00332379 -2.33567e-23)
(0.0500287 -0.00294119 -5.03204e-21)
(0.0498983 -0.00251095 5.43185e-21)
(0.0494938 -0.00198885 2.97987e-21)
(0.0483123 -0.00131021 0)
(0.0455417 -0.000408688 0)
(0.0354265 -0.0126567 -1.51375e-22)
(0.0357665 -0.0127299 -6.33983e-22)
(0.0361092 -0.0127942 5.01067e-22)
(0.0364541 -0.0128492 0)
(0.0368008 -0.0128946 8.23041e-23)
(0.0371488 -0.0129305 2.01637e-22)
(0.0374979 -0.0129565 -1.65864e-22)
(0.0378476 -0.0129728 6.84254e-23)
(0.0381974 -0.0129792 -5.21317e-23)
(0.0385471 -0.0129758 0)
(0.0388962 -0.0129626 1.32552e-23)
(0.0392443 -0.0129396 0)
(0.0395911 -0.0129068 1.88802e-22)
(0.039936 -0.0128645 -4.73482e-22)
(0.0402788 -0.0128127 0)
(0.0406191 -0.0127515 0)
(0.0409564 -0.0126813 0)
(0.0412905 -0.0126022 -4.96823e-22)
(0.041621 -0.0125144 6.63652e-22)
(0.0419476 -0.0124184 3.64561e-22)
(0.0422701 -0.0123143 0)
(0.0425882 -0.0122025 0)
(0.0429018 -0.0120834 0)
(0.0432106 -0.0119573 -1.32398e-21)
(0.0435146 -0.0118248 1.61566e-21)
(0.0438138 -0.0116862 -8.36278e-22)