/*--------------------------------*- C++ -*----------------------------------*\
| =========                 |                                                 |
| \\      /  F ield         | OpenFOAM: The Open Source CFD Toolbox           |
|  \\    /   O peration     | Version:  2312                                  |
|   \\  /    A nd           | Website:  www.openfoam.com                      |
|    \\/     M anipulation  |                                                 |
\*---------------------------------------------------------------------------*/
FoamFile
{
    version     2.0;
    format      ascii;
    arch        "LSB;label=32;scalar=64";
    class       volScalarField;
    location    "700";
    object      nut;
}
// * * * * * * * * * * * * * * * * * * * * * * * * * * * * * * * * * * * * * //

dimensions      [0 2 -1 0 0 0 0];

internalField   nonuniform List<scalar> 
76025
(
6.30488e-06
6.30814e-06
6.30997e-06
6.31328e-06
6.3199e-06
6.32908e-06
6.33995e-06
6.35013e-06
6.35911e-06
6.36801e-06
6.3776e-06
6.38708e-06
6.39533e-06
6.40152e-06
6.407e-06
6.41305e-06
6.41886e-06
6.42481e-06
6.42959e-06
6.43346e-06
6.43279e-06
6.43095e-06
6.43302e-06
6.4394e-06
6.44836e-06
6.45888e-06
6.4726e-06
6.48605e-06
6.50117e-06
6.51809e-06
6.53685e-06
6.55273e-06
6.56868e-06
6.5807e-06
6.59014e-06
6.59462e-06
6.59658e-06
6.59667e-06
6.59371e-06
6.58777e-06
6.57991e-06
6.57077e-06
6.55957e-06
6.54833e-06
6.53641e-06
6.53323e-06
6.53347e-06
6.5323e-06
6.52884e-06
6.52249e-06
6.51353e-06
6.50272e-06
6.49129e-06
6.48058e-06
6.47051e-06
6.45852e-06
6.44071e-06
6.41219e-06
6.3665e-06
6.29663e-06
6.20069e-06
6.0634e-06
5.86812e-06
5.58632e-06
5.20832e-06
5.03188e-06
7.10266e-06
2.25566e-05
7.09856e-05
6.28749e-06
6.30052e-06
6.3098e-06
6.31591e-06
6.32123e-06
6.32598e-06
6.33268e-06
6.34082e-06
6.34961e-06
6.35835e-06
6.36723e-06
6.37643e-06
6.38587e-06
6.39498e-06
6.40251e-06
6.40969e-06
6.41597e-06
6.42203e-06
6.42762e-06
6.43302e-06
6.43707e-06
6.43952e-06
6.44111e-06
6.44257e-06
6.4402e-06
6.43791e-06
6.43664e-06
6.43606e-06
6.43615e-06
6.43658e-06
6.43708e-06
6.43822e-06
6.43999e-06
6.44224e-06
6.44528e-06
6.44822e-06
6.45667e-06
6.46738e-06
6.47893e-06
6.49062e-06
6.50188e-06
6.51211e-06
6.52058e-06
6.52654e-06
6.52943e-06
6.52866e-06
6.524e-06
6.51585e-06
6.50513e-06
6.49317e-06
6.48141e-06
6.47092e-06
6.46191e-06
6.45321e-06
6.44211e-06
6.42482e-06
6.39682e-06
6.35338e-06
6.2898e-06
6.20114e-06
6.07914e-06
5.91126e-06
5.67573e-06
5.34439e-06
4.95396e-06
5.10924e-06
9.62194e-06
3.63771e-05
9.53024e-05
6.2427e-06
6.26093e-06
6.27848e-06
6.29375e-06
6.30638e-06
6.31646e-06
6.32487e-06
6.33267e-06
6.34051e-06
6.3485e-06
6.3566e-06
6.36484e-06
6.37331e-06
6.38207e-06
6.39073e-06
6.39908e-06
6.40696e-06
6.41434e-06
6.42126e-06
6.42781e-06
6.43399e-06
6.43968e-06
6.44472e-06
6.44918e-06
6.45267e-06
6.45537e-06
6.45766e-06
6.45985e-06
6.46224e-06
6.4651e-06
6.46853e-06
6.47233e-06
6.47652e-06
6.48114e-06
6.48616e-06
6.49147e-06
6.49699e-06
6.50244e-06
6.50743e-06
6.51146e-06
6.51401e-06
6.51458e-06
6.51276e-06
6.50833e-06
6.50135e-06
6.49221e-06
6.48166e-06
6.47068e-06
6.46033e-06
6.45139e-06
6.44407e-06
6.4377e-06
6.43055e-06
6.41991e-06
6.40237e-06
6.37415e-06
6.33154e-06
6.27092e-06
6.18826e-06
6.0778e-06
5.93001e-06
5.72837e-06
5.44718e-06
5.0679e-06
4.72776e-06
5.59091e-06
1.4776e-05
5.57518e-05
0.00011825
6.20579e-06
6.21477e-06
6.22672e-06
6.24024e-06
6.25741e-06
6.27474e-06
6.2906e-06
6.30462e-06
6.31697e-06
6.32804e-06
6.33818e-06
6.34765e-06
6.35666e-06
6.36541e-06
6.37407e-06
6.3826e-06
6.39097e-06
6.3991e-06
6.40693e-06
6.41442e-06
6.4216e-06
6.42847e-06
6.43503e-06
6.44123e-06
6.44708e-06
6.45254e-06
6.45762e-06
6.46235e-06
6.46682e-06
6.47106e-06
6.47512e-06
6.479e-06
6.48268e-06
6.48607e-06
6.48906e-06
6.49147e-06
6.49308e-06
6.49363e-06
6.49287e-06
6.49055e-06
6.48652e-06
6.48074e-06
6.47337e-06
6.46477e-06
6.45552e-06
6.44633e-06
6.43793e-06
6.43087e-06
6.4253e-06
6.42076e-06
6.41604e-06
6.40921e-06
6.39769e-06
6.37856e-06
6.34884e-06
6.30568e-06
6.24638e-06
6.16786e-06
6.06566e-06
5.93229e-06
5.75502e-06
5.51324e-06
5.18125e-06
4.77156e-06
4.61472e-06
6.91404e-06
2.4498e-05
7.87395e-05
0.000138895
6.20133e-06
6.19803e-06
6.19825e-06
6.20168e-06
6.20873e-06
6.21875e-06
6.23055e-06
6.2453e-06
6.26178e-06
6.2781e-06
6.29338e-06
6.30739e-06
6.32018e-06
6.3319e-06
6.34275e-06
6.35289e-06
6.36248e-06
6.37159e-06
6.38027e-06
6.38853e-06
6.39639e-06
6.40386e-06
6.41093e-06
6.41762e-06
6.42392e-06
6.4298e-06
6.43526e-06
6.44026e-06
6.44478e-06
6.44877e-06
6.45217e-06
6.45493e-06
6.45698e-06
6.45823e-06
6.45853e-06
6.45779e-06
6.45588e-06
6.45274e-06
6.44838e-06
6.44289e-06
6.4365e-06
6.42954e-06
6.42248e-06
6.41582e-06
6.41005e-06
6.40549e-06
6.40216e-06
6.39964e-06
6.39699e-06
6.39271e-06
6.38488e-06
6.37124e-06
6.34946e-06
6.31731e-06
6.27273e-06
6.2137e-06
6.13783e-06
6.04149e-06
5.91858e-06
5.75896e-06
5.54642e-06
5.25771e-06
4.87615e-06
4.48498e-06
4.76921e-06
1.0012e-05
4.04331e-05
0.000102536
0.000156112
6.23043e-06
6.22262e-06
6.21232e-06
6.204e-06
6.19824e-06
6.19561e-06
6.19594e-06
6.1994e-06
6.20585e-06
6.2144e-06
6.22516e-06
6.23944e-06
6.25472e-06
6.26967e-06
6.28382e-06
6.29706e-06
6.30937e-06
6.3208e-06
6.33142e-06
6.34128e-06
6.35044e-06
6.35891e-06
6.36675e-06
6.37395e-06
6.38052e-06
6.38647e-06
6.39177e-06
6.39641e-06
6.40035e-06
6.40353e-06
6.40583e-06
6.40725e-06
6.40776e-06
6.40734e-06
6.406e-06
6.40377e-06
6.40076e-06
6.39714e-06
6.39312e-06
6.389e-06
6.38512e-06
6.38181e-06
6.37932e-06
6.37776e-06
6.377e-06
6.3766e-06
6.37572e-06
6.3732e-06
6.36752e-06
6.357e-06
6.33987e-06
6.31443e-06
6.27911e-06
6.23246e-06
6.17298e-06
6.09867e-06
6.00641e-06
5.89101e-06
5.74407e-06
5.55264e-06
5.29756e-06
4.95691e-06
4.54209e-06
4.27718e-06
5.51717e-06
1.66702e-05
6.20855e-05
0.000124918
0.000169602
6.24204e-06
6.24358e-06
6.24111e-06
6.2358e-06
6.22866e-06
6.22026e-06
6.2107e-06
6.20271e-06
6.19684e-06
6.19319e-06
6.19197e-06
6.19358e-06
6.19817e-06
6.2065e-06
6.21767e-06
6.22993e-06
6.24233e-06
6.25441e-06
6.26595e-06
6.27682e-06
6.28696e-06
6.29635e-06
6.30497e-06
6.31282e-06
6.31988e-06
6.32617e-06
6.33167e-06
6.33638e-06
6.34028e-06
6.34331e-06
6.34555e-06
6.34706e-06
6.34792e-06
6.34823e-06
6.34812e-06
6.34774e-06
6.34728e-06
6.34694e-06
6.34692e-06
6.34736e-06
6.34833e-06
6.34976e-06
6.35139e-06
6.35273e-06
6.35305e-06
6.35141e-06
6.34664e-06
6.33749e-06
6.32268e-06
6.30097e-06
6.27123e-06
6.23242e-06
6.18348e-06
6.12317e-06
6.04972e-06
5.96024e-06
5.8501e-06
5.71207e-06
5.5355e-06
5.30499e-06
5.00019e-06
4.60994e-06
4.21064e-06
4.29204e-06
7.61159e-06
2.94293e-05
8.6745e-05
0.000144516
0.00017971
6.20791e-06
6.22293e-06
6.23372e-06
6.24058e-06
6.24383e-06
6.24387e-06
6.24113e-06
6.23645e-06
6.23058e-06
6.22422e-06
6.21794e-06
6.21232e-06
6.20805e-06
6.20591e-06
6.20621e-06
6.20875e-06
6.2131e-06
6.21879e-06
6.22537e-06
6.23245e-06
6.23974e-06
6.24702e-06
6.2541e-06
6.26088e-06
6.26725e-06
6.27315e-06
6.27853e-06
6.28337e-06
6.28763e-06
6.29143e-06
6.29494e-06
6.29822e-06
6.30137e-06
6.30446e-06
6.30757e-06
6.31078e-06
6.31414e-06
6.31762e-06
6.32115e-06
6.32452e-06
6.32741e-06
6.32933e-06
6.32966e-06
6.32764e-06
6.32242e-06
6.31311e-06
6.29881e-06
6.27869e-06
6.25197e-06
6.21791e-06
6.17577e-06
6.12468e-06
6.06347e-06
5.9904e-06
5.90268e-06
5.79598e-06
5.66383e-06
5.49727e-06
5.28385e-06
5.00649e-06
4.64805e-06
4.22941e-06
3.95945e-06
4.84979e-06
1.27953e-05
4.97467e-05
0.000111485
0.000160655
0.000187152
6.1362e-06
6.15914e-06
6.17963e-06
6.19745e-06
6.21234e-06
6.22417e-06
6.23294e-06
6.23884e-06
6.2422e-06
6.24339e-06
6.24283e-06
6.24095e-06
6.23828e-06
6.23538e-06
6.2328e-06
6.23091e-06
6.22994e-06
6.22995e-06
6.2309e-06
6.23271e-06
6.23524e-06
6.23834e-06
6.24187e-06
6.24571e-06
6.24973e-06
6.25385e-06
6.25799e-06
6.26207e-06
6.26611e-06
6.27023e-06
6.27448e-06
6.27884e-06
6.28327e-06
6.28771e-06
6.29207e-06
6.29622e-06
6.29995e-06
6.303e-06
6.30503e-06
6.30559e-06
6.30418e-06
6.30023e-06
6.29315e-06
6.28232e-06
6.26717e-06
6.24715e-06
6.22174e-06
6.19044e-06
6.15271e-06
6.10787e-06
6.05505e-06
5.99301e-06
5.91992e-06
5.83303e-06
5.72816e-06
5.59939e-06
5.43886e-06
5.2365e-06
4.97852e-06
4.64779e-06
4.24269e-06
3.86001e-06
3.96673e-06
6.7669e-06
2.4299e-05
7.57768e-05
0.000134273
0.000173203
0.000192744
6.05751e-06
6.07609e-06
6.09582e-06
6.11672e-06
6.13748e-06
6.15705e-06
6.17479e-06
6.19036e-06
6.20365e-06
6.21466e-06
6.22347e-06
6.23026e-06
6.23524e-06
6.23873e-06
6.24106e-06
6.24259e-06
6.24363e-06
6.24445e-06
6.24526e-06
6.2462e-06
6.24735e-06
6.24877e-06
6.25048e-06
6.25245e-06
6.25466e-06
6.25708e-06
6.25966e-06
6.26234e-06
6.26514e-06
6.268e-06
6.27086e-06
6.27359e-06
6.27604e-06
6.27804e-06
6.27933e-06
6.27966e-06
6.2787e-06
6.27609e-06
6.27146e-06
6.26441e-06
6.25452e-06
6.24142e-06
6.22472e-06
6.20409e-06
6.17917e-06
6.1496e-06
6.11493e-06
6.0746e-06
6.02787e-06
5.97376e-06
5.91088e-06
5.83731e-06
5.75025e-06
5.64566e-06
5.51799e-06
5.3602e-06
5.16393e-06
4.91843e-06
4.60858e-06
4.22384e-06
3.80928e-06
3.62057e-06
4.67811e-06
1.22523e-05
4.53868e-05
0.000103811
0.000153883
0.000182411
0.000197481
5.99005e-06
6.00003e-06
6.01127e-06
6.02402e-06
6.03805e-06
6.05457e-06
6.07408e-06
6.09449e-06
6.11426e-06
6.13262e-06
6.14927e-06
6.16408e-06
6.17707e-06
6.1883e-06
6.19787e-06
6.20596e-06
6.21276e-06
6.21846e-06
6.22325e-06
6.2273e-06
6.23077e-06
6.23377e-06
6.2364e-06
6.23873e-06
6.24079e-06
6.2426e-06
6.24415e-06
6.24542e-06
6.24629e-06
6.24667e-06
6.24645e-06
6.24547e-06
6.24357e-06
6.24052e-06
6.23611e-06
6.23009e-06
6.22219e-06
6.21218e-06
6.19978e-06
6.18478e-06
6.16692e-06
6.14597e-06
6.12166e-06
6.0937e-06
6.06167e-06
6.02506e-06
5.98319e-06
5.93519e-06
5.87993e-06
5.81593e-06
5.74117e-06
5.65279e-06
5.54686e-06
5.41814e-06
5.26026e-06
5.06604e-06
4.82715e-06
4.53146e-06
4.16521e-06
3.74727e-06
3.43581e-06
3.81621e-06
7.4221e-06
2.6056e-05
7.49701e-05
0.000130755
0.000169673
0.000188693
0.000200624
5.9387e-06
5.94218e-06
5.94667e-06
5.95196e-06
5.95815e-06
5.96568e-06
5.97504e-06
5.98595e-06
5.99824e-06
6.01332e-06
6.03097e-06
6.04928e-06
6.06698e-06
6.0835e-06
6.09862e-06
6.11226e-06
6.12443e-06
6.13518e-06
6.14458e-06
6.1527e-06
6.15966e-06
6.16551e-06
6.17035e-06
6.17422e-06
6.17717e-06
6.17922e-06
6.18036e-06
6.18052e-06
6.17958e-06
6.17749e-06
6.17419e-06
6.16957e-06
6.16351e-06
6.15588e-06
6.14655e-06
6.13538e-06
6.12223e-06
6.10695e-06
6.08939e-06
6.06935e-06
6.0466e-06
6.02085e-06
5.99171e-06
5.95867e-06
5.9211e-06
5.8782e-06
5.82899e-06
5.77228e-06
5.70648e-06
5.62952e-06
5.53851e-06
5.42953e-06
5.29763e-06
5.13708e-06
4.94172e-06
4.70473e-06
4.41687e-06
4.06504e-06
3.6534e-06
3.28817e-06
3.37137e-06
5.36741e-06
1.6262e-05
5.29543e-05
0.000107998
0.000154574
0.000181534
0.000192827
0.000202195
5.89513e-06
5.89517e-06
5.89578e-06
5.89667e-06
5.89787e-06
5.89947e-06
5.90164e-06
5.9045e-06
5.90819e-06
5.91316e-06
5.91955e-06
5.92717e-06
5.93637e-06
5.94821e-06
5.96218e-06
5.97676e-06
5.99094e-06
6.00423e-06
6.01637e-06
6.02723e-06
6.03675e-06
6.04491e-06
6.05169e-06
6.0571e-06
6.06112e-06
6.06376e-06
6.06497e-06
6.06463e-06
6.0628e-06
6.05948e-06
6.05465e-06
6.04826e-06
6.04025e-06
6.03054e-06
6.01906e-06
6.0057e-06
5.99032e-06
5.97276e-06
5.95278e-06
5.93008e-06
5.90428e-06
5.87489e-06
5.84131e-06
5.80283e-06
5.7586e-06
5.70762e-06
5.64864e-06
5.58003e-06
5.49962e-06
5.40444e-06
5.29065e-06
5.15353e-06
4.98796e-06
4.78881e-06
4.55043e-06
4.26509e-06
3.9223e-06
3.5208e-06
3.13439e-06
3.07372e-06
4.37656e-06
1.16621e-05
3.92716e-05
8.99324e-05
0.000139821
0.000173963
0.000189773
0.000195865
0.000202094
5.85214e-06
5.85043e-06
5.84901e-06
5.84761e-06
5.84619e-06
5.84476e-06
5.84334e-06
5.84198e-06
5.84071e-06
5.8396e-06
5.83878e-06
5.83834e-06
5.8385e-06
5.83953e-06
5.84164e-06
5.84517e-06
5.85072e-06
5.85855e-06
5.86777e-06
5.87734e-06
5.88655e-06
5.89494e-06
5.90224e-06
5.90825e-06
5.91286e-06
5.91596e-06
5.91741e-06
5.9173e-06
5.91571e-06
5.9126e-06
5.90792e-06
5.90159e-06
5.89351e-06
5.88358e-06
5.87165e-06
5.85754e-06
5.84099e-06
5.82171e-06
5.79932e-06
5.77337e-06
5.74333e-06
5.70856e-06
5.66836e-06
5.62187e-06
5.5681e-06
5.50575e-06
5.43309e-06
5.3478e-06
5.24683e-06
5.12638e-06
4.9821e-06
4.80957e-06
4.60449e-06
4.36234e-06
4.07625e-06
3.73722e-06
3.34588e-06
2.96055e-06
2.83464e-06
3.81643e-06
9.48793e-06
3.2099e-05
7.85751e-05
0.000128925
0.000167306
0.00018833
0.000194913
0.000198164
0.000200868
5.8023e-06
5.79979e-06
5.79725e-06
5.79468e-06
5.79196e-06
5.78907e-06
5.78598e-06
5.78268e-06
5.77915e-06
5.77539e-06
5.77139e-06
5.76716e-06
5.7627e-06
5.75807e-06
5.75339e-06
5.74884e-06
5.74479e-06
5.74178e-06
5.7404e-06
5.74121e-06
5.74408e-06
5.74816e-06
5.75257e-06
5.75665e-06
5.76e-06
5.76216e-06
5.76304e-06
5.76268e-06
5.76099e-06
5.75781e-06
5.75295e-06
5.74623e-06
5.73746e-06
5.72641e-06
5.71281e-06
5.69637e-06
5.67672e-06
5.65344e-06
5.62607e-06
5.59408e-06
5.55687e-06
5.51375e-06
5.46388e-06
5.40619e-06
5.33929e-06
5.26124e-06
5.16952e-06
5.06098e-06
4.93203e-06
4.7789e-06
4.59797e-06
4.38573e-06
4.13802e-06
3.84922e-06
3.5116e-06
3.12916e-06
2.76078e-06
2.6293e-06
3.4828e-06
8.54318e-06
2.91554e-05
7.35252e-05
0.000123611
0.000163862
0.000188592
0.000197844
0.00019746
0.000198868
0.000198717
5.7381e-06
5.73551e-06
5.73253e-06
5.7293e-06
5.72585e-06
5.72215e-06
5.71816e-06
5.71385e-06
5.7092e-06
5.70417e-06
5.69874e-06
5.69287e-06
5.68653e-06
5.67966e-06
5.67224e-06
5.66427e-06
5.6558e-06
5.64695e-06
5.638e-06
5.62961e-06
5.62256e-06
5.61761e-06
5.61478e-06
5.61333e-06
5.6123e-06
5.61099e-06
5.60912e-06
5.60644e-06
5.60253e-06
5.59704e-06
5.58963e-06
5.57999e-06
5.56783e-06
5.55281e-06
5.53459e-06
5.51278e-06
5.48698e-06
5.45672e-06
5.42148e-06
5.3807e-06
5.33366e-06
5.27943e-06
5.21679e-06
5.14407e-06
5.05908e-06
4.95914e-06
4.84116e-06
4.70203e-06
4.53885e-06
4.34887e-06
4.12911e-06
3.87535e-06
3.58222e-06
3.24652e-06
2.87672e-06
2.53851e-06
2.45048e-06
3.33028e-06
8.37445e-06
2.89646e-05
7.32593e-05
0.000123395
0.000164444
0.000191256
0.000203303
0.00020332
0.000197865
0.000198272
0.000195669
5.6538e-06
5.65132e-06
5.64823e-06
5.64468e-06
5.64073e-06
5.6364e-06
5.63168e-06
5.62657e-06
5.62103e-06
5.61503e-06
5.60854e-06
5.60154e-06
5.59396e-06
5.58577e-06
5.57691e-06
5.56731e-06
5.55691e-06
5.54568e-06
5.53364e-06
5.52085e-06
5.50734e-06
5.49344e-06
5.48001e-06
5.46837e-06
5.45863e-06
5.45015e-06
5.44221e-06
5.43404e-06
5.42497e-06
5.41437e-06
5.40171e-06
5.38654e-06
5.36844e-06
5.347e-06
5.3218e-06
5.29241e-06
5.25836e-06
5.21914e-06
5.17411e-06
5.12244e-06
5.06293e-06
4.99405e-06
4.91381e-06
4.81988e-06
4.70965e-06
4.5805e-06
4.4301e-06
4.25663e-06
4.0581e-06
3.83139e-06
3.57201e-06
3.27514e-06
2.94299e-06
2.59747e-06
2.30892e-06
2.30428e-06
3.33446e-06
8.81782e-06
3.06476e-05
7.59912e-05
0.000126373
0.000167835
0.00019595
0.000210312
0.000212631
0.000206591
0.000200112
0.000197622
0.000192677
5.54593e-06
5.5431e-06
5.53966e-06
5.53567e-06
5.53116e-06
5.52615e-06
5.52062e-06
5.51459e-06
5.50802e-06
5.5009e-06
5.49319e-06
5.48486e-06
5.47587e-06
5.46618e-06
5.45573e-06
5.44445e-06
5.43228e-06
5.41915e-06
5.40497e-06
5.38967e-06
5.37319e-06
5.35555e-06
5.3368e-06
5.31694e-06
5.29567e-06
5.27301e-06
5.25117e-06
5.23242e-06
5.21497e-06
5.19664e-06
5.17638e-06
5.1536e-06
5.12769e-06
5.09809e-06
5.06426e-06
5.02571e-06
4.9818e-06
4.93172e-06
4.87428e-06
4.80787e-06
4.73056e-06
4.64025e-06
4.53488e-06
4.41248e-06
4.27136e-06
4.11011e-06
3.92757e-06
3.72209e-06
3.48999e-06
3.22619e-06
2.92925e-06
2.60807e-06
2.3021e-06
2.09888e-06
2.22431e-06
3.53122e-06
9.84798e-06
3.35569e-05
7.99145e-05
0.000130097
0.000171567
0.000200744
0.000217375
0.000222463
0.000217797
0.000207971
0.000201292
0.000196989
0.000190153
5.41125e-06
5.40741e-06
5.40299e-06
5.39802e-06
5.3925e-06
5.38641e-06
5.37972e-06
5.37242e-06
5.36449e-06
5.35588e-06
5.34657e-06
5.33653e-06
5.32569e-06
5.31402e-06
5.30146e-06
5.28794e-06
5.27339e-06
5.25773e-06
5.24087e-06
5.22271e-06
5.20314e-06
5.18207e-06
5.15938e-06
5.13498e-06
5.10877e-06
5.08054e-06
5.05018e-06
5.01734e-06
4.98179e-06
4.9453e-06
4.91052e-06
4.8759e-06
4.83904e-06
4.79873e-06
4.75407e-06
4.70393e-06
4.64692e-06
4.58131e-06
4.5049e-06
4.41565e-06
4.31215e-06
4.19343e-06
4.05871e-06
3.90721e-06
3.73786e-06
3.54908e-06
3.33863e-06
3.10316e-06
2.83899e-06
2.54907e-06
2.25786e-06
2.01308e-06
1.93218e-06
2.27246e-06
4.0208e-06
1.15297e-05
3.70575e-05
8.33272e-05
0.000132225
0.000173031
0.0002031
0.000222289
0.000230891
0.000229447
0.00021983
0.000207634
0.000202027
0.000197041
0.000189058
5.24351e-06
5.23808e-06
5.23204e-06
5.22544e-06
5.21825e-06
5.21045e-06
5.202e-06
5.19286e-06
5.18298e-06
5.17233e-06
5.16085e-06
5.1485e-06
5.13521e-06
5.12092e-06
5.10556e-06
5.08906e-06
5.07132e-06
5.05225e-06
5.03175e-06
5.0097e-06
4.98595e-06
4.96038e-06
4.93281e-06
4.90314e-06
4.87119e-06
4.83675e-06
4.79957e-06
4.75937e-06
4.7158e-06
4.66852e-06
4.61694e-06
4.56078e-06
4.50255e-06
4.44411e-06
4.38213e-06
4.31297e-06
4.23377e-06
4.14207e-06
4.03621e-06
3.91742e-06
3.78661e-06
3.64342e-06
3.48647e-06
3.31338e-06
3.12115e-06
2.90751e-06
2.67203e-06
2.41643e-06
2.15298e-06
1.91344e-06
1.77709e-06
1.85592e-06
2.51254e-06
4.93196e-06
1.38833e-05
4.03952e-05
8.47548e-05
0.000130947
0.000170295
0.000200998
0.00022283
0.000235481
0.000238643
0.000232656
0.000220156
0.000207497
0.000203332
0.000198538
0.000190302
5.03025e-06
5.02278e-06
5.01463e-06
5.00583e-06
4.99639e-06
4.98625e-06
4.97537e-06
4.96371e-06
4.9512e-06
4.93779e-06
4.92341e-06
4.908e-06
4.89148e-06
4.87376e-06
4.85476e-06
4.83437e-06
4.81249e-06
4.789e-06
4.76376e-06
4.73661e-06
4.70741e-06
4.67595e-06
4.64207e-06
4.60557e-06
4.56619e-06
4.52367e-06
4.4777e-06
4.42792e-06
4.37394e-06
4.31533e-06
4.25156e-06
4.18199e-06
4.10593e-06
4.02244e-06
3.93029e-06
3.82808e-06
3.71455e-06
3.58878e-06
3.45376e-06
3.31721e-06
3.17352e-06
3.01567e-06
2.84014e-06
2.64569e-06
2.43283e-06
2.20711e-06
1.98104e-06
1.77192e-06
1.63003e-06
1.62802e-06
1.97011e-06
3.09023e-06
6.43665e-06
1.67405e-05
4.26444e-05
8.30129e-05
0.000125157
0.000162391
0.000193401
0.000217649
0.000234319
0.000242568
0.000241899
0.00023314
0.000219997
0.000209752
0.000206065
0.000201955
0.000194261
4.74968e-06
4.73975e-06
4.72903e-06
4.71755e-06
4.70528e-06
4.69218e-06
4.6782e-06
4.66329e-06
4.64736e-06
4.63036e-06
4.6122e-06
4.59279e-06
4.57204e-06
4.54984e-06
4.52608e-06
4.50062e-06
4.47332e-06
4.44403e-06
4.41258e-06
4.37877e-06
4.34237e-06
4.30322e-06
4.26115e-06
4.21586e-06
4.16703e-06
4.11428e-06
4.05723e-06
3.9954e-06
3.92828e-06
3.85529e-06
3.77566e-06
3.68842e-06
3.5925e-06
3.48645e-06
3.3693e-06
3.2417e-06
3.10468e-06
2.96051e-06
2.81817e-06
2.66605e-06
2.50024e-06
2.32022e-06
2.12877e-06
1.93298e-06
1.74148e-06
1.57743e-06
1.47026e-06
1.46169e-06
1.68123e-06
2.37706e-06
4.16202e-06
8.6004e-06
1.9525e-05
4.26511e-05
7.7099e-05
0.000114294
0.000149098
0.000180053
0.000206173
0.000226313
0.000239373
0.000244446
0.000241228
0.000231029
0.000218095
0.000211598
0.000209582
0.000206894
0.000200571
4.36773e-06
4.35487e-06
4.34108e-06
4.32638e-06
4.31072e-06
4.29406e-06
4.27634e-06
4.25748e-06
4.2374e-06
4.21601e-06
4.19321e-06
4.1689e-06
4.14296e-06
4.11525e-06
4.08563e-06
4.05394e-06
4.02e-06
3.98362e-06
3.94458e-06
3.90264e-06
3.85756e-06
3.80915e-06
3.75704e-06
3.70087e-06
3.64025e-06
3.57474e-06
3.50382e-06
3.42692e-06
3.34333e-06
3.25215e-06
3.15212e-06
3.0424e-06
2.92211e-06
2.7933e-06
2.65623e-06
2.5193e-06
2.38219e-06
2.23797e-06
2.08509e-06
1.92473e-06
1.76246e-06
1.60204e-06
1.45941e-06
1.34957e-06
1.28167e-06
1.31604e-06
1.51323e-06
2.03005e-06
3.23049e-06
5.857e-06
1.11354e-05
2.10981e-05
3.89957e-05
6.59608e-05
9.7906e-05
0.000130357
0.000160923
0.000188156
0.000210859
0.000227941
0.000238357
0.000241301
0.000236743
0.000225969
0.000212613
0.000211872
0.000212664
0.000212085
0.000207837
3.83308e-06
3.81682e-06
3.79947e-06
3.78103e-06
3.76145e-06
3.74069e-06
3.71865e-06
3.69525e-06
3.67039e-06
3.64398e-06
3.61588e-06
3.58598e-06
3.55413e-06
3.52017e-06
3.48392e-06
3.44521e-06
3.40382e-06
3.35953e-06
3.31206e-06
3.26119e-06
3.2068e-06
3.14847e-06
3.08577e-06
3.01825e-06
2.94536e-06
2.86649e-06
2.78096e-06
2.68808e-06
2.58698e-06
2.47639e-06
2.35808e-06
2.23351e-06
2.10363e-06
1.98318e-06
1.86064e-06
1.73438e-06
1.60703e-06
1.47972e-06
1.35855e-06
1.25277e-06
1.17234e-06
1.11405e-06
1.12043e-06
1.20993e-06
1.42692e-06
1.87484e-06
2.78195e-06
4.5956e-06
7.93102e-06
1.30839e-05
2.00034e-05
3.04165e-05
4.84955e-05
7.50615e-05
0.000105468
0.000135477
0.000163098
0.000187315
0.000207264
0.000222011
0.000230638
0.000232528
0.000227721
0.000217468
0.000205752
0.000209433
0.000213237
0.000215008
0.000213169
3.08136e-06
3.06194e-06
3.04134e-06
3.01956e-06
2.99653e-06
2.97219e-06
2.94647e-06
2.91925e-06
2.89045e-06
2.85995e-06
2.82763e-06
2.79335e-06
2.75697e-06
2.71832e-06
2.67723e-06
2.63352e-06
2.58697e-06
2.53737e-06
2.48447e-06
2.42793e-06
2.36726e-06
2.30202e-06
2.23177e-06
2.15609e-06
2.07459e-06
1.98698e-06
1.89316e-06
1.79318e-06
1.68827e-06
1.57812e-06
1.48002e-06
1.38558e-06
1.29215e-06
1.20032e-06
1.11599e-06
1.04349e-06
9.86486e-07
9.38555e-07
9.22322e-07
9.45817e-07
1.01943e-06
1.16026e-06
1.4039e-06
1.8186e-06
2.5401e-06
3.81591e-06
6.01308e-06
9.3029e-06
1.29039e-05
1.53843e-05
1.78382e-05
2.55631e-05
4.43956e-05
7.19934e-05
0.00010153
0.00012933
0.000154282
0.000175881
0.000193544
0.000206522
0.000214045
0.000215505
0.000210642
0.000199873
0.000192541
0.000199951
0.000207158
0.000211383
0.000211848
2.07398e-06
2.05428e-06
2.03351e-06
2.01165e-06
1.98867e-06
1.96451e-06
1.93912e-06
1.91242e-06
1.88433e-06
1.85478e-06
1.82365e-06
1.79086e-06
1.75629e-06
1.71983e-06
1.68136e-06
1.64076e-06
1.59798e-06
1.55247e-06
1.50376e-06
1.4517e-06
1.39627e-06
1.33756e-06
1.2758e-06
1.21138e-06
1.1449e-06
1.07718e-06
1.0094e-06
9.42619e-07
8.85015e-07
8.35845e-07
7.88901e-07
7.50167e-07
7.21755e-07
7.03827e-07
7.13416e-07
7.44431e-07
7.9735e-07
8.76607e-07
9.90001e-07
1.14957e-06
1.37778e-06
1.71534e-06
2.22613e-06
3.02143e-06
4.27798e-06
6.07769e-06
8.11799e-06
9.33594e-06
8.57644e-06
6.51134e-06
7.05181e-06
1.26153e-05
2.86165e-05
5.38001e-05
8.19386e-05
0.000107971
0.000130686
0.000149928
0.000165461
0.000176774
0.000183214
0.000183983
0.000178397
0.0001691
0.000166426
0.000173537
0.000186324
0.000193713
0.000196684
9.57257e-07
9.44297e-07
9.30852e-07
9.16962e-07
9.02627e-07
8.87817e-07
8.72496e-07
8.56626e-07
8.40164e-07
8.23068e-07
8.05297e-07
7.86811e-07
7.67595e-07
7.47634e-07
7.26915e-07
7.05381e-07
6.83022e-07
6.60257e-07
6.37509e-07
6.15098e-07
5.93355e-07
5.72645e-07
5.53363e-07
5.35897e-07
5.20946e-07
5.0898e-07
5.0063e-07
5.00944e-07
5.14307e-07
5.3692e-07
5.67427e-07
6.05566e-07
6.51575e-07
7.05707e-07
7.68127e-07
8.39145e-07
9.20456e-07
1.01675e-06
1.1384e-06
1.30702e-06
1.54947e-06
1.87537e-06
2.29123e-06
2.84479e-06
3.5021e-06
3.94533e-06
3.6073e-06
2.48336e-06
1.91706e-06
1.60806e-06
1.61697e-06
2.93759e-06
7.4523e-06
1.92383e-05
4.07253e-05
6.38883e-05
8.41931e-05
0.000100539
0.000112588
0.000120276
0.000123568
0.000124359
0.000123766
0.000121816
0.000122303
0.00012769
0.000135878
0.000145985
0.000154341
2.24602e-07
2.28086e-07
2.32758e-07
2.38008e-07
2.43554e-07
2.49243e-07
2.54975e-07
2.60679e-07
2.66298e-07
2.71796e-07
2.77103e-07
2.82292e-07
2.88024e-07
2.9451e-07
3.01855e-07
3.10189e-07
3.19617e-07
3.30215e-07
3.42057e-07
3.55204e-07
3.69696e-07
3.85533e-07
4.02654e-07
4.20914e-07
4.40051e-07
4.59653e-07
4.79128e-07
4.97745e-07
5.14478e-07
5.2809e-07
5.37277e-07
5.40847e-07
5.38042e-07
5.28967e-07
5.14938e-07
4.99355e-07
4.87385e-07
4.83098e-07
4.94885e-07
5.39413e-07
5.99608e-07
5.95945e-07
5.41004e-07
4.78868e-07
3.77767e-07
3.89687e-07
3.49253e-07
2.68258e-07
2.17678e-07
2.07917e-07
1.9441e-07
2.4172e-07
4.4066e-07
1.29139e-06
3.55881e-06
8.06938e-06
1.48932e-05
2.30516e-05
3.11969e-05
3.8094e-05
4.3245e-05
4.70795e-05
4.99563e-05
5.20204e-05
5.41932e-05
5.71557e-05
6.08258e-05
6.48223e-05
6.74715e-05
1.26554e-07
1.30955e-07
1.35513e-07
1.40213e-07
1.45015e-07
1.4988e-07
1.54769e-07
1.59635e-07
1.64429e-07
1.69088e-07
1.73564e-07
1.77695e-07
1.80918e-07
1.83104e-07
1.8423e-07
1.84287e-07
1.83252e-07
1.81085e-07
1.77732e-07
1.73134e-07
1.67232e-07
1.59981e-07
1.51359e-07
1.41381e-07
1.30114e-07
1.17693e-07
1.04333e-07
9.03372e-08
7.61003e-08
6.20939e-08
4.88439e-08
3.68895e-08
2.67247e-08
1.87107e-08
1.29804e-08
9.44369e-09
7.1101e-09
4.85219e-09
2.81019e-09
2.03478e-09
2.38418e-09
2.21073e-09
1.81922e-09
1.78348e-09
1.80971e-09
1.93102e-09
1.74839e-09
1.3771e-09
9.99092e-10
6.81911e-10
5.02157e-10
6.14282e-10
1.07804e-09
2.15252e-09
5.78455e-09
1.67339e-08
4.43244e-08
9.52897e-08
1.67134e-07
2.57254e-07
3.55415e-07
4.56577e-07
5.55935e-07
6.55696e-07
7.64631e-07
8.5511e-07
9.25622e-07
9.59383e-07
9.0689e-07
6.136e-06
6.12834e-06
6.12408e-06
6.12237e-06
6.12501e-06
6.13315e-06
6.1431e-06
6.14385e-06
6.13922e-06
6.13629e-06
6.13464e-06
6.13569e-06
6.1378e-06
6.14472e-06
6.14635e-06
6.13749e-06
6.12785e-06
6.11875e-06
6.11134e-06
6.10677e-06
6.09435e-06
6.07007e-06
6.07385e-06
6.08303e-06
6.08628e-06
6.08855e-06
6.09616e-06
6.09771e-06
6.09566e-06
6.09201e-06
6.09305e-06
6.09208e-06
6.08028e-06
6.07434e-06
6.08773e-06
6.10845e-06
6.11241e-06
6.10179e-06
6.09736e-06
6.09903e-06
6.10788e-06
6.11938e-06
6.14429e-06
6.16798e-06
6.1764e-06
6.18682e-06
6.20093e-06
6.21249e-06
6.21459e-06
6.20339e-06
6.19816e-06
6.20344e-06
6.21908e-06
6.23337e-06
6.25008e-06
6.26985e-06
6.28374e-06
6.29269e-06
6.29917e-06
6.12266e-06
6.12271e-06
6.12623e-06
6.13255e-06
6.14015e-06
6.14223e-06
6.1385e-06
6.12975e-06
6.12601e-06
6.12566e-06
6.12811e-06
6.13363e-06
6.14079e-06
6.13951e-06
6.13123e-06
6.12162e-06
6.114e-06
6.10699e-06
6.10124e-06
6.09322e-06
6.07782e-06
6.06119e-06
6.06783e-06
6.07556e-06
6.07853e-06
6.082e-06
6.08872e-06
6.08974e-06
6.08746e-06
6.08409e-06
6.08513e-06
6.0841e-06
6.0738e-06
6.06736e-06
6.07755e-06
6.0969e-06
6.10489e-06
6.09812e-06
6.09222e-06
6.09087e-06
6.09605e-06
6.10441e-06
6.12175e-06
6.14404e-06
6.15967e-06
6.1736e-06
6.19011e-06
6.20703e-06
6.21904e-06
6.21934e-06
6.2083e-06
6.20092e-06
6.20165e-06
6.20701e-06
6.21531e-06
6.22779e-06
6.24223e-06
6.25868e-06
6.27323e-06
6.13159e-06
6.13486e-06
6.13864e-06
6.13955e-06
6.13657e-06
6.12846e-06
6.11943e-06
6.11592e-06
6.11706e-06
6.12182e-06
6.12983e-06
6.13708e-06
6.1346e-06
6.12306e-06
6.11375e-06
6.1068e-06
6.10085e-06
6.09493e-06
6.08803e-06
6.07622e-06
6.06117e-06
6.05304e-06
6.06075e-06
6.06716e-06
6.07022e-06
6.07456e-06
6.08027e-06
6.08082e-06
6.07842e-06
6.07539e-06
6.07628e-06
6.07522e-06
6.06635e-06
6.05988e-06
6.06705e-06
6.08416e-06
6.09465e-06
6.09425e-06
6.08768e-06
6.08313e-06
6.08494e-06
6.09051e-06
6.10192e-06
6.11963e-06
6.13716e-06
6.15246e-06
6.17105e-06
6.19191e-06
6.21097e-06
6.22325e-06
6.22456e-06
6.21929e-06
6.20896e-06
6.20205e-06
6.19995e-06
6.2022e-06
6.20811e-06
6.217e-06
6.22761e-06
6.13777e-06
6.13547e-06
6.1309e-06
6.12283e-06
6.11371e-06
6.10868e-06
6.10703e-06
6.11048e-06
6.11773e-06
6.12738e-06
6.13258e-06
6.12864e-06
6.11543e-06
6.10413e-06
6.09764e-06
6.09292e-06
6.08747e-06
6.08075e-06
6.07134e-06
6.05795e-06
6.04646e-06
6.04472e-06
6.0524e-06
6.0578e-06
6.06118e-06
6.06598e-06
6.07072e-06
6.07085e-06
6.06842e-06
6.06568e-06
6.06636e-06
6.06538e-06
6.05779e-06
6.05155e-06
6.05613e-06
6.07056e-06
6.08222e-06
6.08743e-06
6.08301e-06
6.07645e-06
6.07455e-06
6.07711e-06
6.08421e-06
6.09681e-06
6.11242e-06
6.12762e-06
6.14388e-06
6.16336e-06
6.18747e-06
6.20906e-06
6.22365e-06
6.23032e-06
6.22888e-06
6.22273e-06
6.21238e-06
6.20436e-06
6.19987e-06
6.19889e-06
6.20078e-06
6.12308e-06
6.1143e-06
6.10607e-06
6.10025e-06
6.09825e-06
6.10029e-06
6.10602e-06
6.11492e-06
6.12453e-06
6.12678e-06
6.11992e-06
6.10553e-06
6.0936e-06
6.08651e-06
6.08269e-06
6.07831e-06
6.0719e-06
6.06339e-06
6.05213e-06
6.03997e-06
6.03324e-06
6.03553e-06
6.04263e-06
6.04737e-06
6.05113e-06
6.05604e-06
6.05987e-06
6.05966e-06
6.05724e-06
6.05477e-06
6.05524e-06
6.05437e-06
6.04789e-06
6.04202e-06
6.04451e-06
6.05615e-06
6.06786e-06
6.07642e-06
6.07665e-06
6.07062e-06
6.06555e-06
6.0645e-06
6.06776e-06
6.07575e-06
6.08771e-06
6.10123e-06
6.11533e-06
6.13092e-06
6.14975e-06
6.17476e-06
6.19884e-06
6.21764e-06
6.22962e-06
6.23498e-06
6.23406e-06
6.2293e-06
6.22229e-06
6.21401e-06
6.20722e-06
6.09838e-06
6.0911e-06
6.08979e-06
6.0914e-06
6.09633e-06
6.10403e-06
6.11332e-06
6.11895e-06
6.11713e-06
6.10688e-06
6.09235e-06
6.0808e-06
6.07366e-06
6.07013e-06
6.06676e-06
6.06111e-06
6.05304e-06
6.04305e-06
6.03184e-06
6.02285e-06
6.02053e-06
6.02497e-06
6.03131e-06
6.03569e-06
6.03977e-06
6.04451e-06
6.04754e-06
6.04705e-06
6.0447e-06
6.04244e-06
6.04271e-06
6.04195e-06
6.03643e-06
6.03103e-06
6.03192e-06
6.04086e-06
6.05176e-06
6.06183e-06
6.06664e-06
6.06381e-06
6.05787e-06
6.05355e-06
6.05286e-06
6.05641e-06
6.06408e-06
6.07456e-06
6.08639e-06
6.09904e-06
6.11297e-06
6.13089e-06
6.15147e-06
6.17641e-06
6.1992e-06
6.21707e-06
6.22934e-06
6.23637e-06
6.23921e-06
6.23833e-06
6.23568e-06
6.08538e-06
6.0839e-06
6.08905e-06
6.09581e-06
6.10334e-06
6.10801e-06
6.10779e-06
6.10091e-06
6.08821e-06
6.07546e-06
6.065e-06
6.05863e-06
6.0553e-06
6.0525e-06
6.04773e-06
6.04027e-06
6.03093e-06
6.02078e-06
6.01149e-06
6.00633e-06
6.00734e-06
6.01266e-06
6.01829e-06
6.02252e-06
6.0268e-06
6.03118e-06
6.0335e-06
6.03281e-06
6.03053e-06
6.02845e-06
6.02853e-06
6.02788e-06
6.02322e-06
6.01834e-06
6.01806e-06
6.02453e-06
6.03401e-06
6.04415e-06
6.05205e-06
6.05361e-06
6.04965e-06
6.04407e-06
6.04011e-06
6.0394e-06
6.04247e-06
6.04889e-06
6.05761e-06
6.06761e-06
6.07835e-06
6.09064e-06
6.10491e-06
6.12258e-06
6.14206e-06
6.16486e-06
6.18645e-06
6.20463e-06
6.21896e-06
6.22936e-06
6.23699e-06
6.08713e-06
6.08884e-06
6.09403e-06
6.09549e-06
6.09411e-06
6.0879e-06
6.0773e-06
6.06545e-06
6.05457e-06
6.04612e-06
6.0409e-06
6.03794e-06
6.0354e-06
6.03126e-06
6.02455e-06
6.01583e-06
6.00638e-06
5.99759e-06
5.99131e-06
5.98967e-06
5.9928e-06
5.99827e-06
6.00334e-06
6.00754e-06
6.01186e-06
6.01578e-06
6.01749e-06
6.01665e-06
6.01446e-06
6.01251e-06
6.01242e-06
6.01188e-06
6.00797e-06