/*--------------------------------*- C++ -*----------------------------------*\
| =========                 |                                                 |
| \\      /  F ield         | OpenFOAM: The Open Source CFD Toolbox           |
|  \\    /   O peration     | Version:  2312                                  |
|   \\  /    A nd           | Website:  www.openfoam.com                      |
|    \\/     M anipulation  |                                                 |
\*---------------------------------------------------------------------------*/
FoamFile
{
    version     2.0;
    format      ascii;
    arch        "LSB;label=32;scalar=64";
    class       volScalarField;
    location    "700";
    object      nuTilda;
}
// * * * * * * * * * * * * * * * * * * * * * * * * * * * * * * * * * * * * * //

dimensions      [0 2 -1 0 0 0 0];

internalField   nonuniform List<scalar> 
76025
(
4.04359e-05
4.04419e-05
4.04452e-05
4.04512e-05
4.04632e-05
4.04798e-05
4.04995e-05
4.05179e-05
4.05341e-05
4.05502e-05
4.05675e-05
4.05846e-05
4.05994e-05
4.06106e-05
4.06204e-05
4.06313e-05
4.06417e-05
4.06524e-05
4.0661e-05
4.06679e-05
4.06667e-05
4.06634e-05
4.06671e-05
4.06786e-05
4.06946e-05
4.07135e-05
4.0738e-05
4.0762e-05
4.07889e-05
4.08191e-05
4.08524e-05
4.08806e-05
4.09088e-05
4.09301e-05
4.09468e-05
4.09547e-05
4.09581e-05
4.09583e-05
4.09531e-05
4.09426e-05
4.09287e-05
4.09125e-05
4.08927e-05
4.08728e-05
4.08516e-05
4.0846e-05
4.08464e-05
4.08443e-05
4.08382e-05
4.08269e-05
4.0811e-05
4.07917e-05
4.07713e-05
4.07522e-05
4.07342e-05
4.07128e-05
4.06809e-05
4.06298e-05
4.05475e-05
4.04209e-05
4.02458e-05
3.99921e-05
3.96251e-05
3.90816e-05
3.83246e-05
3.79592e-05
4.18314e-05
5.99766e-05
9.79888e-05
4.04043e-05
4.0428e-05
4.04449e-05
4.04559e-05
4.04656e-05
4.04742e-05
4.04863e-05
4.05011e-05
4.0517e-05
4.05328e-05
4.05488e-05
4.05654e-05
4.05824e-05
4.05988e-05
4.06123e-05
4.06253e-05
4.06365e-05
4.06474e-05
4.06575e-05
4.06671e-05
4.06744e-05
4.06788e-05
4.06816e-05
4.06843e-05
4.068e-05
4.06759e-05
4.06736e-05
4.06726e-05
4.06728e-05
4.06735e-05
4.06744e-05
4.06765e-05
4.06796e-05
4.06837e-05
4.06891e-05
4.06944e-05
4.07095e-05
4.07286e-05
4.07493e-05
4.07701e-05
4.07902e-05
4.08084e-05
4.08235e-05
4.08341e-05
4.08392e-05
4.08378e-05
4.08296e-05
4.08151e-05
4.0796e-05
4.07747e-05
4.07537e-05
4.0735e-05
4.07189e-05
4.07033e-05
4.06834e-05
4.06524e-05
4.06021e-05
4.05238e-05
4.04085e-05
4.02466e-05
4.00214e-05
3.97068e-05
3.92559e-05
3.8601e-05
3.77952e-05
3.81204e-05
4.57011e-05
7.16996e-05
0.000116741
4.03227e-05
4.03559e-05
4.03879e-05
4.04157e-05
4.04387e-05
4.04569e-05
4.04722e-05
4.04863e-05
4.05005e-05
4.0515e-05
4.05296e-05
4.05445e-05
4.05598e-05
4.05755e-05
4.05912e-05
4.06062e-05
4.06204e-05
4.06336e-05
4.0646e-05
4.06578e-05
4.06689e-05
4.06791e-05
4.06881e-05
4.06961e-05
4.07023e-05
4.07072e-05
4.07113e-05
4.07152e-05
4.07195e-05
4.07246e-05
4.07307e-05
4.07375e-05
4.0745e-05
4.07532e-05
4.07622e-05
4.07717e-05
4.07815e-05
4.07912e-05
4.08001e-05
4.08073e-05
4.08118e-05
4.08128e-05
4.08096e-05
4.08017e-05
4.07893e-05
4.0773e-05
4.07541e-05
4.07345e-05
4.0716e-05
4.07001e-05
4.06869e-05
4.06755e-05
4.06627e-05
4.06436e-05
4.06121e-05
4.05613e-05
4.04843e-05
4.03742e-05
4.0223e-05
4.00189e-05
3.97422e-05
3.93577e-05
3.88068e-05
3.80344e-05
3.73095e-05
3.90906e-05
5.21227e-05
8.654e-05
0.000135327
4.02551e-05
4.02716e-05
4.02935e-05
4.03182e-05
4.03495e-05
4.03811e-05
4.041e-05
4.04355e-05
4.04579e-05
4.04779e-05
4.04963e-05
4.05134e-05
4.05297e-05
4.05455e-05
4.05611e-05
4.05765e-05
4.05916e-05
4.06062e-05
4.06203e-05
4.06338e-05
4.06466e-05
4.0659e-05
4.06707e-05
4.06818e-05
4.06923e-05
4.07021e-05
4.07112e-05
4.07197e-05
4.07276e-05
4.07352e-05
4.07425e-05
4.07494e-05
4.0756e-05
4.0762e-05
4.07674e-05
4.07717e-05
4.07745e-05
4.07755e-05
4.07741e-05
4.077e-05
4.07628e-05
4.07525e-05
4.07393e-05
4.0724e-05
4.07074e-05
4.0691e-05
4.06759e-05
4.06633e-05
4.06533e-05
4.06451e-05
4.06367e-05
4.06244e-05
4.06037e-05
4.05692e-05
4.05156e-05
4.04374e-05
4.03294e-05
4.01854e-05
3.99963e-05
3.97465e-05
3.9409e-05
3.89379e-05
3.8269e-05
3.74047e-05
3.70611e-05
4.15105e-05
6.17453e-05
0.00010388
0.000152823
4.02469e-05
4.02409e-05
4.02413e-05
4.02476e-05
4.02605e-05
4.02789e-05
4.03005e-05
4.03274e-05
4.03575e-05
4.03872e-05
4.0415e-05
4.04405e-05
4.04637e-05
4.04849e-05
4.05046e-05
4.05229e-05
4.05402e-05
4.05567e-05
4.05723e-05
4.05872e-05
4.06013e-05
4.06148e-05
4.06275e-05
4.06395e-05
4.06508e-05
4.06614e-05
4.06712e-05
4.06801e-05
4.06882e-05
4.06954e-05
4.07014e-05
4.07064e-05
4.07101e-05
4.07123e-05
4.07128e-05
4.07115e-05
4.07081e-05
4.07025e-05
4.06947e-05
4.06848e-05
4.06734e-05
4.06609e-05
4.06482e-05
4.06363e-05
4.06259e-05
4.06177e-05
4.06117e-05
4.06072e-05
4.06024e-05
4.05947e-05
4.05806e-05
4.0556e-05
4.05167e-05
4.04585e-05
4.03775e-05
4.02696e-05
4.01301e-05
3.99513e-05
3.97206e-05
3.94166e-05
3.90033e-05
3.84254e-05
3.76297e-05
3.67711e-05
3.73996e-05
4.62449e-05
7.48888e-05
0.0001225
0.000167914
4.03003e-05
4.0286e-05
4.02671e-05
4.02518e-05
4.02413e-05
4.02364e-05
4.02371e-05
4.02434e-05
4.02552e-05
4.02709e-05
4.02906e-05
4.03167e-05
4.03446e-05
4.03719e-05
4.03977e-05
4.04217e-05
4.04441e-05
4.04648e-05
4.04841e-05
4.05019e-05
4.05185e-05
4.05338e-05
4.05479e-05
4.05609e-05
4.05728e-05
4.05835e-05
4.0593e-05
4.06014e-05
4.06085e-05
4.06142e-05
4.06183e-05
4.06209e-05
4.06218e-05
4.0621e-05
4.06186e-05
4.06146e-05
4.06092e-05
4.06027e-05
4.05954e-05
4.0588e-05
4.05811e-05
4.05751e-05
4.05706e-05
4.05678e-05
4.05664e-05
4.05657e-05
4.05641e-05
4.05596e-05
4.05493e-05
4.05303e-05
4.04993e-05
4.04533e-05
4.03891e-05
4.0304e-05
4.01949e-05
4.00576e-05
3.98858e-05
3.96685e-05
3.93879e-05
3.90155e-05
3.85064e-05
3.78014e-05
3.68994e-05
3.6295e-05
3.89456e-05
5.41815e-05
9.12916e-05
0.000140901
0.000180009
4.03215e-05
4.03243e-05
4.03198e-05
4.03101e-05
4.0297e-05
4.02816e-05
4.02641e-05
4.02495e-05
4.02387e-05
4.0232e-05
4.02298e-05
4.02327e-05
4.02411e-05
4.02564e-05
4.02769e-05
4.02993e-05
4.0322e-05
4.03441e-05
4.03651e-05
4.03849e-05
4.04034e-05
4.04204e-05
4.04361e-05
4.04503e-05
4.04632e-05
4.04745e-05
4.04845e-05
4.0493e-05
4.05001e-05
4.05056e-05
4.05096e-05
4.05123e-05
4.05139e-05
4.05145e-05
4.05143e-05
4.05136e-05
4.05127e-05
4.05121e-05
4.05121e-05
4.05129e-05
4.05147e-05
4.05172e-05
4.05202e-05
4.05226e-05
4.05232e-05
4.05202e-05
4.05116e-05
4.0495e-05
4.04682e-05
4.04288e-05
4.03747e-05
4.03039e-05
4.02142e-05
4.0103e-05
3.99667e-05
3.97992e-05
3.95908e-05
3.93262e-05
3.89818e-05
3.85214e-05
3.78927e-05
3.70505e-05
3.61394e-05
3.63296e-05
4.26721e-05
6.6025e-05
0.000110043
0.000157704
0.000189206
4.0259e-05
4.02865e-05
4.03063e-05
4.03188e-05
4.03247e-05
4.03248e-05
4.03198e-05
4.03113e-05
4.03005e-05
4.02889e-05
4.02774e-05
4.02671e-05
4.02593e-05
4.02554e-05
4.02559e-05
4.02605e-05
4.02685e-05
4.0279e-05
4.0291e-05
4.03039e-05
4.03173e-05
4.03306e-05
4.03435e-05
4.03559e-05
4.03675e-05
4.03782e-05
4.0388e-05
4.03968e-05
4.04046e-05
4.04115e-05
4.04179e-05
4.04238e-05
4.04296e-05
4.04352e-05
4.04408e-05
4.04466e-05
4.04527e-05
4.04591e-05
4.04654e-05
4.04716e-05
4.04768e-05
4.04803e-05
4.04809e-05
4.04772e-05
4.04678e-05
4.04509e-05
4.04249e-05
4.03883e-05
4.03396e-05
4.02773e-05
4.02e-05
4.01058e-05
3.99923e-05
3.98558e-05
3.96906e-05
3.94875e-05
3.92328e-05
3.89063e-05
3.84786e-05
3.79059e-05
3.71347e-05
3.61834e-05
3.55368e-05
3.75733e-05
4.98232e-05
8.20178e-05
0.000129752
0.000171962
0.000196042
4.01271e-05
4.01694e-05
4.02071e-05
4.02398e-05
4.02671e-05
4.02888e-05
4.03048e-05
4.03156e-05
4.03218e-05
4.03239e-05
4.03229e-05
4.03195e-05
4.03146e-05
4.03093e-05
4.03046e-05
4.03011e-05
4.02993e-05
4.02994e-05
4.03011e-05
4.03044e-05
4.0309e-05
4.03147e-05
4.03212e-05
4.03282e-05
4.03355e-05
4.0343e-05
4.03506e-05
4.0358e-05
4.03654e-05
4.03729e-05
4.03806e-05
4.03886e-05
4.03966e-05
4.04047e-05
4.04127e-05
4.04202e-05
4.0427e-05
4.04325e-05
4.04362e-05
4.04372e-05
4.04347e-05
4.04275e-05
4.04146e-05
4.03949e-05
4.03673e-05
4.03308e-05
4.02843e-05
4.0227e-05
4.01575e-05
4.00747e-05
3.99766e-05
3.98607e-05
3.97232e-05
3.95583e-05
3.93573e-05
3.91072e-05
3.87903e-05
3.83822e-05
3.7847e-05
3.71341e-05
3.62145e-05
3.52913e-05
3.55546e-05
4.12565e-05
6.15665e-05
0.000101621
0.000148846
0.000183273
0.000201212
3.99812e-05
4.00157e-05
4.00524e-05
4.00911e-05
4.01294e-05
4.01655e-05
4.01982e-05
4.02268e-05
4.02512e-05
4.02714e-05
4.02875e-05
4.02999e-05
4.03091e-05
4.03154e-05
4.03197e-05
4.03225e-05
4.03244e-05
4.03259e-05
4.03274e-05
4.03291e-05
4.03312e-05
4.03338e-05
4.03369e-05
4.03405e-05
4.03445e-05
4.03489e-05
4.03536e-05
4.03585e-05
4.03636e-05
4.03689e-05
4.0374e-05
4.0379e-05
4.03835e-05
4.03871e-05
4.03895e-05
4.03901e-05
4.03883e-05
4.03836e-05
4.03752e-05
4.03623e-05
4.03443e-05
4.03203e-05
4.02898e-05
4.0252e-05
4.02062e-05
4.01518e-05
4.00877e-05
4.0013e-05
3.99259e-05
3.98246e-05
3.97061e-05
3.95665e-05
3.93998e-05
3.91975e-05
3.89472e-05
3.86328e-05
3.82334e-05
3.77198e-05
3.70475e-05
3.61704e-05
3.51644e-05
3.46824e-05
3.72008e-05
4.91611e-05
7.87056e-05
0.000123524
0.000165937
0.000191681
0.000205613
3.98552e-05
3.98738e-05
3.98949e-05
3.99187e-05
3.99449e-05
3.99757e-05
4.0012e-05
4.00499e-05
4.00865e-05
4.01205e-05
4.01512e-05
4.01785e-05
4.02024e-05
4.0223e-05
4.02406e-05
4.02554e-05
4.02679e-05
4.02783e-05
4.02871e-05
4.02945e-05
4.03009e-05
4.03064e-05
4.03112e-05
4.03154e-05
4.03192e-05
4.03225e-05
4.03253e-05
4.03276e-05
4.03292e-05
4.03299e-05
4.03295e-05
4.03277e-05
4.03243e-05
4.03187e-05
4.03106e-05
4.02996e-05
4.02852e-05
4.02668e-05
4.02441e-05
4.02166e-05
4.01837e-05
4.01451e-05
4.01002e-05
4.00484e-05
3.99889e-05
3.99207e-05
3.98423e-05
3.9752e-05
3.96475e-05
3.95257e-05
3.93823e-05
3.92113e-05
3.90041e-05
3.87489e-05
3.84306e-05
3.80305e-05
3.75247e-05
3.68756e-05
3.60322e-05
3.50078e-05
3.41939e-05
3.51818e-05
4.23632e-05
6.31271e-05
0.000101008
0.000145842
0.000180073
0.000197464
0.000208541
3.97586e-05
3.97652e-05
3.97736e-05
3.97836e-05
3.97952e-05
3.98094e-05
3.9827e-05
3.98475e-05
3.98705e-05
3.98987e-05
3.99317e-05
3.99658e-05
3.99988e-05
4.00295e-05
4.00575e-05
4.00828e-05
4.01053e-05
4.01252e-05
4.01425e-05
4.01575e-05
4.01703e-05
4.01811e-05
4.019e-05
4.01971e-05
4.02026e-05
4.02063e-05
4.02084e-05
4.02087e-05
4.0207e-05
4.02032e-05
4.01971e-05
4.01886e-05
4.01774e-05
4.01634e-05
4.01462e-05
4.01255e-05
4.01012e-05
4.0073e-05
4.00404e-05
4.00032e-05
3.99609e-05
3.99128e-05
3.98583e-05
3.97962e-05
3.97254e-05
3.96442e-05
3.95506e-05
3.94421e-05
3.93154e-05
3.9166e-05
3.89877e-05
3.87717e-05
3.85065e-05
3.8178e-05
3.77693e-05
3.72592e-05
3.66167e-05
3.57931e-05
3.47674e-05
3.37907e-05
3.40194e-05
3.86473e-05
5.37478e-05
8.44372e-05
0.000126909
0.000166549
0.000190876
0.000201289
0.000210009
3.96763e-05
3.96764e-05
3.96775e-05
3.96792e-05
3.96815e-05
3.96845e-05
3.96886e-05
3.9694e-05
3.9701e-05
3.97104e-05
3.97225e-05
3.97369e-05
3.97542e-05
3.97765e-05
3.98028e-05
3.98302e-05
3.98568e-05
3.98817e-05
3.99044e-05
3.99247e-05
3.99425e-05
3.99577e-05
3.99703e-05
3.99804e-05
3.99879e-05
3.99928e-05
3.99951e-05
3.99944e-05
3.9991e-05
3.99848e-05
3.99759e-05
3.99639e-05
3.9949e-05
3.99309e-05
3.99094e-05
3.98845e-05
3.98557e-05
3.98227e-05
3.97851e-05
3.97424e-05
3.96936e-05
3.96379e-05
3.95741e-05
3.95007e-05
3.94159e-05
3.93176e-05
3.92033e-05
3.90693e-05
3.89109e-05
3.87216e-05
3.84924e-05
3.82119e-05
3.78669e-05
3.7442e-05
3.69181e-05
3.62668e-05
3.54455e-05
3.44207e-05
3.33576e-05
3.31828e-05
3.65245e-05
4.84232e-05
7.39825e-05
0.000112524
0.000153624
0.000183964
0.000198462
0.000204109
0.000209914
3.95947e-05
3.95915e-05
3.95888e-05
3.95861e-05
3.95834e-05
3.95807e-05
3.9578e-05
3.95754e-05
3.95729e-05
3.95708e-05
3.95693e-05
3.95684e-05
3.95687e-05
3.95707e-05
3.95747e-05
3.95814e-05
3.9592e-05
3.96069e-05
3.96244e-05
3.96426e-05
3.966e-05
3.96759e-05
3.96898e-05
3.97011e-05
3.97098e-05
3.97157e-05
3.97184e-05
3.97182e-05
3.97152e-05
3.97094e-05
3.97005e-05
3.96885e-05
3.96732e-05
3.96544e-05
3.96318e-05
3.9605e-05
3.95735e-05
3.95367e-05
3.9494e-05
3.94442e-05
3.93865e-05
3.93194e-05
3.92416e-05
3.91511e-05
3.90459e-05
3.8923e-05
3.87788e-05
3.86079e-05
3.84033e-05
3.81559e-05
3.78546e-05
3.74868e-05
3.70384e-05
3.64919e-05
3.582e-05
3.49823e-05
3.39497e-05
3.28504e-05
3.24703e-05
3.51823e-05
4.55114e-05
6.82448e-05
0.000103754
0.000144287
0.000177935
0.000197129
0.000203225
0.000206248
0.000208769
3.94996e-05
3.94948e-05
3.949e-05
3.94851e-05
3.94799e-05
3.94743e-05
3.94684e-05
3.94621e-05
3.94553e-05
3.94481e-05
3.94404e-05
3.94323e-05
3.94237e-05
3.94149e-05
3.94058e-05
3.93971e-05
3.93893e-05
3.93835e-05
3.93809e-05
3.93824e-05
3.93879e-05
3.93958e-05
3.94043e-05
3.94121e-05
3.94185e-05
3.94227e-05
3.94244e-05
3.94237e-05
3.94205e-05
3.94143e-05
3.9405e-05
3.93921e-05
3.93752e-05
3.93539e-05
3.93277e-05
3.92959e-05
3.92578e-05
3.92126e-05
3.91593e-05
3.90968e-05
3.90238e-05
3.89388e-05
3.88401e-05
3.87251e-05
3.85907e-05
3.84326e-05
3.82449e-05
3.802e-05
3.77487e-05
3.74206e-05
3.7024e-05
3.65455e-05
3.59677e-05
3.52644e-05
3.43963e-05
3.33427e-05
3.22419e-05
3.18249e-05
3.43197e-05
4.41277e-05
6.57939e-05
9.9911e-05
0.000139802
0.000174836
0.000197371
0.000205951
0.000205593
0.000206904
0.000206764
3.93764e-05
3.93714e-05
3.93657e-05
3.93595e-05
3.93528e-05
3.93457e-05
3.9338e-05
3.93297e-05
3.93207e-05
3.93109e-05
3.93004e-05
3.92891e-05
3.92768e-05
3.92635e-05
3.92491e-05
3.92336e-05
3.92172e-05
3.92e-05
3.91826e-05
3.91662e-05
3.91525e-05
3.91428e-05
3.91373e-05
3.91344e-05
3.91324e-05
3.91299e-05
3.91262e-05
3.9121e-05
3.91133e-05
3.91026e-05
3.90881e-05
3.90692e-05
3.90453e-05
3.90158e-05
3.898e-05
3.89369e-05
3.88859e-05
3.88258e-05
3.87556e-05
3.8674e-05
3.85794e-05
3.84696e-05
3.83419e-05
3.81924e-05
3.8016e-05
3.78061e-05
3.75548e-05
3.72533e-05
3.68922e-05
3.64609e-05
3.59465e-05
3.53294e-05
3.45823e-05
3.36748e-05
3.25986e-05
3.15284e-05
3.1234e-05
3.3907e-05
4.38713e-05
6.56325e-05
9.97095e-05
0.000139621
0.000175358
0.000199834
0.000211044
0.00021106
0.00020597
0.000206348
0.000203927
3.92133e-05
3.92085e-05
3.92025e-05
3.91955e-05
3.91879e-05
3.91794e-05
3.91702e-05
3.91603e-05
3.91495e-05
3.91378e-05
3.91251e-05
3.91114e-05
3.90966e-05
3.90805e-05
3.90632e-05
3.90443e-05
3.90239e-05
3.90018e-05
3.89781e-05
3.89529e-05
3.89262e-05
3.88987e-05
3.88721e-05
3.8849e-05
3.88296e-05
3.88128e-05
3.87969e-05
3.87807e-05
3.87626e-05
3.87414e-05
3.87161e-05
3.86857e-05
3.86494e-05
3.86062e-05
3.85554e-05
3.84959e-05
3.84268e-05
3.83467e-05
3.82544e-05
3.81477e-05
3.80241e-05
3.78797e-05
3.771e-05
3.7509e-05
3.72699e-05
3.69851e-05
3.66468e-05
3.62471e-05
3.57763e-05
3.52198e-05
3.45556e-05
3.37546e-05
3.27981e-05
3.17217e-05
3.07448e-05
3.07285e-05
3.39184e-05
4.45387e-05
6.70451e-05
0.000101784
0.000142127
0.000178413
0.000204188
0.000217616
0.000219798
0.000214123
0.000208063
0.000205743
0.00020115
3.90023e-05
3.89967e-05
3.899e-05
3.89821e-05
3.89732e-05
3.89633e-05
3.89524e-05
3.89405e-05
3.89275e-05
3.89134e-05
3.88982e-05
3.88817e-05
3.88639e-05
3.88446e-05
3.88238e-05
3.88014e-05
3.87772e-05
3.8751e-05
3.87226e-05
3.8692e-05
3.86589e-05
3.86235e-05
3.85857e-05
3.85456e-05
3.85025e-05
3.84566e-05
3.84121e-05
3.83739e-05
3.83382e-05
3.83006e-05
3.8259e-05
3.82121e-05
3.81586e-05
3.80972e-05
3.80268e-05
3.79462e-05
3.78539e-05
3.7748e-05
3.76257e-05
3.74832e-05
3.73156e-05
3.71175e-05
3.68833e-05
3.66067e-05
3.62815e-05
3.59011e-05
3.54585e-05
3.49437e-05
3.43389e-05
3.36179e-05
3.2757e-05
3.17562e-05
3.07208e-05
2.99793e-05
3.04425e-05
3.44483e-05
4.60178e-05
6.94347e-05
0.000104779
0.000145282
0.000181788
0.000208653
0.000224272
0.000229086
0.000224671
0.000215417
0.000209165
0.000205155
0.000198813
3.87352e-05
3.87275e-05
3.87187e-05
3.87087e-05
3.86977e-05
3.86854e-05
3.8672e-05
3.86574e-05
3.86414e-05
3.86241e-05
3.86054e-05
3.85851e-05
3.85633e-05
3.85397e-05
3.85143e-05
3.84869e-05
3.84573e-05
3.84255e-05
3.83911e-05
3.8354e-05
3.8314e-05
3.82707e-05
3.8224e-05
3.81737e-05
3.81194e-05
3.80607e-05
3.79974e-05
3.79287e-05
3.78539e-05
3.77768e-05
3.7703e-05
3.76292e-05
3.75502e-05
3.74634e-05
3.73667e-05
3.72574e-05
3.71322e-05
3.69869e-05
3.6816e-05
3.66139e-05
3.63762e-05
3.60988e-05
3.57778e-05
3.54083e-05
3.49839e-05
3.44954e-05
3.39299e-05
3.3268e-05
3.24836e-05
3.15633e-05
3.05633e-05
2.96512e-05
2.93328e-05
3.06155e-05
3.56862e-05
4.8255e-05
7.22397e-05
0.000107401
0.000147095
0.000183117
0.000210855
0.000228921
0.000237091
0.000235717
0.000226593
0.000215101
0.000209851
0.000205203
0.000197801
3.83965e-05
3.83854e-05
3.83731e-05
3.83596e-05
3.83449e-05
3.83289e-05
3.83116e-05
3.82929e-05
3.82726e-05
3.82507e-05
3.82271e-05
3.82016e-05
3.81741e-05
3.81446e-05
3.81127e-05
3.80785e-05
3.80415e-05
3.80018e-05
3.79589e-05
3.79126e-05
3.78627e-05
3.78087e-05
3.77504e-05
3.76873e-05
3.76191e-05
3.75453e-05
3.74652e-05
3.73782e-05
3.72834e-05
3.71798e-05
3.7066e-05
3.69412e-05
3.68107e-05
3.66786e-05
3.65373e-05
3.63781e-05
3.61936e-05
3.59773e-05
3.57235e-05
3.54335e-05
3.51073e-05
3.47416e-05
3.43295e-05
3.38604e-05
3.33197e-05
3.26917e-05
3.19619e-05
3.11182e-05
3.01814e-05
2.92578e-05
2.86954e-05
2.90241e-05
3.14423e-05
3.77486e-05
5.11072e-05
7.48593e-05
0.000108502
0.000146005
0.000180636
0.000208891
0.000229433
0.000241467
0.000244488
0.000238773
0.000226901
0.000214973
0.000211071
0.000206596
0.000198951
3.79557e-05
3.79401e-05
3.7923e-05
3.79045e-05
3.78847e-05
3.78633e-05
3.78404e-05
3.78158e-05
3.77893e-05
3.77609e-05
3.77304e-05
3.76977e-05
3.76625e-05
3.76246e-05
3.7584e-05
3.75402e-05
3.74931e-05
3.74424e-05
3.73877e-05
3.73287e-05
3.7265e-05
3.71961e-05
3.71215e-05
3.70408e-05
3.69532e-05
3.68581e-05
3.67547e-05
3.66418e-05
3.65185e-05
3.63835e-05
3.62353e-05
3.60719e-05
3.58911e-05
3.56902e-05
3.54652e-05
3.52115e-05
3.49245e-05
3.45995e-05
3.42421e-05
3.3871e-05
3.34692e-05
3.30134e-05
3.24871e-05
3.18776e-05
3.11741e-05
3.03801e-05
2.95262e-05
2.86735e-05
2.80538e-05
2.80448e-05
2.94832e-05
3.32307e-05
4.06737e-05
5.42557e-05
7.66013e-05
0.000107159
0.000141102
0.000173516
0.000201821
0.000224531
0.000240359
0.000248243
0.000247602
0.000239235
0.000226751
0.00021709
0.00021363
0.000209784
0.000202619
3.73572e-05
3.73356e-05
3.73122e-05
3.72872e-05
3.72604e-05
3.72317e-05
3.7201e-05
3.71683e-05
3.71332e-05
3.70957e-05
3.70555e-05
3.70125e-05
3.69663e-05
3.69167e-05
3.68635e-05
3.68063e-05
3.67448e-05
3.66784e-05
3.66069e-05
3.65296e-05
3.6446e-05
3.63555e-05
3.62577e-05
3.61516e-05
3.60365e-05
3.59111e-05
3.57743e-05
3.56245e-05
3.54603e-05
3.52795e-05
3.50797e-05
3.48576e-05
3.46092e-05
3.43295e-05
3.40137e-05
3.36613e-05
3.32723e-05
3.28503e-05
3.24197e-05
3.19428e-05
3.14013e-05
3.07846e-05
3.00914e-05
2.9336e-05
2.85436e-05
2.78144e-05
2.73087e-05
2.72671e-05
2.82816e-05
3.09828e-05
3.60246e-05
4.4214e-05
5.70872e-05
7.66065e-05
0.000102628
0.000132057
0.000161716
0.00018952
0.000213731
0.000232739
0.000245186
0.000250043
0.000246961
0.000237223
0.000224952
0.000218826
0.00021693
0.000214407
0.000208491
3.65043e-05
3.64747e-05
3.6443e-05
3.64091e-05
3.63729e-05
3.63342e-05
3.62931e-05
3.62491e-05
3.62021e-05
3.6152e-05
3.60983e-05
3.60409e-05
3.59794e-05
3.59134e-05
3.58425e-05
3.57663e-05
3.56843e-05
3.55958e-05
3.55003e-05
3.5397e-05
3.52852e-05
3.51641e-05
3.50326e-05
3.48895e-05
3.47334e-05
3.45628e-05
3.43757e-05
3.41699e-05
3.39428e-05
3.36906e-05
3.34083e-05
3.30917e-05
3.27356e-05
3.2343e-05
3.19114e-05
3.14648e-05
3.10005e-05
3.04919e-05
2.99272e-05
2.9303e-05
2.86333e-05
2.79271e-05
2.7256e-05
2.67068e-05
2.63513e-05
2.65329e-05
2.75145e-05
2.97169e-05
3.36299e-05
3.9604e-05
4.77476e-05
5.86081e-05
7.37665e-05
9.42019e-05
0.000118804
0.000145503
0.000172202
0.000196969
0.00021813
0.000234285
0.000244214
0.000247031
0.000242672
0.000232412
0.000219781
0.000219084
0.000219829
0.000219284
0.000215292
3.52241e-05
3.51833e-05
3.51397e-05
3.50932e-05
3.50438e-05
3.49911e-05
3.49349e-05
3.48751e-05
3.48112e-05
3.4743e-05
3.46702e-05
3.45922e-05
3.45086e-05
3.4419e-05
3.43227e-05
3.42192e-05
3.41075e-05
3.39871e-05
3.38568e-05
3.37158e-05
3.35633e-05
3.33979e-05
3.32178e-05
3.3021e-05
3.28052e-05
3.25675e-05
3.23047e-05
3.2013e-05
3.16876e-05
3.13214e-05
3.0917e-05
3.04758e-05
2.99972e-05
2.95346e-05
2.90434e-05
2.8513e-05
2.79498e-05
2.73543e-05
2.67529e-05
2.61958e-05
2.57494e-05
2.54119e-05
2.54494e-05
2.59606e-05
2.70968e-05
2.91015e-05
3.23078e-05
3.70187e-05
4.31826e-05
5.01692e-05
5.75551e-05
6.68525e-05
8.10706e-05
0.000101077
0.00012486
0.000149879
0.00017415
0.000196193
0.000214754
0.000228657
0.000236851
0.000238651
0.000234076
0.000224359
0.000213336
0.00021679
0.000220369
0.000222038
0.000220305
3.3205e-05
3.31486e-05
3.30886e-05
3.30248e-05
3.2957e-05
3.2885e-05
3.28085e-05
3.2727e-05
3.26402e-05
3.25476e-05
3.24488e-05
3.23431e-05
3.223e-05
3.21087e-05
3.19785e-05
3.18384e-05
3.16875e-05
3.15247e-05
3.13485e-05
3.11574e-05
3.09489e-05
3.07205e-05
3.04695e-05
3.01929e-05
2.98874e-05
2.95495e-05
2.91759e-05
2.87633e-05
2.83126e-05
2.78176e-05
2.73558e-05
2.68903e-05
2.6407e-05
2.59071e-05
2.54233e-05
2.49861e-05
2.46266e-05
2.43127e-05
2.42037e-05
2.4361e-05
2.48361e-05
2.56804e-05
2.69823e-05
2.88697e-05
3.15337e-05
3.5181e-05
3.98983e-05
4.52469e-05
4.99539e-05
5.27972e-05
5.53957e-05
6.26932e-05
7.79472e-05
9.87509e-05
0.000121694
0.00014463
0.000166291
0.00018571
0.000201954
0.000214058
0.000221129
0.000222507
0.000217927
0.000207841
0.000201024
0.000207914
0.000214654
0.000218624
0.000219061
2.98851e-05
2.98099e-05
2.97302e-05
2.96456e-05
2.95561e-05
2.94612e-05
2.93605e-05
2.92537e-05
2.91401e-05
2.90194e-05
2.88907e-05
2.87535e-05
2.8607e-05
2.84502e-05
2.82822e-05
2.8102e-05
2.79086e-05
2.76989e-05
2.74695e-05
2.72185e-05
2.69441e-05
2.66449e-05
2.63199e-05
2.59687e-05
2.55921e-05
2.51919e-05
2.47729e-05
2.43398e-05
2.3948e-05
2.35988e-05
2.32513e-05
2.29531e-05
2.27272e-05
2.25813e-05
2.26596e-05
2.2908e-05
2.33149e-05
2.38893e-05
2.46492e-05
2.5619e-05
2.68509e-05
2.84307e-05
3.04491e-05
3.30303e-05
3.62969e-05
4.00187e-05
4.34757e-05
4.52944e-05
4.41779e-05
4.0807e-05
4.17454e-05
4.96054e-05
6.53372e-05
8.50735e-05
0.000106332
0.000126887
0.000145783
0.000162446
0.000176273
0.000186524
0.000192418
0.000193125
0.000188006
0.000179555
0.000177142
0.000183576
0.000195279
0.000202111
0.00020487
2.44365e-05
2.43509e-05
2.42612e-05
2.41675e-05
2.40697e-05
2.39675e-05
2.38605e-05
2.37482e-05
2.36301e-05
2.35057e-05
2.33743e-05
2.32355e-05
2.30886e-05
2.29332e-05
2.27687e-05
2.2594e-05
2.24085e-05
2.22151e-05
2.20169e-05
2.18165e-05
2.16169e-05
2.14219e-05
2.12355e-05
2.10626e-05
2.09113e-05
2.07879e-05
2.07005e-05
2.07038e-05
2.08431e-05
2.10729e-05
2.13719e-05
2.17297e-05
2.214e-05
2.25967e-05
2.30927e-05
2.36227e-05
2.41911e-05
2.48193e-05
2.55544e-05
2.64855e-05
2.76849e-05
2.91037e-05
3.06823e-05
3.25014e-05
3.43711e-05
3.55022e-05
3.46478e-05
3.13448e-05
2.92723e-05
2.79545e-05
2.79949e-05
3.27819e-05
4.24127e-05
5.68043e-05
7.5116e-05
9.26447e-05
0.000108069
0.000120901
0.000130655
0.000137013
0.000139766
0.000140431
0.000139933
0.000138299
0.000138706
0.00014324
0.000150224
0.000158986
0.000166343
1.68947e-05
1.69605e-05
1.70476e-05
1.71439e-05
1.7244e-05
1.73449e-05
1.74448e-05
1.75427e-05
1.76375e-05
1.77289e-05
1.78158e-05
1.78996e-05
1.79909e-05
1.80926e-05
1.82058e-05
1.83317e-05
1.84712e-05
1.86245e-05
1.87916e-05
1.89721e-05
1.91655e-05
1.93705e-05
1.95854e-05
1.98073e-05
2.00323e-05
2.02555e-05
2.04705e-05
2.06701e-05
2.08449e-05
2.0984e-05
2.10764e-05
2.1112e-05
2.10841e-05
2.09929e-05
2.08496e-05
2.06871e-05
2.05597e-05
2.05135e-05
2.06398e-05
2.10977e-05
2.16749e-05
2.1641e-05
2.11136e-05
2.04677e-05
1.92708e-05
1.94233e-05
1.8891e-05
1.76703e-05
1.67617e-05
1.65687e-05
1.62902e-05
1.72111e-05
2.00394e-05
2.6403e-05
3.4521e-05
4.33999e-05
5.22537e-05
6.0433e-05
6.7501e-05
7.30583e-05
7.70638e-05
7.99956e-05
8.21763e-05
8.37339e-05
8.5369e-05
8.75937e-05
9.03466e-05
9.33462e-05
9.53385e-05
1.46203e-05
1.47466e-05
1.48742e-05
1.50024e-05
1.51301e-05
1.52564e-05
1.53802e-05
1.55007e-05
1.56166e-05
1.5727e-05
1.58309e-05
1.59251e-05
1.59974e-05
1.60459e-05
1.60707e-05
1.6072e-05
1.60492e-05
1.60011e-05
1.59259e-05
1.5821e-05
1.56833e-05
1.55091e-05
1.52942e-05
1.50337e-05
1.47227e-05
1.43557e-05
1.39272e-05
1.34321e-05
1.28657e-05
1.22253e-05
1.15109e-05
1.07286e-05
9.89613e-06
9.05088e-06
8.25917e-06
7.62717e-06
7.1043e-06
6.45669e-06
5.63225e-06
5.19536e-06
5.40538e-06
5.30424e-06
5.0519e-06
5.02689e-06
5.04528e-06
5.12781e-06
5.00197e-06
4.71212e-06
4.34881e-06
3.95271e-06
3.66158e-06
3.85082e-06
4.4323e-06
5.26896e-06
6.7469e-06
8.80135e-06
1.1234e-05
1.36134e-05
1.5681e-05
1.74841e-05
1.89749e-05
2.0221e-05
2.12607e-05
2.21757e-05
2.30657e-05
2.37374e-05
2.4226e-05
2.44505e-05
2.40989e-05
4.01267e-05
4.01126e-05
4.01047e-05
4.01015e-05
4.01064e-05
4.01214e-05
4.01398e-05
4.01412e-05
4.01326e-05
4.01272e-05
4.01242e-05
4.01261e-05
4.013e-05
4.01428e-05
4.01458e-05
4.01295e-05
4.01117e-05
4.00948e-05
4.00811e-05
4.00726e-05
4.00496e-05
4.00045e-05
4.00116e-05
4.00286e-05
4.00347e-05
4.00389e-05
4.0053e-05
4.00559e-05
4.0052e-05
4.00453e-05
4.00472e-05
4.00454e-05
4.00235e-05
4.00125e-05
4.00373e-05
4.00757e-05
4.00831e-05
4.00634e-05
4.00552e-05
4.00583e-05
4.00747e-05
4.0096e-05
4.0142e-05
4.01857e-05
4.02012e-05
4.02203e-05
4.02462e-05
4.02674e-05
4.02713e-05
4.02507e-05
4.02411e-05
4.02508e-05
4.02795e-05
4.03056e-05
4.03362e-05
4.03722e-05
4.03975e-05
4.04138e-05
4.04256e-05
4.01021e-05
4.01021e-05
4.01087e-05
4.01203e-05
4.01344e-05
4.01382e-05
4.01313e-05
4.01152e-05
4.01082e-05
4.01076e-05
4.01121e-05
4.01223e-05
4.01355e-05
4.01332e-05
4.01179e-05
4.01001e-05
4.0086e-05
4.00731e-05
4.00624e-05
4.00475e-05
4.00189e-05
3.9988e-05
4.00004e-05
4.00147e-05
4.00203e-05
4.00267e-05
4.00392e-05
4.00411e-05
4.00368e-05
4.00306e-05
4.00325e-05
4.00306e-05
4.00115e-05
3.99995e-05
4.00184e-05
4.00544e-05
4.00692e-05
4.00566e-05
4.00457e-05
4.00432e-05
4.00528e-05
4.00683e-05
4.01004e-05
4.01415e-05
4.01703e-05
4.0196e-05
4.02263e-05
4.02574e-05
4.02794e-05
4.028e-05
4.02597e-05
4.02462e-05
4.02475e-05
4.02574e-05
4.02726e-05
4.02954e-05
4.03218e-05
4.03518e-05
4.03784e-05
4.01186e-05
4.01246e-05
4.01316e-05
4.01333e-05
4.01278e-05
4.01128e-05
4.00961e-05
4.00896e-05
4.00917e-05
4.01005e-05
4.01153e-05
4.01287e-05
4.01241e-05
4.01028e-05
4.00856e-05
4.00727e-05
4.00617e-05
4.00507e-05
4.00379e-05
4.0016e-05
3.9988e-05
3.99729e-05
3.99872e-05
3.99991e-05
4.00048e-05
4.00129e-05
4.00235e-05
4.00245e-05
4.00201e-05
4.00144e-05
4.00161e-05
4.00141e-05
3.99976e-05
3.99856e-05
3.99989e-05
4.00307e-05
4.00502e-05
4.00494e-05
4.00373e-05
4.00288e-05
4.00322e-05
4.00425e-05
4.00637e-05
4.00964e-05
4.01288e-05
4.01571e-05
4.01913e-05
4.02297e-05
4.02646e-05
4.02871e-05
4.02895e-05
4.02799e-05
4.02609e-05
4.02483e-05
4.02444e-05
4.02485e-05
4.02594e-05
4.02757e-05
4.02951e-05
4.013e-05
4.01257e-05
4.01173e-05
4.01024e-05
4.00855e-05
4.00762e-05
4.00731e-05
4.00795e-05
4.00929e-05
4.01108e-05
4.01204e-05
4.01131e-05
4.00887e-05
4.00677e-05
4.00557e-05
4.0047e-05
4.00369e-05
4.00244e-05
4.00069e-05
3.9982e-05
3.99606e-05
3.99573e-05
3.99717e-05
3.99817e-05
3.9988e-05
3.99969e-05
4.00057e-05
4.0006e-05
4.00015e-05
3.99964e-05
3.99976e-05
3.99958e-05
3.99817e-05
3.99701e-05
3.99786e-05
4.00054e-05
4.00271e-05
4.00368e-05
4.00286e-05
4.00164e-05
4.00129e-05
4.00176e-05
4.00308e-05
4.00542e-05
4.00831e-05
4.01112e-05
4.01412e-05
4.01772e-05
4.02215e-05
4.02611e-05
4.02878e-05
4.03001e-05
4.02974e-05
4.02862e-05
4.02672e-05
4.02525e-05
4.02443e-05
4.02425e-05
4.02459e-05
4.01028e-05
4.00866e-05
4.00713e-05
4.00606e-05
4.00569e-05
4.00606e-05
4.00712e-05
4.00877e-05
4.01055e-05
4.01097e-05
4.0097e-05
4.00703e-05
4.00482e-05
4.00351e-05
4.0028e-05
4.00199e-05
4.00079e-05
3.99921e-05
3.99712e-05
3.99485e-05
3.99359e-05
3.99402e-05
3.99534e-05
3.99623e-05
3.99693e-05
3.99784e-05
3.99856e-05
3.99852e-05
3.99807e-05
3.99761e-05
3.99769e-05
3.99753e-05
3.99632e-05
3.99523e-05
3.9957e-05
3.99786e-05
4.00004e-05
4.00163e-05
4.00168e-05
4.00056e-05
3.99961e-05
3.99942e-05
4.00002e-05
4.00151e-05
4.00373e-05
4.00624e-05
4.00885e-05
4.01173e-05
4.01521e-05
4.01981e-05
4.02424e-05
4.02768e-05
4.02988e-05
4.03086e-05
4.03069e-05
4.02982e-05
4.02854e-05
4.02702e-05
4.02577e-05
4.00571e-05
4.00436e-05
4.00412e-05
4.00442e-05
4.00533e-05
4.00676e-05
4.00848e-05
4.00952e-05
4.00918e-05
4.00728e-05
4.00459e-05
4.00245e-05
4.00112e-05
4.00046e-05
3.99984e-05
3.99879e-05
3.99728e-05
3.99542e-05
3.99333e-05
3.99165e-05
3.99122e-05
3.99205e-05
3.99323e-05
3.99405e-05
3.99481e-05
3.9957e-05
3.99626e-05
3.99617e-05
3.99573e-05
3.99531e-05
3.99536e-05
3.99522e-05
3.99419e-05
3.99318e-05
3.99335e-05
3.99502e-05
3.99705e-05
3.99892e-05
3.99982e-05
3.99929e-05
3.99818e-05
3.99738e-05
3.99725e-05
3.99791e-05
3.99934e-05
4.00129e-05
4.00348e-05
4.00583e-05
4.00841e-05
4.01173e-05
4.01553e-05
4.02012e-05
4.0243e-05
4.02758e-05
4.02983e-05
4.03111e-05
4.03163e-05
4.03147e-05
4.03098e-05
4.0033e-05
4.00302e-05
4.00398e-05
4.00523e-05
4.00663e-05
4.00749e-05
4.00745e-05
4.00618e-05
4.00382e-05
4.00146e-05
3.99951e-05
3.99833e-05
3.99771e-05
3.99718e-05
3.9963e-05
3.9949e-05
3.99316e-05
3.99127e-05
3.98953e-05
3.98856e-05
3.98875e-05
3.98975e-05
3.9908e-05
3.99159e-05
3.99239e-05
3.99321e-05
3.99364e-05
3.99351e-05
3.99309e-05
3.9927e-05
3.99271e-05
3.99259e-05
3.99172e-05
3.99081e-05
3.99076e-05
3.99197e-05
3.99374e-05
3.99563e-05
3.9971e-05
3.99739e-05
3.99665e-05
3.99561e-05
3.99487e-05
3.99474e-05
3.99531e-05
3.99651e-05
3.99814e-05
4e-05
4.00199e-05
4.00427e-05
4.00692e-05
4.01019e-05
4.01379e-05
4.01799e-05
4.02196e-05
4.0253e-05
4.02793e-05
4.02983e-05
4.03122e-05
4.00362e-05
4.00394e-05
4.0049e-05
4.00517e-05
4.00492e-05
4.00377e-05
4.0018e-05
3.9996e-05
3.99757e-05
3.996e-05
3.99502e-05
3.99447e-05
3.994e-05
3.99322e-05
3.99197e-05
3.99034e-05
3.98857e-05
3.98693e-05
3.98575e-05
3.98544e-05
3.98603e-05
3.98705e-05
3.988e-05
3.98879e-05
3.9896e-05
3.99033e-05
3.99065e-05
3.99049e-05
3.99008e-05
3.98972e-05
3.9897e-05