/*--------------------------------*- C++ -*----------------------------------*\
| =========                 |                                                 |
| \\      /  F ield         | OpenFOAM: The Open Source CFD Toolbox           |
|  \\    /   O peration     | Version:  2312                                  |
|   \\  /    A nd           | Website:  www.openfoam.com                      |
|    \\/     M anipulation  |                                                 |
\*---------------------------------------------------------------------------*/
FoamFile
{
    version     2.0;
    format      ascii;
    arch        "LSB;label=32;scalar=64";
    class       volScalarField;
    location    "700";
    object      p;
}
// * * * * * * * * * * * * * * * * * * * * * * * * * * * * * * * * * * * * * //

dimensions      [0 2 -2 0 0 0 0];

internalField   nonuniform List<scalar> 
76025
(
0.000195687
0.000191115
0.000186293
0.00018166
0.00017695
0.000172178
0.000166962
0.000162068
0.000157016
0.000152019
0.000146795
0.000141378
0.00013581
0.000130208
0.000124563
0.000118922
0.000113328
0.000107539
0.000101748
9.61709e-05
9.05459e-05
8.45969e-05
7.86182e-05
7.2624e-05
6.65718e-05
6.05537e-05
5.43826e-05
4.80735e-05
4.21036e-05
3.57191e-05
2.98283e-05
2.35812e-05
1.70499e-05
1.0846e-05
4.92289e-06
-7.36227e-07
-6.48433e-06
-1.24454e-05
-1.84728e-05
-2.44006e-05
-3.00199e-05
-3.55612e-05
-4.12348e-05
-4.7078e-05
-5.21637e-05
-5.74222e-05
-6.25946e-05
-6.81216e-05
-7.29955e-05
-7.78635e-05
-8.26008e-05
-8.71071e-05
-9.17556e-05
-9.64864e-05
-0.000101013
-0.000105923
-0.000110896
-0.000116652
-0.000122851
-0.000129301
-0.00013674
-0.000146555
-0.000159527
-0.00017475
-0.000194293
-0.000222134
-0.000255977
-0.000298621
-0.000362593
0.000199801
0.000194844
0.000189809
0.000184886
0.000179945
0.00017486
0.00016974
0.000164599
0.000159321
0.000153921
0.000148376
0.000142775
0.000137147
0.000131492
0.000125798
0.0001201
0.000114258
0.000108438
0.000102536
9.6714e-05
9.07069e-05
8.46729e-05
7.86146e-05
7.25076e-05
6.63181e-05
6.00698e-05
5.38048e-05
4.76656e-05
4.14883e-05
3.52497e-05
2.90431e-05
2.26399e-05
1.63702e-05
1.03704e-05
4.3622e-06
-1.58266e-06
-7.6318e-06
-1.35489e-05
-1.93464e-05
-2.51236e-05
-3.07291e-05
-3.63113e-05
-4.17409e-05
-4.70328e-05
-5.21602e-05
-5.72375e-05
-6.2255e-05
-6.71566e-05
-7.18116e-05
-7.62768e-05
-8.05598e-05
-8.46199e-05
-8.85308e-05
-9.23007e-05
-9.59205e-05
-9.96299e-05
-0.000103413
-0.000107414
-0.000111681
-0.000116331
-0.000121871
-0.000129475
-0.000139456
-0.000152254
-0.00016944
-0.000193205
-0.000224918
-0.000267093
-0.00032884
0.00020464
0.000199438
0.000194153
0.000188969
0.000183793
0.000178567
0.000173245
0.000167806
0.000162264
0.000156622
0.000150914
0.000145173
0.000139399
0.000133588
0.000127732
0.000121786
0.000115779
0.000109728
0.000103649
9.75216e-05
9.13492e-05
8.51564e-05
7.89268e-05
7.26518e-05
6.63404e-05
6.00112e-05
5.37048e-05
4.7397e-05
4.10378e-05
3.46397e-05
2.82146e-05
2.18353e-05
1.55938e-05
9.467e-06
3.38366e-06
-2.63273e-06
-8.5742e-06
-1.44007e-05
-2.01468e-05
-2.58292e-05
-3.139e-05
-3.68226e-05
-4.211e-05
-4.72842e-05
-5.23243e-05
-5.71893e-05
-6.18719e-05
-6.63638e-05
-7.06304e-05
-7.46178e-05
-7.83224e-05
-8.17358e-05
-8.4869e-05
-8.77476e-05
-9.03787e-05
-9.28176e-05
-9.50959e-05
-9.73303e-05
-9.96429e-05
-0.000102236
-0.000105548
-0.000110238
-0.000116978
-0.000126553
-0.000140302
-0.000160046
-0.000188779
-0.000228705
-0.000287017
0.00020942
0.000203967
0.000198416
0.000192978
0.000187569
0.000182094
0.000176502
0.000170793
0.000164996
0.000159133
0.000153219
0.000147257
0.000141243
0.000135172
0.000129043
0.000122855
0.000116623
0.000110357
0.000104062
9.77393e-05
9.13924e-05
8.50184e-05
7.86171e-05
7.21931e-05
6.57531e-05
5.93004e-05
5.2834e-05
4.63472e-05
3.9842e-05
3.33233e-05
2.68279e-05
2.04291e-05
1.41502e-05
7.98389e-06
1.91617e-06
-4.05781e-06
-9.9416e-06
-1.57387e-05
-2.14489e-05
-2.70605e-05
-3.25461e-05
-3.78853e-05
-4.30688e-05
-4.80863e-05
-5.29111e-05
-5.75176e-05
-6.18974e-05
-6.60343e-05
-6.98886e-05
-7.34092e-05
-7.65691e-05
-7.93434e-05
-8.17084e-05
-8.36528e-05
-8.51658e-05
-8.62555e-05
-8.69551e-05
-8.73386e-05
-8.75172e-05
-8.76952e-05
-8.82424e-05
-8.97304e-05
-9.28558e-05
-9.84856e-05
-0.000107962
-0.000123188
-0.000148011
-0.000184279
-0.000238137
0.000213851
0.000208112
0.000202271
0.000196553
0.000190872
0.000185125
0.000179264
0.000173293
0.000167236
0.000161119
0.000154952
0.000148736
0.000142469
0.000136151
0.000129788
0.000123388
0.000116956
0.0001105
0.000104022
9.75255e-05
9.1011e-05
8.4479e-05
7.79327e-05
7.13746e-05
6.48059e-05
5.82271e-05
5.16403e-05
4.50504e-05
3.84622e-05
3.18774e-05
2.53411e-05
1.89135e-05
1.26133e-05
6.43701e-06
3.70599e-07
-5.60088e-06
-1.14841e-05
-1.72757e-05
-2.29627e-05
-2.85275e-05
-3.39468e-05
-3.91962e-05
-4.42571e-05
-4.91129e-05
-5.37452e-05
-5.81314e-05
-6.22461e-05
-6.60567e-05
-6.95194e-05
-7.25814e-05
-7.51924e-05
-7.73042e-05
-7.88696e-05
-7.98465e-05
-8.01964e-05
-7.98904e-05
-7.89205e-05
-7.73161e-05
-7.51615e-05
-7.26323e-05
-7.00462e-05
-6.78904e-05
-6.68384e-05
-6.77985e-05
-7.21809e-05
-8.22554e-05
-0.00010254
-0.000134367
-0.000183956
0.000218106
0.000212054
0.000205904
0.000199893
0.000193928
0.000187904
0.000181771
0.00017553
0.000169205
0.000162824
0.000156398
0.000149931
0.000143421
0.000136872
0.000130289
0.000123679
0.000117046
0.000110394
0.000103728
9.70485e-05
9.03588e-05
8.36609e-05
7.69571e-05
7.02491e-05
6.35386e-05
5.68278e-05
5.01198e-05
4.34169e-05
3.672e-05
3.00379e-05
2.34297e-05
1.69489e-05
1.06098e-05
4.40398e-06
-1.68519e-06
-7.67105e-06
-1.35566e-05
-1.93337e-05
-2.49864e-05
-3.04942e-05
-3.58342e-05
-4.09833e-05
-4.59216e-05
-5.06304e-05
-5.50876e-05
-5.92641e-05
-6.31246e-05
-6.66271e-05
-6.97195e-05
-7.23391e-05
-7.4417e-05
-7.58818e-05
-7.66584e-05
-7.66699e-05
-7.58387e-05
-7.40923e-05
-7.13747e-05
-6.76634e-05
-6.29909e-05
-5.7477e-05
-5.13707e-05
-4.50877e-05
-3.92565e-05
-3.47961e-05
-3.32761e-05
-3.76458e-05
-5.29091e-05
-8.00303e-05
-0.000125662
0.000222209
0.000215818
0.000209338
0.000203015
0.000196751
0.000190434
0.000184013
0.000177485
0.000170878
0.000164221
0.000157527
0.000150799
0.000144038
0.000137245
0.000130426
0.000123587
0.000116733
0.000109869
0.000102997
9.61209e-05
8.92438e-05
8.23682e-05
7.54966e-05
6.86313e-05
6.17746e-05
5.49284e-05
4.80943e-05
4.1274e-05
3.44679e-05
2.76997e-05
2.10384e-05
1.4526e-05
8.16761e-06
1.94912e-06
-4.14702e-06
-1.01322e-05
-1.60069e-05
-2.17611e-05
-2.7377e-05
-3.2833e-05
-3.81058e-05
-4.31726e-05
-4.80109e-05
-5.25978e-05
-5.69059e-05
-6.09013e-05
-6.4542e-05
-6.7777e-05
-7.05431e-05
-7.27641e-05
-7.43523e-05
-7.52108e-05
-7.52337e-05
-7.43064e-05
-7.23069e-05
-6.91115e-05
-6.46048e-05
-5.86967e-05
-5.13464e-05
-4.25938e-05
-3.26e-05
-2.16896e-05
-1.04253e-05
2.4937e-07
8.41091e-06
1.01438e-05
1.77019e-07
-2.2585e-05
-6.50147e-05
0.000226056
0.000219306
0.000212474
0.000205816
0.000199229
0.000192597
0.000185864
0.00017903
0.000172122
0.000165172
0.000158193
0.00015119
0.000144163
0.000137113
0.000130046
0.000122968
0.000115885
0.000108802
0.000101723
9.46507e-05
8.75885e-05
8.05394e-05
7.35062e-05
6.64911e-05
5.9496e-05
5.25223e-05
4.55709e-05
3.8644e-05
3.17435e-05
2.49106e-05
1.82122e-05
1.16765e-05
5.29956e-06
-9.35786e-07
-7.04652e-06
-1.30412e-05
-1.89173e-05
-2.46619e-05
-3.02555e-05
-3.56753e-05
-4.08974e-05
-4.58985e-05
-5.06547e-05
-5.51407e-05
-5.93265e-05
-6.31741e-05
-6.66356e-05
-6.9651e-05
-7.21457e-05
-7.40283e-05
-7.51916e-05
-7.55124e-05
-7.48516e-05
-7.30529e-05
-6.99437e-05
-6.53388e-05
-5.90501e-05
-5.09029e-05
-4.07599e-05
-2.85528e-05
-1.43227e-05
1.72657e-06
1.91091e-05
3.67864e-05
5.2159e-05
6.02246e-05
5.55003e-05
3.62665e-05
-3.8932e-06
0.000229575
0.000222445
0.00021524
0.000208226
0.000201295
0.000194326
0.000187262
0.000180102
0.000172876
0.000165615
0.000158338
0.000151047
0.000143743
0.000136428
0.000129106
0.000121786
0.000114473
0.000107172
9.98875e-05
9.2622e-05
8.53789e-05
7.8161e-05
7.09708e-05
6.38102e-05
5.66807e-05
4.95833e-05
4.25185e-05
3.5488e-05
2.85003e-05
2.16124e-05
1.48803e-05
8.3195e-06
1.91989e-06
-4.33705e-06
-1.04664e-05
-1.64736e-05
-2.2353e-05
-2.80898e-05
-3.36638e-05
-3.90522e-05
-4.42322e-05
-4.9181e-05
-5.38753e-05
-5.82889e-05
-6.23899e-05
-6.61365e-05
-6.94751e-05
-7.23374e-05
-7.46374e-05
-7.6269e-05
-7.71051e-05
-7.69958e-05
-7.57668e-05
-7.32166e-05
-6.91152e-05
-6.32062e-05
-5.52142e-05
-4.48598e-05
-3.18814e-05
-1.60659e-05
2.70695e-06
2.4389e-05
4.85618e-05
7.39179e-05
9.68009e-05
0.000111188
0.000111141
9.45207e-05
5.57703e-05
0.000232708
0.000225179
0.00021758
0.000210189
0.000202894
0.00019557
0.000188156
0.000180653
0.000173092
0.000165507
0.000157917
0.000150326
0.000142735
0.000135145
0.000127562
0.000119994
0.000112446
0.000104924
9.74322e-05
8.99726e-05
8.25485e-05
7.51623e-05
6.78164e-05
6.05123e-05
5.32512e-05
4.60334e-05
3.88601e-05
3.1731e-05
2.46687e-05
1.77388e-05
1.09816e-05
4.40131e-06
-2.01709e-06
-8.29242e-06
-1.44376e-05
-2.04553e-05
-2.63377e-05
-3.2069e-05
-3.76293e-05
-4.29971e-05
-4.81512e-05
-5.30706e-05
-5.7733e-05
-6.21124e-05
-6.61755e-05
-6.98781e-05
-7.31621e-05
-7.59529e-05
-7.81552e-05
-7.96496e-05
-8.02902e-05
-7.99013e-05
-7.82728e-05
-7.51553e-05
-7.02556e-05
-6.32362e-05
-5.37186e-05
-4.12948e-05
-2.55448e-05
-6.06649e-06
1.74713e-05
4.52052e-05
7.67277e-05
0.000110154
0.000140519
0.000160793
0.000164285
0.000149252
0.000110769
0.000235379
0.000227425
0.000219409
0.00021162
0.000203942
0.000196243
0.000188462
0.000180599
0.000172687
0.000164763
0.000156847
0.000148944
0.000141054
0.00013318
0.000125328
0.000117505
0.000109718
0.000101972
9.42712e-05
8.66175e-05
7.90139e-05
7.14627e-05
6.39657e-05
5.6524e-05
4.91383e-05
4.18085e-05
3.45356e-05
2.73206e-05
2.02047e-05
1.32488e-05
6.4771e-06
-1.16136e-07
-6.54924e-06
-1.28404e-05
-1.90002e-05
-2.50286e-05
-3.09159e-05
-3.66464e-05
-4.2201e-05
-4.75605e-05
-5.27063e-05
-5.762e-05
-6.22817e-05
-6.66669e-05
-7.07431e-05
-7.44655e-05
-7.77746e-05
-8.0592e-05
-8.2816e-05
-8.43173e-05
-8.49343e-05
-8.44677e-05
-8.26732e-05
-7.92528e-05
-7.38463e-05
-6.60258e-05
-5.52933e-05
-4.10857e-05
-2.27863e-05
2.46134e-07
2.86039e-05
6.26179e-05
0.00010175
0.00014319
0.000180613
0.000205776
0.000211453
0.000196829
0.000155446
0.000237492
0.000229086
0.000220627
0.000212417
0.000204334
0.00019624
0.000188073
0.000179833
0.000171554
0.000163277
0.000155022
0.000146795
0.000138598
0.000130433
0.000122306
0.000114225
0.000106197
9.82277e-05
9.03198e-05
8.24762e-05
7.4699e-05
6.699e-05
5.93504e-05
5.17809e-05
4.42811e-05
3.68505e-05
2.94886e-05
2.22059e-05
1.50577e-05
8.08992e-06
1.31198e-06
-5.28904e-06
-1.17334e-05
-1.80377e-05
-2.42096e-05
-3.02468e-05
-3.61386e-05
-4.18698e-05
-4.74238e-05
-5.27847e-05
-5.79376e-05
-6.28683e-05
-6.75609e-05
-7.19943e-05
-7.61391e-05
-7.99529e-05
-8.33777e-05
-8.63357e-05
-8.87236e-05
-9.04072e-05
-9.12149e-05
-9.09294e-05
-8.92767e-05
-8.5913e-05
-8.04104e-05
-7.22441e-05
-6.07828e-05
-4.52833e-05
-2.48951e-05
1.31151e-06
3.42317e-05
7.43655e-05
0.000120832
0.000169709
0.000213232
0.000241885
0.000248706
0.000233743
0.000189148
0.000238939
0.00023005
0.000221121
0.000212465
0.000203953
0.000195444
0.000186871
0.000178235
0.000169574
0.000160928
0.000152323
0.000143764
0.000135252
0.000126791
0.000118387
0.000110047
0.00010178
9.35906e-05
8.54815e-05
7.74553e-05
6.95133e-05
6.16568e-05
5.38861e-05
4.62008e-05
3.85997e-05
3.10818e-05
2.36456e-05
1.63184e-05
9.15755e-06
2.19131e-06
-4.58318e-06
-1.11843e-05
-1.76327e-05
-2.39429e-05
-3.01198e-05
-3.61592e-05
-4.20505e-05
-4.77803e-05
-5.33353e-05
-5.87042e-05
-6.38775e-05
-6.88463e-05
-7.36003e-05
-7.81243e-05
-8.23944e-05
-8.63744e-05
-9.00125e-05
-9.3237e-05
-9.59499e-05
-9.80201e-05
-9.9275e-05
-9.94889e-05
-9.83674e-05
-9.55286e-05
-9.0482e-05
-8.26074e-05
-7.11352e-05
-5.51293e-05
-3.3477e-05
-4.9183e-06
3.17803e-05
7.72434e-05
0.000130104
0.000185246
0.000233361
0.000264254
0.000271968
0.000256719
0.000209682
0.000239595
0.000230193
0.000220763
0.000211634
0.000202669
0.00019372
0.00018472
0.000175671
0.000166611
0.000157584
0.000148617
0.000139717
0.000130886
0.000122126
0.000113444
0.000104849
9.63477e-05
8.79453e-05
7.96447e-05
7.14474e-05
6.33541e-05
5.5365e-05
4.74793e-05
3.96955e-05
3.20112e-05
2.4424e-05
1.69372e-05
9.59528e-06
2.44429e-06
-4.50436e-06
-1.12633e-05
-1.7854e-05
-2.42963e-05
-3.0602e-05
-3.67735e-05
-4.28056e-05
-4.86885e-05
-5.44117e-05
-5.99664e-05
-6.53468e-05
-7.05497e-05
-7.55735e-05
-8.04151e-05
-8.50675e-05
-8.95158e-05
-9.37344e-05
-9.76836e-05
-0.000101305
-0.000104516
-0.0001072
-0.000109196
-0.000110285
-0.000110167
-0.000108438
-0.000104563
-9.78453e-05
-8.73943e-05
-7.20882e-05
-5.05356e-05
-2.10936e-05
1.78814e-05
6.71508e-05
0.000124793
0.00018437
0.000235434
0.000268049
0.000277349
0.000262239
0.000215977
0.000239314
0.000229363
0.000219401
0.000209769
0.000200324
0.000190912
0.000181463
0.00017198
0.000162504
0.000153082
0.000143743
0.000134495
0.00012534
0.00011628
0.000107323
9.84774e-05
8.97499e-05
8.11456e-05
7.26668e-05
6.43143e-05
5.60875e-05
4.79853e-05
4.00056e-05
3.2145e-05
2.44002e-05
1.67665e-05
9.26272e-06
1.9395e-06
-5.17605e-06
-1.2087e-05
-1.8813e-05
-2.53768e-05
-3.17963e-05
-3.80805e-05
-4.42299e-05
-5.02388e-05
-5.60993e-05
-6.18047e-05
-6.73514e-05
-7.27398e-05
-7.79743e-05
-8.30613e-05
-8.80069e-05
-9.28148e-05
-9.74828e-05
-0.000102001
-0.000106349
-0.000110492
-0.000114373
-0.000117906
-0.00012096
-0.000123343
-0.000124776
-0.000124865
-0.00012307
-0.000118668
-0.000110694
-9.7858e-05
-7.84478e-05
-5.02983e-05
-1.11936e-05
3.97598e-05
9.99463e-05
0.000161855
0.000214756
0.000249418
0.000261112
0.000246942
0.000201538
0.000237924
0.000227387
0.000216857
0.000206692
0.000196739
0.000186839
0.00017692
0.000166984
0.000157077
0.000147248
0.000137529
0.000127928
0.000118449
0.000109093
9.98685e-05
9.07833e-05
8.18448e-05
7.30576e-05
6.4423e-05
5.59405e-05
4.76083e-05
3.94233e-05
3.13814e-05
2.34775e-05
1.57059e-05
8.06498e-06
5.90584e-07
-6.67764e-06
-1.3731e-05
-2.05841e-05
-2.72601e-05
-3.37811e-05
-4.01621e-05
-4.64086e-05
-5.25193e-05
-5.84888e-05
-6.43116e-05
-6.9985e-05
-7.55114e-05
-8.0898e-05
-8.61572e-05
-9.13043e-05
-9.63561e-05
-0.000101329
-0.000106238
-0.000111093
-0.000115903
-0.000120665
-0.000125367
-0.000129968
-0.000134393
-0.000138511
-0.000142106
-0.000144855
-0.000146288
-0.000145726
-0.000142175
-0.000134144
-0.000119413
-9.50467e-05
-5.82227e-05
-8.05576e-06
5.23068e-05
0.000114899
0.000169126
0.000206059
0.000219886
0.000206064
0.000157947
0.000235209
0.000224044
0.000212907
0.000202173
0.000191681
0.000181265
0.00017085
0.00016044
0.000150083
0.000139833
0.000129724
0.000119765
0.000109961
0.000100313
9.08288e-05
8.15168e-05
7.23842e-05
6.34346e-05
5.46685e-05
4.60836e-05
3.76759e-05
2.944e-05
2.13692e-05
1.3456e-05
5.69227e-06
-1.90789e-06
-9.30349e-06
-1.64749e-05
-2.34297e-05
-3.01906e-05
-3.6783e-05
-4.32273e-05
-4.9535e-05
-5.57093e-05
-6.17475e-05
-6.76454e-05
-7.34001e-05
-7.90136e-05
-8.44934e-05
-8.98537e-05
-9.51143e-05
-0.000100299
-0.000105436
-0.000110556
-0.000115692
-0.000120882
-0.000126168
-0.000131595
-0.000137208
-0.000143043
-0.000149116
-0.000155407
-0.000161839
-0.000168244
-0.000174302
-0.000179421
-0.000182512
-0.000181645
-0.000173833
-0.00015538
-0.000122992
-7.56706e-05
-1.68763e-05
4.50154e-05
9.90602e-05
0.00013624
0.000150218
0.000136277
9.07016e-05
0.000230942
0.000219108
0.000207327
0.000195991
0.000184932
0.000173975
0.000163045
0.000152147
0.00014133
0.000130654
0.000120155
0.000109846
9.97289e-05
8.98075e-05
8.00885e-05
7.05805e-05
6.12902e-05
5.22206e-05
4.33705e-05
3.47355e-05
2.63092e-05
1.8083e-05
1.00469e-05
2.18915e-06
-5.49647e-06
-1.29825e-05
-2.02422e-05
-2.7276e-05
-3.41038e-05
-4.07524e-05
-4.72459e-05
-5.36004e-05
-5.98226e-05
-6.59121e-05
-7.18645e-05
-7.76759e-05
-8.33458e-05
-8.888e-05
-9.42911e-05
-9.95992e-05
-0.00010483
-0.000110017
-0.000115196
-0.000120413
-0.000125719
-0.000131181
-0.000136884
-0.000142932
-0.000149454
-0.000156598
-0.000164532
-0.000173424
-0.000183417
-0.000194565
-0.000206697
-0.000219163
-0.000230479
-0.000238085
-0.000238354
-0.000226874
-0.000199739
-0.000156148
-0.000100421
-4.18561e-05
7.97954e-06
4.02623e-05
5.05107e-05
3.58576e-05
-5.57291e-06
0.000224751
0.000212191
0.000199711
0.000187724
0.000176053
0.000164516
0.000153035
0.000141615
0.000130312
0.000119189
0.000108286
9.76171e-05
8.71864e-05
7.69966e-05
6.70545e-05
5.73685e-05
4.79447e-05
3.87846e-05
2.98848e-05
2.1238e-05
1.28336e-05
4.65885e-06
-3.29984e-06
-1.10554e-05
-1.85968e-05
-2.58971e-05
-3.29518e-05
-3.97796e-05
-4.64104e-05
-5.28743e-05
-5.91946e-05
-6.53843e-05
-7.14471e-05
-7.73803e-05
-8.31791e-05
-8.88401e-05
-9.43649e-05
-9.97622e-05
-0.000105048
-0.000110246
-0.000115385
-0.000120503
-0.000125641
-0.00013085
-0.0001362
-0.000141783
-0.000147732
-0.00015423
-0.000161524
-0.000169933
-0.000179845
-0.000191685
-0.000205854
-0.000222561
-0.000241542
-0.000261765
-0.000281329
-0.000297263
-0.000305045
-0.000299317
-0.000276508
-0.000237213
-0.000187161
-0.000136389
-9.65925e-05
-7.56989e-05
-7.45716e-05
-9.24703e-05
-0.000130839
0.000216487
0.000203164
0.000189957
0.000177299
0.000165001
0.000152875
0.000140841
0.000128904
0.000117126
0.000105574
9.42923e-05
8.32995e-05
7.25995e-05
6.21956e-05
5.20948e-05
4.23053e-05
3.28328e-05
2.36772e-05
1.48328e-05
6.2886e-06
-1.97039e-06
-9.96233e-06
-1.77111e-05
-2.52298e-05
-3.25034e-05
-3.95266e-05
-4.63173e-05
-5.29075e-05
-5.93318e-05
-6.56183e-05
-7.17844e-05
-7.78361e-05
-8.37701e-05
-8.95783e-05
-9.52518e-05
-0.000100785
-0.00010618
-0.000111446
-0.000116601
-0.000121668
-0.000126678
-0.000131665
-0.000136667
-0.000141733
-0.000146936
-0.000152395
-0.000158298
-0.000164928
-0.000172691
-0.000182126
-0.000193884
-0.000208659
-0.000226996
-0.00024899
-0.000274084
-0.000301117
-0.000327883
-0.000350122
-0.000362089
-0.000359121
-0.000339729
-0.000306289
-0.00026523
-0.000226894
-0.000202733
-0.000198906
-0.000212137
-0.000236952
-0.000275182
0.000205119
0.000190936
0.000176898
0.000163471
0.00015046
0.000137666
0.000125006
0.000112489
0.000100179
8.81514e-05
7.64556e-05
6.51123e-05
5.41269e-05
4.35026e-05
3.32463e-05
2.33656e-05
1.38645e-05
4.74057e-06
-4.01634e-06
-1.24227e-05
-2.04997e-05
-2.82695e-05
-3.57497e-05
-4.2938e-05
-4.98317e-05
-5.64521e-05
-6.2839e-05
-6.90383e-05
-7.50914e-05
-8.10283e-05
-8.6865e-05
-9.26048e-05
-9.82412e-05
-0.000103763
-0.000109159
-0.000114422
-0.000119554
-0.000124566
-0.000129475
-0.000134306
-0.00013908
-0.000143816
-0.00014853
-0.000153249
-0.000158032
-0.000163005
-0.000168406
-0.000174621
-0.000182221
-0.000191973
-0.000204779
-0.000221498
-0.000242686
-0.000268509
-0.000298696
-0.000331558
-0.000362815
-0.000386668
-0.000398525
-0.000396406
-0.000380831
-0.00035495
-0.000325262
-0.00030229
-0.000296614
-0.000312163
-0.000342511
-0.000377608
-0.000418775
0.000191614
0.000176562
0.000161719
0.000147554
0.000133861
0.000120434
0.00010719
9.41402e-05
8.13558e-05
6.89197e-05
5.6889e-05
4.52896e-05
3.41294e-05
2.34136e-05
1.31499e-05
3.34644e-06
-5.99298e-06
-1.48727e-05
-2.33066e-05
-3.13182e-05
-3.89413e-05
-4.62187e-05
-5.31738e-05
-5.98182e-05
-6.61823e-05
-7.23155e-05
-7.82751e-05
-8.41146e-05
-8.98752e-05
-9.55811e-05
-0.000101239
-0.00010684
-0.000112363
-0.000117785
-0.000123081
-0.000128238
-0.000133255
-0.000138145
-0.000142934
-0.000147649
-0.000152304
-0.000156889
-0.000161369
-0.000165706
-0.000169897
-0.000174026
-0.000178338
-0.000183293
-0.00018959
-0.000198182
-0.000210167
-0.000226703
-0.000249098
-0.000278407
-0.000313393
-0.000349258
-0.000379869
-0.000401047
-0.000411154
-0.000410072
-0.000398887
-0.00038078
-0.000362813
-0.000355194
-0.000366951
-0.000400088
-0.000446569
-0.000493029
-0.00053683
0.000171813
0.000155728
0.000139854
0.000124754
0.000110213
9.6007e-05
8.20463e-05
6.83441e-05
5.49779e-05
4.20382e-05
2.95896e-05
1.76628e-05
6.26878e-06
-4.58582e-06
-1.48927e-05
-2.46441e-05
-3.38381e-05
-4.24831e-05
-5.05978e-05
-5.82083e-05
-6.53426e-05
-7.20273e-05
-7.82879e-05
-8.41683e-05
-8.97365e-05
-9.50742e-05
-0.000100263
-0.000105375
-0.000110462
-0.000115553
-0.000120656
-0.000125756
-0.00013082
-0.000135812
-0.000140696
-0.000145454
-0.000150093
-0.000154649
-0.000159176
-0.000163722
-0.000168288
-0.000172802
-0.000177117
-0.000181053
-0.000184459
-0.000187289
-0.000189721
-0.000192266
-0.000195651
-0.000200976
-0.000209916
-0.000224932
-0.000248789
-0.000281495
-0.000318064
-0.00035173
-0.000378322
-0.000396426
-0.000405658
-0.000405973
-0.00039852
-0.000386961
-0.000378904
-0.000383859
-0.0004089
-0.000454804
-0.00051351
-0.000570251
-0.000617681
0.000152282
0.000135129
0.000118349
0.000102408
8.70877e-05
7.21726e-05
5.75781e-05
4.33232e-05
2.94947e-05
1.61952e-05
3.50011e-06
-8.55171e-06
-1.99437e-05
-3.06649e-05
-4.07031e-05
-5.00472e-05
-5.86947e-05
-6.66582e-05
-7.39719e-05
-8.06903e-05
-8.68681e-05
-9.25485e-05
-9.77911e-05
-0.000102684
-0.000107335
-0.000111856
-0.000116352
-0.000120912
-0.000125597
-0.000130435
-0.000135418
-0.000140504
-0.000145623
-0.000150693
-0.00015564
-0.000160429
-0.000165084
-0.000169698
-0.000174401
-0.000179294
-0.000184364
-0.000189422
-0.000194141
-0.000198139
-0.000201021
-0.000202386
-0.000202258
-0.000201528
-0.000201064
-0.000202028
-0.000207834
-0.0002224
-0.0002475
-0.000279682
-0.000312721
-0.000342035
-0.000365387
-0.000381767
-0.000390493
-0.000391505
-0.00038627
-0.000379185
-0.000377915
-0.000390879
-0.000423491
-0.000476164
-0.000542013
-0.000607212
-0.000661273
0.000117966
9.96456e-05
8.15584e-05
6.44727e-05
4.81478e-05
3.23144e-05
1.6873e-05
1.84909e-06
-1.26567e-05
-2.65252e-05
-3.96654e-05
-5.20265e-05
-6.3584e-05
-7.43212e-05
-8.42205e-05
-9.3264e-05
-0.000101439
-0.000108741
-0.000115182
-0.000120799
-0.00012565
-0.000129823
-0.000133439
-0.000136645
-0.000139605
-0.000142485
-0.000145444
-0.000148618
-0.000152102
-0.000155943
-0.000160117
-0.00016453
-0.00016902
-0.000173387
-0.000177449
-0.000181122
-0.0001845
-0.000187878
-0.000191674
-0.000196219
-0.000201484
-0.00020693
-0.000211808
-0.000215553
-0.000217632
-0.000216973
-0.000213038
-0.000208221
-0.000204672
-0.000203203
-0.000208675
-0.000223533
-0.000246153
-0.000273611
-0.000302134
-0.000328152
-0.000349137
-0.000363649
-0.000370952
-0.000371275
-0.000366364
-0.000360968
-0.000362576
-0.000378471
-0.000412978
-0.000466645
-0.000534361
-0.000604567
-0.000665484
9.16959e-05
7.19067e-05
5.28179e-05
3.47966e-05
1.75966e-05
1.00416e-06
-1.50721e-05
-3.06151e-05
-4.55212e-05
-5.96558e-05
-7.29072e-05
-8.52063e-05
-9.6516e-05
-0.000106815
-0.000116094
-0.00012435
-0.000131584
-0.000137802
-0.000143023
-0.000147278
-0.000150638
-0.000153233
-0.000155235
-0.000156856
-0.000158333
-0.000159917
-0.000161856
-0.00016437
-0.000167623
-0.00017168
-0.000176472
-0.000181764
-0.000187152
-0.000192109
-0.000196125
-0.000198932
-0.000200747
-0.000202331
-0.000204764
-0.000208901
-0.000214605
-0.000220324
-0.000224279
-0.000226288
-0.00022711
-0.000225541
-0.000219278
-0.000211905
-0.000208636
-0.000209818
-0.000215332
-0.000226601
-0.000244391
-0.000267102
-0.0002915
-0.000314083
-0.00033204
-0.000343505
-0.000347743
-0.000345178
-0.000337868
-0.000330673
-0.000330704
-0.000344794
-0.000377197
-0.000428797
-0.00049582
-0.000568733
-0.000636096
3.40717e-05
1.27437e-05
-8.38757e-06
-2.81911e-05
-4.68861e-05
-6.47877e-05
-8.20201e-05
-9.85612e-05
-0.000114295
-0.000129073
-0.000142763
-0.000155256
-0.000166434
-0.000176186
-0.000184468
-0.000191285
-0.000196628
-0.000200504
-0.000202979
-0.000204174
-0.000204259
-0.000203441
-0.000201967
-0.000200121
-0.000198225
-0.000196633
-0.000195729
-0.000195898
-0.000197491
-0.000200769
-0.000205806
-0.00021238
-0.00021985
-0.000227115
-0.000232769
-0.000235616
-0.000235428
-0.00023326
-0.000231083
-0.000230938
-0.0002336
-0.000237243
-0.000238728
-0.000237708
-0.000236259
-0.000234784
-0.000232027
-0.00022809
-0.000224727
-0.000223787
-0.000226312
-0.000233243
-0.000245215
-0.000261754
-0.000280795
-0.000298999
-0.000312792
-0.000319429
-0.000318067
-0.000309302
-0.000295466
-0.000281533
-0.000274855
-0.000283418
-0.000311996
-0.000361416
-0.000428322
-0.000504425
-0.000579122
-2.40152e-06
-2.48542e-05
-4.61765e-05
-6.65659e-05
-8.61968e-05
-0.000105081
-0.000123217
-0.000140544
-0.000156924
-0.000172217
-0.000186385
-0.000199491
-0.000211454
-0.00022199
-0.000230802
-0.00023764
-0.000242367
-0.000244936
-0.000245353
-0.000243686
-0.000240067
-0.000234717
-0.00022796
-0.000220244
-0.00021215
-0.000204398
-0.000197817
-0.000193297
-0.000191693
-0.000193679
-0.00019956
-0.000209051
-0.000221057
-0.00023354
-0.000243742
-0.000249158
-0.000249109
-0.000244826
-0.000238813
-0.000234231
-0.000233492
-0.000236002
-0.000238855
-0.000239872
-0.000239003
-0.000237644
-0.000236801
-0.000236342
-0.000236095
-0.000236252
-0.000237063
-0.000239089
-0.000243582
-0.000252003
-0.000264332
-0.000277915
-0.00028808
-0.000290163
-0.000282163
-0.000264724
-0.00024077
-0.000216339
-0.000200472
-0.0002022
-0.000225836
-0.000272367
-0.000339425
-0.000419327
-0.000501673
-9.74017e-05
-0.00012286
-0.000147308
-0.000169725
-0.00019062
-0.00021057
-0.000229686
-0.000247731
-0.000264344
-0.000279161
-0.000291848
-0.000302133
-0.000310049
-0.000315867
-0.00031976
-0.000321749
-0.000321743
-0.000319603
-0.000315194
-0.000308448
-0.000299402
-0.000288239
-0.000275315
-0.000261171
-0.000246535
-0.000232296
-0.000219463
-0.000209082
-0.000202124
-0.000199337
-0.000201072
-0.0002071
-0.000216472
-0.000227455
-0.000237792
-0.000245533
-0.000249911
-0.000250832
-0.000248764
-0.000244848
-0.000240758
-0.000237966
-0.000236237
-0.000234421
-0.00023287
-0.000232502
-0.000233603
-0.000235321
-0.000236934
-0.000238281
-0.000239402
-0.000240404
-0.000241988
-0.000245601
-0.000252024
-0.000260034
-0.000266334
-0.000266359
-0.000255608
-0.000232186
-0.000199845
-0.000168165
-0.000148336
-0.000143648
-0.000157674
-0.00019828
-0.000264575
-0.000344967
-0.000430444
-8.40991e-05
-7.42834e-05
-6.4075e-05
-5.35656e-05
-4.24872e-05
-3.06897e-05
-1.82188e-05
-5.35709e-06
7.81225e-06
2.1678e-05
3.62479e-05
5.12692e-05
6.65181e-05
8.29032e-05
9.8855e-05
0.000115276
0.000131314
0.000148088
0.00016437
0.000180298
0.000197129
0.000212488
0.000227068
0.000241102
0.000254336
0.000266363
0.000276678
0.000285913
0.000294194
0.000300266
0.000304929
0.000308507
0.000311006
0.000312156
0.000311686
0.000310316
0.000308059
0.000304617
0.000300547
0.000296149
0.000290353
0.000284203
0.000278703
0.000273127
0.000266467
0.000260336
0.000253894
0.000247944
0.000242002
0.000236351
0.000230927
0.000225714
0.000221051
0.000216615
0.000212496
0.000208375
0.00020487
0.000201625
0.000198852
-8.77554e-05
-7.75891e-05
-6.69628e-05
-5.5837e-05
-4.4162e-05
-3.19018e-05
-1.90274e-05
-5.5862e-06
8.3901e-06
2.29605e-05
3.8076e-05
5.36769e-05
6.97415e-05
8.63424e-05
0.000103197
0.000120239
0.000137476
0.000154752
0.000171915
0.000188625
0.000205549
0.000221637
0.000236982
0.000251602
0.000265128
0.000277449
0.000288354
0.000297729
0.000306005
0.000312361
0.000317014
0.000320552
0.000322865
0.000323763
0.000323313
0.000321741
0.000319181
0.00031556
0.000311068
0.000305969
0.000300055
0.000293828
0.000287674
0.000281104
0.000274442
0.000267766
0.000261224
0.000254942
0.000248713
0.000242695
0.000236974
0.000231538
0.000226366
0.000221612
0.000217119
0.000213086
0.000209532
0.000206316
0.000203434
-9.24019e-05
-8.17885e-05
-7.06787e-05
-5.89816e-05
-4.67098e-05
-3.38371e-05
-2.03719e-05
-6.31709e-06
8.34106e-06
2.36121e-05
3.94452e-05
5.5781e-05
7.25926e-05
8.98408e-05
0.000107434
0.000125369
0.000143498
0.000161613
0.000179524
0.000197146
0.000214564
0.000231376
0.000247432
0.00026256
0.000276562
0.000289321
0.000300657
0.00031043
0.000318792
0.000325294
0.000330118
0.0003336
0.000335617
0.000336272
0.000335617
0.000333788
0.000330856
0.000326951
0.000322122
0.000316658
0.000310589
0.000304018
0.000297238
0.000290289
0.000283252
0.000276253
0.000269334
0.000262563
0.000255981
0.000249663
0.000243666
0.000237977
0.000232606
0.000227582
0.000222984
0.000218809
0.000215032
0.000211594
0.000208514
-9.74995e-05
-8.64132e-05
-7.47963e-05
-6.25589e-05
-4.97151e-05
-3.62446e-05
-2.21505e-05
-7.43008e-06
7.92415e-06
2.39096e-05
4.04958e-05
5.76359e-05
7.52824e-05
9.33583e-05
0.000111782
0.00013053
0.000149455
0.000168402
0.00018717
0.000205707
0.000223889
0.000241438
0.000258188
0.000273913
0.000288489
0.000301779
0.000313572
0.000323742
0.000332293
0.000338957
0.000343878
0.00034731
0.000349152
0.000349632
0.00034873
0.000346592
0.000343299
0.000339021
0.000333829
0.000327961
0.00032153
0.000314598
0.000307389
0.000300054
0.000292588
0.000285136
0.000277768
0.000270558
0.000263586
0.000256911
0.000250575
0.000244593
0.000238985
0.000233761
0.000228942
0.000224513
0.000220469
0.000216775
0.000213493
-0.000102873
-9.12774e-05
-7.91278e-05
-6.63328e-05
-5.29049e-05
-3.88213e-05
-2.40771e-05
-8.66691e-06
7.4087e-06
2.41388e-05
4.14981e-05
5.94481e-05
7.7934e-05
9.68736e-05
0.000116182
0.000135783
0.000155557
0.000175365
0.000195033
0.000214457
0.000233462
0.000251793
0.000269277
0.000285682
0.000300884
0.000314731
0.000327007
0.000337561
0.000346359
0.000353186
0.000358169
0.000361567
0.000363314
0.000363621
0.000362475
0.000360017
0.000356359
0.000351673
0.000346071
0.000339744
0.000332842
0.000325474
0.000317805
0.000309968
0.000302017
0.00029407
0.000286231
0.000278584
0.000271199
0.000264128
0.000257412
0.000251076
0.000245137
0.000239606
0.00023449
0.000229785
0.000225501
0.000221596
0.000218137
-0.000108722
-9.65807e-05
-8.3858e-05
-7.04599e-05
-5.63992e-05
-4.16512e-05
-2.62087e-05
-1.00668e-05
6.77063e-06
2.42888e-05
4.24613e-05
6.12494e-05
8.05981e-05
0.000100432
0.000120666
0.000141196
0.000161901
0.000182632
0.000203225
0.000223544
0.0002434
0.000262562
0.000280827
0.000297961
0.000313818
0.000328229
0.000340993
0.00035194
0.000361003
0.000367992
0.00037304
0.00037641
0.000378059
0.00037817
0.000376766
0.000373981
0.000369941
0.00036482
0.00035876
0.000351934
0.000344505
0.000336607
0.00032839