/*--------------------------------*- C++ -*----------------------------------*\
| =========                 |                                                 |
| \\      /  F ield         | OpenFOAM: The Open Source CFD Toolbox           |
|  \\    /   O peration     | Version:  2312                                  |
|   \\  /    A nd           | Website:  www.openfoam.com                      |
|    \\/     M anipulation  |                                                 |
\*---------------------------------------------------------------------------*/
FoamFile
{
    version     2.0;
    format      ascii;
    arch        "LSB;label=32;scalar=64";
    class       surfaceScalarField;
    location    "700";
    object      phi;
}
// * * * * * * * * * * * * * * * * * * * * * * * * * * * * * * * * * * * * * //

dimensions      [0 3 -1 0 0 0 0];

oriented        oriented;

internalField   nonuniform List<scalar> 
116611
(
0.00107414
0.000402386
-0.00105823
-0.000418288
0.00108993
0.000396986
-0.000412783
0.00110577
0.000391283
-0.000407119
0.00112156
0.000385236
-0.000401025
0.001137
0.00037872
-0.000394164
0.00115249
0.000371691
-0.000387183
0.00116716
0.000364182
-0.000378854
0.00118188
0.000356161
-0.000370874
0.00119639
0.000347628
-0.00036214
0.00121079
0.000338647
-0.000353049
0.00122485
0.00032906
-0.000343113
0.00123862
0.00031892
-0.000332691
0.00125205
0.000308193
-0.000321631
0.00126548
0.000296863
-0.000310284
0.0012787
0.00028498
-0.000298206
0.00129148
0.00027256
-0.000285343
0.00130413
0.000259345
-0.00027199
0.00131625
0.000245581
-0.000257701
0.00132795
0.000230982
-0.000242682
0.00133933
0.00021591
-0.000227288
0.00135057
0.000199887
-0.000211124
0.00136139
0.000183227
-0.00019405
0.0013719
0.000165833
-0.000176348
0.00138205
0.000147666
-0.000157818
0.00139164
0.00012869
-0.000138272
0.00140074
0.000108852
-0.000117956
0.00140933
8.80781e-05
-9.6669e-05
0.00141702
6.66221e-05
-7.43133e-05
0.00142431
4.41436e-05
-5.14302e-05
0.00143033
2.07089e-05
-2.67332e-05
0.0014358
-3.38512e-06
-2.0815e-06
0.00144031
-2.86189e-05
2.4112e-05
0.00144382
-5.47718e-05
5.12631e-05
0.00144663
-8.17116e-05
7.88991e-05
0.0014484
-0.000109923
0.000108156
0.00144939
-0.000139005
0.000138006
0.00144931
-0.000169443
0.00016953
0.00144834
-0.000200841
0.000201811
0.00144661
-0.000233207
0.00023493
0.0014441
-0.000266843
0.000269354
0.00144083
-0.000301595
0.000304867
0.0014367
-0.000337764
0.000341897
0.00143192
-0.000375075
0.000379849
0.00142612
-0.000413647
0.000419447
0.00141987
-0.00045351
0.000459765
0.00141238
-0.000494825
0.000502308
0.00140388
-0.000537634
0.000546135
0.00139403
-0.000581834
0.000591687
0.00138297
-0.000627529
0.00063859
0.0013703
-0.000674772
0.000687437
0.00135609
-0.00072363
0.000737842
0.00134025
-0.000774164
0.000790011
0.00132269
-0.000826429
0.000843982
0.00130353
-0.000880566
0.000899732
0.00128307
-0.000936714
0.000957173
0.0012604
-0.00099537
0.00101803
0.00123626
-0.00105646
0.00108061
0.00120987
-0.00112049
0.00114688
0.00118096
-0.00118778
0.00121669
0.00114968
-0.00125842
0.0012897
0.00111662
-0.00133239
0.00136545
0.00108125
-0.00141124
0.00144661
0.00104308
-0.00149552
0.00153369
0.00100276
-0.00158596
0.00162628
0.000962211
-0.00168487
0.00172541
0.000918099
-0.00179641
0.00184052
0.000867061
-0.0019112
0.00196224
0.000793996
-0.00199058
0.00206365
-0.00199492
0.000691283
0.00209763
0.00105737
0.000386601
-0.00104158
0.00107298
0.000381375
0.00108849
0.000375769
0.00110395
0.000369777
0.00111932
0.000363349
0.00113451
0.000356499
0.00114947
0.00034922
0.00116419
0.00034145
0.00117863
0.00033318
0.0011929
0.000324382
0.0012069
0.000315059
0.00122061
0.000305204
0.00123402
0.000294789
0.0012471
0.00028378
0.00125988
0.000272201
0.00127245
0.000259993
0.00128462
0.000247171
0.0012965
0.000233698
0.00130791
0.00021958
0.00131905
0.000204765
0.0013297
0.000189237
0.00133992
0.000173004
0.00134972
0.000156038
0.00135907
0.000138314
0.00136795
0.000119808
0.00137632
0.00010048
0.00138406
8.03465e-05
0.00139128
5.93986e-05
0.00139785
3.75734e-05
0.00140368
1.48787e-05
0.00140899
-8.6898e-06
0.00141353
-3.31613e-05
0.00141732
-5.85667e-05
0.00142053
-8.49234e-05
0.00142294
-0.000112328
0.00142469
-0.000140758
0.00142553
-0.000170277
0.00142553
-0.000200846
0.0014248
-0.000232476
0.00142322
-0.00026526
0.00142083
-0.000299211
0.00141745
-0.000334378
0.0014131
-0.000370728
0.00140776
-0.000408301
0.0014014
-0.000447158
0.0013939
-0.000487321
0.00138512
-0.000528853
0.00137503
-0.000571742
0.00136357
-0.00061607
0.00135066
-0.000661867
0.00133624
-0.00070921
0.00132025
-0.000758175
0.00130267
-0.000808842
0.00128345
-0.000861347
0.00126258
-0.000915844
0.00123979
-0.000972587
0.00121507
-0.00103174
0.00118816
-0.00109359
0.00115882
-0.00115843
0.00112693
-0.00122653
0.00109279
-0.00129825
0.00105589
-0.00137433
0.00101607
-0.00145571
0.000973884
-0.00154377
0.00093036
-0.00164134
0.000883882
-0.00174993
0.000824803
-0.00185212
0.000732671
-0.00189845
-0.0018669
0.000604656
0.00104057
0.000370608
-0.00102458
0.00105632
0.000365625
0.00107185
0.000360243
0.00108718
0.000354439
0.00110233
0.0003482
0.00111731
0.000341524
0.00113213
0.000334404
0.00114675
0.000326827
0.00116115
0.000318779
0.0011753
0.000310232
0.00118919
0.000301173
0.0012028
0.000291586
0.00121613
0.000281459
0.00122914
0.00027077
0.00124184
0.000259502
0.0012542
0.000247632
0.00126622
0.000235151
0.00127788
0.000222038
0.00128918
0.000208283
0.00130009
0.000193861
0.00131056
0.000178763
0.0013206
0.000162965
0.00133019
0.000146447
0.00133931
0.000129191
0.00134794
0.000111176
0.00135604
9.23808e-05
0.0013636
7.27903e-05
0.00137061
5.23842e-05
0.00137704
3.11468e-05
0.00138287
9.05091e-06
0.00138807
-1.38957e-05
0.00139263
-3.77187e-05
0.00139654
-6.24713e-05
0.00139979
-8.8176e-05
0.00140232
-0.000114861
0.00140411
-0.000142551
0.0014051
-0.000171267
0.00140529
-0.000201033
0.00140467
-0.000231859
0.0014032
-0.000263781
0.00140081
-0.000296829
0.00139746
-0.000331022
0.00139311
-0.000366378
0.00138772
-0.000402917
0.00138124
-0.000440672
0.00137359
-0.000479671
0.00136469
-0.000519956
0.00135451
-0.000561561
0.00134297
-0.000604534
0.00133003
-0.000648922
0.00131561
-0.000694792
0.00129965
-0.000742219
0.0012821
-0.000791287
0.00126286
-0.000842106
0.00124183
-0.000894814
0.00121882
-0.000949585
0.0011937
-0.00100661
0.00116625
-0.00106614
0.00113628
-0.00112846
0.00110362
-0.00119388
0.00106817
-0.0012628
0.00102972
-0.00133589
0.000988269
-0.00141425
0.000944355
-0.00149986
0.000898673
-0.00159566
0.000847552
-0.00169881
0.000774947
-0.00177951
0.000660525
-0.00178403
-0.00172
0.00051362
0.00102335
0.000354503
-0.00100725
0.00103926
0.000349714
0.00105495
0.000344559
0.00107039
0.000338994
0.00108559
0.000332999
0.00110056
0.00032656
0.00111529
0.000319667
0.00112981
0.000312315
0.00114409
0.000304495
0.00115813
0.000296192
0.00117191
0.000287391
0.00118542
0.000278075
0.00119865
0.000268229
0.00121159
0.000257838
0.0012242
0.000246885
0.00123648
0.000235353
0.00124841
0.000223223
0.00125997
0.000210479
0.00127115
0.000197103
0.00128193
0.000183082
0.00129229
0.000168397
0.00130223
0.000153028
0.00131172
0.00013696
0.00132074
0.000120173
0.00132927
0.000102647
0.00133728
8.43624e-05
0.00134477
6.53001e-05
0.00135172
4.54438e-05
0.00135808
2.47785e-05
0.00136386
3.27842e-06
0.00136901
-1.90477e-05
0.00137353
-4.22449e-05
0.00137741
-6.63475e-05
0.00138061
-9.13766e-05
0.0013831
-0.000117355
0.00138486
-0.000144307
0.00138585
-0.000172255
0.00138603
-0.000201219
0.00138539
-0.000231216
0.00138388
-0.000262269
0.00138145
-0.000294401
0.00137806
-0.000327632
0.00137366
-0.000361981
0.00136821
-0.000397466
0.00136166
-0.000434116
0.00135395
-0.000471962
0.00134503
-0.000511038
0.00133485
-0.00055138
0.00132335
-0.000593032
0.00131047
-0.00063604
0.00129613
-0.000680458
0.00128026
-0.000726348
0.00126276
-0.000773781
0.0012435
-0.000822847
0.00122234
-0.000873658
0.00119912
-0.000926362
0.00117364
-0.000981138
0.00114571
-0.00103821
0.00111509
-0.00109784
0.00108157
-0.00116036
0.00104493
-0.00122616
0.00100502
-0.00129598
0.000962008
-0.00137124
0.000916544
-0.0014544
0.000868411
-0.00154753
0.000809761
-0.00164016
0.00071894
-0.00168869
0.000582252
-0.00164734
-0.00156163
0.000423884
0.00100656
0.000338667
-0.000990725
0.00102232
0.000333956
0.00103795
0.000328928
0.00105341
0.000323533
0.00106867
0.000317742
0.00108369
0.000311533
0.00109847
0.000304888
0.00111299
0.000297792
0.00112726
0.000290231
0.00114126
0.000282194
0.00115498
0.000273665
0.00116843
0.000264632
0.00118157
0.00025508
0.00119442
0.000244994
0.00120694
0.00023436
0.00121913
0.000223162
0.00123097
0.000211383
0.00124245
0.000199006
0.00125353
0.000186014
0.00126423
0.000172391
0.0012745
0.00015812
0.00128435
0.000143184
0.00129374
0.000127564
0.00130267
0.000111243
0.00131112
9.42028e-05
0.00131905
7.64244e-05
0.00132646
5.78904e-05
0.00133332
3.85841e-05
0.00133961
1.84878e-05
0.00134531
-2.41754e-06
0.0013504
-2.41362e-05
0.00135486
-4.671e-05
0.00135868
-7.01641e-05
0.00136182
-9.45191e-05
0.00136426
-0.000119796
0.00136597
-0.000146015
0.00136691
-0.000173197
0.00136706
-0.00020136
0.00136636
-0.000230521
0.00136479
-0.0002607
0.00136231
-0.000291917
0.00135887
-0.000324191
0.00135443
-0.000357542
0.00134895
-0.00039199
0.0013424
-0.000427562
0.00133472
-0.000464284
0.00132587
-0.000502188
0.00131579
-0.000541304
0.00130443
-0.000581667
0.0012917
-0.000623313
0.00127752
-0.000666279
0.00126179
-0.000710612
0.00124437
-0.000756364
0.00122513
-0.000803608
0.00120391
-0.000852437
0.00118052
-0.000902975
0.00115477
-0.000955384
0.00112642
-0.00100986
0.00109521
-0.00106663
0.00106085
-0.00112599
0.00102308
-0.00118839
0.00098187
-0.00125477
0.000937616
-0.00132698
0.000890863
-0.00140764
0.000839244
-0.00149591
0.000768884
-0.0015698
0.00065603
-0.00157584
0.000500253
-0.00149156
-0.00140067
0.000339293
0.000991088
0.000323254
-0.000975675
0.00100646
0.000318586
0.00102176
0.000313624
0.00103697
0.000308326
0.00105205
0.000302666
0.00106696
0.000296621
0.00108167
0.000290173
0.00109616
0.000283301
0.00111041
0.000275986
0.00112439
0.000268211
0.0011381
0.000259961
0.00115151
0.000251219
0.00116462
0.000241971
0.00117741
0.000232202
0.00118987
0.000221897
0.00120199
0.00021104
0.00121376
0.000199616
0.00122516
0.000187609
0.00123617
0.000175002
0.00124678
0.00016178
0.00125698
0.000147925
0.00126674
0.000133421
0.00127605
0.00011825
0.0012849
0.000102397
0.00129326
8.58418e-05
0.00130112
6.85687e-05
0.00130845
5.05599e-05
0.00131523
3.17993e-05
0.00132146
1.22657e-05
0.00132709
-8.04793e-06
0.00133211
-2.91621e-05
0.00133651
-5.11109e-05
0.00134026
-7.39157e-05
0.00134334
-9.75952e-05
0.00134571
-0.000122168
0.00134735
-0.000147654
0.00134822
-0.00017407
0.0013483
-0.000201435
0.00134754
-0.000229766
0.00134593
-0.000259083
0.00134341
-0.000289403
0.00133997
-0.000320746
0.00133556
-0.000353131
0.00133015
-0.000386579
0.0013237
-0.000421111
0.00131616
-0.000456749
0.00130749
-0.000493515
0.00129762
-0.000531431
0.00128647
-0.000570519
0.00127395
-0.000610799
0.00125997
-0.000652297
0.0012444
-0.000695042
0.00122711
-0.000739072
0.00120794
-0.000784441
0.00118673
-0.000831226
0.00116328
-0.000879526
0.00113737
-0.00092947
0.00110872
-0.000981209
0.00107701
-0.00103492
0.0010419
-0.00109088
0.00100319
-0.00114969
0.000961075
-0.00121265
0.0009161
-0.00128201
0.00086801
-0.00135955
0.000810416
-0.00143832
0.00072308
-0.00148246
0.000586647
-0.00143941
0.000417657
-0.00132257
-0.00124481
0.0002618
0.00097698
0.000308127
-0.000961853
0.000992015
0.000303551
0.00100696
0.000298681
0.0010218
0.00029348
0.00103654
0.000287929
0.00105115
0.000282013
0.00106561
0.000275717
0.00107989
0.000269022
0.00109396
0.00026191
0.00110781
0.000254363
0.00112141
0.000246364
0.00113473
0.000237894
0.00114776
0.000228938
0.00116049
0.000219478
0.00117289
0.000209498
0.00118495
0.000198982
0.00119665
0.000187914
0.00120798
0.000176279
0.00121892
0.000164059
0.00122946
0.000151239
0.00123959
0.000137802
0.00124927
0.000123732
0.00125851
0.000109013
0.00126728
9.36276e-05
0.00127556
7.75592e-05
0.00128334
6.07913e-05
0.00129059
4.33067e-05
0.0012973
2.50901e-05
0.00130345
6.12006e-06
0.001309
-1.3603e-05
0.00131395
-3.41126e-05
0.00131828
-5.5436e-05
0.00132196
-7.75922e-05
0.00132496
-0.000100599
0.00132726
-0.000124473
0.00132884
-0.000149234
0.00132967
-0.000174898
0.00132972
-0.000201484
0.00132896
-0.000229009
0.00132737
-0.000257491
0.00132492
-0.000286948
0.00132157
-0.000317396
0.00131729
-0.000348854
0.00131205
-0.000381336
0.0013058
-0.000414859
0.00129848
-0.000449436
0.00129005
-0.000485081
0.00128042
-0.000521803
0.00126951
-0.000559614
0.00125724
-0.000598523
0.00124348
-0.00063854
0.00122812
-0.000679683
0.00121102
-0.000721974
0.00119203
-0.000765449
0.00117097
-0.000810159
0.00114761
-0.000856169
0.00112169
-0.000903555
0.00109289
-0.000952402
0.00106081
-0.00100285
0.00102517
-0.00105524
0.000985956
-0.00111047
0.000943592
-0.00117029
0.000898428
-0.00123684
0.000848034
-0.00130916
0.000780018
-0.0013703
0.000670437
-0.00137288
0.000511908
-0.00128088
0.000336999
-0.00114766
-0.00109887
0.000191058
0.00096373
0.000293103
-0.000948705
0.000978609
0.000288672
0.000993344
0.000283946
0.00100794
0.000278887
0.00102239
0.000273479
0.00103669
0.000267712
0.00105083
0.000261572
0.00106481
0.000255046
0.0010786
0.00024812
0.00109218
0.000240777
0.00110555
0.000233003
0.00111866
0.000224779
0.00113151
0.000216089
0.00114407
0.000206916
0.00115633
0.000197243
0.00116826
0.000187053
0.00117984
0.00017633
0.00119106
0.000165057
0.00120191
0.000153217
0.00121235
0.000140794
0.00122238
0.000127772
0.00123198
0.000114134
0.00124113
9.98641e-05
0.00124981
8.49454e-05
0.00125801
6.93617e-05
0.0012657
5.30969e-05
0.00127287
3.61348e-05
0.0012795
1.84593e-05
0.00128557
5.35089e-08
0.00129105
-1.90867e-05
0.00129594
-3.89989e-05
0.00130021
-5.97051e-05
0.00130384
-8.12228e-05
0.00130681
-0.000103569
0.0013091
-0.000126761
0.00131068
-0.000150816
0.00131153
-0.000175752
0.00131163
-0.000201585
0.00131096
-0.000228331
0.00130947
-0.000256009
0.00130716
-0.000284631
0.00130397
-0.000314213
0.00129989
-0.000344767
0.00129485
-0.000376303
0.00128883
-0.000408832
0.00128175
-0.000442359
0.00127356
-0.000476889
0.00126418
-0.000512425
0.00125353
-0.000548967
0.00124152
-0.000586515
0.00122805
-0.000625067
0.00121299
-0.000664626
0.00119622
-0.000705196
0.00117755
-0.000746788
0.00115681
-0.000789416
0.00113374
-0.000833092
0.001108
-0.00087782
0.00107922
-0.000923623
0.00104704
-0.000970669
0.00101133
-0.00101953
0.000972367
-0.00107151
0.00093065
-0.00112857
0.000885358
-0.00119155
0.000829841
-0.00125364
0.000744995
-0.00128545
0.000609625
-0.00123751
0.000433515
-0.00110477
0.000259898
-0.000974047
-0.000964132
0.000125157
0.000950908
0.000278104
-0.000935909
0.000965744
0.000273836
0.000980407
0.000269282
0.000994894
0.000264401
0.0010092
0.000259174
0.00102332
0.00025359
0.00103725
0.000247638
0.00105099
0.000241307
0.00106453
0.000234584
0.00107785
0.000227454
0.00109095
0.000219905
0.00110381
0.000211922
0.00111641
0.000203489
0.00112873
0.00019459
0.00114076
0.00018521
0.00115249
0.000175331
0.00116388
0.000164937
0.00117492
0.000154012
0.0011856
0.00014254
0.00119589
0.000130502
0.00120578
0.000117884
0.00121525
0.000104667
0.00122428
9.0837e-05
0.00123285
7.63764e-05
0.00124094
6.12691e-05
0.00124854
4.5499e-05
0.00125562
2.90509e-05
0.00126217
1.19063e-05
0.00126817
-5.94319e-06
0.0012736
-2.45163e-05
0.00127845
-4.38454e-05
0.00128269
-6.39496e-05
0.00128631
-8.48458e-05
0.00128929
-0.00010655
0.00129161
-0.00012908
0.00129325
-0.000152451
0.00129417
-0.000176679
0.00129437
-0.000201781
0.00129381
-0.000227771
0.00129247
-0.000254663
0.0012903
-0.000282469
0.00128729
-0.0003112
0.00128339
-0.000340864
0.00127855
-0.000371467
0.00127273
-0.000403013
0.00126588
-0.000435505
0.00125793
-0.000468941
0.00124882
-0.000503315
0.00123848
-0.000538622
0.00122681
-0.00057485
0.00121373
-0.000611984
0.00119911
-0.000650009
0.00118282
-0.000688906
0.00116468
-0.00072865
0.00114447
-0.000769201
0.00112187
-0.000810498
0.00109653
-0.000852473
0.00106806
-0.000895153
0.00103627
-0.000938881
0.00100135
-0.000984612
0.000963812
-0.00103397
0.000923489
-0.00108825
0.00087668
-0.00114474
0.000810435
-0.0011874
0.000701584
-0.0011766
0.000540269
-0.0010762
0.000353367
-0.000917865
0.000186523
-0.000807203
-0.000840666
6.30578e-05
0.00093841
0.000263144
-0.000923449
0.000953211
0.000259035
0.000967838
0.000254655
0.000982281
0.000249958
0.000996529
0.000244925
0.00101057
0.000239545
0.00102441
0.000233806
0.00103802
0.000227693
0.00105141
0.000221197
0.00106456
0.000214303
0.00107747
0.000206998
0.00109012
0.000199269
0.00110251
0.000191103
0.00111461
0.000182483
0.00112643
0.000173396
0.00113793
0.000163826
0.00114911
0.000153757
0.00115995
0.000143173
0.00117043
0.000132057
0.00118054
0.000120395
0.00119025
0.000108169
0.00119956
9.53628e-05
0.00120844
8.19604e-05
0.00121687
6.79455e-05
0.00122483
5.33021e-05
0.00123232
3.80138e-05
0.0012393
2.20657e-05
0.00124577
5.43845e-06
0.0012517
-1.18714e-05
0.00125708
-2.9895e-05
0.00126189
-4.86578e-05
0.00126612
-6.81772e-05
0.00126974
-8.8469e-05
0.00127274
-0.000109549
0.00127509
-0.000131433
0.00127678
-0.000154136
0.00127777
-0.000177673
0.00127805
-0.000202059
0.00127759
-0.000227306
0.00127635
-0.000253426
0.00127431
-0.000280428
0.00127143
-0.000308321
0.00126767
-0.00033711
0.00126301
-0.0003668
0.00125739
-0.000397392
0.00125076
-0.000428883
0.00124309
-0.000461267
0.00123431
-0.000494533
0.00122435
-0.000528665
0.00121314
-0.000563641
0.00120059
-0.000599432
0.00118658
-0.000636001
0.00117097
-0.000673294
0.00115356
-0.000711237
0.00113407
-0.000749716
0.00111217
-0.000788598
0.00108751
-0.000827809
0.00105988
-0.000867529
0.00102946
-0.000908457
0.000996746
-0.000951901
0.000961898
-0.000999124
0.000922606
-0.00104896
0.000869985
-0.00109212
0.00078451
-0.00110192
0.000646303
-0.0010384
0.00046311
-0.000893005
0.000273493
-0.000728248
0.000116802
-0.000650512
-0.000723684
-1.80016e-07
0.000926345
0.000248263
-0.000911463
0.000941074
0.000244305
0.000955638
0.000240091
0.000970022
0.000235574
0.000984214
0.000230734
0.0009982
0.000225559
0.00101197
0.000220035
0.00102551
0.000214151
0.00103882
0.000207893
0.00105187
0.000201248
0.00106467
0.000194202
0.0010772
0.000186743
0.00108944
0.000178856
0.0011014
0.000170528
0.00111305
0.000161744
0.00112439
0.00015249
0.00113539
0.000142749
0.00114606
0.000132508
0.00115636
0.00012175
0.0011663
0.00011046
0.00117585
9.86217e-05
0.00118499
8.62193e-05
0.00119371
7.32369e-05
0.001202
5.96585e-05
0.00120983
4.54682e-05
0.0012172
3.06506e-05
0.00122407
1.51893e-05
0.00123044
-9.30197e-07
0.00123629
-1.77178e-05
0.0012416
-3.52067e-05
0.00124636
-5.34171e-05
0.00125055
-7.2365e-05
0.00125414
-9.20655e-05
0.00125713
-0.000112534
0.00125948
-0.000133784
0.00126118
-0.000155832
0.00126219
-0.00017869
0.0012625
-0.000202372
0.00126209
-0.00022689
0.00126092
-0.000252253
0.00125896
-0.000278472
0.00125619
-0.000305552
0.00125258
-0.000333498
0.00124809
-0.000362314
0.0012427
-0.000391997
0.00123636
-0.000422541
0.00122903
-0.000453937
0.00122066
-0.000486167
0.0012112
-0.000519206
0.00120058
-0.000553021
0.00118871
-0.000587564
0.00117548
-0.00062277
0.00116072
-0.000658537
0.00114421
-0.000694723
0.00112564
-0.00073115
0.00110473
-0.000767682
0.00108132
-0.000804399
0.00105562
-0.000841832
0.00102821
-0.000881044
0.000999415
-0.000923108
0.000967628
-0.000967336
0.000926122
-0.00100745
0.000859196
-0.0010252
0.000745037
-0.000987761
0.000576883
-0.000870241
0.000379863
-0.000695986
0.000195654
-0.000544038
5.16526e-05
-0.000506511
-0.000614114
-5.79178e-05
0.000914891
0.000233494
-0.000900123
0.000929513
0.000229683
0.000943974
0.000225631
0.000958259
0.000221288
0.000972358
0.000216635
0.000986256
0.00021166
0.000999941
0.00020635
0.0010134
0.000200692
0.00102662
0.000194672
0.00103959
0.000188278
0.0010523
0.000181496
0.00106473
0.000174312
0.00107687
0.000166712
0.00108872
0.000158683
0.00110025
0.00015021
0.00111146
0.000141278
0.00112234
0.000131873
0.00113286
0.00012198
0.00114303
0.000111583
0.00115282
0.000100668
0.00116223
8.92177e-05
0.00117123
7.7218e-05
0.00117981
6.46529e-05
0.00118797
5.1507e-05
0.00119567
3.77646e-05
0.00120291
2.3411e-05
0.00120967
8.42828e-06
0.00121593
-7.18942e-06
0.00122168
-2.34665e-05
0.0012269
-4.04301e-05
0.00123158
-5.80974e-05
0.0012357
-7.64835e-05
0.00123924
-9.56029e-05
0.00124217
-0.00011547
0.00124449
-0.0001361
0.00124616
-0.000157505
0.00124717
-0.0001797
0.0012475
-0.000202697
0.00124711
-0.000226508
0.001246
-0.000251142
0.00124414
-0.000276608
0.0012415
-0.000302913
0.00123806
-0.00033006
0.0012338
-0.000358051
0.00122869
-0.000386883
0.00122269
-0.000416547
0.00121578
-0.00044703
0.00120792
-0.000478308
0.00119907
-0.000510349
0.00118915
-0.000543108
0.0011781
-0.000576511
0.00116578
-0.000610449
0.00115201
-0.000644763
0.00113654
-0.000679256
0.00111916
-0.000713771
0.00109983
-0.000748352
0.00107888
-0.000783447
0.001057
-0.000819955
0.00103469
-0.000858736
0.00101069
-0.000899107
0.000979319
-0.000935962
0.00092729
-0.000955421
0.000834034
-0.000931939
0.000685269
-0.000838996
0.000493042
-0.000678013
0.000292816
-0.00049576
0.000120535
-0.000371757
-9.56397e-06
-0.000376412
-0.000507709
-0.000115969
0.000904224
0.00021886
-0.000889589
0.000918713
0.000215194
0.000933042
0.000211302
0.000947198
0.000207131
0.00096117
0.000202664
0.000974943
0.000197887
0.000988507
0.000192787
0.00100185
0.000187352
0.00101495
0.000181569
0.0010278
0.000175424
0.0010404
0.000168904
0.00105271
0.000161995
0.00106474
0.000154683
0.00107647
0.000146954
0.00108789
0.000138794
0.00109898
0.000130188
0.00110973
0.000121121
0.00112013
0.000111579
0.00113017
0.000101545
0.00113983
9.10063e-05
0.0011491
7.99461e-05
0.00115797
6.83495e-05
0.00116642
5.62013e-05
0.00117444
4.34864e-05
0.00118202
3.01897e-05
0.00118913
1.62961e-05
0.00119577
1.79023e-06
0.00120192
-1.33339e-05
0.00120756
-2.91086e-05
0.00121268
-4.55547e-05
0.00121727
-6.26878e-05
0.00122131
-8.05222e-05
0.00122478
-9.90724e-05
0.00122767
-0.000118353
0.00122994
-0.000138377
0.0012316
-0.000159159
0.00123261
-0.000180712
0.00123296
-0.00020305
0.00123264
-0.000226182
0.00123161
-0.000250119
0.00122988
-0.00027487
0.0012274
-0.000300442
0.00122418
-0.000326838
0.00122019
-0.000354058
0.00121541
-0.0003821
0.00120981
-0.000410953
0.00120339
-0.000440603
0.0011961
-0.000471024
0.00118793
-0.000502174
0.0011788
-0.000533984
0.00116864
-0.000566344
0.00115728
-0.000599095
0.00114457
-0.000632049
0.00113038
-0.000665069
0.00111483
-0.000698225
0.00109845
-0.000731965
0.00108211
-0.000767106
0.00106646
-0.000804307
0.00105039
-0.000842664
0.0010286
-0.00087732
0.000988996
-0.000896358
0.000912507
-0.000878932
0.000782296
-0.000801729
0.000601463
-0.000658163
0.000397215
-0.000473765
0.000204912
-0.000303458
4.94017e-05
-0.000216247
-6.75307e-05
-0.000259479
-0.000407487
-0.000167752
0.00089448
0.000204368
-0.000879988
0.000908825
0.000200849
0.000923009
0.000197118
0.000937019
0.000193121
0.000950844
0.00018884
0.00096447
0.00018426
0.000977885
0.000179371
0.000991078
0.00017416
0.00100403
0.000168612
0.00101674
0.000162716
0.00102919
0.000156457
0.00104136
0.000149822
0.00105325
0.000142798
0.00106483
0.000135369
0.0010761
0.000127521
0.00108705
0.000119241
0.00109766
0.000110512
0.00110792
0.00010132
0.00111781
9.16506e-05
0.00112733
8.14878e-05
0.00113646
7.08167e-05
0.00114519
5.96222e-05
0.0011535
4.78892e-05
0.00116138
3.56028e-05
0.00116883
2.27486e-05
0.00117581
9.30983e-06
0.00118232
-4.72086e-06
0.00118835
-1.93632e-05
0.00119389
-3.46451e-05
0.00119892
-5.05837e-05
0.00120342
-6.71939e-05
0.00120739
-8.44899e-05
0.00121081
-0.000102486
0.00121365
-0.000121196
0.00121591
-0.000140635
0.00121756
-0.000160815
0.0012186
-0.000181751
0.00121901
-0.000203455
0.00121876
-0.000225938
0.00121786
-0.000249212
0.00121627
-0.000273284
0.00121399
-0.000298162
0.001211
-0.000323852
0.0012073
-0.000350354
0.00120287
-0.000377668
0.0011977
-0.000405785
0.00119179
-0.00043469
0.00118511
-0.000464349
0.00117764
-0.000494699
0.00116929
-0.00052564
0.00115998
-0.000557027
0.00114959
-0.00058871
0.00113816
-0.000620615
0.00112599
-0.000652898
0.00111384
-0.000686077
0.00110282
-0.000720951
0.0010937
-0.000757987
0.00108532
-0.000795922
0.0010723
-0.000829642
0.00104286
-0.000847878
0.000978918
-0.000832421
0.000863515
-0.000763529
0.000695465
-0.000633678
0.000495436
-0.000458134
0.000294748
-0.000273077
0.000119895
-0.000128605
-1.63941e-05
-7.99573e-05
-0.000123151
-0.000152722
-0.000304463
-0.000226176
0.000885744
0.000190013
-0.000871389
0.000899948
0.000186646
0.000913986
0.000183079
0.000927847
0.00017926
0.000941519
0.000175168
0.00095499
0.00017079
0.000968247
0.000166114
0.000981279
0.000161128
0.000994072
0.000155818
0.00100662
0.000150173
0.0010189
0.000144177
0.0010309
0.000137817
0.00104262
0.00013108
0.00105404
0.000123952
0.00106514
0.000116417
0.00107592
0.000108462
0.00108636
0.000100071
0.00109645
9.12289e-05
0.00110618
8.19214e-05
0.00111553
7.21329e-05
0.0011245
6.18484e-05
0.00113307
5.10529e-05
0.00114123
3.97312e-05
0.00114896
2.78687e-05
0.00115626
1.54506e-05
0.00116311
2.46199e-06
0.00116949
-1.11034e-05
0.00117541
-2.52756e-05
0.00118084
-4.0076e-05
0.00118577
-5.55199e-05
0.0011902
-7.16214e-05
0.0011941
-8.83946e-05
0.00119747
-0.000105854
0.00120029
-0.000124013
0.00120254
-0.000142885
0.00120421
-0.000162486
0.00120529
-0.000182827
0.00120575
-0.000203923
0.0012056
-0.000225784
0.00120481
-0.000248422
0.00120337
-0.000271848
0.00120128
-0.000296071
0.00119853
-0.000321098
0.00119511
-0.000346936
0.00119103
-0.000373585
0.00118628
-0.000401038
0.00118086
-0.00042927
0.00117474
-0.000458227
0.00116786
-0.000487822
0.00116017
-0.000517946
0.00115166
-0.000548513
0.0011425
-0.000579559
0.00113327
-0.000611378
0.00112498
-0.000644605
0.00111894
-0.000680038
0.0011159
-0.000717918
0.00111442
-0.000756499
0.00110859
-0.000790098
0.00108636
-0.000807412
0.00103022
-0.000791734
0.000924285
-0.000726489
0.0007668
-0.000606044
0.000574992
-0.000441871
0.00037571
-0.000258851
0.000193207
-9.05743e-05
4.27977e-05
2.18047e-05
-7.34306e-05
3.62711e-05
-0.000171633
-5.45202e-05
-0.000204936
-0.00027116
0.000878037
0.000175781
-0.000863805
0.000892111
0.000172571
0.000906015
0.000169176
0.000919735
0.00016554
0.000933261
0.000161642
0.000946579
0.000157471
0.00095968
0.000153013
0.00097255
0.000148258
0.000985178
0.000143191
0.000997551
0.000137799
0.00100966
0.00013207
0.00102149
0.000125989
0.00103302
0.000119543
0.00104426
0.000112717
0.00105518
0.000105497
0.00106577
9.78681e-05
0.00107603
8.9815e-05
0.00108593
8.13227e-05
0.00109548
7.23762e-05
0.00110465
6.29601e-05
0.00111344
5.30593e-05
0.00112183
4.26587e-05
0.00112982
3.17434e-05
0.00113739
2.02987e-05
0.00114453
8.30853e-06
0.00115123
-4.23514e-06
0.00115748
-1.73513e-05
0.00116327
-3.10667e-05
0.00116859
-4.53983e-05
0.00117343
-6.03607e-05
0.00117778
-7.59678e-05
0.00118162
-9.22336e-05
0.00118494
-0.000109172
0.00118772
-0.000126797
0.00118996
-0.000145123
0.00119164
-0.000164163
0.00119274
-0.00018393
0.00119326
-0.000204439
0.00119317
-0.000225702
0.00119248
-0.000247733
0.00119118
-0.000270543
0.00118926
-0.000294147
0.00118671
-0.000318556
0.00118356
-0.000343778
0.00117978
-0.000369809
0.00117537
-0.000396632
0.00117031
-0.000424203
0.00116454
-0.00045246
0.00115806
-0.000481347
0.001151
-0.000510878
0.00114372
-0.00054124
0.00113706
-0.0005729
0.0011323
-0.000606609
0.00113081
-0.000643117
0.0011331
-0.000682332
0.00113704
-0.00072186
0.00113579
-0.000755249
0.00111657
-0.000770872
0.00106233
-0.00075317
0.000959359
-0.000688767
0.000808155
-0.000575285
0.000625547
-0.000423435
0.000434898
-0.000251222
0.000255886
-7.98401e-05
0.000100786
6.45257e-05
-2.43823e-05
0.000146973
-0.000124205
0.000136093
-0.000215238
3.65127e-05
-0.000114175
-0.000305999
0.000871354
0.000161655
-0.000857227
0.000885316
0.000158609
0.0008991
0.000155392
0.000912693
0.000151946
0.000926085
0.000148251
0.000939262
0.000144293
0.000952215
0.000140061
0.00096493
0.000135542
0.000977396
0.000130724
0.000989602
0.000125594
0.00100154
0.000120137
0.00101318
0.00011434
0.00102454
0.000108189
0.00103558
0.000101671
0.00104631
9.47688e-05
0.00105671
8.7469e-05
0.00106677
7.9756e-05
0.00107648
7.16145e-05
0.00108583
6.30291e-05
0.0010948
5.39844e-05
0.0011034
4.44652e-05
0.0011116
3.44561e-05
0.0011194
2.39424e-05
0.00112679
1.29092e-05
0.00113376
1.34258e-06
0.00114029
-1.07661e-05
0.00114638
-2.34455e-05
0.00115203
-3.67157e-05
0.00115722
-5.05918e-05
0.00116195
-6.50874e-05
0.0011662
-8.02159e-05
0.00116996
-9.5991e-05
0.00117321
-0.000112426
0.00117595
-0.000129535
0.00117816
-0.000147331
0.00117982
-0.000165829
0.00118093
-0.000185042
0.00118148
-0.000204985
0.00118145
-0.000225673
0.00118084
-0.000247121
0.00117964
-0.000269346
0.00117786
-0.000292361
0.00117547
-0.000316176
0.00117249
-0.00034079
0.00116887
-0.000366187
0.00116457
-0.00039234
0.0011596
-0.000419226
0.00115401
-0.000446873
0.00114809
-0.000475431
0.00114248
-0.000505266
0.00113825
-0.000537008
0.00113681
-0.000571464
0.0011394
-0.000609198
0.00114588
-0.000649594
0.00115296
-0.000689414
0.00115241
-0.000721313
0.00113054
-0.000733372
0.0010711
-0.000711441
0.000963906
-0.000645971
0.000814013
-0.000538874
0.00064006
-0.000401332
0.000462698
-0.000246074
0.000296382
-8.49054e-05
0.000148316
6.82255e-05
2.19451e-05
0.000190897
-8.15391e-05
0.000250458
-0.00016864
0.000223194
-0.000252358
0.000120231
-2.51269e-05
-0.000341405
0.00086569
0.000147621
-0.000851656
0.000879552
0.000144746
0.000893229
0.000141715
0.000906708
0.000138468
0.000919976
0.000134982
0.000933023
0.000131246
0.000945837
0.000127248
0.000958405
0.000122974
0.000970716
0.000118413
0.000982759
0.000113551
0.000994522
0.000108374
0.00100599
0.000102869
0.00101716
9.70208e-05
0.00102802
9.08153e-05
0.00103855
8.42375e-05
0.00104875
7.72719e-05
0.0010586
6.99031e-05
0.0010681
6.21154e-05
0.00107723
5.38932e-05
0.001086
4.52206e-05
0.00109438
3.60822e-05